/*--------------------------------*- C++ -*----------------------------------*\
  =========                 |
  \\      /  F ield         | OpenFOAM: The Open Source CFD Toolbox
   \\    /   O peration     | Website:  https://openfoam.org
    \\  /    A nd           | Version:  8
     \\/     M anipulation  |
\*---------------------------------------------------------------------------*/
FoamFile
{
    version     2.0;
    format      ascii;
    class       volScalarField;
    location    "1000";
    object      k;
}
// * * * * * * * * * * * * * * * * * * * * * * * * * * * * * * * * * * * * * //

dimensions      [0 2 -2 0 0 0 0];

internalField   nonuniform List<scalar> 
1200
(
2.37049e-05
2.33888e-05
2.30893e-05
2.27733e-05
2.24271e-05
2.20516e-05
2.16829e-05
2.13368e-05
2.10299e-05
2.06163e-05
2.04485e-05
2.08091e-05
2.13571e-05
2.15737e-05
2.15248e-05
1.93226e-05
1.96464e-05
1.99621e-05
2.20312e-05
2.49746e-05
2.67546e-05
2.85413e-05
3.10503e-05
3.43625e-05
3.85157e-05
4.32963e-05
4.59962e-05
4.9148e-05
5.22659e-05
5.50827e-05
5.76841e-05
6.0231e-05
6.2653e-05
6.48384e-05
6.67279e-05
6.84568e-05
7.06799e-05
7.41935e-05
7.75885e-05
8.03196e-05
8.21535e-05
8.26265e-05
8.05215e-05
8.05094e-05
8.29601e-05
8.62733e-05
8.88316e-05
8.90099e-05
8.76642e-05
8.31651e-05
8.1545e-05
0.000101302
0.000208011
0.000441428
0.000606035
0.000823863
0.00103481
0.00116953
0.0012316
0.00191687
2.08955e-05
1.81182e-05
1.57773e-05
1.37819e-05
1.2069e-05
1.0546e-05
9.27699e-06
8.27743e-06
7.66307e-06
7.12808e-06
7.2924e-06
9.54259e-06
9.84148e-06
9.80545e-06
7.56454e-06
9.49715e-06
1.17161e-05
1.21442e-05
2.06815e-05
2.41651e-05
2.12294e-05
1.9477e-05
2.01612e-05
2.24497e-05
2.52813e-05
2.75569e-05
2.89096e-05
2.95898e-05
2.99445e-05
3.03159e-05
3.07155e-05
3.10826e-05
3.14682e-05
3.20092e-05
3.28239e-05
3.34306e-05
3.34105e-05
3.30337e-05
3.57326e-05
4.0527e-05
4.31737e-05
4.45708e-05
4.55417e-05
4.52412e-05
4.57232e-05
4.56799e-05
4.5502e-05
4.60146e-05
4.94899e-05
5.27111e-05
6.02663e-05
9.60303e-05
0.000165436
0.000253284
0.000281513
0.000290682
0.000323467
0.000477747
0.000811689
0.00139471
2.0874e-05
1.79973e-05
1.55419e-05
1.34227e-05
1.15837e-05
9.97676e-06
8.58595e-06
7.42006e-06
6.49278e-06
5.78601e-06
5.63314e-06
6.81083e-06
6.80793e-06
5.78491e-06
4.98207e-06
1.34542e-05
1.79383e-05
2.812e-05
3.09169e-05
3.22348e-05
3.17528e-05
3.14672e-05
3.09299e-05
3.30333e-05
3.42022e-05
3.42736e-05
3.4953e-05
3.60146e-05
3.71979e-05
3.82518e-05
3.88761e-05
3.88522e-05
3.82791e-05
3.87441e-05
4.04777e-05
4.17595e-05
4.21229e-05
4.28427e-05
4.48341e-05
4.81228e-05
5.69095e-05
6.7357e-05
7.72146e-05
8.38793e-05
8.7827e-05
8.8562e-05
7.75468e-05
4.89692e-05
4.54491e-05
4.60146e-05
5.61003e-05
8.07516e-05
0.000103528
0.000133472
0.000141172
0.000162155
0.000219732
0.000335167
0.000512234
0.00098297
2.08894e-05
1.80068e-05
1.55508e-05
1.34357e-05
1.15969e-05
9.98449e-06
8.58093e-06
7.38588e-06
6.37071e-06
5.53148e-06
5.07917e-06
5.60503e-06
5.90998e-06
5.47673e-06
8.3186e-06
2.62061e-05
3.06072e-05
3.29731e-05
3.53786e-05
3.67589e-05
3.74464e-05
3.75088e-05
3.69073e-05
3.57916e-05
3.46541e-05
3.52457e-05
3.67752e-05
3.83951e-05
3.99374e-05
4.14542e-05
4.28868e-05
4.42271e-05
4.55188e-05
4.71755e-05
5.1931e-05
5.68939e-05
6.19454e-05
6.72025e-05
7.39987e-05
8.42186e-05
9.80912e-05
0.000112328
0.00012573
0.000140369
0.000155386
0.000168654
0.000174512
0.000163308
0.000127739
0.000107419
0.000120525
0.000146735
0.000164568
0.000183174
0.000240209
0.000356975
0.000540313
0.000781525
0.00116441
0.00196906
2.09036e-05
1.80086e-05
1.55455e-05
1.34219e-05
1.15784e-05
9.97883e-06
8.57987e-06
7.38949e-06
6.37217e-06
5.5116e-06
4.87647e-06
4.79802e-06
4.96578e-06
4.94323e-06
4.97296e-06
1.54284e-05
2.05049e-05
2.73463e-05
2.92788e-05
3.31336e-05
3.43889e-05
3.55017e-05
3.55399e-05
3.43849e-05
3.30293e-05
3.40013e-05
3.56073e-05
3.80542e-05
4.00631e-05
4.19296e-05
4.37333e-05
4.51962e-05
4.74474e-05
5.27483e-05
5.83311e-05
6.40133e-05
7.01816e-05
7.69198e-05
8.44071e-05
9.39802e-05
0.000105689
0.000119042
0.000136813
0.000156568
0.000178301
0.000203212
0.000232993
0.000265726
0.000290709
0.000299195
0.000323646
0.000377605
0.000448498
0.000526679
0.000611463
0.00071967
0.000884915
0.001159
0.00158074
0.00223512
2.09124e-05
1.80156e-05
1.55457e-05
1.34123e-05
1.1567e-05
9.97095e-06
8.58076e-06
7.39667e-06
6.38508e-06
5.5243e-06
4.82622e-06
4.41966e-06
4.2705e-06
4.23685e-06
4.2154e-06
8.81378e-06
1.25131e-05
1.66825e-05
1.64621e-05
1.7388e-05
2.11904e-05
2.58156e-05
3.03602e-05
3.21291e-05
3.19721e-05
3.08386e-05
3.02956e-05
3.35019e-05
3.57139e-05
3.76483e-05
3.92463e-05
4.06294e-05
4.18439e-05
4.28443e-05
4.351e-05
4.43859e-05
4.58591e-05
5.14768e-05
5.77283e-05
6.15527e-05
6.25757e-05
6.73063e-05
7.94728e-05
9.08646e-05
0.000105324
0.000127313
0.000162345
0.000211363
0.000262021
0.000304112
0.000344719
0.00039332
0.000452852
0.000526731
0.000621178
0.000744135
0.000924089
0.0012077
0.00163779
0.00226985
2.09191e-05
1.80277e-05
1.55495e-05
1.3408e-05
1.15656e-05
9.9691e-06
8.58804e-06
7.40857e-06
6.40418e-06
5.5442e-06
4.8301e-06
4.29996e-06
3.94369e-06
3.74064e-06
3.66547e-06
5.52161e-06
7.57435e-06
1.01928e-05
1.10346e-05
1.0743e-05
1.24452e-05
1.69352e-05
2.19009e-05
2.54311e-05
2.67761e-05
2.66483e-05
2.63822e-05
2.63372e-05
2.67727e-05
2.80925e-05
2.97564e-05
3.10862e-05
3.17432e-05
3.07835e-05
2.96031e-05
2.94638e-05
3.22353e-05
3.64603e-05
4.2647e-05
4.12015e-05
2.54405e-05
3.13986e-05
3.47045e-05
3.28936e-05
3.43187e-05
4.11954e-05
5.20335e-05
7.81598e-05
0.000123648
0.000181771
0.000223147
0.000242065
0.000250105
0.000290116
0.000381992
0.00049866
0.000661144
0.000941331
0.00142921
0.00215513
2.0928e-05
1.80321e-05
1.55345e-05
1.33811e-05
1.15387e-05
9.94468e-06
8.57869e-06
7.41337e-06
6.424e-06
5.56865e-06
4.85449e-06
4.2884e-06
3.84665e-06
3.51649e-06
3.32625e-06
3.89849e-06
4.73911e-06
5.97022e-06
7.21934e-06
7.30689e-06
7.06242e-06
8.71811e-06
1.26905e-05
1.63235e-05
1.81285e-05
1.88055e-05
1.98486e-05
2.13772e-05
2.30022e-05
2.44877e-05
2.57088e-05
2.65812e-05
2.70347e-05
2.71468e-05
2.71128e-05
2.713e-05
2.71758e-05
2.75035e-05
2.86517e-05
2.75753e-05
2.64819e-05
2.56328e-05
2.47724e-05
2.37101e-05
2.21861e-05
2.01489e-05
2.98267e-05
4.56025e-05
6.59067e-05
0.000102175
0.000130316
0.000136793
0.000119357
9.76497e-05
8.21715e-05
0.000116604
0.000196997
0.000298503
0.000583423
0.000970443
2.09686e-05
1.81656e-05
1.57655e-05
1.37195e-05
1.1978e-05
1.04449e-05
9.10931e-06
7.97041e-06
6.99388e-06
6.12782e-06
5.38134e-06
4.76001e-06
4.2494e-06
3.82962e-06
3.49639e-06
3.42858e-06
3.57678e-06
4.08318e-06
4.62318e-06
4.78257e-06
4.65548e-06
4.79989e-06
5.90632e-06
7.73774e-06
9.29005e-06
1.01973e-05
1.111e-05
1.24975e-05
1.44695e-05
1.67015e-05
1.87675e-05
2.04545e-05
2.17286e-05
2.2629e-05
2.32388e-05
2.35656e-05
2.35944e-05
2.35599e-05
2.36321e-05
2.36812e-05
2.47931e-05
2.53942e-05
2.57063e-05
2.55711e-05
2.52935e-05
2.5516e-05
2.7291e-05
2.87055e-05
2.8517e-05
3.23984e-05
4.53453e-05
5.31196e-05
5.1513e-05
4.74529e-05
4.60537e-05
4.55918e-05
4.64501e-05
5.80026e-05
0.000132026
0.000229903
2.37296e-05
2.34127e-05
2.30637e-05
2.27102e-05
2.23794e-05
2.20401e-05
2.16842e-05
2.12833e-05
2.07635e-05
1.99999e-05
1.90708e-05
1.81855e-05
1.74705e-05
1.6797e-05
1.59203e-05
1.48553e-05
1.43309e-05
1.40287e-05
1.4279e-05
1.50492e-05
1.60589e-05
1.68103e-05
1.74715e-05
1.85212e-05
2.01488e-05
2.24427e-05
2.49443e-05
2.74144e-05
2.9703e-05
3.20371e-05
3.47745e-05
3.81326e-05
4.21581e-05
4.54723e-05
4.85819e-05
5.18894e-05
5.55078e-05
5.90565e-05
6.29839e-05
6.82536e-05
7.33319e-05
7.83467e-05
8.33801e-05
8.83984e-05
9.33246e-05
9.82007e-05
0.000102569
0.000106658
0.000109708
0.000111373
0.000111112
0.000113147
0.000118688
0.000128312
0.00013943
0.000153515
0.000167056
0.000179441
0.000190048
0.000212373
2.3654e-05
2.33799e-05
2.31109e-05
2.2816e-05
2.24928e-05
2.20842e-05
2.16842e-05
2.13295e-05
2.1023e-05
2.06306e-05
2.04904e-05
2.08732e-05
2.14166e-05
2.16559e-05
2.15362e-05
1.93365e-05
1.96879e-05
2.00747e-05
2.20059e-05
2.49664e-05
2.68084e-05
2.85993e-05
3.10811e-05
3.43157e-05
3.83268e-05
4.30319e-05
4.56411e-05
4.8713e-05
5.18156e-05
5.4696e-05
5.74161e-05
6.00827e-05
6.25879e-05
6.48228e-05
6.67609e-05
6.85624e-05
7.07789e-05
7.41681e-05
7.74615e-05
8.01539e-05
8.19874e-05
8.26007e-05
8.04613e-05
7.99942e-05
8.25096e-05
8.55291e-05
8.80115e-05
8.8289e-05
8.69486e-05
8.26011e-05
8.27108e-05
0.000107078
0.000182781
0.000409079
0.000620963
0.000829995
0.0010206
0.00111987
0.00117564
0.00179567
2.09148e-05
1.81302e-05
1.5782e-05
1.37811e-05
1.20653e-05
1.05534e-05
9.27132e-06
8.26479e-06
7.63887e-06
7.12673e-06
7.27148e-06
9.50502e-06
9.8187e-06
9.78578e-06
7.51386e-06
9.46278e-06
1.17855e-05
1.22412e-05
2.0283e-05
2.41474e-05
2.13911e-05
1.96019e-05
2.01767e-05
2.23893e-05
2.51943e-05
2.7451e-05
2.8808e-05
2.94934e-05
2.98584e-05
3.0249e-05
3.0662e-05
3.10217e-05
3.13944e-05
3.19317e-05
3.27482e-05
3.3367e-05
3.3349e-05
3.29348e-05
3.5668e-05
4.06292e-05
4.26935e-05
4.47528e-05
4.54563e-05
4.57508e-05
4.5897e-05
4.58738e-05
4.55413e-05
4.82755e-05
5.00095e-05
5.30073e-05
6.26614e-05
0.000101355
0.000151052
0.000237566
0.000267386
0.000256884
0.000290422
0.00036499
0.000787921
0.00122785
2.0899e-05
1.80073e-05
1.5544e-05
1.3415e-05
1.15679e-05
9.97356e-06
8.586e-06
7.41889e-06
6.48725e-06
5.78332e-06
5.62147e-06
6.78217e-06
6.79314e-06
5.7808e-06
5.02595e-06
1.33668e-05
1.8098e-05
2.80633e-05
3.081e-05
3.21751e-05
3.17698e-05
3.14958e-05
3.09677e-05
3.29491e-05
3.40623e-05
3.41461e-05
3.48622e-05
3.59464e-05
3.71395e-05
3.8185e-05
3.87813e-05
3.86984e-05
3.80906e-05
3.86858e-05
4.05282e-05
4.16955e-05
4.20336e-05
4.28772e-05
4.48532e-05
4.80706e-05
5.67918e-05
6.73439e-05
7.71652e-05
8.35768e-05
8.76136e-05
8.9565e-05
8.04543e-05
4.90211e-05
4.52729e-05
4.66383e-05
5.71794e-05
7.68439e-05
9.86709e-05
0.000127308
0.000137347
0.000160531
0.000218389
0.000336388
0.000513395
0.000993917
2.09071e-05
1.80161e-05
1.55554e-05
1.34283e-05
1.15851e-05
9.98245e-06
8.58459e-06
7.38839e-06
6.37042e-06
5.5304e-06
5.07166e-06
5.58274e-06
5.89057e-06
5.46823e-06
8.40755e-06
2.60346e-05
3.05705e-05
3.2912e-05
3.52959e-05
3.66769e-05
3.72977e-05
3.73078e-05
3.66537e-05
3.55077e-05
3.44982e-05
3.52406e-05
3.67006e-05
3.83285e-05
3.98902e-05
4.14235e-05
4.28623e-05
4.42017e-05
4.54205e-05
4.71497e-05
5.19241e-05
5.69008e-05
6.19891e-05
6.72909e-05
7.41625e-05
8.44129e-05
9.82185e-05
0.000112319
0.000125628
0.00014031
0.000155572
0.000169451
0.000176471
0.000166964
0.000132332
0.000110832
0.00012405
0.000150606
0.000167955
0.000184785
0.00024032
0.000355231
0.000540967
0.00078592
0.00116505
0.00197054
2.09131e-05
1.80232e-05
1.55505e-05
1.34093e-05
1.15637e-05
9.96587e-06
8.5801e-06
7.39116e-06
6.37334e-06
5.51047e-06
4.87266e-06
4.78557e-06
4.94864e-06
4.9298e-06
4.97922e-06
1.55184e-05
2.03171e-05
2.75155e-05
2.98401e-05
3.30475e-05
3.42591e-05
3.52932e-05
3.53051e-05
3.41079e-05
3.2905e-05
3.39317e-05
3.55252e-05
3.79551e-05
3.99683e-05
4.18336e-05
4.36722e-05
4.54777e-05
4.73201e-05
5.26537e-05
5.82731e-05
6.40205e-05
7.02304e-05
7.69067e-05
8.44019e-05
9.39371e-05
0.000105554
0.000118774
0.000136861
0.000156964
0.000178839
0.000203693
0.000233291
0.000266482
0.000293104
0.000303212
0.000328184
0.000382402
0.000453869
0.000532362
0.000616397
0.00072237
0.000885195
0.00115903
0.00158161
0.00223611
2.09215e-05
1.80343e-05
1.55489e-05
1.33992e-05
1.15547e-05
9.95525e-06
8.5788e-06
7.39766e-06
6.38943e-06
5.52279e-06
4.82259e-06
4.41411e-06
4.26077e-06
4.22617e-06
4.21132e-06
8.87055e-06
1.26169e-05
1.67615e-05
1.63816e-05
1.73667e-05
2.1332e-05
2.6008e-05
3.01933e-05
3.19593e-05
3.17701e-05
3.06197e-05
3.0411e-05
3.32664e-05
3.55766e-05
3.75693e-05
3.91818e-05
4.05629e-05
4.17721e-05
4.27928e-05
4.34907e-05
4.4366e-05
4.57723e-05
5.14458e-05
5.7468e-05
6.11105e-05
6.20408e-05
6.75031e-05
8.0012e-05
9.17022e-05
0.000106004
0.000127482
0.000161419
0.000210193
0.000261747
0.000304523
0.000345602
0.000394168
0.000453493
0.000527382
0.00062213
0.000744806
0.000923432
0.00120641
0.00163781
0.00227129
2.09328e-05
1.80433e-05
1.55473e-05
1.33959e-05
1.15534e-05
9.95555e-06
8.58436e-06
7.41235e-06
6.414e-06
5.54521e-06
4.8271e-06
4.29683e-06
3.93863e-06
3.73365e-06
3.66127e-06
5.52053e-06
7.56286e-06
1.06329e-05
1.11191e-05
1.06954e-05
1.25221e-05
1.71038e-05
2.20961e-05
2.5552e-05
2.68103e-05
2.66897e-05
2.6437e-05
2.63939e-05
2.68617e-05
2.81713e-05
2.98177e-05
3.11092e-05
3.16646e-05
3.07178e-05
2.94244e-05
2.9423e-05
3.23606e-05
3.67045e-05
4.26054e-05
4.07678e-05
2.56632e-05
3.12823e-05
3.44178e-05
3.25436e-05
3.4226e-05
4.12543e-05
5.13701e-05
7.62596e-05
0.000121304
0.000179774
0.000221381
0.000239786
0.000246696
0.000287053
0.00038031
0.000497991
0.000659883
0.000939097
0.00142835
0.00215538
2.09427e-05
1.80377e-05
1.55274e-05
1.3373e-05
1.15294e-05
9.93964e-06
8.57966e-06
7.42145e-06
6.42846e-06
5.57039e-06
4.86001e-06
4.29196e-06
3.84679e-06
3.51101e-06
3.32239e-06
3.88739e-06
4.6959e-06
6.27319e-06
7.4578e-06
7.29612e-06
7.01929e-06
8.78255e-06
1.28178e-05
1.63884e-05
1.81073e-05
1.87907e-05
1.98861e-05
2.1479e-05
2.31377e-05
2.46234e-05
2.58281e-05
2.66714e-05
2.71102e-05
2.72307e-05
2.72214e-05
2.72541e-05
2.72881e-05
2.75248e-05
2.84866e-05
2.75043e-05
2.65038e-05
2.56869e-05
2.48243e-05
2.37194e-05
2.21905e-05
2.02576e-05
2.87817e-05
4.54219e-05
6.39548e-05
9.95063e-05
0.000128234
0.000134401
0.000115786
9.31763e-05
7.7559e-05
0.000114675
0.000196324
0.000298917
0.000581787
0.000958654
2.09763e-05
1.81613e-05
1.57545e-05
1.37105e-05
1.19694e-05
1.04485e-05
9.11683e-06
7.98459e-06
6.99955e-06
6.13059e-06
5.3864e-06
4.76197e-06
4.25072e-06
3.83287e-06
3.49874e-06
3.43214e-06
3.59675e-06
4.20043e-06
4.7488e-06
4.81334e-06
4.63197e-06
4.76891e-06
5.89653e-06
7.73096e-06
9.26372e-06
1.0177e-05
1.11087e-05
1.25492e-05
1.45717e-05
1.68286e-05
1.88967e-05
2.05746e-05
2.1837e-05
2.27224e-05
2.33191e-05
2.3622e-05
2.3624e-05
2.35676e-05
2.36389e-05
2.37262e-05
2.4863e-05
2.54527e-05
2.57044e-05
2.5508e-05
2.52144e-05
2.54117e-05
2.62902e-05
2.70601e-05
2.73843e-05
3.20866e-05
4.37162e-05
5.09749e-05
4.94858e-05
4.65033e-05
4.59028e-05
4.50991e-05
4.56042e-05
5.73241e-05
0.000131584
0.000229584
2.37162e-05
2.34019e-05
2.30726e-05
2.27354e-05
2.23944e-05
2.20578e-05
2.17174e-05
2.13065e-05
2.07533e-05
2.00243e-05
1.91058e-05
1.81982e-05
1.74737e-05
1.68086e-05
1.59272e-05
1.48293e-05
1.42617e-05
1.39172e-05
1.41471e-05
1.49179e-05
1.59418e-05
1.67611e-05
1.75359e-05
1.86878e-05
2.03672e-05
2.26576e-05
2.51087e-05
2.74749e-05
2.96731e-05
3.19776e-05
3.47364e-05
3.81349e-05
4.21937e-05
4.55033e-05
4.85793e-05
5.18995e-05
5.5564e-05
5.92242e-05
6.31885e-05
6.8431e-05
7.34407e-05
7.84382e-05
8.34719e-05
8.8487e-05
9.34034e-05
9.82881e-05
0.000102714
0.00010702
0.000110218
0.000111876
0.000112951
0.000115579
0.000121583
0.000130549
0.000140828
0.000154614
0.000168157
0.00018021
0.000190532
0.000212715
)
;

boundaryField
{
    wall
    {
        type            kqRWallFunction;
        value           nonuniform List<scalar> 
1200
(
2.37049e-05
2.08955e-05
2.0874e-05
2.08894e-05
2.09036e-05
2.09124e-05
2.09191e-05
2.0928e-05
2.09686e-05
2.37296e-05
2.33888e-05
1.81182e-05
1.79973e-05
1.80068e-05
1.80086e-05
1.80156e-05
1.80277e-05
1.80321e-05
1.81656e-05
2.34127e-05
2.30893e-05
1.57773e-05
1.55419e-05
1.55508e-05
1.55455e-05
1.55457e-05
1.55495e-05
1.55345e-05
1.57655e-05
2.30637e-05
2.27733e-05
1.37819e-05
1.34227e-05
1.34357e-05
1.34219e-05
1.34123e-05
1.3408e-05
1.33811e-05
1.37195e-05
2.27102e-05
2.24271e-05
1.2069e-05
1.15837e-05
1.15969e-05
1.15784e-05
1.1567e-05
1.15656e-05
1.15387e-05
1.1978e-05
2.23794e-05
2.20516e-05
1.0546e-05
9.97676e-06
9.98449e-06
9.97883e-06
9.97095e-06
9.9691e-06
9.94468e-06
1.04449e-05
2.20401e-05
2.16829e-05
9.27699e-06
8.58595e-06
8.58093e-06
8.57987e-06
8.58076e-06
8.58804e-06
8.57869e-06
9.10931e-06
2.16842e-05
2.13368e-05
8.27743e-06
7.42006e-06
7.38588e-06
7.38949e-06
7.39667e-06
7.40857e-06
7.41337e-06
7.97041e-06
2.12833e-05
2.10299e-05
7.66307e-06
6.49278e-06
6.37071e-06
6.37217e-06
6.38508e-06
6.40418e-06
6.424e-06
6.99388e-06
2.07635e-05
2.06163e-05
7.12808e-06
5.78601e-06
5.53148e-06
5.5116e-06
5.5243e-06
5.5442e-06
5.56865e-06
6.12782e-06
1.99999e-05
2.04485e-05
7.2924e-06
5.63314e-06
5.07917e-06
4.87647e-06
4.82622e-06
4.8301e-06
4.85449e-06
5.38134e-06
1.90708e-05
2.08091e-05
9.54259e-06
6.81083e-06
5.60503e-06
4.79802e-06
4.41966e-06
4.29996e-06
4.2884e-06
4.76001e-06
1.81855e-05
2.13571e-05
9.84148e-06
6.80793e-06
5.90998e-06
4.96578e-06
4.2705e-06
3.94369e-06
3.84665e-06
4.2494e-06
1.74705e-05
2.15737e-05
9.80545e-06
5.78491e-06
5.47673e-06
4.94323e-06
4.23685e-06
3.74064e-06
3.51649e-06
3.82962e-06
1.6797e-05
2.15248e-05
7.56454e-06
4.98207e-06
8.3186e-06
4.97296e-06
4.2154e-06
3.66547e-06
3.32625e-06
3.49639e-06
1.59203e-05
1.93226e-05
9.49715e-06
1.34542e-05
2.62061e-05
1.54284e-05
8.81378e-06
5.52161e-06
3.89849e-06
3.42858e-06
1.48553e-05
1.96464e-05
1.17161e-05
1.79383e-05
3.06072e-05
2.05049e-05
1.25131e-05
7.57435e-06
4.73911e-06
3.57678e-06
1.43309e-05
1.99621e-05
1.21442e-05
2.812e-05
3.29731e-05
2.73463e-05
1.66825e-05
1.01928e-05
5.97022e-06
4.08318e-06
1.40287e-05
2.20312e-05
2.06815e-05
3.09169e-05
3.53786e-05
2.92788e-05
1.64621e-05
1.10346e-05
7.21934e-06
4.62318e-06
1.4279e-05
2.49746e-05
2.41651e-05
3.22348e-05
3.67589e-05
3.31336e-05
1.7388e-05
1.0743e-05
7.30689e-06
4.78257e-06
1.50492e-05
2.67546e-05
2.12294e-05
3.17528e-05
3.74464e-05
3.43889e-05
2.11904e-05
1.24452e-05
7.06242e-06
4.65548e-06
1.60589e-05
2.85413e-05
1.9477e-05
3.14672e-05
3.75088e-05
3.55017e-05
2.58156e-05
1.69352e-05
8.71811e-06
4.79989e-06
1.68103e-05
3.10503e-05
2.01612e-05
3.09299e-05
3.69073e-05
3.55399e-05
3.03602e-05
2.19009e-05
1.26905e-05
5.90632e-06
1.74715e-05
3.43625e-05
2.24497e-05
3.30333e-05
3.57916e-05
3.43849e-05
3.21291e-05
2.54311e-05
1.63235e-05
7.73774e-06
1.85212e-05
3.85157e-05
2.52813e-05
3.42022e-05
3.46541e-05
3.30293e-05
3.19721e-05
2.67761e-05
1.81285e-05
9.29005e-06
2.01488e-05
4.32963e-05
2.75569e-05
3.42736e-05
3.52457e-05
3.40013e-05
3.08386e-05
2.66483e-05
1.88055e-05
1.01973e-05
2.24427e-05
4.59962e-05
2.89096e-05
3.4953e-05
3.67752e-05
3.56073e-05
3.02956e-05
2.63822e-05
1.98486e-05
1.111e-05
2.49443e-05
4.9148e-05
2.95898e-05
3.60146e-05
3.83951e-05
3.80542e-05
3.35019e-05
2.63372e-05
2.13772e-05
1.24975e-05
2.74144e-05
5.22659e-05
2.99445e-05
3.71979e-05
3.99374e-05
4.00631e-05
3.57139e-05
2.67727e-05
2.30022e-05
1.44695e-05
2.9703e-05
5.50827e-05
3.03159e-05
3.82518e-05
4.14542e-05
4.19296e-05
3.76483e-05
2.80925e-05
2.44877e-05
1.67015e-05
3.20371e-05
5.76841e-05
3.07155e-05
3.88761e-05
4.28868e-05
4.37333e-05
3.92463e-05
2.97564e-05
2.57088e-05
1.87675e-05
3.47745e-05
6.0231e-05
3.10826e-05
3.88522e-05
4.42271e-05
4.51962e-05
4.06294e-05
3.10862e-05
2.65812e-05
2.04545e-05
3.81326e-05
6.2653e-05
3.14682e-05
3.82791e-05
4.55188e-05
4.74474e-05
4.18439e-05
3.17432e-05
2.70347e-05
2.17286e-05
4.21581e-05
6.48384e-05
3.20092e-05
3.87441e-05
4.71755e-05
5.27483e-05
4.28443e-05
3.07835e-05
2.71468e-05
2.2629e-05
4.54723e-05
6.67279e-05
3.28239e-05
4.04777e-05
5.1931e-05
5.83311e-05
4.351e-05
2.96031e-05
2.71128e-05
2.32388e-05
4.85819e-05
6.84568e-05
3.34306e-05
4.17595e-05
5.68939e-05
6.40133e-05
4.43859e-05
2.94638e-05
2.713e-05
2.35656e-05
5.18894e-05
7.06799e-05
3.34105e-05
4.21229e-05
6.19454e-05
7.01816e-05
4.58591e-05
3.22353e-05
2.71758e-05
2.35944e-05
5.55078e-05
7.41935e-05
3.30337e-05
4.28427e-05
6.72025e-05
7.69198e-05
5.14768e-05
3.64603e-05
2.75035e-05
2.35599e-05
5.90565e-05
7.75885e-05
3.57326e-05
4.48341e-05
7.39987e-05
8.44071e-05
5.77283e-05
4.2647e-05
2.86517e-05
2.36321e-05
6.29839e-05
8.03196e-05
4.0527e-05
4.81228e-05
8.42186e-05
9.39802e-05
6.15527e-05
4.12015e-05
2.75753e-05
2.36812e-05
6.82536e-05
8.21535e-05
4.31737e-05
5.69095e-05
9.80912e-05
0.000105689
6.25757e-05
2.54405e-05
2.64819e-05
2.47931e-05
7.33319e-05
8.26265e-05
4.45708e-05
6.7357e-05
0.000112328
0.000119042
6.73063e-05
3.13986e-05
2.56328e-05
2.53942e-05
7.83467e-05
8.05215e-05
4.55417e-05
7.72146e-05
0.00012573
0.000136813
7.94728e-05
3.47045e-05
2.47724e-05
2.57063e-05
8.33801e-05
8.05094e-05
4.52412e-05
8.38793e-05
0.000140369
0.000156568
9.08646e-05
3.28936e-05
2.37101e-05
2.55711e-05
8.83984e-05
8.29601e-05
4.57232e-05
8.7827e-05
0.000155386
0.000178301
0.000105324
3.43187e-05
2.21861e-05
2.52935e-05
9.33246e-05
8.62733e-05
4.56799e-05
8.8562e-05
0.000168654
0.000203212
0.000127313
4.11954e-05
2.01489e-05
2.5516e-05
9.82007e-05
8.88316e-05
4.5502e-05
7.75468e-05
0.000174512
0.000232993
0.000162345
5.20335e-05
2.98267e-05
2.7291e-05
0.000102569
8.90099e-05
4.60146e-05
4.89692e-05
0.000163308
0.000265726
0.000211363
7.81598e-05
4.56025e-05
2.87055e-05
0.000106658
8.76642e-05
4.94899e-05
4.54491e-05
0.000127739
0.000290709
0.000262021
0.000123648
6.59067e-05
2.8517e-05
0.000109708
8.31651e-05
5.27111e-05
4.60146e-05
0.000107419
0.000299195
0.000304112
0.000181771
0.000102175
3.23984e-05
0.000111373
8.1545e-05
6.02663e-05
5.61003e-05
0.000120525
0.000323646
0.000344719
0.000223147
0.000130316
4.53453e-05
0.000111112
0.000101302
9.60303e-05
8.07516e-05
0.000146735
0.000377605
0.00039332
0.000242065
0.000136793
5.31196e-05
0.000113147
0.000208011
0.000165436
0.000103528
0.000164568
0.000448498
0.000452852
0.000250105
0.000119357
5.1513e-05
0.000118688
0.000441428
0.000253284
0.000133472
0.000183174
0.000526679
0.000526731
0.000290116
9.76497e-05
4.74529e-05
0.000128312
0.000606035
0.000281513
0.000141172
0.000240209
0.000611463
0.000621178
0.000381992
8.21715e-05
4.60537e-05
0.00013943
0.000823863
0.000290682
0.000162155
0.000356975
0.00071967
0.000744135
0.00049866
0.000116604
4.55918e-05
0.000153515
0.00103481
0.000323467
0.000219732
0.000540313
0.000884915
0.000924089
0.000661144
0.000196997
4.64501e-05
0.000167056
0.00116953
0.000477747
0.000335167
0.000781525
0.001159
0.0012077
0.000941331
0.000298503
5.80026e-05
0.000179441
0.0012316
0.000811689
0.000512234
0.00116441
0.00158074
0.00163779
0.00142921
0.000583423
0.000132026
0.000190048
0.00191687
0.00139471
0.00098297
0.00196906
0.00223512
0.00226985
0.00215513
0.000970443
0.000229903
0.000212373
2.3654e-05
2.09148e-05
2.0899e-05
2.09071e-05
2.09131e-05
2.09215e-05
2.09328e-05
2.09427e-05
2.09763e-05
2.37162e-05
2.33799e-05
1.81302e-05
1.80073e-05
1.80161e-05
1.80232e-05
1.80343e-05
1.80433e-05
1.80377e-05
1.81613e-05
2.34019e-05
2.31109e-05
1.5782e-05
1.5544e-05
1.55554e-05
1.55505e-05
1.55489e-05
1.55473e-05
1.55274e-05
1.57545e-05
2.30726e-05
2.2816e-05
1.37811e-05
1.3415e-05
1.34283e-05
1.34093e-05
1.33992e-05
1.33959e-05
1.3373e-05
1.37105e-05
2.27354e-05
2.24928e-05
1.20653e-05
1.15679e-05
1.15851e-05
1.15637e-05
1.15547e-05
1.15534e-05
1.15294e-05
1.19694e-05
2.23944e-05
2.20842e-05
1.05534e-05
9.97356e-06
9.98245e-06
9.96587e-06
9.95525e-06
9.95555e-06
9.93964e-06
1.04485e-05
2.20578e-05
2.16842e-05
9.27132e-06
8.586e-06
8.58459e-06
8.5801e-06
8.5788e-06
8.58436e-06
8.57966e-06
9.11683e-06
2.17174e-05
2.13295e-05
8.26479e-06
7.41889e-06
7.38839e-06
7.39116e-06
7.39766e-06
7.41235e-06
7.42145e-06
7.98459e-06
2.13065e-05
2.1023e-05
7.63887e-06
6.48725e-06
6.37042e-06
6.37334e-06
6.38943e-06
6.414e-06
6.42846e-06
6.99955e-06
2.07533e-05
2.06306e-05
7.12673e-06
5.78332e-06
5.5304e-06
5.51047e-06
5.52279e-06
5.54521e-06
5.57039e-06
6.13059e-06
2.00243e-05
2.04904e-05
7.27148e-06
5.62147e-06
5.07166e-06
4.87266e-06
4.82259e-06
4.8271e-06
4.86001e-06
5.3864e-06
1.91058e-05
2.08732e-05
9.50502e-06
6.78217e-06
5.58274e-06
4.78557e-06
4.41411e-06
4.29683e-06
4.29196e-06
4.76197e-06
1.81982e-05
2.14166e-05
9.8187e-06
6.79314e-06
5.89057e-06
4.94864e-06
4.26077e-06
3.93863e-06
3.84679e-06
4.25072e-06
1.74737e-05
2.16559e-05
9.78578e-06
5.7808e-06
5.46823e-06
4.9298e-06
4.22617e-06
3.73365e-06
3.51101e-06
3.83287e-06
1.68086e-05
2.15362e-05
7.51386e-06
5.02595e-06
8.40755e-06
4.97922e-06
4.21132e-06
3.66127e-06
3.32239e-06
3.49874e-06
1.59272e-05
1.93365e-05
9.46278e-06
1.33668e-05
2.60346e-05
1.55184e-05
8.87055e-06
5.52053e-06
3.88739e-06
3.43214e-06
1.48293e-05
1.96879e-05
1.17855e-05
1.8098e-05
3.05705e-05
2.03171e-05
1.26169e-05
7.56286e-06
4.6959e-06
3.59675e-06
1.42617e-05
2.00747e-05
1.22412e-05
2.80633e-05
3.2912e-05
2.75155e-05
1.67615e-05
1.06329e-05
6.27319e-06
4.20043e-06
1.39172e-05
2.20059e-05
2.0283e-05
3.081e-05
3.52959e-05
2.98401e-05
1.63816e-05
1.11191e-05
7.4578e-06
4.7488e-06
1.41471e-05
2.49664e-05
2.41474e-05
3.21751e-05
3.66769e-05
3.30475e-05
1.73667e-05
1.06954e-05
7.29612e-06
4.81334e-06
1.49179e-05
2.68084e-05
2.13911e-05
3.17698e-05
3.72977e-05
3.42591e-05
2.1332e-05
1.25221e-05
7.01929e-06
4.63197e-06
1.59418e-05
2.85993e-05
1.96019e-05
3.14958e-05
3.73078e-05
3.52932e-05
2.6008e-05
1.71038e-05
8.78255e-06
4.76891e-06
1.67611e-05
3.10811e-05
2.01767e-05
3.09677e-05
3.66537e-05
3.53051e-05
3.01933e-05
2.20961e-05
1.28178e-05
5.89653e-06
1.75359e-05
3.43157e-05
2.23893e-05
3.29491e-05
3.55077e-05
3.41079e-05
3.19593e-05
2.5552e-05
1.63884e-05
7.73096e-06
1.86878e-05
3.83268e-05
2.51943e-05
3.40623e-05
3.44982e-05
3.2905e-05
3.17701e-05
2.68103e-05
1.81073e-05
9.26372e-06
2.03672e-05
4.30319e-05
2.7451e-05
3.41461e-05
3.52406e-05
3.39317e-05
3.06197e-05
2.66897e-05
1.87907e-05
1.0177e-05
2.26576e-05
4.56411e-05
2.8808e-05
3.48622e-05
3.67006e-05
3.55252e-05
3.0411e-05
2.6437e-05
1.98861e-05
1.11087e-05
2.51087e-05
4.8713e-05
2.94934e-05
3.59464e-05
3.83285e-05
3.79551e-05
3.32664e-05
2.63939e-05
2.1479e-05
1.25492e-05
2.74749e-05
5.18156e-05
2.98584e-05
3.71395e-05
3.98902e-05
3.99683e-05
3.55766e-05
2.68617e-05
2.31377e-05
1.45717e-05
2.96731e-05
5.4696e-05
3.0249e-05
3.8185e-05
4.14235e-05
4.18336e-05
3.75693e-05
2.81713e-05
2.46234e-05
1.68286e-05
3.19776e-05
5.74161e-05
3.0662e-05
3.87813e-05
4.28623e-05
4.36722e-05
3.91818e-05
2.98177e-05
2.58281e-05
1.88967e-05
3.47364e-05
6.00827e-05
3.10217e-05
3.86984e-05
4.42017e-05
4.54777e-05
4.05629e-05
3.11092e-05
2.66714e-05
2.05746e-05
3.81349e-05
6.25879e-05
3.13944e-05
3.80906e-05
4.54205e-05
4.73201e-05
4.17721e-05
3.16646e-05
2.71102e-05
2.1837e-05
4.21937e-05
6.48228e-05
3.19317e-05
3.86858e-05
4.71497e-05
5.26537e-05
4.27928e-05
3.07178e-05
2.72307e-05
2.27224e-05
4.55033e-05
6.67609e-05
3.27482e-05
4.05282e-05
5.19241e-05
5.82731e-05
4.34907e-05
2.94244e-05
2.72214e-05
2.33191e-05
4.85793e-05
6.85624e-05
3.3367e-05
4.16955e-05
5.69008e-05
6.40205e-05
4.4366e-05
2.9423e-05
2.72541e-05
2.3622e-05
5.18995e-05
7.07789e-05
3.3349e-05
4.20336e-05
6.19891e-05
7.02304e-05
4.57723e-05
3.23606e-05
2.72881e-05
2.3624e-05
5.5564e-05
7.41681e-05
3.29348e-05
4.28772e-05
6.72909e-05
7.69067e-05
5.14458e-05
3.67045e-05
2.75248e-05
2.35676e-05
5.92242e-05
7.74615e-05
3.5668e-05
4.48532e-05
7.41625e-05
8.44019e-05
5.7468e-05
4.26054e-05
2.84866e-05
2.36389e-05
6.31885e-05
8.01539e-05
4.06292e-05
4.80706e-05
8.44129e-05
9.39371e-05
6.11105e-05
4.07678e-05
2.75043e-05
2.37262e-05
6.8431e-05
8.19874e-05
4.26935e-05
5.67918e-05
9.82185e-05
0.000105554
6.20408e-05
2.56632e-05
2.65038e-05
2.4863e-05
7.34407e-05
8.26007e-05
4.47528e-05
6.73439e-05
0.000112319
0.000118774
6.75031e-05
3.12823e-05
2.56869e-05
2.54527e-05
7.84382e-05
8.04613e-05
4.54563e-05
7.71652e-05
0.000125628
0.000136861
8.0012e-05
3.44178e-05
2.48243e-05
2.57044e-05
8.34719e-05
7.99942e-05
4.57508e-05
8.35768e-05
0.00014031
0.000156964
9.17022e-05
3.25436e-05
2.37194e-05
2.5508e-05
8.8487e-05
8.25096e-05
4.5897e-05
8.76136e-05
0.000155572
0.000178839
0.000106004
3.4226e-05
2.21905e-05
2.52144e-05
9.34034e-05
8.55291e-05
4.58738e-05
8.9565e-05
0.000169451
0.000203693
0.000127482
4.12543e-05
2.02576e-05
2.54117e-05
9.82881e-05
8.80115e-05
4.55413e-05
8.04543e-05
0.000176471
0.000233291
0.000161419
5.13701e-05
2.87817e-05
2.62902e-05
0.000102714
8.8289e-05
4.82755e-05
4.90211e-05
0.000166964
0.000266482
0.000210193
7.62596e-05
4.54219e-05
2.70601e-05
0.00010702
8.69486e-05
5.00095e-05
4.52729e-05
0.000132332
0.000293104
0.000261747
0.000121304
6.39548e-05
2.73843e-05
0.000110218
8.26011e-05
5.30073e-05
4.66383e-05
0.000110832
0.000303212
0.000304523
0.000179774
9.95063e-05
3.20866e-05
0.000111876
8.27108e-05
6.26614e-05
5.71794e-05
0.00012405
0.000328184
0.000345602
0.000221381
0.000128234
4.37162e-05
0.000112951
0.000107078
0.000101355
7.68439e-05
0.000150606
0.000382402
0.000394168
0.000239786
0.000134401
5.09749e-05
0.000115579
0.000182781
0.000151052
9.86709e-05
0.000167955
0.000453869
0.000453493
0.000246696
0.000115786
4.94858e-05
0.000121583
0.000409079
0.000237566
0.000127308
0.000184785
0.000532362
0.000527382
0.000287053
9.31763e-05
4.65033e-05
0.000130549
0.000620963
0.000267386
0.000137347
0.00024032
0.000616397
0.00062213
0.00038031
7.7559e-05
4.59028e-05
0.000140828
0.000829995
0.000256884
0.000160531
0.000355231
0.00072237
0.000744806
0.000497991
0.000114675
4.50991e-05
0.000154614
0.0010206
0.000290422
0.000218389
0.000540967
0.000885195
0.000923432
0.000659883
0.000196324
4.56042e-05
0.000168157
0.00111987
0.00036499
0.000336388
0.00078592
0.00115903
0.00120641
0.000939097
0.000298917
5.73241e-05
0.00018021
0.00117564
0.000787921
0.000513395
0.00116505
0.00158161
0.00163781
0.00142835
0.000581787
0.000131584
0.000190532
0.00179567
0.00122785
0.000993917
0.00197054
0.00223611
0.00227129
0.00215538
0.000958654
0.000229584
0.000212715
)
;
    }
    inlet
    {
        type            turbulentIntensityKineticEnergyInlet;
        intensity       0.05;
        value           uniform 2.4e-05;
    }
    outlet
    {
        type            inletOutlet;
        inletValue      uniform 0.003;
        value           nonuniform List<scalar> 
20
(
0.00191687
0.00139471
0.00098297
0.003
0.003
0.003
0.003
0.000970443
0.000229903
0.000212373
0.00179567
0.00122785
0.000993917
0.003
0.003
0.003
0.003
0.000958654
0.000229584
0.000212715
)
;
    }
    heatWall
    {
        type            kqRWallFunction;
        value           nonuniform List<scalar> 
240
(
2.37296e-05
2.37162e-05
2.34127e-05
2.34019e-05
2.30637e-05
2.30726e-05
2.27102e-05