/*--------------------------------*- C++ -*----------------------------------*\
  =========                 |
  \\      /  F ield         | OpenFOAM: The Open Source CFD Toolbox
   \\    /   O peration     | Website:  https://openfoam.org
    \\  /    A nd           | Version:  8
     \\/     M anipulation  |
\*---------------------------------------------------------------------------*/
FoamFile
{
    version     2.0;
    format      ascii;
    class       volScalarField;
    location    "900";
    object      alphat;
}
// * * * * * * * * * * * * * * * * * * * * * * * * * * * * * * * * * * * * * //

dimensions      [1 -1 -1 0 0 0 0];

internalField   nonuniform List<scalar> 
1200
(
0.800869
0.734821
0.679843
0.633448
0.593825
0.559635
0.52987
0.503761
0.480705
0.460235
0.441975
0.425601
0.410846
0.397493
0.385364
0.374321
0.364252
0.35506
0.346624
0.338838
0.331625
0.324927
0.318697
0.312893
0.307487
0.302475
0.297852
0.293557
0.289525
0.285719
0.282129
0.278753
0.275587
0.272624
0.269845
0.26722
0.264695
0.262212
0.259734
0.2573
0.255006
0.252944
0.251144
0.249543
0.248098
0.24726
0.248121
0.251381
0.255157
0.258008
0.258198
0.255047
0.249379
0.24284
0.236808
0.231844
0.227858
0.224515
0.221519
0.218648
0.465663
0.399894
0.349418
0.309687
0.277737
0.251513
0.229639
0.211154
0.195365
0.181753
0.169883
0.159452
0.150206
0.141942
0.134508
0.127779
0.121657
0.116055
0.110935
0.10625
0.101956
0.0980068
0.094365
0.0909971
0.0878738
0.0849711
0.0822669
0.0797409
0.0773763
0.0751585
0.0730763
0.0711188
0.0692764
0.0675404
0.0659029
0.0643557
0.0628903
0.0614978
0.0601708
0.0589075
0.0577115
0.0565914
0.0555909
0.0550324
0.0563318
0.0617641
0.0708353
0.0803644
0.0880597
0.092336
0.0931834
0.0909964
0.0862793
0.0797521
0.0723449
0.0650654
0.0587384
0.0538614
0.0503901
0.0488358
0.465559
0.399235
0.348306
0.308164
0.275835
0.249312
0.227198
0.208509
0.192533
0.178738
0.166719
0.156161
0.146818
0.138494
0.131033
0.124309
0.118222
0.11269
0.107645
0.103026
0.0987814
0.0948687
0.0912513
0.087897
0.0847794
0.081876
0.0791648
0.0766266
0.0742461
0.0720097
0.0699065
0.0679266
0.0660607
0.0643004
0.0626379
0.0610656
0.0595769
0.0581655
0.0568267
0.0555569
0.054353
0.0532119
0.0521302
0.0511107
0.050233
0.0499188
0.0509412
0.0540181
0.0585517
0.062788
0.0653356
0.0657054
0.064078
0.0610468
0.0573583
0.0536686
0.0503699
0.0476045
0.0453416
0.0434953
0.465559
0.399403
0.348585
0.30851
0.27621
0.249693
0.227578
0.208877
0.19288
0.179058
0.167013
0.156431
0.147066
0.138724
0.131245
0.124506
0.118404
0.112857
0.107797
0.103165
0.0989101
0.094988
0.0913621
0.0880014
0.084878
0.0819685
0.0792516
0.076709
0.0743256
0.0720875
0.0699822
0.0679991
0.0661282
0.0643625
0.0626942
0.0611161
0.0596212
0.0582037
0.056859
0.0555835
0.0543748
0.0532298
0.0521443
0.0511132
0.0501333
0.0492223
0.0484779
0.0481592
0.0486299
0.049902
0.0513817
0.0523242
0.0523302
0.0514397
0.0499417
0.0481563
0.0463131
0.044547
0.0429183
0.0414659
0.465559
0.399402
0.348554
0.308451
0.276129
0.249598
0.227476
0.208775
0.192782
0.178969
0.166932
0.156358
0.146999
0.138661
0.131187
0.124451
0.118353
0.112811
0.107756
0.103129
0.0988776
0.0949598
0.0913389
0.0879831
0.0848649
0.0819603
0.0792487
0.0767131
0.0743382
0.0721095
0.0700141
0.0680413
0.0661809
0.0644241
0.062763
0.0611908
0.0597013
0.0582896
0.0569539
0.055694
0.0545081
0.0533892
0.0523278
0.0513143
0.0503414
0.0494081
0.048512
0.0476636
0.0469145
0.0463694
0.0461218
0.0461086
0.0461037
0.0459055
0.0454545
0.0447964
0.0440057
0.0431464
0.0422617
0.0413933
0.465559
0.399404
0.348553
0.308447
0.276122
0.249589
0.227466
0.208765
0.192774
0.178962
0.166927
0.156354
0.146995
0.138657
0.131183
0.124448
0.118352
0.112812
0.107759
0.103134
0.0988853
0.0949702
0.0913518
0.087999
0.0848843
0.0819838
0.0792778
0.0767494
0.0743837
0.0721663
0.0700846
0.0681273
0.0662847
0.0645484
0.0629107
0.0613652
0.0599075
0.0585391
0.05727
0.0561131
0.0550672
0.054111
0.053217
0.0523567
0.0515076
0.05066
0.0498129
0.0489662
0.048105
0.0472865
0.0465246
0.045843
0.0452478
0.0447094
0.0441887
0.0436614
0.0431225
0.0425745
0.0420247
0.0414796
0.465559
0.39941
0.348589
0.308513
0.27621
0.249692
0.227581
0.208886
0.192891
0.179071
0.167025
0.156442
0.147075
0.13873
0.131248
0.124506
0.1184
0.112852
0.10779
0.103158
0.0989044
0.094985
0.091364
0.0880102
0.0848964
0.0819994
0.0792998
0.0767817
0.0744307
0.0722331
0.0701767
0.0682515
0.0664493
0.0647641
0.0631913
0.0617275
0.0603716
0.059132
0.0580477
0.0571857
0.0565518
0.0560559
0.0555963
0.0551007
0.0545348
0.0538976
0.0532063
0.0524711
0.0516785
0.0507583
0.0498184
0.0488965
0.0480119
0.047185
0.0464262
0.0457319
0.0450957
0.0445074
0.043965
0.0434598
0.465559
0.399244
0.348312
0.308163
0.275824
0.249294
0.227185
0.208503
0.192534
0.178746
0.166731
0.156176
0.146833
0.138509
0.131048
0.124326
0.118243
0.112715
0.107673
0.103056
0.098815
0.0949077
0.0912971
0.0879521
0.084845
0.0819523
0.0792543
0.0767336
0.0743751
0.0721645
0.070089
0.0681377
0.0663023
0.0645742
0.0629512
0.0614365
0.0600518
0.0589042
0.0583488
0.0587781
0.0599216
0.061095
0.0618934
0.0623271
0.0624519
0.0623703
0.062207
0.0620272
0.0617804
0.0612611
0.0601647
0.0584888
0.0566989
0.0550684
0.0536249
0.0523619
0.0512596
0.0502928
0.0494535
0.0486953
0.465664
0.399858
0.349329
0.309546
0.277538
0.251303
0.229442
0.210951
0.195122
0.181448
0.16954
0.15909
0.149842
0.14159
0.134177
0.127484
0.121412
0.115882
0.110807
0.106126
0.101822
0.0978652
0.0942186
0.0908481
0.0877278
0.0848542
0.0821851
0.0797135
0.07749
0.0754842
0.0736442
0.0719264
0.0702527
0.0686473
0.0671046
0.0657085
0.064946
0.066263
0.0715553
0.0795602
0.0868222
0.0913151
0.0928383
0.0923726
0.0913143
0.0906558
0.0905331
0.0904198
0.0896407
0.0876943
0.0843115
0.0795276
0.0737818
0.0681014
0.0633242
0.0595361
0.0565281
0.0539957
0.0518368
0.0498986
0.800854
0.734848
0.679875
0.633484
0.593863
0.55968
0.529939
0.50386
0.480834
0.460383
0.442124
0.425745
0.410985
0.397631
0.385515
0.374507
0.364526
0.355501
0.347344
0.339903
0.333007
0.326523
0.320373
0.314533
0.309044
0.30394
0.299246
0.294913
0.290943
0.287344
0.284108
0.281225
0.278672
0.276409
0.274388
0.272577
0.271106
0.2707
0.273056
0.278867
0.285438
0.289627
0.290311
0.287821
0.282854
0.275947
0.267404
0.257413
0.246218
0.234211
0.221999
0.210373
0.200153
0.191969
0.186133
0.182468
0.180178
0.178002
0.175107
0.17095
0.80087
0.734857
0.67986
0.633442
0.593792
0.559576
0.529816
0.503741
0.480728
0.46028
0.442006
0.425607
0.410827
0.397458
0.385326
0.37429
0.364234
0.355055
0.346616
0.338823
0.331602
0.3249
0.31867
0.312873
0.307483
0.302474
0.297852
0.293572
0.289562
0.285756
0.28215
0.278761
0.27559
0.272627
0.269852
0.267232
0.264717
0.262248
0.259785
0.257357
0.255054
0.25297
0.251143
0.249523
0.248053
0.24711
0.247719
0.250745
0.254553
0.257639
0.258268
0.255573
0.250196
0.243722
0.237595
0.232486
0.228375
0.224949
0.221912
0.219023
0.465663
0.399891
0.349383
0.309621
0.277656
0.251458
0.229618
0.211144
0.195343
0.181693
0.16979
0.159343
0.150105
0.141863
0.134448
0.127728
0.121606
0.116003
0.110896
0.106227
0.101943
0.0980007
0.0943625
0.090996
0.0878724
0.084967
0.08226
0.0797332
0.0773695
0.0751535
0.0730722
0.0711155
0.0692735
0.0675376
0.0659002
0.0643531
0.0628877
0.0614957
0.0601694
0.0589059
0.0577083
0.0565845
0.0555705
0.0549326
0.0559197
0.0608185
0.0695673
0.0791174
0.0871294
0.0918796
0.0931858
0.0913899
0.0869714
0.0806299
0.0732844
0.0659484
0.0594755
0.0544109
0.0507692
0.0490888
0.46556
0.399256
0.348326
0.308173
0.275829
0.249287
0.227165
0.208486
0.192526
0.178743
0.166725
0.156162
0.146812
0.138483
0.13102
0.124298
0.118215
0.112688
0.107645
0.103027
0.0987836
0.0948713
0.0912542
0.0879007
0.0847829
0.0818766
0.0791622
0.0766231
0.0742439
0.0720093
0.0699065
0.0679265
0.0660598
0.0642982
0.0626346
0.0610616
0.0595723
0.0581606
0.0568217
0.0555515
0.0543472
0.0532057
0.0521235
0.0511018
0.0502022
0.0497918
0.0506056
0.0534191
0.0578511
0.0622268
0.0650502
0.0657126
0.0643191
0.0614272
0.0577817
0.054063
0.0506987
0.0478604
0.0455324
0.0436392
0.465559
0.399418
0.348597
0.308516
0.276206
0.249679
0.227559
0.208866
0.192883
0.179072
0.167027
0.156439
0.147068
0.138718
0.131236
0.124497
0.118398
0.112854
0.107797
0.103167
0.0989119
0.09499
0.0913646
0.0880042
0.0848805
0.0819696
0.0792517
0.0767094
0.0743272
0.0720903
0.0699858
0.0680031
0.0661326
0.0643651
0.0626946
0.0611147
0.0596185
0.0582
0.0568545
0.0555786
0.0543698
0.0532244
0.0521382
0.0511066
0.0501261
0.0492096
0.0484406
0.048054
0.0484191
0.0496236
0.0511352
0.0521878
0.0523221
0.0515325
0.0500926
0.0483293
0.0464852
0.0447064
0.0430592
0.0415855
0.46556
0.399415
0.348569
0.308464
0.276135
0.249594
0.227463
0.208765
0.192784
0.178979
0.166943
0.156364
0.146999
0.138656
0.131179
0.124444
0.118348
0.112809
0.107756
0.10313
0.0988792
0.0949617
0.0913409
0.0879853
0.084867
0.0819621
0.0792505
0.0767153
0.074341
0.0721129
0.070018
0.0680452
0.0661848
0.064428
0.0627672
0.0611951
0.0597058
0.0582945
0.0569598
0.0557018
0.0545179
0.0534007
0.0523409
0.0513275
0.0503526
0.0494134
0.0485117
0.0476561
0.0468927
0.0463206
0.0460446
0.0460238
0.0460395
0.0458762
0.0454583
0.044824
0.0440481
0.0431969
0.0423157
0.0414468
0.46556
0.399413
0.348566
0.308459
0.27613
0.24959
0.227457
0.208758
0.192777
0.178972
0.166937
0.156359
0.146995
0.138653
0.131177
0.124443
0.118349
0.112811
0.107759
0.103135
0.0988868
0.0949718
0.0913537
0.0880011
0.0848864
0.081986
0.0792803
0.0767525
0.0743876
0.072171
0.07009
0.0681333
0.0662914
0.0645558
0.0629189
0.0613742
0.0599178
0.0585521
0.0572885
0.0561391
0.0551005
0.0541498
0.0532586
0.0523981
0.0515468
0.0506962
0.0498475
0.0490014
0.0481455
0.0473064
0.0465211
0.045822
0.0452177
0.0446783
0.0441612
0.0436388
0.0431043
0.0425599
0.042013
0.0414693
0.46556
0.399419
0.348607
0.308532
0.276228
0.249706
0.227583
0.208885
0.192897
0.179084
0.167039
0.156451
0.147077
0.138726
0.131241
0.124498
0.118396
0.11285
0.10779
0.103159
0.0989058
0.0949866
0.0913659
0.0880123
0.0848989
0.0820023
0.0793034
0.0767865
0.074437
0.072241
0.0701866
0.0682638
0.0664645
0.0647829
0.0632147
0.0617564
0.0604076
0.0591782
0.0581114
0.0572724
0.0566567
0.0561688
0.055708
0.0552051
0.0546294
0.0539835
0.053286
0.0525468
0.0517518
0.050832
0.0498857
0.0489319
0.048012
0.0471589
0.0463838
0.0456808
0.0450401
0.0444498
0.0439058
0.0433995
0.465559
0.399244
0.348318
0.308169
0.275832
0.249302
0.227184
0.208501
0.192538
0.178754
0.16674
0.156181
0.146834
0.138506
0.131044
0.124323
0.118242
0.112715
0.107673
0.103057
0.0988163
0.0949092
0.0912989
0.0879542
0.0848475
0.0819551
0.0792575
0.0767378
0.0743803
0.0721708
0.0700964
0.068146
0.0663106
0.0645826
0.0629615
0.0614518
0.0600767
0.058951
0.0584344
0.0588882
0.0600198
0.0611544
0.0618926
0.062287
0.0623957
0.0623198
0.06217
0.0620042
0.061774
0.0612897
0.060237
0.058595
0.056793
0.055145
0.0536833
0.0524038
0.0512863
0.0503056
0.0494527
0.0486831
0.465663
0.399869
0.349368
0.309609
0.277616
0.251365
0.229463
0.21095
0.195136
0.181488
0.169588
0.159119
0.149846
0.141578
0.134161
0.12747
0.121403
0.115873
0.110793
0.106109
0.101812
0.0978585
0.094213
0.0908432
0.0877207
0.0848207
0.0821218
0.0796319
0.0774038
0.075396
0.0735521
0.0718249
0.0701638
0.0685846
0.0670996
0.0657651
0.0649843
0.0660184
0.0708052
0.078576
0.0860106
0.0908634
0.0927223
0.0924603
0.0914499
0.0907492
0.0905835
0.0904752
0.0897518
0.0878959
0.084619
0.0799333
0.074241
0.0685255
0.0636574
0.0597881
0.0567274
0.0541637
0.0519826
0.0500243
0.800858
0.734858
0.679907
0.633523
0.593905
0.559719
0.529958
0.503871
0.480854
0.460412
0.442153
0.425761
0.410985
0.397618
0.385495
0.374491
0.364516
0.3555
0.347349
0.339908
0.332997
0.326499
0.320333
0.314471
0.308944
0.303785
0.299084
0.294819
0.290899
0.287322
0.284093
0.281208
0.278652
0.276387
0.274366
0.272552
0.271047
0.270482
0.272478
0.278001
0.284678
0.28924
0.290326
0.28816
0.283429
0.276695
0.268282
0.25839
0.247259
0.235272
0.223031
0.211327
0.200994
0.192681
0.186709
0.182924
0.180563
0.178382
0.17553
0.171439
)
;

boundaryField
{
    wall
    {
        type            compressible::alphatJayatillekeWallFunction;
        Prt             0.85;
        value           uniform 0;
    }
    inlet
    {
        type            calculated;
        value           uniform 37.903;
    }
    outlet
    {
        type            calculated;
        value           nonuniform List<scalar> 
20
(
0.218648
0.0488358
0.0434953
0.0414659
0.0413933
0.0414795
0.0434597
0.0486954
0.0498989
0.17095
0.219023
0.0490888
0.0436392
0.0415855
0.0414468
0.0414692
0.0433994
0.0486833
0.0500245
0.171439
)
;
    }
    heatWall
    {
        type            compressible::alphatJayatillekeWallFunction;
        Prt             0.85;
        value           nonuniform List<scalar> 
240
(
0
0
0
0
0
0
0
0
0.0602344
0.0602388
0.0568628
0.0568667
0.0539257
0.0539275
0.0513471
0.0513483
0.0490676
0.0490698
0.0470407
0.0470438
0.0452291
0.0452319
0.0436024
0.0436038
0.0421352
0.0421348
0.0408068
0.0408049
0.0396006
0.0395982
0.0385047
0.0385027
0.0375113
0.0375102
0.0366142
0.0366142
0.0358034
0.0358041
0.0350617
0.0350623
0.0343718
0.0343708
0.0337207
0.0337184
0.0331011
0.0330973
0.0325117
0.0325056
0.0319584
0.0319483
0.0314456
0.0314296
0.0309754
0.0309585
0.030542
0.0305323
0.030146
0.0301414
0.0297881
0.0297857
0.0294672
0.0294654
0.029182
0.0291801
0.0289299
0.0289277
0.0287063
0.028704
0.028506
0.0285037
0.0283264
0.0283237
0.0281861
0.0281789
0.0281758
0.0281492
0.0284796
0.0284136
0.0291278
0.0290357
0.0298103
0.0297337
0.0302197
0.0301834
0.030262
0.0302671
0.0299813
0.0300191
0.0294515
0.0295129
0.0287275
0.0288061
0.0278398
0.0279313
0.0268071
0.0269084
0.0256544
0.0257619
0.0244227
0.024532
0.0231742
0.0232802
0.0219892
0.0220869
0.020951
0.0210369
0.020123
0.0201954
0.0195388
0.0195972
0.0191776
0.0192235
0.0189556
0.0189947
0.018735
0.0187738
0.0184422
0.0184859
0.0179966
0.0180474
0
0
0
0
0
0
0.0641338
0.0641329
0.0602307
0.0602269
0.0568583
0.056852
0.0539186
0.0539132
0.0513367
0.0513351
0.049054
0.0490569
0.0470253
0.04703
0.0452139
0.0452168
0.0435879
0.043588
0.0421211
0.0421189
0.0407925
0.0407886
0.0395848
0.0395806
0.0384845
0.0384812
0.0374808
0.037479
0.0365641
0.0365638
0.0357219
0.0357213
0.0349433
0.034942
0.0342211
0.034219
0.0335498
0.0335473
0.0329249
0.0329226
0.0323429
0.0323413
0.0318017
0.0318012
0.0313
0.0312995
0.0308367
0.0308362
0.0304057
0.0304071
0.0300012
0.0300051
0.0296198
0.0296237
0.0292605
0.0292627
0.0289229
0.0289236
0.0286063
0.0286065
0.02831
0.0283102
0.0280318
0.0280324
0.0277685
0.0277697
0.0275145
0.0275167
0.0272641
0.0272677
0.0270148
0.0270199
0.0267719
0.0267774
0.0265455
0.0265498
0.026344
0.026346
0.0261689
0.0261683
0.0260128
0.0260104
0.0258771
0.025871
0.0258189
0.0257999
0.0259522
0.0259056
0.0263064
0.0262428
0.0266947
0.0266346
0.0269584
0.0269265
0.0269273
0.0269426
0.0265544
0.0266152
0.0259435
0.0260307
0.0252669
0.0253573
0.0246567
0.0247356
0.0241584
0.0242221
0.0237576
0.0238089
0.0234181
0.0234614
0.0231116
0.0231513
0.0228174
0.0228554
)
;
    }
}


// ************************************************************************* //
