/*--------------------------------*- C++ -*----------------------------------*\
  =========                 |
  \\      /  F ield         | OpenFOAM: The Open Source CFD Toolbox
   \\    /   O peration     | Website:  https://openfoam.org
    \\  /    A nd           | Version:  8
     \\/     M anipulation  |
\*---------------------------------------------------------------------------*/
FoamFile
{
    version     2.0;
    format      ascii;
    class       volScalarField;
    location    "900";
    object      k;
}
// * * * * * * * * * * * * * * * * * * * * * * * * * * * * * * * * * * * * * //

dimensions      [0 2 -2 0 0 0 0];

internalField   nonuniform List<scalar> 
1200
(
0.803297
0.676265
0.578857
0.502546
0.441642
0.392249
0.351632
0.317832
0.289405
0.265282
0.244649
0.226857
0.2114
0.197882
0.185991
0.175484
0.16617
0.157889
0.150475
0.143791
0.137733
0.132225
0.127203
0.12261
0.118408
0.114579
0.111103
0.107922
0.104977
0.102235
0.0996825
0.0973113
0.0951124
0.0930771
0.0911876
0.089418
0.0877296
0.0860824
0.0844574
0.082885
0.0814272
0.0801349
0.079014
0.0780154
0.077139
0.0767242
0.0774647
0.0795565
0.081861
0.0834002
0.0831128
0.0807383
0.0769936
0.0729798
0.0694669
0.066674
0.0644699
0.062632
0.0609851
0.0594178
0.695244
0.512722
0.391457
0.307496
0.247321
0.202821
0.169076
0.142952
0.122372
0.105914
0.0925307
0.081517
0.072337
0.0645967
0.0580066
0.0523485
0.0474516
0.0431818
0.0394555
0.0361942
0.0333271
0.0307955
0.02855
0.0265487
0.0247576
0.023149
0.0216989
0.0203869
0.0191959
0.0181116
0.0171222
0.0162174
0.0153882
0.0146269
0.0139264
0.0132802
0.0126822
0.0121267
0.0116091
0.0111272
0.0106809
0.0102724
0.00992179
0.00977663
0.0104193
0.0127621
0.016821
0.021475
0.0253991
0.0275314
0.0277056
0.0261555
0.0233166
0.0197932
0.0162255
0.0131219
0.0107327
0.00908158
0.00800018
0.00754884
0.694934
0.511033
0.38897
0.304479
0.243944
0.199287
0.165502
0.139394
0.118851
0.10243
0.0891179
0.0781886
0.0691124
0.0614979
0.0550504
0.0495456
0.0448122
0.0407168
0.0371524
0.0340325
0.0312865
0.0288573
0.0266985
0.024772
0.0230461
0.0214948
0.0200949
0.0188271
0.0176757
0.016627
0.0156701
0.0147952
0.0139937
0.0132581
0.0125815
0.011958
0.0113822
0.0108495
0.010356
0.00989865
0.00947458
0.00908116
0.00871592
0.00838014
0.00811087
0.0080586
0.00848645
0.00963301
0.0113038
0.0128751
0.0137785
0.013788
0.0130076
0.0117473
0.0103521
0.00907073
0.0080092
0.00717479
0.00652698
0.00601837
0.694933
0.511464
0.389593
0.305164
0.244609
0.199897
0.166056
0.139887
0.11928
0.102798
0.0894323
0.0784588
0.0693464
0.061702
0.0552291
0.0497025
0.04495
0.0408373
0.0372578
0.0341249
0.031368
0.0289298
0.0267636
0.0248309
0.0230997
0.0215434
0.020139
0.0188677
0.0177136
0.0166631
0.0157043
0.014827
0.0140224
0.0132838
0.0126043
0.0119779
0.0113993
0.0108639
0.0103679
0.00990831
0.0094824
0.0090875
0.00872076
0.00837929
0.00806141
0.00777465
0.00755464
0.00748702
0.00767301
0.00809293
0.008552
0.00881646
0.00876718
0.00843506
0.0079314
0.0073672
0.00681371
0.0063071
0.00585922
0.0054751
0.694933
0.511464
0.389523
0.305047
0.244465
0.199745
0.165907
0.13975
0.11916
0.102695
0.0893459
0.0783853
0.0692829
0.0616461
0.0551796
0.0496587
0.0449116
0.0408041
0.0372292
0.0341005
0.0313474
0.0289127
0.0267499
0.0248206
0.0230927
0.0215392
0.0201378
0.0188701
0.01772
0.0166737
0.0157191
0.0148459
0.0140453
0.0133097
0.0126324
0.0120077
0.0114304
0.0108965
0.0104034
0.0099489
0.00953043
0.00914372
0.00878409
0.008447
0.0081293
0.00783007
0.00754816
0.00728832
0.00706686
0.00691365
0.00684875
0.00684474
0.006834
0.0067627
0.00661958
0.0064218
0.00619248
0.0059504
0.0057077
0.00547567
0.694933
0.511466
0.38952
0.305039
0.244454
0.19973
0.165892
0.139737
0.119149
0.102688
0.0893408
0.0783812
0.0692793
0.0616427
0.0551765
0.0496567
0.044911
0.0408049
0.0372314
0.0341041
0.0313523
0.028919
0.0267576
0.0248297
0.0231033
0.0215518
0.0201529
0.0188883
0.0177423
0.0167007
0.0157516
0.0148845
0.0140906
0.0133625
0.0126934
0.0120778
0.0115115
0.0109928
0.0105238
0.0101062
0.00973605
0.00940314
0.00909621
0.00880467
0.00852078
0.00824148
0.00796697
0.00769609
0.00742735
0.00717665
0.00694814
0.00674757
0.00657435
0.00641845
0.00626856
0.00611845
0.00596711
0.00581542
0.00566539
0.00551901
0.694933
0.511483
0.389602
0.30517
0.244611
0.199896
0.16606
0.139898
0.119295
0.102814
0.0894463
0.0784699
0.0693547
0.0617073
0.0552315
0.0497023
0.0449476
0.0408334
0.0372531
0.0341203
0.0313644
0.0289281
0.0267647
0.0248361
0.0231102
0.0215603
0.0201646
0.018905
0.0177657
0.0167329
0.0157947
0.0149411
0.0141637
0.0134561
0.0128125
0.0122283
0.0117003
0.0112297
0.0108305
0.0105227
0.0102994
0.0101231
0.00995747
0.00977808
0.00957452
0.00934865
0.00910761
0.00885524
0.00858559
0.00828169
0.00797582
0.00768206
0.0074066
0.00715442
0.006927
0.00672207
0.00653696
0.00636814
0.0062146
0.00607346
0.694934
0.511058
0.388984
0.304478
0.243926
0.199259
0.165482
0.139387
0.118854
0.10244
0.0891313
0.0782033
0.0691269
0.0615112
0.0550631
0.0495594
0.0448283
0.0407348
0.0371717
0.0340523
0.0313077
0.0288809
0.0267255
0.0248033
0.0230821
0.0215353
0.020141
0.0188807
0.0177383
0.0166999
0.0157535
0.014889
0.0140983
0.0133736
0.012711
0.0121091
0.0115752
0.0111559
0.0109899
0.0111951
0.0116416
0.0120778
0.012362
0.0125034
0.0125275
0.0124772
0.0124014
0.0123229
0.0122171
0.0119954
0.0115492
0.0109019
0.0102511
0.00967713
0.00918339
0.00876222
0.00840289
0.00809425
0.00783114
0.00759687
0.695244
0.51263
0.391257
0.307215
0.246966
0.202482
0.168786
0.142676
0.122068
0.105558
0.0921577
0.0811468
0.0719861
0.0642755
0.0577211
0.0521041
0.0472583
0.0430494
0.0393592
0.0361036
0.0332346
0.0307029
0.0284579
0.0264588
0.0246729
0.0230834
0.0216541
0.0203722
0.0192529
0.0182696
0.0173902
0.0165879
0.0158223
0.0151075
0.0144383
0.0138612
0.0136125
0.0143632
0.0169487
0.0208951
0.0246165
0.0269278
0.0276014
0.0272063
0.0265719
0.0262236
0.0261748
0.0260942
0.0255982
0.0244301
0.022506
0.0199553
0.0171388
0.0146121
0.0126694
0.0112238
0.0101329
0.00925238
0.00853065
0.0079099
0.803267
0.676312
0.57891
0.502603
0.441699
0.392313
0.351725
0.317959
0.289562
0.265455
0.244816
0.227012
0.211545
0.198022
0.186137
0.17566
0.16642
0.158283
0.151104
0.144698
0.138882
0.133523
0.128536
0.123889
0.119603
0.115687
0.112144
0.108921
0.106012
0.103408
0.101096
0.0990585
0.0972714
0.0956999
0.0943039
0.0930609
0.0920832
0.091938
0.0938
0.0979185
0.102327
0.104939
0.105055
0.102968
0.099229
0.0942769
0.0883957
0.0818062
0.0747659
0.067605
0.0607271
0.0545535
0.0494256
0.0455232
0.0428611
0.0412509
0.0402536
0.0392846
0.0379889
0.0361667
0.803299
0.676329
0.578885
0.502536
0.441592
0.392166
0.351561
0.317807
0.289433
0.265333
0.244683
0.226863
0.211382
0.197848
0.185954
0.175455
0.166154
0.157885
0.150468
0.143777
0.137714
0.132203
0.127181
0.122595
0.118406
0.114579
0.111103
0.107934
0.105006
0.102263
0.0996978
0.097317
0.0951148
0.0930795
0.0911923
0.0894266
0.0877447
0.0861067
0.0844905
0.0829202
0.081455
0.080148
0.079011
0.0780013
0.0771038
0.0766115
0.0771843
0.0791712
0.081496
0.0832095
0.0832146
0.0811158
0.0775185
0.0735089
0.0699175
0.0670306
0.064753
0.0628688
0.0611997
0.0596213
0.695244
0.512717
0.391378
0.307365
0.247175
0.20273
0.169044
0.142938
0.122345
0.105843
0.0924296
0.0814044
0.0722386
0.0645238
0.0579544
0.0523064
0.0474118
0.043143
0.0394285
0.0361785
0.0333194
0.0307922
0.0285485
0.0265479
0.0247567
0.0231467
0.0216954
0.0203832
0.0191926
0.0181091
0.0171203
0.0162159
0.0153869
0.0146257
0.0139252
0.0132791
0.0126812
0.0121259
0.0116085
0.0111264
0.0106796
0.0102696
0.00991255
0.00973083
0.0102415
0.0123514
0.0162244
0.0208301
0.0249109
0.0273082
0.0277499
0.0264167
0.0237171
0.0202462
0.0166549
0.0134776
0.0109958
0.0092583
0.00811292
0.00762222
0.694934
0.511089
0.389016
0.304499
0.243936
0.199249
0.165454
0.139363
0.118844
0.102437
0.0891245
0.0781892
0.069107
0.0614881
0.0550393
0.0495367
0.0448071
0.0407149
0.0371526
0.0340336
0.0312879
0.0288588
0.0267003
0.024774
0.0230479
0.021495
0.0200936
0.0188255
0.0176746
0.0166267
0.0156702
0.0147951
0.0139932
0.0132571
0.0125802
0.0119564
0.0113805
0.0108477
0.0103542
0.00989673
0.00947258
0.00907908
0.00871371
0.00837684
0.00809718
0.00800912
0.00836127
0.00941228
0.0110416
0.0126637
0.0136789
0.0138087
0.0131175
0.0118997
0.0105059
0.009202
0.00811057
0.00724878
0.00657927
0.00605635
0.694933
0.511503
0.389622
0.305177
0.244605
0.199876
0.166028
0.139871
0.119284
0.102813
0.0894476
0.0784674
0.0693476
0.0616972
0.0552214
0.0496955
0.0449455
0.0408355
0.0372578
0.0341258
0.0313692
0.028931
0.026765
0.0248324
0.023101
0.0215439
0.020139
0.0188679
0.0177144
0.0166644
0.0157058
0.0148286
0.014024
0.0132848
0.0126044
0.0119773
0.0113982
0.0108624
0.0103662
0.00990653
0.00948064
0.00908567
0.00871878
0.00837719
0.00805906
0.00776992
0.00754048
0.00744941
0.00760241
0.00800352
0.0084755
0.00877757
0.00877043
0.00846928
0.00798118
0.00742064
0.00686418
0.0063517
0.00589694
0.0055058
0.694933
0.511497
0.389559
0.305073
0.244478
0.19974
0.165888
0.139736
0.119162
0.102708
0.0893582
0.0783918
0.0692831
0.0616415
0.0551729
0.049653
0.0449082
0.0408028
0.0372294
0.0341014
0.0313485
0.0289138
0.0267511
0.0248219
0.0230938
0.0215401
0.0201387
0.0188711
0.0177214
0.0166753
0.0157208
0.0148477
0.0140471
0.0133114
0.0126342
0.0120094
0.0114321
0.0108984
0.0104056
0.00995172
0.00953387
0.00914767
0.00878835
0.00845129
0.00813282
0.0078317
0.007548
0.00728563
0.00705923
0.0068978
0.00682527
0.00682032
0.00681654
0.00675568
0.00662191
0.00643052
0.00620491
0.00596463
0.00572243
0.00548983
0.694933
0.51149
0.389552
0.305064
0.244468
0.199732
0.16588
0.139728
0.119153
0.102699
0.0893518
0.078387
0.0692796
0.061639
0.0551713
0.0496522
0.0449084
0.040804
0.0372317
0.0341049
0.0313533
0.02892
0.0267587
0.0248309
0.0231046
0.021553
0.0201542
0.01889
0.0177443
0.016703
0.0157541
0.0148872
0.0140936
0.0133656
0.0126968
0.0120814
0.0115155
0.010998
0.0105309
0.0101159
0.00974824
0.00941694
0.00911068
0.00881875
0.00853378
0.00825327
0.00797788
0.00770703
0.00743799
0.00718142
0.00694642
0.00674111
0.00656563
0.00640964
0.00626088
0.0061122
0.00596214
0.00581149
0.00566228
0.00551633
0.694933
0.511506
0.389642
0.305207
0.244642
0.199918
0.166063
0.139897
0.119302
0.102827
0.0894601
0.0784786
0.0693566
0.0617036
0.0552252
0.0496966
0.0449441
0.0408321
0.0372532
0.0341211
0.0313654
0.0289291
0.0267659
0.0248373
0.0231116
0.0215618
0.0201665
0.0189074
0.0177688
0.0167367
0.0157993
0.0149466
0.0141704
0.0134642
0.0128224
0.0122404
0.011715
0.0112485
0.0108559
0.0105561
0.0103386
0.0101645
0.00999795
0.0098155
0.0096082
0.00937901
0.00913556
0.00888143
0.00861112
0.00830634
0.00799859
0.00769425
0.00740712
0.00714652
0.00691416
0.00670679
0.00652061
0.00635141
0.00619763
0.00605636
0.694934
0.511058
0.388996
0.30449
0.243941
0.199271
0.165481
0.139383
0.118858
0.102449
0.0891405
0.0782082
0.0691273
0.0615088
0.0550599
0.0495569
0.044827
0.0407345
0.037172
0.0340529
0.0313085
0.0288818
0.0267266
0.0248044
0.0230834
0.0215368
0.0201427
0.0188828
0.0177408
0.0167028
0.0157569
0.0148927
0.0141018
0.0133772
0.0127156
0.0121157
0.0115858
0.0111757
0.0110243
0.0112376
0.0116794
0.0121013
0.0123637
0.0124906
0.012508
0.012459
0.0123878
0.0123144
0.0122152
0.0120076
0.0115782
0.0109415
0.0102844
0.00970319
0.00920252
0.0087753
0.00841061
0.00809721
0.00782965
0.007592
0.695243
0.512659
0.391345
0.307342
0.247105
0.202582
0.168816
0.142675
0.122085
0.105604
0.0922095
0.0811761
0.0719892
0.0642638
0.0577061
0.0520923
0.0472508
0.0430423
0.0393493
0.0360923
0.0332285
0.0306988
0.0284546
0.0264559
0.0246689
0.0230651
0.021621
0.0203308
0.0192102
0.018227
0.0173466
0.0165412
0.015785
0.0150829
0.0144391
0.0138858
0.0136192
0.0142307
0.0165787
0.0203955
0.0241912
0.0266955
0.0275563
0.0272684
0.0266508
0.0262739
0.0262019
0.0261274
0.0256658
0.0245484
0.022677
0.0201654
0.0173548
0.0147923
0.0127986
0.0113167
0.010203
0.00930904
0.00857777
0.00794831
0.803275
0.676334
0.578968
0.502667
0.441762
0.392367
0.351751
0.317973
0.289586
0.265488
0.244847
0.227029
0.211544
0.198007
0.186118
0.175644
0.166412
0.158282
0.151108
0.144701
0.138873
0.133502
0.128503
0.123839
0.119524
0.115567
0.112021
0.108852
0.10598
0.103393
0.101085
0.0990472
0.0972581
0.0956854
0.0942896
0.0930445
0.0920385
0.0917713
0.0933803
0.0973219
0.101824
0.104706
0.105104
0.103239
0.099653
0.0948028
0.0889881
0.0824361
0.0754041
0.0682209
0.0612921
0.0550468
0.0498385
0.0458576
0.0431238
0.0414538
0.0404247
0.039453
0.0381746
0.0363767
)
;

boundaryField
{
    wall
    {
        type            kqRWallFunction;
        value           nonuniform List<scalar> 
1200
(
0.803297
0.695244
0.694934
0.694933
0.694933
0.694933
0.694933
0.694934
0.695244
0.803267
0.676265
0.512722
0.511033
0.511464
0.511464
0.511466
0.511483
0.511058
0.51263
0.676312
0.578857
0.391457
0.38897
0.389593
0.389523
0.38952
0.389602
0.388984
0.391257
0.57891
0.502546
0.307496
0.304479
0.305164
0.305047
0.305039
0.30517
0.304478
0.307215
0.502603
0.441642
0.247321
0.243944
0.244609
0.244465
0.244454
0.244611
0.243926
0.246966
0.441699
0.392249
0.202821
0.199287
0.199897
0.199745
0.19973
0.199896
0.199259
0.202482
0.392313
0.351632
0.169076
0.165502
0.166056
0.165907
0.165892
0.16606
0.165482
0.168786
0.351725
0.317832
0.142952
0.139394
0.139887
0.13975
0.139737
0.139898
0.139387
0.142676
0.317959
0.289405
0.122372
0.118851
0.11928
0.11916
0.119149
0.119295
0.118854
0.122068
0.289562
0.265282
0.105914
0.10243
0.102798
0.102695
0.102688
0.102814
0.10244
0.105558
0.265455
0.244649
0.0925307
0.0891179
0.0894323
0.0893459
0.0893408
0.0894463
0.0891313
0.0921577
0.244816
0.226857
0.081517
0.0781886
0.0784588
0.0783853
0.0783812
0.0784699
0.0782033
0.0811468
0.227012
0.2114
0.072337
0.0691124
0.0693464
0.0692829
0.0692793
0.0693547
0.0691269
0.0719861
0.211545
0.197882
0.0645967
0.0614979
0.061702
0.0616461
0.0616427
0.0617073
0.0615112
0.0642755
0.198022
0.185991
0.0580066
0.0550504
0.0552291
0.0551796
0.0551765
0.0552315
0.0550631
0.0577211
0.186137
0.175484
0.0523485
0.0495456
0.0497025
0.0496587
0.0496567
0.0497023
0.0495594
0.0521041
0.17566
0.16617
0.0474516
0.0448122
0.04495
0.0449116
0.044911
0.0449476
0.0448283
0.0472583
0.16642
0.157889
0.0431818
0.0407168
0.0408373
0.0408041
0.0408049
0.0408334
0.0407348
0.0430494
0.158283
0.150475
0.0394555
0.0371524
0.0372578
0.0372292
0.0372314
0.0372531
0.0371717
0.0393592
0.151104
0.143791
0.0361942
0.0340325
0.0341249
0.0341005
0.0341041
0.0341203
0.0340523
0.0361036
0.144698
0.137733
0.0333271
0.0312865
0.031368
0.0313474
0.0313523
0.0313644
0.0313077
0.0332346
0.138882
0.132225
0.0307955
0.0288573
0.0289298
0.0289127
0.028919
0.0289281
0.0288809
0.0307029
0.133523
0.127203
0.02855
0.0266985
0.0267636
0.0267499
0.0267576
0.0267647
0.0267255
0.0284579
0.128536
0.12261
0.0265487
0.024772
0.0248309
0.0248206
0.0248297
0.0248361
0.0248033
0.0264588
0.123889
0.118408
0.0247576
0.0230461
0.0230997
0.0230927
0.0231033
0.0231102
0.0230821
0.0246729
0.119603
0.114579
0.023149
0.0214948
0.0215434
0.0215392
0.0215518
0.0215603
0.0215353
0.0230834
0.115687
0.111103
0.0216989
0.0200949
0.020139
0.0201378
0.0201529
0.0201646
0.020141
0.0216541
0.112144
0.107922
0.0203869
0.0188271
0.0188677
0.0188701
0.0188883
0.018905
0.0188807
0.0203722
0.108921
0.104977
0.0191959
0.0176757
0.0177136
0.01772
0.0177423
0.0177657
0.0177383
0.0192529
0.106012
0.102235
0.0181116
0.016627
0.0166631
0.0166737
0.0167007
0.0167329
0.0166999
0.0182696
0.103408
0.0996825
0.0171222
0.0156701
0.0157043
0.0157191
0.0157516
0.0157947
0.0157535
0.0173902
0.101096
0.0973113
0.0162174
0.0147952
0.014827
0.0148459
0.0148845
0.0149411
0.014889
0.0165879
0.0990585
0.0951124
0.0153882
0.0139937
0.0140224
0.0140453
0.0140906
0.0141637
0.0140983
0.0158223
0.0972714
0.0930771
0.0146269
0.0132581
0.0132838
0.0133097
0.0133625
0.0134561
0.0133736
0.0151075
0.0956999
0.0911876
0.0139264
0.0125815
0.0126043
0.0126324
0.0126934
0.0128125
0.012711
0.0144383
0.0943039
0.089418
0.0132802
0.011958
0.0119779
0.0120077
0.0120778
0.0122283
0.0121091
0.0138612
0.0930609
0.0877296
0.0126822
0.0113822
0.0113993
0.0114304
0.0115115
0.0117003
0.0115752
0.0136125
0.0920832
0.0860824
0.0121267
0.0108495
0.0108639
0.0108965
0.0109928
0.0112297
0.0111559
0.0143632
0.091938
0.0844574
0.0116091
0.010356
0.0103679
0.0104034
0.0105238
0.0108305
0.0109899
0.0169487
0.0938
0.082885
0.0111272
0.00989865
0.00990831
0.0099489
0.0101062
0.0105227
0.0111951
0.0208951
0.0979185
0.0814272
0.0106809
0.00947458
0.0094824
0.00953043
0.00973605
0.0102994
0.0116416
0.0246165
0.102327
0.0801349
0.0102724
0.00908116
0.0090875
0.00914372
0.00940314
0.0101231
0.0120778
0.0269278
0.104939
0.079014
0.00992179
0.00871592
0.00872076
0.00878409
0.00909621
0.00995747
0.012362
0.0276014
0.105055
0.0780154
0.00977663
0.00838014
0.00837929
0.008447
0.00880467
0.00977808
0.0125034
0.0272063
0.102968
0.077139
0.0104193
0.00811087
0.00806141
0.0081293
0.00852078
0.00957452
0.0125275
0.0265719
0.099229
0.0767242
0.0127621
0.0080586
0.00777465
0.00783007
0.00824148
0.00934865
0.0124772
0.0262236
0.0942769
0.0774647
0.016821
0.00848645
0.00755464
0.00754816
0.00796697
0.00910761
0.0124014
0.0261748
0.0883957
0.0795565
0.021475
0.00963301
0.00748702
0.00728832
0.00769609
0.00885524
0.0123229
0.0260942
0.0818062
0.081861
0.0253991
0.0113038
0.00767301
0.00706686
0.00742735
0.00858559
0.0122171
0.0255982
0.0747659
0.0834002
0.0275314
0.0128751
0.00809293
0.00691365
0.00717665
0.00828169
0.0119954
0.0244301
0.067605
0.0831128
0.0277056
0.0137785
0.008552
0.00684875
0.00694814
0.00797582
0.0115492
0.022506
0.0607271
0.0807383
0.0261555
0.013788
0.00881646
0.00684474
0.00674757
0.00768206
0.0109019
0.0199553
0.0545535
0.0769936
0.0233166
0.0130076
0.00876718
0.006834
0.00657435
0.0074066
0.0102511
0.0171388
0.0494256
0.0729798
0.0197932
0.0117473
0.00843506
0.0067627
0.00641845
0.00715442
0.00967713
0.0146121
0.0455232
0.0694669
0.0162255
0.0103521
0.0079314
0.00661958
0.00626856
0.006927
0.00918339
0.0126694
0.0428611
0.066674
0.0131219
0.00907073
0.0073672
0.0064218
0.00611845
0.00672207
0.00876222
0.0112238
0.0412509
0.0644699
0.0107327
0.0080092
0.00681371
0.00619248
0.00596711
0.00653696
0.00840289
0.0101329
0.0402536
0.062632
0.00908158
0.00717479
0.0063071
0.0059504
0.00581542
0.00636814
0.00809425
0.00925238
0.0392846
0.0609851
0.00800018
0.00652698
0.00585922
0.0057077
0.00566539
0.0062146
0.00783114
0.00853065
0.0379889
0.0594178
0.00754884
0.00601837
0.0054751
0.00547567
0.00551901
0.00607346
0.00759687
0.0079099
0.0361667
0.803299
0.695244
0.694934
0.694933
0.694933
0.694933
0.694933
0.694934
0.695243
0.803275
0.676329
0.512717
0.511089
0.511503
0.511497
0.51149
0.511506
0.511058
0.512659
0.676334
0.578885
0.391378
0.389016
0.389622
0.389559
0.389552
0.389642
0.388996
0.391345
0.578968
0.502536
0.307365
0.304499
0.305177
0.305073
0.305064
0.305207
0.30449
0.307342
0.502667
0.441592
0.247175
0.243936
0.244605
0.244478
0.244468
0.244642
0.243941
0.247105
0.441762
0.392166
0.20273
0.199249
0.199876
0.19974
0.199732
0.199918
0.199271
0.202582
0.392367
0.351561
0.169044
0.165454
0.166028
0.165888
0.16588
0.166063
0.165481
0.168816
0.351751
0.317807
0.142938
0.139363
0.139871
0.139736
0.139728
0.139897
0.139383
0.142675
0.317973
0.289433
0.122345
0.118844
0.119284
0.119162
0.119153
0.119302
0.118858
0.122085
0.289586
0.265333
0.105843
0.102437
0.102813
0.102708
0.102699
0.102827
0.102449
0.105604
0.265488
0.244683
0.0924296
0.0891245
0.0894476
0.0893582
0.0893518
0.0894601
0.0891405
0.0922095
0.244847
0.226863
0.0814044
0.0781892
0.0784674
0.0783918
0.078387
0.0784786
0.0782082
0.0811761
0.227029
0.211382
0.0722386
0.069107
0.0693476
0.0692831
0.0692796
0.0693566
0.0691273
0.0719892
0.211544
0.197848
0.0645238
0.0614881
0.0616972
0.0616415
0.061639
0.0617036
0.0615088
0.0642638
0.198007
0.185954
0.0579544
0.0550393
0.0552214
0.0551729
0.0551713
0.0552252
0.0550599
0.0577061
0.186118
0.175455
0.0523064
0.0495367
0.0496955
0.049653
0.0496522
0.0496966
0.0495569
0.0520923
0.175644
0.166154
0.0474118
0.0448071
0.0449455
0.0449082
0.0449084
0.0449441
0.044827
0.0472508
0.166412
0.157885
0.043143
0.0407149
0.0408355
0.0408028
0.040804
0.0408321
0.0407345
0.0430423
0.158282
0.150468
0.0394285
0.0371526
0.0372578
0.0372294
0.0372317
0.0372532
0.037172
0.0393493
0.151108
0.143777
0.0361785
0.0340336
0.0341258
0.0341014
0.0341049
0.0341211
0.0340529
0.0360923
0.144701
0.137714
0.0333194
0.0312879
0.0313692
0.0313485
0.0313533
0.0313654
0.0313085
0.0332285
0.138873
0.132203
0.0307922
0.0288588
0.028931
0.0289138
0.02892
0.0289291
0.0288818
0.0306988
0.133502
0.127181
0.0285485
0.0267003
0.026765
0.0267511
0.0267587
0.0267659
0.0267266
0.0284546
0.128503
0.122595
0.0265479
0.024774
0.0248324
0.0248219
0.0248309
0.0248373
0.0248044
0.0264559
0.123839
0.118406
0.0247567
0.0230479
0.023101
0.0230938
0.0231046
0.0231116
0.0230834
0.0246689
0.119524
0.114579
0.0231467
0.021495
0.0215439
0.0215401
0.021553
0.0215618
0.0215368
0.0230651
0.115567
0.111103
0.0216954
0.0200936
0.020139
0.0201387
0.0201542
0.0201665
0.0201427
0.021621
0.112021
0.107934
0.0203832
0.0188255
0.0188679
0.0188711
0.01889
0.0189074
0.0188828
0.0203308
0.108852
0.105006
0.0191926
0.0176746
0.0177144
0.0177214
0.0177443
0.0177688
0.0177408
0.0192102
0.10598
0.102263
0.0181091
0.0166267
0.0166644
0.0166753
0.016703
0.0167367
0.0167028
0.018227
0.103393
0.0996978
0.0171203
0.0156702
0.0157058
0.0157208
0.0157541
0.0157993
0.0157569
0.0173466
0.101085
0.097317
0.0162159
0.0147951
0.0148286
0.0148477
0.0148872
0.0149466
0.0148927
0.0165412
0.0990472
0.0951148
0.0153869
0.0139932
0.014024
0.0140471
0.0140936
0.0141704
0.0141018
0.015785
0.0972581
0.0930795
0.0146257
0.0132571
0.0132848
0.0133114
0.0133656
0.0134642
0.0133772
0.0150829
0.0956854
0.0911923
0.0139252
0.0125802
0.0126044
0.0126342
0.0126968
0.0128224
0.0127156
0.0144391
0.0942896
0.0894266
0.0132791
0.0119564
0.0119773
0.0120094
0.0120814
0.0122404
0.0121157
0.0138858
0.0930445
0.0877447
0.0126812
0.0113805
0.0113982
0.0114321
0.0115155
0.011715
0.0115858
0.0136192
0.0920385
0.0861067
0.0121259
0.0108477
0.0108624
0.0108984
0.010998
0.0112485
0.0111757
0.0142307
0.0917713
0.0844905
0.0116085
0.0103542
0.0103662
0.0104056
0.0105309
0.0108559
0.0110243
0.0165787
0.0933803
0.0829202
0.0111264
0.00989673
0.00990653
0.00995172
0.0101159
0.0105561
0.0112376
0.0203955
0.0973219
0.081455
0.0106796
0.00947258
0.00948064
0.00953387
0.00974824
0.0103386
0.0116794
0.0241912
0.101824
0.080148
0.0102696
0.00907908
0.00908567
0.00914767
0.00941694
0.0101645
0.0121013
0.0266955
0.104706
0.079011
0.00991255
0.00871371
0.00871878
0.00878835
0.00911068
0.00999795
0.0123637
0.0275563
0.105104
0.0780013
0.00973083
0.00837684
0.00837719
0.00845129
0.00881875
0.0098155
0.0124906
0.0272684
0.103239
0.0771038
0.0102415
0.00809718
0.00805906
0.00813282
0.00853378
0.0096082
0.012508
0.0266508
0.099653
0.0766115
0.0123514
0.00800912
0.00776992
0.0078317
0.00825327
0.00937901
0.012459
0.0262739
0.0948028
0.0771843
0.0162244
0.00836127
0.00754048
0.007548
0.00797788
0.00913556
0.0123878
0.0262019
0.0889881
0.0791712
0.0208301
0.00941228
0.00744941
0.00728563
0.00770703
0.00888143
0.0123144
0.0261274
0.0824361
0.081496
0.0249109
0.0110416
0.00760241
0.00705923
0.00743799
0.00861112
0.0122152
0.0256658
0.0754041
0.0832095
0.0273082
0.0126637
0.00800352
0.0068978
0.00718142
0.00830634
0.0120076
0.0245484
0.0682209
0.0832146
0.0277499
0.0136789
0.0084755
0.00682527
0.00694642
0.00799859
0.0115782
0.022677
0.0612921
0.0811158
0.0264167
0.0138087
0.00877757
0.00682032
0.00674111
0.00769425
0.0109415
0.0201654
0.0550468
0.0775185
0.0237171
0.0131175
0.00877043
0.00681654
0.00656563
0.00740712
0.0102844
0.0173548
0.0498385
0.0735089
0.0202462
0.0118997
0.00846928
0.00675568
0.00640964
0.00714652
0.00970319
0.0147923
0.0458576
0.0699175
0.0166549
0.0105059
0.00798118
0.00662191
0.00626088
0.00691416
0.00920252
0.0127986
0.0431238
0.0670306
0.0134776
0.009202
0.00742064
0.00643052
0.0061122
0.00670679
0.0087753
0.0113167
0.0414538
0.064753
0.0109958
0.00811057
0.00686418
0.00620491
0.00596214
0.00652061
0.00841061
0.010203
0.0404247
0.0628688
0.0092583
0.00724878
0.0063517
0.00596463
0.00581149
0.00635141
0.00809721
0.00930904
0.039453
0.0611997
0.00811292
0.00657927
0.00589694
0.00572243
0.00566228
0.00619763
0.00782965
0.00857777
0.0381746
0.0596213
0.00762222
0.00605635
0.0055058
0.00548983
0.00551633
0.00605636
0.007592
0.00794831
0.0363767
)
;
    }
    inlet
    {
        type            turbulentIntensityKineticEnergyInlet;
        intensity       0.05;
        value           uniform 0.96;
    }
    outlet
    {
        type            inletOutlet;
        inletValue      uniform 0.003;
        value           nonuniform List<scalar> 
20
(
0.0594178
0.00754884
0.00601837
0.0054751
0.00547567
0.00551901
0.00607346
0.00759687
0.0079099
0.0361667
0.0596213
0.00762222
0.00605635
0.0055058
0.00548983
0.00551633
0.00605636
0.007592
0.00794831
0.0363767
)
;
    }
    heatWall
    {
        type            kqRWallFunction;
        value           nonuniform List<scalar> 
240
(
0.803267
0.803275
0.676312
0.676334
0.57891
0.578968
0.502603
0.502667
0.441699
0.441762
0.392313
0.392367
0.351725
0.351751
0.317959
0.317973
0.289562
0.289586
0.265455
0.265488
0.244816
0.244847
0.227012
0.227029
0.211545
0.211544
0.198022
0.198007
0.186137
0.186118
0.17566
0.175644
0.16642
0.166412
0.158283
0.158282
0.151104
0.151108
0.144698
0.144701
0.138882
0.138873
0.133523
0.133502
0.128536
0.128503
0.123889
0.123839
0.119603
0.119524
0.115687
0.115567
0.112144
0.112021
0.108921
0.108852
0.106012
0.10598
0.103408
0.103393
0.101096
0.101085
0.0990585
0.0990472
0.0972714
0.0972581
0.0956999
0.0956854
0.0943039
0.0942896
0.0930609
0.0930445
0.0920832
0.0920385
0.091938
0.0917713
0.0938
0.0933803
0.0979185
0.0973219
0.102327
0.101824
0.104939
0.104706
0.105055
0.105104
0.102968
0.103239
0.099229
0.099653
0.0942769
0.0948028
0.0883957
0.0889881
0.0818062
0.0824361
0.0747659
0.0754041
0.067605
0.0682209
0.0607271
0.0612921
0.0545535
0.0550468
0.0494256
0.0498385
0.0455232
0.0458576
0.0428611
0.0431238
0.0412509
0.0414538
0.0402536
0.0404247
0.0392846
0.039453
0.0379889
0.0381746
0.0361667
0.0363767
0.803297
0.803299
0.676265
0.676329
0.578857
0.578885
0.502546
0.502536
0.441642
0.441592
0.392249
0.392166
0.351632
0.351561
0.317832
0.317807
0.289405
0.289433
0.265282
0.265333
0.244649
0.244683
0.226857
0.226863
0.2114
0.211382
0.197882
0.197848
0.185991
0.185954
0.175484
0.175455
0.16617
0.166154
0.157889
0.157885
0.150475
0.150468
0.143791
0.143777
0.137733
0.137714
0.132225
0.132203
0.127203
0.127181
0.12261
0.122595
0.118408
0.118406
0.114579
0.114579
0.111103
0.111103
0.107922
0.107934
0.104977
0.105006
0.102235
0.102263
0.0996825
0.0996978
0.0973113
0.097317
0.0951124
0.0951148
0.0930771
0.0930795
0.0911876
0.0911923
0.089418
0.0894266
0.0877296
0.0877447
0.0860824
0.0861067
0.0844574
0.0844905
0.082885
0.0829202
0.0814272
0.081455
0.0801349
0.080148
0.079014
0.079011
0.0780154
0.0780013
0.077139
0.0771038
0.0767242
0.0766115
0.0774647
0.0771843
0.0795565
0.0791712
0.081861
0.081496
0.0834002
0.0832095
0.0831128
0.0832146
0.0807383
0.0811158
0.0769936
0.0775185
0.0729798
0.0735089
0.0694669
0.0699175
0.066674
0.0670306
0.0644699
0.064753
0.062632
0.0628688
0.0609851
0.0611997
0.0594178
0.0596213
)
;
    }
}


// ************************************************************************* //
