/*--------------------------------*- C++ -*----------------------------------*\
  =========                 |
  \\      /  F ield         | OpenFOAM: The Open Source CFD Toolbox
   \\    /   O peration     | Website:  https://openfoam.org
    \\  /    A nd           | Version:  8
     \\/     M anipulation  |
\*---------------------------------------------------------------------------*/
FoamFile
{
    version     2.0;
    format      ascii;
    class       volScalarField;
    location    "900";
    object      nut;
}
// * * * * * * * * * * * * * * * * * * * * * * * * * * * * * * * * * * * * * //

dimensions      [0 2 -1 0 0 0 0];

internalField   nonuniform List<scalar> 
1200
(
0.000805087
0.000738691
0.000683423
0.000636784
0.000596951
0.00056258
0.000532658
0.000506411
0.000483234
0.000462655
0.000444298
0.000427838
0.000413005
0.000399581
0.000387389
0.000376287
0.000366164
0.000356924
0.000348443
0.000340617
0.000333365
0.000326632
0.000320369
0.000314535
0.0003091
0.000304062
0.000299414
0.000295096
0.000291043
0.000287216
0.000283608
0.000280214
0.000277031
0.000274052
0.000271259
0.00026862
0.000266082
0.000263585
0.000261095
0.000258648
0.000256341
0.000254269
0.000252459
0.000250846
0.000249387
0.000248528
0.000249358
0.000252578
0.000256302
0.0002591
0.000259244
0.000256048
0.000250335
0.000243753
0.000237684
0.000232691
0.000228683
0.000225321
0.000222309
0.000219425
0.000468116
0.000402
0.000351259
0.000311318
0.0002792
0.000252838
0.000230849
0.000212267
0.000196394
0.00018271
0.000170777
0.000160292
0.000150997
0.000142689
0.000135216
0.000128452
0.000122298
0.000116666
0.000111519
0.00010681
0.000102493
9.85229e-05
9.48619e-05
9.14764e-05
8.83366e-05
8.54186e-05
8.27001e-05
8.01608e-05
7.77837e-05
7.55542e-05
7.34611e-05
7.14933e-05
6.96412e-05
6.78961e-05
6.625e-05
6.46946e-05
6.32214e-05
6.18216e-05
6.04877e-05
5.92177e-05
5.80154e-05
5.68891e-05
5.58823e-05
5.53177e-05
5.66167e-05
6.20664e-05
7.11726e-05
8.0741e-05
8.84691e-05
9.27639e-05
9.36148e-05
9.1418e-05
8.668e-05
8.01236e-05
7.26829e-05
6.53702e-05
5.90141e-05
5.41147e-05
5.06274e-05
4.90657e-05
0.000468012
0.000401337
0.000350141
0.000309787
0.000277287
0.000250625
0.000228395
0.000209607
0.000193547
0.000179679
0.000167597
0.000156984
0.000147591
0.000139223
0.000131723
0.000124964
0.000118844
0.000113284
0.000108212
0.000103568
9.93017e-05
9.53684e-05
9.17319e-05
8.83599e-05
8.52259e-05
8.23072e-05
7.95817e-05
7.70302e-05
7.46371e-05
7.23889e-05
7.02747e-05
6.82844e-05
6.64086e-05
6.46391e-05
6.29678e-05
6.13873e-05
5.98907e-05
5.84719e-05
5.7126e-05
5.58495e-05
5.46393e-05
5.34922e-05
5.24047e-05
5.13796e-05
5.04966e-05
5.01788e-05
5.12028e-05
5.42906e-05
5.88426e-05
6.30968e-05
6.56555e-05
6.6027e-05
6.43923e-05
6.13474e-05
5.76423e-05
5.39358e-05
5.06221e-05
4.7844e-05
4.55707e-05
4.37157e-05
0.000468011
0.000401506
0.000350421
0.000310135
0.000277665
0.000251008
0.000228776
0.000209978
0.000193896
0.000180001
0.000167892
0.000157255
0.000147841
0.000139454
0.000131937
0.000125161
0.000119027
0.000113451
0.000108365
0.000103709
9.9431e-05
9.54883e-05
9.18433e-05
8.84648e-05
8.53251e-05
8.24002e-05
7.9669e-05
7.7113e-05
7.47171e-05
7.24672e-05
7.03508e-05
6.83572e-05
6.64765e-05
6.47015e-05
6.30244e-05
6.1438e-05
5.99352e-05
5.85102e-05
5.71584e-05
5.58762e-05
5.46611e-05
5.351e-05
5.24188e-05
5.13823e-05
5.03971e-05
4.94811e-05
4.87322e-05
4.84105e-05
4.88817e-05
5.01584e-05
5.16442e-05
5.25908e-05
5.25969e-05
5.17026e-05
5.01978e-05
4.84042e-05
4.65523e-05
4.47777e-05
4.31408e-05
4.16809e-05
0.000468011
0.000401506
0.00035039
0.000310076
0.000277583
0.000250912
0.000228674
0.000209874
0.000193797
0.000179912
0.000167812
0.000157182
0.000147773
0.000139391
0.000131878
0.000125106
0.000118976
0.000113405
0.000108323
0.000103672
9.93984e-05
9.546e-05
9.182e-05
8.84465e-05
8.53118e-05
8.2392e-05
7.96661e-05
7.71171e-05
7.47297e-05
7.24893e-05
7.03829e-05
6.83997e-05
6.65295e-05
6.47633e-05
6.30934e-05
6.1513e-05
6.00155e-05
5.85963e-05
5.72534e-05
5.59867e-05
5.47943e-05
5.36691e-05
5.2602e-05
5.15829e-05
5.06048e-05
4.96665e-05
4.87657e-05
4.79129e-05
4.71598e-05
4.66116e-05
4.63623e-05
4.63486e-05
4.63434e-05
4.61441e-05
4.5691e-05
4.50297e-05
4.42352e-05
4.33716e-05
4.24825e-05
4.16095e-05
0.000468011
0.000401507
0.000350388
0.000310072
0.000277576
0.000250903
0.000228664
0.000209864
0.000193789
0.000179905
0.000167807
0.000157177
0.00014777
0.000139387
0.000131874
0.000125104
0.000118976
0.000113406
0.000108327
0.000103677
9.94061e-05
9.54703e-05
9.18329e-05
8.84625e-05
8.53313e-05
8.24156e-05
7.96953e-05
7.71536e-05
7.47753e-05
7.25462e-05
7.04533e-05
6.84856e-05
6.66331e-05
6.48873e-05
6.32407e-05
6.16866e-05
6.02207e-05
5.88442e-05
5.75673e-05
5.6403e-05
5.53502e-05
5.43878e-05
5.34882e-05
5.26228e-05
5.1769e-05
5.09169e-05
5.00653e-05
4.92143e-05
4.8349e-05
4.75265e-05
4.67613e-05
4.60769e-05
4.54793e-05
4.49389e-05
4.44162e-05
4.38868e-05
4.33456e-05
4.27953e-05
4.2243e-05
4.16953e-05
0.000468011
0.000401514
0.000350425
0.000310137
0.000277665
0.000251007
0.00022878
0.000209986
0.000193907
0.000180015
0.000167905
0.000157266
0.00014785
0.00013946
0.00013194
0.000125161
0.000119024
0.000113446
0.000108358
0.000103702
9.94253e-05
9.54853e-05
9.18452e-05
8.84737e-05
8.53435e-05
8.24311e-05
7.97171e-05
7.71855e-05
7.48216e-05
7.26117e-05
7.05436e-05
6.86072e-05
6.67941e-05
6.50985e-05
6.35156e-05
6.20421e-05
6.06769e-05
5.94285e-05
5.83364e-05
5.74679e-05
5.6829e-05
5.63291e-05
5.58659e-05
5.5367e-05
5.47976e-05
5.41568e-05
5.34617e-05
5.27227e-05
5.19262e-05
5.10018e-05
5.00578e-05
4.91321e-05
4.82442e-05
4.74143e-05
4.66528e-05
4.5956e-05
4.53175e-05
4.47271e-05
4.41826e-05
4.36754e-05
0.000468011
0.000401347
0.000350147
0.000309786
0.000277277
0.000250607
0.000228381
0.000209602
0.000193548
0.000179687
0.000167609
0.000156998
0.000147607
0.000139238
0.000131738
0.000124981
0.000118866
0.000113309
0.00010824
0.000103598
9.93354e-05
9.54075e-05
9.1778e-05
8.84153e-05
8.52918e-05
8.23837e-05
7.96711e-05
7.71368e-05
7.47653e-05
7.25421e-05
7.04546e-05
6.84918e-05
6.66453e-05
6.49065e-05
6.32731e-05
6.17485e-05
6.03548e-05
5.91999e-05
5.86406e-05
5.90711e-05
6.02189e-05
6.13967e-05
6.21973e-05
6.26309e-05
6.27533e-05
6.2668e-05
6.25002e-05
6.23157e-05
6.20638e-05
6.15386e-05
6.04351e-05
5.8751e-05
5.6953e-05
5.53153e-05
5.38652e-05
5.25963e-05
5.14885e-05
5.05166e-05
4.96721e-05
4.89089e-05
0.000468116
0.000401964
0.000351169
0.000311176
0.000279
0.000252627
0.000230651
0.000212062
0.00019615
0.000182403
0.000170433
0.000159928
0.000150631
0.000142336
0.000134884
0.000128155
0.000122051
0.000116492
0.00011139
0.000106685
0.000102358
9.83806e-05
9.47148e-05
9.13266e-05
8.81899e-05
8.53011e-05
8.26179e-05
8.01332e-05
7.78981e-05
7.58816e-05
7.40319e-05
7.2305e-05
7.06225e-05
6.90087e-05
6.74578e-05
6.60543e-05
6.52876e-05
6.66105e-05
7.19263e-05
7.99631e-05
8.72482e-05
9.17473e-05
9.32607e-05
9.27753e-05
9.16958e-05
9.10204e-05
9.08862e-05
9.07649e-05
8.9979e-05
8.80248e-05
8.46319e-05
7.98342e-05
7.40712e-05
6.8372e-05
6.35774e-05
5.97743e-05
5.67528e-05
5.42073e-05
5.20342e-05
5.00805e-05
0.000805072
0.000738718
0.000683456
0.000636821
0.00059699
0.000562627
0.000532728
0.000506511
0.000483363
0.000462805
0.000444449
0.000427983
0.000413145
0.000399721
0.000387541
0.000376475
0.00036644
0.000357368
0.000349169
0.000341688
0.000334755
0.000328237
0.000322055
0.000316183
0.000310666
0.000305534
0.000300816
0.00029646
0.000292469
0.000288851
0.000285598
0.000282699
0.000280132
0.000277857
0.000275823
0.000273994
0.000272488
0.000272016
0.000274279
0.000279996
0.000286497
0.000290639
0.000291281
0.000288749
0.000283736
0.000276781
0.00026819
0.000258155
0.000246919
0.000234875
0.000222628
0.000210971
0.000200724
0.000192518
0.000186664
0.000182989
0.000180693
0.000178513
0.000175613
0.000171448
0.000805088
0.000738727
0.000683441
0.000636778
0.000596918
0.000562521
0.000532604
0.000506391
0.000483256
0.0004627
0.00044433
0.000427844
0.000412986
0.000399547
0.00038735
0.000376256
0.000366147
0.00035692
0.000348436
0.000340601
0.000333343
0.000326605
0.000320342
0.000314515
0.000309096
0.000304061
0.000299414
0.000295111
0.00029108
0.000287254
0.000283629
0.000280222
0.000277034
0.000274055
0.000271266
0.000268632
0.000266104
0.000263621
0.000261146
0.000258705
0.000256389
0.000254295
0.000252458
0.000250827
0.000249342
0.00024838
0.00024896
0.000251948
0.000255705
0.000258739
0.00025932
0.00025658
0.000251157
0.00024464
0.000238476
0.000233336
0.000229202
0.000225757
0.000222704
0.000219801
0.000468116
0.000401998
0.000351223
0.000311252
0.000279118
0.000252782
0.000230827
0.000212256
0.000196372
0.00018265
0.000170685
0.000160182
0.000150895
0.00014261
0.000135156
0.000128401
0.000122247
0.000116614
0.00011148
0.000106787
0.00010248
9.85168e-05
9.48594e-05
9.14752e-05
8.83351e-05
8.54144e-05
8.26932e-05
8.01531e-05
7.77769e-05
7.55493e-05
7.3457e-05
7.149e-05
6.96382e-05
6.78933e-05
6.62472e-05
6.46919e-05
6.32189e-05
6.18195e-05
6.04862e-05
5.92161e-05
5.80121e-05
5.68823e-05
5.58621e-05
5.5218e-05
5.62037e-05
6.11174e-05
6.98996e-05
7.94887e-05
8.75348e-05
9.23054e-05
9.36171e-05
9.1813e-05
8.73749e-05
8.1005e-05
7.36264e-05
6.62571e-05
5.97546e-05
5.46666e-05
5.10082e-05
4.93198e-05
0.000468012
0.000401359
0.000350161
0.000309797
0.000277282
0.0002506
0.000228362
0.000209584
0.00019354
0.000179685
0.000167603
0.000156985
0.000147585
0.000139212
0.00013171
0.000124953
0.000118838
0.000113281
0.000108212
0.00010357
9.93039e-05
9.5371e-05
9.17349e-05
8.83637e-05
8.52294e-05
8.23079e-05
7.95791e-05
7.70266e-05
7.46349e-05
7.23886e-05
7.02747e-05
6.82842e-05
6.64077e-05
6.46369e-05
6.29645e-05
6.13832e-05
5.98861e-05
5.8467e-05
5.71209e-05
5.58441e-05
5.46335e-05
5.34859e-05
5.2398e-05
5.13708e-05
5.04658e-05
5.00514e-05
5.08661e-05
5.36892e-05
5.81389e-05
6.25331e-05
6.53687e-05
6.6034e-05
6.46343e-05
6.17295e-05
5.80675e-05
5.4332e-05
5.09523e-05
4.81011e-05
4.57624e-05
4.38603e-05
0.000468011
0.000401522
0.000350433
0.000310141
0.000277661
0.000250994
0.000228757
0.000209966
0.000193899
0.000180015
0.000167906
0.000157263
0.000147842
0.000139449
0.000131928
0.000125153
0.000119021
0.000113449
0.000108365
0.00010371
9.94328e-05
9.54903e-05
9.18459e-05
8.84677e-05
8.53276e-05
8.24014e-05
7.96691e-05
7.71134e-05
7.47187e-05
7.24699e-05
7.03544e-05
6.83613e-05
6.64809e-05
6.47041e-05
6.30248e-05
6.14366e-05
5.99325e-05
5.85065e-05
5.71539e-05
5.58712e-05
5.46561e-05
5.35046e-05
5.24126e-05
5.13756e-05
5.03899e-05
4.94684e-05
4.86948e-05
4.8305e-05
4.86701e-05
4.98789e-05
5.13966e-05
5.24537e-05
5.25887e-05
5.17956e-05
5.03493e-05
4.85779e-05
4.67252e-05
4.49379e-05
4.32824e-05
4.18011e-05
0.000468012
0.000401519
0.000350405
0.000310088
0.000277589
0.000250909
0.000228661
0.000209865
0.000193799
0.000179922
0.000167822
0.000157187
0.000147773
0.000139386
0.00013187
0.000125099
0.000118972
0.000113403
0.000108323
0.000103673
9.94e-05
9.54618e-05
9.1822e-05
8.84487e-05
8.5314e-05
8.23937e-05
7.96679e-05
7.71194e-05
7.47326e-05
7.24927e-05
7.03867e-05
6.84036e-05
6.65333e-05
6.47673e-05
6.30977e-05
6.15173e-05
6.002e-05
5.86013e-05
5.72594e-05
5.59945e-05
5.48041e-05
5.36807e-05
5.2615e-05
5.15961e-05
5.06159e-05
4.96717e-05
4.87654e-05
4.79054e-05
4.71379e-05
4.65626e-05
4.62848e-05
4.62634e-05
4.62789e-05
4.61146e-05
4.56947e-05
4.50574e-05
4.42777e-05
4.34223e-05
4.25367e-05
4.16633e-05
0.000468012
0.000401517
0.000350402
0.000310084
0.000277584
0.000250904
0.000228655
0.000209858
0.000193792
0.000179915
0.000167817
0.000157183
0.00014777
0.000139383
0.000131868
0.000125098
0.000118972
0.000113405
0.000108327
0.000103678
9.94076e-05
9.5472e-05
9.18348e-05
8.84646e-05
8.53335e-05
8.24178e-05
7.96978e-05
7.71567e-05
7.47792e-05
7.25509e-05
7.04588e-05
6.84916e-05
6.66397e-05
6.48947e-05
6.32489e-05
6.16956e-05
6.02309e-05
5.88572e-05
5.75857e-05
5.64289e-05
5.53835e-05
5.44266e-05
5.35299e-05
5.26644e-05
5.18084e-05
5.09532e-05
5.01001e-05
4.92497e-05
4.83897e-05
4.75465e-05
4.67577e-05
4.60556e-05
4.54489e-05
4.49074e-05
4.43883e-05
4.38639e-05
4.33272e-05
4.27805e-05
4.22312e-05
4.16849e-05
0.000468012
0.000401523
0.000350443
0.000310157
0.000277683
0.000251021
0.000228782
0.000209985
0.000193913
0.000180027
0.000167918
0.000157275
0.000147852
0.000139456
0.000131932
0.000125154
0.000119019
0.000113444
0.000108358
0.000103703
9.94267e-05
9.54869e-05
9.18471e-05
8.84758e-05
8.53459e-05
8.2434e-05
7.97207e-05
7.71902e-05
7.48278e-05
7.26196e-05
7.05534e-05
6.86193e-05
6.68091e-05
6.51171e-05
6.35387e-05
6.20708e-05
6.07126e-05
5.94746e-05
5.83999e-05
5.75546e-05
5.6934e-05
5.64421e-05
5.59779e-05
5.54716e-05
5.48924e-05
5.42429e-05
5.35417e-05
5.27987e-05
5.19998e-05
5.10758e-05
5.01254e-05
4.91676e-05
4.82442e-05
4.7388e-05
4.66101e-05
4.59045e-05
4.52615e-05
4.4669e-05
4.4123e-05
4.36147e-05
0.000468011
0.000401347
0.000350152
0.000309792
0.000277285
0.000250615
0.00022838
0.000209599
0.000193552
0.000179696
0.000167618
0.000157004
0.000147607
0.000139236
0.000131735
0.000124978
0.000118864
0.000113308
0.00010824
0.000103599
9.93368e-05
9.5409e-05
9.17798e-05
8.84174e-05
8.52942e-05
8.23865e-05
7.96744e-05
7.71409e-05
7.47704e-05
7.25483e-05
7.04619e-05
6.84998e-05
6.66531e-05
6.49143e-05
6.32827e-05
6.17632e-05
6.03791e-05
5.92463e-05
5.8726e-05
5.91811e-05
6.0317e-05
6.14558e-05
6.21962e-05
6.25906e-05
6.26972e-05
6.26179e-05
6.24637e-05
6.22932e-05
6.20579e-05
6.15678e-05
6.05081e-05
5.88579e-05
5.70478e-05
5.53924e-05
5.39241e-05
5.26386e-05
5.15157e-05
5.05298e-05
4.96717e-05
4.88971e-05
0.000468116
0.000401975
0.000351208
0.00031124
0.000279078
0.000252689
0.000230671
0.000212061
0.000196164
0.000182444
0.000170481
0.000159957
0.000150635
0.000142324
0.000134867
0.000128141
0.000122042
0.000116483
0.000111377
0.000106668
0.000102348
9.83739e-05
9.47092e-05
9.13216e-05
8.81827e-05
8.52674e-05
8.25542e-05
8.00512e-05
7.78114e-05
7.57929e-05
7.39393e-05
7.2203e-05
7.05332e-05
6.89456e-05
6.74528e-05
6.61112e-05
6.53261e-05
6.63648e-05
7.11731e-05
7.89754e-05
8.64345e-05
9.12955e-05
9.31462e-05
9.28653e-05
9.18336e-05
9.11153e-05
9.09376e-05
9.0821e-05
9.00906e-05
8.8227e-05
8.49401e-05
8.0241e-05
7.45317e-05
6.87974e-05
6.39119e-05
6.00273e-05
5.69531e-05
5.43762e-05
5.21811e-05
5.02073e-05
0.000805076
0.000738728
0.000683489
0.00063686
0.000597033
0.000562666
0.000532748
0.000506522
0.000483384
0.000462834
0.000444478
0.000428
0.000413145
0.000399708
0.000387521
0.000376458
0.000366431
0.000357367
0.000349173
0.000341693
0.000334745
0.000328213
0.000322015
0.000316121
0.000310565
0.000305379
0.000300653
0.000296366
0.000292425
0.000288829
0.000285582
0.000282683
0.000280113
0.000277835
0.000275801
0.00027397
0.000272432
0.000271807
0.000273712
0.00027914
0.000285745
0.000290256
0.0002913
0.000289092
0.000284315
0.000277533
0.000269072
0.000259135
0.000247963
0.000235939
0.000223663
0.000211928
0.000201568
0.000193231
0.000187243
0.000183447
0.00018108
0.000178894
0.000176037
0.000171938
)
;

boundaryField
{
    wall
    {
        type            nutkWallFunction;
        Cmu             0.09;
        kappa           0.41;
        E               9.8;
        value           nonuniform List<scalar> 
1200
(
5.15288e-05
4.82506e-05
4.82408e-05
4.82408e-05
4.82408e-05
4.82408e-05
4.82408e-05
4.82408e-05
4.82506e-05
5.15279e-05
4.76467e-05
4.20055e-05
4.19424e-05
4.19585e-05
4.19585e-05
4.19586e-05
4.19592e-05
4.19434e-05
4.20021e-05
4.76482e-05
4.43907e-05
3.71475e-05
3.70398e-05
3.70668e-05
3.70638e-05
3.70636e-05
3.70672e-05
3.70404e-05
3.71388e-05
4.43925e-05
4.16238e-05
3.32768e-05
3.31275e-05
3.31615e-05
3.31557e-05
3.31553e-05
3.31618e-05
3.31274e-05
3.32629e-05
4.1626e-05
3.92458e-05
3.01296e-05
2.99411e-05
2.99783e-05
2.99703e-05
2.99696e-05
2.99784e-05
2.99401e-05
3.01099e-05
3.92481e-05
3.71817e-05
2.75202e-05
2.73e-05
2.73381e-05
2.73286e-05
2.73277e-05
2.73381e-05
2.72982e-05
2.74991e-05
3.71844e-05
3.5375e-05
2.53232e-05
2.50769e-05
2.51153e-05
2.5105e-05
2.51039e-05
2.51156e-05
2.50755e-05
2.53033e-05
3.53792e-05
3.37822e-05
2.34506e-05
2.31814e-05
2.32189e-05
2.32085e-05
2.32075e-05
2.32198e-05
2.31808e-05
2.34298e-05
3.37883e-05
3.23692e-05
2.18381e-05
2.15476e-05
2.15833e-05
2.15732e-05
2.15724e-05
2.15845e-05
2.15478e-05
2.18132e-05
3.23772e-05
3.11091e-05
2.04374e-05
2.01259e-05
2.01591e-05
2.01498e-05
2.01492e-05
2.01605e-05
2.01268e-05
2.04059e-05
3.11184e-05
2.99806e-05
1.92074e-05
1.88782e-05
1.89088e-05
1.89004e-05
1.88999e-05
1.89102e-05
1.88795e-05
1.91717e-05
2.99899e-05
2.89647e-05
1.81193e-05
1.77747e-05
1.7803e-05
1.77953e-05
1.77948e-05
1.78041e-05
1.77762e-05
1.80813e-05
2.89737e-05
2.8046e-05
1.71486e-05
1.67917e-05
1.68179e-05
1.68108e-05
1.68104e-05
1.68188e-05
1.67933e-05
1.71102e-05
2.80548e-05
2.72119e-05
1.6276e-05
1.59105e-05
1.59348e-05
1.59282e-05
1.59278e-05
1.59355e-05
1.59121e-05
1.62385e-05
2.72206e-05
2.64518e-05
1.54863e-05
1.51159e-05
1.51386e-05
1.51324e-05
1.5132e-05
1.51389e-05
1.51176e-05
1.5451e-05
2.64614e-05
2.57577e-05
1.47677e-05
1.43959e-05
1.4417e-05
1.44111e-05
1.44108e-05
1.4417e-05
1.43977e-05
1.47358e-05
2.57696e-05
2.51231e-05
1.41104e-05
1.37405e-05
1.37601e-05
1.37546e-05
1.37545e-05
1.37597e-05
1.37428e-05
1.40837e-05
2.51405e-05
2.45423e-05
1.35059e-05
1.31418e-05
1.31598e-05
1.31549e-05
1.3155e-05
1.31593e-05
1.31445e-05
1.34866e-05
2.45703e-05
2.40078e-05
1.29507e-05
1.2593e-05
1.26096e-05
1.26051e-05
1.26055e-05
1.26089e-05
1.2596e-05
1.2936e-05
2.40537e-05
2.35135e-05
1.24405e-05
1.20882e-05
1.21035e-05
1.20995e-05
1.21001e-05
1.21027e-05
1.20915e-05
1.2426e-05
2.35813e-05
2.30544e-05
1.19705e-05
1.16222e-05
1.16364e-05
1.16328e-05
1.16337e-05
1.16358e-05
1.16259e-05
1.1955e-05
2.31424e-05
2.26273e-05
1.15366e-05
1.11908e-05
1.1204e-05
1.12009e-05
1.1202e-05
1.12037e-05
1.11951e-05
1.15203e-05
2.27288e-05
2.22292e-05
1.11348e-05
1.07902e-05
1.08025e-05
1.07999e-05
1.08014e-05
1.08027e-05
1.07953e-05
1.1118e-05
2.23357e-05
2.18575e-05
1.07617e-05
1.04172e-05
1.04288e-05
1.04268e-05
1.04286e-05
1.04299e-05
1.04234e-05
1.07446e-05
2.19618e-05
2.15107e-05
1.04143e-05
1.00692e-05
1.00802e-05
1.00787e-05
1.00809e-05
1.00823e-05
1.00765e-05
1.03976e-05
2.161e-05
2.11887e-05
1.00903e-05
9.74374e-06
9.75413e-06
9.75324e-06
9.75593e-06
9.75774e-06
9.75242e-06
1.00768e-05
2.12825e-05
2.08912e-05
9.7873e-06
9.43873e-06
9.44852e-06
9.44827e-06
9.4516e-06
9.45419e-06
9.44897e-06
9.77776e-06
2.09808e-05
2.06144e-05
9.50332e-06
9.15216e-06
9.1615e-06
9.16204e-06
9.16625e-06
9.17006e-06
9.16448e-06
9.50006e-06
2.07019e-05
2.03542e-05
9.2366e-06
8.88245e-06
8.89149e-06
8.89301e-06
8.89832e-06
8.90388e-06
8.89735e-06
9.24957e-06
2.04461e-05
2.01083e-05
8.98567e-06
8.6282e-06
8.63709e-06
8.6397e-06
8.64636e-06
8.65426e-06
8.64613e-06
9.02276e-06
2.02139e-05
1.9876e-05
8.74933e-06
8.38829e-06
8.39699e-06
8.40076e-06
8.40903e-06
8.41996e-06
8.40948e-06
8.81408e-06
2.00051e-05
1.96573e-05
8.52647e-06
8.16171e-06
8.17006e-06
8.17504e-06
8.18517e-06
8.19997e-06
8.18634e-06
8.61855e-06
1.98188e-05
1.94519e-05
8.31607e-06
7.94752e-06
7.95531e-06
7.96151e-06
7.97377e-06
7.99349e-06
7.97581e-06
8.42699e-06
1.96536e-05
1.92594e-05
8.11727e-06
7.74484e-06
7.75202e-06
7.75926e-06
7.77398e-06
7.79995e-06
7.77704e-06
8.24343e-06
1.9507e-05
1.90786e-05
7.92921e-06
7.55284e-06
7.55938e-06
7.56748e-06
7.58498e-06
7.61897e-06
7.58998e-06
8.06716e-06
1.93757e-05
1.89074e-05
7.75101e-06
7.37074e-06
7.37662e-06
7.38543e-06
7.40612e-06
7.45026e-06
7.41528e-06
7.91145e-06
1.92578e-05
1.87423e-05
7.58176e-06
7.19782e-06
7.20302e-06
7.21246e-06
7.23704e-06
7.29386e-06
7.25625e-06
7.84325e-06
1.91643e-05
1.85795e-05
7.42051e-06
7.03345e-06
7.03796e-06
7.04813e-06
7.07809e-06
7.15115e-06
7.12844e-06
8.04709e-06
1.91501e-05
1.84173e-05
7.26651e-06
6.87713e-06
6.88095e-06
6.89229e-06
6.9307e-06
7.02744e-06
7.07711e-06
8.70707e-06
1.93268e-05
1.82586e-05
7.11966e-06
6.72849e-06
6.73167e-06
6.745e-06
6.79637e-06
6.93029e-06
7.1405e-06
9.61438e-06
1.97117e-05
1.811e-05
6.98049e-06
6.58723e-06
6.58986e-06
6.60602e-06
6.6747e-06
6.85883e-06
7.27621e-06
1.03862e-05
2.01141e-05
1.79771e-05
6.85024e-06
6.45298e-06
6.45517e-06
6.47454e-06
6.56305e-06
6.80183e-06
7.40602e-06
1.08332e-05
2.0348e-05
1.78608e-05
6.7361e-06
6.32543e-06
6.32713e-06
6.34945e-06
6.45815e-06
6.74773e-06
7.48921e-06
1.09594e-05
2.0358e-05
1.77565e-05
6.68818e-06
6.2055e-06
6.20519e-06
6.22958e-06
6.35666e-06
6.68858e-06
7.53018e-06
1.08854e-05
2.01711e-05
1.76642e-05
6.89736e-06
6.10738e-06
6.08916e-06
6.11415e-06
6.25602e-06
6.62074e-06
7.53712e-06
1.07654e-05
1.9831e-05
1.76203e-05
7.60452e-06
6.08812e-06
5.98228e-06
6.0031e-06
6.15517e-06
6.54451e-06
7.52257e-06
1.06988e-05
1.93697e-05
1.76983e-05
8.67566e-06
6.24373e-06
5.89878e-06
5.89629e-06
6.05417e-06
6.46202e-06
7.50059e-06
1.06894e-05
1.88042e-05
1.79166e-05
9.7392e-06
6.64036e-06
5.87283e-06
5.79586e-06
5.95259e-06
6.37435e-06
7.47775e-06
1.06739e-05
1.81455e-05
1.81533e-05
1.05399e-05
7.1738e-06
5.94386e-06
5.70867e-06
5.84983e-06
6.27911e-06
7.44683e-06
1.05781e-05
1.74085e-05
1.83093e-05
1.09464e-05
7.63673e-06
6.10076e-06
5.64746e-06
5.75207e-06
6.16976e-06
7.38158e-06
1.03484e-05
1.66185e-05
1.828e-05
1.09788e-05
7.88871e-06
6.26718e-06
5.6213e-06
5.66129e-06
6.05742e-06
7.24826e-06
9.95643e-06
1.58151e-05
1.80375e-05
1.06862e-05
7.89133e-06
6.3608e-06
5.61968e-06
5.58023e-06
5.94725e-06
7.04963e-06
9.40697e-06
1.50499e-05
1.7647e-05
1.01243e-05
7.67429e-06
6.34348e-06
5.61534e-06
5.50914e-06
5.84178e-06
6.84316e-06
8.75278e-06
1.43772e-05
1.72167e-05
9.37117e-06
7.3079e-06
6.22527e-06
5.5864e-06
5.44425e-06
5.74329e-06
6.65497e-06
8.11288e-06
1.38389e-05
1.68293e-05
8.52825e-06
6.87579e-06
6.04095e-06
5.52781e-06
5.38103e-06
5.65279e-06
6.48803e-06
7.57771e-06
1.34569e-05
1.65135e-05
7.70644e-06
6.44933e-06
5.82655e-06
5.44566e-06
5.31687e-06
5.56982e-06
6.34162e-06
7.14906e-06
1.32195e-05
1.62592e-05
6.99668e-06
6.06982e-06
5.60712e-06
5.34862e-06
5.25128e-06
5.49364e-06
6.21359e-06
6.80478e-06
1.30698e-05
1.60433e-05
6.45302e-06
5.75133e-06
5.39737e-06
5.24398e-06
5.1846e-06
5.42311e-06
6.10115e-06
6.51154e-06
1.29225e-05
1.5847e-05
6.06644e-06
5.48951e-06
5.20395e-06
5.13666e-06
5.11769e-06
5.35805e-06
6.0034e-06
6.25935e-06
1.27222e-05
1.56574e-05
5.89649e-06
5.27359e-06
5.03138e-06
5.03165e-06
5.05145e-06
5.29746e-06
5.9148e-06
6.03274e-06
1.24342e-05
5.15288e-05
4.82506e-05
4.82408e-05
4.82408e-05
4.82408e-05
4.82408e-05
4.82408e-05
4.82408e-05
4.82506e-05
5.15281e-05
4.76488e-05
4.20053e-05
4.19445e-05
4.196e-05
4.19597e-05
4.19595e-05
4.19601e-05
4.19434e-05
4.20031e-05
4.76489e-05
4.43917e-05
3.71441e-05
3.70417e-05
3.7068e-05
3.70653e-05
3.7065e-05
3.70689e-05
3.70409e-05
3.71426e-05
4.43945e-05
4.16234e-05
3.32703e-05
3.31285e-05
3.31621e-05
3.3157e-05
3.31565e-05
3.31636e-05
3.3128e-05
3.32692e-05
4.16284e-05
3.92437e-05
3.01215e-05
2.99407e-05
2.99781e-05
2.9971e-05
2.99705e-05
2.99802e-05
2.99409e-05
3.01176e-05
3.92506e-05
3.71781e-05
2.75145e-05
2.72976e-05
2.73369e-05
2.73283e-05
2.73278e-05
2.73395e-05
2.7299e-05
2.75054e-05
3.71868e-05
3.53717e-05
2.5321e-05
2.50736e-05
2.51133e-05
2.51037e-05
2.51031e-05
2.51158e-05
2.50755e-05
2.53054e-05
3.53804e-05
3.3781e-05
2.34495e-05
2.3179e-05
2.32177e-05
2.32075e-05
2.32068e-05
2.32197e-05
2.31806e-05
2.34298e-05
3.3789e-05
3.23706e-05
2.18358e-05
2.1547e-05
2.15835e-05
2.15734e-05
2.15726e-05
2.1585e-05
2.15481e-05
2.18146e-05
3.23784e-05
3.11119e-05
2.04312e-05
2.01265e-05
2.01605e-05
2.01509e-05
2.01502e-05
2.01617e-05
2.01276e-05
2.041e-05
3.11201e-05
2.99824e-05
1.91977e-05
1.88789e-05
1.89103e-05
1.89016e-05
1.8901e-05
1.89115e-05
1.88804e-05
1.91767e-05
2.99916e-05
2.8965e-05
1.81078e-05
1.77747e-05
1.78038e-05
1.77959e-05
1.77954e-05
1.7805e-05
1.77767e-05
1.80843e-05
2.89747e-05
2.80449e-05
1.71379e-05
1.67911e-05
1.6818e-05
1.68108e-05
1.68104e-05
1.6819e-05
1.67933e-05
1.71106e-05
2.80547e-05
2.72097e-05
1.62675e-05
1.59093e-05
1.59343e-05
1.59276e-05
1.59273e-05
1.5935e-05
1.59118e-05
1.62372e-05
2.72197e-05
2.64494e-05
1.54798e-05
1.51145e-05
1.51377e-05
1.51315e-05
1.51313e-05
1.51381e-05
1.51171e-05
1.54491e-05
2.64601e-05
2.57558e-05
1.47622e-05
1.43947e-05
1.4416e-05
1.44103e-05
1.44102e-05
1.44162e-05
1.43974e-05
1.47342e-05
2.57685e-05
2.5122e-05
1.41049e-05
1.37397e-05
1.37594e-05
1.37541e-05
1.37541e-05
1.37592e-05
1.37426e-05
1.40826e-05
2.51399e-05
2.4542e-05
1.35003e-05
1.31415e-05
1.31596e-05
1.31547e-05
1.31549e-05
1.31591e-05
1.31444e-05
1.34856e-05
2.45702e-05
2.40073e-05
1.29466e-05
1.2593e-05
1.26096e-05
1.26051e-05
1.26055e-05
1.26089e-05
1.25961e-05
1.29345e-05
2.4054e-05
2.35124e-05
1.2438e-05
1.20884e-05
1.21037e-05
1.20996e-05
1.21002e-05
1.21029e-05
1.20916e-05
1.24242e-05
2.35815e-05
2.30529e-05
1.19693e-05
1.16225e-05
1.16366e-05
1.1633e-05
1.16339e-05
1.1636e-05
1.16261e-05
1.1954e-05
2.31416e-05
2.26255e-05
1.1536e-05
1.11911e-05
1.12042e-05
1.12011e-05
1.12022e-05
1.12038e-05
1.11953e-05
1.15196e-05
2.27271e-05
2.22275e-05
1.11345e-05
1.07905e-05
1.08028e-05
1.08001e-05
1.08016e-05
1.08029e-05
1.07955e-05
1.11174e-05
2.23331e-05
2.18563e-05
1.07616e-05
1.04176e-05
1.04291e-05
1.0427e-05
1.04288e-05
1.04301e-05
1.04236e-05
1.0744e-05
2.19577e-05
2.15105e-05
1.04142e-05
1.00695e-05
1.00804e-05
1.0079e-05
1.00812e-05
1.00826e-05
1.00768e-05
1.03968e-05
2.16034e-05
2.11887e-05
1.00898e-05
9.74379e-06
9.75425e-06
9.75344e-06
9.75619e-06
9.75808e-06
9.75274e-06
1.00731e-05
2.12723e-05
2.08912e-05
9.78654e-06
9.43845e-06
9.44853e-06
9.44846e-06
9.4519e-06
9.45461e-06
9.44935e-06
9.7707e-06
2.09703e-05
2.06155e-05
9.50248e-06
9.15178e-06
9.16154e-06
9.16229e-06
9.16662e-06
9.17061e-06
9.16495e-06
9.49094e-06
2.06959e-05
2.03568e-05
9.23585e-06
8.8822e-06
8.89167e-06
8.89335e-06
8.89879e-06
8.90461e-06
8.89795e-06
9.23985e-06
2.04433e-05
2.01108e-05
8.9851e-06
8.62813e-06
8.6374e-06
8.6401e-06
8.64691e-06
8.65519e-06
8.64685e-06
9.01277e-06
2.02126e-05
1.98774e-05
8.74888e-06
8.38831e-06
8.39739e-06
8.4012e-06
8.40966e-06
8.42112e-06
8.41035e-06
8.80358e-06
2.00041e-05
1.96579e-05
8.52609e-06
8.16169e-06
8.1705e-06
8.1755e-06
8.18587e-06
8.20142e-06
8.1873e-06
8.60699e-06
1.98177e-05
1.94521e-05
8.31574e-06
7.94738e-06
7.95575e-06
7.96198e-06
7.97456e-06
7.99529e-06
7.97676e-06
8.41751e-06
1.96524e-05
1.92596e-05
8.11695e-06
7.74456e-06
7.75229e-06
7.75974e-06
7.77484e-06
7.80221e-06
7.77803e-06
8.23702e-06
1.95057e-05
1.90791e-05
7.92889e-06
7.55245e-06
7.55942e-06
7.56798e-06
7.58594e-06
7.6218e-06
7.59127e-06
8.06737e-06
1.93743e-05
1.89082e-05
7.75071e-06
7.37027e-06
7.37645e-06
7.38594e-06
7.40718e-06
7.45379e-06
7.41722e-06
7.91815e-06
1.92562e-05
1.87438e-05
7.58149e-06
7.19729e-06
7.20268e-06
7.21298e-06
7.23827e-06
7.29828e-06
7.25945e-06
7.84508e-06
1.91601e-05
1.8582e-05
7.42029e-06
7.03288e-06
7.03749e-06
7.04871e-06
7.07969e-06
7.15689e-06
7.13454e-06
8.01154e-06
1.91342e-05
1.84206e-05
7.26634e-06
6.87653e-06
6.88039e-06
6.893e-06
6.93298e-06
7.03536e-06
7.08778e-06
8.61622e-06
1.92871e-05
1.82622e-05
7.11944e-06
6.72786e-06
6.73108e-06
6.74593e-06
6.79955e-06
6.94091e-06
7.15356e-06
9.50511e-06
1.96565e-05
1.81129e-05
6.98007e-06
6.58655e-06
6.58927e-06
6.60718e-06
6.67875e-06
6.87146e-06
7.28758e-06
1.03014e-05
2.00687e-05
1.79785e-05
6.84932e-06
6.45227e-06
6.45454e-06
6.4759e-06
6.56772e-06
6.81526e-06
7.41294e-06
1.07893e-05
2.03272e-05
1.78605e-05
6.73306e-06
6.32465e-06
6.32643e-06
6.35095e-06
6.46313e-06
6.76099e-06
7.4897e-06
1.0951e-05
2.03624e-05
1.7755e-05
6.67298e-06
6.20431e-06
6.20444e-06
6.23113e-06
6.3616e-06
6.70097e-06
7.52647e-06
1.0897e-05
2.01954e-05
1.76605e-05
6.84023e-06
6.10234e-06
6.0883e-06
6.11544e-06
6.26067e-06
6.63202e-06
7.53149e-06
1.07804e-05
1.98699e-05
1.76084e-05
7.48613e-06
6.06982e-06
5.9805e-06
6.00371e-06
6.15946e-06
6.55482e-06
7.51731e-06
1.07085e-05
1.94193e-05
1.76688e-05
8.52802e-06
6.19867e-06
5.89336e-06
5.89623e-06
6.05822e-06
6.47165e-06
7.49663e-06
1.06946e-05
1.88621e-05
1.78766e-05
9.60005e-06
6.56614e-06
5.85835e-06
5.79481e-06
5.95673e-06
6.38351e-06
7.47526e-06
1.06803e-05
1.82097e-05
1.81161e-05
1.04442e-05
7.09314e-06
5.91701e-06
5.70564e-06
5.85393e-06
6.2882e-06
7.44627e-06
1.05912e-05
1.74768e-05
1.82901e-05
1.09047e-05
7.57636e-06
6.06774e-06
5.64108e-06
5.75395e-06
6.17872e-06
7.38521e-06
1.0372e-05
1.66883e-05
1.82903e-05
1.0987e-05
7.86141e-06
6.2398e-06
5.6118e-06
5.6606e-06
6.06587e-06
7.257e-06
9.99201e-06
1.58829e-05
1.80763e-05
1.07362e-05
7.89698e-06
6.34713e-06
5.6098e-06
5.5776e-06
5.95186e-06
7.06196e-06
9.45365e-06
1.51128e-05
1.77024e-05
1.02057e-05
7.70529e-06
6.34462e-06
5.60826e-06
5.50553e-06
5.84198e-06
6.85391e-06
8.80497e-06
1.44327e-05
1.72742e-05
9.47195e-06
7.35333e-06
6.23757e-06
5.58354e-06
5.44056e-06
5.74017e-06
6.66365e-06
8.16045e-06
1.3886e-05
1.68796e-05
8.63482e-06
6.92496e-06
6.05946e-06
5.52876e-06
5.37777e-06
5.64763e-06
6.49459e-06
7.61466e-06
1.34952e-05
1.65543e-05
7.80575e-06
6.4945e-06
5.84724e-06
5.44931e-06
5.31417e-06
5.56357e-06
6.34623e-06
7.17751e-06
1.32497e-05
1.62921e-05
7.07888e-06
6.10723e-06
5.62753e-06
5.35393e-06
5.24911e-06
5.48685e-06
6.21637e-06
6.82751e-06
1.30956e-05
1.60713e-05
6.51371e-06
5.78038e-06
5.4162e-06
5.2502e-06
5.18286e-06
5.41606e-06
6.10224e-06
6.53087e-06
1.29482e-05
1.58727e-05
6.10806e-06
5.51117e-06
5.22055e-06
5.14325e-06
5.11629e-06
5.35081e-06
6.00284e-06
6.27617e-06
1.27512e-05
1.56821e-05
5.9245e-06
5.29006e-06
5.04542e-06
5.03812e-06
5.05022e-06
5.29006e-06
5.91295e-06
6.04705e-06
1.24678e-05
)
;
    }
    inlet
    {
        type            calculated;
        value           uniform 0.0381026;
    }
    outlet
    {
        type            calculated;
        value           nonuniform List<scalar> 
20
(
0.000219425
4.90657e-05
4.37157e-05
4.16809e-05
4.16095e-05
4.16953e-05
4.36754e-05
4.89089e-05
5.00805e-05
0.000171448
0.000219801
4.93198e-05
4.38603e-05
4.18011e-05
4.16633e-05
4.16849e-05
4.36147e-05
4.88971e-05
5.02073e-05
0.000171938
)
;
    }
    heatWall
    {
        type            nutkWallFunction;