/*--------------------------------*- C++ -*----------------------------------*\
  =========                 |
  \\      /  F ield         | OpenFOAM: The Open Source CFD Toolbox
   \\    /   O peration     | Website:  https://openfoam.org
    \\  /    A nd           | Version:  8
     \\/     M anipulation  |
\*---------------------------------------------------------------------------*/
FoamFile
{
    version     2.0;
    format      ascii;
    class       volScalarField;
    location    "800";
    object      epsilon;
}
// * * * * * * * * * * * * * * * * * * * * * * * * * * * * * * * * * * * * * //

dimensions      [0 2 -3 0 0 0 0];

internalField   nonuniform List<scalar> 
8400
(
0.00914034
0.00877974
0.00844369
0.0081086
0.00776952
0.00743866
0.00713268
0.00684796
0.0065805
0.00632711
0.00608571
0.00586044
0.00565861
0.00547851
0.005317
0.00517216
0.00504222
0.00492182
0.00480185
0.0046743
0.00453947
0.00440569
0.00427581
0.00415284
0.00403135
0.00390543
0.00377982
0.00366921
0.00358118
0.00351428
0.00346816
0.0034424
0.00343454
0.00344101
0.0034566
0.00347534
0.00349124
0.00349917
0.00349568
0.00347897
0.00344886
0.0034064
0.0033535
0.0032924
0.00322568
0.00315553
0.00308414
0.00301359
0.00294559
0.00288204
0.0043627
0.00415809
0.00400698
0.00392733
0.0039138
0.00394055
0.00398521
0.00405147
0.00414367
0.00426492
0.00441524
0.00455427
0.00463071
0.00462606
0.00453339
0.00435859
0.00414141
0.00395549
0.00385343
0.00385207
0.00391621
0.0040143
0.00413193
0.00421119
0.00418256
0.00400647
0.00370574
0.00336546
0.00305431
0.0027692
0.00249298
0.00222984
0.00198921
0.00177106
0.00157967
0.00141649
0.00128161
0.00117333
0.00108844
0.00102348
0.000974693
0.000938805
0.000913042
0.000894847
0.000881993
0.000872586
0.000864842
0.000857071
0.000847658
0.00083488
0.00681472
0.00643725
0.00622865
0.00615601
0.00618542
0.00630802
0.00650234
0.00676062
0.00706152
0.00736428
0.00759241
0.00766442
0.00761304
0.00744128
0.00714636
0.00681341
0.00645777
0.00618106
0.00607993
0.00613002
0.00629111
0.00651497
0.006744
0.00687103
0.00679119
0.00645877
0.00593909
0.00541473
0.00505776
0.00475848
0.00445322
0.00415266
0.00387727
0.00361455
0.00337005
0.00314732
0.0029508
0.00278446
0.00264842
0.00254132
0.00246017
0.00240104
0.00235989
0.0023328
0.00231603
0.00230597
0.00229907
0.00229205
0.00228162
0.00226468
0.013131
0.013086
0.0130394
0.0129899
0.0129089
0.0126973
0.0123382
0.0119116
0.0115612
0.0113867
0.0112408
0.0111169
0.0109989
0.0106571
0.00917846
0.00857556
0.00825036
0.00808184
0.00811727
0.00834934
0.00877286
0.00930608
0.00969053
0.00979028
0.00956239
0.00897819
0.00801999
0.00689095
0.00646914
0.00620106
0.00584749
0.00552758
0.00528502
0.00506468
0.00488096
0.00471881
0.00457238
0.00444365
0.00433427
0.00424635
0.00417996
0.00413361
0.00410439
0.00408898
0.00408413
0.00408609
0.00409119
0.00409609
0.00409739
0.00409178
0.0131563
0.0131411
0.0131252
0.0131081
0.0130882
0.0130602
0.013017
0.0129568
0.0128895
0.0128283
0.0127765
0.0127346
0.012701
0.0126724
0.012624
0.0125778
0.0125588
0.0125438
0.0125124
0.012457
0.0123892
0.0123132
0.0122187
0.0121072
0.0119783
0.0118269
0.0113488
0.0084666
0.00767388
0.00760101
0.00689845
0.00639389
0.00612202
0.00582112
0.00566742
0.00556585
0.00550447
0.00546156
0.00542625
0.00539773
0.00537746
0.00536673
0.00536476
0.00537013
0.00538165
0.00539671
0.00541326
0.00542953
0.00544342
0.00545334
0.0131508
0.01313
0.0131094
0.0130893
0.0130695
0.0130494
0.0130279
0.0130041
0.0129788
0.0129533
0.0129286
0.0129051
0.0128823
0.0128596
0.0128359
0.0128117
0.0127882
0.0127638
0.0127359
0.0127008
0.0126541
0.0125931
0.0125162
0.0124205
0.0122998
0.0121382
0.0118436
0.0112645
0.0111189
0.0108651
0.00834973
0.00724131
0.00704669
0.00624316
0.00602966
0.00584306
0.00578006
0.00578661
0.00581102
0.00583934
0.00586215
0.0058823
0.00590043
0.00591733
0.00593338
0.00594837
0.00596231
0.00597572
0.00598904
0.0060029
0.0131488
0.0131257
0.0131026
0.0130794
0.0130564
0.0130336
0.013011
0.0129885
0.0129657
0.0129428
0.0129196
0.0128963
0.0128726
0.0128486
0.0128244
0.0128002
0.012776
0.0127523
0.0127287
0.0127038
0.0126744
0.0126356
0.0125824
0.0125098
0.0124112
0.0122775
0.0120763
0.0117818
0.011516
0.0112157
0.0106842
0.010568
0.00984647
0.00666409
0.00659554
0.00604565
0.00574706
0.00569521
0.00568197
0.00573958
0.0057815
0.00581337
0.00583689
0.00585023
0.00585516
0.00585439
0.00585056
0.00584663
0.00584545
0.00585032
0.0131444
0.0131164
0.0130885
0.0130608
0.0130334
0.0130066
0.0129803
0.0129544
0.0129287
0.0129028
0.0128767
0.0128503
0.0128238
0.0127972
0.0127704
0.0127439
0.0127181
0.0126936
0.0126709
0.0126497
0.0126286
0.0126038
0.01257
0.0125205
0.0124478
0.0123436
0.0121926
0.0119854
0.0117513
0.0114892
0.0111729
0.0109172
0.0105618
0.0101353
0.00998956
0.00695002
0.00584733
0.00574519
0.00530323
0.00533259
0.00534563
0.00535884
0.00537556
0.00537948
0.00536731
0.00534675
0.00532354
0.00530238
0.00528852
0.00528655
0.0131389
0.0131049
0.0130708
0.0130369
0.0130035
0.0129708
0.0129386
0.0129072
0.0128763
0.0128459
0.0128156
0.0127851
0.0127544
0.0127238
0.0126937
0.0126642
0.0126361
0.0126102
0.0125875
0.0125685
0.0125528
0.0125378
0.0125185
0.012488
0.0124381
0.0123604
0.0122445
0.0120843
0.0118886
0.0116633
0.0114109
0.0111654
0.0108991
0.0106212
0.0103647
0.00975038
0.00956498
0.00841168
0.004966
0.00493331
0.00488254
0.00482505
0.00469851
0.00469745
0.00468341
0.00466963
0.0046577
0.00464981
0.0046544
0.00467496
0.0131294
0.0130849
0.0130409
0.0129977
0.0129556
0.0129145
0.0128748
0.0128363
0.0127984
0.0127616
0.0127253
0.0126898
0.0126546
0.0126202
0.0125866
0.0125545
0.0125249
0.0124988
0.0124774
0.0124618
0.0124522
0.0124469
0.0124409
0.0124273
0.0123975
0.0123428
0.0122542
0.0121267
0.0119627
0.0117682
0.011551
0.0113269
0.011095
0.0108612
0.0106272
0.0103127
0.0100447
0.00953042
0.00870369
0.00837089
0.00814401
0.00698479
0.00409243
0.00399548
0.00403837
0.00405185
0.00408425
0.00417233
0.00431109
0.00439585
0.0131127
0.0130484
0.0129865
0.012927
0.0128703
0.0128168
0.0127661
0.0127185
0.0126733
0.01263
0.012588
0.0125473
0.0125077
0.0124699
0.0124342
0.0124011
0.0123722
0.0123492
0.0123337
0.0123265
0.0123277
0.0123353
0.0123444
0.0123477
0.0123363
0.0123011
0.0122343
0.0121312
0.0119924
0.0118231
0.0116313
0.0114275
0.0112169
0.0110055
0.0107933
0.0105595
0.0103261
0.0100192
0.00963528
0.00930199
0.00894766
0.0084037
0.00766138
0.00715357
0.00673785
0.00634327
0.00596425
0.00563725
0.00530861
0.00495307
0.0130777
0.0129703
0.0128741
0.0127866
0.0127071
0.0126349
0.0125706
0.0125116
0.0124592
0.0124117
0.0123677
0.0123267
0.0122872
0.0122509
0.0122188
0.0121911
0.0121702
0.0121582
0.0121566
0.0121657
0.012185
0.0122109
0.0122378
0.012258
0.0122628
0.0122436
0.0121933
0.0121081
0.0119887
0.0118395
0.0116674
0.0114814
0.0112881
0.0110932
0.0108978
0.0106963
0.0104926
0.0102649
0.0100109
0.00975318
0.00947397
0.00914567
0.00877841
0.00842691
0.00808467
0.00773499
0.00737421
0.00701842
0.0066837
0.00640158
0.0129287
0.0126583
0.0125265
0.0124242
0.0123452
0.0122737
0.0122176
0.012172
0.0121288
0.012094
0.0120596
0.0120268
0.0119975
0.0119724
0.0119531
0.0119406
0.0119377
0.0119457
0.0119668
0.0120002
0.0120432
0.0120906
0.0121356
0.01217
0.0121863
0.0121771
0.0121372
0.012064
0.011958
0.0118238
0.0116674
0.011497
0.0113189
0.0111382
0.010957
0.0107748
0.0105919
0.0104011
0.0102008
0.00999421
0.00977638
0.00954209
0.00929417
0.00903998
0.00877734
0.00850103
0.00821086
0.00791371
0.00762117
0.00734703
0.0122901
0.0120768
0.0119763
0.0119059
0.0118534
0.0118116
0.0117796
0.0117562
0.0117348
0.0117179
0.011705
0.0116957
0.0116919
0.0116941
0.0117032
0.0117214
0.0117492
0.0117864
0.0118327
0.0118867
0.0119442
0.0120012
0.012052
0.0120903
0.012111
0.0121052
0.0120681
0.0120002
0.0119023
0.0117787
0.0116351
0.0114782
0.0113141
0.0111469
0.0109794
0.010812
0.0106454
0.0104769
0.0103052
0.0101304
0.00995051
0.00976372
0.00957014
0.00936954
0.00916003
0.0089395
0.0087078
0.00846775
0.00822487
0.00798565
0.0115588
0.0114847
0.0114501
0.0114314
0.0114224
0.0114207
0.0114253
0.0114351
0.0114487
0.0114662
0.0114875
0.0115126
0.0115413
0.011574
0.0116109
0.011652
0.0116971
0.0117456
0.0117965
0.0118486
0.0118992
0.0119464
0.0119865
0.0120148
0.0120271
0.0120169
0.0119807
0.0119177
0.0118227
0.0117033
0.0115707
0.0114264
0.0112758
0.011122
0.010968
0.0108147
0.0106625
0.0105109
0.0103591
0.0102062
0.0100509
0.00989262
0.00973027
0.00956244
0.00938791
0.00920542
0.00901469
0.00881703
0.00861448
0.00840983
0.0111972
0.0112054
0.0112212
0.0112421
0.0112668
0.0112945
0.0113246
0.011357
0.0113909
0.0114262
0.0114628
0.0115007
0.0115394
0.011579
0.0116194
0.0116604
0.0117015
0.0117423
0.0117824
0.0118208
0.0118559
0.0118863
0.0119091
0.0119215
0.0119202
0.0119007
0.0118606
0.0117984
0.0117114
0.0116053
0.0114784
0.0113398
0.0112025
0.0110632
0.0109236
0.0107846
0.0106468
0.0105104
0.0103747
0.0102393
0.0101029
0.00996457
0.00982338
0.00967842
0.00952847
0.00937275
0.00921091
0.00904323
0.00887046
0.00869363
0.0111849
0.011211
0.0112384
0.0112672
0.0112969
0.0113277
0.011359
0.0113909
0.0114229
0.011455
0.0114872
0.0115193
0.0115512
0.0115828
0.0116136
0.0116436
0.0116726
0.0117003
0.0117261
0.0117489
0.0117679
0.0117818
0.0117885
0.0117858
0.0117714
0.0117427
0.0116979
0.0116358
0.011556
0.0114613
0.0113508
0.0112302
0.0110898
0.0109664
0.0108423
0.0107186
0.0105963
0.0104747
0.0103541
0.0102342
0.010114
0.00999224
0.00986828
0.0097413
0.00961046
0.0094752
0.00933492
0.00918946
0.00903916
0.0088841
0.0111771
0.0112035
0.0112301
0.0112566
0.0112832
0.0113095
0.0113354
0.011361
0.0113861
0.0114105
0.0114344
0.0114575
0.0114798
0.0115012
0.0115215
0.0115404
0.0115575
0.0115727
0.0115855
0.0115952
0.0116009
0.0116014
0.0115955
0.0115816
0.011558
0.0115232
0.0114763
0.0114164
0.0113441
0.0112601
0.0111654
0.0110643
0.0109496
0.0108204
0.0107144
0.0106072
0.0105008
0.0103952
0.0102901
0.0101851
0.01008
0.00997381
0.00986554
0.00975459
0.00964048
0.00952245
0.00939996
0.00927293
0.00914113
0.00900432
0.0109211
0.0109522
0.0109833
0.011014
0.0110442
0.0110735
0.0111018
0.0111288
0.0111544
0.0111785
0.0112009
0.0112216
0.0112406
0.0112576
0.0112725
0.0112854
0.0112959
0.0113039
0.011309
0.0113107
0.0113084
0.0113012
0.0112883
0.0112687
0.0112414
0.0112055
0.0111607
0.0111067
0.0110436
0.0109721
0.0108934
0.01081
0.0107212
0.0106192
0.0105128
0.0104241
0.0103352
0.0102464
0.0101582
0.01007
0.00998158
0.00989202
0.00980074
0.00970728
0.00961082
0.00951087
0.00940715
0.00929936
0.00918701
0.00906998
0.0250763
0.0242851
0.0235301
0.0228106
0.022126
0.0214747
0.0208546
0.0202633
0.0196983
0.0191571
0.0186371
0.0181359
0.0176518
0.0171829
0.0167281
0.0162864
0.0158578
0.015442
0.0150395
0.0146507
0.0142765
0.0139173
0.0135732
0.0132442
0.0129294
0.012628
0.0123385
0.0120593
0.0117891
0.0115265
0.0112728
0.011035
0.0108213
0.0106387
0.0105215
0.0106174
0.010759
0.0109352
0.0111401
0.0113685
0.0116166
0.0118816
0.012161
0.0124525
0.0127532
0.0130612
0.013374
0.0136887
0.0140009
0.0143038
9.33008e-06
9.21058e-06
9.0668e-06
8.99164e-06
8.92364e-06
8.82681e-06
8.70508e-06
8.57561e-06
8.44972e-06
8.33076e-06
8.21889e-06
8.11305e-06
8.01319e-06
7.91961e-06
7.83161e-06
7.74756e-06
7.66539e-06
7.58297e-06
7.49841e-06
7.41027e-06
7.31595e-06
7.19094e-06
7.06836e-06
6.94164e-06
6.81734e-06
6.7e-06
6.59111e-06
6.49127e-06
6.40106e-06
6.32048e-06
6.24888e-06
6.18493e-06
6.12672e-06
6.07192e-06
6.01799e-06
5.96252e-06
5.90356e-06
5.83979e-06
5.7697e-06
5.69409e-06
5.61569e-06
5.53779e-06
5.46369e-06
5.39609e-06
5.33698e-06
5.2873e-06
5.24664e-06
5.21292e-06
5.1819e-06
5.14742e-06
9.03119e-06
8.59635e-06
8.05714e-06
7.51222e-06
7.01964e-06
6.57815e-06
6.17323e-06
5.79788e-06
5.45263e-06
5.1392e-06
4.85726e-06
4.60555e-06
4.38105e-06
4.17949e-06
3.99651e-06
3.82784e-06
3.66961e-06
3.51859e-06
3.37255e-06
3.23034e-06
3.18016e-06
3.14923e-06
3.11186e-06
7.31043e-07
7.27211e-07
7.2404e-07
7.21613e-07
7.20114e-07
7.19618e-07
7.20087e-07
7.21346e-07
7.23107e-07
7.24997e-07
7.26613e-07
7.27562e-07
7.27513e-07
7.2623e-07
7.23633e-07
7.19973e-07
7.15508e-07
7.10524e-07
7.05408e-07
7.00575e-07
6.96425e-07
6.93237e-07
6.91128e-07
6.9002e-07
6.89645e-07
6.89599e-07
6.8946e-07
8.96434e-06
8.4491e-06
7.95219e-06
7.44893e-06
6.96533e-06
6.51573e-06
6.10184e-06
5.72096e-06
5.37121e-06
5.05176e-06
4.76152e-06
4.49841e-06
4.2595e-06
4.04142e-06
3.84075e-06
3.6542e-06
3.4789e-06
3.31247e-06
3.15337e-06
3.11434e-06
7.29224e-07
7.21751e-07
7.13899e-07
7.06024e-07
6.98437e-07
6.91393e-07
6.85094e-07
6.79677e-07
6.75197e-07
6.71625e-07
6.68847e-07
6.66674e-07
6.6485e-07
6.63084e-07
6.61082e-07
6.58574e-07
6.55373e-07
6.51387e-07
6.46628e-07
6.41231e-07
6.35444e-07
6.2958e-07
6.23974e-07
6.18929e-07
6.14669e-07
6.11305e-07
6.08809e-07
6.06988e-07
6.05471e-07
6.03763e-07
8.9903e-06
8.43005e-06
7.92139e-06
7.43171e-06
6.96162e-06
6.51805e-06
6.10593e-06
5.72644e-06
5.37878e-06
5.0616e-06
4.77317e-06
4.51119e-06
4.27274e-06
4.05457e-06
3.85327e-06
3.66566e-06
3.48894e-06
3.32082e-06
3.15984e-06
3.11883e-06
7.29792e-07
7.22135e-07
7.14109e-07
7.05966e-07
6.97989e-07
6.90449e-07
6.83566e-07
6.77489e-07
6.72279e-07
6.67912e-07
6.64277e-07
6.61199e-07
6.58434e-07
6.5571e-07
6.52752e-07
6.49313e-07
6.45211e-07
6.40359e-07
6.34781e-07
6.28617e-07
6.22108e-07
6.15556e-07
6.09275e-07
6.03544e-07
5.98567e-07
5.94446e-07
5.91174e-07
5.8863e-07
5.86555e-07
5.84505e-07
9.00789e-06
8.44285e-06
7.91534e-06
7.41858e-06
6.9489e-06
6.50664e-06
6.09466e-06
5.71496e-06
5.36767e-06
5.05154e-06
4.76454e-06
4.504e-06
4.26686e-06
4.04974e-06
3.84925e-06
3.66218e-06
3.48575e-06
3.31775e-06
3.1568e-06
3.11576e-06
7.2932e-07
7.21695e-07
7.13726e-07
7.05666e-07
6.97793e-07
6.90368e-07
6.836e-07
6.77625e-07
6.72489e-07
6.68155e-07
6.64506e-07
6.61359e-07
6.58471e-07
6.55576e-07
6.52408e-07
6.48736e-07
6.44396e-07
6.39319e-07
6.33543e-07
6.27214e-07
6.2057e-07
6.13901e-07
6.07509e-07
6.01653e-07
5.96516e-07
5.9217e-07
5.88577e-07
5.85607e-07
5.83063e-07
5.80634e-07
9.00623e-06
8.45006e-06
7.91687e-06
7.41393e-06
6.94231e-06
6.50102e-06
6.09076e-06
5.71262e-06
5.36676e-06
5.05207e-06
4.76643e-06
4.50705e-06
4.27075e-06
4.05413e-06
3.85379e-06
3.66658e-06
3.48978e-06
3.32128e-06
3.15979e-06
3.11806e-06
7.29605e-07
7.21939e-07
7.13975e-07
7.05969e-07
6.98193e-07
6.90898e-07
6.84278e-07
6.78448e-07
6.7344e-07
6.69198e-07
6.65593e-07
6.62434e-07
6.59481e-07
6.56472e-07
6.53156e-07
6.49323e-07
6.44834e-07
6.39639e-07
6.3379e-07
6.27435e-07
6.20804e-07
6.14169e-07
6.07809e-07
6.01966e-07
5.96808e-07
5.92404e-07
5.887e-07
5.85539e-07
5.82714e-07
5.79969e-07
8.999e-06
8.44486e-06
7.91209e-06
7.40664e-06
6.93285e-06
6.4911e-06
6.08161e-06
5.70471e-06
5.36017e-06
5.04675e-06
4.76228e-06
4.50391e-06
4.26834e-06
4.05216e-06
3.85195e-06
3.66461e-06
3.4875e-06
3.31859e-06
3.1567e-06
3.11469e-06
7.29058e-07
7.21416e-07
7.13527e-07
7.05648e-07
6.98042e-07
6.90948e-07
6.84539e-07
6.78909e-07
6.74067e-07
6.69941e-07
6.6639e-07
6.63217e-07
6.60185e-07
6.57046e-07
6.5357e-07
6.49575e-07
6.44949e-07
6.39664e-07
6.33788e-07
6.27469e-07
6.20923e-07
6.14397e-07
6.08136e-07
6.02346e-07
5.97175e-07
5.92683e-07
5.88831e-07
5.85473e-07
5.82396e-07
5.79369e-07
8.99476e-06
8.43512e-06
7.90195e-06
7.3961e-06
6.92169e-06
6.47998e-06
6.0715e-06
5.69626e-06
5.35359e-06
5.04202e-06
4.7592e-06
4.50219e-06
4.26763e-06
4.05207e-06
3.85211e-06
3.66471e-06
3.48733e-06
3.31803e-06
3.15576e-06
3.11328e-06
7.28805e-07
7.21185e-07
7.1338e-07
7.05639e-07
6.98214e-07
6.91323e-07
6.85116e-07
6.79663e-07
6.7495e-07
6.70889e-07
6.67328e-07
6.64069e-07
6.60882e-07
6.57538e-07
6.53838e-07
6.49632e-07
6.44841e-07
6.39463e-07
6.33575e-07
6.27326e-07
6.20911e-07
6.14548e-07
6.08444e-07
6.02767e-07
5.97625e-07
5.93057e-07
5.89027e-07
5.85414e-07
5.82034e-07
5.78681e-07
8.99345e-06
8.42636e-06
7.89017e-06
7.38353e-06
6.90896e-06
6.4676e-06
6.06007e-06
5.68631e-06
5.34539e-06
5.03554e-06
4.75427e-06
4.4985e-06
4.26483e-06
4.04979e-06
3.85e-06
3.66249e-06
3.48481e-06
3.31514e-06
3.15254e-06
3.1098e-06
7.28284e-07
7.20768e-07
7.13141e-07
7.05633e-07
6.98469e-07
6.91832e-07
6.85844e-07
6.80549e-07
6.75914e-07
6.71839e-07
6.6817e-07
6.64715e-07
6.61263e-07
6.57616e-07
6.53613e-07
6.49143e-07
6.44164e-07
6.38701e-07
6.32839e-07
6.26716e-07
6.20503e-07
6.14377e-07
6.08501e-07
6.03002e-07
5.97951e-07
5.93357e-07
5.89174e-07
5.85301e-07
5.81592e-07
5.77882e-07
8.99246e-06
8.41903e-06
7.87872e-06
7.37048e-06
6.89568e-06
6.45487e-06
6.04847e-06
5.67626e-06
5.3371e-06
5.02901e-06
4.74931e-06
4.49481e-06
4.26206e-06
4.04756e-06
3.84798e-06
3.66039e-06
3.48246e-06
3.31251e-06
3.14972e-06
3.10673e-06
7.27789e-07
7.20299e-07
7.12745e-07
7.05356e-07
6.98344e-07
6.91872e-07
6.8603e-07
6.80834e-07
6.76228e-07
6.72092e-07
6.6827e-07
6.64576e-07
6.60821e-07
6.56844e-07
6.52523e-07
6.47793e-07
6.42648e-07
6.37139e-07
6.31359e-07
6.25436e-07
6.19507e-07
6.13705e-07
6.08139e-07
6.02891e-07
5.97991e-07
5.93423e-07
5.89128e-07
5.85015e-07
5.80978e-07
5.769e-07
8.99058e-06
8.41173e-06
7.86749e-06
7.35737e-06
6.88216e-06
6.44195e-06
6.03679e-06
5.66617e-06
5.32876e-06
5.02236e-06
4.74415e-06
4.49083e-06
4.25889e-06
4.04484e-06
3.84537e-06
3.65766e-06
3.47948e-06
3.30927e-06
3.14636e-06
3.10262e-06
7.26948e-07
7.19228e-07
7.11471e-07
7.03958e-07
6.96925e-07
6.90527e-07
6.84825e-07
6.79792e-07
6.75328e-07
6.71282e-07
6.67474e-07
6.63711e-07
6.59818e-07
6.55659e-07
6.51152e-07
6.46277e-07
6.41065e-07
6.35595e-07
6.2997e-07
6.24305e-07
6.18708e-07
6.13267e-07
6.08039e-07
6.03053e-07
5.98299e-07
5.93736e-07
5.89297e-07
5.84906e-07
5.80493e-07
5.75995e-07
8.98806e-06
8.40377e-06
7.85601e-06
7.34415e-06
6.86851e-06
6.42891e-06
6.02502e-06
5.65603e-06
5.32033e-06
5.01556e-06
4.73875e-06
4.48652e-06
4.2553e-06
4.04161e-06
3.8422e-06
3.65435e-06
3.47592e-06
3.30552e-06
3.14259e-06
3.09889e-06
7.26413e-07
7.18797e-07
7.11195e-07
7.03877e-07
6.97061e-07
6.90877e-07
6.85359e-07
6.80453e-07
6.76034e-07
6.71934e-07
6.67965e-07
6.63947e-07
6.59731e-07
6.55222e-07
6.50387e-07
6.45249e-07
6.39881e-07
6.34383e-07
6.28866e-07
6.23427e-07
6.18141e-07
6.13049e-07
6.08154e-07
6.03428e-07
5.98816e-07
5.94249e-07
5.89654e-07
5.84969e-07
5.8016e-07
5.7522e-07
8.98545e-06
8.3954e-06
7.84432e-06
7.33095e-06
6.85504e-06
6.41611e-06
6.01354e-06
5.6462e-06
5.31223e-06
5.00908e-06
4.73364e-06
4.48245e-06
4.25192e-06
4.03857e-06
3.83923e-06
3.65126e-06
3.47267e-06
3.3022e-06
3.13939e-06
3.09584e-06
7.26018e-07
7.18547e-07
7.11133e-07
7.04028e-07
6.97422e-07
6.91415e-07
6.86012e-07
6.81136e-07
6.76646e-07
6.7237e-07
6.68128e-07
6.6376e-07
6.59156e-07
6.54264e-07
6.49098e-07
6.43727e-07
6.38256e-07
6.32802e-07
6.27476e-07
6.22352e-07
6.17467e-07
6.12811e-07
6.08328e-07
6.03935e-07
5.99527e-07
5.95005e-07
5.90288e-07
5.85332e-07
5.80142e-07
5.74764e-07
8.98296e-06
8.38713e-06
7.83277e-06
7.31802e-06
6.84188e-06
6.40359e-06
6.00221e-06
5.63632e-06
5.30385e-06
5.00205e-06
4.72771e-06
4.4773e-06
4.2472e-06
4.03399e-06
3.83456e-06
3.64638e-06
3.46759e-06
3.29705e-06
3.13444e-06
3.09127e-06
7.25419e-07
7.18133e-07
7.10956e-07
7.04117e-07
6.97778e-07
6.92007e-07
6.86777e-07
6.81984e-07
6.77471e-07
6.73058e-07
6.68574e-07
6.63886e-07
6.5892e-07
6.53671e-07
6.482e-07
6.42617e-07
6.37059e-07
6.3166e-07
6.26522e-07
6.21702e-07
6.17199e-07
6.12952e-07
6.08852e-07
6.0476e-07
6.00527e-07
5.96026e-07
5.91169e-07
5.8593e-07
5.80353e-07
5.74538e-07
8.9806e-06
8.37929e-06
7.82181e-06
7.30588e-06
6.82979e-06
6.39237e-06
5.9924e-06
5.62816e-06
5.29733e-06
4.99698e-06
4.72378e-06
4.47416e-06
4.24451e-06
4.03145e-06
3.83197e-06
3.64365e-06
3.46477e-06
3.29428e-06
3.13197e-06
3.0891e-06
7.25191e-07
7.18084e-07
7.11137e-07
7.0456e-07
6.98485e-07
6.92947e-07
6.8789e-07
6.83182e-07
6.78648e-07
6.74105e-07
6.69392e-07
6.64401e-07
6.59096e-07
6.53517e-07
6.47767e-07
6.41996e-07
6.36365e-07
6.31018e-07
6.26056e-07
6.21512e-07
6.17349e-07
6.13461e-07
6.09689e-07
6.05846e-07
6.01744e-07
5.97233e-07
5.92224e-07
5.8671e-07
5.80771e-07
5.74563e-07
8.97837e-06
8.37192e-06
7.8112e-06
7.29365e-06
6.81698e-06
6.3797e-06
5.98032e-06
5.61695e-06
5.28703e-06
4.98751e-06
4.71496e-06
4.46573e-06
4.23624e-06
4.02315e-06
3.82353e-06
3.63507e-06
3.45616e-06
3.28585e-06
3.12403e-06
7.31078e-07
7.24211e-07
7.17321e-07
7.1063e-07
7.04325e-07
6.98514e-07
6.93205e-07
6.88317e-07
6.83698e-07
6.79163e-07
6.7453e-07
6.69653e-07
6.6445e-07
6.58919e-07
6.53136e-07
6.47241e-07
6.4141e-07
6.35822e-07
6.30625e-07
6.25907e-07
6.21683e-07
6.17882e-07
6.14361e-07
6.10919e-07
6.0733e-07
6.03382e-07
5.9891e-07
5.93829e-07
5.88159e-07
5.82018e-07
5.75609e-07
8.9763e-06
8.36565e-06
7.80293e-06
7.28521e-06
6.80945e-06
6.37364e-06
5.97592e-06
5.61409e-06
5.28545e-06
4.98685e-06
4.71482e-06
4.46577e-06
4.23615e-06
4.02271e-06
3.82265e-06
3.63377e-06
3.45456e-06
3.28418e-06
3.12256e-06
7.30902e-07
7.24144e-07
7.17408e-07
7.10896e-07
7.0477e-07
6.99111e-07
6.9391e-07
6.89068e-07
6.84425e-07
6.79796e-07
6.75013e-07
6.69954e-07
6.6457e-07
6.58891e-07
6.53023e-07
6.4713e-07
6.41404e-07
6.36031e-07
6.31156e-07
6.26856e-07
6.23125e-07
6.19869e-07
6.16912e-07
6.14027e-07
6.10963e-07
6.07491e-07
6.03439e-07
5.98734e-07
5.93412e-07
5.87626e-07
5.81628e-07
8.97447e-06
8.35637e-06
7.7874e-06
7.26531e-06
6.78685e-06
6.3499e-06
5.95227e-06
5.59138e-06
5.26418e-06
4.9673e-06
4.69709e-06
4.44985e-06
4.22201e-06
4.0103e-06
3.81194e-06
3.62477e-06
3.4473e-06
3.2787e-06
3.11891e-06
7.30658e-07
7.2411e-07
7.17722e-07
7.11691e-07
7.06017e-07
7.00773e-07
6.96013e-07
6.91653e-07
6.87494e-07
6.83332e-07
6.79032e-07
6.74542e-07
6.69845e-07
6.6498e-07
6.60047e-07
6.55194e-07
6.506e-07
6.4644e-07
6.42852e-07
6.39907e-07
6.37592e-07
6.35798e-07
6.34333e-07
6.32947e-07
6.31364e-07
6.29332e-07
6.26663e-07
6.23278e-07
6.19227e-07
6.14697e-07
6.10003e-07
8.97474e-06
8.35934e-06
7.79711e-06
7.28298e-06
6.81425e-06
6.3894e-06
6.00569e-06
5.66012e-06
5.3494e-06
5.06992e-06
4.81781e-06
4.5891e-06
4.37988e-06
4.18649e-06
4.00568e-06
3.8348e-06
3.67198e-06
3.51613e-06
3.36699e-06
3.22426e-06
3.10266e-06
7.31217e-07
7.31108e-07
7.29834e-07
7.2771e-07
7.26366e-07
7.25433e-07
7.24475e-07
7.23154e-07
7.21745e-07
7.2037e-07
7.19024e-07
7.17666e-07
7.16294e-07
7.14983e-07
7.13872e-07
7.1313e-07
7.12906e-07
7.13286e-07
7.14251e-07
7.15662e-07
7.17269e-07
7.18741e-07
7.19716e-07
7.19865e-07
7.18953e-07
7.16894e-07
7.13789e-07
7.09936e-07
7.05845e-07
9.32355e-06
9.18983e-06
9.06126e-06
8.93832e-06
8.82117e-06
8.70888e-06
8.60152e-06
8.49895e-06
8.40073e-06
8.30613e-06
8.21409e-06
8.12339e-06
8.03281e-06
7.94128e-06
7.84806e-06
7.75289e-06
7.65604e-06
7.55826e-06
7.46066e-06
7.36448e-06
7.26376e-06
7.16207e-06
7.04614e-06
6.94331e-06
6.84851e-06
6.75406e-06
6.66185e-06
6.5718e-06
6.483e-06
6.39316e-06
6.3021e-06
6.21088e-06
6.12121e-06
6.03489e-06
5.95352e-06
5.87827e-06
5.80965e-06
5.74746e-06
5.69072e-06
5.63782e-06
5.58669e-06
5.53507e-06
5.48082e-06
5.42228e-06
5.35849e-06
5.28939e-06
5.21581e-06
5.13933e-06
5.06201e-06
4.98598e-06
6.95662e-07
4.10234e-07
2.75348e-07
2.10328e-07
1.80949e-07
1.67966e-07
1.61209e-07
1.5692e-07
1.53424e-07
1.5017e-07
1.46817e-07
1.43287e-07
1.39692e-07
1.36407e-07
1.34462e-07
1.35319e-07
1.40822e-07
1.50158e-07
1.58111e-07
1.57833e-07
7.14274e-07
4.11058e-07
2.7627e-07
2.11466e-07
1.82245e-07
1.69423e-07
1.62804e-07
1.58612e-07
1.55152e-07
1.51857e-07
1.48409e-07
1.44767e-07
1.41065e-07
1.3771e-07
1.35746e-07
1.36669e-07
1.42376e-07
1.52055e-07
1.60439e-07
1.60339e-07
3.12638e-06
4.11515e-07
2.77632e-07
2.13048e-07
1.83967e-07
1.71232e-07
1.64628e-07
1.60363e-07
1.56751e-07
1.53269e-07
1.49648e-07
1.45885e-07
1.42134e-07
1.38808e-07
1.36953e-07
1.38078e-07
1.44103e-07
1.54205e-07
1.63027e-07
1.62642e-07
3.27676e-06
4.1021e-07
2.78504e-07
2.14332e-07
1.85429e-07
1.72775e-07
1.66172e-07
1.6182e-07
1.58068e-07
1.54441e-07
1.50708e-07
1.4689e-07
1.43149e-07
1.39891e-07
1.38156e-07
1.3946e-07
1.45737e-07
1.56139e-07
1.65219e-07
1.64294e-07
3.34183e-06
4.07514e-07
2.79356e-07
2.15615e-07
1.8688e-07
1.74294e-07
1.67675e-07
1.63236e-07
1.59354e-07
1.55601e-07
1.51772e-07
1.47899e-07
1.44142e-07
1.40893e-07
1.39191e-07
1.40556e-07
1.46947e-07
1.57499e-07
1.66717e-07
1.65578e-07
3.35146e-06
4.06221e-07
2.80433e-07
2.17014e-07
1.8841e-07
1.75881e-07
1.69254e-07
1.64746e-07
1.60758e-07
1.5689e-07
1.52951e-07
1.48977e-07
1.4513e-07
1.41799e-07
1.40028e-07
1.41347e-07
1.47741e-07
1.58335e-07
1.6764e-07
1.66731e-07
3.35725e-06
4.06887e-07
2.81903e-07
2.18614e-07
1.90087e-07
1.77612e-07
1.70989e-07
1.66431e-07
1.62351e-07
1.58356e-07
1.54264e-07
1.50113e-07
1.46081e-07
1.42577e-07
1.40666e-07
1.41895e-07
1.48275e-07
1.58915e-07
1.68352e-07
1.68029e-07
3.36296e-06
4.08559e-07
2.83685e-07
2.20383e-07
1.91895e-07
1.79466e-07
1.72854e-07
1.68254e-07
1.64077e-07
1.59932e-07
1.55643e-07
1.51265e-07
1.46999e-07
1.43286e-07
1.41228e-07
1.4239e-07
1.48806e-07
1.59576e-07
1.69246e-07
1.69643e-07
3.37196e-06
4.1094e-07
2.85549e-07
2.22179e-07
1.93721e-07
1.81329e-07
1.74725e-07
1.70071e-07
1.65773e-07
1.61451e-07
1.56945e-07
1.52336e-07
1.4786e-07
1.43989e-07
1.41854e-07
1.43027e-07
1.49564e-07
1.60565e-07
1.70559e-07
1.71571e-07
3.38424e-06
4.13217e-07
2.87236e-07
2.23815e-07
1.95401e-07
1.83043e-07
1.7643e-07
1.71698e-07
1.67259e-07
1.62754e-07
1.58043e-07
1.53245e-07
1.48638e-07
1.44713e-07
1.42609e-07
1.43891e-07
1.50628e-07
1.6193e-07
1.7229e-07
1.73674e-07
3.39751e-06
4.14828e-07
2.88557e-07
2.25168e-07
1.96827e-07
1.84497e-07
1.77844e-07
1.73004e-07
1.68411e-07
1.63733e-07
1.58861e-07
1.53956e-07
1.4932e-07
1.45449e-07
1.43471e-07
1.44934e-07
1.51913e-07
1.63537e-07
1.74254e-07
1.75772e-07
3.40834e-06
4.15779e-07
2.89529e-07
2.26255e-07
1.98009e-07
1.85692e-07
1.78965e-07
1.73985e-07
1.69227e-07
1.64395e-07
1.5942e-07
1.54489e-07
1.49914e-07
1.46174e-07
1.44372e-07
1.46037e-07
1.53251e-07
1.65172e-07
1.76207e-07
1.77743e-07
3.41552e-06
4.16489e-07
2.90346e-07
2.27215e-07
1.99064e-07
1.86736e-07
1.79903e-07
1.74761e-07
1.69833e-07
1.6487e-07
1.59838e-07
1.54938e-07
1.50466e-07
1.4688e-07
1.45255e-07
1.47098e-07
1.54504e-07
1.66674e-07
1.77989e-07
1.79582e-07
3.42108e-06
4.17465e-07
2.91256e-07
2.28231e-07
2.00146e-07
1.87781e-07
1.80821e-07
1.75509e-07
1.7042e-07
1.65349e-07
1.60286e-07
1.55425e-07
1.51054e-07
1.47602e-07
1.46117e-07
1.48089e-07
1.55636e-07
1.68014e-07
1.79598e-07
1.81391e-07
3.42861e-06
4.18975e-07
2.92394e-07
2.29403e-07
2.01357e-07
1.88943e-07
1.81853e-07
1.76381e-07
1.71155e-07
1.65995e-07
1.60901e-07
1.56067e-07
1.51764e-07
1.48399e-07
1.47004e-07
1.4906e-07
1.56718e-07
1.69291e-07
1.81167e-07
1.83308e-07
3.44077e-06
4.20812e-07
2.93678e-07
2.30687e-07
2.02682e-07
1.90226e-07
1.83031e-07
1.77434e-07
1.72096e-07
1.6686e-07
1.61733e-07
1.56905e-07
1.52634e-07
1.49315e-07
1.47975e-07
1.50099e-07
1.57866e-07
1.70655e-07
1.82883e-07
1.85438e-07
3.45714e-06
4.22347e-07
2.94837e-07
2.31909e-07
2.03984e-07
1.91529e-07
1.84268e-07
1.78586e-07
1.73169e-07
1.67876e-07
1.6272e-07
1.57889e-07
1.53634e-07
1.50349e-07
1.49062e-07
1.51269e-07
1.59178e-07
1.72241e-07
1.84885e-07
1.87812e-07
3.47337e-06
4.22868e-07
2.95559e-07
2.32866e-07
2.05089e-07
1.92674e-07
1.85396e-07
1.79672e-07
1.74212e-07
1.68889e-07
1.63723e-07
1.58904e-07
1.54685e-07
1.51461e-07
1.50262e-07
1.52594e-07
1.607e-07
1.74103e-07
1.87212e-07
1.90383e-07
3.48314e-06
4.22031e-07
2.95701e-07
2.33438e-07
2.05864e-07
1.93535e-07
1.86275e-07
1.80539e-07
1.75068e-07
1.69748e-07
1.6461e-07
1.59848e-07
1.55715e-07
1.52606e-07
1.51551e-07
1.54061e-07
1.62418e-07
1.76197e-07
1.89796e-07
1.93044e-07
3.48158e-06
4.20153e-07
2.95411e-07
2.33658e-07
2.06334e-07
1.94108e-07
1.86873e-07
1.8114e-07
1.75681e-07
1.70402e-07
1.6534e-07
1.60695e-07
1.5671e-07
1.53774e-07
1.52911e-07
1.55642e-07
1.64262e-07
1.78416e-07
1.92494e-07
1.95667e-07
3.46818e-06
4.18212e-07
2.9498e-07
2.33755e-07
2.06673e-07
1.94532e-07
1.87305e-07
1.81573e-07
1.76144e-07
1.70941e-07
1.66004e-07
1.61526e-07
1.57734e-07
1.55001e-07
1.54348e-07
1.57287e-07
1.6614e-07
1.80628e-07
1.95121e-07
1.9814e-07
3.44914e-06
4.17068e-07
2.94838e-07
2.3404e-07
2.07134e-07
1.95026e-07
1.87779e-07
1.82044e-07
1.76659e-07
1.71561e-07
1.66779e-07
1.62489e-07
1.58891e-07
1.56346e-07
1.55865e-07
1.58953e-07
1.67971e-07
1.8271e-07
1.9752e-07
2.00406e-07
3.43469e-06
4.17066e-07
2.95331e-07
2.34763e-07
2.07925e-07
1.95794e-07
1.88505e-07
1.82768e-07
1.77445e-07
1.72467e-07
1.67843e-07
1.63721e-07
1.60272e-07
1.57855e-07
1.57454e-07
1.60598e-07
1.69689e-07
1.84582e-07
1.99609e-07
2.02481e-07
3.43072e-06
4.18349e-07
2.96543e-07
2.35983e-07
2.09116e-07
1.96924e-07
1.89594e-07
1.83876e-07
1.78634e-07
1.73779e-07
1.69289e-07
1.65285e-07
1.61912e-07
1.59521e-07
1.59095e-07
1.62195e-07
1.71275e-07
1.86239e-07
2.01408e-07
2.04451e-07
3.43797e-06
4.20597e-07
2.98221e-07
2.37527e-07
2.10604e-07
1.98355e-07
1.91019e-07
1.8536e-07
1.80224e-07
1.75487e-07
1.71098e-07
1.67147e-07
1.6377e-07
1.61306e-07
1.60763e-07
1.63745e-07
1.72759e-07
1.87754e-07
2.03038e-07
2.06444e-07
3.45122e-06
4.23078e-07
2.99885e-07
2.39122e-07
2.12169e-07
1.99915e-07
1.92642e-07
1.87096e-07
1.82095e-07
1.77475e-07
1.73152e-07
1.69204e-07
1.65761e-07
1.63162e-07
1.62452e-07
1.65285e-07
1.74226e-07
1.89258e-07
2.04676e-07
2.08581e-07
3.46558e-06
4.24415e-07
3.01124e-07
2.40508e-07
2.13593e-07
2.01422e-07
1.94292e-07
1.88918e-07
1.8408e-07
1.79578e-07
1.75309e-07
1.71339e-07
1.6781e-07
1.65066e-07
1.6419e-07
1.66889e-07
1.75784e-07
1.90896e-07
2.06494e-07
2.1093e-07
3.47241e-06
4.24214e-07
3.01839e-07
2.41546e-07
2.14785e-07
2.02788e-07
1.95865e-07
1.907e-07
1.86045e-07
1.81669e-07
1.7746e-07
1.73479e-07
1.69882e-07
1.67033e-07
1.66026e-07
1.68631e-07
1.77524e-07
1.92767e-07
2.08588e-07
2.13486e-07
3.46639e-06
4.23005e-07
3.02195e-07
2.42353e-07
2.15831e-07
2.04056e-07
1.97362e-07
1.92413e-07
1.8794e-07
1.83699e-07
1.79569e-07
1.75614e-07
1.71994e-07
1.69089e-07
1.68002e-07
1.7055e-07
1.79474e-07
1.94882e-07
2.10947e-07
2.16177e-07
3.4484e-06
4.21931e-07
3.02546e-07
2.43208e-07
2.16932e-07
2.05361e-07
1.98867e-07
1.94102e-07
1.89794e-07
1.85686e-07
1.81658e-07
1.77767e-07
1.74171e-07
1.7125e-07
1.70117e-07
1.72624e-07
1.81586e-07
1.97161e-07