/*--------------------------------*- C++ -*----------------------------------*\
  =========                 |
  \\      /  F ield         | OpenFOAM: The Open Source CFD Toolbox
   \\    /   O peration     | Website:  https://openfoam.org
    \\  /    A nd           | Version:  8
     \\/     M anipulation  |
\*---------------------------------------------------------------------------*/
FoamFile
{
    version     2.0;
    format      ascii;
    class       volScalarField;
    location    "800";
    object      k;
}
// * * * * * * * * * * * * * * * * * * * * * * * * * * * * * * * * * * * * * //

dimensions      [0 2 -2 0 0 0 0];

internalField   nonuniform List<scalar> 
8400
(
0.00232551
0.00227147
0.00221849
0.00216319
0.00210552
0.00204856
0.00199464
0.0019433
0.00189413
0.0018468
0.001802
0.00176152
0.00172542
0.00169315
0.00166434
0.00163822
0.00161311
0.00158689
0.00155827
0.00152877
0.00149931
0.0014706
0.0014429
0.00141587
0.00138719
0.00135563
0.0013236
0.00129589
0.00127504
0.00126053
0.00125161
0.00124775
0.00124817
0.00125173
0.00125699
0.00126235
0.00126634
0.00126782
0.00126612
0.00126095
0.00125241
0.00124083
0.00122674
0.00121067
0.00119324
0.00117499
0.00115645
0.00113812
0.0011204
0.00110378
0.00141258
0.00138478
0.00136814
0.00136572
0.00137566
0.00139205
0.00141067
0.00143234
0.0014577
0.00148706
0.00151354
0.00152566
0.00151845
0.00149218
0.00145112
0.00140535
0.00137032
0.00135603
0.00136218
0.0013796
0.00140444
0.00143436
0.00146726
0.00148147
0.00146349
0.00140819
0.0013242
0.00123022
0.00114229
0.00106209
0.000985437
0.000911454
0.000841835
0.000777259
0.000719074
0.000668507
0.000625949
0.000591248
0.000563716
0.000542445
0.000526424
0.00051468
0.000506303
0.000500451
0.000496361
0.000493358
0.000490794
0.00048805
0.000484528
0.0004796
0.00194202
0.00188417
0.00186109
0.00186335
0.00188282
0.00191627
0.00196033
0.00201044
0.00206076
0.00210244
0.00211744
0.00210384
0.00206522
0.0020013
0.00193971
0.00187968
0.00183825
0.00182966
0.00184376
0.0018822
0.00193728
0.00199915
0.00204685
0.00205981
0.00202332
0.00193498
0.00181132
0.00168255
0.00158621
0.00151535
0.00144718
0.00137905
0.00131538
0.00125427
0.00119595
0.00114257
0.00109522
0.00105501
0.00102214
0.000996388
0.000977039
0.00096321
0.000953875
0.000947979
0.000944574
0.000942688
0.000941376
0.000939779
0.000937049
0.000932364
0.00299388
0.00298691
0.00297967
0.0029721
0.00296288
0.00294189
0.00290289
0.00285422
0.00281539
0.00277984
0.00274648
0.00271385
0.00266405
0.00233608
0.00224286
0.00220437
0.00219147
0.0021968
0.00224521
0.00233167
0.0024496
0.00255635
0.00259605
0.00259176
0.00253648
0.00242004
0.00224293
0.00201506
0.00185728
0.00180093
0.00173426
0.00166325
0.00161486
0.00157219
0.00153398
0.0015007
0.00147047
0.00144397
0.00142175
0.00140421
0.00139134
0.00138279
0.00137782
0.00137566
0.00137555
0.00137668
0.00137829
0.00137961
0.00137992
0.00137853
0.00299781
0.0029955
0.00299308
0.0029905
0.00298762
0.00298393
0.00297854
0.00297098
0.00296203
0.00295262
0.0029433
0.00293434
0.00292545
0.00291177
0.0028988
0.00289086
0.00288581
0.00288212
0.00288024
0.00288026
0.00287811
0.00287299
0.00286488
0.00285377
0.00283954
0.00282166
0.002785
0.00252734
0.00206199
0.00206108
0.00196602
0.00181678
0.0017701
0.00172338
0.00169226
0.00167616
0.00166537
0.00165789
0.00165171
0.00164692
0.00164385
0.00164262
0.00164305
0.00164479
0.00164753
0.00165077
0.00165415
0.00165736
0.00165999
0.0016618
0.00299697
0.00299381
0.00299069
0.00298762
0.00298461
0.00298159
0.00297843
0.00297497
0.00297119
0.00296722
0.00296317
0.00295915
0.00295513
0.00295096
0.0029468
0.00294294
0.00293927
0.00293551
0.00293149
0.00292707
0.00292187
0.00291549
0.00290747
0.00289721
0.00288369
0.00286478
0.00283254
0.00275456
0.00269143
0.00266931
0.00244442
0.00193625
0.0019162
0.00181375
0.00174862
0.00172802
0.00171619
0.00172052
0.00172627
0.00173192
0.00173634
0.00174009
0.00174334
0.00174629
0.00174898
0.00175137
0.00175355
0.00175569
0.0017579
0.00176039
0.00299667
0.00299316
0.00298965
0.00298612
0.00298261
0.00297915
0.00297572
0.0029723
0.00296886
0.00296538
0.00296186
0.0029583
0.00295469
0.00295103
0.00294733
0.00294361
0.00293987
0.00293613
0.0029324
0.00292855
0.00292437
0.00291945
0.0029132
0.0029049
0.00289362
0.00287789
0.00285398
0.00281374
0.00276894
0.00272488
0.00264285
0.00256632
0.00252771
0.001996
0.00179987
0.0017734
0.00169293
0.0016913
0.00169503
0.00170584
0.00171318
0.00171768
0.00172038
0.00172149
0.00172124
0.00172005
0.00171845
0.00171712
0.00171668
0.00171776
0.002996
0.00299177
0.00298753
0.00298332
0.00297916
0.00297507
0.00297105
0.00296712
0.00296323
0.00295935
0.00295546
0.00295153
0.00294759
0.0029436
0.00293957
0.00293552
0.00293149
0.00292756
0.0029238
0.00292022
0.00291676
0.00291315
0.00290881
0.00290297
0.00289457
0.00288229
0.00286388
0.00283618
0.00280158
0.00276218
0.00271062
0.00265693
0.00260391
0.00249542
0.0024711
0.00209976
0.00166514
0.00164497
0.00161784
0.00161531
0.00161828
0.00161818
0.0016179
0.00161685
0.00161339
0.00160873
0.00160412
0.00160063
0.00159907
0.00160001
0.00299518
0.00299004
0.00298488
0.00297973
0.00297466
0.00296967
0.00296479
0.00296001
0.00295533
0.00295074
0.0029462
0.00294167
0.00293712
0.00293256
0.00292802
0.0029235
0.00291907
0.00291484
0.00291094
0.00290751
0.00290458
0.002902
0.0028993
0.00289568
0.00289002
0.00288097
0.00286679
0.00284565
0.00281783
0.00278434
0.0027441
0.00270082
0.00265538
0.0025971
0.00255
0.00243601
0.00233575
0.00228338
0.00165894
0.00150126
0.00149406
0.00148592
0.00147878
0.00147335
0.00147295
0.0014732
0.00147444
0.00147757
0.00148377
0.0014914
0.00299376
0.00298705
0.00298041
0.00297385
0.00296742
0.00296116
0.00295511
0.00294926
0.00294355
0.00293801
0.0029326
0.0029273
0.00292204
0.00291686
0.00291176
0.00290676
0.00290199
0.0028976
0.00289373
0.00289063
0.00288842
0.00288703
0.00288605
0.00288463
0.00288158
0.00287551
0.00286484
0.00284818
0.00282524
0.00279664
0.00276278
0.00272569
0.0026864
0.00264294
0.00260053
0.00253991
0.00247603
0.00240749
0.00223849
0.00212892
0.00207033
0.00199589
0.00170753
0.00131542
0.00134184
0.0013594
0.00138641
0.00142744
0.00146603
0.00148357
0.00299125
0.00298158
0.00297224
0.00296323
0.00295458
0.00294642
0.00293867
0.00293134
0.00292444
0.0029179
0.00291163
0.00290557
0.00289966
0.00289394
0.00288844
0.00288321
0.00287838
0.0028742
0.00287092
0.00286882
0.00286806
0.00286853
0.00286978
0.00287084
0.00287045
0.00286711
0.00285937
0.00284606
0.0028268
0.00280204
0.00277258
0.00273984
0.00270498
0.0026682
0.002631
0.00258791
0.00254184
0.00249005
0.0024142
0.00234505
0.00228222
0.00220809
0.0020991
0.00197911
0.00189732
0.00183334
0.00178034
0.00173649
0.00168435
0.00163391
0.00298593
0.00296969
0.00295506
0.00294177
0.00292959
0.00291851
0.00290866
0.00289969
0.00289173
0.0028845
0.00287787
0.00287171
0.00286581
0.00286021
0.0028551
0.00285049
0.00284653
0.00284365
0.00284214
0.00284224
0.00284413
0.00284752
0.00285175
0.00285565
0.00285783
0.00285686
0.00285143
0.00284056
0.002824
0.0028022
0.00277595
0.00274655
0.00271514
0.00268245
0.00264921
0.00261386
0.00257702
0.00253725
0.00249042
0.00244304
0.00239536
0.00234306
0.00228366
0.00222216
0.00216525
0.00211208
0.00206107
0.00201192
0.00196465
0.00191792
0.00295151
0.0029185
0.00290013
0.00288429
0.002872
0.00286044
0.00285204
0.0028449
0.00283868
0.00283383
0.00282891
0.00282409
0.00281986
0.00281596
0.00281242
0.00280969
0.00280821
0.0028081
0.00280998
0.00281387
0.0028198
0.00282695
0.00283451
0.00284104
0.00284523
0.00284582
0.00284175
0.0028324
0.00281762
0.00279794
0.00277413
0.0027474
0.00271881
0.00268915
0.00265901
0.00262814
0.00259664
0.00256396
0.00252906
0.0024933
0.00245682
0.00241872
0.00237871
0.00233785
0.00229697
0.00225575
0.00221375
0.0021709
0.00212764
0.002085
0.00286344
0.00283097
0.00281564
0.00280424
0.00279567
0.00278892
0.00278394
0.00278012
0.00277686
0.00277431
0.00277225
0.00277053
0.00276948
0.00276931
0.00276996
0.00277188
0.00277531
0.00278019
0.00278665
0.00279455
0.00280353
0.00281279
0.00282157
0.00282872
0.00283335
0.00283441
0.0028305
0.00282162
0.00280776
0.00278948
0.00276754
0.002743
0.00271686
0.00268979
0.00266234
0.00263463
0.00260679
0.00257862
0.00254979
0.00252063
0.00249115
0.00246108
0.00243034
0.00239903
0.00236701
0.002334
0.00229976
0.00226418
0.00222749
0.0021902
0.00275421
0.00274094
0.00273463
0.00273096
0.00272894
0.00272816
0.00272842
0.00272943
0.00273109
0.00273329
0.00273607
0.00273945
0.00274343
0.0027481
0.00275348
0.00275959
0.00276639
0.00277385
0.00278177
0.00278999
0.00279814
0.0028059
0.00281273
0.00281796
0.00282084
0.00282054
0.00281622
0.00280769
0.00279474
0.00277668
0.00275608
0.00273349
0.0027096
0.00268494
0.00265999
0.00263498
0.00261004
0.00258512
0.00256019
0.00253527
0.00251026
0.00248509
0.00245961
0.00243363
0.00240703
0.00237955
0.00235094
0.00232113
0.00229018
0.00225826
0.00269432
0.00269473
0.00269666
0.00269951
0.00270301
0.00270703
0.00271147
0.00271623
0.00272127
0.00272655
0.00273203
0.00273773
0.00274362
0.00274966
0.00275588
0.00276221
0.00276862
0.00277503
0.00278135
0.00278745
0.0027931
0.00279806
0.00280193
0.00280431
0.00280466
0.00280236
0.00279694
0.00278812
0.00277574
0.00275964
0.00274117
0.00271868
0.00269678
0.00267457
0.00265214
0.00262966
0.00260731
0.00258517
0.00256324
0.00254142
0.00251967
0.00249788
0.00247588
0.00245352
0.00243065
0.00240704
0.00238252
0.00235702
0.00233051
0.002303
0.00268934
0.00269341
0.00269775
0.00270229
0.00270699
0.00271184
0.00271674
0.0027217
0.0027267
0.0027317
0.00273668
0.00274166
0.00274656
0.00275142
0.00275618
0.00276081
0.00276529
0.00276958
0.00277356
0.00277712
0.00278011
0.00278235
0.00278354
0.00278335
0.0027814
0.00277734
0.00277083
0.00276169
0.00274988
0.00273541
0.00271897
0.0026999
0.00267874
0.00265802
0.00263814
0.00261825
0.00259854
0.00257897
0.0025596
0.00254046
0.0025214
0.00250229
0.00248304
0.00246351
0.00244351
0.00242291
0.00240157
0.0023794
0.00235635
0.00233234
0.00268983
0.00269392
0.00269801
0.00270211
0.00270617
0.00271017
0.00271411
0.002718
0.00272178
0.00272546
0.00272905
0.00273251
0.00273584
0.002739
0.002742
0.0027448
0.00274735
0.00274961
0.0027515
0.00275293
0.00275379
0.00275386
0.00275297
0.0027509
0.00274739
0.00274218
0.00273512
0.00272607
0.00271508
0.00270217
0.00268772
0.00267168
0.00265421
0.0026346
0.00261635
0.00259919
0.00258214
0.00256513
0.00254829
0.0025316
0.00251497
0.00249832
0.00248154
0.00246447
0.00244699
0.00242899
0.00241037
0.00239103
0.00237089
0.00234984
0.00265429
0.00265901
0.00266362
0.00266811
0.00267245
0.0026766
0.00268055
0.00268427
0.00268776
0.00269101
0.002694
0.00269672
0.00269919
0.00270138
0.00270329
0.00270491
0.00270619
0.00270712
0.00270763
0.00270766
0.00270709
0.00270583
0.00270373
0.00270062
0.00269638
0.00269085
0.00268393
0.00267557
0.00266578
0.00265465
0.00264243
0.00262916
0.00261493
0.00259981
0.00258274
0.00256797
0.00255365
0.00253935
0.00252515
0.00251106
0.00249707
0.00248304
0.00246887
0.00245445
0.00243969
0.00242451
0.00240881
0.0023925
0.00237546
0.00235765
0.00460559
0.0045113
0.00442063
0.00433339
0.00424943
0.00416852
0.00409042
0.00401488
0.00394161
0.00387034
0.00380083
0.00373287
0.00366625
0.00360087
0.00353664
0.00347355
0.00341164
0.003351
0.00329173
0.00323398
0.00317791
0.00312365
0.00307127
0.00302083
0.00297224
0.00292545
0.00288027
0.00283648
0.0027939
0.00275237
0.00271205
0.00267372
0.00263857
0.00260764
0.00258357
0.00258377
0.00260437
0.0026313
0.00266329
0.00269933
0.00273869
0.00278083
0.00282536
0.00287188
0.00292001
0.00296934
0.00301944
0.00306978
0.00311968
0.00316805
2.38399e-05
2.36872e-05
2.35181e-05
2.33544e-05
2.31832e-05
2.29867e-05
2.27645e-05
2.25279e-05
2.22893e-05
2.20584e-05
2.18404e-05
2.16402e-05
2.14602e-05
2.13005e-05
2.11582e-05
2.10285e-05
2.09052e-05
2.07816e-05
2.06511e-05
2.05081e-05
2.03014e-05
2.00786e-05
1.98425e-05
1.95993e-05
1.93549e-05
1.91194e-05
1.88987e-05
1.86965e-05
1.85164e-05
1.83598e-05
1.82258e-05
1.81115e-05
1.80121e-05
1.79212e-05
1.78319e-05
1.7737e-05
1.76303e-05
1.75047e-05
1.73564e-05
1.7189e-05
1.70093e-05
1.68264e-05
1.66502e-05
1.64895e-05
1.63514e-05
1.62412e-05
1.61605e-05
1.60989e-05
1.60015e-05
1.58344e-05
2.33127e-05
2.24551e-05
2.1574e-05
2.06793e-05
1.97995e-05
1.89465e-05
1.81267e-05
1.7349e-05
1.66233e-05
1.59573e-05
1.53559e-05
1.48181e-05
1.43393e-05
1.39119e-05
1.35258e-05
1.31696e-05
1.28316e-05
1.25013e-05
1.21705e-05
1.18309e-05
1.1598e-05
1.14036e-05
1.12351e-05
1.12769e-05
1.12731e-05
1.12482e-05
1.12208e-05
1.12043e-05
1.12047e-05
1.12237e-05
1.12593e-05
1.13063e-05
1.13571e-05
1.14029e-05
1.14341e-05
1.14424e-05
1.1422e-05
1.13732e-05
1.12996e-05
1.12055e-05
1.10983e-05
1.09875e-05
1.08827e-05
1.07919e-05
1.07202e-05
1.06722e-05
1.06591e-05
1.07096e-05
1.08812e-05
1.1154e-05
2.32652e-05
2.23455e-05
2.14436e-05
2.05434e-05
1.96573e-05
1.8797e-05
1.79711e-05
1.71874e-05
1.64531e-05
1.57738e-05
1.51517e-05
1.45854e-05
1.40704e-05
1.35999e-05
1.31659e-05
1.27594e-05
1.23719e-05
1.19958e-05
1.16239e-05
1.13425e-05
1.13076e-05
1.12319e-05
1.11283e-05
1.1011e-05
1.0889e-05
1.07708e-05
1.06636e-05
1.05724e-05
1.05e-05
1.04466e-05
1.04105e-05
1.03878e-05
1.0373e-05
1.03597e-05
1.03414e-05
1.03118e-05
1.02661e-05
1.02014e-05
1.0118e-05
1.00188e-05
9.9095e-06
9.79759e-06
9.69126e-06
9.59758e-06
9.51922e-06
9.45043e-06
9.37767e-06
9.29581e-06
9.2442e-06
9.33693e-06
2.32708e-05
2.23307e-05
2.14239e-05
2.05291e-05
1.96503e-05
1.87957e-05
1.79751e-05
1.71971e-05
1.64686e-05
1.57944e-05
1.51762e-05
1.46125e-05
1.40989e-05
1.36286e-05
1.31934e-05
1.27848e-05
1.23941e-05
1.20141e-05
1.16375e-05
1.13493e-05
1.1309e-05
1.12308e-05
1.11258e-05
1.10046e-05
1.08772e-05
1.07525e-05
1.06374e-05
1.05371e-05
1.04541e-05
1.03887e-05
1.03393e-05
1.0302e-05
1.02719e-05
1.02427e-05
1.02082e-05
1.01626e-05
1.01014e-05
1.00225e-05
9.92633e-06
9.81594e-06
9.6966e-06
9.57493e-06
9.45854e-06
9.35618e-06
9.27732e-06
9.22765e-06
9.19789e-06
9.15504e-06
9.07406e-06
9.0595e-06
2.32816e-05
2.23327e-05
2.14148e-05
2.05136e-05
1.96317e-05
1.87748e-05
1.79523e-05
1.71737e-05
1.64461e-05
1.5774e-05
1.51586e-05
1.45977e-05
1.40867e-05
1.36185e-05
1.3185e-05
1.27772e-05
1.23867e-05
1.20063e-05
1.1629e-05
1.13404e-05
1.12995e-05
1.12209e-05
1.11161e-05
1.09959e-05
1.087e-05
1.07474e-05
1.06347e-05
1.05368e-05
1.04558e-05
1.03918e-05
1.03429e-05
1.03051e-05
1.02733e-05
1.02413e-05
1.02031e-05
1.01532e-05
1.00876e-05
1.00046e-05
9.90502e-06
9.79226e-06
9.67173e-06
9.54941e-06
9.43042e-06
9.31893e-06
9.22097e-06
9.14772e-06
9.11015e-06
9.09533e-06
9.0503e-06
9.01641e-06
2.32834e-05
2.23341e-05
2.141e-05
2.05043e-05
1.96209e-05
1.87649e-05
1.79444e-05
1.71683e-05
1.6444e-05
1.57755e-05
1.51635e-05
1.46057e-05
1.40969e-05
1.363e-05
1.31968e-05
1.27886e-05
1.23969e-05
1.20148e-05
1.16354e-05
1.13445e-05
1.13014e-05
1.12214e-05
1.1116e-05
1.09962e-05
1.08718e-05
1.07514e-05
1.06415e-05
1.05465e-05
1.04683e-05
1.04066e-05
1.03591e-05
1.03216e-05
1.0289e-05
1.02551e-05
1.02142e-05
1.01613e-05
1.00927e-05
1.00074e-05
9.90615e-06
9.79273e-06
9.67291e-06
9.55378e-06
9.44155e-06
9.33904e-06
9.24533e-06
9.16189e-06
9.10101e-06
9.07374e-06
9.04326e-06
9.01025e-06
2.32787e-05
2.23269e-05
2.13984e-05
2.04882e-05
1.9602e-05
1.87453e-05
1.79258e-05
1.71517e-05
1.64299e-05
1.57642e-05
1.5155e-05
1.45995e-05
1.40925e-05
1.36266e-05
1.31936e-05
1.27847e-05
1.23917e-05
1.20078e-05
1.16266e-05
1.13344e-05
1.12902e-05
1.12097e-05
1.11049e-05
1.09867e-05
1.08649e-05
1.07479e-05
1.06419e-05
1.05508e-05
1.0476e-05
1.0417e-05
1.03709e-05
1.03337e-05
1.02999e-05
1.02638e-05
1.02199e-05
1.01637e-05
1.00924e-05
1.00052e-05
9.90337e-06
9.79026e-06
9.67074e-06
9.55126e-06
9.43922e-06
9.34061e-06
9.25588e-06
9.17963e-06
9.11221e-06
9.06849e-06
9.03432e-06
9.00003e-06
2.32734e-05
2.23146e-05
2.13815e-05
2.04678e-05
1.95795e-05
1.87227e-05
1.79051e-05
1.71342e-05
1.64161e-05
1.57544e-05
1.51488e-05
1.45965e-05
1.40917e-05
1.36272e-05
1.31946e-05
1.27851e-05
1.23909e-05
1.20054e-05
1.16224e-05
1.13285e-05
1.12829e-05
1.1202e-05
1.10978e-05
1.09815e-05
1.08628e-05
1.07495e-05
1.06474e-05
1.056e-05
1.04883e-05
1.04312e-05
1.03857e-05
1.03475e-05
1.03112e-05
1.02715e-05
1.02233e-05
1.01628e-05
1.00879e-05
9.99854e-06
9.89669e-06
9.78582e-06
9.67013e-06
9.55409e-06
9.44296e-06
9.34315e-06
9.25924e-06
9.18826e-06
9.1231e-06
9.07066e-06
9.02796e-06
8.98775e-06
2.327e-05
2.23012e-05
2.13618e-05
2.04445e-05
1.95544e-05
1.86976e-05
1.78815e-05
1.71135e-05
1.63991e-05
1.5741e-05
1.51388e-05
1.45892e-05
1.40863e-05
1.36227e-05
1.31901e-05
1.27798e-05
1.23842e-05
1.19969e-05
1.16122e-05
1.13171e-05
1.12708e-05
1.11904e-05
1.10882e-05
1.09751e-05
1.08606e-05
1.0752e-05
1.06546e-05
1.05711e-05
1.05021e-05
1.04461e-05
1.04e-05
1.03592e-05
1.03187e-05
1.02737e-05
1.02197e-05
1.01538e-05
1.00747e-05
9.98268e-06
9.88025e-06
9.77124e-06
9.66011e-06
9.5506e-06
9.44551e-06
9.3482e-06
9.26341e-06
9.19251e-06
9.12891e-06
9.0724e-06
9.0221e-06
8.97416e-06
2.32676e-05
2.22884e-05
2.13414e-05
2.04199e-05
1.9528e-05
1.86715e-05
1.78573e-05
1.70924e-05
1.63817e-05
1.57274e-05
1.51287e-05
1.45819e-05
1.40809e-05
1.36183e-05
1.31856e-05
1.27745e-05
1.23775e-05
1.19886e-05
1.16026e-05
1.13064e-05
1.12593e-05
1.11791e-05
1.10781e-05
1.09673e-05
1.08558e-05
1.07507e-05
1.06566e-05
1.05758e-05
1.05083e-05
1.04522e-05
1.04041e-05
1.03596e-05
1.0314e-05
1.02628e-05
1.02025e-05
1.01312e-05
1.00482e-05
9.95457e-06
9.85277e-06
9.74641e-06
9.63977e-06
9.53676e-06
9.43955e-06
9.34887e-06
9.26655e-06
9.19502e-06
9.13077e-06
9.07109e-06
9.01443e-06
8.95862e-06
2.32646e-05
2.22755e-05
2.13206e-05
2.03944e-05
1.95008e-05
1.86446e-05
1.78326e-05
1.70709e-05
1.6364e-05
1.57134e-05
1.5118e-05
1.45738e-05
1.40745e-05
1.36125e-05
1.31796e-05
1.27676e-05
1.23691e-05
1.19786e-05
1.15913e-05
1.1294e-05
1.12453e-05
1.11636e-05
1.10617e-05
1.09507e-05
1.08399e-05
1.07361e-05
1.06438e-05
1.05647e-05
1.04984e-05
1.04426e-05
1.03934e-05
1.03465e-05
1.02971e-05
1.02414e-05
1.01766e-05
1.01014e-05
1.00162e-05
9.9228e-06
9.82382e-06
9.72239e-06
9.6219e-06
9.5257e-06
9.43596e-06
9.35264e-06
9.27497e-06
9.20383e-06
9.13756e-06
9.07363e-06
9.01022e-06
8.94597e-06
2.32609e-05
2.22618e-05
2.12991e-05
2.03683e-05
1.94728e-05
1.86171e-05
1.78074e-05
1.7049e-05
1.63458e-05
1.5699e-05
1.51067e-05
1.45649e-05
1.4067e-05
1.36055e-05
1.31722e-05
1.2759e-05
1.23591e-05
1.19671e-05
1.15788e-05
1.12812e-05
1.12328e-05
1.11526e-05
1.10534e-05
1.0946e-05
1.08394e-05
1.07399e-05
1.06513e-05
1.0575e-05
1.05099e-05
1.04535e-05
1.04017e-05
1.03503e-05
1.0295e-05
1.02326e-05
1.01612e-05
1.00804e-05
9.99159e-06
9.89713e-06
9.80011e-06
9.70345e-06
9.60956e-06
9.52045e-06
9.43755e-06
9.36065e-06
9.28777e-06
9.21783e-06
9.14937e-06
9.08049e-06
9.00983e-06
8.93679e-06
2.32567e-05
2.22475e-05
2.1277e-05
2.03418e-05
1.94447e-05
1.85897e-05
1.77823e-05
1.70275e-05
1.63282e-05
1.5685e-05
1.5096e-05
1.45564e-05
1.40599e-05
1.35989e-05
1.31651e-05
1.27508e-05
1.23495e-05
1.19563e-05
1.15674e-05
1.12699e-05
1.12221e-05
1.1144e-05
1.10481e-05
1.0945e-05
1.08428e-05
1.07475e-05
1.06623e-05
1.05878e-05
1.05227e-05
1.04641e-05
1.04081e-05
1.03506e-05
1.02881e-05
1.0218e-05
1.01395e-05
1.00533e-05
9.9613e-06
9.86647e-06
9.77209e-06
9.68098e-06
9.59492e-06
9.51458e-06
9.43995e-06
9.37012e-06
9.30259e-06
9.23493e-06
9.16519e-06
9.09183e-06
9.01419e-06
8.93258e-06
2.32526e-05
2.22329e-05
2.1255e-05
2.03155e-05
1.94168e-05
1.85625e-05
1.77574e-05
1.70056e-05
1.63098e-05
1.56699e-05
1.50834e-05
1.45456e-05
1.40499e-05
1.35888e-05
1.31541e-05
1.27385e-05
1.23356e-05
1.19412e-05
1.15518e-05
1.1255e-05
1.12085e-05
1.11332e-05
1.10412e-05
1.09428e-05
1.08458e-05
1.07553e-05
1.06738e-05
1.06017e-05
1.0537e-05
1.04767e-05
1.04169e-05
1.03537e-05
1.02843e-05
1.02072e-05
1.01223e-05
1.00313e-05
9.93692e-06
9.84243e-06
9.7511e-06
9.66551e-06
9.58697e-06
9.51523e-06
9.44886e-06
9.38578e-06
9.32293e-06
9.25711e-06
9.18586e-06
9.10783e-06
9.02305e-06
8.93285e-06
2.32486e-05
2.22189e-05
2.12338e-05
2.02904e-05
1.93907e-05
1.85377e-05
1.77353e-05
1.69873e-05
1.62953e-05
1.5659e-05
1.50753e-05
1.45394e-05
1.40446e-05
1.35833e-05
1.31478e-05
1.27309e-05
1.23268e-05
1.19315e-05
1.15421e-05
1.12492e-05
1.12027e-05
1.11291e-05
1.10405e-05
1.09465e-05
1.08541e-05
1.07679e-05
1.06899e-05
1.06198e-05
1.05553e-05
1.04931e-05
1.04294e-05
1.03609e-05
1.02851e-05
1.02015e-05
1.0111e-05
1.00159e-05
9.91981e-06
9.82619e-06
9.73823e-06
9.65808e-06
9.58652e-06
9.52256e-06
9.46372e-06
9.40672e-06
9.34774e-06
9.28309e-06
9.21003e-06
9.12737e-06
9.03582e-06
8.93774e-06
2.32447e-05
2.22054e-05
2.1213e-05
2.02651e-05
1.93631e-05
1.85098e-05
1.77087e-05
1.69626e-05
1.62729e-05
1.56387e-05
1.50567e-05
1.45217e-05
1.40269e-05
1.3565e-05
1.31284e-05
1.27101e-05
1.23048e-05
1.19088e-05
1.15212e-05
1.14176e-05
1.13082e-05
1.11955e-05
1.10833e-05
1.09757e-05
1.08761e-05
1.07864e-05
1.07064e-05
1.06347e-05
1.05681e-05
1.05027e-05
1.04347e-05
1.03611e-05
1.028e-05
1.01915e-05
1.00972e-05
1.00001e-05
9.90415e-06
9.81301e-06
9.72971e-06
9.65593e-06
9.59179e-06
9.53567e-06
9.48429e-06
9.43345e-06
9.37861e-06
9.31572e-06
9.24201e-06
9.15662e-06
9.0609e-06
8.95818e-06
2.32412e-05
2.21936e-05
2.11962e-05
2.02468e-05
1.93457e-05
1.84951e-05
1.76976e-05
1.69555e-05
1.62693e-05
1.56378e-05
1.50575e-05
1.4523e-05
1.40279e-05
1.35647e-05
1.31263e-05
1.27061e-05
1.22991e-05
1.1902e-05
1.15142e-05
1.14137e-05
1.13068e-05
1.11967e-05
1.10875e-05
1.09833e-05
1.08868e-05
1.07995e-05
1.0721e-05
1.06494e-05
1.05815e-05
1.05135e-05
1.04421e-05
1.03645e-05
1.02798e-05
1.01885e-05
1.00929e-05
9.99654e-06
9.90338e-06
9.81725e-06
9.74096e-06
9.67581e-06
9.62136e-06
9.57546e-06
9.53428e-06
9.49304e-06
9.44674e-06
9.3911e-06
9.32339e-06
9.24307e-06
9.15208e-06
9.0546e-06
2.3238e-05
2.21764e-05
2.11663e-05
2.02074e-05
1.92999e-05
1.8446e-05
1.76478e-05
1.6907e-05
1.62235e-05
1.55952e-05
1.50184e-05
1.44876e-05
1.39959e-05
1.35361e-05
1.31012e-05
1.26847e-05
1.22816e-05
1.18888e-05
1.15057e-05
1.14107e-05
1.13065e-05
1.12031e-05
1.11019e-05
1.10065e-05
1.09189e-05
1.084e-05
1.07699e-05
1.07064e-05
1.06462e-05
1.05856e-05
1.05218e-05
1.04528e-05
1.03781e-05
1.02985e-05
1.02166e-05
1.01358e-05
1.00601e-05
9.99319e-06
9.93772e-06
9.89485e-06
9.86392e-06
9.84234e-06
9.82588e-06
9.80922e-06
9.78681e-06
9.7539e-06
9.70752e-06
9.64719e-06
9.57538e-06
9.49733e-06
2.32383e-05
2.21807e-05
2.11816e-05
2.0237e-05
1.93486e-05
1.85186e-05
1.77478e-05
1.70373e-05
1.63871e-05
1.57956e-05
1.52592e-05
1.47723e-05
1.43279e-05
1.3918e-05
1.35341e-05
1.31682e-05
1.28138e-05
1.24661e-05
1.21231e-05
1.17834e-05
1.14637e-05
1.14687e-05
1.1463e-05
1.14482e-05
1.14268e-05
1.14069e-05
1.13916e-05
1.13793e-05
1.13664e-05
1.13502e-05
1.1329e-05
1.13017e-05
1.1268e-05
1.1229e-05
1.1187e-05
1.11462e-05
1.11109e-05
1.10856e-05
1.10735e-05
1.10759e-05
1.10917e-05
1.11172e-05
1.11466e-05
1.11725e-05
1.11873e-05
1.11847e-05
1.1161e-05
1.1116e-05
1.10538e-05
1.09828e-05
2.38362e-05
2.36146e-05
2.33943e-05
2.31768e-05
2.29629e-05
2.27538e-05
2.25526e-05
2.23619e-05
2.21828e-05
2.20151e-05
2.1857e-05
2.17057e-05
2.15576e-05
2.14087e-05
2.12555e-05
2.10954e-05
2.09272e-05
2.07513e-05
2.05696e-05
2.03851e-05
2.01978e-05
1.99678e-05
1.97481e-05
1.95441e-05
1.93563e-05
1.91799e-05
1.90114e-05
1.88478e-05
1.86859e-05
1.85224e-05
1.83548e-05
1.81831e-05
1.80092e-05
1.78364e-05
1.76688e-05
1.75107e-05
1.73652e-05
1.7234e-05
1.71167e-05
1.70111e-05
1.69131e-05
1.68174e-05
1.67182e-05
1.661e-05
1.64889e-05
1.63528e-05
1.62022e-05
1.60401e-05
1.58714e-05
1.57022e-05
1.0913e-05
6.24714e-06
4.28631e-06
3.27406e-06
2.81841e-06
2.61876e-06
2.5158e-06
2.44981e-06
2.39418e-06
2.3408e-06
2.28557e-06
2.2283e-06
2.17115e-06
2.11977e-06
2.08944e-06
2.10223e-06
2.18563e-06
2.325e-06
2.44144e-06
2.44245e-06
1.11742e-05
6.34142e-06
4.30645e-06
3.29314e-06
2.84075e-06
2.64353e-06
2.54155e-06
2.47515e-06
2.41805e-06
2.36262e-06
2.3055e-06
2.24676e-06
2.1886e-06
2.1365e-06
2.10591e-06
2.11931e-06
2.20518e-06
2.34965e-06
2.47312e-06
2.48792e-06
1.19868e-05
6.35703e-06
4.3077e-06
3.31194e-06
2.86521e-06
2.67037e-06
2.56829e-06
2.50005e-06
2.44035e-06
2.38227e-06
2.32294e-06
2.26275e-06
2.20394e-06
2.15218e-06
2.12318e-06
2.13967e-06
2.23062e-06
2.3819e-06
2.51091e-06
2.52465e-06
1.20449e-05
6.3142e-06
4.32085e-06
3.3323e-06
2.88837e-06
2.69444e-06
2.59183e-06
2.52179e-06
2.45969e-06
2.39952e-06
2.33874e-06
2.27793e-06
2.21948e-06
2.16911e-06
2.14281e-06
2.16377e-06
2.26148e-06
2.42116e-06
2.55481e-06
2.5517e-06
1.20614e-05
6.30022e-06
4.33576e-06
3.35259e-06
2.91087e-06
2.71783e-06
2.61489e-06
2.54347e-06
2.47958e-06
2.41784e-06
2.35584e-06
2.29429e-06
2.23543e-06
2.18472e-06
2.15829e-06
2.17976e-06
2.27964e-06
2.44433e-06
2.58395e-06
2.57196e-06
1.20689e-05
6.30172e-06
4.35389e-06
3.37435e-06
2.93462e-06
2.74263e-06
2.63967e-06
2.56733e-06
2.50197e-06
2.43844e-06
2.37452e-06
2.3112e-06
2.25088e-06
2.19911e-06
2.17183e-06
2.19225e-06
2.29087e-06
2.45526e-06
2.59825e-06
2.58817e-06
1.20789e-05
6.32225e-06
4.37799e-06
3.39969e-06
2.96138e-06
2.77034e-06
2.66735e-06
2.59414e-06
2.52702e-06
2.46088e-06
2.3935e-06
2.32598e-06
2.26153e-06
2.20667e-06
2.17782e-06
2.19787e-06
2.29637e-06
2.46028e-06
2.60581e-06
2.60539e-06
1.20981e-05
6.35935e-06
4.40841e-06
3.42891e-06
2.99114e-06
2.80043e-06
2.69697e-06
2.6223e-06
2.55274e-06
2.4833e-06
2.41178e-06
2.33952e-06
2.2702e-06
2.21117e-06
2.17985e-06
2.1996e-06
2.29958e-06
2.46554e-06
2.61524e-06
2.62786e-06
1.21345e-05
6.40782e-06
4.44219e-06
3.45968e-06
3.02157e-06
2.83043e-06
2.72579e-06
2.64874e-06
2.57576e-06
2.50212e-06
2.42613e-06
2.34979e-06
2.27717e-06
2.21582e-06
2.18341e-06
2.20364e-06
2.30618e-06
2.47634e-06
2.63195e-06
2.6566e-06
1.21851e-05
6.45725e-06
4.47416e-06
3.48806e-06
3.04915e-06
2.857e-06
2.75065e-06
2.67094e-06
2.5945e-06
2.51682e-06
2.43684e-06
2.35746e-06
2.28343e-06
2.22234e-06
2.19133e-06
2.21374e-06
2.31979e-06
2.49515e-06
2.6571e-06
2.68973e-06
1.2239e-05
6.49703e-06
4.49846e-06
3.51074e-06
3.07132e-06
2.87788e-06
2.76943e-06
2.68708e-06
2.60785e-06
2.52751e-06
2.44538e-06
2.36487e-06
2.29122e-06
2.23208e-06
2.2041e-06
2.22995e-06
2.3401e-06
2.52071e-06
2.68834e-06
2.7242e-06
1.22867e-05
6.51753e-06
4.51435e-06
3.52726e-06
3.08806e-06
2.89365e-06
2.78324e-06
2.69853e-06
2.61721e-06
2.53558e-06
2.45324e-06
2.37361e-06
2.30185e-06
2.24549e-06
2.22089e-06
2.25027e-06
2.36422e-06
2.54939e-06
2.72161e-06
2.75772e-06
1.23185e-05
6.5237e-06
4.52484e-06
3.53946e-06
3.10136e-06
2.90664e-06
2.79496e-06
2.70866e-06
2.62603e-06
2.54398e-06
2.46243e-06
2.38463e-06
2.31537e-06
2.26181e-06
2.24003e-06
2.27209e-06
2.38887e-06
2.57762e-06
2.75372e-06
2.78973e-06
1.23343e-05
6.52677e-06
4.5334e-06
3.55077e-06
3.11438e-06
2.91996e-06
2.80774e-06
2.72065e-06
2.63749e-06
2.55552e-06
2.47479e-06
2.39856e-06
2.3313e-06
2.27975e-06
2.25976e-06
2.29344e-06
2.41207e-06
2.60375e-06
2.78379e-06
2.82128e-06
1.23415e-05
6.53399e-06
4.54308e-06
3.56374e-06
3.1296e-06
2.93608e-06
2.82382e-06
2.73645e-06
2.65311e-06
2.57117e-06
2.49078e-06
2.41524e-06
2.34886e-06
2.2982e-06
2.27901e-06
2.31357e-06
2.43364e-06
2.62832e-06
2.81312e-06
2.8541e-06
1.23533e-05
6.54133e-06
4.55407e-06
3.57863e-06
3.14734e-06
2.95528e-06
2.84345e-06
2.75595e-06
2.67222e-06
2.58983e-06
2.50908e-06
2.43333e-06
2.36685e-06
2.31628e-06
2.29744e-06
2.33279e-06
2.45461e-06
2.65309e-06
2.8439e-06
2.88952e-06
1.23702e-05
6.54453e-06
4.56415e-06
3.59367e-06
3.16582e-06
2.97568e-06
2.86454e-06
2.77679e-06
2.69225e-06
2.60882e-06
2.52714e-06
2.45065e-06
2.3838e-06
2.33334e-06
2.31517e-06
2.35188e-06
2.47633e-06
2.67983e-06
2.87791e-06
2.92791e-06
1.23839e-05
6.53852e-06
4.57052e-06
3.60654e-06
3.18258e-06
2.99446e-06
2.8839e-06
2.79556e-06
2.70981e-06
2.62506e-06
2.54232e-06
2.46533e-06
2.39868e-06
2.34915e-06
2.3326e-06
2.37167e-06
2.49985e-06
2.70954e-06
2.91581e-06
2.9687e-06
1.23837e-05
6.52217e-06
4.57216e-06
3.61601e-06
3.1961e-06
3.00969e-06
2.89912e-06
2.80974e-06
2.72261e-06
2.63671e-06
2.5535e-06
2.47697e-06
2.4117e-06
2.36434e-06
2.35056e-06
2.39297e-06
2.52572e-06
2.74228e-06
2.95695e-06
3.01061e-06
1.23644e-05
6.50129e-06
4.57133e-06
3.62317e-06
3.20693e-06
3.02143e-06
2.91008e-06
2.81926e-06
2.73091e-06
2.64456e-06
2.56199e-06
2.48722e-06
2.42461e-06
2.38052e-06
2.37028e-06
2.41648e-06
2.55399e-06
2.77727e-06
2.99968e-06
3.05207e-06
1.23318e-05
6.48643e-06
4.57269e-06
3.63126e-06
3.21751e-06
3.03182e-06
2.91902e-06
2.82674e-06
2.73772e-06
2.65193e-06
2.57122e-06
2.49934e-06
2.44021e-06
2.39975e-06
2.39303e-06
2.44259e-06
2.58415e-06
2.81308e-06
3.04164e-06
3.09156e-06
1.23016e-05
6.48665e-06
4.58134e-06
3.64388e-06
3.23088e-06
3.04399e-06
2.92947e-06
2.83615e-06
2.74738e-06
2.66324e-06
2.58528e-06
2.51674e-06
2.46101e-06
2.42362e-06
2.41934e-06
2.47093e-06
2.61507e-06
2.84777e-06
3.08041e-06
3.12798e-06
1.22905e-05
6.50534e-06
4.59967e-06
3.66283e-06
3.24893e-06
3.06027e-06
2.94438e-06
2.85092e-06
2.76347e-06
2.68181e-06
2.60688e-06
2.54134e-06
2.48805e-06
2.45222e-06
2.44851e-06
2.50024e-06
2.64508e-06
2.87924e-06
3.11447e-06
3.16108e-06
1.23053e-05
6.53906e-06
4.62552e-06
3.68684e-06
3.27118e-06
3.08097e-06
2.96467e-06
2.87231e-06
2.78717e-06
2.70839e-06
2.6362e-06
2.57265e-06
2.52022e-06
2.48396e-06
2.47877e-06
2.52882e-06
2.67243e-06
2.90682e-06
3.14333e-06
3.19179e-06
1.23396e-05
6.57679e-06
4.65272e-06
3.71197e-06
3.2949e-06
3.10417e-06
2.98889e-06
2.8989e-06
2.81684e-06
2.74095e-06
2.67078e-06
2.60796e-06
2.55478e-06
2.51636e-06
2.50821e-06
2.55538e-06
2.69693e-06
2.93094e-06
3.16827e-06
3.222e-06
1.23782e-05
6.60108e-06
4.67399e-06
3.73363e-06
3.31658e-06
3.12691e-06
3.01418e-06
2.9276e-06
2.84899e-06
2.77574e-06
2.7069e-06
2.64382e-06
2.58891e-06
2.54758e-06
2.53604e-06
2.58022e-06
2.71977e-06
2.9536e-06
3.19194e-06
3.25377e-06
1.24016e-05
6.60015e-06
4.68525e-06
3.74912e-06
3.33407e-06
3.14708e-06
3.038e-06
2.95536e-06
2.88021e-06
2.80936e-06
2.74152e-06
2.67797e-06
2.62136e-06
2.57753e-06
2.56317e-06
2.60504e-06
2.74338e-06
2.97742e-06
3.21742e-06
3.28835e-06
1.23913e-05
6.5801e-06
4.68819e-06
3.75952e-06
3.34815e-06
3.16477e-06
3.05966e-06
2.98086e-06