/*--------------------------------*- C++ -*----------------------------------*\
  =========                 |
  \\      /  F ield         | OpenFOAM: The Open Source CFD Toolbox
   \\    /   O peration     | Website:  https://openfoam.org
    \\  /    A nd           | Version:  8
     \\/     M anipulation  |
\*---------------------------------------------------------------------------*/
FoamFile
{
    version     2.0;
    format      ascii;
    class       volScalarField;
    location    "800";
    object      nut;
}
// * * * * * * * * * * * * * * * * * * * * * * * * * * * * * * * * * * * * * //

dimensions      [0 2 -1 0 0 0 0];

internalField   nonuniform List<scalar> 
8400
(
5.32494e-05
5.28903e-05
5.24598e-05
5.19381e-05
5.13532e-05
5.07746e-05
5.02016e-05
4.96318e-05
4.90687e-05
4.85153e-05
4.80223e-05
4.76529e-05
4.73501e-05
4.70949e-05
4.68878e-05
4.66997e-05
4.64459e-05
4.60482e-05
4.55112e-05
4.49995e-05
4.45678e-05
4.41794e-05
4.38221e-05
4.34457e-05
4.296e-05
4.235e-05
4.17144e-05
4.11916e-05
4.08567e-05
4.06923e-05
4.0652e-05
4.07042e-05
4.08243e-05
4.09806e-05
4.11394e-05
4.1267e-05
4.13394e-05
4.13421e-05
4.12727e-05
4.11329e-05
4.09319e-05
4.06791e-05
4.03875e-05
4.00667e-05
3.97262e-05
3.93767e-05
3.9027e-05
3.8684e-05
3.83547e-05
3.80456e-05
4.11638e-05
4.15061e-05
4.20421e-05
4.27434e-05
4.3518e-05
4.42582e-05
4.49411e-05
4.55744e-05
4.61525e-05
4.66647e-05
4.66954e-05
4.59979e-05
4.48125e-05
4.33187e-05
4.18049e-05
4.07818e-05
4.08075e-05
4.18387e-05
4.33377e-05
4.4469e-05
4.53296e-05
4.61266e-05
4.68925e-05
4.69055e-05
4.60869e-05
4.45454e-05
4.25865e-05
4.0473e-05
3.84486e-05
3.66612e-05
3.50575e-05
3.35303e-05
3.20639e-05
3.07002e-05
2.94593e-05
2.8395e-05
2.75146e-05
2.68141e-05
2.6276e-05
2.58747e-05
2.55885e-05
2.53946e-05
2.52682e-05
2.51893e-05
2.51405e-05
2.51049e-05
2.50671e-05
2.50123e-05
2.49264e-05
2.47957e-05
4.98082e-05
4.96343e-05
5.00476e-05
5.07611e-05
5.15814e-05
5.23915e-05
5.31903e-05
5.38068e-05
5.41254e-05
5.40206e-05
5.3148e-05
5.19741e-05
5.04215e-05
4.84419e-05
4.73841e-05
4.66708e-05
4.70944e-05
4.87439e-05
5.03214e-05
5.20132e-05
5.36907e-05
5.52105e-05
5.59112e-05
5.55742e-05
5.42533e-05
5.2173e-05
4.97181e-05
4.70547e-05
4.47717e-05
4.34309e-05
4.23265e-05
4.1217e-05
4.01626e-05
3.91714e-05
3.81973e-05
3.73309e-05
3.65855e-05
3.59765e-05
3.55041e-05
3.51592e-05
3.49221e-05
3.47764e-05
3.47003e-05
3.46706e-05
3.46713e-05
3.46837e-05
3.46909e-05
3.46793e-05
3.46356e-05
3.45466e-05
6.14349e-05
6.13594e-05
6.12805e-05
6.12018e-05
6.12042e-05
6.13458e-05
6.14682e-05
6.15528e-05
6.17046e-05
6.10778e-05
6.03949e-05
5.96253e-05
5.80733e-05
4.6087e-05
4.9326e-05
5.09975e-05
5.23892e-05
5.37419e-05
5.58918e-05
5.86038e-05
6.1559e-05
6.31998e-05
6.25925e-05
6.17499e-05
6.05533e-05
5.87081e-05
5.64547e-05
5.30322e-05
4.79901e-05
4.7073e-05
4.62917e-05
4.50426e-05
4.44082e-05
4.39239e-05
4.33888e-05
4.29537e-05
4.25609e-05
4.22297e-05
4.19734e-05
4.17919e-05
4.16807e-05
4.16316e-05
4.16276e-05
4.16536e-05
4.16963e-05
4.17448e-05
4.17903e-05
4.18203e-05
4.18257e-05
4.17989e-05
6.14775e-05
6.14538e-05
6.14289e-05
6.1403e-05
6.13781e-05
6.13577e-05
6.13394e-05
6.1312e-05
6.12611e-05
6.11633e-05
6.10241e-05
6.08523e-05
6.06446e-05
6.02139e-05
5.99075e-05
5.97991e-05
5.96799e-05
5.95986e-05
5.96704e-05
5.99367e-05
6.01746e-05
6.03309e-05
6.0455e-05
6.0539e-05
6.05819e-05
6.05873e-05
6.151e-05
6.78986e-05
4.98655e-05
5.02992e-05
5.04273e-05
4.64602e-05
4.60621e-05
4.59198e-05
4.54771e-05
4.543e-05
4.53468e-05
4.52935e-05
4.52489e-05
4.52246e-05
4.52264e-05
4.52488e-05
4.52889e-05
4.534e-05
4.53935e-05
4.54451e-05
4.54919e-05
4.55319e-05
4.55601e-05
4.55762e-05
6.1469e-05
6.14366e-05
6.14045e-05
6.1373e-05
6.13423e-05
6.13126e-05
6.12835e-05
6.12528e-05
6.12168e-05
6.11734e-05
6.11229e-05
6.10679e-05
6.10101e-05
6.09454e-05
6.08861e-05
6.08413e-05
6.08013e-05
6.07618e-05
6.07281e-05
6.07123e-05
6.07202e-05
6.0748e-05
6.07856e-05
6.08224e-05
6.08473e-05
6.08514e-05
6.09694e-05
6.06226e-05
5.8634e-05
5.90212e-05
6.44053e-05
4.65962e-05
4.68962e-05
4.74232e-05
4.56397e-05
4.59936e-05
4.58608e-05
4.60403e-05
4.61536e-05
4.62314e-05
4.62863e-05
4.63273e-05
4.63578e-05
4.63822e-05
4.63994e-05
4.64087e-05
4.64158e-05
4.64247e-05
4.64379e-05
4.6462e-05
6.14659e-05
6.143e-05
6.13938e-05
6.13576e-05
6.13217e-05
6.12861e-05
6.12511e-05
6.12166e-05
6.1182e-05
6.11471e-05
6.11113e-05
6.10749e-05
6.10382e-05
6.10006e-05
6.09626e-05
6.09239e-05
6.08838e-05
6.08421e-05
6.07998e-05
6.07593e-05
6.0727e-05
6.07084e-05
6.07039e-05
6.07094e-05
6.0717e-05
6.07132e-05
6.0703e-05
6.04784e-05
5.99195e-05
5.9581e-05
5.88363e-05
5.60879e-05
5.84006e-05
5.3805e-05
4.42054e-05
4.68181e-05
4.48822e-05
4.5204e-05
4.55089e-05
4.56285e-05
4.56884e-05
4.56774e-05
4.5636e-05
4.5591e-05
4.55393e-05
4.54822e-05
4.54275e-05
4.53876e-05
4.53735e-05
4.53931e-05
6.14592e-05
6.14163e-05
6.13734e-05
6.13301e-05
6.12875e-05
6.12453e-05
6.12038e-05
6.11637e-05
6.11251e-05
6.10873e-05
6.10504e-05
6.10134e-05
6.09761e-05
6.09379e-05
6.08983e-05
6.0857e-05
6.08132e-05
6.07673e-05
6.07198e-05
6.06726e-05
6.06305e-05
6.05991e-05
6.05814e-05
6.05768e-05
6.05786e-05
6.05726e-05
6.05421e-05
6.04029e-05
6.01119e-05
5.97664e-05
5.9185e-05
5.81959e-05
5.77771e-05
5.52961e-05
5.50145e-05
5.70944e-05
4.26765e-05
4.23894e-05
4.44196e-05
4.40368e-05
4.40909e-05
4.39772e-05
4.38249e-05
4.37361e-05
4.36478e-05
4.35631e-05
4.35029e-05
4.34862e-05
4.35153e-05
4.35827e-05
6.14512e-05
6.13989e-05
6.13469e-05
6.12946e-05
6.1243e-05
6.11919e-05
6.11423e-05
6.10938e-05
6.10471e-05
6.10016e-05
6.09579e-05
6.09154e-05
6.08732e-05
6.08305e-05
6.0786e-05
6.07394e-05
6.06903e-05
6.06387e-05
6.05858e-05
6.05342e-05
6.04879e-05
6.04528e-05
6.04335e-05
6.04299e-05
6.0435e-05
6.04346e-05
6.04079e-05
6.03092e-05
6.0109e-05
5.98225e-05
5.93914e-05
5.87976e-05
5.82242e-05
5.71538e-05
5.64633e-05
5.47744e-05
5.13347e-05
5.57848e-05
4.98766e-05
4.11165e-05
4.11464e-05
4.11843e-05
4.18878e-05
4.159e-05
4.16922e-05
4.18295e-05
4.20074e-05
4.22575e-05
4.25708e-05
4.28206e-05
6.14375e-05
6.13699e-05
6.13034e-05
6.12367e-05
6.11708e-05
6.11066e-05
6.10445e-05
6.09858e-05
6.09298e-05
6.0876e-05
6.08243e-05
6.07748e-05
6.07252e-05
6.06749e-05
6.06241e-05
6.05706e-05
6.05147e-05
6.04575e-05
6.04e-05
6.03459e-05
6.02996e-05
6.02677e-05
6.02556e-05
6.02623e-05
6.02795e-05
6.0292e-05
6.02776e-05
6.02053e-05
6.00515e-05
5.98141e-05
5.94726e-05
5.90316e-05
5.85406e-05
5.78817e-05
5.72728e-05
5.62994e-05
5.4931e-05
5.47343e-05
5.18142e-05
4.87291e-05
4.73677e-05
5.13288e-05
6.41207e-05
3.89766e-05
4.01272e-05
4.10473e-05
4.2356e-05
4.39522e-05
4.48686e-05
4.50628e-05
6.14124e-05
6.13165e-05
6.12236e-05
6.11333e-05
6.10445e-05
6.0961e-05
6.08812e-05
6.08053e-05
6.07351e-05
6.06711e-05
6.06119e-05
6.05555e-05
6.05007e-05
6.04448e-05
6.03884e-05
6.03302e-05
6.02686e-05
6.02055e-05
6.0144e-05
6.00911e-05
6.0053e-05
6.00356e-05
6.00438e-05
6.00726e-05
6.01116e-05
6.01433e-05
6.01457e-05
6.00934e-05
5.99692e-05
5.97667e-05
5.94812e-05
5.91211e-05
5.87085e-05
5.82199e-05
5.77204e-05
5.70815e-05
5.63124e-05
5.56964e-05
5.44408e-05
5.32075e-05
5.239e-05
5.22163e-05
5.17609e-05
4.92789e-05
4.80842e-05
4.76889e-05
4.78292e-05
4.81413e-05
4.80981e-05
4.8509e-05
6.13576e-05
6.11945e-05
6.10461e-05
6.0912e-05
6.07871e-05
6.06728e-05
6.05724e-05
6.0483e-05
6.04042e-05
6.03324e-05
6.02689e-05
6.02114e-05
6.01565e-05
6.00993e-05
6.00422e-05
5.99845e-05
5.99208e-05
5.98583e-05
5.98027e-05
5.9762e-05
5.9747e-05
5.97625e-05
5.98083e-05
5.98729e-05
5.99412e-05
5.99947e-05
6.00131e-05
5.99752e-05
5.98688e-05
5.96909e-05
5.94416e-05
5.91319e-05
5.8777e-05
5.83781e-05
5.79612e-05
5.74873e-05
5.6963e-05
5.64437e-05
5.57588e-05
5.50752e-05
5.45071e-05
5.40251e-05
5.34673e-05
5.27382e-05
5.21912e-05
5.19043e-05
5.18456e-05
5.1907e-05
5.1975e-05
5.17148e-05
6.06421e-05
6.05602e-05
6.04293e-05
6.02631e-05
6.01331e-05
5.99974e-05
5.99193e-05
5.98431e-05
5.9794e-05
5.97613e-05
5.9724e-05
5.96829e-05
5.96494e-05
5.96097e-05
5.95557e-05
5.95024e-05
5.9454e-05
5.94093e-05
5.93842e-05
5.93832e-05
5.94206e-05
5.94882e-05
5.95851e-05
5.96903e-05
5.97868e-05
5.98567e-05
5.98816e-05
5.98497e-05
5.97516e-05
5.95886e-05
5.93641e-05
5.90882e-05
5.87754e-05
5.8433e-05
5.80752e-05
5.76938e-05
5.72919e-05
5.68836e-05
5.64323e-05
5.59811e-05
5.55665e-05
5.51784e-05
5.47919e-05
5.44136e-05
5.4099e-05
5.38707e-05
5.37168e-05
5.3597e-05
5.34586e-05
5.32527e-05
6.00433e-05
5.97256e-05
5.95763e-05
5.94441e-05
5.93435e-05
5.92657e-05
5.92151e-05
5.91702e-05
5.91389e-05
5.91155e-05
5.90928e-05
5.90664e-05
5.9041e-05
5.90227e-05
5.90046e-05
5.89947e-05
5.90009e-05
5.90214e-05
5.90641e-05
5.91299e-05
5.92238e-05
5.93327e-05
5.94518e-05
5.9564e-05
5.96573e-05
5.97308e-05
5.97486e-05
5.97108e-05
5.96113e-05
5.94557e-05
5.92466e-05
5.89956e-05
5.87161e-05
5.84148e-05
5.8102e-05
5.77795e-05
5.74506e-05
5.71198e-05
5.67803e-05
5.64458e-05
5.61302e-05
5.58312e-05
5.55468e-05
5.52835e-05
5.50486e-05
5.48442e-05
5.46639e-05
5.44876e-05
5.42934e-05
5.40631e-05
5.90638e-05
5.88737e-05
5.87804e-05
5.87181e-05
5.86776e-05
5.86532e-05
5.86402e-05
5.86336e-05
5.86349e-05
5.86405e-05
5.86505e-05
5.86675e-05
5.86914e-05
5.8725e-05
5.87681e-05
5.88205e-05
5.88833e-05
5.89567e-05
5.90376e-05
5.91262e-05
5.92195e-05
5.93126e-05
5.94028e-05
5.94835e-05
5.95443e-05
5.9582e-05
5.9579e-05
5.95316e-05
5.94576e-05
5.92908e-05
5.90837e-05
5.88529e-05
5.86012e-05
5.8335e-05
5.80598e-05
5.77804e-05
5.75009e-05
5.72222e-05
5.69463e-05
5.66794e-05
5.64253e-05
5.61842e-05
5.59564e-05
5.57422e-05
5.55438e-05
5.53589e-05
5.51792e-05
5.49944e-05
5.47964e-05
5.45764e-05
5.83486e-05
5.83238e-05
5.83248e-05
5.83394e-05
5.83629e-05
5.83933e-05
5.84291e-05
5.84673e-05
5.85098e-05
5.85557e-05
5.86032e-05
5.86543e-05
5.8709e-05
5.87666e-05
5.88273e-05
5.88901e-05
5.89559e-05
5.90233e-05
5.90908e-05
5.91575e-05
5.92214e-05
5.92801e-05
5.93303e-05
5.93696e-05
5.93909e-05
5.93907e-05
5.93611e-05
5.92985e-05
5.92096e-05
5.90596e-05
5.89158e-05
5.86612e-05
5.84275e-05
5.81928e-05
5.79522e-05
5.77086e-05
5.74655e-05
5.72272e-05
5.69958e-05
5.67709e-05
5.65566e-05
5.63545e-05
5.61618e-05
5.59781e-05
5.58038e-05
5.56343e-05
5.54644e-05
5.529e-05
5.51059e-05
5.4907e-05
5.81973e-05
5.82379e-05
5.82825e-05
5.833e-05
5.83791e-05
5.8429e-05
5.84787e-05
5.85285e-05
5.85787e-05
5.86291e-05
5.86786e-05
5.87274e-05
5.87751e-05
5.88227e-05
5.88694e-05
5.89152e-05
5.89599e-05
5.90026e-05
5.90426e-05
5.90792e-05
5.91108e-05
5.91363e-05
5.9153e-05
5.91585e-05
5.91481e-05
5.91197e-05
5.90684e-05
5.89925e-05
5.88928e-05
5.87562e-05
5.86174e-05
5.84184e-05
5.82349e-05
5.79822e-05
5.77715e-05
5.75606e-05
5.73519e-05
5.71469e-05
5.69474e-05
5.67559e-05
5.65724e-05
5.63969e-05
5.62299e-05
5.60704e-05
5.5915e-05
5.57606e-05
5.56061e-05
5.54483e-05
5.52833e-05
5.51076e-05
5.82588e-05
5.82984e-05
5.83376e-05
5.83766e-05
5.84143e-05
5.8451e-05
5.84871e-05
5.85228e-05
5.85567e-05
5.85892e-05
5.86208e-05
5.86511e-05
5.86795e-05
5.87063e-05
5.87314e-05
5.87548e-05
5.87766e-05
5.87959e-05
5.88121e-05
5.88241e-05
5.88316e-05
5.88324e-05
5.88244e-05
5.88062e-05
5.87759e-05
5.87304e-05
5.86671e-05
5.85852e-05
5.84841e-05
5.83612e-05
5.82285e-05
5.80613e-05
5.79046e-05
5.77336e-05
5.75e-05
5.7322e-05
5.7145e-05
5.69676e-05
5.67965e-05
5.66324e-05
5.64737e-05
5.63218e-05
5.61777e-05
5.60377e-05
5.58996e-05
5.57631e-05
5.56268e-05
5.54877e-05
5.53434e-05
5.51911e-05
5.80595e-05
5.81006e-05
5.81373e-05
5.81706e-05
5.82007e-05
5.82271e-05
5.82501e-05
5.82703e-05
5.8288e-05
5.83029e-05
5.83155e-05
5.83256e-05
5.83338e-05
5.83405e-05
5.83454e-05
5.83486e-05
5.83497e-05
5.83481e-05
5.83441e-05
5.83365e-05
5.83241e-05
5.83069e-05
5.82828e-05
5.82503e-05
5.82087e-05
5.81558e-05
5.80888e-05
5.80081e-05
5.79133e-05
5.78053e-05
5.7688e-05
5.75508e-05
5.74007e-05
5.72844e-05
5.71068e-05
5.69356e-05
5.67868e-05
5.66387e-05
5.6494e-05
5.63545e-05
5.62216e-05
5.60951e-05
5.59731e-05
5.58539e-05
5.57382e-05
5.56249e-05
5.55122e-05
5.53978e-05
5.52796e-05
5.51561e-05
7.6129e-05
7.54234e-05
7.47461e-05
7.40904e-05
7.34514e-05
7.28248e-05
7.22067e-05
7.15941e-05
7.09839e-05
7.03738e-05
6.97626e-05
6.91493e-05
6.85329e-05
6.79142e-05
6.72944e-05
6.6675e-05
6.60583e-05
6.54466e-05
6.48421e-05
6.42477e-05
6.36653e-05
6.30975e-05
6.25456e-05
6.20112e-05
6.14942e-05
6.0995e-05
6.05128e-05
6.00457e-05
5.95913e-05
5.91505e-05
5.87227e-05
5.83044e-05
5.79029e-05
5.75241e-05
5.7096e-05
5.65887e-05
5.67384e-05
5.69848e-05
5.73048e-05
5.76834e-05
5.81097e-05
5.85757e-05
5.90769e-05
5.96102e-05
6.01714e-05
6.07545e-05
6.13526e-05
6.1958e-05
6.25615e-05
6.31503e-05
5.48234e-06
5.48254e-06
5.49027e-06
5.45935e-06
5.42061e-06
5.38756e-06
5.35779e-06
5.32621e-06
5.29169e-06
5.25662e-06
5.22338e-06
5.19494e-06
5.17257e-06
5.15606e-06
5.14457e-06
5.13682e-06
5.13118e-06
5.12578e-06
5.11871e-06
5.10812e-06
5.07019e-06
5.04571e-06
5.0132e-06
4.98035e-06
4.94551e-06
4.91037e-06
4.87696e-06
4.84656e-06
4.82061e-06
4.79983e-06
4.78425e-06
4.7733e-06
4.76588e-06
4.7605e-06
4.75539e-06
4.74867e-06
4.7386e-06
4.72231e-06
4.69905e-06
4.67002e-06
4.63672e-06
4.60141e-06
4.56665e-06
4.53501e-06
4.50875e-06
4.48997e-06
4.47991e-06
4.47458e-06
4.44707e-06
4.38386e-06
5.41606e-06
5.2791e-06
5.19905e-06
5.12324e-06
5.02614e-06
4.91129e-06
4.79036e-06
4.67219e-06
4.56111e-06
4.45928e-06
4.36917e-06
4.29087e-06
4.22399e-06
4.16766e-06
4.11992e-06
4.07788e-06
4.03819e-06
3.99743e-06
3.95274e-06
3.89969e-06
3.8068e-06
3.71643e-06
3.65073e-06
1.5656e-05
1.57279e-05
1.57271e-05
1.57032e-05
1.56896e-05
1.57015e-05
1.57446e-05
1.58169e-05
1.59103e-05
1.60119e-05
1.61054e-05
1.61725e-05
1.61971e-05
1.61677e-05
1.60874e-05
1.59609e-05
1.5794e-05
1.56019e-05
1.54029e-05
1.52147e-05
1.5051e-05
1.49199e-05
1.48318e-05
1.48191e-05
1.49679e-05
1.54524e-05
1.62404e-05
5.43425e-06
5.31877e-06
5.20419e-06
5.09911e-06
4.99286e-06
4.8804e-06
4.76358e-06
4.64724e-06
4.53594e-06
4.43273e-06
4.3393e-06
4.2562e-06
4.18311e-06
4.11891e-06
4.06186e-06
4.00966e-06
3.95977e-06
3.90975e-06
3.85628e-06
3.71788e-06
1.57804e-05
1.57313e-05
1.56121e-05
1.54552e-05
1.52789e-05
1.51014e-05
1.49383e-05
1.48009e-05
1.46956e-05
1.4624e-05
1.45834e-05
1.45671e-05
1.45655e-05
1.45668e-05
1.45594e-05
1.45314e-05
1.44731e-05
1.43788e-05
1.42488e-05
1.40883e-05
1.39081e-05
1.37224e-05
1.35468e-05
1.33945e-05
1.3268e-05
1.31488e-05
1.30002e-05
1.28126e-05
1.27025e-05
1.29952e-05
5.42113e-06
5.32373e-06
5.21481e-06
5.10379e-06
4.99194e-06
4.87802e-06
4.7625e-06
4.64803e-06
4.53809e-06
4.43568e-06
4.34272e-06
4.25994e-06
4.18703e-06
4.12286e-06
4.06563e-06
4.01305e-06
3.9626e-06
3.91181e-06
3.8574e-06
3.71695e-06
1.57722e-05
1.57198e-05
1.56007e-05
1.54387e-05
1.52557e-05
1.50705e-05
1.48982e-05
1.47496e-05
1.46306e-05
1.45428e-05
1.44834e-05
1.44462e-05
1.44221e-05
1.44e-05
1.43679e-05
1.43151e-05
1.42331e-05
1.41179e-05
1.397e-05
1.37949e-05
1.36024e-05
1.34044e-05
1.32153e-05
1.30536e-05
1.29412e-05
1.28918e-05
1.28796e-05
1.2815e-05
1.26339e-05
1.26375e-05
5.41557e-06
5.31662e-06
5.21435e-06
5.10513e-06
4.99163e-06
4.87571e-06
4.75921e-06
4.64468e-06
4.53506e-06
4.43305e-06
4.34048e-06
4.25809e-06
4.18555e-06
4.12169e-06
4.06466e-06
4.01211e-06
3.9615e-06
3.91038e-06
3.85551e-06
3.71482e-06
1.57558e-05
1.57016e-05
1.55818e-05
1.54206e-05
1.52398e-05
1.5058e-05
1.48899e-05
1.47458e-05
1.46308e-05
1.45462e-05
1.44886e-05
1.44514e-05
1.44252e-05
1.4399e-05
1.43611e-05
1.43014e-05
1.42123e-05
1.40904e-05
1.39373e-05
1.37592e-05
1.35663e-05
1.33689e-05
1.3175e-05
1.29906e-05
1.28284e-05
1.27181e-05
1.26908e-05
1.27138e-05
1.26431e-05
1.26011e-05
5.41742e-06
5.31275e-06
5.21102e-06
5.10368e-06
4.99088e-06
4.87475e-06
4.75803e-06
4.64369e-06
4.53466e-06
4.43341e-06
4.34159e-06
4.25984e-06
4.18777e-06
4.12418e-06
4.06718e-06
4.01444e-06
3.96343e-06
3.91171e-06
3.85611e-06
3.71475e-06
1.57552e-05
1.56977e-05
1.55761e-05
1.54149e-05
1.52359e-05
1.50576e-05
1.48942e-05
1.47551e-05
1.46452e-05
1.45648e-05
1.45102e-05
1.44742e-05
1.44472e-05
1.44181e-05
1.4376e-05
1.43112e-05
1.42172e-05
1.40911e-05
1.3935e-05
1.37556e-05
1.35645e-05
1.33753e-05
1.31996e-05
1.30399e-05
1.289e-05
1.27525e-05
1.26627e-05
1.26549e-05
1.2631e-05
1.25983e-05
5.41956e-06
5.31262e-06
5.20853e-06
5.10068e-06
4.98805e-06
4.87202e-06
4.75532e-06
4.64114e-06
4.53247e-06
4.43174e-06
4.34048e-06
4.25922e-06
4.18752e-06
4.12413e-06
4.06712e-06
4.01414e-06
3.96269e-06
3.91036e-06
3.85406e-06
3.71213e-06
1.57356e-05
1.56764e-05
1.55547e-05
1.53952e-05
1.52199e-05
1.50468e-05
1.48896e-05
1.47571e-05
1.46532e-05
1.45776e-05
1.45261e-05
1.44911e-05
1.44626e-05
1.443e-05
1.43828e-05
1.43125e-05
1.42136e-05
1.40844e-05
1.39272e-05
1.3748e-05
1.35558e-05
1.33633e-05
1.3186e-05
1.30361e-05
1.29115e-05
1.27959e-05
1.26911e-05
1.26417e-05
1.26129e-05
1.25827e-05
5.41966e-06
5.31287e-06
5.20695e-06
5.09777e-06
4.98464e-06
4.86864e-06
4.75224e-06
4.63851e-06
4.53043e-06
4.43037e-06
4.33977e-06
4.25908e-06
4.18779e-06
4.1246e-06
4.06756e-06
4.01432e-06
3.96239e-06
3.90943e-06
3.85241e-06
3.70997e-06
1.57208e-05
1.56597e-05
1.55381e-05
1.53811e-05
1.52102e-05
1.50431e-05
1.48926e-05
1.47666e-05
1.46683e-05
1.45968e-05
1.4547e-05
1.4511e-05
1.44789e-05
1.44406e-05
1.43864e-05
1.43086e-05
1.42033e-05
1.40702e-05
1.39131e-05
1.37387e-05
1.35543e-05
1.3368e-05
1.31898e-05
1.30341e-05
1.29112e-05
1.28119e-05
1.27172e-05
1.2649e-05
1.2603e-05
1.25633e-05
5.41888e-06
5.31202e-06
5.20514e-06
5.09484e-06
4.98101e-06
4.86485e-06
4.74869e-06
4.63544e-06
4.52796e-06
4.42854e-06
4.33852e-06
4.2583e-06
4.1873e-06
4.1242e-06
4.06703e-06
4.01344e-06
3.96095e-06
3.9073e-06
3.84959e-06
3.70666e-06
1.56983e-05
1.56364e-05
1.55162e-05
1.53631e-05
1.51985e-05
1.50391e-05
1.48967e-05
1.47783e-05
1.4686e-05
1.4618e-05
1.45686e-05
1.45297e-05
1.44918e-05
1.44451e-05
1.43814e-05
1.42943e-05
1.4181e-05
1.40423e-05
1.38831e-05
1.37111e-05
1.35351e-05
1.33619e-05
1.31957e-05
1.30431e-05
1.29157e-05
1.28173e-05
1.27302e-05
1.26563e-05
1.25962e-05
1.25427e-05
5.41833e-06
5.31053e-06
5.20275e-06
5.09158e-06
4.97717e-06
4.86085e-06
4.74494e-06
4.63221e-06
4.52539e-06
4.42666e-06
4.33727e-06
4.25752e-06
4.1868e-06
4.12376e-06
4.06641e-06
4.01242e-06
3.95935e-06
3.90501e-06
3.84661e-06
3.70331e-06
1.5677e-05
1.56149e-05
1.54966e-05
1.53473e-05
1.5188e-05
1.50347e-05
1.48984e-05
1.47852e-05
1.46965e-05
1.46295e-05
1.45781e-05
1.4534e-05
1.44881e-05
1.44315e-05
1.4357e-05
1.42602e-05
1.41398e-05
1.39976e-05
1.38383e-05
1.36694e-05
1.34999e-05
1.33378e-05
1.31869e-05
1.30473e-05
1.29236e-05
1.28228e-05
1.27364e-05
1.26589e-05
1.25881e-05
1.25206e-05
5.4181e-06
5.309e-06
5.20001e-06
5.08795e-06
4.97303e-06
4.8566e-06
4.74096e-06
4.62878e-06
4.52266e-06
4.42463e-06
4.33586e-06
4.25657e-06
4.1861e-06
4.12306e-06
4.06548e-06
4.01103e-06
3.95734e-06
3.90229e-06
3.84324e-06
3.70008e-06
1.5656e-05
1.55951e-05
1.54786e-05
1.53314e-05
1.51742e-05
1.5023e-05
1.48887e-05
1.47768e-05
1.46884e-05
1.46202e-05
1.45655e-05
1.4516e-05
1.44627e-05
1.43974e-05
1.43141e-05
1.42098e-05
1.40847e-05
1.39422e-05
1.37874e-05
1.36267e-05
1.34672e-05
1.33164e-05
1.3179e-05
1.30543e-05
1.29404e-05
1.28406e-05
1.27517e-05
1.26683e-05
1.25868e-05
1.25048e-05
5.41787e-06
5.3075e-06
5.19711e-06
5.08406e-06
4.96862e-06
4.85211e-06
4.73678e-06
4.6252e-06
4.5198e-06
4.42248e-06
4.33431e-06
4.25546e-06
4.18519e-06
4.12212e-06
4.06425e-06
4.0093e-06
3.95497e-06
3.89922e-06
3.83954e-06
3.69615e-06
1.56326e-05
1.55735e-05
1.54612e-05
1.532e-05
1.51698e-05
1.50259e-05
1.48981e-05
1.47911e-05
1.47052e-05
1.46365e-05
1.4578e-05
1.45215e-05
1.44586e-05
1.43821e-05
1.42875e-05
1.41733e-05
1.40415e-05
1.38966e-05
1.37451e-05
1.35928e-05
1.3445e-05
1.33064e-05
1.3181e-05
1.30686e-05
1.2965e-05
1.28686e-05
1.2777e-05
1.26861e-05
1.2593e-05
1.2496e-05
5.41752e-06
5.30593e-06
5.19409e-06
5.07998e-06
4.96403e-06
4.84748e-06
4.73249e-06
4.62154e-06
4.51691e-06
4.42035e-06
4.33281e-06
4.25438e-06
4.18431e-06
4.12117e-06
4.06299e-06
4.00752e-06
3.95254e-06
3.89611e-06
3.83588e-06
3.69238e-06
1.56115e-05
1.55551e-05
1.54479e-05
1.53137e-05
1.51716e-05
1.50356e-05
1.49145e-05
1.48121e-05
1.47277e-05
1.46569e-05
1.45925e-05
1.45266e-05
1.44518e-05
1.43622e-05
1.4255e-05
1.41305e-05
1.3992e-05
1.38452e-05
1.36968e-05
1.35533e-05
1.34187e-05
1.32952e-05
1.31839e-05
1.30841e-05
1.2991e-05
1.29e-05
1.28074e-05
1.27099e-05
1.26055e-05
1.24941e-05
5.41708e-06
5.30423e-06
5.19098e-06
5.07581e-06
4.95933e-06
4.84276e-06
4.72812e-06
4.61776e-06
4.51384e-06
4.41799e-06
4.33102e-06
4.25296e-06
4.18301e-06
4.11972e-06
4.06115e-06
4.00511e-06
3.94945e-06
3.89237e-06
3.83163e-06
3.68808e-06
1.55866e-05
1.55337e-05
1.54324e-05
1.53058e-05
1.51721e-05
1.50444e-05
1.49302e-05
1.48325e-05
1.47499e-05
1.46771e-05
1.46072e-05
1.45325e-05
1.44465e-05
1.43448e-05
1.42263e-05
1.40931e-05
1.39497e-05
1.38027e-05
1.36588e-05
1.35241e-05
1.34023e-05
1.3294e-05
1.31974e-05
1.31099e-05
1.30261e-05
1.29398e-05
1.28461e-05
1.27417e-05
1.26257e-05
1.24998e-05
5.41663e-06
5.30248e-06
5.18787e-06
5.07169e-06
4.95475e-06
4.83827e-06
4.72412e-06
4.61449e-06
4.5114e-06
4.41632e-06
4.32999e-06
4.25231e-06
4.18247e-06
4.11901e-06
4.06002e-06
4.00337e-06
3.94703e-06
3.88932e-06
3.82817e-06
3.68684e-06
1.55752e-05
1.55235e-05
1.54265e-05
1.53063e-05
1.518e-05
1.50593e-05
1.49511e-05
1.48572e-05
1.47754e-05
1.47002e-05
1.46245e-05
1.45413e-05
1.44449e-05
1.43323e-05
1.4204e-05
1.40635e-05
1.39169e-05
1.37712e-05
1.36329e-05
1.35075e-05
1.33978e-05
1.33034e-05
1.32208e-05
1.31449e-05
1.30691e-05
1.29862e-05
1.28907e-05
1.27794e-05
1.26524e-05
1.2513e-05
5.4162e-06
5.30071e-06
5.18477e-06
5.06753e-06
4.94996e-06
4.83333e-06
4.71943e-06
4.61029e-06
4.50778e-06
4.41327e-06
4.32737e-06
4.24994e-06
4.1801e-06
4.1164e-06
4.05695e-06
3.9997e-06
3.94272e-06
3.88444e-06
3.82403e-06
1.60483e-05
1.58916e-05
1.57259e-05
1.55573e-05
1.53933e-05
1.52411e-05
1.51053e-05
1.49881e-05
1.48877e-05
1.47999e-05
1.47177e-05
1.46336e-05
1.45408e-05
1.44344e-05
1.43126e-05
1.41768e-05
1.4032e-05
1.38849e-05
1.37428e-05
1.36123e-05
1.34978e-05
1.3401e-05
1.33205e-05
1.32516e-05
1.31874e-05
1.31198e-05
1.30411e-05
1.29453e-05
1.28297e-05
1.26955e-05
1.25474e-05
5.41578e-06
5.29904e-06
5.18204e-06
5.06422e-06
4.94652e-06
4.83021e-06
4.717e-06
4.60874e-06
4.50712e-06
4.41334e-06
4.32794e-06
4.25071e-06
4.18076e-06
4.11666e-06
4.0566e-06
3.99862e-06
3.94089e-06
3.88199e-06
3.82122e-06
1.60413e-05
1.5889e-05
1.57274e-05
1.55635e-05
1.54049e-05
1.52579e-05
1.51267e-05
1.50124e-05
1.49131e-05
1.48237e-05
1.47377e-05
1.46477e-05
1.45478e-05
1.44343e-05
1.43065e-05
1.41672e-05
1.4022e-05
1.38781e-05
1.37431e-05
1.36232e-05
1.3522e-05
1.34405e-05
1.33764e-05
1.33239e-05
1.32751e-05
1.32211e-05
1.31535e-05
1.30664e-05
1.29574e-05
1.28286e-05
1.26863e-05
5.4154e-06
5.29671e-06
5.17772e-06
5.05833e-06
4.93952e-06
4.82258e-06
4.70916e-06
4.60106e-06
4.49986e-06
4.40662e-06
4.32178e-06
4.24509e-06
4.17564e-06
4.11203e-06
4.05246e-06
3.99503e-06
3.93796e-06
3.87986e-06
3.82002e-06
1.60381e-05
1.58889e-05
1.57384e-05
1.55864e-05
1.54429e-05
1.53116e-05
1.51945e-05
1.50931e-05
1.50058e-05
1.49279e-05
1.4852e-05
1.47712e-05
1.46803e-05
1.45769e-05
1.44616e-05
1.43379e-05
1.42118e-05
1.40903e-05
1.3981e-05
1.38899e-05
1.38203e-05
1.37728e-05
1.37443e-05
1.37283e-05
1.37161e-05
1.36976e-05
1.36636e-05
1.36075e-05
1.35268e-05
1.34244e-05
1.3308e-05
5.41541e-06
5.2969e-06
5.17877e-06
5.06089e-06
4.94452e-06
4.83057e-06
4.7203e-06
4.6155e-06
4.51796e-06
4.42908e-06
4.34965e-06
4.27967e-06
4.21839e-06
4.16434e-06
4.11552e-06
4.06963e-06
4.02437e-06
3.97777e-06
3.92849e-06
3.87574e-06
3.81206e-06
1.61892e-05
1.61754e-05
1.61621e-05
1.61485e-05
1.61221e-05
1.60994e-05
1.60862e-05
1.60789e-05
1.60643e-05
1.6035e-05
1.59879e-05
1.59227e-05
1.58427e-05
1.57535e-05
1.5663e-05
1.55803e-05
1.55142e-05
1.5472e-05
1.54578e-05
1.54713e-05
1.55078e-05
1.5558e-05
1.56091e-05
1.56473e-05
1.56599e-05
1.56383e-05
1.55799e-05
1.54898e-05
1.53801e-05
5.48446e-06
5.4613e-06
5.43593e-06
5.40872e-06
5.37986e-06
5.35041e-06
5.32184e-06
5.29536e-06
5.2718e-06
5.25151e-06
5.23438e-06
5.21981e-06
5.20687e-06
5.19438e-06
5.18113e-06
5.16602e-06
5.14828e-06
5.12757e-06
5.10406e-06
5.07841e-06
5.05463e-06
5.01031e-06
4.98129e-06
4.95116e-06
4.9237e-06
4.90196e-06
4.88288e-06
4.86496e-06
4.84725e-06
4.82968e-06
4.81124e-06
4.79101e-06
4.76863e-06
4.74445e-06
4.71937e-06
4.69462e-06
4.67145e-06
4.6509e-06
4.63355e-06
4.61951e-06
4.60825e-06
4.59874e-06
4.5896e-06
4.57932e-06
4.5665e-06
4.5501e-06
4.52969e-06
4.50558e-06
4.47869e-06
4.45054e-06
1.54074e-05
8.56197e-06
6.00521e-06
4.58688e-06
3.95088e-06
3.67462e-06
3.53349e-06
3.44213e-06
3.3625e-06
3.28387e-06
3.20224e-06
3.11876e-06
3.03705e-06
2.9647e-06
2.92216e-06
2.93931e-06
3.05297e-06
3.23997e-06
3.3929e-06
3.4017e-06
1.5733e-05
8.80466e-06
6.04152e-06
4.61553e-06
3.98522e-06
3.71225e-06
3.57089e-06
3.47624e-06
3.39168e-06
3.30824e-06
3.2234e-06
3.13826e-06
3.05601e-06
2.98318e-06
2.94032e-06
2.95776e-06
3.07393e-06
3.26775e-06
3.43101e-06
3.47439e-06
4.13626e-06
8.83823e-06
6.0154e-06
4.6337e-06
4.0162e-06
3.74802e-06
3.60601e-06
3.50783e-06
3.41929e-06
3.33251e-06
3.24526e-06
3.15866e-06
3.0757e-06
3.00321e-06
2.96241e-06
2.98408e-06
3.10758e-06
3.31125e-06
3.48053e-06
3.52706e-06
3.98479e-06
8.74728e-06
6.03321e-06
4.66276e-06
4.04919e-06
3.7818e-06
3.63829e-06
3.53693e-06
3.44475e-06
3.35527e-06
3.26641e-06
3.17931e-06
3.09712e-06
3.02704e-06
2.99116e-06
3.02143e-06
3.15835e-06
3.37893e-06
3.55549e-06
3.5668e-06
3.91792e-06
8.76621e-06
6.05639e-06
4.69164e-06
4.08062e-06
3.81419e-06
3.67011e-06
3.56683e-06
3.47243e-06
3.38131e-06
3.2911e-06
3.20312e-06
3.12014e-06
3.04891e-06
3.01199e-06
3.04235e-06
3.18284e-06
3.41415e-06
3.60439e-06
3.59557e-06
3.91149e-06
8.79827e-06
6.08371e-06
4.7221e-06
4.11379e-06
3.84909e-06
3.70512e-06
3.60072e-06
3.50454e-06
3.41092e-06
3.31774e-06
3.22699e-06
3.14187e-06
3.06947e-06
3.03165e-06
3.06012e-06
3.197e-06
3.42657e-06
3.62433e-06
3.61586e-06
3.91122e-06
8.84124e-06
6.11917e-06
4.75822e-06
4.15221e-06
3.88898e-06
3.74486e-06
3.6391e-06
3.54002e-06
3.44181e-06
3.3423e-06
3.24366e-06
3.15105e-06
3.07376e-06
3.03457e-06
3.06395e-06
3.20079e-06
3.42804e-06
3.63002e-06
3.63583e-06
3.91702e-06
8.90867e-06
6.16553e-06
4.80149e-06
4.19616e-06
3.93285e-06
3.78717e-06
3.67825e-06
3.57446e-06
3.47031e-06
3.36348e-06
3.25656e-06
3.15542e-06
3.07103e-06
3.02815e-06
3.0581e-06
3.19831e-06
3.42846e-06
3.63702e-06
3.66361e-06
3.93012e-06
8.99261e-06
6.21951e-06
4.84854e-06
4.24162e-06
3.97631e-06
3.82713e-06
3.71271e-06
3.60199e-06
3.48992e-06
3.37538e-06
3.26211e-06
3.15634e-06
3.0689e-06
3.02463e-06
3.05568e-06
3.20039e-06
3.43728e-06
3.6553e-06
3.70213e-06
3.94857e-06
9.08154e-06
6.27229e-06
4.8924e-06
4.28228e-06
4.01338e-06
3.8596e-06
3.73943e-06
3.62209e-06
3.50278e-06
3.38159e-06
3.26395e-06
3.1571e-06
3.07154e-06
3.0305e-06
3.06522e-06
3.21541e-06
3.46024e-06
3.68805e-06
3.74908e-06
3.96799e-06
9.15806e-06
6.3116e-06
4.92644e-06
4.31329e-06
4.04016e-06
3.88137e-06
3.75618e-06
3.63443e-06
3.51151e-06
3.3878e-06
3.26934e-06
3.16416e-06
3.08284e-06
3.04749e-06
3.0879e-06
3.24428e-06
3.49679e-06
3.73275e-06
3.79989e-06
3.98632e-06
9.19489e-06
6.33491e-06
4.94903e-06
4.33441e-06
4.05826e-06
3.89562e-06
3.76692e-06
3.64293e-06
3.51973e-06
3.39764e-06
3.28218e-06
3.18092e-06
3.10452e-06
3.07479e-06
3.12067e-06
3.28258e-06
3.54143e-06
3.78332e-06
3.8508e-06
3.99852e-06
9.1966e-06
6.34648e-06
4.96224e-06
4.34866e-06
4.07191e-06
3.90802e-06
3.7784e-06
3.65442e-06
3.53288e-06
3.41421e-06
3.30315e-06
3.2066e-06
3.13468e-06
3.10897e-06
3.15854e-06
3.3242e-06
3.58768e-06
3.83432e-06
3.90034e-06
4.00229e-06
9.18373e-06
6.3506e-06
4.9718e-06
4.36152e-06
4.08644e-06
3.92379e-06
3.79568e-06
3.67371e-06
3.55466e-06
3.43893e-06
3.33136e-06
3.23821e-06
3.16903e-06
3.14533e-06
3.19665e-06
3.36442e-06
3.63159e-06
3.88341e-06
3.94931e-06
3.99818e-06
9.17089e-06
6.35294e-06
4.98261e-06
4.37777e-06
4.10627e-06
3.94636e-06
3.8209e-06
3.70139e-06
3.58433e-06
3.4702e-06
3.36398e-06
3.27181e-06
3.20321e-06
3.17985e-06
3.23182e-06
3.40122e-06
3.67255e-06
3.93134e-06
3.99945e-06
3.99167e-06
9.15138e-06
6.35579e-06
4.99634e-06
4.3986e-06
4.13209e-06
3.97564e-06
3.85255e-06
3.73436e-06
3.6177e-06
3.50328e-06
3.39631e-06
3.30318e-06
3.23385e-06
3.21029e-06
3.26299e-06
3.43494e-06
3.71218e-06
3.98014e-06
4.05223e-06
3.98363e-06
9.12704e-06
6.35888e-06
5.01189e-06
4.42199e-06
4.16082e-06
4.00776e-06
3.88583e-06
3.76705e-06
3.64874e-06
3.53233e-06
3.42339e-06
3.32885e-06
3.2591e-06
3.23623e-06
3.29096e-06
3.46718e-06
3.7525e-06
4.03177e-06
4.10804e-06
3.97382e-06
9.09905e-06
6.36106e-06
5.02711e-06
4.44487e-06
4.18847e-06
4.0374e-06
3.91472e-06
3.79352e-06
3.67214e-06
3.55299e-06
3.44238e-06
3.34764e-06
3.27917e-06
3.25891e-06
3.31753e-06
3.49989e-06
3.79514e-06
4.08721e-06
4.16627e-06
3.96254e-06
9.07159e-06
6.36256e-06
5.04116e-06
4.46583e-06
4.21237e-06
4.0609e-06
3.93552e-06
3.81072e-06
3.68606e-06
3.565e-06
3.45444e-06
3.36169e-06
3.29678e-06
3.28116e-06
3.3452e-06
3.53492e-06
3.8412e-06
4.14613e-06
4.22566e-06
3.95193e-06
9.05387e-06
6.36649e-06
5.05638e-06
4.48591e-06
4.23275e-06
4.07854e-06
3.9491e-06
3.82061e-06
3.6938e-06
3.57287e-06
3.46474e-06
3.37622e-06
3.31666e-06
3.30677e-06
3.37664e-06
3.5739e-06
3.89087e-06
4.20704e-06
4.28463e-06
3.94631e-06
9.05436e-06
6.37958e-06
5.07687e-06
4.50814e-06
4.25264e-06
4.09419e-06
3.9606e-06
3.82959e-06
3.70273e-06
3.58428e-06
3.48059e-06
3.3976e-06
3.3438e-06
3.33917e-06
3.4139e-06
3.61745e-06
3.94295e-06
4.26731e-06
4.34136e-06
3.94869e-06
9.07979e-06
6.40684e-06
5.10599e-06
4.53558e-06
4.27597e-06
4.11314e-06
3.97672e-06
3.84541e-06
3.72087e-06
3.60673e-06
3.5083e-06
3.4306e-06
3.3813e-06
3.37978e-06
3.45696e-06
3.66418e-06
3.99475e-06
4.32364e-06
4.394e-06
3.95815e-06
9.13224e-06
6.44742e-06
5.14336e-06
4.56894e-06
4.3049e-06
4.13912e-06
4.00233e-06
3.87335e-06
3.75311e-06
3.64403e-06
3.55029e-06
3.47617e-06
3.42851e-06
3.42682e-06
3.50321e-06
3.71079e-06
4.04213e-06
4.37351e-06
4.4415e-06
3.97231e-06
9.19888e-06
6.49346e-06
5.18408e-06
4.60537e-06
4.33829e-06