/*--------------------------------*- C++ -*----------------------------------*\
  =========                 |
  \\      /  F ield         | OpenFOAM: The Open Source CFD Toolbox
   \\    /   O peration     | Website:  https://openfoam.org
    \\  /    A nd           | Version:  8
     \\/     M anipulation  |
\*---------------------------------------------------------------------------*/
FoamFile
{
    version     2.0;
    format      ascii;
    class       volScalarField;
    location    "800";
    object      p;
}
// * * * * * * * * * * * * * * * * * * * * * * * * * * * * * * * * * * * * * //

dimensions      [1 -1 -2 0 0 0 0];

internalField   nonuniform List<scalar> 
8400
(
37946.1
66619.2
85390.4
96724.7
104889
113251
123583
136775
153704
175105
200497
226683
247986
258583
255377
241106
223363
209592
205198
214490
241522
290237
363130
457484
561833
658446
732633
781095
809909
826526
835880
840897
843357
844291
844333
843875
843151
842311
841445
840622
839889
839283
838824
838531
838413
838469
838700
839136
839863
840929
33240.4
62443
80433.7
90894.5
99538.9
110090
122963
137174
153243
173637
200422
231011
257738
271896
267313
247367
223373
203722
193437
197051
219064
264243
336716
435290
548391
655953
738836
789460
815584
829467
837459
841709
843701
844382
844275
843739
842967
842085
841181
840323
839560
838928
838448
838132
837981
837993
838167
838515
839076
839878
42720.4
75429.9
87251.6
92816.6
99719.2
110176
121642
131555
142828
163196
197870
240420
278109
298668
288149
251765
214868
187842
171276
167850
182509
222210
294630
401431
530704
660253
762909
815265
829991
835758
841481
844382
845192
845305
844780
844019
843101
842110
841114
840181
839370
838714
838231
837924
837785
837806
837991
838348
838893
839621
24407.3
56501.3
73867.7
84627.9
96457.3
109534
120609
129735
142854
169471
209546
252917
289432
307155
296043
248420
193571
158413
139450
133035
143726
184119
265210
386878
534702
688146
813212
857134
844935
839670
847160
848406
846799
846462
845158
844060
842934
841774
840642
839597
838708
838012
837513
837192
837029
837016
837159
837471
837967
838647
-23236.5
24610.5
58484.1
79062.1
95510.1
110099
122245
133193
147713
171971
205730
242767
276030
294444
276814
226172
178779
152401
143124
146251
166165
217560
312954
447403
598974
743415
854217
868979
840585
839807
857015
852176
847389
848372
845399
844072
842808
841450
840212
839062
838112
837423
836963
836668
836504
836468
836578
836854
837317
837968
-2754.56
20294.1
45997.7
64549.1
79690.2
94468.6
109746
126286
145628
169255
196325
223346
245434
256439
250408
231084
212299
203591
207349
224829
260304
320135
405938
509050
613978
708746
787408
815909
824380
860369
865924
849122
846752
850950
844194
843643
842350
840686
839490
838189
837148
836498
836117
835853
835669
835591
835662
835917
836379
837050
1521.54
22059.3
46105
64753.8
79765.1
94160.3
109306
125822
144253
164797
186621
207699
225334
236836
240859
239812
239145
243585
256051
278875
314737
365793
431240
506033
582616
655443
721765
769463
803081
833070
837369
842285
856155
851326
841611
843719
841500
839554
838929
837244
836031
835535
835338
835115
834893
834767
834809
835064
835554
836269
5957.37
24703.7
46266.1
63200.6
77044.5
90810.1
105878
122551
140742
160074
179725
198471
214948
228114
237846
245510
253562
264509
280476
303344
334827
375998
426489
484201
545970
609077
670192
721777
762542
796426
818072
833936
843428
840066
845718
845558
839534
838352
838737
835909
834458
834388
834562
834350
834068
833911
833955
834237
834779
835565
7987.46
27469
48128.2
64364.6
77991.5
91679.8
106544
122693
139865
157644
175480
192733
208796
223289
236304
248520
261060
275218
292324
313724
340735
374402
415133
462498
515211
571360
627658
679328
724493
763207
792556
814021
828741
835382
840614
837809
837653
840605
838498
834017
832743
833520
834158
833805
833422
833246
833300
833596
834181
835053
13183.9
32582.6
51789.1
67112.5
80404.3
93792.5
108095
123373
139425
155955
172635
189119
205107
220413
235074
249390
263888
279267
296377
316210
339897
368566
403113
443911
490516
541543
594453
645895
693388
735055
768872
795149
814076
825627
832912
835316
837145
838260
835191
832648
832959
834099
834067
833440
832948
832776
832892
833247
833897
834874
16281
36345.9
54161.4
68839.9
82217.9
95661.5
109670
124328
139570
155261
171229
187269
203188
218846
234204
249360
264557
280198
296870
315380
336766
362229
392920
429616
472321
520091
570960
622118
670724
714298
750970
780238
801992
816890
826616
831905
834871
836228
835223
833984
833771
834011
833612
833077
832747
832671
832845
833335
834189
835244
19199.4
40172.4
56508.8
70710
84260
97792.5
111588
125797
140477
155609
171098
186801
202555
218217
233697
248996
264234
279682
295816
313369
333356
357038
385707
420327
461094
507252
557107
608003
657010
701528
739674
770603
794202
811131
822570
829628
833729
835754
836006
835551
835179
834901
834382
833850
833491
833380
833548
834031
834820
835813
22499.5
41980.6
57344.6
71500.3
85189
98755.5
112468
126524
141022
155965
171281
186838
202476
218048
233444
248629
263678
278827
294531
311535
330915
354022
382232
416522
456994
502809
552435
603118
651979
696532
734992
766481
790902
808835
821276
829323
834145
836668
837530
837465
837056
836533
835920
835355
834957
834786
834870
835219
835809
836572
24531.4
42793.7
57800.2
72050.6
85815.5
99391.2
113071
127076
141525
156427
171705
187224
202819
218330
233639
248698
263570
278492
293950
310772
330169
353637
382614
417973
459573
506310
556289
606714
654870
698639
736441
767500
791784
809836
822554
830955
836081
838823
839895
839939
839460
838758
837985
837270
836706
836346
836214
836314
836629
837120
23616.2
41846.7
57596.8
72180.4
86104.2
99756.7
113462
127455
141860
156704
171926
187405
202994
218541
233927
249098
264112
279215
294941
312197
332293
356769
387016
423822
467066
515540
566583
616997
664223
706648
743034
772831
796166
813594
825955
834189
839236
841925
842956
842929
842309
841407
840419
839478
838671
838052
837651
837478
837527
837780
22661.9
40645.6
56879.1
71817.8
86038.7
99925.6
113785
127838
142212
156960
172065
187458
203044
218725
234416
250089
265828
281909
298894
317696
339564
365887
397879
436214
480714
529967
581230
631430
678089
719140
753475
781261
803060
819325
830857
838537
843210
845627
846442
846215
845383
844256
843037
841860
840808
839937
839279
838849
838647
838661
22466.4
39655
56060.8
71358.5
85963.1
100184
114291
128475
142871
157557
172565
187894
203526
219422
235561
251968
268774
286298
305127
326134
350417
379116
413172
453030
498333
547596
598320
647754
693513
733505
766379
791814
811309
826110
836525
843403
847513
849516
849998
849484
848396
847033
845587
844182
842896
841781
840872
840187
839730
839493
23033.7
39579.9
55981.8
71530.4
86462.1
101004
115369
129725
144211
158930
173953
189338
205129
221349
238014
255178
273011
291876
312397
335439
361991
392983
429048
470299
516117
565020
614818
663127
707774
746843
778840
803090
820338
833009
842196
848176
851673
853224
853337
852521
851193
849635
848011
846420
844927
843579
842417
841466
840736
840222
23215.5
39463
55775.9
71426.6
86545.7
101292
115838
130337
144926
159723
174836
190370
206401
222983
240142
257928
276515
296299
317954
342395
370588
403309
440933
483276
529514
578167
627222
674472
717967
756210
787970
812174
828769
839598
847119
852166
855053
856137
855834
854686
853133
851434
849709
848012
846382
844862
843496
842320
841353
840590
23234.1
39581.4
55895.5
71607
86833.6
101709
116381
130994
145690
160604
175859
191580
207875
224802
242381
260654
279787
300191
322597
347967
377266
411175
449891
493026
539649
588264
636882
683304
725711
763047
794530
818953
835483
845236
850980
855056
857756
858642
858000
856509
854693
852819
850972
849168
847422
845767
844250
842907
841752
840756
868802
868801
868801
868801
868802
868802
868802
868802
868802
868801
868801
868801
868801
868801
868801
868801
868801
868800
868800
868800
868800
868801
868801
868801
868801
868801
868801
868801
868801
868801
868801
868801
868801
868801
868801
868801
868801
868801
868801
868802
868802
868802
868802
868802
868802
868802
868802
868802
868802
868802
868703
868704
868704
868704
868704
868704
868704
868704
868704
868704
868704
868704
868704
868703
868703
868703
868703
868703
868703
868703
868703
868703
868703
868703
868703
868703
868703
868703
868703
868703
868703
868703
868703
868703
868703
868703
868703
868704
868704
868704
868704
868704
868705
868705
868705
868705
868705
868705
868704
868704
868606
868606
868606
868606
868606
868606
868606
868606
868606
868606
868606
868606
868606
868606
868606
868606
868605
868605
868605
868605
868605
868605
868606
868606
868606
868606
868606
868606
868606
868606
868606
868606
868606
868606
868606
868606
868606
868606
868606
868606
868607
868607
868607
868607
868607
868607
868607
868607
868607
868607
868508
868509
868509
868509
868509
868509
868509
868509
868509
868509
868509
868509
868508
868508
868508
868508
868508
868508
868508
868508
868508
868508
868508
868508
868508
868508
868508
868508
868508
868508
868508
868508
868508
868508
868508
868508
868508
868508
868509
868509
868509
868509
868509
868510
868510
868510
868510
868510
868510
868509
868411
868411
868411
868411
868411
868411
868411
868411
868411
868411
868411
868411
868411
868411
868411
868410
868410
868410
868410
868410
868410
868410
868410
868411
868411
868411
868411
868411
868411
868411
868411
868411
868411
868411
868411
868411
868411
868411
868411
868411
868412
868412
868412
868412
868412
868412
868412
868412
868412
868412
868313
868313
868314
868314
868314
868314
868314
868314
868314
868314
868314
868314
868313
868313
868313
868313
868313
868313
868313
868313
868313
868313
868313
868313
868313
868313
868313
868313
868313
868313
868313
868313
868313
868313
868313
868313
868313
868313
868314
868314
868314
868314
868314
868315
868315
868315
868315
868315
868315
868314
868216
868216
868216
868216
868216
868216
868216
868216
868216
868216
868216
868216
868216
868216
868216
868216
868215
868215
868215
868215
868215
868215
868215
868216
868216
868216
868216
868216
868216
868216
868215
868215
868215
868215
868216
868216
868216
868216
868216
868216
868216
868217
868217
868217
868217
868217
868217
868217
868217
868217
868118
868118
868118
868119
868119
868119
868119
868119
868119
868119
868119
868119
868118
868118
868118
868118
868118
868118
868118
868118
868118
868118
868118
868118
868118
868118
868118
868118
868118
868118
868118
868118
868118
868118
868118
868118
868118
868118
868119
868119
868119
868119
868119
868120
868120
868120
868120
868120
868120
868119
868021
868021
868021
868021
868021
868021
868021
868021
868021
868021
868021
868021
868021
868021
868021
868021
868021
868020
868020
868020
868020
868020
868020
868021
868021
868020
868020
868020
868020
868020
868020
868020
868020
868020
868020
868021
868021
868021
868021
868021
868021
868022
868022
868022
868022
868022
868022
868022
868022
868022
867923
867923
867923
867923
867924
867924
867924
867924
867924
867924
867924
867924
867923
867923
867923
867923
867923
867923
867923
867923
867923
867923
867923
867923
867923
867923
867923
867923
867923
867923
867923
867923
867923
867923
867923
867923
867923
867923
867924
867924
867924
867924
867924
867924
867925
867925
867925
867925
867925
867924
867826
867826
867826
867826
867826
867826
867826
867826
867826
867826
867826
867826
867826
867826
867826
867826
867826
867826
867826
867826
867826
867826
867826
867825
867825
867825
867825
867825
867825
867825
867825
867825
867825
867825
867825
867826
867826
867826
867826
867826
867826
867827
867827
867827
867827
867827
867827
867827
867827
867827
867728
867728
867728
867728
867729
867729
867729
867729
867729
867729
867729
867729
867729
867728
867728
867728
867728
867728
867728
867728
867728
867728
867728
867728
867728
867728
867728
867728
867728
867728
867728
867728
867728
867728
867728
867728
867728
867728
867729
867729
867729
867729
867729
867729
867729
867730
867730
867730
867730
867729
867631
867631
867631
867631
867631
867631
867631
867631
867631
867631
867631
867631
867631
867631
867631
867631
867631
867631
867631
867631
867631
867631
867631
867630
867630
867630
867630
867630
867630
867630
867630
867630
867630
867630
867630
867631
867631
867631
867631
867631
867631
867631
867632
867632
867632
867632
867632
867632
867632
867632
867533
867533
867533
867533
867533
867534
867534
867534
867534
867534
867534
867534
867534
867533
867533
867533
867533
867533
867533
867533
867533
867533
867533
867533
867533
867533
867533
867533
867533
867533
867533
867533
867533
867533
867533
867533
867533
867533
867534
867534
867534
867534
867534
867534
867534
867534
867534
867534
867534
867534
867436
867436
867436
867436
867436
867436
867436
867436
867436
867436
867436
867436
867436
867436
867436
867436
867436
867436
867436
867436
867436
867436
867436
867435
867435
867435
867435
867435
867435
867435
867435
867435
867435
867435
867435
867436
867436
867436
867436
867436
867436
867436
867436
867437
867437
867437
867437
867437
867437
867437
867338
867338
867338
867338
867338
867338
867339
867339
867339
867339
867339
867339
867339
867338
867338
867338
867338
867338
867338
867338
867338
867338
867338
867338
867338
867338
867338
867337
867337
867337
867337
867337
867338
867338
867338
867338
867338
867338
867338
867339
867339
867339
867339
867339
867339
867339
867339
867339
867339
867339
867241
867241
867241
867241
867241
867241
867241
867241
867241
867241
867241
867241
867241
867241
867241
867241
867241
867241
867241
867241
867241
867241
867240
867240
867240
867240
867240
867240
867240
867240
867240
867240
867240
867240
867240
867241
867241
867241
867241
867241
867241
867241
867241
867241
867241
867242
867242
867242
867242
867242
867143
867143
867143
867143
867143
867143
867143
867144
867144
867144
867144
867144
867143
867143
867143
867143
867143
867143
867143
867143
867143
867143
867143
867143
867143
867143
867142
867142
867142
867142
867142
867142
867143
867143
867143
867143
867143
867143
867143
867143
867144
867144
867144
867144
867144
867144
867144
867144
867144
867144
867045
867045
867046
867046
867046
867046
867046
867046
867046
867046
867046
867046
867046
867046
867046
867046
867046
867046
867046
867046
867045
867045
867045
867045
867045
867045
867045
867045
867045
867045
867045
867045
867045
867045
867045
867045
867046
867046
867046
867046
867046
867046
867046
867046
867046
867046
867046
867046
867047
867047
866948
866948
866948
866948
866948
866948
866948
866948
866948
866948
866948
866948
866948
866948
866948
866948
866948
866948
866948
866948
866948
866948
866948
866948
866947
866947
866947
866947
866947
866947
866947
866947
866947
866948
866948
866948
866948
866948
866948
866948
866948
866948
866948
866949
866949
866949
866949
866949
866949
866949
878587
878586
878586
878586
878586
878585
878585
878585
878585
878585
878584
878584
878584
878584
878583
878583
878582
878582
878582
878581
878490
878489
878488
878486
878485
878484
878483
878482
878480
878479
878478
878477
878476
878474
878473
878472
878470
878469
878468
878466
878393
878391
878389
878387
878385
878382
878380
878378
878376
878374
878372
878369
878367
878365
878363
878361
878358
878356
878354
878351
878297
878294
878290
878287
878284
878281
878278
878275
878272
878268
878265
878262
878259
878256
878253
878249
878246
878243
878239
878236
878200
878196
878192
878188
878183
878179
878175
878171
878167
878163
878159
878155
878151
878147
878142
878138
878134
878130
878125
878121
878103
878098
878093
878088
878083
878078
878073
878068
878063
878058
878053
878048
878042
878037
878032
878027
878022
878017
878011
878006
878007
878001
877995
877989
877983
877977
877971
877965
877959
877952
877946
877940
877934
877928
877922
877916
877910
877904
877897
877891
877910
877903
877896
877889
877882
877875
877868
877861
877854
877847
877840
877833
877826
877819
877812
877805
877798
877791
877784
877777
877814
877806
877798
877790
877782
877774
877766
877758
877750
877742
877734
877726
877718
877710
877702
877694
877686
877678
877670
877662
877718
877709
877700
877691
877682
877673
877664
877655
877646
877637
877628
877619
877610
877601
877592
877583
877574
877565
877556
877547
877621
877611
877601
877591
877582
877572
877562
877552
877542
877532
877522
877513
877503
877493
877483
877473
877463
877453
877443
877433
877525
877514
877503
877492
877481
877471
877460
877449
877438
877427
877417
877406
877395
877384
877373
877362
877351
877340
877329
877318
877429
877417
877405
877393
877382
877370
877358
877346
877335
877323
877311
877299
877287
877276
877264
877252
877240
877228
877216
877204
877333
877320
877308
877295
877282
877269
877256
877244
877231
877218
877206
877193
877180
877167
877154
877142
877129
877116
877103
877090
877238
877224
877210
877196
877182
877169
877155
877141
877128
877114
877100
877087
877073
877059
877045
877032
877018
877004
876990
876976
877142
877127
877113
877098
877083
877068
877054
877039
877024
877010
876995
876980
876966
876951
876936
876922
876907
876892
876877
876862
877047
877031
877015
877000
876984
876968
876953
876937
876921
876906
876890
876875
876859
876843
876828
876812
876796
876780
876765
876749
876952
876935
876918
876902
876885
876868
876852
876835
876819
876802
876785
876769
876752
876736
876719
876702
876686
876669
876652
876636
876857
876839
876821
876804
876786
876769
876751
876734
876716
876698
876681
876663
876646
876628
876611
876593
876575
876558
876540
876523
876762
876743
876725
876706
876688
876669
876651
876632
876614
876595
876577
876558
876540
876521
876503
876484
876465
876447
876428
876410
876667
876648
876628
876609
876589
876570
876550
876531
876511
876492
876472
876453
876434
876414
876395
876375
876356
876336
876316
876297
876572
876552
876532
876511
876491
876470
876450
876430
876409
876389
876369
876348
876328
876307
876287
876267
876246
876226
876205
876185
876478
876457
876435
876414
876393
876371
876350
876329
876307
876286
876265
876244
876222
876201
876179
876158
876137
876115
876094
876072
876384
876362
876339
876317
876295
876272
876250
876228
876206
876184
876161
876139
876117
876095
876072
876050
876027
876005
875983
875960
876290
876267
876243
876220
876197
876174
876151
876128
876104
876081
876058
876035
876012
875988
875965
875942
875918
875895
875872
875849
876196
876172
876148
876123
876099
876075
876051
876027
876003
875979
875955
875931
875907
875883
875858
875834
875810
875786
875761
875737
876102
876077
876052
876027
876002
875977
875952
875927
875902
875877
875852
875827
875802
875777
875752
875727
875701
875676
875651
875626
876009
875983
875957
875931
875905
875879
875853
875827
875801
875775
875749
875724
875698
875672
875646
875619
875593
875567
875541
875515
875916
875889
875862
875835
875808
875781
875754
875727
875701
875674
875647
875620
875593
875566
875540
875513
875486
875458
875431
875404
875823
875795
875767
875739
875711
875684
875656
875628
875600
875573
875545
875517
875490
875462
875434
875406
875378
875350
875322
875294
875730
875701
875673
875644
875615
875586
875558
875529
875500
875472
875443
875415
875386
875357
875328
875300
875271
875242
875213
875184
875638
875608
875578
875549
875519
875489
875460
875430
875401
875371
875342
875312
875283
875253
875223
875194
875164
875134
875104
875075
875546
875515
875484
875454
875423
875393
875362
875332
875301
875271
875241
875210
875180
875149
875118
875088
875057
875027
874996
874965
875454
875422
875391
875359
875328
875296
875265
875234
875202
875171
875140
875108
875077
875045
875014
874983
874951
874920
874888
874857
875362
875330
875297
875265
875233
875201
875168
875136
875104
875071
875039
875007
874974
874942
874910
874878
874845
874813
874780
874748
875271
875238
875205
875171
875138
875105
875072
875039
875005
874972
874939
874906
874872
874839
874806
874773
874740
874706
874673
874640
875181
875146
875112
875078
875044
875010
874976
874942
874907
874873
874839
874805
874771
874737
874703
874668
874634
874600
874566
874532
875090
875055
875020
874985
874950
874915
874880
874845
874810
874775
874740
874705
874669
874634
874599
874564
874529
874494
874459
874424
875001
874965
874929
874893
874857
874821
874785
874749
874713
874677
874641
874605
874569
874533
874497
874461
874425
874389
874353
874316
874911
874874
874837
874801
874764
874727
874690
874653
874616
874579
874542
874505
874468
874431
874394
874357
874320
874283
874246
874209
874822
874784
874747
874709
874671
874633
874595
874557
874519
874482
874444
874406
874368
874330
874292
874254
874217
874179
874141
874103
874734
874695
874656
874617
874579
874540
874501
874462
874423
874385
874346
874307
874268
874229
874191
874152
874113
874075
874036
873997
874645
874606
874566
874526
874487
874447
874407
874368
874328
874288
874248
874209
874169
874129
874090
874050
874010
873971
873931
873892
874557
874517
874476
874436
874395
874354
874314
874273
874233
874192
874151
874111
874070
874030
873989
873949
873908
873868
873827
873787
874470
874428
874387
874345
874304
874262
874221
874179
874138
874096
874055
874014
873972
873931
873889
873848
873807
873765
873724
873682
874382
874340
874298
874256
874213
874171
874128
874086
874044
874001
873959
873917
873874
873832
873790
873748
873705
873663
873621
873579
874296
874253
874209
874166
874123
874080
874036
873993
873950
873907
873863
873820
873777
873734
873691
873648
873605
873562
873518
873475
874209
874165
874121
874077
874033
873989
873945
873901
873856
873812
873768
873724
873680
873636
873593
873549
873505
873461
873417
873373
874123
874079
874034
873989
873944
873899
873854
873809
873764
873719
873674
873629
873584
873539
873495
873450
873405
873360
873315
873270
874038
873992
873946
873900
873855
873809
873763
873717
873671
873626
873580
873534
873488
873443
873397
873351
873306
873260
873214
873168
873952
873906
873859
873813
873766
873719
873673
873626
873579
873533
873486
873440
873393
873347
873300
873254
873207
873160
873114
873067
873868
873820
873773
873725
873678
873630
873583
873535
873488
873441
873393
873346
873299
873251
873204
873156
873109
873061
873014
872966
873783
873735
873687
873638
873590
873542
873494
873445
873397
873349
873301
873253
873204
873156
873108
873059
873011
872963
872915
872866
873699
873650
873601
873552
873503
873454
873405
873356
873307
873258
873209
873160
873111
873061
873012
872963
872914
872865
872816
872767
873616
873566
873516
873466
873416
873366
873317
873267
873217
873167
873117
873067
873017
872967
872917
872868
872818
872768
872718
872668
873533
873482
873431
873381
873330
873279
873229
873178
873128
873077
873026
872975
872925
872874
872823
872772
872722
872671
872620
872570
873450
873399
873347
873296
873244
873193
873142
873090
873039
872987
872936
872884
872833
872781
872729
872678
872626
872575
872523
872472
873368
873316
873264
873211
873159
873107
873055
873003
872950
872898
872846
872793
872741
872689
872636
872584
872532
872479
872427
872375
873287
873234
873181
873128
873075
873022
872969
872916
872863
872810
872756
872703
872650
872597
872544
872491
872438
872385
872331
872278
873206
873152
873098
873044
872990
872937
872883
872829
872775
872722
872668
872614
872560
872506
872452
872398
872344
872290
872236
872182
873125
873071
873016
872961
872907
872852
872798
872743
872689
872634
872580
872525
872470
872416
872361
872306
872251
872197
872142
872087
873046
872990
872935
872879
872824
872769
872713
872658
872603
872547
872492
872437
872381
872326
872270
872215
872159
872104
872048
871992
872966
872910
872854
872798
872742
872685
872629
872573
872517
872461
872405
872349
872293
872236
872180
872124
872067
872011
871955
871898
872888
872830
872773
872717
872660
872603
872546
872489
872432
872375
872319
872262
872205
872148
872091
872033
871976
871919
871862
871805
872809
872752
872694
872636
872578
872521
872463
872405
872348
872290
872232
872175
872117
872059
872002
871944
871886
871828
871770
871712
872732
872673
872615
872556
872498
872439
872381
872322
872264
872205
872147
872089
872030
871972
871913
871855
871796
871737
871679
871620
872655
872596
872536
872477
872418
872358
872299
872240
872181
872121
872062
872003
871944
871885
871825
871766
871707
871647
871588
871529
872579
872518
872458
872398
872338
872278
872218
872158
872098
872038
871978
871918
871858
871798
871738
871678
871618
871558
871498
871438
872503
872442
872381
872320
872259
872198
872137
872077
872016
871955
871894
871834
871773
871712
871651
871591
871530
871469
871408
871347
872428
872366
872305
872243
872181
872119
872058
871996
871934
871873
871811
871750
871688
871627
871566
871504
871443
871381
871319
871258
872354
872291
872229
872166
872104
872041
871979
871916
871854
871791
871729
871667
871605
871542
871480
871418
871356
871294
871231
871169
872280
872217
872153
872090
872027
871963
871900
871837
871774
871711
871647
871584
871522
871459
871396
871333
871270
871207
871144
871080
872206
872142
872078
872014
871950
871886
871822
871758
871694
871630
871567
871503
871439
871376
871312
871248
871184
871121
871057
870993
872134
872069
872004
871939
871875
871810
871745
871680
871616
871551
871487
871422
871358
871293
871229
871164
871100
871035
870970
870906
872061
871996
871930
871865
871799
871734
871669
871603
871538
871473
871407
871342
871277
871212
871146
871081
871016
870950
870885
870820
871989
871923
871857
871791
871725
871659
871593
871527
871461
871395
871329
871263
871197
871131
871065
870999
870932
870866
870800
870734
871918
871852
871785
871718
871651
871585
871518
871451
871385
871318
871251
871184
871118
871051
870984
870917
870850
870783
870716
870649
871848
871781
871713
871646
871578
871511
871444
871377
871309
871242
871174
871107
871039
870971
870904
870836
870768
870701
870633
870566
871779
871711
871642
871574
871506
871438
871370
871302
871234
871166
871098
871029
870961
870893
870824
870756
870688
870619
870551
870483
871710
871641
871572
871504
871435
871366
871298
871229
871160
871091
871022
870953
870884
870815
870746
870677
870608
870539
870470
870401
871642
871573
871503
871434
871365
871295
871226
871156
871087
871017
870947
870877
870808
870738
870668
870598
870529
870459
870389
870320
871575
871505
871435
871365
871295
871224
871154
871084
871014
870943
870873
870802
870732
870662
870591
870521
870451
870380
870310
870240
871509
871438
871367
871296
871225
871154
871083
871012
870941
870870
870799
870728
870657
870586
870515
870444
870374
870303
870232
870161
871443
871371
871300
871228
871157
871085
871013
870942
870870
870798
870727
870655
870583
870512
870440
870369
870297
870226
870154
870083
871378
871305
871233
871161
871089
871016
870944
870872
870799
870727
870655
870583
870510
870438
870366
870294
870222
870150
870078
870005
871313
871240
871167
871094
871021
870948
870875
870802
870730
870657
870584
870511
870438
870366
870293
870220
870147
870075
870002
869929
871249
871176
871102
871028
870955
870881
870808
870734
870661
870587
870514
870440
870367
870294
870220
870147
870073
870000
869926
869853
871186
871112
871037
870963
870889
870815
870741
870667
870592
870518
870444
870370
870296
870222
870148
870074
870000
869926
869852
869778
871123
871049
870974
870899
870824
870749
870675
870600
870525
870450
870376
870301
870227
870152
870077
870003
869928
869853
869778
869704
871061
870986
870911
870835
870760
870685
870609
870534
870459
870383
870308
870233
870158
870082
870007
869932
869856
869781
869706
869630
871000
870924
870849
870773
870697
870621
870545
870469
870393
870317
870241
870165
870089
870013
869938
869862
869786
869710
869634
869558
870940
870864
870787
870711
870634
870557
870481
870404
870328
870251
870175
870098
870022
869945
869869
869792
869716
869639
869563
869486
870881
870803
870726
870649
870572
870495
870418
870341
870264
870187
870110
870033
869955
869878
869801
869724
869647
869570
869493
869415
870822
870744
870666
870589
870511
870433
870356
870278
870200
870123
870045
869967
869890
869812
869734
869657
869579
869501
869423
869346
870763
870685
870607
870529
870450
870372
870294
870216
870138
870060
869981
869903
869825
869747
869668
869590
869512
869433
869355
869277
870706
870627
870548
870470
870391
870312
870233
870155
870076
869997
869918
869840
869761
869682
869603
869524
869445
869366
869287
869209
870649
870570
870490
870411
870332
870253
870173
870094
870015
869935
869856
869777
869697
869618
869539
869459
869380
869300
869221
869141
870593
870513
870433
870353
870274
870194
870114
870034
869954
869875
869795
869715
869635
869555
869475
869395
869315
869235
869155
869075
870538
870457
870377
870297
870216
870136
870055
869975
869895
869814
869734
869653
869573
869493
869412
869332
869251
869170
869090
869009
870483
870402
870321
870240
870160
870079
869998
869917
869836
869755
869674
869593
869512
869431
869350
869269
869188
869107
869026
868945
870430
870348
870267
870185
870104
870022
869941
869859
869778
869696
869615
869533
869452
869370
869289
869207
869126
869044
868962
868881
870377
870295
870213
870131
870049
869967
869885
869803
869721
869639
869557
869475
869393
869311
869229
869146
869064
868982
868900
868818
870325
870242
870160
870077
869994
869912
869829
869747
869664
869582
869499
869417
869334
869252
869169
869087
869004
868921
868839
868756
870274
870190
870107
870024
869941
869858
869775
869692
869609
869526
869443
869360
869277
869194
869111
869028
868944
868861
868778
868695
870223
870140
870056
869972
869889
869805
869721
869638
869554
869471
869387
869304
869220
869137
869053
868969
868886
868802
868719
868635
870174
870090
870005
869921
869837
869753
869669
869585
869501
869417
869333
869249
869164
869080
868996
868912
868828
868744
868660
868576
870125
870040
869956
869871
869786
869702
869617
869533
869448
869363
869279
869194
869110
869025
868940
868856
868771
868687
868602
868517
870077
869992
869907
869822
869737
869652
869566
869481
869396
869311
869226
869141
869056
868971
868886
868800
868715
868630
868545
868460
870030
869945
869859
869773
869688
869602
869517
869431
869345
869260
869174
869088
869003
868917