/*--------------------------------*- C++ -*----------------------------------*\
  =========                 |
  \\      /  F ield         | OpenFOAM: The Open Source CFD Toolbox
   \\    /   O peration     | Website:  https://openfoam.org
    \\  /    A nd           | Version:  8
     \\/     M anipulation  |
\*---------------------------------------------------------------------------*/
FoamFile
{
    version     2.0;
    format      ascii;
    class       volVectorField;
    location    "800";
    object      U;
}
// * * * * * * * * * * * * * * * * * * * * * * * * * * * * * * * * * * * * * //

dimensions      [0 1 -1 0 0 0 0];

internalField   nonuniform List<vector> 
8400
(
(-35.0532 -0.562452 1.74022e-14)
(-34.3108 -0.580735 1.83573e-14)
(-33.9335 -0.540924 1.91223e-14)
(-33.7471 -0.488881 1.95794e-14)
(-33.72 -0.436983 1.96887e-14)
(-33.8035 -0.379257 1.95105e-14)
(-33.9707 -0.314683 1.91587e-14)
(-34.1806 -0.261197 1.86489e-14)
(-34.3568 -0.250177 1.79972e-14)
(-34.3959 -0.29743 1.72254e-14)
(-34.2026 -0.390934 1.63649e-14)
(-33.7298 -0.500741 1.55197e-14)
(-33.0005 -0.587429 1.48834e-14)
(-32.0882 -0.616185 1.45666e-14)
(-31.1157 -0.561343 1.4643e-14)
(-30.2409 -0.422121 1.51465e-14)
(-29.5982 -0.239878 1.59926e-14)
(-29.2411 -0.0721838 1.6939e-14)
(-29.1398 0.0393724 1.77036e-14)
(-29.1991 0.0695203 1.80583e-14)
(-29.2736 0.00521565 1.79863e-14)
(-29.1866 -0.158844 1.77141e-14)
(-28.7223 -0.425257 1.73237e-14)
(-27.7098 -0.766655 1.71147e-14)
(-26.0926 -1.10001 1.73697e-14)
(-24.0171 -1.29821 1.83041e-14)
(-21.811 -1.27536 1.99361e-14)
(-19.7927 -1.09369 2.20167e-14)
(-18.0797 -0.900074 2.4257e-14)
(-16.6329 -0.753634 2.65752e-14)
(-15.3973 -0.639108 2.90014e-14)
(-14.3413 -0.545457 3.14758e-14)
(-13.4395 -0.469743 3.39474e-14)
(-12.6746 -0.404661 3.63627e-14)
(-12.0346 -0.349152 3.86316e-14)
(-11.507 -0.302289 4.06863e-14)
(-11.0786 -0.263899 4.2446e-14)
(-10.7355 -0.233485 4.38467e-14)
(-10.4641 -0.210242 4.48665e-14)
(-10.2515 -0.193136 4.55314e-14)
(-10.0865 -0.181302 4.5878e-14)
(-9.95887 -0.173946 4.59377e-14)
(-9.85977 -0.170472 4.57741e-14)
(-9.78134 -0.170704 4.54631e-14)
(-9.71672 -0.174818 4.50631e-14)
(-9.65978 -0.183061 4.46356e-14)
(-9.60465 -0.19594 4.40686e-14)
(-9.54456 -0.214193 4.35675e-14)
(-9.46928 -0.239441 4.30152e-14)
(-9.36827 -0.275846 4.24625e-14)
(-32.936 -1.11105 -4.77823e-15)
(-32.442 -0.901345 -4.91428e-15)
(-32.1703 -0.494313 -5.01699e-15)
(-32.0312 -0.115643 -5.11565e-15)
(-31.9562 0.195168 -5.22149e-15)
(-31.9266 0.45511 -5.38122e-15)
(-31.9619 0.659212 -5.67563e-15)
(-32.0592 0.741897 -6.07703e-15)
(-32.1446 0.620951 -6.53414e-15)
(-32.0752 0.280276 -6.96808e-15)
(-31.7136 -0.20945 -7.28823e-15)
(-31.0838 -0.706003 -7.48019e-15)
(-30.2879 -1.0841 -7.65383e-15)
(-29.4021 -1.28669 -7.83033e-15)
(-28.532 -1.2499 -7.98217e-15)
(-27.8443 -0.954406 -8.04427e-15)
(-27.4919 -0.531708 -7.99359e-15)
(-27.4461 -0.161804 -7.87114e-15)
(-27.5791 0.0619407 -7.76426e-15)
(-27.7581 0.103436 -7.70516e-15)
(-27.8854 -0.0625873 -7.68497e-15)
(-27.7993 -0.471666 -7.70773e-15)
(-27.2688 -1.16536 -7.57578e-15)
(-26.1537 -2.0982 -7.29432e-15)
(-24.4773 -3.04026 -6.79125e-15)
(-22.4381 -3.61519 -6.05002e-15)
(-20.3935 -3.53213 -5.26684e-15)
(-18.6367 -2.94929 -4.78738e-15)
(-17.1706 -2.36827 -4.70444e-15)
(-15.9228 -1.98036 -4.78795e-15)
(-14.8212 -1.67982 -4.90858e-15)
(-13.8532 -1.41314 -4.91878e-15)
(-13.0077 -1.19184 -4.69669e-15)
(-12.2792 -0.991053 -4.0605e-15)
(-11.6675 -0.80954 -3.03139e-15)
(-11.1639 -0.646721 -1.68879e-15)
(-10.7575 -0.503306 -2.09819e-16)
(-10.4343 -0.380012 1.1768e-15)
(-10.1803 -0.276031 2.26466e-15)
(-9.98298 -0.189912 3.08188e-15)
(-9.83106 -0.119752 3.55152e-15)
(-9.71468 -0.0636468 3.78627e-15)
(-9.62546 -0.0199611 3.84202e-15)
(-9.55633 0.0125398 3.78331e-15)
(-9.5009 0.0346774 3.67823e-15)
(-9.45341 0.0470921 3.78743e-15)
(-9.40857 0.050247 3.8925e-15)
(-9.36085 0.0445386 3.86358e-15)
(-9.30354 0.0292024 3.55957e-15)
(-9.22993 -0.000206912 3.09613e-15)
(-23.8304 -0.799654 -5.72365e-15)
(-24.203 -0.685638 -6.27788e-15)
(-24.3887 -0.509073 -6.6489e-15)
(-24.4118 -0.358427 -6.8547e-15)
(-24.2048 -0.222832 -6.95306e-15)
(-23.81 -0.0919117 -6.99574e-15)
(-23.4967 -0.0310196 -7.04405e-15)
(-23.3454 -0.148329 -7.09088e-15)
(-23.2601 -0.50261 -7.21316e-15)
(-23.0009 -1.03078 -7.22612e-15)
(-22.526 -1.55431 -7.22226e-15)
(-22.4261 -1.96034 -7.40221e-15)
(-22.5667 -2.21921 -7.81872e-15)
(-22.8613 -2.31091 -8.47803e-15)
(-23.0048 -2.13979 -9.29725e-15)
(-22.6774 -1.57371 -9.77964e-15)
(-22.6688 -0.751461 -9.97008e-15)
(-23.0966 -0.00238438 -9.87264e-15)
(-23.4223 0.457782 -9.77815e-15)
(-23.4896 0.543767 -9.92612e-15)
(-23.3332 0.22988 -1.0289e-14)
(-22.8742 -0.562008 -1.07074e-14)
(-21.8437 -1.89047 -1.08726e-14)
(-20.4866 -3.5567 -1.0474e-14)
(-19.0812 -5.10233 -9.67418e-15)
(-17.6647 -5.91337 -8.38039e-15)
(-16.5126 -5.54579 -6.52085e-15)
(-15.9087 -4.42534 -4.63125e-15)
(-15.1749 -3.51031 -4.04594e-15)
(-14.4375 -3.0729 -4.13724e-15)
(-13.678 -2.71719 -4.60157e-15)
(-12.9304 -2.31128 -5.28369e-15)
(-12.2255 -1.99137 -5.85489e-15)
(-11.5852 -1.69 -6.07263e-15)
(-11.036 -1.40972 -5.75951e-15)
(-10.5833 -1.16293 -4.83342e-15)
(-10.2214 -0.94837 -3.37522e-15)
(-9.93732 -0.769379 -1.69127e-15)
(-9.71704 -0.62256 -1.11993e-16)
(-9.54784 -0.504657 1.2481e-15)
(-9.41884 -0.411631 2.14781e-15)
(-9.32101 -0.339601 2.55825e-15)
(-9.24686 -0.285696 2.47272e-15)
(-9.19 -0.247929 2.08454e-15)
(-9.14474 -0.224985 1.84441e-15)
(-9.10583 -0.21611 1.70546e-15)
(-9.06813 -0.220519 1.87072e-15)
(-9.02651 -0.237171 1.80689e-15)
(-8.97589 -0.265318 1.60606e-15)
(-8.91249 -0.30566 1.34533e-15)
(20.1083 -2.44874 1.09728e-15)
(18.6875 -1.36724 1.0873e-15)
(17.791 -0.722486 1.09852e-15)
(17.0982 -0.319582 1.16786e-15)
(16.4529 -0.0363936 1.26741e-15)
(15.6251 0.234179 1.23713e-15)
(14.6533 0.511617 9.32307e-16)
(13.5576 0.68044 6.75837e-16)
(12.371 0.625469 3.36379e-16)
(11.2256 0.345909 -1.30009e-17)
(9.10728 -0.0686393 -4.76159e-16)
(6.17919 -0.457996 -1.18626e-15)
(2.38481 -0.831747 -2.37434e-15)
(-4.70642 -1.45787 -5.08614e-15)
(-14.3173 -1.79105 -1.14672e-14)
(-14.7421 -1.32831 -1.29479e-14)
(-13.4142 -0.723441 -1.46441e-14)
(-12.4411 -0.370243 -1.65677e-14)
(-11.525 -0.328689 -1.79069e-14)
(-10.3839 -0.585976 -1.90323e-14)
(-8.66671 -1.18658 -1.95448e-14)
(-6.21591 -2.19993 -1.85051e-14)
(-4.19287 -3.59914 -1.61343e-14)
(-3.85684 -5.22168 -1.35191e-14)
(-4.75863 -6.50032 -1.26067e-14)
(-5.6705 -6.70011 -1.22334e-14)
(-7.08775 -5.55091 -1.05797e-14)
(-10.6705 -4.24819 -5.54634e-15)
(-11.7589 -3.65966 -2.5734e-15)
(-11.8091 -3.52912 -1.87602e-15)
(-11.736 -3.30169 -1.79196e-15)
(-11.4626 -2.83215 -2.45629e-15)
(-11.0403 -2.52547 -3.49462e-15)
(-10.5833 -2.18082 -4.75366e-15)
(-10.1413 -1.80168 -6.05987e-15)
(-9.77578 -1.4691 -7.61565e-15)
(-9.48619 -1.16409 -8.90858e-15)
(-9.26383 -0.908999 -9.59535e-15)
(-9.09545 -0.696312 -1.01684e-14)
(-8.9699 -0.523033 -9.92618e-15)
(-8.87696 -0.385081 -9.53225e-15)
(-8.80892 -0.27759 -9.11971e-15)
(-8.76002 -0.196732 -8.67345e-15)
(-8.72527 -0.140115 -8.14106e-15)
(-8.69999 -0.106232 -7.3465e-15)
(-8.67947 -0.0939686 -6.28558e-15)
(-8.65873 -0.101976 -5.08017e-15)
(-8.63287 -0.128572 -3.86493e-15)
(-8.59753 -0.17207 -2.81435e-15)
(-8.54935 -0.231073 -1.83368e-15)
(58.1096 0.843491 9.79431e-16)
(57.2389 1.22149 9.79685e-16)
(56.4113 1.57516 9.79908e-16)
(55.5221 1.90221 9.81816e-16)
(54.4835 2.21578 9.86292e-16)
(53.3185 2.48252 9.89132e-16)
(52.1038 2.63099 9.80203e-16)
(50.9158 2.59589 9.69222e-16)
(49.8084 2.38137 9.42288e-16)
(48.7946 2.07799 8.35786e-16)
(47.861 1.78616 7.12345e-16)
(47.0223 1.55876 6.42899e-16)
(46.2744 1.40788 6.91324e-16)
(45.5553 1.32498 8.10963e-16)
(44.6761 1.30902 7.50493e-16)
(44.0617 1.35451 8.92819e-16)
(43.8475 1.47002 9.71696e-16)
(43.5658 1.63605 1.0484e-15)
(42.9583 1.80414 1.12413e-15)
(41.9576 1.91945 9.486e-16)
(40.6518 1.90857 1.23796e-15)
(38.8762 1.66696 9.78886e-16)
(36.1167 1.08618 1.22062e-17)
(32.0195 0.155039 -1.29155e-15)
(26.4719 -0.937022 -4.2001e-15)
(20.5772 -1.72936 -8.83086e-15)
(15.3805 -1.53166 -1.61979e-14)
(-0.893985 -1.89722 -9.49581e-15)
(-6.71472 -3.31777 1.18975e-15)
(-6.34224 -3.13801 1.89155e-15)
(-8.16311 -3.11444 3.3832e-15)
(-9.19636 -2.98662 4.7982e-15)
(-9.22229 -2.80882 5.2865e-15)
(-9.21905 -2.56771 6.42906e-15)
(-8.92864 -2.13032 8.06678e-15)
(-8.70784 -1.78276 8.82515e-15)
(-8.52599 -1.41828 8.50705e-15)
(-8.38889 -1.12708 6.83506e-15)
(-8.28783 -0.88383 4.09863e-15)
(-8.21666 -0.685791 1.19833e-15)
(-8.16676 -0.530202 -1.6181e-15)
(-8.13244 -0.409237 -4.0716e-15)
(-8.11083 -0.317408 -5.82501e-15)
(-8.09922 -0.252218 -6.87355e-15)
(-8.09431 -0.212717 -6.90334e-15)
(-8.09207 -0.197879 -6.28122e-15)
(-8.08777 -0.206169 -5.18651e-15)
(-8.0769 -0.235666 -3.88946e-15)
(-8.05567 -0.284145 -2.54601e-15)
(-8.02115 -0.349143 -1.34524e-15)
(41.4122 0.456068 9.68362e-16)
(41.0883 0.666953 9.68499e-16)
(41.006 1.04321 9.68086e-16)
(41.1921 1.46491 9.68387e-16)
(41.5382 1.90661 9.69088e-16)
(41.9619 2.30885 9.68504e-16)
(42.3865 2.57986 9.6642e-16)
(42.723 2.6497 9.62777e-16)
(42.8936 2.52283 9.57152e-16)
(42.8669 2.2823 9.47612e-16)
(42.6655 2.02686 9.36512e-16)
(42.3404 1.82502 9.26465e-16)
(41.9493 1.71863 9.20261e-16)
(41.5479 1.72387 9.19673e-16)
(41.1641 1.81298 9.20741e-16)
(40.785 1.94655 9.30116e-16)
(40.3814 2.13145 9.45373e-16)
(39.9297 2.38043 9.6325e-16)
(39.3974 2.66669 9.91678e-16)
(38.7072 2.91763 1.00816e-15)
(37.7189 3.02028 1.04177e-15)
(36.236 2.88924 9.81781e-16)
(34.0691 2.58819 7.75996e-16)
(31.1687 2.38093 3.91118e-16)
(27.6909 2.63242 -8.85492e-16)
(24.2623 3.53158 -3.01218e-15)
(21.3056 4.35737 -6.67909e-15)
(17.2764 4.26224 -8.02104e-15)
(14.8043 3.65189 -8.84025e-15)
(11.819 2.73382 -8.38627e-15)
(-0.296705 -0.811025 -4.05856e-15)
(-5.615 -2.77186 -1.87736e-15)
(-5.61223 -2.37049 -2.07126e-15)
(-7.39667 -2.6952 -1.10783e-15)
(-7.2431 -2.20263 2.7248e-15)
(-7.29609 -1.90256 7.33763e-15)
(-7.30266 -1.48059 1.35e-14)
(-7.28306 -1.16301 1.81689e-14)
(-7.27119 -0.887346 2.14986e-14)
(-7.26884 -0.656118 2.30475e-14)
(-7.27213 -0.482577 2.21211e-14)
(-7.2777 -0.350174 2.08077e-14)
(-7.28807 -0.250514 1.83037e-14)
(-7.30334 -0.182335 1.61005e-14)
(-7.32129 -0.145577 1.39052e-14)
(-7.33809 -0.138245 1.22322e-14)
(-7.3495 -0.157654 1.09172e-14)
(-7.35172 -0.201158 9.82034e-15)
(-7.34183 -0.265708 9.02305e-15)
(-7.31779 -0.347518 7.82486e-15)
(37.6134 1.44239 9.71416e-16)
(37.0871 1.44237 9.71335e-16)
(36.6075 1.53169 9.70728e-16)
(36.3139 1.66737 9.70409e-16)
(36.1843 1.84804 9.70387e-16)
(36.1899 2.05709 9.69568e-16)
(36.2998 2.24911 9.68003e-16)
(36.4535 2.37362 9.65611e-16)
(36.5711 2.40833 9.62032e-16)
(36.5909 2.37232 9.58284e-16)
(36.4918 2.30502 9.54878e-16)
(36.2867 2.24059 9.51178e-16)
(36.0064 2.20008 9.4779e-16)
(35.6842 2.18992 9.44978e-16)
(35.3429 2.20415 9.42652e-16)
(34.9826 2.24116 9.42179e-16)
(34.5972 2.32337 9.44217e-16)
(34.1885 2.48565 9.48515e-16)
(33.7504 2.74952 9.56991e-16)
(33.2424 3.1045 9.68424e-16)
(32.5704 3.50391 9.79946e-16)
(31.5992 3.90092 9.68522e-16)
(30.2109 4.31313 9.06482e-16)
(28.3866 4.84048 7.56497e-16)
(26.2347 5.59374 3.31057e-16)
(24.0514 6.57351 -5.99148e-16)
(21.9774 7.2086 -2.52749e-15)
(19.5295 6.97085 -4.43994e-15)
(17.0946 6.38338 -6.12718e-15)
(14.7994 5.87761 -7.35095e-15)
(11.4567 4.86886 -7.64799e-15)
(9.51383 3.90218 -7.98931e-15)
(5.85531 2.21938 -8.45241e-15)
(-4.84305 -2.31251 -1.42093e-14)
(-4.44321 -1.89317 -1.41691e-14)
(-5.24814 -1.75863 -1.18416e-14)
(-5.75751 -1.44519 -7.40548e-15)
(-5.87084 -1.13483 -3.74943e-15)
(-6.01145 -0.875326 1.09061e-15)
(-6.08819 -0.632124 4.83217e-15)
(-6.1465 -0.47259 6.90596e-15)
(-6.18675 -0.350867 9.14041e-15)
(-6.22602 -0.254408 1.02634e-14)
(-6.26508 -0.187144 1.14287e-14)
(-6.30131 -0.152457 1.2226e-14)
(-6.33103 -0.147536 1.27423e-14)
(-6.35188 -0.169936 1.32741e-14)
(-6.36195 -0.218602 1.34992e-14)
(-6.35948 -0.291637 1.33077e-14)
(-6.34349 -0.384457 1.23957e-14)
(30.8903 1.5309 9.77721e-16)
(30.5159 1.49776 9.77455e-16)
(30.1556 1.55767 9.76571e-16)
(29.9544 1.68124 9.7602e-16)
(29.8827 1.84684 9.75886e-16)
(29.8956 2.03141 9.75154e-16)
(29.9664 2.2034 9.73916e-16)
(30.0627 2.33094 9.72053e-16)
(30.1426 2.39787 9.69106e-16)
(30.17 2.41207 9.66198e-16)
(30.1282 2.39748 9.63672e-16)
(30.02 2.38001 9.60734e-16)
(29.8581 2.37863 9.5797e-16)
(29.656 2.40211 9.5542e-16)
(29.4205 2.45132 9.53057e-16)
(29.15 2.52817 9.51162e-16)
(28.8418 2.64591 9.50147e-16)
(28.4998 2.83154 9.50034e-16)
(28.1302 3.12007 9.51757e-16)
(27.7271 3.54247 9.56261e-16)
(27.2553 4.10991 9.63718e-16)
(26.6457 4.80952 9.64833e-16)
(25.8219 5.62197 9.44343e-16)
(24.751 6.53616 8.76764e-16)
(23.4655 7.52229 6.8067e-16)
(22.087 8.48681 2.07178e-16)
(20.6849 9.09844 -7.94215e-16)
(19.0921 9.1166 -2.13807e-15)
(17.3664 8.77408 -3.70597e-15)
(15.5827 8.11868 -5.24752e-15)
(13.4548 6.9616 -6.40457e-15)
(11.5136 5.86944 -7.35491e-15)
(9.40018 4.86433 -8.00543e-15)
(6.93617 3.62639 -8.80888e-15)
(5.58914 2.71282 -1.08615e-14)
(-1.34724 -0.469374 -1.46632e-14)
(-3.71045 -1.24343 -1.4651e-14)
(-3.70741 -0.820307 -1.19806e-14)
(-4.49124 -0.733543 -9.20718e-15)
(-4.64331 -0.483446 -6.99714e-15)
(-4.73731 -0.361832 -5.40019e-15)
(-4.7899 -0.265021 -3.97072e-15)
(-4.86265 -0.180196 -2.44143e-15)
(-4.92225 -0.120033 -1.22057e-15)
(-4.96824 -0.095214 -2.22402e-16)
(-4.99943 -0.099704 7.93271e-16)
(-5.01937 -0.131938 1.75656e-15)
(-5.02947 -0.192787 3.08114e-15)
(-5.03055 -0.28171 4.23747e-15)
(-5.02215 -0.392491 5.24997e-15)
(25.2471 2.19685 9.78085e-16)
(24.8457 2.05026 9.78004e-16)
(24.4599 1.9952 9.77223e-16)
(24.2306 2.01251 9.76933e-16)
(24.1196 2.07513 9.77135e-16)
(24.0773 2.16412 9.76693e-16)
(24.0798 2.26167 9.76068e-16)
(24.1078 2.34933 9.74899e-16)
(24.1379 2.41494 9.72539e-16)
(24.1478 2.45777 9.70423e-16)
(24.1235 2.48589 9.68765e-16)
(24.0609 2.5098 9.66395e-16)
(23.9626 2.53778 9.6413e-16)
(23.8324 2.57508 9.62035e-16)
(23.6722 2.62628 9.59494e-16)
(23.4803 2.70038 9.57527e-16)
(23.2553 2.81611 9.56213e-16)
(22.9995 3.00509 9.54679e-16)
(22.7193 3.31059 9.5389e-16)
(22.4214 3.77949 9.54691e-16)
(22.1017 4.44556 9.58024e-16)
(21.7351 5.31106 9.61692e-16)
(21.2799 6.34147 9.56307e-16)
(20.7029 7.47401 9.25508e-16)
(19.9993 8.61827 8.2335e-16)
(19.2136 9.65448 5.55115e-16)
(18.3739 10.3707 -3.23366e-17)
(17.3974 10.6002 -9.41554e-16)
(16.2676 10.3982 -2.11995e-15)
(15.0174 9.78784 -3.4552e-15)
(13.5866 8.80597 -4.72164e-15)
(12.1196 7.73205 -5.82522e-15)
(10.5427 6.51213 -6.71272e-15)
(8.87262 5.25973 -7.53214e-15)
(7.45441 4.31236 -8.5997e-15)
(5.48111 3.22685 -9.77629e-15)
(4.50485 2.51954 -1.0528e-14)
(2.71703 1.49189 -1.02257e-14)
(-2.49414 -0.493096 -8.24363e-15)
(-2.76109 -0.412448 -8.5015e-15)
(-2.83683 -0.287064 -8.65339e-15)
(-2.80195 -0.165246 -8.67467e-15)
(-3.02747 -0.113505 -9.07253e-15)
(-3.09194 -0.0627222 -9.26592e-15)
(-3.14363 -0.0496467 -9.13855e-15)
(-3.19524 -0.0650701 -9.03592e-15)
(-3.23631 -0.109126 -8.92114e-15)
(-3.25094 -0.183052 -8.42811e-15)
(-3.25286 -0.286388 -7.3451e-15)
(-3.26264 -0.410767 -5.49226e-15)
(18.9264 2.46221 9.77177e-16)
(18.6314 2.21295 9.77162e-16)
(18.3461 2.08819 9.76553e-16)
(18.2012 2.05934 9.76269e-16)
(18.1506 2.08258 9.76346e-16)
(18.1452 2.13626 9.75961e-16)
(18.1661 2.20792 9.75537e-16)
(18.2024 2.28581 9.74846e-16)
(18.2427 2.36036 9.72957e-16)
(18.275 2.42687 9.71297e-16)
(18.2897 2.48581 9.70008e-16)
(18.2814 2.54043 9.67881e-16)
(18.2483 2.59482 9.65763e-16)
(18.1895 2.65343 9.63785e-16)
(18.1037 2.72248 9.61587e-16)
(17.9893 2.81292 9.59866e-16)
(17.8452 2.94398 9.58698e-16)
(17.6736 3.14654 9.57083e-16)
(17.482 3.46443 9.5552e-16)
(17.2821 3.94983 9.54688e-16)
(17.0848 4.64864 9.55703e-16)
(16.8902 5.57695 9.58651e-16)
(16.6821 6.70314 9.59169e-16)
(16.4381 7.94805 9.45926e-16)
(16.1422 9.19663 8.89337e-16)
(15.8028 10.3154 7.24459e-16)
(15.4192 11.1331 3.45543e-16)
(14.9336 11.5097 -2.94055e-16)
(14.3154 11.4407 -1.18084e-15)
(13.5697 10.9544 -2.25367e-15)
(12.6757 10.1148 -3.41715e-15)
(11.6812 9.07053 -4.60474e-15)
(10.5897 7.87861 -5.64001e-15)
(9.44003 6.68858 -6.55987e-15)
(8.33005 5.58159 -7.61176e-15)
(7.12204 4.47543 -8.60654e-15)
(6.10907 3.62143 -9.4835e-15)
(5.10487 2.89882 -9.84327e-15)
(3.67733 2.0356 -9.4083e-15)
(2.90328 1.45923 -8.83327e-15)
(2.56913 1.13333 -7.21794e-15)
(1.87874 0.758005 -3.97331e-15)
(-0.149381 -0.00628699 -8.22587e-15)
(-0.640358 -0.0621327 -1.51799e-14)
(-0.777322 -0.0476809 -1.88234e-14)
(-0.808472 -0.0502862 -2.07507e-14)
(-0.841031 -0.0889388 -2.17779e-14)
(-0.930689 -0.172626 -2.16189e-14)
(-0.954275 -0.279477 -2.00309e-14)
(-1.00926 -0.397963 -1.79535e-14)
(12.6381 2.77627 9.76034e-16)
(12.4098 2.40237 9.761e-16)
(12.2347 2.22088 9.75455e-16)
(12.1817 2.16484 9.75154e-16)
(12.1945 2.16432 9.75147e-16)
(12.2344 2.19369 9.74563e-16)
(12.2906 2.24328 9.74033e-16)
(12.3591 2.30571 9.73531e-16)
(12.4345 2.374 9.72147e-16)
(12.5095 2.44227 9.70756e-16)
(12.5771 2.50732 9.69711e-16)
(12.6311 2.56862 9.6798e-16)
(12.6672 2.62795 9.66074e-16)
(12.6816 2.6894 9.64285e-16)
(12.671 2.76031 9.62176e-16)
(12.6326 2.85301 9.60754e-16)
(12.5656 2.98747 9.59555e-16)
(12.4724 3.19422 9.57618e-16)
(12.3612 3.51594 9.55758e-16)
(12.2467 4.00475 9.54375e-16)
(12.1481 4.71018 9.54185e-16)
(12.081 5.65605 9.56265e-16)
(12.0487 6.81706 9.59204e-16)
(12.0418 8.11198 9.54932e-16)
(12.0452 9.4166 9.22066e-16)
(12.0509 10.5898 8.20334e-16)
(12.0421 11.4768 5.6723e-16)
(11.9689 11.9539 1.05972e-16)
(11.7955 11.9949 -5.36519e-16)
(11.5073 11.6223 -1.36088e-15)
(11.087 10.8982 -2.31942e-15)
(10.5521 9.93491 -3.35477e-15)
(9.91234 8.81931 -4.4017e-15)
(9.19762 7.66131 -5.3991e-15)
(8.45982 6.52861 -6.50548e-15)
(7.68318 5.45015 -7.65933e-15)
(6.95657 4.51642 -8.83966e-15)
(6.27008 3.6738 -9.80171e-15)
(5.51797 2.86202 -1.03434e-14)
(4.82619 2.22442 -1.03044e-14)
(4.27275 1.79075 -9.56263e-15)
(3.81672 1.45036 -8.09888e-15)
(3.27667 1.08228 -7.02235e-15)
(2.85863 0.794406 -6.38978e-15)
(2.54943 0.575776 -6.46647e-15)
(2.3242 0.411864 -7.00926e-15)
(2.16327 0.285259 -8.2796e-15)
(2.06138 0.174785 -1.02712e-14)
(1.89368 0.0518197 -1.38604e-14)
(1.55709 -0.0994359 -1.92808e-14)
(6.64961 3.08224 9.70676e-16)
(6.45426 2.54099 9.72268e-16)
(6.42534 2.29976 9.72422e-16)
(6.45096 2.20416 9.72603e-16)
(6.4943 2.16693 9.72938e-16)
(6.54712 2.16335 9.72635e-16)
(6.61409 2.18583 9.72303e-16)
(6.69917 2.22869 9.71385e-16)
(6.80196 2.28536 9.69553e-16)
(6.91723 2.34907 9.68083e-16)
(7.03729 2.4145 9.66923e-16)
(7.15372 2.47902 9.65478e-16)
(7.25843 2.54293 9.63941e-16)
(7.3437 2.60964 9.62535e-16)
(7.40253 2.68657 9.60388e-16)
(7.42962 2.78614 9.58672e-16)
(7.42266 2.9277 9.57241e-16)
(7.38422 3.14013 9.55222e-16)
(7.3244 3.46387 9.5326e-16)
(7.26318 3.94924 9.51781e-16)
(7.22934 4.6464 9.51787e-16)
(7.25287 5.58363 9.5367e-16)
(7.35298 6.74137 9.57371e-16)
(7.53145 8.04158 9.52167e-16)
(7.77548 9.35744 9.11759e-16)
(8.06955 10.5453 8.14645e-16)
(8.38737 11.4617 5.82211e-16)
(8.6796 11.9967 1.83362e-16)
(8.90516 12.116 -3.81544e-16)
(9.03664 11.8364 -1.10524e-15)
(9.05184 11.2151 -1.95251e-15)
(8.95103 10.3454 -2.86905e-15)
(8.737 9.31359 -3.82738e-15)
(8.43051 8.21449 -4.77537e-15)
(8.06235 7.1159 -5.80189e-15)
(7.64214 6.05975 -6.89875e-15)
(7.21426 5.09736 -8.08966e-15)
(6.79094 4.21998 -9.26877e-15)
(6.342 3.42064 -1.03221e-14)
(5.89238 2.75227 -1.10243e-14)
(5.48978 2.22679 -1.11813e-14)
(5.15479 1.80061 -1.08298e-14)
(4.85026 1.43065 -1.01823e-14)
(4.58005 1.12776 -9.40077e-15)
(4.34543 0.888424 -9.00663e-15)
(4.14366 0.696302 -9.03771e-15)
(3.9667 0.531817 -9.3757e-15)
(3.80197 0.380541 -9.97636e-15)
(3.62517 0.238678 -1.05942e-14)
(3.43675 0.105025 -1.14439e-14)
(0.94209 3.75847 9.5704e-16)
(0.47343 2.31188 9.59586e-16)
(0.665792 2.15276 9.65293e-16)
(0.747429 2.10098 9.69604e-16)
(0.786292 2.05857 9.70298e-16)
(0.837749 2.03715 9.74707e-16)
(0.921252 2.04403 9.78025e-16)
(1.043 2.07664 9.72308e-16)
(1.19948 2.12623 9.65321e-16)
(1.38308 2.18473 9.61041e-16)
(1.58159 2.24635 9.58673e-16)
(1.78169 2.30833 9.57938e-16)
(1.96996 2.37128 9.56728e-16)
(2.13253 2.43895 9.55131e-16)
(2.2575 2.51941 9.51324e-16)
(2.33571 2.62536 9.49661e-16)
(2.36214 2.77493 9.488e-16)
(2.33988 2.99446 9.4643e-16)
(2.28464 3.32096 9.50915e-16)
(2.22891 3.8014 9.52031e-16)
(2.22082 4.48449 9.32901e-16)
(2.311 5.3989 9.65083e-16)
(2.53335 6.52666 9.93832e-16)
(2.89091 7.79009 9.21987e-16)
(3.36442 9.06526 8.68962e-16)
(3.93219 10.2184 7.96765e-16)
(4.5627 11.1214 5.26738e-16)
(5.20143 11.675 1.63304e-16)
(5.80092 11.8419 -3.41183e-16)
(6.32556 11.635 -9.90056e-16)
(6.74656 11.1055 -1.73686e-15)
(7.05181 10.3319 -2.52529e-15)
(7.23675 9.39376 -3.35399e-15)
(7.31292 8.3744 -4.17335e-15)
(7.2989 7.33713 -5.02896e-15)
(7.20937 6.32814 -5.87294e-15)
(7.07209 5.38779 -6.75961e-15)
(6.90113 4.52378 -7.63168e-15)
(6.69549 3.74473 -8.41994e-15)
(6.4702 3.07504 -8.9548e-15)
(6.2506 2.51818 -9.17152e-15)
(6.05212 2.05315 -9.08728e-15)
(5.86945 1.65958 -8.81428e-15)
(5.69758 1.33188 -8.30698e-15)
(5.53536 1.06265 -7.9416e-15)
(5.38179 0.839895 -7.93247e-15)
(5.23304 0.649535 -8.11722e-15)
(5.08231 0.479928 -8.57582e-15)
(4.92174 0.325721 -8.9355e-15)
(4.7469 0.188284 -8.86873e-15)
(-4.86035 2.76558 7.75185e-16)
(-4.8461 2.20858 7.84888e-16)
(-4.71297 2.0734 8.11031e-16)
(-4.66326 1.98945 8.32438e-16)
(-4.60734 1.93032 8.48395e-16)
(-4.52767 1.8979 8.60216e-16)
(-4.41675 1.89089 8.65355e-16)
(-4.27236 1.90394 8.64398e-16)
(-4.09894 1.93024 8.6267e-16)
(-3.90466 1.96437 8.62288e-16)
(-3.70076 2.00375 8.6249e-16)
(-3.50035 2.04862 8.61241e-16)
(-3.31634 2.10206 8.5854e-16)
(-3.1612 2.17036 8.54201e-16)
(-3.04557 2.26324 8.50422e-16)
(-2.97697 2.39338 8.51588e-16)
(-2.95735 2.57713 8.57275e-16)
(-2.97857 2.83641 8.66367e-16)
(-3.01811 3.19945 8.78113e-16)
(-3.0353 3.69998 8.75273e-16)
(-2.97501 4.37098 8.48503e-16)
(-2.78218 5.23014 8.9593e-16)
(-2.42221 6.26028 8.29559e-16)
(-1.88877 7.39637 7.95234e-16)
(-1.18381 8.5571 7.44829e-16)
(-0.289835 9.66046 6.08885e-16)
(0.672305 10.4926 3.19849e-16)
(1.65907 11.0185 1.98592e-17)
(2.62051 11.2 -3.71367e-16)
(3.51857 11.0466 -9.12495e-16)
(4.31886 10.5995 -1.55222e-15)
(5.00077 9.92388 -2.20483e-15)
(5.55435 9.08925 -2.89502e-15)
(5.98414 8.16789 -3.55078e-15)
(6.30128 7.21711 -4.1953e-15)
(6.51955 6.28187 -4.79894e-15)
(6.6591 5.39701 -5.36542e-15)
(6.73459 4.57931 -5.91681e-15)
(6.75542 3.84242 -6.34948e-15)
(6.73505 3.19931 -6.58311e-15)
(6.68954 2.65075 -6.53185e-15)
(6.63037 2.18583 -6.21641e-15)
(6.56119 1.79255 -5.6683e-15)
(6.48333 1.46295 -4.78115e-15)
(6.39877 1.18918 -3.75206e-15)
(6.30897 0.961846 -2.88191e-15)
(6.21331 0.771072 -2.10119e-15)
(6.10913 0.608919 -1.63341e-15)
(5.99315 0.470908 -1.23684e-15)
(5.86271 0.355757 -1.02878e-15)
(-10.598 2.21715 4.63723e-16)
(-10.3174 2.05695 4.65111e-16)
(-10.1987 1.93178 4.67427e-16)
(-10.1082 1.84454 4.64692e-16)
(-10.0246 1.78546 4.57291e-16)
(-9.93332 1.75033 4.44962e-16)
(-9.82664 1.73506 4.27078e-16)
(-9.70109 1.73522 4.05149e-16)
(-9.5576 1.74691 3.79914e-16)
(-9.40062 1.76766 3.50094e-16)
(-9.2368 1.79742 3.16391e-16)
(-9.07408 1.83883 2.81851e-16)
(-8.92066 1.897 2.46732e-16)
(-8.78385 1.97936 2.14896e-16)
(-8.66943 2.09554 1.89885e-16)
(-8.5803 2.25695 1.73896e-16)
(-8.51391 2.47708 1.70326e-16)
(-8.45927 2.772 1.80524e-16)
(-8.39408 3.16058 2.00841e-16)
(-8.28225 3.66312 2.23316e-16)
(-8.0765 4.29699 2.47053e-16)
(-7.72848 5.06789 2.86211e-16)
(-7.20205 5.95844 3.05479e-16)
(-6.47278 6.92403 3.22416e-16)
(-5.52716 7.90601 2.92293e-16)
(-4.39596 8.81573 1.35914e-16)
(-3.16358 9.52985 -1.9168e-16)
(-1.8923 10.0011 -3.90663e-16)
(-0.554288 10.1941 -5.16756e-16)
(0.738612 10.087 -7.69081e-16)
(1.89444 9.72388 -1.33293e-15)
(2.92161 9.15196 -1.92156e-15)
(3.80972 8.43109 -2.47842e-15)
(4.55962 7.62492 -2.99235e-15)
(5.1779 6.78316 -3.45112e-15)
(5.67674 5.94589 -3.86044e-15)
(6.07306 5.14436 -4.18417e-15)
(6.38171 4.399 -4.48314e-15)
(6.61491 3.72463 -4.66757e-15)
(6.78529 3.13065 -4.63976e-15)
(6.90558 2.61815 -4.34941e-15)
(6.98619 2.18121 -3.79528e-15)
(7.03443 1.81191 -3.06586e-15)
(7.05619 1.50291 -2.10746e-15)
(7.05671 1.24657 -1.07232e-15)
(7.03998 1.03458 -1.49856e-16)
(7.00817 0.85875 5.35187e-16)
(6.96144 0.712331 7.76541e-16)
(6.89875 0.590666 5.88242e-16)
(6.81837 0.491001 2.00905e-16)
(-16.7309 1.87385 8.85875e-16)
(-16.3446 1.8549 8.66402e-16)
(-16.1449 1.80578 8.34819e-16)
(-15.9708 1.76 7.9302e-16)
(-15.821 1.72262 7.44708e-16)
(-15.6822 1.69559 6.92674e-16)
(-15.5457 1.679 6.37839e-16)
(-15.4058 1.672 5.83111e-16)
(-15.259 1.67356 5.30792e-16)
(-15.1044 1.68353 4.81937e-16)
(-14.9424 1.70336 4.36719e-16)
(-14.7746 1.73639 3.95965e-16)
(-14.6031 1.7879 3.57987e-16)
(-14.4299 1.86505 3.22147e-16)
(-14.2561 1.97653 2.86944e-16)
(-14.0811 2.13253 2.54251e-16)
(-13.9001 2.34467 2.29368e-16)
(-13.7028 2.62571 2.14339e-16)
(-13.4703 2.98907 2.09901e-16)
(-13.1748 3.44699 2.16867e-16)
(-12.7797 4.00691 2.34936e-16)
(-12.246 4.66611 2.6298e-16)
(-11.5374 5.40669 2.7856e-16)
(-10.6226 6.19499 2.64659e-16)
(-9.4868 6.98337 1.72183e-16)
(-8.15522 7.70313 -4.6269e-17)
(-6.69121 8.27578 -3.50693e-16)
(-5.14564 8.65699 -4.64393e-16)
(-3.53846 8.82244 -3.50276e-16)
(-1.99091 8.7687 -2.37678e-16)
(-0.479739 8.4996 -7.21659e-16)
(0.911074 8.03962 -1.51059e-15)
(2.09854 7.45359 -1.98586e-15)
(3.13221 6.77964 -2.4657e-15)
(4.01596 6.06694 -2.86924e-15)
(4.76237 5.34883 -3.1748e-15)
(5.38847 4.65323 -3.39301e-15)
(5.90946 4.0019 -3.56427e-15)
(6.33766 3.41047 -3.65337e-15)
(6.68442 2.88757 -3.59226e-15)
(6.96075 2.43449 -3.35545e-15)
(7.17702 2.04732 -2.98075e-15)
(7.34272 1.72013 -2.58173e-15)
(7.46656 1.44651 -2.21172e-15)
(7.55618 1.2197 -1.90648e-15)
(7.61782 1.03278 -1.80433e-15)
(7.65581 0.87915 -1.97791e-15)
(7.67245 0.753184 -2.42541e-15)
(7.66857 0.650859 -3.16127e-15)
(7.64362 0.569686 -4.10686e-15)
(-23.4956 1.48544 9.05422e-16)
(-22.99 1.51382 9.11229e-16)
(-22.6518 1.51567 9.1721e-16)
(-22.3338 1.50805 9.23584e-16)
(-22.0433 1.49819 9.3233e-16)
(-21.7734 1.48955 9.44172e-16)
(-21.5182 1.4838 9.58413e-16)
(-21.2728 1.48169 9.75039e-16)
(-21.0329 1.4838 9.93464e-16)
(-20.7949 1.49113 1.01385e-15)
(-20.5557 1.5058 1.0366e-15)
(-20.313 1.5313 1.06055e-15)
(-20.064 1.57261 1.08307e-15)
(-19.8062 1.63612 1.104e-15)
(-19.5362 1.72928 1.12191e-15)
(-19.2487 1.8604 1.13544e-15)
(-18.9356 2.03857 1.14455e-15)
(-18.5841 2.2736 1.14662e-15)
(-18.1754 2.57543 1.14015e-15)
(-17.6848 2.95265 1.1247e-15)
(-17.0823 3.40948 1.09953e-15)
(-16.3363 3.94156 1.06119e-15)
(-15.4168 4.53269 9.97255e-16)
(-14.2996 5.15322 8.88582e-16)
(-12.9768 5.76072 6.99261e-16)
(-11.4679 6.30441 4.03813e-16)
(-9.81402 6.73641 7.84946e-17)
(-8.05655 7.02487 -2.74339e-17)
(-6.23351 7.15104 2.33804e-16)
(-4.43113 7.11095 5.72259e-16)
(-2.68976 6.9295 2.67736e-16)
(-1.10529 6.64143 -8.02557e-16)
(0.50077 6.1768 -1.5396e-15)
(1.77196 5.66786 -2.18215e-15)
(2.88179 5.10292 -2.64744e-15)
(3.83781 4.52005 -3.02824e-15)
(4.66137 3.94499 -3.32269e-15)
(5.36918 3.40225 -3.58396e-15)
(5.97202 2.90932 -3.82188e-15)
(6.4784 2.47436 -4.02116e-15)
(6.89754 2.09787 -4.15992e-15)
(7.24 1.776 -4.25046e-15)
(7.51698 1.50339 -4.379e-15)
(7.73938 1.27448 -4.52529e-15)
(7.91701 1.08392 -4.71563e-15)
(8.05797 0.926594 -4.93784e-15)
(8.16831 0.7978 -5.1516e-15)
(8.25206 0.693724 -5.37248e-15)
(8.31171 0.611849 -5.77529e-15)
(8.34774 0.551074 -6.69642e-15)
(-30.0106 1.08987 6.3256e-16)
(-29.4388 1.12349 6.91848e-16)
(-29.0038 1.14751 7.56273e-16)
(-28.5733 1.1649 8.23848e-16)
(-28.1582 1.17911 8.94437e-16)
(-27.7568 1.19206 9.67455e-16)
(-27.3673 1.20477 1.04067e-15)
(-26.9876 1.21781 1.11296e-15)
(-26.6154 1.23188 1.18458e-15)
(-26.2481 1.24809 1.25514e-15)
(-25.8826 1.26831 1.32571e-15)
(-25.5154 1.29537 1.39501e-15)
(-25.1425 1.33325 1.46064e-15)
(-24.759 1.38672 1.52142e-15)
(-24.3594 1.4612 1.57593e-15)
(-23.9357 1.56243 1.62195e-15)
(-23.4768 1.69638 1.65655e-15)
(-22.9669 1.86942 1.67502e-15)
(-22.3855 2.08825 1.67474e-15)
(-21.7077 2.35908 1.65319e-15)
(-20.9066 2.68537 1.60696e-15)
(-19.9555 3.06451 1.53285e-15)
(-18.8313 3.48486 1.42239e-15)
(-17.5179 3.92403 1.26332e-15)
(-16.0123 4.34997 1.03725e-15)
(-14.3297 4.72722 7.35581e-16)
(-12.5016 5.02414 4.2039e-16)
(-10.5677 5.21665 2.70402e-16)
(-8.57318 5.28811 4.50055e-16)
(-6.57718 5.2384 7.78714e-16)
(-4.63913 5.10151 5.91038e-16)
(-2.84265 4.92416 -5.24448e-16)
(-1.17379 4.67729 -1.46703e-15)
(0.536363 4.31598 -2.44148e-15)
(1.81759 3.93656 -3.11429e-15)
(2.93866 3.5077 -3.70134e-15)
(3.92218 3.06731 -4.17149e-15)
(4.78875 2.64856 -4.62741e-15)
(5.54429 2.27244 -5.0496e-15)
(6.19162 1.94553 -5.44879e-15)
(6.7373 1.66579 -5.82677e-15)
(7.19215 1.42774 -6.12851e-15)
(7.56935 1.22569 -6.37199e-15)
(7.88225 1.05484 -6.58507e-15)
(8.14276 0.911358 -6.63249e-15)
(8.36063 0.792016 -6.6797e-15)
(8.5434 0.694209 -6.67547e-15)
(8.69661 0.616183 -6.57467e-15)
(8.82424 0.557343 -6.57065e-15)
(8.92804 0.518476 -7.03844e-15)
(-35.2335 0.570932 -2.02221e-18)
(-34.6899 0.590768 5.6542e-17)
(-34.2459 0.611393 1.17825e-16)
(-33.7898 0.630246 1.80219e-16)
(-33.3309 0.647861 2.43968e-16)
(-32.8697 0.664754 3.08377e-16)
(-32.4064 0.681214 3.71628e-16)
(-31.9412 0.69733 4.33612e-16)
(-31.4734 0.71335 4.93531e-16)
(-31.0023 0.729931 5.5026e-16)
(-30.5261 0.748189 6.04104e-16)
(-30.0425 0.769875 6.54097e-16)
(-29.5483 0.797413 6.98653e-16)
(-29.0394 0.833733 7.36706e-16)
(-28.51 0.881979 7.66739e-16)
(-27.9523 0.945384 7.87842e-16)
(-27.3541 1.02731 7.97806e-16)
(-26.6986 1.13138 7.95092e-16)
(-25.9636 1.26163 7.78062e-16)
(-25.1237 1.42225 7.44462e-16)
(-24.153 1.61611 6.91602e-16)
(-23.0285 1.84229 6.15615e-16)
(-21.7322 2.09354 5.10322e-16)
(-20.2536 2.3556 3.67244e-16)
(-18.5917 2.60882 1.76238e-16)
(-16.7591 2.83284 -6.78921e-17)
(-14.7842 3.00935 -3.34673e-16)
(-12.7085 3.12083 -5.34103e-16)
(-10.5777 3.14988 -5.43537e-16)
(-8.43421 3.09284 -4.20351e-16)
(-6.32921 2.98658 -5.8783e-16)
(-4.35609 2.89991 -1.4164e-15)
(-2.56305 2.83802 -2.36484e-15)
(-0.841284 2.75016 -3.3491e-15)
(0.84018 2.57219 -4.27706e-15)
(2.0875 2.29597 -4.92699e-15)
(3.19219 1.96862 -5.44785e-15)