/*--------------------------------*- C++ -*----------------------------------*\
  =========                 |
  \\      /  F ield         | OpenFOAM: The Open Source CFD Toolbox
   \\    /   O peration     | Website:  https://openfoam.org
    \\  /    A nd           | Version:  8
     \\/     M anipulation  |
\*---------------------------------------------------------------------------*/
FoamFile
{
    version     2.0;
    format      ascii;
    class       volScalarField;
    location    "700";
    object      alphat;
}
// * * * * * * * * * * * * * * * * * * * * * * * * * * * * * * * * * * * * * //

dimensions      [1 -1 -1 0 0 0 0];

internalField   nonuniform List<scalar> 
1200
(
0.800856
0.734798
0.67983
0.633448
0.593845
0.559688
0.529948
0.503857
0.48081
0.460353
0.442119
0.425779
0.411065
0.397766
0.385698
0.374709
0.364659
0.355421
0.346904
0.339026
0.331737
0.32501
0.318806
0.313096
0.307906
0.303118
0.298647
0.294434
0.290452
0.286694
0.283156
0.279824
0.276726
0.274519
0.274866
0.276874
0.277223
0.274508
0.269279
0.262624
0.255453
0.248378
0.24185
0.236159
0.231391
0.227479
0.224302
0.221735
0.219704
0.218436
0.217778
0.217196
0.216036
0.213947
0.211144
0.208211
0.205779
0.204171
0.20345
0.203012
0.465663
0.399881
0.3494
0.309658
0.277682
0.251463
0.229565
0.211063
0.195279
0.181682
0.169839
0.159438
0.150232
0.142028
0.13458
0.127744
0.12151
0.115879
0.110774
0.106122
0.101862
0.0979461
0.0943345
0.0909928
0.0879115
0.0851851
0.0828084
0.0807078
0.0788168
0.0770533
0.0754798
0.0744925
0.0750454
0.0802409
0.0906397
0.0997498
0.103554
0.10272
0.0991245
0.0942345
0.0889145
0.0835828
0.078434
0.0736218
0.0692711
0.0654248
0.0620798
0.0593122
0.0572493
0.0556252
0.0543114
0.0532347
0.0523281
0.0515272
0.0507925
0.0501214
0.0495545
0.0491586
0.04907
0.0493201
0.465559
0.399222
0.348288
0.308141
0.275814
0.249303
0.227208
0.20853
0.192558
0.178766
0.166754
0.156206
0.146876
0.138569
0.131123
0.124412
0.118336
0.112815
0.107783
0.103179
0.0989511
0.0950551
0.0914529
0.0881106
0.0850011
0.0821105
0.0794204
0.076909
0.0745568
0.0723459
0.0702709
0.0683613
0.0667213
0.0659471
0.0674216
0.0706066
0.0731952
0.0741008
0.0735048
0.0719456
0.0698737
0.0675624
0.0651622
0.0627762
0.0604797
0.0583248
0.0563571
0.0546218
0.0530943
0.051734
0.0505293
0.0494613
0.0484864
0.0475489
0.0466248
0.0457358
0.0449295
0.0442361
0.0436744
0.0432441
0.465559
0.399396
0.348579
0.308504
0.276204
0.249693
0.227586
0.208892
0.192898
0.179081
0.167041
0.156468
0.147114
0.138783
0.131318
0.124593
0.118505
0.112974
0.107931
0.103318
0.0990844
0.095185
0.0915814
0.0882403
0.0851328
0.0822351
0.0795246
0.0769821
0.0745915
0.0723396
0.0702179
0.0682214
0.0663455
0.0646289
0.0633298
0.0627021
0.0624246
0.0620211
0.0612943
0.0602744
0.059065
0.0577576
0.0563952
0.0550335
0.0537077
0.0524077
0.0511161
0.0498127
0.0485105
0.0472275
0.045979
0.04482
0.0438133
0.0430036
0.0423929
0.0419369
0.0415711
0.0412286
0.0408857
0.0404967
0.465559
0.399398
0.348548
0.308444
0.276122
0.249595
0.227482
0.20879
0.192803
0.178995
0.166966
0.156401
0.147053
0.138726
0.131264
0.124541
0.118457
0.112931
0.107895
0.103293
0.0990721
0.09519
0.091606
0.0882823
0.0851858
0.0822892
0.0795667
0.0769982
0.0745684
0.0722708
0.0701284
0.0681186
0.0661891
0.0643841
0.0627212
0.0612493
0.0599564
0.0587591
0.0575832
0.0563985
0.0552086
0.0540324
0.0528994
0.0518182
0.0507771
0.0497804
0.0488259
0.047914
0.0470464
0.0462607
0.0455964
0.0450237
0.0445008
0.0440127
0.0435731
0.0431799
0.0428072
0.042416
0.0419965
0.0415159
0.465559
0.399402
0.348549
0.308444
0.276119
0.249588
0.227473
0.208779
0.192793
0.178988
0.166962
0.156398
0.147049
0.138721
0.131259
0.124538
0.118457
0.112936
0.107908
0.103317
0.0991154
0.0952629
0.0917243
0.0884691
0.0854709
0.0827135
0.0801921
0.0779094
0.0758862
0.0742403
0.0729254
0.0716946
0.07031
0.0686322
0.0668325
0.0650533
0.0633833
0.0618595
0.060477
0.0592147
0.0580469
0.0569496
0.0559
0.0548668
0.0538465
0.0528351
0.0518342
0.0508811
0.0499863
0.0491435
0.0483499
0.047605
0.0469013
0.0462465
0.0456428
0.0450661
0.0444923
0.0439039
0.0432922
0.0426431
0.465559
0.399412
0.348593
0.30852
0.276219
0.249701
0.227595
0.208906
0.192918
0.179104
0.167066
0.156492
0.147134
0.138798
0.131327
0.124596
0.118505
0.112975
0.107942
0.103355
0.0991775
0.0954024
0.092048
0.0891307
0.0866371
0.0845403
0.082827
0.0814974
0.0805394
0.0798746
0.0792968
0.0785039
0.0772958
0.0756081
0.0734652
0.0712339
0.0691316
0.0672162
0.0654879
0.0639263
0.0625148
0.0612045
0.0599536
0.0587356
0.0575369
0.0563749
0.0552522
0.0541725
0.0531422
0.0521619
0.0512104
0.0502799
0.049374
0.0484751
0.047551
0.0466043
0.0457044
0.0448751
0.0440375
0.043138
0.465559
0.399243
0.348308
0.308158
0.275821
0.249295
0.227192
0.208518
0.192556
0.178775
0.166769
0.156223
0.146889
0.138575
0.131125
0.124415
0.118346
0.112839
0.107826
0.103257
0.0991077
0.0954125
0.0922786
0.0898301
0.0881169
0.0870958
0.0866175
0.0863606
0.0860059
0.0855891
0.0854443
0.0852758
0.0844363
0.0825895
0.0798625
0.076825
0.0740267
0.0715573
0.0695478
0.0679011
0.0664379
0.0650468
0.0636413
0.0621429
0.0606395
0.0592302
0.0579193
0.0567028
0.0555482
0.0543822
0.0531904
0.0519537
0.0506508
0.0492633
0.0478119
0.0465858
0.0459076
0.0455249
0.0448775
0.0437188
0.465663
0.399857
0.34932
0.309523
0.277491
0.25123
0.229355
0.210857
0.195021
0.181332
0.169405
0.158928
0.149636
0.141312
0.133805
0.127017
0.120891
0.115345
0.1103
0.105694
0.101476
0.0976114
0.0940708
0.0908273
0.0878471
0.0853403
0.0835318
0.0825504
0.0824339
0.0851526
0.0920212
0.0977553
0.100348
0.100309
0.0986289
0.0962029
0.0940843
0.0928636
0.0920553
0.0911057
0.0897106
0.087783
0.0852993
0.0822148
0.0784264
0.0741515
0.0700308
0.0665023
0.0634229
0.0606952
0.0582846
0.0561883
0.0544252
0.0530632
0.0522701
0.0523253
0.0529381
0.0525404
0.0505562
0.0472569
0.800859
0.734852
0.679879
0.633497
0.593888
0.559714
0.529986
0.503927
0.480927
0.460502
0.44227
0.42592
0.411196
0.397882
0.385793
0.37477
0.364677
0.355445
0.346971
0.339099
0.331748
0.324904
0.318564
0.31273
0.307476
0.302675
0.298234
0.294106
0.290314
0.288739
0.292856
0.298202
0.299725
0.297303
0.292451
0.286354
0.279609
0.272442
0.264931
0.257111
0.248978
0.240434
0.231382
0.221781
0.211713
0.201423
0.191236
0.181813
0.17375
0.167339
0.162884
0.160511
0.159687
0.158967
0.156715
0.151781
0.143918
0.134172
0.123866
0.115044
0.800872
0.734883
0.67989
0.63348
0.593843
0.55964
0.529883
0.503824
0.480838
0.460412
0.442161
0.425795
0.411059
0.397736
0.38565
0.374662
0.364617
0.35538
0.346863
0.338982
0.331692
0.324976
0.318818
0.313155
0.307928
0.303109
0.298626
0.294417
0.290453
0.286712
0.283188
0.279872
0.276774
0.274401
0.274345
0.276261
0.27697
0.274743
0.269903
0.263475
0.256385
0.249283
0.242655
0.236833
0.231933
0.22791
0.224648
0.222025
0.219916
0.218548
0.217811
0.217205
0.21608
0.214059
0.211312
0.208391
0.20593
0.204282
0.20353
0.20311
0.465663
0.399884
0.349349
0.309552
0.277537
0.251328
0.229497
0.211045
0.195255
0.181591
0.169677
0.159214
0.149957
0.141686
0.134251
0.127509
0.121381
0.115818
0.110747
0.106111
0.101858
0.097945
0.094335
0.0909909
0.0879172
0.0851862
0.0828277
0.0807868
0.0789296
0.0770926
0.0753682
0.0742051
0.0744552
0.0788828
0.0888667
0.098492
0.103076
0.102833
0.0995797
0.0948513
0.0895864
0.0842545
0.0790747
0.0742056
0.069777
0.0658391
0.0623918
0.0595042
0.0573478
0.0556741
0.0543286
0.0532298
0.052308
0.0514971
0.0507549
0.0500759
0.0494982
0.0490862
0.0489688
0.0491818
0.465559
0.399262
0.348328
0.308171
0.275827
0.249294
0.227178
0.208503
0.192551
0.178775
0.166763
0.156208
0.146869
0.138552
0.1311
0.124392
0.118324
0.11281
0.107784
0.103183
0.0989562
0.0950609
0.0914593
0.0881188
0.0850099
0.0821129
0.0794163
0.0769034
0.0745547
0.0723445
0.0702626
0.0683366
0.066656
0.0657029
0.0668287
0.0698953
0.0726763
0.07386
0.0734877
0.0720698
0.0700733
0.0677956
0.0654048
0.0630119
0.0606955
0.0585084
0.0564972
0.054714
0.0531485
0.0517548
0.0505209
0.0494295
0.0484398
0.0474962
0.0465704
0.0456786
0.0448663
0.0441649
0.0435933
0.0431532
0.465559
0.399424
0.348606
0.308527
0.276219
0.249694
0.227571
0.208879
0.192902
0.179098
0.167061
0.156482
0.14712
0.138781
0.131311
0.124585
0.1185
0.112973
0.107933
0.103323
0.0990893
0.0951903
0.0915876
0.0882471
0.0851387
0.0822383
0.0795245
0.0769811
0.074591
0.07234
0.0702188
0.0682223
0.0663453
0.0646146
0.0632509
0.0625401
0.0622428
0.0618829
0.0612218
0.0602611
0.0590953
0.0578169
0.0564767
0.055124
0.0537979
0.0524949
0.0511995
0.049893
0.0485825
0.0472928
0.0460344
0.0448618
0.043838
0.0430082
0.0423773
0.0419046
0.0415281
0.0411803
0.0408358
0.040447
0.465559
0.399418
0.348573
0.308469
0.276144
0.249608
0.227477
0.208781
0.192806
0.179009
0.166981
0.15641
0.147055
0.138722
0.131257
0.124535
0.118454
0.112931
0.107898
0.103297
0.0990778
0.0951964
0.0916131
0.0882889
0.0851907
0.0822908
0.0795644
0.076992
0.0745585
0.0722572
0.0701123
0.068095
0.066165
0.0643615
0.0627006
0.0612279
0.0599358
0.0587445
0.0575749
0.0563919
0.0552005
0.054024
0.0528898
0.0518094
0.0507799
0.0497933
0.0488398
0.04792
0.0470395
0.0462306
0.0455483
0.0449694
0.0444513
0.0439718
0.043538
0.0431472
0.0427756
0.0423856
0.0419678
0.0414893
0.465559
0.399413
0.348566
0.308459
0.276134
0.249599
0.227468
0.208771
0.192795
0.178998
0.166972
0.156404
0.14705
0.138718
0.131255
0.124534
0.118456
0.112937
0.107911
0.103322
0.0991226
0.0952722
0.0917367
0.0884858
0.0854937
0.0827451
0.0802357
0.0779701
0.0759737
0.0743691
0.0730771
0.0718343
0.0704031
0.0686755
0.0668604
0.065074
0.0634058
0.0618889
0.0605146
0.0592598
0.0580977
0.0569998
0.0559457
0.0549099
0.0538858
0.0528682
0.0518561
0.0508795
0.0499611
0.0491082
0.0483121
0.0475754
0.0468829
0.0462359
0.0456356
0.0450604
0.044487
0.0438991
0.043289
0.0426417
0.465559
0.39942
0.34861
0.308538
0.276239
0.249722
0.2276
0.208904
0.192922
0.179115
0.167078
0.156499
0.147135
0.138795
0.131321
0.124591
0.118503
0.112976
0.107946
0.103361
0.0991882
0.0954224
0.0920857
0.0891954
0.086735
0.0846736
0.0829981
0.08171
0.0807964
0.0801612
0.0795694
0.0787165
0.0774211
0.075636
0.0734138
0.0711689
0.0690689
0.0671627
0.0654449
0.0638939
0.0624887
0.0611813
0.0599301
0.0587049
0.0575045
0.0563424
0.0552201
0.0541411
0.0531091
0.0521341
0.0512006
0.0502859
0.0493916
0.0485018
0.0475864
0.0466427
0.0457357
0.0449005
0.044066
0.0431718
0.465559
0.399237
0.348308
0.308159
0.275827
0.249305
0.227193
0.208515
0.192558
0.178782
0.166776
0.156226
0.146889
0.138572
0.131122
0.124413
0.118347
0.112841
0.10783
0.103264
0.0991211
0.0954444
0.0923514
0.0899712
0.0883472
0.087421
0.0870204
0.0868031
0.0864551
0.0860458
0.0858755
0.0856034
0.0845988
0.0825629
0.0796898
0.0766196
0.0738308
0.0713904
0.0694223
0.0678001
0.0663436
0.064945
0.063523
0.0620033
0.0604921
0.0590871
0.0577857
0.0565811
0.0554569
0.0543645
0.0532497
0.0520668
0.0507929
0.0494219
0.0479673
0.0466956
0.0459434
0.0455293
0.0449054
0.0437755
0.465663
0.399864
0.349357
0.309584
0.277577
0.251316
0.229396
0.210856
0.19501
0.181326
0.169385
0.158862
0.149522
0.141171
0.133689
0.126956
0.120865
0.115335
0.110296
0.105692
0.101476
0.0976141
0.0940783
0.0908418
0.0878707
0.0853738
0.0836334
0.0827366
0.0827492
0.0851432
0.0912886
0.0969661
0.0998542
0.100086
0.0985869
0.0962726
0.0941387
0.0928639
0.0920577
0.0911614
0.0898423
0.0879886
0.0855678
0.0825404
0.0788043
0.0745317
0.0703324
0.0667385
0.0636116
0.0608479
0.0584056
0.0562785
0.0544824
0.0530802
0.0522336
0.052208
0.0528362
0.0525584
0.050716
0.0474994
0.800855
0.734845
0.679903
0.633524
0.593918
0.55975
0.530004
0.503936
0.480943
0.460529
0.4423
0.425941
0.4112
0.397871
0.385748
0.37469
0.364593
0.355373
0.346903
0.339027
0.331669
0.324824
0.318485
0.312642
0.307343
0.302582
0.298183
0.294091
0.2903
0.288354
0.291929
0.297476
0.29955
0.297576
0.292985
0.287019
0.28034
0.27321
0.265723
0.257915
0.249786
0.241246
0.232203
0.222613
0.212554
0.202262
0.192061
0.182557
0.174392
0.167867
0.163288
0.160801
0.15991
0.159208
0.157071
0.152329
0.144642
0.134997
0.124689
0.115766
)
;

boundaryField
{
    wall
    {
        type            compressible::alphatJayatillekeWallFunction;
        Prt             0.85;
        value           uniform 0;
    }
    inlet
    {
        type            calculated;
        value           uniform 37.903;
    }
    outlet
    {
        type            calculated;
        value           nonuniform List<scalar> 
20
(
0.203013
0.0493203
0.0432441
0.0404967
0.0415159
0.0426432
0.0431382
0.0437189
0.047257
0.115044
0.203111
0.0491821
0.0431532
0.040447
0.0414893
0.0426418
0.043172
0.0437756
0.0474995
0.115766
)
;
    }
    heatWall
    {
        type            compressible::alphatJayatillekeWallFunction;
        Prt             0.85;
        value           nonuniform List<scalar> 
240
(
0
0
0
0
0
0
0
0
0.060237
0.0602403
0.0568663
0.0568701
0.0539307
0.0539324
0.0513543
0.0513552
0.0490775
0.0490794
0.0470532
0.0470563
0.0452444
0.0452475
0.0436209
0.0436228
0.0421574
0.0421574
0.0408331
0.0408314
0.0396296
0.0396242
0.0385317
0.0385228
0.0375267
0.0375178
0.0366082
0.0366007
0.0357643
0.0357576
0.0349779
0.0349708
0.0342417
0.0342341
0.0335556
0.0335481
0.0329191
0.0329119
0.0323328
0.0323245
0.0318055
0.0317926
0.0313236
0.0313143
0.0308781
0.030873
0.0304632
0.0304619
0.0300888
0.0300855
0.0300074
0.0299569
0.0305217
0.0304204
0.0310812
0.0310087
0.0312117
0.0311981
0.0309366
0.0309684
0.0304199
0.0304774
0.0297815
0.0298515
0.0290784
0.0291548
0.0283313
0.0284113
0.0275486
0.0276309
0.026736
0.0268192
0.0258946
0.025978
0.0250172
0.025101
0.0240904
0.024175
0.0231072
0.0231931
0.0220765
0.0221633
0.0210242
0.0211108
0.0199855
0.0200699
0.0190312
0.0191072
0.0182178
0.0182833
0.0175771
0.0176306
0.0171403
0.017181
0.0169188
0.0169478
0.0168523
0.0168748
0.0167843
0.0168094
0.0165438
0.0165817
0.0160113
0.0160699
0.0151784
0.0152548
0.0141536
0.0142399
0.0130876
0.013173
0.012174
0.0122481
0
0
0
0
0
0
0.0641339
0.064137
0.0602329
0.0602323
0.0568639
0.0568585
0.0539268
0.05392
0.0513467
0.0513439
0.0490649
0.0490686
0.0470376
0.0470441
0.0452292
0.0452334
0.0436068
0.043608
0.0421443
0.0421433
0.0408214
0.0408178
0.03962
0.0396145
0.0385253
0.0385201
0.0375236
0.0375191
0.0366021
0.0365982
0.0357517
0.035748
0.0349639
0.0349599
0.0342345
0.0342304
0.0335612
0.0335583
0.0329401
0.0329419
0.0323691
0.0323752
0.0318499
0.0318518
0.0313703
0.0313689
0.0309208
0.0309182
0.0304957
0.0304941
0.0300936
0.0300943
0.0297142
0.0297168
0.0293571
0.0293612
0.0290208
0.0290264
0.0287131
0.028717
0.0285306
0.0285107
0.0286341
0.0285727
0.0288535
0.028792
0.0288462
0.0288281
0.0285089
0.0285418
0.0279255
0.0279961
0.027217
0.0273077
0.0264754
0.0265717
0.0257592
0.0258506
0.0251082
0.0251884
0.0245462
0.0246127
0.0240779
0.0241312
0.0236949
0.0237373
0.023385
0.0234193
0.0231354
0.0231642
0.0229461
0.0229659
0.0228359
0.0228455
0.0227842
0.0227863
0.0227321
0.0227324
0.0226122
0.0226171
0.0223929
0.0224051
0.0221031
0.0221208
0.0218048
0.0218235
0.0215627
0.0215784
0.0214034
0.0214153
0.0213343
0.0213437
0.0212824
0.0212948
)
;
    }
}


// ************************************************************************* //
