/*--------------------------------*- C++ -*----------------------------------*\
  =========                 |
  \\      /  F ield         | OpenFOAM: The Open Source CFD Toolbox
   \\    /   O peration     | Website:  https://openfoam.org
    \\  /    A nd           | Version:  8
     \\/     M anipulation  |
\*---------------------------------------------------------------------------*/
FoamFile
{
    version     2.0;
    format      ascii;
    class       volScalarField;
    location    "700";
    object      k;
}
// * * * * * * * * * * * * * * * * * * * * * * * * * * * * * * * * * * * * * //

dimensions      [0 2 -2 0 0 0 0];

internalField   nonuniform List<scalar> 
1200
(
0.803272
0.676222
0.578834
0.502544
0.44167
0.392322
0.351738
0.317955
0.289534
0.26542
0.244811
0.227051
0.21163
0.198159
0.186319
0.175855
0.166549
0.158216
0.150723
0.143955
0.137832
0.132303
0.127306
0.122795
0.118756
0.115088
0.111711
0.108572
0.105645
0.102916
0.100376
0.0980099
0.0958611
0.0945308
0.0950309
0.096285
0.0960957
0.0937966
0.0899642
0.0854186
0.0807705
0.0763829
0.0724871
0.0691981
0.0665103
0.0643424
0.0625999
0.0612004
0.0601397
0.0595084
0.0591909
0.0588744
0.0582068
0.057031
0.0555058
0.0539629
0.0527218
0.0519174
0.0515543
0.0513036
0.695244
0.512689
0.391415
0.307437
0.247222
0.202738
0.168965
0.142827
0.122264
0.105831
0.0924843
0.0815042
0.0723658
0.0646796
0.0580757
0.0523253
0.0473415
0.0430545
0.0393443
0.0361096
0.0332694
0.0307609
0.0285347
0.0265504
0.0247977
0.0233025
0.0220425
0.0209608
0.0200116
0.0191474
0.0184113
0.0180059
0.0185156
0.0216546
0.0275577
0.0326725
0.0345479
0.0335798
0.0310515
0.0279591
0.0248459
0.0219388
0.0193203
0.0170389
0.015113
0.0135168
0.0122114
0.0111982
0.0104616
0.00989293
0.0094421
0.00907937
0.00877832
0.00851554
0.00827753
0.0080635
0.0078863
0.0077668
0.00774986
0.00784299
0.694934
0.510999
0.388927
0.304433
0.243907
0.199272
0.165517
0.139422
0.118883
0.102463
0.0891557
0.0782345
0.0691683
0.0615652
0.0551273
0.0496292
0.0449004
0.0408092
0.0372502
0.0341363
0.0313965
0.0289733
0.0268192
0.0248948
0.0231686
0.0216201
0.0202273
0.0189691
0.0178276
0.0167874
0.0158419
0.0150014
0.0143217
0.0141188
0.0149187
0.0163392
0.0174016
0.0176761
0.017283
0.0164938
0.0155248
0.0144993
0.0134819
0.0125143
0.0116235
0.0108241
0.0101246
0.00952893
0.0090178
0.00857453
0.00819101
0.00785691
0.00755507
0.00726747
0.00698844
0.00672599
0.00649368
0.00629806
0.00614282
0.00602589
0.694933
0.511445
0.389578
0.305152
0.244599
0.199896
0.166067
0.139907
0.119303
0.102824
0.0894634
0.0784967
0.0693915
0.0617549
0.0552908
0.0497732
0.0450288
0.040924
0.0373526
0.0342287
0.0314814
0.0290528
0.0268952
0.0249688
0.0232411
0.0216856
0.0202793
0.0190027
0.0178401
0.0167784
0.0158081
0.0149219
0.014114
0.0134067
0.0129126
0.012687
0.0125664
0.0123744
0.0120551
0.0116344
0.011158
0.0106597
0.0101572
0.00967073
0.00921038
0.00877062
0.00834405
0.00792451
0.00751802
0.00712748
0.00675858
0.00642633
0.00614664
0.00592855
0.00576834
0.0056502
0.00555515
0.00546517
0.00537473
0.0052727
0.694933
0.511452
0.389509
0.305033
0.244453
0.199739
0.165916
0.13977
0.119186
0.102726
0.0893828
0.0784293
0.069334
0.0617047
0.0552459
0.0497325
0.0449926
0.0408929
0.0373281
0.0342121
0.0314744
0.029057
0.0269105
0.0249929
0.0232693
0.0217117
0.0202964
0.0190043
0.0178206
0.016737
0.0157572
0.0148624
0.0140321
0.0132791
0.0126085
0.012032
0.0115328
0.0110743
0.0106304
0.0101926
0.00976387
0.00935135
0.00896463
0.00860231
0.00826076
0.00794178
0.00764373
0.00736536
0.00710638
0.00687846
0.00668637
0.00651886
0.00636472
0.00622251
0.00609729
0.00598721
0.00588375
0.00577571
0.00566058
0.00553052
0.694932
0.511461
0.389513
0.305033
0.244449
0.199729
0.165902
0.139755
0.119173
0.102718
0.0893785
0.0784263
0.0693309
0.0617011
0.055242
0.0497297
0.0449925
0.0408968
0.0373372
0.0342291
0.0315033
0.0291038
0.0269843
0.0251065
0.0234388
0.0219581
0.020649
0.0195031
0.0185236
0.0177556
0.0171448
0.0165621
0.0159019
0.0151296
0.0143386
0.0135835
0.0128983
0.0122902
0.0117515
0.01127
0.0108329
0.0104295
0.0100486
0.0096796
0.00932187
0.00897399
0.00863686
0.00832194
0.00803143
0.00775952
0.00750702
0.00727251
0.007055
0.00685731
0.00667839
0.00650945
0.00634318
0.00617452
0.00600117
0.00582062
0.694933
0.511489
0.389611
0.305183
0.244626
0.19991
0.166081
0.139926
0.119328
0.102852
0.0894908
0.0785207
0.0694111
0.0617694
0.0552994
0.0497763
0.0450292
0.0409254
0.0373612
0.0342548
0.0315456
0.0291973
0.027194
0.025518
0.0241348
0.0230069
0.0221113
0.0214366
0.0209644
0.0206347
0.0203221
0.0198749
0.0192111
0.018321
0.0172608
0.0162227
0.015282
0.0144525
0.0137242
0.0130826
0.0125135
0.0119938
0.0115073
0.0110423
0.0105961
0.0101728
0.00977231
0.00939504
0.00904204
0.00871176
0.00839568
0.00809243
0.0078017
0.00751681
0.00722815
0.00694014
0.00667405
0.00643175
0.00618901
0.00593503
0.694934
0.511057
0.388975
0.304468
0.24392
0.19926
0.165493
0.139406
0.118881
0.102474
0.0891726
0.0782511
0.0691805
0.0615708
0.0551286
0.0496317
0.0449088
0.0408266
0.0372808
0.0341904
0.0315034
0.0292129
0.027357
0.0259758
0.0250593
0.0245476
0.0243276
0.0242032
0.0240053
0.0237818
0.0236889
0.0235121
0.0229172
0.0217837
0.0202721
0.0187413
0.0174051
0.016279
0.0153965
0.0146826
0.0140527
0.0134592
0.012868
0.0122539
0.0116688
0.0111349
0.0106501
0.0102099
0.00979859
0.00939131
0.00898321
0.00856816
0.00814057
0.00769543
0.00725003
0.00690083
0.00672476
0.00661733
0.00641766
0.00607955
0.695244
0.512629
0.391238
0.307172
0.246882
0.202363
0.168657
0.142549
0.12194
0.105422
0.0920092
0.0809793
0.0717845
0.0640177
0.0573967
0.0517203
0.0468533
0.042654
0.0390052
0.0358162
0.0330165
0.0305515
0.0283789
0.0264608
0.0247599
0.0233961
0.0224634
0.0219991
0.0220519
0.0239183
0.027892
0.031141
0.0325261
0.0323127
0.0311124
0.0295354
0.0282812
0.0275836
0.0270879
0.0264829
0.0256202
0.0244788
0.0230697
0.02139
0.0194322
0.01737
0.0155283
0.0140284
0.0127762
0.0117137
0.0108133
0.0100611
0.00945198
0.00899941
0.00875195
0.00879846
0.00898143
0.00878974
0.00808102
0.00702913
0.803279
0.676324
0.57892
0.502624
0.441734
0.392358
0.351788
0.318044
0.289675
0.265593
0.24498
0.227202
0.211765
0.198275
0.186408
0.175904
0.16655
0.158216
0.150752
0.143982
0.137804
0.132183
0.127086
0.122485
0.118414
0.114742
0.111392
0.108316
0.105566
0.10481
0.108059
0.111594
0.112171
0.109981
0.10621
0.101714
0.0969047
0.0919421
0.0868929
0.0817975
0.0766672
0.0714603
0.0661433
0.0607306
0.0553098
0.0500398
0.0450975
0.0407877
0.0372881
0.0346351
0.0328696
0.0319698
0.0316706
0.0313716
0.0304273
0.0284431
0.0254879
0.0220965
0.0188165
0.0162527
0.803303
0.676379
0.578937
0.502597
0.441668
0.392255
0.351651
0.317914
0.289568
0.265488
0.244858
0.227068
0.211624
0.198128
0.186271
0.17581
0.166509
0.15818
0.150687
0.143917
0.137795
0.132276
0.127316
0.122839
0.118771
0.11508
0.111696
0.108561
0.105647
0.102932
0.100403
0.0980472
0.0958893
0.0944103
0.0946464
0.095898
0.0959889
0.0940193
0.0904233
0.0859937
0.0813651
0.0769335
0.0729588
0.0695809
0.0668115
0.0645784
0.0627887
0.061358
0.0602476
0.0595609
0.0592031
0.058878
0.0582347
0.0570974
0.0556
0.0540609
0.0528033
0.0519784
0.0516023
0.0513638
0.695244
0.512697
0.391301
0.307227
0.246962
0.202518
0.168864
0.142802
0.122234
0.105725
0.0923071
0.0812745
0.0720987
0.064365
0.0577866
0.052127
0.047238
0.0430076
0.0393251
0.0361022
0.0332666
0.0307603
0.0285351
0.0265534
0.0248011
0.0232998
0.0220467
0.0209935
0.020059
0.0191569
0.0183466
0.0178555
0.0181828
0.0208847
0.0265423
0.0319519
0.0343108
0.0337031
0.0313624
0.0283373
0.0252265
0.0222927
0.0196342
0.0173046
0.0153271
0.0136801
0.0123256
0.0112614
0.0104939
0.00990833
0.00944686
0.00907689
0.00877105
0.00850523
0.00826497
0.00804857
0.00786808
0.00774351
0.00771703
0.00779764
0.694934
0.511105
0.389018
0.304493
0.243931
0.199259
0.165472
0.139386
0.118875
0.102474
0.0891655
0.0782361
0.0691616
0.0615499
0.0551082
0.0496132
0.044891
0.0408058
0.0372507
0.0341389
0.0313999
0.0289769
0.026823
0.0248995
0.0231735
0.0216214
0.0202253
0.0189664
0.0178267
0.0167864
0.015837
0.0149884
0.0142859
0.0139904
0.0146425
0.0160248
0.0171809
0.0175835
0.0172896
0.0165589
0.0156173
0.014601
0.0135824
0.0126073
0.0117042
0.0108888
0.0101707
0.00955739
0.00903295
0.00857855
0.00818584
0.00784495
0.00753939
0.00725077
0.00697179
0.00670882
0.00647499
0.00627732
0.00611955
0.0060001
0.694933
0.511519
0.38964
0.305197
0.244626
0.199899
0.166046
0.13989
0.119308
0.102844
0.0894852
0.0785112
0.0693977
0.0617537
0.0552851
0.049767
0.045025
0.0409231
0.0373542
0.0342315
0.0314846
0.0290562
0.0268989
0.0249727
0.0232444
0.0216873
0.0202792
0.0190021
0.0178397
0.0167784
0.0158082
0.0149218
0.0141131
0.0133973
0.0128741
0.0126187
0.0124958
0.0123242
0.0120311
0.0116324
0.0111711
0.010683
0.0101867
0.00970211
0.00924074
0.00879915
0.00837077
0.00794944
0.00753971
0.00714658
0.00677425
0.00643775
0.00615289
0.00592894
0.00576303
0.00564048
0.00554273
0.0054516
0.00536099
0.00525922
0.694934
0.511504
0.389566
0.305082
0.244492
0.199761
0.165908
0.139758
0.119189
0.102742
0.0893994
0.0784391
0.0693368
0.0617018
0.0552401
0.0497272
0.0449899
0.040893
0.0373301
0.0342152
0.0314781
0.029061
0.0269147
0.0249965
0.0232717
0.0217121
0.0202947
0.0190006
0.0178153
0.01673
0.0157491
0.0148511
0.0140218
0.0132705
0.0126012
0.0120246
0.0115262
0.0110703
0.0106288
0.0101917
0.00976271
0.00935038
0.00896368
0.00860163
0.00826262
0.00794508
0.00764582
0.00736423
0.00710104
0.00686676
0.00667073
0.00650291
0.00635118
0.00621164
0.00608777
0.00597803
0.00587466
0.0057669
0.00565238
0.00552305
0.694933
0.511491
0.389552
0.305063
0.244474
0.199747
0.165896
0.139745
0.119176
0.10273
0.08939
0.0784323
0.0693318
0.0616985
0.0552381
0.0497266
0.0449915
0.0408977
0.0373398
0.0342328
0.0315081
0.0291098
0.0269919
0.0251166
0.0234524
0.0219764
0.0206736
0.0195363
0.0185705
0.0178213
0.0172176
0.0166253
0.015941
0.0151492
0.0143502
0.0135924
0.0129082
0.0123029
0.0117672
0.0112882
0.0108527
0.0104486
0.0100656
0.00969542
0.00933555
0.00898499
0.00864392
0.00832142
0.00802388
0.00774954
0.00749706
0.00726538
0.00705095
0.00685491
0.0066764
0.00650754
0.00634125
0.00617276
0.00600001
0.00582008
0.694933
0.511508
0.389651
0.30522
0.24466
0.199943
0.166088
0.139923
0.119333
0.102864
0.0895036
0.0785285
0.069413
0.0617665
0.0552944
0.0497724
0.0450276
0.0409262
0.0373639
0.0342593
0.0315529
0.0292106
0.0272182
0.0255579
0.024193
0.0230837
0.0222073
0.0215532
0.0211026
0.0207836
0.0204575
0.0199742
0.0192629
0.0183229
0.017234
0.0161914
0.0152536
0.0144293
0.0137062
0.0130694
0.012503
0.0119849
0.0114984
0.0110313
0.010585
0.0101619
0.0097617
0.00938473
0.0090312
0.00870309
0.00839281
0.00809442
0.00780708
0.00752484
0.0072386
0.00695096
0.00668263
0.00643897
0.0061973
0.00594455
0.694933
0.511041
0.388976
0.304469
0.243929
0.199276
0.165494
0.139402
0.118883
0.102481
0.0891793
0.078254
0.0691801
0.0615684
0.0551262
0.0496304
0.044909
0.0408283
0.0372839
0.0341953
0.0315128
0.0292347
0.0274049
0.026065
0.0252001
0.024741
0.0245618
0.0244554
0.0242578
0.0240342
0.0239174
0.023673
0.0229797
0.0217452
0.0201707
0.0186366
0.0173122
0.0162055
0.0153429
0.0146396
0.0140122
0.0134156
0.0128181
0.0121986
0.0116131
0.0110825
0.0106024
0.0101674
0.00976862
0.0093872
0.00900433
0.00860562
0.00818596
0.00774476
0.00729589
0.00693018
0.00673248
0.00661809
0.00642637
0.00609603
0.695243
0.512648
0.39132
0.30729
0.247033
0.2025
0.168716
0.142546
0.121925
0.105413
0.091985
0.0809089
0.071672
0.0638877
0.0572968
0.0516716
0.0468338
0.0426464
0.039002
0.0358151
0.0330166
0.0305535
0.028384
0.0264705
0.0247754
0.0234185
0.0225225
0.0221043
0.0222241
0.0238581
0.0274406
0.0306669
0.0322292
0.0321829
0.0310999
0.0295826
0.0283099
0.0275836
0.0270935
0.0265221
0.0257024
0.0245992
0.0232193
0.0215642
0.0196207
0.0175452
0.0156584
0.0141252
0.0128503
0.011771
0.0108566
0.0100918
0.00947016
0.0090034
0.00873757
0.00875742
0.00895096
0.00880134
0.00813672
0.00710388
0.803271
0.67631
0.578958
0.502666
0.44178
0.39241
0.351812
0.318055
0.289695
0.265625
0.245012
0.227224
0.211769
0.198262
0.18636
0.175823
0.16647
0.158149
0.150692
0.143919
0.137739
0.13212
0.127025
0.122418
0.118314
0.114672
0.111355
0.108307
0.105546
0.104476
0.107383
0.111116
0.112102
0.110223
0.10662
0.102199
0.0974194
0.092467
0.0874167
0.0823118
0.0771672
0.0719453
0.0666151
0.0611899
0.0557529
0.0504605
0.0454869
0.0411209
0.0375624
0.0348511
0.0330298
0.0320829
0.0317582
0.031469
0.0305712
0.0286572
0.0257507
0.0223728
0.0190678
0.0164555
)
;

boundaryField
{
    wall
    {
        type            kqRWallFunction;
        value           nonuniform List<scalar> 
1200
(
0.803272
0.695244
0.694934
0.694933
0.694933
0.694932
0.694933
0.694934
0.695244
0.803279
0.676222
0.512689
0.510999
0.511445
0.511452
0.511461
0.511489
0.511057
0.512629
0.676324
0.578834
0.391415
0.388927
0.389578
0.389509
0.389513
0.389611
0.388975
0.391238
0.57892
0.502544
0.307437
0.304433
0.305152
0.305033
0.305033
0.305183
0.304468
0.307172
0.502624
0.44167
0.247222
0.243907
0.244599
0.244453
0.244449
0.244626
0.24392
0.246882
0.441734
0.392322
0.202738
0.199272
0.199896
0.199739
0.199729
0.19991
0.19926
0.202363
0.392358
0.351738
0.168965
0.165517
0.166067
0.165916
0.165902
0.166081
0.165493
0.168657
0.351788
0.317955
0.142827
0.139422
0.139907
0.13977
0.139755
0.139926
0.139406
0.142549
0.318044
0.289534
0.122264
0.118883
0.119303
0.119186
0.119173
0.119328
0.118881
0.12194
0.289675
0.26542
0.105831
0.102463
0.102824
0.102726
0.102718
0.102852
0.102474
0.105422
0.265593
0.244811
0.0924843
0.0891557
0.0894634
0.0893828
0.0893785
0.0894908
0.0891726
0.0920092
0.24498
0.227051
0.0815042
0.0782345
0.0784967
0.0784293
0.0784263
0.0785207
0.0782511
0.0809793
0.227202
0.21163
0.0723658
0.0691683
0.0693915
0.069334
0.0693309
0.0694111
0.0691805
0.0717845
0.211765
0.198159
0.0646796
0.0615652
0.0617549
0.0617047
0.0617011
0.0617694
0.0615708
0.0640177
0.198275
0.186319
0.0580757
0.0551273
0.0552908
0.0552459
0.055242
0.0552994
0.0551286
0.0573967
0.186408
0.175855
0.0523253
0.0496292
0.0497732
0.0497325
0.0497297
0.0497763
0.0496317
0.0517203
0.175904
0.166549
0.0473415
0.0449004
0.0450288
0.0449926
0.0449925
0.0450292
0.0449088
0.0468533
0.16655
0.158216
0.0430545
0.0408092
0.040924
0.0408929
0.0408968
0.0409254
0.0408266
0.042654
0.158216
0.150723
0.0393443
0.0372502
0.0373526
0.0373281
0.0373372
0.0373612
0.0372808
0.0390052
0.150752
0.143955
0.0361096
0.0341363
0.0342287
0.0342121
0.0342291
0.0342548
0.0341904
0.0358162
0.143982
0.137832
0.0332694
0.0313965
0.0314814
0.0314744
0.0315033
0.0315456
0.0315034
0.0330165
0.137804
0.132303
0.0307609
0.0289733
0.0290528
0.029057
0.0291038
0.0291973
0.0292129
0.0305515
0.132183
0.127306
0.0285347
0.0268192
0.0268952
0.0269105
0.0269843
0.027194
0.027357
0.0283789
0.127086
0.122795
0.0265504
0.0248948
0.0249688
0.0249929
0.0251065
0.025518
0.0259758
0.0264608
0.122485
0.118756
0.0247977
0.0231686
0.0232411
0.0232693
0.0234388
0.0241348
0.0250593
0.0247599
0.118414
0.115088
0.0233025
0.0216201
0.0216856
0.0217117
0.0219581
0.0230069
0.0245476
0.0233961
0.114742
0.111711
0.0220425
0.0202273
0.0202793
0.0202964
0.020649
0.0221113
0.0243276
0.0224634
0.111392
0.108572
0.0209608
0.0189691
0.0190027
0.0190043
0.0195031
0.0214366
0.0242032
0.0219991
0.108316
0.105645
0.0200116
0.0178276
0.0178401
0.0178206
0.0185236
0.0209644
0.0240053
0.0220519
0.105566
0.102916
0.0191474
0.0167874
0.0167784
0.016737
0.0177556
0.0206347
0.0237818
0.0239183
0.10481
0.100376
0.0184113
0.0158419
0.0158081
0.0157572
0.0171448
0.0203221
0.0236889
0.027892
0.108059
0.0980099
0.0180059
0.0150014
0.0149219
0.0148624
0.0165621
0.0198749
0.0235121
0.031141
0.111594
0.0958611
0.0185156
0.0143217
0.014114
0.0140321
0.0159019
0.0192111
0.0229172
0.0325261
0.112171
0.0945308
0.0216546
0.0141188
0.0134067
0.0132791
0.0151296
0.018321
0.0217837
0.0323127
0.109981
0.0950309
0.0275577
0.0149187
0.0129126
0.0126085
0.0143386
0.0172608
0.0202721
0.0311124
0.10621
0.096285
0.0326725
0.0163392
0.012687
0.012032
0.0135835
0.0162227
0.0187413
0.0295354
0.101714
0.0960957
0.0345479
0.0174016
0.0125664
0.0115328
0.0128983
0.015282
0.0174051
0.0282812
0.0969047
0.0937966
0.0335798
0.0176761
0.0123744
0.0110743
0.0122902
0.0144525
0.016279
0.0275836
0.0919421
0.0899642
0.0310515
0.017283
0.0120551
0.0106304
0.0117515
0.0137242
0.0153965
0.0270879
0.0868929
0.0854186
0.0279591
0.0164938
0.0116344
0.0101926
0.01127
0.0130826
0.0146826
0.0264829
0.0817975
0.0807705
0.0248459
0.0155248
0.011158
0.00976387
0.0108329
0.0125135
0.0140527
0.0256202
0.0766672
0.0763829
0.0219388
0.0144993
0.0106597
0.00935135
0.0104295
0.0119938
0.0134592
0.0244788
0.0714603
0.0724871
0.0193203
0.0134819
0.0101572
0.00896463
0.0100486
0.0115073
0.012868
0.0230697
0.0661433
0.0691981
0.0170389
0.0125143
0.00967073
0.00860231
0.0096796
0.0110423
0.0122539
0.02139
0.0607306
0.0665103
0.015113
0.0116235
0.00921038
0.00826076
0.00932187
0.0105961
0.0116688
0.0194322
0.0553098
0.0643424
0.0135168
0.0108241
0.00877062
0.00794178
0.00897399
0.0101728
0.0111349
0.01737
0.0500398
0.0625999
0.0122114
0.0101246
0.00834405
0.00764373
0.00863686
0.00977231
0.0106501
0.0155283
0.0450975
0.0612004
0.0111982
0.00952893
0.00792451
0.00736536
0.00832194
0.00939504
0.0102099
0.0140284
0.0407877
0.0601397
0.0104616
0.0090178
0.00751802
0.00710638
0.00803143
0.00904204
0.00979859
0.0127762
0.0372881
0.0595084
0.00989293
0.00857453
0.00712748
0.00687846
0.00775952
0.00871176
0.00939131
0.0117137
0.0346351
0.0591909
0.0094421
0.00819101
0.00675858
0.00668637
0.00750702
0.00839568
0.00898321
0.0108133
0.0328696
0.0588744
0.00907937
0.00785691
0.00642633
0.00651886
0.00727251
0.00809243
0.00856816
0.0100611
0.0319698
0.0582068
0.00877832
0.00755507
0.00614664
0.00636472
0.007055
0.0078017
0.00814057
0.00945198
0.0316706
0.057031
0.00851554
0.00726747
0.00592855
0.00622251
0.00685731
0.00751681
0.00769543
0.00899941
0.0313716
0.0555058
0.00827753
0.00698844
0.00576834
0.00609729
0.00667839
0.00722815
0.00725003
0.00875195
0.0304273
0.0539629
0.0080635
0.00672599
0.0056502
0.00598721
0.00650945
0.00694014
0.00690083
0.00879846
0.0284431
0.0527218
0.0078863
0.00649368
0.00555515
0.00588375
0.00634318
0.00667405
0.00672476
0.00898143
0.0254879
0.0519174
0.0077668
0.00629806
0.00546517
0.00577571
0.00617452
0.00643175
0.00661733
0.00878974
0.0220965
0.0515543
0.00774986
0.00614282
0.00537473
0.00566058
0.00600117
0.00618901
0.00641766
0.00808102
0.0188165
0.0513036
0.00784299
0.00602589
0.0052727
0.00553052
0.00582062
0.00593503
0.00607955
0.00702913
0.0162527
0.803303
0.695244
0.694934
0.694933
0.694934
0.694933
0.694933
0.694933
0.695243
0.803271
0.676379
0.512697
0.511105
0.511519
0.511504
0.511491
0.511508
0.511041
0.512648
0.67631
0.578937
0.391301
0.389018
0.38964
0.389566
0.389552
0.389651
0.388976
0.39132
0.578958
0.502597
0.307227
0.304493
0.305197
0.305082
0.305063
0.30522
0.304469
0.30729
0.502666
0.441668
0.246962
0.243931
0.244626
0.244492
0.244474
0.24466
0.243929
0.247033
0.44178
0.392255
0.202518
0.199259
0.199899
0.199761
0.199747
0.199943
0.199276
0.2025
0.39241
0.351651
0.168864
0.165472
0.166046
0.165908
0.165896
0.166088
0.165494
0.168716
0.351812
0.317914
0.142802
0.139386
0.13989
0.139758
0.139745
0.139923
0.139402
0.142546
0.318055
0.289568
0.122234
0.118875
0.119308
0.119189
0.119176
0.119333
0.118883
0.121925
0.289695
0.265488
0.105725
0.102474
0.102844
0.102742
0.10273
0.102864
0.102481
0.105413
0.265625
0.244858
0.0923071
0.0891655
0.0894852
0.0893994
0.08939
0.0895036
0.0891793
0.091985
0.245012
0.227068
0.0812745
0.0782361
0.0785112
0.0784391
0.0784323
0.0785285
0.078254
0.0809089
0.227224
0.211624
0.0720987
0.0691616
0.0693977
0.0693368
0.0693318
0.069413
0.0691801
0.071672
0.211769
0.198128
0.064365
0.0615499
0.0617537
0.0617018
0.0616985
0.0617665
0.0615684
0.0638877
0.198262
0.186271
0.0577866
0.0551082
0.0552851
0.0552401
0.0552381
0.0552944
0.0551262
0.0572968
0.18636
0.17581
0.052127
0.0496132
0.049767
0.0497272
0.0497266
0.0497724
0.0496304
0.0516716
0.175823
0.166509
0.047238
0.044891
0.045025
0.0449899
0.0449915
0.0450276
0.044909
0.0468338
0.16647
0.15818
0.0430076
0.0408058
0.0409231
0.040893
0.0408977
0.0409262
0.0408283
0.0426464
0.158149
0.150687
0.0393251
0.0372507
0.0373542
0.0373301
0.0373398
0.0373639
0.0372839
0.039002
0.150692
0.143917
0.0361022
0.0341389
0.0342315
0.0342152
0.0342328
0.0342593
0.0341953
0.0358151
0.143919
0.137795
0.0332666
0.0313999
0.0314846
0.0314781
0.0315081
0.0315529
0.0315128
0.0330166
0.137739
0.132276
0.0307603
0.0289769
0.0290562
0.029061
0.0291098
0.0292106
0.0292347
0.0305535
0.13212
0.127316
0.0285351
0.026823
0.0268989
0.0269147
0.0269919
0.0272182
0.0274049
0.028384
0.127025
0.122839
0.0265534
0.0248995
0.0249727
0.0249965
0.0251166
0.0255579
0.026065
0.0264705
0.122418
0.118771
0.0248011
0.0231735
0.0232444
0.0232717
0.0234524
0.024193
0.0252001
0.0247754
0.118314
0.11508
0.0232998
0.0216214
0.0216873
0.0217121
0.0219764
0.0230837
0.024741
0.0234185
0.114672
0.111696
0.0220467
0.0202253
0.0202792
0.0202947
0.0206736
0.0222073
0.0245618
0.0225225
0.111355
0.108561
0.0209935
0.0189664
0.0190021
0.0190006
0.0195363
0.0215532
0.0244554
0.0221043
0.108307
0.105647
0.020059
0.0178267
0.0178397
0.0178153
0.0185705
0.0211026
0.0242578
0.0222241
0.105546
0.102932
0.0191569
0.0167864
0.0167784
0.01673
0.0178213
0.0207836
0.0240342
0.0238581
0.104476
0.100403
0.0183466
0.015837
0.0158082
0.0157491
0.0172176
0.0204575
0.0239174
0.0274406
0.107383
0.0980472
0.0178555
0.0149884
0.0149218
0.0148511
0.0166253
0.0199742
0.023673
0.0306669
0.111116
0.0958893
0.0181828
0.0142859
0.0141131
0.0140218
0.015941
0.0192629
0.0229797
0.0322292
0.112102
0.0944103
0.0208847
0.0139904
0.0133973
0.0132705
0.0151492
0.0183229
0.0217452
0.0321829
0.110223
0.0946464
0.0265423
0.0146425
0.0128741
0.0126012
0.0143502
0.017234
0.0201707
0.0310999
0.10662
0.095898
0.0319519
0.0160248
0.0126187
0.0120246
0.0135924
0.0161914
0.0186366
0.0295826
0.102199
0.0959889
0.0343108
0.0171809
0.0124958
0.0115262
0.0129082
0.0152536
0.0173122
0.0283099
0.0974194
0.0940193
0.0337031
0.0175835
0.0123242
0.0110703
0.0123029
0.0144293
0.0162055
0.0275836
0.092467
0.0904233
0.0313624
0.0172896
0.0120311
0.0106288
0.0117672
0.0137062
0.0153429
0.0270935
0.0874167
0.0859937
0.0283373
0.0165589
0.0116324
0.0101917
0.0112882
0.0130694
0.0146396
0.0265221
0.0823118
0.0813651
0.0252265
0.0156173
0.0111711
0.00976271
0.0108527
0.012503
0.0140122
0.0257024
0.0771672
0.0769335
0.0222927
0.014601
0.010683
0.00935038
0.0104486
0.0119849
0.0134156
0.0245992
0.0719453
0.0729588
0.0196342
0.0135824
0.0101867
0.00896368
0.0100656
0.0114984
0.0128181
0.0232193
0.0666151
0.0695809
0.0173046
0.0126073
0.00970211
0.00860163
0.00969542
0.0110313
0.0121986
0.0215642
0.0611899
0.0668115
0.0153271
0.0117042
0.00924074
0.00826262
0.00933555
0.010585
0.0116131
0.0196207
0.0557529
0.0645784
0.0136801
0.0108888
0.00879915
0.00794508
0.00898499
0.0101619
0.0110825
0.0175452
0.0504605
0.0627887
0.0123256
0.0101707
0.00837077
0.00764582
0.00864392
0.0097617
0.0106024
0.0156584
0.0454869
0.061358
0.0112614
0.00955739
0.00794944
0.00736423
0.00832142
0.00938473
0.0101674
0.0141252
0.0411209
0.0602476
0.0104939
0.00903295
0.00753971
0.00710104
0.00802388
0.0090312
0.00976862
0.0128503
0.0375624
0.0595609
0.00990833
0.00857855
0.00714658
0.00686676
0.00774954
0.00870309
0.0093872
0.011771
0.0348511
0.0592031
0.00944686
0.00818584
0.00677425
0.00667073
0.00749706
0.00839281
0.00900433
0.0108566
0.0330298
0.058878
0.00907689
0.00784495
0.00643775
0.00650291
0.00726538
0.00809442
0.00860562
0.0100918
0.0320829
0.0582347
0.00877105
0.00753939
0.00615289
0.00635118
0.00705095
0.00780708
0.00818596
0.00947016
0.0317582
0.0570974
0.00850523
0.00725077
0.00592894
0.00621164
0.00685491
0.00752484
0.00774476
0.0090034
0.031469
0.0556
0.00826497
0.00697179
0.00576303
0.00608777
0.0066764
0.0072386
0.00729589
0.00873757
0.0305712
0.0540609
0.00804857
0.00670882
0.00564048
0.00597803
0.00650754
0.00695096
0.00693018
0.00875742
0.0286572
0.0528033
0.00786808
0.00647499
0.00554273
0.00587466
0.00634125
0.00668263
0.00673248
0.00895096
0.0257507
0.0519784
0.00774351
0.00627732
0.0054516
0.0057669
0.00617276
0.00643897
0.00661809
0.00880134
0.0223728
0.0516023
0.00771703
0.00611955
0.00536099
0.00565238
0.00600001
0.0061973
0.00642637
0.00813672
0.0190678
0.0513638
0.00779764
0.0060001
0.00525922
0.00552305
0.00582008
0.00594455
0.00609603
0.00710388
0.0164555
)
;
    }
    inlet
    {
        type            turbulentIntensityKineticEnergyInlet;
        intensity       0.05;
        value           uniform 0.96;
    }
    outlet
    {
        type            inletOutlet;
        inletValue      uniform 0.003;
        value           nonuniform List<scalar> 
20
(
0.0513036
0.00784299
0.00602589
0.0052727
0.00553052
0.00582062
0.00593503
0.00607955
0.00702913
0.0162527
0.0513638
0.00779764
0.0060001
0.00525922
0.00552305
0.00582008
0.00594455
0.00609603
0.00710388
0.0164555
)
;
    }
    heatWall
    {
        type            kqRWallFunction;
        value           nonuniform List<scalar> 
240
(
0.803279
0.803271
0.676324
0.67631
0.57892
0.578958
0.502624
0.502666
0.441734
0.44178
0.392358
0.39241
0.351788
0.351812
0.318044
0.318055
0.289675
0.289695
0.265593
0.265625
0.24498
0.245012
0.227202
0.227224
0.211765
0.211769
0.198275
0.198262
0.186408
0.18636
0.175904
0.175823
0.16655
0.16647
0.158216
0.158149
0.150752
0.150692
0.143982
0.143919
0.137804
0.137739
0.132183
0.13212
0.127086
0.127025
0.122485
0.122418
0.118414
0.118314
0.114742
0.114672
0.111392
0.111355
0.108316
0.108307
0.105566
0.105546
0.10481
0.104476
0.108059
0.107383
0.111594
0.111116
0.112171
0.112102
0.109981
0.110223
0.10621
0.10662
0.101714
0.102199
0.0969047
0.0974194
0.0919421
0.092467
0.0868929
0.0874167
0.0817975
0.0823118
0.0766672
0.0771672
0.0714603
0.0719453
0.0661433
0.0666151
0.0607306
0.0611899
0.0553098
0.0557529
0.0500398
0.0504605
0.0450975
0.0454869
0.0407877
0.0411209
0.0372881
0.0375624
0.0346351
0.0348511
0.0328696
0.0330298
0.0319698
0.0320829
0.0316706
0.0317582
0.0313716
0.031469
0.0304273
0.0305712
0.0284431
0.0286572
0.0254879
0.0257507
0.0220965
0.0223728
0.0188165
0.0190678
0.0162527
0.0164555
0.803272
0.803303
0.676222
0.676379
0.578834
0.578937
0.502544
0.502597
0.44167
0.441668
0.392322
0.392255
0.351738
0.351651
0.317955
0.317914
0.289534
0.289568
0.26542
0.265488
0.244811
0.244858
0.227051
0.227068
0.21163
0.211624
0.198159
0.198128
0.186319
0.186271
0.175855
0.17581
0.166549
0.166509
0.158216
0.15818
0.150723
0.150687
0.143955
0.143917
0.137832
0.137795
0.132303
0.132276
0.127306
0.127316
0.122795
0.122839
0.118756
0.118771
0.115088
0.11508
0.111711
0.111696
0.108572
0.108561
0.105645
0.105647
0.102916
0.102932
0.100376
0.100403
0.0980099
0.0980472
0.0958611
0.0958893
0.0945308
0.0944103
0.0950309
0.0946464
0.096285
0.095898
0.0960957
0.0959889
0.0937966
0.0940193
0.0899642
0.0904233
0.0854186
0.0859937
0.0807705
0.0813651
0.0763829
0.0769335
0.0724871
0.0729588
0.0691981
0.0695809
0.0665103
0.0668115
0.0643424
0.0645784
0.0625999
0.0627887
0.0612004
0.061358
0.0601397
0.0602476
0.0595084
0.0595609
0.0591909
0.0592031
0.0588744
0.058878
0.0582068
0.0582347
0.057031
0.0570974
0.0555058
0.0556
0.0539629
0.0540609
0.0527218
0.0528033
0.0519174
0.0519784
0.0515543
0.0516023
0.0513036
0.0513638
)
;
    }
}


// ************************************************************************* //
