/*--------------------------------*- C++ -*----------------------------------*\
  =========                 |
  \\      /  F ield         | OpenFOAM: The Open Source CFD Toolbox
   \\    /   O peration     | Website:  https://openfoam.org
    \\  /    A nd           | Version:  8
     \\/     M anipulation  |
\*---------------------------------------------------------------------------*/
FoamFile
{
    version     2.0;
    format      ascii;
    class       volScalarField;
    location    "700";
    object      p;
}
// * * * * * * * * * * * * * * * * * * * * * * * * * * * * * * * * * * * * * //

dimensions      [1 -1 -2 0 0 0 0];

internalField   nonuniform List<scalar> 
1200
(
37088.6
34048.5
32559
32038.1
31658.7
31245.2
30959.8
30903.1
31092.8
31072.7
30705.2
30295.8
29969.4
29612.9
29163.3
28676.9
28280.9
28065.9
28095.9
28189.7
28065.2
27843.9
27720.5
27611.8
27123.4
26161.5
25387.6
25008.6
25126.6
25349.5
25239.4
24686.2
23861.1
23295.4
23017.1
18946.9
12592.6
6957.28
2985.72
595.082
-692.995
-1398.78
-1894.74
-2149.42
-2003.71
-1323.75
-128.45
1337.61
3001.47
5092.92
7553.73
10185.3
12716.1
14714.8
16166.7
16456.1
15553.8
12665.2
8447.64
4624.27
29786.3
30295.5
30389.8
30532.5
30580.2
30491.1
30283.6
30287.5
30569.5
30616.1
30297.2
29948.2
29667.2
29340.5
28889.2
28397
27985.5
27744
27757.5
27852.8
27740
27533.3
27439.8
27366.9
26937.5
26020.6
25250.5
24876.9
25023.6
25295.6
25216.7
24659.5
23848.7
23312
23025.4
19234
13132.1
7621.38
3684.26
1252.36
-119.949
-916.574
-1465.42
-1746.98
-1620.06
-920.623
307.468
1843.94
3626.55
5779.93
8317.03
11027
13600.1
15600.7
17060
17374.4
16520.6
13599.2
9414.28
5499.86
30780.7
31945.8
32101.3
31854.8
31536.8
31138.8
30796
30688.8
30802.4
30775.8
30438.3
30008.6
29660.2
29290.7
28844.6
28341.8
27883.6
27573
27526.6
27595.5
27480.7
27271.5
27174.2
27099.1
26648.7
25691.5
24881.3
24525.7
24707.5
25055.6
24989.1
24296.4
23254.3
22304.3
21094.2
17044.7
11206.3
5967.98
2243.02
-51.4214
-1344.04
-2095.28
-2603.69
-2841.3
-2668.26
-1925.2
-639.836
950.285
2656.78
4778.58
7313.47
10052.2
12688
14774.1
16299.9
16632.1
15701
12599.3
8310.28
4504.63
30580
31054.5
30926.7
30640.3
30443.4
30241.3
29979.4
29892.3
30108.5
30192
29932
29564.7
29263.4
28935.7
28507.9
28008.9
27527.3
27176.1
27099.6
27162.8
27062.3
26865
26774.8
26721
26318.6
25390.3
24582.1
24234.3
24412.6
24828.5
24752.8
23883.8
22692.7
21499.8
20031.6
16585.7
11748.5
7154.58
3613.57
1180.81
-401.033
-1488.33
-2248.16
-2653.65
-2577.81
-1786.97
-375.582
1342.12
3266.64
5415.97
7961.97
10669.1
13217.3
15223.2
16774.8
17187.4
16282
12932.2
8574.81
3750.48
30435.2
30839.5
30933.7
30805.9
30666.9
30495.4
30198.6
30019.4
30107.8
30127.8
29875.3
29507.9
29179.1
28817.9
28366.5
27839.5
27297.3
26863.3
26715.7
26745.8
26638.8
26426
26305.7
26250.2
25917.7
25110.3
24372.8
24134.8
24390.6
24955.6
24910.2
23676.6
22078.6
20332
18390.6
15205.7
11130.6
7148.65
3920
1530.37
-192.022
-1496.47
-2471.28
-3104.54
-3334.65
-2800.33
-1477.52
231.429
2134.26
4516.79
7319.1
10308.1
13119.5
15315.4
16943.1
17298.2
16193.6
12415.4
7936.08
2190.61
30225.8
30600.8
30718.2
30602.8
30480.1
30343.1
30046.8
29840.7
29882.8
29896.9
29677.8
29326.6
28982.3
28597.5
28114.8
27531.5
26895.9
26351.7
26125.8
26128.9
26036.4
25851.7
25762.5
25760.1
25543.7
24904.8
24193.5
23984.4
24163.4
24788.6
24918.6
23597.2
21678.7
19781.6
17603.1
14580
11121
7590.83
4489.97
1993.29
92.5548
-1356.88
-2480.57
-3266.51
-3529.88
-2904.95
-1477.51
467.639
2682.75
5379.52
8319.53
11286.5
14021.5
16233.7
18047.7
18472.9
17021.4
12282.4
7276.23
-48.0396
29950.2
30316.1
30252.6
29993.5
29826.3
29730.5
29459.3
29272.5
29344.4
29419
29280
28984.3
28657.5
28285.5
27821.9
27248.9
26597.3
26022.1
25775.1
25772.9
25673.4
25473.2
25374.4
25395.8
25281.4
24833.5
24291.2
24198.6
24471.1
25225.2
25592.6
23839.8
21439
19256
16973
14103.4
11340.7
8364.45
5458.79
2928.26
881.838
-702.997
-2013.81
-3068.88
-3592.98
-3170.73
-1838
-17.4976
2219.39
5080.67
8388.05
11724.6
14782.9
17245.7
19173.2
19523.9
17970.2
12877
7964.65
-1311.52
29756.5
30735.8
30918.8
30711.1
30491.6
30308.2
29967.4
29678.7
29586.1
29527.6
29332.8
29015.7
28651.1
28237
27731.3
27108.3
26390.9
25755.7
25491.8
25526.3
25485
25346
25303.6
25372.6
25350.4
25064.3
24623.2
24529.3
24573.6
25134.7
25846.7
23721.9
20774.3
18310.8
15967.6
12683.6
10424.9
7867.29
5083.76
2542.35
437.04
-1205.38
-2608.76
-3706.42
-4289.05
-3820.69
-2359.33
-362.865
2108.4
5315.58
8972.06
12574
15915.8
18752.4
21327
21856.7
19620.1
12988.1
7385.61
-3193
28328
28694.2
28930.4
29058.6
29140.8
29230.5
29056.8
28897
28927.2
28981.5
28890.5
28653.3
28333.2
27957.4
27503.6
26947.3
26315.4
25788.2
25643.4
25792.8
25834.4
25740.9
25694.3
25707.9
25619.6
25288.8
24801.9
24656.9
24760
26140.9
27480.3
24662.1
21271
18936.2
16804.1
13702.1
11839.4
9602.99
6829.66
4109.28
1760.75
-111.085
-1820.54
-3459.68
-4640.39
-4303.91
-2599.65
-431.966
2004.79
5015.35
8482.29
12027.8
15306.4
17887.5
19830.6
20399.5
18952.3
13194.4
8619.59
-3939.64
35300.5
31916.5
30605.2
30134.2
29855.3
29699.7
29391.4
29138.6
29069
29039
28896.8
28629.5
28286
27898.8
27446.6
26903.2
26292.7
25802.5
25707.4
25912.7
25992.7
25925.4
25894.9
25916.2
25833
25516.4
24990.4
24799.1
24776.1
26444.3
28052.5
24356.7
20221.6
17332.9
14948.7
12002.6
10043.1
7805.93
5180.74
2610.15
422.043
-1277.63
-2799.93
-4123.65
-4938.5
-4583.51
-3169.1
-1111.49
1344.83
4413.2
7978.44
11677.4
15224
18157.1
20440
20496.5
18426.6
12154.3
7708.38
-4952.04
37198.7
33650
32341.5
31938.9
31716.5
31619.9
31522.5
31179
30715.2
30459.6
30394.9
30324.6
30152.8
29933.5
29687.6
29406.8
29096.6
28791
28417.5
27986.8
27646.5
27265.7
26786.5
26247.7
25818.5
25630.1
25536
25363.4
25015.5
24795.2
24537.6
23999.6
23262.6
22734.2
22393.7
18315.7
12326.5
7143.37
3420.97
1009.04
-508.102
-1567.47
-2261.79
-2557.01
-2446.85
-1904.55
-932.491
449.466
2174.21
4266.68
6771.83
9564.92
12367.1
14734.8
16426.2
17000.6
16142.3
13525.8
8757.86
5654.68
29820.2
30081.1
30277
30485.7
30635.6
30788.1
30759.2
30541.6
30232
30050.7
30002.4
29965.9
29827.4
29641.2
29406.4
29154.2
28900
28655.2
28319.6
27890.4
27532.3
27121.5
26598.6
26011.9
25584.8
25392.9
25278.4
25094.2
24757.2
24587.2
24363.4
23784.9
22985.5
22399.8
21945.5
17987.4
12052.8
6864.93
3135.49
709.562
-832.495
-1930.05
-2647.58
-2931.95
-2809.17
-2244.22
-1246.05
193.13
1996.03
4085.69
6604.36
9441.31
12294.2
14699.6
16427
17033.8
16201.2
13519.7
8810.5
5740.12
30846.5
31693.9
31879.3
31726.4
31534.3
31391.8
31337.1
31084.8
30561.5
30231.2
30138.1
30033.9
29834.8
29611.7
29396.6
29155.2
28883.7
28602.2
28221
27752.5
27364.3
26927.2
26387.7
25784.3
25307.5
25069
24946.8
24792.9
24519.2
24463.9
24285.3
23602.5
22644.2
21838.7
20783.6
16856
11241.7
6205.43
2512.79
74.3736
-1498.32
-2632.45
-3366.09
-3621.39
-3459.83
-2851.72
-1766.89
-223.554
1536.83
3595.87
6096.06
8921.73
11790.8
14245
16028.4
16661.8
15790.8
12939.1
8243.42
4955.01
30652.8
30936.2
30861.7
30651.6
30507.9
30425.4
30402.8
30220.5
29915.3
29742.7
29689.3
29619.3
29453.7
29265.7
29067.2
28856.4
28628.5
28384.4
28023.4
27552.3
27150.9
26698.4
26149
25529.4
25004.7
24692.9
24534.6
24388
24178
24282
24142
23267.3
22082.6
20966.6
19616.4
16313.2
11735.6
7373.52
3876.82
1304.77
-564.303
-2064.89
-3092.04
-3537.21
-3502.87
-2901.6
-1726.86
-60.779
1915.67
4006.47
6531.95
9346.67
12144.8
14512.8
16282
16951.7
16075.9
12980.6
8254.73
4149.97
30529.3
30809.2
30898.9
30810.4
30689.9
30582.3
30590.7
30427.2
30047.5
29768.5
29641.2
29544.5
29377.3
29202
29033.7
28859.4
28662.6
28430.4
28049.9
27535.8
27083.8
26575
25972.4
25310.6
24746.5
24423
24287.2
24246.4
24163.2
24457.6
24325.1
23048.3
21495.6
19907.8
18160.7
15167
11349.9
7590.98
4398.76
1874.09
-146.531
-1905.64
-3176.72
-3873.76
-4165.82
-3804.28
-2674.63
-944.626
1074.11
3388.5
6127.96
9155.08
12148
14658.8
16473.8
17055.2
15937.3
12388.9
7540.25
2587.01
30340.5
30658.3
30747.6
30671.3
30555.7
30415.1
30421.6
30292.7
29935.7
29644.1
29484.2
29364.4
29201.4
29036.6
28874.3
28696.6
28492.8
28248.1
27852.9
27325.3
26870
26369.8
25790
25162.1
24605.5
24250.8
23989.3
23897
23771.6
24241.5
24358.8
22997.5
21054.2
19221.3
17155.4
14287.5
11057.3
7728.73
4657.37
2046.03
-116.018
-1984.55
-3337.68
-4137.33
-4435.31
-3957.65
-2694.02
-796.507
1462.34
4042.93
6924.62
9960.76
12908.5
15445.4
17426.1
18082.4
16647.2
12205.8
6815.77
459.433
30077.9
30424.2
30274.7
30032.9
29854
29702
29706.3
29636.7
29403.7
29210.7
29096.4
29000.8
28878.4
28758.3
28649.8
28540.6
28416.8
28242.2
27880.8
27346.4
26857.1
26306.5
25678
25035.4
24481.8
24123.9
23912.6
23919.7
23955.3
24605.1
25004.1
23245.8
20863.1
18730.2
16516.5
13768.3
11201.9
8414.43
5540.63
2906.91
600.713
-1436.94
-2990.79
-4085.11
-4643.92
-4297.21
-3033.12
-1179.42
1120.6
3879.83
7102.44
10459.7
13680.1
16431.4
18465.8
18918.8
17167.9
12271.9
6920.91
-1059.57
29915
31012.5
31114.1
30931.9
30678.6
30348.9
30282
30149.1
29777.9
29425.1
29184.3
29013.4
28856.1
28699.8
28538.6
28361.7
28156.1
27890.6
27458.9
26899.9
26436
25945.6
25393.2
24845.5
24378.6
24065.6
23826.7
23715.5
23481.7
24181
25412.3
23638.2
20867.7
18393.9
15798.7
12225
9917.3
7463.17
4724.28
2148.59
-136.546
-2193.89
-3793.38
-4911.14
-5531.03
-5100.89
-3668.03
-1611.92
901.365
3953.21
7493.25
11094.7
14574
17672.5
20320.3
21044.4
18739.8
12477.7
6443.58
-2813.36
28417.2
28836.6
28981.9
29164.1
29235.1
29186.2
29267.6
29262.9
29070.5
28871.2
28724.4
28608.8
28499
28382.6
28266.2
28151.4
28034.9
27862.9
27494.4
26948.2
26468.5
25939.7
25324.7
24683.3
24108.1
23672.5
23318.4
23202.9
23185.6
24612
26149.8
23438.6
20116.9
17814.5
15644
12495.9
10702.2
8672.36
6052.15
3396.78
963.97
-1258.02
-3084.45
-4667
-5855.6
-5572.23
-3927.03
-1708.14
800.466
3762.11
7197.96
10777
14211.6
17043.2
18932.6
19378
17549.1
12083
7050.37
-3690.79
35497
32189
30707
30285.1
29973.5
29628.4
29561.7
29447.5
29142.5
28848.2
28635.3
28478.3
28342.3
28191.4
28019
27820.7
27587.7
27285.8
26821.6
26243.9
25784.6
25310.4
24784.9
24272.4
23859.7
23609.6
23448.3
23463.9
23431.2
25097.2
26614.9
22804.9
18883.9
16332.5
14184.9
11406.1
9638.55
7598.43
5042.97
2428.58
48.5843
-2109.1
-3847.84
-5190.84
-6012.26
-5631.66
-4175.26
-2021.27
496.281
3446.36
6882.46
10502.7
14097.4
17264.9
19658.3
19973.4
17785.5
11892.4
6866.88
-4265.48
)
;

boundaryField
{
    wall
    {
        type            calculated;
        value           nonuniform List<scalar> 
1200
(
37031.7
29768.8
30746.9
30543
30387.6
30168.1
29886.1
29677.1
28283.5
35202.7
34250.2
30404
32072.9
31114.3
30854.6
30571.7
30261.5
30596.4
28622.2
31778.8
32669.3
30447.1
32213.4
30959.6
30951
30703.1
30241.2
30820.5
28904.6
30554.1
32089.8
30557.3
31920.5
30634.9
30803.6
30567.9
29973.2
30599.3
29005
30057.8
31631.9
30554
31539.8
30411.7
30655.8
30442.1
29811.9
30396.7
29092.6
29794.9
31057.8
30342.7
31013.3
30150
30453.3
30308.3
29745.9
30288.3
29253.5
29736.1
30676.2
30044
30524.7
29766.7
30002.4
29859.2
29335.9
29809.7
28951.5
29306.3
30762.6
30158.4
30488.8
29726
29813.6
29612.7
29088.8
29441.8
28713.1
28983.6
31282.2
30738.9
30923.2
30204.7
30137.2
29854.8
29313.2
29488.3
28854.7
29031.9
31381.8
30901.2
31050.1
30417.7
30308
30022.7
29522.3
29577.4
29036.4
29134.6
30862.8
30447
30589.9
30054.2
29992.8
29774.2
29371.2
29406.1
28973.9
29028.4
30283.1
29941.1
29996.8
29537.5
29489.5
29306.9
28975.2
29016
28676.5
28706.6
29879.2
29588.7
29573.8
29168.4
29080
28871.9
28545.8
28547.8
28251.3
28259.3
29453.9
29191.5
29131.1
28771
28625.7
28376.7
28047
28004.5
27745.9
27754.2
28901.9
28631.6
28569.6
28228.8
28032.3
27732.8
27404.4
27325.8
27123.2
27162.1
28311.7
28019.4
27936
27585.6
27328.3
26944.9
26596.9
26477.9
26345.9
26446.2
27872.4
27529.7
27384.5
26976.7
26612.2
26090.9
25677.7
25501.5
25455.3
25646.6
27703.1
27290.3
27059.2
26571.3
26075.7
25393.8
24897.4
24677.3
24749.6
25061.9
27936.2
27479.8
27181
26637.5
26044.6
25251.1
24704.8
24494.6
24718.1
25153.2
28293.9
27839.2
27520.2
26969.4
26348.3
25520.2
24968
24825
25219.2
25753.5
28276.7
27848.7
27541.4
27019.1
26413.7
25608.9
25062.4
24992.5
25523.3
26103.8
28133.4
27742.5
27444.8
26948.4
26348
25581.6
25037.4
25027
25647.8
26239.1
28187.2
27863.6
27568.2
27087.7
26468.5
25738
25205.9
25239.3
25885.7
26455.3
28295.2
28048.9
27758.8
27319
26718.2
26050.5
25563.5
25617.5
26227.6
26743.1
27779
27618.5
27322.9
26980.1
26504.7
26007.5
25673.1
25818.4
26384.2
26824.3
26428
26336
26003.8
25742.3
25455.9
25228.5
25182.8
25545.3
26108.5
26472.8
25311.2
25235.5
24846.7
24607.2
24417.4
24292
24474.4
25001
25555.9
25760.6
24826.6
24764.8
24388.1
24157.4
24081.5
24025
24332.2
24918.2
25394.8
25462.2
25178.9
25154.5
24798.8
24530.2
24509.4
24354.9
24726.8
25099.1
25554.4
25450.2
25625.6
25649.5
25349.6
25101.2
25212.4
25058.6
25540.6
25562.2
26911
27142.2
25591.2
25644.8
25339.2
25055.9
25210.2
25199.4
25898.8
26004.7
28142.7
28799.4
25031.7
25100.3
24640.5
24188.7
23994.7
23906.7
24152.9
23706
25278.7
25131.7
24168.7
24290.2
23554.4
22993.4
22370.1
22007.9
21749.1
20679.1
21860.7
20871.1
23603.7
23795.4
22530.6
21760.1
20537.3
20082.5
19544.9
18244.1
19511.9
17817.3
23356.3
23598
21243.5
20230.7
18496.3
17845.2
17225
16058.6
17396.3
15321.2
19258.7
19870.8
17137
16714.1
15217.9
14742.3
14291.8
12927.2
14315.8
12295.5
12694.9
13659.3
11186.9
11748
11016
11167.2
11428.1
10695.8
12406.5
10243.1
6832.7
7976.79
5846.71
7038.66
6923.67
7532.87
8355.53
8084.68
10056
7910.84
2747.84
3937.17
2105.89
3476.86
3677.26
4414.14
5433.2
5278.32
7201.9
5252.84
378.603
1506.8
-115.783
1115.36
1354.47
1971.36
2954
2753.28
4449.19
2705.79
-787.969
223.69
-1267.86
-321.734
-220.237
198.82
1037.47
736.387
2145.21
614.515
-1312.68
-418.299
-1827.35
-1200.67
-1298.15
-1041.53
-319.382
-699.074
453.878
-853.461
-1708.34
-880.259
-2223.12
-1825.85
-2124.63
-2051.29
-1508.02
-2005.63
-1193.62
-2267.76
-1943.07
-1159.1
-2451.95
-2212.94
-2725.8
-2831.39
-2545.37
-3093.4
-2856.02
-3584.96
-1780.09
-1029.25
-2272.72
-2119.23
-2923.29
-3079.01
-3054.67
-3658.05
-4026.64
-4399.96
-1031.48
-262.047
-1460.72
-1234.21
-2300.82
-2380.67
-2597.01
-3171.35
-3664.27
-4059.38
276.164
1082.51
-73.8946
297.095
-880.524
-870.407
-1231.16
-1697.46
-1935.68
-2665.02
1784.24
2669.74
1538.61
2041.1
818.449
1098.95
569.292
266.521
201.43
-656.206
3416.92
4442.48
3219.17
3937.36
2664.47
3291.36
2770.5
2714.34
2597.79
1769.27
5507.57
6629.11
5373.17
6117.11
5083.35
6046.22
5680.59
5997.51
5632.07
4898.22
7946.3
9175.29
7926.17
8674.97
7919.02
9015.32
9030.07
9712.19
9116.6
8530.12
10497.5
11819.9
10621
11329.3
10889.6
11947.8
12357.4
13316.6
12648.7
12271.5
12892.8
14250.9
13138.2
13752.3
13609
14576.2
15335.8
16591
15854.5
15794.9
14706.8
16048.2
15037.6
15576.4
15645.3
16625.1
17656.3
19293.6
18319.5
18606.6
16038.7
17374.6
16433.4
17018.5
17179
18352.8
19536.3
21821.3
20304.2
20825.4
16184.6
17544.5
16614.6
17301.2
17421.3
18658
19840.2
22244.1
20934.5
20749.2
15260
16682.2
15653.8
16380
16322.4
17196.9
18382
20037.5
19663.9
18739.2
12231.6
13638.9
12425.7
12902.3
12426.6
12313
13181
13227.5
13748.8
12286.3
8299.94
9724.71
8348.19
8735.04
8132.53
7504.37
8476.15
7842.96
9387.97
8123.85
4098.25
5360.72
4273
3541.7
1984.35
-303.107
-1441.9
-3382.25
-4058.61
-5276.33
37255.5
29837.7
30880.3
30689.8
30576.9
30398.3
30142.1
29994.4
28461.8
35594.8
33448.3
29972.6
31566.7
30876.5
30794.1
30687.4
30478.8
31151.9
28908.7
32326.6
32231.2
30219.7
31767.2
30828.9
30881.5
30762.7
30286.1
31212.4
29007.7
30758.1
31887.2
30460.9
31660.8
30657
30812.7
30706
30053.2
31043.5
29217.7
30361.5
31743.3
30661.8
31531.3
30539.6
30700.9
30593.7
29868.3
30773.3
29283.2
30033.8
31807.3
30936.6
31517.3
30516.8
30624.4
30449.8
29686.5
30368.5
29163.2
29591.8
31806.2
30998.8
31608.5
30615.5
30787
30609.1
29829.8
30439.2
29372.9
29646.5
31319.8
30670.8
31284.9
30386.9
30633
30520.6
29820.4
30385.6
29446.7
29602.4
30526
30062.7
30441
29819.1
30018.1
29963.4
29434.7
29875
29142.8
29179.4
30150.6
29765.6
29957
29516.9
29588.2
29517.9
29107.1
29374.4
28815.9
28752.3
30237.3
29852.6
29986.5
29567.1
29523.6
29387.3
29004.8
29110
28640.6
28503.5
30337.3
29973
30045.8
29646.5
29562.9
29383.8
29009.6
29012.1
28585.3
28401.2
30243.1
29905.9
29921.2
29548.7
29476.4
29311.3
28989.7
28958.4
28580.7
28369
30092.6
29790.3
29771.4
29430.5
29394.2
29256.9
28996.3
28931.3
28594
28336.2
29949.1
29664
29671.7
29346.4
29367.8
29255.6
29066.4
28943
28646.6
28303.9
29772.6
29532.4
29561.5
29279.8
29370.5
29282
29190.9
28990.6
28753.1
28278.3
29506.2
29357.1
29383.9
29179.3
29347.4
29295.6
29333.4
29043.4
28895.4
28234.9
29155.3
29110.8
29117.6
28989.5
29217.1
29202.5
29361.4
28965.4
28902
28027.9
28578.7
28599.7
28568.5
28485.6
28719.3
28722
28941.9
28449.8
28419.9
27377.5
27884
27906.7
27829.7
27745.8
27930.7
27925.8
28137.7
27591.3
27522.1
26405.4
27436.6
27426.8
27305.7
27194.5
27306
27287.7
27450.5
26914.9
26781
25676.8
26977.8
26915.7
26756.1
26615.6
26650
26629.3
26722.6
26247.8
26035.7
25001
26321
26178
25995.5
25836.6
25806.6
25803.5
25827.4
25438.9
25137.3
24229.3
25564.9
25332.6
25126.1
24932
24839.9
24860.9
24851.6
24582.2
24168.5
23450.4
25162.9
24905.1
24634.6
24344.3
24158
24131.8
24078.1
23892.4
23349.1
22872.7
25363.5
25077.5
24757.2
24342.6
24078
23919
23766.5
23565.2
22859.2
22655.5
25612.4
25293.5
24981.4
24511.5
24245.1
23885.2
23723.7
23427.2
22572.5
22678.3
25545.4
25206.3
24930.6
24467.1
24303.5
23852.7
23781.2
23304
22474.2
22800.9
24963.2
24626.2
24428
24062.3
24049.5
23576.6
23695.4
22935.8
22399.6
22757
24519.2
24233.4
24170
24010.9
24207
23966.1
24287.5
23734.4
23847
24398.1
24185.8
23935.3
23935.2
23840
24032.3
24073.2
24699.1
25229.6
25482.8
25865.6
23654
23344.1
23258.4
22963
22738.7
22688.9
22936.8
23615.4
22816.9
22027.7
22954.8
22543.9
22344.2
21781.9
21213.6
20735.5
20561.6
20910.4
19524.6
18233.2
22425.4
21916
21612.3
20706.3
19710.1
18942
18457.4
18402.2
17237.9
15847.8
22053.4
21371.5
20634.1
19417.3
18061
16939.1
16290.8
15657.6
15051.7
13812.5
18002.8
17348.9
16763.5
16184.8
15159
14149.2
13608.2
11959.8
11882.7
11113.7
12223.5
11524.3
11260.9
11736.1
11466.8
11030.1
11138.7
9651.08
10135.7
9439.07
7267.72
6508.75
6326.65
7489.46
7816.49
7800.28
8442.46
7259.42
8220.04
7494.04
3658.89
2882.36
2649.97
4013.56
4639.89
4742.3
5581.32
4548.89
5680.76
4971.39
1225.67
455.28
138.872
1370.25
2045.54
2073.58
2893.93
1958.12
3057.82
2333.47
-412.97
-1175.75
-1574.31
-643.571
-125.755
-219.331
456.724
-418.271
580.506
-143.363
-1653.44
-2427.82
-2900.15
-2352.5
-2113.51
-2298.88
-1809.08
-2687.74
-1821.97
-2532.76
-2448.08
-3232.19
-3746.39
-3514.26
-3532.27
-3767.17
-3484.66
-4389.24
-3710.35
-4379.48
-2763.26
-3519.27
-4010.46
-3977.79
-4258.7
-4572.95
-4596.5
-5521.45
-5269.6
-5728.95
-2670.38
-3399.42
-3855.11
-3961.35
-4579.33
-4886.77
-5170.28
-6160.29
-6468.32
-6550.17
-2196.73
-2902.23
-3315.97
-3454.25
-4303.87
-4482.5
-4859.83
-5745.14
-6211.01
-6155.14
-1337.01
-2020.52
-2332.62
-2399.4
-3271.64
-3301.58
-3630.39
-4323.73
-4590.3
-4678.7
2.94636
-632.072
-811.679
-759.587
-1531.62
-1427.83
-1758.74
-2236.01
-2340.93
-2475.96
1758.95
1180.72
974.708
1245.16
543.972
853.723
574.181
298.074
208.012
72.3829
3852.27
3237.15
3001.71
3305.63
2822.02
3376.23
3281.03
3271.34
3145.9
2961.8
6379.54
5746.77
5483.96
5819.38
5528.14
6228.77
6460.44
6753.12
6564.09
6331.14
9253
8649.14
8353.62
8686.97
8573.64
9299.29
9826.8
10352.1
10156.5
9908.83
12190.7
11644.2
11341.5
11610.3
11658.6
12353.2
13126.6
13898.6
13663.6
13526.5
14743.1
14253.1
13982.5
14160
14329.1
15052.9
16019.5
17131
16610.8
16815.4
16554.6
16113.3
15896.1
16038.7
16238
17118.7
18100
19825.3
18458.1
19273
17272.4
16864.6
16680.6
16838.3
16931.8
17893.3
18598.1
20655.4
18841.9
19720.9
16436.4
16040.4
15839.2
15978.2
15807.7
16466.5
16750.7
18320.4
16836.8
17473.3
13959.5
13480.4
13113.7
13010.8
12376.8
12170.3
11963.4
12236.8
11528.6
11760.8
8905.62
8500.24
8206.29
8094.86
7343.23
6584.45
6406.8
5985.91
6282.55
6451.83
6180.83
5879.41
5187.17
4359.22
2793.17
713.234
-930.063
-2623.97
-3571.34
-3941
)
;
    }
    inlet
    {
        type            calculated;
        value           nonuniform List<scalar> 
20
(
37088.6
29786.3
30780.7
30580
30435.2
30225.8
29950.2
29756.5
28328
35300.5
37198.7
29820.2
30846.5
30652.8
30529.3
30340.5
30077.9
29915
28417.2
35497
)
;
    }
    outlet
    {
        type            calculated;
        value           nonuniform List<scalar> 
20
(
-97.8022
-293.021
-488.028
-683.269
-878.683
-1074.42
-1270.7
-1467.09
-1663.17
-1858.33
-97.801
-293.017
-488.027
-683.269
-878.681
-1074.41
-1270.68
-1467.08
-1663.16
-1858.33
)
;
    }
    heatWall
    {
        type            calculated;
        value           nonuniform List<scalar> 
240
(
35202.9
35399.4
31818.9
32091.4
30507.6
30609.4
30036.6
30187.5
29757.7
29875.9
29602.1
29530.9
29293.8
29464.1
29041.1
29349.9
28971.4
29044.9
28941.4
28750.6
28799.2
28537.7
28531.9
28380.7
28188.4
28244.7
27801.2
28093.8
27349
27921.5
26805.6
27723.1
26195.1
27490.1
25704.9
27188.2
25609.8
26724
25815.1
26146.3
25895.1
25687
25827.8
25212.8
25797.3
24687.3
25818.6
24174.8
25735.4
23762.2
25418.8
23512
24892.9
23350.7
24701.5
23366.4
24678.5
23333.6
26346.6
24999.6
27954.8
26517.3
24258.9
22707.2
20123.8
18786.2
17235.2
16234.8
14850.9
14087.1
11904.9
11308.3
9945.31
9540.78
7708.15
7500.65
5082.95
4945.19
2512.36
2330.78
324.236
-49.2218
-1375.45
-2206.91
-2897.75
-3945.67
-4221.47
-5288.67
-5036.33
-6110.08
-4681.34
-5729.49
-3266.92
-4273.09
-1209.31
-2119.1
1247.01
398.457
4315.37
3348.53
7880.61
6784.64
11579.5
10404.9
15126.1
13999.6
18059.3
17167.1
20342.1
19560.5
20398.7
19875.6
18328.8
17687.7
12056.5
11794.6
7610.57
6769.07
-5049.85
-4363.29
37186.2
37296.3
34146
33747.6
32656.5
32439.1
32135.7
32036.5
31756.3
31814.1
31342.7
31717.4
31057.3
31620.1
31000.7
31276.6
31190.4
30812.8
31170.3
30557.2
30802.7
30492.5
30393.4
30422.1
30067
30250.4
29710.5
30031.1
29260.9
29785.1
28774.5
29504.4
28378.4
29194.2
28163.5
28888.6
28193.5
28515.1
28287.3
28084.4
28162.8
27744.1
27941.5
27363.3
27818.1
26884.1
27709.4
26345.3
27220.9
25916
26259
25727.7
25485.2
25633.6
25106.2
25460.9
25224.2
25113
25447.1
24892.8
25336.9
24635.2
24783.7
24097.2
23958.6
23360.2
23393
22831.8
23114.8
22491.4
19044.6
18413.4
12690.3
12424.2
7054.99
7241.08
3083.43
3518.68
692.795
1106.76
-595.282
-410.389
-1301.06
-1469.76
-1797.03
-2164.08
-2051.7
-2459.3
-1905.99
-2349.13
-1226.03
-1806.83
-30.7233
-834.765
1435.34
547.197
3099.21
2271.95
5190.66
4364.42
7651.47
6869.58
10283.1
9662.67
12813.8
12464.9
14812.6
14832.6
16264.5
16524
16553.9
17098.4
15651.6
16240.1
12763
13623.5
8545.43
8855.65
4722.07
5752.48
)
;
    }
}


// ************************************************************************* //
