/*--------------------------------*- C++ -*----------------------------------*\
  =========                 |
  \\      /  F ield         | OpenFOAM: The Open Source CFD Toolbox
   \\    /   O peration     | Website:  https://openfoam.org
    \\  /    A nd           | Version:  8
     \\/     M anipulation  |
\*---------------------------------------------------------------------------*/
FoamFile
{
    version     2.0;
    format      ascii;
    class       volScalarField;
    location    "300";
    object      alphat;
}
// * * * * * * * * * * * * * * * * * * * * * * * * * * * * * * * * * * * * * //

dimensions      [1 -1 -1 0 0 0 0];

internalField   nonuniform List<scalar> 
1200
(
0.200897
0.184965
0.171674
0.160443
0.150844
0.142559
0.135346
0.129022
0.123439
0.118482
0.114058
0.110089
0.106514
0.10328
0.100344
0.0976699
0.0952267
0.092988
0.0909312
0.089037
0.0872884
0.0856709
0.0841716
0.0827793
0.0814841
0.0802773
0.079151
0.0780984
0.0771133
0.0761902
0.075324
0.0745104
0.0737452
0.0730248
0.072346
0.0717055
0.0711009
0.0705294
0.0699888
0.0694771
0.0689922
0.0685324
0.0680962
0.0676819
0.0672882
0.0669138
0.0665575
0.0662182
0.065895
0.0655867
0.0652926
0.0650118
0.0647436
0.0644873
0.0642421
0.0640075
0.0637829
0.0635676
0.0633614
0.0631636
0.116417
0.0999854
0.087379
0.0774627
0.0694926
0.0629631
0.057527
0.0529387
0.0490195
0.045637
0.0426905
0.0401029
0.037814
0.035776
0.0339508
0.0323077
0.0308211
0.0294704
0.0282381
0.02711
0.0260735
0.0251184
0.0242358
0.0234181
0.0226587
0.0219518
0.0212925
0.0206763
0.0200995
0.0195586
0.0190505
0.0185726
0.0181225
0.017698
0.0172971
0.016918
0.0165592
0.0162192
0.0158967
0.0155905
0.0152995
0.0150228
0.0147594
0.0145085
0.0142693
0.0140411
0.0138234
0.0136154
0.0134165
0.0132265
0.0130446
0.0128706
0.012704
0.0125442
0.0123911
0.0122442
0.0121032
0.0119674
0.0118354
0.0116943
0.11639
0.0998142
0.0870859
0.0770517
0.0689691
0.0623384
0.0568123
0.0521438
0.048153
0.0447059
0.0417013
0.039061
0.036724
0.034642
0.0327762
0.0310952
0.0295735
0.0281899
0.0269266
0.0257689
0.0247043
0.0237222
0.0228135
0.0219704
0.0211861
0.0204549
0.0197715
0.0191314
0.0185309
0.0179662
0.0174344
0.0169328
0.0164587
0.0160102
0.0155851
0.0151818
0.0147986
0.0144342
0.0140872
0.0137563
0.0134406
0.013139
0.0128506
0.0125746
0.0123102
0.0120568
0.0118135
0.01158
0.0113555
0.0111396
0.0109319
0.0107318
0.010539
0.0103531
0.0101737
0.0100005
0.00983328
0.00967159
0.00951514
0.0093633
0.11639
0.0998533
0.0871499
0.0771325
0.0690587
0.0624307
0.0569036
0.0522318
0.0482363
0.044784
0.0417739
0.0391282
0.036786
0.034699
0.0328286
0.0311434
0.0296177
0.0282303
0.0269636
0.0258028
0.0247353
0.0237506
0.0228395
0.0219941
0.0212078
0.0204746
0.0197894
0.0191477
0.0185455
0.0179794
0.0174463
0.0169433
0.0164681
0.0160184
0.0155922
0.0151878
0.0148036
0.014438
0.0140899
0.0137579
0.0134411
0.0131383
0.0128487
0.0125715
0.0123059
0.0120512
0.0118067
0.0115718
0.0113461
0.0111289
0.0109198
0.0107184
0.0105242
0.0103369
0.0101561
0.00998147
0.00981274
0.0096496
0.00949177
0.00933901
0.11639
0.0998534
0.0871437
0.0771201
0.0690413
0.06241
0.0568811
0.0522087
0.0482136
0.0447623
0.0417534
0.0391091
0.0367684
0.0346829
0.0328139
0.0311301
0.0296056
0.0282194
0.0269538
0.025794
0.0247274
0.0237435
0.0228331
0.0219884
0.0212026
0.02047
0.0197853
0.019144
0.0185423
0.0179766
0.0174437
0.0169411
0.0164661
0.0160166
0.0155907
0.0151865
0.0148024
0.0144371
0.0140891
0.0137573
0.0134405
0.0131379
0.0128484
0.0125713
0.0123058
0.0120511
0.0118067
0.0115719
0.0113462
0.0111291
0.01092
0.0107186
0.0105245
0.0103372
0.0101564
0.00998181
0.00981309
0.00964996
0.00949214
0.00933938
0.11639
0.0998534
0.0871437
0.0771201
0.0690413
0.06241
0.0568811
0.0522088
0.0482137
0.0447623
0.0417535
0.0391092
0.0367685
0.034683
0.032814
0.0311301
0.0296057
0.0282195
0.0269538
0.025794
0.0247274
0.0237434
0.022833
0.0219883
0.0212026
0.0204699
0.0197852
0.019144
0.0185422
0.0179765
0.0174437
0.016941
0.016466
0.0160166
0.0155906
0.0151864
0.0148024
0.014437
0.014089
0.0137572
0.0134405
0.0131378
0.0128484
0.0125713
0.0123057
0.0120511
0.0118066
0.0115719
0.0113461
0.011129
0.0109199
0.0107185
0.0105244
0.0103371
0.0101563
0.00998175
0.00981303
0.00964989
0.00949207
0.00933931
0.11639
0.0998533
0.0871498
0.0771324
0.0690586
0.0624306
0.0569035
0.0522317
0.0482362
0.0447839
0.0417738
0.0391281
0.0367858
0.0346989
0.0328284
0.0311432
0.0296175
0.0282302
0.0269635
0.0258027
0.0247353
0.0237505
0.0228394
0.021994
0.0212077
0.0204745
0.0197893
0.0191476
0.0185455
0.0179794
0.0174462
0.0169433
0.016468
0.0160183
0.0155922
0.0151878
0.0148035
0.014438
0.0140899
0.0137579
0.013441
0.0131383
0.0128487
0.0125715
0.0123059
0.0120511
0.0118067
0.0115718
0.011346
0.0111288
0.0109197
0.0107183
0.0105241
0.0103368
0.010156
0.00998134
0.00981259
0.00964943
0.00949159
0.00933881
0.11639
0.0998143
0.087086
0.0770518
0.0689693
0.0623385
0.0568124
0.0521439
0.0481531
0.044706
0.0417013
0.039061
0.036724
0.0346419
0.0327761
0.0310952
0.0295734
0.0281897
0.0269264
0.0257687
0.0247041
0.023722
0.0228133
0.0219702
0.021186
0.0204547
0.0197713
0.0191313
0.0185307
0.0179661
0.0174343
0.0169326
0.0164586
0.01601
0.0155849
0.0151815
0.0147982
0.0144336
0.0140864
0.0137552
0.0134392
0.0131372
0.0128484
0.0125719
0.0123069
0.0120529
0.0118091
0.0115749
0.0113499
0.0111335
0.0109251
0.0107245
0.0105311
0.0103446
0.0101646
0.00999084
0.00982295
0.00966062
0.00950351
0.00935106
0.116417
0.0999855
0.0873792
0.0774631
0.0694935
0.0629647
0.0575292
0.0529417
0.0490233
0.0456412
0.0426951
0.040108
0.0378193
0.0357815
0.0339565
0.0323133
0.0308267
0.029476
0.0282439
0.0271158
0.0260795
0.0251247
0.0242424
0.0234249
0.0226658
0.0219591
0.0212999
0.0206838
0.0201069
0.0195659
0.0190577
0.0185797
0.0181294
0.0177047
0.0173037
0.0169246
0.0165658
0.0162259
0.0159037
0.0155979
0.0153074
0.0150313
0.0147686
0.0145185
0.0142803
0.014053
0.0138362
0.0136292
0.0134315
0.0132425
0.0130617
0.0128888
0.0127232
0.0125647
0.0124127
0.0122669
0.012127
0.0119922
0.0118611
0.0117205
0.200897
0.184964
0.171673
0.160443
0.150844
0.142558
0.135346
0.129021
0.123438
0.118482
0.114057
0.110088
0.106513
0.103279
0.100343
0.0976694
0.0952262
0.0929875
0.0909307
0.0890365
0.087288
0.0856705
0.0841712
0.082779
0.0814838
0.080277
0.0791508
0.0780983
0.0771132
0.0761901
0.075324
0.0745103
0.0737452
0.0730248
0.0723459
0.0717055
0.0711008
0.0705293
0.0699887
0.069477
0.0689921
0.0685324
0.0680961
0.0676818
0.067288
0.0669136
0.0665573
0.066218
0.0658947
0.0655863
0.0652922
0.0650114
0.0647431
0.0644866
0.0642414
0.0640067
0.0637819
0.0635666
0.0633603
0.0631624
0.200897
0.184965
0.171674
0.160443
0.150843
0.142558
0.135345
0.129021
0.123438
0.118481
0.114057
0.110088
0.106513
0.103279
0.100344
0.0976695
0.0952263
0.0929876
0.0909308
0.0890366
0.087288
0.0856705
0.0841712
0.0827789
0.0814838
0.080277
0.0791507
0.0780982
0.0771131
0.07619
0.0753238
0.0745102
0.0737451
0.0730247
0.0723458
0.0717054
0.0711007
0.0705293
0.0699887
0.069477
0.0689921
0.0685324
0.0680961
0.0676818
0.0672881
0.0669138
0.0665575
0.0662182
0.065895
0.0655867
0.0652926
0.0650119
0.0647437
0.0644874
0.0642422
0.0640076
0.063783
0.0635678
0.0633617
0.0631639
0.116417
0.0999851
0.0873776
0.0774604
0.0694907
0.0629623
0.0575274
0.0529401
0.0490217
0.0456393
0.0426927
0.0401046
0.037815
0.0357762
0.0339501
0.032306
0.0308186
0.0294674
0.028235
0.0271068
0.0260706
0.0251162
0.0242345
0.0234178
0.0226595
0.0219538
0.0212957
0.0206806
0.0201048
0.0195647
0.0190575
0.0185803
0.0181307
0.0177066
0.0173061
0.0169273
0.0165688
0.016229
0.0159068
0.0156008
0.0153101
0.0150336
0.0147705
0.01452
0.0142812
0.0140535
0.0138362
0.0136287
0.0134306
0.0132411
0.0130599
0.0128865
0.0127205
0.0125615
0.0124091
0.0122631
0.0121229
0.0119879
0.0118567
0.0117162
0.11639
0.0998142
0.087086
0.0770518
0.0689693
0.0623385
0.0568123
0.0521438
0.0481529
0.0447058
0.0417012
0.0390608
0.0367238
0.0346418
0.032776
0.031095
0.0295733
0.0281897
0.0269264
0.0257687
0.0247041
0.023722
0.0228133
0.0219702
0.0211859
0.0204547
0.0197713
0.0191312
0.0185307
0.017966
0.0174342
0.0169326
0.0164586
0.01601
0.015585
0.0151817
0.0147986
0.0144342
0.0140872
0.0137563
0.0134407
0.0131391
0.0128507
0.0125747
0.0123103
0.0120569
0.0118136
0.0115801
0.0113556
0.0111398
0.0109321
0.010732
0.0105392
0.0103534
0.010174
0.0100009
0.00983369
0.00967204
0.00951563
0.00936383
0.11639
0.0998532
0.0871498
0.0771324
0.0690587
0.0624307
0.0569036
0.0522317
0.0482362
0.0447839
0.0417738
0.0391281
0.0367859
0.0346989
0.0328285
0.0311433
0.0296176
0.0282302
0.0269635
0.0258027
0.0247353
0.0237505
0.0228394
0.021994
0.0212077
0.0204745
0.0197893
0.0191476
0.0185455
0.0179794
0.0174462
0.0169432
0.016468
0.0160183
0.0155921
0.0151877
0.0148035
0.0144379
0.0140898
0.0137578
0.013441
0.0131382
0.0128486
0.0125714
0.0123058
0.0120511
0.0118066
0.0115717
0.011346
0.0111288
0.0109197
0.0107182
0.010524
0.0103367
0.0101559
0.00998132
0.00981258
0.00964943
0.0094916
0.00933883
0.11639
0.0998533
0.0871436
0.0771201
0.0690413
0.06241
0.0568811
0.0522087
0.0482136
0.0447622
0.0417534
0.0391091
0.0367683
0.0346828
0.0328138
0.0311299
0.0296055
0.0282193
0.0269537
0.0257939
0.0247273
0.0237434
0.0228329
0.0219883
0.0212025
0.0204699
0.0197852
0.0191439
0.0185422
0.0179764
0.0174436
0.016941
0.016466
0.0160165
0.0155906
0.0151864
0.0148023
0.014437
0.014089
0.0137572
0.0134404
0.0131378
0.0128483
0.0125712
0.0123057
0.012051
0.0118066
0.0115718
0.0113461
0.0111289
0.0109199
0.0107185
0.0105243
0.010337
0.0101563
0.00998166
0.00981294
0.0096498
0.00949197
0.00933921
0.11639
0.0998533
0.0871436
0.0771201
0.0690413
0.06241
0.0568811
0.0522088
0.0482137
0.0447623
0.0417534
0.0391091
0.0367684
0.0346829
0.0328139
0.03113
0.0296055
0.0282193
0.0269537
0.0257939
0.0247273
0.0237434
0.022833
0.0219883
0.0212025
0.0204699
0.0197852
0.0191439
0.0185422
0.0179764
0.0174436
0.0169409
0.016466
0.0160165
0.0155906
0.0151864
0.0148023
0.014437
0.014089
0.0137571
0.0134404
0.0131378
0.0128483
0.0125712
0.0123056
0.012051
0.0118066
0.0115718
0.0113461
0.0111289
0.0109199
0.0107185
0.0105243
0.010337
0.0101562
0.00998164
0.00981291
0.00964977
0.00949194
0.00933918
0.11639
0.0998532
0.0871498
0.0771324
0.0690586
0.0624306
0.0569034
0.0522316
0.0482361
0.0447838
0.0417737
0.039128
0.0367857
0.0346988
0.0328283
0.0311431
0.0296175
0.0282301
0.0269634
0.0258026
0.0247352
0.0237504
0.0228393
0.021994
0.0212076
0.0204744
0.0197893
0.0191476
0.0185454
0.0179793
0.0174462
0.0169432
0.016468
0.0160183
0.0155921
0.0151877
0.0148035
0.0144379
0.0140898
0.0137578
0.013441
0.0131382
0.0128486
0.0125714
0.0123058
0.0120511
0.0118066
0.0115717
0.0113459
0.0111287
0.0109196
0.0107182
0.010524
0.0103367
0.0101559
0.00998124
0.00981249
0.00964933
0.00949148
0.0093387
0.11639
0.0998142
0.087086
0.0770519
0.0689694
0.0623385
0.0568124
0.0521438
0.0481529
0.0447059
0.0417012
0.0390609
0.0367238
0.0346418
0.032776
0.031095
0.0295733
0.0281896
0.0269263
0.0257686
0.0247041
0.023722
0.0228133
0.0219702
0.0211859
0.0204547
0.0197713
0.0191312
0.0185307
0.017966
0.0174342
0.0169326
0.0164585
0.01601
0.0155849
0.0151815
0.0147982
0.0144336
0.0140863
0.0137552
0.0134391
0.0131372
0.0128483
0.0125718
0.0123069
0.0120528
0.011809
0.0115747
0.0113496
0.0111331
0.0109247
0.0107239
0.0105305
0.0103439
0.0101639
0.00999004
0.0098221
0.00965974
0.0095026
0.00935013
0.116417
0.0999853
0.0873781
0.0774616
0.0694924
0.0629647
0.0575307
0.0529443
0.0490267
0.0456452
0.0426993
0.0401119
0.0378229
0.0357847
0.0339592
0.0323155
0.0308285
0.0294773
0.0282447
0.0271162
0.0260794
0.0251241
0.0242413
0.0234235
0.022664
0.0219571
0.0212978
0.0206817
0.020105
0.0195641
0.0190561
0.0185782
0.0181281
0.0177035
0.0173024
0.0169232
0.0165643
0.0162241
0.0159015
0.0155952
0.0153041
0.0150273
0.0147639
0.0145131
0.0142741
0.0140462
0.0138289
0.0136214
0.0134232
0.0132338
0.0130527
0.0128794
0.0127136
0.0125548
0.0124027
0.012257
0.0121172
0.0119826
0.0118517
0.0117114
0.200897
0.184965
0.171674
0.160443
0.150843
0.142558
0.135345
0.129021
0.123438
0.118481
0.114057
0.110088
0.106513
0.103279
0.100343
0.0976694
0.0952262
0.0929875
0.0909308
0.0890365
0.087288
0.0856705
0.0841712
0.0827789
0.0814838
0.080277
0.0791507
0.0780982
0.0771131
0.0761899
0.0753238
0.0745101
0.073745
0.0730246
0.0723457
0.0717052
0.0711005
0.070529
0.0699884
0.0694766
0.0689917
0.0685319
0.0680956
0.0676813
0.0672875
0.0669131
0.0665567
0.0662174
0.065894
0.0655857
0.0652915
0.0650106
0.0647423
0.0644859
0.0642406
0.0640058
0.0637811
0.0635657
0.0633594
0.0631614
)
;

boundaryField
{
    wall
    {
        type            compressible::alphatJayatillekeWallFunction;
        Prt             0.85;
        value           uniform 0;
    }
    inlet
    {
        type            calculated;
        value           uniform 9.47574;
    }
    outlet
    {
        type            calculated;
        value           nonuniform List<scalar> 
20
(
0.0631636
0.0116943
0.0093633
0.00933901
0.00933938
0.00933931
0.00933881
0.00935106
0.0117205
0.0631624
0.0631639
0.0117162
0.00936383
0.00933883
0.00933921
0.00933918
0.0093387
0.00935013
0.0117114
0.0631614
)
;
    }
    heatWall
    {
        type            compressible::alphatJayatillekeWallFunction;
        Prt             0.85;
        value           nonuniform List<scalar> 
240
(
0.0209458
0.0209458
0.0193321
0.0193322
0.0179824
0.0179825
0.0168393
0.0168393
0.01586
0.01586
0.0150131
0.015013
0.0142744
0.0142744
0.0136257
0.0136256
0.0130521
0.013052
0.0125421
0.012542
0.0120862
0.0120862
0.0116767
0.0116767
0.0113075
0.0113075
0.0109731
0.0109731
0.0106692
0.0106692
0.0103922
0.0103922
0.0101388
0.0101388
0.00990643
0.00990644
0.00969279
0.00969279
0.00949588
0.00949588
0.00931398
0.00931398
0.0091456
0.0091456
0.00898943
0.00898943
0.00884432
0.00884431
0.00870925
0.00870924
0.00858333
0.00858332
0.00846575
0.00846574
0.00835581
0.0083558
0.00825288
0.00825287
0.00815637
0.00815636
0.00806579
0.00806577
0.00798066
0.00798064
0.00790057
0.00790055
0.00782515
0.00782513
0.00775404
0.00775402
0.00768695
0.00768692
0.00762357
0.00762354
0.00756366
0.00756363
0.00750697
0.00750694
0.00745329
0.00745325
0.00740242
0.00740238
0.00735417
0.00735412
0.00730837
0.00730832
0.00726487
0.00726482
0.00722352
0.00722347
0.00718419
0.00718414
0.00714676
0.0071467
0.0071111
0.00711104
0.00707712
0.00707706
0.00704472
0.00704465
0.00701379
0.00701372
0.00698426
0.00698418
0.00695605
0.00695597
0.00692907
0.00692899
0.00690327
0.00690319
0.00687858
0.00687849
0.00685493
0.00685484
0.00683227
0.00683218
0.00681056
0.00681046
0.00678972
0.00678962
0.0209458
0.0209458
0.0193322
0.0193322
0.0179825
0.0179825
0.0168393
0.0168393
0.0158601
0.01586
0.0150131
0.015013
0.0142745
0.0142744
0.0136257
0.0136256
0.0130521
0.0130521
0.0125421
0.012542
0.0120862
0.0120862
0.0116768
0.0116767
0.0113075
0.0113075
0.0109731
0.0109731
0.0106693
0.0106692
0.0103922
0.0103922
0.0101388
0.0101388
0.00990649
0.00990644
0.00969284
0.0096928
0.00949592
0.00949588
0.00931402
0.00931398
0.00914564
0.0091456
0.00898946
0.00898943
0.00884435
0.00884431
0.00870928
0.00870924
0.00858335
0.00858332
0.00846577
0.00846574
0.00835583
0.0083558
0.00825289
0.00825287
0.00815639
0.00815636
0.0080658
0.00806578
0.00798067
0.00798065
0.00790058
0.00790056
0.00782516
0.00782514
0.00775405
0.00775404
0.00768695
0.00768694
0.00762358
0.00762356
0.00756366
0.00756365
0.00750698
0.00750697
0.0074533
0.00745329
0.00740243
0.00740242
0.00735418
0.00735417
0.00730838
0.00730838
0.00726488
0.00726488
0.00722354
0.00722353
0.00718421
0.00718421
0.00714678
0.00714678
0.00711113
0.00711113
0.00707716
0.00707716
0.00704475
0.00704475
0.00701383
0.00701384
0.00698431
0.00698432
0.0069561
0.00695611
0.00692914
0.00692915
0.00690335
0.00690336
0.00687866
0.00687868
0.00685503
0.00685504
0.00683238
0.0068324
0.00681067
0.0068107
0.00678985
0.00678987
)
;
    }
}


// ************************************************************************* //
