/*--------------------------------*- C++ -*----------------------------------*\
  =========                 |
  \\      /  F ield         | OpenFOAM: The Open Source CFD Toolbox
   \\    /   O peration     | Website:  https://openfoam.org
    \\  /    A nd           | Version:  8
     \\/     M anipulation  |
\*---------------------------------------------------------------------------*/
FoamFile
{
    version     2.0;
    format      ascii;
    class       volScalarField;
    location    "300";
    object      k;
}
// * * * * * * * * * * * * * * * * * * * * * * * * * * * * * * * * * * * * * //

dimensions      [0 2 -2 0 0 0 0];

internalField   nonuniform List<scalar> 
1200
(
0.0505472
0.0428477
0.0369111
0.0322397
0.0284974
0.0254526
0.0229423
0.0208482
0.019083
0.0175811
0.0162925
0.0151784
0.0142085
0.0133588
0.0126101
0.011947
0.0113567
0.010829
0.0103552
0.00992826
0.00954212
0.00919173
0.00887281
0.00858169
0.00831523
0.00807074
0.00784586
0.00763856
0.00744706
0.00726982
0.00710546
0.00695277
0.00681069
0.00667827
0.00655467
0.00643913
0.00633097
0.0062296
0.00613447
0.00604508
0.00596099
0.0058818
0.00580715
0.00573669
0.00567014
0.00560721
0.00554765
0.00549123
0.00543774
0.00538697
0.00533876
0.00529294
0.00524935
0.00520786
0.00516833
0.00513064
0.00509468
0.00506036
0.00502757
0.00499622
0.0434539
0.0320528
0.0244798
0.0192388
0.0154835
0.0127106
0.0106105
0.00898546
0.00770428
0.0066777
0.00584327
0.00515638
0.00458456
0.00410371
0.00369568
0.0033466
0.00304572
0.00278461
0.00255661
0.0023564
0.00217968
0.00202292
0.00188325
0.00175832
0.00164612
0.00154501
0.00145359
0.00137069
0.00129527
0.0012265
0.0011636
0.00110596
0.001053
0.00100424
0.000959259
0.000917676
0.000879163
0.00084343
0.00081022
0.000779309
0.000750492
0.000723589
0.000698437
0.000674891
0.000652823
0.000632113
0.000612657
0.000594358
0.000577127
0.00056089
0.000545575
0.000531114
0.000517449
0.00050452
0.000492278
0.000480676
0.000469668
0.000459187
0.000449114
0.000438468
0.0434334
0.0319432
0.0243158
0.0190352
0.0152512
0.0124596
0.0103485
0.00871765
0.0074343
0.00640802
0.00557562
0.00489193
0.00432408
0.00384768
0.00344437
0.00310014
0.00280414
0.00254788
0.00232464
0.00212904
0.00195676
0.00180427
0.00166869
0.00154764
0.00143912
0.00134149
0.00125335
0.00117352
0.00110099
0.00103492
0.000974563
0.000919283
0.000868534
0.000821838
0.000778779
0.000738992
0.000702161
0.000668003
0.000636268
0.000606734
0.000579204
0.000553503
0.000529473
0.000506973
0.000485878
0.000466074
0.000447459
0.000429939
0.000413433
0.000397863
0.000383162
0.000369265
0.000356116
0.000343663
0.000331858
0.000320657
0.00031002
0.000299909
0.000290285
0.000281094
0.0434334
0.0319682
0.0243516
0.0190752
0.0152908
0.0124966
0.0103818
0.00874709
0.00746006
0.00643043
0.00559506
0.00490878
0.00433869
0.00386036
0.0034554
0.00310974
0.00281252
0.0025552
0.00233104
0.00213466
0.00196169
0.0018086
0.0016725
0.00155098
0.00144206
0.00134407
0.00125562
0.00117551
0.00110274
0.00103644
0.000975887
0.00092043
0.00086952
0.000822679
0.000779486
0.000739577
0.000702629
0.000668358
0.000636514
0.000606874
0.000579242
0.000553442
0.000529315
0.000506722
0.000485536
0.000465643
0.000446941
0.000429337
0.000412748
0.000397097
0.000382316
0.000368341
0.000355116
0.000342588
0.000330709
0.000319435
0.000308727
0.000298547
0.000288861
0.000279638
0.0434334
0.0319683
0.0243481
0.019069
0.0152831
0.0124882
0.0103736
0.00873936
0.00745303
0.00642418
0.00558956
0.004904
0.00433454
0.00385678
0.00345231
0.00310709
0.00281023
0.00255323
0.00232935
0.0021332
0.00196043
0.00180751
0.00167156
0.00155017
0.00144136
0.00134347
0.0012551
0.00117506
0.00110235
0.00103611
0.000975602
0.000920186
0.000869312
0.000822501
0.000779336
0.000739451
0.000702523
0.000668271
0.000636443
0.000606817
0.000579197
0.000553407
0.00052929
0.000506705
0.000485525
0.000465638
0.000446942
0.000429342
0.000412757
0.000397109
0.000382331
0.000368358
0.000355135
0.000342608
0.00033073
0.000319457
0.000308749
0.000298569
0.000288883
0.00027966
0.0434334
0.0319683
0.0243481
0.0190691
0.0152831
0.0124883
0.0103736
0.00873939
0.00745306
0.0064242
0.00558959
0.00490402
0.00433456
0.00385679
0.00345232
0.0031071
0.00281024
0.00255324
0.00232935
0.00213319
0.00196043
0.00180751
0.00167156
0.00155017
0.00144136
0.00134347
0.00125509
0.00117505
0.00110235
0.00103611
0.000975595
0.000920179
0.000869305
0.000822495
0.00077933
0.000739445
0.000702517
0.000668265
0.000636437
0.000606812
0.000579192
0.000553402
0.000529285
0.0005067
0.000485521
0.000465634
0.000446937
0.000429338
0.000412753
0.000397105
0.000382327
0.000368354
0.000355131
0.000342604
0.000330726
0.000319453
0.000308745
0.000298565
0.000288879
0.000279655
0.0434334
0.0319682
0.0243515
0.0190751
0.0152908
0.0124965
0.0103818
0.00874704
0.00746001
0.00643039
0.00559502
0.00490874
0.00433865
0.00386033
0.00345537
0.00310972
0.0028125
0.00255518
0.00233102
0.00213464
0.00196167
0.00180859
0.00167248
0.00155097
0.00144205
0.00134407
0.00125561
0.0011755
0.00110273
0.00103644
0.000975882
0.000920426
0.000869517
0.000822676
0.000779484
0.000739575
0.000702627
0.000668356
0.000636512
0.000606873
0.000579241
0.00055344
0.000529314
0.00050672
0.000485534
0.00046564
0.000446938
0.000429334
0.000412744
0.000397093
0.000382311
0.000368336
0.00035511
0.000342581
0.000330701
0.000319427
0.000308717
0.000298536
0.000288849
0.000279625
0.0434334
0.0319433
0.0243159
0.0190353
0.0152512
0.0124597
0.0103486
0.00871768
0.00743432
0.00640804
0.00557562
0.00489193
0.00432407
0.00384766
0.00344435
0.00310012
0.00280412
0.00254786
0.00232462
0.00212902
0.00195674
0.00180425
0.00166867
0.00154761
0.0014391
0.00134147
0.00125333
0.0011735
0.00110098
0.0010349
0.000974544
0.000919265
0.000868516
0.000821819
0.000778757
0.000738966
0.000702125
0.000667952
0.000636197
0.000606639
0.000579081
0.000553349
0.000529285
0.00050675
0.000485617
0.000465775
0.000447122
0.000429567
0.000413027
0.000397424
0.00038269
0.000368761
0.000355582
0.000343099
0.000331265
0.000320035
0.000309369
0.000299229
0.000289576
0.00028036
0.0434539
0.0320529
0.0244799
0.019239
0.0154839
0.0127112
0.0106114
0.00898646
0.00770544
0.00667893
0.00584454
0.00515768
0.00458586
0.00410498
0.0036969
0.00334776
0.00304683
0.00278567
0.00255765
0.00235742
0.00218067
0.00202392
0.00188427
0.00175934
0.00164715
0.00154604
0.00145461
0.00137168
0.00129623
0.00122742
0.00116449
0.0011068
0.0010538
0.00100501
0.000959994
0.000918387
0.000879863
0.000844129
0.000810934
0.000780048
0.000751265
0.000724407
0.000699309
0.000675826
0.000653826
0.000633186
0.0006138
0.000595571
0.000578412
0.000562249
0.000547006
0.000532616
0.000519021
0.000506164
0.000493992
0.000482459
0.000471515
0.000461092
0.000451066
0.000440437
0.0505472
0.0428476
0.0369109
0.0322396
0.0284971
0.0254524
0.0229421
0.020848
0.0190828
0.017581
0.0162923
0.0151782
0.0142083
0.0133586
0.01261
0.0119468
0.0113566
0.0108289
0.0103551
0.00992816
0.00954202
0.00919165
0.00887274
0.00858163
0.00831518
0.00807069
0.00784582
0.00763852
0.00744704
0.0072698
0.00710544
0.00695275
0.00681068
0.00667826
0.00655466
0.00643912
0.00633096
0.00622959
0.00613445
0.00604506
0.00596098
0.00588178
0.00580713
0.00573667
0.00567011
0.00560718
0.00554761
0.00549119
0.00543769
0.00538691
0.00533869
0.00529286
0.00524926
0.00520775
0.00516821
0.00513051
0.00509453
0.00506019
0.00502739
0.00499602
0.0505473
0.0428478
0.0369111
0.0322395
0.028497
0.0254523
0.022942
0.0208479
0.0190828
0.0175809
0.0162923
0.0151782
0.0142083
0.0133587
0.01261
0.0119469
0.0113566
0.0108289
0.0103551
0.00992817
0.00954203
0.00919165
0.00887273
0.00858162
0.00831517
0.00807067
0.0078458
0.0076385
0.00744702
0.00726978
0.00710542
0.00695273
0.00681066
0.00667824
0.00655464
0.0064391
0.00633095
0.00622958
0.00613445
0.00604506
0.00596098
0.00588179
0.00580714
0.00573668
0.00567013
0.0056072
0.00554765
0.00549123
0.00543774
0.00538698
0.00533877
0.00529295
0.00524936
0.00520787
0.00516835
0.00513066
0.00509471
0.00506039
0.00502761
0.00499626
0.0434539
0.0320527
0.024479
0.0192377
0.0154827
0.0127103
0.0106107
0.00898591
0.00770495
0.00667839
0.00584386
0.00515682
0.00458481
0.00410375
0.00369552
0.00334625
0.00304523
0.00278405
0.00255604
0.00235585
0.00217919
0.00202255
0.00188304
0.00175827
0.00164624
0.0015453
0.00145403
0.00137125
0.00129596
0.00122727
0.00116445
0.00110687
0.00105395
0.00100522
0.000960261
0.00091869
0.000880184
0.000844456
0.000811252
0.000780343
0.000751531
0.000724634
0.000699492
0.000675963
0.000653913
0.000633227
0.000613797
0.000595528
0.000578335
0.000562134
0.000546852
0.000532426
0.000518795
0.000505907
0.000493711
0.000482158
0.000471196
0.000460758
0.000450727
0.000440108
0.0434334
0.0319432
0.0243159
0.0190353
0.0152512
0.0124597
0.0103485
0.00871764
0.00743427
0.00640799
0.00557558
0.00489189
0.00432403
0.00384763
0.00344433
0.0031001
0.00280411
0.00254785
0.0023246
0.00212901
0.00195673
0.00180424
0.00166866
0.00154761
0.00143909
0.00134146
0.00125332
0.00117349
0.00110097
0.0010349
0.000974541
0.000919262
0.000868514
0.000821819
0.000778762
0.000738981
0.000702155
0.000668001
0.000636268
0.000606736
0.000579208
0.000553507
0.000529477
0.000506979
0.000485884
0.000466081
0.000447467
0.000429949
0.000413444
0.000397876
0.000383175
0.00036928
0.000356133
0.000343682
0.00033188
0.000320681
0.000310046
0.000299937
0.000290315
0.000281126
0.0434334
0.0319682
0.0243515
0.0190751
0.0152908
0.0124965
0.0103818
0.00874707
0.00746003
0.0064304
0.00559503
0.00490875
0.00433866
0.00386033
0.00345537
0.00310972
0.0028125
0.00255518
0.00233103
0.00213464
0.00196167
0.00180859
0.00167249
0.00155097
0.00144205
0.00134407
0.00125561
0.0011755
0.00110273
0.00103644
0.000975879
0.000920422
0.000869512
0.000822671
0.000779478
0.000739569
0.000702621
0.00066835
0.000636506
0.000606866
0.000579234
0.000553434
0.000529307
0.000506714
0.000485527
0.000465634
0.000446932
0.000429328
0.000412739
0.000397088
0.000382307
0.000368332
0.000355107
0.000342578
0.000330699
0.000319425
0.000308717
0.000298536
0.00028885
0.000279627
0.0434334
0.0319682
0.0243481
0.019069
0.0152831
0.0124883
0.0103736
0.00873937
0.00745303
0.00642417
0.00558955
0.00490398
0.00433452
0.00385675
0.00345229
0.00310706
0.00281021
0.00255321
0.00232933
0.00213318
0.00196041
0.0018075
0.00167154
0.00155016
0.00144135
0.00134346
0.00125508
0.00117505
0.00110234
0.0010361
0.00097559
0.000920174
0.0008693
0.00082249
0.000779325
0.00073944
0.000702513
0.00066826
0.000636432
0.000606807
0.000579187
0.000553397
0.00052928
0.000506695
0.000485516
0.000465629
0.000446932
0.000429333
0.000412748
0.0003971
0.000382322
0.000368349
0.000355126
0.000342599
0.000330721
0.000319448
0.000308739
0.000298559
0.000288873
0.000279649
0.0434334
0.0319682
0.0243481
0.019069
0.0152831
0.0124883
0.0103736
0.00873938
0.00745305
0.00642418
0.00558956
0.00490399
0.00433453
0.00385677
0.0034523
0.00310707
0.00281022
0.00255322
0.00232933
0.00213318
0.00196041
0.0018075
0.00167154
0.00155016
0.00144135
0.00134346
0.00125508
0.00117505
0.00110234
0.0010361
0.000975588
0.000920172
0.000869298
0.000822488
0.000779324
0.000739438
0.000702511
0.000668259
0.000636431
0.000606806
0.000579186
0.000553396
0.000529279
0.000506694
0.000485515
0.000465628
0.000446931
0.000429332
0.000412746
0.000397099
0.00038232
0.000368348
0.000355124
0.000342597
0.000330719
0.000319446
0.000308738
0.000298557
0.000288871
0.000279647
0.0434334
0.0319682
0.0243515
0.0190751
0.0152908
0.0124965
0.0103818
0.00874702
0.00745998
0.00643036
0.00559499
0.00490872
0.00433863
0.0038603
0.00345535
0.0031097
0.00281248
0.00255516
0.00233101
0.00213463
0.00196166
0.00180858
0.00167247
0.00155096
0.00144204
0.00134406
0.0012556
0.0011755
0.00110273
0.00103643
0.000975876
0.000920419
0.000869511
0.00082267
0.000779478
0.000739569
0.000702621
0.00066835
0.000636507
0.000606867
0.000579235
0.000553435
0.000529308
0.000506714
0.000485528
0.000465635
0.000446932
0.000429328
0.000412738
0.000397087
0.000382305
0.00036833
0.000355104
0.000342575
0.000330695
0.000319421
0.000308711
0.00029853
0.000288843
0.000279619
0.0434334
0.0319432
0.0243159
0.0190353
0.0152513
0.0124597
0.0103486
0.00871765
0.00743429
0.006408
0.00557559
0.0048919
0.00432404
0.00384763
0.00344433
0.0031001
0.0028041
0.00254784
0.0023246
0.00212901
0.00195673
0.00180424
0.00166866
0.00154761
0.00143909
0.00134146
0.00125332
0.00117349
0.00110097
0.0010349
0.00097454
0.000919261
0.000868512
0.000821815
0.000778754
0.000738962
0.000702122
0.000667948
0.000636193
0.000606635
0.000579078
0.000553345
0.000529281
0.000506746
0.000485613
0.000465769
0.000447113
0.000429552
0.000413005
0.000397396
0.000382657
0.000368724
0.00035554
0.000343054
0.000331216
0.000319984
0.000309316
0.000299174
0.00028952
0.000280304
0.0434539
0.0320528
0.0244793
0.0192383
0.0154835
0.0127113
0.0106119
0.00898735
0.00770652
0.00668009
0.00584567
0.00515869
0.00458672
0.0041057
0.00369749
0.00334823
0.00304717
0.00278592
0.0025578
0.00235748
0.00218066
0.00202382
0.0018841
0.00175912
0.00164689
0.00154575
0.00145432
0.0013714
0.00129598
0.00122719
0.00116429
0.00110663
0.00105365
0.00100486
0.000959854
0.000918243
0.000879702
0.000843944
0.000810711
0.000779777
0.000750943
0.000724026
0.000698868
0.000675323
0.000653262
0.000632572
0.000613146
0.000594885
0.000577702
0.000561513
0.000546247
0.000531841
0.000518233
0.000505371
0.000493202
0.00048168
0.000470752
0.000460352
0.000450354
0.00043975
0.0505473
0.0428479
0.0369111
0.0322395
0.028497
0.0254522
0.0229419
0.0208479
0.0190827
0.0175809
0.0162923
0.0151782
0.0142083
0.0133586
0.01261
0.0119468
0.0113566
0.0108289
0.0103551
0.00992816
0.00954203
0.00919165
0.00887273
0.00858162
0.00831517
0.00807068
0.0078458
0.0076385
0.00744701
0.00726977
0.00710541
0.00695272
0.00681064
0.00667822
0.00655461
0.00643907
0.00633091
0.00622954
0.0061344
0.006045
0.00596091
0.00588171
0.00580705
0.00573659
0.00567003
0.00560709
0.00554752
0.00549109
0.00543758
0.00538681
0.00533858
0.00529274
0.00524914
0.00520763
0.00516808
0.00513037
0.0050944
0.00506005
0.00502724
0.00499587
)
;

boundaryField
{
    wall
    {
        type            kqRWallFunction;
        value           nonuniform List<scalar> 
1200
(
0.0505472
0.0434539
0.0434334
0.0434334
0.0434334
0.0434334
0.0434334
0.0434334
0.0434539
0.0505472
0.0428477
0.0320528
0.0319432
0.0319682
0.0319683
0.0319683
0.0319682
0.0319433
0.0320529
0.0428476
0.0369111
0.0244798
0.0243158
0.0243516
0.0243481
0.0243481
0.0243515
0.0243159
0.0244799
0.0369109
0.0322397
0.0192388
0.0190352
0.0190752
0.019069
0.0190691
0.0190751
0.0190353
0.019239
0.0322396
0.0284974
0.0154835
0.0152512
0.0152908
0.0152831
0.0152831
0.0152908
0.0152512
0.0154839
0.0284971
0.0254526
0.0127106
0.0124596
0.0124966
0.0124882
0.0124883
0.0124965
0.0124597
0.0127112
0.0254524
0.0229423
0.0106105
0.0103485
0.0103818
0.0103736
0.0103736
0.0103818
0.0103486
0.0106114
0.0229421
0.0208482
0.00898546
0.00871765
0.00874709
0.00873936
0.00873939
0.00874704
0.00871768
0.00898646
0.020848
0.019083
0.00770428
0.0074343
0.00746006
0.00745303
0.00745306
0.00746001
0.00743432
0.00770544
0.0190828
0.0175811
0.0066777
0.00640802
0.00643043
0.00642418
0.0064242
0.00643039
0.00640804
0.00667893
0.017581
0.0162925
0.00584327
0.00557562
0.00559506
0.00558956
0.00558959
0.00559502
0.00557562
0.00584454
0.0162923
0.0151784
0.00515638
0.00489193
0.00490878
0.004904
0.00490402
0.00490874
0.00489193
0.00515768
0.0151782
0.0142085
0.00458456
0.00432408
0.00433869
0.00433454
0.00433456
0.00433865
0.00432407
0.00458586
0.0142083
0.0133588
0.00410371
0.00384768
0.00386036
0.00385678
0.00385679
0.00386033
0.00384766
0.00410498
0.0133586
0.0126101
0.00369568
0.00344437
0.0034554
0.00345231
0.00345232
0.00345537
0.00344435
0.0036969
0.01261
0.011947
0.0033466
0.00310014
0.00310974
0.00310709
0.0031071
0.00310972
0.00310012
0.00334776
0.0119468
0.0113567
0.00304572
0.00280414
0.00281252
0.00281023
0.00281024
0.0028125
0.00280412
0.00304683
0.0113566
0.010829
0.00278461
0.00254788
0.0025552
0.00255323
0.00255324
0.00255518
0.00254786
0.00278567
0.0108289
0.0103552
0.00255661
0.00232464
0.00233104
0.00232935
0.00232935
0.00233102
0.00232462
0.00255765
0.0103551
0.00992826
0.0023564
0.00212904
0.00213466
0.0021332
0.00213319
0.00213464
0.00212902
0.00235742
0.00992816
0.00954212
0.00217968
0.00195676
0.00196169
0.00196043
0.00196043
0.00196167
0.00195674
0.00218067
0.00954202
0.00919173
0.00202292
0.00180427
0.0018086
0.00180751
0.00180751
0.00180859
0.00180425
0.00202392
0.00919165
0.00887281
0.00188325
0.00166869
0.0016725
0.00167156
0.00167156
0.00167248
0.00166867
0.00188427
0.00887274
0.00858169
0.00175832
0.00154764
0.00155098
0.00155017
0.00155017
0.00155097
0.00154761
0.00175934
0.00858163
0.00831523
0.00164612
0.00143912
0.00144206
0.00144136
0.00144136
0.00144205
0.0014391
0.00164715
0.00831518
0.00807074
0.00154501
0.00134149
0.00134407
0.00134347
0.00134347
0.00134407
0.00134147
0.00154604
0.00807069
0.00784586
0.00145359
0.00125335
0.00125562
0.0012551
0.00125509
0.00125561
0.00125333
0.00145461
0.00784582
0.00763856
0.00137069
0.00117352
0.00117551
0.00117506
0.00117505
0.0011755
0.0011735
0.00137168
0.00763852
0.00744706
0.00129527
0.00110099
0.00110274
0.00110235
0.00110235
0.00110273
0.00110098
0.00129623
0.00744704
0.00726982
0.0012265
0.00103492
0.00103644
0.00103611
0.00103611
0.00103644
0.0010349
0.00122742
0.0072698
0.00710546
0.0011636
0.000974563
0.000975887
0.000975602
0.000975595
0.000975882
0.000974544
0.00116449
0.00710544
0.00695277
0.00110596
0.000919283
0.00092043
0.000920186
0.000920179
0.000920426
0.000919265
0.0011068
0.00695275
0.00681069
0.001053
0.000868534
0.00086952
0.000869312
0.000869305
0.000869517
0.000868516
0.0010538
0.00681068
0.00667827
0.00100424
0.000821838
0.000822679
0.000822501
0.000822495
0.000822676
0.000821819
0.00100501
0.00667826
0.00655467
0.000959259
0.000778779
0.000779486
0.000779336
0.00077933
0.000779484
0.000778757
0.000959994
0.00655466
0.00643913
0.000917676
0.000738992
0.000739577
0.000739451
0.000739445
0.000739575
0.000738966
0.000918387
0.00643912
0.00633097
0.000879163
0.000702161
0.000702629
0.000702523
0.000702517
0.000702627
0.000702125
0.000879863
0.00633096
0.0062296
0.00084343
0.000668003
0.000668358
0.000668271
0.000668265
0.000668356
0.000667952
0.000844129
0.00622959
0.00613447
0.00081022
0.000636268
0.000636514
0.000636443
0.000636437
0.000636512
0.000636197
0.000810934
0.00613445
0.00604508
0.000779309
0.000606734
0.000606874
0.000606817
0.000606812
0.000606873
0.000606639
0.000780048
0.00604506
0.00596099
0.000750492
0.000579204
0.000579242
0.000579197
0.000579192
0.000579241
0.000579081
0.000751265
0.00596098
0.0058818
0.000723589
0.000553503
0.000553442
0.000553407
0.000553402
0.00055344
0.000553349
0.000724407
0.00588178
0.00580715
0.000698437
0.000529473
0.000529315
0.00052929
0.000529285
0.000529314
0.000529285
0.000699309
0.00580713
0.00573669
0.000674891
0.000506973
0.000506722
0.000506705
0.0005067
0.00050672
0.00050675
0.000675826
0.00573667
0.00567014
0.000652823
0.000485878
0.000485536
0.000485525
0.000485521
0.000485534
0.000485617
0.000653826
0.00567011
0.00560721
0.000632113
0.000466074
0.000465643
0.000465638
0.000465634
0.00046564
0.000465775
0.000633186
0.00560718
0.00554765
0.000612657
0.000447459
0.000446941
0.000446942
0.000446937
0.000446938
0.000447122
0.0006138
0.00554761
0.00549123
0.000594358
0.000429939
0.000429337
0.000429342
0.000429338
0.000429334
0.000429567
0.000595571
0.00549119
0.00543774
0.000577127
0.000413433
0.000412748
0.000412757
0.000412753
0.000412744
0.000413027
0.000578412
0.00543769
0.00538697
0.00056089
0.000397863
0.000397097
0.000397109
0.000397105
0.000397093
0.000397424
0.000562249
0.00538691
0.00533876
0.000545575
0.000383162
0.000382316
0.000382331
0.000382327
0.000382311
0.00038269
0.000547006
0.00533869
0.00529294
0.000531114
0.000369265
0.000368341
0.000368358
0.000368354
0.000368336
0.000368761
0.000532616
0.00529286
0.00524935
0.000517449
0.000356116
0.000355116
0.000355135
0.000355131
0.00035511
0.000355582
0.000519021
0.00524926
0.00520786
0.00050452
0.000343663
0.000342588
0.000342608
0.000342604
0.000342581
0.000343099
0.000506164
0.00520775
0.00516833
0.000492278
0.000331858
0.000330709
0.00033073
0.000330726
0.000330701
0.000331265
0.000493992
0.00516821
0.00513064
0.000480676
0.000320657
0.000319435
0.000319457
0.000319453
0.000319427
0.000320035
0.000482459
0.00513051
0.00509468
0.000469668
0.00031002
0.000308727
0.000308749
0.000308745
0.000308717
0.000309369
0.000471515
0.00509453
0.00506036
0.000459187
0.000299909
0.000298547
0.000298569
0.000298565
0.000298536
0.000299229
0.000461092
0.00506019
0.00502757
0.000449114
0.000290285
0.000288861
0.000288883
0.000288879
0.000288849
0.000289576
0.000451066
0.00502739
0.00499622
0.000438468
0.000281094
0.000279638
0.00027966
0.000279655
0.000279625
0.00028036
0.000440437
0.00499602
0.0505473
0.0434539
0.0434334
0.0434334
0.0434334
0.0434334
0.0434334
0.0434334
0.0434539
0.0505473
0.0428478
0.0320527
0.0319432
0.0319682
0.0319682
0.0319682
0.0319682
0.0319432
0.0320528
0.0428479
0.0369111
0.024479
0.0243159
0.0243515
0.0243481
0.0243481
0.0243515
0.0243159
0.0244793
0.0369111
0.0322395
0.0192377
0.0190353
0.0190751
0.019069
0.019069
0.0190751
0.0190353
0.0192383
0.0322395
0.028497
0.0154827
0.0152512
0.0152908
0.0152831
0.0152831
0.0152908
0.0152513
0.0154835
0.028497
0.0254523
0.0127103
0.0124597
0.0124965
0.0124883
0.0124883
0.0124965
0.0124597
0.0127113
0.0254522
0.022942
0.0106107
0.0103485
0.0103818
0.0103736
0.0103736
0.0103818
0.0103486
0.0106119
0.0229419
0.0208479
0.00898591
0.00871764
0.00874707
0.00873937
0.00873938
0.00874702
0.00871765
0.00898735
0.0208479
0.0190828
0.00770495
0.00743427
0.00746003
0.00745303
0.00745305
0.00745998
0.00743429
0.00770652
0.0190827
0.0175809
0.00667839
0.00640799
0.0064304
0.00642417
0.00642418
0.00643036
0.006408
0.00668009
0.0175809
0.0162923
0.00584386
0.00557558
0.00559503
0.00558955
0.00558956
0.00559499
0.00557559
0.00584567
0.0162923
0.0151782
0.00515682
0.00489189
0.00490875
0.00490398
0.00490399
0.00490872
0.0048919
0.00515869
0.0151782
0.0142083
0.00458481
0.00432403
0.00433866
0.00433452
0.00433453
0.00433863
0.00432404
0.00458672
0.0142083
0.0133587
0.00410375
0.00384763
0.00386033
0.00385675
0.00385677
0.0038603
0.00384763
0.0041057
0.0133586
0.01261
0.00369552
0.00344433
0.00345537
0.00345229
0.0034523
0.00345535
0.00344433
0.00369749
0.01261
0.0119469
0.00334625
0.0031001
0.00310972
0.00310706
0.00310707
0.0031097
0.0031001
0.00334823
0.0119468
0.0113566
0.00304523
0.00280411
0.0028125
0.00281021
0.00281022
0.00281248
0.0028041
0.00304717
0.0113566
0.0108289
0.00278405
0.00254785
0.00255518
0.00255321
0.00255322
0.00255516
0.00254784
0.00278592
0.0108289
0.0103551
0.00255604
0.0023246
0.00233103
0.00232933
0.00232933
0.00233101
0.0023246
0.0025578
0.0103551
0.00992817
0.00235585
0.00212901
0.00213464
0.00213318
0.00213318
0.00213463
0.00212901
0.00235748
0.00992816
0.00954203
0.00217919
0.00195673
0.00196167
0.00196041
0.00196041
0.00196166
0.00195673
0.00218066
0.00954203
0.00919165
0.00202255
0.00180424
0.00180859
0.0018075
0.0018075
0.00180858
0.00180424
0.00202382
0.00919165
0.00887273
0.00188304
0.00166866
0.00167249
0.00167154
0.00167154
0.00167247
0.00166866
0.0018841
0.00887273
0.00858162
0.00175827
0.00154761
0.00155097
0.00155016
0.00155016
0.00155096
0.00154761
0.00175912
0.00858162
0.00831517
0.00164624
0.00143909
0.00144205
0.00144135
0.00144135
0.00144204
0.00143909
0.00164689
0.00831517
0.00807067
0.0015453
0.00134146
0.00134407
0.00134346
0.00134346
0.00134406
0.00134146
0.00154575
0.00807068
0.0078458
0.00145403
0.00125332
0.00125561
0.00125508
0.00125508
0.0012556
0.00125332
0.00145432
0.0078458
0.0076385
0.00137125
0.00117349
0.0011755
0.00117505
0.00117505
0.0011755
0.00117349
0.0013714
0.0076385
0.00744702
0.00129596
0.00110097
0.00110273
0.00110234
0.00110234
0.00110273
0.00110097
0.00129598
0.00744701
0.00726978
0.00122727
0.0010349
0.00103644
0.0010361
0.0010361
0.00103643
0.0010349
0.00122719
0.00726977
0.00710542
0.00116445
0.000974541
0.000975879
0.00097559
0.000975588
0.000975876
0.00097454
0.00116429
0.00710541
0.00695273
0.00110687
0.000919262
0.000920422
0.000920174
0.000920172
0.000920419
0.000919261
0.00110663
0.00695272
0.00681066
0.00105395
0.000868514
0.000869512
0.0008693
0.000869298
0.000869511
0.000868512
0.00105365
0.00681064
0.00667824
0.00100522
0.000821819
0.000822671
0.00082249
0.000822488
0.00082267
0.000821815
0.00100486
0.00667822
0.00655464
0.000960261
0.000778762
0.000779478
0.000779325
0.000779324
0.000779478
0.000778754
0.000959854
0.00655461
0.0064391
0.00091869
0.000738981
0.000739569
0.00073944
0.000739438
0.000739569
0.000738962
0.000918243
0.00643907
0.00633095
0.000880184
0.000702155
0.000702621
0.000702513
0.000702511
0.000702621
0.000702122
0.000879702
0.00633091
0.00622958
0.000844456
0.000668001
0.00066835
0.00066826
0.000668259
0.00066835
0.000667948
0.000843944
0.00622954
0.00613445
0.000811252
0.000636268
0.000636506
0.000636432
0.000636431
0.000636507
0.000636193
0.000810711
0.0061344
0.00604506
0.000780343
0.000606736
0.000606866
0.000606807
0.000606806
0.000606867
0.000606635
0.000779777
0.006045
0.00596098
0.000751531
0.000579208
0.000579234
0.000579187
0.000579186
0.000579235
0.000579078
0.000750943
0.00596091
0.00588179
0.000724634
0.000553507
0.000553434
0.000553397
0.000553396
0.000553435
0.000553345
0.000724026
0.00588171
0.00580714
0.000699492
0.000529477
0.000529307
0.00052928
0.000529279
0.000529308
0.000529281
0.000698868
0.00580705
0.00573668
0.000675963
0.000506979
0.000506714
0.000506695
0.000506694
0.000506714
0.000506746
0.000675323
0.00573659
0.00567013
0.000653913
0.000485884
0.000485527
0.000485516
0.000485515
0.000485528
0.000485613
0.000653262
0.00567003
0.0056072
0.000633227
0.000466081
0.000465634
0.000465629
0.000465628
0.000465635
0.000465769
0.000632572
0.00560709
0.00554765
0.000613797
0.000447467
0.000446932
0.000446932
0.000446931
0.000446932
0.000447113
0.000613146
0.00554752
0.00549123
0.000595528
0.000429949
0.000429328
0.000429333
0.000429332
0.000429328
0.000429552
0.000594885
0.00549109
0.00543774
0.000578335
0.000413444
0.000412739
0.000412748
0.000412746
0.000412738
0.000413005
0.000577702
0.00543758
0.00538698
0.000562134
0.000397876
0.000397088
0.0003971
0.000397099
0.000397087
0.000397396
0.000561513
0.00538681
0.00533877
0.000546852
0.000383175
0.000382307
0.000382322
0.00038232
0.000382305
0.000382657
0.000546247
0.00533858
0.00529295
0.000532426
0.00036928
0.000368332
0.000368349
0.000368348
0.00036833
0.000368724
0.000531841
0.00529274
0.00524936
0.000518795
0.000356133
0.000355107
0.000355126
0.000355124
0.000355104
0.00035554
0.000518233
0.00524914
0.00520787
0.000505907
0.000343682
0.000342578
0.000342599
0.000342597
0.000342575
0.000343054
0.000505371
0.00520763
0.00516835
0.000493711
0.00033188
0.000330699
0.000330721
0.000330719
0.000330695
0.000331216
0.000493202
0.00516808
0.00513066
0.000482158
0.000320681
0.000319425
0.000319448
0.000319446
0.000319421
0.000319984
0.00048168
0.00513037
0.00509471
0.000471196
0.000310046
0.000308717
0.000308739
0.000308738
0.000308711
0.000309316
0.000470752
0.0050944
0.00506039
0.000460758
0.000299937
0.000298536
0.000298559
0.000298557
0.00029853
0.000299174
0.000460352
0.00506005
0.00502761
0.000450727
0.000290315
0.00028885
0.000288873
0.000288871
0.000288843
0.00028952
0.000450354
0.00502724
0.00499626
0.000440108
0.000281126
0.000279627
0.000279649
0.000279647
0.000279619
0.000280304
0.00043975
0.00499587
)
;
    }
    inlet
    {
        type            turbulentIntensityKineticEnergyInlet;
        intensity       0.05;
        value           uniform 0.06;
    }
    outlet
    {
        type            inletOutlet;
        inletValue      uniform 0.003;
        value           nonuniform List<scalar> 
20
(
0.00499622
0.000438468
0.000281094
0.000279638
0.00027966
0.000279655
0.000279625
0.00028036
0.000440437
0.00499602
0.00499626
0.000440108
0.000281126
0.000279627
0.000279649
0.000279647
0.000279619
0.000280304
0.00043975
0.00499587
)
;
    }
    heatWall
    {
        type            kqRWallFunction;
        value           nonuniform List<scalar> 
240
(
0.0505472
0.0505473
0.0428476
0.0428479
0.0369109
0.0369111
0.0322396
0.0322395
0.0284971
0.028497
0.0254524
0.0254522
0.0229421
0.0229419
0.020848
0.0208479
0.0190828
0.0190827
0.017581
0.0175809
0.0162923
0.0162923
0.0151782
0.0151782
0.0142083
0.0142083
0.0133586
0.0133586
0.01261
0.01261
0.0119468
0.0119468
0.0113566
0.0113566
0.0108289
0.0108289
0.0103551
0.0103551
0.00992816
0.00992816
0.00954202
0.00954203
0.00919165
0.00919165
0.00887274
0.00887273
0.00858163
0.00858162
0.00831518
0.00831517
0.00807069
0.00807068
0.00784582
0.0078458
0.00763852
0.0076385
0.00744704
0.00744701
0.0072698
0.00726977
0.00710544
0.00710541
0.00695275
0.00695272
0.00681068
0.00681064
0.00667826
0.00667822
0.00655466
0.00655461
0.00643912
0.00643907
0.00633096
0.00633091
0.00622959
0.00622954
0.00613445
0.0061344
0.00604506
0.006045
0.00596098
0.00596091
0.00588178
0.00588171
0.00580713
0.00580705
0.00573667
0.00573659
0.00567011
0.00567003
0.00560718
0.00560709
0.00554761
0.00554752
0.00549119
0.00549109
0.00543769
0.00543758
0.00538691
0.00538681
0.00533869
0.00533858
0.00529286
0.00529274
0.00524926
0.00524914
0.00520775
0.00520763
0.00516821
0.00516808
0.00513051
0.00513037
0.00509453
0.0050944
0.00506019
0.00506005
0.00502739
0.00502724
0.00499602
0.00499587
0.0505472
0.0505473
0.0428477
0.0428478
0.0369111
0.0369111
0.0322397
0.0322395
0.0284974
0.028497
0.0254526
0.0254523
0.0229423
0.022942
0.0208482
0.0208479
0.019083
0.0190828
0.0175811
0.0175809
0.0162925
0.0162923
0.0151784
0.0151782
0.0142085
0.0142083
0.0133588
0.0133587
0.0126101
0.01261
0.011947
0.0119469
0.0113567
0.0113566
0.010829
0.0108289
0.0103552
0.0103551
0.00992826
0.00992817
0.00954212
0.00954203
0.00919173
0.00919165
0.00887281
0.00887273
0.00858169
0.00858162
0.00831523
0.00831517
0.00807074
0.00807067
0.00784586
0.0078458