/*--------------------------------*- C++ -*----------------------------------*\
  =========                 |
  \\      /  F ield         | OpenFOAM: The Open Source CFD Toolbox
   \\    /   O peration     | Website:  https://openfoam.org
    \\  /    A nd           | Version:  8
     \\/     M anipulation  |
\*---------------------------------------------------------------------------*/
FoamFile
{
    version     2.0;
    format      ascii;
    class       volScalarField;
    location    "300";
    object      nut;
}
// * * * * * * * * * * * * * * * * * * * * * * * * * * * * * * * * * * * * * //

dimensions      [0 2 -1 0 0 0 0];

internalField   nonuniform List<scalar> 
1200
(
0.000201954
0.000185938
0.000172577
0.000161287
0.000151638
0.000143308
0.000136058
0.0001297
0.000124087
0.000119104
0.000114656
0.000110667
0.000107073
0.000103822
0.00010087
9.81823e-05
9.57262e-05
9.34756e-05
9.1408e-05
8.95037e-05
8.77459e-05
8.61198e-05
8.46126e-05
8.32129e-05
8.19109e-05
8.06977e-05
7.95655e-05
7.85073e-05
7.7517e-05
7.6589e-05
7.57182e-05
7.49003e-05
7.4131e-05
7.34068e-05
7.27243e-05
7.20805e-05
7.14726e-05
7.08981e-05
7.03547e-05
6.98402e-05
6.93527e-05
6.88905e-05
6.8452e-05
6.80355e-05
6.76397e-05
6.72633e-05
6.69051e-05
6.6564e-05
6.6239e-05
6.59291e-05
6.56334e-05
6.53511e-05
6.50815e-05
6.48237e-05
6.45772e-05
6.43414e-05
6.41155e-05
6.38991e-05
6.36918e-05
6.34929e-05
0.00011703
0.000100512
8.78392e-05
7.78707e-05
6.98586e-05
6.32947e-05
5.783e-05
5.32175e-05
4.92777e-05
4.58773e-05
4.29153e-05
4.03141e-05
3.80131e-05
3.59644e-05
3.41296e-05
3.24778e-05
3.09834e-05
2.96256e-05
2.83868e-05
2.72527e-05
2.62108e-05
2.52507e-05
2.43634e-05
2.35414e-05
2.2778e-05
2.20674e-05
2.14046e-05
2.07852e-05
2.02053e-05
1.96615e-05
1.91508e-05
1.86704e-05
1.82179e-05
1.77911e-05
1.73881e-05
1.70071e-05
1.66464e-05
1.63046e-05
1.59803e-05
1.56725e-05
1.538e-05
1.51019e-05
1.48371e-05
1.45848e-05
1.43444e-05
1.4115e-05
1.38961e-05
1.3687e-05
1.34871e-05
1.32961e-05
1.31133e-05
1.29383e-05
1.27708e-05
1.26103e-05
1.24563e-05
1.23087e-05
1.21669e-05
1.20304e-05
1.18977e-05
1.17558e-05
0.000117003
0.00010034
8.75446e-05
7.74575e-05
6.93324e-05
6.26667e-05
5.71115e-05
5.24184e-05
4.84066e-05
4.49414e-05
4.19209e-05
3.92667e-05
3.69174e-05
3.48244e-05
3.29488e-05
3.1259e-05
2.97293e-05
2.83383e-05
2.70684e-05
2.59046e-05
2.48344e-05
2.38471e-05
2.29336e-05
2.20861e-05
2.12977e-05
2.05626e-05
1.98756e-05
1.92322e-05
1.86285e-05
1.80608e-05
1.75263e-05
1.70219e-05
1.65454e-05
1.60945e-05
1.56672e-05
1.52618e-05
1.48766e-05
1.45102e-05
1.41613e-05
1.38288e-05
1.35114e-05
1.32082e-05
1.29183e-05
1.26409e-05
1.23751e-05
1.21203e-05
1.18757e-05
1.16409e-05
1.14153e-05
1.11983e-05
1.09894e-05
1.07883e-05
1.05945e-05
1.04076e-05
1.02273e-05
1.00532e-05
9.88507e-06
9.72253e-06
9.56525e-06
9.41262e-06
0.000117003
0.000100379
8.76089e-05
7.75387e-05
6.94224e-05
6.27595e-05
5.72033e-05
5.25069e-05
4.84904e-05
4.50199e-05
4.1994e-05
3.93343e-05
3.69797e-05
3.48818e-05
3.30015e-05
3.13074e-05
2.97737e-05
2.8379e-05
2.71056e-05
2.59387e-05
2.48656e-05
2.38757e-05
2.29597e-05
2.21099e-05
2.13195e-05
2.05824e-05
1.98936e-05
1.92485e-05
1.86432e-05
1.80741e-05
1.75382e-05
1.70326e-05
1.65548e-05
1.61027e-05
1.56743e-05
1.52678e-05
1.48815e-05
1.45141e-05
1.41641e-05
1.38304e-05
1.35118e-05
1.32075e-05
1.29164e-05
1.26377e-05
1.23707e-05
1.21147e-05
1.18689e-05
1.16328e-05
1.14058e-05
1.11875e-05
1.09773e-05
1.07748e-05
1.05796e-05
1.03913e-05
1.02096e-05
1.0034e-05
9.86442e-06
9.70042e-06
9.54176e-06
9.3882e-06
0.000117003
0.000100379
8.76026e-05
7.75263e-05
6.94049e-05
6.27387e-05
5.71806e-05
5.24837e-05
4.84675e-05
4.4998e-05
4.19733e-05
3.93151e-05
3.69621e-05
3.48656e-05
3.29868e-05
3.1294e-05
2.97616e-05
2.83681e-05
2.70958e-05
2.59298e-05
2.48576e-05
2.38685e-05
2.29533e-05
2.21042e-05
2.13143e-05
2.05778e-05
1.98895e-05
1.92449e-05
1.86399e-05
1.80712e-05
1.75356e-05
1.70303e-05
1.65528e-05
1.6101e-05
1.56728e-05
1.52665e-05
1.48804e-05
1.45131e-05
1.41633e-05
1.38297e-05
1.35113e-05
1.32071e-05
1.29161e-05
1.26375e-05
1.23706e-05
1.21146e-05
1.18689e-05
1.16329e-05
1.1406e-05
1.11877e-05
1.09775e-05
1.07751e-05
1.05799e-05
1.03916e-05
1.02099e-05
1.00344e-05
9.86478e-06
9.70078e-06
9.54213e-06
9.38857e-06
0.000117003
0.000100379
8.76026e-05
7.75263e-05
6.9405e-05
6.27387e-05
5.71807e-05
5.24838e-05
4.84676e-05
4.49981e-05
4.19734e-05
3.93152e-05
3.69621e-05
3.48656e-05
3.29868e-05
3.12941e-05
2.97616e-05
2.83681e-05
2.70958e-05
2.59298e-05
2.48576e-05
2.38685e-05
2.29533e-05
2.21041e-05
2.13143e-05
2.05777e-05
1.98894e-05
1.92448e-05
1.86399e-05
1.80712e-05
1.75355e-05
1.70302e-05
1.65528e-05
1.61009e-05
1.56728e-05
1.52664e-05
1.48803e-05
1.45131e-05
1.41632e-05
1.38297e-05
1.35113e-05
1.3207e-05
1.2916e-05
1.26375e-05
1.23705e-05
1.21145e-05
1.18688e-05
1.16328e-05
1.14059e-05
1.11876e-05
1.09775e-05
1.0775e-05
1.05798e-05
1.03916e-05
1.02098e-05
1.00343e-05
9.86471e-06
9.70072e-06
9.54206e-06
9.3885e-06
0.000117003
0.000100379
8.76088e-05
7.75386e-05
6.94223e-05
6.27594e-05
5.72032e-05
5.25067e-05
4.84902e-05
4.50197e-05
4.19938e-05
3.93341e-05
3.69796e-05
3.48816e-05
3.30013e-05
3.13073e-05
2.97735e-05
2.83789e-05
2.71055e-05
2.59386e-05
2.48655e-05
2.38756e-05
2.29597e-05
2.21099e-05
2.13194e-05
2.05823e-05
1.98935e-05
1.92485e-05
1.86432e-05
1.80741e-05
1.75381e-05
1.70325e-05
1.65548e-05
1.61027e-05
1.56743e-05
1.52678e-05
1.48815e-05
1.4514e-05
1.41641e-05
1.38304e-05
1.35118e-05
1.32075e-05
1.29164e-05
1.26377e-05
1.23707e-05
1.21146e-05
1.18688e-05
1.16327e-05
1.14058e-05
1.11874e-05
1.09772e-05
1.07747e-05
1.05795e-05
1.03912e-05
1.02094e-05
1.00339e-05
9.86427e-06
9.70025e-06
9.54158e-06
9.38799e-06
0.000117003
0.00010034
8.75447e-05
7.74576e-05
6.93325e-05
6.26668e-05
5.71116e-05
5.24185e-05
4.84067e-05
4.49414e-05
4.1921e-05
3.92667e-05
3.69174e-05
3.48243e-05
3.29487e-05
3.12589e-05
2.97292e-05
2.83382e-05
2.70682e-05
2.59044e-05
2.48342e-05
2.3847e-05
2.29335e-05
2.20859e-05
2.12976e-05
2.05624e-05
1.98754e-05
1.9232e-05
1.86283e-05
1.80607e-05
1.75261e-05
1.70218e-05
1.65453e-05
1.60943e-05
1.5667e-05
1.52615e-05
1.48762e-05
1.45097e-05
1.41606e-05
1.38277e-05
1.351e-05
1.32064e-05
1.2916e-05
1.26381e-05
1.23718e-05
1.21164e-05
1.18713e-05
1.16359e-05
1.14097e-05
1.11921e-05
1.09827e-05
1.0781e-05
1.05866e-05
1.03991e-05
1.02181e-05
1.00435e-05
9.87468e-06
9.7115e-06
9.55357e-06
9.40031e-06
0.00011703
0.000100512
8.78394e-05
7.78711e-05
6.98595e-05
6.32963e-05
5.78322e-05
5.32205e-05
4.92814e-05
4.58815e-05
4.292e-05
4.03192e-05
3.80185e-05
3.597e-05
3.41353e-05
3.24834e-05
3.09891e-05
2.96312e-05
2.83926e-05
2.72585e-05
2.62168e-05
2.5257e-05
2.437e-05
2.35483e-05
2.27851e-05
2.20747e-05
2.1412e-05
2.07927e-05
2.02128e-05
1.96689e-05
1.91581e-05
1.86775e-05
1.82249e-05
1.77979e-05
1.73948e-05
1.70136e-05
1.6653e-05
1.63113e-05
1.59874e-05
1.568e-05
1.5388e-05
1.51104e-05
1.48463e-05
1.45949e-05
1.43554e-05
1.4127e-05
1.39091e-05
1.3701e-05
1.35022e-05
1.33122e-05
1.31305e-05
1.29566e-05
1.27902e-05
1.26308e-05
1.2478e-05
1.23315e-05
1.21908e-05
1.20553e-05
1.19235e-05
1.17822e-05
0.000201954
0.000185938
0.000172577
0.000161287
0.000151637
0.000143307
0.000136057
0.000129699
0.000124087
0.000119104
0.000114656
0.000110666
0.000107072
0.000103821
0.00010087
9.81817e-05
9.57256e-05
9.34751e-05
9.14075e-05
8.95033e-05
8.77455e-05
8.61194e-05
8.46123e-05
8.32126e-05
8.19106e-05
8.06975e-05
7.95653e-05
7.85072e-05
7.75169e-05
7.65889e-05
7.57181e-05
7.49002e-05
7.4131e-05
7.34068e-05
7.27243e-05
7.20805e-05
7.14726e-05
7.0898e-05
7.03546e-05
6.98401e-05
6.93527e-05
6.88905e-05
6.84518e-05
6.80353e-05
6.76395e-05
6.72631e-05
6.69048e-05
6.65637e-05
6.62387e-05
6.59287e-05
6.5633e-05
6.53506e-05
6.50809e-05
6.48231e-05
6.45765e-05
6.43405e-05
6.41146e-05
6.38981e-05
6.36907e-05
6.34916e-05
0.000201955
0.000185938
0.000172577
0.000161287
0.000151637
0.000143307
0.000136057
0.000129699
0.000124087
0.000119104
0.000114656
0.000110666
0.000107072
0.000103821
0.00010087
9.81818e-05
9.57257e-05
9.34752e-05
9.14076e-05
8.95033e-05
8.77455e-05
8.61194e-05
8.46122e-05
8.32126e-05
8.19106e-05
8.06974e-05
7.95652e-05
7.8507e-05
7.75168e-05
7.65888e-05
7.5718e-05
7.49001e-05
7.41309e-05
7.34067e-05
7.27242e-05
7.20804e-05
7.14725e-05
7.0898e-05
7.03546e-05
6.98401e-05
6.93527e-05
6.88905e-05
6.84519e-05
6.80354e-05
6.76396e-05
6.72632e-05
6.6905e-05
6.6564e-05
6.6239e-05
6.59291e-05
6.56334e-05
6.53512e-05
6.50815e-05
6.48238e-05
6.45774e-05
6.43415e-05
6.41157e-05
6.38993e-05
6.3692e-05
6.34932e-05
0.00011703
0.000100512
8.78377e-05
7.78684e-05
6.98567e-05
6.32939e-05
5.78303e-05
5.32189e-05
4.92798e-05
4.58797e-05
4.29175e-05
4.03158e-05
3.80141e-05
3.59646e-05
3.41289e-05
3.24761e-05
3.09809e-05
2.96226e-05
2.83836e-05
2.72495e-05
2.62079e-05
2.52484e-05
2.43621e-05
2.35411e-05
2.27788e-05
2.20694e-05
2.14078e-05
2.07895e-05
2.02106e-05
1.96677e-05
1.91578e-05
1.86781e-05
1.82261e-05
1.77998e-05
1.73972e-05
1.70164e-05
1.6656e-05
1.63145e-05
1.59905e-05
1.56829e-05
1.53907e-05
1.51128e-05
1.48483e-05
1.45964e-05
1.43564e-05
1.41275e-05
1.3909e-05
1.37005e-05
1.35013e-05
1.33108e-05
1.31286e-05
1.29543e-05
1.27874e-05
1.26276e-05
1.24744e-05
1.23276e-05
1.21867e-05
1.20509e-05
1.1919e-05
1.17778e-05
0.000117003
0.00010034
8.75447e-05
7.74577e-05
6.93325e-05
6.26668e-05
5.71115e-05
5.24184e-05
4.84065e-05
4.49413e-05
4.19208e-05
3.92666e-05
3.69172e-05
3.48242e-05
3.29486e-05
3.12588e-05
2.97291e-05
2.83381e-05
2.70682e-05
2.59044e-05
2.48342e-05
2.38469e-05
2.29334e-05
2.20859e-05
2.12975e-05
2.05624e-05
1.98754e-05
1.9232e-05
1.86283e-05
1.80607e-05
1.75261e-05
1.70217e-05
1.65452e-05
1.60943e-05
1.5667e-05
1.52616e-05
1.48765e-05
1.45102e-05
1.41613e-05
1.38288e-05
1.35114e-05
1.32083e-05
1.29184e-05
1.26409e-05
1.23752e-05
1.21204e-05
1.18759e-05
1.16411e-05
1.14154e-05
1.11985e-05
1.09896e-05
1.07885e-05
1.05948e-05
1.04079e-05
1.02276e-05
1.00536e-05
9.88548e-06
9.72298e-06
9.56575e-06
9.41314e-06
0.000117003
0.000100379
8.76088e-05
7.75387e-05
6.94224e-05
6.27595e-05
5.72033e-05
5.25068e-05
4.84903e-05
4.50198e-05
4.19938e-05
3.93342e-05
3.69796e-05
3.48816e-05
3.30014e-05
3.13073e-05
2.97736e-05
2.83789e-05
2.71056e-05
2.59386e-05
2.48655e-05
2.38756e-05
2.29597e-05
2.21099e-05
2.13194e-05
2.05823e-05
1.98935e-05
1.92485e-05
1.86431e-05
1.80741e-05
1.75381e-05
1.70325e-05
1.65547e-05
1.61027e-05
1.56742e-05
1.52677e-05
1.48814e-05
1.4514e-05
1.4164e-05
1.38303e-05
1.35118e-05
1.32074e-05
1.29163e-05
1.26376e-05
1.23706e-05
1.21145e-05
1.18688e-05
1.16327e-05
1.14057e-05
1.11874e-05
1.09772e-05
1.07747e-05
1.05795e-05
1.03912e-05
1.02094e-05
1.00339e-05
9.86426e-06
9.70025e-06
9.54159e-06
9.38802e-06
0.000117003
0.000100379
8.76025e-05
7.75262e-05
6.94049e-05
6.27387e-05
5.71807e-05
5.24837e-05
4.84675e-05
4.4998e-05
4.19733e-05
3.9315e-05
3.6962e-05
3.48655e-05
3.29866e-05
3.12939e-05
2.97614e-05
2.83679e-05
2.70957e-05
2.59297e-05
2.48575e-05
2.38684e-05
2.29532e-05
2.21041e-05
2.13142e-05
2.05777e-05
1.98894e-05
1.92447e-05
1.86398e-05
1.80711e-05
1.75355e-05
1.70302e-05
1.65527e-05
1.61009e-05
1.56727e-05
1.52664e-05
1.48803e-05
1.4513e-05
1.41632e-05
1.38296e-05
1.35112e-05
1.3207e-05
1.2916e-05
1.26374e-05
1.23705e-05
1.21145e-05
1.18688e-05
1.16327e-05
1.14058e-05
1.11875e-05
1.09774e-05
1.07749e-05
1.05798e-05
1.03915e-05
1.02097e-05
1.00342e-05
9.86462e-06
9.70062e-06
9.54197e-06
9.3884e-06
0.000117003
0.000100379
8.76025e-05
7.75262e-05
6.9405e-05
6.27387e-05
5.71807e-05
5.24838e-05
4.84676e-05
4.4998e-05
4.19733e-05
3.93151e-05
3.6962e-05
3.48655e-05
3.29867e-05
3.12939e-05
2.97615e-05
2.8368e-05
2.70957e-05
2.59297e-05
2.48575e-05
2.38684e-05
2.29532e-05
2.21041e-05
2.13142e-05
2.05777e-05
1.98894e-05
1.92447e-05
1.86398e-05
1.80711e-05
1.75355e-05
1.70302e-05
1.65527e-05
1.61009e-05
1.56727e-05
1.52664e-05
1.48803e-05
1.4513e-05
1.41632e-05
1.38296e-05
1.35112e-05
1.3207e-05
1.2916e-05
1.26374e-05
1.23705e-05
1.21145e-05
1.18687e-05
1.16327e-05
1.14058e-05
1.11875e-05
1.09774e-05
1.07749e-05
1.05797e-05
1.03915e-05
1.02097e-05
1.00342e-05
9.86459e-06
9.70059e-06
9.54193e-06
9.38836e-06
0.000117003
0.000100379
8.76088e-05
7.75387e-05
6.94223e-05
6.27594e-05
5.72031e-05
5.25067e-05
4.84901e-05
4.50196e-05
4.19937e-05
3.9334e-05
3.69795e-05
3.48815e-05
3.30012e-05
3.13072e-05
2.97734e-05
2.83788e-05
2.71054e-05
2.59385e-05
2.48655e-05
2.38755e-05
2.29596e-05
2.21098e-05
2.13193e-05
2.05823e-05
1.98935e-05
1.92484e-05
1.86431e-05
1.8074e-05
1.75381e-05
1.70325e-05
1.65547e-05
1.61026e-05
1.56742e-05
1.52677e-05
1.48814e-05
1.4514e-05
1.4164e-05
1.38303e-05
1.35118e-05
1.32074e-05
1.29163e-05
1.26376e-05
1.23706e-05
1.21145e-05
1.18688e-05
1.16327e-05
1.14057e-05
1.11874e-05
1.09772e-05
1.07746e-05
1.05794e-05
1.03911e-05
1.02094e-05
1.00338e-05
9.86417e-06
9.70015e-06
9.54147e-06
9.38788e-06
0.000117003
0.00010034
8.75447e-05
7.74577e-05
6.93326e-05
6.26669e-05
5.71116e-05
5.24185e-05
4.84066e-05
4.49413e-05
4.19208e-05
3.92666e-05
3.69172e-05
3.48242e-05
3.29486e-05
3.12588e-05
2.97291e-05
2.83381e-05
2.70682e-05
2.59044e-05
2.48342e-05
2.38469e-05
2.29334e-05
2.20859e-05
2.12975e-05
2.05624e-05
1.98754e-05
1.9232e-05
1.86283e-05
1.80606e-05
1.75261e-05
1.70217e-05
1.65452e-05
1.60943e-05
1.5667e-05
1.52614e-05
1.48762e-05
1.45096e-05
1.41605e-05
1.38276e-05
1.35099e-05
1.32063e-05
1.2916e-05
1.2638e-05
1.23717e-05
1.21163e-05
1.18712e-05
1.16357e-05
1.14094e-05
1.11917e-05
1.09822e-05
1.07804e-05
1.05859e-05
1.03984e-05
1.02174e-05
1.00427e-05
9.87383e-06
9.71061e-06
9.55265e-06
9.39938e-06
0.00011703
0.000100512
8.78383e-05
7.78696e-05
6.98584e-05
6.32964e-05
5.78337e-05
5.32231e-05
4.92849e-05
4.58855e-05
4.29241e-05
4.03231e-05
3.80221e-05
3.59731e-05
3.4138e-05
3.24857e-05
3.09908e-05
2.96325e-05
2.83934e-05
2.72589e-05
2.62167e-05
2.52564e-05
2.43689e-05
2.35468e-05
2.27833e-05
2.20727e-05
2.14099e-05
2.07906e-05
2.02108e-05
1.96671e-05
1.91564e-05
1.8676e-05
1.82235e-05
1.77967e-05
1.73935e-05
1.70123e-05
1.66515e-05
1.63095e-05
1.59852e-05
1.56772e-05
1.53847e-05
1.51064e-05
1.48416e-05
1.45895e-05
1.43492e-05
1.41202e-05
1.39016e-05
1.36931e-05
1.34939e-05
1.33034e-05
1.31214e-05
1.29472e-05
1.27805e-05
1.26209e-05
1.2468e-05
1.23215e-05
1.21809e-05
1.20456e-05
1.19141e-05
1.1773e-05
0.000201955
0.000185938
0.000172577
0.000161287
0.000151637
0.000143307
0.000136056
0.000129699
0.000124087
0.000119104
0.000114656
0.000110666
0.000107072
0.000103821
0.00010087
9.81817e-05
9.57256e-05
9.34751e-05
9.14075e-05
8.95033e-05
8.77455e-05
8.61194e-05
8.46122e-05
8.32126e-05
8.19106e-05
8.06974e-05
7.95652e-05
7.8507e-05
7.75167e-05
7.65887e-05
7.5718e-05
7.49e-05
7.41308e-05
7.34066e-05
7.2724e-05
7.20802e-05
7.14723e-05
7.08977e-05
7.03543e-05
6.98398e-05
6.93523e-05
6.889e-05
6.84514e-05
6.80348e-05
6.7639e-05
6.72625e-05
6.69043e-05
6.65631e-05
6.6238e-05
6.5928e-05
6.56323e-05
6.53499e-05
6.50801e-05
6.48223e-05
6.45757e-05
6.43397e-05
6.41137e-05
6.38972e-05
6.36897e-05
6.34907e-05
)
;

boundaryField
{
    wall
    {
        type            nutkWallFunction;
        Cmu             0.09;
        kappa           0.41;
        E               9.8;
        value           nonuniform List<scalar> 
1200
(
1.453e-05
1.35454e-05
1.35424e-05
1.35424e-05
1.35424e-05
1.35424e-05
1.35424e-05
1.35424e-05
1.35454e-05
1.45301e-05
1.34572e-05
1.17545e-05
1.17357e-05
1.174e-05
1.174e-05
1.174e-05
1.174e-05
1.17357e-05
1.17545e-05
1.34572e-05
1.25548e-05
1.03592e-05
1.03265e-05
1.03337e-05
1.0333e-05
1.0333e-05
1.03337e-05
1.03266e-05
1.03593e-05
1.25548e-05
1.17865e-05
9.24637e-06
9.19992e-06
9.20906e-06
9.20766e-06
9.20766e-06
9.20905e-06
9.19994e-06
9.24642e-06
1.17864e-05
1.11252e-05
8.34057e-06
8.2807e-06
8.29095e-06
8.28896e-06
8.28896e-06
8.29093e-06
8.28071e-06
8.34068e-06
1.11252e-05
1.05507e-05
7.5899e-06
7.51763e-06
7.52832e-06
7.52592e-06
7.52592e-06
7.52831e-06
7.51765e-06
7.59008e-06
1.05507e-05
1.00477e-05
6.95825e-06
6.87472e-06
6.8854e-06
6.88276e-06
6.88277e-06
6.88538e-06
6.87473e-06
6.95851e-06
1.00477e-05
9.60427e-06
6.41984e-06
6.32603e-06
6.33643e-06
6.3337e-06
6.33371e-06
6.33641e-06
6.32605e-06
6.42019e-06
9.60423e-06
9.21084e-06
5.95572e-06
5.85253e-06
5.86246e-06
5.85976e-06
5.85977e-06
5.86245e-06
5.85254e-06
5.95616e-06
9.2108e-06
8.85987e-06
5.55169e-06
5.43989e-06
5.44928e-06
5.44666e-06
5.44667e-06
5.44926e-06
5.43989e-06
5.5522e-06
8.85983e-06
8.54522e-06
5.19692e-06
5.07718e-06
5.08598e-06
5.0835e-06
5.08351e-06
5.08596e-06
5.07718e-06
5.19748e-06
8.54517e-06
8.26183e-06
4.88298e-06
4.75591e-06
4.76413e-06
4.7618e-06
4.76181e-06
4.76411e-06
4.75591e-06
4.8836e-06
8.26179e-06
8.00556e-06
4.60329e-06
4.46941e-06
4.47704e-06
4.47488e-06
4.47488e-06
4.47702e-06
4.46941e-06
4.60395e-06
8.00552e-06
7.77294e-06
4.35257e-06
4.21233e-06
4.2194e-06
4.21741e-06
4.21742e-06
4.21938e-06
4.21232e-06
4.35326e-06
7.77289e-06
7.56105e-06
4.12659e-06
3.98038e-06
3.98692e-06
3.98509e-06
3.9851e-06
3.9869e-06
3.98037e-06
4.12729e-06
7.56101e-06
7.36745e-06
3.92189e-06
3.77005e-06
3.77609e-06
3.77442e-06
3.77442e-06
3.77607e-06
3.77004e-06
3.92259e-06
7.36741e-06
7.19004e-06
3.73561e-06
3.57845e-06
3.58402e-06
3.5825e-06
3.5825e-06
3.584e-06
3.57843e-06
3.73632e-06
7.19e-06
7.02702e-06
3.56541e-06
3.40318e-06
3.40832e-06
3.40694e-06
3.40694e-06
3.4083e-06
3.40316e-06
3.56612e-06
7.02698e-06
6.87686e-06
3.40931e-06
3.24224e-06
3.24697e-06
3.24572e-06
3.24572e-06
3.24696e-06
3.24222e-06
3.41003e-06
6.87682e-06
6.73822e-06
3.26565e-06
3.09393e-06
3.09829e-06
3.09716e-06
3.09716e-06
3.09828e-06
3.09391e-06
3.26639e-06
6.73819e-06
6.60995e-06
3.13303e-06
2.95682e-06
2.96083e-06
2.95981e-06
2.95981e-06
2.96082e-06
2.9568e-06
3.1338e-06
6.60992e-06
6.49103e-06
3.01024e-06
2.82968e-06
2.83337e-06
2.83245e-06
2.83245e-06
2.83336e-06
2.82967e-06
3.01105e-06
6.491e-06
6.38057e-06
2.89626e-06
2.71146e-06
2.71485e-06
2.71402e-06
2.71401e-06
2.71484e-06
2.71144e-06
2.8971e-06
6.38055e-06
6.27779e-06
2.79019e-06
2.60125e-06
2.60436e-06
2.60361e-06
2.6036e-06
2.60435e-06
2.60123e-06
2.79107e-06
6.27777e-06
6.18201e-06
2.69127e-06
2.49825e-06
2.50109e-06
2.50042e-06
2.50041e-06
2.50109e-06
2.49823e-06
2.69219e-06
6.18199e-06
6.0926e-06
2.59881e-06
2.40177e-06
2.40437e-06
2.40377e-06
2.40376e-06
2.40436e-06
2.40175e-06
2.59976e-06
6.09258e-06
6.00902e-06
2.51223e-06
2.31121e-06
2.31359e-06
2.31304e-06
2.31303e-06
2.31358e-06
2.31119e-06
2.51321e-06
6.009e-06
5.93078e-06
2.43102e-06
2.22603e-06
2.2282e-06
2.22771e-06
2.2277e-06
2.22819e-06
2.22601e-06
2.43201e-06
5.93077e-06
5.85745e-06
2.35472e-06
2.14577e-06
2.14774e-06
2.1473e-06
2.1473e-06
2.14773e-06
2.14575e-06
2.3557e-06
5.85744e-06
5.78863e-06
2.28291e-06
2.07001e-06
2.07179e-06
2.0714e-06
2.0714e-06
2.07178e-06
2.06999e-06
2.28389e-06
5.78863e-06
5.72398e-06
2.21523e-06
1.99838e-06
1.99998e-06
1.99964e-06
1.99963e-06
1.99997e-06
1.99836e-06
2.2162e-06
5.72397e-06
5.66316e-06
2.15136e-06
1.93054e-06
1.93197e-06
1.93167e-06
1.93166e-06
1.93197e-06
1.93052e-06
2.15231e-06
5.66315e-06
5.6059e-06
2.09101e-06
1.86621e-06
1.86748e-06
1.86721e-06
1.8672e-06
1.86747e-06
1.86618e-06
2.09194e-06
5.60589e-06
5.55192e-06
2.03391e-06
1.8051e-06
1.80622e-06
1.80598e-06
1.80597e-06
1.80621e-06
1.80508e-06
2.03482e-06
5.55192e-06
5.501e-06
1.97982e-06
1.74699e-06
1.74796e-06
1.74776e-06
1.74775e-06
1.74796e-06
1.74696e-06
1.98072e-06
5.501e-06
5.45291e-06
1.92854e-06
1.69166e-06
1.69249e-06
1.69231e-06
1.6923e-06
1.69248e-06
1.69162e-06
1.92943e-06
5.45291e-06
5.40746e-06
1.87985e-06
1.63892e-06
1.6396e-06
1.63944e-06
1.63943e-06
1.63959e-06
1.63886e-06
1.88075e-06
5.40746e-06
5.36447e-06
1.83359e-06
1.58858e-06
1.58911e-06
1.58898e-06
1.58897e-06
1.58911e-06
1.5885e-06
1.83451e-06
5.36446e-06
5.32376e-06
1.7896e-06
1.54049e-06
1.54087e-06
1.54076e-06
1.54075e-06
1.54087e-06
1.54038e-06
1.79055e-06
5.32375e-06
5.28519e-06
1.74772e-06
1.49451e-06
1.49473e-06
1.49464e-06
1.49463e-06
1.49473e-06
1.49436e-06
1.74873e-06
5.28518e-06
5.24861e-06
1.70782e-06
1.45048e-06
1.45054e-06
1.45047e-06
1.45046e-06
1.45054e-06
1.45028e-06
1.70891e-06
5.2486e-06
5.2139e-06
1.66979e-06
1.4083e-06
1.4082e-06
1.40814e-06
1.40813e-06
1.4082e-06
1.40804e-06
1.67096e-06
5.21389e-06
5.18094e-06
1.6335e-06
1.36784e-06
1.36757e-06
1.36753e-06
1.36752e-06
1.36757e-06
1.36752e-06
1.63477e-06
5.18093e-06
5.14961e-06
1.59885e-06
1.32901e-06
1.32857e-06
1.32854e-06
1.32853e-06
1.32857e-06
1.32862e-06
1.60024e-06
5.1496e-06
5.11982e-06
1.56575e-06
1.2917e-06
1.29109e-06
1.29107e-06
1.29106e-06
1.29108e-06
1.29123e-06
1.56726e-06
5.11981e-06
5.09148e-06
1.5341e-06
1.25583e-06
1.25504e-06
1.25503e-06
1.25502e-06
1.25503e-06
1.25528e-06
1.53575e-06
5.09146e-06
5.06448e-06
1.50383e-06
1.22131e-06
1.22034e-06
1.22034e-06
1.22033e-06
1.22033e-06
1.22068e-06
1.50562e-06
5.06447e-06
5.03876e-06
1.47486e-06
1.18808e-06
1.18692e-06
1.18693e-06
1.18692e-06
1.18691e-06
1.18736e-06
1.4768e-06
5.03874e-06
5.01424e-06
1.44711e-06
1.15605e-06
1.1547e-06
1.15472e-06
1.15471e-06
1.1547e-06
1.15525e-06
1.4492e-06
5.01422e-06
4.99085e-06
1.42054e-06
1.12517e-06
1.12363e-06
1.12365e-06
1.12365e-06
1.12362e-06
1.12429e-06
1.42278e-06
4.99082e-06
4.96851e-06
1.39507e-06
1.09537e-06
1.09364e-06
1.09367e-06
1.09366e-06
1.09363e-06
1.0944e-06
1.39746e-06
4.96848e-06
4.94718e-06
1.37064e-06
1.0666e-06
1.06467e-06
1.0647e-06
1.0647e-06
1.06466e-06
1.06555e-06
1.3732e-06
4.94714e-06
4.92679e-06
1.34721e-06
1.03881e-06
1.03667e-06
1.03671e-06
1.0367e-06
1.03666e-06
1.03767e-06
1.34992e-06
4.92675e-06
4.90729e-06
1.32472e-06
1.01195e-06
1.0096e-06
1.00964e-06
1.00964e-06
1.00958e-06
1.01072e-06
1.32759e-06
4.90724e-06
4.88864e-06
1.30312e-06
9.85963e-07
9.83405e-07
9.83452e-07
9.83443e-07
9.83387e-07
9.84643e-07
1.30616e-06
4.88858e-06
4.87078e-06
1.28236e-06
9.60818e-07
9.58045e-07
9.58094e-07
9.58085e-07
9.58025e-07
9.59407e-07
1.28557e-06
4.87072e-06
4.85367e-06
1.2624e-06
9.36473e-07
9.3348e-07
9.33531e-07
9.33522e-07
9.33458e-07
9.34968e-07
1.26577e-06
4.8536e-06
4.83728e-06
1.24315e-06
9.12885e-07
9.09673e-07
9.09726e-07
9.09716e-07
9.09649e-07
9.11284e-07
1.24667e-06
4.8372e-06
4.82156e-06
1.22442e-06
8.9001e-07
8.86589e-07
8.86642e-07
8.86633e-07
8.86562e-07
8.88308e-07
1.22806e-06
4.82147e-06
4.80647e-06
1.20435e-06
8.67759e-07
8.64195e-07
8.64249e-07
8.64239e-07
8.64165e-07
8.65963e-07
1.20808e-06
4.80638e-06
1.45301e-05
1.35454e-05
1.35424e-05
1.35424e-05
1.35424e-05
1.35424e-05
1.35424e-05
1.35424e-05
1.35454e-05
1.45301e-05
1.34572e-05
1.17545e-05
1.17357e-05
1.174e-05
1.174e-05
1.174e-05
1.174e-05
1.17357e-05
1.17545e-05
1.34572e-05
1.25548e-05
1.03591e-05
1.03266e-05
1.03337e-05
1.0333e-05
1.0333e-05
1.03337e-05
1.03266e-05
1.03591e-05
1.25548e-05
1.17864e-05
9.24612e-06
9.19994e-06
9.20905e-06
9.20765e-06
9.20765e-06
9.20905e-06
9.19995e-06
9.24625e-06
1.17864e-05
1.11251e-05
8.34036e-06
8.28071e-06
8.29094e-06
8.28896e-06
8.28896e-06
8.29094e-06
8.28072e-06
8.34055e-06
1.11251e-05
1.05507e-05
7.58981e-06
7.51764e-06
7.52832e-06
7.52592e-06
7.52592e-06
7.52831e-06
7.51765e-06
7.59009e-06
1.05507e-05
1.00477e-05
6.95829e-06
6.87472e-06
6.88539e-06
6.88276e-06
6.88277e-06
6.88537e-06
6.87473e-06
6.95869e-06
1.00477e-05
9.60421e-06
6.42e-06
6.32603e-06
6.33642e-06
6.3337e-06
6.33371e-06
6.3364e-06
6.32604e-06
6.4205e-06
9.6042e-06
9.21079e-06
5.95597e-06
5.85252e-06
5.86245e-06
5.85975e-06
5.85976e-06
5.86244e-06
5.85253e-06
5.95656e-06
9.21078e-06
8.85982e-06
5.55197e-06
5.43987e-06
5.44926e-06
5.44665e-06
5.44666e-06
5.44925e-06
5.43988e-06
5.55267e-06
8.85981e-06
8.54517e-06
5.19718e-06
5.07716e-06
5.08597e-06
5.08349e-06
5.0835e-06
5.08595e-06
5.07717e-06
5.19798e-06
8.54516e-06
8.26179e-06
4.8832e-06
4.7559e-06
4.76411e-06
4.76178e-06
4.76179e-06
4.76409e-06
4.7559e-06
4.88408e-06
8.26178e-06
8.00552e-06
4.60342e-06
4.46939e-06
4.47702e-06
4.47486e-06
4.47487e-06
4.47701e-06
4.46939e-06
4.60439e-06
8.00552e-06
7.7729e-06
4.3526e-06
4.21231e-06
4.21939e-06
4.21739e-06
4.2174e-06
4.21937e-06
4.21231e-06
4.35365e-06
7.7729e-06
7.56102e-06
4.1265e-06
3.98036e-06
3.9869e-06
3.98508e-06
3.98508e-06
3.98689e-06
3.98036e-06
4.12763e-06
7.56101e-06
7.36742e-06
3.92168e-06
3.77002e-06
3.77607e-06
3.7744e-06
3.77441e-06
3.77606e-06
3.77002e-06
3.92287e-06
7.36741e-06
7.19001e-06
3.7353e-06
3.57842e-06
3.58401e-06
3.58248e-06
3.58249e-06
3.58399e-06
3.57842e-06
3.73654e-06
7.19e-06
7.02699e-06
3.56503e-06
3.40315e-06
3.4083e-06
3.40692e-06
3.40692e-06
3.40829e-06
3.40315e-06
3.56629e-06
7.02698e-06
6.87683e-06
3.4089e-06
3.24221e-06
3.24696e-06
3.2457e-06
3.24571e-06
3.24695e-06
3.24221e-06
3.41014e-06
6.87683e-06
6.73819e-06
3.26524e-06
3.0939e-06
3.09828e-06
3.09714e-06
3.09714e-06
3.09827e-06
3.0939e-06
3.26644e-06
6.73819e-06
6.60992e-06
3.13266e-06
2.95679e-06
2.96082e-06
2.95979e-06
2.9598e-06
2.96081e-06
2.95679e-06
3.13379e-06
6.60992e-06
6.491e-06
3.00995e-06
2.82966e-06
2.83336e-06
2.83243e-06
2.83243e-06
2.83335e-06
2.82966e-06
3.01097e-06
6.491e-06
6.38054e-06
2.89608e-06
2.71144e-06
2.71484e-06
2.714e-06
2.714e-06
2.71483e-06
2.71144e-06
2.89696e-06
6.38054e-06
6.27777e-06
2.79015e-06
2.60122e-06
2.60435e-06
2.60359e-06
2.60359e-06
2.60434e-06
2.60122e-06
2.79088e-06
6.27777e-06
6.18198e-06
2.69137e-06
2.49822e-06
2.50109e-06
2.5004e-06
2.5004e-06
2.50108e-06
2.49822e-06
2.69195e-06
6.18198e-06
6.09257e-06
2.59907e-06
2.40174e-06
2.40436e-06
2.40375e-06
2.40375e-06
2.40436e-06
2.40174e-06
2.5995e-06
6.09258e-06
6.009e-06
2.51266e-06
2.31118e-06
2.31358e-06
2.31303e-06
2.31303e-06
2.31357e-06
2.31118e-06
2.51293e-06
6.009e-06
5.93076e-06
2.43159e-06
2.22601e-06
2.22819e-06
2.2277e-06
2.2277e-06
2.22818e-06
2.22601e-06
2.43174e-06
5.93076e-06
5.85743e-06
2.35542e-06
2.14575e-06
2.14773e-06
2.14729e-06
2.14729e-06
2.14772e-06
2.14575e-06
2.35545e-06
5.85743e-06
5.78862e-06
2.28373e-06
2.06999e-06
2.07178e-06
2.07139e-06
2.07139e-06
2.07178e-06
2.06999e-06
2.28365e-06
5.78861e-06
5.72396e-06
2.21616e-06
1.99835e-06
1.99997e-06
1.99962e-06
1.99962e-06
1.99997e-06
1.99835e-06
2.21598e-06
5.72396e-06
5.66315e-06
2.15238e-06
1.93052e-06
1.93196e-06
1.93165e-06
1.93165e-06
1.93196e-06
1.93052e-06
2.15211e-06
5.66314e-06
5.60588e-06
2.09211e-06
1.86618e-06
1.86747e-06
1.86719e-06
1.86719e-06
1.86746e-06
1.86618e-06
2.09176e-06
5.60588e-06
5.55191e-06
2.03508e-06
1.80508e-06
1.80621e-06
1.80597e-06
1.80597e-06
1.80621e-06
1.80507e-06
2.03465e-06
5.5519e-06
5.50099e-06
1.98104e-06
1.74697e-06
1.74795e-06
1.74774e-06
1.74774e-06
1.74795e-06
1.74696e-06
1.98055e-06
5.50098e-06
5.4529e-06
1.9298e-06
1.69164e-06
1.69247e-06
1.69229e-06
1.69229e-06
1.69247e-06
1.69162e-06
1.92925e-06
5.45289e-06
5.40745e-06
1.88116e-06
1.63891e-06
1.63958e-06
1.63943e-06
1.63942e-06
1.63958e-06
1.63886e-06
1.88054e-06
5.40744e-06
5.36446e-06
1.83494e-06
1.58858e-06
1.5891e-06
1.58897e-06
1.58896e-06
1.5891e-06
1.5885e-06
1.83427e-06
5.36444e-06
5.32375e-06
1.79098e-06
1.54049e-06
1.54086e-06
1.54075e-06
1.54074e-06
1.54086e-06
1.54038e-06
1.79026e-06
5.32373e-06
5.28518e-06
1.74914e-06
1.49451e-06
1.49472e-06
1.49462e-06
1.49462e-06
1.49472e-06
1.49435e-06
1.74836e-06
5.28515e-06
5.2486e-06
1.70928e-06
1.45049e-06
1.45053e-06
1.45046e-06
1.45045e-06
1.45053e-06
1.45028e-06
1.70845e-06
5.24857e-06
5.21389e-06
1.67128e-06
1.40831e-06
1.40818e-06
1.40812e-06
1.40812e-06
1.40819e-06
1.40804e-06
1.67041e-06
5.21386e-06
5.18093e-06
1.63504e-06
1.36785e-06
1.36756e-06
1.36751e-06
1.36751e-06
1.36756e-06
1.36752e-06
1.63412e-06
5.1809e-06
5.14961e-06
1.60044e-06
1.32902e-06
1.32855e-06
1.32852e-06
1.32852e-06
1.32856e-06
1.32861e-06
1.59949e-06
5.14957e-06
5.11982e-06
1.5674e-06
1.29171e-06
1.29107e-06
1.29105e-06
1.29105e-06
1.29107e-06
1.29122e-06
1.56641e-06
5.11977e-06
5.09147e-06
1.53582e-06
1.25584e-06
1.25502e-06
1.25501e-06
1.25501e-06
1.25502e-06
1.25527e-06
1.53481e-06
5.09142e-06
5.06448e-06
1.50562e-06
1.22133e-06
1.22032e-06
1.22032e-06
1.22032e-06
1.22032e-06
1.22066e-06
1.5046e-06
5.06442e-06
5.03876e-06
1.47673e-06
1.18809e-06
1.1869e-06
1.18691e-06
1.18691e-06
1.1869e-06
1.18733e-06
1.4757e-06
5.0387e-06
5.01424e-06
1.44908e-06
1.15607e-06
1.15469e-06
1.1547e-06
1.1547e-06
1.15469e-06
1.15521e-06
1.44805e-06
5.01417e-06
4.99085e-06
1.42259e-06
1.12519e-06
1.12361e-06
1.12364e-06
1.12363e-06
1.12361e-06
1.12423e-06
1.42156e-06
4.99077e-06
4.96851e-06
1.39721e-06
1.0954e-06
1.09362e-06
1.09365e-06
1.09365e-06
1.09362e-06
1.09434e-06
1.39619e-06
4.96843e-06
4.94718e-06
1.37287e-06
1.06664e-06
1.06465e-06
1.06469e-06
1.06468e-06
1.06465e-06
1.06547e-06
1.37188e-06
4.94709e-06
4.9268e-06
1.34953e-06
1.03885e-06
1.03665e-06
1.03669e-06
1.03669e-06
1.03665e-06
1.03758e-06
1.34856e-06
4.92669e-06
4.9073e-06
1.32715e-06
1.01199e-06
1.00958e-06
1.00962e-06
1.00962e-06
1.00957e-06
1.01062e-06
1.32621e-06
4.90719e-06
4.88865e-06
1.30566e-06
9.8601e-07
9.83383e-07
9.83431e-07
9.83427e-07
9.83374e-07
9.84535e-07
1.30476e-06
4.88852e-06
4.87079e-06
1.28503e-06
9.60872e-07
9.58022e-07
9.58073e-07
9.58069e-07
9.58012e-07
9.59291e-07
1.28417e-06
4.87065e-06
4.85368e-06
1.26519e-06
9.36533e-07
9.33457e-07
9.33509e-07
9.33505e-07
9.33444e-07
9.34844e-07
1.26438e-06
4.85353e-06
4.83729e-06
1.24605e-06
9.12952e-07
9.09649e-07
9.09703e-07
9.09698e-07
9.09634e-07
9.11154e-07
1.2453e-06
4.83713e-06
4.82158e-06
1.22743e-06
8.90083e-07
8.86564e-07
8.86619e-07
8.86614e-07
8.86546e-07
8.88174e-07
1.22673e-06
4.8214e-06
4.80649e-06
1.20746e-06
8.67836e-07
8.64169e-07
8.64224e-07
8.64219e-07
8.64149e-07
8.65827e-07
1.20678e-06
4.80631e-06
)
;
    }
    inlet
    {
        type            calculated;
        value           uniform 0.00952565;
    }
    outlet
    {
        type            calculated;
        value           nonuniform List<scalar> 
20
(
6.34929e-05
1.17558e-05
9.41262e-06
9.3882e-06
9.38857e-06
9.3885e-06
9.38799e-06
9.40031e-06
1.17822e-05
6.34916e-05
6.34932e-05
1.17778e-05
9.41314e-06
9.38802e-06
9.3884e-06
9.38836e-06
9.38788e-06
9.39938e-06
1.1773e-05
6.34907e-05
)
;
    }
    heatWall
    {
        type            nutkWallFunction;
        Cmu             0.09;