/*--------------------------------*- C++ -*----------------------------------*\
  =========                 |
  \\      /  F ield         | OpenFOAM: The Open Source CFD Toolbox
   \\    /   O peration     | Website:  https://openfoam.org
    \\  /    A nd           | Version:  8
     \\/     M anipulation  |
\*---------------------------------------------------------------------------*/
FoamFile
{
    version     2.0;
    format      ascii;
    class       surfaceScalarField;
    location    "300";
    object      phi;
}
// * * * * * * * * * * * * * * * * * * * * * * * * * * * * * * * * * * * * * //

dimensions      [1 0 -1 0 0 0 0];

internalField   nonuniform List<scalar> 
2860
(
0.400784
-0.00187044
0.00128779
0.400715
0.00138155
0.00223706
0.400711
0.00140196
0.00354813
0.400369
0.00169594
0.00381834
0.399825
0.00179771
0.00312066
0.399226
0.00174606
0.00257611
0.398619
0.00165106
0.00240884
0.398013
0.00155009
0.00222679
0.397411
0.00145259
0.0020586
0.396819
0.00136206
0.00215969
0.396237
0.0012773
0.00230035
0.395663
0.00119865
0.00228908
0.395098
0.00112719
0.00222203
0.394542
0.00106171
0.00213569
0.393995
0.00100178
0.00206282
0.393456
0.000947205
0.00196039
0.392926
0.000896461
0.00174059
0.392403
0.000849421
0.00147378
0.391888
0.000806661
0.00123347
0.391381
0.000767867
0.000985673
0.39088
0.000732016
0.000674226
0.390386
0.000698695
0.000338687
0.389899
0.000668594
6.39108e-05
0.389419
0.000641597
-0.000185313
0.388944
0.000616659
-0.000452264
0.388476
0.000593726
-0.000681648
0.388013
0.0005732
-0.000860384
0.387556
0.000554697
-0.00102849
0.387104
0.000537691
-0.00118023
0.386657
0.000522103
-0.00130208
0.386216
0.000507832
-0.00140865
0.385779
0.000494712
-0.00149886
0.385347
0.00048272
-0.00156417
0.384919
0.000471662
-0.00161844
0.384496
0.00046123
-0.00168037
0.384077
0.000451563
-0.00175499
0.383662
0.00044257
-0.0018253
0.383251
0.000434107
-0.00187466
0.382844
0.00042627
-0.00191564
0.382441
0.000419051
-0.00195888
0.382042
0.000412142
-0.00200075
0.381646
0.000405641
-0.00204644
0.381253
0.000399503
-0.00211173
0.380864
0.000393607
-0.00219532
0.380478
0.000388232
-0.00226235
0.380095
0.000383075
-0.00231247
0.379716
0.000378167
-0.00236349
0.379339
0.00037358
-0.00243593
0.378965
0.000369062
-0.00252081
0.378594
0.000365225
-0.00256721
0.378226
0.000361526
-0.00262259
0.37786
0.000357871
-0.00267056
0.377497
0.000354516
-0.00271905
0.377136
0.000350995
-0.00280966
0.376778
0.000347592
-0.00289897
0.376422
0.000344382
-0.00295168
0.37607
0.00034096
-0.00295543
0.375723
0.000334994
-0.00298533
0.37539
0.0003211
-0.00303414
0.000217927
-0.00303798
0.398246
-0.0031591
0.000466056
0.398237
-3.61302e-05
0.00117189
0.39804
-4.11785e-05
0.00214588
0.398049
-2.96727e-05
0.00261974
0.398123
-3.80202e-06
0.00254877
0.398225
-5.37767e-05
0.00250205
0.398344
-0.000114159
0.00256659
0.398467
-0.000158345
0.00254566
0.398585
-0.000186401
0.00249403
0.398699
-0.00020201
0.00262761
0.398807
-0.00021034
0.00282856
0.398907
-0.000213796
0.00295257
0.399
-0.000212852
0.00305103
0.399087
-0.00020917
0.00317266
0.399168
-0.000203073
0.00334444
0.399243
-0.000195422
0.00351281
0.399314
-0.000187982
0.00361934
0.39938
-0.000180284
0.00372334
0.399443
-0.000171308
0.00385857
0.399502
-0.000161704
0.00397852
0.399558
-0.000152622
0.00404141
0.399611
-0.000144006
0.00408727
0.399662
-0.000134565
0.0041655
0.39971
-0.000124283
0.00422772
0.399756
-0.000114256
0.00425355
0.399801
-0.000104231
0.00429773
0.399844
-9.35106e-05
0.00435654
0.399885
-8.25382e-05
0.00439664
0.399925
-7.1753e-05
0.00443732
0.399964
-6.09546e-05
0.00449433
0.400001
-5.01682e-05
0.00455583
0.400038
-3.95548e-05
0.0046257
0.400074
-2.90009e-05
0.00471054
0.400109
-1.86122e-05
0.00480174
0.400143
-8.72235e-06
0.00489137
0.400177
7.24169e-07
0.00497272
0.40021
9.87427e-06
0.00505635
0.400243
1.86875e-05
0.00516129
0.400276
2.73841e-05
0.00527145
0.400308
3.59171e-05
0.00537495
0.400339
4.39468e-05
0.0054836
0.400371
5.17084e-05
0.00558882
0.400403
5.91101e-05
0.00567596
0.400434
6.60052e-05
0.00574824
0.400464
7.2857e-05
0.00582822
0.400495
7.93799e-05
0.00592617
0.400526
8.56958e-05
0.00602495
0.400557
9.18427e-05
0.0061018
0.400587
9.75993e-05
0.00617224
0.400618
0.000103662
0.0062641
0.400648
0.000109242
0.00634666
0.400678
0.000114683
0.00643989
0.400708
0.000120025
0.00653052
0.400738
0.000124534
0.00659052
0.400768
0.000128915
0.00665055
0.400798
0.000133196
0.00673906
0.400829
0.000136762
0.00686484
0.40086
0.000136338
0.00696851
0.400897
0.000123893
0.00705191
5.12633e-05
0.00715416
0.396068
-0.000920622
0.000402742
0.396272
0.000524111
0.00102697
0.396444
0.000789771
0.00221758
0.396754
0.000815481
0.00357498
0.39712
0.000870469
0.00465072
0.397471
0.000873921
0.00545388
0.397793
0.000846572
0.00605705
0.398085
0.00081586
0.00640214
0.398348
0.000786326
0.00650447
0.398586
0.00075708
0.00659303
0.398803
0.000728271
0.00667377
0.398999
0.000699496
0.00664865
0.399179
0.000671025
0.00655215
0.399344
0.000643763
0.00646642
0.399496
0.000617808
0.00642766
0.399637
0.00059235
0.0063941
0.399769
0.000566888
0.006354
0.399892
0.000542686
0.00635225
0.400008
0.000520406
0.00638347
0.400117
0.000499052
0.00640901
0.400221
0.000477966
0.00641672
0.400321
0.000457721
0.00644464
0.400416
0.000439183
0.00649606
0.400508
0.000422149
0.00650738
0.400596
0.000405983
0.00648709
0.400682
0.000391055
0.00648526
0.400766
0.000377725
0.00647396
0.400848
0.000365479
0.00642902
0.400928
0.000354137
0.00638438
0.401006
0.000344032
0.00635223
0.401083
0.000335009
0.00632241
0.40116
0.000326733
0.00630414
0.401235
0.00031926
0.00630011
0.40131
0.000312532
0.00630509
0.401384
0.000306225
0.00632301
0.401458
0.000300123
0.00634627
0.401532
0.000294392
0.00638088
0.401605
0.00028907
0.00644734
0.401679
0.000284284
0.0065227
0.401752
0.000279786
0.00659567
0.401825
0.000275348
0.00668805
0.401899
0.000271189
0.00678366
0.401972
0.000267084
0.00687098
0.402046
0.000262849
0.0069577
0.40212
0.000258869
0.00705001
0.402194
0.000255052
0.00716687
0.402269
0.000251505
0.00728873
0.402343
0.000248126
0.00739086
0.402419
0.0002448
0.00749553
0.402494
0.000241836
0.00760693
0.402569
0.000238582
0.0077176
0.402645
0.000235798
0.00784039
0.402722
0.000233164
0.00795931
0.402798
0.000229912
0.00807001
0.402875
0.000226881
0.00818074
0.402952
0.000224089
0.0083096
0.40303
0.000220945
0.0084638
0.403107
0.00021495
0.00860353
0.403178
0.000202191
0.00871902
0.000166808
0.00883855
0.397419
-0.000488647
0.000298093
0.397743
1.99125e-05
0.000251429
0.398073
0.000137969
0.000405579
0.398352
9.90013e-05
0.000846294
0.39861
9.20655e-05
0.00131216
0.398832
6.97998e-05
0.00154484
0.39902
3.64745e-05
0.00167644
0.399185
6.53097e-06
0.00168812
0.399332
-1.88845e-05
0.00152712
0.399468
-3.86763e-05
0.00136753
0.399594
-5.33226e-05
0.00122325
0.399713
-6.54481e-05
0.00103273
0.399825
-7.53927e-05
0.000827833
0.399931
-8.21442e-05
0.000663238
0.400034
-8.67277e-05
0.00056318
0.400132
-9.07265e-05
0.00051368
0.400226
-9.41329e-05
0.000525519
0.400318
-9.59658e-05
0.00059739
0.400407
-9.62939e-05
0.000691905
0.400494
-9.63487e-05
0.000803114
0.400578
-9.63366e-05
0.000944776
0.400661
-9.55594e-05
0.00113491
0.400743
-9.40048e-05
0.00134151
0.400823
-9.23542e-05
0.00150067
0.400901
-9.0682e-05
0.00163697
0.400979
-8.84886e-05
0.00178495
0.401055
-8.59762e-05
0.0019006
0.401131
-8.36943e-05
0.00197146
0.401206
-8.13661e-05
0.00203332
0.401281
-7.85121e-05
0.00208389
0.401354
-7.53706e-05
0.00211446
0.401428
-7.22599e-05
0.00214277
0.401501
-6.90751e-05
0.00216761
0.401574
-6.57506e-05
0.00218309
0.401647
-6.24466e-05
0.00220129
0.40172
-5.93021e-05
0.0022171
0.401793
-5.62744e-05
0.00223637
0.401866
-5.30797e-05
0.00227758
0.401939
-4.9714e-05
0.00231374
0.402012
-4.65369e-05
0.00234131
0.402085
-4.34835e-05
0.00238917
0.402158
-4.03928e-05
0.00243371
0.402232
-3.75506e-05
0.00247127
0.402306
-3.50516e-05
0.00251631
0.402381
-3.26999e-05
0.00256161
0.402455
-3.0353e-05
0.00262811
0.40253
-2.78759e-05
0.00269313
0.402606
-2.55558e-05
0.00273494
0.402682
-2.34307e-05
0.00277875
0.402758
-2.14068e-05
0.00281765
0.402834
-1.98125e-05
0.00286716
0.402911
-1.7881e-05
0.00291685
0.402988
-1.60671e-05
0.00295613
0.403066
-1.48069e-05
0.00300765
0.403144
-1.35538e-05
0.00305267
0.403222
-1.23102e-05
0.00309951
0.4033
-1.12043e-05
0.00315577
0.403377
-1.18442e-05
0.00320117
0.403449
-1.66833e-05
0.00321075
-3.4206e-05
0.0032157
0.397419
-5.75794e-07
0.000273208
0.397464
-1.81717e-06
0.000119004
0.397663
-4.36485e-06
0.000195952
0.397864
-4.95999e-06
0.000713417
0.398098
-4.41906e-06
0.00151062
0.398343
-6.30893e-06
0.00219138
0.39858
-5.6224e-06
0.00274234
0.398804
-5.99917e-06
0.00309363
0.399013
-9.18272e-06
0.00317962
0.399207
-1.12413e-05
0.00312186
0.399387
-1.28961e-05
0.00295515
0.399552
-1.57948e-05
0.00270735
0.399706
-1.89993e-05
0.00243211
0.399849
-2.12346e-05
0.00214976
0.399983
-2.3274e-05
0.00191244
0.400108
-2.53228e-05
0.00175801
0.400226
-2.68485e-05
0.00170033
0.400338
-2.77046e-05
0.0016974
0.400444
-2.81489e-05
0.00170016
0.400545
-2.86016e-05
0.00173822
0.400642
-2.88132e-05
0.00183313
0.400735
-2.83726e-05
0.00197441
0.400826
-2.78393e-05
0.00212138
0.400913
-2.79518e-05
0.00222869
0.400999
-2.83449e-05
0.0023225
0.401082
-2.84774e-05
0.00241856
0.401163
-2.88694e-05
0.00247742
0.401243
-2.99408e-05
0.00250574
0.401321
-3.10861e-05
0.00253074
0.401398
-3.18534e-05
0.00253156
0.401474
-3.25056e-05
0.00250511
0.40155
-3.31925e-05
0.00248044
0.401625
-3.37774e-05
0.00245374
0.401699
-3.41774e-05
0.00241604
0.401773
-3.43612e-05
0.00238387
0.401846
-3.44826e-05
0.0023584
0.40192
-3.46308e-05
0.00234531
0.401993
-3.4392e-05
0.00235307
0.402067
-3.39398e-05
0.00235297
0.40214
-3.36704e-05
0.00235292
0.402214
-3.32674e-05
0.00238002
0.402287
-3.27434e-05
0.00240451
0.402361
-3.23339e-05
0.00243201
0.402435
-3.19644e-05
0.00248136
0.40251
-3.17357e-05
0.00253871
0.402584
-3.13739e-05
0.00261934
0.40266
-3.07744e-05
0.00269548
0.402735
-3.0377e-05
0.00275373
0.402811
-3.0214e-05
0.0028208
0.402887
-3.01299e-05
0.00288645
0.402963
-3.01014e-05
0.0029792
0.40304
-2.99824e-05
0.00306421
0.403117
-3.0008e-05
0.00313997
0.403195
-3.00839e-05
0.00324637
0.403273
-3.02156e-05
0.00334819
0.403351
-3.03969e-05
0.00344819
0.403428
-3.03142e-05
0.003548
0.403504
-3.01415e-05
0.00364324
0.403573
-2.97107e-05
0.00369684
-2.85858e-05
0.0037267
0.397419
0.000487152
0.000233597
0.397464
-2.36983e-05
4.94712e-05
0.397664
-0.00014629
0.000122051
0.397865
-0.00010986
0.00053836
0.398099
-0.000104391
0.00114029
0.398345
-8.42293e-05
0.00168596
0.398582
-5.09808e-05
0.00202772
0.398806
-2.29171e-05
0.00218078
0.399015
-2.6379e-06
0.00217326
0.399208
1.35401e-05
0.00200443
0.399387
2.50463e-05
0.00170709
0.399553
3.24506e-05
0.00137902
0.399706
3.70826e-05
0.00105748
0.399849
3.96674e-05
0.00071849
0.399982
4.07887e-05
0.000436084
0.400106
4.17979e-05
0.000262607
0.400224
4.31273e-05
0.000196531
0.400336
4.40897e-05
0.000186816
0.400441
4.43756e-05
0.000189829
0.400543
4.44352e-05
0.000247012
0.400639
4.46428e-05
0.000368168
0.400733
4.4836e-05
0.000522405
0.400823
4.44239e-05
0.000682655
0.400911
4.29206e-05
0.000830301
0.400996
4.07413e-05
0.000980892
0.401079
3.83917e-05
0.00112945
0.40116
3.53994e-05
0.00125327
0.401239
3.15794e-05
0.00137667
0.401318
2.75654e-05
0.00150807
0.401395
2.35848e-05
0.00160819
0.401471
1.94635e-05
0.00168012
0.401547
1.5354e-05
0.00175845
0.401622
1.13578e-05
0.00183491
0.401696
7.4356e-06
0.00189553
0.40177
3.75763e-06
0.00195292
0.401844
2.02835e-07
0.00201125
0.401918
-3.30048e-06
0.00207532
0.401991
-6.34301e-06
0.00213881
0.402065
-9.23525e-06
0.00217621
0.402138
-1.22677e-05
0.00220778
0.402212
-1.49461e-05
0.00225107
0.402286
-1.74799e-05
0.00227605
0.40236
-1.99684e-05
0.00229647
0.402434
-2.22708e-05
0.00233158
0.402509
-2.46762e-05
0.00237131
0.402584
-2.68011e-05
0.00242298
0.402659
-2.86996e-05
0.00245558
0.402734
-3.08017e-05
0.00246918
0.40281
-3.30883e-05
0.00249271
0.402886
-3.53147e-05
0.00251138
0.402963
-3.7173e-05
0.00255373
0.403039
-3.92032e-05
0.00258032
0.403117
-4.13694e-05
0.00259652
0.403194
-4.31456e-05
0.00264076
0.403272
-4.49128e-05
0.0026788
0.40335
-4.67108e-05
0.00271434
0.403428
-4.78815e-05
0.00274002
0.403504
-4.7033e-05
0.00275981
0.403573
-4.13124e-05
0.00273523
-2.16522e-05
0.00267772
0.397418
0.00091868
0.00019156
0.397741
-0.000526378
7.60628e-05
0.398071
-0.000792085
0.0003294
0.39835
-0.000823768
0.000742053
0.398608
-0.000885784
0.00102434
0.39883
-0.000890362
0.00112481
0.399018
-0.000866421
0.00101881
0.399182
-0.000840617
0.000888407
0.39933
-0.000814513
0.000799625
0.399466
-0.00078765
0.000656129
0.399593
-0.00076155
0.00047779
0.399711
-0.000736621
0.000345486
0.399824
-0.00071263
0.000244834
0.399931
-0.000690193
0.000128285
0.400033
-0.00066851
5.50533e-05
0.400132
-0.000646098
3.1931e-05
0.400227
-0.000623217
4.24667e-05
0.400319
-0.000601065
6.65576e-05
0.400408
-0.000580255
8.49518e-05
0.400495
-0.000560103
0.000130252
0.40058
-0.000540367
0.000200963
0.400662
-0.000521606
0.000276105
0.400744
-0.000504018
0.000356268
0.400823
-0.000487833
0.000447424
0.400902
-0.000472898
0.000555171
0.400979
-0.000458882
0.000660586
0.401055
-0.000446017
0.000759382
0.401131
-0.000434307
0.000884972
0.401206
-0.000423412
0.00102521
0.40128
-0.00041348
0.00113237
0.401354
-0.000404527
0.00121574
0.401427
-0.000396089
0.00130593
0.4015
-0.000388179
0.00139126
0.401573
-0.000380997
0.00145869
0.401646
-0.000374258
0.00151495
0.401719
-0.00036803
0.00156804
0.401791
-0.000362314
0.00162546
0.401864
-0.000356746
0.00166796
0.401937
-0.000351691
0.00168015
0.40201
-0.000347184
0.00169223
0.402083
-0.000342633
0.00170683
0.402157
-0.000338423
0.00170137
0.40223
-0.000334446
0.0016923
0.402304
-0.000330549
0.00169422
0.402379
-0.000326993
0.0017074
0.402453
-0.000323309
0.00172766
0.402528
-0.000319832
0.00172668
0.402603
-0.000316693
0.00171929
0.402679
-0.00031372
0.00173621
0.402755
-0.000310882
0.00175558
0.402831
-0.000307596
0.00179254
0.402908
-0.000304669
0.00182522
0.402985
-0.000301978
0.00186095
0.403063
-0.000298859
0.00191906
0.40314
-0.000295747
0.00197632
0.403218
-0.000292704
0.00204329
0.403296
-0.000288941
0.00210487
0.403373
-0.000281863
0.00215663
0.403446
-0.000267322
0.002166
-0.000229562
0.00213139
0.39607
0.00315351
0.000209616
0.396275
2.79326e-05
0.000195878
0.396446
3.88201e-05
0.000875907
0.396756
2.98323e-05
0.00185951
0.397122
5.17006e-07
0.00247605
0.397473
5.31326e-05
0.00261158
0.397793
0.000118186
0.00242351
0.398083
0.000165821
0.00219549
0.398346
0.000200253
0.00197643
0.398583
0.000225377
0.00168911
0.398798
0.00024127
0.00142487
0.398994
0.00025116
0.00124238
0.399174
0.000257432
0.00111343
0.399338
0.000259613
0.00102706
0.399491
0.000258707
0.00102144
0.399632
0.000256278
0.00103332
0.399764
0.000252764
0.0010326
0.399887
0.00024815
0.00103399
0.400003
0.00024203
0.00104387
0.400113
0.000235218
0.001071
0.400217
0.00022811
0.00110125
0.400317
0.000220419
0.0011326
0.400412
0.000212595
0.00117573
0.400504
0.000204551
0.00124635
0.400592
0.00019609
0.00134764
0.400678
0.0001875
0.00145001
0.400762
0.000178788
0.0015577
0.400844
0.000169901
0.00170545
0.400924
0.000160773
0.00187002
0.401002
0.000151057
0.00200893
0.40108
0.000140907
0.002134
0.401156
0.000130871
0.00226159
0.401232
0.000120807
0.0023799
0.401307
0.000110469
0.00248346
0.401381
0.000100192
0.00257155
0.401455
8.99159e-05
0.00265578
0.401529
7.95555e-05
0.00274824
0.401603
6.94187e-05
0.00281875
0.401676
5.91906e-05
0.0028645
0.401749
4.90166e-05
0.00291798
0.401823
3.93991e-05
0.00296323
0.401896
2.98591e-05
0.00299099
0.40197
2.06163e-05
0.00301326
0.402044
1.17736e-05
0.00303738
0.402118
3.15272e-06
0.00307363
0.402193
-4.70202e-06
0.00309945
0.402267
-1.24111e-05
0.00309385
0.402342
-1.9944e-05
0.00307665
0.402417
-2.71588e-05
0.00307576
0.402493
-3.43521e-05
0.00306921
0.402569
-4.07935e-05
0.00305139
0.402645
-4.70476e-05
0.00302707
0.402721
-5.31253e-05
0.00300567
0.402798
-5.85772e-05
0.00298479
0.402875
-6.36562e-05
0.00295558
0.402952
-6.83675e-05
0.00294068
0.40303
-7.20087e-05
0.00292263
0.403107
-7.13355e-05
0.00287932
0.403179
-5.79197e-05
0.00279717
1.70133e-05
0.00268214
0.398246
0.00186518
0.000470455
0.398237
-0.0013877
0.00115863
0.398039
-0.00140545
0.00182368
0.398048
-0.00170083
0.00211112
0.398124
-0.0018087
0.00193947
0.398227
-0.00175962
0.00145068
0.398345
-0.00166443
0.000945886
0.398468
-0.00156552
0.000654923
0.398588
-0.00146857
0.000451323
0.398702
-0.00137574
0.000234449
0.398809
-0.00129046
0.000141692
0.398909
-0.00121205
0.000148656
0.399002
-0.00113937
0.000174394
0.399089
-0.00107284
0.000236797
0.39917
-0.00101216
0.000360128
0.399246
-0.000956819
0.000457898
0.399316
-0.000906322
0.000510629
0.399382
-0.000860077
0.000549936
0.399445
-0.000818136
0.000605056
0.399504
-0.000779856
0.000667504
0.399559
-0.000744769
0.000717039
0.399612
-0.00071274
0.00076723
0.399662
-0.000683093
0.000817077
0.39971
-0.00065564
0.00088238
0.399757
-0.000630454
0.000975141
0.399801
-0.00060721
0.00106227
0.399843
-0.000585692
0.00115032
0.399884
-0.000565773
0.00127519
0.399924
-0.000547485
0.00141849
0.399963
-0.000531015
0.00155569
0.4
-0.000516094
0.00169847
0.400037
-0.000502242
0.00184573
0.400072
-0.000489517
0.00199029
0.400107
-0.000478013
0.00213699
0.400141
-0.000467426
0.00227592
0.400175
-0.000457715
0.00242004
0.400208
-0.000448861
0.00258417
0.400241
-0.000440633
0.00272849
0.400273
-0.000433172
0.00286049
0.400305
-0.000426258
0.00300682
0.400336
-0.000419562
0.00313369
0.400367
-0.000413403
0.00324757
0.400398
-0.000407568
0.00335292
0.400429
-0.000401988
0.00345247
0.400459
-0.000396715
0.00356278
0.40049
-0.00039131
0.00364253
0.40052
-0.000386292
0.00369023
0.40055
-0.000381595
0.00372595
0.40058
-0.000377105
0.00377174
0.40061
-0.000373137
0.00381644
0.40064
-0.000369109
0.00383133
0.40067
-0.000365196
0.00383739
0.4007
-0.000361473
0.00384624
0.400729
-0.000357729
0.00384129
0.400759
-0.000354002
0.00382299
0.400788
-0.000350221
0.00382226
0.400819
-0.000346048
0.0038236
0.400851
-0.000339139
0.00378898
0.400888
-0.000323903
0.00372038
-0.000217732
0.00362517
0.400779
0.000234997
0.400712
0.00151739
0.400704
0.00222915
0.400361
0.00215091
0.39982
0.00146164
0.399221
0.000480315
0.398613
-0.000276456
0.398007
-0.000579399
0.397407
-0.000705367
0.396814
-0.000825546
0.396231
-0.000785904
0.395658
-0.000666057
0.395093
-0.000585302
0.394537
-0.000503527
0.39399
-0.000386408
0.393452
-0.000308888
0.392922
-0.000277661
0.392399
-0.00026356
0.391885
-0.000225593
0.391377
-0.000180834
0.390877
-0.000152842
0.390384
-0.000122042
0.389897
-0.00010539
0.389416
-8.86288e-05
0.388942
-5.05942e-05
0.388474
-2.74243e-05
0.388011
-1.39318e-05
0.387554
2.62709e-05
0.387102
8.06462e-05
0.386656
0.000137654
0.386214
0.000205978
0.385777
0.00027049
0.385345
0.000328033
0.384918
0.00039068
0.384494
0.000441723
0.384075
0.000495402
0.383661
0.000568081
0.38325
0.000613073
0.382843
0.000645452
0.38244
0.000686672
0.38204
0.000691461
0.381644
0.000679633
0.381252
0.000651229
0.380863
0.000608456
0.380477
0.00057155
0.380094
0.000486824
0.379714
0.000375391
0.379337
0.000259386
0.378963
0.000156469
0.378592
6.64843e-05
0.378224
-5.77942e-05
0.377858
-0.000190635
0.377495
-0.000318305
0.377134
-0.000463692
0.376776
-0.000623114
0.37642
-0.000762328
0.376068
-0.00089425
0.375722
-0.00106562
0.37539
-0.00126502
-0.0014737
0.400787
-0.00185769
0.400709
0.00137225
0.400694
0.001369
0.40035
0.00167491
0.399812
0.00180025
0.399217
0.00176147
0.398611
0.00166714
0.398006
0.00156575
0.397408
0.0014655
0.396816
0.00136743
0.396233
0.00127641
0.395659
0.00119382
0.395094
0.00111826
0.394539
0.00105007
0.393992
0.000988438
0.393453
0.00093275
0.392922
0.000883574
0.3924
0.000840067
0.391885
0.00080058
0.391378
0.000764598
0.390878
0.000732441
0.390385
0.000703814
0.389898
0.000677279
0.389418
0.000652238
0.388944
0.000629226
0.388476
0.000607937
0.388014
0.000587687
0.387557
0.000568582
0.387105
0.00055086
0.386658
0.000534363
0.386217
0.000518994
0.38578
0.000504703
0.385348
0.000491318
0.38492
0.000478882
0.384497
0.000467572
0.384078
0.000457071
0.383663
0.00044733
0.383252
0.000438378
0.382845
0.00043
0.382442
0.000422139
0.382043
0.000414988
0.381647
0.000408333
0.381254
0.000402195
0.380865
0.000396611
0.380479
0.000391216
0.380096
0.000386285
0.379716
0.000381691
0.37934
0.000377354
0.378966
0.000373463
0.378595
0.000369342
0.378226
0.000365547
0.377861
0.000362077
0.377497
0.000358701
0.377137
0.000355803
0.376779
0.000352998
0.376423
0.00035
0.376071
0.000346208
0.375724
0.000340081
0.375391
0.000325916
0.000221097
0.398248
-0.00315662
0.398239
-5.20653e-05
0.398036
-7.83907e-05
0.398041
-5.79143e-05
0.398116
-5.17972e-06
0.39822
-4.09652e-05
0.398338
-9.7496e-05
0.398461
-0.000139383
0.398582
-0.000170276
0.398696
-0.000194719
0.398803
-0.000211669
0.398903
-0.000221708
0.398997
-0.000226931
0.399084
-0.000227882
0.399165
-0.0002255
0.39924
-0.000220174
0.399311
-0.000211175
0.399378
-0.000199781
0.39944
-0.000187613
0.399499
-0.000174603
0.399555
-0.000160142
0.399608
-0.000144688
0.399659
-0.000129801
0.399707
-0.000115917
0.399753
-0.000102237
0.399797
-8.90367e-05
0.399839
-7.70131e-05
0.399881
-6.57993e-05
0.39992
-5.49894e-05
0.399959
-4.47624e-05
0.399996
-3.50693e-05
0.400033
-2.57261e-05
0.400068
-1.68305e-05
0.400103
-8.26461e-06
0.400137
2.97365e-07
0.400171
8.79667e-06
0.400204
1.71425e-05
0.400237
2.54007e-05
0.400269
3.33597e-05
0.400301
4.10996e-05
0.400333
4.89189e-05
0.400364
5.65369e-05
0.400396
6.41014e-05
0.400427
7.17528e-05
0.400458
7.89905e-05
0.400488
8.61349e-05
0.400519
9.30885e-05
0.400549
9.97972e-05
0.400579
0.000106474
0.400609
0.000112421
0.40064
0.00011842
0.400669
0.000124231
0.400699
0.000129704
0.400729
0.000135563
0.400759
0.000141055
0.400789
0.000145704
0.400819
0.000148889
0.40085
0.000148489
0.400887
0.000135659
6.17907e-05
0.396068
-0.000921274
0.396277
0.000511068
0.396449
0.000761819
0.396755
0.000788704
0.397119
0.000860347
0.397468
0.000873447
0.397787
0.000852714
0.398077
0.000826067
0.398341
0.000795784
0.398579
0.000761452
0.398795
0.000725189
0.398992
0.000689937
0.399172
0.00065657
0.399337
0.000624765
0.39949
0.000594741
0.399631
0.000567612
0.399763
0.000543917
0.399887
0.000522296
0.400003
0.00050189
0.400112
0.000483596
0.400217
0.000467885
0.400316
0.00045389
0.400412
0.000440503
0.400503
0.000427761
0.400592
0.000416096
0.400678
0.000404983
0.400762
0.00039402
0.400843
0.000383661
0.400923
0.000373946
0.401002
0.000364405
0.401079
0.000355113
0.401156
0.000346333
0.401231
0.000337903
0.401306
0.000329766
0.401381
0.000322137
0.401455
0.000315201
0.401529
0.000308736
0.401602
0.000302585
0.401675
0.000296569
0.401749
0.000290907
0.401822
0.000285733
0.401895
0.000280736
0.401969
0.000276177
0.402043
0.000272217
0.402117
0.00026837
0.402191
0.000264708
0.402265
0.000261126
0.402339
0.0002577
0.402414
0.000254525
0.402489
0.000251214
0.402565
0.000248443
0.402641
0.000245497
0.402717
0.000242547
0.402793
0.000240374
0.40287
0.000238065
0.402947
0.000235218
0.403024
0.000231273
0.4031
0.000224889
0.403171
0.000211193
0.000174564
0.397415
-0.000490118
0.397742
1.16681e-05
0.398074
0.000121663
0.398352
7.77065e-05
0.398609
7.5016e-05
0.39883
6.02491e-05
0.399017
3.14346e-05
0.39918
3.69229e-06
0.399328
-1.96892e-05
0.399464
-4.11833e-05
0.39959
-6.0659e-05
0.399709
-7.59591e-05
0.399821
-8.74836e-05
0.399929
-9.70737e-05
0.400031
-0.000104354
0.40013
-0.000108473
0.400225
-0.00010994
0.400317
-0.000110235
0.400407
-0.000109785
0.400494
-0.000107775
0.400579
-0.000104342
0.400661
-0.000100478
0.400742
-9.64574e-05
0.400822
-9.1905e-05
0.400901
-8.69621e-05
0.400978
-8.22226e-05
0.401054
-7.75736e-05
0.40113
-7.25511e-05
0.401205
-6.75131e-05
0.401279
-6.30312e-05
0.401353
-5.89136e-05
0.401426
-5.48424e-05
0.401499
-5.09559e-05
0.401572
-4.73759e-05
0.401645
-4.39794e-05
0.401718
-4.06061e-05
0.401791
-3.73019e-05
0.401864
-3.43657e-05
0.401937
-3.1816e-05
0.40201
-2.92953e-05
0.402083
-2.68773e-05
0.402157
-2.47358e-05
0.40223
-2.25555e-05
0.402304
-2.02212e-05
0.402379
-1.79559e-05
0.402453
-1.58898e-05
0.402528
-1.4108e-05
0.402604
-1.23465e-05
0.402679
-1.0562e-05
0.402756
-8.87036e-06
0.402832
-6.93432e-06
0.402909
-5.41897e-06
0.402986
-4.00367e-06
0.403063
-2.21001e-06
0.403141
-5.81835e-07
0.403219
6.44273e-07
0.403297
1.04359e-06
0.403374
5.99803e-10
0.403446
-5.69412e-06
-2.5155e-05
0.397415
-2.57177e-06
0.397464
-4.84097e-06
0.397666
-6.59952e-06
0.397867
-1.03308e-05
0.3981
-1.56052e-05
0.398344
-1.88052e-05
0.398579
-2.44031e-05
0.3988
-2.85796e-05
0.399008
-2.93211e-05
0.399201
-3.07806e-05
0.399381
-3.24318e-05
0.399547
-3.26592e-05
0.399701
-3.23704e-05
0.399844
-3.26493e-05
0.399979
-3.27115e-05
0.400105
-3.2361e-05
0.400223
-3.21064e-05
0.400335
-3.20418e-05
0.400442
-3.19579e-05
0.400544
-3.15329e-05
0.400641
-3.11004e-05
0.400735
-3.10995e-05
0.400825
-3.10282e-05
0.400912
-3.02308e-05
0.400997
-2.91174e-05
0.40108
-2.82072e-05
0.401161
-2.69789e-05
0.401241
-2.50276e-05
0.401319
-2.29775e-05
0.401396
-2.13158e-05
0.401472
-1.97883e-05
0.401547
-1.82312e-05
0.401622
-1.67987e-05
0.401696
-1.56123e-05
0.40177
-1.47275e-05
0.401844
-1.3983e-05
0.401918
-1.33068e-05
0.401991
-1.31016e-05
0.402065
-1.32195e-05
0.402138
-1.32924e-05
0.402212
-1.36158e-05
0.402285
-1.41593e-05
0.402359
-1.46972e-05
0.402434
-1.53069e-05
0.402508
-1.58729e-05
0.402583
-1.66666e-05
0.402658
-1.77574e-05
0.402733
-1.87187e-05
0.402809
-1.951e-05
0.402885
-2.02864e-05
0.402961
-2.10722e-05
0.403038
-2.19733e-05
0.403115
-2.27791e-05
0.403193
-2.35454e-05
0.40327
-2.42397e-05
0.403348
-2.48582e-05
0.403426
-2.56099e-05
0.403501
-2.62043e-05
0.40357
-2.66377e-05
-2.69603e-05
0.397415
0.000485208
0.397464
-2.16392e-05
0.397666
-0.000136566
0.397868
-9.93303e-05
0.398101
-0.000104816
0.398345
-9.85006e-05
0.398581
-7.91742e-05
0.398803
-5.76177e-05
0.39901
-3.61977e-05
0.399203
-1.733e-05
0.399382
-3.74716e-07
0.399547
1.43834e-05
0.399701
2.64979e-05
0.399845
3.62698e-05
0.399979
4.39383e-05
0.400104
4.88e-05
0.400223
5.10066e-05
0.400335
5.17333e-05
0.400441
5.17008e-05
0.400543
5.06812e-05
0.40064
4.84837e-05
0.400733
4.54743e-05
0.400823
4.23888e-05
0.400911
3.98231e-05
0.400996
3.74834e-05
0.401079
3.50015e-05
0.40116
3.29407e-05
0.401239
3.15351e-05
0.401317
3.01899e-05
0.401394
2.87258e-05
0.401471
2.7364e-05
0.401546
2.59757e-05
0.401621
2.44618e-05
0.401695
2.28593e-05
0.401769
2.09903e-05
0.401843
1.89771e-05
0.401917
1.68936e-05
0.40199
1.43465e-05
0.402063
1.16378e-05
0.402137
9.01314e-06
0.402211
6.01373e-06
0.402284
2.91e-06
0.402358
-2.53041e-07
0.402433
-3.61593e-06
0.402507
-6.8331e-06
0.402582
-1.0311e-05
0.402657
-1.39701e-05
0.402732
-1.73904e-05
0.402808
-2.05865e-05
0.402884
-2.37538e-05
0.402961
-2.72476e-05
0.403037
-3.05139e-05
0.403115
-3.35316e-05
0.403192
-3.6806e-05
0.40327
-3.98899e-05
0.403348
-4.24944e-05
0.403425
-4.44423e-05
0.403501
-4.47583e-05
0.403569
-4.01206e-05
-2.21043e-05
0.397415
0.000917701
0.397742
-0.000521323
0.398072
-0.000781669
0.39835
-0.000811929
0.398606
-0.000887313
0.398827
-0.000910842
0.399014
-0.000898653
0.399179
-0.000877447
0.399327
-0.000852376
0.399463
-0.000823718
0.39959
-0.000792369
0.399709
-0.000760065
0.399821
-0.000728018
0.399929
-0.000696266
0.400032
-0.000665933
0.400131
-0.000638617
0.400226
-0.000614187
0.400318
-0.000591496
0.400408
-0.00056996
0.400494
-0.000550225
0.400579
-0.000532461
0.400662
-0.000516029
0.400743
-0.000500659
0.400823
-0.000485987
0.400902
-0.000471994
0.400979
-0.00045888
0.401056
-0.000446298
0.401131
-0.000434106
0.401206
-0.000422534
0.40128
-0.000411379
0.401354
-0.000400556
0.401427
-0.000390436
0.4015
-0.000380952
0.401573
-0.000371867
0.401645
-0.000363414
0.401718
-0.000355479
0.40179
-0.000347975
0.401863
-0.000341222
0.401936
-0.000334846
0.402009
-0.000328807
0.402082
-0.000323609
0.402155
-0.000318771
0.402229
-0.000314433
0.402303
-0.000310682
0.402377
-0.00030713
0.402452
-0.000304236
0.402527
-0.000301645
0.402602
-0.000299221
0.402678
-0.000297071
0.402754
-0.000295119
0.40283
-0.000293967
0.402907
-0.000292818
0.402984
-0.000291658
0.403061
-0.000291088
0.403139
-0.000290573
0.403217
-0.000289585
0.403295
-0.000287598
0.403371
-0.000283055
0.403443
-0.000270591
-0.00023419
0.396067
0.00315507
0.396279
4.74916e-05
0.396451
6.82838e-05
0.396756
4.50341e-05
0.397119
-4.34178e-06
0.397467
3.21984e-05
0.397787
9.15597e-05
0.398078
0.000140366
0.39834
0.000176527
0.398578
0.000204697
0.398794
0.000227572
0.398991
0.000244015
0.399171
0.000254377
0.399337
0.000261017
0.399489
0.000264309
0.39963
0.000264204
0.399762
0.000261477
0.399886
0.000256914
0.400002
0.000251521
0.400112
0.000244955
0.400216
0.000237254
0.400316
0.000229016
0.400411
0.000220008
0.400503
0.000210448
0.400592
0.000200682
0.400678
0.000190605
0.400762
0.000180335
0.400844
0.000169929
0.400923
0.000159527
0.401002
0.000149619
0.401079
0.000140131
0.401156
0.000130559
0.401231
0.000121104
0.401306
0.00011205
0.40138
0.00010311
0.401454
9.4363e-05
0.401528
8.58944e-05
0.401601
7.7436e-05
0.401674
6.93346e-05
0.401748
6.13879e-05
0.401821
5.31415e-05
0.401894
4.51506e-05
0.401968
3.71324e-05
0.402042
2.89934e-05
0.402116
2.0964e-05
0.40219
1.25084e-05
0.402265
4.28188e-06
0.40234
-3.76836e-06
0.402415
-1.17859e-05
0.40249
-1.94206e-05
0.402566
-2.74418e-05
0.402642
-3.53041e-05
0.402719
-4.29199e-05
0.402795
-5.07163e-05
0.402872
-5.83492e-05
0.40295
-6.53461e-05
0.403027
-7.09317e-05
0.403104
-7.28344e-05
0.403175
-6.1583e-05
1.16128e-05
0.398247
0.00185632
0.398236
-0.00137733
0.398035
-0.00138237
0.39804
-0.00169093
0.398114
-0.00181487
0.398218
-0.00177874
0.398339
-0.00168854
0.398462
-0.00158629
0.398583
-0.00148503
0.398698
-0.00138874
0.398806
-0.00129799
0.398906
-0.00121465
0.399
-0.0011395
0.399087
-0.00107123
0.399168
-0.00100916
0.399244
-0.000952715
0.399314
-0.000901397
0.399381
-0.000854869
0.399443
-0.000812218
0.399502
-0.000773315
0.399558
-0.000737927
0.399611
-0.000705563
0.399662
-0.000676354
0.39971