/*--------------------------------*- C++ -*----------------------------------*\
  =========                 |
  \\      /  F ield         | OpenFOAM: The Open Source CFD Toolbox
   \\    /   O peration     | Website:  https://openfoam.org
    \\  /    A nd           | Version:  8
     \\/     M anipulation  |
\*---------------------------------------------------------------------------*/
FoamFile
{
    version     2.0;
    format      ascii;
    class       volScalarField;
    location    "500";
    object      k;
}
// * * * * * * * * * * * * * * * * * * * * * * * * * * * * * * * * * * * * * //

dimensions      [0 2 -2 0 0 0 0];

internalField   nonuniform List<scalar> 
1200
(
2.37193e-05
2.34076e-05
2.30685e-05
2.2708e-05
2.23194e-05
2.18849e-05
2.13375e-05
2.02974e-05
1.92985e-05
2.04364e-05
2.22654e-05
2.41443e-05
2.64184e-05
2.9028e-05
3.19641e-05
3.43063e-05
3.54089e-05
3.69079e-05
3.98799e-05
4.36935e-05
4.54271e-05
4.54625e-05
4.53863e-05
4.57149e-05
4.70256e-05
4.87395e-05
5.04127e-05
5.166e-05
5.24794e-05
5.38706e-05
5.72952e-05
6.41009e-05
6.77782e-05
6.8827e-05
7.05233e-05
7.62386e-05
8.84431e-05
0.000100608
0.000110167
0.000118885
0.000128027
0.000135715
0.000142767
0.00014911
0.000155505
0.000164557
0.000196938
0.000276957
0.000320806
0.000345074
0.000367323
0.000391421
0.000410403
0.000425724
0.000434159
0.000442281
0.000651032
0.000889458
0.00109662
0.00193614
2.09924e-05
1.81841e-05
1.57842e-05
1.37731e-05
1.21338e-05
1.08235e-05
9.71294e-06
8.33864e-06
8.96103e-06
1.56597e-05
2.04465e-05
1.86334e-05
1.60323e-05
1.50756e-05
1.44307e-05
1.42523e-05
1.48467e-05
1.60613e-05
1.83615e-05
2.10102e-05
2.30139e-05
2.48895e-05
2.7663e-05
3.14473e-05
3.5229e-05
3.94332e-05
4.37422e-05
4.64979e-05
4.77746e-05
4.43705e-05
4.74619e-05
7.79342e-05
8.90712e-05
6.90043e-05
6.46227e-05
0.000102504
0.000130778
0.000135932
0.000133386
0.000152492
0.000192253
0.000223536
0.000234609
0.000245184
0.00027332
0.000336642
0.000406235
0.000447912
0.000408613
0.000264065
0.000378946
0.00054938
0.000657612
0.000775132
0.000892274
0.00102527
0.00128924
0.00143201
0.00132376
0.00152644
2.09592e-05
1.80494e-05
1.55324e-05
1.33736e-05
1.15385e-05
9.96911e-06
8.60645e-06
8.5602e-06
1.17537e-05
1.52732e-05
1.39403e-05
6.36933e-06
4.73285e-06
9.02316e-06
1.33943e-05
1.51508e-05
1.54981e-05
1.55476e-05
1.54357e-05
1.97953e-05
2.72929e-05
3.63536e-05
4.2645e-05
4.585e-05
5.43655e-05
6.47356e-05
7.61169e-05
8.943e-05
0.000105251
0.000122948
0.000142338
0.000164839
0.000187994
0.00021138
0.000235509
0.000269047
0.000304319
0.000339372
0.000377038
0.000414843
0.000454357
0.000492973
0.000528292
0.000563969
0.000606645
0.000656701
0.000705113
0.000745423
0.0007883
0.000834784
0.000885214
0.000966545
0.00105689
0.00117379
0.00131638
0.00149088
0.00168901
0.00191757
0.00215786
0.0024555
2.09556e-05
1.80524e-05
1.5546e-05
1.33894e-05
1.15409e-05
9.93996e-06
8.54293e-06
7.94843e-06
1.08788e-05
1.36843e-05
1.2192e-05
9.55711e-06
9.23236e-06
1.17755e-05
1.54002e-05
1.80388e-05
1.91335e-05
1.96844e-05
1.98921e-05
1.90853e-05
2.70691e-05
3.62663e-05
4.21474e-05
4.66104e-05
5.32633e-05
6.44086e-05
7.67491e-05
9.06687e-05
0.000106447
0.000124318
0.000144264
0.000166319
0.000190319
0.000216082
0.000243663
0.000273851
0.0003063
0.000341085
0.000378126
0.000417458
0.000458826
0.000501319
0.000543777
0.000585438
0.00062658
0.000668005
0.000710778
0.000755824
0.00080755
0.000864981
0.000921762
0.000993199
0.00108376
0.00119958
0.00134254
0.00151611
0.00172278
0.00197957
0.00227121
0.0025984
2.09474e-05
1.80411e-05
1.55413e-05
1.33923e-05
1.15466e-05
9.95492e-06
8.56975e-06
7.61554e-06
8.83315e-06
1.11178e-05
1.08027e-05
9.37796e-06
8.41915e-06
8.80042e-06
1.32939e-05
1.8495e-05
1.97735e-05
2.07567e-05
2.21505e-05
2.3559e-05
2.61313e-05
3.14947e-05
3.66411e-05
4.11548e-05
4.52604e-05
4.47085e-05
5.66932e-05
6.84264e-05
8.06563e-05
9.33919e-05
0.000107005
0.000121737
0.000141157
0.000165533
0.000189139
0.000211052
0.000234575
0.000262813
0.000295561
0.000330395
0.000365377
0.00040144
0.000438734
0.000474386
0.000505375
0.000531598
0.00055744
0.000590287
0.000628404
0.000674115
0.000730712
0.000797219
0.000885947
0.000991022
0.00111852
0.00129136
0.00153269
0.00184159
0.00219303
0.00256995
2.09344e-05
1.80284e-05
1.55412e-05
1.3403e-05
1.15608e-05
9.97339e-06
8.60521e-06
7.50961e-06
7.53909e-06
8.75469e-06
8.91546e-06
8.40592e-06
7.73888e-06
7.34044e-06
7.80054e-06
7.08171e-06
8.64519e-06
1.34602e-05
1.81632e-05
2.04558e-05
2.19005e-05
2.4806e-05
2.90782e-05
3.41998e-05
3.82308e-05
4.05038e-05
4.52436e-05
4.62953e-05
5.08464e-05
6.02606e-05
7.27145e-05
7.53535e-05
8.86116e-05
0.000114001
0.000130739
0.000141516
0.000153004
0.000171979
0.000198325
0.000227966
0.000255486
0.000283662
0.000313064
0.000338929
0.000357374
0.000369798
0.000382234
0.000399174
0.00041527
0.000436861
0.000469759
0.00051191
0.000541601
0.000561647
0.000633377
0.000790793
0.00107945
0.00142116
0.00190264
0.00240632
2.09181e-05
1.80141e-05
1.55426e-05
1.34195e-05
1.15849e-05
1.0001e-05
8.64231e-06
7.51022e-06
6.92432e-06
7.1382e-06
7.15116e-06
6.91084e-06
6.57042e-06
6.25333e-06
6.06178e-06
5.61549e-06
5.22904e-06
4.82396e-06
4.57963e-06
6.9879e-06
1.26871e-05
1.69515e-05
1.99313e-05
2.43408e-05
2.88509e-05
3.20218e-05
3.4645e-05
3.6735e-05
3.9376e-05
4.41268e-05
4.61508e-05
5.03313e-05
6.00991e-05
7.47769e-05
8.52624e-05
9.06698e-05
9.42476e-05
9.77949e-05
0.000112253
0.000135294
0.000156664
0.00017705
0.000200165
0.000221764
0.000234098
0.000234767
0.000231811
0.000245923
0.000273208
0.000327214
0.000342209
0.000323996
0.000331049
0.000299133
0.000252416
0.000339729
0.000395401
0.000523434
0.00129134
0.00182008
2.09026e-05
1.79913e-05
1.55257e-05
1.34124e-05
1.1585e-05
1.00093e-05
8.66733e-06
7.54576e-06
6.72976e-06
6.34329e-06
6.05075e-06
5.76385e-06
5.48015e-06
5.22227e-06
4.97039e-06
4.62635e-06
4.29438e-06
3.96021e-06
3.68637e-06
4.08254e-06
6.40673e-06
9.60497e-06
1.21422e-05
1.49858e-05
1.81677e-05
2.09648e-05
2.32195e-05
2.53405e-05
2.79916e-05
3.15504e-05
3.50268e-05
3.92961e-05
4.49427e-05
4.82583e-05
5.11156e-05
5.24967e-05
5.40562e-05
5.76534e-05
6.43197e-05
7.44431e-05
8.64315e-05
9.98891e-05
0.000117683
0.000131833
0.000137643
0.000135764
0.000130655
0.000128117
0.0001372
0.000171267
0.000207923
0.000223318
0.000223558
0.000213679
0.000196888
0.000188805
0.000188517
0.000276695
0.000635385
0.00105023
2.09206e-05
1.81009e-05
1.57288e-05
1.36922e-05
1.19231e-05
1.03911e-05
9.07765e-06
7.95298e-06
7.03911e-06
6.37551e-06
5.88735e-06
5.49172e-06
5.15774e-06
4.87302e-06
4.61733e-06
4.38489e-06
4.19078e-06
4.02702e-06
3.87275e-06
3.80394e-06
4.32291e-06
5.56961e-06
6.93856e-06
8.45564e-06
1.00906e-05
1.16446e-05
1.29772e-05
1.4193e-05
1.5685e-05
1.77245e-05
2.02772e-05
2.36236e-05
2.73765e-05
3.02106e-05
3.2111e-05
3.36145e-05
3.54271e-05
3.81343e-05
4.204e-05
4.56597e-05
4.95196e-05
5.45922e-05
6.06622e-05
6.57732e-05
6.82596e-05
6.79807e-05
6.64825e-05
6.56619e-05
6.86473e-05
7.94348e-05
9.40697e-05
0.00010626
0.000114532
0.000118983
0.000117712
0.000113774
0.000112551
0.000132989
0.000263711
0.000447891
2.36693e-05
2.33499e-05
2.3076e-05
2.28151e-05
2.24428e-05
2.19011e-05
2.11664e-05
2.01648e-05
1.90456e-05
1.81535e-05
1.79518e-05
1.81947e-05
1.86865e-05
1.92964e-05
2.01187e-05
2.12947e-05
2.24429e-05
2.36247e-05
2.4531e-05
2.45606e-05
2.38277e-05
2.29807e-05
2.28399e-05
2.31789e-05
2.38481e-05
2.47861e-05
2.61343e-05
2.78971e-05
2.99234e-05
3.22315e-05
3.47942e-05
3.74875e-05
4.03555e-05
4.36107e-05
4.62475e-05
4.92331e-05
5.26829e-05
5.65069e-05
6.0601e-05
6.50158e-05
6.96856e-05
7.46437e-05
8.01156e-05
8.63305e-05
9.32627e-05
0.000100834
0.000108846
0.000116862
0.000124383
0.000132429
0.000142686
0.000155344
0.000170724
0.000189873
0.00021333
0.000240028
0.000268442
0.000295804
0.000330582
0.000393758
2.37475e-05
2.34206e-05
2.30679e-05
2.27058e-05
2.23383e-05
2.1942e-05
2.13672e-05
2.03434e-05
1.93225e-05
2.04342e-05
2.22608e-05
2.41414e-05
2.63933e-05
2.89747e-05
3.19208e-05
3.433e-05
3.54673e-05
3.69254e-05
3.98376e-05
4.36253e-05
4.52009e-05
4.53795e-05
4.5559e-05
4.57151e-05
4.7009e-05
4.87279e-05
5.04479e-05
5.17821e-05
5.26492e-05
5.38706e-05
5.6761e-05
6.37148e-05
6.89858e-05
7.03712e-05
7.19554e-05
7.70409e-05
8.81604e-05
9.99408e-05
0.000109617
0.000119055
0.000129562
0.000137678
0.000141957
0.000146844
0.000152927
0.000162288
0.000192479
0.000257369
0.000300846
0.000327088
0.000348538
0.00038049
0.000400536
0.000417428
0.000429201
0.00043697
0.000640372
0.000873929
0.00107293
0.00187827
2.09912e-05
1.8176e-05
1.57858e-05
1.37866e-05
1.21711e-05
1.08914e-05
9.8125e-06
8.35086e-06
8.90015e-06
1.55243e-05
2.0371e-05
1.85759e-05
1.59742e-05
1.4991e-05
1.43565e-05
1.41861e-05
1.47806e-05
1.59924e-05
1.82843e-05
2.09364e-05
2.29669e-05
2.48829e-05
2.76724e-05
3.14439e-05
3.5291e-05
3.96794e-05
4.46856e-05
4.85666e-05
4.97708e-05
4.34745e-05
4.49537e-05
7.00595e-05
9.17319e-05
8.31104e-05
6.65132e-05
9.40751e-05
0.000127452
0.000140443
0.000141522
0.000156127
0.000189163
0.000216797
0.000226108
0.000234496
0.000259052
0.000318937
0.000387946
0.000436201
0.000414361
0.000268025
0.000325356
0.000527426
0.000637382
0.000745481
0.000849887
0.000970751
0.00126239
0.00143989
0.00132553
0.00148348
2.09529e-05
1.80368e-05
1.55313e-05
1.3379e-05
1.15456e-05
9.98e-06
8.62395e-06
8.48735e-06
1.16283e-05
1.51776e-05
1.39849e-05
6.47495e-06
4.77795e-06
9.1513e-06
1.34676e-05
1.5199e-05
1.55415e-05
1.55739e-05
1.5388e-05
1.97044e-05
2.73698e-05
3.65064e-05
4.26643e-05
4.57443e-05
5.41234e-05
6.44425e-05
7.60393e-05
8.97685e-05
0.000105532
0.00012299
0.000141396
0.000164747
0.000187644
0.000211057
0.000236296
0.000269296
0.000303835
0.000338639
0.000375485
0.000412573
0.000450643
0.000486822
0.000518192
0.000550364
0.000591691
0.000642339
0.000692331
0.000734433
0.000776577
0.000820936
0.000863079
0.000947479
0.00103714
0.00115132
0.0012938
0.0014724
0.00167586
0.00190695
0.00214801
0.00244146
2.09409e-05
1.80358e-05
1.55441e-05
1.33945e-05
1.15457e-05
9.9433e-06
8.54619e-06
7.90555e-06
1.07653e-05
1.36067e-05
1.21963e-05
9.59963e-06
9.28397e-06
1.18266e-05
1.54468e-05
1.80826e-05
1.91834e-05
1.97387e-05
1.99485e-05
1.93479e-05
2.68609e-05
3.60526e-05
4.21131e-05
4.72761e-05
5.32704e-05
6.44376e-05
7.68916e-05
9.09877e-05
0.000106851
0.000124731
0.000144613
0.000166581
0.000190185
0.000216159
0.000243744
0.00027373
0.000305997
0.000340437
0.000376932
0.00041609
0.000456693
0.000498028
0.000538893
0.000578856
0.000618864
0.000659859
0.000702143
0.000745985
0.000795438
0.00085294
0.000909956
0.000982307
0.00107368
0.00118995
0.00133314
0.00150659
0.00171049
0.00196595
0.00226129
0.00259257
2.09242e-05
1.80223e-05
1.55392e-05
1.33957e-05
1.15479e-05
9.95136e-06
8.56732e-06
7.59677e-06
8.75995e-06
1.10524e-05
1.07809e-05
9.36721e-06
8.44957e-06
8.83955e-06
1.33686e-05
1.8538e-05
1.98605e-05
2.08658e-05
2.22473e-05
2.36367e-05
2.6189e-05
3.1446e-05
3.65692e-05
4.10693e-05
4.51158e-05
4.39797e-05
5.35456e-05
6.66076e-05
7.98036e-05
9.3914e-05
0.000108325
0.000122118
0.000140165
0.000164293
0.000188826
0.000210998
0.000233876
0.000261072
0.000293432
0.000327801
0.00036313
0.000399498
0.00043691
0.000472359
0.000502648
0.000527362
0.000550192
0.000579052
0.00061491
0.000663523
0.0007246
0.00079507
0.000885987
0.000992437
0.00111869
0.00128675
0.00152196
0.00182461
0.00218361
0.00256535
2.09063e-05
1.80097e-05
1.55401e-05
1.34061e-05
1.15616e-05
9.97116e-06
8.59489e-06
7.49738e-06
7.4996e-06
8.70916e-06
8.89091e-06
8.39561e-06
7.73637e-06
7.3399e-06
7.76999e-06
7.02736e-06
8.73574e-06
1.36172e-05
1.83011e-05
2.05471e-05
2.19293e-05
2.47391e-05
2.89599e-05
3.4138e-05
3.81582e-05
4.04887e-05
4.49202e-05
4.61691e-05
5.06069e-05
5.96978e-05
7.52537e-05
7.69626e-05
8.01216e-05
0.000110269
0.00013064
0.000141814
0.000152312
0.000169621
0.000195332
0.000225301
0.000253671
0.000282561
0.000312861
0.000339687
0.000358365
0.000369036
0.000376344
0.000384886
0.000398152
0.00041968
0.000463762
0.000506781
0.000531031
0.000542066
0.000619072
0.000781535
0.00105064
0.00139556
0.00188089
0.00240042
2.08909e-05
1.79976e-05
1.55427e-05
1.34235e-05
1.15866e-05
9.99991e-06
8.63818e-06
7.5022e-06
6.90598e-06
7.11404e-06
7.13647e-06
6.91356e-06
6.57624e-06
6.25733e-06
6.04928e-06
5.59652e-06
5.24601e-06
4.83007e-06
4.61031e-06
7.19166e-06
1.28724e-05
1.69815e-05
1.98617e-05
2.42792e-05
2.88154e-05
3.19716e-05
3.45411e-05
3.66742e-05
3.92244e-05
4.40319e-05
4.64093e-05
5.0878e-05
6.04349e-05
7.51908e-05
8.58809e-05
9.1024e-05
9.47571e-05
9.80268e-05
0.000108891
0.000131533
0.000155033
0.000176713
0.000200925
0.00022379
0.000237015
0.000237503
0.000231623
0.000238031
0.000256696
0.000308973
0.000334057
0.000325436
0.000319186
0.000278695
0.000236363
0.000338175
0.000401521
0.000550179
0.00123257
0.00180139
2.08814e-05
1.79812e-05
1.5529e-05
1.34172e-05
1.15865e-05
1.00086e-05
8.66463e-06
7.54718e-06
6.72912e-06
6.3362e-06
6.04949e-06
5.7746e-06
5.50111e-06
5.24536e-06
4.98484e-06
4.62985e-06
4.28482e-06
3.94677e-06
3.69685e-06
4.16009e-06
6.53432e-06
9.68553e-06
1.21506e-05
1.49684e-05
1.81554e-05
2.09302e-05
2.31788e-05
2.53307e-05
2.80265e-05
3.17097e-05
3.53163e-05
3.96519e-05
4.5145e-05
4.82292e-05
5.08045e-05
5.19357e-05
5.38865e-05
5.81434e-05
6.48698e-05
7.5294e-05
8.81143e-05
0.000101876
0.000119004
0.000134844
0.000142888
0.000141909
0.000136042
0.000131075
0.000134999
0.000162246
0.000197022
0.000216172
0.000219062
0.00020795
0.000192191
0.000184067
0.000190493
0.000296006
0.000662335
0.00103644
2.09091e-05
1.80986e-05
1.57292e-05
1.36894e-05
1.19189e-05
1.03921e-05
9.07756e-06
7.95381e-06
7.04025e-06
6.3769e-06
5.88984e-06
5.49546e-06
5.16253e-06
4.87786e-06
4.62176e-06
4.38992e-06
4.20115e-06
4.04352e-06
3.88804e-06
3.82987e-06
4.37085e-06
5.62809e-06
6.98447e-06
8.49433e-06
1.01355e-05
1.16732e-05
1.29881e-05
1.42021e-05
1.57241e-05
1.79102e-05
2.06167e-05
2.40178e-05
2.76463e-05
3.03133e-05
3.20576e-05
3.35373e-05
3.55686e-05
3.85167e-05
4.25218e-05
4.58436e-05
5.01957e-05
5.52032e-05
6.05684e-05
6.50828e-05
6.74377e-05
6.73499e-05
6.63338e-05
6.62997e-05
7.03033e-05
8.14431e-05
9.57648e-05
0.000108312
0.000117283
0.00011985
0.000115999
0.000112753
0.000113739
0.00013997
0.000285331
0.000468501
2.37035e-05
2.33987e-05
2.31008e-05
2.27906e-05
2.24083e-05
2.19104e-05
2.12028e-05
2.02001e-05
1.90509e-05
1.81414e-05
1.79377e-05
1.82055e-05
1.87129e-05
1.93109e-05
2.01189e-05
2.12713e-05
2.24003e-05
2.36024e-05
2.45794e-05
2.45051e-05
2.36832e-05
2.28164e-05
2.26517e-05
2.28599e-05
2.33088e-05
2.41894e-05
2.56031e-05
2.73955e-05
2.93988e-05
3.15935e-05
3.40643e-05
3.67899e-05
3.97525e-05
4.30803e-05
4.58157e-05
4.88712e-05
5.23803e-05
5.62523e-05
6.0428e-05
6.48302e-05
6.94232e-05
7.4404e-05
8.00166e-05
8.63463e-05
9.3293e-05
0.000100758
0.000108573
0.000116407
0.00012405
0.000132779
0.000143897
0.0001574
0.000173742
0.00019393
0.00021808
0.000244536
0.000272506
0.000299648
0.000336672
0.000402902
)
;

boundaryField
{
    wall
    {
        type            kqRWallFunction;
        value           nonuniform List<scalar> 
1200
(
2.37193e-05
2.09924e-05
2.09592e-05
2.09556e-05
2.09474e-05
2.09344e-05
2.09181e-05
2.09026e-05
2.09206e-05
2.36693e-05
2.34076e-05
1.81841e-05
1.80494e-05
1.80524e-05
1.80411e-05
1.80284e-05
1.80141e-05
1.79913e-05
1.81009e-05
2.33499e-05
2.30685e-05
1.57842e-05
1.55324e-05
1.5546e-05
1.55413e-05
1.55412e-05
1.55426e-05
1.55257e-05
1.57288e-05
2.3076e-05
2.2708e-05
1.37731e-05
1.33736e-05
1.33894e-05
1.33923e-05
1.3403e-05
1.34195e-05
1.34124e-05
1.36922e-05
2.28151e-05
2.23194e-05
1.21338e-05
1.15385e-05
1.15409e-05
1.15466e-05
1.15608e-05
1.15849e-05
1.1585e-05
1.19231e-05
2.24428e-05
2.18849e-05
1.08235e-05
9.96911e-06
9.93996e-06
9.95492e-06
9.97339e-06
1.0001e-05
1.00093e-05
1.03911e-05
2.19011e-05
2.13375e-05
9.71294e-06
8.60645e-06
8.54293e-06
8.56975e-06
8.60521e-06
8.64231e-06
8.66733e-06
9.07765e-06
2.11664e-05
2.02974e-05
8.33864e-06
8.5602e-06
7.94843e-06
7.61554e-06
7.50961e-06
7.51022e-06
7.54576e-06
7.95298e-06
2.01648e-05
1.92985e-05
8.96103e-06
1.17537e-05
1.08788e-05
8.83315e-06
7.53909e-06
6.92432e-06
6.72976e-06
7.03911e-06
1.90456e-05
2.04364e-05
1.56597e-05
1.52732e-05
1.36843e-05
1.11178e-05
8.75469e-06
7.1382e-06
6.34329e-06
6.37551e-06
1.81535e-05
2.22654e-05
2.04465e-05
1.39403e-05
1.2192e-05
1.08027e-05
8.91546e-06
7.15116e-06
6.05075e-06
5.88735e-06
1.79518e-05
2.41443e-05
1.86334e-05
6.36933e-06
9.55711e-06
9.37796e-06
8.40592e-06
6.91084e-06
5.76385e-06
5.49172e-06
1.81947e-05
2.64184e-05
1.60323e-05
4.73285e-06
9.23236e-06
8.41915e-06
7.73888e-06
6.57042e-06
5.48015e-06
5.15774e-06
1.86865e-05
2.9028e-05
1.50756e-05
9.02316e-06
1.17755e-05
8.80042e-06
7.34044e-06
6.25333e-06
5.22227e-06
4.87302e-06
1.92964e-05
3.19641e-05
1.44307e-05
1.33943e-05
1.54002e-05
1.32939e-05
7.80054e-06
6.06178e-06
4.97039e-06
4.61733e-06
2.01187e-05
3.43063e-05
1.42523e-05
1.51508e-05
1.80388e-05
1.8495e-05
7.08171e-06
5.61549e-06
4.62635e-06
4.38489e-06
2.12947e-05
3.54089e-05
1.48467e-05
1.54981e-05
1.91335e-05
1.97735e-05
8.64519e-06
5.22904e-06
4.29438e-06
4.19078e-06
2.24429e-05
3.69079e-05
1.60613e-05
1.55476e-05
1.96844e-05
2.07567e-05
1.34602e-05
4.82396e-06
3.96021e-06
4.02702e-06
2.36247e-05
3.98799e-05
1.83615e-05
1.54357e-05
1.98921e-05
2.21505e-05
1.81632e-05
4.57963e-06
3.68637e-06
3.87275e-06
2.4531e-05
4.36935e-05
2.10102e-05
1.97953e-05
1.90853e-05
2.3559e-05
2.04558e-05
6.9879e-06
4.08254e-06
3.80394e-06
2.45606e-05
4.54271e-05
2.30139e-05
2.72929e-05
2.70691e-05
2.61313e-05
2.19005e-05
1.26871e-05
6.40673e-06
4.32291e-06
2.38277e-05
4.54625e-05
2.48895e-05
3.63536e-05
3.62663e-05
3.14947e-05
2.4806e-05
1.69515e-05
9.60497e-06
5.56961e-06
2.29807e-05
4.53863e-05
2.7663e-05
4.2645e-05
4.21474e-05
3.66411e-05
2.90782e-05
1.99313e-05
1.21422e-05
6.93856e-06
2.28399e-05
4.57149e-05
3.14473e-05
4.585e-05
4.66104e-05
4.11548e-05
3.41998e-05
2.43408e-05
1.49858e-05
8.45564e-06
2.31789e-05
4.70256e-05
3.5229e-05
5.43655e-05
5.32633e-05
4.52604e-05
3.82308e-05
2.88509e-05
1.81677e-05
1.00906e-05
2.38481e-05
4.87395e-05
3.94332e-05
6.47356e-05
6.44086e-05
4.47085e-05
4.05038e-05
3.20218e-05
2.09648e-05
1.16446e-05
2.47861e-05
5.04127e-05
4.37422e-05
7.61169e-05
7.67491e-05
5.66932e-05
4.52436e-05
3.4645e-05
2.32195e-05
1.29772e-05
2.61343e-05
5.166e-05
4.64979e-05
8.943e-05
9.06687e-05
6.84264e-05
4.62953e-05
3.6735e-05
2.53405e-05
1.4193e-05
2.78971e-05
5.24794e-05
4.77746e-05
0.000105251
0.000106447
8.06563e-05
5.08464e-05
3.9376e-05
2.79916e-05
1.5685e-05
2.99234e-05
5.38706e-05
4.43705e-05
0.000122948
0.000124318
9.33919e-05
6.02606e-05
4.41268e-05
3.15504e-05
1.77245e-05
3.22315e-05
5.72952e-05
4.74619e-05
0.000142338
0.000144264
0.000107005
7.27145e-05
4.61508e-05
3.50268e-05
2.02772e-05
3.47942e-05
6.41009e-05
7.79342e-05
0.000164839
0.000166319
0.000121737
7.53535e-05
5.03313e-05
3.92961e-05
2.36236e-05
3.74875e-05
6.77782e-05
8.90712e-05
0.000187994
0.000190319
0.000141157
8.86116e-05
6.00991e-05
4.49427e-05
2.73765e-05
4.03555e-05
6.8827e-05
6.90043e-05
0.00021138
0.000216082
0.000165533
0.000114001
7.47769e-05
4.82583e-05
3.02106e-05
4.36107e-05
7.05233e-05
6.46227e-05
0.000235509
0.000243663
0.000189139
0.000130739
8.52624e-05
5.11156e-05
3.2111e-05
4.62475e-05
7.62386e-05
0.000102504
0.000269047
0.000273851
0.000211052
0.000141516
9.06698e-05
5.24967e-05
3.36145e-05
4.92331e-05
8.84431e-05
0.000130778
0.000304319
0.0003063
0.000234575
0.000153004
9.42476e-05
5.40562e-05
3.54271e-05
5.26829e-05
0.000100608
0.000135932
0.000339372
0.000341085
0.000262813
0.000171979
9.77949e-05
5.76534e-05
3.81343e-05
5.65069e-05
0.000110167
0.000133386
0.000377038
0.000378126
0.000295561
0.000198325
0.000112253
6.43197e-05
4.204e-05
6.0601e-05
0.000118885
0.000152492
0.000414843
0.000417458
0.000330395
0.000227966
0.000135294
7.44431e-05
4.56597e-05
6.50158e-05
0.000128027
0.000192253
0.000454357
0.000458826
0.000365377
0.000255486
0.000156664
8.64315e-05
4.95196e-05
6.96856e-05
0.000135715
0.000223536
0.000492973
0.000501319
0.00040144
0.000283662
0.00017705
9.98891e-05
5.45922e-05
7.46437e-05
0.000142767
0.000234609
0.000528292
0.000543777
0.000438734
0.000313064
0.000200165
0.000117683
6.06622e-05
8.01156e-05
0.00014911
0.000245184
0.000563969
0.000585438
0.000474386
0.000338929
0.000221764
0.000131833
6.57732e-05
8.63305e-05
0.000155505
0.00027332
0.000606645
0.00062658
0.000505375
0.000357374
0.000234098
0.000137643
6.82596e-05
9.32627e-05
0.000164557
0.000336642
0.000656701
0.000668005
0.000531598
0.000369798
0.000234767
0.000135764
6.79807e-05
0.000100834
0.000196938
0.000406235
0.000705113
0.000710778
0.00055744
0.000382234
0.000231811
0.000130655
6.64825e-05
0.000108846
0.000276957
0.000447912
0.000745423
0.000755824
0.000590287
0.000399174
0.000245923
0.000128117
6.56619e-05
0.000116862
0.000320806
0.000408613
0.0007883
0.00080755
0.000628404
0.00041527
0.000273208
0.0001372
6.86473e-05
0.000124383
0.000345074
0.000264065
0.000834784
0.000864981
0.000674115
0.000436861
0.000327214
0.000171267
7.94348e-05
0.000132429
0.000367323
0.000378946
0.000885214
0.000921762
0.000730712
0.000469759
0.000342209
0.000207923
9.40697e-05
0.000142686
0.000391421
0.00054938
0.000966545
0.000993199
0.000797219
0.00051191
0.000323996
0.000223318
0.00010626
0.000155344
0.000410403
0.000657612
0.00105689
0.00108376
0.000885947
0.000541601
0.000331049
0.000223558
0.000114532
0.000170724
0.000425724
0.000775132
0.00117379
0.00119958
0.000991022
0.000561647
0.000299133
0.000213679
0.000118983
0.000189873
0.000434159
0.000892274
0.00131638
0.00134254
0.00111852
0.000633377
0.000252416
0.000196888
0.000117712
0.00021333
0.000442281
0.00102527
0.00149088
0.00151611
0.00129136
0.000790793
0.000339729
0.000188805
0.000113774
0.000240028
0.000651032
0.00128924
0.00168901
0.00172278
0.00153269
0.00107945
0.000395401
0.000188517
0.000112551
0.000268442
0.000889458
0.00143201
0.00191757
0.00197957
0.00184159
0.00142116
0.000523434
0.000276695
0.000132989
0.000295804
0.00109662
0.00132376
0.00215786
0.00227121
0.00219303
0.00190264
0.00129134
0.000635385
0.000263711
0.000330582
0.00193614
0.00152644
0.0024555
0.0025984
0.00256995
0.00240632
0.00182008
0.00105023
0.000447891
0.000393758
2.37475e-05
2.09912e-05
2.09529e-05
2.09409e-05
2.09242e-05
2.09063e-05
2.08909e-05
2.08814e-05
2.09091e-05
2.37035e-05
2.34206e-05
1.8176e-05
1.80368e-05
1.80358e-05
1.80223e-05
1.80097e-05
1.79976e-05
1.79812e-05
1.80986e-05
2.33987e-05
2.30679e-05
1.57858e-05
1.55313e-05
1.55441e-05
1.55392e-05
1.55401e-05
1.55427e-05
1.5529e-05
1.57292e-05
2.31008e-05
2.27058e-05
1.37866e-05
1.3379e-05
1.33945e-05
1.33957e-05
1.34061e-05
1.34235e-05
1.34172e-05
1.36894e-05
2.27906e-05
2.23383e-05
1.21711e-05
1.15456e-05
1.15457e-05
1.15479e-05
1.15616e-05
1.15866e-05
1.15865e-05
1.19189e-05
2.24083e-05
2.1942e-05
1.08914e-05
9.98e-06
9.9433e-06
9.95136e-06
9.97116e-06
9.99991e-06
1.00086e-05
1.03921e-05
2.19104e-05
2.13672e-05
9.8125e-06
8.62395e-06
8.54619e-06
8.56732e-06
8.59489e-06
8.63818e-06
8.66463e-06
9.07756e-06
2.12028e-05
2.03434e-05
8.35086e-06
8.48735e-06
7.90555e-06
7.59677e-06
7.49738e-06
7.5022e-06
7.54718e-06
7.95381e-06
2.02001e-05
1.93225e-05
8.90015e-06
1.16283e-05
1.07653e-05
8.75995e-06
7.4996e-06
6.90598e-06
6.72912e-06
7.04025e-06
1.90509e-05
2.04342e-05
1.55243e-05
1.51776e-05
1.36067e-05
1.10524e-05
8.70916e-06
7.11404e-06
6.3362e-06
6.3769e-06
1.81414e-05
2.22608e-05
2.0371e-05
1.39849e-05
1.21963e-05
1.07809e-05
8.89091e-06
7.13647e-06
6.04949e-06
5.88984e-06
1.79377e-05
2.41414e-05
1.85759e-05
6.47495e-06
9.59963e-06
9.36721e-06
8.39561e-06
6.91356e-06
5.7746e-06
5.49546e-06
1.82055e-05
2.63933e-05
1.59742e-05
4.77795e-06
9.28397e-06
8.44957e-06
7.73637e-06
6.57624e-06
5.50111e-06
5.16253e-06
1.87129e-05
2.89747e-05
1.4991e-05
9.1513e-06
1.18266e-05
8.83955e-06
7.3399e-06
6.25733e-06
5.24536e-06
4.87786e-06
1.93109e-05
3.19208e-05
1.43565e-05
1.34676e-05
1.54468e-05
1.33686e-05
7.76999e-06
6.04928e-06
4.98484e-06
4.62176e-06
2.01189e-05
3.433e-05
1.41861e-05
1.5199e-05
1.80826e-05
1.8538e-05
7.02736e-06
5.59652e-06
4.62985e-06
4.38992e-06
2.12713e-05
3.54673e-05
1.47806e-05
1.55415e-05
1.91834e-05
1.98605e-05
8.73574e-06
5.24601e-06
4.28482e-06
4.20115e-06
2.24003e-05
3.69254e-05
1.59924e-05
1.55739e-05
1.97387e-05
2.08658e-05
1.36172e-05
4.83007e-06
3.94677e-06
4.04352e-06
2.36024e-05
3.98376e-05
1.82843e-05
1.5388e-05
1.99485e-05
2.22473e-05
1.83011e-05
4.61031e-06
3.69685e-06
3.88804e-06
2.45794e-05
4.36253e-05
2.09364e-05
1.97044e-05
1.93479e-05
2.36367e-05
2.05471e-05
7.19166e-06
4.16009e-06
3.82987e-06
2.45051e-05
4.52009e-05
2.29669e-05
2.73698e-05
2.68609e-05
2.6189e-05
2.19293e-05
1.28724e-05
6.53432e-06
4.37085e-06
2.36832e-05
4.53795e-05
2.48829e-05
3.65064e-05
3.60526e-05
3.1446e-05
2.47391e-05
1.69815e-05
9.68553e-06
5.62809e-06
2.28164e-05
4.5559e-05
2.76724e-05
4.26643e-05
4.21131e-05
3.65692e-05
2.89599e-05
1.98617e-05
1.21506e-05
6.98447e-06
2.26517e-05
4.57151e-05
3.14439e-05
4.57443e-05
4.72761e-05
4.10693e-05
3.4138e-05
2.42792e-05
1.49684e-05
8.49433e-06
2.28599e-05
4.7009e-05
3.5291e-05
5.41234e-05
5.32704e-05
4.51158e-05
3.81582e-05
2.88154e-05
1.81554e-05
1.01355e-05
2.33088e-05
4.87279e-05
3.96794e-05
6.44425e-05
6.44376e-05
4.39797e-05
4.04887e-05
3.19716e-05
2.09302e-05
1.16732e-05
2.41894e-05
5.04479e-05
4.46856e-05
7.60393e-05
7.68916e-05
5.35456e-05
4.49202e-05
3.45411e-05
2.31788e-05
1.29881e-05
2.56031e-05
5.17821e-05
4.85666e-05
8.97685e-05
9.09877e-05
6.66076e-05
4.61691e-05
3.66742e-05
2.53307e-05
1.42021e-05
2.73955e-05
5.26492e-05
4.97708e-05
0.000105532
0.000106851
7.98036e-05
5.06069e-05
3.92244e-05
2.80265e-05
1.57241e-05
2.93988e-05
5.38706e-05
4.34745e-05
0.00012299
0.000124731
9.3914e-05
5.96978e-05
4.40319e-05
3.17097e-05
1.79102e-05
3.15935e-05
5.6761e-05
4.49537e-05
0.000141396
0.000144613
0.000108325
7.52537e-05
4.64093e-05
3.53163e-05
2.06167e-05
3.40643e-05
6.37148e-05
7.00595e-05
0.000164747
0.000166581
0.000122118
7.69626e-05
5.0878e-05
3.96519e-05
2.40178e-05
3.67899e-05
6.89858e-05
9.17319e-05
0.000187644
0.000190185
0.000140165
8.01216e-05
6.04349e-05
4.5145e-05
2.76463e-05
3.97525e-05
7.03712e-05
8.31104e-05
0.000211057
0.000216159
0.000164293
0.000110269
7.51908e-05
4.82292e-05
3.03133e-05
4.30803e-05
7.19554e-05
6.65132e-05
0.000236296
0.000243744
0.000188826
0.00013064
8.58809e-05
5.08045e-05
3.20576e-05
4.58157e-05
7.70409e-05
9.40751e-05
0.000269296
0.00027373
0.000210998
0.000141814
9.1024e-05
5.19357e-05
3.35373e-05
4.88712e-05
8.81604e-05
0.000127452
0.000303835
0.000305997
0.000233876
0.000152312
9.47571e-05
5.38865e-05
3.55686e-05
5.23803e-05
9.99408e-05
0.000140443
0.000338639
0.000340437
0.000261072
0.000169621
9.80268e-05
5.81434e-05
3.85167e-05
5.62523e-05
0.000109617
0.000141522
0.000375485
0.000376932
0.000293432
0.000195332
0.000108891
6.48698e-05
4.25218e-05
6.0428e-05
0.000119055
0.000156127
0.000412573
0.00041609
0.000327801
0.000225301
0.000131533
7.5294e-05
4.58436e-05
6.48302e-05
0.000129562
0.000189163
0.000450643
0.000456693
0.00036313
0.000253671
0.000155033
8.81143e-05
5.01957e-05
6.94232e-05
0.000137678
0.000216797
0.000486822
0.000498028
0.000399498
0.000282561
0.000176713
0.000101876
5.52032e-05
7.4404e-05
0.000141957
0.000226108
0.000518192
0.000538893
0.00043691
0.000312861
0.000200925
0.000119004
6.05684e-05
8.00166e-05
0.000146844
0.000234496
0.000550364
0.000578856
0.000472359
0.000339687
0.00022379
0.000134844
6.50828e-05
8.63463e-05
0.000152927
0.000259052
0.000591691
0.000618864
0.000502648
0.000358365
0.000237015
0.000142888
6.74377e-05
9.3293e-05
0.000162288
0.000318937
0.000642339
0.000659859
0.000527362
0.000369036
0.000237503
0.000141909
6.73499e-05
0.000100758
0.000192479
0.000387946
0.000692331
0.000702143
0.000550192
0.000376344
0.000231623
0.000136042
6.63338e-05
0.000108573
0.000257369
0.000436201
0.000734433
0.000745985
0.000579052
0.000384886
0.000238031
0.000131075
6.62997e-05
0.000116407
0.000300846
0.000414361
0.000776577
0.000795438
0.00061491
0.000398152
0.000256696
0.000134999
7.03033e-05
0.00012405
0.000327088
0.000268025
0.000820936
0.00085294
0.000663523
0.00041968
0.000308973
0.000162246
8.14431e-05
0.000132779
0.000348538
0.000325356
0.000863079
0.000909956
0.0007246
0.000463762
0.000334057
0.000197022
9.57648e-05
0.000143897
0.00038049
0.000527426
0.000947479
0.000982307
0.00079507
0.000506781
0.000325436
0.000216172
0.000108312
0.0001574
0.000400536
0.000637382
0.00103714
0.00107368
0.000885987
0.000531031
0.000319186
0.000219062
0.000117283
0.000173742
0.000417428
0.000745481
0.00115132
0.00118995
0.000992437
0.000542066
0.000278695
0.00020795
0.00011985
0.00019393
0.000429201
0.000849887
0.0012938
0.00133314
0.00111869
0.000619072
0.000236363
0.000192191
0.000115999
0.00021808
0.00043697
0.000970751
0.0014724
0.00150659
0.00128675
0.000781535
0.000338175
0.000184067
0.000112753
0.000244536
0.000640372
0.00126239
0.00167586
0.00171049
0.00152196
0.00105064
0.000401521
0.000190493
0.000113739
0.000272506
0.000873929
0.00143989
0.00190695
0.00196595
0.00182461
0.00139556
0.000550179
0.000296006
0.00013997
0.000299648
0.00107293
0.00132553
0.00214801
0.00226129
0.00218361
0.00188089
0.00123257
0.000662335
0.000285331
0.000336672
0.00187827
0.00148348
0.00244146
0.00259257
0.00256535
0.00240042
0.00180139
0.00103644
0.000468501
0.000402902
)
;
    }
    inlet
    {
        type            turbulentIntensityKineticEnergyInlet;
        intensity       0.05;
        value           uniform 2.4e-05;
    }
    outlet
    {
        type            inletOutlet;
        inletValue      uniform 0.003;
        value           nonuniform List<scalar> 
20
(
0.00193614
0.00152644
0.003
0.003
0.003
0.003
0.00182008
0.00105023
0.000447891
0.000393758
0.00187827
0.00148348
0.003
0.003
0.003
0.003
0.00180139
0.00103644
0.000468501
0.000402902
)
;
    }
    heatWall
    {
        type            kqRWallFunction;
        value           nonuniform List<scalar> 
240
(
2.36693e-05
2.37035e-05
2.33499e-05
2.33987e-05
2.3076e-05
2.31008e-05
2.28151e-05
2.27906e-05
2.24428e-05
2.24083e-05
2.19011e-05