/*--------------------------------*- C++ -*----------------------------------*\
  =========                 |
  \\      /  F ield         | OpenFOAM: The Open Source CFD Toolbox
   \\    /   O peration     | Website:  https://openfoam.org
    \\  /    A nd           | Version:  8
     \\/     M anipulation  |
\*---------------------------------------------------------------------------*/
FoamFile
{
    version     2.0;
    format      ascii;
    class       volScalarField;
    location    "500";
    object      p_rgh;
}
// * * * * * * * * * * * * * * * * * * * * * * * * * * * * * * * * * * * * * //

dimensions      [1 -1 -2 0 0 0 0];

internalField   nonuniform List<scalar> 
1200
(
8015.53
8015.44
8015.42
8015.43
8015.46
8015.54
8015.65
8016.16
8016.77
8018.88
8020.25
8019.23
8014.69
8012.45
8009.58
8006.71
8004.33
8001.57
7999.14
7997.07
7993.8
7988.58
7980.17
7968.18
7950.28
7927.48
7882.37
7817.08
7766.3
7702.57
7655.18
7564.06
7362.07
7170.13
7071.67
6970.21
6812.84
6574.31
6312.77
6087.83
5895.53
5729.28
5591.4
5485.5
5411.24
5376.26
5343.6
5103.49
4606.14
4303.14
4159.15
3749.35
3437.54
3378.29
3485.22
3565.45
3248.59
1714.31
73.7915
267.201
8015.34
8015.35
8015.36
8015.39
8015.43
8015.52
8015.63
8016.23
8017.22
8019.95
8019.36
8015.95
8011.77
8012.57
8010.43
8007.67
8004.97
8001.92
7999.73
7997.35
7993.99
7989.12
7981.5
7968.93
7950.94
7928.73
7879.92
7811.23
7763.33
7701.63
7661.95
7579.04
7360.55
7161.31
7077.46
6984.96
6827.28
6584.65
6324.44
6106.39
5915.67
5736.5
5593.21
5494.56
5429.23
5398.01
5369.11
5113.47
4571.06
4294.36
4217.27
3798.61
3434.37
3345.34
3468.47
3569.71
3230.46
1481.15
-94.6903
360.951
8015.37
8015.4
8015.41
8015.42
8015.44
8015.52
8015.62
8016.63
8017.05
8017.53
8014.26
8011.99
8011.27
8012.76
8010.15
8006.63
8003.46
7999.89
7997.82
7994.65
7992.4
7987.73
7981.26
7968.94
7950.1
7928.2
7886
7820.91
7764.68
7698.74
7649.64
7562.13
7383.44
7186.96
7085.79
6993.88
6841.1
6623.52
6385.64
6170.25
5982.67
5802.56
5643.04
5524.03
5443.77
5385.93
5304.25
5046.78
4610.11
4307.57
4179.33
3833.81
3532.98
3409
3424.43
3398.64
3024.71
1665.26
487.927
220.057
8015.37
8015.37
8015.37
8015.38
8015.41
8015.46
8015.49
8016.13
8017.08
8017.27
8013.54
8014.23
8011.66
8011.24
8009.14
8006.92
8004.63
8000.77
7996.73
7992.3
7989.8
7986.38
7980.6
7968.65
7949.15
7928.42
7892.07
7838.14
7782.09
7707.61
7630.9
7546.33
7420.91
7264.28
7134.9
7014.46
6867.9
6692.96
6503.88
6312.17
6132.11
5958.18
5787.17
5619.79
5458.6
5310.84
5165.11
4954.71
4687.94
4467.73
4256.13
3933.41
3628.33
3408.19
3273.81
3091.01
2739.93
1896.98
1049.46
237.107
8015.38
8015.37
8015.37
8015.38
8015.39
8015.41
8015.38
8015.61
8015.79
8015.56
8013.02
8012.06
8011.3
8009.65
8008.76
8007.11
8006.38
8004.58
8001.3
7993.33
7990.76
7985.85
7979.62
7966.85
7946.13
7927.65
7894.24
7843.32
7786.72
7706.24
7612.8
7534.14
7445.59
7312.29
7170.09
7032.29
6887.66
6746.72
6599.39
6427.13
6248.82
6076.56
5900.03
5704.73
5492.47
5283.43
5100.5
4914.83
4721.52
4540.94
4304.23
4001.36
3685.67
3393.82
3153.82
2864.48
2526.61
2070.51
1475.79
452.813
8015.38
8015.37
8015.36
8015.36
8015.35
8015.35
8015.27
8015.17
8015.07
8014.56
8012.2
8012.21
8010.3
8008.88
8007.36
8006.59
8008.96
8010.17
8010.84
8006.97
7998.63
7990.73
7981.62
7967.09
7945.01
7925.5
7889.22
7839.69
7785.19
7700.19
7608.83
7531.35
7452.12
7323.52
7176.54
7036.4
6894.24
6768.84
6646.35
6489.53
6315.8
6145.94
5966.73
5754.86
5514.94
5274.21
5072.74
4910.95
4760.9
4592.03
4316.22
4011.94
3705.76
3402.65
3154.54
2848.46
2505.95
2190.86
1768.41
733.469
8015.38
8015.37
8015.35
8015.34
8015.32
8015.29
8015.16
8014.89
8014.29
8013.34
8011.17
8010.18
8009.46
8008.29
8007.19
8006.59
8008
8008.86
8010.16
8012.88
8010.67
8001.83
7989.72
7974.59
7952.37
7927.42
7888.24
7837.27
7781
7699.7
7610.8
7530.35
7442.05
7313.4
7174.97
7039.27
6895.82
6769.71
6652.97
6501.66
6335.7
6172.19
5994.38
5777.45
5528.59
5277.53
5066.44
4900.71
4766.12
4596.94
4314.6
4015.93
3697.45
3370.99
3085.39
2786.31
2410.31
2185.08
1853.28
857.868
8015.39
8015.39
8015.38
8015.36
8015.32
8015.26
8015.08
8014.72
8013.92
8012.69
8010.57
8009.31
8008.24
8007.19
8006.21
8005.72
8007.13
8008.34
8009.74
8011.81
8011.67
8006.58
7996.36
7982.89
7962.69
7935.35
7895.66
7843.67
7783.79
7705.93
7619.09
7535.11
7440.34
7314.2
7177.96
7041.95
6899.31
6771.45
6653.35
6506.49
6341.08
6173.97
5997.06
5779.74
5534.75
5290.88
5080.09
4909.61
4768.34
4591.62
4310.69
4001.69
3698.46
3386.41
3055.84
2717.15
2406.46
2196.7
1768.98
850.328
8015.35
8015.34
8015.33
8015.32
8015.28
8015.2
8015.01
8014.6
8013.73
8012.37
8010.29
8008.87
8007.71
8006.54
8005.55
8005.21
8006.35
8007.33
8008.5
8010.07
8010.05
8006.13
7997.55
7986
7968.33
7941.12
7901.26
7849.05
7787.78
7714.11
7630.05
7542.69
7444.87
7321.56
7185.61
7047.47
6907.32
6778.45
6653.01
6504.92
6341.75
6175.86
6002.29
5791.13
5550.49
5308.29
5096.09
4921
4767.36
4578.77
4304.01
3997.94
3691.85
3382.73
3059.73
2743.85
2408.09
2160.31
1737.22
850.677
8015.55
8015.44
8015.39
8015.36
8015.32
8015.23
8015.03
8014.6
8013.72
8012.31
8010.24
8008.7
8007.42
8006.2
8005.23
8004.97
8006.04
8007.1
8008.25
8009.41
8008.86
8004.65
7996.29
7984.97
7968.22
7941.55
7901.88
7849.69
7788.22
7715.95
7633.13
7545.34
7446.61
7325.13
7189.68
7050.8
6912.28
6783
6654.32
6507.08
6347.15
6180.23
6000.73
5787.4
5547.19
5305.89
5092.82
4915.01
4757.26
4569.19
4303.66
4002.77
3698.5
3392.85
3071.57
2754.58
2427.47
2159.33
1707.57
865.127
8015.53
8015.45
8015.43
8015.44
8015.44
8015.51
8015.62
8016.03
8016.66
8018.96
8020.5
8019.25
8014.75
8012.44
8009.47
8006.58
8004.23
8001.61
7999.16
7997.22
7993.87
7988.37
7980.04
7967.78
7949.79
7927.22
7882.56
7818.13
7766.49
7703.35
7655.73
7564.17
7362
7170.65
7072.64
6971.55
6814.26
6575.74
6314.36
6089.83
5897.63
5731.58
5593.83
5487.44
5412.5
5377.14
5345.63
5105.21
4608.47
4309.72
4164.86
3748.36
3440.3
3376.79
3483.03
3571.2
3243.59
1687.27
-40.2649
216.955
8015.34
8015.35
8015.38
8015.4
8015.42
8015.48
8015.57
8015.96
8016.56
8018.85
8018.54
8014.98
8011.26
8011.76
8009.7
8006.93
8004.07
8000.73
7997.92
7995.44
7992.5
7987.63
7980.44
7968.36
7950.56
7928.65
7880.77
7812.86
7764.34
7701.92
7661.57
7579.15
7361.67
7162.2
7077.54
6985.79
6828.88
6586.46
6325.49
6107.3
5917.18
5738.79
5595.53
5496.45
5430.59
5398.45
5372.27
5118.61
4579.38
4301.81
4221.81
3803.09
3434.75
3336.91
3462.25
3589.43
3268.21
1537.94
-111.105
449.697
8015.37
8015.41
8015.43
8015.44
8015.42
8015.46
8015.52
8016.28
8016.6
8017.12
8014.23
8011.72
8011.13
8012.46
8010.05
8006.45
8003.12
7999.09
7996.79
7993.8
7991.59
7986.96
7980.82
7968.84
7950.29
7928.46
7886.49
7822.22
7767.3
7700.58
7650.94
7563.38
7383.81
7187.71
7086.61
6995.22
6842.64
6624.46
6386.25
6170.91
5983.29
5802.87
5643.39
5524.74
5444.46
5386.96
5306.23
5049.88
4618.17
4322.32
4183.8
3824.51
3524.01
3404.38
3426.28
3433.62
3083.82
1697.02
405.146
231.27
8015.37
8015.39
8015.39
8015.39
8015.38
8015.4
8015.41
8015.88
8016.51
8016.87
8013.86
8014.2
8011.38
8011.39
8009.51
8007.56
8005.29
8001.14
7996.6
7992.43
7990.33
7986.77
7980.95
7969.29
7949.83
7928.97
7892.43
7838.79
7783.54
7709.28
7632.17
7547.24
7422.06
7265.56
7136.31
7016.37
6870.15
6695.09
6505.91
6314.72
6134.27
5959.69
5788.49
5621.78
5461.32
5313.21
5165.41
4951.41
4684.71
4466.49
4254.15
3931.73
3635.81
3420.26
3290.61
3111.52
2761.71
1926.23
1054
321.275
8015.38
8015.39
8015.4
8015.4
8015.38
8015.36
8015.33
8015.5
8015.65
8015.51
8013.18
8012.32
8011.49
8010.11
8009.29
8007.42
8006.61
8004.83
8001.9
7994.21
7991.78
7986.93
7980.51
7967.86
7947.07
7928.5
7894.76
7843.68
7788.12
7708.41
7614.48
7535.28
7447.1
7313.88
7171.64
7034.24
6890.23
6748.86
6601.22
6429.54
6251.34
6079.26
5903.08
5708.01
5495.52
5285.72
5101.75
4915.37
4723.66
4540.44
4302.35
4001.85
3697.01
3409.56
3178.77
2898.51
2563.93
2109.6
1487.79
467.865
8015.38
8015.39
8015.39
8015.38
8015.36
8015.33
8015.25
8015.15
8014.99
8014.52
8012.29
8012.07
8010.48
8009.02
8007.38
8006.67
8009.42
8010.66
8011.6
8008
7999.69
7991.91
7982.72
7968.34
7946.2
7926.63
7890.47
7840.53
7786.84
7702.15
7610.04
7532.45
7453.68
7325.36
7178.23
7038.2
6896.36
6770.87
6647.85
6490.9
6316.45
6147.18
5968.36
5756.65
5516.49
5275.23
5072.79
4910.47
4762.9
4591.63
4318.46
4010.69
3710.67
3417.22
3174.74
2868.58
2522.59
2219.39
1803.99
756.576
8015.38
8015.38
8015.37
8015.35
8015.33
8015.28
8015.16
8014.91
8014.32
8013.39
8011.28
8010.27
8009.54
8008.41
8007.29
8006.69
8007.99
8008.79
8010.28
8013.53
8011.56
8002.72
7990.5
7975.68
7953.54
7928.64
7889.49
7838.17
7782.08
7700.83
7611.93
7531.94
7443.67
7314.72
7176.68
7041.81
6897.97
6771.62
6653.83
6503.57
6337
6173.76
5996.27
5779.64
5531.07
5280.05
5068.09
4901.85
4768.75
4598.83
4313.49
4014.86
3705.55
3374.5
3101.95
2807.74
2426.14
2202.24
1873.51
864.269
8015.39
8015.4
8015.39
8015.36
8015.34
8015.27
8015.1
8014.76
8013.99
8012.76
8010.66
8009.41
8008.39
8007.34
8006.28
8005.78
8007.2
8008.42
8009.9
8011.95
8011.72
8006.62
7996.32
7983.07
7963.09
7935.98
7896.43
7844.22
7784.47
7706.88
7620.05
7536.25
7441.59
7315.61
7179.72
7044.13
6901.29
6773.05
6654.46
6507.31
6342.77
6175
5997.68
5780.25
5535.36
5291.69
5080.73
4910.08
4770.76
4592.96
4311.05
4002.93
3704.57
3398.33
3070.16
2736.18
2431.62
2223.09
1788.47
856.097
8015.35
8015.35
8015.33
8015.32
8015.29
8015.22
8015.04
8014.66
8013.82
8012.49
8010.42
8009.03
8007.89
8006.7
8005.66
8005.3
8006.32
8007.21
8008.42
8010.04
8010.03
8006.12
7997.47
7986.09
7968.53
7941.41
7901.55
7849.09
7787.9
7714.48
7630.57
7543.36
7445.56
7322.16
7186.1
7048.16
6907.86
6779.22
6653.91
6505.73
6343.02
6176.95
6003.05
5792.27
5551.85
5309.74
5097.28
4922.02
4769.92
4580.71
4303.21
3998.07
3697.89
3394.91
3074.1
2760.5
2423.7
2181.51
1745.22
862.187
8015.55
8015.45
8015.39
8015.36
8015.33
8015.24
8015.04
8014.64
8013.78
8012.39
8010.3
8008.77
8007.49
8006.23
8005.18
8004.88
8005.84
8006.89
8008.09
8009.29
8008.72
8004.48
7995.98
7984.77
7968.16
7941.56
7901.84
7849.31
7787.86
7715.78
7632.98
7545.26
7446.57
7324.99
7189.5
7050.71
6912.13
6783
6654.54
6507.39
6347.84
6180.87
6001.36
5788.33
5548.37
5307.27
5094.19
4916.63
4760.74
4572.43
4303.66
4003.47
3704.74
3404.77
3086.83
2772.89
2446.47
2182.46
1713.16
896.996
)
;

boundaryField
{
    wall
    {
        type            fixedFluxPressure;
        gradient        nonuniform List<scalar> 
1200
(
-0.624652
0.028609
0.260765
0.0341483
-0.230429
-0.19599
0.118856
0.428316
0.288396
0.508789
-1.58906
-1.37977
-2.6306
-2.57579
-3.08093
-2.7805
-1.98772
-1.82682
-1.10354
-1.41215
-3.04955
-3.00074
-4.94604
-3.85837
-5.27585
-4.94695
-3.17436
-2.93855
-0.868641
-0.528478
-1.96464
-2.59075
-3.5425
-2.2359
-4.22139
-3.94496
-1.64787
-0.921926
0.893888
1.51896
2.3428
2.70347
4.22378
4.23737
1.43678
-1.51238
-1.93437
-3.38506
-2.45503
-2.32662
6.5031
8.00838
12.1562
11.4973
10.1126
5.25285
1.51684
-2.19054
-2.79313
-2.20762
5.77861
10.7198
20.1464
14.9983
9.79221
3.50905
-0.43654
-3.71532
-4.77395
-2.55405
27.2637
52.5456
65.7192
45.4066
19.7138
3.25587
-4.35201
-8.54815
-12.5484
-8.77463
21.4214
132.831
88.6221
110.024
23.0812
11.7517
-9.1786
-13.7968
-17.618
-11.6434
-17.8988
219.072
80.8821
76.0825
5.48495
3.98691
-14.1521
-15.6687
-24.1022
-14.5123
-57.2225
160.651
11.0085
-64.0237
-32.008
-18.9138
-21.273
-18.2998
-25.1259
-10.6709
-13.1151
194.741
60.5213
10.0046
-58.6084
25.1232
-15.909
-18.2965
-30.7814
-13.8164
-17.4602
113.487
26.9443
56.0564
-38.4578
-38.2945
-15.6592
-25.9072
-35.2748
-13.2365
0.645426
164.049
62.6184
-31.077
-96.1036
-30.1278
-24.5053
-28.143
-32.9928
-5.76955
23.4827
145.89
22.0048
-75.8703
-104.784
-4.85652
-21.6203
-15.028
-22.3399
9.95035
26.0953
149.723
36.8377
-127.09
-59.9612
-17.0452
-22.974
-17.3537
-18.1157
19.7068
17.603
181.727
66.638
-134.745
-45.37
-86.6846
2.15885
-18.4775
6.04095
39.5359
-11.224
245.724
156.803
-82.0281
-46.9083
-90.1594
15.274
-17.4475
24.3794
41.3043
-5.89245
360.272
203.677
19.8826
-123.239
-137.691
-22.2338
-28.7062
18.0951
31.8849
-32.045
382.796
181.003
-31.0343
-198.857
-196.534
-117.291
-21.5197
8.30402
25.5245
-17.3339
296.474
158.675
-107.412
-222.983
-222.48
-166.344
2.37249
6.91036
27.5577
41.2532
294.669
154.561
-79.9665
-225.045
-244.149
-172.34
6.70843
7.43664
36.4698
27.5507
210.117
86.2657
-72.5833
-176.785
-226.447
-154.622
22.1052
27.3447
63.4952
81.1981
115.939
21.1441
-131.764
-200.256
-260.491
-220.403
-22.9609
-2.23635
47.2157
98.6801
83.6966
-34.6348
-135.056
-214.829
-252.684
-240.219
-67.8519
-20.6195
23.2691
48.1423
17.4968
-49.0181
-118.231
-176.658
-228.024
-253.632
-117.453
-37.5189
13.6332
-48.7538
-144.89
-91.6657
-80.2801
-111.076
-232.592
-262.521
-146.595
-42.1627
24.7054
-219.692
-284.606
-248.373
-145.377
-68.7462
-167.523
-201.987
-105.941
7.91563
91.7574
-27.7332
-186.766
-499.831
-309.232
-282.005
-317.09
-225.843
-132.472
-11.128
87.9274
-160.376
-114.314
-356.255
-349.233
-422.121
-395.448
-234.447
-189.588
-56.6459
52.7517
-103.335
14.6291
-255.932
-259.43
-318.891
-249.586
-228.299
-194.052
-84.8119
45.5336
-14.3357
-74.0321
-221.31
-185.649
-241.052
-239.946
-323.795
-224.194
-121.393
28.166
22.0415
-145.725
-48.981
-236.264
-333.914
-347.766
-301.828
-246.691
-125.039
21.6494
-97.2318
-133.183
-78.5934
-263.743
-346.924
-356.153
-271.018
-291.703
-107.737
43.5028
-175.338
-39.0176
-123.628
-284.212
-333.623
-338.264
-343.544
-368.357
-93.4368
50.0678
-240.581
-177.077
-273.539
-381.142
-418.624
-367.517
-501.87
-446.343
-131.451
33.3087
-259.52
-307.944
-290.912
-452.487
-551.857
-443.99
-443.972
-412.307
-98.5853
49.4213
-245.515
-302.039
-162.496
-425.675
-472.682
-465.931
-408.215
-327.389
-141.597
20.8657
-269.178
-135.538
-93.3957
-396.77
-419.41
-385.759
-218.671
-214.481
-171.374
-24.7112
-350.406
-124.086
-87.3032
-505.266
-527.708
-343.773
-415.3
-160.612
-156.158
-45.8859
-377.134
-230.344
-111.953
-444.771
-538.267
-168.829
-303.596
-352.265
-247.952
-119.663
-411.873
-369.711
-77.4775
-330.113
-564.428
-275.704
-392.062
-213.962
-210.997
-113.51
-425.938
-370.16
-81.2039
-294.763
-626.989
-345.677
-448.928
-134.958
-128.05
-124.258
-346.599
-270.009
-163.692
-412.196
-667.968
-373.214
-499.818
-83.9782
-195.337
-186.888
-231.589
-166.791
-205.774
-511.891
-617.291
-318.665
-548.846
-106.158
-240.056
-236.375
-187.763
-60.2866
-277.439
-385.051
-471.26
-216.516
-534.419
-166.349
-263.158
-275.882
-426.082
-819.915
-353.964
81.8061
-292.947
-55.1953
-355.867
-150.584
-217.044
-272.148
-388.566
-1208.08
-537.372
793.877
-152.877
7.91069
-257.277
-121.577
-193.289
-321.478
-464.472
-1476.07
-1670.91
684.53
-425.97
-492.35
-555.8
-524.921
-512.474
-690.464
-1293.21
-1665.91
-2778.71
209.802
135.764
7.98714
-401.612
-303.005
-389.63
-632.847
-1035.85
-1142.57
-671.984
369.42
406.922
-433.924
265.08
-87.2789
172.932
29.1542
275.654
-804.366
2044.29
307.568
-112.333
269.683
187.714
-255.387
-4.21691
-94.9235
-550.272
69.6853
1803.74
-1567.5
-2324.89
-929.654
-1679.3
-1241.07
-1192.59
-1189.35
256.562
1944.53
809.569
-2483.4
-3087.09
-2884.81
-757.607
-2384.38
-2477.59
-2328.26
429.7
1373.97
-450.032
-3421.79
-4874.95
-3758.35
-3301.23
-2918.16
-2940.94
-3021.57
-1103.19
-4123.45
-7087.98
-4060.72
-6652.11
-3928.2
-4061.74
-3903.44
-3322.33
-3640.71
926.257
-7972.76
-12128.4
-4359.83
-7540.2
-3350.93
-2843.88
-5042.03
-3143.4
-3786.79
5761.62
-11230.4
-6543.73
-6026.23
-7998.3
-5897.54
-3387.46
-5087.83
-4259.69
-4611.98
23606.1
4088.41
16509.1
-1300.3
-2427.69
-7435.28
-4364.8
-3900.39
-1355.51
-1036.61
11165.1
-19322.4
-1547.36
-17352.8
-2789.32
-4839.39
-1328.08
-1148.46
-2066.92
-6236.6
0.624658
-0.0286055
-0.260763
-0.0341443
0.230431
0.19599
-0.118858
-0.428317
-0.28839
-0.508789
1.58929
1.37997
2.63102
2.57621
3.08137
2.7809
1.98808
1.82714
1.1036
1.41172
3.04943
3.00108
4.94798
3.85959
5.27606
4.94694
3.17483
2.93948
0.868593
0.526499
1.9606
2.59053
3.54624
2.23502
4.21284
3.93546
1.64422
0.922623
-0.894089
-1.52025
-2.35217
-2.70574
-4.21805
-4.2418
-1.46113
1.48673
1.92475
3.38551
2.45524
2.32787
-6.51832
-8.0119
-12.1458
-11.4975
-10.1413
-5.2935
-1.53686
2.18487
2.79409
2.21328
-5.78792
-10.7222
-20.1469
-14.9976
-9.79526
-3.53429
0.415562
3.70031
4.77084
2.55834
-27.2867
-52.5889
-65.828
-45.4714
-19.7266
-3.26135
4.32973
8.52844
12.5353
8.76804
-21.5322
-132.946
-88.7637
-110.161
-23.1409
-11.7686
9.1884
13.7786
17.6004
11.6052
17.8571
-219.137
-80.8155
-75.9475
-5.44561
-3.98001
14.1555
15.7203
24.09
14.4482
57.2554
-160.285
-10.7663
64.2136
32.1097
18.9449
21.279
18.3014
25.1247
10.6428
13.1788
-194.499
-59.4724
-10.2548
54.0803
-25.0919
15.92
18.2909
30.7459
13.825
17.4774
-113.47
-26.7372
-58.7039
37.8361
36.2917
15.6613
25.8858
35.0884
13.2875
-0.621221
-163.838
-62.7171
30.7158
92.9941
29.6178
24.3654
28.1028
32.7325
5.88771
-23.4812
-145.952
-22.3068
75.9691
104.382
4.72385
21.9962
15.0277
22.1406
-9.74281
-26.0956
-149.863
-36.763
127.26
60.072
18.3386
23.4384
16.9398
17.9285
-19.4204
-17.6263
-181.929
-66.4916
134.917
45.3911
87.2119
-1.41689
17.478
-6.18824
-39.1964
11.1954
-246.004
-156.686
82.1757
46.901
88.804
-15.2463
16.703
-24.3071
-40.8334
5.96209
-360.498
-203.818
-19.8131
123.357
137.172
22.0816
28.1516
-17.8264
-31.5605
32.2663
-382.407
-180.859
31.001
198.975
196.777
115.026
19.7168
-8.23965
-25.4536
17.5848
-296.177
-158.625
107.012
222.819
221.812
160.839
-4.35955
-7.06951
-27.4212
-41.0692
-294.568
-154.459
78.7463
224.43
240.979
170.63
-7.3243
-6.60871
-36.1349
-27.295
-209.926
-86.1622
72.7093
176.634
223.26
154.04
-20.4517
-24.8223
-62.708
-81.0389
-115.839
-19.8748
133.743
200.378
257.447
219.655
26.2931
6.54166
-46.1012
-98.6871
-83.442
36.5573
139.374
214.487
253.466
238.781
72.1731
26.2271
-23.5227
-48.0166
-17.0896
51.1208
124.84
176.814
226.577
251.418
121.592
44.0789
-16.6319
48.7667
145.287
94.3145
88.1185
111.948
230.663
258.675
149.88
49.3542
-27.5508
220.616
285.093
250.456
152.852
70.2081
165.171
199.043
108.494
-0.135129
-92.7678
32.8771
186.188
507.134
317.55
287.154
316.651
222.977
135.483
19.8591
-87.712
162.596
76.4681
366.438
358.788
429.991
395.733
229.931
194.619
65.4226
-53.8885
97.0751
-20.4518
271.604
272.073
325.494
245.891
227.476
199.16
92.3887
-50.4404
9.22723
75.5911
238.576
199.534
244.66
237.993
322.812
229.807
127.869
-34.436
-25.1508
148.961
66.0803
251.28
341.671
348.241
302.739
256.041
131.927
-28.5123
97.9388
134.539
92.0812
279.725
361.013
359.933
275.934
293.664
112.643
-50.1861
175.298
38.9396
136.606
302.983
352.255
344.318
343.738
361.437
94.8789
-54.423
239.547
176.736
295.776
402.584
436.671
372.518
501.211
427.904
132.558
-32.1085
255.39
307.847
324.206
474.674
568.169
446.129
432.05
395.22
105.069
-43.1958
244.025
303.44
201.564
448.352
492.104
466.567
394.362
326.116
153.5
-13.2519
270.994
136.21
125.52
420.799
441.516
387.659
216.872
215.613
182.459
32.4332
352.724
123.87
107.163
530.738
551.691
348.233
415.833
153.842
168.222
52.589
377.369
229.852
119.477
470.437
565.885
176.073
303.903
351.891
263.912
123.303
408.941
368.322
64.4003
353.254
596.544
285.757
392.245
221.813
221.479
114.855
421.697
368.037
42.3353
312.014
660.644
359.231
449.422
135.95
124.258
124.163
339.889
269.791
107.404
423.569
697.871
388.751
500.684
84.9001
171.327
184.577
241.755
168.703
148.539
524.34
635.362
331.365
549.767
106.823
207.862
233.557
210.416
60.3124
241.019
406.059
461.491
217.551
534.75
166.702
238.649
277.145
450.187
818.034
317.969
-62.4009
247.846
33.3941
354.877
150.65
211.024
281.487
398.19
1203.68
503.014
-788.3
74.9745
-54.407
255.674
121.403
207.358
340.645
469.441
1471.46
1653.19
-680.813
343.018
428.118
554.729
524.624
540.947
719.168
1295.54
1667.12
2720.33
-199.767
-184.548
-51.6669
400.375
302.768
422.435
669.424
1037.97
1146.05
642.326
-343.509
-417.931
434.761
-268.149
87.1901
-148.853
8.28054
-369.909
798.636
-2087.97
-265.463
138.384
-274.55
-190.139
255.353
12.5656
121.29
547.882
-104.368
-1882.34
1609.49
2376.48
923.408
1677.2
1255.61
1193.13
1201.46
-263.93
-2031.52
-908.821
2495.12
3125.57
2880.27
761.711
2408.36
2481.39
2332.89
-440.99
-1514.63
421.461
3389.28
4835.7
3757.03
3342.74
2964.74
2946.08
3031.71
1090.64
4111.99
7116.84
3936.01
6554.66
3924.76
4092.23
4058.89
3340.78
3659.49
-986.764
8006.91
12096.7
4125.64
7363.98
3231.04
2893.75
5146.94
3193.17
3815.81
-5719.58
11242.8
6458.6
5657.39
7823.12
5783.77
3460.66
5168.91
4310.84
4647.2
-23597.7
-4083.55
-16750.6
860.992
2259.88
7399.48
4376.61
4124.08
1589.35
1134.45
-11205.4
19324.3
1535.75
17343.1
2785.17
4838.79
1330.11
1447.49
2338.07
6421.39
)
;
        value           nonuniform List<scalar> 
1200
(
8015.53
8015.34
8015.38
8015.37
8015.38
8015.38
8015.38
8015.39
8015.36
8015.55
8015.44
8015.34
8015.39
8015.37
8015.37
8015.37
8015.37
8015.39
8015.34
8015.44
8015.41
8015.35
8015.39
8015.36
8015.36
8015.35
8015.34
8015.37
8015.33
8015.39
8015.42
8015.38
8015.41
8015.37
8015.36
8015.35
8015.34
8015.36
8015.32
8015.37
8015.46
8015.44
8015.46
8015.42
8015.39
8015.35
8015.31
8015.31
8015.27
8015.31
8015.56
8015.54
8015.55
8015.49
8015.44
8015.37
8015.29
8015.25
8015.2
8015.23
8015.67
8015.65
8015.67
8015.52
8015.4
8015.28
8015.15
8015.08
8015
8015.02
8016.23
8016.36
8016.79
8016.24
8015.66
8015.18
8014.88
8014.7
8014.57
8014.58
8016.82
8017.56
8017.28
8017.35
8015.84
8015.1
8014.26
8013.88
8013.69
8013.69
8018.83
8020.49
8017.73
8017.45
8015.57
8014.57
8013.3
8012.65
8012.31
8012.28
8020.09
8019.76
8014.3
8013.38
8012.94
8012.15
8011.12
8010.52
8010.23
8010.22
8019.18
8016.44
8012.15
8014.26
8011.91
8012.27
8010.14
8009.26
8008.8
8008.67
8014.65
8012.06
8011.33
8011.81
8011.2
8010.2
8009.42
8008.17
8007.62
8007.39
8012.45
8012.97
8012.92
8011.16
8009.41
8008.8
8008.23
8007.12
8006.45
8006.18
8009.64
8010.79
8010.21
8008.95
8008.5
8007.35
8007.14
8006.17
8005.49
8005.25
8006.78
8008.05
8006.73
8006.61
8006.97
8006.54
8006.53
8005.68
8005.17
8005.02
8004.37
8005.43
8003.63
8004.29
8006.26
8008.75
8008
8007.09
8006.37
8006.14
8001.54
8002.54
8000.28
8000.55
8004.47
8009.95
8008.9
8008.3
8007.39
8007.21
7999.12
8000.63
7998.32
7996.77
8000.99
8010.5
8010.11
8009.67
8008.55
8008.33
7997
7998.31
7995.11
7992.22
7992.82
8006.47
8012.59
8011.76
8010.09
8009.48
7993.76
7994.72
7992.79
7989.52
7990.16
7998.07
8010.27
8011.69
8010.07
8008.92
7988.69
7989.84
7988.13
7986.18
7985.26
7990.12
8001.41
8006.61
8006.15
8004.74
7980.24
7982.01
7981.48
7980.42
7979.16
7981.04
7989.34
7996.43
7997.64
7996.44
7968.39
7969.23
7968.99
7968.31
7966.36
7966.43
7974.04
7982.85
7986.02
7985.09
7950.52
7951.16
7950.02
7948.81
7945.57
7944.34
7951.76
7962.54
7968.31
7968.29
7927.59
7928.78
7928.08
7928.11
7927.19
7924.89
7926.77
7935.07
7941.06
7941.61
7882.24
7879.62
7885.79
7891.84
7893.95
7888.65
7887.56
7895.3
7901.18
7901.97
7816.53
7810.61
7820.34
7837.73
7843.15
7839.27
7836.72
7843.41
7849.1
7849.95
7766.22
7762.91
7763.56
7781.28
7786.01
7784.4
7780.41
7783.46
7787.77
7788.46
7702.18
7701.33
7697.94
7706.71
7705.2
7699.2
7699.11
7705.44
7714
7716.11
7654.96
7661.85
7649.02
7630.26
7612.02
7608.21
7610.22
7618.59
7629.86
7633.28
7564.04
7578.78
7561.61
7545.87
7533.53
7530.73
7529.5
7534.54
7542.4
7545.46
7362.13
7360.29
7383.33
7420.31
7444.72
7451.22
7441.3
7439.68
7444.56
7446.72
7169.9
7161.02
7186.79
7263.61
7311.39
7322.64
7312.71
7313.43
7321.29
7325.29
7071.27
7077.32
7085.44
7134.2
7169.25
7175.72
7174.12
7177.04
7185.37
7189.85
6969.64
6984.44
6993.14
7013.54
7031.26
7035.5
7038.02
7040.87
7047.15
7050.91
6812.2
6826.39
6840.42
6866.81
6886.28
6893.13
6894.71
6898.32
6907.08
6912.43
6573.71
6583.89
6623.09
6691.94
6745.54
6767.64
6768.69
6770.67
6778.09
6783.07
6312.12
6324.13
6385.28
6502.95
6598.32
6645.38
6652.43
6652.81
6652.59
6654.28
6086.97
6106.05
6169.9
6310.98
6425.79
6488.7
6500.69
6506.1
6504.53
6506.97
5894.59
5914.98
5982.21
6131.05
6247.52
6315.41
6334.96
6340.23
6341.14
6346.86
5728.26
5735.38
5802.14
5957.4
6075.25
6145.29
6171.22
6173.49
6175.4
6179.95
5590.35
5592.07
5642.56
5786.5
5898.61
5965.92
5993.31
5996.9
6002.1
6000.41
5484.61
5493.64
5523.29
5618.89
5703.23
5753.99
5776.28
5779.77
5790.84
5786.94
5410.56
5428.48
5442.88
5457.6
5491.11
5514.21
5527.3
5534.67
5550.09
5546.62
5375.56
5397.15
5385.1
5310.34
5282.39
5273.68
5276.28
5290.56
5307.78
5305.23
5342.18
5366.08
5303.57
5165.86
5099.8
5072.47
5065.57
5079.73
5095.62
5092.15
5102.19
5110.12
5045.43
4957.01
4914.49
4910.71
4900.04
4909.26
4920.5
4914.2
4604.8
4567.96
4605.65
4689.57
4720.58
4759.43
4764.65
4766.92
4765.99
4755.51
4299.83
4289.9
4301.23
4468.03
4541.4
4591.86
4595.85
4590.76
4577.72
4567.58
4156.68
4214.02
4178.19
4256.92
4305.42
4315.03
4315.35
4310.46
4304.45
4303.74
3750.04
3796.68
3839.27
3934.07
4001.21
4012.64
4016.1
4001.08
3997.97
4002.61
3436.09
3434.72
3537.32
3624.28
3680.13
3703.61
3692.97
3695.23
3688.85
3695.65
3378.77
3350.54
3410.5
3401.99
3386.65
3395.98
3368.93
3380.25
3376.39
3387.12
3486.13
3471.86
3423.05
3265.5
3142.09
3145.85
3077.15
3047.97
3052.26
3063.98
3562.89
3558.69
3380.86
3081.28
2847.97
2839.28
2776.84
2706.64
2735.56
2745.41
3251.4
3209.34
2993.39
2729.21
2507.6
2497.96
2403.54
2393.77
2400.02
2417.89
1730.21
1453.68
1648.5
1881.62
2050.15
2174.83
2176.97
2184.62
2149.7
2147.63
135.169
-82.5375
529.122
1044.66
1469.63
1748.9
1841.5
1759.15
1734.07
1704.99
298.512
308.499
218.22
192.217
446.528
720.68
854.081
847.054
845.294
849.564
8015.53
8015.34
8015.37
8015.37
8015.38
8015.38
8015.38
8015.39
8015.35
8015.54
8015.45
8015.36
8015.42
8015.39
8015.4
8015.4
8015.39
8015.41
8015.35
8015.45
8015.44
8015.38
8015.44
8015.4
8015.41
8015.4
8015.38
8015.4
8015.34
8015.39
8015.44
8015.41
8015.45
8015.4
8015.41
8015.39
8015.35
8015.37
8015.31
8015.35
8015.44
8015.41
8015.41
8015.37
8015.38
8015.37
8015.33
8015.35
8015.3
8015.34
8015.49
8015.46
8015.43
8015.37
8015.34
8015.31
8015.27
8015.27
8015.23
8015.25
8015.61
8015.55
8015.47
8015.37
8015.31
8015.24
8015.16
8015.11
8015.05
8015.05
8015.96
8015.83
8016.11
8015.76
8015.45
8015.14
8014.92
8014.78
8014.69
8014.67
8016.6
8016.22
8016.38
8016.23
8015.59
8014.96
8014.35
8014.02
8013.86
8013.81
8019.01
8018.3
8016.92
8016.69
8015.5
8014.52
8013.43
8012.8
8012.55
8012.42
8020.65
8018.15
8014.2
8014.02
8013.26
8012.34
8011.33
8010.71
8010.48
8010.33
8019.3
8014.49
8011.56
8014.17
8012.46
8012.01
8010.31
8009.46
8009.11
8008.8
8014.8
8010.97
8011.07
8011.22
8011.59
8010.57
8009.58
8008.46
8007.98
8007.52
8012.44
8011.36
8012.3
8011.47
8010.35
8009.09
8008.47
8007.42
8006.78
8006.24
8009.41
8009.34
8009.99
8009.71
8009.55
8007.39
8007.34
8006.32
8005.71
8005.16
8006.51
8006.55
8006.36
8007.87
8007.57
8006.72
8006.75
8005.83
8005.34
8004.83
8004.19
8003.61
8002.95
8005.63
8006.73
8009.63
8007.99
8007.24
8006.3
8005.74
8001.64
8000.11
7998.7
8001.35
8004.94
8010.88
8008.75
8008.46
8007.14
8006.79
7999.17
7997.02
7996.28
7996.57
8002.21
8011.93
8010.33
8009.97
8008.38
8008.01
7997.29
7994.49
7993.34
7992.52
7994.73
8008.5
8013.8
8012
8010.02
8009.23
7993.91
7991.76
7991.19
7990.61
7992.37
8000.25
8011.95
8011.7
8010.01
8008.65
7988.26
7986.91
7986.57
7986.97
7987.52
7992.51
8003.13
8006.59
8006.1
8004.39
7979.96
7979.92
7980.61
7981.13
7980.96
7983.28
7990.88
7996.25
7997.39
7995.83
7967.57
7968.06
7968.79
7969.63
7968.36
7969
7976.23
7983.12
7986.08
7984.65
7949.54
7950.34
7950.38
7950.18
7947.62
7946.87
7954.14
7963.25
7968.57
7968.1
7927.11
7928.6
7928.58
7929.29
7928.95
7927.23
7929.29
7936.27
7941.49
7941.5
7882.7
7881.07
7886.7
7892.68
7895.06
7891.04
7890.16
7896.79
7901.65
7901.75
7818.67
7813.49
7822.81
7839.22
7843.87
7840.94
7838.71
7844.49
7849.06
7849.07
7766.57
7764.76
7768.44
7784.37
7788.84
7787.63
7782.66
7784.81
7787.92
7787.62
7703.74
7702.17
7701.41
7710.2
7709.46
7703.14
7701.41
7707.38
7714.62
7715.62
7655.94
7661.66
7651.6
7632.85
7615.28
7610.65
7612.5
7620.56
7630.78
7632.83
7564.18
7579.42
7563.95
7547.74
7535.91
7533.07
7532.78
7536.84
7543.66
7545.15
7361.93
7361.94
7383.97
7422.69
7447.99
7454.58
7444.42
7442.27
7445.88
7446.46
7170.88
7162.48
7187.9
7266.28
7314.81
7326.25
7315.42
7316.37
7322.44
7324.82
7073.04
7077.68
7086.99
7137.05
7172.52
7179.08
7177.53
7180.61
7186.34
7189.33
6972.12
6986.32
6996.02
7017.35
7035.32
7039.11
7043.05
7045.15
7048.49
7050.61
6814.9
6829.77
6843.41
6871.3
6891.64
6897.48
6899.04
6902.24
6908.12
6912
6576.33
6587.22
6624.99
6696.17
6750.09
6772.07
6772.6
6773.82
6779.6
6782.95
6315.01
6325.8
6386.68
6506.9
6602.36
6648.83
6654.34
6654.99
6654.36
6654.61
6090.69
6107.64
6171.32
6315.98
6430.94
6491.74
6504.53
6507.68
6506.15
6507.51
5898.56
5917.86
5983.77
6135.4
6252.71
6316.86
6337.73
6343.62
6343.65
6348.14
5732.59
5739.91
5803.28
5960.53
6080.65
6147.85
6174.74
6175.47
6177.41
6181.16
5594.89
5596.68
5643.8
5789.22
5904.59
5969.2
5997.34
5997.83
6003.19
6001.68
5488.34
5497.36
5525.38
5622.73
5709.57
5757.55
5780.81
5780.22
5792.49
5788.79
5413.21
5431.34
5445.24
5462.36
5496.91
5517.25
5532.36
5535.43
5552.18
5548.94
5377.87
5399.3
5387.72
5313.76
5286.73
5275.76
5281.3
5292.01
5310.22
5307.95
5347.08
5375.29
5306.82
5164.7
5102.34
5073
5068.95
5081.09
5097.76
5094.88
5106.53
5121.95
5051.11
4949.11
4915.52
4910.58
4902.5
4910.42
4922.56
4917.49
4609.79
4582.47
4622.56
4683.08
4724.41
4764.2
4770.21
4772.19
4771.34
4762.56
4313.01
4306.27
4328.55
4466.21
4539.86
4591.66
4599.91
4593.81
4581.82
4574.12
4167.3
4225.06
4184.85
4253.42
4301.14
4319.6
4312.74
4311.28
4302.8
4303.66
3747.51
3805
3818.92
3931.19
4002.08
4009.99
4014.69
4003.54
3998.05
4003.69
3441.69
3434.3
3519.46
3639.98
3702.69
3712.82
3710.02
3707.84
3700.89
3707.61
3376.21
3331.48
3402.62
3426.51
3416.82
3423.89
3376.57
3404.53
3401.23
3410.51
3482.03
3458.54
3427.56
3298.84
3190.38
3183.43
3110.29
3078.11
3081.57
3094.45
3573.68
3600.42
3451.45
3120.94
2914.74
2877.75
2817.28
2747.01
2768.87
2782.12
3240.68
3289.4
3115.09
2771.86
2582.5
2530.27
2433.05
2444.48
2431.91
2456.13
1671.51
1565.46
1713.72
1940.67
2129.54
2235.15
2210.55
2235.36
2192.25
2194.25
-101.611
-123.247
363.384
1057.78
1493.59
1823.45
1885.35
1798.91
1749.01
1716.02
185.531
502.159
233.075
366.14
474.141
769.365
868.06
860.103
868.266
913.063
)
;
    }
    inlet
    {
        type            fixedFluxPressure;