/*--------------------------------*- C++ -*----------------------------------*\
  =========                 |
  \\      /  F ield         | OpenFOAM: The Open Source CFD Toolbox
   \\    /   O peration     | Website:  https://openfoam.org
    \\  /    A nd           | Version:  8
     \\/     M anipulation  |
\*---------------------------------------------------------------------------*/
FoamFile
{
    version     2.0;
    format      ascii;
    class       volVectorField;
    location    "500";
    object      U;
}
// * * * * * * * * * * * * * * * * * * * * * * * * * * * * * * * * * * * * * //

dimensions      [0 1 -1 0 0 0 0];

internalField   nonuniform List<vector> 
1200
(
(0.0799502 -0.0054233 -0.000317279)
(0.0801896 -0.00391142 -0.00130873)
(0.079777 -0.00299473 -0.00321947)
(0.079052 -0.00230139 -0.0044523)
(0.0779266 -0.00177463 -0.00294422)
(0.0762327 -0.00121019 0.00127555)
(0.0721282 -0.00047491 0.0050898)
(0.0698006 -9.65412e-06 0.0255723)
(0.0764194 -0.00331603 0.0638413)
(0.0946293 -0.0132304 0.106687)
(0.107413 -0.0128045 0.100918)
(0.108454 -0.00463475 0.106684)
(0.110319 0.00541796 0.110097)
(0.113447 0.0102135 0.118218)
(0.116748 0.0120582 0.128265)
(0.115334 0.0100046 0.137422)
(0.117223 0.00571962 0.14593)
(0.128318 0.00167501 0.153592)
(0.139875 0.00438099 0.173784)
(0.150077 0.00555071 0.190029)
(0.162299 0.00375928 0.214898)
(0.183121 0.000843562 0.254444)
(0.209738 -0.000404968 0.271894)
(0.238084 -0.000149535 0.287504)
(0.272528 0.000270534 0.298535)
(0.310817 0.00226368 0.288474)
(0.341092 0.00531599 0.261676)
(0.362452 0.00183373 0.214344)
(0.378231 -0.00518253 0.183707)
(0.406378 -0.00962681 0.145639)
(0.458699 -0.0214557 0.124764)
(0.556573 -0.0300869 0.119434)
(0.660371 -0.005704 0.116937)
(0.689904 0.013016 0.102166)
(0.658602 0.000909804 0.0823406)
(0.662456 -0.0194083 0.0637825)
(0.71766 -0.0276924 0.0595871)
(0.811827 -0.0217808 0.0607501)
(0.903041 -0.0139037 0.0537515)
(0.965483 -0.0144227 0.0384372)
(1.01832 -0.0178413 0.0208314)
(1.08083 -0.0103818 0.00127242)
(1.10952 0.0017931 -0.0179643)
(1.07942 0.00841122 -0.0320594)
(0.989871 0.00558376 -0.0390057)
(0.910239 -0.00591071 -0.0378838)
(0.978597 -0.0166798 -0.0028343)
(1.20264 -0.0184429 0.0640593)
(1.45747 0.0133931 0.0761875)
(1.60838 0.0173993 0.0347055)
(1.68012 -0.0263693 0.00851314)
(1.82327 -0.0509641 0.0175851)
(1.83708 -0.037634 0.0038226)
(1.6968 -0.00149653 0.0116325)
(1.4643 0.0267763 0.0242107)
(1.40942 0.0225937 -0.0238246)
(1.3835 -0.0342639 0.117068)
(1.8013 0.0436404 0.398826)
(2.19063 0.195298 1.1067)
(1.69573 0.207967 2.1647)
(0.0801399 0.00207136 -3.2658e-05)
(0.080005 0.00256669 -0.000919893)
(0.0797096 0.00251807 -0.00280922)
(0.0792397 0.00244806 -0.00443716)
(0.0784492 0.00251173 -0.00272664)
(0.077182 0.00272388 0.00238596)
(0.0733543 0.00294643 0.0092772)
(0.069329 -0.0020642 0.0531601)
(0.0757738 -0.00383316 0.198012)
(0.0577906 0.00244999 0.395062)
(-0.0170959 0.0113051 0.455768)
(-0.0380683 0.00260323 0.415298)
(-0.0298254 -0.00846278 0.341415)
(-0.0184615 -0.0144063 0.287806)
(-0.00199753 -0.0131345 0.206327)
(0.0260357 -0.0101369 0.168833)
(0.0447136 -0.0114353 0.214368)
(0.0624569 -0.0120993 0.31099)
(0.0721865 -0.0157039 0.456469)
(0.0745933 -0.0184208 0.521571)
(0.0732726 -0.0215627 0.5115)
(0.0765767 -0.0230518 0.495259)
(0.0790802 -0.0241403 0.408386)
(0.0805723 -0.0268413 0.324312)
(0.0959195 -0.0289855 0.275311)
(0.115038 -0.0314569 0.212678)
(0.13413 -0.0353703 0.13771)
(0.187723 -0.0391694 0.0491244)
(0.266407 -0.0349454 0.00574739)
(0.304262 -0.0233526 -0.0237126)
(0.246963 -0.0122852 0.0342221)
(0.152847 -0.0390327 0.107231)
(0.084167 -0.0654239 0.137355)
(0.218076 -0.0409163 0.0812906)
(0.171136 -0.00528526 0.0865383)
(0.120871 -0.00300081 0.131119)
(0.0875037 -0.024324 0.182817)
(0.0847976 -0.0414334 0.214389)
(0.116311 -0.0334249 0.226331)
(0.117056 -0.0134985 0.22951)
(0.0842394 0.00100689 0.268716)
(0.0697922 0.0166472 0.318186)
(0.09633 0.043898 0.334826)
(0.101088 0.0760076 0.321885)
(0.0699643 0.0926629 0.3026)
(0.0238445 0.0736542 0.310085)
(-0.0142692 0.00209965 0.291595)
(-0.0251324 -0.0978739 0.319581)
(-0.0290898 -0.121555 0.2504)
(0.265769 -0.0548262 -0.283807)
(-0.01172 -0.00171399 0.0945886)
(-0.277732 0.0657046 0.320406)
(-0.477456 0.130731 0.424543)
(-0.617712 0.160302 0.506342)
(-0.629699 0.128609 0.445796)
(-0.498493 0.0275419 0.265372)
(-0.195717 -0.229105 0.424704)
(-0.193158 -0.440642 0.709551)
(0.822383 -0.104337 1.19973)
(0.787861 0.214304 0.791902)
(0.0798047 -0.000432423 0.000172161)
(0.0796005 -0.000751541 -0.00147348)
(0.0794295 -0.000824237 -0.00457106)
(0.0792394 -0.000564855 -0.00674777)
(0.0787156 4.53035e-05 -0.00400328)
(0.0776423 0.00122189 0.00377285)
(0.0738826 0.0032099 0.0172145)
(0.0703161 0.00148938 0.113981)
(0.0638263 0.00757927 0.253305)
(0.0453314 0.0247743 0.332423)
(0.00383666 0.0209576 0.283936)
(0.000735374 -0.00548688 0.0877841)
(0.014199 -0.00154387 0.0127178)
(0.0129526 0.00190787 -0.0981419)
(0.00976641 -0.00268822 -0.213467)
(0.0102705 -0.00849506 -0.225851)
(0.0140991 -0.00886175 -0.179768)
(0.0122589 -0.00985772 -0.0921975)
(0.0355508 -0.00227213 0.161133)
(0.025208 -0.001038 0.326118)
(-0.0334002 -0.00215502 0.261784)
(-0.0956991 -0.00450162 0.166571)
(-0.160497 -0.00630145 0.104968)
(-0.212884 -0.00780806 0.0821087)
(-0.265988 -0.00985539 0.0777529)
(-0.318849 -0.0166559 0.085959)
(-0.371772 -0.0252105 0.0956853)
(-0.435328 -0.014715 0.109168)
(-0.509995 0.00350787 0.137172)
(-0.581211 0.0119344 0.185034)
(-0.643859 0.0151337 0.223958)
(-0.711207 -0.00922476 0.259806)
(-0.801704 -0.0386699 0.29207)
(-0.895428 -0.0100621 0.313108)
(-0.950616 0.0265809 0.331938)
(-1.03473 0.0284948 0.363773)
(-1.12871 0.00804212 0.397962)
(-1.22244 -0.0087878 0.427552)
(-1.32208 -0.000334652 0.45682)
(-1.401 0.0223283 0.484543)
(-1.47676 0.0403405 0.51212)
(-1.54879 0.0588039 0.537752)
(-1.6013 0.0894299 0.557198)
(-1.63619 0.122543 0.573232)
(-1.67153 0.133731 0.591837)
(-1.71052 0.107415 0.611703)
(-1.7347 0.0437452 0.621202)
(-1.74455 -0.0312848 0.614595)
(-1.79246 -0.0493689 0.612418)
(-1.8102 0.0393179 0.643391)
(-1.75546 0.113676 0.711262)
(-1.76045 0.130192 0.769499)
(-1.76631 0.167478 0.762841)
(-1.76123 0.187016 0.759871)
(-1.71441 0.140117 0.753782)
(-1.641 -0.0156999 0.768969)
(-1.58711 -0.252633 0.983143)
(-1.75582 -0.419203 1.43455)
(-1.88878 -0.180045 1.88071)
(-1.79713 0.122001 1.55227)
(0.0800033 -1.06741e-05 1.83302e-05)
(0.0800002 0.000364865 -0.00160258)
(0.0799243 0.000897384 -0.00404566)
(0.0797188 0.00151928 -0.00550507)
(0.0792924 0.00233592 -0.00291825)
(0.0787985 0.0039365 0.0043303)
(0.0767243 0.00699779 0.0148764)
(0.0740768 0.0119454 0.0824234)
(0.0687674 0.0138882 0.237832)
(0.0589475 0.0256725 0.279111)
(0.0401606 0.02085 0.183152)
(0.0291385 0.00263745 -0.0624026)
(0.0158917 -0.00178023 -0.180839)
(0.00928849 -0.0044093 -0.303349)
(-0.00211059 -0.0116783 -0.360066)
(-0.0198871 -0.0135811 -0.379591)
(-0.0305731 -0.0138069 -0.359248)
(-0.0345714 -0.0208436 -0.304894)
(-0.028908 -0.0190051 -0.218793)
(0.00198433 0.000748642 -0.0503426)
(-0.00886362 0.0200826 0.0406657)
(-0.0368424 0.0279753 0.0182279)
(-0.0896743 0.0253992 0.00447993)
(-0.161691 0.0218805 0.0143853)
(-0.243375 0.0177604 0.0432133)
(-0.315056 0.00800948 0.0710559)
(-0.380125 -0.00189781 0.096143)
(-0.445524 0.00424382 0.11702)
(-0.514518 0.0240682 0.143669)
(-0.589705 0.0377031 0.182552)
(-0.666331 0.0452484 0.22143)
(-0.742321 0.0193619 0.251583)
(-0.826904 -0.0112533 0.276795)
(-0.919404 0.0100274 0.303622)
(-1.00515 0.0542386 0.330095)
(-1.08633 0.0621996 0.356086)
(-1.17121 0.0379611 0.38559)
(-1.26043 0.016697 0.417747)
(-1.34796 0.0214781 0.447511)
(-1.43535 0.0442764 0.474499)
(-1.52399 0.0631709 0.503935)
(-1.61184 0.0796972 0.530467)
(-1.6932 0.108985 0.551903)
(-1.75847 0.145589 0.569762)
(-1.80451 0.161242 0.587286)
(-1.83643 0.128825 0.604075)
(-1.8642 0.0460765 0.617515)
(-1.89751 -0.0490916 0.62305)
(-1.9461 -0.0855657 0.619658)
(-1.9674 -0.021219 0.620567)
(-1.93195 0.0701858 0.620224)
(-1.90924 0.105931 0.604426)
(-1.90461 0.14817 0.581433)
(-1.90567 0.161391 0.600449)
(-1.89876 0.110554 0.645503)
(-1.89181 -0.0193007 0.722949)
(-1.91895 -0.208474 0.82058)
(-2.09966 -0.33314 0.920659)
(-2.30763 -0.0719269 0.989103)
(-2.36699 0.2881 0.872243)
(0.0799977 -6.2561e-05 -0.000128447)
(0.0799945 1.29153e-05 -0.00205039)
(0.0799293 0.000150611 -0.0053408)
(0.0798629 0.000462436 -0.00794993)
(0.0798055 0.00122533 -0.00688576)
(0.0797897 0.00302058 -8.3112e-05)
(0.0794169 0.00654245 0.00768059)
(0.0810592 0.0136732 0.0430103)
(0.0841906 0.0206973 0.13834)
(0.0828203 0.0294965 0.19552)
(0.0802276 0.0208175 0.150719)
(0.0670458 0.0254235 0.0393185)
(0.0622733 0.0153686 -0.0858469)
(0.0545148 0.0102015 -0.237157)
(0.016086 0.00689365 -0.326621)
(-0.0311481 -0.00254549 -0.382825)
(-0.0480739 -0.0103255 -0.397116)
(-0.0532687 -0.0194398 -0.397187)
(-0.0577079 -0.0235884 -0.390121)
(-0.0536494 -0.00658712 -0.334486)
(-0.0318295 0.0185106 -0.224917)
(-0.0142369 0.0377695 -0.160651)
(-0.01122 0.0435518 -0.116784)
(-0.0291934 0.0433662 -0.0910036)
(-0.0425245 0.04121 -0.0439404)
(-0.0550195 0.0323983 -0.00194801)
(-0.154733 0.0226248 0.0353873)
(-0.211777 0.0241773 0.0525172)
(-0.251211 0.0376662 0.0548796)
(-0.298111 0.0564509 0.0787029)
(-0.350503 0.0604931 0.115676)
(-0.395932 0.0382848 0.138702)
(-0.459067 0.0163737 0.160522)
(-0.548248 0.0394547 0.195082)
(-0.623652 0.0749395 0.221187)
(-0.676999 0.0800253 0.236627)
(-0.731399 0.0606019 0.257445)
(-0.797081 0.0435454 0.291948)
(-0.867072 0.0484669 0.324334)
(-0.939166 0.0687946 0.352057)
(-1.00824 0.0854294 0.378568)
(-1.07852 0.100399 0.39983)
(-1.15182 0.124051 0.418913)
(-1.21514 0.150437 0.436077)
(-1.25688 0.157949 0.447974)
(-1.2789 0.129161 0.451881)
(-1.29953 0.0651712 0.448964)
(-1.34346 -0.0035792 0.441998)
(-1.38751 -0.027894 0.422228)
(-1.40097 0.012641 0.401932)
(-1.39217 0.0755293 0.355468)
(-1.38697 0.106208 0.282627)
(-1.42176 0.143499 0.221811)
(-1.44231 0.157592 0.219402)
(-1.42043 0.108466 0.237004)
(-1.40893 -0.00242341 0.342899)
(-1.48695 -0.126153 0.556266)
(-1.66391 -0.187602 0.791915)
(-1.84669 0.0277365 1.01442)
(-1.95917 0.295164 0.999134)
(0.0800169 -3.72476e-05 -0.000110325)
(0.0800699 0.000111076 -0.00184866)
(0.0800836 0.00055217 -0.00495071)
(0.0801246 0.00126019 -0.007454)
(0.0802938 0.0022978 -0.00836831)
(0.0808033 0.00405833 -0.00463664)
(0.0818932 0.00722126 -0.000706028)
(0.0852469 0.0141023 0.0142223)
(0.0929083 0.0197443 0.0695954)
(0.102293 0.0255388 0.12196)
(0.108048 0.0190355 0.116982)
(0.104546 0.0130331 0.093344)
(0.103585 0.017516 0.0282437)
(0.103366 0.0181849 -0.0488732)
(0.0961947 0.0184306 -0.106742)
(0.090317 0.00906305 -0.128374)
(0.0841466 -0.00263309 -0.222062)
(0.0655084 -0.0135145 -0.319562)
(0.0293299 -0.0210806 -0.420075)
(-0.00586656 -0.0173086 -0.477635)
(-0.0111719 0.00809071 -0.407632)
(0.00575989 0.0314589 -0.331233)
(0.029011 0.0399059 -0.26316)
(0.0453943 0.0463064 -0.232144)
(0.0501368 0.050157 -0.189162)
(0.0572563 0.0485792 -0.153557)
(0.0552754 0.0457619 -0.125085)
(0.0799652 0.042844 -0.0639021)
(0.0721375 0.0466791 -0.0913684)
(0.0541577 0.0539031 -0.0839467)
(0.100075 0.0614678 -0.00419767)
(0.129273 0.0548921 0.014613)
(0.00968446 0.0505612 0.0371409)
(-0.120619 0.0658561 0.0901952)
(-0.17673 0.0810439 0.114607)
(-0.183097 0.075029 0.119154)
(-0.191012 0.0617523 0.135301)
(-0.223861 0.0511847 0.185038)
(-0.258826 0.0572596 0.242924)
(-0.305543 0.0807888 0.279206)
(-0.343396 0.096865 0.304995)
(-0.381684 0.110509 0.308569)
(-0.426491 0.131873 0.317807)
(-0.462568 0.152445 0.325843)
(-0.478232 0.152231 0.328718)
(-0.482402 0.119719 0.32373)
(-0.496138 0.0618218 0.314292)
(-0.539941 0.00599589 0.295261)
(-0.565769 -0.0134355 0.249487)
(-0.568529 0.0307439 0.21031)
(-0.565314 0.084288 0.0943086)
(-0.530538 0.100729 0.00375097)
(-0.604063 0.129807 -0.153897)
(-0.544128 0.14204 -0.306127)
(-0.501436 0.13134 -0.333106)
(-0.522421 0.0987524 -0.151157)
(-0.699768 -0.0231364 0.161576)
(-0.793516 -0.110289 0.315006)
(-0.954224 0.101114 0.633834)
(-1.01487 0.419159 0.784745)
(0.0800563 -7.08778e-05 6.38142e-05)
(0.0802 -0.000233468 -0.00119092)
(0.0803366 -0.000251851 -0.00320655)
(0.0805039 3.18414e-05 -0.00433681)
(0.0808679 0.000793153 -0.00570847)
(0.0817627 0.00238983 -0.00479941)
(0.0837673 0.00527452 -0.00441157)
(0.0890458 0.0111607 -0.00122475)
(0.0987942 0.017658 0.0199798)
(0.112866 0.0221816 0.0530631)
(0.124582 0.0168607 0.0623764)
(0.128318 0.0161103 0.0609634)
(0.129943 0.0131346 0.0463526)
(0.133863 0.0131962 0.0177694)
(0.136043 0.0092826 -0.0115272)
(0.139611 0.00110676 -0.0264353)
(0.140399 0.00304024 -0.0325898)
(0.13969 0.00369184 -0.0289257)
(0.132474 0.0035344 -0.044661)
(0.127106 0.00347687 -0.156465)
(0.110182 0.0123148 -0.288645)
(0.101524 0.026142 -0.334905)
(0.10743 0.0326465 -0.32391)
(0.118879 0.0374759 -0.320175)
(0.137015 0.0397473 -0.297418)
(0.157716 0.0413742 -0.280891)
(0.177737 0.0409091 -0.273076)
(0.200523 0.0396375 -0.236895)
(0.223319 0.0438748 -0.217956)
(0.244034 0.0415762 -0.200083)
(0.258327 0.0382018 -0.165315)
(0.274048 0.0491047 -0.138803)
(0.279502 0.0725287 -0.09143)
(0.302243 0.083872 -0.0342574)
(0.336832 0.0762038 -0.0064787)
(0.375376 0.0609862 -0.0151401)
(0.406625 0.0504213 -0.0163681)
(0.440751 0.0464931 -0.00207317)
(0.326409 0.0574607 0.0595976)
(0.250923 0.0782493 0.107521)
(0.246964 0.0975924 0.167143)
(0.257444 0.114695 0.198275)
(0.257052 0.132988 0.218638)
(0.261781 0.143751 0.229836)
(0.286312 0.135671 0.228922)
(0.323225 0.110619 0.216557)
(0.350512 0.0797422 0.21026)
(0.325122 0.0442198 0.218153)
(0.292147 0.0327946 0.184339)
(0.208026 0.0748791 0.213483)
(0.2342 0.108496 0.251646)
(0.311925 0.104035 0.181462)
(0.295374 0.108236 -0.108428)
(0.30438 0.116992 -0.214125)
(0.38909 0.103477 -0.466125)
(0.358932 0.0805905 -0.598993)
(0.361854 0.0373666 -0.572782)
(0.254248 -0.0300137 -0.487267)
(-0.170598 0.180041 0.284444)
(0.152852 0.329993 0.64896)
(0.0798927 0.000396765 0.000265546)
(0.0799301 0.000865496 -0.000872797)
(0.0800874 0.00128082 -0.00271779)
(0.0803971 0.0016834 -0.00331605)
(0.081033 0.00231929 -0.005431)
(0.0823797 0.00341614 -0.00663563)
(0.0851166 0.00534727 -0.00830486)
(0.0911666 0.00906405 -0.0106407)
(0.102044 0.0132309 -0.00710458)
(0.117622 0.0158193 0.00594568)
(0.13147 0.0121599 0.0123274)
(0.140125 0.0101195 0.0146604)
(0.147235 0.009851 0.011164)
(0.153781 0.00899863 0.00375529)
(0.159275 0.0062245 -0.00249269)
(0.163276 0.00211877 -0.00893619)
(0.164595 0.000472235 -0.0157122)
(0.164442 -0.00283414 -0.0215002)
(0.160707 -0.00326681 -0.0317419)
(0.162478 0.00684171 -0.0596306)
(0.171113 0.0185885 -0.122484)
(0.182568 0.0272108 -0.186914)
(0.196962 0.0290877 -0.217292)
(0.212175 0.0307735 -0.241357)
(0.23419 0.0302938 -0.255593)
(0.260413 0.0297238 -0.267871)
(0.2869 0.0281753 -0.280335)
(0.312269 0.0266988 -0.275955)
(0.336947 0.0278086 -0.269511)
(0.365607 0.0254104 -0.265022)
(0.391611 0.0250769 -0.254928)
(0.417641 0.0341317 -0.239115)
(0.453965 0.0513428 -0.215093)
(0.504297 0.0561537 -0.192261)
(0.556546 0.0533831 -0.180523)
(0.605781 0.0500331 -0.18372)
(0.641854 0.0439834 -0.183234)
(0.666801 0.0457007 -0.170812)
(0.69037 0.052587 -0.138809)
(0.713986 0.0539299 -0.0940991)
(0.739313 0.0583198 -0.0509686)
(0.762264 0.0719539 0.00204409)
(0.756647 0.0936593 0.0606078)
(0.804721 0.102324 0.100878)
(0.87866 0.0911952 0.117518)
(0.948584 0.0669319 0.116797)
(0.995156 0.0481721 0.111916)
(1.01467 0.0433754 0.109776)
(1.00713 0.0594814 0.0947868)
(0.984973 0.0922437 0.111109)
(1.02389 0.103544 0.150527)
(1.10512 0.100045 0.161582)
(1.16891 0.0836229 0.0884635)
(1.2428 0.0757323 -0.0322625)
(1.19852 0.0960869 -0.178652)
(1.17515 0.0921259 -0.342834)
(1.17676 0.00659834 -0.513785)
(1.07495 -0.0159601 -0.603175)
(0.760031 0.170033 -0.337626)
(1.00924 0.242778 0.113322)
(0.0802278 -0.00207861 0.000122116)
(0.080343 -0.00246986 -0.00057988)
(0.0804436 -0.00226392 -0.00113562)
(0.0806948 -0.00187733 -0.000627861)
(0.0813853 -0.00121395 -0.0022369)
(0.0829189 -0.000142423 -0.0040806)
(0.0860282 0.00154062 -0.00703859)
(0.0923903 0.00428141 -0.0135801)
(0.103294 0.00724596 -0.0194079)
(0.118855 0.00897867 -0.0223579)
(0.133179 0.00711435 -0.0251518)
(0.143288 0.00584591 -0.030286)
(0.151707 0.00522094 -0.0370887)
(0.159501 0.00516465 -0.0429795)
(0.166617 0.00423482 -0.046545)
(0.170412 0.00238464 -0.0505091)
(0.171397 0.00325065 -0.0472851)
(0.171083 0.00471012 -0.0390031)
(0.169649 0.00732108 -0.0329836)
(0.175044 0.0124233 -0.0344238)
(0.194826 0.0162935 -0.0517629)
(0.223696 0.0188878 -0.0822707)
(0.254666 0.0185634 -0.105892)
(0.286415 0.0184424 -0.131236)
(0.323076 0.0166437 -0.153154)
(0.362052 0.0152247 -0.171588)
(0.399175 0.0144894 -0.186457)
(0.433206 0.0140006 -0.190645)
(0.464679 0.0143158 -0.19505)
(0.498237 0.0114364 -0.203109)
(0.532286 0.0100268 -0.212287)
(0.56911 0.0149746 -0.221103)
(0.620824 0.0247655 -0.224961)
(0.685313 0.0297544 -0.224138)
(0.747674 0.0314432 -0.221805)
(0.800629 0.0314079 -0.222114)
(0.843624 0.0270116 -0.219241)
(0.880288 0.0274882 -0.217042)
(0.923033 0.0335598 -0.211851)
(0.974874 0.0373401 -0.199589)
(1.0309 0.0429246 -0.185859)
(1.09404 0.0495968 -0.163866)
(1.16865 0.0524546 -0.134791)
(1.25867 0.0456561 -0.111773)
(1.34945 0.0318636 -0.0976459)
(1.42225 0.0159469 -0.0917946)
(1.46396 0.00492391 -0.0881098)
(1.47548 0.00481531 -0.0829245)
(1.46804 0.0251782 -0.0818026)
(1.48027 0.0564373 -0.0661706)
(1.53933 0.0686672 -0.0304979)
(1.61792 0.0691408 -0.00654442)
(1.68339 0.0678378 -0.0280978)
(1.72803 0.0600764 -0.0938333)
(1.7801 0.037634 -0.176325)
(1.82561 0.0109407 -0.265118)
(1.81567 0.0169643 -0.345995)
(1.77522 0.0559773 -0.454885)
(1.692 0.138276 -0.428556)
(1.92814 0.153559 -0.324955)
(0.0800764 0.00539468 0.000330221)
(0.0806062 0.00396522 -0.000548219)
(0.080616 0.00317194 -0.000885787)
(0.080602 0.0026655 4.25663e-05)
(0.0809949 0.00235427 -0.00141163)
(0.0823211 0.00222575 -0.00279989)
(0.0853977 0.00233552 -0.00448357)
(0.0918348 0.0027658 -0.0098579)
(0.102712 0.00321801 -0.0163542)
(0.118041 0.00341324 -0.0228696)
(0.13256 0.00251849 -0.026836)
(0.143317 0.00195141 -0.0315516)
(0.152299 0.00164047 -0.0358002)
(0.160621 0.00142125 -0.0375077)
(0.168026 0.00125153 -0.0344973)
(0.172124 0.000995631 -0.0287964)
(0.17325 0.00133971 -0.0178311)
(0.172657 0.000884021 -0.00673543)
(0.171661 0.000369219 0.00114773)
(0.182339 0.00216722 0.00516132)
(0.205883 0.00581871 0.00454379)
(0.239872 0.00916069 -0.00144298)
(0.283795 0.00935235 -0.00504994)
(0.335365 0.00753476 -0.013424)
(0.3951 0.00360702 -0.0253321)
(0.457777 0.000583329 -0.0378139)
(0.517093 -0.000829669 -0.0477241)
(0.57281 -0.00148615 -0.0493661)
(0.624154 -0.00186887 -0.0509885)
(0.671834 -0.00390121 -0.0554406)
(0.714783 -0.00561682 -0.0608992)
(0.754342 -0.00531559 -0.0693231)
(0.801713 -0.00317407 -0.0801706)
(0.861391 -0.00134509 -0.0892489)
(0.925201 0.00167636 -0.0963557)
(0.985451 0.00526383 -0.102528)
(1.03931 0.00573357 -0.105663)
(1.08789 0.00684175 -0.109654)
(1.14063 0.00988699 -0.115775)
(1.20002 0.0108028 -0.121856)
(1.26371 0.0123257 -0.130066)
(1.33875 0.0174378 -0.136194)
(1.43024 0.0236136 -0.140166)
(1.53028 0.0244538 -0.144561)
(1.61888 0.0198994 -0.149945)
(1.67936 0.0129897 -0.156363)
(1.70865 0.00777843 -0.161985)
(1.71925 0.00731916 -0.167285)
(1.73823 0.0141222 -0.179514)
(1.80127 0.024376 -0.184762)
(1.90718 0.0285103 -0.16994)
(2.0257 0.0275517 -0.159514)
(2.14047 0.0232779 -0.177626)
(2.24211 0.0162681 -0.223597)
(2.30627 0.0103106 -0.285751)
(2.32572 0.00912144 -0.360612)
(2.32213 0.00404084 -0.43714)
(2.34762 0.0164757 -0.526023)
(2.43466 0.0550421 -0.522509)
(2.79426 0.0603782 -0.586902)
(0.0799585 -0.00538214 -0.000388623)
(0.0801984 -0.00380159 -0.00137753)
(0.0798392 -0.00275538 -0.00327062)
(0.0792053 -0.00196559 -0.00448726)
(0.0781233 -0.00141287 -0.00297443)
(0.0763032 -0.00104833 0.00125155)
(0.0720541 -0.000557045 0.00512427)
(0.0685744 -0.000333503 0.0255516)
(0.0737163 -0.00341686 0.0632998)
(0.0914461 -0.0129503 0.106279)
(0.105989 -0.0116912 0.0993851)
(0.110311 -0.00218306 0.10583)
(0.112692 0.00673826 0.109357)
(0.11475 0.00955686 0.118122)
(0.118268 0.0110858 0.128377)
(0.117124 0.00936145 0.137556)
(0.118491 0.00542057 0.146119)
(0.128923 0.00149445 0.153809)
(0.140161 0.00357773 0.174285)
(0.150392 0.00474258 0.190654)
(0.162746 0.00268423 0.215713)
(0.183645 3.9814e-05 0.255144)
(0.210677 -0.00123843 0.272593)
(0.239935 -0.00113577 0.288013)
(0.275378 -0.000812115 0.29882)
(0.316932 0.000870241 0.289011)
(0.353571 0.00476255 0.262245)
(0.380105 0.00339656 0.215599)
(0.39746 -0.00426459 0.184803)
(0.425735 -0.00864978 0.146558)
(0.479648 -0.0224646 0.123106)
(0.583875 -0.0370152 0.118528)
(0.695187 -0.0165483 0.11889)
(0.74697 0.00669705 0.105509)
(0.726347 -0.00218972 0.0862067)
(0.733108 -0.022774 0.0678938)
(0.790776 -0.0343386 0.0616716)
(0.880989 -0.0332549 0.0617391)
(0.966195 -0.0289477 0.0563993)
(1.02607 -0.0310959 0.0434355)
(1.07702 -0.0353877 0.0278421)
(1.13926 -0.0279077 0.00500434)
(1.10247 -0.00373313 -0.0181938)
(0.99772 0.016269 -0.0341246)
(0.85114 0.0207652 -0.0407692)
(0.754792 0.00802092 -0.040585)
(0.890897 -0.0224158 -0.0291544)
(1.14698 -0.0316754 0.0352718)
(1.399 -0.00168967 0.0549241)
(1.55643 0.00665319 0.0175226)
(1.58717 -0.0384685 -0.00704095)
(1.72292 -0.0655869 0.0119768)
(1.74916 -0.0483315 -0.00100378)
(1.63405 -0.00645872 0.00782805)
(1.44764 0.0223394 0.0221737)
(1.32977 0.0162072 -0.0288567)
(1.39707 -0.060975 0.118698)
(1.75169 -0.00414214 0.402686)
(2.14673 0.165199 1.0936)
(1.70741 0.190483 2.11203)
(0.0801201 0.00209977 6.28716e-05)
(0.0799639 0.0025386 -0.000809983)
(0.0797178 0.00244336 -0.0027246)
(0.079392 0.0023749 -0.00438263)
(0.0787486 0.00256266 -0.00269091)
(0.07743 0.00297365 0.00240032)
(0.0736352 0.00349419 0.00929291)
(0.069138 -0.00145155 0.0525211)
(0.0749895 -0.00345736 0.196388)
(0.0578089 0.00293393 0.394535)
(-0.016478 0.0126752 0.45657)
(-0.0369917 0.00449193 0.416187)
(-0.0289599 -0.00732567 0.341546)
(-0.0178319 -0.0141752 0.287763)
(-0.000669523 -0.0129936 0.205655)
(0.0273757 -0.00958397 0.168387)
(0.0455736 -0.0105547 0.213734)
(0.0628785 -0.0111378 0.310291)
(0.0725743 -0.0150479 0.456757)
(0.0749325 -0.017756 0.523054)
(0.0735718 -0.0212309 0.512773)
(0.0768895 -0.0228251 0.495988)
(0.0796418 -0.0243198 0.409377)
(0.0818277 -0.0271545 0.324517)
(0.0978096 -0.0292275 0.27469)
(0.120393 -0.0322896 0.212363)
(0.141908 -0.0392176 0.136837)
(0.169678 -0.0452575 0.0571729)
(0.211942 -0.040226 -0.00237877)
(0.219533 -0.0231339 -0.0306548)
(0.315398 -0.00985331 0.019355)
(0.251578 -0.0361337 0.0955139)
(0.121218 -0.0750251 0.142491)
(0.192909 -0.0580189 0.106503)
(0.230984 -0.0260073 0.0882673)
(0.193218 -0.0200309 0.121866)
(0.152078 -0.0343292 0.175515)
(0.124891 -0.0561098 0.213989)
(0.144307 -0.0561091 0.23003)
(0.157476 -0.0398504 0.230272)
(0.132879 -0.0224796 0.263192)
(0.111005 0.00204846 0.30984)
(0.142022 0.0360964 0.321369)
(0.146903 0.0704878 0.30568)
(0.107324 0.0883089 0.286687)
(0.0478498 0.0792771 0.299538)
(0.0330247 0.0254256 0.279848)
(0.0390106 -0.0750368 0.312105)
(-0.0288101 -0.122469 0.25515)
(0.231195 -0.047281 -0.282827)
(0.160392 -0.0287764 0.0354491)
(-0.212067 0.0475095 0.318017)
(-0.405753 0.114943 0.420406)
(-0.544801 0.151968 0.494078)
(-0.5672 0.131167 0.420944)
(-0.44337 0.0441863 0.223233)
(-0.169518 -0.218354 0.41986)
(-0.228364 -0.459429 0.737319)
(0.728259 -0.162308 1.22514)
(0.786763 0.180299 0.778998)
(0.0797605 -0.000432772 0.000129342)
(0.0795267 -0.000790752 -0.00153627)
(0.0794464 -0.000860955 -0.00462014)
(0.0794212 -0.000570165 -0.0067726)
(0.0790685 0.000104377 -0.00401678)
(0.0780014 0.00139344 0.00370753)
(0.0741492 0.00348391 0.0169428)
(0.0704085 0.00173751 0.111396)
(0.0639081 0.00760353 0.251548)
(0.0459682 0.0250895 0.332881)
(0.00467088 0.0226963 0.286737)
(0.00237964 -0.0038917 0.0911068)
(0.0131734 -0.000980682 0.0121919)
(0.0122662 0.00105512 -0.101268)
(0.00848196 -0.00297208 -0.213462)
(0.00916536 -0.00849502 -0.225028)
(0.0129855 -0.00856485 -0.178679)
(0.0105759 -0.00968681 -0.0907192)
(0.0362007 -0.00163489 0.159651)
(0.025945 -0.000210874 0.327005)
(-0.0333071 -0.00164062 0.262332)
(-0.0957238 -0.00401248 0.166593)
(-0.157385 -0.00671973 0.105295)
(-0.204007 -0.0101029 0.0824708)
(-0.251485 -0.0144448 0.0784246)
(-0.297871 -0.0250903 0.0865274)
(-0.347839 -0.0390187 0.0963795)
(-0.418678 -0.0312093 0.109918)
(-0.497208 -0.00694633 0.137732)
(-0.570242 0.00866465 0.187188)
(-0.623337 0.0180584 0.225498)
(-0.692138 -0.00982483 0.263476)
(-0.779357 -0.0523822 0.295552)
(-0.87906 -0.0281933 0.316398)
(-0.946651 0.0139832 0.336755)
(-1.0274 0.0192005 0.367641)
(-1.11692 -0.00168088 0.401899)
(-1.20864 -0.0245117 0.432547)
(-1.30731 -0.0221725 0.461957)
(-1.38828 -0.000936369 0.489252)
(-1.46102 0.0196591 0.515528)
(-1.51699 0.0435859 0.538221)
(-1.55039 0.0812213 0.554083)
(-1.57321 0.121697 0.566733)
(-1.60924 0.141385 0.583462)
(-1.65687 0.125797 0.603029)
(-1.69135 0.0719626 0.613856)
(-1.70832 -0.00876361 0.610729)
(-1.75181 -0.0501223 0.608959)
(-1.7672 0.0274826 0.639709)
(-1.68926 0.104997 0.703334)
(-1.69816 0.119075 0.767028)
(-1.70931 0.152661 0.759241)
(-1.71162 0.178695 0.752197)
(-1.6769 0.143927 0.744172)
(-1.61668 0.00376895 0.765515)
(-1.56437 -0.236579 0.985513)
(-1.73009 -0.43408 1.43147)
(-1.87329 -0.223475 1.87282)
(-1.7507 0.0995618 1.5322)
(0.0799686 -2.80116e-05 2.54664e-05)
(0.0799506 0.000351068 -0.00158705)
(0.0799574 0.000891469 -0.00402847)
(0.0798948 0.00149476 -0.00549192)
(0.0796375 0.00223227 -0.00290529)
(0.0790599 0.00382444 0.00430488)
(0.0769642 0.00685836 0.0147321)
(0.0742525 0.0118641 0.0802918)
(0.0688741 0.0139674 0.235976)
(0.0593211 0.026007 0.280385)
(0.0404269 0.0216817 0.186243)
(0.0279938 0.00166545 -0.072304)
(0.0150647 -0.00193715 -0.183495)
(0.00882767 -0.00546552 -0.303357)
(-0.00271991 -0.012095 -0.35925)
(-0.0203994 -0.0134313 -0.378304)
(-0.0312466 -0.0128564 -0.35785)
(-0.0356021 -0.0191658 -0.303293)
(-0.0304197 -0.0167084 -0.216751)
(-0.0035339 0.00118606 -0.0510659)
(-0.00481239 0.0192982 0.0414328)
(-0.0287804 0.0273311 0.0162853)
(-0.0758609 0.0255448 0.000897685)
(-0.146458 0.0206863 0.0123057)
(-0.230694 0.0154984 0.0446508)
(-0.300106 0.000510884 0.0736666)
(-0.362602 -0.0129238 0.0993416)
(-0.430432 -0.00856103 0.12023)
(-0.501956 0.0152509 0.146497)
(-0.578785 0.0352848 0.185338)
(-0.656115 0.0487017 0.224257)
(-0.730648 0.0160252 0.254589)
(-0.811883 -0.0291245 0.279255)
(-0.908933 -0.0134762 0.306658)
(-0.998398 0.0373455 0.333122)
(-1.07969 0.0502286 0.359256)
(-1.16324 0.02501 0.388871)
(-1.25179 -0.00422468 0.420897)
(-1.3411 -0.00767172 0.4505)
(-1.43125 0.0124148 0.477429)
(-1.52071 0.0343769 0.506838)
(-1.6062 0.0568628 0.533077)
(-1.68218 0.0941715 0.553872)
(-1.7416 0.140483 0.570825)
(-1.78529 0.166658 0.587765)
(-1.81837 0.14464 0.604936)
(-1.84533 0.0677456 0.619367)
(-1.87253 -0.0345063 0.625234)
(-1.91058 -0.0879974 0.619965)
(-1.93065 -0.035424 0.620817)
(-1.89281 0.0574074 0.620886)
(-1.87224 0.0921134 0.606244)
(-1.87634 0.137056 0.584145)
(-1.88711 0.163476 0.603118)
(-1.88563 0.126654 0.645775)
(-1.88146 0.00817519 0.719424)
(-1.89887 -0.187426 0.807731)
(-2.06965 -0.345928 0.899555)
(-2.28142 -0.121187 0.960695)
(-2.33533 0.255094 0.831364)
(0.079967 -7.02254e-05 -0.000128381)
(0.0799374 1.13324e-05 -0.00205515)
(0.0799424 0.000126427 -0.00535537)
(0.079997 0.00039806 -0.00798073)
(0.0800745 0.00102363 -0.00693518)
(0.0801136 0.00261383 -0.000159129)
(0.0795748 0.00610232 0.00757941)
(0.0810409 0.0133215 0.0419621)
(0.0840678 0.0205142 0.136907)
(0.0828703 0.0298338 0.196061)
(0.0801415 0.0218316 0.15277)
(0.0677325 0.0263966 0.0411455)
(0.0614795 0.0134318 -0.0901989)
(0.0539395 0.00909222 -0.238425)
(0.0153998 0.00632268 -0.325975)
(-0.0313823 -0.00251987 -0.382072)
(-0.048884 -0.00908187 -0.39731)
(-0.0549474 -0.017002 -0.397513)
(-0.0602216 -0.0199919 -0.389116)
(-0.0557755 -0.00212987 -0.331977)
(-0.0341369 0.0225123 -0.226555)
(-0.0171067 0.041073 -0.163336)
(-0.0143215 0.0460447 -0.118692)
(-0.0358162 0.0446304 -0.0919965)
(-0.0537251 0.0400372 -0.0453412)
(0.0277049 0.032018 -0.0167235)
(-0.0817371 0.0219498 0.0297539)
(-0.155698 0.0207056 0.0503994)
(-0.208948 0.036471 0.0536336)
(-0.272983 0.0612425 0.0814274)
(-0.337955 0.0659975 0.120417)
(-0.377761 0.0369707 0.141102)
(-0.430817 0.00258137 0.160605)
(-0.522868 0.0218031 0.195737)
(-0.611282 0.0614786 0.224188)
(-0.669271 0.0700936 0.240703)
(-0.721718 0.0499536 0.261081)
(-0.784724 0.0252136 0.294578)
(-0.856198 0.0213221 0.326926)
(-0.934075 0.0385894 0.354896)
(-1.01054 0.0578998 0.381863)
(-1.0867 0.0772508 0.403922)
(-1.16302 0.106858 0.423858)
(-1.22666 0.141495 0.441397)
(-1.26654 0.158411 0.452997)
(-1.28392 0.137957 0.455446)
(-1.2929 0.0766116 0.448468)
(-1.32008 -7.29759e-05 0.43529)
(-1.34863 -0.0375981 0.411122)
(-1.36517 -0.00275997 0.391975)
(-1.36424 0.0648268 0.349072)
(-1.37554 0.0991246 0.281682)
(-1.42454 0.137273 0.22642)
(-1.45134 0.155286 0.227577)
(-1.4263 0.114471 0.242948)
(-1.40521 0.0156585 0.337462)
(-1.47899 -0.11292 0.543338)
(-1.64099 -0.201373 0.773118)
(-1.82761 -0.0112651 1.00186)
(-1.94566 0.273455 0.981531)
(0.0799887 -2.50586e-05 -0.000109461)
(0.0800116 0.000158363 -0.00185181)
(0.0800851 0.000632878 -0.00496394)
(0.080213 0.00132432 -0.00748169)
(0.0804737 0.00217187 -0.00841989)
(0.0809888 0.00367067 -0.00472397)
(0.0819238 0.0065297 -0.000869481)
(0.0852596 0.0134642 0.0137045)
(0.0927437 0.019639 0.0685441)
(0.102071 0.025933 0.122032)
(0.107699 0.0199973 0.117883)
(0.104423 0.0147735 0.0945227)
(0.104156 0.0182866 0.029507)
(0.103342 0.0177416 -0.0485203)
(0.0965305 0.0180284 -0.105311)
(0.0908481 0.00897711 -0.127583)
(0.0843781 -0.00181221 -0.223434)
(0.0651104 -0.0121191 -0.320859)
(0.0281983 -0.0188129 -0.42093)
(-0.00748462 -0.0129757 -0.477154)
(-0.0128685 0.0129918 -0.406727)
(0.00357437 0.0362869 -0.332011)
(0.0260057 0.0440125 -0.264278)
(0.0410232 0.0503221 -0.232968)