/*--------------------------------*- C++ -*----------------------------------*\
  =========                 |
  \\      /  F ield         | OpenFOAM: The Open Source CFD Toolbox
   \\    /   O peration     | Website:  https://openfoam.org
    \\  /    A nd           | Version:  8
     \\/     M anipulation  |
\*---------------------------------------------------------------------------*/
FoamFile
{
    version     2.0;
    format      ascii;
    class       volScalarField;
    location    "400";
    object      epsilon;
}
// * * * * * * * * * * * * * * * * * * * * * * * * * * * * * * * * * * * * * //

dimensions      [0 2 -3 0 0 0 0];

internalField   nonuniform List<scalar> 
1200
(
5.35863e-06
5.26879e-06
5.16107e-06
5.05778e-06
4.95165e-06
4.80036e-06
4.47716e-06
4.10881e-06
4.19655e-06
4.76082e-06
5.34774e-06
5.95502e-06
6.68267e-06
7.49876e-06
8.28405e-06
8.99209e-06
9.78148e-06
1.06102e-05
1.14881e-05
3.06491e-05
3.06749e-05
3.06728e-05
3.0818e-05
3.23895e-05
3.61592e-05
3.77626e-05
3.78859e-05
3.75109e-05
3.75746e-05
3.82549e-05
4.11411e-05
4.59867e-05
4.87184e-05
4.94812e-05
5.07709e-05
5.50311e-05
6.55415e-05
8.46084e-05
0.00011248
0.000149789
0.000198661
0.000259122
0.000328876
0.000403736
0.000481698
0.000563588
0.000649291
0.000746331
0.000869326
0.000969606
0.00109938
0.00149035
0.00243591
0.00374715
0.0042302
0.00471311
0.0107491
0.0167676
0.0171663
0.0169759
5.40321e-06
4.67538e-06
4.04119e-06
3.53321e-06
3.13793e-06
2.83661e-06
2.42023e-06
2.35735e-06
3.42828e-06
5.62613e-06
6.03135e-06
5.66418e-06
5.15798e-06
4.80459e-06
4.60793e-06
4.46632e-06
4.60108e-06
4.95781e-06
5.65761e-06
6.206e-06
6.52392e-06
6.8381e-06
7.56569e-06
8.78531e-06
9.36946e-06
9.56922e-06
1.01028e-05
1.07613e-05
1.04029e-05
9.99124e-06
5.16222e-05
9.61104e-05
0.000106199
7.80796e-05
6.90472e-05
0.000113097
0.000195483
0.000322098
0.00050734
0.000736981
0.00101807
0.00134552
0.00171624
0.00212945
0.00258723
0.00309781
0.00367511
0.00434908
0.00515705
0.00615162
0.00739875
0.00890799
0.0106721
0.0126629
0.0146743
0.0165385
0.0203427
0.0227484
0.023662
0.0249081
5.38978e-06
4.63693e-06
3.97008e-06
3.41644e-06
2.94693e-06
2.54556e-06
2.42921e-06
3.69858e-06
4.41473e-06
4.60532e-06
3.25255e-06
2.11359e-06
2.44084e-06
3.24382e-06
4.03645e-06
4.23786e-06
4.33105e-06
4.10421e-06
4.69573e-06
6.21961e-06
7.15101e-06
8.05077e-06
9.11857e-06
1.0145e-05
1.09732e-05
4.94146e-05
6.17305e-05
8.26358e-05
0.000109321
0.00014524
0.000194836
0.000262171
0.000349505
0.000458135
0.000585145
0.000729719
0.000908273
0.00111862
0.00136619
0.00166064
0.00200801
0.00240848
0.00286202
0.00336853
0.00392864
0.00454529
0.00522611
0.00598463
0.00684034
0.0078196
0.0089471
0.0102369
0.0116921
0.0132912
0.0149978
0.016796
0.01868
0.0194549
0.0202567
0.0227468
5.3883e-06
4.63477e-06
3.9755e-06
3.42518e-06
2.94963e-06
2.53818e-06
2.28352e-06
3.14616e-06
4.11269e-06
4.06447e-06
3.0113e-06
2.99525e-06
3.01808e-06
3.6273e-06
4.55589e-06
5.10987e-06
5.42783e-06
5.60618e-06
5.76791e-06
6.422e-06
7.51636e-06
8.48217e-06
9.49792e-06
1.04288e-05
1.11685e-05
4.92846e-05
6.40926e-05
8.34297e-05
0.000107734
0.000138968
0.000179862
0.000233123
0.00030237
0.000389719
0.000498775
0.000630303
0.000789536
0.00098156
0.00120904
0.00147207
0.00176987
0.00210231
0.00246921
0.00287222
0.00331686
0.00381345
0.00437736
0.00502795
0.00578727
0.00667548
0.00771452
0.00893067
0.0103529
0.0119829
0.0137169
0.0153088
0.0164158
0.0167151
0.0181267
0.0218295
5.38525e-06
4.63073e-06
3.98144e-06
3.43467e-06
2.9622e-06
2.54877e-06
2.23385e-06
2.50123e-06
3.26996e-06
3.46546e-06
2.95109e-06
2.69042e-06
2.58405e-06
2.81103e-06
4.14912e-06
5.40009e-06
5.89684e-06
6.2443e-06
6.48207e-06
6.68072e-06
7.09209e-06
7.66874e-06
8.51482e-06
9.47453e-06
1.02384e-05
1.08991e-05
1.16055e-05
4.98793e-05
6.54103e-05
8.81326e-05
0.000114485
0.00014705
0.000197211
0.00026404
0.000344115
0.000439933
0.000556962
0.000703307
0.000881334
0.00108448
0.00130604
0.0015437
0.00179397
0.00205615
0.00233644
0.00265015
0.00302154
0.00348227
0.00407107
0.00481668
0.00575265
0.00691493
0.00835441
0.0100631
0.0118411
0.0132398
0.0136289
0.0126051
0.0128305
0.0175543
5.37863e-06
4.62856e-06
3.98626e-06
3.44293e-06
2.97259e-06
2.56402e-06
2.2262e-06
2.17252e-06
2.55776e-06
2.77418e-06
2.62845e-06
2.40588e-06
2.16544e-06
1.93199e-06
1.76966e-06
2.37275e-06
3.855e-06
5.05911e-06
5.65487e-06
5.75115e-06
5.62438e-06
5.52758e-06
6.15081e-06
8.28833e-06
9.13464e-06
9.77569e-06
1.04608e-05
1.10223e-05
1.16359e-05
4.96166e-05
6.12545e-05
7.94502e-05
0.000108553
0.000157149
0.000211075
0.000272624
0.000337672
0.000432157
0.00056042
0.000709122
0.000864718
0.00102633
0.00118579
0.00133475
0.00147094
0.00159976
0.00173431
0.00190655
0.00218945
0.00261367
0.00329047
0.00428613
0.00577188
0.00774054
0.00984473
0.0113866
0.011452
0.00859747
0.00432028
0.00316368
5.37097e-06
4.62245e-06
3.99114e-06
3.45473e-06
2.9861e-06
2.57993e-06
2.24014e-06
2.03803e-06
2.10186e-06
2.18925e-06
2.1438e-06
2.0194e-06
1.86776e-06
1.70976e-06
1.56174e-06
1.49484e-06
1.62348e-06
1.99457e-06
2.62624e-06
3.54362e-06
4.08141e-06
4.21606e-06
4.19428e-06
5.58032e-06
7.24684e-06
8.31864e-06
9.14359e-06
9.80034e-06
1.02622e-05
1.04494e-05
1.09303e-05
1.16339e-05
5.60455e-05
7.39257e-05
9.77566e-05
0.000123089
0.000157717
0.000218528
0.000322308
0.000418279
0.000511631
0.00061691
0.000721666
0.000812217
0.000883699
0.00093714
0.000976143
0.00101047
0.0010595
0.00116415
0.00134836
0.00179149
0.00286774
0.00471552
0.00724457
0.00930325
0.0094544
0.00762445
0.00577081
0.00462199
5.36404e-06
4.61567e-06
3.98927e-06
3.46112e-06
2.99894e-06
2.59375e-06
2.25514e-06
2.00344e-06
1.88651e-06
1.83113e-06
1.75818e-06
1.65984e-06
1.55741e-06
1.44476e-06
1.33837e-06
1.27873e-06
1.26842e-06
1.30494e-06
1.45556e-06
1.80141e-06
2.05524e-06
2.11989e-06
2.1465e-06
2.5137e-06
3.4837e-06
4.92147e-06
6.42943e-06
7.61732e-06
8.40147e-06
8.81799e-06
9.03579e-06
9.2861e-06
9.73171e-06
1.06497e-05
4.95978e-05
5.55504e-05
6.75248e-05
9.13326e-05
0.000130363
0.000176731
0.000233177
0.000306354
0.000379822
0.000438375
0.000480979
0.000509808
0.000527162
0.000537766
0.000546137
0.000556719
0.000586165
0.000706625
0.00107444
0.00204235
0.00392373
0.00615157
0.00690231
0.00638802
0.00572538
0.00512515
5.36817e-06
4.64091e-06
4.03679e-06
3.52958e-06
3.08454e-06
2.69015e-06
2.35245e-06
2.07897e-06
1.88179e-06
1.74655e-06
1.6382e-06
1.54323e-06
1.45774e-06
1.38083e-06
1.30864e-06
1.2457e-06
1.197e-06
1.16364e-06
1.15907e-06
1.21149e-06
1.2552e-06
1.26799e-06
1.28472e-06
1.36581e-06
1.59146e-06
2.07294e-06
2.89691e-06
3.93962e-06
4.93997e-06
5.72051e-06
6.25664e-06
6.65624e-06
7.02982e-06
7.45838e-06
7.92561e-06
8.39896e-06
9.13048e-06
1.04099e-05
5.15812e-05
6.48315e-05
8.43468e-05
0.000110694
0.000140393
0.000169089
0.000194142
0.000214228
0.000229234
0.000241022
0.000250044
0.000255029
0.000261082
0.00028915
0.000376182
0.000653693
0.00141305
0.00268756
0.0034661
0.0035459
0.00342256
0.00327482
5.33999e-06
5.25604e-06
5.19009e-06
5.12303e-06
5.00052e-06
4.80062e-06
4.52365e-06
4.22979e-06
3.97484e-06
3.87713e-06
3.9464e-06
4.15047e-06
4.45305e-06
4.80889e-06
5.09927e-06
5.11585e-06
5.09303e-06
5.17028e-06
5.30949e-06
5.55461e-06
5.97017e-06
6.46039e-06
6.90486e-06
7.26355e-06
7.56497e-06
7.83835e-06
8.17881e-06
8.63682e-06
9.17655e-06
9.83149e-06
1.06356e-05
1.14506e-05
1.19008e-05
3.26407e-05
3.55007e-05
3.8903e-05
4.26226e-05
4.65881e-05
5.13355e-05
5.68182e-05
6.3376e-05
7.17294e-05
8.21754e-05
9.47105e-05
0.000109221
0.000125567
0.000143741
0.000163813
0.000185932
0.000210254
0.0002366
0.000264296
0.000296086
0.000349574
0.000488028
0.000768629
0.00105405
0.00127251
0.00147612
0.00169182
5.37959e-06
5.27351e-06
5.15045e-06
5.05628e-06
4.95762e-06
4.80266e-06
4.53191e-06
4.118e-06
4.19168e-06
4.75032e-06
5.33948e-06
5.94813e-06
6.6685e-06
7.4733e-06
8.25111e-06
8.95556e-06
9.73562e-06
1.0619e-05
1.14841e-05
3.07636e-05
3.06739e-05
3.06581e-05
3.07919e-05
3.23186e-05
3.59478e-05
3.75571e-05
3.7758e-05
3.74266e-05
3.73904e-05
3.79196e-05
4.00865e-05
4.55954e-05
4.97979e-05
5.09872e-05
5.22334e-05
5.54446e-05
6.37875e-05
8.06488e-05
0.000106955
0.000142876
0.000190299
0.000248649
0.000314032
0.000378871
0.000439898
0.00050799
0.000582408
0.000666547
0.000773111
0.000877718
0.00100695
0.00125793
0.00205015
0.00349504
0.0042212
0.00466593
0.00988814
0.0166427
0.0171419
0.0169701
5.40095e-06
4.66542e-06
4.03771e-06
3.5446e-06
3.15509e-06
2.87036e-06
2.43543e-06
2.34887e-06
3.38932e-06
5.58823e-06
6.01158e-06
5.64475e-06
5.13223e-06
4.77711e-06
4.58311e-06
4.44422e-06
4.57957e-06
4.94212e-06
5.63207e-06
6.18537e-06
6.50723e-06
6.82269e-06
7.5432e-06
8.74417e-06
9.335e-06
9.54117e-06
1.01457e-05
1.09525e-05
1.03436e-05
9.9163e-06
1.08823e-05
8.52707e-05
0.000114403
9.16355e-05
7.12772e-05
0.000105627
0.000182107
0.000302751
0.000487491
0.000715914
0.000995122
0.0013202
0.00168707
0.00209311
0.00253698
0.00302008
0.00356248
0.00419655
0.00495884
0.00591406
0.0071562
0.00870863
0.0105303
0.0124974
0.01449
0.0163111
0.0199636
0.0227487
0.0236622
0.0249034
5.3866e-06
4.6246e-06
3.96797e-06
3.4255e-06
2.95725e-06
2.55455e-06
2.40657e-06
3.6522e-06
4.38188e-06
4.59829e-06
3.27038e-06
2.16149e-06
2.46362e-06
3.26208e-06
4.04763e-06
4.24236e-06
4.33265e-06
4.05672e-06
4.67114e-06
6.19144e-06
7.13549e-06
8.04354e-06
9.11961e-06
1.01402e-05
1.09562e-05
1.15596e-05
6.27203e-05
8.40784e-05
0.000111145
0.000147298
0.000195416
0.000269088
0.000357445
0.000465761
0.000590243
0.000728788
0.000904284
0.00111368
0.00136011
0.0016533
0.00199936
0.00239693
0.00284515
0.00334357
0.00389276
0.00449654
0.0051641
0.00591051
0.00675686
0.00773319
0.00886507
0.0101622
0.0116255
0.0132281
0.0149327
0.0167239
0.0186381
0.0196149
0.0204265
0.0228349
5.38077e-06
4.62415e-06
3.97637e-06
3.43242e-06
2.95806e-06
2.54132e-06
2.27389e-06
3.10745e-06
4.08242e-06
4.05869e-06
3.01956e-06
3.00995e-06
3.0346e-06
3.64669e-06
4.57523e-06
5.12169e-06
5.44023e-06
5.6199e-06
5.78501e-06
6.43334e-06
7.53621e-06
8.49818e-06
9.49484e-06
1.04378e-05
1.12249e-05
1.16667e-05
6.44345e-05
8.40038e-05
0.000108654
0.000140597
0.00018242
0.000236408
0.000306072
0.000394706
0.000505547
0.000638832
0.000798977
0.000991268
0.00121888
0.00148202
0.00177978
0.0021123
0.00247999
0.00288475
0.00333219
0.00383279
0.0044014
0.00505609
0.00581713
0.00670127
0.00772878
0.00892831
0.0103277
0.011937
0.0136801
0.0153172
0.0165216
0.0169553
0.0183025
0.0219112
5.37319e-06
4.62171e-06
3.98392e-06
3.43907e-06
2.96555e-06
2.5527e-06
2.23078e-06
2.47943e-06
3.24469e-06
3.45586e-06
2.94817e-06
2.70283e-06
2.59533e-06
2.82811e-06
4.17372e-06
5.42297e-06
5.91665e-06
6.26362e-06
6.49903e-06
6.69505e-06
7.09945e-06
7.6674e-06
8.51242e-06
9.47956e-06
1.02412e-05
1.09061e-05
1.16089e-05
4.98284e-05
6.512e-05
8.99654e-05
0.000120005
0.000150812
0.000198369
0.000266803
0.000351101
0.000450965
0.000569601
0.000716489
0.000895652
0.00109982
0.00132144
0.00155977
0.0018124
0.00207869
0.00236548
0.00268909
0.00307323
0.0035484
0.00414966
0.00489064
0.00580592
0.00693939
0.00833915
0.0100102
0.0118051
0.0132887
0.0138334
0.0129529
0.0125969
0.017603
5.36468e-06
4.62091e-06
3.99018e-06
3.4468e-06
2.97391e-06
2.56527e-06
2.22542e-06
2.16208e-06
2.54099e-06
2.76507e-06
2.62493e-06
2.40655e-06
2.17176e-06
1.92989e-06
1.77487e-06
2.40738e-06
3.90301e-06
5.09418e-06
5.67421e-06
5.76357e-06
5.62955e-06
5.52504e-06
6.14799e-06
8.30485e-06
9.15081e-06
9.79215e-06
1.04781e-05
1.10574e-05
1.15951e-05
4.95021e-05
6.06554e-05
7.9162e-05
0.000108643
0.000166874
0.000223815
0.00028792
0.000354411
0.000447036
0.000576185
0.000725914
0.000880273
0.00104178
0.00120319
0.00135481
0.00149514
0.0016319
0.00178121
0.00198268
0.00231097
0.00272761
0.00338024
0.0043733
0.00580232
0.00766479
0.00976602
0.011413
0.0117111
0.00910635
0.00478422
0.00322019
5.35867e-06
4.61606e-06
3.99728e-06
3.46096e-06
2.98613e-06
2.57938e-06
2.23991e-06
2.03449e-06
2.09314e-06
2.18386e-06
2.14436e-06
2.02337e-06
1.87313e-06
1.71731e-06
1.57355e-06
1.51427e-06
1.66585e-06
2.05138e-06
2.66568e-06
3.57499e-06
4.10316e-06
4.2309e-06
4.20485e-06
5.61554e-06
7.28914e-06
8.35479e-06
9.17492e-06
9.82817e-06
1.02702e-05
1.0442e-05
1.08752e-05
1.16374e-05
5.54835e-05
7.2837e-05
9.55764e-05
0.00012065
0.000156437
0.000216755
0.000333793
0.000440474
0.000531738
0.000633983
0.000738651
0.000830147
0.000903023
0.000958721
0.00100189
0.00104248
0.00110404
0.00123931
0.00143973
0.00185974
0.00292405
0.00454062
0.00706638
0.00924921
0.00964987
0.00791141
0.00596813
0.00471339
5.35447e-06
4.61154e-06
3.99722e-06
3.46773e-06
2.99763e-06
2.59116e-06
2.25383e-06
2.00133e-06
1.88279e-06
1.83005e-06
1.76338e-06
1.67209e-06
1.56869e-06
1.44157e-06
1.33264e-06
1.27475e-06
1.26426e-06
1.30123e-06
1.45592e-06
1.81113e-06
2.06216e-06
2.12005e-06
2.14708e-06
2.5284e-06
3.52378e-06
4.9854e-06
6.50069e-06
7.67503e-06
8.43284e-06
8.82007e-06
9.00748e-06
9.23424e-06
9.6547e-06
1.05069e-05
4.91722e-05
5.4036e-05
6.58302e-05
8.86325e-05
0.000126768
0.000174135
0.000232994
0.000311712
0.000391942
0.000455477
0.000500211
0.000529569
0.000547275
0.000558889
0.000569462
0.000584893
0.000616356
0.000738607
0.00112387
0.00197432
0.00372134
0.00595144
0.0069092
0.00647424
0.00581203
0.00520035
5.36321e-06
4.64259e-06
4.04313e-06
3.53218e-06
3.08387e-06
2.68758e-06
2.35051e-06
2.07729e-06
1.88062e-06
1.74714e-06
1.64046e-06
1.54685e-06
1.46054e-06
1.38282e-06
1.31021e-06
1.24746e-06
1.19727e-06
1.16233e-06
1.15755e-06
1.21037e-06
1.25344e-06
1.26588e-06
1.28576e-06
1.37307e-06
1.60977e-06
2.10263e-06
2.94686e-06
4.00121e-06
4.98602e-06
5.73761e-06
6.24849e-06
6.625e-06
6.97503e-06
7.36553e-06
7.79408e-06
8.24304e-06
8.9438e-06
1.01292e-05
5.01065e-05
6.29845e-05
8.2881e-05
0.00010986
0.000140164
0.000169795
0.000195859
0.000216958
0.000233264
0.000246703
0.00025652
0.000261117
0.000267048
0.000296492
0.000383805
0.000637922
0.00134724
0.00256184
0.0033798
0.00350009
0.00339818
0.00326264
5.35391e-06
5.27488e-06
5.19596e-06
5.10406e-06
4.97265e-06
4.79053e-06
4.52699e-06
4.22896e-06
3.96848e-06
3.87219e-06
3.94871e-06
4.16238e-06
4.47812e-06
4.85563e-06
5.15638e-06
5.19346e-06
5.21531e-06
5.3118e-06
5.43645e-06
5.62112e-06
6.00405e-06
6.50364e-06
6.97307e-06
7.31269e-06
7.57434e-06
7.83959e-06
8.20946e-06
8.69657e-06
9.28569e-06
1.00069e-05
1.09155e-05
1.17942e-05
3.20246e-05
3.47327e-05
3.80587e-05
4.17961e-05
4.55958e-05
4.92112e-05
5.31391e-05
5.75883e-05
6.32668e-05
7.10842e-05
8.13176e-05
9.38604e-05
0.000108476
0.000124985
0.00014333
0.000163589
0.000185864
0.000210271
0.000236613
0.0002643
0.000295864
0.00034906
0.000487641
0.000764758
0.0010524
0.00127571
0.00148172
0.00169708
)
;

boundaryField
{
    wall
    {
        type            epsilonWallFunction;
        value           nonuniform List<scalar> 
1200
(
5.35863e-06
5.40321e-06
5.38978e-06
5.3883e-06
5.38525e-06
5.37863e-06
5.37097e-06
5.36404e-06
5.36817e-06
5.33999e-06
5.26879e-06
4.67538e-06
4.63693e-06
4.63477e-06
4.63073e-06
4.62856e-06
4.62245e-06
4.61567e-06
4.64091e-06
5.25604e-06
5.16107e-06
4.04119e-06
3.97008e-06
3.9755e-06
3.98144e-06
3.98626e-06
3.99114e-06
3.98927e-06
4.03679e-06
5.19009e-06
5.05778e-06
3.53321e-06
3.41644e-06
3.42518e-06
3.43467e-06
3.44293e-06
3.45473e-06
3.46112e-06
3.52958e-06
5.12303e-06
4.95165e-06
3.13793e-06
2.94693e-06
2.94963e-06
2.9622e-06
2.97259e-06
2.9861e-06
2.99894e-06
3.08454e-06
5.00052e-06
4.80036e-06
2.83661e-06
2.54556e-06
2.53818e-06
2.54877e-06
2.56402e-06
2.57993e-06
2.59375e-06
2.69015e-06
4.80062e-06
4.47716e-06
2.42023e-06
2.42921e-06
2.28352e-06
2.23385e-06
2.2262e-06
2.24014e-06
2.25514e-06
2.35245e-06
4.52365e-06
4.10881e-06
2.35735e-06
3.69858e-06
3.14616e-06
2.50123e-06
2.17252e-06
2.03803e-06
2.00344e-06
2.07897e-06
4.22979e-06
4.19655e-06
3.42828e-06
4.41473e-06
4.11269e-06
3.26996e-06
2.55776e-06
2.10186e-06
1.88651e-06
1.88179e-06
3.97484e-06
4.76082e-06
5.62613e-06
4.60532e-06
4.06447e-06
3.46546e-06
2.77418e-06
2.18925e-06
1.83113e-06
1.74655e-06
3.87713e-06
5.34774e-06
6.03135e-06
3.25255e-06
3.0113e-06
2.95109e-06
2.62845e-06
2.1438e-06
1.75818e-06
1.6382e-06
3.9464e-06
5.95502e-06
5.66418e-06
2.11359e-06
2.99525e-06
2.69042e-06
2.40588e-06
2.0194e-06
1.65984e-06
1.54323e-06
4.15047e-06
6.68267e-06
5.15798e-06
2.44084e-06
3.01808e-06
2.58405e-06
2.16544e-06
1.86776e-06
1.55741e-06
1.45774e-06
4.45305e-06
7.49876e-06
4.80459e-06
3.24382e-06
3.6273e-06
2.81103e-06
1.93199e-06
1.70976e-06
1.44476e-06
1.38083e-06
4.80889e-06
8.28405e-06
4.60793e-06
4.03645e-06
4.55589e-06
4.14912e-06
1.76966e-06
1.56174e-06
1.33837e-06
1.30864e-06
5.09927e-06
8.99209e-06
4.46632e-06
4.23786e-06
5.10987e-06
5.40009e-06
2.37275e-06
1.49484e-06
1.27873e-06
1.2457e-06
5.11585e-06
9.78148e-06
4.60108e-06
4.33105e-06
5.42783e-06
5.89684e-06
3.855e-06
1.62348e-06
1.26842e-06
1.197e-06
5.09303e-06
1.06102e-05
4.95781e-06
4.10421e-06
5.60618e-06
6.2443e-06
5.05911e-06
1.99457e-06
1.30494e-06
1.16364e-06
5.17028e-06
1.14881e-05
5.65761e-06
4.69573e-06
5.76791e-06
6.48207e-06
5.65487e-06
2.62624e-06
1.45556e-06
1.15907e-06
5.30949e-06
3.06491e-05
6.206e-06
6.21961e-06
6.422e-06
6.68072e-06
5.75115e-06
3.54362e-06
1.80141e-06
1.21149e-06
5.55461e-06
3.06749e-05
6.52392e-06
7.15101e-06
7.51636e-06
7.09209e-06
5.62438e-06
4.08141e-06
2.05524e-06
1.2552e-06
5.97017e-06
3.06728e-05
6.8381e-06
8.05077e-06
8.48217e-06
7.66874e-06
5.52758e-06
4.21606e-06
2.11989e-06
1.26799e-06
6.46039e-06
3.0818e-05
7.56569e-06
9.11857e-06
9.49792e-06
8.51482e-06
6.15081e-06
4.19428e-06
2.1465e-06
1.28472e-06
6.90486e-06
3.23895e-05
8.78531e-06
1.0145e-05
1.04288e-05
9.47453e-06
8.28833e-06
5.58032e-06
2.5137e-06
1.36581e-06
7.26355e-06
3.61592e-05
9.36946e-06
1.09732e-05
1.11685e-05
1.02384e-05
9.13464e-06
7.24684e-06
3.4837e-06
1.59146e-06
7.56497e-06
3.77626e-05
9.56922e-06
4.94146e-05
4.92846e-05
1.08991e-05
9.77569e-06
8.31864e-06
4.92147e-06
2.07294e-06
7.83835e-06
3.78859e-05
1.01028e-05
6.17305e-05
6.40926e-05
1.16055e-05
1.04608e-05
9.14359e-06
6.42943e-06
2.89691e-06
8.17881e-06
3.75109e-05
1.07613e-05
8.26358e-05
8.34297e-05
4.98793e-05
1.10223e-05
9.80034e-06
7.61732e-06
3.93962e-06
8.63682e-06
3.75746e-05
1.04029e-05
0.000109321
0.000107734
6.54103e-05
1.16359e-05
1.02622e-05
8.40147e-06
4.93997e-06
9.17655e-06
3.82549e-05
9.99124e-06
0.00014524
0.000138968
8.81326e-05
4.96166e-05
1.04494e-05
8.81799e-06
5.72051e-06
9.83149e-06
4.11411e-05
5.16222e-05
0.000194836
0.000179862
0.000114485
6.12545e-05
1.09303e-05
9.03579e-06
6.25664e-06
1.06356e-05
4.59867e-05
9.61104e-05
0.000262171
0.000233123
0.00014705
7.94502e-05
1.16339e-05
9.2861e-06
6.65624e-06
1.14506e-05
4.87184e-05
0.000106199
0.000349505
0.00030237
0.000197211
0.000108553
5.60455e-05
9.73171e-06
7.02982e-06
1.19008e-05
4.94812e-05
7.80796e-05
0.000458135
0.000389719
0.00026404
0.000157149
7.39257e-05
1.06497e-05
7.45838e-06
3.26407e-05
5.07709e-05
6.90472e-05
0.000585145
0.000498775
0.000344115
0.000211075
9.77566e-05
4.95978e-05
7.92561e-06
3.55007e-05
5.50311e-05
0.000113097
0.000729719
0.000630303
0.000439933
0.000272624
0.000123089
5.55504e-05
8.39896e-06
3.8903e-05
6.55415e-05
0.000195483
0.000908273
0.000789536
0.000556962
0.000337672
0.000157717
6.75248e-05
9.13048e-06
4.26226e-05
8.46084e-05
0.000322098
0.00111862
0.00098156
0.000703307
0.000432157
0.000218528
9.13326e-05
1.04099e-05
4.65881e-05
0.00011248
0.00050734
0.00136619
0.00120904
0.000881334
0.00056042
0.000322308
0.000130363
5.15812e-05
5.13355e-05
0.000149789
0.000736981
0.00166064
0.00147207
0.00108448
0.000709122
0.000418279
0.000176731
6.48315e-05
5.68182e-05
0.000198661
0.00101807
0.00200801
0.00176987
0.00130604
0.000864718
0.000511631
0.000233177
8.43468e-05
6.3376e-05
0.000259122
0.00134552
0.00240848
0.00210231
0.0015437
0.00102633
0.00061691
0.000306354
0.000110694
7.17294e-05
0.000328876
0.00171624
0.00286202
0.00246921
0.00179397
0.00118579
0.000721666
0.000379822
0.000140393
8.21754e-05
0.000403736
0.00212945
0.00336853
0.00287222
0.00205615
0.00133475
0.000812217
0.000438375
0.000169089
9.47105e-05
0.000481698
0.00258723
0.00392864
0.00331686
0.00233644
0.00147094
0.000883699
0.000480979
0.000194142
0.000109221
0.000563588
0.00309781
0.00454529
0.00381345
0.00265015
0.00159976
0.00093714
0.000509808
0.000214228
0.000125567
0.000649291
0.00367511
0.00522611
0.00437736
0.00302154
0.00173431
0.000976143
0.000527162
0.000229234
0.000143741
0.000746331
0.00434908
0.00598463
0.00502795
0.00348227
0.00190655
0.00101047
0.000537766
0.000241022
0.000163813
0.000869326
0.00515705
0.00684034
0.00578727
0.00407107
0.00218945
0.0010595
0.000546137
0.000250044
0.000185932
0.000969606
0.00615162
0.0078196
0.00667548
0.00481668
0.00261367
0.00116415
0.000556719
0.000255029
0.000210254
0.00109938
0.00739875
0.0089471
0.00771452
0.00575265
0.00329047
0.00134836
0.000586165
0.000261082
0.0002366
0.00149035
0.00890799
0.0102369
0.00893067
0.00691493
0.00428613
0.00179149
0.000706625
0.00028915
0.000264296
0.00243591
0.0106721
0.0116921
0.0103529
0.00835441
0.00577188
0.00286774
0.00107444
0.000376182
0.000296086
0.00374715
0.0126629
0.0132912
0.0119829
0.0100631
0.00774054
0.00471552
0.00204235
0.000653693
0.000349574
0.0042302
0.0146743
0.0149978
0.0137169
0.0118411
0.00984473
0.00724457
0.00392373
0.00141305
0.000488028
0.00471311
0.0165385
0.016796
0.0153088
0.0132398
0.0113866
0.00930325
0.00615157
0.00268756
0.000768629
0.0107491
0.0203427
0.01868
0.0164158
0.0136289
0.011452
0.0094544
0.00690231
0.0034661
0.00105405
0.0167676
0.0227484
0.0194549
0.0167151
0.0126051
0.00859747
0.00762445
0.00638802
0.0035459
0.00127251
0.0171663
0.023662
0.0202567
0.0181267
0.0128305
0.00432028
0.00577081
0.00572538
0.00342256
0.00147612
0.0169759
0.0249081
0.0227468
0.0218295
0.0175543
0.00316368
0.00462199
0.00512515
0.00327482
0.00169182
5.37959e-06
5.40095e-06
5.3866e-06
5.38077e-06
5.37319e-06
5.36468e-06
5.35867e-06
5.35447e-06
5.36321e-06
5.35391e-06
5.27351e-06
4.66542e-06
4.6246e-06
4.62415e-06
4.62171e-06
4.62091e-06
4.61606e-06
4.61154e-06
4.64259e-06
5.27488e-06
5.15045e-06
4.03771e-06
3.96797e-06
3.97637e-06
3.98392e-06
3.99018e-06
3.99728e-06
3.99722e-06
4.04313e-06
5.19596e-06
5.05628e-06
3.5446e-06
3.4255e-06
3.43242e-06
3.43907e-06
3.4468e-06
3.46096e-06
3.46773e-06
3.53218e-06
5.10406e-06
4.95762e-06
3.15509e-06
2.95725e-06
2.95806e-06
2.96555e-06
2.97391e-06
2.98613e-06
2.99763e-06
3.08387e-06
4.97265e-06
4.80266e-06
2.87036e-06
2.55455e-06
2.54132e-06
2.5527e-06
2.56527e-06
2.57938e-06
2.59116e-06
2.68758e-06
4.79053e-06
4.53191e-06
2.43543e-06
2.40657e-06
2.27389e-06
2.23078e-06
2.22542e-06
2.23991e-06
2.25383e-06
2.35051e-06
4.52699e-06
4.118e-06
2.34887e-06
3.6522e-06
3.10745e-06
2.47943e-06
2.16208e-06
2.03449e-06
2.00133e-06
2.07729e-06
4.22896e-06
4.19168e-06
3.38932e-06
4.38188e-06
4.08242e-06
3.24469e-06
2.54099e-06
2.09314e-06
1.88279e-06
1.88062e-06
3.96848e-06
4.75032e-06
5.58823e-06
4.59829e-06
4.05869e-06
3.45586e-06
2.76507e-06
2.18386e-06
1.83005e-06
1.74714e-06
3.87219e-06
5.33948e-06
6.01158e-06
3.27038e-06
3.01956e-06
2.94817e-06
2.62493e-06
2.14436e-06
1.76338e-06
1.64046e-06
3.94871e-06
5.94813e-06
5.64475e-06
2.16149e-06
3.00995e-06
2.70283e-06
2.40655e-06
2.02337e-06
1.67209e-06
1.54685e-06
4.16238e-06
6.6685e-06
5.13223e-06
2.46362e-06
3.0346e-06
2.59533e-06
2.17176e-06
1.87313e-06
1.56869e-06
1.46054e-06
4.47812e-06
7.4733e-06
4.77711e-06
3.26208e-06
3.64669e-06
2.82811e-06
1.92989e-06
1.71731e-06
1.44157e-06
1.38282e-06
4.85563e-06
8.25111e-06
4.58311e-06
4.04763e-06
4.57523e-06
4.17372e-06
1.77487e-06
1.57355e-06
1.33264e-06
1.31021e-06
5.15638e-06
8.95556e-06
4.44422e-06
4.24236e-06
5.12169e-06
5.42297e-06
2.40738e-06
1.51427e-06
1.27475e-06
1.24746e-06
5.19346e-06
9.73562e-06
4.57957e-06
4.33265e-06
5.44023e-06
5.91665e-06
3.90301e-06
1.66585e-06
1.26426e-06
1.19727e-06
5.21531e-06
1.0619e-05
4.94212e-06
4.05672e-06
5.6199e-06
6.26362e-06
5.09418e-06
2.05138e-06
1.30123e-06
1.16233e-06
5.3118e-06
1.14841e-05
5.63207e-06
4.67114e-06
5.78501e-06
6.49903e-06
5.67421e-06
2.66568e-06
1.45592e-06
1.15755e-06
5.43645e-06
3.07636e-05
6.18537e-06
6.19144e-06
6.43334e-06
6.69505e-06
5.76357e-06
3.57499e-06
1.81113e-06
1.21037e-06
5.62112e-06
3.06739e-05
6.50723e-06
7.13549e-06
7.53621e-06
7.09945e-06
5.62955e-06
4.10316e-06
2.06216e-06
1.25344e-06
6.00405e-06
3.06581e-05
6.82269e-06
8.04354e-06
8.49818e-06
7.6674e-06
5.52504e-06
4.2309e-06
2.12005e-06
1.26588e-06
6.50364e-06
3.07919e-05
7.5432e-06
9.11961e-06
9.49484e-06
8.51242e-06
6.14799e-06
4.20485e-06
2.14708e-06
1.28576e-06
6.97307e-06
3.23186e-05
8.74417e-06
1.01402e-05
1.04378e-05
9.47956e-06
8.30485e-06
5.61554e-06
2.5284e-06
1.37307e-06
7.31269e-06
3.59478e-05
9.335e-06
1.09562e-05
1.12249e-05
1.02412e-05
9.15081e-06
7.28914e-06
3.52378e-06
1.60977e-06
7.57434e-06
3.75571e-05
9.54117e-06
1.15596e-05
1.16667e-05
1.09061e-05
9.79215e-06
8.35479e-06
4.9854e-06
2.10263e-06
7.83959e-06
3.7758e-05
1.01457e-05
6.27203e-05
6.44345e-05
1.16089e-05
1.04781e-05
9.17492e-06
6.50069e-06
2.94686e-06
8.20946e-06
3.74266e-05
1.09525e-05
8.40784e-05
8.40038e-05
4.98284e-05
1.10574e-05
9.82817e-06
7.67503e-06
4.00121e-06
8.69657e-06
3.73904e-05
1.03436e-05
0.000111145
0.000108654
6.512e-05
1.15951e-05
1.02702e-05
8.43284e-06
4.98602e-06
9.28569e-06
3.79196e-05
9.9163e-06
0.000147298
0.000140597
8.99654e-05
4.95021e-05
1.0442e-05
8.82007e-06
5.73761e-06
1.00069e-05
4.00865e-05
1.08823e-05
0.000195416
0.00018242
0.000120005
6.06554e-05
1.08752e-05
9.00748e-06
6.24849e-06
1.09155e-05
4.55954e-05
8.52707e-05
0.000269088
0.000236408
0.000150812
7.9162e-05
1.16374e-05
9.23424e-06
6.625e-06
1.17942e-05
4.97979e-05
0.000114403
0.000357445
0.000306072
0.000198369
0.000108643
5.54835e-05
9.6547e-06
6.97503e-06
3.20246e-05
5.09872e-05
9.16355e-05
0.000465761
0.000394706
0.000266803
0.000166874
7.2837e-05
1.05069e-05
7.36553e-06
3.47327e-05
5.22334e-05
7.12772e-05
0.000590243
0.000505547
0.000351101
0.000223815
9.55764e-05
4.91722e-05
7.79408e-06
3.80587e-05
5.54446e-05
0.000105627
0.000728788
0.000638832
0.000450965
0.00028792
0.00012065
5.4036e-05
8.24304e-06
4.17961e-05
6.37875e-05
0.000182107
0.000904284
0.000798977
0.000569601
0.000354411
0.000156437
6.58302e-05
8.9438e-06
4.55958e-05
8.06488e-05
0.000302751
0.00111368
0.000991268
0.000716489
0.000447036
0.000216755
8.86325e-05
1.01292e-05
4.92112e-05
0.000106955
0.000487491
0.00136011
0.00121888
0.000895652
0.000576185
0.000333793
0.000126768
5.01065e-05
5.31391e-05
0.000142876
0.000715914
0.0016533
0.00148202
0.00109982
0.000725914
0.000440474
0.000174135
6.29845e-05
5.75883e-05
0.000190299
0.000995122
0.00199936
0.00177978
0.00132144
0.000880273
0.000531738
0.000232994
8.2881e-05
6.32668e-05
0.000248649
0.0013202
0.00239693
0.0021123
0.00155977
0.00104178
0.000633983
0.000311712
0.00010986
7.10842e-05
0.000314032
0.00168707
0.00284515
0.00247999
0.0018124
0.00120319
0.000738651
0.000391942
0.000140164
8.13176e-05
0.000378871
0.00209311
0.00334357
0.00288475
0.00207869
0.00135481
0.000830147
0.000455477
0.000169795
9.38604e-05
0.000439898
0.00253698
0.00389276
0.00333219
0.00236548
0.00149514
0.000903023
0.000500211
0.000195859
0.000108476
0.00050799
0.00302008
0.00449654
0.00383279
0.00268909
0.0016319
0.000958721
0.000529569
0.000216958
0.000124985
0.000582408
0.00356248
0.0051641
0.0044014
0.00307323
0.00178121
0.00100189
0.000547275
0.000233264
0.00014333
0.000666547
0.00419655
0.00591051
0.00505609
0.0035484
0.00198268
0.00104248
0.000558889
0.000246703
0.000163589
0.000773111
0.00495884
0.00675686
0.00581713
0.00414966
0.00231097
0.00110404
0.000569462
0.00025652
0.000185864
0.000877718
0.00591406
0.00773319
0.00670127
0.00489064
0.00272761
0.00123931
0.000584893
0.000261117
0.000210271
0.00100695
0.0071562
0.00886507
0.00772878
0.00580592
0.00338024
0.00143973
0.000616356
0.000267048
0.000236613
0.00125793
0.00870863
0.0101622
0.00892831
0.00693939
0.0043733
0.00185974
0.000738607
0.000296492
0.0002643
0.00205015
0.0105303
0.0116255
0.0103277
0.00833915
0.00580232
0.00292405
0.00112387
0.000383805
0.000295864
0.00349504
0.0124974
0.0132281
0.011937
0.0100102
0.00766479
0.00454062
0.00197432
0.000637922
0.00034906
0.0042212
0.01449
0.0149327
0.0136801
0.0118051
0.00976602
0.00706638
0.00372134
0.00134724
0.000487641
0.00466593
0.0163111
0.0167239
0.0153172
0.0132887
0.011413
0.00924921
0.00595144
0.00256184
0.000764758
0.00988814
0.0199636
0.0186381
0.0165216
0.0138334
0.0117111
0.00964987
0.0069092
0.0033798
0.0010524
0.0166427
0.0227487
0.0196149
0.0169553
0.0129529
0.00910635
0.00791141
0.00647424
0.00350009
0.00127571
0.0171419
0.0236622
0.0204265
0.0183025
0.0125969
0.00478422
0.00596813
0.00581203
0.00339818
0.00148172
0.0169701
0.0249034
0.0228349
0.0219112
0.017603
0.00322019
0.00471339
0.00520035
0.00326264
0.00169708
)
;
    }
    inlet
    {
        type            turbulentMixingLengthDissipationRateInlet;
        mixingLength    0.071;
        phi             phi;
        k               k;
        value           uniform 2.72107e-07;
    }
    outlet
    {
        type            inletOutlet;
        inletValue      uniform 0.0001;
        value           nonuniform List<scalar> 
20
(
0.0001
0.0001
0.0001
0.0001
0.0001
0.00316368
0.00462199
0.00512515
0.00327482
0.00169182
0.0001
0.0001
0.0001
0.0001
0.0001
0.00322019
0.00471339
0.00520035
0.00326264
0.00169708
)
;
    }
    heatWall
    {
        type            epsilonWallFunction;
        value           nonuniform List<scalar> 
240
(
5.33999e-06
5.35391e-06
5.25604e-06
5.27488e-06
5.19009e-06
5.19596e-06
5.12303e-06
5.10406e-06
5.00052e-06
4.97265e-06
4.80062e-06
4.79053e-06
4.52365e-06
4.52699e-06
4.22979e-06
4.22896e-06
3.97484e-06
3.96848e-06
3.87713e-06
3.87219e-06
3.9464e-06
3.94871e-06
4.15047e-06
4.16238e-06
4.45305e-06
4.47812e-06
4.80889e-06
4.85563e-06
5.09927e-06
5.15638e-06
5.11585e-06
5.19346e-06
5.09303e-06
5.21531e-06
5.17028e-06
5.3118e-06
5.30949e-06
5.43645e-06
5.55461e-06
5.62112e-06
5.97017e-06
6.00405e-06
6.46039e-06
6.50364e-06
6.90486e-06
6.97307e-06
7.26355e-06
7.31269e-06
7.56497e-06
7.57434e-06
7.83835e-06
7.83959e-06
8.17881e-06
8.20946e-06
8.63682e-06