/*--------------------------------*- C++ -*----------------------------------*\
  =========                 |
  \\      /  F ield         | OpenFOAM: The Open Source CFD Toolbox
   \\    /   O peration     | Website:  https://openfoam.org
    \\  /    A nd           | Version:  8
     \\/     M anipulation  |
\*---------------------------------------------------------------------------*/
FoamFile
{
    version     2.0;
    format      ascii;
    class       volScalarField;
    location    "400";
    object      nut;
}
// * * * * * * * * * * * * * * * * * * * * * * * * * * * * * * * * * * * * * //

dimensions      [0 2 -1 0 0 0 0];

internalField   nonuniform List<scalar> 
1200
(
9.45188e-06
9.35731e-06
9.23665e-06
9.09274e-06
8.95166e-06
8.76701e-06
8.38192e-06
7.9334e-06
8.04619e-06
8.74007e-06
9.431e-06
1.01088e-05
1.08673e-05
1.16695e-05
1.24075e-05
1.30508e-05
1.37397e-05
1.44819e-05
1.5178e-05
6.02338e-06
6.04308e-06
6.0513e-06
6.06034e-06
6.15717e-06
6.37392e-06
6.46868e-06
6.48127e-06
6.46551e-06
6.4608e-06
6.48426e-06
6.57712e-06
6.92323e-06
7.17649e-06
7.23678e-06
7.28054e-06
7.37252e-06
7.66118e-06
8.25644e-06
9.08246e-06
1.00191e-05
1.10429e-05
1.21051e-05
1.31362e-05
1.40543e-05
1.47702e-05
1.53005e-05
1.57074e-05
1.61821e-05
1.68148e-05
1.7094e-05
1.7369e-05
1.86918e-05
2.33617e-05
2.8912e-05
3.13256e-05
3.21764e-05
4.06145e-05
4.93678e-05
4.98543e-05
4.96974e-05
7.35608e-06
6.39162e-06
5.55267e-06
4.83485e-06
4.27056e-06
3.86106e-06
3.30776e-06
3.21236e-06
4.65337e-06
7.68161e-06
8.26078e-06
7.75428e-06
7.05591e-06
6.56995e-06
6.30244e-06
6.11103e-06
6.29693e-06
6.79371e-06
7.74416e-06
8.50403e-06
8.94472e-06
9.37828e-06
1.0369e-05
1.20189e-05
1.2818e-05
1.30855e-05
1.38631e-05
1.52816e-05
1.47131e-05
1.37509e-05
2.82532e-06
4.50103e-06
5.0874e-06
4.80452e-06
4.29899e-06
4.79322e-06
5.75712e-06
6.83719e-06
8.05129e-06
9.17436e-06
1.02523e-05
1.12753e-05
1.22436e-05
1.31643e-05
1.40509e-05
1.49193e-05
1.57813e-05
1.66646e-05
1.76235e-05
1.87223e-05
1.99482e-05
2.12675e-05
2.26019e-05
2.39463e-05
2.51498e-05
2.61663e-05
2.79182e-05
2.92845e-05
2.96673e-05
3.01787e-05
7.3465e-06
6.34062e-06
5.4519e-06
4.67218e-06
4.00467e-06
3.47146e-06
3.29441e-06
5.02147e-06
6.02436e-06
6.31714e-06
4.47674e-06
2.91221e-06
3.31069e-06
4.43367e-06
5.53029e-06
5.81346e-06
5.93557e-06
5.61792e-06
6.42055e-06
8.51498e-06
9.80611e-06
1.10463e-05
1.25049e-05
1.38911e-05
1.5001e-05
3.73038e-06
4.1214e-06
4.54923e-06
4.99927e-06
5.50763e-06
6.0527e-06
6.71529e-06
7.37702e-06
8.04748e-06
8.69498e-06
9.31561e-06
9.99738e-06
1.07104e-05
1.14454e-05
1.22143e-05
1.30139e-05
1.38264e-05
1.46409e-05
1.54506e-05
1.62534e-05
1.70524e-05
1.78562e-05
1.86772e-05
1.95298e-05
2.04303e-05
2.13816e-05
2.23743e-05
2.33957e-05
2.44202e-05
2.54282e-05
2.64132e-05
2.73977e-05
2.79345e-05
2.83104e-05
2.93463e-05
7.34477e-06
6.33993e-06
5.45231e-06
4.677e-06
4.00971e-06
3.45862e-06
3.10809e-06
4.26875e-06
5.6129e-06
5.57689e-06
4.12963e-06
4.09719e-06
4.12847e-06
4.96209e-06
6.23876e-06
7.00662e-06
7.44203e-06
7.68166e-06
7.89806e-06
8.79477e-06
1.02704e-05
1.1599e-05
1.30149e-05
1.42733e-05
1.52193e-05
3.74418e-06
4.14519e-06
4.53277e-06
4.9392e-06
5.38766e-06
5.8782e-06
6.40634e-06
6.98077e-06
7.59797e-06
8.25254e-06
8.92273e-06
9.61111e-06
1.03234e-05
1.10557e-05
1.17961e-05
1.25341e-05
1.32663e-05
1.3991e-05
1.47102e-05
1.54312e-05
1.6166e-05
1.69277e-05
1.7728e-05
1.85752e-05
1.94693e-05
2.04148e-05
2.14224e-05
2.24946e-05
2.36119e-05
2.47125e-05
2.56776e-05
2.63714e-05
2.66449e-05
2.73007e-05
2.89598e-05
7.34469e-06
6.33604e-06
5.44825e-06
4.68627e-06
4.03471e-06
3.47233e-06
3.0465e-06
3.39831e-06
4.45579e-06
4.74643e-06
4.0471e-06
3.68108e-06
3.53535e-06
3.84266e-06
5.67548e-06
7.40161e-06
8.08745e-06
8.56319e-06
8.88944e-06
9.15853e-06
9.72904e-06
1.05272e-05
1.16784e-05
1.29704e-05
1.40075e-05
1.49214e-05
1.58794e-05
3.79791e-06
4.27e-06
4.74398e-06
5.1557e-06
5.53613e-06
6.02534e-06
6.64563e-06
7.29577e-06
7.94349e-06
8.58959e-06
9.26979e-06
9.98298e-06
1.0686e-05
1.13549e-05
1.19936e-05
1.26022e-05
1.3185e-05
1.37599e-05
1.4356e-05
1.50062e-05
1.57408e-05
1.65821e-05
1.75123e-05
1.85377e-05
1.96774e-05
2.09358e-05
2.22628e-05
2.35303e-05
2.4509e-05
2.49248e-05
2.46154e-05
2.55571e-05
2.73021e-05
7.34695e-06
6.33267e-06
5.44886e-06
4.69434e-06
4.05158e-06
3.49562e-06
3.04021e-06
2.95791e-06
3.48288e-06
3.79112e-06
3.60052e-06
3.30388e-06
3.02029e-06
2.66843e-06
2.42446e-06
3.21705e-06
5.24108e-06
6.9143e-06
7.74784e-06
7.89045e-06
7.72532e-06
7.60278e-06
8.45817e-06
1.13526e-05
1.25015e-05
1.33773e-05
1.43098e-05
1.50527e-05
1.60293e-05
3.82802e-06
4.13959e-06
4.47125e-06
4.93684e-06
5.55568e-06
6.24526e-06
6.81383e-06
7.33346e-06
7.92408e-06
8.62162e-06
9.30554e-06
9.91875e-06
1.04858e-05
1.09953e-05
1.14335e-05
1.1809e-05
1.2151e-05
1.25047e-05
1.29563e-05
1.36347e-05
1.4396e-05
1.54423e-05
1.68305e-05
1.85127e-05
2.03374e-05
2.20694e-05
2.32872e-05
2.36139e-05
2.19183e-05
1.8209e-05
1.57702e-05
7.3505e-06
6.33287e-06
5.44488e-06
4.69651e-06
4.06458e-06
3.52002e-06
3.05984e-06
2.78286e-06
2.86368e-06
2.98702e-06
2.93207e-06
2.76794e-06
2.56699e-06
2.3572e-06
2.16136e-06
2.08088e-06
2.22923e-06
2.69851e-06
3.58203e-06
4.84147e-06
5.58806e-06
5.77995e-06
5.75691e-06
7.62935e-06
9.9001e-06
1.13681e-05
1.24992e-05
1.33973e-05
1.40613e-05
1.43352e-05
1.50612e-05
1.6354e-05
3.96297e-06
4.36243e-06
4.86645e-06
5.27405e-06
5.71521e-06
6.32736e-06
7.14735e-06
7.86388e-06
8.3907e-06
8.88881e-06
9.34494e-06
9.71311e-06
9.98614e-06
1.01821e-05
1.03296e-05
1.04688e-05
1.06461e-05
1.10434e-05
1.16379e-05
1.26126e-05
1.41002e-05
1.70031e-05
1.98836e-05
2.17431e-05
2.21458e-05
2.07687e-05
1.89144e-05
1.74463e-05
7.35148e-06
6.3275e-06
5.4354e-06
4.68387e-06
4.06415e-06
3.53616e-06
3.08347e-06
2.7399e-06
2.57745e-06
2.50047e-06
2.40597e-06
2.28262e-06
2.15364e-06
2.01455e-06
1.86634e-06
1.7598e-06
1.73464e-06
1.78864e-06
1.99493e-06
2.46754e-06
2.82331e-06
2.9202e-06
2.9572e-06
3.44559e-06
4.73922e-06
6.67909e-06
8.73414e-06
1.03752e-05
1.1482e-05
1.20854e-05
1.24191e-05
1.27854e-05
1.33995e-05
1.47084e-05
3.81842e-06
4.00299e-06
4.26025e-06
4.6984e-06
5.35965e-06
6.00131e-06
6.52299e-06
7.02283e-06
7.53883e-06
7.94582e-06
8.20753e-06
8.36545e-06
8.455e-06
8.50988e-06
8.55405e-06
8.63863e-06
8.77555e-06
9.24747e-06
1.01743e-05
1.27732e-05
1.61415e-05
1.89498e-05
1.9918e-05
1.94385e-05
1.87063e-05
1.80109e-05
7.36414e-06
6.36856e-06
5.49351e-06
4.75707e-06
4.15657e-06
3.65459e-06
3.21421e-06
2.84423e-06
2.57238e-06
2.38555e-06
2.23668e-06
2.10754e-06
1.99177e-06
1.8867e-06
1.78852e-06
1.70172e-06
1.63437e-06
1.58914e-06
1.58423e-06
1.65526e-06
1.71938e-06
1.74473e-06
1.77213e-06
1.87645e-06
2.16989e-06
2.80244e-06
3.89998e-06
5.31047e-06
6.69682e-06
7.79821e-06
8.56131e-06
9.12852e-06
9.65955e-06
1.02754e-05
1.09685e-05
1.16534e-05
1.26709e-05
1.4481e-05
3.91494e-06
4.25797e-06
4.60573e-06
5.02173e-06
5.45339e-06
5.79517e-06
6.05551e-06
6.25024e-06
6.39341e-06
6.50782e-06
6.61511e-06
6.72011e-06
6.79482e-06
6.98145e-06
7.48656e-06
8.97657e-06
1.15584e-05
1.44156e-05
1.58684e-05
1.60069e-05
1.57628e-05
1.54452e-05
9.46865e-06
9.36228e-06
9.23672e-06
9.09482e-06
8.92647e-06
8.73649e-06
8.44576e-06
8.10727e-06
7.78687e-06
7.65217e-06
7.73761e-06
7.98982e-06
8.34693e-06
8.74091e-06
9.0731e-06
9.1481e-06
9.11318e-06
9.14248e-06
9.22128e-06
9.45404e-06
9.9507e-06
1.05785e-05
1.11523e-05
1.15307e-05
1.17822e-05
1.20162e-05
1.235e-05
1.28053e-05
1.3333e-05
1.3891e-05
1.44964e-05
1.51513e-05
1.57965e-05
6.13279e-06
6.20478e-06
6.35126e-06
6.5336e-06
6.74348e-06
6.99785e-06
7.30917e-06
7.65416e-06
8.02727e-06
8.43087e-06
8.84644e-06
9.27059e-06
9.70188e-06
1.01385e-05
1.05824e-05
1.1032e-05
1.14875e-05
1.19476e-05
1.24065e-05
1.2894e-05
1.36105e-05
1.50933e-05
1.75563e-05
1.96297e-05
2.09237e-05
2.19696e-05
2.29919e-05
9.45114e-06
9.37055e-06
9.23873e-06
9.08582e-06
8.94734e-06
8.75513e-06
8.44036e-06
7.93806e-06
8.03584e-06
8.72212e-06
9.41737e-06
1.01003e-05
1.08546e-05
1.16569e-05
1.23912e-05
1.30263e-05
1.36854e-05
1.44828e-05
1.5174e-05
5.96989e-06
6.02906e-06
6.05089e-06
6.05969e-06
6.1533e-06
6.36245e-06
6.45735e-06
6.47239e-06
6.46612e-06
6.45578e-06
6.47353e-06
6.55066e-06
6.83664e-06
7.19769e-06
7.31031e-06
7.35973e-06
7.43578e-06
7.63624e-06
8.12272e-06
8.90801e-06
9.87108e-06
1.09652e-05
1.21363e-05
1.33096e-05
1.4394e-05
1.51626e-05
1.53545e-05
1.54809e-05
1.57446e-05
1.61449e-05
1.67955e-05
1.74458e-05
1.78713e-05
2.14797e-05
2.72557e-05
3.04116e-05
3.18844e-05
3.9433e-05
4.91137e-05
4.98265e-05
4.9691e-05
7.3583e-06
6.39294e-06
5.54348e-06
4.83652e-06
4.29548e-06
3.91147e-06
3.32687e-06
3.19948e-06
4.6e-06
7.62857e-06
8.23369e-06
7.72766e-06
7.02015e-06
6.5328e-06
6.26908e-06
6.08084e-06
6.2677e-06
6.75984e-06
7.70869e-06
8.47559e-06
8.92051e-06
9.35666e-06
1.0338e-05
1.19633e-05
1.27728e-05
1.30632e-05
1.39025e-05
1.58127e-05
1.43612e-05
1.34566e-05
1.39667e-05
4.02042e-06
5.02797e-06
5.04667e-06
4.51291e-06
4.70158e-06
5.60759e-06
6.67696e-06
7.89129e-06
9.0637e-06
1.01556e-05
1.11872e-05
1.21609e-05
1.30865e-05
1.39795e-05
1.48659e-05
1.56918e-05
1.65201e-05
1.74367e-05
1.84793e-05
1.96964e-05
2.10982e-05
2.24775e-05
2.37926e-05
2.49837e-05
2.59833e-05
2.77254e-05
2.92728e-05
2.96661e-05
3.01774e-05
7.34701e-06
6.33929e-06
5.43803e-06
4.66963e-06
4.01326e-06
3.48029e-06
3.26431e-06
4.95742e-06
5.97842e-06
6.3078e-06
4.50182e-06
3.00784e-06
3.35765e-06
4.46157e-06
5.54829e-06
5.82389e-06
5.9504e-06
5.59926e-06
6.38361e-06
8.47342e-06
9.7838e-06
1.10371e-05
1.25075e-05
1.38962e-05
1.51583e-05
1.69923e-05
4.13806e-06
4.57479e-06
5.03073e-06
5.53808e-06
6.06739e-06
6.76606e-06
7.42229e-06
8.07451e-06
8.71024e-06
9.32557e-06
9.9849e-06
1.06934e-05
1.14326e-05
1.22095e-05
1.30154e-05
1.38315e-05
1.46462e-05
1.5451e-05
1.62428e-05
1.70273e-05
1.78145e-05
1.86188e-05
1.94595e-05
2.03543e-05
2.13068e-05
2.23075e-05
2.33374e-05
2.43685e-05
2.53755e-05
2.63561e-05
2.73606e-05
2.79992e-05
2.83831e-05
2.9386e-05
7.34922e-06
6.33601e-06
5.44093e-06
4.67794e-06
4.02069e-06
3.45811e-06
3.09509e-06
4.21578e-06
5.57064e-06
5.5686e-06
4.13939e-06
4.11732e-06
4.14836e-06
4.98599e-06
6.26371e-06
7.02386e-06
7.46124e-06
7.70545e-06
7.9284e-06
8.81864e-06
1.0311e-05
1.16322e-05
1.3028e-05
1.43776e-05
1.58519e-05
1.87068e-05
4.13946e-06
4.53861e-06
4.95141e-06
5.41272e-06
5.90938e-06
6.44188e-06
7.00647e-06
7.62974e-06
8.28313e-06
8.95573e-06
9.64249e-06
1.03514e-05
1.10795e-05
1.18145e-05
1.25467e-05
1.32729e-05
1.39923e-05
1.47082e-05
1.54291e-05
1.61669e-05
1.69343e-05
1.77409e-05
1.85933e-05
1.94903e-05
2.04395e-05
2.14474e-05
2.25096e-05
2.3609e-05
2.47006e-05
2.56764e-05
2.64131e-05
2.67662e-05
2.74108e-05
2.90248e-05
7.35315e-06
6.3303e-06
5.44134e-06
4.68988e-06
4.04335e-06
3.47665e-06
3.04204e-06
3.36883e-06
4.42039e-06
4.7328e-06
4.04831e-06
3.6969e-06
3.55063e-06
3.86333e-06
5.7042e-06
7.42523e-06
8.10683e-06
8.58464e-06
8.90985e-06
9.17949e-06
9.73977e-06
1.05244e-05
1.1674e-05
1.29812e-05
1.40207e-05
1.49695e-05
1.58938e-05
3.81635e-06
4.31488e-06
4.94539e-06
5.24342e-06
5.61324e-06
6.05942e-06
6.6664e-06
7.3303e-06
7.99043e-06
8.64029e-06
9.31965e-06
1.00262e-05
1.0718e-05
1.1376e-05
1.20032e-05
1.26014e-05
1.31791e-05
1.37567e-05
1.43638e-05
1.50341e-05
1.57944e-05
1.66531e-05
1.75905e-05
1.86206e-05
1.9761e-05
2.09925e-05
2.22845e-05
2.35392e-05
2.45409e-05
2.50347e-05
2.48715e-05
2.56467e-05
2.70095e-05
7.35658e-06
6.3266e-06
5.44403e-06
4.69899e-06
4.05732e-06
3.50089e-06
3.03939e-06
2.94431e-06
3.45882e-06
3.77667e-06
3.59562e-06
3.31105e-06
3.01163e-06
2.65758e-06
2.42902e-06
3.26448e-06
5.30655e-06
6.96055e-06
7.77442e-06
7.90554e-06
7.73009e-06
7.59658e-06
8.45276e-06
1.13746e-05
1.25247e-05
1.34015e-05
1.43369e-05
1.51043e-05
1.59591e-05
3.82151e-06
4.11921e-06
4.47133e-06
4.99586e-06
5.65531e-06
6.28226e-06
6.86064e-06
7.39355e-06
7.99647e-06
8.68098e-06
9.34578e-06
9.94672e-06
1.04976e-05
1.0991e-05
1.14193e-05
1.17921e-05
1.21405e-05
1.25217e-05
1.30284e-05
1.37395e-05
1.45271e-05
1.55855e-05
1.70132e-05
1.86638e-05
2.04038e-05
2.20779e-05
2.33139e-05
2.37557e-05
2.22808e-05
1.88668e-05
1.57727e-05
7.35811e-06
6.32653e-06
5.44162e-06
4.70454e-06
4.07201e-06
3.52217e-06
3.05919e-06
2.77776e-06
2.85074e-06
2.97658e-06
2.93153e-06
2.77485e-06
2.5801e-06
2.37269e-06
2.18365e-06
2.07729e-06
2.24027e-06
2.74616e-06
3.61364e-06
4.87589e-06
5.61375e-06
5.79771e-06
5.77002e-06
7.6787e-06
9.95801e-06
1.14185e-05
1.25445e-05
1.3441e-05
1.40714e-05
1.43272e-05
1.49779e-05
1.61021e-05
3.95929e-06
4.37171e-06
4.84046e-06
5.24313e-06
5.69397e-06
6.35086e-06
7.17245e-06
7.87902e-06
8.42931e-06
8.91127e-06
9.34614e-06
9.70475e-06
9.97524e-06
1.01736e-05
1.03385e-05
1.0517e-05
1.06833e-05
1.11124e-05
1.18289e-05
1.28045e-05
1.48509e-05
1.73958e-05
1.99595e-05
2.17828e-05
2.22984e-05
2.1007e-05
1.91335e-05
1.76425e-05
7.35736e-06
6.32128e-06
5.43268e-06
4.69342e-06
4.07574e-06
3.53849e-06
3.08075e-06
2.7353e-06
2.57123e-06
2.49637e-06
2.41106e-06
2.29889e-06
2.17997e-06
2.01405e-06
1.85231e-06
1.75187e-06
1.73007e-06
1.77927e-06
1.9871e-06
2.4704e-06
2.82392e-06
2.91575e-06
2.95718e-06
3.46977e-06
4.80187e-06
6.7715e-06
8.83642e-06
1.04602e-05
1.15297e-05
1.20933e-05
1.23829e-05
1.27152e-05
1.33082e-05
1.45446e-05
3.79553e-06
3.96977e-06
4.23374e-06
4.68398e-06
5.32288e-06
5.94628e-06
6.49739e-06
7.01176e-06
7.50571e-06
7.92743e-06
8.20734e-06
8.3777e-06
8.47996e-06
8.55661e-06
8.61336e-06
8.73075e-06
8.91875e-06
9.39089e-06
1.07282e-05
1.32889e-05
1.6247e-05
1.89566e-05
2.003e-05
1.95806e-05
1.88185e-05
1.81035e-05
7.36594e-06
6.3635e-06
5.49277e-06
4.75478e-06
4.16245e-06
3.65919e-06
3.21202e-06
2.83952e-06
2.56922e-06
2.38494e-06
2.23849e-06
2.11089e-06
1.99394e-06
1.88812e-06
1.78903e-06
1.70306e-06
1.63534e-06
1.58835e-06
1.58194e-06
1.65348e-06
1.71489e-06
1.73687e-06
1.76638e-06
1.88303e-06
2.19754e-06
2.85449e-06
3.98027e-06
5.4064e-06
6.76996e-06
7.8304e-06
8.55518e-06
9.09166e-06
9.59135e-06
1.016e-05
1.07956e-05
1.14399e-05
1.24316e-05
1.41562e-05
3.86155e-06
4.19468e-06
4.56381e-06
4.99575e-06
5.42703e-06
5.77814e-06
6.05105e-06
6.25749e-06
6.41241e-06
6.54849e-06
6.6798e-06
6.7909e-06
6.87207e-06
7.08318e-06
7.72905e-06
9.21158e-06
1.15715e-05
1.42659e-05
1.57558e-05
1.59159e-05
1.56771e-05
1.53815e-05
9.44952e-06
9.34516e-06
9.23925e-06
9.10996e-06
8.96176e-06
8.76239e-06
8.45783e-06
8.10726e-06
7.77648e-06
7.63963e-06
7.72639e-06
7.98715e-06
8.36182e-06
8.79353e-06
9.14361e-06
9.19172e-06
9.17816e-06
9.25107e-06
9.36486e-06
9.55381e-06
9.99787e-06
1.0603e-05
1.11814e-05
1.15711e-05
1.1825e-05
1.20478e-05
1.23839e-05
1.28472e-05
1.33792e-05
1.39506e-05
1.45956e-05
1.53063e-05
6.04795e-06
6.14322e-06
6.28588e-06
6.46484e-06
6.66491e-06
6.88653e-06
7.14627e-06
7.43362e-06
7.73681e-06
8.0714e-06
8.44515e-06
8.84699e-06
9.26848e-06
9.70232e-06
1.01441e-05
1.05922e-05
1.10455e-05
1.1504e-05
1.19668e-05
1.24272e-05
1.29212e-05
1.36336e-05
1.50867e-05
1.74745e-05
1.95403e-05
2.08687e-05
2.19527e-05
2.30008e-05
)
;

boundaryField
{
    wall
    {
        type            nutkWallFunction;
        Cmu             0.09;
        kappa           0.41;
        E               9.8;
        value           nonuniform List<scalar> 
1200
(
0
0
0
0
0
0
0
0
0
0
0
0
0
0
0
0
0
0
0
0
0
0
0
0
0
0
0
0
0
0
0
0
0
0
0
0
0
0
0
0
0
0
0
0
0
0
0
0
0
0
0
0
0
0
0
0
0
0
0
0
0
0
0
0
0
0
0
0
0
0
0
0
0
0
0
0
0
0
0
0
0
0
0
0
0
0
0
0
0
0
0
0
0
0
0
0
0
0
0
0
0
0
0
0
0
0
0
0
0
0
0
0
0
0
0
0
0
0
0
0
0
0
0
0
0
0
0
0
0
0
0
0
0
0
0
0
0
0
0
0
0
0
0
0
0
0
0
0
0
0
0
0
0
0
0
0
0
0
0
0
0
0
0
0
0
0
0
0
0
0
0
0
0
0
0
0
0
0
0
0
0
0
0
0
0
0
0
0
0
0
0
0
0
0
0
0
0
0
0
0
2.75985e-11
0
0
0
0
0
0
0
0
0
3.20445e-10
0
0
0
0
0
0
0
0
0
1.3508e-09
0
0
0
0
0
0
0
0
0
1.17982e-08
0
0
0
0
0
0
0
0
0
3.5242e-08
0
0
0
0
0
0
0
0
0
4.47528e-08
0
0
0
0
0
0
0
0
0
4.54875e-08
0
5.06689e-08
5.79818e-08
0
0
0
0
0
0
4.33159e-08
0
1.19311e-07
1.20381e-07
2.424e-09
0
0
0
0
0
4.34037e-08
0
1.90651e-07
1.85355e-07
6.65346e-08
2.55879e-10
0
0
0
0
4.69511e-08
0
2.69349e-07
2.55209e-07
1.38984e-07
3.14694e-09
0
0
0
0
6.16256e-08
0
3.56378e-07
3.31149e-07
2.06022e-07
5.03039e-08
0
0
0
0
8.98698e-08
1.45499e-07
4.54117e-07
4.12969e-07
2.73115e-07
1.09083e-07
3.71394e-09
0
0
0
1.06591e-07
1.88463e-07
5.55281e-07
5.01196e-07
3.58142e-07
1.86761e-07
2.85562e-08
0
0
1.23504e-09
1.10913e-07
1.18979e-07
6.57923e-07
5.94079e-07
4.53267e-07
2.88326e-07
9.20258e-08
0
0
1.12731e-08
1.16662e-07
7.70998e-08
7.57351e-07
6.91161e-07
5.47952e-07
3.82699e-07
1.63808e-07
3.11388e-09
0
2.67997e-08
1.33777e-07
1.89011e-07
8.5287e-07
7.89717e-07
6.42055e-07
4.67848e-07
2.25662e-07
2.89573e-08
0
4.58599e-08
1.74323e-07
3.45478e-07
9.54452e-07
8.90732e-07
7.3782e-07
5.44183e-07
2.95545e-07
7.22783e-08
0
6.62241e-08
2.40903e-07
5.12446e-07
1.05783e-06
9.94628e-07
8.38729e-07
6.3609e-07
3.94299e-07
1.44423e-07
0
8.72931e-08
3.23597e-07
6.888e-07
1.16315e-06
1.1004e-06
9.43081e-07
7.4095e-07
5.24593e-07
2.41085e-07
1.33679e-08
1.1134e-07
4.14391e-07
8.51027e-07
1.27207e-06
1.2063e-06
1.0451e-06
8.42809e-07
6.24355e-07
3.32206e-07
6.52177e-08
1.38106e-07
5.11646e-07
1.00562e-06
1.38418e-06
1.311e-06
1.14172e-06
9.33947e-07
7.04082e-07
4.17711e-07
1.25941e-07
1.67691e-07
6.10753e-07
1.15088e-06
1.49736e-06
1.414e-06
1.23318e-06
1.0171e-06
7.81503e-07
5.06425e-07
1.9454e-07
2.01468e-07
7.06171e-07
1.28732e-06
1.61028e-06
1.51505e-06
1.31933e-06
1.09063e-06
8.50188e-07
5.84694e-07
2.60412e-07
2.39319e-07
7.92769e-07
1.41634e-06
1.72209e-06
1.61445e-06
1.40097e-06
1.15329e-06
9.04339e-07
6.41188e-07
3.14342e-07
2.79783e-07
8.68586e-07
1.53979e-06
1.8325e-06
1.71329e-06
1.48057e-06
1.20644e-06
9.44166e-07
6.78534e-07
3.56e-07
3.21755e-07
9.35991e-07
1.66017e-06
1.94176e-06
1.81317e-06
1.56214e-06
1.25385e-06
9.72513e-07
7.02096e-07
3.86765e-07
3.64411e-07
9.97139e-07
1.77994e-06
2.05083e-06
1.91598e-06
1.65036e-06
1.30109e-06
9.9281e-07
7.15725e-07
4.08636e-07
4.07379e-07
1.06103e-06
1.90338e-06
2.16119e-06
2.02348e-06
1.74961e-06
1.35874e-06
1.01065e-06
7.23936e-07
4.25347e-07
4.50598e-07
1.13603e-06
2.03503e-06
2.27455e-06
2.13697e-06
1.8634e-06
1.44559e-06
1.03482e-06
7.30386e-07
4.38589e-07
4.94053e-07
1.1871e-06
2.17991e-06
2.3928e-06
2.25678e-06
1.99092e-06
1.55668e-06
1.08514e-06
7.39516e-07
4.47522e-07
5.37779e-07
1.24633e-06
2.33987e-06
2.51669e-06
2.38319e-06
2.13201e-06
1.70946e-06
1.1646e-06
7.60899e-07
4.56276e-07
5.81348e-07
1.41353e-06
2.50988e-06
2.64545e-06
2.51675e-06
2.28649e-06
1.90073e-06
1.31909e-06
8.39529e-07
4.8965e-07
6.23804e-07
1.76976e-06
2.68341e-06
2.77748e-06
2.6576e-06
2.45448e-06
2.13324e-06
1.5924e-06
1.02299e-06
5.80066e-07
6.68749e-07
2.14181e-06
2.85647e-06
2.90961e-06
2.80317e-06
2.62936e-06
2.38289e-06
1.96133e-06
1.38341e-06
8.03767e-07
7.36435e-07
2.26933e-06
3.01213e-06
3.03879e-06
2.94395e-06
2.79146e-06
2.60718e-06
2.32381e-06
1.828e-06
1.18104e-06
8.80704e-07
2.35792e-06
3.14328e-06
3.16416e-06
3.06356e-06
2.90942e-06
2.75396e-06
2.55606e-06
2.18751e-06
1.57117e-06
1.10437e-06
3.15066e-06
3.37806e-06
3.2865e-06
3.14358e-06
2.94563e-06
2.7688e-06
2.58062e-06
2.29322e-06
1.75147e-06
1.28085e-06
3.72749e-06
3.52252e-06
3.33907e-06
3.16745e-06
2.87433e-06
2.50615e-06
2.38685e-06
2.22754e-06
1.76834e-06
1.3929e-06
3.75979e-06
3.57105e-06
3.38671e-06
3.25738e-06
2.91767e-06
1.95036e-06
2.14642e-06
2.13468e-06
1.74117e-06
1.48489e-06
3.74589e-06
3.63529e-06
3.5244e-06
3.47453e-06
3.22982e-06
1.69991e-06
1.96466e-06
2.04432e-06
1.70709e-06
1.57329e-06
0
0
0
0
0
0
0
0
0
0
0
0
0
0
0
0
0
0
0
0
0
0
0
0
0
0
0
0
0
0
0
0
0
0
0
0
0
0
0
0
0
0
0
0
0
0
0
0
0
0
0
0
0
0
0
0
0
0
0
0
0
0
0
0
0
0
0
0
0
0
0
0
0
0
0
0
0
0
0
0
0
0
0
0
0
0
0
0
0
0
0
0
0
0
0
0
0
0
0
0
0
0
0
0
0
0
0
0
0
0
0
0
0
0
0
0
0
0
0
0
0
0
0
0
0
0
0
0
0
0
0
0
0
0
0
0
0
0
0
0
0
0
0
0
0
0
0
0
0
0
0
0
0
0
0
0
0
0
0
0
0
0
0
0
0
0
0
0
0
0
0
0
0
0
0
0
0
0
0
0
0
0
0
0
0
0
0
0
0
0
0
0
0
0
0
0
0
0
0
0
0
0
0
0
0
0
0
0
0
0
2.30365e-10
0
0
0
0
0
0
0
0
0
1.19745e-09
0
0
0
0
0
0
0
0
0
1.13451e-08
0
0
0
0
0
0
0
0
0
3.39805e-08
0
0
0
0
0
0
0
0
0
4.35546e-08
0
8.21923e-09
2.51979e-08
0
0
0
0
0
0
4.46994e-08
0
5.40364e-08
5.86512e-08
0
0
0
0
0
0
4.29626e-08
0
1.23515e-07
1.21875e-07
3.03192e-09
0
0
0
0
0
4.24589e-08
0
1.95187e-07
1.87521e-07
6.75694e-08
0
0
0
0
0
4.52028e-08
0
2.73569e-07
2.58669e-07
1.50709e-07
2.53092e-09
0
0
0
0
5.65064e-08
0
3.57639e-07
3.35589e-07
2.19006e-07
4.78401e-08
0
0
0
0
8.61238e-08
1.02661e-07
4.62691e-07
4.17776e-07
2.8159e-07
1.08444e-07
1.32583e-09
0
0
0
1.1107e-07
2.00934e-07
5.63197e-07
5.05395e-07
3.60834e-07
1.89281e-07
2.67785e-08
0
0
5.9158e-09
1.18204e-07
1.58158e-07
6.63857e-07
5.98891e-07
4.56713e-07
3.05521e-07
8.97984e-08
0
0
2.15139e-08
1.23858e-07
9.12244e-08
7.60685e-07
6.96417e-07
5.54785e-07
3.98241e-07
1.58475e-07
8.23655e-10
0
4.03662e-08
1.36787e-07
1.7182e-07
8.52799e-07
7.9532e-07
6.5112e-07
4.83769e-07
2.20375e-07
2.31099e-08
0
6.09495e-08
1.68445e-07
3.23227e-07
9.52408e-07
8.96014e-07
7.46777e-07
5.59757e-07
2.92949e-07
6.6843e-08
0
8.1347e-08
2.27584e-07
4.89784e-07
1.05552e-06
9.99285e-07
8.46815e-07
6.48751e-07
3.93244e-07
1.38239e-07
0
1.0075e-07
3.07917e-07
6.70635e-07
1.16088e-06
1.10444e-06
9.50443e-07
7.51924e-07
5.35016e-07
2.33854e-07
6.55169e-09
1.21471e-07
3.99214e-07
8.37115e-07
1.26999e-06
1.20975e-06
1.05161e-06
8.52202e-07
6.4004e-07
3.26752e-07
5.7737e-08
1.43807e-07
4.98366e-07
9.9362e-07
1.38227e-06
1.31389e-06
1.1472e-06
9.41343e-07
7.17428e-07
4.16559e-07
1.21044e-07
1.69443e-07
5.99662e-07
1.14006e-06
1.49524e-06
1.41642e-06
1.23789e-06
1.02314e-06
7.91214e-07
5.10622e-07
1.92012e-07
2.00762e-07
6.96008e-07
1.27697e-06
1.60748e-06
1.51719e-06
1.32382e-06
1.09619e-06
8.58146e-07
5.92338e-07
2.59039e-07
2.37489e-07
7.79851e-07
1.40568e-06
1.71818e-06
1.61659e-06
1.40576e-06
1.15883e-06
9.11718e-07
6.51811e-07
3.14622e-07
2.77843e-07
8.46581e-07
1.52775e-06
1.82708e-06
1.71564e-06
1.48634e-06
1.21264e-06
9.51569e-07
6.90433e-07
3.57888e-07
3.20161e-07
9.00473e-07
1.6453e-06
1.93471e-06
1.81597e-06
1.56962e-06
1.26198e-06
9.80553e-07
7.14291e-07
3.90091e-07
3.63333e-07
9.52021e-07
1.76012e-06
2.04229e-06
1.91933e-06
1.66003e-06
1.31337e-06
1.0028e-06
7.28319e-07
4.1364e-07
4.06818e-07
1.00779e-06
1.8783e-06
2.15148e-06
2.02722e-06
1.7615e-06
1.37892e-06
1.02408e-06
7.3774e-07
4.32702e-07
4.50489e-07
1.07375e-06
2.00548e-06
2.26427e-06
2.14076e-06
1.8765e-06
1.47465e-06
1.05184e-06
7.45749e-07
4.47488e-07
4.94285e-07
1.13942e-06
2.14719e-06
2.38281e-06
2.25996e-06
2.0025e-06
1.58228e-06
1.11218e-06
7.58567e-07
4.56176e-07
5.38196e-07
1.21122e-06
2.30953e-06
2.50779e-06
2.38524e-06
2.14047e-06
1.72852e-06
1.19822e-06
7.82317e-07
4.64948e-07
5.81821e-07
1.31693e-06
2.48852e-06
2.63794e-06
2.51738e-06
2.29155e-06
1.91832e-06
1.34234e-06
8.59772e-07
5.00057e-07
6.24301e-07
1.6355e-06
2.66951e-06
2.77126e-06
2.6563e-06
2.45508e-06
2.14152e-06
1.62832e-06
1.0603e-06
5.94765e-07
6.69161e-07
2.06324e-06
2.84131e-06
2.9042e-06
2.80015e-06
2.62624e-06
2.37848e-06
1.95267e-06
1.38601e-06
8.04237e-07
7.36511e-07
2.24887e-06
2.99657e-06
3.03355e-06
2.94143e-06
2.78943e-06
2.60167e-06
2.30994e-06
1.80254e-06
1.16201e-06
8.80282e-07
2.34517e-06
3.12584e-06
3.15871e-06
3.06397e-06
2.91334e-06
2.75657e-06
2.55322e-06
2.16699e-06
1.54245e-06
1.10055e-06
3.05691e-06
3.35522e-06
3.28337e-06
3.1503e-06
2.961e-06
2.79031e-06
2.60022e-06
2.29753e-06
1.73425e-06
1.27821e-06
3.71529e-06
3.52216e-06
3.34833e-06
3.18335e-06
2.90374e-06
2.55822e-06
2.41955e-06
2.24077e-06
1.75829e-06
1.39285e-06
3.75786e-06
3.57102e-06
3.39645e-06
3.2692e-06
2.90595e-06
2.03097e-06
2.17456e-06
2.14768e-06
1.73447e-06
1.48633e-06
3.74543e-06
3.63507e-06
3.52922e-06
3.47999e-06
3.22297e-06
1.70927e-06
1.98258e-06
2.05613e-06
1.70297e-06
1.57502e-06
)
;
    }
    inlet
    {
        type            calculated;
        value           uniform 0.000190513;
    }
    outlet
    {
        type            calculated;
        value           nonuniform List<scalar> 
20
(
0.0081
0.0081
0.0081
0.0081
0.0081
1.57702e-05
1.74463e-05
1.80109e-05
1.54452e-05
2.29919e-05
0.0081
0.0081
0.0081
0.0081
0.0081
1.57727e-05
1.76425e-05
1.81035e-05
1.53815e-05
2.30008e-05
)
;
    }
    heatWall
    {
        type            nutkWallFunction;
        Cmu             0.09;
        kappa           0.41;
        E               9.8;
        value           nonuniform List<scalar> 
240
(
1.08803e-06
1.08826e-06
1.07746e-06
1.07814e-06
1.06734e-06
1.06788e-06
1.05638e-06
1.05559e-06
1.03999e-06
1.03937e-06
1.01645e-06
1.01678e-06
9.81808e-07
9.82605e-07
9.42526e-07
9.42455e-07
9.06113e-07
9.05081e-07
8.9131e-07
8.90296e-07
9.01383e-07
9.01079e-07
9.30552e-07
9.31455e-07
9.71755e-07
9.7446e-07
1.01732e-06
1.02321e-06
1.05371e-06
1.06096e-06
1.05813e-06
1.06575e-06
1.05496e-06
1.06682e-06
1.06199e-06
1.07699e-06
1.07559e-06
1.09081e-06
1.10299e-06
1.11184e-06
1.15224e-06
1.15644e-06
1.20978e-06
1.21353e-06
1.2602e-06
1.26552e-06
1.29648e-06
1.30095e-06
1.32379e-06
1.32595e-06
1.34833e-06
1.34958e-06
1.37985e-06
1.38279e-06
1.42145e-06
1.42615e-06
1.46874e-06
1.47597e-06
1.52141e-06
1.53205e-06
1.58096e-06
1.5973e-06
1.64043e-06
1.66076e-06
1.68175e-06
1.69725e-06
1.71459e-06
1.74837e-06
1.76547e-06
1.81019e-06
1.82797e-06
1.8777e-06
1.89475e-06
1.94457e-06
1.96386e-06
2.00818e-06
2.04284e-06
2.07621e-06
2.13088e-06
2.14966e-06
2.22833e-06
2.23409e-06
2.33974e-06
2.33739e-06
2.46476e-06
2.4587e-06
2.59857e-06
2.59214e-06
2.73752e-06
2.73223e-06
2.87888e-06
2.8753e-06
3.02142e-06
3.01955e-06
3.16493e-06
3.16455e-06
3.30935e-06
3.3101e-06
3.45479e-06
3.45616e-06
3.59984e-06
3.6014e-06
3.74132e-06
3.74295e-06
3.89123e-06
3.89258e-06
4.11723e-06
4.11747e-06
4.59974e-06
4.59832e-06
5.34973e-06
5.33688e-06
5.94296e-06
5.93406e-06
6.32021e-06
6.32003e-06
6.63025e-06
6.63509e-06
6.92842e-06
6.93425e-06
1.0887e-06
1.0902e-06
1.0782e-06
1.07909e-06
1.06517e-06
1.06447e-06
1.05138e-06
1.05097e-06
1.03733e-06
1.0376e-06
1.01774e-06
1.01741e-06
9.75236e-07
9.82248e-07
9.24466e-07
9.25466e-07
9.37201e-07
9.36321e-07
1.01383e-06
1.01223e-06
1.08746e-06
1.08628e-06
1.15792e-06
1.15711e-06
1.23562e-06
1.23423e-06
1.31601e-06
1.31404e-06
1.38808e-06
1.38566e-06
1.4494e-06
1.44661e-06
1.51397e-06
1.50979e-06
1.57966e-06
1.58009e-06
1.64346e-06
1.64314e-06
1.6729e-06
1.67021e-06
1.6751e-06
1.67388e-06
1.67583e-06
1.67554e-06
1.67908e-06
1.67858e-06
1.71331e-06
1.71183e-06
1.79052e-06
1.78637e-06
1.82217e-06
1.81821e-06
1.82495e-06
1.82234e-06
1.81809e-06
1.81691e-06
1.81857e-06
1.81546e-06
1.83039e-06
1.82464e-06
1.87875e-06
1.86195e-06
1.97172e-06
1.95944e-06
2.02677e-06
2.04157e-06
2.041e-06
2.06504e-06
2.06001e-06
2.0837e-06
2.11654e-06
2.12641e-06
2.25039e-06
2.23094e-06
2.4704e-06
2.42633e-06
2.74412e-06
2.69216e-06
3.04525e-06
2.99487e-06
3.36847e-06
3.3243e-06
3.69849e-06
3.66152e-06
4.01678e-06
3.98284e-06
4.30609e-06
4.26289e-06
4.55971e-06
4.48605e-06
4.78543e-06
4.66644e-06
4.99038e-06
4.83913e-06
5.2047e-06
5.02608e-06
5.45651e-06
5.24741e-06
5.62812e-06
5.46792e-06
5.82729e-06
5.7092e-06
6.39017e-06
6.06482e-06
7.59256e-06
7.13892e-06
8.85234e-06
8.58601e-06
9.28497e-06
9.21551e-06
9.58574e-06
9.54242e-06
1.22843e-05
1.19646e-05
1.42549e-05
1.42132e-05
1.43654e-05
1.43588e-05
1.43178e-05
1.43163e-05
)
;
    }
}


// ************************************************************************* //
