/*--------------------------------*- C++ -*----------------------------------*\
  =========                 |
  \\      /  F ield         | OpenFOAM: The Open Source CFD Toolbox
   \\    /   O peration     | Website:  https://openfoam.org
    \\  /    A nd           | Version:  8
     \\/     M anipulation  |
\*---------------------------------------------------------------------------*/
FoamFile
{
    version     2.0;
    format      ascii;
    class       volScalarField;
    location    "600";
    object      k;
}
// * * * * * * * * * * * * * * * * * * * * * * * * * * * * * * * * * * * * * //

dimensions      [0 2 -2 0 0 0 0];

internalField   nonuniform List<scalar> 
8400
(
0.0173898
0.0165066
0.0156248
0.0147565
0.0139123
0.0131012
0.0123296
0.0116015
0.0109193
0.0102836
0.00969441
0.00915066
0.00865087
0.00819317
0.00777549
0.00739559
0.00705123
0.00674016
0.00646032
0.00620963
0.00598624
0.00578856
0.00561509
0.00546472
0.00533663
0.00523018
0.00514531
0.00508248
0.00504244
0.00502681
0.00503772
0.00507809
0.00515125
0.00526116
0.00541138
0.00560367
0.00583731
0.00610801
0.00640718
0.00672481
0.00705231
0.00738205
0.00770442
0.00800013
0.00823595
0.00836965
0.00837567
0.00829188
0.00816283
0.00801112
0.00374653
0.00361228
0.00349569
0.00339928
0.00332061
0.00325622
0.00320314
0.00315913
0.00312245
0.00309187
0.00306642
0.00304539
0.00302818
0.00301434
0.0030035
0.00299533
0.00298956
0.00298591
0.00298421
0.00298425
0.00298588
0.00298896
0.00299339
0.00299912
0.00300621
0.00301454
0.00302421
0.0030356
0.00304886
0.00306448
0.00308324
0.00310682
0.00313764
0.00317962
0.00323971
0.0033281
0.00345723
0.00363865
0.00387499
0.00414889
0.00442103
0.00465501
0.00483787
0.00497136
0.00506944
0.00514969
0.00522348
0.005278
0.00529773
0.0052856
0.00308644
0.00304931
0.00301731
0.00299025
0.00296764
0.00294905
0.00293399
0.00292206
0.00291285
0.00290601
0.0029012
0.00289818
0.00289668
0.00289648
0.00289744
0.00289936
0.00290215
0.00290573
0.00290999
0.00291487
0.0029204
0.00292663
0.0029335
0.002941
0.00294931
0.0029584
0.00296808
0.00297841
0.00298933
0.00300067
0.00301231
0.003024
0.00303584
0.00304772
0.00306014
0.00307583
0.00310261
0.00316127
0.00329847
0.00357222
0.00395505
0.00432447
0.00462732
0.00483254
0.00494002
0.00498959
0.00502238
0.00504656
0.00506303
0.00507221
0.00289311
0.00288177
0.00287307
0.00286676
0.00286251
0.00286006
0.00285907
0.0028593
0.0028605
0.0028625
0.00286509
0.00286816
0.00287163
0.00287539
0.00287947
0.00288378
0.00288829
0.00289311
0.00289823
0.00290369
0.00290959
0.00291599
0.00292302
0.0029308
0.00293942
0.00294873
0.00295879
0.00296976
0.00298186
0.0029944
0.00300742
0.00302055
0.00303387
0.00304647
0.00305797
0.00306823
0.00307574
0.00307984
0.00307796
0.00306976
0.00304563
0.00300359
0.0040452
0.00472525
0.00504663
0.00514742
0.00519971
0.00523764
0.00527181
0.00530669
0.00283352
0.00283452
0.00283653
0.00283935
0.00284283
0.00284679
0.00285108
0.00285555
0.00286007
0.00286457
0.00286901
0.00287333
0.00287754
0.00288169
0.00288586
0.00289004
0.00289415
0.00289841
0.00290291
0.00290768
0.00291283
0.00291853
0.00292499
0.00293222
0.00294049
0.00294953
0.00295969
0.00297103
0.00298426
0.00299778
0.0030118
0.00302637
0.00304236
0.00305671
0.00307009
0.00308198
0.00309184
0.00309924
0.00310202
0.00309838
0.0030895
0.00306929
0.00320686
0.00394679
0.00475232
0.00509729
0.00527694
0.005392
0.00547429
0.00554027
0.00283173
0.00283737
0.00284315
0.00284902
0.00285485
0.00286053
0.00286599
0.00287121
0.00287606
0.00288052
0.00288469
0.00288868
0.00289231
0.00289577
0.0028989
0.00290215
0.0029055
0.00290874
0.00291201
0.0029159
0.00292039
0.00292541
0.00293138
0.00293821
0.00294645
0.00295561
0.00296617
0.00297773
0.00299206
0.00300677
0.00302209
0.00303806
0.00305496
0.00307204
0.00308866
0.00310361
0.00311609
0.00312527
0.00313022
0.00312888
0.00312404
0.00311333
0.00313357
0.00335473
0.00387174
0.00463384
0.00510946
0.00539064
0.00555641
0.00566045
0.00285285
0.00285861
0.00286461
0.00287063
0.00287644
0.00288187
0.0028868
0.00289126
0.00289532
0.00289903
0.00290227
0.00290537
0.00290789
0.00291052
0.00291278
0.00291459
0.00291672
0.00291917
0.00292197
0.00292559
0.00292969
0.00293399
0.00293977
0.0029469
0.00295569
0.00296512
0.00297624
0.00298877
0.00300365
0.00302055
0.00303914
0.00305887
0.00307956
0.0031001
0.00311979
0.00313746
0.0031523
0.00316325
0.00316895
0.00316925
0.00316538
0.00315745
0.00315196
0.00320982
0.00343611
0.00386509
0.00447538
0.00512173
0.00547146
0.00565031
0.0028855
0.00288577
0.00288969
0.00289424
0.00289882
0.00290294
0.00290666
0.00291003
0.00291308
0.00291579
0.002918
0.00292022
0.00292182
0.00292272
0.00292417
0.00292595
0.00292791
0.00292958
0.00293129
0.00293433
0.00293851
0.00294292
0.00294888
0.00295651
0.00296577
0.00297697
0.00299072
0.00300674
0.0030253
0.00304629
0.00306927
0.00309356
0.00311856
0.00314332
0.00316697
0.00318835
0.00320597
0.0032184
0.00322408
0.00322483
0.00322066
0.00321209
0.00320059
0.00320494
0.00328003
0.00349085
0.00385917
0.00442686
0.00515073
0.00550297
0.00293468
0.00291931
0.00291712
0.00291801
0.00292003
0.00292207
0.00292419
0.00292646
0.00292871
0.00292989
0.0029309
0.00293116
0.00293338
0.00293471
0.00293485
0.00293535
0.00293638
0.00293788
0.00293991
0.00294312
0.00294771
0.00295366
0.00296137
0.00297113
0.00298317
0.00299791
0.00301581
0.00303683
0.00306078
0.00308754
0.00311654
0.00314715
0.0031783
0.00320885
0.00323739
0.00326246
0.00328249
0.00329563
0.00330009
0.00329978
0.00329397
0.00328305
0.00326767
0.0032538
0.00326481
0.00334536
0.00354098
0.00390375
0.00447401
0.00518313
0.00298286
0.00296496
0.00295225
0.00294502
0.00294199
0.00294101
0.00294103
0.00294112
0.00294176
0.00294151
0.00294292
0.00294309
0.00294274
0.00294288
0.0029434
0.00294436
0.00294573
0.00294788
0.00295107
0.0029556
0.0029618
0.00297
0.00298068
0.00299451
0.00301172
0.00303245
0.00305691
0.00308522
0.00311699
0.00315188
0.00318909
0.00322763
0.00326614
0.00330313
0.0033369
0.00336561
0.00338753
0.00340057
0.00340428
0.00340069
0.0033904
0.00337419
0.00335303
0.00332944
0.00331292
0.00332783
0.00341112
0.00361437
0.0040011
0.00458727
0.0029909
0.00298181
0.00297409
0.002968
0.00296319
0.00295961
0.00295722
0.00295573
0.00295515
0.00295454
0.0029534
0.00295292
0.00295303
0.00295307
0.00295338
0.00295454
0.0029567
0.00296011
0.0029652
0.0029725
0.00298247
0.00299565
0.00301243
0.00303322
0.00305844
0.00308829
0.00312286
0.0031619
0.00320468
0.00325022
0.00329748
0.00334504
0.00339124
0.00343424
0.00347198
0.00350283
0.00352489
0.00353558
0.00353797
0.00352924
0.00351144
0.00348644
0.00345637
0.00342311
0.00339099
0.00337254
0.00339185
0.00348849
0.00372097
0.00414401
0.00299462
0.0029891
0.00298411
0.00297964
0.00297569
0.0029725
0.00296996
0.00296814
0.00296594
0.00296458
0.00296348
0.00296259
0.00296222
0.00296253
0.00296396
0.00296674
0.00297117
0.00297784
0.00298734
0.0030003
0.00301741
0.00303939
0.00306656
0.00309921
0.00313759
0.00318142
0.00323033
0.00328334
0.00333931
0.00339667
0.00345371
0.00350861
0.00355947
0.00360474
0.00364203
0.00367037
0.00368885
0.00369472
0.00369044
0.00367275
0.0036447
0.00360853
0.00356718
0.00352298
0.00347887
0.00344152
0.00342575
0.00345851
0.00358609
0.00386644
0.00299636
0.00299267
0.00298917
0.00298581
0.00298278
0.0029802
0.00297766
0.00297555
0.0029739
0.00297249
0.00297144
0.00297113
0.00297176
0.00297379
0.00297782
0.00298442
0.0029943
0.00300833
0.00302728
0.00305184
0.00308278
0.00312074
0.0031654
0.00321649
0.00327377
0.00333607
0.00340234
0.00347031
0.00353791
0.00360292
0.00366337
0.00371745
0.00376295
0.0038002
0.00382744
0.00384462
0.00385161
0.003854
0.00383466
0.00379944
0.00375513
0.00370659
0.00365599
0.00360456
0.00355371
0.00350722
0.00347395
0.00347217
0.00353587
0.00371514
0.00299732
0.00299458
0.00299186
0.00298931
0.00298697
0.00298464
0.00298275
0.00298091
0.00297953
0.00297871
0.00297882
0.00298047
0.00298437
0.00299148
0.00300292
0.00301973
0.00304269
0.00307265
0.00311062
0.00315714
0.00321266
0.00327702
0.00334803
0.00342373
0.00350322
0.00358338
0.00366308
0.0037376
0.00380414
0.00386014
0.00390617
0.00393946
0.00395482
0.00396201
0.00396406
0.00395987
0.00392195
0.00385069
0.00382919
0.00379956
0.00376584
0.00372628
0.0036832
0.00363917
0.00359415
0.00354995
0.00351255
0.00349596
0.003525
0.00364068
0.00299784
0.00299564
0.0029935
0.00299141
0.00298953
0.00298765
0.00298611
0.0029851
0.00298498
0.00298641
0.00299054
0.00299871
0.00301258
0.00303399
0.00306477
0.00310628
0.00315845
0.00322091
0.00329449
0.00337838
0.00347162
0.0035719
0.00367275
0.00376904
0.00386019
0.00393796
0.00400805
0.00405984
0.00408921
0.00409433
0.00409406
0.00407463
0.0040056
0.00394403
0.0039085
0.00389211
0.00388241
0.00386287
0.00383826
0.00380607
0.00377336
0.0037381
0.00369994
0.00366027
0.00361893
0.00357658
0.00353826
0.00351559
0.00352808
0.00360682
0.00299828
0.00299652
0.00299477
0.00299306
0.0029915
0.00299039
0.00299006
0.00299151
0.00299624
0.00300639
0.00302456
0.00305369
0.00309677
0.00315649
0.00323484
0.00333166
0.0034424
0.00356141
0.00368946
0.00382223
0.00395341
0.00407676
0.00418222
0.00425893
0.00431068
0.00431329
0.00431889
0.0042906
0.00421377
0.00409191
0.00403217
0.00399738
0.00397143
0.00395141
0.0039334
0.00391635
0.00389862
0.00387841
0.00385526
0.00382814
0.00379809
0.00376444
0.00372773
0.00368861
0.00364732
0.00360496
0.00356664
0.00354058
0.00354115
0.0035945
0.00299842
0.00299681
0.0029953
0.00299437
0.00299462
0.00299694
0.00300325
0.00301713
0.00304323
0.00308642
0.00315168
0.00324348
0.00336483
0.00351707
0.00369801
0.00389625
0.00409568
0.00427534
0.00444237
0.00458706
0.00468339
0.00472071
0.00472751
0.00467395
0.00456517
0.00431253
0.00421153
0.00412943
0.0040819
0.00405315
0.00403001
0.00401153
0.00399492
0.00397867
0.00396234
0.00394512
0.00392652
0.00390585
0.00388317
0.00385798
0.00382972
0.00379818
0.00376357
0.00372583
0.00368566
0.00364443
0.0036054
0.00357583
0.00356833
0.00360315
0.002999
0.00299769
0.00299817
0.00300373
0.00301812
0.0030434
0.00308563
0.00315647
0.00326653
0.00342243
0.00362791
0.00388238
0.00417982
0.00450902
0.00484068
0.005098
0.00530541
0.00540467
0.00543528
0.00539105
0.00514767
0.00473578
0.00446849
0.00431393
0.00419876
0.00412821
0.00407874
0.00404543
0.00402294
0.00400709
0.00399571
0.00398628
0.00397767
0.00396889
0.00395926
0.00394804
0.00393479
0.0039191
0.00390073
0.00387944
0.00385498
0.0038274
0.00379662
0.00376266
0.00372605
0.00368797
0.00365122
0.00362079
0.00360727
0.00362556
0.00302637
0.00301087
0.00305028
0.00314577
0.00329325
0.00347898
0.0037151
0.00403256
0.00443441
0.00490655
0.00542515
0.0059566
0.00646011
0.00687396
0.0070083
0.00637403
0.00580539
0.00534871
0.00496336
0.00469265
0.0044834
0.00433438
0.00422775
0.00414109
0.00407914
0.00403399
0.00400246
0.00398027
0.00396473
0.00395375
0.00394556
0.00393891
0.00393317
0.00392767
0.00392185
0.00391526
0.00390748
0.0038981
0.00388666
0.00387265
0.00385572
0.0038358
0.0038126
0.00378632
0.00375751
0.00372668
0.00369615
0.0036694
0.00365298
0.00365734
0.00906414
0.00998379
0.0110176
0.0119647
0.0128313
0.01355
0.0140824
0.0144498
0.0146393
0.01466
0.01454
0.0142932
0.0139407
0.0135007
0.0129906
0.0124321
0.0119752
0.0116812
0.011453
0.0112472
0.011004
0.0107397
0.0104723
0.0102128
0.00994051
0.0096548
0.0093531
0.00903735
0.00870691
0.00836399
0.00801214
0.00765683
0.00730383
0.00695812
0.00662427
0.00630652
0.0060079
0.00573052
0.00547552
0.00524308
0.0050327
0.00484319
0.00467287
0.0045202
0.00438294
0.00425963
0.00414859
0.00404911
0.00396198
0.00389058
0.0589323
0.0574891
0.0561226
0.0548267
0.0535931
0.0524138
0.0512808
0.0501911
0.0491424
0.0481327
0.04716
0.0462227
0.0453189
0.0444469
0.0436052
0.0427919
0.0420057
0.0412452
0.0405093
0.0397968
0.0391069
0.0384388
0.0377919
0.0371656
0.0365594
0.0359725
0.0354044
0.0348545
0.0343221
0.0338066
0.0333073
0.0328236
0.0323551
0.031901
0.031461
0.0310346
0.030621
0.0302198
0.0298303
0.0294505
0.0290786
0.0287138
0.0283553
0.0280024
0.0276543
0.0273101
0.0269684
0.0266267
0.0262796
0.0259169
0.0580907
0.0554594
0.0530027
0.0507033
0.0485519
0.0465389
0.0446563
0.0428932
0.0412399
0.0396874
0.0382278
0.0368534
0.0355574
0.0343334
0.0331757
0.0320789
0.0310385
0.0300503
0.0291107
0.0282164
0.0273647
0.0265532
0.0257796
0.0250418
0.0243378
0.0236658
0.023024
0.0224104
0.0218235
0.0212617
0.0207235
0.0202076
0.0197126
0.0192373
0.0187804
0.0183406
0.0179165
0.0175068
0.0171102
0.0167266
0.0163561
0.0159977
0.0156509
0.0153152
0.0149902
0.0146756
0.0143711
0.0140765
0.013791
0.0135135
0.0580872
0.0554476
0.0529749
0.0506614
0.0484952
0.0464653
0.0445612
0.0427729
0.0410914
0.0395085
0.0380165
0.0366083
0.0352776
0.0340184
0.0328253
0.0316934
0.0306182
0.0295959
0.0286229
0.0276961
0.0268128
0.0259706
0.0251672
0.0244006
0.0236687
0.0229696
0.0223017
0.021663
0.021052
0.0204672
0.019907
0.0193701
0.0188554
0.0183616
0.0178877
0.0174326
0.0169952
0.0165745
0.0161694
0.0157788
0.0154021
0.0150383
0.014687
0.0143476
0.01402
0.0137038
0.013399
0.0131053
0.0128226
0.0125509
0.0580873
0.0554666
0.0530158
0.0507224
0.0485734
0.0465573
0.0446633
0.0428822
0.0412052
0.0396246
0.0381331
0.0367241
0.0353915
0.0341295
0.0329328
0.0317969
0.0307174
0.0296905
0.0287127
0.0277811
0.026893
0.026046
0.025238
0.0244668
0.0237304
0.023027
0.0223547
0.0217118
0.0210967
0.0205077
0.0199435
0.0194027
0.0188841
0.0183867
0.0179092
0.0174506
0.0170098
0.0165858
0.0161776
0.0157841
0.0154045
0.0150381
0.0146842
0.0143424
0.0140124
0.0136941
0.0133871
0.0130914
0.0128065
0.0125323
0.0580873
0.0554672
0.0530155
0.0507195
0.0485672
0.0465474
0.0446503
0.0428665
0.0411875
0.0396056
0.0381135
0.0367043
0.0353718
0.0341102
0.0329143
0.0317793
0.0307008
0.0296749
0.0286983
0.0277681
0.0268815
0.0260361
0.0252297
0.0244602
0.0237256
0.0230239
0.0223533
0.0217119
0.021098
0.0205102
0.019947
0.019407
0.0188891
0.0183921
0.0179151
0.0174569
0.0170165
0.0165928
0.0161849
0.0157917
0.0154124
0.0150463
0.0146926
0.014351
0.014021
0.0137026
0.0133955
0.0130994
0.012814
0.012539
0.0580874
0.0554688
0.0530201
0.0507279
0.0485799
0.0465647
0.0446719
0.0428922
0.041217
0.0396382
0.0381486
0.0367414
0.0354103
0.0341497
0.0329543
0.0318193
0.0307406
0.0297143
0.0287371
0.0278062
0.026919
0.0260731
0.0252662
0.0244962
0.0237611
0.0230589
0.0223877
0.0217457
0.0211311
0.0205423
0.019978
0.0194369
0.0189177
0.0184194
0.017941
0.0174815
0.0170398
0.016615
0.0162059
0.0158117
0.0154314
0.0150642
0.0147096
0.014367
0.014036
0.0137164
0.013408
0.0131104
0.0128235
0.0125468
0.0580874
0.0554693
0.0530213
0.0507296
0.0485817
0.0465663
0.044673
0.0428925
0.0412163
0.0396365
0.0381458
0.0367375
0.0354053
0.0341436
0.0329471
0.0318111
0.0307315
0.0297044
0.0287268
0.0277956
0.0269084
0.0260627
0.0252562
0.0244869
0.0237525
0.023051
0.0223805
0.0217391
0.021125
0.0205366
0.0199725
0.0194314
0.0189122
0.0184139
0.0179354
0.0174758
0.0170341
0.0166093
0.0162003
0.0158063
0.0154262
0.0150593
0.0147049
0.0143624
0.0140316
0.013712
0.0134033
0.0131055
0.012818
0.0125406
0.0580875
0.0554697
0.0530223
0.0507314
0.0485845
0.0465701
0.0446779
0.0428986
0.0412236
0.0396449
0.0381552
0.0367477
0.0354162
0.034155
0.0329587
0.0318228
0.0307432
0.0297162
0.0287385
0.0278075
0.0269205
0.0260751
0.025269
0.0245001
0.0237662
0.0230651
0.0223948
0.0217535
0.0211393
0.0205505
0.0199859
0.0194441
0.0189241
0.0184249
0.0179455
0.0174851
0.0170426
0.016617
0.0162074
0.0158128
0.0154322
0.0150648
0.0147099
0.0143669
0.0140354
0.0137151
0.0134055
0.0131066
0.0128179
0.0125391
0.0580875
0.05547
0.053023
0.0507325
0.0485859
0.0465718
0.0446798
0.0429006
0.0412256
0.0396468
0.0381568
0.0367488
0.0354166
0.0341546
0.0329574
0.0318206
0.0307401
0.0297124
0.0287342
0.0278028
0.0269157
0.0260704
0.0252647
0.0244962
0.0237627
0.023062
0.0223921
0.021751
0.0211369
0.020548
0.0199831
0.019441
0.0189205
0.0184208
0.0179409
0.01748
0.0170372
0.0166114
0.0162017
0.015807
0.0154264
0.0150591
0.0147043
0.0143613
0.0140298
0.0137093
0.0133994
0.0131
0.0128107
0.012531
0.0580876
0.0554702
0.0530235
0.0507333
0.048587
0.0465732
0.0446816
0.0429027
0.041228
0.0396494
0.0381595
0.0367516
0.0354193
0.034157
0.0329595
0.0318224
0.0307416
0.0297137
0.0287355
0.0278042
0.0269174
0.0260725
0.0252673
0.0244994
0.0237665
0.0230664
0.0223969
0.021756
0.0211418
0.0205527
0.0199874
0.0194446
0.0189235
0.0184231
0.0179425
0.017481
0.0170376
0.0166113
0.0162013
0.0158064
0.0154256
0.0150582
0.0147032
0.01436
0.0140282
0.0137072
0.0133968
0.0130966
0.0128063
0.0125256
0.0580876
0.0554705
0.0530239
0.0507339
0.0485877
0.0465741
0.0446826
0.0429039
0.0412293
0.0396507
0.0381607
0.0367525
0.0354198
0.0341571
0.0329591
0.0318215
0.0307403
0.029712
0.0287337
0.0278025
0.0269159
0.0260715
0.0252668
0.0244994
0.0237671
0.0230674
0.0223982
0.0217574
0.0211431
0.0205538
0.019988
0.0194446
0.0189228
0.0184217
0.0179405
0.0174785
0.0170346
0.016608
0.0161978
0.0158027
0.0154219
0.0150544
0.0146994
0.0143561
0.0140241
0.0137028
0.0133919
0.0130911
0.0128
0.0125182
0.0580877
0.0554706
0.0530241
0.0507341
0.048588
0.0465743
0.0446829
0.0429041
0.0412293
0.0396505
0.0381602
0.0367515
0.0354183
0.0341549
0.0329563
0.031818
0.0307362
0.0297076
0.028729
0.0277978
0.0269114
0.0260673
0.0252631
0.0244963
0.0237644
0.0230652
0.0223963
0.0217555
0.0211411
0.0205514
0.0199852
0.0194413
0.0189189
0.0184172
0.0179355
0.017473
0.0170289
0.0166021
0.0161918
0.0157968
0.0154161
0.0150487
0.0146937
0.0143505
0.0140184
0.013697
0.0133857
0.0130844
0.0127927
0.0125101
0.0580877
0.0554707
0.0530242
0.0507341
0.0485879
0.0465742
0.0446829
0.0429042
0.0412296
0.0396509
0.0381607
0.0367521
0.0354189
0.0341555
0.0329568
0.0318185
0.0307368
0.0297083
0.02873
0.0277992
0.0269133
0.0260699
0.0252663
0.0245002
0.0237689
0.02307
0.0224013
0.0217604
0.0211458
0.0205556
0.0199888
0.0194442
0.0189211
0.0184187
0.0179363
0.0174732
0.0170286
0.0166014
0.0161907
0.0157955
0.0154146
0.015047
0.0146918
0.0143483
0.0140159
0.0136939
0.0133821
0.01308
0.0127872
0.0125036
0.0580878
0.0554706
0.0530238
0.0507331
0.0485863
0.0465719
0.0446797
0.0429001
0.0412245
0.0396447
0.0381533
0.0367435
0.035409
0.0341444
0.0329446
0.0318053
0.0307228
0.0296938
0.0287153
0.0277845
0.0268988
0.0260558
0.0252527
0.0244871
0.0237563
0.0230578
0.0223893
0.0217486
0.0211339
0.0205436
0.0199766
0.0194318
0.0189084
0.0184058
0.0179233
0.0174601
0.0170156
0.0165886
0.0161782
0.0157832
0.0154026
0.0150354
0.0146806
0.0143374
0.0140051
0.0136832
0.0133713
0.013069
0.0127759
0.0124917
0.0580878
0.0554704
0.0530231
0.0507322
0.0485855
0.0465716
0.0446802
0.0429016
0.041227
0.0396482
0.0381578
0.0367487
0.0354148
0.0341506
0.0329511
0.031812
0.0307298
0.0297011
0.0287228
0.0277924
0.0269071
0.0260645
0.0252617
0.0244963
0.0237655
0.0230669
0.022398
0.0217568
0.0211414
0.0205503
0.0199823
0.0194365
0.0189122
0.0184087
0.0179253
0.0174614
0.0170162
0.0165886
0.0161777
0.0157822
0.0154012
0.0150335
0.0146782
0.0143345
0.0140017
0.0136791
0.0133664
0.0130632
0.012769
0.0124835
0.0580878
0.0554691
0.0530189
0.0507244
0.0485736
0.0465555
0.0446599
0.0428773
0.0411992
0.0396172
0.038124
0.0367126
0.0353769
0.0341111
0.0329106
0.0317709
0.0306884
0.0296598
0.0286821
0.0277524
0.0268681
0.0260265
0.0252249
0.0244606
0.0237309
0.0230333
0.0223653
0.0217248
0.02111
0.0205195
0.019952
0.0194067
0.0188829
0.01838
0.0178973
0.0174341
0.0169895
0.0165627
0.0161525
0.0157578
0.0153774
0.0150105
0.0146558
0.0143127
0.0139804
0.0136583
0.013346
0.0130429
0.0127488
0.0124633
0.0580878
0.0554687
0.0530196
0.0507279
0.0485807
0.0465663
0.044674
0.0428942
0.0412181
0.0396373
0.0381446
0.0367331
0.0353968
0.0341301
0.0329284
0.0317874
0.0307036
0.0296737
0.0286947
0.0277638
0.0268783
0.0260355
0.0252327
0.0244671
0.0237361
0.023037
0.0223675
0.0217255
0.0211092
0.0205172
0.0199483
0.0194018
0.0188768
0.0183728
0.0178892
0.0174252
0.0169799
0.0165525
0.0161417
0.0157466
0.015366
0.0149987
0.014644
0.0143008
0.0139686
0.0136467
0.0133347
0.0130322
0.0127389
0.0124546
0.0580878
0.0554499
0.0529793
0.0506677
0.0485034
0.0464754
0.044573
0.0427862
0.0411055
0.0395224
0.0380288
0.0366178
0.035283
0.0340188
0.0328202
0.0316831
0.0306035
0.0295782
0.028604
0.0276782
0.0267979
0.0259603
0.0251626
0.0244022
0.0236761
0.0229819
0.0223172
0.0216798
0.0210681
0.0204807
0.0199163
0.0193743
0.0188539
0.0183546
0.0178757
0.0174165
0.0169761
0.0165537
0.0161483
0.0157586
0.0153838
0.0150227
0.0146745
0.0143386
0.0140143
0.0137012
0.0133993
0.0131084
0.0128291
0.0125622
0.0580915
0.0554623
0.0530081
0.050711
0.0485618
0.0465509
0.0446701
0.0429084
0.0412557
0.0397028
0.0382412
0.0368635
0.0355628
0.0343332
0.0331695
0.0320672
0.0310223
0.0300313
0.0290912
0.0281989
0.0273516
0.0265467
0.0257811
0.0250521
0.0243569
0.0236928
0.0230574
0.0224484
0.0218641
0.021303
0.0207643
0.0202471
0.0197509
0.0192754
0.0188202
0.0183847
0.0179685
0.0175706
0.0171903
0.0168265
0.0164785
0.0161453
0.0158263
0.0155212
0.0152297
0.0149522
0.0146895
0.0144432
0.0142168
0.0140172
0.0589324
0.0574903
0.0561254
0.054831
0.0535991
0.0524213
0.0512897
0.0502011
0.0491528
0.0481426
0.0471682
0.0462278
0.04532
0.0444432
0.0435963
0.0427784
0.0419886
0.041226
0.0404896
0.0397787
0.039092
0.0384283
0.0377864
0.0371648
0.0365623
0.0359776
0.0354097
0.0348579
0.0343216
0.0338004
0.0332942
0.0328029
0.0323262
0.0318641
0.0314161
0.0309816
0.0305601
0.0301506
0.0297522
0.0293642
0.0289854
0.0286153
0.028253
0.027898
0.0275496
0.0272074
0.0268708
0.0265392
0.0262117
0.0258872
0.0234877
0.00507589
0.00500966
0.00613938
0.00675351
0.00651543
0.00555071
0.00426782
0.00309285
0.00226043
0.0017588
0.0015006
0.00147883
0.00178898
0.00209589
0.00210638
0.00199653
0.0019764
0.00228474
0.0143803
0.0230969
0.00497662
0.00498903
0.00612928
0.00674193
0.00649185
0.00550812
0.0042082
0.00302673
0.00219938
0.00170578
0.00145138
0.00143652
0.00176532
0.00208878
0.00210784
0.00200248
0.0019862
0.00230097
0.0145991
0.0227099
0.00488167
0.00496921
0.00611848
0.00672954
0.00646815
0.0054665
0.00415062
0.00296352
0.00214174
0.00165628
0.00140545
0.00138798
0.00171861
0.00206161
0.00209919
0.00200018
0.00198468
0.00230652
0.0148123
0.0223262
0.00479171
0.00495017
0.0061071
0.00671648
0.00644441
0.00542585
0.00409502
0.00290308
0.00208727
0.00160999
0.00136228
0.00134363
0.00167352
0.00203405
0.00208989
0.00199754
0.00198288
0.00231196
0.0150285
0.0219458
0.00470674
0.00493192
0.00609525
0.00670288
0.0064207
0.00538618
0.00404133
0.00284526
0.00203577
0.00156663
0.00132148
0.0013025
0.00163043
0.00200653
0.00208013
0.00199464
0.00198092
0.00231742
0.0152482
0.0215687
0.00462662
0.00491445
0.00608308
0.00668887
0.0063971
0.00534747
0.00398948
0.00278992
0.00198703
0.00152599
0.00128271
0.00126391
0.0015895
0.00197941
0.00207006
0.00199157
0.00197892
0.00232306
0.0154723
0.0211947
0.0045512
0.00489781
0.00607076
0.00667461
0.0063737
0.00530974
0.0039394
0.00273696
0.00194092
0.00148789
0.00124569
0.00122733
0.00155073
0.00195295
0.00205983
0.00198841
0.00197696
0.00232898
0.0157013
0.0208239
0.00448036
0.00488205
0.00605848
0.00666028
0.00635059
0.00527299
0.00389105
0.00268631
0.00189733
0.00145223
0.00121028
0.00119258
0.00151414
0.00192736
0.00204958
0.00198521
0.00197511
0.00233525
0.0159358
0.0204564
0.00441395
0.00486727
0.00604641
0.00664601
0.00632782
0.00523724
0.00384445
0.00263796
0.00185625
0.00141898
0.00117638
0.00115961
0.00147979
0.00190282
0.0020394
0.00198199
0.00197339
0.00234192
0.0161758
0.0200923
0.00435178
0.00485349
0.00603467
0.00663188
0.00630546
0.00520253
0.00379965
0.00259199
0.0018177
0.00138815
0.00114392
0.00112848
0.00144774
0.00187945
0.00202937
0.00197877
0.00197178
0.00234899
0.0164218
0.0197317
0.00429362
0.00484073
0.00602333
0.00661797
0.00628355
0.00516894
0.00375677
0.0025485
0.00178176
0.00135979
0.00111289
0.00109912
0.00141801
0.00185735
0.00201953
0.00197553
0.00197027
0.00235646
0.0166738
0.0193748
0.00423927
0.00482897
0.00601242
0.00660432
0.00626218
0.0051366
0.00371598
0.00250767
0.00174856
0.00133397
0.00108332
0.00107133
0.00139051
0.00183656
0.00200991
0.00197225
0.00196882
0.00236434
0.0169318
0.0190213
0.0041886
0.00481818
0.00600196
0.00659097
0.00624143
0.00510568
0.00367751
0.00246972
0.00171824
0.00131082
0.0010554
0.00104474
0.00136503
0.00181704
0.00200051
0.00196893
0.00196743
0.00237261
0.0171959
0.0186712
0.00414157
0.00480833
0.00599196
0.00657797
0.00622144
0.00507637
0.00364162
0.00243491
0.00169097
0.00129046
0.00102942
0.00101904
0.00134132
0.00179872
0.00199133
0.00196556
0.00196608
0.00238129
0.0174662
0.0183243
0.0040982
0.0047994
0.00598245
0.00656539
0.00620231
0.00504889
0.00360859
0.00240348
0.00166694
0.00127303
0.00100582
0.000994085
0.00131914
0.00178151
0.00198239
0.00196217
0.0019648
0.00239041
0.0177429
0.0179808
0.00405858
0.00479136
0.00597343
0.00655327
0.00618419
0.00502345
0.00357867
0.00237569
0.00164631
0.00125865
0.000985062
0.00096995
0.00129837
0.00176535
0.0019737
0.00195879
0.00196358
0.00239998
0.018026
0.0176405
0.00402275
0.00478419
0.00596489
0.00654163
0.00616715
0.00500024
0.00355214
0.00235178
0.00162921
0.00124739
0.000967588
0.000946873
0.00127897
0.00175022
0.0019653
0.00195544
0.00196246
0.00241004
0.0183158
0.0173035
0.00399077
0.00477785
0.00595681
0.00653048
0.00615127
0.00497943
0.00352922
0.00233194
0.00161573
0.00123925
0.000953728
0.000925112
0.00126095
0.0017361
0.00195721
0.00195214
0.00196142
0.00242058
0.0186121
0.01697
0.00396266
0.00477228
0.00594914
0.00651981
0.00613664
0.00496118
0.00351011
0.00231633
0.00160591
0.00123419
0.000943691
0.000904749
0.00124434
0.001723
0.00194945
0.00194889
0.00196044
0.0024316
0.0189151
0.0166399
0.00393844
0.00476742
0.00594186
0.00650961
0.00612329
0.00494561
0.00349498
0.00230506
0.00159972
0.00123207
0.000937556
0.00088559
0.00122908
0.0017109
0.001942
0.00194567
0.00195951
0.00244309
0.0192248
0.0163133
0.00391815
0.00476323
0.00593491
0.00649986
0.00611129
0.00493285
0.00348395
0.00229816
0.00159708
0.00123272
0.000935288
0.000867291
0.00121515
0.00169979
0.00193486
0.00194246
0.00195859
0.00245503
0.019541
0.0159903
0.0039018
0.00475965
0.00592827
0.00649057
0.00610066
0.00492296
0.00347709
0.00229561
0.00159785
0.00123594
0.000936756
0.000849392
0.00120261
0.00168969
0.00192801
0.00193923
0.00195764
0.00246741
0.0198639
0.015671
0.00388931
0.00475663
0.00592174
0.0064821
0.006092
0.00491607
0.00347378
0.00229627
0.00160187
0.00124152
0.000941759
0.000831158
0.00119151
0.00168063
0.00192147
0.00193598
0.00195667
0.00248023
0.0201934
0.0153554
0.00388036
0.0047537
0.00591561
0.00647502
0.00608594
0.00491252
0.00347369
0.00229929
0.0016069
0.00124885
0.000950114
0.000811677
0.00118199
0.00167266
0.00191526
0.00193273
0.00195568
0.00249351
0.0205298
0.0150442
0.00387436
0.00475072
0.00590989
0.00646936
0.00608251
0.00491237
0.00347676
0.0023045
0.00161323
0.00125636
0.000961703
0.000788389
0.00117427
0.00166573
0.00190934
0.00192947
0.00195467
0.0025073
0.0208734
0.0147399
0.00386877
0.00474761
0.00590454
0.00646511
0.00608174
0.00491561
0.00348294
0.00231179
0.0016208
0.00126526
0.000973214
0.000766256
0.00116833
0.00165986
0.00190374
0.0019262
0.00195364
0.00252163
0.0212245
0.0144428
0.00386331
0.00474427
0.00589946
0.00646225
0.00608365
0.00492224
0.0034922
0.00232116
0.0016296
0.00127555
0.000987945
0.000742936
0.00116355
0.00165512
0.00189857
0.00192299
0.00195262
0.00253653
0.0215837
0.0141528
0.0038579
0.00474062
0.0058946
0.00646077
0.00608828
0.00493232
0.00350459
0.0023326
0.00163956
0.00128701
0.00100613
0.000732154
0.00115835
0.00165131
0.00189381
0.00191987
0.00195166
0.00255381
0.0219502
0.0138699
0.00385247
0.00473655
0.00588987
0.00646067
0.00609571
0.00494597
0.0035202
0.00234614
0.00165066
0.00129931
0.00102551
0.000745675
0.00115634
0.00164795
0.00188902
0.00191676
0.00195073
0.00257763
0.022321
0.0135943
0.00384695
0.00473196
0.00588518
0.00646196
0.00610606
0.00496338
0.00353922
0.00236194
0.00166298
0.00131258
0.00104672
0.000778552
0.00115986
0.00164559
0.00188433
0.00191375
0.00195015
0.00260862
0.022696
0.013326
0.00384128
0.00472673
0.00588044
0.00646463
0.00611948
0.00498484
0.00356199
0.00238031
0.00167679
0.00132734
0.00107275
0.000822317
0.00116722
0.00164421
0.0018798
0.00191089
0.00195022
0.00264771
0.0230751
0.013065
0.00383537
0.00472071
0.00587551
0.00646866
0.00613614
0.00501072
0.00358902
0.0024017
0.00169239
0.00134374
0.00110314
0.000885994
0.0011781
0.00164369
0.00187536
0.00190818
0.00195108
0.00269607
0.0234585
0.0128116
0.00382914
0.00471374
0.00587022
0.00647402
0.00615623
0.00504144
0.00362087
0.00242669
0.00171023
0.00136201
0.00113535
0.000958504
0.00119426
0.0016442
0.00187103
0.00190561
0.00195292
0.00275476
0.0238459
0.0125658
0.00382251
0.00470565
0.00586438
0.00648065
0.0061799
0.00507739
0.00365808
0.00245578
0.0017307
0.00138257
0.00116967
0.00102233
0.00121544
0.00164579
0.00186687
0.00190323
0.00195597
0.00282489
0.0242373
0.0123277
0.00381536
0.00469623
0.00585778
0.00648845
0.00620735
0.00511905
0.00370124
0.00248944
0.00175392
0.0014051
0.00120616
0.00108148
0.00124048
0.00164837
0.00186288
0.00190106
0.00196053
0.00290755
0.0246326
0.0120975
0.00380762
0.00468527
0.00585018
0.00649731
0.00623874
0.0051669
0.00375103
0.00252826
0.00178015
0.00142919
0.00124287
0.00113843
0.00126887
0.00165187
0.00185904
0.00189914
0.00196694
0.00300383
0.0250315
0.0118752
0.00379919
0.00467259
0.00584134
0.00650712
0.0062742
0.00522139
0.00380812
0.00257291
0.00180982
0.00145497
0.00127925
0.0011894
0.00130028
0.00165629
0.00185541
0.00189755
0.00197567
0.00311481
0.0254341
0.0116611
0.00378999
0.00465795
0.00583098
0.00651772
0.0063139
0.00528301
0.00387319
0.00262404
0.00184329
0.00148253
0.00131623
0.00123686
0.00133406
0.00166158
0.00185201
0.00189638
0.00198723
0.00324166
0.02584
0.0114554
0.00377994
0.00464113
0.00581879
0.00652893
0.00635796
0.00535231
0.00394708
0.00268244
0.00188101
0.00151177
0.00135398
0.00128671
0.0013695
0.00166767
0.0018489
0.00189577
0.00200226
0.00338547
0.026249
0.0112581
0.00376896
0.00462187
0.0058044
0.00654044
0.00640643
0.00542979
0.00403066
0.00274908
0.00192356