/*--------------------------------*- C++ -*----------------------------------*\
  =========                 |
  \\      /  F ield         | OpenFOAM: The Open Source CFD Toolbox
   \\    /   O peration     | Website:  https://openfoam.org
    \\  /    A nd           | Version:  8
     \\/     M anipulation  |
\*---------------------------------------------------------------------------*/
FoamFile
{
    version     2.0;
    format      ascii;
    class       volScalarField;
    location    "600";
    object      p;
}
// * * * * * * * * * * * * * * * * * * * * * * * * * * * * * * * * * * * * * //

dimensions      [1 -1 -2 0 0 0 0];

internalField   nonuniform List<scalar> 
8400
(
47033.4
106586
168227
238763
321199
417367
528172
653788
793824
947463
1.11339e+06
1.29011e+06
1.47575e+06
1.66835e+06
1.86581e+06
2.06602e+06
2.26695e+06
2.46655e+06
2.66263e+06
2.85351e+06
3.03743e+06
3.21266e+06
3.3778e+06
3.53149e+06
3.67251e+06
3.80016e+06
3.91385e+06
4.01299e+06
4.0976e+06
4.16789e+06
4.22461e+06
4.26874e+06
4.30177e+06
4.32537e+06
4.34135e+06
4.35162e+06
4.35784e+06
4.3613e+06
4.36288e+06
4.36307e+06
4.36219e+06
4.36063e+06
4.35878e+06
4.35689e+06
4.3551e+06
4.35363e+06
4.3528e+06
4.35258e+06
4.3526e+06
4.35249e+06
54385.4
102981
159462
226746
306677
400654
509447
633210
771553
923664
1.08828e+06
1.26377e+06
1.44829e+06
1.63993e+06
1.83651e+06
2.0359e+06
2.23599e+06
2.43485e+06
2.63041e+06
2.82088e+06
3.00459e+06
3.17996e+06
3.34561e+06
3.50029e+06
3.64279e+06
3.77243e+06
3.88864e+06
3.99072e+06
4.07866e+06
4.15272e+06
4.2135e+06
4.26176e+06
4.29869e+06
4.32588e+06
4.34489e+06
4.35722e+06
4.3645e+06
4.36784e+06
4.36829e+06
4.36652e+06
4.36365e+06
4.3607e+06
4.35823e+06
4.35619e+06
4.35448e+06
4.35303e+06
4.35208e+06
4.35165e+06
4.35146e+06
4.35105e+06
60394.6
98033.4
148754
211422
287598
378476
484743
606494
743356
894368
1.05829e+06
1.23341e+06
1.41777e+06
1.6094e+06
1.80599e+06
2.00547e+06
2.20568e+06
2.4045e+06
2.60008e+06
2.79069e+06
2.97463e+06
3.15031e+06
3.31649e+06
3.47206e+06
3.61584e+06
3.74711e+06
3.86546e+06
3.97035e+06
4.06163e+06
4.13957e+06
4.20464e+06
4.2575e+06
4.29897e+06
4.33032e+06
4.35301e+06
4.36827e+06
4.37791e+06
4.38247e+06
4.38251e+06
4.37874e+06
4.3726e+06
4.36594e+06
4.36061e+06
4.35649e+06
4.35385e+06
4.35263e+06
4.35236e+06
4.35236e+06
4.35218e+06
4.35153e+06
56101
85451.4
130583
188151
260028
347362
450825
570488
705882
855978
1.01942e+06
1.19443e+06
1.37894e+06
1.57088e+06
1.76781e+06
1.96757e+06
2.16805e+06
2.367e+06
2.56259e+06
2.75308e+06
2.93687e+06
3.1125e+06
3.2786e+06
3.43412e+06
3.57821e+06
3.7104e+06
3.83031e+06
3.93733e+06
4.03126e+06
4.11262e+06
4.18189e+06
4.23943e+06
4.28579e+06
4.32202e+06
4.34872e+06
4.36673e+06
4.3789e+06
4.38686e+06
4.38905e+06
4.38515e+06
4.37792e+06
4.37044e+06
4.36509e+06
4.36037e+06
4.35509e+06
4.35196e+06
4.35154e+06
4.35175e+06
4.35142e+06
4.35039e+06
44153.2
69527.9
110059
162981
230699
314604
415397
533101
667211
816650
979862
1.15497e+06
1.33988e+06
1.53232e+06
1.72984e+06
1.93008e+06
2.13087e+06
2.32991e+06
2.52531e+06
2.71542e+06
2.89871e+06
3.07374e+06
3.239e+06
3.39351e+06
3.53666e+06
3.66826e+06
3.78806e+06
3.89533e+06
3.9899e+06
4.07287e+06
4.14494e+06
4.20573e+06
4.25591e+06
4.29781e+06
4.33087e+06
4.35405e+06
4.36932e+06
4.37943e+06
4.38411e+06
4.38358e+06
4.37909e+06
4.37281e+06
4.36728e+06
4.36184e+06
4.35616e+06
4.35236e+06
4.35125e+06
4.35089e+06
4.35023e+06
4.34919e+06
30081.4
53542.7
89583
137880
201496
282055
380301
496172
629062
777783
940660
1.11562e+06
1.3006e+06
1.49323e+06
1.69123e+06
1.89195e+06
2.09292e+06
2.29198e+06
2.48721e+06
2.6768e+06
2.85942e+06
3.03386e+06
3.19825e+06
3.35144e+06
3.49292e+06
3.62282e+06
3.74135e+06
3.84749e+06
3.94096e+06
4.02389e+06
4.09751e+06
4.16005e+06
4.21116e+06
4.25353e+06
4.2876e+06
4.31393e+06
4.33386e+06
4.34897e+06
4.35963e+06
4.36588e+06
4.36771e+06
4.36673e+06
4.36543e+06
4.36201e+06
4.3568e+06
4.35462e+06
4.35372e+06
4.35188e+06
4.35044e+06
4.34913e+06
21841.7
44002
75285.8
119135
179087
256810
352973
467417
599303
747198
909401
1.08373e+06
1.26813e+06
1.45998e+06
1.65725e+06
1.85763e+06
2.05828e+06
2.25675e+06
2.4511e+06
2.63966e+06
2.8213e+06
2.99531e+06
3.15927e+06
3.31131e+06
3.45109e+06
3.57905e+06
3.69568e+06
3.79922e+06
3.88858e+06
3.96588e+06
4.0325e+06
4.08845e+06
4.13504e+06
4.17444e+06
4.20805e+06
4.23711e+06
4.26265e+06
4.28556e+06
4.30595e+06
4.32321e+06
4.33637e+06
4.34672e+06
4.35501e+06
4.35929e+06
4.35946e+06
4.3592e+06
4.35889e+06
4.35774e+06
4.3549e+06
4.35219e+06
21024.6
41982.8
69332.6
110082
167661
243610
338469
452001
583282
730707
892360
1.06589e+06
1.24911e+06
1.43945e+06
1.63464e+06
1.83277e+06
2.0316e+06
2.22869e+06
2.42183e+06
2.60916e+06
2.78938e+06
2.96226e+06
3.12575e+06
3.27682e+06
3.41444e+06
3.53807e+06
3.64743e+06
3.74173e+06
3.82087e+06
3.88645e+06
3.94051e+06
3.98506e+06
4.02252e+06
4.05555e+06
4.08633e+06
4.1167e+06
4.14793e+06
4.18053e+06
4.21403e+06
4.24676e+06
4.27807e+06
4.30802e+06
4.33349e+06
4.35198e+06
4.36307e+06
4.36907e+06
4.37085e+06
4.36872e+06
4.36437e+06
4.35877e+06
21038.8
40985.7
68231.7
109254
166675
242072
336254
449220
580202
727642
889335
1.06277e+06
1.24509e+06
1.43369e+06
1.62634e+06
1.82162e+06
2.01808e+06
2.21319e+06
2.40451e+06
2.59014e+06
2.76863e+06
2.93895e+06
3.09927e+06
3.24674e+06
3.37937e+06
3.49559e+06
3.5943e+06
3.67506e+06
3.73853e+06
3.78675e+06
3.82276e+06
3.85004e+06
3.87264e+06
3.89443e+06
3.91876e+06
3.94824e+06
3.9845e+06
4.02795e+06
4.07775e+06
4.1317e+06
4.18861e+06
4.24629e+06
4.29813e+06
4.33882e+06
4.36661e+06
4.38307e+06
4.3902e+06
4.38896e+06
4.38046e+06
4.36926e+06
14243.5
32860
65145.4
110895
171074
247696
342360
455741
587421
736011
899008
1.0739e+06
1.25758e+06
1.44695e+06
1.63962e+06
1.83397e+06
2.02823e+06
2.22001e+06
2.40736e+06
2.58883e+06
2.76316e+06
2.92887e+06
3.08365e+06
3.22448e+06
3.34869e+06
3.45397e+06
3.53855e+06
3.60175e+06
3.64467e+06
3.6701e+06
3.68233e+06
3.68658e+06
3.68885e+06
3.69464e+06
3.70853e+06
3.73444e+06
3.77458e+06
3.82909e+06
3.89715e+06
3.977e+06
4.06691e+06
4.16125e+06
4.24834e+06
4.31894e+06
4.36912e+06
4.39978e+06
4.41427e+06
4.41547e+06
4.40519e+06
4.3868e+06
2947.08
22215.7
61199.5
113382
178877
260091
359003
476678
612955
766652
935385
1.11585e+06
1.30456e+06
1.49802e+06
1.69285e+06
1.88621e+06
2.07599e+06
2.26054e+06
2.43896e+06
2.61088e+06
2.77581e+06
2.9324e+06
3.07812e+06
3.20944e+06
3.32273e+06
3.41464e+06
3.48241e+06
3.52482e+06
3.54344e+06
3.54229e+06
3.52682e+06
3.50439e+06
3.48334e+06
3.47065e+06
3.4717e+06
3.49242e+06
3.53579e+06
3.60026e+06
3.68512e+06
3.79251e+06
3.91969e+06
4.05674e+06
4.18571e+06
4.29265e+06
4.37022e+06
4.41822e+06
4.44134e+06
4.44528e+06
4.43404e+06
4.41123e+06
-4566.45
14714.9
59976.5
119487
193192
283556
392161
519789
666556
830647
1.00979e+06
1.20036e+06
1.3979e+06
1.59766e+06
1.7949e+06
1.9857e+06
2.16743e+06
2.33903e+06
2.50146e+06
2.6566e+06
2.80575e+06
2.94818e+06
3.08095e+06
3.19956e+06
3.29944e+06
3.37634e+06
3.42615e+06
3.44677e+06
3.44034e+06
3.41255e+06
3.36988e+06
3.32259e+06
3.28174e+06
3.25408e+06
3.24408e+06
3.26179e+06
3.31061e+06
3.3821e+06
3.47394e+06
3.60072e+06
3.7611e+06
3.93952e+06
4.11187e+06
4.25915e+06
4.36905e+06
4.43814e+06
4.4715e+06
4.47807e+06
4.46544e+06
4.43921e+06
-2692.49
19297.8
69520.9
135388
217923
319915
442351
585095
747762
928777
1.12504e+06
1.332e+06
1.54406e+06
1.75462e+06
1.95675e+06
2.14438e+06
2.31343e+06
2.46354e+06
2.59903e+06
2.72647e+06
2.85082e+06
2.97253e+06
3.08747e+06
3.1895e+06
3.27348e+06
3.3347e+06
3.36688e+06
3.36689e+06
3.33924e+06
3.29183e+06
3.22978e+06
3.16892e+06
3.12325e+06
3.09489e+06
3.0828e+06
3.1064e+06
3.17002e+06
3.24789e+06
3.32306e+06
3.44601e+06
3.62533e+06
3.83199e+06
4.03594e+06
4.21743e+06
4.35993e+06
4.45345e+06
4.50046e+06
4.51156e+06
4.49834e+06
4.46916e+06
-4055.6
31139.6
87026.1
157952
250038
366672
507249
671259
857187
1.06296e+06
1.28475e+06
1.51684e+06
1.75178e+06
1.98023e+06
2.19173e+06
2.37611e+06
2.52597e+06
2.64166e+06
2.73359e+06
2.81747e+06
2.90542e+06
2.99919e+06
3.09025e+06
3.17e+06
3.23455e+06
3.28034e+06
3.29638e+06
3.27928e+06
3.24037e+06
3.19024e+06
3.125e+06
3.07252e+06
3.04848e+06
3.04261e+06
3.04066e+06
3.07388e+06
3.15237e+06
3.23859e+06
3.31277e+06
3.40977e+06
3.59218e+06
3.8035e+06
4.01097e+06
4.20068e+06
4.35726e+06
4.46541e+06
4.52325e+06
4.54026e+06
4.5291e+06
4.49894e+06
15534.4
64436
121973
194486
294903
427247
589456
779507
995414
1.23409e+06
1.49061e+06
1.75793e+06
2.02625e+06
2.28273e+06
2.51162e+06
2.69519e+06
2.81757e+06
2.87952e+06
2.9036e+06
2.92354e+06
2.96366e+06
3.02529e+06
3.08578e+06
3.1344e+06
3.17437e+06
3.20708e+06
3.20862e+06
3.1797e+06
3.14647e+06
3.12024e+06
3.07356e+06
3.04404e+06
3.04782e+06
3.06197e+06
3.07635e+06
3.10545e+06
3.1635e+06
3.24488e+06
3.34729e+06
3.47536e+06
3.6449e+06
3.83653e+06
4.03342e+06
4.21671e+06
4.36911e+06
4.47777e+06
4.53986e+06
4.56264e+06
4.55589e+06
4.527e+06
36540.3
115105
177986
251411
359272
506558
691258
910360
1.16091e+06
1.43872e+06
1.7379e+06
2.04977e+06
2.36214e+06
2.65882e+06
2.91791e+06
3.10965e+06
3.19596e+06
3.17833e+06
3.10383e+06
3.039e+06
3.02711e+06
3.06301e+06
3.08608e+06
3.09306e+06
3.10622e+06
3.13387e+06
3.12716e+06
3.09862e+06
3.08728e+06
3.09508e+06
3.08022e+06
3.05586e+06
3.05714e+06
3.07881e+06
3.1177e+06
3.1655e+06
3.22791e+06
3.31178e+06
3.41801e+06
3.54346e+06
3.6974e+06
3.87276e+06
4.05642e+06
4.23161e+06
4.38117e+06
4.49197e+06
4.55893e+06
4.58616e+06
4.58185e+06
4.55424e+06
61761.2
158779
220571
290788
403145
564567
773777
1.02645e+06
1.31621e+06
1.6369e+06
1.98156e+06
2.34037e+06
2.70046e+06
3.04501e+06
3.34888e+06
3.56922e+06
3.61261e+06
3.48917e+06
3.29316e+06
3.1386e+06
3.08785e+06
3.12143e+06
3.1098e+06
3.07531e+06
3.07318e+06
3.10589e+06
3.11091e+06
3.08534e+06
3.06085e+06
3.06081e+06
3.07943e+06
3.08526e+06
3.09751e+06
3.11823e+06
3.14951e+06
3.19304e+06
3.25469e+06
3.33897e+06
3.44603e+06
3.57441e+06
3.726e+06
3.89628e+06
4.07497e+06
4.24794e+06
4.39949e+06
4.51651e+06
4.59204e+06
4.62631e+06
4.62473e+06
4.59538e+06
87896.4
223243
298967
372291
480288
639293
858721
1.13072e+06
1.44001e+06
1.77956e+06
2.14265e+06
2.51979e+06
2.90126e+06
3.27499e+06
3.62138e+06
3.89733e+06
3.90109e+06
3.66975e+06
3.37847e+06
3.16996e+06
3.10371e+06
3.13823e+06
3.14106e+06
3.09814e+06
3.06802e+06
3.06138e+06
3.07818e+06
3.08178e+06
3.08261e+06
3.08707e+06
3.0968e+06
3.1051e+06
3.11787e+06
3.13997e+06
3.1745e+06
3.22375e+06
3.29135e+06
3.38027e+06
3.49133e+06
3.62403e+06
3.7776e+06
3.94746e+06
4.12477e+06
4.29705e+06
4.45004e+06
4.57095e+06
4.65123e+06
4.68858e+06
4.68601e+06
4.65121e+06
164053
319076
466940
579006
671084
797127
1.00232e+06
1.26787e+06
1.55863e+06
1.87341e+06
2.20866e+06
2.55653e+06
2.91411e+06
3.27581e+06
3.62476e+06
3.91421e+06
3.96863e+06
3.78268e+06
3.47152e+06
3.19893e+06
3.07379e+06
3.06727e+06
3.09857e+06
3.09242e+06
3.09481e+06
3.09942e+06
3.10493e+06
3.10411e+06
3.10123e+06
3.1006e+06
3.10557e+06
3.11582e+06
3.13307e+06
3.16038e+06
3.20064e+06
3.25608e+06
3.32947e+06
3.4234e+06
3.53917e+06
3.67662e+06
3.83388e+06
4.00597e+06
4.18448e+06
4.35748e+06
4.51121e+06
4.63305e+06
4.71388e+06
4.7504e+06
4.7448e+06
4.70388e+06
-59609.6
39158.8
245807
383295
506082
657363
887811
1.18426e+06
1.50656e+06
1.84386e+06
2.18412e+06
2.51738e+06
2.84404e+06
3.16608e+06
3.47994e+06
3.75727e+06
3.87046e+06
3.73488e+06
3.51619e+06
3.31044e+06
3.18734e+06
3.13884e+06
3.12506e+06
3.11175e+06
3.10326e+06
3.09841e+06
3.09682e+06
3.0959e+06
3.09689e+06
3.10083e+06
3.10927e+06
3.12392e+06
3.1462e+06
3.17832e+06
3.22349e+06
3.28441e+06
3.36353e+06
3.46312e+06
3.58473e+06
3.72837e+06
3.89162e+06
4.06913e+06
4.25221e+06
4.42854e+06
4.58431e+06
4.70607e+06
4.78468e+06
4.81697e+06
4.80481e+06
4.75413e+06
4.446e+06
4.44549e+06
4.44524e+06
4.44514e+06
4.44509e+06
4.44506e+06
4.44504e+06
4.44504e+06
4.44504e+06
4.44505e+06
4.44507e+06
4.4451e+06
4.44513e+06
4.44517e+06
4.44521e+06
4.44525e+06
4.44529e+06
4.44532e+06
4.44535e+06
4.44536e+06
4.44537e+06
4.44537e+06
4.44536e+06
4.44534e+06
4.44531e+06
4.44528e+06
4.44525e+06
4.44522e+06
4.44519e+06
4.44517e+06
4.44515e+06
4.44514e+06
4.44513e+06
4.44512e+06
4.44512e+06
4.44512e+06
4.44512e+06
4.4451e+06
4.44508e+06
4.44504e+06
4.44499e+06
4.44492e+06
4.44482e+06
4.44472e+06
4.4446e+06
4.44447e+06
4.44434e+06
4.4442e+06
4.44406e+06
4.44391e+06
4.44431e+06
4.4446e+06
4.44469e+06
4.44472e+06
4.44475e+06
4.44478e+06
4.4448e+06
4.44482e+06
4.44485e+06
4.44488e+06
4.44491e+06
4.44494e+06
4.44498e+06
4.44503e+06
4.44507e+06
4.44512e+06
4.44516e+06
4.44519e+06
4.44522e+06
4.44524e+06
4.44525e+06
4.44525e+06
4.44524e+06
4.44522e+06
4.4452e+06
4.44517e+06
4.44514e+06
4.44511e+06
4.44508e+06
4.44506e+06
4.44504e+06
4.44503e+06
4.44502e+06
4.44502e+06
4.44502e+06
4.44502e+06
4.44502e+06
4.445e+06
4.44498e+06
4.44494e+06
4.44489e+06
4.44482e+06
4.44473e+06
4.44462e+06
4.4445e+06
4.44437e+06
4.44424e+06
4.44411e+06
4.44398e+06
4.44385e+06
4.44467e+06
4.44481e+06
4.44488e+06
4.44489e+06
4.44488e+06
4.44487e+06
4.44487e+06
4.44487e+06
4.44488e+06
4.44489e+06
4.44491e+06
4.44493e+06
4.44496e+06
4.445e+06
4.44503e+06
4.44507e+06
4.44511e+06
4.44514e+06
4.44516e+06
4.44518e+06
4.44518e+06
4.44518e+06
4.44517e+06
4.44515e+06
4.44513e+06
4.4451e+06
4.44507e+06
4.44504e+06
4.44501e+06
4.44499e+06
4.44497e+06
4.44495e+06
4.44495e+06
4.44494e+06
4.44494e+06
4.44494e+06
4.44494e+06
4.44493e+06
4.4449e+06
4.44487e+06
4.44481e+06
4.44474e+06
4.44465e+06
4.44454e+06
4.44443e+06
4.4443e+06
4.44417e+06
4.44405e+06
4.44393e+06
4.44382e+06
4.4446e+06
4.44463e+06
4.44464e+06
4.44463e+06
4.44463e+06
4.44463e+06
4.44464e+06
4.44465e+06
4.44467e+06
4.44469e+06
4.44472e+06
4.44475e+06
4.44479e+06
4.44483e+06
4.44487e+06
4.44491e+06
4.44495e+06
4.44498e+06
4.44501e+06
4.44503e+06
4.44504e+06
4.44504e+06
4.44504e+06
4.44502e+06
4.445e+06
4.44498e+06
4.44495e+06
4.44492e+06
4.4449e+06
4.44488e+06
4.44486e+06
4.44485e+06
4.44484e+06
4.44484e+06
4.44484e+06
4.44484e+06
4.44483e+06
4.44482e+06
4.4448e+06
4.44476e+06
4.44471e+06
4.44464e+06
4.44455e+06
4.44445e+06
4.44434e+06
4.44422e+06
4.4441e+06
4.44398e+06
4.44387e+06
4.44377e+06
4.44454e+06
4.44456e+06
4.44458e+06
4.44459e+06
4.44461e+06
4.44462e+06
4.44463e+06
4.44464e+06
4.44466e+06
4.44468e+06
4.4447e+06
4.44473e+06
4.44476e+06
4.44479e+06
4.44483e+06
4.44486e+06
4.4449e+06
4.44493e+06
4.44495e+06
4.44497e+06
4.44498e+06
4.44498e+06
4.44497e+06
4.44496e+06
4.44494e+06
4.44492e+06
4.44489e+06
4.44486e+06
4.44484e+06
4.44482e+06
4.4448e+06
4.44478e+06
4.44478e+06
4.44477e+06
4.44477e+06
4.44477e+06
4.44476e+06
4.44475e+06
4.44473e+06
4.44469e+06
4.44464e+06
4.44457e+06
4.44449e+06
4.44439e+06
4.44428e+06
4.44416e+06
4.44405e+06
4.44394e+06
4.44384e+06
4.44376e+06
4.44447e+06
4.44447e+06
4.44448e+06
4.44448e+06
4.44449e+06
4.44449e+06
4.4445e+06
4.44451e+06
4.44452e+06
4.44454e+06
4.44456e+06
4.44458e+06
4.44461e+06
4.44465e+06
4.44468e+06
4.44472e+06
4.44475e+06
4.44478e+06
4.4448e+06
4.44482e+06
4.44484e+06
4.44484e+06
4.44484e+06
4.44483e+06
4.44482e+06
4.4448e+06
4.44478e+06
4.44475e+06
4.44473e+06
4.44471e+06
4.44469e+06
4.44468e+06
4.44467e+06
4.44467e+06
4.44467e+06
4.44466e+06
4.44466e+06
4.44465e+06
4.44463e+06
4.4446e+06
4.44455e+06
4.44448e+06
4.4444e+06
4.44431e+06
4.4442e+06
4.44409e+06
4.44399e+06
4.44389e+06
4.4438e+06
4.44372e+06
4.44438e+06
4.44439e+06
4.44439e+06
4.4444e+06
4.44441e+06
4.44442e+06
4.44443e+06
4.44444e+06
4.44446e+06
4.44448e+06
4.4445e+06
4.44452e+06
4.44455e+06
4.44458e+06
4.44461e+06
4.44464e+06
4.44467e+06
4.4447e+06
4.44472e+06
4.44474e+06
4.44476e+06
4.44477e+06
4.44477e+06
4.44476e+06
4.44475e+06
4.44473e+06
4.44471e+06
4.44469e+06
4.44467e+06
4.44465e+06
4.44463e+06
4.44462e+06
4.44461e+06
4.4446e+06
4.4446e+06
4.44459e+06
4.44459e+06
4.44458e+06
4.44456e+06
4.44453e+06
4.44448e+06
4.44442e+06
4.44434e+06
4.44425e+06
4.44415e+06
4.44405e+06
4.44395e+06
4.44386e+06
4.44378e+06
4.44371e+06
4.4443e+06
4.4443e+06
4.44431e+06
4.44431e+06
4.44432e+06
4.44433e+06
4.44434e+06
4.44435e+06
4.44436e+06
4.44438e+06
4.44439e+06
4.44441e+06
4.44443e+06
4.44446e+06
4.44449e+06
4.44451e+06
4.44454e+06
4.44457e+06
4.44459e+06
4.44461e+06
4.44463e+06
4.44464e+06
4.44465e+06
4.44465e+06
4.44464e+06
4.44463e+06
4.44461e+06
4.4446e+06
4.44458e+06
4.44456e+06
4.44454e+06
4.44452e+06
4.44451e+06
4.4445e+06
4.4445e+06
4.4445e+06
4.44449e+06
4.44448e+06
4.44446e+06
4.44443e+06
4.44439e+06
4.44433e+06
4.44426e+06
4.44418e+06
4.44409e+06
4.44399e+06
4.4439e+06
4.44381e+06
4.44374e+06
4.44369e+06
4.44422e+06
4.44422e+06
4.44422e+06
4.44423e+06
4.44423e+06
4.44424e+06
4.44425e+06
4.44427e+06
4.44428e+06
4.44429e+06
4.44431e+06
4.44432e+06
4.44434e+06
4.44437e+06
4.44439e+06
4.44442e+06
4.44444e+06
4.44447e+06
4.4445e+06
4.44452e+06
4.44454e+06
4.44455e+06
4.44456e+06
4.44457e+06
4.44456e+06
4.44456e+06
4.44454e+06
4.44453e+06
4.44451e+06
4.44449e+06
4.44447e+06
4.44445e+06
4.44444e+06
4.44443e+06
4.44443e+06
4.44442e+06
4.44441e+06
4.4444e+06
4.44439e+06
4.44436e+06
4.44432e+06
4.44427e+06
4.4442e+06
4.44412e+06
4.44404e+06
4.44395e+06
4.44387e+06
4.44379e+06
4.44372e+06
4.44368e+06
4.44413e+06
4.44413e+06
4.44413e+06
4.44414e+06
4.44415e+06
4.44416e+06
4.44417e+06
4.44418e+06
4.44419e+06
4.4442e+06
4.44421e+06
4.44423e+06
4.44424e+06
4.44426e+06
4.44428e+06
4.4443e+06
4.44433e+06
4.44435e+06
4.44438e+06
4.4444e+06
4.44442e+06
4.44444e+06
4.44446e+06
4.44447e+06
4.44447e+06
4.44447e+06
4.44446e+06
4.44444e+06
4.44443e+06
4.44441e+06
4.44439e+06
4.44437e+06
4.44436e+06
4.44434e+06
4.44434e+06
4.44433e+06
4.44432e+06
4.44431e+06
4.4443e+06
4.44427e+06
4.44424e+06
4.44419e+06
4.44413e+06
4.44406e+06
4.44398e+06
4.4439e+06
4.44383e+06
4.44376e+06
4.4437e+06
4.44366e+06
4.44404e+06
4.44405e+06
4.44405e+06
4.44406e+06
4.44406e+06
4.44407e+06
4.44408e+06
4.44409e+06
4.4441e+06
4.44411e+06
4.44412e+06
4.44413e+06
4.44414e+06
4.44416e+06
4.44417e+06
4.44419e+06
4.44422e+06
4.44424e+06
4.44427e+06
4.44429e+06
4.44432e+06
4.44434e+06
4.44436e+06
4.44437e+06
4.44438e+06
4.44438e+06
4.44438e+06
4.44437e+06
4.44435e+06
4.44433e+06
4.44431e+06
4.44429e+06
4.44427e+06
4.44426e+06
4.44425e+06
4.44424e+06
4.44424e+06
4.44423e+06
4.44421e+06
4.44419e+06
4.44416e+06
4.44412e+06
4.44406e+06
4.444e+06
4.44393e+06
4.44386e+06
4.44379e+06
4.44373e+06
4.44368e+06
4.44364e+06
4.44396e+06
4.44396e+06
4.44396e+06
4.44397e+06
4.44398e+06
4.44399e+06
4.444e+06
4.44401e+06
4.44402e+06
4.44402e+06
4.44403e+06
4.44404e+06
4.44405e+06
4.44406e+06
4.44407e+06
4.44409e+06
4.44411e+06
4.44414e+06
4.44416e+06
4.44419e+06
4.44422e+06
4.44425e+06
4.44427e+06
4.44429e+06
4.4443e+06
4.44431e+06
4.4443e+06
4.44429e+06
4.44428e+06
4.44426e+06
4.44424e+06
4.44421e+06
4.4442e+06
4.44418e+06
4.44417e+06
4.44416e+06
4.44415e+06
4.44414e+06
4.44413e+06
4.44411e+06
4.44409e+06
4.44405e+06
4.444e+06
4.44394e+06
4.44388e+06
4.44382e+06
4.44376e+06
4.4437e+06
4.44366e+06
4.44363e+06
4.44387e+06
4.44387e+06
4.44387e+06
4.44388e+06
4.44389e+06
4.4439e+06
4.44391e+06
4.44392e+06
4.44392e+06
4.44393e+06
4.44393e+06
4.44393e+06
4.44394e+06
4.44394e+06
4.44395e+06
4.44397e+06
4.44399e+06
4.44401e+06
4.44404e+06
4.44407e+06
4.4441e+06
4.44413e+06
4.44416e+06
4.44419e+06
4.4442e+06
4.44421e+06
4.44421e+06
4.4442e+06
4.44419e+06
4.44417e+06
4.44415e+06
4.44412e+06
4.4441e+06
4.44408e+06
4.44407e+06
4.44406e+06
4.44405e+06
4.44405e+06
4.44404e+06
4.44402e+06
4.444e+06
4.44397e+06
4.44393e+06
4.44388e+06
4.44382e+06
4.44377e+06
4.44372e+06
4.44367e+06
4.44363e+06
4.44361e+06
4.44377e+06
4.44378e+06
4.44379e+06
4.4438e+06
4.44381e+06
4.44382e+06
4.44383e+06
4.44384e+06
4.44385e+06
4.44385e+06
4.44385e+06
4.44385e+06
4.44385e+06
4.44386e+06
4.44387e+06
4.44388e+06
4.4439e+06
4.44393e+06
4.44395e+06
4.44399e+06
4.44402e+06
4.44406e+06
4.44409e+06
4.44411e+06
4.44413e+06
4.44414e+06
4.44415e+06
4.44414e+06
4.44412e+06
4.4441e+06
4.44408e+06
4.44405e+06
4.44403e+06
4.44401e+06
4.44399e+06
4.44398e+06
4.44398e+06
4.44397e+06
4.44396e+06
4.44395e+06
4.44393e+06
4.4439e+06
4.44387e+06
4.44383e+06
4.44378e+06
4.44373e+06
4.44368e+06
4.44365e+06
4.44362e+06
4.4436e+06
4.44368e+06
4.44368e+06
4.44369e+06
4.4437e+06
4.44371e+06
4.44372e+06
4.44373e+06
4.44373e+06
4.44373e+06
4.44373e+06
4.44373e+06
4.44372e+06
4.44372e+06
4.44372e+06
4.44373e+06
4.44374e+06
4.44376e+06
4.44379e+06
4.44382e+06
4.44385e+06
4.44389e+06
4.44393e+06
4.44397e+06
4.444e+06
4.44402e+06
4.44403e+06
4.44404e+06
4.44403e+06
4.44402e+06
4.444e+06
4.44397e+06
4.44395e+06
4.44392e+06
4.4439e+06
4.44389e+06
4.44388e+06
4.44387e+06
4.44386e+06
4.44386e+06
4.44385e+06
4.44383e+06
4.44381e+06
4.44378e+06
4.44375e+06
4.44371e+06
4.44367e+06
4.44363e+06
4.4436e+06
4.44358e+06
4.44357e+06
4.44357e+06
4.44359e+06
4.44362e+06
4.44364e+06
4.44365e+06
4.44367e+06
4.44368e+06
4.44368e+06
4.44369e+06
4.44368e+06
4.44368e+06
4.44367e+06
4.44367e+06
4.44367e+06
4.44367e+06
4.44368e+06
4.4437e+06
4.44372e+06
4.44376e+06
4.44379e+06
4.44383e+06
4.44387e+06
4.4439e+06
4.44394e+06
4.44396e+06
4.44397e+06
4.44398e+06
4.44397e+06
4.44396e+06
4.44393e+06
4.44391e+06
4.44388e+06
4.44385e+06
4.44383e+06
4.44381e+06
4.4438e+06
4.44379e+06
4.44379e+06
4.44378e+06
4.44378e+06
4.44376e+06
4.44375e+06
4.44372e+06
4.44369e+06
4.44366e+06
4.44363e+06
4.4436e+06
4.44357e+06
4.44356e+06
4.44356e+06
4.44345e+06
4.44348e+06
4.44349e+06
4.44349e+06
4.44349e+06
4.4435e+06
4.44351e+06
4.44351e+06
4.44351e+06
4.44351e+06
4.44351e+06
4.44351e+06
4.4435e+06
4.44351e+06
4.44351e+06
4.44352e+06
4.44355e+06
4.44357e+06
4.44361e+06
4.44365e+06
4.44369e+06
4.44373e+06
4.44377e+06
4.44381e+06
4.44384e+06
4.44385e+06
4.44386e+06
4.44386e+06
4.44384e+06
4.44382e+06
4.44379e+06
4.44377e+06
4.44374e+06
4.44372e+06
4.4437e+06
4.44369e+06
4.44368e+06
4.44368e+06
4.44368e+06
4.44367e+06
4.44366e+06
4.44365e+06
4.44363e+06
4.44361e+06
4.44358e+06
4.44355e+06
4.44353e+06
4.44351e+06
4.44351e+06
4.44352e+06
4.44334e+06
4.44347e+06
4.44355e+06
4.44356e+06
4.44356e+06
4.44356e+06
4.44355e+06
4.44354e+06
4.44353e+06
4.44352e+06
4.44351e+06
4.44349e+06
4.44348e+06
4.44348e+06
4.44348e+06
4.44349e+06
4.4435e+06
4.44352e+06
4.44356e+06
4.44359e+06
4.44363e+06
4.44367e+06
4.44371e+06
4.44375e+06
4.44377e+06
4.44379e+06
4.44379e+06
4.44379e+06
4.44377e+06
4.44375e+06
4.44372e+06
4.44369e+06
4.44367e+06
4.44364e+06
4.44363e+06
4.44361e+06
4.44361e+06
4.4436e+06
4.4436e+06
4.44359e+06
4.44359e+06
4.44357e+06
4.44356e+06
4.44354e+06
4.44352e+06
4.44349e+06
4.44348e+06
4.44347e+06
4.44347e+06
4.44349e+06
4.44278e+06
4.44307e+06
4.44317e+06
4.44321e+06
4.44324e+06
4.44327e+06
4.44329e+06
4.4433e+06
4.44331e+06
4.44331e+06
4.44331e+06
4.44331e+06
4.44331e+06
4.44331e+06
4.44332e+06
4.44333e+06
4.44335e+06
4.44338e+06
4.44342e+06
4.44346e+06
4.4435e+06
4.44355e+06
4.44359e+06
4.44362e+06
4.44365e+06
4.44367e+06
4.44367e+06
4.44367e+06
4.44365e+06
4.44363e+06
4.44361e+06
4.44358e+06
4.44356e+06
4.44354e+06
4.44352e+06
4.44351e+06
4.4435e+06
4.4435e+06
4.44349e+06
4.44349e+06
4.44348e+06
4.44347e+06
4.44346e+06
4.44344e+06
4.44342e+06
4.44341e+06
4.44339e+06
4.44339e+06
4.4434e+06
4.44344e+06
4.44429e+06
4.44378e+06
4.44353e+06
4.44344e+06
4.44339e+06
4.44336e+06
4.44334e+06
4.44332e+06
4.44331e+06
4.4433e+06
4.44328e+06
4.44327e+06
4.44326e+06
4.44326e+06
4.44326e+06
4.44327e+06
4.44329e+06
4.44332e+06
4.44335e+06
4.44339e+06
4.44343e+06
4.44347e+06
4.44351e+06
4.44354e+06
4.44357e+06
4.44358e+06
4.44359e+06
4.44358e+06
4.44357e+06
4.44355e+06
4.44352e+06
4.4435e+06
4.44347e+06
4.44345e+06
4.44343e+06
4.44342e+06
4.44341e+06
4.44341e+06
4.44341e+06
4.4434e+06
4.4434e+06
4.44339e+06
4.44337e+06
4.44335e+06
4.44334e+06
4.44332e+06
4.44331e+06
4.44332e+06
4.44334e+06
4.44338e+06
4.34486e+06
4.34997e+06
4.35059e+06
4.3545e+06
4.35547e+06
4.3581e+06
4.35899e+06
4.36042e+06
4.36091e+06
4.36145e+06
4.36158e+06
4.36166e+06
4.36165e+06
4.3617e+06
4.36178e+06
4.36225e+06
4.36243e+06
4.36362e+06
4.3638e+06
4.36579e+06
4.34402e+06
4.34913e+06
4.34975e+06
4.35366e+06
4.35463e+06
4.35726e+06
4.35814e+06
4.35957e+06
4.36007e+06
4.3606e+06
4.36073e+06
4.3608e+06
4.36079e+06
4.36084e+06
4.36092e+06
4.36139e+06
4.36158e+06
4.36278e+06
4.363e+06
4.36506e+06
4.34319e+06
4.34831e+06
4.34894e+06
4.35284e+06
4.35382e+06
4.35644e+06
4.35733e+06
4.35875e+06
4.35924e+06
4.35977e+06
4.35989e+06
4.35996e+06
4.35995e+06
4.36e+06
4.36008e+06
4.36056e+06
4.36075e+06
4.36197e+06
4.36221e+06
4.36435e+06
4.34237e+06
4.34749e+06
4.34813e+06
4.35203e+06
4.35302e+06
4.35565e+06
4.35654e+06
4.35796e+06
4.35844e+06
4.35897e+06
4.35908e+06
4.35915e+06
4.35913e+06
4.35918e+06
4.35926e+06
4.35975e+06
4.35995e+06
4.36118e+06
4.36143e+06
4.36361e+06
4.34155e+06
4.34669e+06
4.34734e+06
4.35124e+06
4.35225e+06
4.35487e+06
4.35577e+06
4.35719e+06
4.35767e+06
4.35819e+06
4.35829e+06
4.35835e+06
4.35834e+06
4.35839e+06
4.35847e+06
4.35897e+06
4.35917e+06
4.36042e+06
4.36067e+06
4.36287e+06
4.34074e+06
4.34589e+06
4.34655e+06
4.35046e+06
4.35149e+06
4.35412e+06
4.35503e+06
4.35644e+06
4.35692e+06
4.35743e+06
4.35753e+06
4.35759e+06
4.35757e+06
4.35762e+06
4.3577e+06
4.35821e+06
4.35842e+06
4.35968e+06
4.35994e+06
4.36217e+06
4.33994e+06
4.34509e+06
4.34578e+06
4.3497e+06
4.35076e+06
4.35339e+06
4.35431e+06
4.35572e+06
4.3562e+06
4.3567e+06
4.35679e+06
4.35685e+06
4.35683e+06
4.35688e+06
4.35696e+06
4.35748e+06
4.3577e+06
4.35898e+06
4.35923e+06
4.36149e+06
4.33915e+06
4.34432e+06
4.34503e+06
4.34896e+06
4.35004e+06
4.35268e+06
4.35362e+06
4.35502e+06
4.3555e+06
4.356e+06
4.35609e+06
4.35613e+06
4.35611e+06
4.35616e+06
4.35625e+06
4.35678e+06
4.357e+06
4.35829e+06
4.35856e+06
4.36083e+06
4.3384e+06
4.34357e+06
4.34431e+06
4.34825e+06
4.34936e+06
4.352e+06
4.35295e+06
4.35435e+06
4.35483e+06
4.35532e+06
4.35541e+06
4.35545e+06
4.35542e+06
4.35548e+06
4.35557e+06
4.3561e+06
4.35633e+06
4.35764e+06
4.35791e+06
4.3602e+06
4.33768e+06
4.34287e+06
4.34363e+06
4.34757e+06
4.34871e+06
4.35135e+06
4.35231e+06
4.35371e+06
4.35419e+06
4.35468e+06
4.35476e+06
4.3548e+06
4.35477e+06
4.35483e+06
4.35492e+06
4.35546e+06
4.35569e+06
4.35702e+06
4.35729e+06
4.3596e+06
4.33701e+06
4.34221e+06
4.34299e+06
4.34693e+06
4.34809e+06
4.35073e+06
4.3517e+06
4.35309e+06
4.35358e+06
4.35406e+06
4.35415e+06
4.35418e+06
4.35415e+06
4.35421e+06
4.3543e+06
4.35485e+06
4.35508e+06
4.35642e+06
4.35669e+06
4.35902e+06
4.33639e+06
4.34159e+06
4.3424e+06
4.34633e+06
4.34751e+06
4.35013e+06
4.35112e+06
4.35251e+06
4.353e+06
4.35348e+06
4.35357e+06
4.3536e+06
4.35357e+06
4.35362e+06
4.35371e+06
4.35427e+06
4.3545e+06
4.35585e+06
4.35612e+06
4.35847e+06
4.33581e+06
4.34101e+06
4.34184e+06
4.34576e+06
4.34695e+06
4.34956e+06
4.35056e+06
4.35195e+06
4.35245e+06
4.35293e+06
4.35302e+06
4.35306e+06
4.35303e+06
4.35308e+06
4.35317e+06
4.35372e+06
4.35396e+06
4.35531e+06
4.35559e+06
4.35796e+06
4.33527e+06
4.34047e+06
4.34131e+06
4.34522e+06
4.34643e+06
4.34903e+06
4.35004e+06
4.35142e+06
4.35194e+06
4.35242e+06
4.35252e+06
4.35256e+06
4.35252e+06
4.35258e+06
4.35266e+06
4.35322e+06
4.35345e+06
4.35482e+06
4.35509e+06
4.35747e+06
4.33477e+06
4.33997e+06
4.34082e+06
4.34471e+06
4.34594e+06
4.34853e+06
4.34956e+06
4.35094e+06
4.35147e+06
4.35195e+06
4.35206e+06
4.3521e+06
4.35206e+06
4.35212e+06
4.3522e+06
4.35276e+06
4.35299e+06
4.35436e+06
4.35464e+06
4.35703e+06
4.33431e+06
4.3395e+06
4.34037e+06
4.34424e+06
4.34548e+06
4.34807e+06
4.34911e+06
4.35049e+06
4.35104e+06
4.35152e+06
4.35164e+06
4.35168e+06
4.35164e+06
4.3517e+06
4.35178e+06
4.35234e+06
4.35256e+06
4.35395e+06
4.35422e+06
4.35663e+06
4.33389e+06
4.33907e+06
4.33995e+06
4.34381e+06
4.34507e+06
4.34765e+06
4.34872e+06
4.35009e+06
4.35065e+06
4.35114e+06
4.35126e+06
4.35131e+06
4.35126e+06
4.35132e+06
4.3514e+06
4.35196e+06
4.35219e+06
4.35357e+06
4.35385e+06
4.35627e+06
4.33351e+06
4.33868e+06
4.33957e+06
4.34343e+06
4.34471e+06
4.34727e+06
4.34836e+06
4.34973e+06
4.3503e+06
4.35079e+06
4.35092e+06
4.35096e+06
4.35092e+06
4.35098e+06
4.35106e+06
4.35162e+06
4.35185e+06
4.35324e+06
4.35352e+06
4.35595e+06
4.33317e+06
4.33833e+06
4.33924e+06
4.34308e+06
4.34439e+06
4.34695e+06
4.34805e+06
4.34942e+06
4.35e+06
4.35048e+06
4.35061e+06
4.35066e+06
4.35062e+06
4.35067e+06
4.35075e+06
4.35132e+06
4.35154e+06
4.35294e+06
4.35323e+06
4.35567e+06
4.33289e+06
4.33804e+06
4.33897e+06
4.34279e+06
4.34412e+06
4.34666e+06
4.34779e+06
4.34914e+06
4.34973e+06
4.35021e+06
4.35034e+06
4.35039e+06
4.35035e+06
4.3504e+06
4.35047e+06
4.35104e+06
4.35127e+06
4.35268e+06
4.35297e+06
4.35542e+06
4.33267e+06
4.33781e+06
4.33875e+06
4.34256e+06
4.3439e+06
4.34643e+06
4.34756e+06
4.34891e+06
4.3495e+06
4.34998e+06
4.35011e+06
4.35015e+06
4.35011e+06
4.35016e+06
4.35023e+06
4.3508e+06
4.35103e+06
4.35245e+06
4.35273e+06
4.35519e+06
4.33252e+06
4.33764e+06
4.33859e+06
4.34238e+06
4.34373e+06
4.34624e+06
4.34738e+06
4.34871e+06
4.34931e+06
4.34978e+06
4.34991e+06
4.34995e+06
4.3499e+06
4.34995e+06
4.35002e+06
4.35059e+06
4.35082e+06
4.35224e+06
4.35253e+06
4.355e+06
4.33244e+06
4.33755e+06
4.3385e+06
4.34226e+06
4.34362e+06
4.34609e+06
4.34724e+06
4.34855e+06
4.34915e+06
4.3496e+06
4.34974e+06
4.34977e+06
4.34972e+06
4.34977e+06
4.34984e+06
4.35041e+06
4.35064e+06
4.35206e+06
4.35236e+06
4.35483e+06
4.33244e+06
4.33753e+06
4.33849e+06
4.34221e+06
4.34357e+06
4.346e+06
4.34714e+06
4.34842e+06
4.34902e+06
4.34946e+06
4.3496e+06
4.34962e+06
4.34957e+06
4.34962e+06
4.34969e+06
4.35026e+06
4.35049e+06
4.35192e+06
4.35222e+06
4.3547e+06
4.33252e+06
4.33759e+06
4.33854e+06
4.34222e+06
4.34357e+06
4.34595e+06
4.34709e+06
4.34833e+06
4.34892e+06
4.34935e+06
4.34948e+06
4.34951e+06
4.34946e+06
4.34951e+06
4.34957e+06
4.35014e+06
4.35037e+06
4.35181e+06
4.35211e+06
4.3546e+06
4.33267e+06
4.33771e+06
4.33865e+06
4.34228e+06
4.34362e+06
4.34595e+06
4.34707e+06
4.34828e+06
4.34886e+06
4.34927e+06
4.34941e+06
4.34944e+06
4.3494e+06
4.34944e+06
4.3495e+06
4.35006e+06
4.3503e+06
4.35173e+06
4.35204e+06
4.35454e+06
4.3329e+06
4.3379e+06
4.33884e+06
4.3424e+06
4.34373e+06
4.346e+06
4.3471e+06
4.34827e+06
4.34884e+06
4.34923e+06
4.34937e+06
4.3494e+06
4.34936e+06
4.34939e+06
4.34945e+06
4.35002e+06
4.35026e+06
4.3517e+06
4.35202e+06
4.35452e+06
4.3332e+06