/*--------------------------------*- C++ -*----------------------------------*\
  =========                 |
  \\      /  F ield         | OpenFOAM: The Open Source CFD Toolbox
   \\    /   O peration     | Website:  https://openfoam.org
    \\  /    A nd           | Version:  8
     \\/     M anipulation  |
\*---------------------------------------------------------------------------*/
FoamFile
{
    version     2.0;
    format      ascii;
    class       volScalarField;
    location    "600";
    object      p_rgh;
}
// * * * * * * * * * * * * * * * * * * * * * * * * * * * * * * * * * * * * * //

dimensions      [1 -1 -2 0 0 0 0];

internalField   nonuniform List<scalar> 
8400
(
19190.8
69373.8
119087
175006
239616
314640
401076
499334
609411
731001
863479
1.00602e+06
1.15764e+06
1.31727e+06
1.48365e+06
1.65548e+06
1.83141e+06
2.00999e+06
2.18983e+06
2.3695e+06
2.54764e+06
2.72286e+06
2.8938e+06
3.0592e+06
3.21778e+06
3.36843e+06
3.51002e+06
3.64145e+06
3.76186e+06
3.87055e+06
3.96704e+06
4.05116e+06
4.1231e+06
4.18334e+06
4.23265e+06
4.27212e+06
4.30298e+06
4.32647e+06
4.34382e+06
4.35616e+06
4.36454e+06
4.36989e+06
4.37297e+06
4.37425e+06
4.37408e+06
4.37304e+06
4.37184e+06
4.37072e+06
4.3694e+06
4.36791e+06
25705.3
67216.2
112482
165477
228022
301442
386544
483632
592647
713247
844827
986505
1.13729e+06
1.2961e+06
1.46163e+06
1.63257e+06
1.80756e+06
1.98523e+06
2.16416e+06
2.34299e+06
2.52041e+06
2.69504e+06
2.86561e+06
3.03094e+06
3.18975e+06
3.34092e+06
3.48338e+06
3.6161e+06
3.73822e+06
3.84902e+06
3.94803e+06
4.03498e+06
4.10993e+06
4.17326e+06
4.2256e+06
4.2678e+06
4.30098e+06
4.3262e+06
4.3446e+06
4.35729e+06
4.36547e+06
4.3704e+06
4.37308e+06
4.37421e+06
4.37415e+06
4.37321e+06
4.37183e+06
4.37042e+06
4.36888e+06
4.36701e+06
33251.6
64287.4
104002
153086
212772
284011
367379
463122
571114
690917
821906
963170
1.11359e+06
1.27203e+06
1.43718e+06
1.60769e+06
1.78217e+06
1.95925e+06
2.13754e+06
2.31574e+06
2.49254e+06
2.66662e+06
2.83678e+06
3.00186e+06
3.16066e+06
3.3121e+06
3.45524e+06
3.58909e+06
3.71282e+06
3.82577e+06
3.92742e+06
4.01747e+06
4.09584e+06
4.16277e+06
4.21879e+06
4.26451e+06
4.301e+06
4.32907e+06
4.34959e+06
4.36354e+06
4.37196e+06
4.37621e+06
4.37774e+06
4.37772e+06
4.3767e+06
4.375e+06
4.37299e+06
4.37119e+06
4.36943e+06
4.36732e+06
35087.5
56607.9
90742.4
135370
191540
259969
341118
435160
541895
660794
791119
931880
1.08189e+06
1.23992e+06
1.40462e+06
1.5746e+06
1.74843e+06
1.92475e+06
2.10216e+06
2.27937e+06
2.45513e+06
2.62819e+06
2.79739e+06
2.96159e+06
3.11974e+06
3.27091e+06
3.41421e+06
3.5487e+06
3.67358e+06
3.78832e+06
3.89244e+06
3.98561e+06
4.06762e+06
4.1386e+06
4.19877e+06
4.24844e+06
4.28875e+06
4.32071e+06
4.34465e+06
4.36113e+06
4.3713e+06
4.37676e+06
4.37944e+06
4.38028e+06
4.37922e+06
4.37641e+06
4.37307e+06
4.37041e+06
4.36816e+06
4.3658e+06
30754.5
46406.9
76060.9
116587
169245
234844
313807
406212
511803
629936
759718
900096
1.04985e+06
1.20763e+06
1.37202e+06
1.54157e+06
1.71488e+06
1.8905e+06
2.067e+06
2.24315e+06
2.41776e+06
2.58961e+06
2.75754e+06
2.92046e+06
3.0774e+06
3.22754e+06
3.37009e+06
3.50416e+06
3.62896e+06
3.74422e+06
3.84956e+06
3.94451e+06
4.02895e+06
4.10331e+06
4.16762e+06
4.22176e+06
4.26623e+06
4.30195e+06
4.32957e+06
4.34977e+06
4.3634e+06
4.37175e+06
4.37647e+06
4.3783e+06
4.37728e+06
4.37411e+06
4.37114e+06
4.36917e+06
4.36737e+06
4.36532e+06
20559.7
33343.6
59240.8
96051.8
145520
208573
285637
376671
481297
598780
728115
868124
1.01754e+06
1.17494e+06
1.33899e+06
1.50812e+06
1.68082e+06
1.85566e+06
2.0313e+06
2.20639e+06
2.37982e+06
2.55049e+06
2.71719e+06
2.8788e+06
3.03434e+06
3.18305e+06
3.32433e+06
3.45723e+06
3.58098e+06
3.69561e+06
3.80095e+06
3.89633e+06
3.98133e+06
4.05639e+06
4.12164e+06
4.17739e+06
4.22426e+06
4.26311e+06
4.2947e+06
4.31963e+06
4.33843e+06
4.35192e+06
4.36143e+06
4.36714e+06
4.36885e+06
4.3686e+06
4.3682e+06
4.36762e+06
4.36657e+06
4.36485e+06
11310
22777.5
45154
78712
125543
186580
262193
352246
456214
573216
702173
841782
990691
1.14741e+06
1.3106e+06
1.4788e+06
1.65051e+06
1.82416e+06
1.99845e+06
2.17209e+06
2.34405e+06
2.5134e+06
2.67885e+06
2.83913e+06
2.99325e+06
3.14042e+06
3.28014e+06
3.41124e+06
3.53264e+06
3.64424e+06
3.74571e+06
3.83677e+06
3.91767e+06
3.98898e+06
4.05138e+06
4.10577e+06
4.15309e+06
4.19427e+06
4.23016e+06
4.26121e+06
4.28748e+06
4.30942e+06
4.32748e+06
4.3413e+06
4.35054e+06
4.35662e+06
4.36095e+06
4.36387e+06
4.36486e+06
4.36415e+06
6077.74
15893.5
35066.9
66168.5
111124
170770
245400
334830
438475
555321
684158
823575
972049
1.12804e+06
1.29011e+06
1.45691e+06
1.6271e+06
1.7992e+06
1.97193e+06
2.14392e+06
2.31414e+06
2.48183e+06
2.64588e+06
2.80472e+06
2.95713e+06
3.1019e+06
3.23801e+06
3.36431e+06
3.47979e+06
3.58415e+06
3.67729e+06
3.75955e+06
3.83173e+06
3.89494e+06
3.95064e+06
4.00037e+06
4.04568e+06
4.08789e+06
4.12794e+06
4.1661e+06
4.20246e+06
4.23697e+06
4.26853e+06
4.29588e+06
4.31808e+06
4.33538e+06
4.3483e+06
4.35708e+06
4.36192e+06
4.36329e+06
3909.67
11958
29729
59841.2
103818
162507
236293
325078
428359
545113
673998
813522
961898
1.11749e+06
1.27875e+06
1.44439e+06
1.61322e+06
1.78387e+06
1.95497e+06
2.12526e+06
2.29363e+06
2.45918e+06
2.62071e+06
2.77675e+06
2.9257e+06
3.06602e+06
3.19619e+06
3.31492e+06
3.42116e+06
3.5145e+06
3.59515e+06
3.66397e+06
3.72253e+06
3.77284e+06
3.81727e+06
3.85834e+06
3.89842e+06
3.93951e+06
3.98294e+06
4.02915e+06
4.07815e+06
4.12928e+06
4.18011e+06
4.22746e+06
4.26873e+06
4.30274e+06
4.32918e+06
4.34792e+06
4.35879e+06
4.36318e+06
-835.639
7104.15
27022
58590.5
103120
161720
235107
323472
426448
543195
672330
812366
961501
1.11779e+06
1.27954e+06
1.44528e+06
1.61359e+06
1.78298e+06
1.95213e+06
2.11995e+06
2.28541e+06
2.44761e+06
2.60521e+06
2.7567e+06
2.90027e+06
3.03405e+06
3.15608e+06
3.26462e+06
3.3585e+06
3.43724e+06
3.50134e+06
3.55226e+06
3.59248e+06
3.6251e+06
3.65364e+06
3.68186e+06
3.71327e+06
3.75069e+06
3.79614e+06
3.85069e+06
3.91456e+06
3.98633e+06
4.06169e+06
4.13504e+06
4.20147e+06
4.25772e+06
4.30233e+06
4.33491e+06
4.35535e+06
4.36474e+06
-8860.75
-46.9738
24107.5
58853.8
105643
166005
240892
330710
435262
553908
685392
828005
979866
1.13886e+06
1.30282e+06
1.46968e+06
1.63762e+06
1.80507e+06
1.97082e+06
2.13406e+06
2.29414e+06
2.45035e+06
2.60157e+06
2.7462e+06
2.88224e+06
3.00738e+06
3.11912e+06
3.21519e+06
3.29413e+06
3.3555e+06
3.39999e+06
3.42978e+06
3.44844e+06
3.46026e+06
3.46989e+06
3.48253e+06
3.503e+06
3.53464e+06
3.58019e+06
3.64227e+06
3.72158e+06
3.81597e+06
3.91922e+06
4.02296e+06
4.11918e+06
4.20202e+06
4.26851e+06
4.31784e+06
4.35022e+06
4.36718e+06
-17078.7
-5414.32
24920.5
64450.7
115469
180111
259257
353232
462047
585013
721030
868414
1.02501e+06
1.18829e+06
1.35547e+06
1.52384e+06
1.69097e+06
1.85499e+06
2.01491e+06
2.17048e+06
2.3218e+06
2.46866e+06
2.61033e+06
2.74521e+06
2.87117e+06
2.98554e+06
3.08522e+06
3.16731e+06
3.23001e+06
3.27298e+06
3.29714e+06
3.30569e+06
3.30353e+06
3.29574e+06
3.28766e+06
3.28606e+06
3.29711e+06
3.3231e+06
3.36626e+06
3.43247e+06
3.52389e+06
3.63782e+06
3.76721e+06
3.90138e+06
4.0291e+06
4.14107e+06
4.23188e+06
4.29971e+06
4.34515e+06
4.37072e+06
-12939
4767.46
41409
85717.1
141196
210912
295604
395229
509746
638778
781296
935521
1.09908e+06
1.26888e+06
1.44124e+06
1.61232e+06
1.77853e+06
1.93736e+06
2.08815e+06
2.23176e+06
2.36969e+06
2.50283e+06
2.63088e+06
2.75236e+06
2.86516e+06
2.96649e+06
3.05255e+06
3.11981e+06
3.16659e+06
3.19306e+06
3.19998e+06
3.19237e+06
3.17675e+06
3.15803e+06
3.14085e+06
3.13364e+06
3.14425e+06
3.17061e+06
3.20914e+06
3.27284e+06
3.36858e+06
3.49224e+06
3.63732e+06
3.79218e+06
3.94459e+06
4.0821e+06
4.19633e+06
4.28283e+06
4.34181e+06
4.37641e+06
-11467.8
25094.5
70599.3
119526
179743
255511
347065
454055
576307
713620
865093
1.02904e+06
1.2028e+06
1.38255e+06
1.56332e+06
1.73938e+06
1.90501e+06
2.05645e+06
2.1935e+06
2.31917e+06
2.43764e+06
2.55163e+06
2.66104e+06
2.76443e+06
2.86013e+06
2.94581e+06
3.01654e+06
3.06871e+06
3.10171e+06
3.11733e+06
3.11462e+06
3.10201e+06
3.08783e+06
3.07439e+06
3.06338e+06
3.06303e+06
3.08292e+06
3.11854e+06
3.16356e+06
3.22488e+06
3.32211e+06
3.44863e+06
3.59586e+06
3.75478e+06
3.91397e+06
4.0607e+06
4.18533e+06
4.28154e+06
4.34861e+06
4.38907e+06
14858.9
73962.9
127101
178931
242847
324252
422766
537371
667876
814323
976145
1.1519e+06
1.3388e+06
1.53224e+06
1.7256e+06
1.91007e+06
2.07571e+06
2.21634e+06
2.33284e+06
2.43255e+06
2.52454e+06
2.61411e+06
2.69948e+06
2.77927e+06
2.85329e+06
2.921e+06
2.97472e+06
3.01236e+06
3.03579e+06
3.05008e+06
3.04954e+06
3.04375e+06
3.04207e+06
3.04164e+06
3.04457e+06
3.05423e+06
3.07632e+06
3.11475e+06
3.17012e+06
3.24538e+06
3.34747e+06
3.4751e+06
3.62095e+06
3.77739e+06
3.93424e+06
4.08006e+06
4.2047e+06
4.30222e+06
4.37142e+06
4.41372e+06
42202.4
143811
210708
266717
334677
421246
525708
646701
784067
938303
1.10975e+06
1.2976e+06
1.49936e+06
1.71004e+06
1.92125e+06
2.11982e+06
2.28704e+06
2.41272e+06
2.50027e+06
2.56553e+06
2.6259e+06
2.6896e+06
2.74762e+06
2.80012e+06
2.85051e+06
2.90115e+06
2.93981e+06
2.96764e+06
2.98848e+06
3.00861e+06
3.0205e+06
3.0227e+06
3.02762e+06
3.03524e+06
3.04889e+06
3.07253e+06
3.10608e+06
3.15359e+06
3.21789e+06
3.29889e+06
3.40117e+06
3.52548e+06
3.66648e+06
3.81775e+06
3.97019e+06
4.11286e+06
4.23567e+06
4.33279e+06
4.40209e+06
4.44445e+06
82132.7
222384
299856
358551
430133
521779
632141
759224
901781
1.06079e+06
1.23797e+06
1.43381e+06
1.64731e+06
1.87445e+06
2.10656e+06
2.32629e+06
2.49653e+06
2.60296e+06
2.65495e+06
2.68208e+06
2.71333e+06
2.75888e+06
2.79499e+06
2.82476e+06
2.85964e+06
2.9002e+06
2.93582e+06
2.96027e+06
2.97591e+06
2.98961e+06
3.00804e+06
3.02078e+06
3.03353e+06
3.04986e+06
3.06835e+06
3.09358e+06
3.12964e+06
3.17965e+06
3.24574e+06
3.32946e+06
3.43355e+06
3.55767e+06
3.69802e+06
3.84869e+06
4.0012e+06
4.14528e+06
4.27104e+06
4.3715e+06
4.44326e+06
4.48637e+06
133743
338253
437714
504444
578472
668552
775884
898357
1.03068e+06
1.17551e+06
1.33755e+06
1.51918e+06
1.72315e+06
1.9483e+06
2.18935e+06
2.42955e+06
2.59943e+06
2.68382e+06
2.70699e+06
2.70744e+06
2.7249e+06
2.76237e+06
2.8017e+06
2.82729e+06
2.85588e+06
2.88222e+06
2.91377e+06
2.94194e+06
2.96435e+06
2.98605e+06
3.00656e+06
3.02321e+06
3.03982e+06
3.05873e+06
3.08125e+06
3.11102e+06
3.15156e+06
3.20606e+06
3.27677e+06
3.36535e+06
3.4734e+06
3.60048e+06
3.7434e+06
3.89633e+06
4.05114e+06
4.19807e+06
4.32726e+06
4.43084e+06
4.50413e+06
4.54608e+06
209738
493025
649164
751142
831912
909665
1.00236e+06
1.10931e+06
1.21336e+06
1.32437e+06
1.45128e+06
1.59687e+06
1.76916e+06
1.96925e+06
2.1952e+06
2.42952e+06
2.61067e+06
2.70848e+06
2.73649e+06
2.72193e+06
2.72173e+06
2.73785e+06
2.77323e+06
2.80503e+06
2.83903e+06
2.8781e+06
2.91194e+06
2.9445e+06
2.96926e+06
2.9899e+06
3.0111e+06
3.02918e+06
3.04719e+06
3.06909e+06
3.0958e+06
3.12984e+06
3.17486e+06
3.23401e+06
3.30933e+06
3.40268e+06
3.51527e+06
3.64632e+06
3.79281e+06
3.94898e+06
4.10672e+06
4.2565e+06
4.38866e+06
4.49509e+06
4.56999e+06
4.61054e+06
178464
416223
573944
677803
759314
831087
924890
1.04255e+06
1.15769e+06
1.28121e+06
1.41821e+06
1.56711e+06
1.73443e+06
1.92162e+06
2.12999e+06
2.34885e+06
2.53445e+06
2.64398e+06
2.70098e+06
2.72058e+06
2.73785e+06
2.76191e+06
2.79175e+06
2.82494e+06
2.85442e+06
2.88666e+06
2.91667e+06
2.94435e+06
2.96933e+06
2.99049e+06
3.01103e+06
3.03172e+06
3.053e+06
3.07751e+06
3.10779e+06
3.14609e+06
3.19505e+06
3.25801e+06
3.33776e+06
3.43609e+06
3.55376e+06
3.68983e+06
3.84113e+06
4.00169e+06
4.16327e+06
4.3161e+06
4.45078e+06
4.55918e+06
4.63422e+06
4.67119e+06
4.45583e+06
4.45532e+06
4.45506e+06
4.45497e+06
4.45491e+06
4.45487e+06
4.45484e+06
4.45482e+06
4.4548e+06
4.45479e+06
4.45478e+06
4.45477e+06
4.45476e+06
4.45476e+06
4.45476e+06
4.45476e+06
4.45476e+06
4.45476e+06
4.45476e+06
4.45477e+06
4.45477e+06
4.45477e+06
4.45477e+06
4.45476e+06
4.45476e+06
4.45475e+06
4.45474e+06
4.45472e+06
4.45471e+06
4.45469e+06
4.45468e+06
4.45467e+06
4.45465e+06
4.45464e+06
4.45464e+06
4.45463e+06
4.45462e+06
4.45462e+06
4.45461e+06
4.4546e+06
4.45459e+06
4.45457e+06
4.45454e+06
4.4545e+06
4.45445e+06
4.45438e+06
4.45431e+06
4.45422e+06
4.4541e+06
4.45397e+06
4.45423e+06
4.45452e+06
4.45461e+06
4.45464e+06
4.45467e+06
4.45469e+06
4.4547e+06
4.4547e+06
4.45471e+06
4.45471e+06
4.45471e+06
4.45471e+06
4.45471e+06
4.45471e+06
4.45471e+06
4.45472e+06
4.45472e+06
4.45473e+06
4.45473e+06
4.45474e+06
4.45474e+06
4.45475e+06
4.45475e+06
4.45474e+06
4.45474e+06
4.45473e+06
4.45472e+06
4.45471e+06
4.4547e+06
4.45468e+06
4.45467e+06
4.45466e+06
4.45464e+06
4.45464e+06
4.45463e+06
4.45462e+06
4.45462e+06
4.45461e+06
4.45461e+06
4.4546e+06
4.45458e+06
4.45456e+06
4.45454e+06
4.4545e+06
4.45445e+06
4.45439e+06
4.45431e+06
4.45423e+06
4.45413e+06
4.45401e+06
4.45469e+06
4.45483e+06
4.4549e+06
4.4549e+06
4.45489e+06
4.45488e+06
4.45486e+06
4.45485e+06
4.45483e+06
4.45482e+06
4.4548e+06
4.45479e+06
4.45479e+06
4.45478e+06
4.45477e+06
4.45477e+06
4.45477e+06
4.45477e+06
4.45478e+06
4.45478e+06
4.45478e+06
4.45478e+06
4.45478e+06
4.45477e+06
4.45477e+06
4.45476e+06
4.45474e+06
4.45473e+06
4.45472e+06
4.4547e+06
4.45469e+06
4.45467e+06
4.45466e+06
4.45465e+06
4.45464e+06
4.45464e+06
4.45463e+06
4.45463e+06
4.45462e+06
4.45462e+06
4.4546e+06
4.45458e+06
4.45456e+06
4.45452e+06
4.45447e+06
4.45442e+06
4.45435e+06
4.45427e+06
4.45418e+06
4.45408e+06
4.45471e+06
4.45474e+06
4.45475e+06
4.45474e+06
4.45473e+06
4.45473e+06
4.45472e+06
4.45472e+06
4.45472e+06
4.45471e+06
4.45471e+06
4.45471e+06
4.45471e+06
4.45471e+06
4.45471e+06
4.45471e+06
4.45472e+06
4.45472e+06
4.45473e+06
4.45473e+06
4.45474e+06
4.45474e+06
4.45474e+06
4.45474e+06
4.45473e+06
4.45473e+06
4.45472e+06
4.45471e+06
4.45469e+06
4.45468e+06
4.45467e+06
4.45466e+06
4.45465e+06
4.45464e+06
4.45463e+06
4.45463e+06
4.45462e+06
4.45462e+06
4.45462e+06
4.45461e+06
4.4546e+06
4.45458e+06
4.45456e+06
4.45453e+06
4.45448e+06
4.45443e+06
4.45437e+06
4.45429e+06
4.45422e+06
4.45413e+06
4.45475e+06
4.45476e+06
4.45478e+06
4.45479e+06
4.4548e+06
4.4548e+06
4.4548e+06
4.4548e+06
4.4548e+06
4.45479e+06
4.45479e+06
4.45478e+06
4.45478e+06
4.45477e+06
4.45477e+06
4.45477e+06
4.45477e+06
4.45477e+06
4.45477e+06
4.45478e+06
4.45478e+06
4.45478e+06
4.45478e+06
4.45477e+06
4.45477e+06
4.45476e+06
4.45475e+06
4.45474e+06
4.45472e+06
4.45471e+06
4.4547e+06
4.45468e+06
4.45467e+06
4.45466e+06
4.45466e+06
4.45465e+06
4.45465e+06
4.45465e+06
4.45464e+06
4.45464e+06
4.45463e+06
4.45461e+06
4.45459e+06
4.45456e+06
4.45452e+06
4.45447e+06
4.45442e+06
4.45435e+06
4.45428e+06
4.45421e+06
4.45476e+06
4.45476e+06
4.45477e+06
4.45477e+06
4.45477e+06
4.45477e+06
4.45476e+06
4.45476e+06
4.45475e+06
4.45475e+06
4.45474e+06
4.45473e+06
4.45473e+06
4.45473e+06
4.45473e+06
4.45473e+06
4.45473e+06
4.45473e+06
4.45473e+06
4.45474e+06
4.45474e+06
4.45474e+06
4.45474e+06
4.45474e+06
4.45474e+06
4.45473e+06
4.45472e+06
4.45471e+06
4.4547e+06
4.45469e+06
4.45468e+06
4.45467e+06
4.45466e+06
4.45465e+06
4.45464e+06
4.45464e+06
4.45464e+06
4.45464e+06
4.45464e+06
4.45464e+06
4.45463e+06
4.45462e+06
4.4546e+06
4.45457e+06
4.45454e+06
4.4545e+06
4.45445e+06
4.45439e+06
4.45433e+06
4.45427e+06
4.45476e+06
4.45477e+06
4.45477e+06
4.45477e+06
4.45478e+06
4.45478e+06
4.45478e+06
4.45478e+06
4.45478e+06
4.45477e+06
4.45477e+06
4.45477e+06
4.45476e+06
4.45476e+06
4.45476e+06
4.45476e+06
4.45476e+06
4.45476e+06
4.45476e+06
4.45476e+06
4.45477e+06
4.45477e+06
4.45477e+06
4.45477e+06
4.45476e+06
4.45476e+06
4.45475e+06
4.45474e+06
4.45473e+06
4.45472e+06
4.4547e+06
4.45469e+06
4.45468e+06
4.45468e+06
4.45467e+06
4.45467e+06
4.45467e+06
4.45467e+06
4.45467e+06
4.45466e+06
4.45466e+06
4.45465e+06
4.45464e+06
4.45461e+06
4.45458e+06
4.45454e+06
4.4545e+06
4.45445e+06
4.4544e+06
4.45435e+06
4.45477e+06
4.45477e+06
4.45477e+06
4.45477e+06
4.45477e+06
4.45477e+06
4.45477e+06
4.45477e+06
4.45477e+06
4.45476e+06
4.45476e+06
4.45475e+06
4.45475e+06
4.45474e+06
4.45474e+06
4.45474e+06
4.45474e+06
4.45474e+06
4.45474e+06
4.45474e+06
4.45474e+06
4.45475e+06
4.45475e+06
4.45475e+06
4.45474e+06
4.45474e+06
4.45473e+06
4.45472e+06
4.45471e+06
4.4547e+06
4.45469e+06
4.45468e+06
4.45468e+06
4.45467e+06
4.45467e+06
4.45466e+06
4.45466e+06
4.45467e+06
4.45467e+06
4.45467e+06
4.45467e+06
4.45466e+06
4.45465e+06
4.45463e+06
4.45461e+06
4.45458e+06
4.45454e+06
4.4545e+06
4.45445e+06
4.45441e+06
4.45477e+06
4.45477e+06
4.45477e+06
4.45477e+06
4.45477e+06
4.45478e+06
4.45478e+06
4.45478e+06
4.45478e+06
4.45477e+06
4.45477e+06
4.45477e+06
4.45476e+06
4.45476e+06
4.45475e+06
4.45475e+06
4.45475e+06
4.45475e+06
4.45475e+06
4.45475e+06
4.45475e+06
4.45476e+06
4.45476e+06
4.45476e+06
4.45476e+06
4.45475e+06
4.45475e+06
4.45474e+06
4.45473e+06
4.45472e+06
4.45471e+06
4.4547e+06
4.45469e+06
4.45469e+06
4.45468e+06
4.45468e+06
4.45468e+06
4.45469e+06
4.45469e+06
4.45469e+06
4.45469e+06
4.45469e+06
4.45468e+06
4.45467e+06
4.45465e+06
4.45462e+06
4.45459e+06
4.45456e+06
4.45452e+06
4.45448e+06
4.45477e+06
4.45477e+06
4.45477e+06
4.45477e+06
4.45478e+06
4.45478e+06
4.45478e+06
4.45478e+06
4.45478e+06
4.45478e+06
4.45477e+06
4.45477e+06
4.45476e+06
4.45475e+06
4.45475e+06
4.45475e+06
4.45474e+06
4.45474e+06
4.45474e+06
4.45474e+06
4.45475e+06
4.45475e+06
4.45475e+06
4.45475e+06
4.45475e+06
4.45475e+06
4.45474e+06
4.45474e+06
4.45473e+06
4.45472e+06
4.45471e+06
4.4547e+06
4.4547e+06
4.45469e+06
4.45469e+06
4.45469e+06
4.45469e+06
4.4547e+06
4.4547e+06
4.45471e+06
4.45471e+06
4.45471e+06
4.45471e+06
4.4547e+06
4.45468e+06
4.45466e+06
4.45464e+06
4.45461e+06
4.45458e+06
4.45455e+06
4.45477e+06
4.45477e+06
4.45477e+06
4.45477e+06
4.45478e+06
4.45478e+06
4.45478e+06
4.45478e+06
4.45478e+06
4.45478e+06
4.45477e+06
4.45477e+06
4.45476e+06
4.45476e+06
4.45475e+06
4.45475e+06
4.45474e+06
4.45474e+06
4.45474e+06
4.45474e+06
4.45474e+06
4.45475e+06
4.45475e+06
4.45475e+06
4.45475e+06
4.45475e+06
4.45475e+06
4.45474e+06
4.45474e+06
4.45473e+06
4.45472e+06
4.45471e+06
4.45471e+06
4.4547e+06
4.4547e+06
4.4547e+06
4.4547e+06
4.45471e+06
4.45472e+06
4.45472e+06
4.45473e+06
4.45473e+06
4.45473e+06
4.45473e+06
4.45472e+06
4.4547e+06
4.45469e+06
4.45466e+06
4.45464e+06
4.45462e+06
4.45477e+06
4.45477e+06
4.45477e+06
4.45478e+06
4.45478e+06
4.45478e+06
4.45478e+06
4.45479e+06
4.45479e+06
4.45478e+06
4.45478e+06
4.45478e+06
4.45477e+06
4.45476e+06
4.45476e+06
4.45475e+06
4.45475e+06
4.45474e+06
4.45474e+06
4.45475e+06
4.45475e+06
4.45475e+06
4.45475e+06
4.45476e+06
4.45476e+06
4.45476e+06
4.45476e+06
4.45475e+06
4.45475e+06
4.45474e+06
4.45473e+06
4.45472e+06
4.45472e+06
4.45471e+06
4.45471e+06
4.45471e+06
4.45472e+06
4.45473e+06
4.45473e+06
4.45474e+06
4.45475e+06
4.45476e+06
4.45476e+06
4.45476e+06
4.45476e+06
4.45475e+06
4.45473e+06
4.45472e+06
4.4547e+06
4.45469e+06
4.45477e+06
4.45477e+06
4.45477e+06
4.45478e+06
4.45478e+06
4.45478e+06
4.45478e+06
4.45479e+06
4.45479e+06
4.45478e+06
4.45478e+06
4.45477e+06
4.45476e+06
4.45475e+06
4.45475e+06
4.45474e+06
4.45473e+06
4.45473e+06
4.45473e+06
4.45473e+06
4.45473e+06
4.45474e+06
4.45474e+06
4.45474e+06
4.45475e+06
4.45475e+06
4.45475e+06
4.45474e+06
4.45474e+06
4.45473e+06
4.45473e+06
4.45472e+06
4.45472e+06
4.45471e+06
4.45471e+06
4.45471e+06
4.45472e+06
4.45473e+06
4.45474e+06
4.45475e+06
4.45476e+06
4.45477e+06
4.45478e+06
4.45478e+06
4.45478e+06
4.45478e+06
4.45478e+06
4.45477e+06
4.45476e+06
4.45475e+06
4.45477e+06
4.45477e+06
4.45477e+06
4.45478e+06
4.45478e+06
4.45479e+06
4.45479e+06
4.4548e+06
4.4548e+06
4.4548e+06
4.45479e+06
4.45479e+06
4.45478e+06
4.45477e+06
4.45477e+06
4.45476e+06
4.45475e+06
4.45475e+06
4.45475e+06
4.45475e+06
4.45475e+06
4.45475e+06
4.45476e+06
4.45476e+06
4.45477e+06
4.45477e+06
4.45477e+06
4.45476e+06
4.45476e+06
4.45476e+06
4.45475e+06
4.45474e+06
4.45474e+06
4.45473e+06
4.45473e+06
4.45474e+06
4.45474e+06
4.45475e+06
4.45476e+06
4.45478e+06
4.45479e+06
4.4548e+06
4.45481e+06
4.45482e+06
4.45482e+06
4.45483e+06
4.45483e+06
4.45482e+06
4.45482e+06
4.45482e+06
4.45476e+06
4.45477e+06
4.45477e+06
4.45478e+06
4.45478e+06
4.45478e+06
4.45478e+06
4.45478e+06
4.45478e+06
4.45477e+06
4.45477e+06
4.45476e+06
4.45475e+06
4.45474e+06
4.45474e+06
4.45473e+06
4.45472e+06
4.45472e+06
4.45472e+06
4.45472e+06
4.45472e+06
4.45473e+06
4.45473e+06
4.45474e+06
4.45474e+06
4.45474e+06
4.45475e+06
4.45475e+06
4.45474e+06
4.45474e+06
4.45473e+06
4.45473e+06
4.45473e+06
4.45472e+06
4.45472e+06
4.45473e+06
4.45474e+06
4.45475e+06
4.45476e+06
4.45478e+06
4.45479e+06
4.45481e+06
4.45482e+06
4.45483e+06
4.45484e+06
4.45485e+06
4.45486e+06
4.45486e+06
4.45487e+06
4.45488e+06
4.45475e+06
4.45476e+06
4.45478e+06
4.4548e+06
4.45481e+06
4.45482e+06
4.45483e+06
4.45483e+06
4.45483e+06
4.45483e+06
4.45482e+06
4.45481e+06
4.4548e+06
4.45479e+06
4.45478e+06
4.45477e+06
4.45476e+06
4.45476e+06
4.45476e+06
4.45476e+06
4.45476e+06
4.45476e+06
4.45476e+06
4.45477e+06
4.45477e+06
4.45477e+06
4.45478e+06
4.45477e+06
4.45477e+06
4.45477e+06
4.45476e+06
4.45476e+06
4.45475e+06
4.45475e+06
4.45475e+06
4.45475e+06
4.45476e+06
4.45477e+06
4.45479e+06
4.4548e+06
4.45482e+06
4.45484e+06
4.45485e+06
4.45487e+06
4.45488e+06
4.45489e+06
4.4549e+06
4.45492e+06
4.45493e+06
4.45495e+06
4.45472e+06
4.45474e+06
4.45475e+06
4.45475e+06
4.45475e+06
4.45475e+06
4.45475e+06
4.45475e+06
4.45475e+06
4.45475e+06
4.45475e+06
4.45474e+06
4.45474e+06
4.45473e+06
4.45472e+06
4.45472e+06
4.45471e+06
4.45471e+06
4.45471e+06
4.45471e+06
4.45472e+06
4.45472e+06
4.45473e+06
4.45473e+06
4.45474e+06
4.45475e+06
4.45475e+06
4.45475e+06
4.45475e+06
4.45475e+06
4.45474e+06
4.45474e+06
4.45473e+06
4.45473e+06
4.45474e+06
4.45474e+06
4.45475e+06
4.45476e+06
4.45478e+06
4.4548e+06
4.45482e+06
4.45484e+06
4.45485e+06
4.45487e+06
4.45489e+06
4.45491e+06
4.45492e+06
4.45494e+06
4.45497e+06
4.45499e+06
4.4547e+06
4.45483e+06
4.45491e+06
4.45491e+06
4.4549e+06
4.4549e+06
4.45489e+06
4.45488e+06
4.45487e+06
4.45486e+06
4.45484e+06
4.45483e+06
4.45482e+06
4.4548e+06
4.45479e+06
4.45478e+06
4.45477e+06
4.45476e+06
4.45476e+06
4.45476e+06
4.45476e+06
4.45476e+06
4.45476e+06
4.45477e+06
4.45477e+06
4.45478e+06
4.45478e+06
4.45478e+06
4.45477e+06
4.45477e+06
4.45477e+06
4.45476e+06
4.45476e+06
4.45476e+06
4.45476e+06
4.45476e+06
4.45477e+06
4.45478e+06
4.4548e+06
4.45482e+06
4.45484e+06
4.45486e+06
4.45488e+06
4.4549e+06
4.45492e+06
4.45494e+06
4.45496e+06
4.45499e+06
4.45502e+06
4.45505e+06
4.45424e+06
4.45453e+06
4.45462e+06
4.45466e+06
4.45468e+06
4.45471e+06
4.45472e+06
4.45474e+06
4.45474e+06
4.45475e+06
4.45475e+06
4.45475e+06
4.45474e+06
4.45474e+06
4.45473e+06
4.45472e+06
4.45472e+06
4.45472e+06
4.45472e+06
4.45472e+06
4.45472e+06
4.45473e+06
4.45473e+06
4.45474e+06
4.45475e+06
4.45475e+06
4.45475e+06
4.45476e+06
4.45475e+06
4.45475e+06
4.45475e+06
4.45475e+06
4.45474e+06
4.45474e+06
4.45475e+06
4.45475e+06
4.45476e+06
4.45478e+06
4.45479e+06
4.45481e+06
4.45483e+06
4.45485e+06
4.45488e+06
4.4549e+06
4.45492e+06
4.45494e+06
4.45497e+06
4.455e+06
4.45504e+06
4.45509e+06
4.45584e+06
4.45533e+06
4.45507e+06
4.45498e+06
4.45493e+06
4.45489e+06
4.45487e+06
4.45485e+06
4.45484e+06
4.45483e+06
4.45482e+06
4.45481e+06
4.45479e+06
4.45478e+06
4.45477e+06
4.45476e+06
4.45475e+06
4.45475e+06
4.45475e+06
4.45475e+06
4.45475e+06
4.45475e+06
4.45476e+06
4.45476e+06
4.45477e+06
4.45477e+06
4.45477e+06
4.45477e+06
4.45477e+06
4.45477e+06
4.45476e+06
4.45476e+06
4.45476e+06
4.45476e+06
4.45476e+06
4.45476e+06
4.45477e+06
4.45479e+06
4.4548e+06
4.45482e+06
4.45484e+06
4.45487e+06
4.45489e+06
4.45491e+06
4.45493e+06
4.45496e+06
4.45499e+06
4.45502e+06
4.45506e+06
4.45513e+06
4.3458e+06
4.35094e+06
4.35154e+06
4.35548e+06
4.35644e+06
4.35908e+06
4.35995e+06
4.36137e+06
4.36186e+06
4.36238e+06
4.36251e+06
4.36258e+06
4.36257e+06
4.36262e+06
4.3627e+06
4.36318e+06
4.36338e+06
4.36459e+06
4.36477e+06
4.36678e+06
4.34495e+06
4.3501e+06
4.35071e+06
4.35466e+06
4.35563e+06
4.35827e+06
4.35915e+06
4.36057e+06
4.36106e+06
4.36158e+06
4.3617e+06
4.36176e+06
4.36175e+06
4.36181e+06
4.36189e+06
4.36238e+06
4.36258e+06
4.3638e+06
4.36402e+06
4.36611e+06
4.34412e+06
4.34928e+06
4.3499e+06
4.35385e+06
4.35484e+06
4.35748e+06
4.35837e+06
4.35979e+06
4.36028e+06
4.36079e+06
4.36091e+06
4.36097e+06
4.36096e+06
4.36101e+06
4.3611e+06
4.36159e+06
4.3618e+06
4.36305e+06
4.3633e+06
4.36546e+06
4.3433e+06
4.34847e+06
4.34912e+06
4.35307e+06
4.35407e+06
4.35672e+06
4.35761e+06
4.35903e+06
4.35952e+06
4.36004e+06
4.36015e+06
4.36021e+06
4.36019e+06
4.36025e+06
4.36033e+06
4.36084e+06
4.36105e+06
4.36231e+06
4.36257e+06
4.36477e+06
4.3425e+06
4.34769e+06
4.34835e+06
4.35231e+06
4.35333e+06
4.35598e+06
4.35688e+06
4.3583e+06
4.35879e+06
4.3593e+06
4.35941e+06
4.35947e+06
4.35945e+06
4.35951e+06
4.35959e+06
4.3601e+06
4.36033e+06
4.3616e+06
4.36186e+06
4.3641e+06
4.34173e+06
4.34692e+06
4.34761e+06
4.35157e+06
4.35261e+06
4.35526e+06
4.35618e+06
4.3576e+06
4.35808e+06
4.35859e+06
4.35869e+06
4.35875e+06
4.35874e+06
4.35879e+06
4.35888e+06
4.3594e+06
4.35962e+06
4.36091e+06
4.36118e+06
4.36344e+06
4.34098e+06
4.34619e+06
4.34689e+06
4.35086e+06
4.35192e+06
4.35458e+06
4.3555e+06
4.35692e+06
4.3574e+06
4.35791e+06
4.35801e+06
4.35806e+06
4.35805e+06
4.3581e+06
4.35819e+06
4.35872e+06
4.35895e+06
4.36025e+06
4.36052e+06
4.3628e+06
4.34027e+06
4.34549e+06
4.34621e+06
4.35018e+06
4.35126e+06
4.35392e+06
4.35485e+06
4.35626e+06
4.35675e+06
4.35725e+06
4.35735e+06
4.3574e+06
4.35738e+06
4.35744e+06
4.35753e+06
4.35806e+06
4.3583e+06
4.35962e+06
4.35989e+06
4.3622e+06
4.3396e+06
4.34483e+06
4.34557e+06
4.34954e+06
4.35064e+06
4.35328e+06
4.35422e+06
4.35564e+06
4.35612e+06
4.35662e+06
4.35672e+06
4.35677e+06
4.35675e+06
4.35681e+06
4.3569e+06
4.35744e+06
4.35768e+06
4.35901e+06
4.35929e+06
4.36162e+06
4.33896e+06
4.3442e+06
4.34497e+06
4.34893e+06
4.35004e+06
4.35268e+06
4.35363e+06
4.35504e+06
4.35553e+06
4.35602e+06
4.35612e+06
4.35617e+06
4.35614e+06
4.35621e+06
4.3563e+06
4.35685e+06
4.35709e+06
4.35844e+06
4.35872e+06
4.36107e+06
4.33837e+06
4.34362e+06
4.34439e+06
4.34835e+06
4.34948e+06
4.35211e+06
4.35307e+06
4.35447e+06
4.35496e+06
4.35546e+06
4.35555e+06
4.3556e+06
4.35557e+06
4.35564e+06
4.35573e+06
4.35629e+06
4.35653e+06
4.3579e+06
4.35818e+06
4.36055e+06
4.33781e+06
4.34306e+06
4.34386e+06
4.3478e+06
4.34894e+06
4.35157e+06
4.35253e+06
4.35393e+06
4.35443e+06
4.35492e+06
4.35502e+06
4.35506e+06
4.35504e+06
4.3551e+06
4.3552e+06
4.35577e+06
4.35601e+06
4.35739e+06
4.35768e+06
4.36007e+06
4.3373e+06
4.34254e+06
4.34335e+06
4.34728e+06
4.34844e+06
4.35106e+06
4.35204e+06
4.35343e+06
4.35393e+06
4.35442e+06
4.35452e+06
4.35457e+06
4.35454e+06
4.35461e+06
4.35471e+06
4.35528e+06
4.35553e+06
4.35692e+06
4.35721e+06
4.35962e+06
4.33681e+06
4.34206e+06
4.34288e+06
4.3468e+06
4.34798e+06
4.35058e+06
4.35158e+06
4.35296e+06
4.35347e+06
4.35396e+06
4.35406e+06
4.35411e+06
4.35409e+06
4.35415e+06
4.35425e+06
4.35483e+06
4.35508e+06
4.35648e+06
4.35677e+06
4.3592e+06
4.33637e+06
4.34161e+06
4.34245e+06
4.34636e+06
4.34756e+06
4.35015e+06
4.35116e+06
4.35254e+06
4.35305e+06
4.35354e+06
4.35364e+06
4.3537e+06
4.35367e+06
4.35374e+06
4.35384e+06
4.35442e+06
4.35467e+06
4.35608e+06
4.35637e+06
4.35881e+06
4.33597e+06
4.34121e+06
4.34207e+06
4.34596e+06
4.34718e+06
4.34976e+06
4.35078e+06
4.35215e+06
4.35268e+06
4.35316e+06
4.35327e+06
4.35332e+06
4.35329e+06
4.35336e+06
4.35346e+06
4.35405e+06
4.35429e+06
4.35571e+06
4.35601e+06
4.35847e+06
4.33561e+06
4.34085e+06
4.34172e+06
4.34561e+06
4.34684e+06
4.34941e+06
4.35044e+06
4.35181e+06
4.35234e+06
4.35282e+06
4.35293e+06
4.35299e+06
4.35296e+06
4.35303e+06
4.35312e+06
4.35371e+06
4.35396e+06
4.35539e+06
4.35569e+06
4.35816e+06
4.33531e+06
4.34053e+06
4.34142e+06
4.3453e+06
4.34655e+06
4.3491e+06
4.35015e+06
4.3515e+06
4.35204e+06
4.35252e+06
4.35264e+06
4.35269e+06
4.35266e+06
4.35273e+06
4.35283e+06
4.35342e+06
4.35367e+06
4.3551e+06
4.3554e+06
4.35788e+06
4.33505e+06
4.34027e+06
4.34118e+06
4.34503e+06
4.3463e+06
4.34884e+06
4.3499e+06
4.35124e+06
4.35179e+06
4.35226e+06
4.35238e+06
4.35244e+06
4.35241e+06
4.35248e+06
4.35257e+06
4.35317e+06
4.35341e+06
4.35485e+06
4.35516e+06
4.35765e+06
4.33485e+06
4.34006e+06
4.34098e+06
4.34482e+06
4.3461e+06
4.34862e+06
4.34969e+06
4.35102e+06
4.35157e+06
4.35204e+06
4.35217e+06
4.35222e+06
4.35219e+06
4.35227e+06
4.35236e+06
4.35295e+06
4.3532e+06
4.35465e+06
4.35495e+06
4.35746e+06
4.33471e+06
4.33991e+06
4.34084e+06
4.34465e+06
4.34594e+06
4.34844e+06
4.34952e+06
4.35084e+06
4.3514e+06
4.35187e+06
4.352e+06
4.35205e+06
4.35202e+06
4.35209e+06
4.35218e+06
4.35278e+06
4.35302e+06
4.35448e+06
4.35478e+06
4.3573e+06
4.33463e+06
4.33981e+06
4.34075e+06
4.34453e+06
4.34583e+06
4.34831e+06
4.34939e+06
4.3507e+06
4.35127e+06
4.35173e+06
4.35186e+06
4.35191e+06
4.35188e+06
4.35195e+06
4.35204e+06
4.35264e+06
4.35288e+06
4.35434e+06
4.35465e+06
4.35718e+06
4.3346e+06
4.33977e+06
4.34071e+06
4.34447e+06
4.34577e+06
4.34821e+06
4.34931e+06
4.35059e+06
4.35117e+06
4.35163e+06
4.35176e+06
4.35181e+06
4.35178e+06
4.35184e+06
4.35193e+06
4.35253e+06
4.35278e+06
4.35425e+06
4.35456e+06
4.35709e+06
4.33464e+06
4.33979e+06
4.34073e+06
4.34445e+06
4.34576e+06
4.34817e+06
4.34926e+06
4.35053e+06
4.35111e+06
4.35156e+06
4.3517e+06
4.35174e+06
4.35171e+06
4.35178e+06
4.35187e+06
4.35247e+06
4.35272e+06
4.35419e+06
4.35451e+06
4.35705e+06
4.33473e+06
4.33986e+06
4.3408e+06
4.34449e+06
4.34579e+06
4.34817e+06
4.34926e+06
4.3505e+06
4.35108e+06
4.35152e+06
4.35167e+06
4.35171e+06
4.35168e+06
4.35175e+06
4.35184e+06
4.35244e+06
4.35269e+06
4.35416e+06
4.35449e+06
4.35704e+06
4.33489e+06
4.33999e+06
4.34093e+06
4.34457e+06
4.34588e+06
4.34821e+06
4.3493e+06
4.35052e+06
4.3511e+06
4.35153e+06
4.35167e+06
4.35172e+06
4.35169e+06
4.35176e+06
4.35185e+06
4.35245e+06
4.3527e+06
4.35418e+06
4.35451e+06
4.35707e+06
4.3351e+06
4.34018e+06
4.34111e+06
4.3447e+06
4.34601e+06
4.3483e+06
4.34939e+06
4.35058e+06
4.35115e+06
4.35157e+06
4.35172e+06
4.35177e+06
4.35175e+06
4.35181e+06
4.35189e+06
4.35249e+06
4.35275e+06
4.35424e+06
4.35458e+06
4.35714e+06
4.33538e+06
4.34042e+06
4.34135e+06
4.3449e+06
4.3462e+06
4.34844e+06
4.34952e+06
4.35068e+06
4.35125e+06