/*--------------------------------*- C++ -*----------------------------------*\
  =========                 |
  \\      /  F ield         | OpenFOAM: The Open Source CFD Toolbox
   \\    /   O peration     | Website:  https://openfoam.org
    \\  /    A nd           | Version:  8
     \\/     M anipulation  |
\*---------------------------------------------------------------------------*/
FoamFile
{
    version     2.0;
    format      ascii;
    class       volScalarField;
    location    "600";
    object      T;
}
// * * * * * * * * * * * * * * * * * * * * * * * * * * * * * * * * * * * * * //

dimensions      [0 0 0 1 0 0 0];

internalField   nonuniform List<scalar> 
8400
(
302
301.99
301.976
301.962
301.946
301.929
301.909
301.886
301.86
301.832
301.8
301.764
301.725
301.682
301.635
301.584
301.529
301.471
301.41
301.346
301.28
301.213
301.144
301.076
301.008
300.942
300.879
300.819
300.763
300.712
300.668
300.63
300.599
300.577
300.564
300.561
300.569
300.591
300.626
300.678
300.747
300.836
300.946
301.077
301.225
301.384
301.542
301.689
301.82
301.935
301.676
301.636
301.6
301.564
301.528
301.49
301.452
301.413
301.373
301.331
301.289
301.245
301.2
301.153
301.104
301.053
301.001
300.947
300.892
300.836
300.778
300.721
300.664
300.608
300.553
300.501
300.451
300.405
300.363
300.325
300.292
300.263
300.24
300.222
300.21
300.203
300.203
300.213
300.235
300.274
300.334
300.42
300.53
300.664
300.82
300.991
301.164
301.327
301.481
301.623
301.333
301.283
301.248
301.211
301.175
301.138
301.101
301.063
301.026
300.987
300.947
300.906
300.864
300.821
300.776
300.73
300.683
300.635
300.586
300.538
300.49
300.443
300.397
300.354
300.314
300.277
300.243
300.213
300.187
300.165
300.147
300.133
300.122
300.114
300.109
300.105
300.104
300.104
300.109
300.124
300.162
300.233
300.338
300.47
300.631
300.795
300.951
301.101
301.247
301.386
301.014
300.971
300.947
300.919
300.89
300.86
300.829
300.796
300.762
300.726
300.689
300.65
300.61
300.568
300.526
300.484
300.442
300.401
300.361
300.322
300.286
300.253
300.222
300.195
300.171
300.151
300.134
300.12
300.11
300.102
300.097
300.093
300.091
300.091
300.091
300.092
300.093
300.094
300.094
300.095
300.096
300.096
300.097
300.273
300.517
300.686
300.818
300.951
301.082
301.211
300.713
300.681
300.663
300.64
300.616
300.589
300.561
300.531
300.499
300.467
300.434
300.4
300.367
300.334
300.303
300.272
300.243
300.217
300.192
300.171
300.151
300.135
300.121
300.11
300.101
300.095
300.091
300.088
300.087
300.086
300.087
300.088
300.089
300.091
300.092
300.093
300.094
300.095
300.096
300.097
300.098
300.098
300.098
300.117
300.239
300.421
300.581
300.747
300.912
301.06
300.403
300.382
300.368
300.351
300.332
300.313
300.293
300.273
300.252
300.233
300.213
300.195
300.177
300.161
300.146
300.133
300.121
300.111
300.103
300.096
300.09
300.086
300.083
300.082
300.081
300.082
300.083
300.084
300.086
300.088
300.089
300.091
300.092
300.093
300.094
300.095
300.096
300.096
300.097
300.097
300.097
300.098
300.097
300.1
300.128
300.197
300.336
300.519
300.714
300.895
300.144
300.138
300.133
300.128
300.122
300.117
300.111
300.106
300.101
300.096
300.092
300.088
300.085
300.082
300.079
300.077
300.076
300.075
300.074
300.074
300.074
300.075
300.076
300.078
300.079
300.081
300.084
300.085
300.088
300.09
300.091
300.093
300.094
300.095
300.096
300.096
300.097
300.097
300.097
300.096
300.096
300.095
300.095
300.095
300.1
300.122
300.17
300.278
300.485
300.701
300.019
300.024
300.029
300.033
300.036
300.04
300.043
300.046
300.048
300.051
300.053
300.055
300.057
300.058
300.06
300.062
300.064
300.066
300.067
300.069
300.071
300.073
300.075
300.077
300.079
300.081
300.084
300.086
300.089
300.091
300.094
300.096
300.097
300.098
300.098
300.098
300.098
300.097
300.096
300.095
300.093
300.092
300.091
300.089
300.09
300.095
300.111
300.151
300.252
300.477
299.998
300.003
300.008
300.013
300.017
300.021
300.024
300.028
300.031
300.035
300.038
300.041
300.044
300.047
300.051
300.054
300.057
300.06
300.063
300.066
300.068
300.071
300.074
300.077
300.079
300.083
300.086
300.089
300.092
300.095
300.097
300.099
300.1
300.101
300.101
300.1
300.099
300.097
300.095
300.092
300.089
300.087
300.084
300.082
300.081
300.081
300.085
300.1
300.141
300.249
300.007
300.009
300.01
300.011
300.012
300.013
300.015
300.018
300.02
300.023
300.027
300.03
300.034
300.038
300.043
300.047
300.052
300.056
300.06
300.064
300.068
300.072
300.076
300.079
300.082
300.086
300.089
300.092
300.095
300.098
300.1
300.102
300.103
300.103
300.103
300.101
300.099
300.096
300.092
300.087
300.083
300.08
300.077
300.074
300.072
300.071
300.071
300.076
300.092
300.141
300.011
300.013
300.012
300.011
300.011
300.011
300.011
300.012
300.014
300.016
300.02
300.024
300.028
300.033
300.038
300.044
300.05
300.056
300.061
300.067
300.072
300.076
300.08
300.083
300.086
300.089
300.091
300.094
300.096
300.099
300.101
300.102
300.103
300.103
300.102
300.1
300.097
300.093
300.088
300.082
300.077
300.073
300.07
300.067
300.065
300.063
300.062
300.062
300.068
300.089
300.014
300.015
300.013
300.011
300.01
300.009
300.009
300.009
300.011
300.013
300.016
300.02
300.025
300.031
300.037
300.043
300.05
300.057
300.064
300.07
300.076
300.08
300.083
300.086
300.088
300.089
300.091
300.092
300.093
300.095
300.097
300.098
300.099
300.1
300.101
300.1
300.098
300.094
300.089
300.083
300.079
300.075
300.07
300.067
300.064
300.062
300.059
300.058
300.059
300.068
300.014
300.014
300.012
300.01
300.008
300.007
300.006
300.007
300.008
300.01
300.013
300.017
300.022
300.028
300.035
300.042
300.05
300.058
300.066
300.073
300.078
300.082
300.084
300.085
300.085
300.085
300.084
300.084
300.085
300.087
300.09
300.094
300.098
300.104
300.111
300.115
300.116
300.113
300.107
300.102
300.097
300.091
300.085
300.079
300.074
300.07
300.066
300.063
300.061
300.062
300.012
300.011
300.008
300.005
300.003
300.001
300.001
300.001
300.002
300.005
300.008
300.012
300.017
300.023
300.03
300.037
300.046
300.054
300.063
300.07
300.075
300.078
300.079
300.078
300.076
300.075
300.074
300.075
300.078
300.084
300.094
300.107
300.122
300.142
300.163
300.175
300.175
300.167
300.17
300.158
300.147
300.134
300.121
300.108
300.097
300.089
300.081
300.075
300.07
300.067
300.003
299.998
299.993
299.99
299.989
299.989
299.989
299.991
299.993
299.996
299.999
300.003
300.008
300.013
300.019
300.025
300.033
300.042
300.051
300.059
300.065
300.067
300.067
300.066
300.066
300.068
300.073
300.082
300.097
300.117
300.153
300.186
300.226
300.277
300.322
300.329
300.321
300.299
300.275
300.249
300.227
300.204
300.181
300.159
300.138
300.12
300.105
300.093
300.083
300.077
299.993
299.987
299.983
299.981
299.98
299.98
299.98
299.981
299.983
299.985
299.988
299.992
299.995
299.997
300.001
300.005
300.012
300.021
300.032
300.043
300.05
300.056
300.062
300.068
300.079
300.095
300.124
300.161
300.204
300.261
300.368
300.424
300.472
300.501
300.511
300.507
300.489
300.462
300.429
300.392
300.355
300.316
300.278
300.241
300.205
300.173
300.145
300.121
300.103
300.091
299.976
299.956
299.943
299.937
299.936
299.939
299.946
299.955
299.964
299.973
299.981
299.986
299.988
299.988
299.987
299.988
299.995
300.006
300.024
300.044
300.061
300.078
300.112
300.143
300.186
300.237
300.347
300.445
300.527
300.582
300.631
300.663
300.681
300.688
300.686
300.672
300.649
300.618
300.58
300.536
300.489
300.439
300.388
300.337
300.287
300.24
300.197
300.16
300.131
300.109
299.959
299.937
299.932
299.94
299.956
299.976
299.997
300.016
300.03
300.039
300.041
300.038
300.03
300.019
300.007
300.002
300.028
300.052
300.092
300.132
300.17
300.21
300.369
300.467
300.577
300.655
300.722
300.773
300.81
300.842
300.864
300.879
300.886
300.885
300.876
300.857
300.829
300.792
300.747
300.695
300.637
300.575
300.51
300.445
300.379
300.316
300.257
300.206
300.163
300.131
299.947
299.949
299.978
300.019
300.059
300.094
300.118
300.125
300.119
300.104
300.085
300.067
300.051
300.038
300.025
299.993
300.175
300.301
300.415
300.486
300.58
300.666
300.749
300.816
300.874
300.929
300.978
301.019
301.055
301.086
301.112
301.132
301.144
301.147
301.141
301.124
301.095
301.054
301.002
300.939
300.865
300.783
300.696
300.604
300.513
300.424
300.341
300.268
300.207
300.16
299.551
299.445
299.383
299.279
299.207
299.209
299.284
299.398
299.56
299.77
300.004
300.245
300.478
300.685
300.852
300.969
301.034
301.056
301.066
301.082
301.111
301.149
301.19
301.229
301.267
301.303
301.338
301.372
301.403
301.43
301.452
301.469
301.478
301.478
301.469
301.449
301.417
301.372
301.314
301.243
301.158
301.06
300.951
300.834
300.713
300.592
300.477
300.372
300.283
300.213
303.149
303.148
303.146
303.145
303.144
303.142
303.141
303.14
303.139
303.138
303.136
303.135
303.134
303.133
303.132
303.131
303.13
303.128
303.127
303.126
303.125
303.124
303.123
303.122
303.121
303.12
303.119
303.118
303.117
303.116
303.115
303.114
303.113
303.113
303.112
303.111
303.11
303.109
303.108
303.107
303.106
303.105
303.105
303.104
303.103
303.102
303.102
303.101
303.101
303.1
303.15
303.15
303.15
303.15
303.15
303.15
303.15
303.15
303.15
303.15
303.149
303.149
303.149
303.149
303.149
303.149
303.149
303.149
303.148
303.148
303.148
303.148
303.148
303.148
303.148
303.147
303.147
303.147
303.147
303.147
303.147
303.146
303.146
303.146
303.146
303.146
303.146
303.146
303.145
303.145
303.145
303.145
303.145
303.145
303.145
303.144
303.144
303.144
303.144
303.144
303.15
303.15
303.15
303.15
303.15
303.15
303.15
303.15
303.15
303.15
303.15
303.15
303.15
303.15
303.15
303.15
303.15
303.15
303.15
303.15
303.15
303.15
303.15
303.15
303.15
303.15
303.15
303.15
303.15
303.15
303.15
303.15
303.15
303.15
303.15
303.15
303.15
303.15
303.15
303.15
303.15
303.15
303.15
303.15
303.15
303.15
303.15
303.15
303.15
303.15
303.15
303.15
303.15
303.15
303.15
303.15
303.15
303.15
303.15
303.15
303.15
303.15
303.15
303.15
303.15
303.15
303.15
303.15
303.15
303.15
303.15
303.15
303.15
303.15
303.15
303.15
303.15
303.15
303.15
303.15
303.15
303.15
303.15
303.15
303.15
303.15
303.15
303.15
303.15
303.15
303.15
303.15
303.15
303.15
303.15
303.15
303.15
303.15
303.15
303.15
303.15
303.15
303.15
303.15
303.15
303.15
303.15
303.15
303.15
303.15
303.15
303.15
303.15
303.15
303.15
303.15
303.15
303.15
303.15
303.15
303.15
303.15
303.15
303.15
303.15
303.15
303.15
303.15
303.15
303.15
303.15
303.15
303.15
303.15
303.15
303.15
303.15
303.15
303.15
303.15
303.15
303.15
303.15
303.15
303.15
303.15
303.15
303.15
303.15
303.15
303.15
303.15
303.15
303.15
303.15
303.15
303.15
303.15
303.15
303.15
303.15
303.15
303.15
303.15
303.15
303.15
303.15
303.15
303.15
303.15
303.15
303.15
303.15
303.15
303.15
303.15
303.15
303.15
303.15
303.15
303.15
303.15
303.15
303.15
303.15
303.15
303.15
303.15
303.15
303.15
303.15
303.15
303.15
303.15
303.15
303.15
303.15
303.15
303.15
303.15
303.15
303.15
303.15
303.15
303.15
303.15
303.15
303.15
303.15
303.15
303.15
303.15
303.15
303.15
303.15
303.15
303.15
303.15
303.15
303.15
303.15
303.15
303.15
303.15
303.15
303.15
303.15
303.15
303.15
303.15
303.15
303.15
303.15
303.15
303.15
303.15
303.15
303.15
303.15
303.15
303.15
303.15
303.15
303.15
303.15
303.15
303.15
303.15
303.15
303.15
303.15
303.15
303.15
303.15
303.15
303.15
303.15
303.15
303.15
303.15
303.15
303.15
303.15
303.15
303.15
303.15
303.15
303.15
303.15
303.15
303.15
303.15
303.15
303.15
303.15
303.15
303.15
303.15
303.15
303.15
303.15
303.15
303.15
303.15
303.15
303.15
303.15
303.15
303.15
303.15
303.15
303.15
303.15
303.15
303.15
303.15
303.15
303.15
303.15
303.15
303.15
303.15
303.15
303.15
303.15
303.15
303.15
303.15
303.15
303.15
303.15
303.15
303.15
303.15
303.15
303.15
303.15
303.15
303.15
303.15
303.15
303.15
303.15
303.15
303.15
303.15
303.15
303.15
303.15
303.15
303.15
303.15
303.15
303.15
303.15
303.15
303.15
303.15
303.15
303.15
303.15
303.15
303.15
303.15
303.15
303.15
303.15
303.15
303.15
303.15
303.15
303.15
303.15
303.15
303.15
303.15
303.15
303.15
303.15
303.15
303.15
303.15
303.15
303.15
303.15
303.15
303.15
303.15
303.15
303.15
303.15
303.15
303.15
303.15
303.15
303.15
303.15
303.15
303.15
303.15
303.15
303.15
303.15
303.15
303.15
303.15
303.15
303.15
303.15
303.15
303.15
303.15
303.15
303.15
303.15
303.15
303.15
303.15
303.15
303.15
303.15
303.15
303.15
303.15
303.15
303.15
303.15
303.15
303.15
303.15
303.15
303.15
303.15
303.15
303.15
303.15
303.15
303.15
303.15
303.15
303.15
303.15
303.15
303.15
303.15
303.15
303.15
303.15
303.15
303.15
303.15
303.15
303.15
303.15
303.15
303.15
303.15
303.15
303.15
303.15
303.15
303.15
303.15
303.15
303.15
303.15
303.15
303.15
303.15
303.15
303.15
303.15
303.15
303.15
303.15
303.15
303.15
303.15
303.15
303.15
303.15
303.15
303.15
303.15
303.15
303.15
303.15
303.15
303.15
303.15
303.15
303.15
303.15
303.15
303.15
303.15
303.15
303.15
303.15
303.15
303.15
303.15
303.15
303.15
303.15
303.15
303.15
303.15
303.15
303.15
303.15
303.15
303.15
303.15
303.15
303.15
303.15
303.15
303.15
303.15
303.15
303.15
303.15
303.15
303.15
303.15
303.15
303.15
303.15
303.15
303.15
303.15
303.15
303.15
303.15
303.15
303.15
303.15
303.15
303.15
303.15
303.15
303.15
303.15
303.15
303.15
303.15
303.15
303.15
303.15
303.15
303.15
303.15
303.15
303.15
303.15
303.15
303.15
303.15
303.15
303.15
303.15
303.15
303.15
303.15
303.15
303.15
303.15
303.15
303.15
303.15
303.15
303.15
303.15
303.15
303.15
303.15
303.15
303.15
303.15
303.15
303.15
303.15
303.15
303.15
303.15
303.15
303.15
303.15
303.15
303.15
303.15
303.15
303.15
303.15
303.15
303.15
303.15
303.15
303.15
303.15
303.15
303.15
303.15
303.15
303.15
303.15
303.15
303.15
303.15
303.15
303.15
303.15
303.15
303.15
303.15
303.15
303.15
303.15
303.15
303.15
303.15
303.15
303.15
303.15
303.15
303.15
303.15
303.15
303.15
303.15
303.15
303.15
303.15
303.15
303.15
303.15
303.15
303.15
303.15
303.15
303.15
303.15
303.15
303.15
303.15
303.15
303.15
303.15
303.15
303.15
303.15
303.15
303.15
303.15
303.15
303.15
303.15
303.15
303.15
303.15
303.15
303.15
303.15
303.15
303.15
303.15
303.15
303.15
303.15
303.15
303.15
303.15
303.15
303.15
303.15
303.15
303.15
303.15
303.15
303.15
303.15
303.15
303.15
303.15
303.15
303.15
303.15
303.15
303.15
303.15
303.15
303.15
303.15
303.15
303.15
303.15
303.15
303.15
303.15
303.15
303.15
303.15
303.15
303.15
303.15
303.15
303.15
303.15
303.15
303.15
303.15
303.15
303.15
303.15
303.15
303.15
303.15
303.15
303.15
303.15
303.15
303.15
303.15
303.15
303.15
303.15
303.15
303.15
303.15
303.15
303.15
303.15
303.15
303.15
303.15
303.15
303.15
303.15
303.15
303.15
303.15
303.15
303.15
303.15
303.15
303.15
303.15
303.15
303.15
303.15
303.15
303.15
303.15
303.15
303.15
303.15
303.15
303.15
303.15
303.15
303.15
303.15
303.15
303.15
303.15
303.15
303.15
303.15
303.15
303.15
303.15
303.15
303.15
303.15
303.15
303.15
303.15
303.15
303.15
303.15
303.15
303.15
303.15
303.15
303.15
303.15
303.15
303.15
303.15
303.15
303.15
303.15
303.15
303.15
303.15
303.15
303.15
303.15
303.15
303.15
303.15
303.15
303.15
303.15
303.15
303.15
303.15
303.15
303.15
303.15
303.149
303.149
303.149
303.149
303.149
303.149
303.149
303.149
303.149
303.15
303.15
303.15
303.15
303.15
303.15
303.15
303.15
303.15
303.15
303.149
303.149
303.149
303.149
303.149
303.149
303.149
303.149
303.148
303.148
303.148
303.148
303.148
303.148
303.148
303.147
303.147
303.147
303.147
303.147
303.147
303.146
303.146
303.146
303.146
303.146
303.145
303.145
303.145
303.145
303.145
303.144
303.144
303.144
303.143
303.143
303.143
303.142
303.142
303.141
303.149
303.148
303.146
303.145
303.144
303.142
303.141
303.14
303.139
303.138
303.136
303.135
303.134
303.133
303.132
303.131
303.13
303.128
303.127
303.126
303.125
303.124
303.123
303.122
303.121
303.12
303.119
303.118
303.117
303.116
303.115
303.114
303.113
303.112
303.112
303.111
303.11
303.109
303.108
303.107
303.106
303.105
303.104
303.104
303.103
303.102
303.101
303.1
303.099
303.098
303.067
302.929
302.572
302.033
301.39
300.756
300.22
299.834
299.597
299.473
299.412
299.395
299.474
299.725
300.017
300.39
300.614
300.72
301.011
301.357
303.063
302.913
302.535
301.971
301.311
300.67
300.141
299.769
299.551
299.442
299.389
299.373
299.449
299.702
299.998
300.37
300.591
300.7
300.986
301.311
303.06
302.896
302.495
301.908
301.231
300.587
300.065
299.711
299.511
299.416
299.371
299.356
299.424
299.677
299.978
300.351
300.574
300.685
300.968
301.278
303.055
302.879
302.455
301.844
301.152
300.506
299.995
299.658
299.476
299.396
299.358
299.343
299.403
299.653
299.959
300.332
300.556
300.671
300.95
301.244
303.051
302.86
302.413
301.78
301.075
300.428
299.929
299.611
299.448
299.381
299.348
299.334
299.385
299.63
299.94
300.314
300.539
300.657
300.931
301.21
303.046
302.84
302.371
301.716
300.999
300.355
299.869
299.57
299.425
299.371
299.343
299.328
299.371
299.609
299.921
300.295
300.523
300.643
300.913
301.175
303.041
302.82
302.327
301.651
300.925
300.285
299.814
299.534
299.408
299.365
299.341
299.325
299.36
299.59
299.903
300.277
300.506
300.63
300.894
301.139
303.036
302.799
302.283
301.588
300.853
300.22
299.765
299.505
299.396
299.363
299.341
299.323
299.351
299.572
299.885
300.259
300.49
300.616
300.875
301.103
303.031
302.777
302.239
301.525
300.784
300.159
299.722
299.481
299.388
299.364
299.343
299.324
299.344
299.555
299.868
300.242
300.474
300.603
300.855
301.067
303.025
302.755
302.194
301.462
300.718
300.102
299.683
299.462
299.384
299.368
299.346
299.325
299.339
299.54
299.851
300.225
300.459
300.59
300.836
301.031
303.019
302.732
302.149
301.402
300.655
300.051
299.65
299.447
299.383
299.373
299.351
299.326
299.335
299.526
299.836
300.209
300.444
300.577
300.816
300.995
303.013
302.709
302.104
301.342
300.596
300.003
299.621
299.437
299.385
299.38
299.356
299.328
299.332
299.513
299.82
300.193
300.429
300.565
300.797
300.959
303.007
302.685
302.059
301.285
300.539
299.96
299.597
299.43
299.39
299.388
299.361
299.329
299.33
299.501
299.806
300.177
300.415
300.552
300.777
300.923
303
302.662
302.015
301.229
300.486
299.921
299.577
299.427
299.397
299.397
299.367
299.33
299.328
299.491
299.792
300.162
300.401
300.54
300.757
300.886
302.994
302.638
301.972
301.175
300.437
299.886
299.561
299.426
299.405
299.407
299.372
299.33
299.327
299.481
299.779
300.148
300.388
300.528
300.737
300.851
302.987
302.614
301.929
301.123
300.391
299.855
299.548
299.427
299.414
299.416
299.377
299.33
299.326
299.472
299.766
300.134
300.375
300.517
300.717
300.815
302.98
302.59
301.888
301.074
300.348
299.828
299.538
299.431
299.425
299.426
299.382
299.329
299.324
299.463
299.754
300.12
300.363
300.506
300.697
300.78
302.974
302.567
301.848
301.028
300.309
299.805
299.531
299.437
299.436
299.436
299.387
299.328
299.323
299.456
299.742
300.107
300.351
300.495
300.678
300.746
302.967
302.544
301.809
300.984
300.273
299.785
299.527
299.444
299.448
299.446
299.391
299.327
299.321
299.448
299.731
300.095
300.339
300.484
300.658
300.712
302.961
302.522
301.772
300.944
300.242
299.768
299.526
299.453
299.46
299.456
299.396
299.326
299.32
299.442
299.721
300.083
300.328
300.474
300.639
300.679
302.954
302.5
301.738
300.906
300.214
299.755
299.527
299.463
299.472
299.465
299.401
299.326
299.318
299.436
299.711
300.072
300.318
300.464
300.62
300.646
302.948
302.48
301.705
300.873
300.189
299.745
299.53
299.474
299.485
299.474
299.406
299.326
299.317
299.43
299.702
300.061
300.309
300.455
300.6
300.614
302.942
302.46
301.676
300.843
300.169
299.739
299.536
299.486
299.497
299.483
299.411
299.328
299.315
299.425
299.693
300.052
300.299
300.445
300.582
300.583
302.936
302.442
301.649
300.817
300.153
299.735
299.543
299.499
299.51
299.492
299.417
299.332
299.314
299.42
299.685
300.042
300.291
300.437
300.563
300.553
302.931
302.426
301.625
300.795
300.14
299.735
299.552
299.513
299.523
299.501
299.423
299.337
299.313
299.415
299.678
300.034
300.283
300.428
300.545
300.524
302.926
302.412
301.605
300.777
300.132
299.737
299.562
299.526
299.536
299.511
299.43
299.342
299.311
299.411
299.671
300.026
300.276
300.42
300.527
300.496
302.922
302.4
301.589
300.764
300.127
299.742
299.574
299.541
299.549
299.521
299.438
299.349
299.309
299.407
299.664
300.018
300.269
300.412
300.509
300.469
302.919
302.391
301.576
300.755
300.126
299.749
299.587
299.556
299.562
299.532
299.447
299.357
299.309
299.403
299.658
300.012
300.263
300.405
300.492
300.443
302.916
302.383
301.567
300.751
300.129
299.759
299.601
299.571
299.576
299.543
299.456
299.366
299.314
299.401
299.653
300.006
300.258
300.397
300.475
300.418
302.914
302.378
301.563
300.751
300.136
299.771
299.616
299.587
299.589
299.554
299.467
299.375
299.322
299.4
299.649
300.001
300.253
300.391
300.459
300.394
302.913
302.376
301.563
300.756
300.146
299.786
299.633
299.603
299.604
299.566
299.477
299.386
299.335
299.401
299.647
299.997
300.249
300.384
300.443
300.371
302.913
302.377
301.567
300.765
300.161
299.803
299.651
299.619
299.618
299.579
299.489
299.397
299.349
299.404
299.646
299.993
300.246
300.378
300.427
300.349
302.913
302.38
301.575
300.78
300.179
299.823
299.669
299.636
299.633
299.592
299.502
299.41
299.364
299.41
299.646
299.991
300.243
300.372
300.411
300.328
302.915
302.386
301.588
300.798
300.2
299.844
299.689
299.653
299.648
299.607
299.516
299.424
299.38
299.417
299.649
299.99
300.241
300.366
300.396
300.308
302.917
302.395
301.605
300.821
300.225
299.867
299.709
299.671
299.664
299.622
299.532
299.44
299.396
299.427
299.653
299.989
300.239
300.36
300.381
300.289
302.92
302.406
301.626
300.849
300.254
299.893
299.73
299.688
299.68
299.638
299.549
299.457
299.412
299.439
299.659
299.99
300.238
300.354
300.367
300.271
302.924
302.42
301.651
300.88
300.285
299.92
299.753
299.707
299.696
299.655
299.568
299.476
299.431
299.454
299.668
299.993
300.238
300.349
300.353
300.254
302.929
302.436
301.68
300.916
300.32
299.949
299.776
299.725
299.713
299.673
299.588
299.497
299.452
299.471
299.678
299.996
300.237
300.343
300.339
300.238
302.935
302.455
301.712
300.954
300.357
299.98
299.799
299.744
299.731
299.692
299.609
299.52
299.475
299.491
299.69
300.001
300.237
300.337
300.325
300.223
302.942
302.475
301.747
300.997
300.397
300.012
299.824
299.763
299.749
299.712
299.633
299.545
299.5
299.514
299.705
300.006
300.238
300.332
300.312
300.209
302.949
302.498
301.786
301.042
300.439
300.046
299.849
299.783
299.767
299.733
299.658
299.572
299.526
299.538
299.721
300.013
300.238
300.326
300.299
300.195
302.956
302.522
301.826
301.09
300.484
300.081
299.874
299.803
299.786
299.755
299.684
299.601
299.555
299.565
299.74
300.02
300.239
300.32
300.287
300.183
302.964
302.547
301.87
301.141
300.531
300.118
299.901
299.823
299.805
299.778
299.712
299.632
299.585
299.594
299.76
300.029
300.239
300.314
300.274
300.171
302.972
302.574
301.915
301.194
300.58
300.156
299.928
299.843
299.824
299.801
299.741
299.664
299.617
299.625
299.781
300.038
300.24
300.307
300.262
300.159
302.981
302.602
301.962
301.25
300.631
300.196
299.956
299.864
299.843
299.824
299.771
299.699
299.652
299.658
299.804
300.048
300.241
300.3
300.25
300.149
302.99
302.631
302.011
301.307
300.684
300.238
299.985
299.885
299.862
299.848
299.802
299.735
299.688
299.692
299.829
300.059
300.241
300.293
300.239
300.139
302.999
302.66
302.061
301.367
300.74
300.281
300.016
299.906
299.881
299.871
299.834
299.773
299.727
299.729
299.856
300.07
300.241
300.286
300.228
300.129
303.008
302.69
302.113
301.429
300.798
300.326
300.047
299.928
299.9
299.894
299.865
299.813
299.769
299.768
299.883
300.082
300.241
300.278
300.217
300.12
303.016
302.72
302.166
301.493
300.858
300.374
300.08
299.95
299.919
299.916
299.896
299.852
299.812
299.809
299.912
300.094
300.24
300.27
300.206
300.112
303.025
302.75
302.22
301.56
300.923
300.425
300.115
299.973
299.937
299.938
299.926
299.892
299.856
299.852
299.942
300.106
300.238
300.261
300.195
300.104
303.034
302.781
302.275
301.63
300.991
300.48
300.153
299.997
299.955
299.957
299.955
299.93
299.9
299.895
299.973
300.119
300.236
300.252
300.184
300.096
303.042
302.812
302.333
301.703
301.064
300.54
300.194
300.023
299.972
299.976
299.981
299.967
299.944
299.939
300.004
300.13
300.233
300.242
300.174
300.089
303.051
302.843
302.391
301.78
301.142
300.605
300.24
300.051
299.99
299.992
300.004
300.001
299.986
299.982
300.034
300.142
300.23
300.231
300.163
300.082
303.059
302.874
302.452
301.862
301.228
300.678
300.292
300.082
300.008
300.007
300.024
300.03
300.024
300.023
300.062
300.152
300.224
300.22
300.153
300.075
303.066
302.905
302.514
301.95
301.322
300.759
300.351
300.117
300.027
300.019
300.04
300.055
300.058
300.059
300.088
300.16
300.218
300.208
300.142
300.068
303.073
302.935
302.579
302.042
301.425
300.852
300.419
300.159
300.048
300.03
300.051
300.073
300.085
300.091
300.111
300.166
300.21
300.195
300.132
300.062
303.08
302.965
302.644
302.141
301.539
300.958
300.501
300.21
300.073
300.041
300.058
300.085
300.105
300.116
300.129
300.169
300.201
300.182
300.121
300.056
303.085
302.995
302.711
302.246
301.665
301.08
300.598
300.274
300.105
300.052
300.061
300.09
300.115
300.131
300.141
300.169
300.189
300.168
300.11
300.05
303.09
303.022
302.778
302.356
301.803
301.221
300.715
300.354
300.149
300.068
300.063
300.088
300.117
300.137
300.148
300.166
300.176
300.153
300.1
300.044
303.095
303.048
302.843
302.469
301.954
301.382
300.857
300.457
300.208
300.092
300.065
300.082
300.111
300.134
300.147
300.158
300.161
300.137
300.089
300.038
303.098
303.071
302.906
302.585
302.116
301.564
301.028
300.589
300.292
300.132
300.074
300.075
300.1
300.124
300.14
300.146
300.144
300.121
300.078
300.032
303.1
303.092
302.964
302.699
302.286
301.769
301.231
300.76
300.41
300.196
300.096
300.071
300.085
300.108
300.126
300.13
300.126
300.105
300.067
300.026
303.101
303.108
303.015
302.806
302.458
301.991
301.47
300.975
300.575
300.299
300.144
300.079
300.071
300.086
300.103
300.111
300.106
300.087
300.056
300.02
303.101
303.121
303.058
302.903
302.626
302.224
301.74
301.242
300.8
300.46
300.236
300.116
300.069
300.066
300.078
300.088
300.085
300.07
300.044
300.014
303.1
303.13
303.092
302.985
302.778
302.455
302.032
301.557
301.094
300.698
300.401
300.207
300.101
300.06
300.056
300.064
300.063
300.053
300.033
300.008
303.099
303.136
303.116
303.049
302.908
302.668
302.327
301.908
301.459
301.031
300.668
300.391
300.205
300.098
300.05
300.039
300.041
300.035
300.021
300.001
303.097
303.14
303.131
303.094
303.007
302.848
302.6
302.266
301.873
301.457
301.061
300.716
300.442
300.242
300.113
300.044
300.02
300.018
300.01
299.995
303.094
303.141
303.141
303.122
303.075
302.982
302.823
302.591
302.29
301.94
301.568
301.205
300.874
300.59
300.36
300.183
300.061
300.002
299.998
299.987
303.091
303.142
303.145
303.137
303.116
303.068
302.982
302.845
302.651
302.405
302.119
301.811
301.499
301.2
300.922
300.666
300.43
300.202
300.008
299.981
303.088
303.141
303.147
303.145
303.136
303.116
303.077
303.01
302.908
302.769
302.596
302.396
302.18
301.959
301.744
301.54
301.346
301.148
300.893
300.337
303.085
303.141
303.148
303.148
303.145
303.138
303.123
303.097
303.054
302.993
302.912
302.816
302.708
302.598
302.493
302.402
302.332
302.286
302.268
302.293
303.082
303.14
303.148
303.149
303.148
303.146
303.142
303.134
303.119
303.098
303.07
303.035
302.995
302.956
302.92
302.892
302.876
302.874
302.886
302.908
303.08
303.139
303.149
303.149
303.149
303.149
303.148
303.146
303.142
303.136
303.128
303.118
303.106
303.094
303.081
303.07
303.059
303.048
303.032
303.006
303.077
303.139
303.149
303.149
303.149
303.149
303.149
303.149
303.148
303.147
303.145
303.142
303.138
303.133
303.127
303.119
303.107
303.091
303.065
303.022
303.074
303.138
303.149
303.149
303.15
303.15
303.15
303.15
303.149
303.149
303.149
303.148
303.146
303.144
303.14
303.133
303.122
303.105
303.076
303.026
303.072
303.137
303.148
303.15
303.15
303.15
303.15
303.15
303.15
303.15
303.15
303.149
303.148
303.147
303.144
303.139
303.13
303.113
303.083
303.027
303.069
303.137
303.148
303.15
303.15
303.15
303.15
303.15
303.15
303.15
303.15
303.15
303.149
303.148
303.147
303.143
303.135
303.119
303.089
303.028
303.067
303.136
303.148
303.15
303.15
303.15
303.15
303.15
303.15
303.15
303.15
303.15
303.15
303.149
303.148
303.145
303.139
303.124
303.094
303.029
303.065
303.135
303.148
303.15
303.15
303.15
303.15
303.15
303.15
303.15
303.15
303.15
303.15
303.15
303.149
303.147
303.141
303.128
303.098
303.03
303.064
303.135
303.148
303.15
303.15
303.15
303.15
303.15
303.15
303.15
303.15
303.15
303.15
303.15
303.149
303.148
303.143
303.131
303.101
303.031
303.063
303.134
303.148
303.15
303.15
303.15
303.15
303.15
303.15
303.15
303.15
303.15
303.15
303.15
303.15
303.148
303.145
303.133
303.104
303.032
303.061
303.134
303.148
303.15
303.15
303.15
303.15
303.15
303.15
303.15
303.15
303.15
303.15
303.15
303.15
303.149
303.146
303.135
303.107
303.033
303.06
303.133
303.148
303.15
303.15
303.15
303.15
303.15
303.15
303.15
303.15
303.15
303.15
303.15
303.15
303.149
303.146
303.137
303.109
303.034
303.06
303.133
303.148
303.15
303.15
303.15
303.15
303.15
303.15
303.15
303.15
303.15
303.15
303.15
303.15
303.149
303.147
303.138
303.111
303.034
303.059
303.133
303.148
303.15
303.15
303.15
303.15
303.15
303.15
303.15
303.15
303.15
303.15
303.15
303.15
303.149
303.147
303.139
303.112
303.035
303.059
303.133
303.148
303.15
303.15
303.15
303.15
303.15
303.15
303.15
303.15
303.15
303.15
303.15
303.15
303.15
303.148
303.14
303.114
303.036
303.058
303.133
303.148
303.15
303.15
303.15
303.15
303.15
303.15
303.15
303.15
303.15
303.15
303.15
303.15
303.15
303.148
303.141
303.115
303.037
303.058
303.132
303.148
303.15
303.15
303.15
303.15
303.15
303.15
303.15
303.15
303.15
303.15
303.15
303.15
303.15
303.148
303.142
303.116
303.037
303.058
303.132
303.148
303.15
303.15
303.15
303.15
303.15
303.15
303.15
303.15
303.15
303.15
303.15
303.15
303.15
303.148
303.142
303.117
303.038
303.058
303.132
303.148
303.15
303.15
303.15
303.15
303.15
303.15
303.15
303.15
303.15
303.15
303.15
303.15
303.15
303.149
303.143
303.118
303.039
303.058
303.132
303.148
303.15
303.15
303.15
303.15
303.15
303.15
303.15
303.15
303.15
303.15
303.15
303.15
303.15
303.149
303.143
303.118
303.04
303.059
303.132
303.148
303.15
303.15
303.15
303.15
303.15
303.15