/*--------------------------------*- C++ -*----------------------------------*\
  =========                 |
  \\      /  F ield         | OpenFOAM: The Open Source CFD Toolbox
   \\    /   O peration     | Website:  https://openfoam.org
    \\  /    A nd           | Version:  8
     \\/     M anipulation  |
\*---------------------------------------------------------------------------*/
FoamFile
{
    version     2.0;
    format      ascii;
    class       volVectorField;
    location    "600";
    object      U;
}
// * * * * * * * * * * * * * * * * * * * * * * * * * * * * * * * * * * * * * //

dimensions      [0 1 -1 0 0 0 0];

internalField   nonuniform List<vector> 
8400
(
(-118.17 0.00601656 4.27878e-15)
(-118.149 0.00055607 3.484e-15)
(-117.982 -0.0438924 2.71923e-15)
(-117.703 -0.111922 1.98756e-15)
(-117.268 -0.197659 1.29723e-15)
(-116.659 -0.296899 6.54688e-16)
(-115.861 -0.406607 6.30882e-17)
(-114.862 -0.524439 -4.73828e-16)
(-113.657 -0.648541 -9.54576e-16)
(-112.24 -0.777388 -1.38011e-15)
(-110.608 -0.909688 -1.75018e-15)
(-108.762 -1.044 -2.06664e-15)
(-106.702 -1.17907 -2.33377e-15)
(-104.43 -1.3138 -2.55409e-15)
(-101.95 -1.44699 -2.73095e-15)
(-99.2653 -1.57773 -2.86844e-15)
(-96.3826 -1.70513 -2.96858e-15)
(-93.3089 -1.82811 -3.03431e-15)
(-90.0521 -1.94565 -3.06985e-15)
(-86.6213 -2.05687 -3.07704e-15)
(-83.0272 -2.16048 -3.05789e-15)
(-79.2816 -2.25511 -3.01012e-15)
(-75.3984 -2.33932 -2.93486e-15)
(-71.3929 -2.41131 -2.83864e-15)
(-67.2832 -2.4688 -2.72308e-15)
(-63.0906 -2.50958 -2.57726e-15)
(-58.8385 -2.53184 -2.39422e-15)
(-54.5556 -2.53317 -2.17825e-15)
(-50.2752 -2.51094 -1.93229e-15)
(-46.0344 -2.46354 -1.64038e-15)
(-41.8751 -2.39032 -1.29448e-15)
(-37.8433 -2.29161 -8.91132e-16)
(-33.9869 -2.16952 -4.17893e-16)
(-30.3529 -2.02943 1.33854e-16)
(-26.985 -1.87935 7.75045e-16)
(-23.9181 -1.72804 1.51238e-15)
(-21.1718 -1.58425 2.33602e-15)
(-18.7489 -1.45081 3.20939e-15)
(-16.6343 -1.32255 4.04842e-15)
(-14.8005 -1.18365 4.71669e-15)
(-13.2219 -1.02059 5.04095e-15)
(-11.884 -0.83446 4.85535e-15)
(-10.7896 -0.644703 4.0344e-15)
(-9.95714 -0.478754 2.57896e-15)
(-9.40823 -0.352278 6.71097e-16)
(-9.13575 -0.266481 -1.33595e-15)
(-9.08166 -0.21493 -2.98204e-15)
(-9.17314 -0.189769 -4.01172e-15)
(-9.36947 -0.180526 -4.46311e-15)
(-9.63461 -0.186395 -4.63912e-15)
(-109.698 -0.167722 -2.5619e-15)
(-109.046 -0.234544 -2.72179e-15)
(-108.311 -0.395177 -2.84401e-15)
(-107.452 -0.609323 -2.92139e-15)
(-106.454 -0.860318 -2.95529e-15)
(-105.307 -1.13655 -2.95076e-15)
(-104.004 -1.4299 -2.9161e-15)
(-102.543 -1.73467 -2.85696e-15)
(-100.919 -2.04647 -2.78034e-15)
(-99.1333 -2.36183 -2.6919e-15)
(-97.1848 -2.67819 -2.59527e-15)
(-95.0747 -2.99291 -2.49438e-15)
(-92.805 -3.30365 -2.39274e-15)
(-90.3775 -3.60875 -2.29303e-15)
(-87.7953 -3.90652 -2.19633e-15)
(-85.0622 -4.19552 -2.10469e-15)
(-82.1827 -4.47438 -2.01767e-15)
(-79.1616 -4.74166 -1.93477e-15)
(-76.0052 -4.99573 -1.85822e-15)
(-72.7206 -5.23511 -1.78684e-15)
(-69.3155 -5.45751 -1.72018e-15)
(-65.7991 -5.6601 -1.6581e-15)
(-62.1828 -5.83959 -1.59265e-15)
(-58.4784 -5.99184 -1.52284e-15)
(-54.701 -6.11192 -1.45908e-15)
(-50.8695 -6.19397 -1.40314e-15)
(-47.0047 -6.23176 -1.32531e-15)
(-43.1315 -6.21793 -1.22557e-15)
(-39.2807 -6.1438 -1.11661e-15)
(-35.4885 -6.00121 -9.83839e-16)
(-31.7964 -5.78255 -8.11572e-16)
(-28.2513 -5.48231 -5.94322e-16)
(-24.9058 -5.09809 -3.15657e-16)
(-21.8174 -4.63538 4.97238e-17)
(-19.046 -4.1113 5.4999e-16)
(-16.6476 -3.55308 1.2632e-15)
(-14.6658 -3.01065 2.30472e-15)
(-13.1231 -2.54188 3.82931e-15)
(-11.9976 -2.20874 5.98003e-15)
(-11.1938 -1.99962 8.76791e-15)
(-10.5899 -1.84574 1.19443e-14)
(-10.0818 -1.64209 1.50005e-14)
(-9.64345 -1.33269 1.74155e-14)
(-9.31307 -0.934606 1.89015e-14)
(-9.13925 -0.495467 1.94138e-14)
(-9.12698 -0.0837953 1.92526e-14)
(-9.23898 0.221301 1.8962e-14)
(-9.42587 0.403732 1.87201e-14)
(-9.67223 0.505363 1.85002e-14)
(-9.97607 0.563543 1.8471e-14)
(-97.3191 -1.12023 -2.25706e-15)
(-96.0494 -1.29051 -2.05308e-15)
(-94.8686 -1.56802 -1.85529e-15)
(-93.5952 -1.90361 -1.66625e-15)
(-92.2287 -2.27989 -1.48863e-15)
(-90.7665 -2.68442 -1.32428e-15)
(-89.2036 -3.10908 -1.17495e-15)
(-87.5358 -3.54812 -1.04127e-15)
(-85.7591 -3.99673 -9.23473e-16)
(-83.8702 -4.45071 -8.21171e-16)
(-81.8665 -4.90659 -7.33403e-16)
(-79.7456 -5.36122 -6.59337e-16)
(-77.5071 -5.81156 -5.98023e-16)
(-75.1504 -6.25513 -5.48602e-16)
(-72.676 -6.68966 -5.09672e-16)
(-70.0857 -7.11268 -4.80607e-16)
(-67.3819 -7.52206 -4.59818e-16)
(-64.5682 -7.91535 -4.45951e-16)
(-61.6494 -8.28986 -4.39115e-16)
(-58.6312 -8.64283 -4.38301e-16)
(-55.5196 -8.97086 -4.43166e-16)
(-52.3223 -9.26997 -4.53315e-16)
(-49.049 -9.53462 -4.66617e-16)
(-45.7099 -9.75811 -4.70045e-16)
(-42.3186 -9.93304 -4.75092e-16)
(-38.8917 -10.0503 -5.08902e-16)
(-35.4478 -10.0989 -5.37556e-16)
(-32.0088 -10.0659 -5.40423e-16)
(-28.6012 -9.93642 -5.36584e-16)
(-25.2577 -9.69554 -5.26255e-16)
(-22.0169 -9.32863 -4.93803e-16)
(-18.9211 -8.82388 -4.38058e-16)
(-16.0117 -8.16842 -3.56942e-16)
(-13.3402 -7.3567 -2.5249e-16)
(-10.9707 -6.40394 -1.22097e-16)
(-8.95503 -5.31579 4.6983e-17)
(-7.34668 -4.1375 2.90225e-16)
(-6.21845 -2.927 7.23974e-16)
(-5.70016 -1.92044 1.63281e-15)
(-5.79602 -1.20094 3.60662e-15)
(-6.38848 -0.928237 7.29157e-15)
(-7.0842 -0.993952 1.24222e-14)
(-7.50656 -1.05546 1.75594e-14)
(-7.72331 -0.935032 2.19083e-14)
(-7.99734 -0.62509 2.44371e-14)
(-8.38553 -0.141607 2.4864e-14)
(-8.80451 0.287229 2.51545e-14)
(-9.21335 0.529117 2.55021e-14)
(-9.59111 0.64074 2.59554e-14)
(-9.97469 0.683242 2.65028e-14)
(-81.7418 -2.27742 -1.72887e-15)
(-80.1781 -2.53544 -1.53107e-15)
(-78.8802 -2.88051 -1.35028e-15)
(-77.5234 -3.27637 -1.18812e-15)
(-76.1198 -3.71393 -1.04396e-15)
(-74.6611 -4.18576 -9.16505e-16)
(-73.1382 -4.68563 -8.0594e-16)
(-71.5418 -5.20786 -7.10175e-16)
(-69.8633 -5.74706 -6.2839e-16)
(-68.096 -6.29778 -5.58924e-16)
(-66.2348 -6.8549 -5.00442e-16)
(-64.2757 -7.41423 -4.50638e-16)
(-62.2169 -7.97178 -4.10293e-16)
(-60.0573 -8.52346 -3.775e-16)
(-57.7969 -9.06606 -3.52206e-16)
(-55.4376 -9.59609 -3.3407e-16)
(-52.9821 -10.1105 -3.21678e-16)
(-50.4342 -10.6053 -3.1516e-16)
(-47.7995 -11.0769 -3.1389e-16)
(-45.0843 -11.5215 -3.17846e-16)
(-42.2949 -11.9353 -3.27232e-16)
(-39.4391 -12.3135 -3.40638e-16)
(-36.5252 -12.6493 -3.58395e-16)
(-33.5627 -12.9343 -3.6493e-16)
(-30.5644 -13.1582 -3.46804e-16)
(-27.5458 -13.3092 -3.66321e-16)
(-24.5243 -13.3728 -4.13243e-16)
(-21.5207 -13.3303 -4.3972e-16)
(-18.5564 -13.1604 -4.54974e-16)
(-15.661 -12.8416 -4.75398e-16)
(-12.8742 -12.3535 -4.87498e-16)
(-10.2453 -11.6864 -4.90145e-16)
(-7.79116 -10.8189 -4.70961e-16)
(-5.53978 -9.73616 -4.29429e-16)
(-3.58488 -8.49978 -3.67659e-16)
(-1.93683 -7.09946 -2.89911e-16)
(-0.602295 -5.58298 -2.10281e-16)
(0.32308 -3.79448 -1.33525e-16)
(0.576194 -2.15111 -7.84785e-17)
(0.380959 -0.578357 -2.36081e-17)
(-0.303419 0.784364 2.26567e-17)
(-1.59689 1.74474 5.4411e-17)
(-3.10559 2.25091 -3.33397e-17)
(-5.22318 1.43611 1.84583e-14)
(-6.28592 0.953483 3.21662e-14)
(-7.08899 0.983041 3.53732e-14)
(-7.96136 1.01687 3.65101e-14)
(-8.72383 1.04738 3.76686e-14)
(-9.31346 1.08327 3.89263e-14)
(-9.81674 1.11196 4.03079e-14)
(-64.3359 -3.55705 -6.61904e-16)
(-62.912 -3.85921 -5.9151e-16)
(-61.8567 -4.21793 -5.26202e-16)
(-60.7479 -4.62976 -4.66997e-16)
(-59.6015 -5.09609 -4.13768e-16)
(-58.4015 -5.61309 -3.65781e-16)
(-57.1341 -6.17407 -3.23975e-16)
(-55.7883 -6.7709 -2.8799e-16)
(-54.3549 -7.39544 -2.57301e-16)
(-52.828 -8.03965 -2.32704e-16)
(-51.204 -8.6958 -2.1226e-16)
(-49.4815 -9.3571 -1.9636e-16)
(-47.6601 -10.0179 -1.84397e-16)
(-45.7408 -10.6725 -1.77607e-16)
(-43.726 -11.3171 -1.74103e-16)
(-41.6196 -11.9465 -1.75528e-16)
(-39.4259 -12.5559 -1.80364e-16)
(-37.1501 -13.1407 -1.87969e-16)
(-34.7991 -13.6971 -2.00405e-16)
(-32.3816 -14.2194 -2.16576e-16)
(-29.905 -14.7036 -2.37627e-16)
(-27.3784 -15.1452 -2.62188e-16)
(-24.8112 -15.5369 -2.95739e-16)
(-22.2086 -15.8704 -3.2827e-16)
(-19.5825 -16.1331 -2.91479e-16)
(-16.9462 -16.3102 -2.56901e-16)
(-14.3174 -16.3844 -2.8179e-16)
(-11.727 -16.3329 -3.11684e-16)
(-9.18118 -16.1285 -3.18748e-16)
(-6.70017 -15.7419 -3.38187e-16)
(-4.32055 -15.1422 -3.63001e-16)
(-2.13587 -14.3381 -3.9413e-16)
(-0.120391 -13.2924 -4.15825e-16)
(1.6962 -11.9361 -4.20585e-16)
(3.07539 -10.3946 -4.0663e-16)
(4.11076 -8.66742 -3.7791e-16)
(4.83645 -6.78433 -3.44636e-16)
(5.26214 -4.75552 -3.20498e-16)
(5.33183 -2.64948 -3.14638e-16)
(4.9766 -0.578816 -3.15944e-16)
(4.11701 1.31489 -3.25155e-16)
(2.85389 2.90049 -3.55629e-16)
(1.43425 4.22467 -4.44992e-16)
(-0.661869 4.63633 2.94197e-15)
(-3.08873 3.99222 1.46238e-14)
(-5.21022 3.04226 2.16385e-14)
(-6.84455 2.25717 2.40042e-14)
(-8.01598 1.77236 2.51273e-14)
(-8.78805 1.57663 2.60851e-14)
(-9.38582 1.54306 2.6469e-14)
(-46.7252 -4.3346 1.47147e-16)
(-45.8167 -4.67289 1.41188e-16)
(-45.2292 -5.04808 1.35958e-16)
(-44.5555 -5.49538 1.31202e-16)
(-43.8137 -6.01833 1.26246e-16)
(-42.9848 -6.61034 1.20848e-16)
(-42.0568 -7.26134 1.14703e-16)
(-41.0221 -7.95957 1.07707e-16)
(-39.8767 -8.69328 9.93246e-17)
(-38.6186 -9.45145 8.95308e-17)
(-37.2483 -10.2241 7.8847e-17)
(-35.7687 -11.0019 6.86296e-17)
(-34.1835 -11.7771 5.6992e-17)
(-32.4978 -12.5429 4.48432e-17)
(-30.7174 -13.2934 3.15116e-17)
(-28.849 -14.0228 1.65802e-17)
(-26.9004 -14.7241 4.90106e-19)
(-24.8796 -15.3919 -1.67273e-17)
(-22.7919 -16.0222 -3.59321e-17)
(-20.647 -16.6087 -5.93046e-17)
(-18.4536 -17.1481 -9.19914e-17)
(-16.2257 -17.6362 -1.16158e-16)
(-13.984 -18.0626 -1.54424e-16)
(-11.7181 -18.4248 -2.49752e-16)
(-9.43955 -18.7089 -2.56348e-16)
(-7.15411 -18.8996 -1.83905e-16)
(-4.87689 -18.9743 -1.63459e-16)
(-2.67875 -18.9043 -1.88863e-16)
(-0.527753 -18.6555 -1.87255e-16)
(1.55916 -18.1871 -1.93201e-16)
(3.51115 -17.4479 -2.08056e-16)
(5.15383 -16.4995 -2.40294e-16)
(6.64115 -15.2795 -2.74943e-16)
(7.96515 -13.7697 -3.03211e-16)
(9.09325 -11.9736 -3.23581e-16)
(9.98137 -9.9119 -3.38989e-16)
(10.579 -7.62786 -3.52437e-16)
(10.8417 -5.17459 -3.72389e-16)
(10.7216 -2.62761 -4.04119e-16)
(10.1668 -0.0901929 -4.4236e-16)
(9.11234 2.30506 -4.85467e-16)
(7.85101 4.43518 -5.3462e-16)
(6.24788 6.11816 -5.73313e-16)
(4.18802 7.12843 1.98774e-16)
(1.71761 7.26445 4.44843e-15)
(-0.985701 6.52265 1.02188e-14)
(-4.52684 4.71416 1.35846e-14)
(-6.86591 3.3078 1.15552e-14)
(-8.0532 2.62144 1.0338e-14)
(-8.78764 2.33055 1.18819e-14)
(-30.078 -4.61422 2.72989e-16)
(-29.8521 -4.96936 2.57849e-16)
(-29.797 -5.37781 2.41549e-16)
(-29.6051 -5.89346 2.2424e-16)
(-29.2932 -6.5075 2.07196e-16)
(-28.8461 -7.20602 1.91274e-16)
(-28.2588 -7.97397 1.76107e-16)
(-27.53 -8.7967 1.61683e-16)
(-26.6614 -9.65996 1.48127e-16)
(-25.6571 -10.5504 1.34837e-16)
(-24.5209 -11.4573 1.22536e-16)
(-23.2589 -12.3701 1.1191e-16)
(-21.8797 -13.2792 1.02457e-16)
(-20.3921 -14.1761 9.34527e-17)
(-18.8087 -15.0511 8.49696e-17)
(-17.1431 -15.8942 7.58121e-17)
(-15.4081 -16.6949 6.53701e-17)
(-13.6139 -17.4482 5.51161e-17)
(-11.7594 -18.1511 4.51406e-17)
(-9.85803 -18.7964 3.40205e-17)
(-7.91341 -19.3822 -1.08023e-17)
(-5.93738 -19.9059 -2.16558e-17)
(-3.99921 -20.3434 -1.21186e-17)
(-2.04519 -20.7086 -1.31775e-16)
(-0.0911952 -20.9853 -2.1617e-16)
(1.86652 -21.1565 -1.68611e-16)
(3.79373 -21.1878 -1.14956e-16)
(5.53815 -21.0599 -1.24471e-16)
(7.23389 -20.7461 -1.22854e-16)
(8.87403 -20.2061 -1.22717e-16)
(10.451 -19.4026 -1.23957e-16)
(11.939 -18.3082 -1.41072e-16)
(13.2956 -16.903 -1.68684e-16)
(14.4848 -15.1707 -1.95442e-16)
(15.4653 -13.1145 -2.23492e-16)
(16.1918 -10.7533 -2.57417e-16)
(16.6193 -8.12411 -2.95314e-16)
(16.7003 -5.28354 -3.37964e-16)
(16.3864 -2.31087 -3.84234e-16)
(15.63 0.687508 -4.23693e-16)
(14.3685 3.56251 -4.44033e-16)
(12.9096 6.10468 -4.42873e-16)
(11.1243 8.1278 -4.19155e-16)
(9.00104 9.5149 -2.13392e-16)
(6.54401 10.1464 1.16543e-15)
(3.74664 9.93416 4.19674e-15)
(0.271275 8.66976 7.66136e-15)
(-3.62207 6.53637 8.05208e-15)
(-6.71744 4.37817 5.6291e-15)
(-8.02143 3.39732 5.05481e-15)
(-14.6201 -4.32108 1.21514e-16)
(-15.2029 -4.60242 1.20264e-16)
(-15.736 -5.064 1.15028e-16)
(-16.0504 -5.69042 1.07689e-16)
(-16.1663 -6.44299 9.94801e-17)
(-16.082 -7.29375 9.20128e-17)
(-15.8054 -8.21906 8.58176e-17)
(-15.3459 -9.19978 8.03271e-17)
(-14.7127 -10.2199 7.59516e-17)
(-13.9203 -11.2654 7.16739e-17)
(-12.9752 -12.3256 6.78094e-17)
(-11.8877 -13.3911 6.48778e-17)
(-10.6717 -14.4509 6.3107e-17)
(-9.33724 -15.4961 6.22709e-17)
(-7.90174 -16.5167 6.16081e-17)
(-6.3965 -17.4915 6.16927e-17)
(-4.84487 -18.4005 6.01042e-17)
(-3.25312 -19.2436 5.57304e-17)
(-1.60488 -20.0203 5.34123e-17)
(0.0822835 -20.7224 7.00584e-17)
(1.80504 -21.3481 1.32589e-17)
(3.57862 -21.8987 -8.48429e-18)
(5.21708 -22.3241 3.99225e-17)
(6.8435 -22.6674 -3.34374e-17)
(8.44374 -22.9129 -1.35339e-16)
(10.0324 -23.0473 -1.50298e-16)
(11.6088 -23.0419 -1.1647e-16)
(13.1673 -22.8686 -1.04655e-16)
(14.6948 -22.4943 -9.8396e-17)
(16.1714 -21.874 -1.01174e-16)
(17.5762 -20.9703 -1.08436e-16)
(18.8782 -19.7501 -1.21603e-16)
(20.0437 -18.1861 -1.3981e-16)
(21.0343 -16.2603 -1.54904e-16)
(21.8089 -13.9708 -1.74561e-16)
(22.3264 -11.3323 -2.09757e-16)
(22.5452 -8.37957 -2.56754e-16)
(22.4224 -5.16914 -2.98423e-16)
(21.9139 -1.7827 -3.32436e-16)
(20.9664 1.66556 -3.49809e-16)
(19.693 5.0215 -3.49016e-16)
(17.9847 7.93953 -3.25678e-16)
(15.9482 10.2886 -1.91412e-16)
(13.6311 11.9849 -1.49458e-16)
(11.0648 12.954 2.33002e-16)
(8.23448 13.1267 1.47513e-15)
(4.94904 12.3777 3.60003e-15)
(1.11375 10.6659 5.1212e-15)
(-3.01167 8.03644 4.67223e-15)
(-6.52529 5.10829 2.51654e-15)
(-1.48433 -3.87416 -8.71871e-18)
(-2.57968 -3.70355 -1.8165e-18)
(-3.58927 -4.19691 4.28469e-18)
(-4.31602 -4.96895 9.12787e-18)
(-4.75477 -5.91927 1.18116e-17)
(-4.91586 -6.99092 1.36218e-17)
(-4.8245 -8.1397 1.56829e-17)
(-4.51013 -9.33501 1.74908e-17)
(-3.99644 -10.5559 1.97364e-17)
(-3.31447 -11.788 2.16612e-17)
(-2.47498 -13.0207 2.30757e-17)
(-1.49062 -14.2472 2.36709e-17)
(-0.380186 -15.4589 2.51212e-17)
(0.842986 -16.6444 2.7188e-17)
(2.18252 -17.8018 2.93312e-17)
(3.60512 -18.8912 3.36418e-17)
(5.03655 -19.8761 3.63823e-17)
(6.47982 -20.7804 3.45045e-17)
(7.94885 -21.6034 3.17331e-17)
(9.43136 -22.3392 5.61472e-17)
(10.9222 -22.9849 1.63716e-17)
(12.4088 -23.5341 -1.29815e-17)
(13.8874 -23.9844 1.61578e-17)
(15.3498 -24.3322 -6.37598e-18)
(16.7911 -24.5679 -7.94088e-17)
(18.2058 -24.6761 -1.24719e-16)
(19.5875 -24.6324 -1.2097e-16)
(20.9285 -24.406 -1.14394e-16)
(22.2186 -23.9616 -1.07478e-16)
(23.4411 -23.2554 -1.09951e-16)
(24.5737 -22.2456 -1.17944e-16)
(25.5886 -20.893 -1.31801e-16)
(26.4571 -19.168 -1.52566e-16)
(27.1465 -17.0503 -1.78199e-16)
(27.6224 -14.5343 -2.08896e-16)
(27.8527 -11.6324 -2.42518e-16)
(27.8064 -8.37702 -2.74808e-16)
(27.4487 -4.82062 -3.01886e-16)
(26.7396 -1.04374 -3.17744e-16)
(25.6238 2.83185 -3.17987e-16)
(24.1715 6.55686 -2.91952e-16)
(22.3117 9.83992 -2.54796e-16)
(20.1061 12.5215 -2.005e-16)
(17.6308 14.5114 -1.47008e-16)
(14.9471 15.7514 -1.00745e-17)
(12.0734 16.202 4.6776e-16)
(8.92776 15.8036 1.52976e-15)
(5.38043 14.4906 2.78177e-15)
(1.38161 12.1929 3.30485e-15)
(-2.78242 8.9087 3.19601e-15)
(4.43172 -4.47318 -2.0781e-17)
(5.19975 -3.58572 -2.49043e-17)
(5.09396 -3.64213 -2.50321e-17)
(4.81714 -4.31391 -1.95426e-17)
(4.63734 -5.37383 -1.29329e-17)
(4.6698 -6.65794 -8.53186e-18)
(4.93193 -8.04952 -4.93643e-18)
(5.39465 -9.47927 -1.69383e-18)
(6.02689 -10.9103 1.30499e-18)
(6.79371 -12.3221 4.8203e-18)
(7.67776 -13.7052 7.92822e-18)
(8.66187 -15.0516 9.11113e-18)
(9.73286 -16.3591 1.04734e-17)
(10.8809 -17.6243 1.20765e-17)
(12.0902 -18.84 1.36551e-17)
(13.3505 -19.9965 1.70295e-17)
(14.6561 -21.0824 1.91248e-17)
(15.9986 -22.0859 1.67534e-17)
(17.3655 -22.9943 1.30174e-17)
(18.7429 -23.7969 3.05276e-17)
(20.1151 -24.4864 3.4647e-18)
(21.4671 -25.0571 -2.60693e-17)
(22.7853 -25.5073 -1.03896e-17)
(24.0568 -25.8336 -1.42865e-17)
(25.2727 -26.0295 -5.63883e-17)
(26.4256 -26.0809 -1.01977e-16)
(27.5085 -25.9652 -1.17178e-16)
(28.5128 -25.6514 -1.24642e-16)
(29.4313 -25.1027 -1.25157e-16)
(30.2515 -24.2763 -1.31367e-16)
(30.9538 -23.1273 -1.41779e-16)
(31.5172 -21.6159 -1.58456e-16)
(31.9254 -19.714 -1.81858e-16)
(32.1567 -17.401 -2.09808e-16)
(32.1892 -14.6703 -2.46856e-16)
(32.0111 -11.5353 -2.92346e-16)
(31.6134 -8.02682 -3.42536e-16)
(30.9769 -4.1862 -3.93667e-16)
(30.069 -0.0795265 -4.41112e-16)
(28.8297 4.17461 -4.79808e-16)
(27.2325 8.21574 -5.02263e-16)
(25.2301 11.8038 -4.98978e-16)
(22.9 14.7814 -4.69917e-16)
(20.3322 17.0359 -4.21569e-16)
(17.6059 18.504 -3.38419e-16)
(14.764 19.1619 -1.26829e-16)
(11.7801 18.9945 3.81504e-16)
(8.56314 17.9702 1.16273e-15)
(4.99804 16.0153 1.79724e-15)
(1.0942 13.0091 2.10184e-15)
(11.3054 -3.90662 6.78403e-18)
(12.2283 -3.58411 6.76362e-18)
(12.6855 -3.92572 6.34725e-18)
(13.1271 -4.71194 6.87793e-18)
(13.6004 -5.79402 7.20656e-18)
(14.1262 -7.08363 6.34862e-18)
(14.7266 -8.50614 5.82682e-18)
(15.4105 -9.99831 5.79764e-18)
(16.1761 -11.5147 5.82598e-18)
(17.0194 -13.0231 6.95494e-18)
(17.9372 -14.5061 7.69233e-18)
(18.9222 -15.9505 7.31445e-18)
(19.9667 -17.3494 7.1047e-18)
(21.0652 -18.6987 7.36974e-18)
(22.2111 -19.9909 7.81677e-18)
(23.3968 -21.2165 9.8117e-18)
(24.6138 -22.3637 1.06597e-17)
(25.8514 -23.4184 7.59003e-18)
(27.0957 -24.3656 2.99955e-18)
(28.3283 -25.19 1.5797e-17)
(29.528 -25.8809 -4.5689e-18)
(30.6724 -26.4304 -3.34174e-17)
(31.7401 -26.8365 -2.91949e-17)
(32.712 -27.0968 -2.46508e-17)
(33.5752 -27.2061 -4.33925e-17)
(34.3193 -27.1513 -7.61134e-17)
(34.9345 -26.9105 -1.00233e-16)
(35.4122 -26.4537 -1.18441e-16)
(35.7508 -25.7444 -1.26164e-16)
(35.9452 -24.7421 -1.37237e-16)
(35.9799 -23.4021 -1.51661e-16)
(35.8456 -21.6898 -1.72813e-16)
(35.5513 -19.5887 -1.98508e-16)
(35.0937 -17.0816 -2.33455e-16)
(34.4703 -14.1641 -2.84008e-16)
(33.7105 -10.8596 -3.39048e-16)
(32.8477 -7.20357 -3.88616e-16)
(31.8858 -3.21142 -4.36265e-16)
(30.8028 1.09287 -4.88343e-16)
(29.4957 5.59878 -5.44897e-16)
(27.8393 9.84323 -5.932e-16)
(25.8053 13.6736 -6.32624e-16)
(23.4736 16.9133 -6.47841e-16)
(20.9472 19.4129 -6.38366e-16)
(18.3277 21.0865 -6.03986e-16)
(15.6766 21.9097 -5.13823e-16)
(12.9928 21.8935 -2.82778e-16)
(10.2129 21.0518 1.39992e-16)
(7.21883 19.3565 6.03425e-16)
(3.94909 16.693 9.41426e-16)
(21.4111 -3.89081 6.34882e-18)
(22.0906 -4.01578 6.38734e-18)
(22.5643 -4.59931 5.98016e-18)
(23.1591 -5.50793 6.40807e-18)
(23.8207 -6.64638 6.89794e-18)
(24.5171 -7.96015 6.44179e-18)
(25.2534 -9.39839 6.19391e-18)
(26.0355 -10.9089 6.48021e-18)
(26.8662 -12.4492 6.74936e-18)
(27.7448 -13.9869 7.45986e-18)
(28.6684 -15.5005 7.47599e-18)
(29.633 -16.9766 6.57924e-18)
(30.6323 -18.4064 6.31016e-18)
(31.661 -19.784 6.68396e-18)
(32.7128 -21.1034 7.36878e-18)
(33.7801 -22.3559 9.12895e-18)
(34.8541 -23.5277 9.15509e-18)
(35.9209 -24.6 4.39269e-18)
(36.9626 -25.5529 -2.01571e-18)
(37.9555 -26.3656 1.08413e-17)
(38.8711 -27.0212 -6.7127e-18)
(39.6778 -27.5091 -3.81816e-17)
(40.343 -27.8246 -4.0145e-17)
(40.8378 -27.9654 -2.77024e-17)
(41.1455 -27.9284 -3.30504e-17)
(41.2527 -27.702 -5.62087e-17)
(41.1443 -27.2635 -7.95318e-17)
(40.8112 -26.5841 -9.82886e-17)
(40.2651 -25.6313 -1.08379e-16)
(39.5129 -24.3722 -1.20621e-16)
(38.5378 -22.7619 -1.38758e-16)
(37.3556 -20.7845 -1.62879e-16)
(36.0256 -18.4534 -1.95144e-16)
(34.5687 -15.7558 -2.39565e-16)
(32.9981 -12.6886 -2.98444e-16)
(31.4407 -9.32005 -3.41962e-16)
(30.0005 -5.70735 -3.50296e-16)
(28.6856 -1.81504 -3.478e-16)
(27.4946 2.4239 -3.62861e-16)
(26.11 6.81857 -3.79727e-16)
(24.5748 11.0491 -4.1381e-16)
(22.7785 15.0223 -4.66196e-16)
(20.7386 18.5007 -5.17579e-16)
(18.5485 21.2742 -5.63319e-16)
(16.3222 23.2019 -5.98051e-16)
(14.1401 24.2262 -6.05786e-16)
(12.0183 24.3534 -5.41549e-16)
(9.90584 23.6383 -3.62197e-16)
(7.67952 22.1129 -1.05472e-16)
(5.25183 19.7217 1.20019e-16)
(33.6004 -3.50001 5.93055e-18)
(34.0029 -4.00873 5.9481e-18)
(34.3397 -4.87758 5.59449e-18)
(34.8262 -5.97406 5.75255e-18)
(35.3951 -7.23933 6.18015e-18)
(36.01 -8.64056 5.87001e-18)
(36.6777 -10.1409 5.63655e-18)
(37.4043 -11.6997 5.47581e-18)
(38.1856 -13.2778 5.03619e-18)
(39.0129 -14.8468 4.94861e-18)
(39.875 -16.3848 5.14142e-18)
(40.7593 -17.8782 4.78866e-18)
(41.6528 -19.3198 4.51841e-18)
(42.5443 -20.7052 4.34407e-18)
(43.4234 -22.0299 3.67864e-18)
(44.2801 -23.2851 3.58861e-18)
(45.1024 -24.4538 2.8933e-18)
(45.8708 -25.5121 -2.38376e-18)
(46.5631 -26.4331 -7.57541e-18)
(47.1489 -27.1892 9.2842e-18)
(47.5896 -27.7582 -3.33899e-18)
(47.8424 -28.1256 -3.80757e-17)
(47.8581 -28.2834 -5.31375e-17)
(47.5941 -28.2288 -4.24104e-17)
(47.0349 -27.9625 -3.46628e-17)
(46.167 -27.4755 -4.55883e-17)
(44.9607 -26.7387 -6.01057e-17)
(43.4068 -25.725 -7.357e-17)
(41.5505 -24.4136 -7.58925e-17)
(39.4196 -22.7867 -8.62941e-17)
(36.9688 -20.784 -1.09714e-16)
(34.2855 -18.4454 -1.39349e-16)
(31.5226 -15.8413 -1.86655e-16)
(28.7064 -12.9391 -2.58962e-16)
(25.8336 -9.71212 -3.92866e-16)
(23.3112 -6.39271 -4.44045e-16)
(21.3085 -3.0534 -3.38286e-16)
(19.6269 0.470682 -1.55777e-16)
(18.3264 4.10485 -6.80947e-17)
(17.0852 7.81273 2.70471e-17)
(16.1822 11.4623 1.90638e-17)
(15.1886 15.1965 -2.29253e-17)
(13.9722 18.7023 -7.22425e-17)
(12.6171 21.6627 -1.66611e-16)
(11.2162 23.8851 -2.84812e-16)
(9.86924 25.2411 -3.99115e-16)
(8.62624 25.6696 -4.80687e-16)
(7.46319 25.2115 -5.04523e-16)
(6.24506 23.9268 -4.55906e-16)
(4.86132 21.8212 -4.12725e-16)
(47.0472 -3.89296 5.45304e-18)
(46.91 -4.54872 5.43312e-18)
(46.914 -5.51212 4.92773e-18)
(47.1464 -6.6569 5.06977e-18)
(47.5085 -7.95293 5.52365e-18)
(47.9607 -9.38045 5.17137e-18)
(48.5013 -10.9066 4.84119e-18)
(49.1255 -12.4908 4.53539e-18)
(49.8155 -14.0917 4.03805e-18)
(50.548 -15.6749 3.74228e-18)
(51.2979 -17.2151 3.54556e-18)
(52.038 -18.6973 3.10686e-18)
(52.7423 -20.1143 2.74837e-18)
(53.3882 -21.4637 2.51824e-18)
(53.9574 -22.7443 1.90166e-18)
(54.436 -23.9473 1.69629e-18)
(54.8052 -25.0506 9.35927e-19)
(55.039 -26.0238 -4.14649e-18)
(55.1163 -26.8344 -9.0804e-18)
(55.0035 -27.4504 1.1231e-17)
(54.6512 -27.8465 7.10422e-18)
(54.0024 -28.0051 -2.54661e-17)
(52.9768 -27.9063 -5.71046e-17)
(51.5157 -27.5485 -6.47028e-17)
(49.6259 -26.9436 -6.25129e-17)
(47.3053 -26.0892 -6.49844e-17)
(44.4735 -24.9284 -6.18609e-17)
(41.1356 -23.4397 -4.76159e-17)
(37.4341 -21.6332 -2.18788e-17)
(33.4144 -19.5093 -1.73647e-17)
(28.8986 -16.9256 -6.67607e-17)
(24.283 -14.1082 -1.48577e-16)
(19.8025 -11.1726 -2.89358e-16)
(15.3823 -7.93298 -5.51019e-16)
(10.9942 -4.34394 -1.14742e-15)
(7.80357 -1.27324 -1.32919e-15)
(5.62601 1.59313 -7.22583e-16)
(1.82061 5.49931 6.84833e-16)
(-4.50651 12.4539 3.34179e-15)
(1.62059 11.9642 2.33777e-15)
(3.74833 13.2824 1.59407e-15)
(4.22722 15.5722 1.14814e-15)
(4.16985 18.4076 9.28995e-16)
(4.12515 21.1233 5.70367e-16)
(3.95203 23.2817 2.77097e-16)
(3.7363 24.7847 5.53921e-17)
(3.57783 25.5029 -1.67271e-16)
(3.5158 25.3912 -3.89063e-16)
(3.41343 24.4568 -4.93318e-16)
(3.14942 22.7146 -6.72953e-16)
(58.4208 -2.5795 4.38957e-18)
(58.2799 -3.60673 4.31227e-18)
(58.4362 -4.94658 3.80646e-18)
(58.8176 -6.42535 3.7981e-18)
(59.2736 -8.00338 3.95184e-18)
(59.7597 -9.65563 3.41011e-18)
(60.2822 -11.3517 2.8169e-18)
(60.8452 -13.0549 2.17509e-18)
(61.4368 -14.7287 1.10782e-18)
(62.0294 -16.3407 5.93542e-19)
(62.5852 -17.8688 3.06996e-19)
(63.059 -19.3003 -4.03246e-19)
(63.4047 -20.6326 -8.14551e-19)
(63.5823 -21.8706 -8.61079e-19)
(63.5632 -23.0207 -1.00082e-18)
(63.3312 -24.0778 -5.94254e-19)
(62.8548 -25.0059 -1.67255e-18)
(62.1046 -25.7696 -6.34749e-18)
(61.0853 -26.3382 -1.0039e-17)
(59.7811 -26.686 1.49073e-17)
(58.1292 -26.7919 2.59037e-17)
(56.0518 -26.634 5.1229e-18)
(53.382 -26.1497 -4.49819e-17)
(50.0681 -25.3534 -9.07051e-17)
(46.2065 -24.2927 -1.27531e-16)
(41.8308 -22.9773 -1.51881e-16)
(36.6613 -21.2543 -9.59639e-17)
(30.8721 -19.1433 4.01521e-17)
(24.8519 -16.7409 1.97007e-16)
(18.5429 -14.0002 2.70294e-16)
(11.3374 -10.4956 7.1522e-17)
(5.21684 -7.34492 -2.77677e-16)
(-0.44137 -4.3313 -7.73209e-16)
(-6.31258 -0.69129 -1.8388e-15)
(-10.9762 3.58184 -4.4703e-15)
(-11.8065 5.30688 -5.42855e-15)
(-11.9779 6.34729 -5.04386e-15)
(-10.9699 7.44919 -3.88878e-15)
(-10.3496 8.84149 -2.4725e-15)
(-8.81517 9.25805 -1.7739e-15)
(-8.10981 10.5895 -1.42324e-15)
(-7.24555 12.8071 -1.20429e-15)
(-6.40974 15.5674 -9.67561e-16)
(-5.42062 18.461 -8.97032e-16)
(-4.41088 21.0029 -9.0045e-16)
(-3.35832 22.9506 -9.48876e-16)
(-2.25425 24.134 -1.04037e-15)
(-1.08204 24.4524 -1.19248e-15)
(-0.0393452 23.8788 -1.26199e-15)
(0.754636 22.5082 -1.45787e-15)
(73.5752 -3.50315 2.10176e-18)
(72.7144 -4.43782 1.85126e-18)
(72.261 -5.67745 1.13279e-18)
(72.0621 -7.06024 6.36591e-19)
(71.9762 -8.56656 1.47898e-19)
(71.992 -10.1775 -1.11717e-18)
(72.1248 -11.8577 -2.56977e-18)
(72.3614 -13.5579 -4.12638e-18)
(72.6487 -15.2175 -5.97419e-18)
(72.9039 -16.7816 -7.14168e-18)
(73.0308 -18.2121 -7.6319e-18)
(72.9339 -19.4873 -7.94045e-18)
(72.529 -20.606 -7.33498e-18)
(71.7537 -21.5832 -5.73402e-18)
(70.5742 -22.4413 -3.73087e-18)
(68.9843 -23.1871 -1.3249e-18)
(66.8983 -23.7402 -4.51829e-18)
(64.3255 -24.075 -8.40369e-18)
(61.3838 -24.19 -1.15052e-17)
(58.1386 -24.0877 1.81892e-17)
(54.4868 -23.7629 5.17134e-17)
(50.2884 -23.1776 6.26868e-17)
(45.0519 -22.1206 -8.00245e-18)
(39.0169 -20.7179 -1.1006e-16)
(32.4918 -19.1118 -2.40416e-16)
(25.5319 -17.3087 -3.51133e-16)
(17.0719 -14.8184 -7.81069e-17)
(8.70159 -11.9691 6.42421e-16)
(0.875455 -9.03074 1.2779e-15)
(-7.27778 -5.62005 1.58011e-15)
(-17.5336 -0.577036 6.2767e-16)
(-20.3321 0.659957 -5.28918e-16)
(-22.4748 1.22843 -1.11732e-15)
(-23.5829 1.23194 -1.34837e-15)
(-24.0611 1.20958 -1.70779e-15)
(-24.0322 1.43327 -2.03222e-15)
(-23.5184 2.07505 -2.18904e-15)
(-22.7061 3.11272 -2.25807e-15)
(-21.7493 4.44484 -2.15788e-15)
(-20.7052 5.98585 -1.92381e-15)
(-19.7249 7.92264 -1.65274e-15)
(-18.4818 10.2906 -1.41894e-15)
(-16.9728 12.9672 -1.19445e-15)
(-15.1662 15.756 -1.05737e-15)
(-13.1711 18.3393 -1.0015e-15)
(-11.0197 20.4646 -1.05823e-15)
(-8.76229 21.9247 -1.18573e-15)
(-6.43066 22.5837 -1.34319e-15)
(-4.18436 22.3931 -1.40145e-15)
(-2.17582 21.3956 -1.52923e-15)
(79.0898 -1.49908 -5.73083e-18)
(78.4842 -2.77774 -6.65999e-18)
(78.6785 -4.4622 -8.82235e-18)
(79.2887 -6.29766 -1.09244e-17)
(80.0014 -8.21157 -1.30628e-17)
(80.6937 -10.1528 -1.64135e-17)
(81.2905 -12.07 -1.97436e-17)
(81.7105 -13.9038 -2.25817e-17)
(81.8486 -15.572 -2.47547e-17)
(81.5889 -17.0154 -2.47542e-17)
(80.8223 -18.2032 -2.24749e-17)
(79.4601 -19.1223 -1.83795e-17)
(77.4356 -19.7912 -1.18061e-17)
(74.711 -20.2475 -3.03831e-18)
(71.2794 -20.5445 6.11021e-18)
(67.1698 -20.7177 1.18593e-17)
(61.9659 -20.5342 -1.2959e-17)
(56.1213 -20.0714 -1.99931e-17)
(50.0353 -19.4382 -3.06137e-17)
(43.998 -18.6874 6.83899e-19)
(37.7181 -17.8174 5.53882e-17)
(30.7862 -16.6877 1.13553e-16)
(21.3337 -14.604 -1.16695e-16)
(12.2675 -12.4646 -4.10025e-16)
(3.26435 -10.3052 -7.70986e-16)
(-5.92852 -7.94731 -1.03153e-15)
(-19.1287 -3.82529 7.20072e-16)
(-26.2594 -0.911649 4.32535e-15)
(-30.6206 0.545424 6.18663e-15)
(-32.6133 0.861197 6.67644e-15)
(-34.051 0.851496 6.69781e-15)
(-34.8068 0.539674 6.22678e-15)
(-35.2392 0.24371 5.53248e-15)
(-35.4432 0.144678 4.75206e-15)
(-35.4664 0.355426 3.84339e-15)
(-35.2938 0.869361 2.86316e-15)
(-34.8579 1.63181 1.92976e-15)
(-34.1921 2.64008 1.05035e-15)
(-33.3051 3.88264 2.64554e-16)
(-32.1999 5.34597 -3.65979e-16)
(-30.8505 7.07905 -8.49035e-16)
(-29.1678 9.0796 -1.21417e-15)
(-27.1172 11.2758 -1.43505e-15)
(-24.6763 13.5598 -1.51201e-15)
(-21.8833 15.7462 -1.43402e-15)
(-18.796 17.6258 -1.32404e-15)
(-15.5045 19.0019 -1.20476e-15)
(-12.1053 19.7347 -1.08307e-15)
(-8.74917 19.7545 -9.53499e-16)
(-5.58281 19.0592 -9.26953e-16)
(98.176 -2.90445 -3.31865e-17)
(97.0539 -4.1763 -3.72006e-17)
(96.6924 -5.93651 -4.36065e-17)
(96.4814 -7.80589 -5.05388e-17)
(96.0043 -9.63062 -5.69261e-17)
(95.1233 -11.3565 -6.24822e-17)
(93.7648 -12.9754 -6.539e-17)
(91.8405 -14.4496 -6.37961e-17)
(89.2902 -15.6782 -5.71167e-17)
(86.0399 -16.6145 -4.34771e-17)
(82.0079 -17.2421 -2.30723e-17)
(77.158 -17.5492 2.75954e-18)
(71.4617 -17.561 3.21756e-17)
(64.9035 -17.3126 6.23207e-17)
(57.444 -16.8519 8.3684e-17)
(49.0334 -16.1778 6.9813e-17)
(37.1336 -14.6327 -1.44844e-16)
(26.6253 -13.1608 -1.91939e-16)
(16.8418 -11.6835 -2.47091e-16)
(8.1713 -10.2673 -1.97291e-16)
(-0.176642 -8.85904 -1.03799e-16)
(-9.46921 -6.90092 6.03286e-17)
(-27.8159 -1.69317 -1.45815e-15)
(-34.0846 0.0471946 -3.06681e-15)
(-40.0363 1.42281 -4.59858e-15)
(-43.1856 1.84765 -5.76517e-15)
(-45.0801 1.93101 -6.61713e-15)
(-46.0086 1.65409 -7.11166e-15)
(-46.3597 1.21734 -7.36937e-15)
(-46.5988 0.809033 -7.50836e-15)
(-46.5629 0.535779 -7.39375e-15)
(-46.5026 0.378058 -7.20067e-15)
(-46.4677 0.361806 -6.93516e-15)
(-46.4082 0.481598 -6.57841e-15)
(-46.2952 0.734508 -6.14835e-15)
(-46.0695 1.13957 -5.63791e-15)
(-45.67 1.70207 -5.08788e-15)
(-45.0354 2.43694 -4.56049e-15)
(-44.1233 3.36004 -4.06141e-15)
(-42.8933 4.4784 -3.56577e-15)
(-41.2924 5.80305 -3.10824e-15)
(-39.2605 7.31976 -2.72409e-15)
(-36.7577 8.98164 -2.39411e-15)
(-33.7659 10.712 -2.20033e-15)
(-30.3026 12.3879 -1.96481e-15)
(-26.4231 13.856 -1.77245e-15)
(-22.2247 14.9665 -1.6522e-15)
(-17.8321 15.6081 -1.5234e-15)
(-13.3964 15.7233 -1.33251e-15)
(-9.07517 15.3006 -1.38187e-15)
(110.882 0.144871 -2.38775e-16)
(108.579 -0.550108 -2.29431e-16)
(106.067 -1.8006 -2.20904e-16)
(101.982 -3.17837 -1.95084e-16)
(97.1924 -4.55144 -1.66332e-16)
(92.05 -5.83448 -1.35838e-16)
(86.0894 -7.04188 -9.70916e-17)
(78.7952 -8.15167 -3.54223e-17)
(70.7069 -9.0527 4.24694e-17)
(62.0337 -9.69851 1.30407e-16)
(52.6639 -10.0593 2.24356e-16)
(42.7196 -10.1007 3.15315e-16)
(32.2 -9.80258 3.84694e-16)
(21.0579 -9.12893 4.13267e-16)
(8.9757 -7.99811 3.39318e-16)
(-4.70532 -6.02379 -3.81006e-17)
(-37.918 0.0269677 -1.94613e-15)
(-46.2315 1.41499 -2.22556e-15)
(-52.5058 2.31853 -2.41693e-15)
(-54.9796 2.3466 -2.30937e-15)
(-57.2255 2.42077 -2.19916e-15)
(-58.5054 2.43017 -2.05347e-15)
(-58.9646 2.31283 -1.92367e-15)
(-58.8008 2.0198 -1.82272e-15)
(-58.5945 1.68455 -1.77354e-15)