/*--------------------------------*- C++ -*----------------------------------*\
  =========                 |
  \\      /  F ield         | OpenFOAM: The Open Source CFD Toolbox
   \\    /   O peration     | Website:  https://openfoam.org
    \\  /    A nd           | Version:  8
     \\/     M anipulation  |
\*---------------------------------------------------------------------------*/
FoamFile
{
    version     2.0;
    format      ascii;
    class       volScalarField;
    location    "400";
    object      k;
}
// * * * * * * * * * * * * * * * * * * * * * * * * * * * * * * * * * * * * * //

dimensions      [0 2 -2 0 0 0 0];

internalField   nonuniform List<scalar> 
8400
(
0.00265314
0.00255443
0.00246375
0.00237897
0.00229876
0.00222288
0.00215133
0.00208614
0.00202971
0.00198214
0.00194282
0.00191076
0.00188458
0.0018627
0.00184348
0.00182509
0.00180762
0.00179097
0.00177644
0.00176602
0.0017617
0.00176475
0.00177365
0.00178241
0.00178468
0.00177968
0.0017711
0.00176275
0.001756
0.00174862
0.00173661
0.00171865
0.00169451
0.00166406
0.0016277
0.00158609
0.00153993
0.00148992
0.00143661
0.00138041
0.0013216
0.00126035
0.0011969
0.00113158
0.00106499
0.000998204
0.000932827
0.000871016
0.000815242
0.000767949
0.00186682
0.00179316
0.00171256
0.00163439
0.00156194
0.0014976
0.00143831
0.00138081
0.00132425
0.00127159
0.00122674
0.00119309
0.00117318
0.00116855
0.00117917
0.00120372
0.00123625
0.00127324
0.00130931
0.00133854
0.00135654
0.00136428
0.00136935
0.00138123
0.00140081
0.00142463
0.00144716
0.00146278
0.00146882
0.00146932
0.00146818
0.00146568
0.00146162
0.0014566
0.00145058
0.00144316
0.00143375
0.00142164
0.00140606
0.00138618
0.00136108
0.00132968
0.00129074
0.00124303
0.00118535
0.00111686
0.00103749
0.000948194
0.000851373
0.000750821
0.00220958
0.00210214
0.00200951
0.00194569
0.00189604
0.00184315
0.00178943
0.00173737
0.00168928
0.0016479
0.00161646
0.0015985
0.0015971
0.00161378
0.00164706
0.00168077
0.00171702
0.00174956
0.00176732
0.00175627
0.00169965
0.00162843
0.00157616
0.00156866
0.00158566
0.00161166
0.00163383
0.00163939
0.00162742
0.00163146
0.00163714
0.00164166
0.00164457
0.00164564
0.00164523
0.00164345
0.00164025
0.00163543
0.00162863
0.00161932
0.00160678
0.00159
0.00156768
0.00153809
0.0014993
0.00144924
0.00138602
0.00130831
0.00121584
0.00110978
0.00299038
0.00297899
0.00296709
0.00294994
0.00291775
0.00286581
0.00279057
0.00269532
0.00259555
0.0025111
0.00245378
0.00242822
0.0024377
0.00248433
0.0025319
0.00257138
0.00259981
0.00261567
0.00262077
0.00261011
0.00224803
0.00193625
0.00177113
0.00176116
0.00179943
0.0018489
0.00188083
0.00183466
0.00168589
0.00168344
0.00168731
0.00168912
0.0016991
0.00170614
0.00171105
0.00171442
0.00171672
0.00171815
0.00171868
0.0017182
0.00171635
0.00171249
0.00170562
0.0016943
0.0016766
0.00165026
0.00161283
0.00156202
0.00149606
0.00141401
0.00299572
0.00299104
0.00298607
0.0029805
0.00297358
0.00296414
0.00295105
0.00293423
0.00291585
0.00289976
0.00288947
0.00288631
0.00288892
0.00289329
0.00289587
0.00289682
0.00289606
0.00289348
0.00288812
0.00287888
0.00286239
0.00282738
0.00277161
0.00270906
0.00265165
0.00261406
0.00257372
0.00247325
0.00172496
0.00173423
0.00174216
0.00167746
0.00169341
0.0017055
0.00171527
0.00172274
0.00172898
0.00173471
0.00174007
0.00174521
0.00175041
0.00175545
0.00175976
0.00176224
0.00176115
0.00175425
0.00173896
0.00171286
0.0016739
0.00162059
0.00299384
0.00298716
0.00298061
0.00297424
0.00296796
0.00296152
0.00295466
0.00294724
0.0029395
0.00293194
0.00292493
0.0029184
0.00291199
0.00290538
0.00289858
0.00289183
0.0028854
0.00287946
0.00287388
0.00286814
0.0028611
0.00284997
0.00283074
0.00280229
0.00276624
0.00272589
0.00267991
0.0026161
0.00247294
0.00243316
0.0021726
0.00164785
0.00165873
0.00166973
0.00168489
0.00169558
0.00170527
0.00171417
0.00172301
0.00173213
0.00174157
0.00175269
0.00176532
0.00177858
0.00179067
0.00179909
0.00180107
0.00179409
0.00177621
0.0017461
0.00299377
0.00298686
0.00297983
0.00297275
0.00296566
0.0029586
0.00295155
0.00294445
0.00293728
0.00293003
0.0029227
0.00291525
0.00290764
0.00289986
0.00289195
0.00288396
0.00287602
0.0028684
0.0028613
0.0028548
0.00284867
0.00284189
0.00283241
0.00281796
0.00279702
0.00276905
0.00273319
0.00268632
0.0026131
0.00254273
0.00241834
0.00223027
0.00207349
0.00161532
0.00163585
0.00165094
0.00166219
0.00167181
0.0016818
0.00169332
0.00170642
0.0017217
0.00174133
0.00176434
0.0017884
0.00181017
0.00182635
0.00183432
0.00183229
0.00181916
0.00299265
0.00298449
0.00297628
0.00296809
0.00295998
0.00295196
0.002944
0.00293606
0.00292808
0.00291998
0.00291171
0.00290322
0.00289453
0.00288568
0.00287673
0.00286784
0.00285919
0.00285096
0.00284338
0.00283664
0.00283077
0.0028254
0.00281953
0.00281145
0.00279929
0.00278142
0.00275627
0.00272192
0.00267237
0.00261216
0.00252764
0.00240708
0.00226686
0.00202704
0.00176971
0.00160467
0.00161298
0.00161887
0.00162616
0.0016369
0.00165255
0.00167057
0.00169758
0.00173156
0.00176858
0.00180341
0.00183215
0.00185239
0.00186263
0.00186206
0.00299128
0.00298137
0.00297145
0.00296159
0.00295186
0.00294228
0.00293284
0.00292346
0.00291408
0.00290458
0.00289489
0.00288497
0.00287484
0.00286459
0.00285437
0.00284435
0.00283483
0.00282607
0.00281833
0.0028118
0.00280659
0.00280249
0.00279887
0.00279459
0.00278804
0.00277739
0.00276083
0.00273645
0.00270079
0.00265334
0.00258915
0.00250044
0.00238843
0.00222239
0.0020112
0.00179415
0.0016288
0.00156765
0.00156192
0.00156199
0.00157358
0.00160045
0.00163886
0.00168851
0.00174174
0.00179023
0.00183034
0.00186059
0.00188026
0.001889
0.00298893
0.00297606
0.00296336
0.00295093
0.00293881
0.002927
0.00291547
0.00290411
0.00289283
0.00288143
0.00286987
0.00285806
0.00284606
0.002834
0.00282215
0.00281083
0.00280043
0.00279135
0.00278393
0.00277836
0.00277463
0.00277253
0.00277151
0.00277061
0.00276846
0.0027634
0.0027536
0.00273719
0.00271161
0.00267515
0.00262497
0.00255623
0.00246694
0.00234255
0.00217968
0.00199092
0.00180623
0.00166724
0.00158128
0.00151599
0.00146552
0.00150585
0.00157459
0.00164746
0.00171965
0.00178119
0.00183044
0.00186788
0.00189398
0.00190915
0.00298479
0.00296639
0.00294889
0.00293226
0.00291657
0.00290161
0.00288729
0.0028734
0.0028597
0.00284597
0.00283209
0.00281796
0.00280366
0.00278943
0.00277574
0.0027631
0.00275211
0.00274347
0.00273747
0.00273427
0.00273365
0.00273508
0.00273782
0.00274089
0.00274308
0.00274289
0.0027387
0.00272874
0.00271093
0.00268343
0.00264407
0.00258962
0.00251784
0.00242106
0.00229504
0.0021439
0.00198337
0.00183786
0.00172216
0.00163301
0.00157061
0.00153948
0.00156702
0.00164291
0.00172231
0.00178894
0.00184158
0.00188173
0.00191046
0.00192871
0.00297645
0.00294639
0.00292044
0.0028975
0.00287695
0.00285832
0.00284096
0.00282456
0.00280854
0.00279263
0.00277639
0.00275987
0.00274323
0.00272683
0.0027116
0.00269837
0.00268828
0.00268207
0.00267989
0.00268149
0.00268608
0.00269274
0.00270041
0.00270808
0.00271462
0.00271879
0.00271921
0.00271443
0.00270266
0.00268223
0.00265138
0.0026078
0.00254962
0.00247263
0.00237388
0.00225514
0.00212542
0.00199943
0.00188984
0.00180271
0.00174323
0.00171697
0.00171584
0.00174447
0.00178856
0.00183518
0.00187696
0.00191085
0.00193604
0.00195266
0.00292832
0.00288464
0.00285182
0.00282574
0.00280372
0.00278463
0.00276708
0.00275079
0.00273443
0.00271784
0.00270078
0.00268324
0.00266562
0.00264895
0.00263455
0.00262365
0.00261747
0.0026168
0.00262115
0.00262932
0.00264015
0.00265237
0.00266475
0.00267644
0.00268651
0.00269402
0.00269788
0.00269686
0.00268952
0.00267442
0.00265012
0.0026149
0.0025674
0.00250526
0.00242689
0.00233364
0.00223131
0.0021294
0.00203739
0.00196219
0.00190894
0.00188054
0.00186925
0.00187552
0.00189331
0.0019163
0.00193959
0.00195998
0.00197568
0.00198587
0.0028103
0.00276314
0.00272984
0.00270544
0.00268571
0.00266849
0.00265274
0.00263786
0.00262322
0.00260842
0.00259336
0.00257906
0.00256585
0.0025554
0.00254951
0.00254879
0.0025533
0.00256221
0.00257439
0.00258861
0.00260406
0.00261963
0.0026347
0.00264902
0.00266175
0.00267097
0.00267667
0.00267785
0.00267338
0.00266196
0.00264244
0.00261358
0.00257441
0.00252367
0.00246083
0.00238726
0.00230712
0.00222686
0.00215317
0.00209153
0.00204571
0.00201722
0.00200245
0.00199698
0.00199884
0.00200493
0.0020125
0.00201942
0.00202426
0.00202607
0.00253494
0.00251147
0.00249819
0.00249047
0.00248523
0.00248092
0.00247702
0.0024735
0.00247045
0.00246824
0.00246708
0.00246781
0.00247103
0.00247731
0.002487
0.00249954
0.00251417
0.00253017
0.00254681
0.00256367
0.00258035
0.00259649
0.00261179
0.00262608
0.00263873
0.00264847
0.00265518
0.00265795
0.00265497
0.00264577
0.00262954
0.00260536
0.00257263
0.00253081
0.00248003
0.00242174
0.00235909
0.00229656
0.00223871
0.00218929
0.00215073
0.00212385
0.00210784
0.00209639
0.00208915
0.00208457
0.00208119
0.00207785
0.00207362
0.0020679
0.0023055
0.00231078
0.00231895
0.00232858
0.00233877
0.00234919
0.00235975
0.00237055
0.00238175
0.00239358
0.00240619
0.00241977
0.00243437
0.00244995
0.00246629
0.00248312
0.00250008
0.00251691
0.00253338
0.00254936
0.00256473
0.00257938
0.00259315
0.00260584
0.00261699
0.00262594
0.00263229
0.00263529
0.00263365
0.00262657
0.00261153
0.00259079
0.00256308
0.00252833
0.0024871
0.00244085
0.00239199
0.0023436
0.0022986
0.00225934
0.00222725
0.00220271
0.00218511
0.00217079
0.00215875
0.00214806
0.00213798
0.00212796
0.00211764
0.00210685
0.00226582
0.00227957
0.00229345
0.0023073
0.00232108
0.00233484
0.00234865
0.00236261
0.00237677
0.00239121
0.00240592
0.00242088
0.00243606
0.00245135
0.00246658
0.0024817
0.00249654
0.00251099
0.00252499
0.00253846
0.0025513
0.00256345
0.00257476
0.00258505
0.00259402
0.0026012
0.00260622
0.00260848
0.00260705
0.00260119
0.00258938
0.00256996
0.00254574
0.00251674
0.00248326
0.00244671
0.00240886
0.00237166
0.00233686
0.00230578
0.00227917
0.00225714
0.00223927
0.00222366
0.002209
0.00219481
0.00218093
0.00216739
0.00215436
0.00214206
0.00226084
0.00227646
0.00229196
0.00230725
0.00232234
0.00233718
0.0023518
0.00236624
0.00238049
0.00239456
0.00240848
0.00242223
0.00243579
0.00244912
0.00246218
0.00247491
0.00248725
0.00249917
0.00251059
0.00252147
0.00253175
0.00254131
0.00255006
0.00255784
0.00256444
0.00256957
0.00257286
0.00257392
0.00257217
0.00256693
0.00255741
0.00254272
0.00252001
0.00249509
0.00246809
0.00243957
0.00241062
0.00238233
0.00235557
0.00233098
0.00230887
0.00228925
0.0022718
0.00225568
0.00223992
0.00222484
0.00221108
0.00219931
0.00218992
0.00218302
0.00226687
0.00227726
0.00228743
0.00229762
0.00230806
0.00231896
0.00233049
0.00234267
0.00235545
0.00236861
0.00238192
0.00239516
0.00240813
0.00242073
0.00243284
0.00244443
0.00245544
0.00246585
0.00247562
0.00248473
0.00249312
0.00250075
0.00250752
0.00251336
0.00251812
0.00252161
0.0025236
0.00252381
0.00252189
0.00251744
0.00251014
0.00249951
0.00248453
0.00245858
0.00243782
0.00241627
0.00239477
0.00237375
0.00235346
0.00233415
0.00231592
0.00229871
0.00228232
0.00226667
0.00225741
0.00225461
0.00225772
0.00226591
0.002278
0.0022925
0.00487195
0.00475462
0.00463397
0.00451142
0.00438859
0.00426703
0.00414818
0.00403324
0.00392317
0.00381867
0.00372015
0.00362768
0.0035411
0.00346006
0.00338412
0.00331278
0.00324557
0.00318206
0.00312182
0.00306453
0.00300986
0.00295754
0.00290735
0.00285912
0.00281267
0.00276786
0.0027245
0.00268232
0.00264112
0.00260063
0.00256061
0.00252106
0.00248228
0.00244259
0.00244447
0.00245707
0.00247627
0.00249965
0.00252596
0.00255492
0.00258686
0.00262245
0.00266253
0.00270779
0.00275261
0.00279681
0.00284026
0.00288256
0.00292318
0.00296154
2.38382e-05
2.36349e-05
2.34385e-05
2.32483e-05
2.30627e-05
2.28783e-05
2.26943e-05
2.25101e-05
2.23247e-05
2.21375e-05
2.19482e-05
2.17567e-05
2.15633e-05
2.13688e-05
2.11745e-05
2.0982e-05
2.07929e-05
2.06089e-05
2.04317e-05
2.02621e-05
2.00554e-05
1.9859e-05
1.9677e-05
1.9506e-05
1.93417e-05
1.91825e-05
1.90271e-05
1.88744e-05
1.87223e-05
1.85692e-05
1.84147e-05
1.82595e-05
1.81048e-05
1.79524e-05
1.78041e-05
1.76615e-05
1.75255e-05
1.73968e-05
1.72752e-05
1.71602e-05
1.70508e-05
1.6945e-05
1.68415e-05
1.67392e-05
1.66345e-05
1.65271e-05
1.64171e-05
1.63042e-05
1.61871e-05
1.60629e-05
2.32442e-05
2.22109e-05
2.12466e-05
2.03453e-05
1.95061e-05
1.8726e-05
1.79984e-05
1.73174e-05
1.66775e-05
1.6074e-05
1.55029e-05
1.49613e-05
1.44471e-05
1.39591e-05
1.34968e-05
1.30601e-05
1.26491e-05
1.2264e-05
1.19043e-05
1.15699e-05
1.13676e-05
1.12296e-05
1.13158e-05
1.13586e-05
1.1377e-05
1.13809e-05
1.13743e-05
1.13584e-05
1.13357e-05
1.13094e-05
1.12824e-05
1.12569e-05
1.12342e-05
1.12152e-05
1.11997e-05
1.11873e-05
1.11771e-05
1.11676e-05
1.11571e-05
1.11438e-05
1.11259e-05
1.11023e-05
1.10722e-05
1.10349e-05
1.09928e-05
1.09455e-05
1.08929e-05
1.0835e-05
1.07717e-05
1.07023e-05
2.32404e-05
2.21967e-05
2.12167e-05
2.0299e-05
1.94397e-05
1.86344e-05
1.7878e-05
1.71656e-05
1.64926e-05
1.58552e-05
1.525e-05
1.46745e-05
1.41268e-05
1.36058e-05
1.31107e-05
1.2641e-05
1.21966e-05
1.17768e-05
1.14005e-05
1.1323e-05
1.12439e-05
1.1163e-05
1.10846e-05
1.1008e-05
1.09334e-05
1.08609e-05
1.07898e-05
1.07193e-05
1.06487e-05
1.05776e-05
1.05061e-05
1.04348e-05
1.03646e-05
1.02962e-05
1.02306e-05
1.01681e-05
1.01089e-05
1.00529e-05
9.99938e-06
9.94738e-06
9.89578e-06
9.84358e-06
9.78998e-06
9.73445e-06
9.67675e-06
9.61687e-06
9.5549e-06
9.49099e-06
9.42526e-06
9.35789e-06
2.324e-05
2.22031e-05
2.12314e-05
2.03211e-05
1.94683e-05
1.86677e-05
1.79144e-05
1.72036e-05
1.6531e-05
1.5893e-05
1.52865e-05
1.4709e-05
1.41591e-05
1.36356e-05
1.31378e-05
1.26655e-05
1.22183e-05
1.17956e-05
1.14155e-05
1.12792e-05
1.11785e-05
1.1096e-05
1.10209e-05
1.09486e-05
1.0877e-05
1.08051e-05
1.07325e-05
1.06585e-05
1.05825e-05
1.05046e-05
1.04248e-05
1.03438e-05
1.02626e-05
1.01822e-05
1.01037e-05
1.00276e-05
9.95454e-06
9.88426e-06
9.81628e-06
9.74982e-06
9.68399e-06
9.61792e-06
9.55093e-06
9.48258e-06
9.41269e-06
9.34133e-06
9.26867e-06
9.195e-06
9.12061e-06
9.04583e-06
2.32397e-05
2.22025e-05
2.12305e-05
2.03198e-05
1.94662e-05
1.86648e-05
1.79105e-05
1.71989e-05
1.65254e-05
1.58865e-05
1.52791e-05
1.47011e-05
1.41507e-05
1.3627e-05
1.31294e-05
1.26575e-05
1.22111e-05
1.17895e-05
1.14113e-05
1.1275e-05
1.1175e-05
1.10929e-05
1.10177e-05
1.09451e-05
1.08733e-05
1.08011e-05
1.0728e-05
1.06533e-05
1.05766e-05
1.04977e-05
1.04169e-05
1.0335e-05
1.02528e-05
1.01714e-05
1.00919e-05
1.00147e-05
9.94029e-06
9.86844e-06
9.79863e-06
9.73009e-06
9.66193e-06
9.59333e-06
9.52364e-06
9.45246e-06
9.37964e-06
9.30525e-06
9.22955e-06
9.15288e-06
9.07559e-06
8.99801e-06
2.32395e-05
2.22022e-05
2.12317e-05
2.03231e-05
1.94717e-05
1.86724e-05
1.792e-05
1.72097e-05
1.65372e-05
1.58988e-05
1.52915e-05
1.47133e-05
1.41627e-05
1.36388e-05
1.31412e-05
1.26695e-05
1.22234e-05
1.18013e-05
1.14641e-05
1.11997e-05
1.11709e-05
1.11151e-05
1.10462e-05
1.09718e-05
1.08956e-05
1.08189e-05
1.0742e-05
1.06643e-05
1.05854e-05
1.0505e-05
1.04233e-05
1.03408e-05
1.02584e-05
1.01771e-05
1.00977e-05
1.00207e-05
9.94647e-06
9.87467e-06
9.80476e-06
9.73594e-06
9.66731e-06
9.59807e-06
9.52758e-06
9.45546e-06
9.38158e-06
9.30602e-06
9.22906e-06
9.15106e-06
9.0724e-06
8.99344e-06
2.32392e-05
2.22016e-05
2.12316e-05
2.03238e-05
1.94731e-05
1.86742e-05
1.79218e-05
1.72111e-05
1.65378e-05
1.58983e-05
1.52898e-05
1.47104e-05
1.41588e-05
1.36342e-05
1.31361e-05
1.26644e-05
1.22186e-05
1.17971e-05
1.14623e-05
1.11953e-05
1.1161e-05
1.10999e-05
1.10275e-05
1.0952e-05
1.0877e-05
1.08032e-05
1.073e-05
1.06562e-05
1.0581e-05
1.05037e-05
1.04246e-05
1.03442e-05
1.02634e-05
1.01833e-05
1.01047e-05
1.00284e-05
9.95444e-06
9.88272e-06
9.81268e-06
9.74351e-06
9.67435e-06
9.60441e-06
9.53313e-06
9.46014e-06
9.38534e-06
9.30884e-06
9.23091e-06
9.15191e-06
9.07223e-06
8.99225e-06
2.32389e-05
2.22008e-05
2.12313e-05
2.03244e-05
1.94747e-05
1.86766e-05
1.79248e-05
1.72144e-05
1.6541e-05
1.59011e-05
1.52922e-05
1.47123e-05
1.41603e-05
1.36355e-05
1.31375e-05
1.26661e-05
1.2221e-05
1.18005e-05
1.14667e-05
1.12005e-05
1.11665e-05
1.11052e-05
1.10322e-05
1.09561e-05
1.08803e-05
1.08056e-05
1.07316e-05
1.06569e-05
1.05809e-05
1.0503e-05
1.04235e-05
1.03429e-05
1.02622e-05
1.01823e-05
1.01042e-05
1.00282e-05
9.95472e-06
9.88335e-06
9.81351e-06
9.74436e-06
9.67506e-06
9.60487e-06
9.53323e-06
9.45983e-06
9.38458e-06
9.30759e-06
9.22912e-06
9.14954e-06
9.06925e-06
8.98866e-06
2.32386e-05
2.21999e-05
2.12307e-05
2.03246e-05
1.94757e-05
1.86783e-05
1.79267e-05
1.72161e-05
1.65422e-05
1.59016e-05
1.52917e-05
1.47109e-05
1.41581e-05
1.36327e-05
1.31345e-05
1.26632e-05
1.22186e-05
1.17988e-05
1.14662e-05
1.12013e-05
1.11691e-05
1.11095e-05
1.10377e-05
1.0962e-05
1.08859e-05
1.08101e-05
1.07342e-05
1.06575e-05
1.05791e-05
1.0499e-05
1.04176e-05
1.03354e-05
1.02535e-05
1.01729e-05
1.00942e-05
1.00181e-05
9.94452e-06
9.87315e-06
9.8033e-06
9.73413e-06
9.66483e-06
9.59469e-06
9.52317e-06
9.44997e-06
9.37498e-06
9.29828e-06
9.22011e-06
9.14078e-06
9.06068e-06
8.98025e-06
2.32382e-05
2.2199e-05
2.12303e-05
2.0325e-05
1.94769e-05
1.86801e-05
1.79288e-05
1.72181e-05
1.65438e-05
1.59025e-05
1.52919e-05
1.47104e-05
1.4157e-05
1.36313e-05
1.31331e-05
1.26622e-05
1.22182e-05
1.17992e-05
1.14678e-05
1.12089e-05
1.11861e-05
1.11362e-05
1.10722e-05
1.10014e-05
1.09271e-05
1.08505e-05
1.0772e-05
1.06914e-05
1.06088e-05
1.05245e-05
1.04391e-05
1.03535e-05
1.02686e-05
1.01854e-05
1.01045e-05
1.00263e-05
9.95083e-06
9.87757e-06
9.80586e-06
9.7349e-06
9.66395e-06
9.59233e-06
9.51959e-06
9.4454e-06
9.36966e-06
9.29243e-06
9.21386e-06
9.13424e-06
9.05391e-06
8.97328e-06
2.32379e-05
2.21984e-05
2.12301e-05
2.03257e-05
1.94785e-05
1.86821e-05
1.7931e-05
1.72201e-05
1.65452e-05
1.59033e-05
1.52918e-05
1.47095e-05
1.41555e-05
1.36295e-05
1.31312e-05
1.26607e-05
1.22173e-05
1.17991e-05
1.14686e-05
1.12108e-05
1.11894e-05
1.11407e-05
1.10779e-05
1.10077e-05
1.09334e-05
1.08566e-05
1.07774e-05
1.0696e-05
1.06127e-05
1.05278e-05
1.0442e-05
1.03562e-05
1.02713e-05
1.01881e-05
1.01073e-05
1.0029e-05
9.9532e-06
9.87937e-06
9.80691e-06
9.73508e-06
9.66321e-06
9.59075e-06
9.51725e-06
9.44248e-06
9.36631e-06
9.2888e-06
9.21003e-06
9.13021e-06
9.04963e-06
8.96872e-06
2.32376e-05
2.21981e-05
2.12305e-05
2.03269e-05
1.94803e-05
1.86843e-05
1.79331e-05
1.72218e-05
1.65463e-05
1.59035e-05
1.52912e-05
1.47081e-05
1.41535e-05
1.36272e-05
1.3129e-05
1.26588e-05
1.22159e-05
1.17983e-05
1.14675e-05
1.12104e-05
1.1188e-05
1.11393e-05
1.10765e-05
1.10064e-05
1.0932e-05
1.08547e-05
1.07752e-05
1.06935e-05
1.06099e-05
1.05251e-05
1.04395e-05
1.03542e-05
1.02699e-05
1.01873e-05
1.0107e-05
1.0029e-05
9.95323e-06
9.87916e-06
9.80624e-06
9.73382e-06
9.66133e-06
9.58827e-06
9.51431e-06
9.43924e-06
9.36296e-06
9.28544e-06
9.20671e-06
9.12687e-06
9.04614e-06
8.96495e-06
2.32374e-05
2.21982e-05
2.12314e-05
2.03284e-05
1.94822e-05
1.86863e-05
1.7935e-05
1.72233e-05
1.65472e-05
1.59038e-05
1.52909e-05
1.47073e-05
1.41525e-05
1.36262e-05
1.31284e-05
1.26586e-05
1.22165e-05
1.18009e-05
1.14123e-05
1.13197e-05
1.12341e-05
1.11527e-05
1.10741e-05
1.09971e-05
1.09204e-05
1.0843e-05
1.07643e-05
1.06838e-05
1.06016e-05
1.05181e-05
1.04339e-05
1.03499e-05
1.02668e-05
1.01853e-05
1.01057e-05
1.00282e-05
9.95251e-06
9.87822e-06
9.80482e-06
9.73179e-06
9.65865e-06
9.58503e-06
9.5107e-06
9.43549e-06
9.35929e-06
9.28197e-06
9.20345e-06
9.12372e-06
9.04295e-06
8.96155e-06
2.32374e-05
2.21987e-05
2.12324e-05
2.03298e-05
1.94836e-05
1.86874e-05
1.79355e-05
1.7223e-05
1.65459e-05
1.59014e-05
1.52875e-05
1.47031e-05
1.41478e-05
1.36213e-05
1.31234e-05
1.2654e-05
1.22122e-05
1.17971e-05
1.14082e-05
1.13175e-05
1.12322e-05
1.11503e-05
1.1071e-05
1.09933e-05
1.09159e-05
1.08379e-05
1.07587e-05
1.0678e-05
1.05959e-05
1.05127e-05
1.04291e-05
1.03459e-05
1.02637e-05
1.01829e-05
1.01038e-05
1.00266e-05
9.95078e-06
9.87616e-06
9.80223e-06
9.72858e-06
9.65487e-06
9.58087e-06
9.50642e-06
9.43137e-06
9.35555e-06
9.27874e-06
9.20072e-06
9.12136e-06
9.0408e-06
8.95943e-06
2.32375e-05
2.21993e-05
2.12334e-05
2.03311e-05
1.94851e-05
1.8689e-05
1.7937e-05
1.72243e-05
1.6547e-05
1.59023e-05
1.52883e-05
1.4704e-05
1.41488e-05
1.36227e-05
1.31254e-05
1.26566e-05
1.22157e-05
1.18013e-05
1.14138e-05
1.13229e-05
1.12391e-05
1.11571e-05
1.10768e-05
1.09976e-05
1.09186e-05
1.08391e-05
1.07586e-05
1.06769e-05
1.05942e-05
1.05108e-05
1.04274e-05
1.03446e-05
1.02627e-05
1.01824e-05
1.01036e-05
1.00263e-05
9.95029e-06
9.87522e-06
9.80074e-06
9.72656e-06
9.65247e-06
9.57837e-06
9.50414e-06
9.42963e-06
9.35457e-06
9.27864e-06
9.20151e-06
9.12297e-06
9.04306e-06
8.96219e-06
2.32377e-05
2.21996e-05
2.12332e-05
2.03299e-05
1.94825e-05
1.86847e-05
1.79308e-05
1.72162e-05
1.6537e-05
1.58906e-05
1.52753e-05
1.46901e-05
1.41344e-05
1.36081e-05
1.3111e-05
1.26427e-05
1.22023e-05
1.17875e-05
1.14582e-05
1.12044e-05
1.11829e-05
1.11334e-05
1.10688e-05
1.09961e-05
1.09188e-05
1.08387e-05
1.07568e-05
1.06737e-05
1.05899e-05
1.05061e-05
1.04226e-05
1.034e-05
1.02587e-05
1.01789e-05
1.01007e-05
1.00238e-05
9.94817e-06
9.87334e-06
9.79913e-06
9.72538e-06
9.65202e-06
9.57899e-06
9.50622e-06
9.43349e-06
9.36051e-06
9.28687e-06
9.21213e-06
9.13604e-06
9.05863e-06
8.98036e-06
2.32379e-05
2.22003e-05
2.12349e-05
2.0333e-05
1.9487e-05
1.86903e-05
1.79371e-05
1.72229e-05
1.65438e-05
1.58974e-05
1.52819e-05
1.46965e-05
1.41407e-05
1.36144e-05
1.31174e-05
1.26492e-05
1.2209e-05
1.17953e-05
1.14083e-05
1.13166e-05
1.12306e-05
1.11487e-05
1.10688e-05
1.09898e-05
1.09106e-05
1.08309e-05
1.07504e-05
1.06692e-05
1.05877e-05
1.05062e-05
1.04252e-05
1.03451e-05
1.02662e-05
1.01888e-05
1.01129e-05
1.00383e-05
9.96487e-06
9.89248e-06
9.82105e-06
9.75059e-06
9.68112e-06
9.61264e-06
9.54508e-06
9.47827e-06
9.41185e-06
9.34536e-06
9.27833e-06
9.21051e-06
9.14206e-06
9.07371e-06
2.32381e-05
2.2194e-05
2.1221e-05
2.0312e-05
1.94598e-05
1.86582e-05
1.79015e-05
1.7185e-05
1.65048e-05
1.58583e-05
1.52437e-05
1.46599e-05
1.41064e-05
1.35829e-05
1.30891e-05
1.26243e-05
1.21876e-05
1.17771e-05
1.14094e-05
1.12839e-05
1.11934e-05
1.11203e-05
1.10516e-05
1.09832e-05
1.09168e-05
1.08506e-05
1.07838e-05
1.07117e-05
1.06382e-05
1.05696e-05
1.0503e-05
1.04381e-05
1.03746e-05
1.03123e-05
1.02512e-05
1.01915e-05
1.01331e-05
1.00763e-05
1.00212e-05
9.96792e-06
9.91662e-06
9.86728e-06
9.81976e-06
9.77375e-06
9.7288e-06
9.68428e-06
9.63966e-06
9.59475e-06
9.55008e-06
9.5071e-06
2.32414e-05
2.22067e-05
2.12484e-05
2.03549e-05
1.9521e-05
1.87442e-05
1.8017e-05
1.73332e-05
1.66878e-05
1.60772e-05
1.54986e-05
1.49504e-05
1.44318e-05
1.39425e-05
1.34822e-05
1.30506e-05
1.26472e-05
1.22709e-05
1.19198e-05
1.15936e-05
1.132e-05
1.12923e-05
1.1242e-05
1.11831e-05
1.12182e-05
1.12619e-05
1.12996e-05
1.12373e-05
1.11595e-05
1.11699e-05
1.11932e-05
1.12165e-05
1.1234e-05
1.12437e-05
1.12459e-05
1.12417e-05
1.12325e-05
1.12199e-05
1.12051e-05
1.11891e-05
1.11728e-05
1.11566e-05
1.11408e-05
1.11251e-05
1.11093e-05
1.10924e-05
1.10739e-05
1.10537e-05
1.1033e-05
1.10148e-05
2.38412e-05
2.36359e-05
2.34398e-05
2.32516e-05
2.30679e-05
2.28817e-05
2.26926e-05
2.25006e-05
2.23061e-05
2.211e-05
2.19136e-05
2.17185e-05
2.1526e-05
2.13375e-05
2.11541e-05
2.09764e-05
2.08048e-05
2.06389e-05
2.04785e-05
2.03226e-05
2.01568e-05
1.99858e-05
1.98127e-05
1.96397e-05
1.94275e-05
1.92313e-05
1.90472e-05
1.89097e-05
1.87648e-05
1.85806e-05
1.84093e-05
1.82481e-05
1.80945e-05
1.79465e-05
1.78024e-05
1.76611e-05
1.75219e-05
1.73844e-05
1.72488e-05
1.71152e-05
1.69839e-05
1.68552e-05
1.67292e-05
1.66054e-05
1.64833e-05
1.6362e-05
1.62407e-05
1.61186e-05
1.59952e-05
1.58702e-05
0.00011087
3.13666e-05
3.11754e-05
2.70125e-05
2.01909e-05
1.41865e-05
1.13594e-05
9.82925e-06
8.67884e-06
7.80667e-06
7.37808e-06
7.44567e-06
8.26056e-06
9.39979e-06
1.0582e-05
1.17788e-05
1.45616e-05
1.84183e-05
2.51933e-05
0.000125886
0.000107868
3.12978e-05
3.1285e-05
2.71189e-05
2.02739e-05
1.42422e-05
1.1356e-05
9.82375e-06
8.66895e-06
7.78853e-06
7.39657e-06
7.44618e-06
8.25017e-06
9.3845e-06
1.05767e-05
1.17641e-05
1.45407e-05
1.83843e-05
2.52722e-05
0.000129365
0.000104928
3.12245e-05
3.1396e-05
2.7223e-05
2.03512e-05
1.4291e-05
1.13484e-05
9.81418e-06
8.65498e-06
7.76475e-06
7.32646e-06
7.29958e-06
8.19098e-06
9.34349e-06
1.05486e-05
1.17067e-05
1.44657e-05
1.82933e-05
2.52881e-05
0.000132662
0.000102048
3.11493e-05
3.15081e-05
2.73257e-05
2.04246e-05
1.43345e-05
1.13375e-05
9.80293e-06
8.63866e-06
7.74163e-06
7.61216e-06
7.31091e-06
8.13695e-06
9.30281e-06
1.05204e-05
1.16494e-05
1.43911e-05
1.82035e-05
2.53103e-05
0.000136007
9.92254e-05
3.10743e-05
3.16219e-05
2.74275e-05
2.04943e-05
1.43731e-05
1.13182e-05
9.78895e-06
8.61684e-06
7.69554e-06
7.08824e-06
7.30298e-06
8.0891e-06
9.26608e-06
1.04942e-05
1.15934e-05
1.43175e-05
1.81153e-05
2.5339e-05
0.000139402
9.6461e-05
3.10005e-05
3.17375e-05
2.75288e-05
2.05608e-05
1.4407e-05
1.13357e-05
9.77461e-06
8.59848e-06
7.67918e-06
7.06265e-06
7.23482e-06
8.03888e-06
9.23095e-06
1.04699e-05
1.15393e-05
1.42457e-05
1.80291e-05
2.53742e-05
0.000142845
9.37533e-05
3.09282e-05
3.18548e-05
2.76295e-05
2.06241e-05
1.44362e-05
1.13586e-05
9.75476e-06
8.57155e-06
7.64475e-06
7.2081e-06
7.18638e-06
7.98997e-06
9.19637e-06
1.04456e-05
1.14859e-05
1.41752e-05
1.79449e-05
2.54159e-05
0.000146335
9.11009e-05
3.08573e-05
3.19728e-05
2.77292e-05
2.06845e-05
1.4462e-05
1.13462e-05
9.73281e-06
8.53987e-06
7.58864e-06
7.07257e-06
7.16678e-06
7.95018e-06
9.16539e-06
1.04221e-05
1.14324e-05
1.41047e-05
1.78613e-05
2.54631e-05
0.000149867
8.85012e-05
3.07887e-05
3.20912e-05
2.7827e-05
2.0741e-05
1.44835e-05
1.13294e-05
9.71011e-06
8.5088e-06
7.53526e-06
6.91786e-06
7.09968e-06
7.91176e-06
9.13743e-06
1.04002e-05
1.13797e-05
1.40345e-05
1.77778e-05
2.55149e-05
0.000153437
8.59521e-05
3.07242e-05
3.22103e-05
2.7924e-05
2.07952e-05
1.4502e-05
1.13071e-05
9.68493e-06
8.47616e-06
7.48304e-06
6.99812e-06
7.00297e-06
7.86673e-06
9.10749e-06
1.03774e-05
1.13271e-05
1.39645e-05
1.76947e-05
2.55713e-05
0.000157043
8.34524e-05
3.06656e-05
3.233e-05
2.8021e-05
2.08486e-05
1.45199e-05
1.12803e-05
9.65801e-06
8.44004e-06
7.41556e-06
6.967e-06
6.98503e-06
7.82652e-06
9.0777e-06
1.03533e-05
1.13064e-05
1.38945e-05
1.76119e-05
2.56327e-05
0.000160684
8.1003e-05
3.06158e-05
3.24509e-05
2.81183e-05
2.09021e-05
1.4539e-05
1.12507e-05
9.6316e-06
8.4044e-06
7.34354e-06
6.70089e-06
6.97664e-06
7.79215e-06
9.05043e-06
1.03308e-05
1.12896e-05
1.38224e-05
1.75297e-05
2.56994e-05
0.000164362
7.86046e-05
3.05774e-05
3.2574e-05
2.82171e-05
2.09569e-05
1.45598e-05
1.12217e-05
9.60625e-06
8.3713e-06
7.2829e-06
6.6656e-06
6.93416e-06
7.75809e-06
9.02449e-06
1.0309e-05
1.12743e-05
1.37514e-05
1.74484e-05
2.57719e-05
0.000168077
7.62575e-05
3.05512e-05
3.26989e-05
2.83181e-05
2.10149e-05
1.45846e-05
1.11948e-05
9.58123e-06
8.33642e-06
7.2113e-06
6.71266e-06
6.90079e-06
7.72606e-06
8.99954e-06
1.02876e-05
1.12599e-05
1.36818e-05
1.73685e-05
2.58505e-05
0.000171832
7.39617e-05
3.0538e-05
3.28248e-05
2.84212e-05
2.10776e-05
1.46164e-05
1.11731e-05
9.55994e-06
8.30336e-06
7.12967e-06
6.53566e-06
6.88812e-06
7.69894e-06
8.97628e-06
1.02663e-05
1.12456e-05
1.36129e-05
1.72896e-05
2.59351e-05
0.000175626
7.17161e-05
3.05388e-05
3.29511e-05
2.85271e-05
2.11466e-05
1.46571e-05
1.11586e-05
9.5447e-06
8.27841e-06
7.06451e-06
6.2588e-06
6.88297e-06
7.67846e-06
8.95648e-06
1.02462e-05
1.12318e-05
1.35451e-05
1.72117e-05
2.60256e-05
0.00017946
6.95193e-05
3.0555e-05
3.30779e-05
2.86375e-05
2.1225e-05
1.471e-05
1.11532e-05
9.53598e-06
8.26317e-06
7.02854e-06
6.10148e-06
6.85264e-06
7.65924e-06
8.93745e-06
1.02257e-05
1.12177e-05
1.34776e-05
1.71344e-05
2.6122e-05
0.000183338
6.73705e-05
3.05876e-05
3.32075e-05
2.87584e-05
2.13153e-05
1.47748e-05
1.11567e-05
9.53501e-06
8.25986e-06
7.02819e-06
6.13974e-06
6.87015e-06
7.64568e-06
8.92081e-06
1.02053e-05
1.12033e-05
1.34105e-05
1.70578e-05
2.62245e-05
0.000187262
6.52705e-05
3.06372e-05
3.33445e-05
2.88929e-05
2.14211e-05
1.48521e-05
1.11678e-05
9.54279e-06
8.2688e-06
7.04454e-06
6.09022e-06
6.86518e-06
7.63396e-06
8.90082e-06
1.01835e-05
1.11882e-05
1.33438e-05
1.69823e-05
2.63341e-05
0.000191243
6.32267e-05
3.06976e-05
3.34905e-05
2.90426e-05
2.15443e-05
1.4943e-05
1.11867e-05
9.56038e-06
8.29355e-06
7.09666e-06
6.2398e-06
6.87762e-06
7.62407e-06
8.8793e-06
1.0159e-05
1.11723e-05
1.32775e-05
1.6908e-05
2.64533e-05
0.000195289
6.12453e-05
3.07614e-05
3.36456e-05
2.92087e-05
2.16857e-05
1.5048e-05
1.12124e-05
9.58571e-06
8.32771e-06
7.15145e-06
6.2906e-06
6.8753e-06
7.61135e-06
8.85513e-06
1.01324e-05
1.11555e-05
1.3212e-05
1.68357e-05
2.66056e-05
0.000199394
5.93246e-05
3.08275e-05
3.38096e-05
2.93912e-05
2.18457e-05
1.51677e-05
1.12447e-05
9.61905e-06
8.37178e-06
7.21746e-06
6.34085e-06
6.85579e-06
7.59231e-06
8.82743e-06
1.01045e-05
1.11379e-05
1.31477e-05
1.67662e-05
2.6807e-05
0.000203562
5.74618e-05
3.08947e-05
3.39817e-05
2.95898e-05
2.2024e-05
1.53015e-05
1.12816e-05
9.65807e-06
8.42228e-06
7.28901e-06
6.28742e-06
6.83149e-06
7.56778e-06
8.79688e-06
1.00758e-05
1.11201e-05
1.3086e-05
1.67012e-05
2.70797e-05
0.000207795
5.56541e-05
3.09622e-05
3.41619e-05
2.9805e-05
2.22211e-05
1.54501e-05
1.13217e-05
9.70206e-06
8.47773e-06
7.38054e-06
6.36724e-06
6.8076e-06
7.5405e-06
8.76505e-06
1.00475e-05
1.11042e-05
1.30294e-05
1.66467e-05
2.74423e-05
0.000212093
5.38989e-05
3.10297e-05
3.43505e-05
3.00374e-05
2.24373e-05
1.5614e-05
1.14094e-05
9.75071e-06
8.5351e-06
7.47166e-06
6.50801e-06
6.79484e-06
7.5174e-06
8.73638e-06
1.00223e-05
1.10925e-05
1.29806e-05
1.66076e-05
2.79185e-05
0.000216454
5.21945e-05
3.10974e-05
3.45485e-05
3.02881e-05
2.26734e-05
1.57901e-05
1.15181e-05
9.80584e-06
8.59417e-06
7.55596e-06
6.64904e-06
6.77178e-06
7.5018e-06
8.71447e-06
1.00027e-05
1.10872e-05
1.29419e-05
1.65894e-05
2.85341e-05
0.000220874
5.05399e-05
3.1166e-05
3.47568e-05
3.05578e-05
2.29299e-05
1.59818e-05
1.16353e-05
9.86574e-06
8.6561e-06
7.63683e-06
6.80705e-06
6.76684e-06
7.49912e-06
8.70295e-06
9.99084e-06
1.10902e-05
1.29156e-05
1.65983e-05
2.9313e-05
0.000225346
4.89338e-05
3.12354e-05
3.49757e-05
3.08473e-05
2.32077e-05
1.61898e-05
1.17616e-05
9.93082e-06