/*--------------------------------*- C++ -*----------------------------------*\
  =========                 |
  \\      /  F ield         | OpenFOAM: The Open Source CFD Toolbox
   \\    /   O peration     | Website:  https://openfoam.org
    \\  /    A nd           | Version:  8
     \\/     M anipulation  |
\*---------------------------------------------------------------------------*/
FoamFile
{
    version     2.0;
    format      ascii;
    class       volScalarField;
    location    "400";
    object      nut;
}
// * * * * * * * * * * * * * * * * * * * * * * * * * * * * * * * * * * * * * //

dimensions      [0 2 -1 0 0 0 0];

internalField   nonuniform List<scalar> 
8400
(
5.39064e-05
5.31418e-05
5.25362e-05
5.20778e-05
5.16935e-05
5.13439e-05
5.10063e-05
5.07873e-05
5.07399e-05
5.08001e-05
5.09098e-05
5.10075e-05
5.10438e-05
5.09852e-05
5.07866e-05
5.03988e-05
4.99832e-05
4.96435e-05
4.94572e-05
4.94651e-05
4.96717e-05
5.00338e-05
5.03881e-05
5.04686e-05
5.02027e-05
4.97737e-05
4.93529e-05
4.90033e-05
4.87003e-05
4.83505e-05
4.78704e-05
4.72713e-05
4.65617e-05
4.57451e-05
4.4835e-05
4.38468e-05
4.27955e-05
4.16939e-05
4.05531e-05
3.93816e-05
3.81862e-05
3.69706e-05
3.57433e-05
3.45149e-05
3.33042e-05
3.21426e-05
3.1073e-05
3.01487e-05
2.94227e-05
2.89306e-05
4.38389e-05
4.24426e-05
4.09169e-05
3.95304e-05
3.84524e-05
3.77591e-05
3.72121e-05
3.67352e-05
3.63461e-05
3.62074e-05
3.64393e-05
3.71171e-05
3.8241e-05
3.96955e-05
4.13489e-05
4.32535e-05
4.48911e-05
4.60425e-05
4.65818e-05
4.64698e-05
4.58062e-05
4.49958e-05
4.45754e-05
4.46523e-05
4.49417e-05
4.51981e-05
4.52638e-05
4.50577e-05
4.46274e-05
4.41838e-05
4.37797e-05
4.33593e-05
4.29182e-05
4.2473e-05
4.2022e-05
4.15602e-05
4.10821e-05
4.0577e-05
4.00324e-05
3.94314e-05
3.87547e-05
3.79774e-05
3.70729e-05
3.60164e-05
3.47838e-05
3.33628e-05
3.17589e-05
2.99959e-05
2.81287e-05
2.62381e-05
4.94455e-05
4.75568e-05
4.59309e-05
4.4963e-05
4.40513e-05
4.30637e-05
4.21836e-05
4.14993e-05
4.11326e-05
4.12275e-05
4.1909e-05
4.3239e-05
4.51999e-05
4.77598e-05
5.06077e-05
5.27064e-05
5.39665e-05
5.4192e-05
5.32646e-05
5.11111e-05
4.76073e-05
4.54017e-05
4.58087e-05
4.67437e-05
4.73669e-05
4.77645e-05
4.77642e-05
4.71758e-05
4.62626e-05
4.60409e-05
4.58311e-05
4.56099e-05
4.53838e-05
4.515e-05
4.49164e-05
4.46851e-05
4.44549e-05
4.42198e-05
4.39686e-05
4.36849e-05
4.33496e-05
4.294e-05
4.24284e-05
4.17822e-05
4.09686e-05
3.99569e-05
3.87226e-05
3.72523e-05
3.55525e-05
3.36558e-05
6.13958e-05
6.12661e-05
6.11309e-05
6.09602e-05
6.06421e-05
6.00135e-05
5.88703e-05
5.71089e-05
5.49617e-05
5.29201e-05
5.13971e-05
5.05273e-05
5.04234e-05
5.13187e-05
5.24234e-05
5.34345e-05
5.41693e-05
5.45555e-05
5.46935e-05
5.44377e-05
4.08345e-05
3.66143e-05
4.54701e-05
5.01671e-05
5.18558e-05
5.29131e-05
5.26035e-05
5.01702e-05
4.64308e-05
4.65826e-05
4.6376e-05
4.6138e-05
4.6118e-05
4.60584e-05
4.59954e-05
4.59359e-05
4.5883e-05
4.58345e-05
4.57817e-05
4.57165e-05
4.56247e-05
4.54895e-05
4.52907e-05
4.50021e-05
4.45932e-05
4.40318e-05
4.3289e-05
4.23411e-05
4.11715e-05
3.97793e-05
6.14562e-05
6.1408e-05
6.13562e-05
6.12982e-05
6.1224e-05
6.11084e-05
6.09126e-05
6.06071e-05
6.02151e-05
5.98201e-05
5.95246e-05
5.94159e-05
5.95106e-05
5.97066e-05
5.98614e-05
5.99868e-05
6.00969e-05
6.01936e-05
6.02478e-05
6.0237e-05
6.0064e-05
5.95742e-05
5.95952e-05
5.96285e-05
5.95251e-05
5.95246e-05
5.90371e-05
5.68882e-05
4.63464e-05
4.78039e-05
4.74773e-05
4.589e-05
4.60958e-05
4.61591e-05
4.622e-05
4.62732e-05
4.6325e-05
4.63815e-05
4.64386e-05
4.64982e-05
4.65527e-05
4.65891e-05
4.65947e-05
4.65493e-05
4.64268e-05
4.6198e-05
4.58352e-05
4.5318e-05
4.46304e-05
4.37633e-05
6.14369e-05
6.1369e-05
6.13023e-05
6.12381e-05
6.11755e-05
6.11102e-05
6.10351e-05
6.09447e-05
6.08437e-05
6.0747e-05
6.06702e-05
6.0615e-05
6.05699e-05
6.05188e-05
6.04541e-05
6.03781e-05
6.02987e-05
6.02256e-05
6.01651e-05
6.01165e-05
6.00634e-05
5.9966e-05
5.98624e-05
5.97408e-05
5.95717e-05
5.93831e-05
5.90951e-05
5.84159e-05
5.69233e-05
5.71156e-05
5.25244e-05
4.52767e-05
4.55946e-05
4.57166e-05
4.59121e-05
4.60444e-05
4.61785e-05
4.63148e-05
4.64537e-05
4.65863e-05
4.67245e-05
4.6873e-05
4.70206e-05
4.71482e-05
4.72285e-05
4.72317e-05
4.71311e-05
4.69092e-05
4.65564e-05
4.60687e-05
6.14362e-05
6.13656e-05
6.12938e-05
6.12216e-05
6.11497e-05
6.10787e-05
6.10084e-05
6.09374e-05
6.08656e-05
6.07936e-05
6.07221e-05
6.06504e-05
6.0577e-05
6.05e-05
6.04199e-05
6.03352e-05
6.02463e-05
6.01574e-05
6.00725e-05
5.99963e-05
5.99321e-05
5.98694e-05
5.9797e-05
5.9702e-05
5.95663e-05
5.93844e-05
5.91357e-05
5.87488e-05
5.80592e-05
5.74958e-05
5.58351e-05
5.33934e-05
5.11955e-05
4.48773e-05
4.53066e-05
4.55043e-05
4.56834e-05
4.58611e-05
4.60495e-05
4.62503e-05
4.64435e-05
4.66668e-05
4.69285e-05
4.72057e-05
4.74606e-05
4.76501e-05
4.77433e-05
4.7726e-05
4.75952e-05
4.73522e-05
6.14255e-05
6.13433e-05
6.12602e-05
6.11777e-05
6.10965e-05
6.10177e-05
6.09408e-05
6.08654e-05
6.07908e-05
6.07151e-05
6.06381e-05
6.05581e-05
6.0474e-05
6.03851e-05
6.02907e-05
6.01933e-05
6.00948e-05
5.99968e-05
5.99039e-05
5.982e-05
5.97489e-05
5.969e-05
5.96357e-05
5.95712e-05
5.9478e-05
5.93414e-05
5.91444e-05
5.88572e-05
5.83999e-05
5.7854e-05
5.68988e-05
5.54328e-05
5.36122e-05
5.04757e-05
4.69307e-05
4.48441e-05
4.50108e-05
4.51737e-05
4.53625e-05
4.55839e-05
4.5842e-05
4.60855e-05
4.64643e-05
4.69109e-05
4.736e-05
4.77349e-05
4.79981e-05
4.81416e-05
4.81693e-05
4.80881e-05
6.14122e-05
6.13132e-05
6.12144e-05
6.11167e-05
6.10208e-05
6.09279e-05
6.08387e-05
6.0752e-05
6.06673e-05
6.05826e-05
6.0495e-05
6.04035e-05
6.03066e-05
6.02045e-05
6.00973e-05
5.99852e-05
5.98721e-05
5.97631e-05
5.96619e-05
5.95736e-05
5.95036e-05
5.94514e-05
5.94121e-05
5.93744e-05
5.93207e-05
5.92319e-05
5.90896e-05
5.88722e-05
5.85341e-05
5.80816e-05
5.74011e-05
5.63852e-05
5.50283e-05
5.29213e-05
5.00885e-05
4.71528e-05
4.49358e-05
4.43785e-05
4.44015e-05
4.44917e-05
4.47122e-05
4.51121e-05
4.5649e-05
4.63442e-05
4.70546e-05
4.76451e-05
4.80802e-05
4.83655e-05
4.8516e-05
4.85495e-05
6.13904e-05
6.12639e-05
6.114e-05
6.10193e-05
6.09026e-05
6.07921e-05
6.06868e-05
6.05852e-05
6.0487e-05
6.03892e-05
6.02897e-05
6.0185e-05
6.00742e-05
5.99558e-05
5.98306e-05
5.97007e-05
5.95704e-05
5.94466e-05
5.93366e-05
5.92471e-05
5.91826e-05
5.91442e-05
5.91271e-05
5.91196e-05
5.91045e-05
5.90621e-05
5.89724e-05
5.88161e-05
5.85625e-05
5.81985e-05
5.76716e-05
5.69101e-05
5.58761e-05
5.43583e-05
5.22524e-05
4.97353e-05
4.72163e-05
4.5411e-05
4.43714e-05
4.36702e-05
4.2972e-05
4.36402e-05
4.45493e-05
4.56346e-05
4.66826e-05
4.75149e-05
4.81183e-05
4.85259e-05
4.87734e-05
4.8891e-05
6.13531e-05
6.11791e-05
6.10137e-05
6.08573e-05
6.07113e-05
6.05762e-05
6.04518e-05
6.03361e-05
6.02244e-05
6.01155e-05
6.00046e-05
5.98882e-05
5.97615e-05
5.9624e-05
5.94788e-05
5.93264e-05
5.91721e-05
5.90299e-05
5.89091e-05
5.88221e-05
5.87742e-05
5.87624e-05
5.87795e-05
5.88105e-05
5.88387e-05
5.88429e-05
5.88033e-05
5.8702e-05
5.85157e-05
5.82277e-05
5.78079e-05
5.72107e-05
5.63999e-05
5.52594e-05
5.36939e-05
5.17447e-05
4.96117e-05
4.76775e-05
4.61609e-05
4.50231e-05
4.42272e-05
4.37333e-05
4.41494e-05
4.53472e-05
4.65763e-05
4.75481e-05
4.82487e-05
4.87288e-05
4.90337e-05
4.92016e-05
6.12797e-05
6.10082e-05
6.0769e-05
6.05587e-05
6.03732e-05
6.0215e-05
6.00747e-05
5.9953e-05
5.98372e-05
5.97276e-05
5.96127e-05
5.94905e-05
5.93585e-05
5.92037e-05
5.90316e-05
5.88421e-05
5.86526e-05
5.84854e-05
5.83585e-05
5.82887e-05
5.82768e-05
5.83132e-05
5.83819e-05
5.84639e-05
5.85396e-05
5.859e-05
5.85963e-05
5.8543e-05
5.84115e-05
5.81871e-05
5.78493e-05
5.73689e-05
5.6719e-05
5.58345e-05
5.46523e-05
5.31794e-05
5.15219e-05
4.98891e-05
4.84629e-05
4.73336e-05
4.65676e-05
4.62402e-05
4.62549e-05
4.67186e-05
4.74069e-05
4.8099e-05
4.86757e-05
4.9101e-05
4.93836e-05
4.95468e-05
6.07895e-05
6.03763e-05
6.00803e-05
5.98732e-05
5.97002e-05
5.95696e-05
5.94636e-05
5.93777e-05
5.92853e-05
5.91885e-05
5.90744e-05
5.8936e-05
5.87746e-05
5.85861e-05
5.83718e-05
5.81423e-05
5.79298e-05
5.77677e-05
5.76829e-05
5.7676e-05
5.7738e-05
5.7848e-05
5.79817e-05
5.81179e-05
5.8238e-05
5.8327e-05
5.83697e-05
5.8354e-05
5.82646e-05
5.80903e-05
5.78168e-05
5.74242e-05
5.68954e-05
5.61937e-05
5.5284e-05
5.41704e-05
5.29169e-05
5.16477e-05
5.04915e-05
4.95458e-05
4.88834e-05
4.85479e-05
4.84304e-05
4.85561e-05
4.88392e-05
4.91765e-05
4.94929e-05
4.97443e-05
4.9916e-05
5.00107e-05
6.03572e-05
5.9897e-05
5.95568e-05
5.93157e-05
5.91222e-05
5.89666e-05
5.88427e-05
5.87271e-05
5.86034e-05
5.84538e-05
5.82686e-05
5.80631e-05
5.78287e-05
5.75959e-05
5.73846e-05
5.72027e-05
5.70881e-05
5.70497e-05
5.70849e-05
5.71728e-05
5.73114e-05
5.74727e-05
5.76424e-05
5.78189e-05
5.7967e-05
5.80773e-05
5.814e-05
5.81468e-05
5.80869e-05
5.79484e-05
5.77227e-05
5.7398e-05
5.69626e-05
5.63968e-05
5.5685e-05
5.48357e-05
5.38928e-05
5.29348e-05
5.20476e-05
5.13048e-05
5.0759e-05
5.04304e-05
5.02816e-05
5.02322e-05
5.02777e-05
5.03688e-05
5.0465e-05
5.05384e-05
5.05758e-05
5.05723e-05
5.91961e-05
5.88832e-05
5.86073e-05
5.83544e-05
5.81143e-05
5.78863e-05
5.76752e-05
5.74751e-05
5.72807e-05
5.70895e-05
5.69016e-05
5.67354e-05
5.66004e-05
5.65101e-05
5.64802e-05
5.64995e-05
5.65598e-05
5.66551e-05
5.67819e-05
5.69276e-05
5.70892e-05
5.72561e-05
5.74212e-05
5.75842e-05
5.77264e-05
5.78337e-05
5.79039e-05
5.79251e-05
5.78792e-05
5.77651e-05
5.75749e-05
5.73013e-05
5.69387e-05
5.64777e-05
5.59146e-05
5.52611e-05
5.45496e-05
5.38319e-05
5.31639e-05
5.25924e-05
5.21492e-05
5.18445e-05
5.16666e-05
5.15432e-05
5.14681e-05
5.14175e-05
5.13716e-05
5.1317e-05
5.12463e-05
5.11562e-05
5.54344e-05
5.54278e-05
5.54406e-05
5.54639e-05
5.54891e-05
5.55157e-05
5.55433e-05
5.55738e-05
5.56079e-05
5.56492e-05
5.57029e-05
5.57724e-05
5.58598e-05
5.59667e-05
5.60908e-05
5.62268e-05
5.63704e-05
5.65175e-05
5.66676e-05
5.68163e-05
5.69648e-05
5.71104e-05
5.72499e-05
5.73811e-05
5.74953e-05
5.75854e-05
5.76468e-05
5.76686e-05
5.76378e-05
5.75459e-05
5.73693e-05
5.7136e-05
5.68316e-05
5.64535e-05
5.60055e-05
5.55005e-05
5.49624e-05
5.44256e-05
5.39243e-05
5.34853e-05
5.31265e-05
5.28528e-05
5.26549e-05
5.24943e-05
5.23572e-05
5.22307e-05
5.21053e-05
5.19749e-05
5.1838e-05
5.16949e-05
5.41107e-05
5.42297e-05
5.435e-05
5.44731e-05
5.45994e-05
5.47289e-05
5.48633e-05
5.50021e-05
5.51458e-05
5.52939e-05
5.54444e-05
5.55971e-05
5.57508e-05
5.59031e-05
5.60522e-05
5.61976e-05
5.63379e-05
5.64724e-05
5.66018e-05
5.6726e-05
5.68446e-05
5.69577e-05
5.70639e-05
5.71613e-05
5.72449e-05
5.73091e-05
5.73515e-05
5.73642e-05
5.73351e-05
5.72591e-05
5.71217e-05
5.68939e-05
5.66383e-05
5.63286e-05
5.59727e-05
5.55834e-05
5.51775e-05
5.47759e-05
5.43986e-05
5.40604e-05
5.37691e-05
5.35263e-05
5.33267e-05
5.31516e-05
5.29848e-05
5.28198e-05
5.2654e-05
5.2488e-05
5.23261e-05
5.21723e-05
5.42305e-05
5.43867e-05
5.45359e-05
5.46786e-05
5.48164e-05
5.49499e-05
5.50802e-05
5.52098e-05
5.5338e-05
5.54655e-05
5.55924e-05
5.57182e-05
5.58421e-05
5.59625e-05
5.60787e-05
5.61903e-05
5.62962e-05
5.63968e-05
5.64922e-05
5.65821e-05
5.66666e-05
5.67447e-05
5.68156e-05
5.68776e-05
5.69286e-05
5.69655e-05
5.69838e-05
5.698e-05
5.69463e-05
5.68765e-05
5.67634e-05
5.6592e-05
5.63374e-05
5.60866e-05
5.58068e-05
5.55115e-05
5.52095e-05
5.49114e-05
5.46275e-05
5.43654e-05
5.41273e-05
5.39136e-05
5.3721e-05
5.35426e-05
5.33649e-05
5.31913e-05
5.30294e-05
5.28882e-05
5.27751e-05
5.26926e-05
5.39905e-05
5.40912e-05
5.42076e-05
5.43427e-05
5.44974e-05
5.46692e-05
5.48514e-05
5.50331e-05
5.52036e-05
5.53579e-05
5.54952e-05
5.56161e-05
5.5724e-05
5.58217e-05
5.5911e-05
5.59932e-05
5.6069e-05
5.61389e-05
5.62034e-05
5.62623e-05
5.63149e-05
5.63616e-05
5.64013e-05
5.6433e-05
5.64556e-05
5.64668e-05
5.6463e-05
5.64426e-05
5.64003e-05
5.6332e-05
5.62378e-05
5.61107e-05
5.59415e-05
5.56537e-05
5.54545e-05
5.52411e-05
5.50244e-05
5.48102e-05
5.46006e-05
5.43993e-05
5.42073e-05
5.40239e-05
5.38473e-05
5.36639e-05
5.35488e-05
5.35169e-05
5.35598e-05
5.36683e-05
5.38286e-05
5.40225e-05
7.736e-05
7.6168e-05
7.49786e-05
7.38097e-05
7.26756e-05
7.15887e-05
7.056e-05
6.95995e-05
6.87132e-05
6.79e-05
6.71533e-05
6.6464e-05
6.58202e-05
6.52117e-05
6.46298e-05
6.40677e-05
6.352e-05
6.29832e-05
6.24546e-05
6.19329e-05
6.14176e-05
6.09083e-05
6.04057e-05
5.99113e-05
5.94254e-05
5.89496e-05
5.84828e-05
5.80238e-05
5.75717e-05
5.71248e-05
5.66823e-05
5.62472e-05
5.58252e-05
5.53866e-05
5.55198e-05
5.57577e-05
5.60539e-05
5.6376e-05
5.6713e-05
5.70714e-05
5.74628e-05
5.78995e-05
5.83936e-05
5.89656e-05
5.9548e-05
6.01256e-05
6.06902e-05
6.12303e-05
6.17364e-05
6.22021e-05
5.48218e-06
5.46183e-06
5.44028e-06
5.41754e-06
5.3946e-06
5.37157e-06
5.34866e-06
5.32594e-06
5.3034e-06
5.28103e-06
5.2588e-06
5.2367e-06
5.21471e-06
5.19281e-06
5.17097e-06
5.14913e-06
5.12723e-06
5.1052e-06
5.08303e-06
5.06063e-06
5.01665e-06
4.99107e-06
4.9651e-06
4.93968e-06
4.91787e-06
4.89739e-06
4.87781e-06
4.85922e-06
4.84228e-06
4.82638e-06
4.81062e-06
4.79429e-06
4.77705e-06
4.75893e-06
4.7403e-06
4.72174e-06
4.70395e-06
4.68755e-06
4.67297e-06
4.6603e-06
4.6493e-06
4.63995e-06
4.63097e-06
4.62112e-06
4.60782e-06
4.59088e-06
4.57059e-06
4.54766e-06
4.52307e-06
4.49793e-06
5.4155e-06
5.29744e-06
5.18102e-06
5.06733e-06
4.95805e-06
4.85405e-06
4.75541e-06
4.66208e-06
4.57389e-06
4.49056e-06
4.41172e-06
4.33698e-06
4.26587e-06
4.19791e-06
4.13258e-06
4.06936e-06
4.0078e-06
3.94761e-06
3.88945e-06
3.83041e-06
3.7419e-06
3.66439e-06
1.57529e-05
1.59206e-05
1.59981e-05
1.6026e-05
1.60274e-05
1.60123e-05
1.59794e-05
1.59316e-05
1.58748e-05
1.58158e-05
1.57609e-05
1.57148e-05
1.56806e-05
1.56596e-05
1.56518e-05
1.56544e-05
1.56633e-05
1.56729e-05
1.56763e-05
1.56652e-05
1.56351e-05
1.55828e-05
1.55148e-05
1.54301e-05
1.53303e-05
1.52189e-05
1.51003e-05
1.49786e-05
5.41475e-06
5.29479e-06
5.17627e-06
5.0607e-06
4.94925e-06
4.8424e-06
4.7403e-06
4.64291e-06
4.55006e-06
4.4615e-06
4.37693e-06
4.296e-06
4.21835e-06
4.14358e-06
4.07127e-06
4.00103e-06
3.93248e-06
3.86585e-06
3.78056e-06
1.58424e-05
1.57399e-05
1.5636e-05
1.55355e-05
1.54335e-05
1.53292e-05
1.52248e-05
1.51216e-05
1.50199e-05
1.49186e-05
1.48169e-05
1.47146e-05
1.46123e-05
1.45115e-05
1.44141e-05
1.43223e-05
1.42379e-05
1.4162e-05
1.40948e-05
1.40352e-05
1.39801e-05
1.39258e-05
1.38682e-05
1.38034e-05
1.37288e-05
1.36431e-05
1.35466e-05
1.34412e-05
1.33299e-05
1.32165e-05
1.31046e-05
5.41447e-06
5.29467e-06
5.17703e-06
5.06268e-06
4.95256e-06
4.84695e-06
4.74591e-06
4.6493e-06
4.55692e-06
4.46851e-06
4.38378e-06
4.30243e-06
4.22414e-06
4.14858e-06
4.0754e-06
4.00427e-06
3.9349e-06
3.86755e-06
3.78316e-06
1.5962e-05
1.57117e-05
1.55508e-05
1.5429e-05
1.53223e-05
1.52202e-05
1.5119e-05
1.50171e-05
1.49138e-05
1.48084e-05
1.47003e-05
1.45894e-05
1.44765e-05
1.4363e-05
1.4251e-05
1.41428e-05
1.40407e-05
1.3946e-05
1.38589e-05
1.37783e-05
1.37019e-05
1.36263e-05
1.3548e-05
1.34636e-05
1.33707e-05
1.32683e-05
1.31567e-05
1.30378e-05
1.29146e-05
1.27909e-05
1.26703e-05
5.41415e-06
5.29352e-06
5.17568e-06
5.06156e-06
4.95186e-06
4.84678e-06
4.74627e-06
4.65013e-06
4.55806e-06
4.46976e-06
4.38493e-06
4.30326e-06
4.22446e-06
4.14826e-06
4.07438e-06
4.00259e-06
3.93269e-06
3.86497e-06
3.78055e-06
1.59522e-05
1.57065e-05
1.55472e-05
1.54247e-05
1.53171e-05
1.52148e-05
1.51136e-05
1.50117e-05
1.4908e-05
1.48018e-05
1.46924e-05
1.45799e-05
1.44652e-05
1.43498e-05
1.42359e-05
1.41259e-05
1.40217e-05
1.39248e-05
1.38351e-05
1.37516e-05
1.36718e-05
1.35925e-05
1.35104e-05
1.34223e-05
1.33259e-05
1.32201e-05
1.31053e-05
1.29834e-05
1.28572e-05
1.27303e-05
1.26062e-05
5.41379e-06
5.29224e-06
5.17438e-06
5.06088e-06
4.95213e-06
4.84813e-06
4.74868e-06
4.65345e-06
4.56204e-06
4.4741e-06
4.38928e-06
4.30731e-06
4.22794e-06
4.151e-06
4.07632e-06
4.00378e-06
3.93325e-06
3.86342e-06
3.73706e-06
3.64362e-06
1.54914e-05
1.54938e-05
1.54392e-05
1.53546e-05
1.52554e-05
1.51498e-05
1.50417e-05
1.49322e-05
1.48211e-05
1.4708e-05
1.45927e-05
1.4476e-05
1.43592e-05
1.42445e-05
1.4134e-05
1.40295e-05
1.39321e-05
1.38419e-05
1.37577e-05
1.3677e-05
1.35968e-05
1.35137e-05
1.34246e-05
1.33276e-05
1.32215e-05
1.31066e-05
1.29845e-05
1.2858e-05
1.27303e-05
1.26044e-05
5.41338e-06
5.29079e-06
5.17282e-06
5.05986e-06
4.95196e-06
4.84891e-06
4.75036e-06
4.65584e-06
4.56487e-06
4.47701e-06
4.39192e-06
4.30934e-06
4.22912e-06
4.15119e-06
4.07549e-06
4.00202e-06
3.93077e-06
3.86054e-06
3.73421e-06
3.64469e-06
1.54932e-05
1.54907e-05
1.54273e-05
1.53346e-05
1.52304e-05
1.51239e-05
1.5018e-05
1.49128e-05
1.4807e-05
1.46993e-05
1.45889e-05
1.44764e-05
1.43631e-05
1.42509e-05
1.41422e-05
1.40387e-05
1.39418e-05
1.38514e-05
1.37664e-05
1.36847e-05
1.36032e-05
1.3519e-05
1.34291e-05
1.33316e-05
1.32256e-05
1.31111e-05
1.29897e-05
1.28637e-05
1.27358e-05
1.26088e-05
5.41291e-06
5.28925e-06
5.1712e-06
5.05886e-06
4.95191e-06
4.84996e-06
4.75245e-06
4.65877e-06
4.56833e-06
4.48062e-06
4.3953e-06
4.31214e-06
4.23109e-06
4.15218e-06
4.0755e-06
4.00116e-06
3.92925e-06
3.85868e-06
3.73239e-06
3.64342e-06
1.54965e-05
1.54957e-05
1.54334e-05
1.53411e-05
1.5237e-05
1.51302e-05
1.50237e-05
1.49176e-05
1.48107e-05
1.47018e-05
1.45905e-05
1.44772e-05
1.43633e-05
1.42507e-05
1.41416e-05
1.40378e-05
1.39404e-05
1.38494e-05
1.37636e-05
1.36807e-05
1.35983e-05
1.35132e-05
1.34232e-05
1.33261e-05
1.32211e-05
1.31083e-05
1.29887e-05
1.28642e-05
1.27372e-05
1.261e-05
5.4124e-06
5.28768e-06
5.16958e-06
5.05789e-06
4.95193e-06
4.85107e-06
4.75457e-06
4.66167e-06
4.57167e-06
4.484e-06
4.3983e-06
4.31444e-06
4.23243e-06
4.15244e-06
4.07469e-06
3.99942e-06
3.92683e-06
3.85593e-06
3.72978e-06
3.64115e-06
1.5494e-05
1.54972e-05
1.54392e-05
1.53507e-05
1.52492e-05
1.51434e-05
1.50363e-05
1.49284e-05
1.48188e-05
1.47068e-05
1.45922e-05
1.44759e-05
1.43592e-05
1.42443e-05
1.41331e-05
1.40274e-05
1.39282e-05
1.38352e-05
1.37474e-05
1.36626e-05
1.35785e-05
1.34926e-05
1.34024e-05
1.33063e-05
1.32033e-05
1.30932e-05
1.29768e-05
1.28553e-05
1.27307e-05
1.26046e-05
5.41188e-06
5.28615e-06
5.16806e-06
5.05706e-06
4.9521e-06
4.85234e-06
4.75684e-06
4.66468e-06
4.57507e-06
4.4874e-06
4.40131e-06
4.31673e-06
4.23378e-06
4.15275e-06
4.074e-06
3.99788e-06
3.92472e-06
3.85358e-06
3.72759e-06
3.63472e-06
1.54855e-05
1.55008e-05
1.54592e-05
1.53864e-05
1.52969e-05
1.51981e-05
1.50934e-05
1.49842e-05
1.48707e-05
1.47536e-05
1.46334e-05
1.45115e-05
1.43897e-05
1.427e-05
1.41545e-05
1.40446e-05
1.39411e-05
1.38437e-05
1.37513e-05
1.36621e-05
1.35739e-05
1.34847e-05
1.33924e-05
1.32955e-05
1.3193e-05
1.30845e-05
1.29704e-05
1.28514e-05
1.27286e-05
1.26033e-05
5.41137e-06
5.28476e-06
5.16675e-06
5.05646e-06
4.95249e-06
4.85377e-06
4.75919e-06
4.6677e-06
4.57839e-06
4.49064e-06
4.40411e-06
4.31878e-06
4.23489e-06
4.15284e-06
4.07313e-06
3.99625e-06
3.92259e-06
3.85129e-06
3.72549e-06
3.63296e-06
1.54847e-05
1.55031e-05
1.54648e-05
1.53949e-05
1.53074e-05
1.52096e-05
1.5105e-05
1.49952e-05
1.48808e-05
1.47626e-05
1.46415e-05
1.4519e-05
1.43968e-05
1.42767e-05
1.41607e-05
1.40499e-05
1.39448e-05
1.38452e-05
1.375e-05
1.36578e-05
1.35669e-05
1.34755e-05
1.3382e-05
1.32851e-05
1.31839e-05
1.30779e-05
1.29669e-05
1.2851e-05
1.27305e-05
1.26062e-05
5.41091e-06
5.2836e-06
5.16576e-06
5.05618e-06
4.95315e-06
4.85538e-06
4.7616e-06
4.67064e-06
4.58153e-06
4.49361e-06
4.40659e-06
4.32051e-06
4.2357e-06
4.15269e-06
4.07211e-06
3.99455e-06
3.92049e-06
3.84909e-06
3.72315e-06
3.63149e-06
1.54772e-05
1.5496e-05
1.54595e-05
1.53914e-05
1.53052e-05
1.52081e-05
1.51036e-05
1.49935e-05
1.48789e-05
1.47605e-05
1.46397e-05
1.45176e-05
1.43961e-05
1.42767e-05
1.41611e-05
1.40501e-05
1.3944e-05
1.38427e-05
1.37451e-05
1.36503e-05
1.35569e-05
1.34636e-05
1.33693e-05
1.32729e-05
1.31736e-05
1.30707e-05
1.29634e-05
1.28513e-05
1.27337e-05
1.26108e-05
5.41052e-06
5.28273e-06
5.16515e-06
5.05627e-06
4.95408e-06
4.85713e-06
4.76402e-06
4.67346e-06
4.58445e-06
4.49632e-06
4.4088e-06
4.32201e-06
4.23638e-06
4.15255e-06
4.07127e-06
3.9932e-06
3.91888e-06
3.84865e-06
3.78286e-06
1.58404e-05
1.57208e-05
1.56094e-05
1.55032e-05
1.53998e-05
1.52971e-05
1.51933e-05
1.50871e-05
1.49776e-05
1.48646e-05
1.47484e-05
1.46299e-05
1.45103e-05
1.4391e-05
1.42735e-05
1.41591e-05
1.40485e-05
1.39418e-05
1.38388e-05
1.37389e-05
1.36413e-05
1.35453e-05
1.34501e-05
1.3355e-05
1.32593e-05
1.31622e-05
1.30627e-05
1.29597e-05
1.28516e-05
1.27373e-05
1.26163e-05
5.41023e-06
5.28217e-06
5.16492e-06
5.05667e-06
4.95519e-06
4.85888e-06
4.76622e-06
4.67588e-06
4.5868e-06
4.49832e-06
4.41022e-06
4.32269e-06
4.23625e-06
4.15165e-06
4.06972e-06
3.99121e-06
3.91668e-06
3.84644e-06
3.78075e-06
1.58377e-05
1.572e-05
1.56082e-05
1.5501e-05
1.53964e-05
1.52925e-05
1.51876e-05
1.50805e-05
1.49703e-05
1.48571e-05
1.47412e-05
1.46234e-05
1.4505e-05
1.43871e-05
1.42709e-05
1.41572e-05
1.40465e-05
1.39388e-05
1.38338e-05
1.37313e-05
1.36309e-05
1.35322e-05
1.34352e-05
1.33395e-05
1.32447e-05
1.31502e-05
1.30546e-05
1.29561e-05
1.28525e-05
1.2742e-05
1.26233e-05
5.41003e-06
5.28191e-06
5.16504e-06
5.05735e-06
4.95648e-06
4.8607e-06
4.76842e-06
4.67824e-06
4.58909e-06
4.50034e-06
4.41179e-06
4.3237e-06
4.23668e-06
4.15157e-06
4.06926e-06
3.99054e-06
3.916e-06
3.84592e-06
3.78069e-06
1.58419e-05
1.57307e-05
1.5621e-05
1.55134e-05
1.5407e-05
1.53006e-05
1.5193e-05
1.50833e-05
1.49709e-05
1.48562e-05
1.47395e-05
1.46217e-05
1.45038e-05
1.43867e-05
1.42711e-05
1.41576e-05
1.40464e-05
1.39373e-05
1.38302e-05
1.3725e-05
1.36217e-05
1.35205e-05
1.3422e-05
1.33262e-05
1.32329e-05
1.31415e-05
1.30502e-05
1.29566e-05
1.2858e-05
1.27518e-05
1.26361e-05
5.40993e-06
5.28188e-06
5.16527e-06
5.05791e-06
4.95731e-06
4.86169e-06
4.76938e-06
4.67899e-06
4.58944e-06
4.50014e-06
4.41095e-06
4.32221e-06
4.23459e-06
4.14898e-06
4.06632e-06
3.98746e-06
3.91296e-06
3.84191e-06
3.71678e-06
3.62831e-06
1.54687e-05
1.549e-05
1.54535e-05
1.53836e-05
1.5294e-05
1.51926e-05
1.50838e-05
1.49703e-05
1.48538e-05
1.47359e-05
1.46176e-05
1.44997e-05
1.4383e-05
1.4268e-05
1.41549e-05
1.40434e-05
1.39335e-05
1.3825e-05
1.37181e-05
1.36133e-05
1.35113e-05
1.3413e-05
1.33189e-05
1.3229e-05
1.31423e-05
1.30571e-05
1.29703e-05
1.28787e-05
1.2779e-05
1.26692e-05
5.40992e-06
5.28212e-06
5.16596e-06
5.05913e-06
4.95902e-06
4.86375e-06
4.77162e-06
4.68121e-06
4.59149e-06
4.5019e-06
4.41236e-06
4.32325e-06
4.23531e-06
4.14946e-06
4.0667e-06
3.98784e-06
3.91344e-06
3.84375e-06
3.77885e-06
1.58303e-05
1.57102e-05
1.56013e-05
1.54971e-05
1.53938e-05
1.52891e-05
1.51822e-05
1.50728e-05
1.49611e-05
1.48476e-05
1.47334e-05
1.46193e-05
1.45059e-05
1.43937e-05
1.42828e-05
1.41732e-05
1.40647e-05
1.39572e-05
1.38508e-05
1.37461e-05
1.36441e-05
1.3546e-05
1.34531e-05
1.33661e-05
1.32852e-05
1.32095e-05
1.31367e-05
1.30636e-05
1.29865e-05
1.2902e-05
1.28078e-05
5.40998e-06
5.28165e-06
5.16486e-06
5.0574e-06
4.95666e-06
4.86077e-06
4.76804e-06
4.67707e-06
4.58687e-06
4.49689e-06
4.40711e-06
4.3179e-06
4.23002e-06
4.14441e-06
4.06205e-06
3.98371e-06
3.90991e-06
3.84126e-06
3.75866e-06
1.59102e-05
1.56842e-05
1.55487e-05
1.54467e-05
1.53563e-05
1.52721e-05
1.51903e-05
1.51065e-05
1.501e-05
1.49066e-05
1.48104e-05
1.47193e-05
1.46313e-05
1.45447e-05
1.44587e-05
1.43726e-05
1.42862e-05
1.41998e-05
1.4114e-05
1.40302e-05
1.395e-05
1.38751e-05
1.38072e-05
1.37474e-05
1.36961e-05
1.36519e-05
1.36125e-05
1.3574e-05
1.35325e-05
1.34842e-05
1.34272e-05
5.41046e-06
5.28361e-06
5.169e-06
5.06372e-06
4.96488e-06
4.87217e-06
4.78377e-06
4.69809e-06
4.61387e-06
4.53026e-06
4.44691e-06
4.36398e-06
4.28205e-06
4.20202e-06
4.1249e-06
4.05165e-06
3.98295e-06
3.91922e-06
3.86132e-06
3.80838e-06
3.72678e-06
1.58526e-05
1.58625e-05
1.58163e-05
1.57442e-05
1.57641e-05
1.58121e-05
1.58716e-05
1.58086e-05
1.56863e-05
1.56638e-05
1.56833e-05
1.57137e-05
1.57396e-05
1.5754e-05
1.57548e-05
1.57429e-05
1.57209e-05
1.56924e-05
1.56614e-05
1.56321e-05
1.56082e-05
1.55925e-05
1.5586e-05
1.5588e-05
1.55954e-05
1.56033e-05
1.56064e-05
1.56e-05
1.55829e-05
5.48004e-06
5.45515e-06
5.43391e-06
5.41506e-06
5.3981e-06
5.38073e-06
5.36227e-06
5.34222e-06
5.32032e-06
5.29655e-06
5.27116e-06
5.2446e-06
5.21747e-06
5.19043e-06
5.16406e-06
5.13882e-06
5.11498e-06
5.09267e-06
5.07182e-06
5.05232e-06
5.04432e-06
5.03269e-06
5.01799e-06
5.00096e-06
4.96224e-06
4.93059e-06
4.90382e-06
4.90031e-06
4.8914e-06
4.85903e-06
4.83072e-06
4.80533e-06
4.78193e-06
4.75976e-06
4.73829e-06
4.71721e-06
4.6964e-06
4.676e-06
4.65634e-06
4.63785e-06
4.621e-06
4.60613e-06
4.59333e-06
4.58233e-06
4.57246e-06
4.56274e-06
4.55192e-06
4.53873e-06
4.52211e-06
4.50148e-06
1.16977e-05
6.26217e-06
6.22936e-06
5.81604e-06
5.05095e-06
4.25236e-06
1.60191e-05
1.38501e-05
1.22247e-05
1.09905e-05
1.04287e-05
1.04699e-05
1.15745e-05
1.31835e-05
1.48398e-05
3.82323e-06
4.25057e-06
4.78653e-06
5.60279e-06
1.2543e-05
1.15377e-05
6.25612e-06
6.24114e-06
5.8276e-06
5.05994e-06
4.2574e-06
1.6011e-05
1.38335e-05
1.21999e-05
1.09539e-05
1.04046e-05
1.05252e-05
1.15943e-05
1.317e-05
1.48315e-05
3.8214e-06
4.24925e-06
4.78298e-06
5.61129e-06
1.27143e-05
1.13812e-05
6.24856e-06
6.2529e-06
5.83792e-06
5.0667e-06
4.25956e-06
1.59906e-05
1.38117e-05
1.21707e-05
1.0914e-05
1.02699e-05
1.0186e-05
1.15039e-05
1.31074e-05
1.47895e-05
3.8125e-06
4.23864e-06
4.77106e-06
5.61278e-06
1.28749e-05
1.12254e-05
6.23984e-06
6.26462e-06
5.84794e-06
5.07294e-06
4.26176e-06
1.59512e-05
1.37883e-05
1.21413e-05
1.08841e-05
1.12556e-05
1.02981e-05
1.14282e-05
1.30452e-05
1.47467e-05
3.80353e-06
4.22826e-06
4.75955e-06
5.61536e-06
1.30375e-05
1.10705e-05
6.2306e-06
6.27649e-06
5.8579e-06
5.07886e-06
4.26346e-06
3.76738e-06
1.37612e-05
1.20996e-05
1.07888e-05
9.85926e-06
1.03566e-05
1.13656e-05
1.29911e-05
1.47086e-05
3.79499e-06
4.21818e-06
4.74832e-06
5.61885e-06
1.32012e-05
1.09166e-05
6.22114e-06
6.28848e-06
5.86787e-06
5.08456e-06
4.26472e-06
3.77878e-06
1.37375e-05
1.20725e-05
1.07811e-05
9.83647e-06
1.02342e-05
1.12909e-05
1.29385e-05
1.46742e-05
3.78716e-06
4.2086e-06
4.73749e-06
5.62319e-06
1.33656e-05
1.07634e-05
6.21153e-06
6.30049e-06
5.87781e-06
5.09002e-06
4.26529e-06
1.60081e-05
1.37021e-05
1.20256e-05
1.0728e-05
1.03169e-05
1.01503e-05
1.12136e-05
1.28851e-05
1.46396e-05
3.77944e-06
4.1993e-06
4.72707e-06
5.62846e-06
1.35306e-05
1.06107e-05
6.20178e-06
6.31231e-06
5.88754e-06
5.09534e-06
4.26596e-06
1.59789e-05
1.36642e-05
1.19689e-05
1.06182e-05
1.00764e-05
1.01329e-05
1.11531e-05
1.28384e-05
1.46062e-05
3.77142e-06
4.18974e-06
4.71659e-06
5.6344e-06
1.36959e-05
1.04582e-05
6.19217e-06
6.32386e-06
5.89682e-06
5.09998e-06
4.26609e-06
1.59408e-05
1.36271e-05
1.19174e-05
1.05209e-05
9.77966e-06
1.0031e-05
1.10987e-05
1.27995e-05
1.45776e-05
3.76382e-06
4.18026e-06
4.70607e-06
5.64091e-06
1.38615e-05
1.03058e-05
6.18327e-06
6.33542e-06
5.90611e-06
5.10445e-06
4.26602e-06
1.58914e-05
1.3585e-05
1.18646e-05
1.04343e-05
9.84916e-06
9.81883e-06
1.10277e-05
1.27558e-05
1.45476e-05
3.75637e-06
4.17105e-06
4.6958e-06
5.64821e-06
1.40276e-05
1.01536e-05
6.17546e-06
6.34703e-06
5.91555e-06
5.10924e-06
4.26683e-06
1.58367e-05
1.35387e-05
1.18039e-05
1.03146e-05
9.79093e-06
9.80756e-06
1.09693e-05
1.27133e-05
1.45157e-05
1.58877e-05
4.16203e-06
4.68583e-06
5.65645e-06
1.41945e-05
1.00021e-05
6.16928e-06
6.35887e-06
5.92511e-06
5.11426e-06
4.26767e-06
1.57904e-05
1.34967e-05
1.1744e-05
1.01803e-05
9.10038e-06
9.80867e-06
1.0924e-05
1.26782e-05
1.44883e-05
1.5858e-05
4.15263e-06
4.67615e-06
5.66567e-06
1.4362e-05
9.85165e-06
6.16514e-06
6.37118e-06
5.93499e-06
5.11962e-06
4.26907e-06
1.5746e-05
1.34578e-05
1.16927e-05
1.00856e-05
8.98206e-06
9.69994e-06
1.08749e-05
1.26465e-05
1.44638e-05
1.58362e-05
4.14382e-06
4.66685e-06
5.6758e-06
1.453e-05
9.70234e-06
6.1629e-06
6.38384e-06
5.94533e-06
5.12576e-06
4.27161e-06
1.57052e-05
1.34184e-05
1.16367e-05
9.96997e-06
9.08883e-06
9.6126e-06
1.08265e-05
1.26164e-05
1.44408e-05
1.58185e-05
4.1355e-06
4.65792e-06
5.68684e-06
1.46982e-05
9.55425e-06
6.1624e-06
6.3966e-06
5.95603e-06
5.13302e-06
4.2762e-06
1.5675e-05
1.33865e-05
1.15839e-05
9.832e-06
8.6542e-06
9.59449e-06
1.07887e-05
1.259e-05
1.44185e-05
1.58016e-05
4.12721e-06
4.64894e-06
5.69842e-06
1.48659e-05
9.40727e-06
6.16374e-06
6.40942e-06
5.96721e-06
5.14152e-06
4.28297e-06
1.56579e-05
1.33668e-05
1.15489e-05
9.73816e-06
8.08141e-06
9.60396e-06
1.0767e-05
1.25723e-05
1.43996e-05
1.57866e-05
4.1192e-06
4.64009e-06
5.71055e-06
1.50328e-05
9.26123e-06
6.16716e-06
6.42247e-06
5.97934e-06
5.15187e-06
4.29238e-06
1.56558e-05
1.33583e-05
1.15327e-05
9.71317e-06
8.01421e-06
9.53407e-06
1.07469e-05
1.25558e-05
1.43794e-05
1.57705e-05
4.11106e-06
4.6313e-06
5.72335e-06
1.51991e-05
9.1162e-06
6.1726e-06
6.43634e-06
5.99374e-06
5.16495e-06
4.30404e-06
1.56645e-05
1.33618e-05
1.15377e-05
9.7625e-06
8.42197e-06
9.59114e-06
1.0742e-05
1.25473e-05
1.4361e-05
1.57539e-05
4.1026e-06
4.6223e-06
5.73663e-06
1.53643e-05
8.97249e-06
6.18007e-06
6.45135e-06
6.01012e-06
5.18083e-06
4.31823e-06
1.56854e-05
1.33798e-05
1.15627e-05
9.82808e-06
8.5927e-06
9.5672e-06
1.07425e-05
1.25329e-05
1.43425e-05
1.57381e-05
4.09422e-06
4.61328e-06
5.75041e-06
1.55284e-05
8.8314e-06
6.18787e-06
6.46745e-06
6.0285e-06
5.19926e-06
4.33475e-06
1.57175e-05
1.3413e-05
1.16129e-05
9.95121e-06
9.16712e-06
9.56554e-06
1.074e-05
1.25146e-05
1.43166e-05
1.57211e-05
4.08571e-06
4.60421e-06
5.76531e-06
1.56911e-05
8.69284e-06
6.19574e-06
6.48452e-06
6.04879e-06
5.22014e-06
4.35338e-06
1.57578e-05
1.34553e-05
1.1669e-05
1.00319e-05
9.31127e-06
9.67996e-06
1.07449e-05
1.24947e-05
1.42859e-05
1.57017e-05
4.07672e-06
4.59484e-06
5.79003e-06
1.58489e-05
8.55645e-06
6.20355e-06
6.50231e-06
6.07082e-06
5.24334e-06
4.37414e-06
1.58057e-05
1.35099e-05
1.17397e-05
1.01141e-05
8.91502e-06
9.71122e-06
1.07435e-05
1.2471e-05
1.42534e-05
1.56793e-05
4.06711e-06
4.58502e-06
5.81334e-06
1.60062e-05
8.42199e-06
6.21116e-06
6.52072e-06
6.09448e-06
5.26863e-06
4.39653e-06
1.5855e-05
1.35713e-05
1.1821e-05
1.02489e-05
9.15828e-06
9.66199e-06
1.07257e-05
1.24397e-05
1.42179e-05
1.56538e-05
4.05661e-06
4.57445e-06
5.8351e-06
1.61635e-05
8.28924e-06
6.21856e-06
6.53984e-06
6.11993e-06
5.2962e-06
4.42079e-06
3.76915e-06
1.36367e-05
1.19004e-05