/*--------------------------------*- C++ -*----------------------------------*\
  =========                 |
  \\      /  F ield         | OpenFOAM: The Open Source CFD Toolbox
   \\    /   O peration     | Website:  https://openfoam.org
    \\  /    A nd           | Version:  8
     \\/     M anipulation  |
\*---------------------------------------------------------------------------*/
FoamFile
{
    version     2.0;
    format      ascii;
    class       surfaceScalarField;
    location    "400";
    object      phi;
}
// * * * * * * * * * * * * * * * * * * * * * * * * * * * * * * * * * * * * * //

dimensions      [1 0 -1 0 0 0 0];

internalField   nonuniform List<scalar> 
16360
(
-1.6008
-0.0537436
-1.55021
-0.0505988
-1.50836
-0.0418465
-1.47955
-0.0288065
-1.46348
-0.0160687
-1.4585
-0.0049702
-1.46353
0.00502811
-1.4767
0.0131613
-1.4948
0.0181006
-1.51422
0.0194121
-1.53228
0.01807
-1.5474
0.0151183
-1.55828
0.0108775
-1.56405
0.00577489
-1.56441
0.00035232
-1.55924
-0.00517001
-1.54728
-0.0119597
-1.52546
-0.0218287
-1.48996
-0.0354902
-1.438
-0.0519673
-1.3707
-0.0673071
-1.29827
-0.0724291
-1.23783
-0.060436
-1.19742
-0.0404092
-1.17
-0.0274123
-1.14205
-0.0279574
-1.10224
-0.0398097
-1.04782
-0.0544199
-0.98893
-0.0588759
-0.938549
-0.0503835
-0.897886
-0.0406631
-0.865822
-0.0320568
-0.84186
-0.0239651
-0.824645
-0.0172207
-0.812506
-0.0121324
-0.803727
-0.00877653
-0.79661
-0.00711831
-0.789536
-0.00707688
-0.781014
-0.00852237
-0.769717
-0.0112913
-0.754577
-0.0151526
-0.734808
-0.0197746
-0.710045
-0.0247611
-0.680411
-0.0296325
-0.646504
-0.033906
-0.609335
-0.0371718
-0.570178
-0.0391539
-0.530391
-0.0397835
-0.491174
-0.0392155
-0.0379901
-0.453193
-1.31706
-0.0744596
-1.28168
-0.0859914
-1.26182
-0.0616914
-1.26057
-0.0300565
-1.27276
-0.00388562
-1.29414
0.0164036
-1.32453
0.0354276
-1.36273
0.0513733
-1.40436
0.0597211
-1.44374
0.0587872
-1.47672
0.0510611
-1.50168
0.0400824
-1.51809
0.0272855
-1.52564
0.0133232
-1.52457
-0.000713997
-1.51585
-0.0138928
-1.49932
-0.0284843
-1.47265
-0.0484814
-1.43256
-0.0755875
-1.37604
-0.108475
-1.30279
-0.140543
-1.22538
-0.149839
-1.16902
-0.116791
-1.14078
-0.06865
-1.12735
-0.0408302
-1.11024
-0.0450643
-1.07422
-0.0758345
-1.01444
-0.114192
-0.948474
-0.124838
-0.899776
-0.099083
-0.862579
-0.0778613
-0.83334
-0.0613003
-0.812542
-0.0447656
-0.798477
-0.0312885
-0.78935
-0.0212615
-0.783404
-0.0147125
-0.778948
-0.0115709
-0.774373
-0.0116434
-0.768231
-0.0146659
-0.759207
-0.0203054
-0.746204
-0.0281437
-0.728399
-0.0375848
-0.705309
-0.047841
-0.676941
-0.0580006
-0.643789
-0.0670656
-0.606817
-0.0741332
-0.567377
-0.078596
-0.526945
-0.080221
-0.486895
-0.0792547
-0.0764534
-0.448434
-1.03667
-0.0923876
-1.0642
-0.0584694
-1.1083
-0.0175881
-1.14348
0.0051037
-1.16687
0.0195155
-1.18764
0.0371819
-1.21046
0.0582451
-1.2377
0.0786143
-1.26687
0.0888996
-1.29179
0.0837062
-1.30805
0.0673272
-1.31446
0.0464888
-1.31057
0.0233981
-1.29442
-0.00283201
-1.26805
-0.0270849
-1.23742
-0.0445117
-1.20562
-0.0602877
-1.17396
-0.0801456
-1.14349
-0.106069
-1.11357
-0.138389
-1.07546
-0.178653
-1.03112
-0.194189
-1.01181
-0.136097
-1.022
-0.0584631
-1.03884
-0.0239791
-1.0409
-0.0429996
-1.01339
-0.10334
-0.945006
-0.18258
-0.863572
-0.206272
-0.82293
-0.139719
-0.794058
-0.106723
-0.769159
-0.0861946
-0.75425
-0.059672
-0.745864
-0.0396751
-0.742013
-0.0251138
-0.741019
-0.015715
-0.7412
-0.0113921
-0.741007
-0.0118325
-0.739056
-0.0166185
-0.734073
-0.0252968
-0.72489
-0.0373238
-0.710559
-0.0519041
-0.690483
-0.0679252
-0.664525
-0.0839704
-0.633123
-0.0984685
-0.59728
-0.10997
-0.5584
-0.11747
-0.518041
-0.120588
-0.477684
-0.119615
-0.115498
-0.438633
1.15318
-0.043629
1.08364
0.0110768
1.02487
0.0411703
0.960046
0.0699358
0.880839
0.0987203
0.793341
0.124673
0.707365
0.144212
0.633165
0.152825
0.575453
0.146612
0.533066
0.126083
0.505574
0.094815
0.494523
0.0575434
0.496521
0.0214129
0.49776
-0.00406455
0.486191
-0.0155118
0.459435
-0.0177596
0.412914
-0.0137642
0.337376
-0.00460338
0.222019
0.00927721
0.0556266
0.0280148
-0.175514
0.0524847
-0.433048
0.0633445
-0.633521
0.0643831
-0.745423
0.0534415
-0.802914
0.0335148
-0.820802
-0.025113
-0.808126
-0.116033
-0.768904
-0.221809
-0.706803
-0.268375
-0.704345
-0.142176
-0.695049
-0.116018
-0.672762
-0.108484
-0.666986
-0.0654447
-0.666538
-0.0401223
-0.669895
-0.021767
-0.675598
-0.0100097
-0.681926
-0.00505417
-0.68743
-0.00633501
-0.690883
-0.013168
-0.691106
-0.0250711
-0.68687
-0.0415534
-0.677101
-0.0616651
-0.661073
-0.0839483
-0.638582
-0.106468
-0.610072
-0.126983
-0.576631
-0.143407
-0.539755
-0.15434
-0.501048
-0.1593
-0.461997
-0.158669
-0.153603
-0.423893
2.82535
0.0266327
2.77411
0.0623294
2.71241
0.102872
2.64607
0.136283
2.58078
0.164006
2.52207
0.183382
2.47544
0.190844
2.44494
0.183338
2.43174
0.159808
2.43424
0.123586
2.44675
0.0823113
2.45967
0.0446189
2.46372
0.0173546
2.45554
0.00411793
2.43443
0.0055983
2.39598
0.0206837
2.33499
0.0472284
2.2475
0.0828939
2.13078
0.125991
1.98416
0.174641
1.81209
0.224553
1.61693
0.258505
1.41198
0.26933
1.20366
0.261765
0.993574
0.243603
0.746743
0.22172
0.417235
0.213493
-0.0341656
0.229595
-0.413788
0.111259
-0.54588
-0.0100881
-0.555689
-0.106222
-0.536244
-0.12793
-0.550394
-0.051285
-0.558819
-0.0316844
-0.570535
-0.0100376
-0.584409
0.00384732
-0.598874
0.00940766
-0.612177
0.00697042
-0.622366
-0.00297768
-0.62839
-0.0190373
-0.629706
-0.0402449
-0.625211
-0.0661617
-0.614071
-0.095089
-0.59597
-0.124569
-0.571335
-0.151608
-0.541363
-0.173379
-0.507653
-0.188051
-0.471851
-0.195105
-0.435448
-0.195075
-0.189354
-0.399696
1.91477
0.0671284
1.9022
0.0748935
1.91009
0.0949824
1.92819
0.118187
1.95125
0.140938
1.97477
0.159865
1.99462
0.170992
2.00688
0.171077
2.00771
0.158978
1.9945
0.136799
1.96742
0.109398
1.92979
0.0822583
1.88731
0.0598327
1.84628
0.0451467
1.81162
0.0402653
1.78546
0.0468442
1.76656
0.0661192
1.75081
0.0986381
1.73284
0.14396
1.70775
0.199727
1.67199
0.260309
1.61537
0.315129
1.52878
0.355925
1.40998
0.380559
1.26196
0.391632
1.08863
0.395048
0.904569
0.397551
0.745233
0.38893
0.530554
0.325932
0.236387
0.284078
-0.100029
0.230199
-0.341695
0.113739
-0.416111
0.0231273
-0.417297
-0.0305093
-0.44048
0.0131437
-0.464913
0.0282763
-0.490038
0.0345425
-0.51295
0.0298836
-0.531919
0.0159912
-0.54516
-0.00579692
-0.552378
-0.0330262
-0.553754
-0.0647832
-0.54824
-0.100595
-0.535288
-0.137523
-0.5153
-0.171594
-0.489659
-0.199018
-0.46014
-0.217571
-0.42842
-0.226825
-0.395937
-0.227559
-0.221419
-0.363871
1.88445
0.119897
1.83948
0.119869
1.80535
0.1291
1.78243
0.141109
1.76972
0.153644
1.76524
0.164339
1.76565
0.170579
1.76669
0.17004
1.76398
0.161691
1.75419
0.146581
1.73596
0.127627
1.70976
0.108459
1.67719
0.0924009
1.64035
0.0819966
1.60156
0.079042
1.5635
0.0848968
1.52898
0.100661
1.50033
0.127289
1.47881
0.165479
1.46376
0.214792
1.45161
0.272456
1.43385
0.332889
1.40013
0.389652
1.3432
0.437484
1.26096
0.473871
1.15674
0.499281
1.03979
0.514492
0.914041
0.514681
0.751289
0.488692
0.578667
0.456711
0.408538
0.40032
0.20269
0.319573
-0.0311106
0.256934
-0.204759
0.143138
-0.276807
0.0851832
-0.318539
0.0700115
-0.357494
0.0734981
-0.391027
0.063416
-0.419026
0.0439934
-0.440562
0.0157363
-0.45467
-0.0189269
-0.461907
-0.0575456
-0.462269
-0.100226
-0.454778
-0.145014
-0.439968
-0.186404
-0.419577
-0.219415
-0.39551
-0.241645
-0.369326
-0.253004
-0.342243
-0.254634
-0.248396
-0.315265
1.56491
0.159011
1.53364
0.151138
1.51283
0.14991
1.49959
0.154355
1.49238
0.160857
1.4897
0.167007
1.48953
0.170745
1.48931
0.170258
1.48636
0.16464
1.47859
0.154365
1.46503
0.141183
1.44593
0.127562
1.42229
0.116035
1.39546
0.108818
1.36683
0.10769
1.33773
0.113999
1.30963
0.128757
1.2842
0.152711
1.26329
0.186383
1.24822
0.22986
1.23844
0.282234
1.23026
0.341076
1.21746
0.402441
1.19357
0.46137
1.15414
0.51331
1.09814
0.555281
1.02731
0.585312
0.941077
0.600914
0.832811
0.596955
0.713206
0.576314
0.579026
0.534511
0.424297
0.474294
0.274062
0.407153
0.0979253
0.319289
-0.0539477
0.237042
-0.154172
0.170226
-0.210497
0.129836
-0.252131
0.105054
-0.28789
0.0797397
-0.316448
0.0442959
-0.336369
0.00100164
-0.348508
-0.0454145
-0.354707
-0.0940226
-0.352867
-0.146849
-0.34395
-0.195322
-0.330091
-0.233286
-0.313114
-0.258625
-0.294241
-0.271863
-0.274268
-0.274605
-0.268802
-0.253873
1.27249
0.201732
1.24388
0.17975
1.22474
0.169046
1.2127
0.166385
1.20597
0.167593
1.20292
0.170065
1.20181
0.171845
1.20079
0.171298
1.19794
0.167489
1.19183
0.160477
1.18174
0.151273
1.16779
0.141522
1.15069
0.133139
1.1315
0.128011
1.11133
0.127851
1.09125
0.134086
1.07221
0.147807
1.05515
0.169772
1.04109
0.200445
1.03098
0.239978
1.02513
0.288079
1.02248
0.343715
1.02027
0.404648
1.01445
0.467192
1.00088
0.526886
0.976595
0.579565
0.940059
0.621849
0.890003
0.65096
0.824196
0.662762
0.744824
0.655682
0.650418
0.628911
0.541695
0.583022
0.425775
0.523073
0.297075
0.447988
0.16879
0.365322
0.0520833
0.286929
-0.0373946
0.219322
-0.0978411
0.165504
-0.139276
0.121182
-0.171123
0.0761486
-0.195032
0.024899
-0.212925
-0.0275301
-0.225096
-0.0818362
-0.229078
-0.142861
-0.227092
-0.197317
-0.221291
-0.239087
-0.213127
-0.266786
-0.203376
-0.281615
-0.192327
-0.285658
-0.280942
-0.180191
0.945954
0.236359
0.926432
0.19928
0.915542
0.179935
0.909586
0.172339
0.907115
0.17007
0.906862
0.170319
0.907638
0.171068
0.908217
0.170728
0.907368
0.168333
0.904162
0.163691
0.898129
0.157304
0.889384
0.15027
0.878485
0.144037
0.866269
0.140232
0.853624
0.140491
0.841403
0.146302
0.830331
0.158877
0.821034
0.179069
0.814118
0.207353
0.810183
0.243906
0.80966
0.288601
0.812483
0.340895
0.817664
0.399466
0.823069
0.461788
0.825742
0.52421
0.822732
0.582576
0.811645
0.632945
0.790765
0.671844
0.758277
0.695244
0.713622
0.700335
0.656254
0.686283
0.586594
0.652685
0.507188
0.602483
0.418304
0.536871
0.323433
0.460185
0.230207
0.380163
0.147217
0.302312
0.0798995
0.232812
0.0282207
0.172856
-0.0118388
0.116214
-0.0430464
0.0561188
-0.0633222
-0.00729722
-0.075028
-0.0701415
-0.0837295
-0.134173
-0.0898402
-0.191203
-0.0939574
-0.234962
-0.0964106
-0.264338
-0.0974366
-0.280594
-0.0970346
-0.286066
-0.283009
-0.0949682
0.611544
0.263595
0.605605
0.20522
0.605473
0.180063
0.60792
0.169898
0.611794
0.166183
0.616329
0.165785
0.62089
0.166507
0.624766
0.166843
0.627246
0.165855
0.627754
0.163185
0.626022
0.159029
0.622166
0.154115
0.616643
0.149559
0.610131
0.146756
0.603349
0.147261
0.597029
0.152613
0.591803
0.164115
0.588206
0.182658
0.586804
0.208765
0.588107
0.24261
0.592593
0.284113
0.60056
0.332929
0.611815
0.388211
0.625354
0.448259
0.639309
0.510253
0.651435
0.570446
0.659473
0.624905
0.661522
0.6698
0.655705
0.701065
0.640629
0.715408
0.615569
0.711345
0.580226
0.688032
0.535584
0.647122
0.482359
0.590088
0.422202
0.520341
0.359211
0.443166
0.297714
0.363814
0.242805
0.287708
0.198443
0.217202
0.164715
0.149945
0.137849
0.0830148
0.113707
0.0168547
0.0938153
-0.0502609
0.0767062
-0.117071
0.060213
-0.174714
0.0446553
-0.219408
0.0307312
-0.25041
0.0186979
-0.268571
0.00848233
-0.275858
-0.274491
-3.07876e-05
0.302985
0.266243
0.311316
0.196893
0.32017
0.1712
0.32834
0.161726
0.336249
0.158279
0.344089
0.157934
0.351739
0.158873
0.358754
0.159826
0.364644
0.159974
0.368918
0.158897
0.371349
0.156609
0.371965
0.153509
0.371078
0.150438
0.369203
0.148647
0.366816
0.149643
0.364459
0.154993
0.362669
0.165915
0.362124
0.183194
0.363634
0.207257
0.367964
0.238272
0.375827
0.27625
0.387771
0.320984
0.403998
0.37199
0.424032
0.428221
0.446645
0.487639
0.470427
0.54666
0.493473
0.60186
0.513879
0.649389
0.529788
0.685159
0.53959
0.705605
0.542173
0.708759
0.536737
0.693468
0.523343
0.660521
0.502204
0.611233
0.47412
0.548426
0.441086
0.476202
0.405658
0.399242
0.371318
0.322046
0.341176
0.247344
0.315886
0.175229
0.293799
0.105098
0.273391
0.0372584
0.25269
-0.0295532
0.229575
-0.093961
0.204924
-0.150076
0.179998
-0.194482
0.155833
-0.226245
0.133222
-0.245965
0.112561
-0.255195
-0.255919
0.0940013
0.0101031
0.22972
0.0238939
0.183105
0.0339441
0.161168
0.0432717
0.152392
0.052733
0.148821
0.063115
0.147551
0.0746063
0.147397
0.08664
0.147769
0.0983432
0.148265
0.108849
0.148385
0.117674
0.147772
0.124689
0.146491
0.13004
0.145095
0.13392
0.144761
0.136463
0.147077
0.137922
0.153521
0.138827
0.165019
0.1401
0.181921
0.142959
0.20438
0.148713
0.232522
0.158544
0.266423
0.173441
0.306081
0.194004
0.351426
0.220016
0.402207
0.249943
0.457718
0.283761
0.512842
0.319549
0.566068
0.355373
0.613561
0.389469
0.651067
0.420331
0.674747
0.446488
0.682601
0.466826
0.673134
0.480752
0.646594
0.487914
0.604072
0.48837
0.547968
0.482834
0.48173
0.472642
0.409433
0.459737
0.334954
0.445995
0.261093
0.432173
0.189049
0.417961
0.119299
0.402362
0.0528501
0.383296
-0.0104785
0.359624
-0.0702879
0.332008
-0.122466
0.302069
-0.164538
0.271352
-0.195529
0.241137
-0.215754
0.212339
-0.226396
-0.229102
0.185523
-0.216624
0.174953
-0.190699
0.157163
-0.176813
0.147275
-0.166982
0.142549
-0.158684
0.140506
-0.151006
0.139881
-0.14354
0.139932
-0.136102
0.140336
-0.128701
0.140846
-0.121558
0.141214
-0.114987
0.141228
-0.109481
0.140972
-0.105371
0.140977
-0.102759
0.142158
-0.101377
0.145694
-0.100466
0.152624
-0.0990024
0.163557
-0.0958617
0.178777
-0.0899592
0.198471
-0.0802872
0.222863
-0.0659987
0.252126
-0.0462984
0.286385
-0.0205139
0.325655
0.0118521
0.36984
0.0500803
0.419484
0.0938214
0.469096
0.141731
0.518157
0.191431
0.563867
0.241253
0.601234
0.290381
0.625614
0.336727
0.636262
0.379162
0.630697
0.41663
0.609123
0.448307
0.572399
0.47362
0.522659
0.492372
0.462976
0.504871
0.396932
0.511903
0.327925
0.514426
0.258577
0.513013
0.190458
0.507673
0.124632
0.498024
0.0625021
0.482661
0.00488097
0.460903
-0.0485288
0.4336
-0.0951583
0.402324
-0.13326
0.368786
-0.161987
0.334519
-0.181482
0.300752
-0.192632
-0.196743
0.268384
-0.548849
0.124179
-0.511455
0.119764
-0.481606
0.117421
-0.456398
0.11735
-0.434902
0.119004
-0.416712
0.121685
-0.401525
0.124743
-0.388957
0.127766
-0.378593
0.130507
-0.370212
0.132828
-0.363709
0.134726
-0.359101
0.136366
-0.3563
0.138163
-0.354894
0.140771
-0.354116
0.144925
-0.352857
0.151356
-0.349913
0.160613
-0.344208
0.173073
-0.334771
0.189042
-0.320712
0.208814
-0.301236
0.232653
-0.275645
0.260785
-0.243371
0.293381
-0.204092
0.330559
-0.157025
0.372421
-0.103155
0.415224
-0.042679
0.457676
0.0231096
0.49808
0.0904605
0.533894
0.15618
0.559894
0.219707
0.572733
0.281126
0.569275
0.338704
0.551545
0.391358
0.519753
0.438016
0.476001
0.477743
0.423242
0.509987
0.364694
0.534645
0.303275
0.551979
0.241239
0.562293
0.180142
0.565715
0.121219
0.562395
0.0658246
0.551823
0.0154439
0.533536
-0.0302375
0.508627
-0.070249
0.478601
-0.103239
0.445146
-0.128529
0.409848
-0.146186
0.374074
-0.156862
-0.161575
0.338907
-0.990362
0.0819873
-0.951455
0.0808674
-0.914749
0.0807266
-0.879613
0.0822033
-0.846
0.0853988
-0.814216
0.0899071
-0.78466
0.0951908
-0.757643
0.10074
-0.733301
0.106163
-0.711666
0.1112
-0.692676
0.115741
-0.676184
0.11987
-0.661894
0.123873
-0.649314
0.12818
-0.637702
0.13331
-0.626145
0.139793
-0.613621
0.148091
-0.59912
0.15857
-0.581647
0.171562
-0.560218
0.18738
-0.533882
0.206314
-0.501748
0.228641
-0.462969
0.254598
-0.41675
0.284333
-0.361919
0.317603
-0.298977
0.352285
-0.228375
0.387077
-0.150892
0.420599
-0.0678708
0.450867
0.0183264
0.473692
0.101605
0.489464
0.179265
0.491618
0.253721
0.477087
0.324178
0.449299
0.389056
0.411123
0.446699
0.365599
0.495785
0.315617
0.535527
0.263532
0.565713
0.211043
0.586462
0.15939
0.597999
0.109684
0.600667
0.0631586
0.594953
0.0211565
0.58102
-0.0163025
0.559837
-0.0490656
0.53277
-0.076175
0.501377
-0.0971384
0.46721
-0.112017
0.431667
-0.12132
-0.125829
0.395919
-1.37249
0.0495361
-1.34035
0.0487254
-1.3084
0.0487767
-1.27626
0.0500676
-1.2437
0.0528336
-1.21074
0.056953
-1.17766
0.0621054
-1.14484
0.0679252
-1.1127
0.0740341
-1.08163
0.0801229
-1.05191
0.0860078
-1.02367
0.0916354
-0.996896
0.0970989
-0.971361
0.102632
-0.946609
0.108559
-0.922029
0.115219
-0.896873
0.122929
-0.870291
0.131985
-0.841383
0.142655
-0.80921
0.155199
-0.772778
0.169884
-0.731089
0.186953
-0.683105
0.206618
-0.627738
0.228973
-0.56387
0.253729
-0.491363
0.279781
-0.410395
0.306115
-0.321462
0.331653
-0.225524
0.35493
-0.124833
0.373007
-0.0211773
0.385807
0.0775903
0.392855
0.167506
0.38717
0.25293
0.363866
0.333451
0.330602
0.406381
0.292669
0.469675
0.252323
0.522068
0.211139
0.563128
0.169984
0.592961
0.129553
0.611959
0.0906863
0.620707
0.0544142
0.620046
0.0218147
0.610559
-0.00681596
0.59325
-0.0317592
0.569511
-0.0524364
0.54087
-0.0685009
0.508853
-0.0800012
0.474845
-0.0873153
-0.0909952
0.44001
-1.65907
0.0260746
-1.63566
0.0253195
-1.61209
0.0251941
-1.58793
0.0259191
-1.5628
0.0276918
-1.53638
0.0305205
-1.50853
0.034274
-1.47933
0.0387225
-1.44894
0.0436345
-1.41761
0.0487896
-1.38561
0.0540071
-1.35317
0.0591938
-1.32042
0.0643484
-1.28734
0.0695616
-1.25377
0.0749848
-1.21936
0.0808026
-1.18363
0.0872041
-1.146
0.0943601
-1.10578
0.10244
-1.06218
0.111615
-1.01435
0.122057
-0.96135
0.133946
-0.902161
0.147421
-0.835724
0.162536
-0.761083
0.179092
-0.67783
0.196523
-0.585898
0.214187
-0.485567
0.23133
-0.377532
0.246894
-0.263741
0.259214
-0.146058
0.268122
-0.0265728
0.273368
0.083353
0.277243
0.18276
0.264456
0.277172
0.23619
0.363076
0.206763
0.438077
0.17732
0.500696
0.148516
0.550594
0.120087
0.588024
0.0921238
0.613513
0.0652007
0.627773
0.0401576
0.631778
0.0178127
0.626478
-0.00151396
0.612964
-0.018247
0.592688
-0.0321611
0.567194
-0.0430001
0.537961
-0.0507652
0.506322
-0.0556781
-0.0580473
0.47337
-1.87452
0.0103884
-1.85883
0.00963498
-1.84302
0.00938429
-1.82672
0.00961166
-1.80944
0.0104129
-1.79072
0.0117987
-1.77018
0.0137241
-1.74757
0.016104
-1.72275
0.0188276
-1.69573
0.0217684
-1.66656
0.0248332
-1.63534
0.0279654
-1.60212
0.0311359
-1.56692
0.0343626
-1.52965
0.0377064
-1.49008
0.0412376
-1.44791
0.0450303
-1.40271
0.049165
-1.35398
0.0537088
-1.30111
0.0587461
-1.24342
0.064362
-1.18012
0.0706347
-1.11034
0.0776368
-1.03319
0.0853913
-0.947894
0.0937989
-0.853999
0.10263
-0.751387
0.111576
-0.640309
0.120242
-0.521509
0.128084
-0.396676
0.13439
-0.267584
0.139034
-0.136233
0.142001
-0.00245796
0.143465
0.120758
0.141246
0.227091
0.129858
0.323982
0.109877
0.408393
0.092909
0.478914
0.0779879
0.535607
0.0633987
0.578908
0.0488285
0.609401
0.0347073
0.627898
0.021659
0.635553
0.0101622
0.633656
0.00038394
0.623431
-0.00801815
0.606318
-0.0150477
0.583833
-0.0205094
0.557431
-0.0243673
0.528431
-0.0266859
-0.0274899
0.497871
-2.02841
-2.01878
-2.0094
-1.99978
-1.98936
-1.97756
-1.96384
-1.94773
-1.92891
-1.90715
-1.88232
-1.85436
-1.82323
-1.78886
-1.75116
-1.70993
-1.6649
-1.61575
-1.56204
-1.50329
-1.43893
-1.36829
-1.29065
-1.20527
-1.11147
-1.00883
-0.897263
-0.77702
-0.648931
-0.514543
-0.375513
-0.233514
-0.0900497
0.051197
0.181059
0.290937
0.383844
0.461833
0.525238
0.574065
0.608768
0.630427
0.640594
0.640973
0.63296
0.617917
0.597402
0.573033
0.546347
0.518859
0.0081202
-0.000162115
0.0081619
-4.85155e-05
0.0081862
-3.1815e-05
0.00818941
-9.59084e-06
0.00817925
4.61596e-06
0.00816299
1.17048e-05
0.00814448
1.5204e-05
0.00812572
1.69878e-05
0.00810795
1.77851e-05
0.00809195
1.79516e-05
0.00807811
1.77502e-05
0.00806645
1.73915e-05
0.00805667
1.70354e-05
0.00804816
1.67866e-05
0.00804011
1.67019e-05
0.00803165
1.68029e-05
0.00802192
1.70982e-05
0.00801013
1.76521e-05
0.00799559
1.85248e-05
0.00797837
1.92258e-05
0.00795932
1.91974e-05
0.00793915
1.88122e-05
0.00791844
1.83041e-05
0.00789791
1.76054e-05
0.00787826
1.67562e-05
0.00786005
1.58285e-05
0.00784379
1.48092e-05
0.00782994
1.3703e-05
0.00781891
1.24826e-05
0.00781106
1.11609e-05
0.00780653
9.83684e-06
0.00780511
8.6626e-06
0.00780618
7.80612e-06
0.0078087
7.38428e-06
0.00781126
7.45531e-06
0.00781221
8.00624e-06
0.0078098
8.92348e-06
0.00780245
9.97838e-06
0.00778905
1.08478e-05
0.00776931
1.11528e-05
0.00774398
1.04876e-05
0.00771492
8.51187e-06
0.00768505
5.01018e-06
0.0076581
-1.50059e-07
0.00763833
-7.00634e-06
0.00763016
-1.55796e-05
0.0076379
-2.59951e-05
0.00766573
-3.87336e-05
0.00771836
-5.51396e-05
-7.83921e-05
0.00780257
0.00787305
-8.35677e-05
0.00784601
-3.32598e-05
0.0078074
-4.40844e-06
0.00778356
4.64467e-06
0.00776898
1.14348e-05
0.00775951
1.57377e-05
0.00775397
1.8056e-05
0.00775204
1.93108e-05
0.00775358
1.99254e-05
0.0077585
2.00189e-05
0.00776662
1.96618e-05
0.00777759
1.89434e-05
0.00779083
1.79719e-05
0.0078055
1.68624e-05
0.00782066
1.57296e-05
0.00783533
1.46712e-05
0.00784867
1.37396e-05
0.00786027
1.29337e-05
0.00786989
1.24836e-05
0.00787701
1.26153e-05
0.00788178
1.24426e-05
0.00788455
1.23742e-05
0.00788585
1.2529e-05
0.00788639
1.26508e-05
0.00788693
1.26895e-05
0.00788817
1.26991e-05
0.00789071
1.25959e-05
0.0078952
1.2277e-05
0.00790212
1.17124e-05
0.00791178
1.08803e-05
0.00792422
9.82412e-06
0.00793912
8.62076e-06
0.00795581
7.29983e-06
0.00797323
5.87174e-06
0.00799002
4.32598e-06
0.00800457
2.61357e-06
0.00801525
6.44401e-07
0.00802063
-1.69303e-06
0.00801982
-4.50644e-06
0.00801269
-7.88436e-06
0.00800005
-1.19014e-05
0.00798374
-1.66507e-05
0.00796655
-2.22485e-05
0.007952
-2.8867e-05
0.00794397
-3.67807e-05
0.00794632
-4.64425e-05
0.00796247
-5.85603e-05
0.00799506
-7.42182e-05
0.00804537
-9.51469e-05
-0.000124118
0.00811254
0.00788254
-1.35292e-05
0.00784877
-9.6592e-06
0.00783455
3.12436e-07
0.00782617
4.83127e-06
0.00782308
7.73167e-06
0.00782305
1.07649e-05
0.00782482
1.34865e-05
0.00782821
1.56333e-05
0.00783349
1.71369e-05
0.00784092
1.79382e-05
0.00785062
1.80198e-05
0.00786249
1.74422e-05
0.0078761
1.6336e-05
0.00789077
1.48746e-05
0.00790566
1.32552e-05
0.00791984
1.16663e-05
0.00793247
1.02538e-05
0.00794282
9.16234e-06
0.00795049
8.59431e-06
0.00795529
8.92912e-06
0.0079576
9.0684e-06
0.00795814
9.18294e-06
0.00795764
9.48859e-06
0.00795671
9.87989e-06
0.00795601
1.02491e-05
0.00795622
1.05314e-05
0.00795798
1.06159e-05
0.00796185
1.04032e-05
0.00796829
9.87656e-06
0.0079776
8.97576e-06
0.00798986
7.6825e-06
0.0080048
6.0443e-06
0.00802175
4.05593e-06
0.00803964
1.69227e-06
0.00805706
-1.08374e-06
0.00807234
-4.32665e-06
0.00808382
-8.10089e-06
0.00809003
-1.24579e-05
0.00809006
-1.74141e-05
0.00808378
-2.29602e-05
0.00807205
-2.90852e-05
0.00805668
-3.58082e-05
0.00804041
-4.32333e-05
0.00802658
-5.15899e-05
0.00801882
-6.12786e-05
0.00802059
-7.29376e-05
0.00803478
-8.74827e-05
0.00806322
-0.000106139
0.00810616
-0.000130525
-0.000162672
0.00816144
0.00794401
-4.46428e-06
0.00792951
-4.42334e-06
0.00792058
5.89209e-07
0.00791261
5.23286e-06
0.00790504
8.83255e-06
0.00789845
1.22893e-05
0.00789319
1.54759e-05
0.00788973
1.8017e-05
0.00788861
1.97065e-05
0.00789027
2.04537e-05
0.00789491
2.02498e-05
0.00790243
1.91795e-05
0.0079124
1.74136e-05
0.00792413
1.5188e-05
0.0079367
1.27761e-05
0.0079491
1.04531e-05
0.00796035
8.4709e-06
0.0079696
7.06807e-06
0.00797631
6.42964e-06
0.00798105
6.12889e-06
0.00798307
6.73354e-06
0.00798318
7.01506e-06
0.00798208
7.46067e-06
0.00798047
8.00648e-06
0.00797904
8.52056e-06
0.00797848
8.9e-06
0.00797947
9.0023e-06
0.00798261
8.73477e-06
0.00798844
8.05129e-06
0.00799733
6.88644e-06
0.00800935
5.21128e-06
0.00802418
3.03145e-06
0.00804113
3.10291e-07
0.0080591
-3.01244e-06
0.00807662
-7.00136e-06
0.00809204
-1.17119e-05
0.00810365
-1.71765e-05
0.00811002
-2.33828e-05
0.00811024
-3.02614e-05
0.00810419
-3.77105e-05
0.00809264
-4.56347e-05
0.00807733
-5.39904e-05
0.00806083
-6.28586e-05
0.00804628
-7.25e-05
0.00803705
-8.34044e-05
0.00803632
-9.63205e-05
0.0080466
-0.000112263
0.00806929
-0.000132496
0.0081042
-0.000158472
-0.000191663
0.00814917
0.00794539
3.71899e-06
0.00792657
6.16731e-06
0.00791102
8.32866e-06
0.00789851
1.06798e-05
0.00788831
1.26745e-05
0.00788047
1.47496e-05
0.00787507
1.69006e-05
0.0078722
1.87498e-05
0.00787215
1.99401e-05
0.00787517
2.025e-05
0.00788141
1.95948e-05
0.00789073
1.80256e-05
0.00790269
1.57135e-05
0.00791657
1.29259e-05
0.00793142
9.97687e-06
0.00794622
7.18761e-06
0.00795997
4.86171e-06
0.00797182
3.29682e-06
0.00798136
2.45013e-06
0.00798848
1.90142e-06
0.00799298
2.73847e-06
0.00799507
3.51145e-06
0.00799552
4.29432e-06
0.00799508
5.11374e-06
0.00799449
5.8418e-06
0.00799452
6.35513e-06
0.00799586
6.52656e-06
0.0079992
6.25702e-06
0.00800512
5.49175e-06
0.008014
4.1781e-06
0.00802588
2.26496e-06
0.00804045
-3.02159e-07
0.00805701
-3.60491e-06
0.00807447
-7.73825e-06
0.0080914
-1.27867e-05
0.00810616
-1.88039e-05
0.00811712
-2.57886e-05
0.00812288
-3.36619e-05
0.00812259
-4.22708e-05
0.00811611
-5.14192e-05
0.00810417
-6.09069e-05
0.00808838
-7.06115e-05
0.00807113
-8.05755e-05
0.00805531
-9.10663e-05
0.00804401
-0.000102626
0.00804014
-0.000116086
0.00804594
-0.000132537
0.0080626
-0.000153271
0.00808992
-0.000179651
-0.000212885
0.00812616
0.00795033
7.45142e-06
0.00793813
1.12889e-05
0.00792783
1.1735e-05
0.0079196
1.23562e-05
0.00791258
1.33961e-05
0.00790656
1.4966e-05
0.0079017
1.6865e-05
0.00789842
1.8627e-05
0.00789723
1.97839e-05
0.0078987
2.00204e-05
0.00790319
1.92039e-05
0.00791076
1.73773e-05
0.00792113
1.47348e-05
0.00793366
1.15787e-05
0.00794748
8.26141e-06
0.00796156
5.14505e-06
0.00797488
2.55259e-06
0.00798643
9.11748e-07
0.00799482
7.11036e-07
0.00800026
3.63333e-07
0.00800364
7.8382e-07
0.0080049
1.53742e-06
0.00800455
2.35654e-06
0.00800324
3.21355e-06
0.00800171
3.9523e-06
0.00800072
4.41189e-06
0.00800104
4.47823e-06
0.00800338
4.07392e-06
0.00800834
3.15187e-06
0.00801629
1.65463e-06
0.00802723
-5.03542e-07
0.00804085
-3.43437e-06
0.00805643
-7.26964e-06
0.00807289
-1.21395e-05
0.00808883
-1.81474e-05
0.00810265
-2.53459e-05
0.00811278
-3.37041e-05
0.00811789
-4.30842e-05
0.00811715
-5.32457e-05
0.00811041
-6.38924e-05
0.00809833
-7.47167e-05
0.00808237
-8.55054e-05
0.00806468
-9.62477e-05
0.00804788
-0.000107204
0.00803478
-0.000118953
0.00802799
-0.000132397
0.00802956
-0.000148701
0.0080406
-0.0001692
0.00806104
-0.000195236
-0.0002279
0.00808958
0.00795185
1.02178e-05
0.00794176
1.55452e-05
0.00793207
1.55392e-05
0.00792312
1.53181e-05
0.00791458
1.56644e-05
0.00790653
1.66769e-05
0.00789937
1.80758e-05
0.00789372
1.9382e-05
0.00789031
2.0113e-05
0.00788984
1.99287e-05
0.00789278
1.86826e-05
0.00789928
1.64214e-05
0.00790912
1.33528e-05
0.00792166
9.79983e-06
0.00793602
6.13939e-06
0.00795109
2.74208e-06
0.00796577
-9.17359e-08
0.00797907
-2.00643e-06
0.00798988
-2.21051e-06
0.00799774
-2.41514e-06
0.00800301
-2.06485e-06
0.00800588
-1.30229e-06
0.0080068
-4.19059e-07
0.00800642
4.78973e-07
0.0080055
1.22983e-06
0.00800483
1.67908e-06
0.00800523
1.71783e-06
0.00800746
1.28473e-06
0.00801214
3.32513e-07
0.00801962
-1.21537e-06
0.00802993
-3.48333e-06
0.00804275
-6.63379e-06
0.00805738
-1.08438e-05
0.00807279
-1.62776e-05
0.00808762
-2.3061e-05
0.00810036
-3.12447e-05
0.00810952
-4.07682e-05
0.00811387
-5.14363e-05
0.00811262
-6.29184e-05
0.00810565
-7.48037e-05
0.00809353
-8.66795e-05
0.00807751
-9.82535e-05
0.00805949
-0.000109459
0.00804179
-0.00012054
0.00802689
-0.000132103
0.00801714
-0.000145111
0.00801441
-0.000160807
0.0080198
-0.000180586
0.00803346
-0.000205813
-0.000237591
0.00805459
0.00795308
1.23841e-05
0.00794533
1.87781e-05
0.00793768
1.8384e-05
0.00793018
1.73873e-05
0.00792262
1.69383e-05
0.00791506
1.72564e-05
0.00790791
1.80659e-05
0.00790188
1.88809e-05
0.00789782
1.92088e-05
0.00789655
1.8689e-05
0.00789872
1.71587e-05
0.0079046
1.46568e-05
0.00791407
1.13968e-05
0.00792656
7.70931e-06
0.00794117
3.97756e-06
0.00795675
5.63499e-07
0.00797206
-2.23497e-06
0.00798576
-4.00248e-06
0.00799676
-3.97784e-06
0.00800476
-4.11644e-06
0.00800995
-3.80061e-06
0.00801251
-3.10045e-06
0.0080129
-2.2646e-06
0.00801179
-1.46056e-06
0.00800998
-8.55459e-07
0.00800835
-5.62835e-07
0.00800775
-6.57192e-07
0.00800898
-1.18374e-06
0.00801264
-2.1982e-06
0.00801903
-3.8041e-06
0.00802817
-6.16511e-06
0.00803969
-9.48707e-06
0.00805293
-1.39871e-05
0.00806687
-1.98678e-05
0.00808023
-2.72798e-05
0.00809158
-3.62755e-05
0.00809955
-4.67649e-05
0.00810301
-5.84851e-05
0.00810129
-7.10262e-05
0.00809422
-8.38727e-05
0.00808227
-9.652e-05
0.0080665
-0.000108606
0.0080485
-0.000120015
0.00803024
-0.000130976
0.00801387
-0.00014211
0.00800146
-0.000154431
0.0079947
-0.000169248
0.00799472
-0.000188032
0.0080019
-0.000212198
-0.000242881
0.00801588
0.00795407
1.42587e-05
0.00794818
2.15104e-05
0.007942
2.08198e-05
0.00793524
1.92422e-05
0.00792767
1.81287e-05
0.00791939
1.78105e-05
0.00791094
1.80442e-05
0.00790318
1.83528e-05
0.00789718
1.82477e-05
0.00789398
1.737e-05
0.00789441
1.55577e-05
0.0078989
1.28542e-05
0.00790743
9.47594e-06
0.0079195
5.74869e-06
0.00793419
2.03564e-06
0.00795027
-1.32615e-06
0.00796643
-4.07162e-06
0.0079813
-5.83665e-06
0.0079937
-5.81672e-06
0.00800301
-5.90761e-06
0.00800931
-5.65216e-06
0.00801274
-5.06259e-06
0.00801371
-4.33776e-06
0.00801289
-3.68564e-06
0.00801115
-3.2539e-06
0.0080094
-3.11763e-06
0.00800857
-3.31547e-06
0.00800945
-3.88394e-06
0.00801261
-4.89563e-06
0.00801833
-6.48547e-06
0.00802657
-8.85174e-06
0.00803699
-1.22346e-05
0.00804892
-1.689e-05
0.00806141
-2.30546e-05
0.00807327
-3.09005e-05
0.00808319
-4.04812e-05
0.00808997
-5.16735e-05
0.00809263
-6.41492e-05
0.00809057
-7.74237e-05
0.00808362
-9.09061e-05
0.00807214
-0.00010402
0.00805693
-0.00011635
0.00803925
-0.000127732
0.00802072
-0.000138377
0.00800311
-0.000148918
0.0079882
-0.000160401
0.00797749
-0.00017421
0.00797216
-0.00019187
0.00797286
-0.000214863
-0.000244387
0.0079797
0.00795504
1.59008e-05
0.00795086
2.38294e-05
0.00794608
2.28114e-05
0.00794016
2.06588e-05
0.00793282
1.88461e-05
0.00792424
1.78138e-05
0.00791502
1.73802e-05
0.00790619
1.71041e-05
0.00789895
1.65209e-05
0.00789451
1.52896e-05
0.00789387
1.32586e-05
0.0078976
1.04738e-05
0.00790576
7.13894e-06
0.00791787
3.55155e-06
0.00793296
3.40518e-08
0.00794975
-3.11955e-06
0.0079668
-5.67741e-06
0.00798259
-7.28857e-06
0.00799579
-7.17145e-06
0.00800572
-7.17021e-06
0.00801237
-6.93224e-06
0.00801586
-6.47217e-06
0.00801664
-5.95108e-06
0.00801546
-5.5508e-06
0.00801322
-5.36538e-06
0.00801091
-5.42639e-06