/*--------------------------------*- C++ -*----------------------------------*\
  =========                 |
  \\      /  F ield         | OpenFOAM: The Open Source CFD Toolbox
   \\    /   O peration     | Website:  https://openfoam.org
    \\  /    A nd           | Version:  8
     \\/     M anipulation  |
\*---------------------------------------------------------------------------*/
FoamFile
{
    version     2.0;
    format      ascii;
    class       volScalarField;
    location    "400";
    object      T;
}
// * * * * * * * * * * * * * * * * * * * * * * * * * * * * * * * * * * * * * //

dimensions      [0 0 0 1 0 0 0];

internalField   nonuniform List<scalar> 
8400
(
298.767
298.843
298.921
298.998
299.069
299.129
299.176
299.207
299.218
299.206
299.167
299.099
299.001
298.875
298.725
298.557
298.381
298.211
298.059
297.932
297.832
297.752
297.681
297.614
297.556
297.519
297.505
297.503
297.503
297.498
297.5
297.517
297.553
297.613
297.695
297.799
297.921
298.054
298.191
298.327
298.453
298.563
298.651
298.714
298.748
298.749
298.714
298.642
298.53
298.38
299.455
299.469
299.495
299.529
299.565
299.595
299.619
299.633
299.636
299.626
299.6
299.556
299.495
299.418
299.327
299.226
299.122
299.025
298.944
298.882
298.838
298.806
298.772
298.731
298.7
298.694
298.714
298.746
298.777
298.802
298.832
298.876
298.933
299.004
299.087
299.176
299.267
299.355
299.436
299.509
299.571
299.622
299.662
299.69
299.706
299.71
299.699
299.671
299.624
299.552
299.937
299.909
299.884
299.866
299.857
299.855
299.856
299.859
299.86
299.85
299.825
299.791
299.752
299.708
299.66
299.608
299.557
299.51
299.47
299.439
299.415
299.385
299.337
299.283
299.25
299.248
299.273
299.307
299.334
299.352
299.378
299.416
299.463
299.518
299.577
299.637
299.694
299.745
299.788
299.823
299.851
299.872
299.888
299.9
299.907
299.909
299.907
299.9
299.885
299.86
299.999
299.998
299.997
299.994
299.99
299.984
299.977
299.971
299.97
299.971
299.973
299.977
299.981
299.987
299.99
299.991
299.99
299.987
299.982
299.972
299.956
299.871
299.684
299.575
299.538
299.541
299.57
299.596
299.592
299.595
299.615
299.646
299.681
299.722
299.765
299.806
299.843
299.874
299.898
299.916
299.929
299.939
299.945
299.95
299.954
299.955
299.956
299.954
299.949
299.94
300.002
300.002
300.004
300.005
300.007
300.008
300.009
300.009
300.009
300.009
300.009
300.01
300.011
300.013
300.015
300.018
300.021
300.024
300.026
300.026
300.024
300.016
299.996
299.968
299.938
299.913
299.89
299.861
299.709
299.702
299.727
299.749
299.777
299.81
299.843
299.874
299.9
299.92
299.935
299.945
299.951
299.956
299.96
299.963
299.965
299.968
299.969
299.969
299.968
299.964
300.001
300
299.999
299.999
300
300.001
300.002
300.003
300.004
300.005
300.006
300.005
300.004
300.003
300.002
300.001
300.001
300.001
300.003
300.005
300.007
300.008
300.005
299.998
299.984
299.966
299.943
299.916
299.876
299.853
299.824
299.795
299.815
299.842
299.87
299.895
299.916
299.932
299.944
299.95
299.954
299.957
299.96
299.963
299.967
299.97
299.973
299.975
299.975
299.974
300.002
300.003
300.002
300.002
300.002
300.002
300.003
300.003
300.004
300.005
300.005
300.005
300.005
300.005
300.004
300.003
300.002
300.001
300.001
300.001
300.001
300.002
300.002
300
299.995
299.985
299.97
299.951
299.925
299.899
299.869
299.842
299.826
299.847
299.871
299.894
299.915
299.931
299.941
299.946
299.949
299.951
299.953
299.957
299.962
299.968
299.973
299.977
299.979
299.98
300.002
300.002
300.002
300.002
300.002
300.002
300.003
300.003
300.003
300.004
300.004
300.004
300.004
300.003
300.003
300.003
300.002
300.001
300.001
300
300
300
300
300
299.998
299.993
299.984
299.971
299.953
299.931
299.906
299.88
299.855
299.839
299.84
299.88
299.905
299.923
299.933
299.937
299.939
299.939
299.941
299.946
299.954
299.962
299.97
299.977
299.981
299.983
300.002
300.003
300.003
300.002
300.002
300.002
300.003
300.003
300.003
300.003
300.003
300.003
300.003
300.003
300.002
300.002
300.002
300.001
300.001
300
300
300
300
300
299.999
299.996
299.991
299.982
299.97
299.954
299.934
299.911
299.887
299.865
299.847
299.849
299.874
299.91
299.922
299.925
299.924
299.922
299.924
299.93
299.941
299.953
299.965
299.974
299.98
299.984
300.002
300.002
300.002
300.002
300.002
300.002
300.002
300.002
300.002
300.002
300.002
300.002
300.002
300.002
300.002
300.001
300.001
300.001
300.001
300
300
300
300
300
299.999
299.998
299.995
299.989
299.981
299.969
299.953
299.935
299.915
299.893
299.872
299.858
299.858
299.875
299.894
299.912
299.912
299.903
299.903
299.912
299.927
299.943
299.958
299.97
299.978
299.984
300.001
300.002
300.002
300.002
300.002
300.002
300.002
300.002
300.002
300.002
300.002
300.002
300.001
300.001
300.001
300.001
300.001
300.001
300.001
300
300
300
300
300
299.999
299.999
299.997
299.993
299.987
299.978
299.967
299.953
299.936
299.918
299.899
299.882
299.871
299.87
299.876
299.885
299.89
299.889
299.891
299.901
299.918
299.936
299.953
299.966
299.976
299.983
300.001
300.001
300.002
300.002
300.002
300.002
300.002
300.001
300.001
300.001
300.001
300.001
300.001
300.001
300.001
300.001
300.001
300.001
300
300
300
300
300
300
300
299.999
299.998
299.995
299.991
299.985
299.976
299.966
299.953
299.938
299.923
299.907
299.894
299.886
299.883
299.885
299.887
299.889
299.894
299.906
299.921
299.938
299.953
299.966
299.976
299.983
300.001
300.001
300.001
300.002
300.002
300.002
300.002
300.001
300.001
300.001
300.001
300.001
300.001
300.001
300.001
300.001
300.001
300.001
300.001
300.001
300
300
300
300
300
299.999
299.998
299.997
299.993
299.989
299.982
299.974
299.965
299.954
299.942
299.929
299.918
299.909
299.904
299.903
299.904
299.907
299.912
299.922
299.934
299.947
299.96
299.97
299.978
299.984
300
300
300.001
300.001
300.001
300.001
300.002
300.002
300.002
300.002
300.002
300.001
300.001
300.001
300.001
300.001
300.001
300.001
300.001
300.001
300.001
300.001
300
300
300
300
299.999
299.997
299.995
299.991
299.986
299.98
299.973
299.965
299.956
299.947
299.939
299.932
299.927
299.925
299.926
299.929
299.934
299.942
299.951
299.96
299.969
299.976
299.982
299.987
299.999
299.999
300
300.001
300.002
300.002
300.002
300.003
300.003
300.003
300.003
300.003
300.003
300.003
300.003
300.002
300.002
300.002
300.002
300.002
300.001
300.001
300.001
300.001
300
300
299.999
299.998
299.995
299.993
299.989
299.984
299.979
299.973
299.967
299.961
299.955
299.95
299.947
299.946
299.947
299.95
299.954
299.96
299.966
299.972
299.978
299.983
299.987
299.99
300.001
300.001
300.002
300.003
300.003
300.003
300.004
300.004
300.004
300.004
300.004
300.004
300.004
300.004
300.004
300.004
300.004
300.003
300.003
300.003
300.002
300.002
300.001
300.001
300.001
300
299.999
299.998
299.996
299.994
299.99
299.987
299.983
299.979
299.975
299.971
299.967
299.964
299.963
299.963
299.964
299.966
299.969
299.973
299.977
299.981
299.985
299.988
299.991
299.993
300.004
300.003
300.004
300.004
300.004
300.004
300.004
300.004
300.004
300.004
300.005
300.005
300.005
300.005
300.005
300.004
300.004
300.004
300.004
300.003
300.003
300.002
300.002
300.001
300.001
300
299.999
299.998
299.996
299.994
299.992
299.989
299.986
299.983
299.98
299.978
299.976
299.975
299.974
299.975
299.976
299.978
299.98
299.983
299.986
299.989
299.991
299.993
299.994
299.995
300.004
300.003
300.003
300.003
300.003
300.002
300.002
300.002
300.002
300.001
300.001
300.001
300.001
300.001
300.002
300.002
300.002
300.002
300.002
300.002
300.002
300.002
300.001
300.001
300.001
300
299.999
299.998
299.996
299.995
299.992
299.99
299.988
299.986
299.984
299.983
299.983
299.982
299.983
299.983
299.985
299.986
299.988
299.99
299.992
299.993
299.995
299.995
299.996
299.995
299.997
299.996
299.996
299.996
299.996
299.995
299.995
299.994
299.994
299.993
299.993
299.993
299.992
299.992
299.993
299.993
299.993
299.994
299.994
299.995
299.995
299.996
299.997
299.997
299.997
299.997
299.997
299.997
299.996
299.995
299.993
299.991
299.989
299.988
299.987
299.987
299.987
299.988
299.988
299.989
299.99
299.991
299.993
299.994
299.995
299.996
299.996
299.995
299.995
299.994
299.966
299.967
299.969
299.97
299.971
299.971
299.971
299.971
299.971
299.97
299.97
299.969
299.969
299.968
299.968
299.968
299.969
299.969
299.97
299.971
299.973
299.975
299.977
299.979
299.981
299.983
299.985
299.987
299.988
299.989
299.989
299.989
299.988
299.987
299.986
299.987
299.987
299.988
299.988
299.988
299.989
299.989
299.989
299.989
299.989
299.988
299.988
299.986
299.985
299.983
303.147
303.142
303.137
303.132
303.127
303.123
303.118
303.113
303.109
303.104
303.1
303.095
303.091
303.086
303.082
303.077
303.073
303.069
303.065
303.06
303.057
303.053
303.049
303.045
303.042
303.038
303.035
303.031
303.028
303.025
303.022
303.018
303.015
303.012
303.009
303.006
303.003
303
302.998
302.995
302.992
302.989
302.986
302.984
302.981
302.979
302.977
302.974
302.973
302.971
303.15
303.15
303.15
303.15
303.15
303.149
303.149
303.149
303.148
303.148
303.148
303.147
303.147
303.146
303.146
303.145
303.145
303.144
303.144
303.143
303.142
303.141
303.14
303.139
303.138
303.136
303.135
303.134
303.133
303.132
303.131
303.129
303.128
303.127
303.125
303.124
303.123
303.122
303.12
303.119
303.118
303.117
303.116
303.115
303.114
303.113
303.112
303.111
303.11
303.109
303.15
303.15
303.15
303.15
303.15
303.15
303.15
303.15
303.15
303.15
303.15
303.15
303.15
303.15
303.15
303.15
303.15
303.15
303.15
303.15
303.149
303.149
303.149
303.149
303.149
303.149
303.148
303.148
303.148
303.148
303.147
303.147
303.147
303.146
303.146
303.146
303.145
303.145
303.144
303.144
303.144
303.143
303.143
303.143
303.142
303.142
303.142
303.141
303.141
303.141
303.15
303.15
303.15
303.15
303.15
303.15
303.15
303.15
303.15
303.15
303.15
303.15
303.15
303.15
303.15
303.15
303.15
303.15
303.15
303.15
303.15
303.15
303.15
303.15
303.15
303.15
303.15
303.15
303.15
303.15
303.15
303.15
303.15
303.15
303.149
303.149
303.149
303.149
303.149
303.149
303.149
303.149
303.149
303.149
303.149
303.149
303.149
303.149
303.148
303.148
303.15
303.15
303.15
303.15
303.15
303.15
303.15
303.15
303.15
303.15
303.15
303.15
303.15
303.15
303.15
303.15
303.15
303.15
303.15
303.15
303.15
303.15
303.15
303.15
303.15
303.15
303.15
303.15
303.15
303.15
303.15
303.15
303.15
303.15
303.15
303.15
303.15
303.15
303.15
303.15
303.15
303.15
303.15
303.15
303.15
303.15
303.15
303.15
303.15
303.15
303.15
303.15
303.15
303.15
303.15
303.15
303.15
303.15
303.15
303.15
303.15
303.15
303.15
303.15
303.15
303.15
303.15
303.15
303.15
303.15
303.15
303.15
303.15
303.15
303.15
303.15
303.15
303.15
303.15
303.15
303.15
303.15
303.15
303.15
303.15
303.15
303.15
303.15
303.15
303.15
303.15
303.15
303.15
303.15
303.15
303.15
303.15
303.15
303.15
303.15
303.15
303.15
303.15
303.15
303.15
303.15
303.15
303.15
303.15
303.15
303.15
303.15
303.15
303.15
303.15
303.15
303.15
303.15
303.15
303.15
303.15
303.15
303.15
303.15
303.15
303.15
303.15
303.15
303.15
303.15
303.15
303.15
303.15
303.15
303.15
303.15
303.15
303.15
303.15
303.15
303.15
303.15
303.15
303.15
303.15
303.15
303.15
303.15
303.15
303.15
303.15
303.15
303.15
303.15
303.15
303.15
303.15
303.15
303.15
303.15
303.15
303.15
303.15
303.15
303.15
303.15
303.15
303.15
303.15
303.15
303.15
303.15
303.15
303.15
303.15
303.15
303.15
303.15
303.15
303.15
303.15
303.15
303.15
303.15
303.15
303.15
303.15
303.15
303.15
303.15
303.15
303.15
303.15
303.15
303.15
303.15
303.15
303.15
303.15
303.15
303.15
303.15
303.15
303.15
303.15
303.15
303.15
303.15
303.15
303.15
303.15
303.15
303.15
303.15
303.15
303.15
303.15
303.15
303.15
303.15
303.15
303.15
303.15
303.15
303.15
303.15
303.15
303.15
303.15
303.15
303.15
303.15
303.15
303.15
303.15
303.15
303.15
303.15
303.15
303.15
303.15
303.15
303.15
303.15
303.15
303.15
303.15
303.15
303.15
303.15
303.15
303.15
303.15
303.15
303.15
303.15
303.15
303.15
303.15
303.15
303.15
303.15
303.15
303.15
303.15
303.15
303.15
303.15
303.15
303.15
303.15
303.15
303.15
303.15
303.15
303.15
303.15
303.15
303.15
303.15
303.15
303.15
303.15
303.15
303.15
303.15
303.15
303.15
303.15
303.15
303.15
303.15
303.15
303.15
303.15
303.15
303.15
303.15
303.15
303.15
303.15
303.15
303.15
303.15
303.15
303.15
303.15
303.15
303.15
303.15
303.15
303.15
303.15
303.15
303.15
303.15
303.15
303.15
303.15
303.15
303.15
303.15
303.15
303.15
303.15
303.15
303.15
303.15
303.15
303.15
303.15
303.15
303.15
303.15
303.15
303.15
303.15
303.15
303.15
303.15
303.15
303.15
303.15
303.15
303.15
303.15
303.15
303.15
303.15
303.15
303.15
303.15
303.15
303.15
303.15
303.15
303.15
303.15
303.15
303.15
303.15
303.15
303.15
303.15
303.15
303.15
303.15
303.15
303.15
303.15
303.15
303.15
303.15
303.15
303.15
303.15
303.15
303.15
303.15
303.15
303.15
303.15
303.15
303.15
303.15
303.15
303.15
303.15
303.15
303.15
303.15
303.15
303.15
303.15
303.15
303.15
303.15
303.15
303.15
303.15
303.15
303.15
303.15
303.15
303.15
303.15
303.15
303.15
303.15
303.15
303.15
303.15
303.15
303.15
303.15
303.15
303.15
303.15
303.15
303.15
303.15
303.15
303.15
303.15
303.15
303.15
303.15
303.15
303.15
303.15
303.15
303.15
303.15
303.15
303.15
303.15
303.15
303.15
303.15
303.15
303.15
303.15
303.15
303.15
303.15
303.15
303.15
303.15
303.15
303.15
303.15
303.15
303.15
303.15
303.15
303.15
303.15
303.15
303.15
303.15
303.15
303.15
303.15
303.15
303.15
303.15
303.15
303.15
303.15
303.15
303.15
303.15
303.15
303.15
303.15
303.15
303.15
303.15
303.15
303.15
303.15
303.15
303.15
303.15
303.15
303.15
303.15
303.15
303.15
303.15
303.15
303.15
303.15
303.15
303.15
303.15
303.15
303.15
303.15
303.15
303.15
303.15
303.15
303.15
303.15
303.15
303.15
303.15
303.15
303.15
303.15
303.15
303.15
303.15
303.15
303.15
303.15
303.15
303.15
303.15
303.15
303.15
303.15
303.15
303.15
303.15
303.15
303.15
303.15
303.15
303.15
303.15
303.15
303.15
303.15
303.15
303.15
303.15
303.15
303.15
303.15
303.15
303.15
303.15
303.15
303.15
303.15
303.15
303.15
303.15
303.15
303.15
303.15
303.15
303.15
303.15
303.15
303.15
303.15
303.15
303.15
303.15
303.15
303.15
303.15
303.15
303.15
303.15
303.15
303.15
303.15
303.15
303.15
303.15
303.15
303.15
303.15
303.15
303.15
303.15
303.15
303.15
303.15
303.15
303.15
303.15
303.15
303.15
303.15
303.15
303.15
303.15
303.15
303.15
303.15
303.15
303.15
303.15
303.149
303.149
303.15
303.15
303.15
303.15
303.15
303.15
303.15
303.15
303.15
303.15
303.15
303.15
303.15
303.15
303.15
303.15
303.15
303.15
303.15
303.15
303.15
303.15
303.15
303.15
303.15
303.15
303.15
303.15
303.15
303.15
303.15
303.15
303.15
303.15
303.149
303.149
303.149
303.149
303.149
303.149
303.149
303.149
303.149
303.148
303.148
303.148
303.148
303.148
303.147
303.147
303.15
303.15
303.15
303.15
303.15
303.15
303.15
303.15
303.15
303.15
303.15
303.15
303.15
303.15
303.15
303.15
303.15
303.15
303.15
303.15
303.149
303.149
303.149
303.149
303.149
303.149
303.148
303.148
303.148
303.147
303.147
303.147
303.146
303.146
303.146
303.145
303.145
303.144
303.144
303.143
303.143
303.142
303.142
303.141
303.141
303.14
303.139
303.138
303.137
303.136
303.15
303.15
303.15
303.15
303.15
303.149
303.149
303.149
303.148
303.148
303.148
303.147
303.147
303.146
303.146
303.145
303.145
303.144
303.144
303.143
303.142
303.141
303.14
303.139
303.138
303.136
303.135
303.134
303.133
303.132
303.13
303.129
303.128
303.126
303.125
303.123
303.122
303.121
303.119
303.117
303.116
303.114
303.113
303.111
303.109
303.108
303.106
303.104
303.102
303.1
303.147
303.142
303.137
303.132
303.127
303.123
303.118
303.113
303.109
303.104
303.1
303.095
303.091
303.086
303.082
303.078
303.073
303.069
303.065
303.06
303.056
303.052
303.049
303.045
303.042
303.038
303.035
303.031
303.028
303.025
303.021
303.018
303.015
303.012
303.009
303.006
303.003
303
302.997
302.994
302.991
302.988
302.985
302.983
302.98
302.977
302.974
302.971
302.969
302.966
298.473
295.354
293.745
293.208
293.069
293.053
293.068
293.089
293.104
293.108
293.103
293.086
293.087
293.132
293.268
293.56
294.063
294.762
295.592
296.341
298.491
295.363
293.751
293.21
293.07
293.054
293.07
293.09
293.105
293.109
293.105
293.087
293.087
293.134
293.27
293.566
294.07
294.765
295.581
296.303
298.512
295.374
293.757
293.212
293.071
293.055
293.071
293.092
293.107
293.11
293.106
293.089
293.088
293.134
293.272
293.568
294.073
294.764
295.569
296.271
298.535
295.387
293.765
293.214
293.072
293.056
293.073
293.094
293.109
293.112
293.108
293.09
293.088
293.135
293.273
293.57
294.075
294.761
295.555
296.238
298.559
295.402
293.773
293.217
293.073
293.057
293.075
293.096
293.111
293.113
293.109
293.091
293.089
293.136
293.274
293.572
294.076
294.757
295.539
296.202
298.586
295.418
293.781
293.22
293.074
293.059
293.077
293.098
293.113
293.114
293.11
293.092
293.089
293.137
293.276
293.573
294.076
294.752
295.521
296.164
298.614
295.435
293.79
293.223
293.075
293.06
293.079
293.101
293.115
293.116
293.111
293.092
293.09
293.137
293.277
293.574
294.076
294.745
295.501
296.124
298.644
295.453
293.8
293.226
293.077
293.062
293.081
293.103
293.117
293.117
293.113
293.093
293.09
293.138
293.277
293.575
294.074
294.737
295.48
296.082
298.675
295.473
293.81
293.229
293.078
293.064
293.083
293.106
293.119
293.119
293.114
293.094
293.091
293.139
293.278
293.575
294.072
294.727
295.456
296.038
298.708
295.493
293.819
293.232
293.079
293.065
293.085
293.108
293.122
293.12
293.115
293.095
293.092
293.139
293.278
293.574
294.069
294.716
295.43
295.993
298.742
295.515
293.83
293.235
293.081
293.067
293.088
293.111
293.124
293.121
293.116
293.096
293.092
293.139
293.278
293.573
294.064
294.703
295.403
295.946
298.777
295.537
293.84
293.238
293.082
293.069
293.091
293.114
293.127
293.122
293.117
293.098
293.093
293.139
293.278
293.571
294.059
294.689
295.374
295.897
298.813
295.559
293.85
293.241
293.084
293.071
293.093
293.117
293.129
293.124
293.118
293.099
293.093
293.139
293.277
293.57
294.053
294.674
295.344
295.848
298.849
295.582
293.861
293.245
293.086
293.073
293.096
293.12
293.131
293.125
293.118
293.1
293.094
293.139
293.277
293.567
294.046
294.658
295.312
295.797
298.885
295.605
293.872
293.248
293.088
293.076
293.099
293.123
293.134
293.125
293.118
293.101
293.095
293.139
293.277
293.565
294.038
294.641
295.28
295.745
298.922
295.628
293.883
293.252
293.09
293.078
293.102
293.126
293.136
293.126
293.117
293.101
293.095
293.139
293.276
293.563
294.031
294.623
295.246
295.693
298.958
295.651
293.895
293.256
293.092
293.081
293.105
293.129
293.139
293.126
293.115
293.102
293.096
293.14
293.276
293.561
294.024
294.605
295.212
295.64
298.993
295.674
293.907
293.261
293.095
293.084
293.109
293.133
293.141
293.127
293.112
293.102
293.096
293.14
293.277
293.56
294.016
294.587
295.178
295.587
299.027
295.698
293.919
293.265
293.098
293.087
293.112
293.136
293.143
293.127
293.11
293.101
293.097
293.141
293.278
293.559
294.009
294.569
295.143
295.533
299.06
295.723
293.931
293.27
293.101
293.09
293.115
293.139
293.145
293.128
293.107
293.101
293.098
293.142
293.279
293.559
294.003
294.551
295.107
295.478
299.093
295.748
293.944
293.275
293.104
293.093
293.119
293.142
293.147
293.129
293.106
293.101
293.098
293.143
293.281
293.559
293.997
294.533
295.072
295.424
299.126
295.774
293.957
293.281
293.107
293.096
293.122
293.145
293.15
293.131
293.106
293.1
293.099
293.145
293.283
293.561
293.992
294.515
295.037
295.369
299.159
295.8
293.97
293.286
293.11
293.099
293.126
293.149
293.153
293.134
293.106
293.1
293.1
293.147
293.287
293.563
293.988
294.498
295.001
295.314
299.192
295.827
293.984
293.292
293.114
293.103
293.13
293.152
293.156
293.137
293.108
293.099
293.101
293.15
293.291
293.567
293.985
294.481
294.966
295.259
299.225
295.853
293.998
293.298
293.117
293.106
293.133
293.156
293.159
293.14
293.111
293.099
293.103
293.154
293.298
293.572
293.983
294.464
294.929
295.203
299.257
295.88
294.013
293.305
293.121
293.11
293.137
293.16
293.163
293.143
293.114
293.1
293.106
293.16
293.307
293.579
293.981
294.446
294.892
295.148
299.29
295.908
294.028
293.312
293.125
293.113
293.141
293.164
293.167
293.148
293.117
293.102
293.111
293.169
293.317
293.587
293.979
294.428
294.855
295.092
299.322
295.936
294.043
293.319
293.129
293.117
293.145
293.168
293.171
293.152
293.122
293.106
293.117
293.179
293.329
293.596
293.978
294.41
294.816
295.036
299.355
295.965
294.06
293.327
293.134
293.121
293.149
293.172
293.175
293.157
293.128
293.111
293.126
293.191
293.342
293.605
293.975
294.39
294.777
294.98
299.388
295.995
294.077
293.335
293.138
293.125
293.153
293.177
293.18
293.163
293.135
293.119
293.136
293.204
293.356
293.614
293.972
294.369
294.737
294.925
299.422
296.026
294.095
293.343
293.143
293.129
293.158
293.181
293.185
293.169
293.143
293.128
293.147
293.218
293.37
293.623
293.968
294.348
294.697
294.869
299.456
296.058
294.114
293.352
293.148
293.134
293.162
293.186
293.191
293.175
293.152
293.138
293.159
293.233
293.383
293.63
293.963
294.326
294.657
294.814
299.49
296.091
294.134
293.362
293.154
293.138
293.167
293.191
293.196
293.182
293.161
293.149
293.172
293.247
293.395
293.636
293.956
294.302
294.616
294.759
299.525
296.126
294.156
293.373
293.159
293.143
293.171
293.196
293.203
293.189
293.17
293.16
293.185
293.261
293.407
293.641
293.949
294.278
294.575
294.705
299.562
296.163
294.179
293.384
293.165
293.147
293.176
293.202
293.209
293.197
293.179
293.172
293.197
293.274
293.418
293.645
293.94
294.253
294.534
294.651
299.599
296.201
294.203
293.396
293.172
293.152
293.181
293.207
293.215
293.205
293.189
293.183
293.21
293.286
293.427
293.647
293.93
294.228
294.493
294.598
299.638
296.242
294.229
293.409
293.178
293.157
293.186
293.213
293.222
293.214
293.199
293.195
293.222
293.298
293.436
293.649
293.919
294.202
294.451
294.545
299.679
296.286
294.257
293.423
293.185
293.162
293.191
293.219
293.229
293.222
293.21
293.207
293.234
293.309
293.444
293.649
293.907
294.175
294.41
294.493
299.722
296.332
294.288
293.438
293.193
293.168
293.197
293.225
293.237
293.231
293.22
293.218
293.246
293.32
293.451
293.648
293.894
294.148
294.369
294.441
299.766
296.382
294.32
293.454
293.201
293.173
293.202
293.231
293.245
293.241
293.231
293.23
293.258
293.331
293.458
293.647
293.88
294.121
294.329
294.391
299.814
296.436
294.356
293.472
293.21
293.179
293.207
293.237
293.252
293.251
293.243
293.243
293.27
293.341
293.464
293.645
293.867
294.094
294.289
294.341
299.864
296.494
294.395
293.491
293.219
293.185
293.213
293.244
293.26
293.261
293.255
293.255
293.282
293.351
293.469
293.642
293.852
294.067
294.249
294.291
299.919
296.558
294.438
293.513
293.229
293.191
293.218
293.25
293.269
293.271
293.267
293.268
293.294
293.361
293.475
293.639
293.838
294.04
294.209
294.243
299.977
296.627
294.486
293.537
293.24
293.197
293.224
293.257
293.277
293.282
293.279
293.281
293.306
293.371
293.48
293.636
293.823
294.013
294.17
294.195
300.04
296.704
294.54
293.564
293.251
293.203
293.229
293.263
293.285
293.293
293.292
293.295
293.319
293.381
293.485
293.633
293.809
293.986
294.131
294.149
300.109
296.79
294.6
293.595
293.265
293.21
293.234
293.269
293.294
293.304
293.305
293.309
293.332
293.392
293.491
293.63
293.794
293.96
294.093
294.103
300.184
296.885
294.668
293.63
293.28
293.217
293.24
293.275
293.302
293.315
293.319
293.323
293.346
293.402
293.496
293.626
293.779
293.933
294.055
294.058
300.267
296.992
294.746
293.671
293.297
293.224
293.245
293.281
293.31
293.326
293.332
293.338
293.36
293.413
293.501
293.623
293.765
293.907
294.017
294.013
300.358
297.113
294.836
293.718
293.317
293.232
293.25
293.287
293.317
293.336
293.346
293.353
293.374
293.424
293.506
293.619
293.75
293.881
293.979
293.97
300.458
297.25
294.94
293.774
293.34
293.241
293.254
293.291
293.324
293.346
293.358
293.368
293.387
293.434
293.511
293.615
293.735
293.854
293.942
293.928
300.57
297.407
295.061
293.841
293.368
293.251
293.259
293.296
293.331
293.356
293.371
293.382
293.4
293.445
293.516
293.611
293.72
293.828
293.906
293.886
300.695
297.587
295.204
293.921
293.403
293.263
293.263
293.299
293.336
293.364
293.382
293.395
293.413
293.454
293.519
293.606
293.705
293.802
293.869
293.845
300.832
297.793
295.374
294.02
293.446
293.277
293.267
293.302
293.34
293.37
293.392
293.407
293.425
293.463
293.522
293.6
293.689
293.775
293.833
293.805
300.984
298.03
295.575
294.141
293.501
293.296
293.272
293.303
293.342
293.375
293.4
293.418
293.434
293.469
293.523
293.593
293.672
293.748
293.797
293.766
301.151
298.302
295.817
294.292
293.572
293.321
293.278
293.304
293.343
293.378
293.405
293.426
293.442
293.474
293.523
293.585
293.655
293.72
293.761
293.728
301.333
298.614
296.106
294.482
293.667
293.356
293.286
293.303
293.341
293.378
293.408
293.431
293.447
293.477
293.52
293.575
293.636
293.692
293.725
293.691
301.528
298.97
296.454
294.723
293.795
293.407
293.299
293.303
293.338
293.376
293.408
293.432
293.449
293.476
293.515
293.563
293.616
293.664
293.689
293.654
301.734
299.371
296.871
295.03
293.968
293.482
293.321
293.303
293.333
293.37
293.404
293.43
293.448
293.473
293.508
293.55
293.595
293.634
293.653
293.618
301.946
299.818
297.368
295.422
294.207
293.595
293.359
293.308
293.327
293.362
293.396
293.424
293.443
293.467
293.497
293.534
293.572
293.604
293.617
293.582
302.159
300.305
297.955
295.922
294.537
293.768
293.427
293.322
293.321
293.352
293.386
293.414
293.435
293.457
293.484
293.515
293.547
293.573
293.581
293.547
302.365
300.817
298.633
296.551
294.992
294.031
293.546
293.358
293.32
293.339
293.372
293.401
293.423
293.443
293.467
293.494
293.52
293.54
293.545
293.512
302.551
301.335
299.395
297.33
295.614
294.434
293.755
293.439
293.334
293.328
293.354
293.384
293.407
293.426
293.447
293.47
293.491
293.507
293.508
293.477
302.71
301.831
300.21
298.263
296.445
295.038
294.117
293.61
293.389
293.328
293.336
293.363
293.387
293.404
293.423
293.443
293.46
293.472
293.471
293.442
302.832
302.27
301.026
299.321
297.51
295.919
294.725
293.956
293.54
293.365
293.324
293.338
293.361
293.379
293.396
293.412
293.427
293.435
293.433
293.406
302.913
302.62
301.768
300.427
298.786
297.13
295.696
294.614
293.905
293.516
293.353
293.317
293.33
293.349
293.365
293.379
293.391
293.397
293.394
293.368
302.958
302.864
302.364
301.45
300.162
298.649
297.123
295.768
294.701
293.965
293.537
293.348
293.304
293.315
293.33
293.342
293.352
293.358
293.354
293.328
302.974
303.007
302.772
302.255
301.421
300.29
298.95
297.544
296.212
295.073
294.206
293.647
293.37
293.291
293.3
293.316
293.332
293.347
293.363
293.367
302.974
303.075
302.999
302.77
302.349
301.704
300.828
299.75
298.532
297.253
296.008
294.914
294.094
293.619
293.45
293.522
293.652
293.874
294.268
295.313
302.965
303.098
303.097
303.024
302.868
302.605
302.217
301.692
301.028
300.215
299.254
298.157
297.023
296.107
295.708
295.913
296.844
298.372
299.967
301.858
302.952
303.102
303.129
303.117
303.076
303.002
302.891
302.74
302.559
302.353
302.137
301.918
301.689
301.412
301.122
300.978
301.368
302.319
302.567
302.605
302.939
303.098
303.135
303.141
303.135
303.12
303.096
303.065
303.028
302.99
302.954
302.927
302.911
302.898
302.887
302.876
302.865
302.845
302.797
302.718
302.926
303.092
303.135
303.146
303.147
303.144
303.139
303.132
303.123
303.111
303.097
303.08
303.061
303.039
303.014
302.983
302.944
302.894
302.828
302.74
302.914
303.085
303.132
303.146
303.149
303.149
303.147
303.145
303.141
303.134
303.126
303.114
303.098
303.077
303.051
303.017
302.974
302.917
302.844
302.749
302.902
303.079
303.13
303.145
303.149
303.149
303.149
303.148
303.146
303.142
303.137
303.128
303.116
303.099
303.075
303.042
302.998
302.938
302.859
302.756
302.891
303.073
303.127
303.144
303.149
303.15
303.15
303.149
303.148
303.146
303.143
303.137
303.128
303.114
303.093
303.063
303.019
302.957
302.874
302.761
302.882
303.068
303.124
303.144
303.149
303.15
303.15
303.15
303.149
303.148
303.146
303.142
303.136
303.125
303.107
303.079
303.036
302.974
302.886
302.765
302.873
303.063
303.122
303.143
303.148
303.15
303.15
303.15
303.15
303.149
303.148
303.145
303.14
303.132
303.117
303.092
303.051
302.989
302.898
302.769
302.865
303.058
303.119
303.142
303.148
303.15
303.15
303.15
303.15
303.149
303.149
303.147
303.143
303.137
303.124
303.102
303.064
303.002
302.908
302.773
302.859
303.054
303.117
303.141
303.148
303.15
303.15
303.15
303.15
303.15
303.149
303.148
303.146
303.14
303.13
303.11
303.074
303.014
302.918
302.776
302.853
303.05
303.115
303.14
303.148
303.149
303.15
303.15
303.15
303.15
303.15
303.149
303.147
303.143
303.134
303.116
303.083
303.023
302.926
302.779
302.848
303.047
303.113
303.14
303.147
303.149
303.15
303.15
303.15
303.15
303.15
303.149
303.148
303.144
303.137
303.121
303.09
303.032
302.933
302.782
302.844
303.044
303.112
303.139
303.147
303.149
303.15
303.15
303.15
303.15
303.15
303.149
303.148
303.146
303.139
303.125
303.096
303.039
302.94
302.785
302.841
303.042
303.111
303.138
303.147
303.149
303.15
303.15
303.15
303.15
303.15
303.15
303.149
303.147
303.141
303.128
303.101
303.045
302.946
302.787
302.838
303.04
303.109
303.138
303.147
303.149
303.15
303.15
303.15
303.15
303.15
303.15
303.149
303.147
303.142
303.131
303.105
303.051
302.951
302.79
302.836
303.039
303.109
303.138
303.147
303.149
303.15
303.15
303.15
303.15
303.15
303.15
303.149
303.148
303.143
303.133
303.108
303.055
302.955
302.792
302.834
303.038
303.108
303.137
303.147
303.149
303.15
303.15
303.15
303.15
303.15
303.15
303.149
303.148
303.144
303.134
303.111
303.059
302.959
302.795
302.833
303.037
303.108
303.137
303.147
303.149
303.15
303.15
303.15
303.15
303.15
303.15
303.149
303.148
303.145
303.136
303.113
303.063
302.963
302.797
302.833
303.037
303.107
303.137
303.147
303.149
303.15
303.15
303.15
303.15
303.15
303.15
303.15
303.149
303.145
303.137
303.115
303.065
302.966
302.799
302.833
303.037
303.107
303.137
303.147
303.149
303.15
303.15
303.15
303.15
303.15
303.15
303.15
303.149
303.146
303.138
303.117
303.068
302.969
302.801
302.834
303.037
303.107
303.137
303.147
303.149
303.15
303.15
303.15
303.15
303.15
303.15
303.15
303.149
303.146
303.138
303.118
303.07
302.971
302.804
302.834
303.037
303.107
303.137
303.147
303.149
303.15
303.15
303.15
303.15
303.15
303.15
303.15
303.149
303.146
303.139
303.119
303.072
302.974
302.806
302.835