/*--------------------------------*- C++ -*----------------------------------*\
  =========                 |
  \\      /  F ield         | OpenFOAM: The Open Source CFD Toolbox
   \\    /   O peration     | Website:  https://openfoam.org
    \\  /    A nd           | Version:  8
     \\/     M anipulation  |
\*---------------------------------------------------------------------------*/
FoamFile
{
    version     2.0;
    format      ascii;
    class       volScalarField;
    location    "600";
    object      p;
}
// * * * * * * * * * * * * * * * * * * * * * * * * * * * * * * * * * * * * * //

dimensions      [1 -1 -2 0 0 0 0];

internalField   nonuniform List<scalar> 
1200
(
693382
690407
688899
688399
688011
687512
687107
686954
687178
687181
686739
686203
685730
685183
684478
683590
682677
682094
682057
682373
682695
683406
684777
686188
685255
679561
670324
660678
648039
628921
608348
590400
574978
560334
545410
530653
516200
502707
490801
480022
469823
461240
454022
447734
443514
441597
440766
439621
437152
431697
420658
401492
372599
333842
287214
235198
181546
127185
75696.3
20918.8
686039
686632
686702
686859
686909
686763
686523
686396
686682
686712
686332
685872
685453
684938
684251
683364
682447
681824
681719
681991
682297
683070
684420
686040
685477
679826
670105
659398
646651
628799
608587
590831
575811
561421
546488
531484
516859
503220
491340
480522
469983
461230
454040
447654
443448
441751
441168
440218
438107
433125
422476
403513
374629
335759
288992
236888
183059
128592
76821.3
21546.3
687070
688300
688456
688223
687904
687442
686945
686755
686881
686880
686458
685896
685402
684842
684140
683280
682402
681731
681499
681735
682085
683055
684366
686076
685781
679680
668819
657017
643583
625750
606039
588978
574572
560529
545747
530905
516368
502604
490778
479996
469183
460266
453160
446761
442492
440921
440634
439998
438266
433663
423324
404561
375587
336250
288779
236128
182498
128295
76356.4
22606
686869
687380
687239
686949
686751
686534
686180
685989
686195
686270
685937
685446
685002
684484
683819
682982
682105
681382
681037
681218
681596
682866
684413
686515
686874
680153
668109
655076
641342
624529
606257
590094
576072
562131
547179
532028
516953
502711
490711
479959
468922
460006
453045
446434
441959
440619
440913
440766
439332
434955
424853
406320
377408
337828
289857
236561
182059
127669
75763.4
23068.9
686730
687152
687243
687112
686977
686789
686401
686105
686158
686165
685847
685352
684874
684321
683623
682781
681891
681121
680749
681089
681802
683759
685999
688192
689585
681509
667615
653289
639308
623292
606032
590200
575923
561764
546922
531977
517165
503073
490761
479628
468588
459401
451889
445329
441226
440090
440296
440176
439183
435335
425718
407736
379186
339394
290699
236501
181208
126347
74230.8
21628.9
686523
686901
687016
686895
686774
686635
686256
685937
685927
685914
685629
685153
684652
684058
683306
682385
681401
680556
680155
680678
681727
684430
687873
690521
695163
686747
670609
653624
638270
622435
606043
590695
576371
562055
547142
532080
517299
503293
490768
479270
468110
458584
450735
444265
440520
439801
440557
441361
441028
437300
427446
409345
380905
341103
291993
237031
180985
125557
73278.7
21226.2
686248
686602
686530
686252
686078
685999
685657
685363
685368
685394
685186
684779
684300
683715
682971
682039
680997
680128
679823
680720
682258
685403
690580
692472
701219
691198
671780
652453
636712
621720
606482
591766
577315
562559
547325
532110
517360
503479
490852
479040
467614
457612
449314
442863
439607
439542
440798
441919
441695
437836
428149
411229
384165
344422
294299
238087
180996
124703
72098.2
20445.3
686057
687024
687214
686987
686751
686571
686159
685778
685619
685509
685248
684830
684318
683696
682919
681950
680845
679930
679633
680733
682435
685443
691247
686691
702443
695703
674661
651645
634771
619977
605485
591412
577042
562191
546993
531866
517198
503323
490513
478464
466903
456711
448267
441934
439228
439939
441768
443013
442708
438631
428225
410560
383268
343833
293796
237355
180128
123815
71739.9
19999.9
684634
684948
685211
685313
685374
685494
685264
685024
684994
684997
684846
684525
684067
683493
682777
681909
680953
680224
680038
681129
682666
685363
691809
690252
709456
700178
677011
651613
633252
619630
606775
593823
579307
563710
547862
532349
517503
503551
490659
478508
466865
456674
448269
441903
439011
439482
440994
441997
441219
436829
427032
410527
384626
345587
295148
238151
180628
124015
71566
20236.4
691605
688188
686899
686400
686095
685958
685590
685265
685140
685060
684858
684502
684017
683437
682742
681918
681048
680457
680443
681770
683699
687132
694347
692883
721791
705496
677558
650721
631821
617888
604903
591810
577576
562406
546920
531631
516881
502966
490102
478031
466609
456615
448192
441951
439118
439455
440901
441985
441374
437156
427290
410041
382565
342637
292267
235967
179413
123523
71646.1
20375
693598
689877
688598
688181
687943
687875
687771
687382
686791
686443
686294
686132
685822
685414
684941
684316
683574
682939
682434
682122
682254
682892
683940
684811
683773
678942
670489
661012
647616
627888
607279
589608
574519
560144
545448
530772
516543
503235
491368
480442
469937
460932
453538
447258
443031
440972
439855
438591
436206
430743
419731
400716
372107
333759
287406
235701
182119
128067
75856.8
21992
686108
686344
686545
686735
686872
687046
687085
686764
686319
686022
685900
685784
685511
685140
684701
684086
683353
682741
682237
681905
682017
682676
683632
684616
683934
679089
670119
659684
646258
627635
607038
589242
574399
560262
545605
530795
516498
503130
491315
480368
469540
460366
452966
446563
442341
440507
439657
438595
436530
431487
420842
402025
373413
334906
288338
236524
182798
128674
76261.8
22131.1
687189
687989
688181
688023
687813
687637
687517
687252
686631
686244
686077
685885
685540
685123
684652
684073
683402
682802
682230
681873
682005
682820
683694
684807
684387
679098
669055
657583
643688
625455
605606
588512
574153
560220
545550
530762
516434
502859
491029
480083
468987
459666
452339
445922
441630
439883
439333
438644
437015
432369
422018
403384
374713
335816
288623
236223
182599
128623
76132.5
23288.9
686974
687234
687159
686947
686789
686675
686647
686426
686021
685763
685650
685501
685188
684806
684361
683807
683194
682618
681975
681563
681706
682836
683991
685462
685519
679459
668172
655437
641303
624218
605896
589701
575674
561795
546920
531847
517051
503095
491158
480248
468893
459500
452211
445618
441209
439741
439797
439575
438162
433665
423510
405077
376434
337243
289503
236491
182051
127874
75481.3
23485.3
686849
687123
687214
687125
686986
686805
686795
686603
686135
685774
685586
685401
685081
684715
684323
683865
683360
682841
682199
681893
682286
684018
685791
687278
688245
680650
667486
653474
639134
622892
605617
589794
575594
561552
546792
531910
517287
503394
491085
479813
468498
458875
451126
444596
440486
439192
439197
439098
438175
434176
424444
406482
378157
338763
290310
236373
181122
126483
73966.9
22185
686656
686978
687070
686999
686873
686652
686634
686486
686053
685679
685446
685230
684916
684561
684174
683719
683236
682760
682135
681995
682695
685151
688103
690071
694081
685735
669982
653148
637511
621648
605443
590207
575985
561805
546981
531978
517348
503515
491001
479401
467983
457968
449866
443415
439651
438798
439354
440132
439915
436071
426168
408161
379965
340519
291579
236826
180752
125497
72837
21574.6
686388
686738
686573
686327
686137
685919
685902
685808
685505
685231
685039
684856
684604
684314
684001
683644
683263
682890
682309
682345
683340
686178
690878
692029
699991
689877
670801
651675
635739
620796
605828
591235
576840
562161
546962
531772
517126
503390
490764
478862
467205
456695
448173
441758
438520
438391
439582
440809
440649
436599
426694
409637
382705
343373
293504
237588
180527
124498
71593.4
20804.7
686220
687351
687442
687273
687014
686579
686475
686314
685874
685441
685110
684825
684520
684175
683790
683362
682946
682607
682104
682345
683501
686290
691718
686748
702614
696432
675305
651395
633657
618696
604462
590535
576274
561543
546386
531283
516709
502991
490220
478130
466388
455681
447035
440697
437978
438733
440557
441881
441632
437461
427045
409424
382295
343181
293274
236980
179570
123355
70933.1
20162.4
684720
685132
685263
685456
685523
685403
685466
685428
685161
684879
684640
684411
684156
683842
683469
683057
682671
682349
681838
682054
683033
685354
691165
689051
708206
698962
676105
650581
631869
618156
605452
592548
578223
562849
547096
531615
516862
503092
490288
478146
466377
455661
447050
440730
437837
438327
439898
441061
440355
435719
425546
408622
382552
343873
293800
237227
179686
123289
70620.6
20079.4
691769
688539
686998
686590
686275
685833
685743
685591
685209
684832
684528
684260
683982
683637
683219
682744
682280
681911
681473
681883
683296
686420
693156
691236
719688
703136
675800
649169
630123
616267
603626
590704
576595
561571
546168
530930
516291
502559
489767
477673
466105
455591
446992
440836
438022
438334
439813
441064
440570
436198
426146
408786
381443
341927
291754
235629
178817
122978
70814.6
20337.7
)
;

boundaryField
{
    wall
    {
        type            calculated;
        value           nonuniform List<scalar> 
1200
(
693271
686004
687009
686815
686671
686456
686177
685975
684592
691524
690675
686779
688457
687454
687167
686863
686533
686859
684856
688011
689051
686782
688595
687280
687257
686988
686508
687099
685185
686850
688512
686923
688325
686949
687106
686841
686213
686842
685241
686304
688048
686930
687951
686732
686972
686723
686047
686616
685297
686003
687331
686622
687346
686465
686782
686627
686040
686568
685540
686022
686773
686240
686658
685946
686204
686067
685535
686001
685162
685514
686737
686209
686504
685768
685854
685660
685138
685507
684822
685102
687372
686864
687007
686282
686168
685861
685296
685489
684910
685106
687554
687061
687200
686525
686361
686030
685473
685541
685056
685176
686965
686552
686650
686081
685978
685720
685256
685316
684951
685025
686242
685919
685902
685418
685327
685113
684737
684831
684583
684626
685687
685426
685333
684909
684771
684516
684143
684215
684025
684038
685070
684840
684703
684324
684123
683803
683408
683453
683321
683341
684249
684029
683885
683548
683272
682867
682445
682478
682434
682508
683228
683005
682884
682571
682238
681711
681220
681235
681339
681510
682229
681996
681904
681561
681154
680474
679841
679777
680097
680437
681671
681367
681195
680765
680258
679442
678719
678561
679163
679736
681870
681464
681133
680569
680022
679150
678558
678367
679138
679933
682502
682041
681668
681047
680688
680003
679899
679909
680673
681723
682919
682442
682127
681539
681563
681224
681716
681887
682486
683906
683664
683270
683174
682875
683634
684062
685023
684995
685370
687493
685196
684816
684702
684611
686103
687760
690455
690966
692149
694968
686880
686760
686711
687035
688658
690793
692751
686391
690832
693700
686008
686261
686477
687546
690273
695791
701900
702125
710118
722819
679882
680201
679964
680491
681948
687349
691896
695233
700836
706535
670264
670102
668691
668064
667682
671001
672295
674362
677480
678345
660545
659264
656720
654883
653198
653910
652864
651851
652119
651476
648260
646866
643521
641357
639400
638679
637217
635420
633919
632671
629406
629396
625900
624682
623497
622843
622199
620685
620339
618705
608835
609363
606266
606430
606242
606348
606822
606040
607415
605543
590762
591617
589214
590277
590407
590940
592042
591884
594443
592367
575191
576504
574774
576256
576098
576563
577562
577455
579838
578074
560426
561987
560671
562292
561887
562179
562765
562543
564135
562832
545392
546916
545833
547311
547005
547218
547512
547323
548244
547302
530597
531820
530973
532125
532023
532124
532285
532183
532717
531987
516033
517036
516334
516909
517108
517266
517484
517466
517823
517180
502448
503265
502478
502523
502910
503173
503534
503508
503775
503173
490520
491353
490653
490494
490601
490644
490909
490677
490834
490272
479814
480601
479949
479822
479539
479198
479142
478645
478678
478213
469768
470208
469282
468927
468635
468168
467829
467173
467101
466862
461397
461667
460568
460238
459667
458890
458080
457239
457181
457129
454266
454581
453569
453441
452274
451169
449892
448891
448882
448796
447974
448204
447180
446844
445696
444688
443419
442556
442495
442513
443757
444002
442926
442346
441586
440951
440152
439852
439601
439669
441911
442369
441445
441055
440526
440303
440122
440533
440060
440020
441225
441922
441290
441453
440843
441158
441407
442365
441542
441448
440140
441032
440677
441343
440723
441972
442467
443575
442465
442442
437626
438897
438889
439904
439693
441572
442210
443234
441656
441766
432175
433940
434305
435590
435912
437896
438450
439194
437397
437625
421123
423288
423971
425514
426345
428066
428871
428793
427793
427852
401880
404252
405142
406929
408350
409921
412012
411111
411498
410658
372844
375236
376015
377883
379685
381362
384873
383741
385663
383116
333882
336187
336461
338111
339697
341383
344922
344141
346424
342983
287117
289319
288856
290027
290886
292190
294675
294042
295795
292520
234948
237065
236089
236591
236561
237127
238317
237536
238593
236139
181260
183185
182449
182060
181247
181099
181215
180406
181088
179717
126748
128547
128132
127569
126277
125589
124797
124050
124376
123806
75616.3
77095
76466.8
75903.9
74360.1
73501.5
72350.7
72142.4
72041.2
72066.8
20389.4
21259.4
22258.8
22858.9
21351.4
21054.3
20266.3
19923.5
20323.1
20401.7
693709
686143
687250
687028
686909
686723
686458
686301
684762
691850
689609
686198
687832
687160
687108
687017
686806
687516
685224
688716
688445
686465
688042
687118
687200
687098
686595
687556
685289
687048
688068
686671
687922
686946
687132
687052
686366
687418
685529
686686
687906
686851
687766
686808
686991
686924
686168
687148
685600
686367
688056
687186
687734
686744
686811
686660
685878
686582
685356
685769
688104
687368
687804
686881
686992
686824
686024
686634
685567
685819
687599
686951
687503
686647
686854
686762
686033
686584
685630
685754
686598
686138
686506
685935
686124
686118
685577
686003
685245
685244
686071
685673
685924
685509
685578
685562
685151
685408
684819
684717
686068
685681
685885
685505
685455
685354
684968
685041
684535
684361
686093
685737
685878
685529
685426
685270
684897
684823
684353
684136
685865
685537
685609
685282
685185
685050
684759
684621
684198
683962
685527
685238
685263
684966
684913
684815
684618
684416
684014
683734
685170
684924
684906
684631
684673
684611
684524
684229
683812
683455
684677
684446
684469
684219
684408
684390
684457
684074
683628
683154
684023
683806
683902
683738
684096
684157
684408
684008
683528
682893
683366
683201
683340
683236
683703
683867
684282
683964
683413
682636
682625
682496
682597
682444
682926
683130
683552
683352
682739
681987
681996
681860
681942
681736
682293
682656
683147
683155
682514
681936
682034
681877
681965
681765
682525
683180
683869
684047
683224
683097
682637
682481
682703
682827
684139
685496
686548
686743
685375
686070
683523
683240
683361
683789
685675
688191
690994
691998
690876
692554
684120
683898
684174
684931
686790
689777
691740
687029
688543
690439
683020
683150
683692
684831
687531
693447
699300
702890
707625
718667
678621
678714
678814
679106
680189
685157
689177
696812
698365
702091
670548
670122
669183
668204
667413
669636
670307
675526
675627
675010
661143
659818
657879
655621
653567
652912
651303
651172
650075
648414
647391
646041
643750
641279
639046
637141
635265
633050
631203
629274
627400
627035
625305
624058
622691
621267
620338
618039
617449
615451
606790
606258
605379
605718
605410
605156
605500
603952
604814
602986
589246
588453
588275
589514
589589
589973
590966
590100
591928
590148
574307
573704
573950
575489
575420
575799
576596
575893
577693
576099
560053
559697
560078
561634
561430
561684
561955
561221
562425
561148
545466
545178
545464
546788
546711
546905
546775
546084
546715
545788
530828
530461
530694
531749
531865
531932
531599
530992
531248
530577
516710
516323
516467
517095
517346
517376
517005
516466
516543
515994
503495
503087
502985
503283
503558
503627
503341
502829
502869
502353
491650
491304
491155
491376
491245
491118
490714
490078
490114
489598
480650
480291
480130
480385
479902
479465
478769
477968
477977
477493
469992
469316
468888
468883
468449
467919
467000
466137
466142
465854
460776
459930
459364
459263
458605
457656
456237
455170
455155
455078
453295
452426
451931
451815
450735
449429
447605
446425
446438
446390
447019
446014
445503
445208
444223
442990
441211
440087
440139
440276
442788
441788
441196
440821
440119
439219
437983
437364
437248
437473
440658
439890
439359
439305
438751
438296
437818
438143
437750
437770
439397
438903
438678
439259
438651
438753
438979
439960
439351
439268
438073
437782
437966
438999
438551
439521
440262
441318
440593
440608
435732
435741
436393
437591
437666
439371
440133
441106
439918
440179
430266
430673
431727
433030
433599
435474
435984
436898
435152
435729
419267
420032
421372
422850
423817
425548
425972
426477
424785
425583
400329
401287
402803
404469
405868
407583
408854
408871
407648
408169
371863
372808
374286
375960
377657
379506
381995
381820
381512
380891
333719
334480
335606
336961
338460
340237
342870
342869
343035
341581
287503
288011
288548
289334
290122
291381
293127
293026
293153
291502
235951
236348
236263
236462
236313
236730
237357
236799
236787
235459
182405
182674
182647
182050
181083
180638
180308
179293
179228
178514
128503
128719
128786
127975
126554
125466
124404
123121
122930
122696
75936.7
75989.1
76021.9
75340.9
73837.9
72614.5
71341.9
70531.6
70146.7
70394.8
22521.1
22418.9
23635.9
23695.3
22462.8
21746.7
20984.5
20239.8
19993.6
20311.7
)
;
    }
    inlet
    {
        type            calculated;
        value           nonuniform List<scalar> 
20
(
693382
686039
687070
686869
686730
686523
686248
686057
684634
691605
693598
686108
687189
686974
686849
686656
686388
686220
684720
691769
)
;
    }
    outlet
    {
        type            calculated;
        value           nonuniform List<scalar> 
20
(
-97.8249
-293.181
-488.125
-683.26
-878.701
-1074.62
-1270.82
-1467.15
-1663.26
-1858.19
-97.8245
-293.176
-488.122
-683.259
-878.699
-1074.62
-1270.82
-1467.15
-1663.26
-1858.19
)
;
    }
    heatWall
    {
        type            calculated;
        value           nonuniform List<scalar> 
240
(
691508
691672
688091
688441
686801
686901
686302
686493
685997
686178
685860
685735
685492
685646
685168
685493
685043
685112
684963
684734
684761
684430
684404
684162
683920
683884
683340
683539
682645
683122
681820
682647
680950
682182
680360
681814
680345
681375
681672
681785
683602
683198
687034
686322
694249
693059
692786
691139
721694
719590
705398
703038
677460
675702
650624
649071
631723
630026
617790
616169
604805
603528
591712
590606
577478
576497
562308
561474
546822
546071
531533
530833
516783
516193
502868
502461
490004
489669
477933
477575
466511
466007
456517
455493
448094
446894
441854
440738
439020
437924
439357
438237
440803
439715
441887
440966
441276
440472
437058
436100
427192
426048
409943
408688
382467
381345
342539
341829
292169
291656
235869
235531
179315
178719
123426
122880
71548.3
70716.8
20277.2
20239.9
693480
693696
690505
689975
688996
688695
688497
688278
688108
688041
687609
687973
687205
687868
687052
687479
687276
686889
687279
686541
686836
686391
686301
686229
685827
685919
685281
685512
684576
685039
683687
684413
682775
683671
682192
683037
682155
682532
682470
682219
682793
682352
683503
682990
684875
684038
686285
684909
685353
683871
679658
679040
670421
670587
660775
661110
648136
647714
629019
627985
608446
607376
590498
589705
575076
574617
560432
560241
545507
545546
530750
530869
516298
516641
502805
503333
490899
491466
480120
480539
469921
470034
461338
461030
454120
453636
447832
447356
443612
443129
441695
441069
440864
439953
439719
438689
437250
436304
431795
430841
420756
419828
401590
400814
372697
372205
333940
333856
287312
287504
235296
235799
181644
182217
127283
128164
75794.1
75954.6
21016.6
22089.8
)
;
    }
}


// ************************************************************************* //
