/*--------------------------------*- C++ -*----------------------------------*\
  =========                 |
  \\      /  F ield         | OpenFOAM: The Open Source CFD Toolbox
   \\    /   O peration     | Website:  https://openfoam.org
    \\  /    A nd           | Version:  8
     \\/     M anipulation  |
\*---------------------------------------------------------------------------*/
FoamFile
{
    version     2.0;
    format      ascii;
    class       surfaceScalarField;
    location    "600";
    object      phi;
}
// * * * * * * * * * * * * * * * * * * * * * * * * * * * * * * * * * * * * * //

dimensions      [1 0 -1 0 0 0 0];

internalField   nonuniform List<scalar> 
2860
(
1.60209
-0.00860744
-0.127124
1.60415
0.00474232
0.200706
1.60479
0.00477991
0.390567
1.60442
0.00590144
0.529939
1.60384
0.00603482
0.577651
1.60257
0.00518854
0.356333
1.60012
0.00433377
-0.0549451
1.59657
0.00359504
-0.322517
1.59506
0.00409374
-0.0832141
1.59525
0.00432978
0.379834
1.59574
0.00420828
0.664762
1.59632
0.00412354
0.718012
1.5975
0.00404611
0.670039
1.59954
0.00392791
0.535634
1.60229
0.0035766
0.2557
1.6043
0.00241718
-0.188539
1.60405
0.000173951
-0.734658
1.60137
-0.000602387
-1.24604
1.59574
0.00174819
-1.46516
1.58593
0.0068424
-1.29246
1.56945
0.0136212
-1.00133
1.54673
0.0193486
-0.665804
1.51934
0.0254524
-0.123511
1.5017
0.0218942
0.790549
1.5
0.0127399
1.8165
1.50458
0.0151043
2.32303
1.52906
0.0374984
2.54109
1.60467
0.0899478
3.447
1.69679
0.12152
5.76935
1.73789
0.113603
8.20594
1.71506
0.0973799
9.76767
1.65318
0.0820309
10.4615
1.57918
0.067342
10.5943
1.51079
0.0520714
10.4321
1.45684
0.0358239
10.1022
1.42021
0.0200442
9.74521
1.39801
0.00774105
9.27049
1.38471
0.000614026
8.698
1.37607
-0.00327447
8.12054
1.36984
-0.00523731
7.66472
1.36513
-0.00626969
7.44164
1.363
-0.00825453
7.5341
1.36346
-0.0108779
7.75317
1.36488
-0.0123598
7.9566
1.36588
-0.0125916
8.15338
1.36513
-0.0112172
8.44099
1.36247
-0.0088499
8.93009
1.35952
-0.00778227
9.50658
1.3591
-0.00949445
10.0301
1.36409
-0.0135375
10.5802
1.37623
-0.0192251
11.1337
1.39541
-0.0252638
11.5901
1.41817
-0.0282745
11.8473
1.438
-0.0249055
11.8219
1.44878
-0.0150162
11.6185
1.44822
-0.0017477
11.2283
1.43471
0.0128243
10.8176
1.41205
0.0243396
10.2323
1.3786
0.0359967
10.1585
0.033961
9.4827
1.59199
-0.0134127
-0.0419065
1.59229
0.0007152
0.138449
1.59106
0.00160379
0.239785
1.59109
0.00293076
0.32076
1.59197
0.00363236
0.349177
1.5931
0.0019434
0.177162
1.59343
0.000187131
-0.171955
1.59222
0.000842133
-0.402743
1.59316
0.00181311
-0.17648
1.59555
0.00332478
0.257983
1.59816
0.0041039
0.535064
1.60092
0.00461421
0.598943
1.60436
0.00500054
0.572378
1.60869
0.00516099
0.456983
1.61375
0.00458075
0.1862
1.61785
0.00243207
-0.252597
1.61972
-0.0010542
-0.800265
1.6192
-0.00252171
-1.34849
1.61578
0.00119913
-1.6434
1.60792
0.0103288
-1.56185
1.59276
0.0237012
-1.36038
1.57107
0.0353449
-1.08967
1.54386
0.0474377
-0.571713
1.52614
0.0448733
0.3653
1.525
0.0273819
1.42718
1.5311
0.0266442
1.98951
1.53878
0.0584615
2.11168
1.57519
0.119547
2.29132
1.66324
0.165937
3.55685
1.77909
0.161774
5.94316
1.87935
0.131189
8.45561
1.94246
0.0991197
10.3418
1.96981
0.0719585
11.4465
1.97127
0.0479008
11.9132
1.95692
0.0246648
11.9228
1.93525
0.00270129
11.6698
1.91186
-0.0118316
11.1967
1.8891
-0.0175826
10.6253
1.86812
-0.0195062
10.0827
1.8492
-0.0201395
9.66522
1.8316
-0.0197976
9.44696
1.81639
-0.0210385
9.49172
1.80456
-0.0240835
9.67809
1.79577
-0.0262975
9.89725
1.78937
-0.0270394
10.144
1.78412
-0.0254407
10.4814
1.77992
-0.0231208
10.9761
1.77862
-0.0249233
11.5159
1.78239
-0.0329108
11.9744
1.79199
-0.0444156
12.3921
1.80749
-0.0567291
12.7487
1.82985
-0.0678605
13.0161
1.85934
-0.073043
13.1988
1.89191
-0.0661513
13.3074
1.91727
-0.0448122
13.4322
1.923
-0.0144588
13.4471
1.90294
0.0189084
13.3228
1.8624
0.046665
12.9397
1.80605
0.07084
12.8244
0.0514049
12.1286
1.58266
-0.003854
-0.0705104
1.58354
0.00384438
0.124586
1.58424
0.00507699
0.299458
1.58615
0.00544527
0.426939
1.58896
0.00530663
0.486593
1.59171
0.00346774
0.367083
1.59243
0.00275982
0.00961166
1.59217
0.00277227
-0.302939
1.59313
0.00416891
-0.148267
1.59595
0.00527476
0.250917
1.59914
0.00535502
0.493144
1.60229
0.00536019
0.504837
1.60599
0.00538974
0.42306
1.61033
0.00541552
0.252592
1.61499
0.00497562
-0.0612853
1.61869
0.00222609
-0.547508
1.62109
-0.00188036
-1.15919
1.62152
-0.00360479
-1.81146
1.61834
0.00236897
-2.2489
1.60929
0.0173523
-2.31424
1.5911
0.039243
-2.23499
1.56558
0.0581508
-2.05005
1.53616
0.0744061
-1.58235
1.51672
0.0644472
-0.727517
1.51964
0.0298202
0.210531
1.52901
0.023074
0.621775
1.54188
0.0530264
0.529108
1.55866
0.114643
0.313083
1.58527
0.164093
0.574844
1.61577
0.165041
1.2843
1.64479
0.131063
2.12395
1.67017
0.0916287
2.89234
1.69003
0.059281
3.48891
1.70104
0.032326
3.85401
1.70313
0.00644555
3.98538
1.70261
-0.0152038
3.9624
1.70351
-0.0254267
3.81886
1.70462
-0.0265565
3.58544
1.70599
-0.025856
3.36572
1.70686
-0.0259076
3.23995
1.7047
-0.022898
3.27848
1.7016
-0.0246806
3.53847
1.69884
-0.031362
3.90063
1.6961
-0.0351794
4.25795
1.69462
-0.0371939
4.61805
1.69296
-0.0370962
5.05719
1.68929
-0.0368095
5.60654
1.68646
-0.0435005
6.1338
1.69012
-0.0588354
6.56254
1.70136
-0.075718
7.00132
1.716
-0.0896771
7.43118
1.73138
-0.101978
7.75543
1.74968
-0.111137
7.8819
1.7748
-0.109892
7.78441
1.80908
-0.0920333
7.62662
1.85115
-0.0577662
7.49802
1.89202
-0.0115648
7.59656
1.92179
0.0307587
7.69594
1.93798
0.0667571
8.11069
0.0596211
7.94753
1.58885
-0.00188226
-0.0619432
1.59059
0.00204621
0.0293572
1.59174
0.00339231
0.0809591
1.5928
0.0038828
0.083159
1.59425
0.00391562
0.0608599
1.59612
0.00204437
-0.0246741
1.59663
0.00115731
-0.313234
1.59601
0.00151969
-0.586575
1.59667
0.00310002
-0.47931
1.59908
0.00451172
-0.16276
1.60184
0.00490751
0.018151
1.60442
0.00484868
-0.0138703
1.60758
0.00497955
-0.128312
1.6112
0.00492608
-0.325912
1.61526
0.00396325
-0.660178
1.61925
0.000959274
-1.16873
1.6227
-0.00342556
-1.83958
1.62448
-0.00485808
-2.59687
1.62169
0.00428808
-3.16104
1.61058
0.0273513
-3.35098
1.58773
0.0617506
-3.39237
1.55726
0.0923309
-3.3585
1.52721
0.115703
-3.10418
1.51464
0.099688
-2.45857
1.53416
0.0389619
-1.62708
1.56565
0.0173461
-1.21689
1.59002
0.0459353
-1.25119
1.61272
0.103687
-1.4041
1.64109
0.149242
-1.24067
1.66657
0.155135
-0.878041
1.68101
0.130192
-0.495085
1.68033
0.100937
-0.123584
1.66987
0.0743984
0.207536
1.66096
0.0444277
0.459679
1.65444
0.00965513
0.616821
1.64986
-0.019348
0.68574
1.64697
-0.0360801
0.576006
1.64571
-0.040566
0.298847
1.63733
-0.0316082
-0.000955952
1.62135
-0.0179302
-0.199101
1.59781
-0.0134041
-0.210302
1.54894
-0.00651496
0.0835298
1.48641
-0.00232068
0.556915
1.44018
-0.0107202
1.01935
1.4106
-0.0223672
1.46157
1.38564
-0.0319994
1.97709
1.36461
-0.0443574
2.59424
1.35756
-0.0699606
3.18149
1.37026
-0.10512
3.68126
1.39733
-0.133898
4.21881
1.42866
-0.150254
4.76035
1.4581
-0.160313
5.21001
1.48519
-0.167212
5.47578
1.51119
-0.16424
5.51146
1.53613
-0.143966
5.44483
1.5597
-0.106076
5.25419
1.58633
-0.0567421
5.10268
1.61828
-0.00917755
4.96712
1.65235
0.0307694
5.2442
0.0477149
5.0969
1.58901
0.000354698
-0.0688424
1.58916
0.00208908
-0.0507005
1.58981
0.00307275
-0.0328171
1.59053
0.00369805
-0.0414146
1.59185
0.00383558
-0.048196
1.59401
0.00249057
-0.0579464
1.59509
0.00131741
-0.303128
1.59521
0.00126309
-0.615904
1.59631
0.00247755
-0.604698
1.59877
0.00384542
-0.362531
1.60166
0.00414755
-0.200191
1.60434
0.00370496
-0.231381
1.60746
0.00364297
-0.361048
1.61093
0.00354395
-0.607478
1.61467
0.00251932
-1.04437
1.61864
-0.000338042
-1.7222
1.62266
-0.00476525
-2.64332
1.62517
-0.00535808
-3.7184
1.62225
0.00817004
-4.60917
1.61121
0.0393948
-5.07067
1.59452
0.0825729
-5.3174
1.58371
0.115343
-5.44474
1.5908
0.133183
-5.34543
1.62609
0.101964
-4.87864
1.69096
0.0160991
-4.20457
1.74827
-0.0169112
-3.75259
1.77903
0.0191382
-3.60272
1.79022
0.0882747
-3.54663
1.79533
0.139184
-3.25208
1.79691
0.149307
-2.84057
1.79464
0.12827
-2.45287
1.79358
0.0989089
-2.10028
1.79579
0.0722729
-1.81731
1.79619
0.04689
-1.6331
1.78605
0.0221669
-1.53116
1.76354
0.00433676
-1.46988
1.73116
-0.00527003
-1.52885
1.69483
-0.00688885
-1.71703
1.66427
-0.00107582
-1.91073
1.64313
0.00617515
-2.02713
1.62627
0.00869776
-1.98694
1.61524
0.0130161
-1.6815
1.60776
0.0170397
-1.22551
1.59535
0.0136143
-0.785441
1.57367
0.00440887
-0.339276
1.54898
-0.0121544
0.206673
1.5392
-0.0413377
0.851141
1.54953
-0.0910959
1.43842
1.56475
-0.136065
1.94015
1.5712
-0.156984
2.51984
1.56781
-0.160931
3.17632
1.56284
-0.167273
3.82973
1.56382
-0.179988
4.34991
1.57161
-0.184532
4.64146
1.5821
-0.167828
4.81114
1.589
-0.128162
4.82342
1.58843
-0.0746153
4.77974
1.58062
-0.0217559
4.56243
1.57189
0.020418
4.60284
0.0415942
4.16719
1.58923
0.00249043
-0.0766197
1.58914
0.0020679
-0.125136
1.58976
0.00241019
-0.159895
1.59039
0.00308707
-0.226389
1.59144
0.00326299
-0.290072
1.59349
0.00243596
-0.301318
1.59462
0.00132354
-0.537368
1.59513
0.000916569
-0.882997
1.59651
0.0017538
-0.96713
1.59893
0.0029504
-0.825112
1.60171
0.00330341
-0.714449
1.60437
0.00287224
-0.76752
1.60739
0.0028379
-0.939684
1.61087
0.0029003
-1.26366
1.61494
0.00222884
-1.82183
1.61976
0.000159443
-2.68381
1.62552
-0.00289113
-3.88061
1.63122
-0.00111198
-5.34006
1.63505
0.0171075
-6.69702
1.63968
0.0520622
-7.66237
1.65218
0.0931463
-8.41111
1.67935
0.115822
-8.95179
1.72349
0.117953
-9.11986
1.78277
0.0671184
-8.77293
1.85648
-0.0544245
-7.95453
1.90779
-0.0926617
-7.04509
1.92445
-0.037292
-6.2223
1.91775
0.0571566
-5.52709
1.90538
0.121368
-4.79101
1.89413
0.137725
-4.13907
1.8856
0.120187
-3.66271
1.88201
0.0916829
-3.30058
1.88205
0.0664648
-3.03387
1.88115
0.0457902
-2.87325
1.8757
0.0280243
-2.79018
1.8674
0.0149535
-2.76149
1.86057
0.00660157
-2.8279
1.85887
0.00173349
-2.99591
1.86436
0.000876016
-3.16859
1.8746
0.00266618
-3.27652
1.88286
0.00546199
-3.23539
1.88733
0.0129694
-2.92211
1.88696
0.0211481
-2.46799
1.87895
0.0229751
-2.02148
1.8663
0.0164495
-1.56169
1.85471
0.000570208
-1.02605
1.84099
-0.0255861
-0.375985
1.81706
-0.0638514
0.298387
1.78411
-0.101156
0.92135
1.74747
-0.118168
1.62555
1.70611
-0.115892
2.39334
1.66246
-0.117424
3.17126
1.62713
-0.135962
3.90263
1.60963
-0.15765
4.52121
1.60903
-0.159993
5.08117
1.61537
-0.132188
5.45315
1.61953
-0.0820679
5.71084
1.61754
-0.0268016
5.72926
1.61247
0.016148
5.89888
0.0387409
5.55483
1.58971
0.00398599
-0.0803592
1.59078
-4.335e-05
-0.166282
1.59216
-0.000273438
-0.195043
1.59308
0.000493067
-0.244401
1.59389
0.000924119
-0.284931
1.59597
0.000330982
-0.237421
1.597
-0.000418485
-0.391412
1.59713
-0.000645094
-0.673284
1.59792
-3.6507e-05
-0.765953
1.59978
0.000643526
-0.671553
1.6022
0.000663054
-0.588036
1.60469
0.000300186
-0.644967
1.60744
0.000646834
-0.846589
1.61047
0.00172579
-1.23901
1.61396
0.00310014
-1.91676
1.61854
0.0042448
-2.98977
1.62567
0.00518849
-4.54988
1.6364
0.00914309
-6.5151
1.64974
0.0236666
-8.29651
1.66673
0.0489054
-9.41155
1.69199
0.0774984
-10.0854
1.72865
0.0888445
-10.5403
1.77921
0.0825838
-10.7538
1.83947
0.0298707
-10.6133
1.92119
-0.118806
-10.1273
1.97875
-0.1572
-9.48076
1.99885
-0.0866111
-8.74658
1.99657
0.0306532
-7.97016
1.99391
0.102463
-7.13274
1.99912
0.118956
-6.39326
2.0127
0.0994984
-5.87073
2.03224
0.0696211
-5.47834
2.05204
0.0467297
-5.16166
2.06655
0.0317561
-4.91342
2.07299
0.0208633
-4.69902
2.07236
0.0130195
-4.49943
2.06692
0.00752828
-4.34343
2.05833
0.00410751
-4.24663
2.04778
0.00388165
-4.13993
2.03494
0.00668361
-3.98479
2.01806
0.0125407
-3.71915
1.99835
0.0224729
-3.20582
1.9765
0.0321196
-2.58404
1.95137
0.0363567
-1.98531
1.92646
0.0297279
-1.39988
1.90709
0.0103568
-0.781465
1.88239
-0.0094608
-0.130941
1.84042
-0.0240459
0.488123
1.78747
-0.0376961
1.12304
1.72772
-0.0396363
1.91852
1.6591
-0.0245616
2.88928
1.59501
-0.0239429
4.05671
1.5639
-0.0680975
5.35612
1.57438
-0.131935
6.58403
1.60748
-0.168886
7.64032
1.6411
-0.159469
8.29353
1.66395
-0.115901
8.63596
1.67342
-0.0595484
8.57061
1.67083
-0.0105054
8.50188
0.0185684
7.90608
1.58391
0.0132135
-0.092558
1.58401
0.00173943
-0.298895
1.5848
0.001471
-0.443289
1.58607
0.00120698
-0.624872
1.58767
0.000941691
-0.793618
1.59007
0.000569621
-0.800264
1.59173
-0.0001007
-0.999761
1.59311
-0.000646688
-1.33988
1.59507
-0.000494468
-1.50603
1.59763
-4.57356e-05
-1.47107
1.6004
-4.07058e-05
-1.39207
1.60323
-0.000425497
-1.39585
1.6063
-0.000297232
-1.5292
1.60977
0.000488926
-1.83785
1.61384
0.00202524
-2.39849
1.61883
0.00423407
-3.31654
1.62616
0.00736816
-4.72256
1.63769
0.0130694
-6.58893
1.65096
0.0240702
-8.32605
1.66148
0.0413369
-9.36401
1.67025
0.0626714
-9.94582
1.68172
0.0744227
-10.4738
1.7122
0.0650455
-11.0677
1.76608
-0.0248515
-11.6375
1.88465
-0.182564
-12.2043
1.99362
-0.189879
-12.7502
2.0508
-0.106307
-12.7756
2.06025
-0.00259047
-11.9911
2.05311
0.0716544
-10.6024
2.04703
0.0888018
-9.28692
2.04406
0.0707426
-8.28272
2.04139
0.0440672
-7.47433
2.03363
0.0279068
-6.78932
2.01736
0.0222251
-6.20446
1.99223
0.0209781
-5.66937
1.96035
0.0207973
-5.16879
1.9244
0.0204298
-4.73426
1.88669
0.0198698
-4.3968
1.8496
0.019977
-4.09259
1.81472
0.0212961
-3.77868
1.78267
0.0252419
-3.37943
1.75498
0.0315741
-2.70605
1.73111
0.0372899
-1.9362
1.70743
0.0414391
-1.18206
1.674
0.0454722
-0.434379
1.62895
0.0478167
0.299468
1.5789
0.0481492
1.07518
1.52442
0.0465767
1.84932
1.45918
0.0445126
2.63216
1.39334
0.0407878
3.51514
1.35892
0.0238673
4.46081
1.38661
-0.021317
5.65903
1.45997
-0.0946611
7.27026
1.53214
-0.158252
8.92096
1.57629
-0.182317
10.3089
1.59102
-0.161846
11.1791
1.58339
-0.111836
11.7214
1.55923
-0.0506133
11.8431
1.52416
0.00207835
11.939
0.0177042
11.359
1.59336
0.00784937
-0.048937
1.59216
-0.00291569
-0.164893
1.59161
-0.00324831
-0.199426
1.59119
-0.00383009
-0.290842
1.59081
-0.00365157
-0.387829
1.5923
-0.00363906
-0.333132
1.59307
-0.00332402
-0.46049
1.59336
-0.00284505
-0.71431
1.59419
-0.0022768
-0.821156
1.59583
-0.00178653
-0.749552
1.5981
-0.00152129
-0.621771
1.60084
-0.00133632
-0.551022
1.60392
-0.000924573
-0.605088
1.60729
-0.000290049
-0.81972
1.61078
0.000551234
-1.24537
1.61429
0.00171219
-1.94975
1.61844
0.00302764
-3.00483
1.62619
0.00518985
-4.32423
1.63957
0.00929097
-5.45286
1.65564
0.0161752
-5.99812
1.66594
0.0248565
-6.10198
1.65223
0.0290009
-5.79452
1.60142
0.0189638
-4.92134
1.47937
-0.0322708
-3.499
1.49837
-0.268483
-1.39713
1.56324
-0.202728
0.800792
1.62975
-0.107955
2.30533
1.66108
-0.0473918
2.97654
1.66874
-0.00697215
2.90681
1.66876
0.0055775
2.8524
1.67084
0.000317282
2.95745
1.68213
-0.0113719
3.34389
1.69911
-0.0231655
3.78219
1.71587
-0.030626
4.11447
1.72937
-0.0334486
4.36337
1.73876
-0.0328313
4.55796
1.74313
-0.0301622
4.6677
1.74154
-0.0266231
4.64707
1.73457
-0.0228276
4.55292
1.72372
-0.0188594
4.43148
1.71044
-0.0131405
4.34353
1.69674
-0.00354911
4.50507
1.68357
0.00714994
4.77964
1.67077
0.0149481
5.03805
1.65888
0.0200382
5.29687
1.64874
0.0231552
5.5551
1.63987
0.0254413
5.81307
1.63284
0.0267343
6.03038
1.63091
0.0267857
6.28053
1.64026
0.0249792
6.81949
1.66079
0.0195634
7.87979
1.6733
0.0082855
9.64634
1.65032
-0.015514
11.9022
1.58245
-0.048496
13.8446
1.48672
-0.0729788
15.031
1.39046
-0.0749527
15.4083
1.31278
-0.0546033
15.5184
1.25917
-0.0205701
15.3999
1.22827
0.00947196
15.4561
0.011804
14.9983
1.60398
-0.0924568
1.60409
-0.309373
1.605
-0.371484
1.60403
-0.489181
1.60215
-0.602265
1.60131
-0.524322
1.59976
-0.617664
1.59794
-0.819178
1.5966
-0.861008
1.59593
-0.716676
1.59585
-0.508087
1.59632
-0.35348
1.59721
-0.327064
1.59858
-0.44584
1.60031
-0.734472
1.60198
-1.23505
1.60319
-1.97919
1.60489
-2.85195
1.60911
-3.45894
1.61867
-3.49712
1.63239
-3.22964
1.64128
-2.75773
1.63754
-1.95933
1.56655
-0.906032
1.69989
3.80981
1.78912
9.15698
1.79699
11.8319
1.7785
13.0807
1.76847
13.9068
1.76432
14.5419
1.74927
14.8984
1.71481
15.011
1.6623
14.9276
1.59829
14.6844
1.52989
14.3674
1.46223
14.0282
1.39789
13.6376
1.33742
13.138
1.28069
12.5951
1.22707
12.0623
1.17701
11.6086
1.13506
11.547
1.10383
11.5948
1.08156
11.561
1.06685
11.5473
1.05919
11.637
1.05707
11.7686
1.05882
11.8156
1.06551
11.8895
1.08022
12.372
1.10143
13.3761
1.11789
14.725
1.10795
15.8942
1.05536
16.3631
0.966789
16.2496
0.868272
15.6709
0.789202
15.316
0.747693
15.0458
0.740391
15.3254
14.8211
1.6054
-0.00808666
1.60457
0.00324109
1.60511
0.00244221
1.60387
0.00311084
1.60181
0.00348836
1.60014
0.00459017
1.59985
0.00500237
1.59992
0.00454922
1.59826
0.00386732
1.59621
0.00278549
1.59516
0.00198072
1.59529
0.0015816
1.59611
0.00146348
1.5975
0.00123917
1.59971
0.00063873
1.60219
-0.000168388
1.60368
-0.00110466
1.60322
-0.00119463
1.59875
0.00107136
1.58809
0.0058313
1.57102
0.0120925
1.54976
0.0177807
1.5244
0.0238506
1.50474
0.0204712
1.50027
0.0076602
1.50561
0.00749686
1.52638
0.0286794
1.59644
0.0805214
1.68987
0.11667
1.73863
0.112296
1.72334
0.0983692
1.66606
0.0834588
1.59387
0.0684145
1.52511
0.0531735
1.46925
0.0374251
1.43002
0.0218777
1.40565
0.009051
1.39108
0.0011391
1.38218
-0.00352746
1.37604
-0.00576887
1.37074
-0.00605897
1.3675
-0.00766728
1.36684
-0.010195
1.36689
-0.011306
1.36686
-0.0117833
1.36583
-0.0112429
1.36315
-0.00945187
1.36041
-0.00854193
1.36104
-0.0106966
1.36787
-0.0154425
1.38248
-0.0216986
1.40452
-0.0280198
1.43041
-0.0311905
1.45354
-0.0279222
1.46745
-0.0179396
1.46956
-0.00459292
1.45864
0.0101442
1.43761
0.0219828
1.40615
0.0339698
0.0326352
1.59374
-0.0132314
1.59259
-0.00211523
1.59141
-0.00227792
1.59076
-0.00193656
1.59013
-0.000886116
1.59054
0.000902416
1.59269
0.00166296
1.59499
0.00171431
1.59631
0.000145216
1.5968
-0.000868435
1.5979
-0.00100457
1.60011
-0.000855605
1.60293
-0.000432676
1.60626
-0.000394732
1.61051
-0.00102719
1.61496
-0.00240724
1.61852
-0.00492821
1.62036
-0.00624828
1.61824
-0.00288389
1.60958
0.00643781
1.59377
0.0200578
1.57277
0.0319922
1.54912
0.0426897
1.53072
0.0353191
1.52616
0.0161234
1.53303
0.0144139
1.54198
0.0460012
1.5762
0.107447
1.65742
0.159477
1.76809
0.160801
1.86886
0.130897
1.93622
0.0974726
1.96857
0.0699219
1.97402
0.0470797
1.96212
0.0259959
1.94147
0.00503973
1.91837
-0.0100837
1.89558
-0.0167356
1.87469
-0.0197825
1.85592
-0.0209853
1.83776
-0.0197051
1.82151
-0.0202139
1.80856
-0.022914
1.79824
-0.024306
1.79058
-0.0248218
1.78486
-0.0242591
1.7804
-0.0232287
1.77879
-0.0256251
1.78286
-0.0343195
1.79368
-0.046867
1.81116
-0.0601443
1.8358
-0.0719605
1.86754
-0.0777392
1.90238
-0.0714463
1.93039
-0.0504302
1.93925
-0.0196716
1.92247
0.0137437
1.88441
0.0423284
1.83043
0.0673621
0.0492724
1.58484
-0.0038487
1.58454
9.6913e-05
1.58491
-6.44875e-05
1.58604
-0.000710273
1.58755
-0.000431989
1.58882
0.00182618
1.59101
0.00377744
1.59454
0.0027701
1.59618
0.00113683
1.59709
-9.53571e-05
1.59873
-0.000546752
1.60135
-0.000595883
1.60435
-0.000311283
1.60764
-0.000341559
1.61165
-0.00130302
1.61616
-0.00376904
1.62011
-0.0076373
1.62235
-0.00887451
1.61989
-0.0021285
1.6095
0.0140086
1.58995
0.0365121
1.5635
0.0553926
1.53468
0.0700982
1.51649
0.0548336
1.52068
0.0202526
1.5303
0.0186599
1.54161
0.0529568
1.56236
0.115683
1.59422
0.163326
1.62511
0.162528
1.65104
0.127847
1.67557
0.0890406
1.69729
0.0583001
1.71077
0.0342161
1.71367
0.0115371
1.71168
-0.00979306
1.71054
-0.0213986
1.71008
-0.0246131
1.71143
-0.0258752
1.71342
-0.0261826
1.71097
-0.0228435
1.70665
-0.0235692
1.70272
-0.0281772
1.69763
-0.0305779
1.69374
-0.0335304
1.69137
-0.0366319
1.68788
-0.0386541
1.68481
-0.0446766
1.68854
-0.0596115
1.70125
-0.0783683
1.71934
-0.0949751
1.73939
-0.108912
1.76237
-0.118557
1.79123
-0.117338
1.82762
-0.0993412
1.87016
-0.0650998
1.91173
-0.0178407
1.94221
0.0255548
1.95969
0.0622777
0.0578777
1.59024
-0.00213089
1.59107
-0.00182161
1.59204
-0.0020527
1.59288
-0.00235733
1.59366
-0.00197834
1.59409
-8.60056e-05
1.59577
0.00187338
1.59791
0.00147704
1.59927
-0.0001121
1.60005
-0.00132738
1.60127
-0.00132061
1.60343
-0.000661125
1.60592
-0.000251771
1.6091
-0.00072571
1.61319
-0.00262255
1.61782
-0.00631166
1.62227
-0.011015
1.62519
-0.0116932
1.6225
-0.000429443
1.6096
0.0256675
1.58523
0.0618581
1.55442
0.092522
1.52779
0.113369
1.52036
0.0861567
1.53931
0.0292375
1.56898
0.0164318
1.59326
0.0525579
1.61528
0.112262
1.63892
0.154105
1.66005
0.156341
1.6762
0.130798
1.68849
0.101699
1.69515
0.0757982
1.69452
0.0465811
1.6861
0.0133017
1.67426
-0.0144514
1.66256
-0.0292324
1.6488
-0.0318109
1.62096
-0.0219278
1.58771
-0.0109558
1.56856
-0.00825612
1.54883
-0.00304741
1.51368
-0.000601591
1.46829
-0.00861475
1.42823
-0.0182707
1.3974
-0.0237635
1.37389
-0.0330693
1.36346
-0.05836
1.37398
-0.0978926
1.4021
-0.133544
1.43778
-0.155845
1.47352
-0.169355
1.50735
-0.177548
1.53925
-0.174519
1.5685
-0.153186
1.59437
-0.113706
1.62131
-0.0625359
1.65152
-0.0129456
1.68384
0.0282201
0.0467578
1.58989
3.74323e-06
1.5897
-0.00133888
1.59019
-0.00178186
1.59095
-0.00190792
1.59203
-0.00184629
1.59223
-0.000353137
1.59395
0.00122036
1.59654
0.0009986
1.59848
-0.000532391
1.59973
-0.00166146
1.6012
-0.00146459
1.6034
-0.000667857
1.60588
-0.000570828
1.60889
-0.00141647
1.61271
-0.0034848
1.6173
-0.00730916
1.62222
-0.0122076
1.6256
-0.0118665
1.62262
0.0040778
1.61051
0.0381356
1.59457
0.0812088
1.5872
0.110396
1.60149
0.122112
1.64487
0.0745967
1.70791
-0.0025259
1.75808
-0.0179633
1.78228
0.0307241
1.7887
0.10151
1.78869
0.147529
1.78634
0.1526
1.78275
0.129204
1.78083
0.0985065
1.78017
0.070014
1.77515
0.0433365
1.75923
0.0195777
1.73256
0.00465975
1.6999
-0.000949393
1.66736
-0.00029957
1.64103
0.00370657
1.62305
0.00742676
1.61012
0.00842498
1.6013
0.011366
1.59383
0.0134866
1.58321
0.0114053
1.57094
0.0077452
1.55896
-0.00205993
1.55163
-0.028974
1.55523
-0.078409
1.56922
-0.131074
1.58212
-0.161719
1.58771
-0.171273
1.58999
-0.178137
1.59609
-0.189996
1.60761
-0.194358
1.62084
-0.177338
1.6299
-0.136744
1.63167
-0.0813384
1.62503
-0.0258173
1.61705
0.0181207
0.0400868
1.58966
0.00226682
1.58954
-0.000624059
1.58988
-0.00106809
1.59066
-0.0010712
1.5919
-0.00119918
1.59217
3.00623e-05
1.59362
0.00111648
1.59605
0.00108999
1.59813
0.000110564
1.59972
-0.000572771
1.60138
-9.97419e-05
1.60359
0.000979693
1.60618
0.00132915
1.60938
0.000744446
1.61351
-0.000931565
1.61882
-0.00415652
1.62534
-0.00807978
1.63187
-0.00543214
1.63629
0.0154098
1.64163
0.0527022
1.65685
0.091734
1.68783
0.106832
1.73653
0.100214
1.80044
0.0239593
1.86883
-0.0875749
1.91106
-0.105533
1.92001
-0.0341184
1.90886
0.0660461
1.89327
0.127942
1.88049
0.140735
1.87252
0.121313
1.86952
0.0923134
1.86859
0.0665327
1.86574
0.0455213
1.8593
0.0286589
1.85217
0.017245
1.84889
0.0106113
1.85188
0.0064916
1.86082
0.00440414
1.87255
0.00406759
1.88153
0.00578744
1.88496
0.0122656
1.88237
0.0190238
1.87368
0.0222175
1.86246
0.0203718
1.85272
0.00867151
1.84347
-0.0167956
1.82893
-0.0562473
1.80614
-0.0950825
1.77642
-0.117794
1.74063
-0.121768
1.70166
-0.126135
1.66876
-0.143869
1.65096
-0.163423
1.64852
-0.164725
1.65301
-0.137205
1.65618
-0.0869618
1.65316
-0.0302986
1.64727
0.0141808
0.0374035
1.58993
0.00391481
1.59138
-0.00217986
1.59242
-0.002547
1.59355
-0.00237898
1.59481
-0.00236824
1.59499
-0.00144933
1.596
-0.000407865
1.59774
0.000299537
1.59926
0.000147523
1.60053
-5.18213e-05
1.60191
0.000698744
1.60373
0.00234029
1.6059
0.00368756
1.60858
0.00478469
1.61214
0.00572559
1.6173
0.00603762
1.62553
0.00570836
1.63765
0.00916921
1.65203
0.0240779
1.66966
0.0492942
1.69668
0.0737161
1.73578
0.0754698
1.78886
0.057773
1.85582
-0.0305935
1.93334
-0.160192
1.98253
-0.168948
1.99581
-0.0803943
1.99122
0.0401761
1.98839
0.107436
1.99482
0.118483
2.01034
0.0963628
2.0306
0.0670016
2.04918
0.0453382
2.06134
0.0314819
2.06562
0.0217953
2.0636
0.0148696
2.05759
0.00980595
2.04879
0.00604183
2.03732
0.00461715
2.02288
0.00626147
2.00464
0.0118709
1.98295
0.0216165
1.95924
0.0304193
1.93424
0.0356808
1.91109
0.0332274
1.89458
0.0147191
1.87941
-0.00762287
1.85372
-0.0240972
1.81383
-0.0385045
1.76134
-0.0436604
1.69662
-0.0313531
1.63228
-0.0273258
1.59647
-0.0646411
1.60141
-0.1261
1.6311
-0.165317
1.66356
-0.159398
1.68679
-0.118028
1.69708
-0.0621104
1.69567
-0.0135264
0.0171352
1.58348
0.0136761
1.58419
0.000538852
1.58461
0.000471324
1.5863
-0.00021994
1.58862
-0.000769986
1.5895
-8.76087e-06
1.5911
0.000434103
1.59368
0.00069805
1.59621
0.000749855
1.59841
0.00103656
1.60048
0.00188866
1.60274
0.0031587
1.60536
0.00421708
1.60852
0.00540574
1.61244
0.0071829
1.61762
0.00950742
1.62584
0.0125392
1.6388
0.0183128
1.65284
0.0289946
1.6625
0.0449548
1.67065
0.0620474
1.68225
0.0655304
1.71398
0.0464148
1.78474
-0.0601718
1.90632
-0.194175
2.00763
-0.183191
2.05425
-0.0966265
2.05766
-0.000287386
2.04801
0.0661017
2.04105
0.0798735
2.03758
0.0623632
2.03328
0.0384824
2.0227
0.0248395
2.00325
0.0206085
1.97538
0.019926
1.94156
0.0198566
1.90444
0.0193426
1.86613
0.018359
1.82832
0.0178981
1.79264
0.0188382
1.7601
0.0226048
1.73089
0.0292754
1.7058
0.0353134
1.68471
0.0391112
1.66436
0.0427956
1.6386
0.046582
1.59896
0.0472633
1.54681
0.0461444
1.48503
0.0461747
1.421
0.044594
1.38207
0.0296081
1.40246
-0.0124862
1.47246
-0.0847443
1.54583
-0.150569
1.59252
-0.178856
1.60936
-0.162703
1.60345
-0.115497
1.58053
-0.0551025
1.54651
-0.00173841
0.0161576
1.59299
0.00847174
1.59263
-0.00350225
1.59139
-0.00373505
1.59129
-0.00444646
1.59186
-0.00446111
1.59153
-0.00385273
1.59223
-0.00293119
1.59379
-0.00197986
1.59539
-0.00136287
1.59691
-0.000802138
1.59849
-3.97327e-06
1.60032
0.00100561
1.60257
0.00189709
1.60528
0.0028521
1.60841
0.00393432
1.612
0.00510932
1.61704
0.00640591
1.6266
0.0085646
1.64172
0.01235
1.65722
0.0188801
1.66539
0.0263697
1.64545
0.0285055
1.58161
0.0136183
1.47012
-0.0566033
1.48092
-0.274563
1.55326
-0.215891
1.61781
-0.108839
1.65758
-0.0483771
1.67396
-0.00887776
1.67922
0.00549511
1.68249
0.00189641
1.69274
-0.00837565
1.70835
-0.0200462
1.72404
-0.0284709
1.73628
-0.0325368
1.74438
-0.0327607
1.7482
-0.0303672
1.7473
-0.0267489
1.74189
-0.0227631
1.73282
-0.018743
1.72053
-0.0136934
1.70578
-0.00485467
1.69051
0.00597438
1.67489
0.0136509
1.66055
0.0189259
1.64928
0.0228937
1.63987
0.0252643
1.63299
0.0261711
1.63212
0.0261563
1.64252
0.024681
1.66459
0.0197912
1.68086
0.00954626
1.66397
-0.0120995
1.60197
-0.0440292
1.50952
-0.0693222
1.41359
-0.0733863
1.3345
-0.0552234
1.2786
-0.0222912
1.24547
0.00765669
0.0112065
1.60318
1.6052
1.60525
1.60455
1.60354
1.60101
1.59942
1.59871
1.59795
1.59705
1.59619
1.59566
1.59578
1.59657
1.59795
1.59958
1.60132
1.60416
1.60984
1.61914
1.63339
1.64135
1.62061
1.54015
1.67774
1.77983
1.80083
1.7843
1.77216
1.76717
1.75358
1.7217
1.67144
1.60868
1.54048
1.47234
1.40734
1.3464
1.28942
1.23567
1.18514
1.14179
1.10887
1.08486
1.06861
1.05997
1.05727
1.05918
1.06692
1.08298
1.10576
1.12489
1.11955
1.07252
0.988139
0.890976
0.810612
0.766132
0.756444
)
;

boundaryField
{
    wall
    {
        type            calculated;
        value           nonuniform List<scalar> 
1200
(
0.125262
0.0463375
0.0699129
0.0627399
0.0692154
0.0768806
0.0807853
0.0910407
0.0525541
0.0879266
-0.207514
-0.134782
-0.128659
-0.0293224
0.0505329
0.125302
0.167378
0.297044
0.170732
0.306297
-0.395998
-0.235475
-0.303703
-0.0804572
0.0324958
0.159964
0.196369
0.440766
0.204694
0.36732
-0.535478
-0.317822
-0.43136
-0.0826492
0.0408776
0.226359
0.246054
0.622872
0.296314
0.486358
-0.583108
-0.347632
-0.491057
-0.060906
0.046963
0.289596
0.286473
0.792035
0.392825
0.600494
-0.360254
-0.175008
-0.371336
0.0242288
0.0553305
0.299352
0.237498
0.79767
0.335854
0.521475
0.0530741
0.175805
-0.0128769
0.314357
0.301909
0.536242
0.392125
0.99778
0.462937
0.615901
0.322476
0.406682
0.301262
0.58848
0.616075
0.88284
0.674673
1.33845
0.716207
0.8182
0.080631
0.177799
0.144937
0.479698
0.604198
0.966451
0.766934
1.50452
0.822115
0.860079
-0.384364
-0.259338
-0.255676
0.161071
0.36067
0.823532
0.671993
1.46921
0.749658
0.715551
-0.669458
-0.537542
-0.497571
-0.0204707
0.198064
0.71252
0.588256
1.38999
0.62097
0.506624
-0.722714
-0.602185
-0.508731
0.0118
0.229844
0.765679
0.645042
1.39375
0.549212
0.351654
-0.675269
-0.576751
-0.427126
0.125578
0.359252
0.937443
0.846021
1.5271
0.60264
0.325255
-0.541596
-0.462568
-0.257195
0.322792
0.605426
1.26085
1.23716
1.83557
0.817096
0.444179
-0.262036
-0.19222
0.056235
0.657118
1.04208
1.81811
1.91243
2.39544
1.2433
0.733358
0.184119
0.248541
0.544068
1.166
1.71951
2.67852
2.9811
3.31156
1.94876
1.23511
0.734741
0.799644
1.15761
1.83771
2.64064
3.87296
4.53464
4.71308
3.00507
1.98101
1.24933
1.35091
1.81206
2.59636
3.71639
5.33005
6.49414
6.57347
4.3244
2.85544
1.46904
1.6474
2.2509
3.16189
4.6082
6.6842
8.27661
8.31237
5.45427
3.46397
1.29543
1.56615
2.31631
3.35214
5.0697
7.64504
9.39766
9.36105
6.0072
3.5037
1.00418
1.3655
2.23761
3.39279
5.31329
8.38794
10.0758
9.95185
6.12951
3.24081
0.669173
1.09544
2.05279
3.35472
5.43254
8.92418
10.5306
10.4767
5.85367
2.77784
0.125475
0.577189
1.58478
3.09292
5.32092
9.09098
10.7386
11.0547
5.01826
1.98197
-0.79477
-0.370592
0.727278
2.43598
4.84105
8.74855
10.5904
11.6383
3.62847
0.944766
-1.82755
-1.44078
-0.216076
1.59842
4.16268
7.95133
10.1099
12.1494
1.46404
-4.21166
-2.34273
-2.00715
-0.627735
1.19129
3.72962
7.06942
9.48775
12.6739
-0.8528
-9.4489
-2.60308
-2.14046
-0.536499
1.23396
3.59875
6.26195
8.7758
12.7381
-2.37019
-11.9477
-3.61259
-2.35738
-0.324856
1.39224
3.55085
5.56489
7.99895
12.0148
-2.96309
-13.1096
-5.98299
-3.68926
-0.599661
1.22704
3.25702
4.82126
7.15431
10.6403
-2.83586
-13.9037
-8.36062
-6.10717
-1.31812
0.862413
2.84483
4.16188
6.40682
9.32316
-2.76914
-14.5321
-9.84221
-8.58969
-2.15286
0.481544
2.45709
3.67928
5.87782
8.31443
-2.88907
-14.883
-10.4817
-10.422
-2.91021
0.114993
2.10333
3.31144
5.48083
7.5026
-3.29975
-14.9879
-10.5876
-11.4785
-3.49608
-0.212129
1.81725
3.03965
5.1616
6.81592
-3.74808
-14.8982
-10.4158
-11.9105
-3.84947
-0.462802
1.63033
2.8752
4.91292
6.23028
-4.07836
-14.651
-10.0841
-11.8973
-3.96929
-0.613494
1.5288
2.78974
4.69972
5.69442
-4.32246
-14.3324
-9.72862
-11.6308
-3.94399
-0.677021
1.46868
2.75913
4.50198
5.19288
-4.51376