/*--------------------------------*- C++ -*----------------------------------*\
  =========                 |
  \\      /  F ield         | OpenFOAM: The Open Source CFD Toolbox
   \\    /   O peration     | Website:  https://openfoam.org
    \\  /    A nd           | Version:  8
     \\/     M anipulation  |
\*---------------------------------------------------------------------------*/
FoamFile
{
    version     2.0;
    format      ascii;
    class       surfaceScalarField;
    location    "800";
    object      phi;
}
// * * * * * * * * * * * * * * * * * * * * * * * * * * * * * * * * * * * * * //

dimensions      [1 0 -1 0 0 0 0];

internalField   nonuniform List<scalar> 
2860
(
1.60263
-0.00780258
-0.0268797
1.60407
0.00469346
0.158394
1.60466
0.00484214
0.254417
1.60388
0.00585979
0.270079
1.60236
0.00613305
0.193045
1.60019
0.00553994
-0.0303978
1.59732
0.00444757
-0.317743
1.59434
0.00406662
-0.424347
1.59259
0.00413344
-0.20324
1.5919
0.00411885
0.116879
1.59108
0.00368385
0.255784
1.59008
0.00329027
0.204486
1.58919
0.00295618
0.0636005
1.58831
0.00243565
-0.15461
1.58719
0.00173613
-0.480671
1.58588
0.00112562
-0.907484
1.58462
0.000671198
-1.37733
1.58359
0.000290621
-1.79515
1.58309
-8.39977e-05
-1.99264
1.58314
-0.000459632
-1.89834
1.58326
-0.000813084
-1.64488
1.58334
-0.00104959
-1.25246
1.58406
-0.00134944
-0.635274
1.58729
-0.00197898
0.195684
1.59197
-0.00266277
0.946111
1.59637
-0.00284028
1.26987
1.59934
-0.00232772
1.24355
1.60066
-0.00203857
1.14607
1.6019
-0.00231103
1.3028
1.60397
-0.00300641
1.67615
1.60702
-0.00382296
2.09656
1.61108
-0.00468885
2.48817
1.61638
-0.00587403
2.82436
1.62352
-0.00772587
3.08766
1.63285
-0.0100441
3.26523
1.64363
-0.011434
3.36339
1.6543
-0.0111652
3.33146
1.66439
-0.009538
3.19961
1.67635
-0.00674835
3.07733
1.69788
-0.000450352
3.13024
1.73691
0.0186695
3.60818
1.78554
0.0522501
4.73362
1.81597
0.0816205
6.25002
1.80681
0.0960633
7.62489
1.75867
0.0994494
8.61009
1.685
0.0978396
9.29933
1.60108
0.0939369
9.88967
1.51897
0.0870964
10.4551
1.44689
0.0755361
10.9968
1.39065
0.0587747
11.5561
1.3534
0.03855
12.0887
1.33483
0.0185363
12.4982
1.33095
0.00292391
12.7006
1.33569
-0.00705932
12.6316
1.34551
-0.0128474
12.3778
1.35938
-0.0171004
11.9573
1.3806
-0.0231889
11.5067
1.40703
-0.0296766
11.0549
1.45002
-0.0422206
10.6206
-0.043386
10.514
1.59274
-0.0130359
-0.00860714
1.59264
0.000142604
0.0915942
1.59155
0.000642264
0.141813
1.59138
0.00104415
0.142471
1.5918
0.000879892
0.0793702
1.59235
-0.000361356
-0.0993644
1.59179
-0.000202175
-0.345588
1.59094
0.000741365
-0.450953
1.59136
0.00144404
-0.255073
1.59309
0.0015498
0.040378
1.5945
0.00152205
0.171087
1.59584
0.00108308
0.124799
1.5974
0.000549379
-0.00606075
1.59872
0.000224814
-0.219077
1.59956
-7.00574e-05
-0.556683
1.59995
-0.000352618
-1.02971
1.60029
-0.00086098
-1.59387
1.60099
-0.00179598
-2.1534
1.60246
-0.00305063
-2.5212
1.60463
-0.00430131
-2.59798
1.60703
-0.00540364
-2.49798
1.60965
-0.0062312
-2.23359
1.61287
-0.0068199
-1.70778
1.61753
-0.00738009
-0.920976
1.62412
-0.00784258
-0.165354
1.62983
-0.00809609
0.183573
1.63408
-0.00697851
0.189846
1.63633
-0.00567822
0.133598
1.63871
-0.00460752
0.341575
1.64197
-0.00398299
0.781302
1.64626
-0.00401637
1.28458
1.65158
-0.00454891
1.78461
1.6581
-0.00595547
2.2635
1.6664
-0.00879553
2.70342
1.67686
-0.0123766
3.09268
1.68859
-0.0132799
3.43782
1.69973
-0.00918562
3.69816
1.71068
0.000278467
3.93003
1.72966
0.0177764
4.34816
1.77133
0.0464262
5.34755
1.83489
0.0825958
7.16989
1.89638
0.115418
9.44461
1.93326
0.134049
11.4818
1.9416
0.136202
12.9318
1.9295
0.128745
13.8515
1.90645
0.118809
14.465
1.87884
0.109465
14.9655
1.84966
0.0997374
15.4075
1.82047
0.0861562
15.8076
1.79305
0.0662636
16.2238
1.76865
0.0410204
16.6221
1.7476
0.0144842
16.9001
1.73005
-0.0075617
16.9614
1.71638
-0.0216848
16.7709
1.70686
-0.0311514
16.4119
1.70094
-0.0392675
15.88
1.70176
-0.05129
15.2709
1.70843
-0.0634273
14.6283
1.73626
-0.0898514
13.9741
-0.0903671
13.7107
1.58326
-0.00351121
-0.0191403
1.584
0.00311459
0.107734
1.58482
0.00407484
0.217438
1.58645
0.00391698
0.26182
1.58837
0.00359317
0.222462
1.58956
0.00292527
0.045188
1.58994
0.00233367
-0.265283
1.59003
0.0024508
-0.457389
1.59102
0.00315285
-0.311479
1.59295
0.00381305
-0.0189893
1.59492
0.003285
0.130679
1.59657
0.00262695
0.0966533
1.59822
0.00208993
-0.0314139
1.59972
0.00134201
-0.254017
1.60077
0.000388149
-0.61373
1.60146
-0.000756275
-1.11967
1.60214
-0.00214613
-1.72744
1.60317
-0.0038905
-2.34074
1.60487
-0.00585071
-2.76764
1.60717
-0.0077001
-2.90028
1.60966
-0.00930749
-2.84701
1.61238
-0.010525
-2.62269
1.61575
-0.0113715
-2.13282
1.62045
-0.0120718
-1.3745
1.62668
-0.0127564
-0.633314
1.63213
-0.0134064
-0.283165
1.63573
-0.0129217
-0.28771
1.63785
-0.0117396
-0.363065
1.64022
-0.0105979
-0.195404
1.64357
-0.00951971
0.182845
1.64784
-0.00859933
0.617352
1.6532
-0.00834709
1.04696
1.65979
-0.0096799
1.45284
1.66832
-0.0138694
1.80738
1.67953
-0.0202715
2.09548
1.69269
-0.0235902
2.31158
1.70592
-0.0202911
2.40553
1.71832
-0.00955117
2.40513
1.73172
0.0104499
2.42348
1.7545
0.0418642
2.62305
1.79685
0.081731
3.22038
1.85635
0.116853
4.33587
1.91516
0.134224
5.7212
1.95731
0.133205
7.00533
1.97775
0.122934
8.02741
1.97848
0.111898
8.8226
1.96282
0.104242
9.46404
1.93272
0.0995355
9.94893
1.88972
0.0932201
10.2837
1.83678
0.0809499
10.5463
1.77885
0.062034
10.7634
1.72231
0.0394486
10.9395
1.67264
0.0171141
11.0666
1.63114
-0.00322014
11.0505
1.59741
-0.02088
10.8884
1.57044
-0.0377192
10.5381
1.55244
-0.0601369
10.0876
1.54322
-0.0832992
9.54893
1.5533
-0.125824
8.97438
-0.135087
8.63011
1.58918
-0.00164771
-0.0283455
1.59065
0.00139337
0.0302042
1.5918
0.00216889
0.0613684
1.59275
0.00194078
0.0456255
1.59386
0.00136894
-0.00894883
1.59489
0.000442652
-0.137264
1.59481
0.000139869
-0.368469
1.59419
0.000836681
-0.516875
1.5945
0.0018398
-0.389517
1.59602
0.00243795
-0.139153
1.5976
0.00195159
-0.0110702
1.59889
0.00120064
-0.0488233
1.60027
0.000725077
-0.173793
1.60152
0.000320392
-0.390621
1.60241
-0.000272107
-0.749679
1.60295
-0.00120099
-1.27691
1.60348
-0.00259326
-1.94732
1.60442
-0.00459316
-2.67044
1.60615
-0.00698181
-3.24053
1.60852
-0.00928139
-3.52426
1.61118
-0.0113143
-3.61284
1.61421
-0.0129513
-3.51936
1.61794
-0.0142232
-3.15016
1.62268
-0.0153485
-2.48863
1.62812
-0.0164935
-1.79457
1.63273
-0.0175873
-1.43758
1.63611
-0.0175736
-1.42018
1.63888
-0.0167714
-1.48558
1.64205
-0.015811
-1.33905
1.64585
-0.014888
-1.00329
1.65025
-0.014172
-0.614184
1.65525
-0.0139972
-0.224755
1.66119
-0.0153235
0.146672
1.66918
-0.020619
0.468829
1.68047
-0.0296283
0.729828
1.69408
-0.0347643
0.930983
1.70791
-0.0314322
1.03617
1.72109
-0.0194753
1.07331
1.73443
0.00175604
1.14159
1.75248
0.0307565
1.31012
1.78168
0.0646774
1.6743
1.82512
0.0925044
2.32487
1.8769
0.104363
3.18196
1.92721
0.100295
4.09142
1.96794
0.0899314
4.97191
1.99458
0.0819421
5.82398
2.00462
0.0809974
6.63998
1.99617
0.0870024
7.35593
1.96954
0.0935108
7.95686
1.9283
0.0934953
8.51562
1.87808
0.0841894
9.04358
1.82437
0.0675527
9.50447
1.77076
0.0467918
9.82766
1.7195
0.0227694
9.91469
1.67377
-0.00519406
9.77389
1.63653
-0.0343267
9.39379
1.61167
-0.0701606
8.92509
1.60045
-0.107203
8.39457
1.60961
-0.165036
7.89401
-0.179537
7.57932
1.58919
0.00047527
-0.0424172
1.58924
0.00156353
-0.0255284
1.58987
0.00202063
-0.0054334
1.59052
0.00205442
-0.0115607
1.59148
0.00163463
-0.0412474
1.59272
0.000714259
-0.128632
1.59305
0.000186647
-0.362137
1.59301
0.000566884
-0.567448
1.59375
0.00143864
-0.513296
1.59538
0.00204781
-0.307498
1.59706
0.00169954
-0.179437
1.59843
0.00091941
-0.204566
1.59977
0.000434087
-0.332552
1.60093
8.7577e-05
-0.575156
1.60177
-0.000468373
-0.983501
1.60238
-0.0013954
-1.59133
1.60306
-0.00278979
-2.38839
1.60424
-0.00475196
-3.28907
1.60623
-0.00706011
-4.07417
1.60885
-0.00928356
-4.58561
1.61183
-0.0113125
-4.89833
1.61534
-0.0131216
-5.02345
1.61966
-0.0147775
-4.86646
1.62479
-0.0164666
-4.39078
1.63019
-0.01822
-3.8163
1.63501
-0.0198804
-3.50084
1.63914
-0.020347
-3.49024
1.64302
-0.0199148
-3.56453
1.64703
-0.0192293
-3.45487
1.65113
-0.0185568
-3.18376
1.65533
-0.0181126
-2.86452
1.65963
-0.0180797
-2.53521
1.66442
-0.0195982
-2.22312
1.67149
-0.0261648
-1.97178
1.68313
-0.0388617
-1.79353
1.6981
-0.0477887
-1.68219
1.71372
-0.0471081
-1.66094
1.72898
-0.0378919
-1.70085
1.74335
-0.0226878
-1.6946
1.76005
0.00152754
-1.54737
1.78245
0.0286518
-1.23712
1.81315
0.0506585
-0.72535
1.85231
0.0602218
-0.105183
1.89608
0.0585577
0.52775
1.94093
0.0508957
1.18169
1.98317
0.0450036
1.9035
2.01857
0.0477957
2.69487
2.04164
0.0619112
3.46431
2.04878
0.0797009
4.16533
2.04025
0.0911227
4.84679
2.01912
0.0910361
5.49359
1.98974
0.0797953
6.05662
1.95614
0.0605679
6.47376
1.92072
0.0358029
6.69166
1.88665
0.00497611
6.77346
1.85633
-0.0311239
6.69616
1.83214
-0.0748673
6.5557
1.81549
-0.12037
6.30924
1.8103
-0.184948
6.12275
-0.20307
5.90652
1.58927
0.00257183
-0.0561261
1.58915
0.00165795
-0.0836175
1.58972
0.00170278
-0.0944493
1.59028
0.00196258
-0.127863
1.59113
0.00167198
-0.175852
1.59237
0.000895415
-0.250997
1.59284
0.000204403
-0.477458
1.59299
0.000226166
-0.709846
1.59383
0.00083464
-0.713129
1.59539
0.00131593
-0.556644
1.59703
0.00102237
-0.442574
1.59838
0.000315797
-0.462966
1.59964
-0.000125349
-0.596119
1.60075
-0.000434888
-0.85958
1.60168
-0.000878642
-1.30407
1.60249
-0.00151169
-1.97262
1.60341
-0.00239545
-2.87361
1.60485
-0.00358591
-3.93038
1.60709
-0.00492302
-4.91413
1.60992
-0.00609097
-5.64747
1.61313
-0.00708271
-6.19614
1.61698
-0.00803519
-6.57698
1.62174
-0.00918182
-6.70145
1.62731
-0.0107843
-6.51496
1.63311
-0.0128741
-6.18095
1.63861
-0.0151008
-6.0117
1.64367
-0.016226
-6.07743
1.64844
-0.0166552
-6.19319
1.65292
-0.0170504
-6.12443
1.65699
-0.0175666
-5.90733
1.66083
-0.0182491
-5.64972
1.66471
-0.018996
-5.37983
1.67004
-0.0216893
-5.13433
1.68058
-0.0322147
-4.96279
1.69957
-0.0526838
-4.86234
1.72451
-0.06853
-4.80944
1.75124
-0.0720197
-4.81528
1.77774
-0.0664546
-4.85055
1.80328
-0.0562023
-4.81493
1.82839
-0.0414893
-4.60912
1.85594
-0.0225265
-4.19048
1.88872
-0.00512132
-3.58759
1.92603
0.003007
-2.92904
1.96628
0.00183671
-2.2867
2.00743
-0.00456615
-1.65613
2.04781
-0.00775251
-0.995501
2.085
0.000869445
-0.28615
2.11341
0.0277039
0.448315
2.13111
0.0599529
1.19225
2.13785
0.0841012
1.97747
2.13566
0.0930182
2.75989
2.12752
0.087244
3.46933
2.11627
0.0704535
4.03726
2.10298
0.0470611
4.41347
2.08761
0.0187023
4.66333
2.0696
-0.0157795
4.78403
2.04971
-0.058335
4.87429
2.02882
-0.10319
4.86977
2.01141
-0.166703
5.00871
-0.189457
4.98179
1.58958
0.00417323
-0.0661494
1.59059
-0.000334026
-0.120094
1.59178
-0.000642351
-0.127321
1.59262
-0.000244731
-0.142017
1.59345
-0.000355117
-0.156994
1.59476
-0.00100183
-0.170822
1.5951
-0.00143482
-0.325912
1.59478
-0.00120595
-0.515443
1.59499
-0.000512896
-0.524984
1.59603
1.40812e-05
-0.391039
1.59741
-0.000175127
-0.280087
1.5987
-0.000808143
-0.287893
1.5999
-0.00116095
-0.418111
1.60087
-0.00121561
-0.692223
1.60151
-0.00116409
-1.16196
1.60189
-0.00110408
-1.88317
1.60235
-0.00108292
-2.88495
1.60345
-0.00113695
-4.09874
1.60555
-0.00105139
-5.28253
1.60844
-0.000548673
-6.23562
1.61198
0.0003163
-7.01486
1.61651
0.00118855
-7.64212
1.62239
0.00159399
-8.0346
1.6294
0.000943618
-8.12268
1.63691
-0.00102698
-8.01044
1.64445
-0.00410297
-7.94563
1.65183
-0.00670672
-8.01006
1.65925
-0.00913942
-8.06592
1.66692
-0.011762
-7.94525
1.67504
-0.0143445
-7.72036
1.68396
-0.0168954
-7.51129
1.6938
-0.0200713
-7.32566
1.70566
-0.0278067
-7.14311
1.72292
-0.0480286
-6.93944
1.74881
-0.0798319
-6.70053
1.78052
-0.101263
-6.4771
1.81396
-0.104799
-6.34637
1.84848
-0.0987517
-6.31639
1.88539
-0.0904001
-6.30787
1.92595
-0.0804548
-6.23498
1.96991
-0.0679661
-6.01069
2.01584
-0.0568229
-5.56857
2.06234
-0.0517586
-5.01452
2.1086
-0.0532155
-4.45044
2.15367
-0.057278
-3.88677
2.1966
-0.0570113
-3.30311
2.23509
-0.0439575
-2.70474
2.26312
-0.0076098
-2.11785
2.27922
0.0360675
-1.50211
2.28651
0.0688871
-0.806929
2.28751
0.0836038
-0.0789368
2.28599
0.0825568
0.622855
2.28292
0.0712094
1.23071
2.27832
0.0522137
1.68716
2.27151
0.0277713
2.04745
2.26007
0.000901126
2.32218
2.24232
-0.0315158
2.6548
2.21573
-0.0639588
2.92175
2.18438
-0.11068
3.43938
-0.129321
3.67521
1.58384
0.0133809
-0.0856851
1.58409
0.00152278
-0.231846
1.58471
0.00147896
-0.33602
1.58583
0.00116688
-0.444807
1.58719
0.000638054
-0.535685
1.58886
0.000112263
-0.584002
1.58991
-0.000513423
-0.782025
1.59075
-0.00086375
-1.04285
1.59202
-0.000744348
-1.13449
1.59368
-0.000506178
-1.0617
1.59531
-0.000602403
-0.97374
1.59668
-0.000939085
-0.981695
1.59784
-0.00109664
-1.11837
1.59891
-0.00109697
-1.4086
1.59995
-0.00102162
-1.89723
1.60104
-0.000790492
-2.63534
1.60236
-0.000383174
-3.64788
1.60425
0.000286181
-4.85283
1.60691
0.00133642
-5.98802
1.61006
0.00288287
-6.83645
1.61354
0.00486161
-7.45553
1.61765
0.00701165
-7.87953
1.62271
0.00887566
-8.0468
1.62855
0.00979862
-7.91189
1.63473
0.00925272
-7.57307
1.64094
0.00723258
-7.25123
1.64684
0.00562509
-7.04828
1.65271
0.00371746
-6.84816
1.65873
0.00124512
-6.51633
1.66505
-0.00128669
-6.12476
1.67187
-0.00379483
-5.77919
1.67822
-0.00882208
-5.46681
1.68326
-0.0220023
-5.09896
1.6902
-0.0523676
-4.63143
1.70577
-0.0952033
-4.08727
1.72782
-0.117611
-3.58012
1.75095
-0.112627
-3.23475
1.77484
-0.0953493
-3.09898
1.80307
-0.0762324
-3.1336
1.84002
-0.0586918
-3.27457
1.88647
-0.0449335
-3.37967
1.9388
-0.0385062
-3.23576
1.99147
-0.0401909
-2.83484
2.04082
-0.0470194
-2.24809
2.0858
-0.0536725
-1.53236
2.12739
-0.0547572
-0.753108
2.1705
-0.0481102
0.0279103
2.20532
-0.0301599
0.675715
2.231
0.00441337
1.10633
2.24691
0.0342197
1.55412
2.25669
0.0495529
2.01338
2.26282
0.0525149
2.44528
2.26662
0.0468857
2.80284
2.26754
0.0358088
3.05505
2.26444
0.0215865
3.28362
2.25378
0.00903512
3.49349
2.23089
-0.00333708
3.84227
2.18973
-0.00660542
4.2132
2.13737
-0.0135641
5.11094
-0.0160649
5.77116
1.59288
0.0083738
-0.0509516
1.59202
-0.00330715
-0.121355
1.59108
-0.00334767
-0.150904
1.5906
-0.00417711
-0.199129
1.59043
-0.00439337
-0.23866
1.59126
-0.00441502
-0.236419
1.59149
-0.00409105
-0.371941
1.59127
-0.00350384
-0.577397
1.59149
-0.0028872
-0.649747
1.59236
-0.00244299
-0.581155
1.59359
-0.00227727
-0.493737
1.59483
-0.00224179
-0.491885
1.59592
-0.00206613
-0.621448
1.59678
-0.00175106
-0.908213
1.59737
-0.00135482
-1.39628
1.59774
-0.00092881
-2.14287
1.59822
-0.000457886
-3.18023
1.59938
-4.13486e-05
-4.41714
1.60156
0.000451301
-5.56163
1.6045
0.00106887
-6.35921
1.60789
0.00177882
-6.84669
1.61186
0.00241475
-7.04262
1.61656
0.002735
-6.87791
1.62179
0.00244112
-6.31854
1.62716
0.00117773
-5.47821
1.63256
-0.00093544
-4.59154
1.63701
-0.0014113
-3.7999
1.64085
-0.00239571
-2.99069
1.64463
-0.00325058
-2.08201
1.64864
-0.0037381
-1.17665
1.65235
-0.00395711
-0.37294
1.65439
-0.005117
0.388005
1.65457
-0.0110595
1.14836
1.66017
-0.033868
1.97444
1.68183
-0.0728237
3.02109
1.71225
-0.0898706
4.28056
1.74001
-0.0795486
5.5442
1.76382
-0.0592606
6.69854
1.78783
-0.0416055
7.80688
1.81352
-0.0315195
8.91978
1.83773
-0.0298779
10.0244
1.8554
-0.0359188
11.106
1.86234
-0.0467348
11.9946
1.85739
-0.0584326
12.604
1.84259
-0.0672939
12.9793
1.82176
-0.070483
13.1906
1.79791
-0.0671748
13.2919
1.77378
-0.0569805
13.2752
1.75357
-0.0366305
13.0691
1.73715
-0.00944586
12.7781
1.72166
0.0113534
12.5606
1.70627
0.0199678
12.4102
1.68896
0.0200918
12.2618
1.66711
0.0159647
12.0437
1.64005
0.0109812
11.8746
1.61203
0.00902319
11.8002
1.59299
0.00907699
12.2144
1.59302
0.0149231
12.989
1.60898
0.0146552
14.7343
0.0150558
15.5407
1.6038
-0.118162
1.60413
-0.251137
1.60471
-0.307825
1.6036
-0.376954
1.6017
-0.423387
1.60017
-0.404526
1.5981
-0.517802
1.59576
-0.695712
1.59381
-0.734758
1.59239
-0.625969
1.59128
-0.488766
1.59022
-0.429615
1.58912
-0.498147
1.58803
-0.709802
1.58698
-1.09038
1.58602
-1.67595
1.58524
-2.47572
1.58494
-3.37839
1.58527
-4.09233
1.58599
-4.39026
1.58671
-4.3469
1.58746
-4.01233
1.58844
-3.3482
1.58981
-2.35331
1.59195
-1.16637
1.59593
-0.0175817
1.59874
0.938574
1.60158
1.81028
1.6047
2.71081
1.60792
3.58057
1.60994
4.32436
1.60911
4.92405
1.61202
5.46738
1.64126
6.47771
1.70246
8.72219
1.76035
11.7158
1.78735
14.1567
1.78547
15.5285
1.7656
16.0565
1.73429
16.1082
1.69288
15.9871
1.64058
15.9492
1.57673
15.9813
1.50233
16.0448
1.42031
16.154
1.33477
16.2918
1.24979
16.4128
1.17027
16.4166
1.10634
16.2802
1.06775
16.1403
1.05226
16.0721
1.05115
16.1211
1.05795
16.2774
1.06871
16.479
1.08072
16.8545
1.09254
17.2064
1.10185
17.6999
1.11073
17.6924
1.11386
18.1323
16.7688
1.60422
-0.00778463
1.60397
0.00376227
1.60424
0.00351665
1.60293
0.00460912
1.60062
0.0053719
1.59879
0.00581502
1.59775
0.00524764
1.59672
0.00432809
1.59469
0.00361873
1.59212
0.00303434
1.59014
0.00258714
1.58871
0.00240398
1.58741
0.00237766
1.58631
0.00213473
1.58551
0.00164386
1.58496
0.000951187
1.58464
0.000172001
1.58465
-0.000545723
1.58473
-0.00110501
1.58458
-0.00145969
1.58467
-0.00160455
1.58536
-0.00157298
1.58654
-0.00148961
1.58782
-0.00167007
1.59
-0.00211392
1.59363
-0.00229664
1.59749
-0.00148729
1.6007
-0.000569118
1.60257
-0.000554517
1.60432
-0.00176107
1.607
-0.00335902
1.61085
-0.00463737
1.61603
-0.00582164
1.62308
-0.00750813
1.63239
-0.0096435
1.64313
-0.0110395
1.654
-0.0108986
1.66449
-0.00953314
1.67637
-0.00738926
1.69641
-0.00289602
1.73281
0.0135319
1.7811
0.0462475
1.816
0.0771887
1.81388
0.0937611
1.77175
0.098856
1.70129
0.0984303
1.61775
0.0953779
1.534
0.089238
1.45918
0.0782441
1.39975
0.0617763
1.3594
0.0414301
1.33824
0.0209184
1.33252
0.00455104
1.33624
-0.0060068
1.34526
-0.0120306
1.35835
-0.0161669
1.37811
-0.0218646
1.40354
-0.0279387
1.44329
-0.0400251
-0.041377
1.59359
-0.0133458
1.59265
-0.00152186
1.59131
-0.00143827
1.5906
-0.000951805
1.59018
-0.000264738
1.59076
0.000357594
1.59179
0.00104704
1.59302
0.000823288
1.59353
8.83904e-05
1.59356
-0.000826413
1.5938
-0.000785982
1.59452
-0.000724248
1.59538
-0.000702841
1.59621
-0.000644001
1.59717
-0.000917188
1.59828
-0.00159369
1.59967
-0.00274658
1.60157
-0.00424506
1.60374
-0.00577309
1.60585
-0.00698695
1.6083
-0.00781758
1.61144
-0.00835307
1.61515
-0.00875286
1.61867
-0.00915458
1.62157
-0.0091508
1.62535
-0.00773961
1.62983
-0.00556533
1.63469
-0.00350883
1.63851
-0.00273477
1.64208
-0.0031687
1.64629
-0.00410738
1.65146
-0.0050304
1.65783
-0.00635725
1.66601
-0.00900182
1.67644
-0.0125014
1.68815
-0.0137748
1.69956
-0.0103149
1.7107
-0.00186068
1.72828
0.0137679
1.76685
0.0392587
1.8284
0.071823
1.89125
0.103871
1.93178
0.126052
1.9437
0.132852
1.93387
0.128817
1.91176
0.120863
1.88422
0.112595
1.85466
0.103583
1.82493
0.0905619
1.79689
0.0709144
1.7719
0.0454049
1.75036
0.0182241
1.7323
-0.00503489
1.71804
-0.0198184
1.70779
-0.0295589
1.70112
-0.037459
1.70057
-0.0488304
1.70599
-0.0602552
1.73037
-0.0856525
-0.0869456
1.58441
-0.00408161
1.58447
0.000636811
1.58483
0.0010293
1.58578
0.000967902
1.58666
0.00170741
1.58732
0.00333832
1.58939
0.00336567
1.59188
0.0022502
1.59338
0.000950008
1.59371
0.00024393
1.59443
0.00023828
1.5954
0.000437981
1.59626
0.000441563
1.59722
-9.19082e-05
1.59839
-0.00123486
1.5998
-0.00294479
1.60151
-0.00512072
1.6037
-0.00750557
1.60608
-0.00974974
1.60832
-0.0115234
1.61084
-0.0128169
1.61399
-0.0137654
1.6177
-0.0145701
1.62132
-0.0152334
1.62439
-0.0150305
1.62784
-0.0133678
1.63198
-0.0109586
1.63656
-0.00916689
1.64041
-0.00868709
1.64396
-0.00894009
1.64813
-0.00900257
1.65317
-0.0090643
1.65944
-0.0102781
1.66772
-0.0141481
1.67875
-0.0200457
1.69168
-0.0230963
1.70494
-0.0197328
1.71772
-0.00933497
1.73108
0.00927982
1.75245
0.0381199
1.79224
0.0752819
1.8502
0.109549
1.91024
0.128445
1.95572
0.130222
1.9799
0.122553
1.98376
0.113214
1.97039
0.106431
1.9419
0.10224
1.89997
0.0964026
1.84743
0.0845448
1.78916
0.0657769
1.73149
0.0430609
1.68036
0.0206811
1.63745
1.56132e-05
1.60239
-0.0175481
1.57421
-0.03385
1.55437
-0.0551079
1.54353
-0.0770656
1.54944
-0.117552
-0.128716
1.58995
-0.00231243
1.59086
-0.00132514
1.59175
-0.00118689
1.59239
-0.00124721
1.59289
-0.00077829
1.59349
0.000769197
1.59463
0.0013973
1.59589
0.000836889
1.59648
-0.000369252
1.59665
-0.00123102
1.59702
-0.00127811
1.59776
-0.000893566
1.5985
-0.000834492
1.59929
-0.00132677
1.6002
-0.00231983
1.6013
-0.00388186
1.60275
-0.00608782
1.60479
-0.00872064
1.60717
-0.0113415
1.60952
-0.0135084
1.61219
-0.0152
1.61552
-0.0165625
1.61945
-0.0177866
1.6234
-0.018855
1.62697
-0.0191247
1.63069
-0.0181752
1.63484
-0.0164005
1.63927
-0.0149327
1.64322
-0.0144131
1.64697
-0.0144415
1.65117
-0.0144344
1.65592
-0.0144936
1.66139
-0.0159238
1.6689
-0.021332
1.67981
-0.030285
1.69291
-0.0350777
1.70653
-0.031116
1.71999
-0.0185833
1.73363
0.00306579
1.75153
0.031834
1.7796
0.0643725
1.82128
0.0908486
1.87225
0.10205
1.92367
0.0982386
1.96693
0.0889807
1.99662
0.0822028
2.00959
0.0822365
2.00372
0.0891087
1.97906
0.0966588
1.93887
0.0976464
1.88881
0.0889162
1.83462
0.0722769
1.78033
0.0513321
1.72836
0.0273507
1.68161
-0.000648819
1.64328
-0.0292603
1.61652
-0.0638049
1.60345
-0.0995359
1.60818
-0.15451
-0.171264
1.58979
-0.000188782
1.58963
-0.00108731
1.59006
-0.00132338
1.59053
-0.00127013
1.59094
-0.00089789
1.59128
0.000437738
1.59255
0.0011322
1.59433
0.000580026
1.59553
-0.000601915
1.59613
-0.00137177
1.59664
-0.00131911
1.5974
-0.000886439
1.59811
-0.000888585
1.59882
-0.00145391
1.59968
-0.00247475
1.60078
-0.00398161
1.6023
-0.00605432
1.60448
-0.00849904
1.60706
-0.0109171
1.60968
-0.0129467
1.61265
-0.0146651
1.61637
-0.0162707
1.62084
-0.0179211
1.62548
-0.0195851
1.62985
-0.0206342
1.63424
-0.0206189
1.63886
-0.0195305
1.64355
-0.0182972
1.64773
-0.017673
1.65155
-0.0175226
1.65544
-0.0175979
1.65944
-0.0179349
1.66403
-0.0200051
1.67118
-0.0275465
1.68288
-0.04074
1.69775
-0.0491583
1.71349
-0.0473116
1.72905
-0.0367129
1.74408
-0.0194629
1.76177
0.0067114
1.78533
0.0353711
1.8161
0.0575129
1.85387
0.0664548
1.89618
0.0628837
1.94022
0.0534879
1.98275
0.0464414
2.01933
0.0485124
2.04423
0.0623771
2.05351
0.0806848
2.0468
0.0932023
2.02696
0.0940704
1.99834
0.0836048
1.96516
0.0648834
1.92997
0.0405807
1.89567
0.0108174
1.86473
-0.0241766
1.83922
-0.0659395
1.82137
-0.109619
1.81261
-0.170545
-0.192104
1.58966
0.00203214
1.58955
-0.000605915
1.58989
-0.00112229
1.59039
-0.0010006
1.59094
-0.000792192
1.5912
0.000302792
1.59234
0.000896286
1.59406
0.000416474
1.59536
-0.000626843
1.59613
-0.00131548
1.59675
-0.00127143
1.59748
-0.000880651
1.59819
-0.000906893
1.59894
-0.00139581
1.59985
-0.00217292
1.60102
-0.00320792
1.60266
-0.00455705
1.605
-0.0060173
1.60779
-0.00728326
1.61063
-0.00812728
1.61382
-0.00874601
1.61783
-0.00945506
1.62271
-0.0105283
1.628
-0.0120782
1.63323
-0.0136415
1.63847
-0.0146284
1.64379
-0.0146093
1.64894
-0.0144534
1.65336
-0.0149676
1.65712
-0.0159712
1.66069
-0.0172563
1.66439
-0.0186027
1.6699
-0.0220139
1.68124
-0.0338642
1.70106
-0.055021
1.72658
-0.0702541
1.75376
-0.0728046
1.78062
-0.0664703
1.80629
-0.0552965
1.8316
-0.0388834
1.85972
-0.0181401
1.89284
1.76554e-05
1.93018
0.00782301
1.97011
0.0057592
2.01088
-0.00127021
2.05091
-0.00535055
2.08779
0.00219412
2.11588
0.029399
2.13387
0.0623397
2.14137
0.0867408
2.14012
0.0953792
2.13263
0.0896352
2.1218
0.0733799
2.10898
0.0504912
2.09412
0.0229274
2.0768
-0.010824
2.0571
-0.0519188
2.03658
-0.0954834
2.01707
-0.15491
-0.180112
1.5899
0.00370997
1.59118
-0.002199
1.59216
-0.0029422
1.59303
-0.00283273
1.59373
-0.00268874
1.59388
-0.00183264
1.59457
-0.000988231
1.59564
-0.000873682
1.59639
-0.00141225
1.59684
-0.00181707
1.59723
-0.00167719
1.59773
-0.00126506
1.59822
-0.00114244
1.59872
-0.0012303
1.5993
-0.00134373
1.60009
-0.0014921
1.60136
-0.00170222
1.60346
-0.00179188
1.60618
-0.00144704
1.60912
-0.000480054
1.61265
0.000830296
1.61735
0.00203111
1.62337
0.00263717
1.63027
0.00212706
1.63744
0.000537641
1.64482
-0.00173496
1.65239
-0.00367424
1.66009
-0.00573035
1.66779
-0.00844827
1.67585
-0.0113379
1.68483
-0.0142138
1.69484
-0.0181322
1.7072
-0.0272917
1.72551
-0.0498646
1.75237
-0.0829034
1.78475
-0.103791
1.81885
-0.106619
1.85421
-0.100359
1.89212
-0.0917912
1.93358
-0.08095
1.97787
-0.0671881
2.02328
-0.055133
2.06887
-0.0500062
2.11409
-0.0518576
2.15799
-0.0563631
2.19943
-0.0567708
2.236
-0.0444213
2.26265
-0.00760908
2.27826
0.0356698
2.28556
0.0686121
2.28702
0.0842413
2.28656
0.0843019
2.28479
0.0735936
2.28169
0.0551394
2.27607
0.0313444
2.26607
0.00565031
2.24917
-0.0244264
2.22429
-0.0552992
2.1929
-0.0992356
-0.121862
1.58373
0.013323
1.58434
0.000555825
1.58482
0.000157191
1.58616
-0.000482101
1.58762
-0.000873662
1.58824
-0.000367004
1.58949
-0.000131841
1.59143
-0.000453349
1.59316
-0.00103745
1.59438
-0.00133633
1.59524
-0.00114869
1.59597
-0.000737045
1.59669
-0.000579958
1.59749
-0.000580156
1.59848
-0.000527599
1.59982
-0.000325918
1.60172
4.18782e-05
1.60443
0.000819995
1.60761
0.00221098
1.61079
0.00428177
1.61424
0.00677095
1.61847
0.00938265
1.62364
0.0116836
1.62938
0.0130259
1.63524
0.0130166
1.64123
0.0117277
1.64728
0.0104326
1.65338
0.00892973
1.65936
0.00661821
1.66554
0.00412862
1.67228
0.00183574
1.67848
-0.00374274
1.68345
-0.0190943
1.69097
-0.0502688
1.70705
-0.0917499
1.72957
-0.113371
1.75351
-0.108568
1.77893
-0.0916512
1.80969
-0.0725017
1.84995
-0.0544243
1.89947
-0.0400568
1.95327
-0.0333243
2.00598
-0.0354069
2.0546
-0.0430741
2.09852
-0.0507332
2.13898
-0.052937
2.17918
-0.0479962
2.20955
-0.0339188
2.23221
-0.00030334
2.24649
0.0303233
2.25588
0.0469552
2.2622
0.0508948
2.26657
0.0458529
2.26841
0.0348593
2.26635
0.0204995
2.25741
0.0075108
2.23662
-0.00503828
2.19907
-0.00860484
2.14861
-0.0135852
-0.0168744
1.59286
0.00842332
1.59238
-0.00373681
1.59119
-0.00413518
1.59091
-0.00512984
1.59091
-0.00525695
1.59052
-0.00469359
1.59083
-0.00384201
1.59174
-0.00319081
1.59256
-0.00292115
1.59316
-0.00272324
1.5936
-0.00236742
1.59401
-0.0019033
1.59443
-0.00154435
1.59488
-0.00123235
1.5954
-0.000861989
1.59611
-0.000451676
1.59735
3.6488e-06
1.59951
0.000518823
1.60235
0.00124357
1.60536
0.00217845
1.60873
0.00315186
1.61284
0.004011
1.61768
0.00455277
1.62279
0.00447654
1.62774
0.00342032
1.63267
0.00175529
1.63727
-0.000154936
1.64136
-0.00146044
1.64486
-0.00258945
1.64812
-0.00333057
1.65156
-0.0042737
1.65367
-0.00670944
1.65396
-0.0128608
1.65879
-0.0328351
1.6798
-0.0687182
1.70991
-0.0859845
1.73791
-0.0772859
1.76204
-0.0581417
1.78604
-0.0407606
1.81184
-0.0304924
1.83674
-0.0285222
1.8556
-0.0341916
1.86411
-0.044784
1.86086
-0.0564692
1.84753
-0.0655603
1.82776
-0.069229
1.8045
-0.0667069
1.77992
-0.0578629
1.75864
-0.0391569
1.74167
-0.0122093
1.72596
0.00987176
1.71036
0.0194872
1.69301
0.0201958
1.67126
0.0164372
1.64411
0.0117581
1.61545
0.00997835
1.59471
0.0102223
1.59255
0.0156757
1.60654
0.0155669
0.0149807
1.60375
1.6051
1.60532
1.60431
1.60255
1.59988
1.59787
1.5965
1.59501
1.59324
1.59132
1.58946
1.58782
1.58645
1.58541
1.58481
1.58482
1.58556
1.58657
1.58726
1.58788
1.58875
1.5899
1.59106
1.59201
1.59418
1.59717
1.60058
1.60393
1.60724
1.60959
1.60916
1.6112
1.63713
1.69647
1.75588
1.7859
1.78653
1.76829
1.73826
1.69819
1.64727
1.58485
1.51173
1.43061
1.34544
1.26023
1.17934
1.11288
1.07167
1.05443
1.05237
1.0586
1.06898
1.08066
1.09223
1.10123
1.10992
1.11281
)
;

boundaryField
{
    wall
    {
        type            calculated;
        value           nonuniform List<scalar> 
1200
(
0.0236645
0.0127041
0.0179625
0.028907
0.0427135
0.0563686
0.0665826
0.0842518
0.0546979
0.114347
-0.164518
-0.0869552
-0.11146
-0.0299597
0.0253015
0.0836364
0.121063
0.22973
0.127037
0.2475
-0.259857
-0.136533
-0.221692
-0.0606149
0.00494781
0.0941834
0.128468
0.333272
0.156669
0.303888
-0.275152
-0.137482
-0.266317
-0.0445951
0.0107905
0.127389
0.143383
0.442278
0.204944
0.373878
-0.197656
-0.0745367
-0.227098
0.0100636
0.0400254
0.174972
0.158186
0.533325
0.243864
0.420891
0.0270307
0.104715
-0.0496687
0.138719
0.127115
0.249574
0.17141
0.581218
0.240115
0.401641
0.316159
0.350799
0.262373
0.370741
0.361757
0.47697
0.327211
0.780044
0.37529
0.515786
0.423259
0.455125
0.455582
0.519108
0.567757
0.710027
0.517189
1.04167
0.580255
0.694548
0.200854
0.257348
0.308782
0.390521
0.512955
0.712897
0.526125
1.13345
0.651674
0.733817
-0.120308
-0.0395394
0.0147982
0.139006
0.306261
0.555811
0.391304
1.06056
0.582222
0.624949
-0.258642
-0.170337
-0.134405
0.0108295
0.178018
0.441613
0.279899
0.972527
0.494178
0.487602
-0.20677
-0.123931
-0.0998525
0.0489638
0.203473
0.462216
0.287722
0.980458
0.491938
0.428425
-0.0656694
0.00690686
0.0282228
0.173777
0.331499
0.595418
0.417943
1.11714
0.621326
0.497178
0.153052
0.219965
0.251405
0.390393
0.57423
0.858985
0.692032
1.40741
0.908005
0.709145
0.480061
0.557662
0.61223
0.749457
0.982855
1.30356
1.16161
1.89604
1.39604
1.09007
0.907666
1.0308
1.11939
1.27681
1.59092
1.97193
1.88238
2.63394
2.14262
1.67599
1.37792
1.59506
1.72804
1.94724
2.3879
2.87229
2.88317
3.64586
3.17984
2.47603
1.79589
2.15478
2.3418
2.6702
3.28805
3.92777
4.09519
4.84952
4.41631
3.37866
1.99323
2.52269
2.76874
3.23994
4.07227
4.90975
5.27655
5.98297
5.56033
4.09245
1.89875
2.59966
2.90139
3.52347
4.583
5.64146
6.22719
6.82987
6.35809
4.39062
1.64558
2.50018
2.84841
3.61219
4.89536
6.1887
7.00392
7.4475
6.8464
4.34797
1.25343
2.23614
2.62426
3.51876
5.02011
6.56805
7.62836
7.86959
7.04325
4.01399
0.635898
1.71003
2.13401
3.14928
4.86269
6.69108
8.01794
8.03446
6.87935
3.34996
-0.196928
0.921737
1.37449
2.48716
4.38677
6.50372
8.10394
7.8972
6.32068
2.35439
-0.948126
0.163941
0.631992
1.79288
3.81264
6.1698
7.99109
7.5566
5.48093
1.1654
-1.27143
-0.184029
0.283025
1.43714
3.49832
6.00143
7.92708
7.23369
4.5943
0.0126843
-1.24419
-0.189439
0.290043
1.42144
3.48887
6.06826
7.99317
7.03005
3.8025
-0.942797
-1.14535
-0.132216
0.366995
1.48783
3.5638
6.18516
8.05099
6.82943
2.99297
-1.81551
-1.30174
-0.341669
0.19903
1.34111
3.45429
6.11777
7.9323
6.49731
2.08273
-2.71719
-1.67522
-0.783591
-0.180645
1.00486
3.18333
5.90226
7.70902
6.10539
1.1751
-3.58755