/*--------------------------------*- C++ -*----------------------------------*\
  =========                 |
  \\      /  F ield         | OpenFOAM: The Open Source CFD Toolbox
   \\    /   O peration     | Website:  https://openfoam.org
    \\  /    A nd           | Version:  8
     \\/     M anipulation  |
\*---------------------------------------------------------------------------*/
FoamFile
{
    version     2.0;
    format      ascii;
    class       volScalarField;
    location    "600";
    object      k;
}
// * * * * * * * * * * * * * * * * * * * * * * * * * * * * * * * * * * * * * //

dimensions      [0 2 -2 0 0 0 0];

internalField   nonuniform List<scalar> 
1200
(
2.37111e-05
2.33925e-05
2.30597e-05
2.27102e-05
2.23449e-05
2.19411e-05
2.14968e-05
2.11217e-05
2.02897e-05
2.03043e-05
2.16995e-05
2.32949e-05
2.48716e-05
2.66117e-05
2.89331e-05
3.22512e-05
3.62501e-05
3.86708e-05
4.09257e-05
4.28486e-05
4.49609e-05
4.54402e-05
4.54426e-05
4.58141e-05
4.71333e-05
4.91391e-05
5.11999e-05
5.32392e-05
5.54559e-05
5.82502e-05
6.13709e-05
6.47354e-05
6.8788e-05
7.51593e-05
8.3998e-05
9.24101e-05
9.90444e-05
0.000105347
0.000112323
0.000119932
0.000128051
0.00013599
0.000141252
0.000143892
0.000145991
0.000149151
0.000152567
0.000160826
0.000172958
0.000186602
0.000196443
0.000203169
0.000211952
0.000230149
0.000245758
0.000265849
0.000288224
0.000345661
0.000384293
0.000490397
2.09367e-05
1.81415e-05
1.57584e-05
1.37435e-05
1.20623e-05
1.06557e-05
9.57001e-06
8.56879e-06
7.55093e-06
1.09635e-05
1.70557e-05
1.63078e-05
1.34336e-05
1.1846e-05
1.14516e-05
1.16901e-05
1.25749e-05
1.33597e-05
1.55158e-05
1.82074e-05
2.16964e-05
2.53866e-05
2.88396e-05
3.19195e-05
3.66805e-05
4.24473e-05
4.58784e-05
5.07053e-05
5.42615e-05
5.24707e-05
4.82974e-05
5.16828e-05
6.55801e-05
8.39837e-05
9.96e-05
0.000107137
0.000106277
0.000108702
0.000116366
0.000120759
0.000115848
0.000122146
0.000121671
0.000108122
8.98008e-05
7.67597e-05
7.48564e-05
0.000120556
0.000108072
9.05986e-05
0.000108987
0.000189594
0.000276086
0.000369186
0.000300269
0.000336015
0.000619737
0.000937275
0.00114948
0.00112408
2.09087e-05
1.80161e-05
1.55195e-05
1.33734e-05
1.15388e-05
9.94966e-06
8.60852e-06
7.46273e-06
7.65327e-06
1.09544e-05
1.35549e-05
9.37387e-06
5.23475e-06
7.47894e-06
1.09517e-05
1.29649e-05
1.26551e-05
9.60461e-06
1.28791e-05
1.69577e-05
2.95774e-05
3.8733e-05
4.38434e-05
4.71728e-05
5.77621e-05
6.85427e-05
7.99949e-05
9.21772e-05
0.000105243
0.000119263
0.000133803
0.000147924
0.000162675
0.000177311
0.000189307
0.000198829
0.000207687
0.000216933
0.000226931
0.000237481
0.000248916
0.000261269
0.000273258
0.000286218
0.000301567
0.000322199
0.000350584
0.000381677
0.000415761
0.000458212
0.000516239
0.000592918
0.000676033
0.000770857
0.000886956
0.00103686
0.00126004
0.00154706
0.00186992
0.0024012
2.09136e-05
1.80306e-05
1.55414e-05
1.33929e-05
1.1549e-05
9.94367e-06
8.56082e-06
7.36366e-06
7.30764e-06
1.00329e-05
1.14859e-05
9.34988e-06
7.0102e-06
9.06884e-06
1.32753e-05
1.63392e-05
1.71113e-05
1.75265e-05
2.06895e-05
3.28106e-05
3.97771e-05
4.44053e-05
4.81058e-05
5.83384e-05
6.94076e-05
8.0992e-05
9.31709e-05
0.000106171
0.000120568
0.000135933
0.000151862
0.000167797
0.000183411
0.000198255
0.000212241
0.000226329
0.000241083
0.000256413
0.000272019
0.000288361
0.000305309
0.000322042
0.000338754
0.000355477
0.00037215
0.0003882
0.000401025
0.000413032
0.000426067
0.000447054
0.000500699
0.000577842
0.000668424
0.00078624
0.000934929
0.00111335
0.00134177
0.00163417
0.00200696
0.00248879
2.09178e-05
1.80333e-05
1.55464e-05
1.33947e-05
1.15474e-05
9.9548e-06
8.57662e-06
7.38879e-06
6.78234e-06
8.24158e-06
9.41545e-06
8.74478e-06
7.46984e-06
6.70859e-06
9.98842e-06
1.64494e-05
1.75055e-05
1.79047e-05
1.96603e-05
2.31009e-05
3.16655e-05
3.97633e-05
4.36695e-05
4.62174e-05
5.20477e-05
6.02271e-05
6.92316e-05
8.03427e-05
9.32994e-05
0.000107132
0.00012046
0.000132973
0.000144262
0.000154969
0.000165996
0.000177292
0.000189059
0.000199702
0.000207903
0.000212813
0.000211818
0.000200685
0.000178221
0.000151092
0.000141053
0.000159365
0.000184618
0.00021988
0.000266646
0.000319724
0.000367793
0.000429616
0.000531384
0.000667594
0.00083952
0.00105053
0.00130473
0.00161037
0.00198898
0.00247374
2.09206e-05
1.80364e-05
1.55557e-05
1.34036e-05
1.15518e-05
9.96522e-06
8.58946e-06
7.42401e-06
6.56112e-06
6.87944e-06
7.49294e-06
7.30839e-06
6.7439e-06
6.16461e-06
6.70789e-06
8.778e-06
8.68523e-06
9.50112e-06
1.39402e-05
1.82555e-05
2.27097e-05
2.98814e-05
3.53969e-05
3.90797e-05
4.39907e-05
4.46193e-05
4.74889e-05
4.78459e-05
6.00958e-05
7.52453e-05
8.50503e-05
9.25282e-05
9.7818e-05
0.000102048
0.000106431
0.000114183
0.000123556
0.000133067
0.000142049
0.000149079
0.000151568
0.000146522
0.000132945
0.000109027
8.48221e-05
8.50365e-05
0.00010414
0.000130665
0.000167163
0.00020887
0.000249166
0.000300303
0.000384034
0.000494705
0.00064998
0.000854548
0.00109167
0.001367
0.00176621
0.00238124
2.09249e-05
1.80429e-05
1.55683e-05
1.34168e-05
1.15629e-05
9.97653e-06
8.60896e-06
7.45953e-06
6.52443e-06
6.14214e-06
6.12142e-06
5.90222e-06
5.51559e-06
5.27431e-06
5.23893e-06
5.73784e-06
5.75583e-06
5.82358e-06
6.51463e-06
7.78434e-06
1.12058e-05
1.77492e-05
2.38943e-05
2.86588e-05
3.28052e-05
3.60177e-05
3.82463e-05
4.12595e-05
4.55337e-05
5.0392e-05
5.68514e-05
6.25256e-05
6.68362e-05
6.78204e-05
6.64255e-05
6.53288e-05
6.47246e-05
6.2929e-05
5.67937e-05
7.28953e-05
9.06764e-05
9.39826e-05
9.20065e-05
8.88419e-05
8.7062e-05
8.50376e-05
7.98194e-05
6.72808e-05
4.84518e-05
5.92935e-05
5.84064e-05
5.72127e-05
9.74404e-05
0.000201257
0.000400605
0.000539703
0.000644059
0.000697011
0.000979897
0.00179607
2.09317e-05
1.80422e-05
1.55601e-05
1.34057e-05
1.15505e-05
9.96712e-06
8.61845e-06
7.48695e-06
6.54086e-06
5.87606e-06
5.46236e-06
5.09014e-06
4.69896e-06
4.45446e-06
4.3255e-06
4.30306e-06
4.16841e-06
4.03747e-06
4.03822e-06
4.3137e-06
5.54768e-06
8.84579e-06
1.33517e-05
1.76574e-05
2.13607e-05
2.45293e-05
2.71381e-05
2.97557e-05
3.29848e-05
3.65303e-05
4.00985e-05
4.27254e-05
4.44742e-05
4.56445e-05
4.56748e-05
4.55351e-05
4.54119e-05
4.69841e-05
4.92476e-05
5.39168e-05
5.78163e-05
5.76562e-05
5.48633e-05
5.13306e-05
4.81821e-05
4.54099e-05
4.49151e-05
4.4351e-05
4.37714e-05
4.35909e-05
4.32533e-05
4.29886e-05
4.37576e-05
5.84971e-05
0.000105908
0.000212913
0.000320581
0.000359584
0.000392038
0.000640977
2.09679e-05
1.81721e-05
1.57872e-05
1.37224e-05
1.19162e-05
1.03719e-05
9.05589e-06
7.93754e-06
6.96906e-06
6.18012e-06
5.58982e-06
5.13124e-06
4.75545e-06
4.43582e-06
4.18432e-06
3.99776e-06
3.83107e-06
3.70227e-06
3.60868e-06
3.56696e-06
3.76672e-06
4.74948e-06
6.67289e-06
9.04715e-06
1.14022e-05
1.3591e-05
1.5627e-05
1.76582e-05
1.99147e-05
2.23248e-05
2.4507e-05
2.61076e-05
2.73304e-05
2.85148e-05
2.9961e-05
3.19799e-05
3.44124e-05
3.6836e-05
3.90113e-05
4.09023e-05
4.18705e-05
4.20121e-05
4.19663e-05
4.2156e-05
4.30063e-05
4.40075e-05
4.45563e-05
4.42855e-05
4.38018e-05
4.35246e-05
4.3328e-05
4.32792e-05
4.32333e-05
4.46293e-05
4.86784e-05
6.97255e-05
0.000109373
0.000147154
0.000175655
0.000217255
2.37252e-05
2.34188e-05
2.3105e-05
2.27777e-05
2.24204e-05
2.19842e-05
2.14187e-05
2.069e-05
1.97117e-05
1.8659e-05
1.80778e-05
1.81426e-05
1.86173e-05
1.85218e-05
1.82288e-05
1.83371e-05
1.89981e-05
1.97299e-05
2.03532e-05
2.08412e-05
2.09431e-05
2.09282e-05
2.10832e-05
2.1569e-05
2.24606e-05
2.37219e-05
2.52877e-05
2.71422e-05
2.93886e-05
3.20709e-05
3.51401e-05
3.85258e-05
4.22786e-05
4.57805e-05
4.95591e-05
5.32323e-05
5.66875e-05
6.00997e-05
6.36499e-05
6.75062e-05
7.23608e-05
7.8361e-05
8.53218e-05
9.29326e-05
0.000100467
0.000107824
0.000115216
0.00012276
0.000129936
0.000136938
0.000144541
0.000152555
0.000159639
0.000165303
0.000173671
0.000184063
0.000195905
0.000210209
0.000225468
0.000244611
2.36922e-05
2.33853e-05
2.30505e-05
2.27107e-05
2.2368e-05
2.1957e-05
2.15179e-05
2.11279e-05
2.0283e-05
2.02856e-05
2.16845e-05
2.3285e-05
2.48364e-05
2.6598e-05
2.88603e-05
3.2149e-05
3.61829e-05
3.86627e-05
4.08878e-05
4.28352e-05
4.49653e-05
4.53567e-05
4.54209e-05
4.58182e-05
4.71444e-05
4.91647e-05
5.12465e-05
5.33952e-05
5.56318e-05
5.83195e-05
6.12839e-05
6.47092e-05
6.8886e-05
7.46732e-05
8.29032e-05
9.15836e-05
9.89166e-05
0.000105848
0.000113354
0.00012147
0.00012915
0.000135232
0.00013861
0.000140694
0.00014348
0.000147649
0.000152361
0.000162056
0.000175177
0.000188625
0.000196993
0.000203028
0.000212343
0.000231266
0.000247397
0.000267969
0.000290762
0.00036057
0.000392389
0.000473296
2.09433e-05
1.81485e-05
1.57623e-05
1.37479e-05
1.20785e-05
1.06739e-05
9.56385e-06
8.58613e-06
7.54348e-06
1.08772e-05
1.69708e-05
1.62562e-05
1.34135e-05
1.1773e-05
1.13869e-05
1.16341e-05
1.25598e-05
1.32897e-05
1.54508e-05
1.81437e-05
2.16674e-05
2.53942e-05
2.88753e-05
3.19641e-05
3.67549e-05
4.2577e-05
4.60929e-05
5.39107e-05
6.02658e-05
5.89128e-05
4.94336e-05
4.99199e-05
6.24349e-05
8.00216e-05
9.53498e-05
0.000102869
0.000104054
0.000107679
0.000117081
0.000126034
0.000124873
0.00013058
0.000127408
0.000106191
8.66262e-05
7.56418e-05
7.80211e-05
0.000135726
0.000100426
9.08554e-05
0.000110688
0.000187104
0.000270863
0.000360034
0.000298488
0.000335398
0.00061625
0.000931417
0.00114058
0.00116159
2.09171e-05
1.80201e-05
1.55219e-05
1.33717e-05
1.15344e-05
9.95826e-06
8.61123e-06
7.46742e-06
7.59437e-06
1.08533e-05
1.35079e-05
9.41426e-06
5.16756e-06
7.49331e-06
1.09966e-05
1.30174e-05
1.27227e-05
9.41598e-06
1.28052e-05
1.68823e-05
2.95181e-05
3.86932e-05
4.37738e-05
4.69906e-05
5.75547e-05
6.83905e-05
8.00593e-05
9.25095e-05
0.000105465
0.000118996
0.000132677
0.00014578
0.000159792
0.000173978
0.000185924
0.00019589
0.000204912
0.000214255
0.000224501
0.000235349
0.000246581
0.000258165
0.00026953
0.000282502
0.00029828
0.000319123
0.000347682
0.000378682
0.000412675
0.000455542
0.000511158
0.000586998
0.000670301
0.000766555
0.000883347
0.00103478
0.00125449
0.00153206
0.00184679
0.00238876
2.09196e-05
1.80325e-05
1.55473e-05
1.33939e-05
1.15431e-05
9.94986e-06
8.56212e-06
7.36537e-06
7.25811e-06
9.94498e-06
1.14456e-05
9.35358e-06
7.02371e-06
9.14476e-06
1.33412e-05
1.63781e-05
1.71548e-05
1.75636e-05
2.05634e-05
3.31038e-05
4.00409e-05
4.46498e-05
4.83722e-05
5.85982e-05
6.96244e-05
8.1147e-05
9.31475e-05
0.000105655
0.000120061
0.000135677
0.000151286
0.000166631
0.000181746
0.000196289
0.000210255
0.000224481
0.000239279
0.000254335
0.000269415
0.000285162
0.000301871
0.000318544
0.000335199
0.000351534
0.000367323
0.000381879
0.000393066
0.00040349
0.000417676
0.000443971
0.000500426
0.000574652
0.000664579
0.000783332
0.000932732
0.00111128
0.00134069
0.00163423
0.00200706
0.0024853
2.09229e-05
1.8037e-05
1.55524e-05
1.3397e-05
1.15443e-05
9.95483e-06
8.57204e-06
7.38907e-06
6.75891e-06
8.17922e-06
9.37361e-06
8.72713e-06
7.47462e-06
6.75999e-06
1.0069e-05
1.65124e-05
1.7551e-05
1.79419e-05
1.96856e-05
2.30293e-05
3.14433e-05
3.96672e-05
4.38557e-05
4.70498e-05
5.1885e-05
5.99189e-05
6.84656e-05
7.93058e-05
9.21693e-05
0.000106511
0.000120444
0.000133234
0.000144655
0.000155235
0.00016567
0.000176156
0.000186963
0.000196682
0.000203905
0.000207023
0.000204253
0.000191196
0.00016798
0.000144111
0.000138575
0.000154149
0.000179902
0.000217237
0.000265256
0.000317484
0.000364481
0.000424299
0.000526302
0.000662194
0.000832751
0.001043
0.00129836
0.00160631
0.00198671
0.00247063
2.0929e-05
1.80451e-05
1.55603e-05
1.34058e-05
1.15504e-05
9.95841e-06
8.58303e-06
7.42059e-06
6.55179e-06
6.84429e-06
7.45902e-06
7.28504e-06
6.72661e-06
6.15793e-06
6.75655e-06
8.78957e-06
8.65823e-06
9.52248e-06
1.40272e-05
1.82897e-05
2.26396e-05
2.9756e-05
3.52914e-05
3.90029e-05
4.38602e-05
4.51489e-05
4.58574e-05
4.43532e-05
4.93857e-05
7.18592e-05
8.52479e-05
9.36515e-05
9.96241e-05
0.000104079
0.000108131
0.000114465
0.000122376
0.000130758
0.000139032
0.000145141
0.000147467
0.000141924
0.000127524
0.000103536
8.19501e-05
8.47101e-05
0.000103329
0.000131333
0.000169423
0.000212244
0.000251159
0.000299868
0.000382952
0.000492412
0.000645044
0.000848316
0.00108524
0.00135501
0.00173982
0.00235437
2.09354e-05
1.80522e-05
1.55693e-05
1.34184e-05
1.1563e-05
9.9709e-06
8.61149e-06
7.46374e-06
6.51896e-06
6.12876e-06
6.10309e-06
5.88337e-06
5.49013e-06
5.24697e-06
5.24097e-06
5.72814e-06
5.7439e-06
5.80001e-06
6.47107e-06
7.69106e-06
1.11483e-05
1.77118e-05
2.38305e-05
2.85945e-05
3.27341e-05
3.60397e-05
3.82333e-05
4.12638e-05
4.51796e-05
5.01325e-05
5.68605e-05
6.26895e-05
6.82165e-05
7.04468e-05
7.00482e-05
6.97888e-05
6.98586e-05
6.24062e-05
5.61707e-05
6.42743e-05
8.38132e-05
9.03952e-05
8.97267e-05
8.6833e-05
8.48718e-05
8.26364e-05
7.7208e-05
6.51043e-05
5.15613e-05
6.44994e-05
5.22139e-05
5.55783e-05
9.66002e-05
0.000203785
0.00040289
0.000541585
0.000643794
0.000692303
0.000968472
0.00182509
2.09393e-05
1.80456e-05
1.5557e-05
1.34056e-05
1.15509e-05
9.96744e-06
8.62261e-06
7.48779e-06
6.54007e-06
5.87607e-06
5.45748e-06
5.08314e-06
4.70246e-06
4.45826e-06
4.34494e-06
4.30097e-06
4.13753e-06
3.98176e-06
3.97333e-06
4.25182e-06
5.51979e-06
8.86089e-06
1.33697e-05
1.76671e-05
2.13775e-05
2.4581e-05
2.71652e-05
2.96781e-05
3.28646e-05
3.63727e-05
3.98832e-05
4.23575e-05
4.41127e-05
4.54911e-05
4.56707e-05
4.56536e-05
4.6228e-05
4.81816e-05
5.09133e-05
5.48823e-05
5.77245e-05
5.7096e-05
5.42432e-05
5.10542e-05
4.80957e-05
4.53914e-05
4.4924e-05
4.43658e-05
4.38218e-05
4.39281e-05
4.35606e-05
4.33842e-05
4.4278e-05
5.88501e-05
0.000105
0.000215031
0.000323605
0.000360499
0.00039234
0.00063888
2.09701e-05
1.81685e-05
1.57767e-05
1.37092e-05
1.19075e-05
1.03701e-05
9.06017e-06
7.94134e-06
6.96955e-06
6.17752e-06
5.58939e-06
5.1345e-06
4.76162e-06
4.44403e-06
4.19255e-06
4.00376e-06
3.83599e-06
3.71223e-06
3.6188e-06
3.56821e-06
3.7659e-06
4.77479e-06
6.72029e-06
9.10938e-06
1.14932e-05
1.37164e-05
1.57228e-05
1.76443e-05
1.98338e-05
2.22175e-05
2.43899e-05
2.59619e-05
2.72406e-05
2.85767e-05
3.02336e-05
3.24409e-05
3.49981e-05
3.73906e-05
3.9456e-05
4.09774e-05
4.16559e-05
4.18094e-05
4.19525e-05
4.2359e-05
4.33252e-05
4.42285e-05
4.45291e-05
4.41425e-05
4.37824e-05
4.35695e-05
4.34057e-05
4.32789e-05
4.33573e-05
4.48591e-05
4.86576e-05
7.03611e-05
0.000111702
0.000149633
0.000177458
0.000217422
2.37183e-05
2.34108e-05
2.30936e-05
2.27649e-05
2.24212e-05
2.20121e-05
2.14709e-05
2.07427e-05
1.9744e-05
1.86582e-05
1.80594e-05
1.81348e-05
1.86321e-05
1.85215e-05
1.82619e-05
1.84843e-05
1.92546e-05
2.00583e-05
2.06874e-05
2.11913e-05
2.12503e-05
2.1101e-05
2.11205e-05
2.14387e-05
2.21024e-05
2.32322e-05
2.48451e-05
2.68638e-05
2.92547e-05
3.20087e-05
3.50507e-05
3.8365e-05
4.20457e-05
4.55704e-05
4.91619e-05
5.26332e-05
5.59235e-05
5.93616e-05
6.3059e-05
6.73134e-05
7.2506e-05
7.86483e-05
8.55631e-05
9.29595e-05
0.000100196
0.00010736
0.000114676
0.000122158
0.000129236
0.000136277
0.000143785
0.00015159
0.000158366
0.000164791
0.00017432
0.00018485
0.000196354
0.000210505
0.000225747
0.000244893
)
;

boundaryField
{
    wall
    {
        type            kqRWallFunction;
        value           nonuniform List<scalar> 
1200
(
2.37111e-05
2.09367e-05
2.09087e-05
2.09136e-05
2.09178e-05
2.09206e-05
2.09249e-05
2.09317e-05
2.09679e-05
2.37252e-05
2.33925e-05
1.81415e-05
1.80161e-05
1.80306e-05
1.80333e-05
1.80364e-05
1.80429e-05
1.80422e-05
1.81721e-05
2.34188e-05
2.30597e-05
1.57584e-05
1.55195e-05
1.55414e-05
1.55464e-05
1.55557e-05
1.55683e-05
1.55601e-05
1.57872e-05
2.3105e-05
2.27102e-05
1.37435e-05
1.33734e-05
1.33929e-05
1.33947e-05
1.34036e-05
1.34168e-05
1.34057e-05
1.37224e-05
2.27777e-05
2.23449e-05
1.20623e-05
1.15388e-05
1.1549e-05
1.15474e-05
1.15518e-05
1.15629e-05
1.15505e-05
1.19162e-05
2.24204e-05
2.19411e-05
1.06557e-05
9.94966e-06
9.94367e-06
9.9548e-06
9.96522e-06
9.97653e-06
9.96712e-06
1.03719e-05
2.19842e-05
2.14968e-05
9.57001e-06
8.60852e-06
8.56082e-06
8.57662e-06
8.58946e-06
8.60896e-06
8.61845e-06
9.05589e-06
2.14187e-05
2.11217e-05
8.56879e-06
7.46273e-06
7.36366e-06
7.38879e-06
7.42401e-06
7.45953e-06
7.48695e-06
7.93754e-06
2.069e-05
2.02897e-05
7.55093e-06
7.65327e-06
7.30764e-06
6.78234e-06
6.56112e-06
6.52443e-06
6.54086e-06
6.96906e-06
1.97117e-05
2.03043e-05
1.09635e-05
1.09544e-05
1.00329e-05
8.24158e-06
6.87944e-06
6.14214e-06
5.87606e-06
6.18012e-06
1.8659e-05
2.16995e-05
1.70557e-05
1.35549e-05
1.14859e-05
9.41545e-06
7.49294e-06
6.12142e-06
5.46236e-06
5.58982e-06
1.80778e-05
2.32949e-05
1.63078e-05
9.37387e-06
9.34988e-06
8.74478e-06
7.30839e-06
5.90222e-06
5.09014e-06
5.13124e-06
1.81426e-05
2.48716e-05
1.34336e-05
5.23475e-06
7.0102e-06
7.46984e-06
6.7439e-06
5.51559e-06
4.69896e-06
4.75545e-06
1.86173e-05
2.66117e-05
1.1846e-05
7.47894e-06
9.06884e-06
6.70859e-06
6.16461e-06
5.27431e-06
4.45446e-06
4.43582e-06
1.85218e-05
2.89331e-05
1.14516e-05
1.09517e-05
1.32753e-05
9.98842e-06
6.70789e-06
5.23893e-06
4.3255e-06
4.18432e-06
1.82288e-05
3.22512e-05
1.16901e-05
1.29649e-05
1.63392e-05
1.64494e-05
8.778e-06
5.73784e-06
4.30306e-06
3.99776e-06
1.83371e-05
3.62501e-05
1.25749e-05
1.26551e-05
1.71113e-05
1.75055e-05
8.68523e-06
5.75583e-06
4.16841e-06
3.83107e-06
1.89981e-05
3.86708e-05
1.33597e-05
9.60461e-06
1.75265e-05
1.79047e-05
9.50112e-06
5.82358e-06
4.03747e-06
3.70227e-06
1.97299e-05
4.09257e-05
1.55158e-05
1.28791e-05
2.06895e-05
1.96603e-05
1.39402e-05
6.51463e-06
4.03822e-06
3.60868e-06
2.03532e-05
4.28486e-05
1.82074e-05
1.69577e-05
3.28106e-05
2.31009e-05
1.82555e-05
7.78434e-06
4.3137e-06
3.56696e-06
2.08412e-05
4.49609e-05
2.16964e-05
2.95774e-05
3.97771e-05
3.16655e-05
2.27097e-05
1.12058e-05
5.54768e-06
3.76672e-06
2.09431e-05
4.54402e-05
2.53866e-05
3.8733e-05
4.44053e-05
3.97633e-05
2.98814e-05
1.77492e-05
8.84579e-06
4.74948e-06
2.09282e-05
4.54426e-05
2.88396e-05
4.38434e-05
4.81058e-05
4.36695e-05
3.53969e-05
2.38943e-05
1.33517e-05
6.67289e-06
2.10832e-05
4.58141e-05
3.19195e-05
4.71728e-05
5.83384e-05
4.62174e-05
3.90797e-05
2.86588e-05
1.76574e-05
9.04715e-06
2.1569e-05
4.71333e-05
3.66805e-05
5.77621e-05
6.94076e-05
5.20477e-05
4.39907e-05
3.28052e-05
2.13607e-05
1.14022e-05
2.24606e-05
4.91391e-05
4.24473e-05
6.85427e-05
8.0992e-05
6.02271e-05
4.46193e-05
3.60177e-05
2.45293e-05
1.3591e-05
2.37219e-05
5.11999e-05
4.58784e-05
7.99949e-05
9.31709e-05
6.92316e-05
4.74889e-05
3.82463e-05
2.71381e-05
1.5627e-05
2.52877e-05
5.32392e-05
5.07053e-05
9.21772e-05
0.000106171
8.03427e-05
4.78459e-05
4.12595e-05
2.97557e-05
1.76582e-05
2.71422e-05
5.54559e-05
5.42615e-05
0.000105243
0.000120568
9.32994e-05
6.00958e-05
4.55337e-05
3.29848e-05
1.99147e-05
2.93886e-05
5.82502e-05
5.24707e-05
0.000119263
0.000135933
0.000107132
7.52453e-05
5.0392e-05
3.65303e-05
2.23248e-05
3.20709e-05
6.13709e-05
4.82974e-05
0.000133803
0.000151862
0.00012046
8.50503e-05
5.68514e-05
4.00985e-05
2.4507e-05
3.51401e-05
6.47354e-05
5.16828e-05
0.000147924
0.000167797
0.000132973
9.25282e-05
6.25256e-05
4.27254e-05
2.61076e-05
3.85258e-05
6.8788e-05
6.55801e-05
0.000162675
0.000183411
0.000144262
9.7818e-05
6.68362e-05
4.44742e-05
2.73304e-05
4.22786e-05
7.51593e-05
8.39837e-05
0.000177311
0.000198255
0.000154969
0.000102048
6.78204e-05
4.56445e-05
2.85148e-05
4.57805e-05
8.3998e-05
9.96e-05
0.000189307
0.000212241
0.000165996
0.000106431
6.64255e-05
4.56748e-05
2.9961e-05
4.95591e-05
9.24101e-05
0.000107137
0.000198829
0.000226329
0.000177292
0.000114183
6.53288e-05
4.55351e-05
3.19799e-05
5.32323e-05
9.90444e-05
0.000106277
0.000207687
0.000241083
0.000189059
0.000123556
6.47246e-05
4.54119e-05
3.44124e-05
5.66875e-05
0.000105347
0.000108702
0.000216933
0.000256413
0.000199702
0.000133067
6.2929e-05
4.69841e-05
3.6836e-05
6.00997e-05
0.000112323
0.000116366
0.000226931
0.000272019
0.000207903
0.000142049
5.67937e-05
4.92476e-05
3.90113e-05
6.36499e-05
0.000119932
0.000120759
0.000237481
0.000288361
0.000212813
0.000149079
7.28953e-05
5.39168e-05
4.09023e-05
6.75062e-05
0.000128051
0.000115848
0.000248916
0.000305309
0.000211818
0.000151568
9.06764e-05
5.78163e-05
4.18705e-05
7.23608e-05
0.00013599
0.000122146
0.000261269
0.000322042
0.000200685
0.000146522
9.39826e-05
5.76562e-05
4.20121e-05
7.8361e-05
0.000141252
0.000121671
0.000273258
0.000338754
0.000178221
0.000132945
9.20065e-05
5.48633e-05
4.19663e-05
8.53218e-05
0.000143892
0.000108122
0.000286218
0.000355477
0.000151092
0.000109027
8.88419e-05
5.13306e-05
4.2156e-05
9.29326e-05
0.000145991
8.98008e-05
0.000301567
0.00037215
0.000141053
8.48221e-05
8.7062e-05
4.81821e-05
4.30063e-05
0.000100467
0.000149151
7.67597e-05
0.000322199
0.0003882
0.000159365
8.50365e-05
8.50376e-05
4.54099e-05
4.40075e-05
0.000107824
0.000152567
7.48564e-05
0.000350584
0.000401025
0.000184618
0.00010414
7.98194e-05
4.49151e-05
4.45563e-05
0.000115216
0.000160826
0.000120556
0.000381677
0.000413032
0.00021988
0.000130665
6.72808e-05
4.4351e-05
4.42855e-05
0.00012276
0.000172958
0.000108072
0.000415761
0.000426067
0.000266646
0.000167163
4.84518e-05
4.37714e-05
4.38018e-05
0.000129936
0.000186602
9.05986e-05
0.000458212
0.000447054
0.000319724
0.00020887
5.92935e-05
4.35909e-05
4.35246e-05
0.000136938
0.000196443
0.000108987
0.000516239
0.000500699
0.000367793
0.000249166
5.84064e-05
4.32533e-05
4.3328e-05
0.000144541
0.000203169
0.000189594
0.000592918
0.000577842
0.000429616
0.000300303
5.72127e-05
4.29886e-05
4.32792e-05
0.000152555
0.000211952
0.000276086
0.000676033
0.000668424
0.000531384
0.000384034
9.74404e-05
4.37576e-05
4.32333e-05
0.000159639
0.000230149
0.000369186
0.000770857
0.00078624
0.000667594
0.000494705
0.000201257
5.84971e-05
4.46293e-05
0.000165303
0.000245758
0.000300269
0.000886956
0.000934929
0.00083952
0.00064998
0.000400605
0.000105908
4.86784e-05
0.000173671
0.000265849
0.000336015
0.00103686
0.00111335
0.00105053
0.000854548
0.000539703
0.000212913
6.97255e-05
0.000184063
0.000288224
0.000619737
0.00126004
0.00134177
0.00130473
0.00109167
0.000644059
0.000320581
0.000109373
0.000195905
0.000345661
0.000937275
0.00154706
0.00163417
0.00161037
0.001367
0.000697011
0.000359584
0.000147154
0.000210209
0.000384293
0.00114948
0.00186992
0.00200696
0.00198898
0.00176621
0.000979897
0.000392038
0.000175655
0.000225468
0.000490397
0.00112408
0.0024012
0.00248879
0.00247374
0.00238124
0.00179607
0.000640977
0.000217255
0.000244611
2.36922e-05
2.09433e-05
2.09171e-05
2.09196e-05
2.09229e-05
2.0929e-05
2.09354e-05
2.09393e-05
2.09701e-05
2.37183e-05
2.33853e-05
1.81485e-05
1.80201e-05
1.80325e-05
1.8037e-05
1.80451e-05
1.80522e-05
1.80456e-05
1.81685e-05
2.34108e-05
2.30505e-05
1.57623e-05
1.55219e-05
1.55473e-05
1.55524e-05
1.55603e-05
1.55693e-05
1.5557e-05
1.57767e-05
2.30936e-05
2.27107e-05
1.37479e-05
1.33717e-05
1.33939e-05
1.3397e-05
1.34058e-05
1.34184e-05
1.34056e-05
1.37092e-05
2.27649e-05
2.2368e-05
1.20785e-05
1.15344e-05
1.15431e-05
1.15443e-05
1.15504e-05
1.1563e-05
1.15509e-05
1.19075e-05
2.24212e-05
2.1957e-05
1.06739e-05
9.95826e-06
9.94986e-06
9.95483e-06
9.95841e-06
9.9709e-06
9.96744e-06
1.03701e-05
2.20121e-05
2.15179e-05
9.56385e-06
8.61123e-06
8.56212e-06
8.57204e-06
8.58303e-06
8.61149e-06
8.62261e-06
9.06017e-06
2.14709e-05
2.11279e-05
8.58613e-06
7.46742e-06
7.36537e-06
7.38907e-06
7.42059e-06
7.46374e-06
7.48779e-06
7.94134e-06
2.07427e-05
2.0283e-05
7.54348e-06
7.59437e-06
7.25811e-06
6.75891e-06
6.55179e-06
6.51896e-06
6.54007e-06
6.96955e-06
1.9744e-05
2.02856e-05
1.08772e-05
1.08533e-05
9.94498e-06
8.17922e-06
6.84429e-06
6.12876e-06
5.87607e-06
6.17752e-06
1.86582e-05
2.16845e-05
1.69708e-05
1.35079e-05
1.14456e-05
9.37361e-06
7.45902e-06
6.10309e-06
5.45748e-06
5.58939e-06
1.80594e-05
2.3285e-05
1.62562e-05
9.41426e-06
9.35358e-06
8.72713e-06
7.28504e-06
5.88337e-06
5.08314e-06
5.1345e-06
1.81348e-05
2.48364e-05
1.34135e-05
5.16756e-06
7.02371e-06
7.47462e-06
6.72661e-06
5.49013e-06
4.70246e-06
4.76162e-06
1.86321e-05
2.6598e-05
1.1773e-05
7.49331e-06
9.14476e-06
6.75999e-06
6.15793e-06
5.24697e-06
4.45826e-06
4.44403e-06
1.85215e-05
2.88603e-05
1.13869e-05
1.09966e-05
1.33412e-05
1.0069e-05
6.75655e-06
5.24097e-06
4.34494e-06
4.19255e-06
1.82619e-05
3.2149e-05
1.16341e-05
1.30174e-05
1.63781e-05
1.65124e-05
8.78957e-06
5.72814e-06
4.30097e-06
4.00376e-06
1.84843e-05
3.61829e-05
1.25598e-05
1.27227e-05
1.71548e-05
1.7551e-05
8.65823e-06
5.7439e-06
4.13753e-06
3.83599e-06
1.92546e-05
3.86627e-05
1.32897e-05
9.41598e-06
1.75636e-05
1.79419e-05
9.52248e-06
5.80001e-06
3.98176e-06
3.71223e-06
2.00583e-05
4.08878e-05
1.54508e-05
1.28052e-05
2.05634e-05
1.96856e-05
1.40272e-05
6.47107e-06
3.97333e-06
3.6188e-06
2.06874e-05
4.28352e-05
1.81437e-05
1.68823e-05
3.31038e-05
2.30293e-05
1.82897e-05
7.69106e-06
4.25182e-06
3.56821e-06
2.11913e-05
4.49653e-05
2.16674e-05
2.95181e-05
4.00409e-05
3.14433e-05
2.26396e-05
1.11483e-05
5.51979e-06
3.7659e-06
2.12503e-05
4.53567e-05
2.53942e-05
3.86932e-05
4.46498e-05
3.96672e-05
2.9756e-05
1.77118e-05
8.86089e-06
4.77479e-06
2.1101e-05
4.54209e-05
2.88753e-05
4.37738e-05
4.83722e-05
4.38557e-05
3.52914e-05
2.38305e-05
1.33697e-05
6.72029e-06
2.11205e-05
4.58182e-05
3.19641e-05
4.69906e-05
5.85982e-05
4.70498e-05
3.90029e-05
2.85945e-05
1.76671e-05
9.10938e-06
2.14387e-05
4.71444e-05
3.67549e-05
5.75547e-05
6.96244e-05
5.1885e-05
4.38602e-05
3.27341e-05
2.13775e-05
1.14932e-05
2.21024e-05
4.91647e-05
4.2577e-05
6.83905e-05
8.1147e-05
5.99189e-05
4.51489e-05
3.60397e-05
2.4581e-05
1.37164e-05
2.32322e-05
5.12465e-05
4.60929e-05
8.00593e-05
9.31475e-05
6.84656e-05
4.58574e-05
3.82333e-05
2.71652e-05
1.57228e-05
2.48451e-05
5.33952e-05
5.39107e-05
9.25095e-05
0.000105655
7.93058e-05
4.43532e-05
4.12638e-05
2.96781e-05
1.76443e-05
2.68638e-05
5.56318e-05
6.02658e-05
0.000105465
0.000120061
9.21693e-05
4.93857e-05
4.51796e-05
3.28646e-05
1.98338e-05
2.92547e-05
5.83195e-05
5.89128e-05
0.000118996
0.000135677
0.000106511
7.18592e-05
5.01325e-05
3.63727e-05
2.22175e-05
3.20087e-05
6.12839e-05
4.94336e-05
0.000132677
0.000151286
0.000120444
8.52479e-05
5.68605e-05
3.98832e-05
2.43899e-05
3.50507e-05
6.47092e-05
4.99199e-05
0.00014578
0.000166631
0.000133234
9.36515e-05
6.26895e-05
4.23575e-05
2.59619e-05
3.8365e-05
6.8886e-05
6.24349e-05
0.000159792
0.000181746
0.000144655
9.96241e-05
6.82165e-05
4.41127e-05
2.72406e-05
4.20457e-05
7.46732e-05
8.00216e-05
0.000173978
0.000196289
0.000155235
0.000104079
7.04468e-05
4.54911e-05
2.85767e-05
4.55704e-05
8.29032e-05
9.53498e-05
0.000185924
0.000210255
0.00016567
0.000108131
7.00482e-05
4.56707e-05
3.02336e-05
4.91619e-05
9.15836e-05
0.000102869
0.00019589
0.000224481
0.000176156
0.000114465
6.97888e-05
4.56536e-05
3.24409e-05
5.26332e-05
9.89166e-05
0.000104054
0.000204912
0.000239279
0.000186963
0.000122376
6.98586e-05
4.6228e-05
3.49981e-05
5.59235e-05
0.000105848
0.000107679
0.000214255
0.000254335
0.000196682
0.000130758
6.24062e-05
4.81816e-05
3.73906e-05
5.93616e-05
0.000113354
0.000117081
0.000224501
0.000269415
0.000203905
0.000139032
5.61707e-05
5.09133e-05
3.9456e-05
6.3059e-05
0.00012147
0.000126034
0.000235349
0.000285162
0.000207023
0.000145141
6.42743e-05
5.48823e-05
4.09774e-05
6.73134e-05
0.00012915
0.000124873
0.000246581
0.000301871
0.000204253
0.000147467
8.38132e-05
5.77245e-05
4.16559e-05
7.2506e-05
0.000135232
0.00013058
0.000258165
0.000318544
0.000191196
0.000141924
9.03952e-05
5.7096e-05
4.18094e-05
7.86483e-05
0.00013861
0.000127408
0.00026953
0.000335199
0.00016798
0.000127524
8.97267e-05
5.42432e-05
4.19525e-05
8.55631e-05
0.000140694
0.000106191
0.000282502
0.000351534
0.000144111
0.000103536
8.6833e-05
5.10542e-05
4.2359e-05
9.29595e-05
0.00014348
8.66262e-05
0.00029828
0.000367323
0.000138575
8.19501e-05
8.48718e-05
4.80957e-05
4.33252e-05
0.000100196
0.000147649
7.56418e-05
0.000319123
0.000381879
0.000154149
8.47101e-05
8.26364e-05
4.53914e-05
4.42285e-05
0.00010736
0.000152361
7.80211e-05
0.000347682
0.000393066
0.000179902
0.000103329
7.7208e-05
4.4924e-05
4.45291e-05
0.000114676
0.000162056
0.000135726
0.000378682
0.00040349
0.000217237
0.000131333
6.51043e-05
4.43658e-05
4.41425e-05
0.000122158
0.000175177
0.000100426
0.000412675
0.000417676
0.000265256
0.000169423
5.15613e-05
4.38218e-05
4.37824e-05
0.000129236
0.000188625
9.08554e-05
0.000455542
0.000443971
0.000317484
0.000212244
6.44994e-05
4.39281e-05
4.35695e-05
0.000136277
0.000196993
0.000110688
0.000511158
0.000500426
0.000364481
0.000251159
5.22139e-05
4.35606e-05
4.34057e-05
0.000143785
0.000203028
0.000187104
0.000586998
0.000574652
0.000424299
0.000299868
5.55783e-05
4.33842e-05
4.32789e-05
0.00015159
0.000212343
0.000270863
0.000670301
0.000664579
0.000526302
0.000382952
9.66002e-05
4.4278e-05
4.33573e-05
0.000158366
0.000231266
0.000360034
0.000766555
0.000783332
0.000662194
0.000492412
0.000203785
5.88501e-05
4.48591e-05
0.000164791
0.000247397
0.000298488
0.000883347
0.000932732
0.000832751
0.000645044
0.00040289
0.000105
4.86576e-05
0.00017432
0.000267969
0.000335398
0.00103478
0.00111128
0.001043
0.000848316
0.000541585
0.000215031
7.03611e-05
0.00018485
0.000290762
0.00061625
0.00125449
0.00134069
0.00129836
0.00108524
0.000643794
0.000323605
0.000111702
0.000196354
0.00036057
0.000931417
0.00153206
0.00163423
0.00160631
0.00135501
0.000692303
0.000360499
0.000149633
0.000210505
0.000392389
0.00114058
0.00184679
0.00200706
0.00198671
0.00173982
0.000968472
0.00039234
0.000177458
0.000225747
0.000473296
0.00116159
0.00238876
0.0024853
0.00247063
0.00235437
0.00182509
0.00063888
0.000217422
0.000244893
)
;
    }
    inlet
    {
        type            turbulentIntensityKineticEnergyInlet;
        intensity       0.05;
        value           uniform 2.4e-05;
    }
    outlet
    {
        type            inletOutlet;
        inletValue      uniform 0.003;
        value           nonuniform List<scalar> 
20
(
0.000490397
0.003
0.003
0.003
0.003
0.003
0.003
0.000640977
0.000217255
0.000244611
0.000473296
0.003
0.003
0.003
0.003
0.003
0.003
0.00063888
0.000217422
0.000244893
)
;
    }
    heatWall
    {
        type            kqRWallFunction;
        value           nonuniform List<scalar> 
240
(
2.37252e-05
2.37183e-05
2.34188e-05
2.34108e-05
2.3105e-05
2.30936e-05
2.27777e-05