/*--------------------------------*- C++ -*----------------------------------*\
  =========                 |
  \\      /  F ield         | OpenFOAM: The Open Source CFD Toolbox
   \\    /   O peration     | Website:  https://openfoam.org
    \\  /    A nd           | Version:  8
     \\/     M anipulation  |
\*---------------------------------------------------------------------------*/
FoamFile
{
    version     2.0;
    format      ascii;
    class       volScalarField;
    location    "1000";
    object      alphat;
}
// * * * * * * * * * * * * * * * * * * * * * * * * * * * * * * * * * * * * * //

dimensions      [1 -1 -1 0 0 0 0];

internalField   nonuniform List<scalar> 
8400
(
0.108421
0.109388
0.11033
0.110886
0.111208
0.111491
0.11189
0.112548
0.113585
0.114741
0.114871
0.113157
0.11045
0.108261
0.106846
0.105689
0.104615
0.103576
0.102546
0.101503
0.100433
0.0993207
0.0981522
0.0969173
0.0956092
0.0951303
0.0952951
0.096234
0.0980608
0.100777
0.104222
0.107991
0.111322
0.113284
0.113495
0.112439
0.110855
0.109251
0.108024
0.10747
0.107694
0.108884
0.110838
0.113433
0.117213
0.122483
0.127932
0.132319
0.135152
0.135351
0.0616509
0.062112
0.0627486
0.0634815
0.0641602
0.0648638
0.0656424
0.0665759
0.0678693
0.0698265
0.0720659
0.0731209
0.072678
0.0718434
0.07014
0.0683717
0.0665987
0.0648392
0.0631258
0.0615083
0.060053
0.0588701
0.0581295
0.0580689
0.058992
0.059148
0.0592992
0.059483
0.0597351
0.0601187
0.0607326
0.0617069
0.0630546
0.0643093
0.0648174
0.0646742
0.0643627
0.0640739
0.06394
0.0641014
0.0645769
0.0656407
0.067312
0.0694737
0.0725803
0.0775643
0.0829557
0.0869803
0.0894401
0.0916307
0.0607059
0.0569527
0.049701
0.0540098
0.0571955
0.058559
0.058724
0.0584335
0.0587803
0.0605524
0.0623598
0.0636018
0.064186
0.0630788
0.0619672
0.0609094
0.0599281
0.0590818
0.0584267
0.0580038
0.0578292
0.0579018
0.0581914
0.0585744
0.0587331
0.0588673
0.0589566
0.0589719
0.0588989
0.0586647
0.0580578
0.0568394
0.0554412
0.0549947
0.055561
0.0558307
0.0560345
0.0562744
0.0565168
0.0566237
0.0569208
0.0568557
0.0565355
0.0563888
0.0563667
0.0581864
0.0627542
0.0661537
0.067701
0.0693223
0.0611813
0.06112
0.0610564
0.0609931
0.0609318
0.0608736
0.0608159
0.0607566
0.060694
0.0606369
0.0605804
0.0605546
0.0605354
0.0605344
0.0605247
0.0604803
0.0603917
0.0602597
0.0600941
0.0599107
0.0597345
0.0596008
0.0595121
0.0594102
0.0594757
0.0595084
0.0594892
0.0594435
0.0593843
0.0593103
0.059217
0.0590968
0.0589404
0.058783
0.0583138
0.057827
0.0575735
0.0576898
0.0577652
0.0565436
0.0577474
0.058611
0.0581406
0.057764
0.0568623
0.0504358
0.0523967
0.0541361
0.0560594
0.0568942
0.0612092
0.061181
0.0611527
0.0611245
0.0610962
0.061068
0.0610398
0.0610106
0.0609809
0.0609461
0.06091
0.060871
0.0608276
0.0607812
0.0607327
0.0606818
0.0606273
0.0605677
0.0605028
0.0604337
0.060364
0.0602999
0.0602489
0.0601836
0.0600985
0.0600123
0.0599276
0.0598454
0.0597653
0.0596862
0.0596069
0.0595252
0.0594394
0.0593391
0.0592115
0.0590627
0.0589165
0.0587576
0.0585339
0.0584884
0.0584706
0.0585158
0.0588168
0.0602035
0.0726652
0.0544166
0.0473679
0.0479528
0.0496904
0.0498877
0.0611941
0.0611493
0.0611047
0.0610592
0.0610139
0.0609665
0.0609193
0.0608733
0.0608298
0.0607882
0.0607496
0.0607135
0.060679
0.0606449
0.0606107
0.0605751
0.0605373
0.0604968
0.0604536
0.0604073
0.0603582
0.0603077
0.0602573
0.0602067
0.0601444
0.0600799
0.0600136
0.059946
0.0598775
0.0598086
0.05974
0.0596715
0.0596029
0.0595271
0.0594435
0.0593513
0.0592519
0.0591443
0.0590344
0.0589526
0.0589122
0.0589407
0.0591642
0.0599093
0.061636
0.0584068
0.0656434
0.0537412
0.0463744
0.0459562
0.0611968
0.0611546
0.0611116
0.0610678
0.0610234
0.0609785
0.0609329
0.0608865
0.0608392
0.0607914
0.0607435
0.0606954
0.0606475
0.0606007
0.0605558
0.0605119
0.0604692
0.0604268
0.0603836
0.0603394
0.0602938
0.0602466
0.0601967
0.0601445
0.0600896
0.0600329
0.0599708
0.0599059
0.059839
0.0597712
0.0597052
0.0596382
0.059569
0.0594986
0.0594265
0.0593503
0.0592697
0.059186
0.0591025
0.05903
0.0589893
0.0590252
0.0592436
0.0598007
0.0606562
0.0604349
0.063099
0.0625683
0.0483245
0.0438756
0.0611913
0.0611438
0.061095
0.0610458
0.060997
0.0609477
0.0608974
0.0608469
0.0607965
0.0607461
0.060695
0.060644
0.0605934
0.0605431
0.0604932
0.0604446
0.0603966
0.0603496
0.0603027
0.0602548
0.0602062
0.0601559
0.0601033
0.0600475
0.0599874
0.0599231
0.0598588
0.0597919
0.0597217
0.0596474
0.0595671
0.0594874
0.0594124
0.0593422
0.0592742
0.059207
0.0591407
0.0590737
0.059008
0.058955
0.0589416
0.059017
0.0592733
0.0598007
0.060529
0.0610581
0.0626148
0.0623806
0.0530183
0.0430523
0.0611828
0.061125
0.061067
0.0610093
0.0609504
0.0608925
0.0608344
0.060777
0.0607189
0.0606611
0.0606035
0.0605476
0.0604919
0.0604378
0.0603849
0.060333
0.0602823
0.0602316
0.0601814
0.060131
0.0600784
0.0600239
0.0599668
0.0599052
0.059839
0.0597679
0.0596918
0.0596113
0.0595281
0.0594439
0.0593609
0.0592807
0.0592043
0.0591338
0.0590687
0.0590076
0.058949
0.058893
0.0588455
0.0588185
0.0588433
0.0589764
0.0592957
0.0598527
0.0605774
0.061301
0.0622867
0.0613817
0.0539932
0.0441911
0.0611676
0.061092
0.0610162
0.0609422
0.0608692
0.0607968
0.060725
0.0606547
0.0605857
0.0605184
0.0604534
0.0603894
0.0603292
0.060271
0.060214
0.0601596
0.0601064
0.0600534
0.0600006
0.059947
0.0598919
0.059834
0.0597713
0.0597036
0.059631
0.0595528
0.0594687
0.0593798
0.0592879
0.0591953
0.0591054
0.0590224
0.0589463
0.0588783
0.0588174
0.0587641
0.0587169
0.0586762
0.0586479
0.0586532
0.0587289
0.0589322
0.0593286
0.0599315
0.0606531
0.061348
0.0618115
0.0601449
0.0534273
0.0446897
0.0611377
0.0610255
0.0609186
0.0608149
0.0607168
0.0606231
0.0605308
0.0604421
0.0603608
0.0602837
0.0602091
0.0601409
0.0600744
0.0600131
0.0599561
0.0599007
0.0598486
0.0597977
0.0597456
0.0596919
0.0596348
0.0595728
0.0595063
0.0594336
0.0593526
0.0592649
0.0591711
0.0590703
0.0589675
0.0588691
0.0587771
0.0586956
0.0586249
0.0585654
0.0585171
0.0584797
0.0584493
0.0584298
0.0584333
0.0584821
0.0586218
0.058906
0.0593797
0.0600157
0.0606881
0.061203
0.061086
0.0586681
0.0522775
0.0445383
0.0610666
0.0608729
0.0607073
0.0605559
0.0604193
0.0603008
0.0601873
0.0600907
0.0599959
0.0599136
0.0598367
0.0597654
0.0597036
0.059646
0.0595954
0.0595506
0.059506
0.0594602
0.0594127
0.0593631
0.0593059
0.05924
0.0591688
0.0590876
0.0589936
0.0588922
0.058784
0.0586693
0.0585571
0.0584529
0.0583585
0.0582902
0.0582439
0.0582081
0.0581835
0.0581704
0.0581682
0.0581755
0.0582202
0.0583259
0.0585377
0.0589064
0.0594436
0.0600684
0.0606118
0.0608134
0.0600474
0.0569459
0.0508376
0.0440751
0.0605942
0.0603328
0.0601511
0.0599962
0.0598636
0.0597462
0.0596447
0.0595449
0.0594662
0.0593905
0.0593323
0.0592876
0.0592493
0.0592104
0.0591726
0.059141
0.0591104
0.0590735
0.0590278
0.0589721
0.0589085
0.0588319
0.0587372
0.0586319
0.058515
0.0583824
0.0582518
0.0581377
0.0580404
0.0579661
0.0579104
0.0578771
0.0578587
0.0578556
0.0578664
0.0578795
0.0579084
0.0579651
0.0580646
0.058232
0.0585018
0.0588915
0.0593888
0.0599127
0.0603957
0.0601047
0.0586496
0.0550104
0.0492734
0.0434365
0.0594287
0.0592242
0.0590846
0.058977
0.0589016
0.0588449
0.0588063
0.0587816
0.0587672
0.0587577
0.0587529
0.0587512
0.0587475
0.0587379
0.0587232
0.0587019
0.0586714
0.0586301
0.0585753
0.0585074
0.0584272
0.0583309
0.0582228
0.0581105
0.0579945
0.0578808
0.0577798
0.057696
0.0576319
0.0575904
0.0575649
0.0575576
0.0575644
0.0575797
0.0576043
0.0576413
0.0576948
0.0577756
0.0578954
0.0580671
0.0583043
0.0586035
0.0589397
0.0592411
0.0594676
0.0592703
0.05688
0.0529246
0.0476888
0.0427208
0.0580854
0.0580067
0.0579657
0.0579527
0.0579604
0.0579833
0.0580155
0.0580541
0.058094
0.0581321
0.058166
0.0581934
0.0582115
0.0582195
0.0582168
0.0582011
0.0581715
0.0581284
0.0580724
0.0580039
0.0579234
0.0578334
0.0577396
0.0576453
0.0575542
0.0574727
0.0574036
0.0573479
0.057306
0.0572771
0.0572561
0.0572423
0.0572347
0.057231
0.0572319
0.0572392
0.0572582
0.0572928
0.0573503
0.0574379
0.0575536
0.0576884
0.0578143
0.0578486
0.0577358
0.057626
0.0550612
0.0507824
0.0461484
0.0419772
0.0572661
0.057274
0.0572966
0.0573294
0.0573696
0.0574148
0.0574621
0.0575089
0.0575541
0.0575958
0.0576315
0.0576606
0.0576814
0.0576911
0.0576893
0.0576757
0.0576498
0.0576122
0.0575633
0.0575042
0.0574373
0.0573642
0.0572868
0.0572078
0.0571295
0.0570525
0.0569771
0.0569026
0.0568282
0.0567525
0.0566735
0.056591
0.0565056
0.056416
0.0563268
0.0562389
0.0561557
0.0560844
0.0560267
0.0559878
0.0559649
0.0559451
0.0558903
0.0557176
0.0553661
0.055198
0.0531137
0.0486429
0.0446615
0.0412002
0.0569268
0.0569507
0.056978
0.0570065
0.0570364
0.0570658
0.0570951
0.0571227
0.0571479
0.0571704
0.0571882
0.0572
0.057205
0.0572019
0.0571893
0.0571666
0.0571329
0.0570871
0.0570286
0.0569584
0.0568768
0.0567832
0.056677
0.0565591
0.0564299
0.0562881
0.0561327
0.0559641
0.0557825
0.0555889
0.0553841
0.0551699
0.054949
0.054725
0.0545001
0.054281
0.054072
0.0538814
0.0537154
0.0535772
0.0534607
0.0533519
0.0532034
0.0529435
0.0525241
0.0524358
0.0508993
0.0465276
0.0431741
0.0403103
0.0567156
0.0567229
0.0567295
0.0567347
0.0567381
0.0567401
0.0567397
0.0567363
0.0567293
0.0567179
0.0567012
0.0566775
0.0566455
0.0566038
0.0565508
0.0564845
0.0564029
0.056305
0.0561894
0.0560541
0.0558973
0.0557179
0.0555151
0.0552882
0.0550365
0.054761
0.0544626
0.0541436
0.0538053
0.0534508
0.0530844
0.0527122
0.0523378
0.0519686
0.051611
0.051273
0.0509646
0.0506937
0.0504691
0.0502951
0.0501621
0.0500495
0.0499153
0.0497015
0.0493801
0.0496469
0.048325
0.0444031
0.0415987
0.0392195
0.0563544
0.0563224
0.0562872
0.0562479
0.0562055
0.0561585
0.0561071
0.0560501
0.0559863
0.0559144
0.055833
0.0557407
0.0556354
0.055515
0.0553774
0.0552205
0.055042
0.0548395
0.0546104
0.0543529
0.054066
0.0537482
0.0533994
0.0530199
0.0526102
0.0521729
0.0517111
0.0512281
0.0507287
0.0502191
0.0497056
0.0491957
0.0486983
0.0482234
0.0477813
0.0473808
0.0470343
0.0467508
0.0465386
0.0463985
0.0463214
0.046283
0.0462466
0.0461665
0.0460667
0.0468487
0.0453205
0.0421794
0.0398939
0.0379632
0.0793048
0.0785111
0.077692
0.0768416
0.0759629
0.0750609
0.0741412
0.0732093
0.0722716
0.071333
0.0703969
0.0694663
0.0685423
0.0676248
0.0667126
0.0658037
0.064895
0.0639825
0.0630625
0.0621315
0.0611859
0.0602226
0.0592401
0.0582378
0.0572163
0.0561778
0.0551263
0.0540676
0.0530083
0.0519574
0.0509257
0.0499252
0.04897
0.0480747
0.0472542
0.0465193
0.0458778
0.0453315
0.0448779
0.0445079
0.0442071
0.0439552
0.0437338
0.0435239
0.0433703
0.0437817
0.0417304
0.0395902
0.0381893
0.0371723
0.00545334
0.0054295
0.0054029
0.00537643
0.00535193
0.00532954
0.00530949
0.00529156
0.00527526
0.00525994
0.0052449
0.00522944
0.00521296
0.005195
0.00517533
0.00515392
0.00513099
0.00510694
0.00508225
0.00505748
0.00503321
0.00502344
0.0049759
0.00494842
0.00492173
0.00489761
0.00487628
0.00485722
0.00483967
0.00482277
0.00480578
0.00479046
0.00477362
0.0047542
0.00473214
0.00470773
0.00468151
0.00465413
0.00462594
0.00459783
0.00457134
0.00454788
0.00452856
0.00451396
0.00450404
0.0044981
0.00449478
0.00449251
0.00449062
0.00448844
0.00538503
0.00526208
0.00513965
0.00502162
0.00491119
0.00480954
0.00471613
0.00462992
0.00454966
0.00447401
0.00440164
0.00433136
0.00426213
0.0041933
0.00412463
0.00405631
0.00398887
0.00392316
0.00386019
0.00379924
0.00374495
0.0158913
0.0159014
0.0158825
0.015897
0.015922
0.0159433
0.0159532
0.0159481
0.015926
0.0158861
0.0158138
0.0157279
0.0156408
0.0155577
0.0154796
0.0154052
0.0153343
0.0152701
0.0152155
0.0151723
0.0151429
0.0151292
0.0151314
0.0151478
0.0151728
0.0151967
0.0152051
0.0151805
0.0151146
0.00538459
0.00526113
0.00513806
0.00501906
0.00490641
0.00480079
0.00470213
0.00460979
0.00452286
0.0044403
0.00436102
0.00428402
0.00420849
0.00413387
0.00405994
0.00398674
0.00391464
0.00384418
0.00377512
0.00363836
0.0154116
0.0153903
0.0153377
0.0152672
0.0151916
0.0151165
0.0150435
0.0149719
0.0148995
0.0148241
0.0147432
0.0146546
0.0145582
0.0144546
0.0143445
0.0142294
0.0141108
0.0139914
0.0138748
0.0137656
0.0136676
0.0135842
0.0135173
0.0134676
0.0134336
0.0134123
0.0133985
0.0133834
0.013352
0.0132824
0.00538473
0.00526286
0.00514159
0.00502413
0.0049126
0.0048076
0.00470905
0.00461645
0.00452899
0.00444575
0.00436573
0.00428802
0.00421187
0.00413678
0.00406252
0.00398913
0.00391689
0.00384627
0.00377801
0.0159147
0.0157616
0.0156005
0.01545
0.0153156
0.0151972
0.0150922
0.0149971
0.0149079
0.0148209
0.0147326
0.0146399
0.0145408
0.0144337
0.0143179
0.0141938
0.0140623
0.0139254
0.0137863
0.0136489
0.0135179
0.0133977
0.013292
0.0132032
0.0131317
0.0130757
0.0130313
0.0129936
0.0129585
0.0129205
0.0128614
0.00538495
0.00526405
0.00514363
0.00502661
0.00491511
0.00480977
0.0047106
0.00461717
0.0045288
0.00444465
0.00436382
0.00428546
0.00420887
0.00413357
0.00405933
0.00398617
0.00391433
0.00384421
0.00377546
0.00363849
0.0154129
0.0153934
0.0153336
0.0152535
0.0151658
0.015077
0.0149896
0.0149035
0.014817
0.014728
0.0146342
0.0145337
0.0144252
0.0143078
0.0141816
0.0140475
0.0139075
0.0137646
0.013623
0.0134874
0.0133622
0.0132515
0.0131579
0.0130824
0.0130233
0.0129761
0.0129333
0.012888
0.0128382
0.0127746
0.00538527
0.00526558
0.00514634
0.00503011
0.00491895
0.00481354
0.00471396
0.00461988
0.00453072
0.00444573
0.00436414
0.00428519
0.00420823
0.00413281
0.0040587
0.00398589
0.00391455
0.003845
0.0037768
0.00363837
0.0154166
0.015399
0.0153418
0.0152638
0.0151773
0.0150889
0.015001
0.014914
0.0148264
0.0147363
0.0146416
0.0145405
0.0144313
0.0143133
0.0141863
0.014051
0.0139094
0.0137646
0.013621
0.0134831
0.0133557
0.0132425
0.0131463
0.0130682
0.0130076
0.012961
0.0129211
0.0128781
0.0128267
0.0127609
0.00538569
0.00526735
0.00514938
0.0050339
0.0049229
0.00481712
0.00471673
0.00462154
0.00453113
0.00444489
0.00436217
0.00428232
0.00420478
0.00412911
0.00405508
0.00398262
0.00391182
0.00384291
0.00377533
0.00363745
0.015409
0.0153933
0.0153374
0.0152605
0.0151746
0.0150864
0.0149989
0.0149123
0.0148256
0.0147368
0.0146438
0.0145446
0.0144374
0.0143211
0.0141952
0.0140605
0.0139187
0.0137731
0.0136282
0.0134887
0.0133594
0.0132443
0.0131459
0.0130652
0.0130013
0.0129516
0.0129106
0.012869
0.0128188
0.0127537
0.0053862
0.00526938
0.00515278
0.00503812
0.00492732
0.00482115
0.00471992
0.00462358
0.00453187
0.00444436
0.00436052
0.00427982
0.00420178
0.00412598
0.00405218
0.00398023
0.00391012
0.00384197
0.00377508
0.00363772
0.0154094
0.0153946
0.0153392
0.0152621
0.0151757
0.0150869
0.0149988
0.0149121
0.0148257
0.0147378
0.0146461
0.0145484
0.0144428
0.0143277
0.0142026
0.014068
0.0139257
0.0137791
0.0136326
0.0134911
0.0133596
0.0132423
0.0131419
0.0130594
0.0129934
0.0129409
0.0128972
0.0128543
0.0128042
0.0127398
0.00538677
0.00527159
0.00515644
0.00504263
0.00493199
0.00482534
0.00472313
0.0046255
0.00453233
0.00444338
0.00435829
0.00427664
0.00419803
0.00412207
0.00404847
0.00397701
0.00390757
0.00384012
0.0037739
0.00363835
0.0153987
0.015382
0.0153273
0.0152515
0.0151661
0.015078
0.0149905
0.0149046
0.0148193
0.0147329
0.014643
0.0145473
0.0144435
0.01433
0.0142059
0.0140716
0.0139292
0.0137821
0.0136347
0.013492
0.0133587
0.0132393
0.0131369
0.0130526
0.0129853
0.0129312
0.0128856
0.0128412
0.0127903
0.0127261
0.00538738
0.0052739
0.00516023
0.00504727
0.00493678
0.00482964
0.00472642
0.00462745
0.00453281
0.00444243
0.0043561
0.00427356
0.00419444
0.00411837
0.00404502
0.00397408
0.00390531
0.00383856
0.00377462
0.0159787
0.0157076
0.0155249
0.0153855
0.0152686
0.0151646
0.0150691
0.0149796
0.0148941
0.0148104
0.0147262
0.0146389
0.0145457
0.0144443
0.0143326
0.0142098
0.0140764
0.0139342
0.013787
0.0136391
0.0134956
0.0133615
0.0132408
0.0131367
0.0130505
0.0129814
0.0129257
0.012878
0.0128317
0.0127794
0.0127143
0.00538801
0.0052762
0.005164
0.00505188
0.00494153
0.00483388
0.00472967
0.00462937
0.00453326
0.00444146
0.00435394
0.00427052
0.00419091
0.00411474
0.00404162
0.00397114
0.00390298
0.00383686
0.00377284
0.0158742
0.0157485
0.015614
0.0154775
0.0153455
0.0152221
0.0151088
0.0150055
0.0149104
0.0148208
0.0147336
0.0146452
0.0145522
0.0144516
0.0143407
0.0142185
0.0140854
0.0139433
0.0137957
0.0136471
0.0135026
0.0133672
0.013245
0.0131391
0.0130507
0.0129789
0.0129205
0.01287
0.0128208
0.0127658
0.0126987
0.00538863
0.00527839
0.00516762
0.00505634
0.00494613
0.00483799
0.0047328
0.0046312
0.00453367
0.00444053
0.00435189
0.00426766
0.00418759
0.00411131
0.00403837
0.00396829
0.00390064
0.00383504
0.00377146
0.015865
0.0157429
0.0156107
0.0154749
0.0153423
0.0152177
0.0151034
0.0149996
0.0149048
0.0148163
0.0147309
0.0146448
0.0145542
0.0144557
0.0143467
0.0142259
0.0140936
0.0139519
0.0138042
0.0136551
0.0135096
0.0133731
0.0132495
0.013142
0.0130513
0.0129767
0.0129149
0.0128608
0.012808
0.0127496
0.0126799
0.00538921
0.00528045
0.00517103
0.00506053
0.00495046
0.00484186
0.00473574
0.00463293
0.00453413
0.00443979
0.00435017
0.00426525
0.00418481
0.00410846
0.0040357
0.00396598
0.00389876
0.00383356
0.00377028
0.0158573
0.0157351
0.0156026
0.0154663
0.0153331
0.015208
0.0150937
0.0149904
0.0148968
0.0148103
0.0147275
0.0146444
0.0145568
0.014461
0.0143544
0.0142356
0.0141047
0.013964
0.0138168
0.0136676
0.0135219
0.0133845
0.0132598
0.0131506
0.0130577
0.0129801
0.0129147
0.0128563
0.0127989
0.0127362
0.0126628
0.00538974
0.00528233
0.00517415
0.00506436
0.00495437
0.00484528
0.00473824
0.00463429
0.00453428
0.00443884
0.00434832
0.00426275
0.00418193
0.00410546
0.00403278
0.00396326
0.00389629
0.00383131
0.00376816
0.0158425
0.0157134
0.0155788
0.0154431
0.0153115
0.0151882
0.0150756
0.0149744
0.0148833
0.0148
0.0147207
0.0146414
0.0145577
0.0144658
0.0143626
0.0142468
0.0141185
0.0139795
0.0138336
0.0136852
0.0135399
0.0134024
0.013277
0.0131664
0.0130712
0.0129903
0.0129205
0.0128572
0.0127945
0.0127266
0.0126486
0.00539024
0.005284
0.00517688
0.0050677
0.00495777
0.00484829
0.00474053
0.00463571
0.00453482
0.00443861
0.00434749
0.00426153
0.00418051
0.004104
0.00403142
0.00396207
0.00389525
0.00383038
0.0037678
0.0159379
0.0156713
0.0154883
0.0153455
0.0152244
0.0151168
0.0150199
0.0149321
0.0148521
0.0147775
0.0147053
0.0146315
0.0145521
0.0144634
0.0143629
0.0142489
0.0141217
0.0139837
0.0138383
0.0136904
0.0135454
0.0134081
0.0132825
0.0131709
0.0130741
0.0129908
0.0129178
0.0128505
0.0127834
0.0127113
0.0126299
0.00539066
0.00528534
0.00517897
0.00507009
0.00495996
0.00484988
0.00474126
0.00463547
0.00453366
0.00443664
0.00434488
0.00425846
0.00417716
0.00410051
0.0040279
0.00395855
0.00389174
0.00382684
0.00376363
0.0158111
0.0156859
0.0155504
0.0154119
0.0152778
0.0151535
0.0150417
0.0149428
0.0148556
0.014777
0.0147032
0.0146296
0.0145512
0.0144639
0.0143647
0.0142519
0.0141257
0.0139885
0.0138439
0.0136971
0.013553
0.0134165
0.0132915
0.0131802
0.0130831
0.0129989
0.0129244
0.0128552
0.0127864
0.0127132
0.0126324
0.005391
0.00528632
0.0051806
0.00507215
0.00496218
0.00485201
0.00474316
0.00463707
0.00453494
0.00443766
0.00434568
0.00425908
0.00417763
0.00410087
0.00402813
0.00395863
0.00389163
0.00382653
0.0037631
0.0158095
0.015686
0.0155514
0.015413
0.0152785
0.0151539
0.0150423
0.0149444
0.0148589
0.0147828
0.0147118
0.014641
0.0145656
0.0144812
0.0143846
0.0142744
0.0141509
0.0140166
0.0138753
0.0137323
0.0135927
0.0134614
0.013342
0.0132367
0.0131461
0.0130689
0.0130018
0.0129409
0.0128814
0.0128195
0.0127524
0.00539123
0.00528614
0.00517985
0.00507061
0.00495973
0.00484864
0.00473897
0.00463221
0.00452961
0.00443203
0.00433991
0.00425332
0.00417202
0.0040955
0.00402304
0.00395389
0.00388728
0.00382259
0.00375969
0.0157933
0.0156763
0.0155422
0.015403
0.0152692
0.015153
0.0150578
0.0149808
0.0149184
0.0148658
0.0148182
0.0147697
0.0147152
0.0146501
0.0145711
0.0144768
0.0143679
0.0142473
0.0141197
0.0139908
0.0138668
0.0137532
0.0136544
0.0135727
0.0135088
0.013461
0.0134261
0.0133996
0.0133769
0.013354
0.0133286
0.00539168
0.00528768
0.00518296
0.00507558
0.00496827
0.004861
0.00475524
0.00465246
0.00455395
0.00446067
0.00437315
0.0042916
0.00421585
0.00414539
0.00407953
0.0040174
0.0039581
0.00390094
0.00384557
0.00379197
0.0163192
0.0161896
0.0159989
0.0158038
0.0156413
0.015621
0.0156715
0.0157537
0.0158448
0.0159304
0.0160008
0.0160479
0.0160665
0.0160539
0.0160092
0.0159347
0.0158355
0.0157202
0.0155987
0.0154817
0.0153783
0.0152957
0.0152381
0.0152061
0.0151973
0.0152065
0.0152274
0.0152532
0.0152789
0.0153027
0.00546086
0.00544565
0.00542681
0.0054047
0.00537878
0.00535115
0.00532282
0.00529467
0.00526741
0.00524149
0.00521716
0.00519446
0.00517323
0.00515316
0.00513385
0.00511486
0.00509582
0.00507647
0.00505672
0.0050367
0.00501717
0.00501144
0.00499929
0.00498392
0.00494637
0.00491578
0.00489043
0.00486871
0.00484914
0.00483042
0.0048115
0.00479158
0.00477012
0.00474691
0.00472213
0.00469625
0.00466986
0.00464365
0.00461833
0.00459441
0.00457234
0.00455227
0.0045341
0.00451749
0.0045019
0.00448668
0.00447115
0.00445465
0.00443674
0.00441744
0.010195
0.00816215
0.00581926
0.00453892
0.00397864
0.00373756
0.00361136
0.0035232
0.00344054
0.00335327
0.00326025
0.00317117
0.00310231
0.00306711
0.00305905
0.00309532
0.00414297
0.0114326
0.0323289
0.011172
0.0103959
0.00826482
0.00588474
0.00458975
0.00402619
0.00378443
0.00365553
0.00356252
0.00347122
0.00337462
0.00327625
0.00318739
0.00312266
0.00309574
0.00309218
0.00305594
0.00331115
0.00559253
0.0240747
0.0372503
0.0104843
0.00835576
0.00594313
0.00463494
0.00406366
0.00381571
0.00367917
0.00357685
0.00347896
0.00338067
0.00328472
0.00320052
0.00314079
0.00311975
0.00312293
0.00307191
0.0031272
0.00505086
0.0153314
0.0257694
0.0106294
0.00846559
0.0060065
0.00467966
0.00409919
0.00384431
0.00370154
0.00359401
0.00349343
0.00339505
0.00330048
0.00321826
0.00316043
0.00314282
0.00315127
0.00309686
0.00304205
0.00400613
0.0103567
0.0181904
0.0107684
0.00855609
0.0060585
0.00471674
0.00412979
0.00387055
0.00372449
0.00361556
0.00351447
0.00341605
0.00332171
0.00323872
0.00318061
0.00316538
0.0031832
0.00314499
0.00305872
0.00354653
0.00722229
0.0130946
0.0108892
0.0086226
0.00609905
0.00474912
0.00415843
0.00389792
0.00375247
0.00364441
0.00354371
0.00344518
0.00334984
0.00326361
0.00320118
0.00318307
0.0032055
0.00318928
0.00310809
0.00324594
0.00507436
0.00946959
0.0109857
0.00867587
0.00613653
0.00478301
0.00419124
0.00393154
0.00378755
0.00368039
0.00357964
0.00347981
0.00338181
0.00329212
0.00322592
0.00320518
0.00323144
0.0032403
0.00318787
0.00314744
0.00294625
0.00596111
0.011062
0.00872257
0.0061759
0.00482115
0.00422898
0.00397014
0.00382701
0.00371975
0.00361739
0.00351368
0.00341095
0.00331624
0.00324561
0.00322113
0.00324934
0.00328364
0.00327759
0.00326018
0.00278222
0.00409968
0.0111309
0.00877109
0.00621838
0.00486189
0.0042676
0.00400846
0.00386447
0.00375525
0.00364975
0.00354196
0.0034353
0.0033369
0.00326151
0.00323047
0.00325501
0.00330701
0.0033434
0.00337462
0.00291323
0.00332549
0.0111982
0.00881848
0.00625814
0.00489911
0.00430168
0.00403964
0.00389267
0.00377902
0.00366928
0.00355901
0.00345099
0.00335202
0.00327471
0.00323731
0.00325365
0.00331182
0.00337386
0.00342717
0.00307831
0.00300043
0.0112597
0.00884925
0.00628585
0.00492638
0.00432594
0.00405981
0.0039087
0.00379043
0.00367757
0.00356613
0.00345921
0.00336316
0.00328779
0.00324722
0.00325436
0.00330859
0.00338199
0.00343718
0.00321535
0.00285349
0.0113048
0.00885259
0.00629566
0.00494071
0.00433781
0.00406796
0.00391311
0.00379245
0.00367864
0.00356874
0.0034656
0.0033752
0.00330456
0.00326385
0.00326435
0.00331111
0.00338592
0.00345523
0.00326437
0.0027767
0.0113234
0.00882932
0.00629092
0.00494451
0.00434191
0.0040703
0.00391363
0.0037924
0.00367972
0.00357358
0.0034764
0.00339247
0.00332706
0.00328777
0.00328474
0.00332079
0.00338818
0.00346454
0.00326147
0.00269319
0.0113147
0.00878878
0.00627819
0.00494427
0.00434562
0.00407456
0.00391784
0.00379753
0.00368723
0.00358556
0.00349378
0.00341437
0.00335248
0.00331331
0.00330425
0.00333017
0.00338572
0.00346337
0.00338008
0.00268043
0.011291
0.00874865
0.00626757
0.00494766
0.00435429
0.00408594
0.0039304
0.00381187
0.00370404
0.0036053
0.0035156
0.00343783
0.00337504
0.00333201
0.00331806
0.00333702
0.00337919
0.00344527
0.00323662
0.00267048
0.0112659
0.00872179
0.0062658
0.00495837
0.00437059
0.00410527
0.00395146
0.00383424
0.00372758
0.00362781
0.00353716
0.00345659
0.00338929
0.00334165
0.00332616
0.00334728
0.00339027
0.00343829
0.00322061
0.00268906
0.0112528
0.00871069
0.00627195
0.00497449
0.00439208
0.00412984
0.0039766
0.00385955
0.00375156
0.00364864
0.0035543
0.00346881
0.00339608
0.00334425
0.00332751
0.00334911
0.00338929
0.00341499
0.0032637
0.00270722
0.0112549
0.00870508
0.00628123
0.00499216
0.00441359
0.00415331
0.00399978
0.00388141
0.00377082
0.00366462
0.00356603
0.00347669
0.00340115
0.00334967
0.00333639
0.00336059
0.00339036
0.00336835
0.00319391
0.00270314
0.0112638
0.00869188
0.00628557
0.00500563
0.00442935
0.00417012
0.00401674
0.00389749
0.0037859
0.00367751
0.00357616
0.00348433
0.00340776
0.0033586
0.0033508
0.00337859
0.00339204
0.00329512
0.00313873
0.00272729
0.0112723
0.00866442
0.00627629
0.00500789
0.00443626
0.0041791
0.00402728
0.00390973
0.00380014
0.00369326
0.00359216
0.00350017
0.00342372
0.00337611
0.00337176
0.00339967
0.00338637
0.00319244
0.00314451
0.00274973
0.0112715
0.00862
0.00625524
0.0050004
0.00443687
0.0041843
0.0040367
0.00392403
0.00381913
0.00371691
0.00361832
0.00352739
0.00345097
0.00340337
0.00340037
0.00342584
0.00337718
0.00307799
0.00308415
0.00275392
0.0112582
0.00856467
0.00622826
0.00499026
0.00443753
0.00419188
0.00405158
0.00394682
0.00384861
0.00375197
0.00365609
0.00356507
0.00348683
0.0034372
0.00343386
0.00345478
0.00336453
0.00295329
0.00296331
0.00276489
0.0112364
0.00851261
0.00620603
0.00498589
0.00444488
0.00420783
0.00407643
0.00398068
0.00388908
0.00379646
0.0037018
0.00360883
0.0035274
0.00347528
0.00347131
0.00348715
0.00335058
0.00286076
0.00277263
0.00274675
0.011217
0.00847818
0.00619726
0.00499311
0.00446333
0.0042354
0.00411243
0.0040235
0.00393574
0.00384405
0.00374771
0.00365164
0.0035676
0.0035147
0.00351107
0.00352292
0.00335716
0.00288805
0.0026917
0.00274322
0.0112119
0.00847054
0.00620594
0.00501392
0.00449329
0.00427309
0.00415527
0.00406864
0.00398068
0.00388677
0.00378723
0.00368859
0.00360333
0.00355127
0.00354892
0.00356
0.00338437
0.0029763
0.00266286
0.00276222
0.0112298
0.00849152
0.00623229
0.0050476
0.00453257
0.00431529
0.00419796
0.00410879
0.00401715
0.00391934
0.00381684
0.00371775
0.00363386
0.00358496
0.00358651
0.00360304
0.00344513
0.0030486
0.00274796
0.00279419
0.0112728
0.00853916
0.0062728
0.00508969
0.00457559
0.00435609
0.00423489
0.00413978
0.00404296
0.00394175
0.00383787
0.00374008
0.00365878
0.00361331
0.00361875
0.00364138
0.00350561
0.00309653
0.00287423
0.00283154
0.011342
0.00860623
0.00632147
0.00513405
0.00461673
0.00439181
0.00426432
0.00416221
0.00406109
0.00395882
0.00385661
0.00376204
0.00368351
0.00364026
0.00364757
0.00367348
0.00355381
0.00314467
0.00291716
0.00286703
0.0114326
0.00868185
0.00637124
0.0051757
0.00465312
0.00442206
0.00428796
0.00418061
0.00407783
0.00397718
0.00387903
0.00378877
0.00371217
0.00366835
0.00367459
0.00370304
0.00361723
0.00325329
0.00275669
0.00291988
0.0115352
0.00875379
0.00641571
0.00521194
0.004684
0.00444854
0.0043099
0.00420126
0.00410065
0.00400408
0.00391075
0.00382427
0.00374822
0.00370101
0.00370266
0.00373669
0.00371691
0.00360298
0.00263452
0.00291582
0.011639
0.00881235
0.00645158
0.00524194
0.0047113
0.00447338
0.00433412
0.00422827
0.00413331
0.00404237
0.00395331
0.00386886
0.0037919
0.00373998
0.0037352
0.00377311
0.00379884
0.0037317
0.00327553
0.00297929
0.0117343
0.00885202
0.00647779
0.00526724
0.00473649
0.00449906
0.00436314
0.00426331
0.00417564
0.00409067
0.0040049
0.00392048
0.00384149
0.0037845
0.00377418
0.00381182
0.00385498
0.00374089
0.00320417
0.00309228
0.0118136
0.00887262
0.00649615
0.00529107
0.00476113
0.00452694
0.00439692
0.00430452
0.00422374
0.00414394
0.00406065
0.00397541
0.0038938
0.00383231
0.0038207
0.00386693
0.00393639
0.00385447
0.00344482
0.00320261
0.0118751
0.00888037
0.00651508
0.00531466
0.00478763
0.00455821
0.00443467
0.00434935
0.00427398
0.00419769
0.00411563
0.00402934
0.00394486
0.00387806
0.00386214
0.00391205
0.00399485
0.00394465
0.00382312
0.00327507
0.0119222
0.00889415
0.00653896
0.00534312
0.00481875
0.0045936
0.00447555
0.00439592
0.00432422
0.00424935
0.0041672
0.00407992
0.00399533
0.00392803
0.00391076
0.00396144
0.00404488
0.00401469
0.00398147
0.00338351
0.0119689
0.008925
0.00657518
0.00538116
0.00485795
0.00463518
0.00452046
0.00444399
0.00437381
0.00429839
0.00421448
0.00412437
0.00403799
0.00397122
0.00395598
0.00401155
0.00410038
0.0040355
0.00348786
0.00337332
0.0120313
0.00898253
0.00662762
0.00543093
0.00490664
0.00468445
0.0045703
0.00449359
0.00442258
0.004346
0.00426071
0.00416888
0.00407973
0.00401013
0.00399309
0.00405295
0.00414937
0.00408288
0.00414393
0.00342523
0.0121193
0.00906811
0.00669642
0.00549216
0.00496419
0.0047409
0.00462486
0.00454486
0.00447047
0.00439108
0.0043039
0.0042119
0.00412285
0.00405238
0.00403294
0.00408863
0.00417798
0.00405653
0.00351372
0.00341865
0.012231
0.00917247
0.00677574
0.00556028
0.00502747
0.00480084
0.00468161
0.0045975
0.00451862
0.00443483
0.00434384
0.00425009
0.0041618
0.00409505
0.00408044
0.00414191
0.00423547
0.00408321
0.00316924
0.00345154
0.0123555
0.00928009
0.00685656
0.0056291
0.00509126
0.00486039
0.00473716
0.00464873
0.00456548
0.00447797
0.00438364
0.00428737
0.00419717
0.00413022
0.00411675
0.00418369
0.00428742
0.0041249
0.00291053
0.00342594
0.0124739
0.00937394
0.00692879
0.00569212
0.00515112
0.0049171
0.00478956
0.00469576
0.00460703
0.00451645
0.00442122
0.0043266
0.00423838
0.00417226
0.0041574
0.00422513
0.0043403
0.00420042
0.00299025
0.0034174
0.0125714
0.00944504
0.0069895
0.00574789
0.00520606
0.00497055
0.00483949
0.00473988
0.00464483
0.00455007
0.00445353
0.00436093
0.00427796
0.00421645
0.00420176
0.00426566
0.0043833
0.00427622
0.00320521
0.00341966
0.0126373
0.00949732
0.0070416