/*--------------------------------*- C++ -*----------------------------------*\
  =========                 |
  \\      /  F ield         | OpenFOAM: The Open Source CFD Toolbox
   \\    /   O peration     | Website:  https://openfoam.org
    \\  /    A nd           | Version:  8
     \\/     M anipulation  |
\*---------------------------------------------------------------------------*/
FoamFile
{
    version     2.0;
    format      ascii;
    class       volScalarField;
    location    "1000";
    object      epsilon;
}
// * * * * * * * * * * * * * * * * * * * * * * * * * * * * * * * * * * * * * //

dimensions      [0 2 -3 0 0 0 0];

internalField   nonuniform List<scalar> 
8400
(
0.0741266
0.0734214
0.0729514
0.0722787
0.0717181
0.0715259
0.0718657
0.0728173
0.0743582
0.0763393
0.0784229
0.0797753
0.0794597
0.0773991
0.074508
0.071546
0.0687263
0.0660842
0.0636188
0.0613169
0.0591595
0.0571265
0.0551963
0.0533477
0.0515593
0.0501634
0.0496452
0.0502366
0.0521975
0.0557573
0.0610114
0.0677631
0.0752045
0.0817059
0.0855606
0.0864041
0.0853779
0.0840638
0.0836198
0.0846581
0.0875518
0.0924506
0.0995917
0.109377
0.121325
0.132946
0.141458
0.145882
0.146504
0.146502
0.0120126
0.0120734
0.0122322
0.0124393
0.01268
0.0129603
0.0132923
0.0136925
0.014183
0.0147981
0.0155927
0.01655
0.0174507
0.0180645
0.0183609
0.0182152
0.0176905
0.0168776
0.0158683
0.0147593
0.0136501
0.0126364
0.011811
0.0112694
0.0111211
0.0112226
0.0113338
0.0114516
0.0115874
0.0117672
0.0120452
0.0125126
0.0132595
0.0142109
0.0150347
0.0154868
0.0156878
0.0158963
0.0162947
0.0169891
0.0181094
0.0197739
0.0221285
0.0254344
0.0298389
0.0344615
0.0378853
0.0398548
0.04056
0.0400519
0.0130277
0.0127734
0.0124623
0.0121727
0.0120236
0.0120455
0.0121254
0.0121604
0.0120249
0.0117351
0.011682
0.0118787
0.0122742
0.0127403
0.0129618
0.0129501
0.0127391
0.0123861
0.011961
0.0115384
0.0111886
0.0109629
0.0108846
0.0109421
0.0110692
0.0111843
0.011284
0.0113556
0.0113741
0.0112933
0.0110298
0.0105003
0.00981078
0.00933593
0.00930828
0.00947002
0.00963036
0.00977295
0.00984557
0.00989522
0.00991304
0.00994663
0.0101777
0.0107545
0.0119628
0.0138264
0.0151729
0.0158499
0.0161146
0.0156539
0.0131359
0.0130975
0.0130594
0.0130229
0.0129882
0.0129558
0.0129245
0.0128934
0.0128607
0.0128259
0.0127901
0.0127386
0.0126805
0.0126261
0.0125791
0.0125338
0.0124778
0.0123977
0.0122831
0.0121323
0.0119561
0.0117783
0.0116254
0.0115023
0.0114451
0.0114712
0.0115402
0.0116167
0.0116813
0.0117239
0.0117377
0.0117172
0.0116545
0.0115476
0.0113845
0.0112116
0.0110778
0.0108774
0.01059
0.0105142
0.0104099
0.00985214
0.00915881
0.00834645
0.00743972
0.00772701
0.00826839
0.00853762
0.00852378
0.00817881
0.0131534
0.0131353
0.0131171
0.0130987
0.01308
0.0130608
0.0130414
0.0130215
0.0130013
0.0129805
0.0129579
0.0129329
0.0129049
0.0128732
0.0128375
0.0127979
0.0127541
0.0127045
0.0126473
0.0125815
0.0125085
0.0124335
0.0123653
0.0123143
0.0122722
0.012237
0.0122079
0.0121832
0.0121606
0.0121376
0.0121121
0.0120828
0.0120493
0.0120122
0.0119591
0.0118905
0.0118083
0.0117188
0.011661
0.0116271
0.0115764
0.0114869
0.0112781
0.0106563
0.00759509
0.00542528
0.00558413
0.00575528
0.00562549
0.00533672
0.0131441
0.0131158
0.0130871
0.0130581
0.0130287
0.0129989
0.0129686
0.012938
0.0129076
0.0128782
0.0128508
0.0128253
0.0128017
0.0127793
0.0127572
0.0127342
0.0127095
0.0126822
0.0126515
0.0126169
0.0125787
0.0125385
0.0124988
0.0124626
0.0124301
0.0123977
0.0123654
0.0123327
0.0122992
0.0122646
0.0122289
0.0121924
0.0121553
0.0121146
0.0120688
0.0120176
0.0119607
0.0118996
0.0118381
0.0117727
0.0116897
0.0115636
0.0113265
0.0108095
0.00961046
0.00855068
0.00640878
0.00450742
0.00429266
0.00401041
0.0131456
0.0131188
0.0130916
0.0130641
0.0130361
0.0130079
0.0129792
0.01295
0.0129204
0.0128903
0.0128598
0.0128291
0.0127983
0.0127679
0.0127381
0.012709
0.0126806
0.0126524
0.012624
0.0125948
0.0125643
0.0125326
0.0125001
0.0124672
0.012434
0.0124004
0.012366
0.0123299
0.012292
0.0122529
0.0122126
0.01217
0.0121257
0.0120809
0.0120359
0.0119898
0.0119414
0.0118889
0.0118304
0.0117612
0.0116692
0.0115277
0.0112737
0.0107851
0.00987561
0.00869876
0.00683919
0.00456899
0.00360783
0.00329651
0.013142
0.0131114
0.0130804
0.0130491
0.0130174
0.0129854
0.0129531
0.0129205
0.0128877
0.0128548
0.0128221
0.0127896
0.0127573
0.0127256
0.0126945
0.0126639
0.012634
0.0126046
0.0125754
0.012546
0.0125161
0.0124854
0.0124533
0.0124198
0.0123848
0.0123477
0.0123083
0.0122671
0.0122239
0.0121782
0.0121304
0.012083
0.0120366
0.011992
0.011949
0.011907
0.0118642
0.0118182
0.0117653
0.0116983
0.0116021
0.0114453
0.0111641
0.0106551
0.00978702
0.00855104
0.00676932
0.00467582
0.0033273
0.00287679
0.0131365
0.0130995
0.0130623
0.0130248
0.0129871
0.0129491
0.012911
0.0128726
0.0128344
0.0127965
0.0127592
0.0127227
0.0126873
0.0126529
0.0126198
0.0125878
0.0125567
0.0125264
0.0124965
0.0124666
0.0124362
0.0124047
0.0123717
0.0123367
0.0122994
0.0122595
0.0122168
0.0121714
0.0121238
0.0120747
0.012025
0.011976
0.0119286
0.0118837
0.0118416
0.0118019
0.0117633
0.011723
0.0116755
0.0116105
0.0115079
0.011329
0.0110065
0.0104459
0.00954078
0.00824977
0.00651418
0.00459879
0.0032356
0.00262848
0.0131261
0.0130773
0.0130289
0.0129806
0.0129325
0.0128845
0.0128368
0.0127896
0.0127432
0.012698
0.0126543
0.0126126
0.012573
0.012536
0.0125012
0.0124685
0.0124374
0.0124074
0.0123781
0.0123487
0.0123185
0.0122869
0.0122533
0.0122172
0.0121782
0.0121361
0.012091
0.012043
0.0119931
0.0119423
0.0118916
0.0118426
0.0117965
0.0117539
0.0117152
0.0116804
0.011648
0.0116142
0.0115718
0.0115066
0.0113913
0.0111789
0.010798
0.0101625
0.00918805
0.0078463
0.00616185
0.00441694
0.00315011
0.0025057
0.0131055
0.0130321
0.0129615
0.0128928
0.0128257
0.0127607
0.0126978
0.0126371
0.012579
0.0125243
0.0124738
0.0124279
0.0123868
0.0123503
0.0123179
0.0122888
0.0122621
0.0122366
0.0122115
0.0121857
0.0121584
0.0121288
0.0120964
0.0120605
0.0120209
0.0119775
0.0119306
0.0118809
0.0118297
0.0117782
0.0117282
0.0116817
0.0116398
0.0116032
0.0115721
0.0115457
0.0115223
0.0114969
0.0114587
0.011388
0.0112494
0.0109873
0.0105291
0.00980142
0.00874657
0.00736846
0.00575478
0.00418398
0.00304748
0.00242536
0.0130422
0.0128974
0.0127799
0.0126773
0.0125837
0.0124963
0.0124157
0.012342
0.0122772
0.0122208
0.0121746
0.0121376
0.0121086
0.012086
0.0120676
0.012052
0.0120376
0.0120227
0.0120062
0.0119872
0.0119648
0.0119383
0.0119072
0.0118714
0.0118304
0.0117847
0.0117353
0.0116834
0.0116309
0.0115797
0.0115329
0.0114931
0.0114608
0.0114356
0.0114167
0.0114029
0.0113915
0.0113742
0.011336
0.0112498
0.0110714
0.0107392
0.0101845
0.00935536
0.00822581
0.00683806
0.00532258
0.0039321
0.00293638
0.00235962
0.0126363
0.0124598
0.0123243
0.0122038
0.0121
0.012011
0.0119382
0.0118816
0.0118413
0.0118143
0.0117994
0.0117928
0.0117915
0.0117942
0.011797
0.0117981
0.0117971
0.0117925
0.0117832
0.0117688
0.0117485
0.0117219
0.0116886
0.0116482
0.0116007
0.0115492
0.0114964
0.0114435
0.0113948
0.0113535
0.0113208
0.0112971
0.0112818
0.0112728
0.0112681
0.0112647
0.0112567
0.0112302
0.0111642
0.0110275
0.010775
0.0103542
0.00971663
0.00883157
0.00764204
0.00627694
0.00488943
0.00368281
0.00282606
0.0023048
0.0118781
0.0117293
0.0116123
0.0115223
0.0114571
0.0114146
0.0113917
0.0113849
0.011391
0.0114061
0.0114269
0.0114504
0.0114741
0.0114959
0.0115138
0.011527
0.0115348
0.011536
0.0115299
0.0115164
0.0114954
0.011467
0.0114319
0.0113915
0.0113478
0.0113035
0.0112616
0.0112239
0.0111926
0.011169
0.011153
0.0111431
0.0111369
0.0111312
0.0111214
0.0111003
0.0110567
0.0109736
0.0108285
0.0105929
0.0102347
0.00972329
0.00903486
0.00815382
0.00702702
0.005726
0.00447677
0.0034514
0.00272499
0.00226165
0.0111503
0.0110782
0.0110292
0.0110018
0.0109925
0.0109977
0.0110135
0.0110373
0.0110663
0.0110981
0.0111309
0.0111628
0.0111925
0.0112186
0.01124
0.0112559
0.0112656
0.0112687
0.0112648
0.0112541
0.0112373
0.0112151
0.0111886
0.0111596
0.01113
0.0111015
0.0110754
0.0110525
0.0110328
0.0110157
0.0109992
0.0109805
0.0109553
0.0109186
0.0108632
0.0107793
0.0106546
0.0104736
0.0102189
0.00987323
0.00942167
0.00885333
0.00816117
0.00733989
0.00635997
0.00522004
0.00410209
0.00324906
0.00264098
0.0022344
0.0107587
0.0107473
0.0107465
0.010755
0.0107703
0.0107908
0.0108148
0.0108409
0.0108683
0.010896
0.0109232
0.0109491
0.0109729
0.0109938
0.0110112
0.0110245
0.011033
0.0110365
0.011035
0.0110287
0.0110178
0.0110029
0.0109847
0.010964
0.0109411
0.0109163
0.0108893
0.0108594
0.0108252
0.0107844
0.0107342
0.0106709
0.0105899
0.0104852
0.0103497
0.0101748
0.0099508
0.00966803
0.00931847
0.00889716
0.00840279
0.00783699
0.00720106
0.00649271
0.00569216
0.00476446
0.0037795
0.00308566
0.0025837
0.00223251
0.010626
0.0106361
0.0106491
0.0106642
0.0106808
0.0106983
0.0107162
0.0107343
0.0107522
0.0107695
0.0107861
0.0108014
0.010815
0.0108264
0.0108352
0.0108407
0.0108426
0.0108403
0.0108336
0.0108221
0.0108054
0.0107832
0.0107552
0.0107211
0.01068
0.0106311
0.0105733
0.0105051
0.0104247
0.0103297
0.0102175
0.0100848
0.00992765
0.00974134
0.00952066
0.00926033
0.00895594
0.00860482
0.00820747
0.00776775
0.00729189
0.00678653
0.0062548
0.00569268
0.00508157
0.00436431
0.00352224
0.00297284
0.00256851
0.00227498
0.0105652
0.0105739
0.0105825
0.010591
0.0105991
0.0106068
0.0106139
0.0106203
0.0106258
0.0106302
0.0106331
0.0106342
0.010633
0.010629
0.0106217
0.0106105
0.0105945
0.0105731
0.0105454
0.0105107
0.010468
0.0104165
0.0103553
0.0102833
0.0101995
0.0101029
0.00999229
0.0098665
0.0097242
0.00956391
0.00938391
0.00918215
0.00895642
0.00870418
0.00842327
0.00811229
0.00777143
0.00740358
0.00701442
0.00661176
0.0062042
0.00579838
0.00539583
0.00498997
0.0045605
0.00402421
0.00334334
0.00292734
0.0026201
0.00239444
0.0104479
0.0104438
0.0104384
0.0104316
0.0104235
0.0104141
0.0104031
0.0103906
0.0103762
0.0103596
0.0103404
0.0103181
0.0102921
0.0102618
0.0102263
0.0101849
0.0101366
0.0100806
0.0100159
0.00994137
0.00985615
0.00975933
0.00965001
0.00952741
0.0093908
0.00923956
0.00907322
0.00889143
0.00869386
0.00848019
0.00825014
0.00800339
0.00773968
0.00745876
0.00716093
0.00684764
0.00652204
0.00618925
0.00585638
0.00553113
0.00522091
0.00493053
0.0046599
0.00440151
0.0041314
0.00375215
0.00325631
0.00297399
0.00277602
0.00264004
0.0281809
0.0275316
0.0268745
0.0261981
0.0255018
0.0247875
0.0240592
0.0233221
0.0225819
0.0218444
0.0211147
0.0203972
0.0196952
0.0190109
0.0183455
0.0176989
0.0170703
0.0164585
0.0158612
0.0152761
0.0147009
0.0141331
0.0135707
0.0130119
0.0124555
0.011901
0.0113484
0.0107982
0.0102517
0.00971026
0.00917616
0.00865158
0.00813872
0.00763953
0.00715579
0.00668931
0.00624284
0.00582077
0.00542938
0.00507542
0.00476462
0.0044995
0.0042779
0.00409133
0.0039163
0.00369438
0.00347855
0.00344826
0.00350077
0.00361908
9.3286e-06
9.17662e-06
9.03888e-06
8.91952e-06
8.81107e-06
8.71062e-06
8.61615e-06
8.5257e-06
8.43745e-06
8.34988e-06
8.2618e-06
8.17241e-06
8.08131e-06
7.98854e-06
7.89447e-06
7.79976e-06
7.70521e-06
7.61168e-06
7.5199e-06
7.43045e-06
7.3434e-06
7.22737e-06
7.14168e-06
7.03564e-06
6.93752e-06
6.84337e-06
6.75087e-06
6.6588e-06
6.56663e-06
6.47431e-06
6.38199e-06
6.28504e-06
6.18801e-06
6.09347e-06
6.00298e-06
5.91747e-06
5.83743e-06
5.76294e-06
5.6937e-06
5.62916e-06
5.5686e-06
5.51121e-06
5.45605e-06
5.40239e-06
5.34969e-06
5.29763e-06
5.24592e-06
5.19296e-06
5.1332e-06
5.05887e-06
8.96038e-06
8.32076e-06
7.75688e-06
7.25763e-06
6.81405e-06
6.41758e-06
6.06023e-06
5.73531e-06
5.4373e-06
5.16178e-06
4.9054e-06
4.66574e-06
4.44117e-06
4.23068e-06
4.03365e-06
3.84968e-06
3.67848e-06
3.51975e-06
3.37301e-06
3.23661e-06
3.11025e-06
7.25356e-07
7.24638e-07
7.26209e-07
7.26037e-07
7.24571e-07
7.22242e-07
7.19371e-07
7.16171e-07
7.1278e-07
7.09334e-07
7.07458e-07
7.06855e-07
7.07062e-07
7.07678e-07
7.08409e-07
7.09075e-07
7.09563e-07
7.09809e-07
7.09771e-07
7.0941e-07
7.087e-07
7.07629e-07
7.06168e-07
7.04276e-07
7.01926e-07
6.99204e-07
6.96508e-07
6.94738e-07
6.94657e-07
8.96198e-06
8.32309e-06
7.7541e-06
7.24733e-06
6.79231e-06
6.38128e-06
6.00746e-06
5.66504e-06
5.34924e-06
5.05624e-06
4.78308e-06
4.5276e-06
4.28823e-06
4.06388e-06
3.85375e-06
3.65724e-06
3.47377e-06
3.30273e-06
3.14362e-06
3.10045e-06
7.27012e-07
7.20524e-07
7.14608e-07
7.0923e-07
7.04161e-07
6.99273e-07
6.94462e-07
6.89657e-07
6.84814e-07
6.79914e-07
6.74969e-07
6.70107e-07
6.65388e-07
6.60858e-07
6.56561e-07
6.52521e-07
6.48736e-07
6.45185e-07
6.41834e-07
6.38639e-07
6.35547e-07
6.32503e-07
6.29463e-07
6.26389e-07
6.23227e-07
6.19853e-07
6.16024e-07
6.11492e-07
6.06464e-07
6.02269e-07
8.96287e-06
8.3312e-06
7.76845e-06
7.26609e-06
6.8139e-06
6.40422e-06
6.03058e-06
5.68747e-06
5.37039e-06
5.07571e-06
4.80067e-06
4.54323e-06
4.3019e-06
4.0756e-06
3.8636e-06
3.66528e-06
3.48007e-06
3.30735e-06
3.1466e-06
7.31592e-07
7.24118e-07
7.17955e-07
7.12458e-07
7.07293e-07
7.02278e-07
6.97306e-07
6.92303e-07
6.87221e-07
6.82029e-07
6.76716e-07
6.71295e-07
6.65806e-07
6.6031e-07
6.54876e-07
6.49576e-07
6.44464e-07
6.39574e-07
6.34913e-07
6.30469e-07
6.26211e-07
6.22093e-07
6.18067e-07
6.14084e-07
6.10124e-07
6.06215e-07
6.0242e-07
5.98718e-07
5.948e-07
5.90148e-07
5.85216e-07
8.96373e-06
8.335e-06
7.77362e-06
7.27123e-06
6.8183e-06
6.40751e-06
6.03258e-06
5.68814e-06
5.36976e-06
5.0739e-06
4.79785e-06
4.53957e-06
4.29761e-06
4.07093e-06
3.85875e-06
3.66045e-06
3.47543e-06
3.30304e-06
3.14273e-06
3.09779e-06
7.26491e-07
7.19839e-07
7.1372e-07
7.08042e-07
7.02671e-07
6.97474e-07
6.92339e-07
6.87179e-07
6.81935e-07
6.76576e-07
6.71103e-07
6.65544e-07
6.59954e-07
6.54403e-07
6.4896e-07
6.43681e-07
6.38604e-07
6.33744e-07
6.29094e-07
6.2463e-07
6.2032e-07
6.16117e-07
6.11958e-07
6.07767e-07
6.03486e-07
5.99148e-07
5.94903e-07
5.90821e-07
5.86518e-07
5.81922e-07
8.96479e-06
8.33963e-06
7.78062e-06
7.27953e-06
6.82727e-06
6.41666e-06
6.04153e-06
5.69661e-06
5.37756e-06
5.08091e-06
4.80405e-06
4.54499e-06
4.30232e-06
4.07504e-06
3.86239e-06
3.66378e-06
3.47857e-06
3.30609e-06
3.14576e-06
3.10095e-06
7.27022e-07
7.20372e-07
7.14233e-07
7.08525e-07
7.0312e-07
6.97886e-07
6.92714e-07
6.87516e-07
6.82232e-07
6.76831e-07
6.71313e-07
6.65706e-07
6.60061e-07
6.54447e-07
6.48932e-07
6.43574e-07
6.38412e-07
6.33464e-07
6.28729e-07
6.24191e-07
6.19823e-07
6.15597e-07
6.1148e-07
6.07416e-07
6.03305e-07
5.9904e-07
5.94633e-07
5.90251e-07
5.85812e-07
5.81213e-07
8.96613e-06
8.34481e-06
7.78788e-06
7.28741e-06
6.83488e-06
6.42341e-06
6.04703e-06
5.70062e-06
5.37999e-06
5.08181e-06
4.80352e-06
4.54323e-06
4.29956e-06
4.07154e-06
3.85843e-06
3.65958e-06
3.47434e-06
3.30197e-06
3.14189e-06
3.09743e-06
7.26536e-07
7.1996e-07
7.13904e-07
7.08286e-07
7.02976e-07
6.97842e-07
6.92771e-07
6.8767e-07
6.82477e-07
6.77156e-07
6.71702e-07
6.66138e-07
6.60514e-07
6.54895e-07
6.49349e-07
6.43936e-07
6.387e-07
6.33668e-07
6.28847e-07
6.24225e-07
6.19773e-07
6.15458e-07
6.11251e-07
6.07133e-07
6.03062e-07
5.98929e-07
5.94622e-07
5.90191e-07
5.85653e-07
5.80978e-07
8.96772e-06
8.35059e-06
7.79586e-06
7.29602e-06
6.84324e-06
6.43096e-06
6.05342e-06
5.70567e-06
5.38365e-06
5.08415e-06
4.80468e-06
4.54339e-06
4.29895e-06
4.0704e-06
3.85698e-06
3.65803e-06
3.47284e-06
3.30063e-06
3.14079e-06
3.09646e-06
7.26418e-07
7.19877e-07
7.13855e-07
7.08273e-07
7.03e-07
6.97904e-07
6.92872e-07
6.87813e-07
6.82659e-07
6.77373e-07
6.71943e-07
6.66392e-07
6.60764e-07
6.55121e-07
6.49528e-07
6.44048e-07
6.38729e-07
6.33605e-07
6.28696e-07
6.24004e-07
6.19504e-07
6.15156e-07
6.1091e-07
6.0673e-07
6.02597e-07
5.98459e-07
5.94209e-07
5.89803e-07
5.85243e-07
5.80527e-07
8.96949e-06
8.35682e-06
7.80429e-06
7.30494e-06
6.85167e-06
6.43828e-06
6.05925e-06
5.70985e-06
5.38615e-06
5.08505e-06
4.80417e-06
4.5417e-06
4.29636e-06
4.06718e-06
3.8534e-06
3.65431e-06
3.46914e-06
3.29709e-06
3.13749e-06
3.09224e-06
7.25918e-07
7.19495e-07
7.13546e-07
7.08007e-07
7.02764e-07
6.97696e-07
6.92694e-07
6.87669e-07
6.82552e-07
6.77302e-07
6.71906e-07
6.6638e-07
6.60765e-07
6.55118e-07
6.49504e-07
6.43984e-07
6.38612e-07
6.33428e-07
6.28457e-07
6.23707e-07
6.19173e-07
6.14823e-07
6.10601e-07
6.06444e-07
6.02307e-07
5.98155e-07
5.93913e-07
5.89522e-07
5.84957e-07
5.80219e-07
8.97139e-06
8.36332e-06
7.813e-06
7.31404e-06
6.86015e-06
6.44553e-06
6.06492e-06
5.71381e-06
5.38843e-06
5.08579e-06
4.80357e-06
4.54004e-06
4.29392e-06
4.06425e-06
3.85023e-06
3.6511e-06
3.46607e-06
3.29426e-06
3.13439e-06
7.21277e-07
7.1909e-07
7.15542e-07
7.113e-07
7.06736e-07
7.02031e-07
6.97254e-07
6.92412e-07
6.87481e-07
6.82428e-07
6.77229e-07
6.71878e-07
6.66391e-07
6.60805e-07
6.55175e-07
6.49562e-07
6.44028e-07
6.38631e-07
6.33418e-07
6.28416e-07
6.23636e-07
6.19072e-07
6.14705e-07
6.10493e-07
6.06366e-07
6.0225e-07
5.98096e-07
5.93845e-07
5.89442e-07
5.84856e-07
5.80087e-07
8.97338e-06
8.36991e-06
7.82172e-06
7.32305e-06
6.86843e-06
6.45246e-06
6.07019e-06
5.71731e-06
5.3902e-06
5.086e-06
4.80246e-06
4.53788e-06
4.29103e-06
4.06091e-06
3.84669e-06
3.64757e-06
3.46269e-06
3.29115e-06
3.13223e-06
7.32021e-07
7.25164e-07
7.18772e-07
7.12898e-07
7.07449e-07
7.02298e-07
6.97321e-07
6.92411e-07
6.87479e-07
6.82458e-07
6.77304e-07
6.71999e-07
6.66551e-07
6.60991e-07
6.55367e-07
6.49739e-07
6.44172e-07
6.38729e-07
6.33463e-07
6.28407e-07
6.23578e-07
6.18969e-07
6.1456e-07
6.10315e-07
6.06175e-07
6.02059e-07
5.97896e-07
5.93626e-07
5.89202e-07
5.84592e-07
5.79798e-07
8.97539e-06
8.37639e-06
7.8302e-06
7.33172e-06
6.87629e-06
6.45893e-06
6.07496e-06
5.72028e-06
5.39146e-06
5.08572e-06
4.80088e-06
4.53531e-06
4.28777e-06
4.05725e-06
3.84289e-06
3.64382e-06
3.45915e-06
3.28789e-06
3.1293e-06
7.31749e-07
7.24954e-07
7.1857e-07
7.12688e-07
7.07236e-07
7.02092e-07
6.97135e-07
6.92256e-07
6.87366e-07
6.82394e-07
6.77292e-07
6.72037e-07
6.6663e-07
6.61097e-07
6.55482e-07
6.49842e-07
6.44244e-07
6.38754e-07
6.33428e-07
6.28309e-07
6.23419e-07
6.18755e-07
6.14299e-07
6.10009e-07
6.05833e-07
6.01693e-07
5.97513e-07
5.93224e-07
5.88777e-07
5.84149e-07
5.7934e-07
8.97736e-06
8.38257e-06
7.83823e-06
7.33986e-06
6.88359e-06
6.46484e-06
6.07922e-06
5.72284e-06
5.39242e-06
5.08528e-06
4.79932e-06
4.53295e-06
4.2849e-06
4.05417e-06
3.83982e-06
3.64094e-06
3.45657e-06
3.28566e-06
3.12741e-06
7.31478e-07
7.2471e-07
7.18341e-07
7.12469e-07
7.07028e-07
7.01902e-07
6.96975e-07
6.92139e-07
6.87305e-07
6.82401e-07
6.77373e-07
6.72192e-07
6.66852e-07
6.61371e-07
6.55788e-07
6.50161e-07
6.44553e-07
6.3903e-07
6.33652e-07
6.28465e-07
6.23499e-07
6.18761e-07
6.14236e-07
6.09883e-07
6.05644e-07
6.01448e-07
5.97219e-07
5.92887e-07
5.884e-07
5.83735e-07
5.78899e-07
8.97923e-06
8.38831e-06
7.84557e-06
7.34716e-06
6.88994e-06
6.46969e-06
6.08232e-06
5.72414e-06
5.39203e-06
5.08341e-06
4.79628e-06
4.52905e-06
4.28047e-06
4.0495e-06
3.83514e-06
3.63643e-06
3.45233e-06
3.28171e-06
3.12374e-06
7.30753e-07
7.24129e-07
7.17852e-07
7.12031e-07
7.06623e-07
7.01536e-07
6.96664e-07
6.91908e-07
6.87178e-07
6.82397e-07
6.77506e-07
6.72464e-07
6.67256e-07
6.6189e-07
6.56398e-07
6.50827e-07
6.45244e-07
6.39712e-07
6.34291e-07
6.29037e-07
6.23982e-07
6.1915e-07
6.14523e-07
6.1007e-07
6.05734e-07
6.01445e-07
5.97127e-07
5.92713e-07
5.88153e-07
5.83425e-07
5.78541e-07
8.98097e-06
8.39346e-06
7.85208e-06
7.35361e-06
6.89559e-06
6.47415e-06
6.08543e-06
5.72593e-06
5.39263e-06
5.08305e-06
4.79521e-06
4.52756e-06
4.27883e-06
4.04791e-06
3.83376e-06
3.63534e-06
3.45154e-06
3.28119e-06
3.12284e-06
7.19637e-07
7.1756e-07
7.14092e-07
7.09914e-07
7.05422e-07
7.00817e-07
6.96188e-07
6.91551e-07
6.86883e-07
6.82145e-07
6.77294e-07
6.72294e-07
6.67131e-07
6.61807e-07
6.56349e-07
6.50802e-07
6.4522e-07
6.3967e-07
6.34214e-07
6.28908e-07
6.23793e-07
6.18893e-07
6.14201e-07
6.09685e-07
6.0529e-07
6.00949e-07
5.96589e-07
5.92141e-07
5.87559e-07
5.82826e-07
5.7796e-07
8.98253e-06
8.39766e-06
7.85688e-06
7.35761e-06
6.89801e-06
6.47461e-06
6.08382e-06
5.72236e-06
5.38734e-06
5.07641e-06
4.78761e-06
4.51939e-06
4.27043e-06
4.03956e-06
3.82567e-06
3.62761e-06
3.44421e-06
3.27426e-06
3.11686e-06
7.29755e-07
7.23022e-07
7.16714e-07
7.10909e-07
7.05541e-07
7.00509e-07
6.95705e-07
6.91033e-07
6.86405e-07
6.81742e-07
6.7698e-07
6.72074e-07
6.66995e-07
6.61743e-07
6.56337e-07
6.50818e-07
6.45242e-07
6.39675e-07
6.34186e-07
6.28837e-07
6.2368e-07
6.18738e-07
6.14015e-07
6.09483e-07
6.05088e-07
6.00766e-07
5.96448e-07
5.92071e-07
5.8759e-07
5.82998e-07
5.78323e-07
8.98387e-06
8.40124e-06
7.86154e-06
7.36267e-06
6.90304e-06
6.47929e-06
6.08796e-06
5.72587e-06
5.39022e-06
5.07872e-06
4.78948e-06
4.52096e-06
4.27183e-06
4.04089e-06
3.82698e-06
3.62891e-06
3.44547e-06
3.27542e-06
3.11788e-06
7.30031e-07
7.23284e-07
7.16914e-07
7.11044e-07
7.05628e-07
7.00572e-07
6.95771e-07
6.91128e-07
6.86552e-07
6.81962e-07
6.77292e-07
6.72487e-07
6.67522e-07
6.62388e-07
6.57102e-07
6.51704e-07
6.46249e-07
6.40808e-07
6.3546e-07
6.30274e-07
6.25309e-07
6.20594e-07
6.16133e-07
6.11904e-07
6.0786e-07
6.03933e-07
6.00059e-07
5.96177e-07
5.92253e-07
5.88291e-07
5.84339e-07
8.98494e-06
8.39995e-06
7.85642e-06
7.35351e-06
6.89018e-06
6.46343e-06
6.06993e-06
5.70648e-06
5.37028e-06
5.05894e-06
4.77044e-06
4.50312e-06
4.25554e-06
4.02637e-06
3.81435e-06
3.61821e-06
3.43669e-06
3.26851e-06
3.11281e-06
7.29531e-07
7.22921e-07
7.16731e-07
7.11174e-07
7.06156e-07
7.01747e-07
6.97602e-07
6.93625e-07
6.89726e-07
6.85814e-07
6.81815e-07
6.77679e-07
6.73373e-07
6.68893e-07
6.64262e-07
6.59528e-07
6.54774e-07
6.50102e-07
6.45616e-07
6.41412e-07
6.37552e-07
6.34072e-07
6.30962e-07
6.28182e-07
6.25667e-07
6.23333e-07
6.21096e-07
6.18886e-07
6.16669e-07
6.14464e-07
6.12358e-07
8.98745e-06
8.40826e-06
7.87251e-06
7.37741e-06
6.9228e-06
6.50722e-06
6.12657e-06
5.77716e-06
5.4557e-06
5.15935e-06
4.88577e-06
4.63305e-06
4.39961e-06
4.18409e-06
3.98526e-06
3.80196e-06
3.63302e-06
3.47735e-06
3.33385e-06
3.20044e-06
7.30319e-07
7.20509e-07
7.14063e-07
7.09954e-07
7.19054e-07
7.25041e-07
7.28852e-07
7.31038e-07
7.31935e-07
7.31756e-07
7.30654e-07
7.28756e-07
7.26187e-07
7.23081e-07
7.19622e-07
7.16044e-07
7.12599e-07
7.09515e-07
7.06965e-07
7.05037e-07
7.03743e-07
7.03028e-07
7.02779e-07
7.02843e-07
7.03057e-07
7.03268e-07
7.03353e-07
7.03254e-07
7.03016e-07
7.02836e-07
9.33777e-06
9.22278e-06
9.10807e-06
8.9966e-06
8.88827e-06
8.78059e-06
8.67334e-06
8.56636e-06
8.45968e-06
8.35354e-06
8.24831e-06
8.14443e-06
8.04233e-06
7.94241e-06
7.84494e-06
7.75004e-06
7.65775e-06
7.56796e-06
7.48053e-06
7.39529e-06
7.31188e-06
7.19871e-06
7.09093e-06
6.98744e-06
6.88831e-06
6.79237e-06
6.69879e-06
6.60701e-06
6.51653e-06
6.42705e-06
6.33837e-06
6.2505e-06
6.16359e-06
6.07797e-06
5.99394e-06
5.9118e-06
5.83191e-06
5.75466e-06
5.68033e-06
5.60919e-06
5.54108e-06
5.47571e-06
5.41263e-06
5.35119e-06
5.29065e-06
5.23037e-06
5.16985e-06
5.10882e-06
5.04723e-06
4.98563e-06
4.52839e-07
3.656e-07
2.63955e-07
2.06136e-07
1.80033e-07
1.68336e-07
1.61818e-07
1.57244e-07
1.5326e-07
1.49507e-07
1.45777e-07
1.42137e-07
1.38895e-07
1.36521e-07
1.35247e-07
1.33028e-07
1.30033e-07
2.76286e-07
6.01718e-07
3.63581e-06
4.60343e-07
3.71928e-07
2.6747e-07
2.08582e-07
1.8216e-07
1.7047e-07
1.64083e-07
1.59646e-07
1.55728e-07
1.51978e-07
1.48189e-07
1.44489e-07
1.4123e-07
1.38992e-07
1.38165e-07
1.36439e-07
1.25939e-07
1.47989e-07
2.54967e-07
3.05128e-07
4.6976e-07
3.78395e-07
2.71219e-07
2.11322e-07
1.84625e-07
1.7291e-07
1.66516e-07
1.61992e-07
1.57909e-07
1.5396e-07
1.50006e-07
1.46243e-07
1.43059e-07
1.41106e-07
1.40823e-07
1.39703e-07
1.28907e-07
1.14211e-07
2.04632e-07
2.64847e-07
4.77837e-07
3.83981e-07
2.74479e-07
2.13738e-07
1.86801e-07
1.75022e-07
1.68594e-07
1.6399e-07
1.59798e-07
1.55751e-07
1.51759e-07
1.48039e-07
1.44986e-07
1.43335e-07
1.43587e-07
1.43079e-07
1.32277e-07
1.2665e-07
1.70402e-07
2.30008e-07
4.85354e-07
3.88898e-07
2.77379e-07
2.15926e-07
1.88783e-07
1.76953e-07
1.70481e-07
1.65816e-07
1.61574e-07
1.57501e-07
1.53537e-07
1.49912e-07
1.47004e-07
1.4558e-07
1.46116e-07
1.45707e-07
1.3399e-07
1.21179e-07
1.54063e-07
1.99579e-07
4.92172e-07
3.93243e-07
2.79963e-07
2.17932e-07
1.90615e-07
1.78742e-07
1.72244e-07
1.67569e-07
1.63339e-07
1.59297e-07
1.55386e-07
1.51847e-07
1.49086e-07
1.47938e-07
1.48873e-07
1.48714e-07
1.37503e-07
1.20665e-07
1.43359e-07
1.75524e-07
4.98408e-07
3.97267e-07
2.82366e-07
2.19828e-07
1.92352e-07
1.80428e-07
1.73929e-07
1.69277e-07
1.65093e-07
1.61094e-07
1.5721e-07
1.53663e-07
1.50878e-07
1.498e-07
1.51005e-07
1.51447e-07
1.42154e-07
1.24404e-07
1.34253e-07
1.57849e-07
5.04326e-07
4.01167e-07
2.84673e-07
2.21666e-07
1.94005e-07
1.8201e-07
1.75502e-07
1.70861e-07
1.66717e-07
1.62764e-07
1.58915e-07
1.55356e-07
1.52521e-07
1.51421e-07
1.52766e-07
1.53947e-07
1.47262e-07
1.30157e-07
1.25599e-07
1.44845e-07
5.10133e-07
4.04884e-07
2.86817e-07
2.23382e-07
1.95512e-07
1.8341e-07
1.76861e-07
1.722e-07
1.68059e-07
1.64099e-07
1.60261e-07
1.56703e-07
1.5387e-07
1.52805e-07
1.54328e-07
1.56322e-07
1.52424e-07
1.37936e-07
1.18788e-07
1.35464e-07
5.15776e-07
4.08124e-07
2.88638e-07
2.24849e-07
1.96767e-07
1.84532e-07
1.7792e-07
1.73247e-07
1.6911e-07
1.65162e-07
1.61341e-07
1.57789e-07
1.54962e-07
1.5394e-07
1.55657e-07
1.58454e-07
1.57217e-07
1.46881e-07
1.19205e-07
1.29396e-07
5.20927e-07
4.10523e-07
2.89977e-07
2.25977e-07
1.97721e-07
1.85366e-07
1.78692e-07
1.74027e-07
1.69928e-07
1.66059e-07
1.62327e-07
1.58829e-07
1.56001e-07
1.54937e-07
1.56701e-07
1.60147e-07
1.60878e-07
1.54307e-07
1.23899e-07
1.2557e-07
5.25187e-07
4.11891e-07
2.90801e-07
2.26802e-07
1.98454e-07
1.86039e-07
1.79356e-07
1.74739e-07
1.70721e-07
1.6697e-07
1.63355e-07
1.59935e-07
1.5709e-07
1.55866e-07
1.5743e-07
1.61184e-07
1.6313e-07
1.59027e-07
1.31288e-07
1.23641e-07
5.28344e-07
4.12355e-07
2.91255e-07
2.27477e-07
1.9914e-07
1.86738e-07
1.80119e-07
1.75607e-07
1.71693e-07
1.68055e-07
1.6452e-07
1.61124e-07
1.58196e-07
1.5671e-07
1.57863e-07
1.61569e-07
1.64398e-07
1.62233e-07
1.37352e-07
1.24515e-07
5.30483e-07
4.12321e-07
2.91607e-07
2.28197e-07
1.99966e-07
1.87641e-07
1.81134e-07
1.76729e-07
1.72906e-07
1.69315e-07
1.65772e-07
1.62302e-07
1.59213e-07
1.57415e-07
1.58089e-07
1.61508e-07
1.65094e-07
1.64579e-07
1.33958e-07
1.23231e-07
5.31919e-07
4.12194e-07
2.92073e-07
2.29119e-07
2.01042e-07
1.88809e-07
1.82402e-07
1.78049e-07
1.74226e-07
1.70576e-07
1.66927e-07
1.63299e-07
1.60019e-07
1.57944e-07
1.58193e-07
1.61306e-07
1.65556e-07
1.66823e-07
1.45333e-07
1.2462e-07
5.33115e-07
4.12203e-07
2.92674e-07
2.30209e-07
2.02305e-07
1.90141e-07
1.83749e-07
1.79345e-07
1.75414e-07
1.71617e-07
1.678e-07
1.64006e-07
1.60594e-07
1.58359e-07
1.58303e-07
1.60979e-07
1.65053e-07
1.6767e-07
1.52162e-07
1.27356e-07
5.34236e-07
4.12302e-07
2.93348e-07
2.31314e-07
2.03544e-07
1.91376e-07
1.84912e-07
1.80371e-07
1.76275e-07
1.72299e-07
1.6832e-07
1.64412e-07
1.60965e-07
1.58745e-07
1.58706e-07
1.61478e-07
1.65749e-07
1.68786e-07
1.55269e-07
1.29336e-07
5.35336e-07
4.12338e-07
2.9378e-07
2.32153e-07
2.04509e-07
1.92307e-07
1.85714e-07
1.81014e-07
1.76763e-07
1.72661e-07
1.68609e-07
1.64669e-07
1.61211e-07
1.58946e-07
1.58803e-07
1.61502e-07
1.65847e-07
1.69475e-07
1.61556e-07
1.32253e-07
5.36274e-07
4.11934e-07
2.93785e-07
2.32585e-07
2.05103e-07
1.92877e-07
1.86171e-07
1.8135e-07
1.77014e-07
1.72882e-07
1.68861e-07
1.65006e-07
1.61634e-07
1.59378e-07
1.5912e-07
1.61552e-07
1.65542e-07
1.69481e-07
1.67993e-07
1.34301e-07
5.36853e-07
4.10974e-07
2.93347e-07
2.32656e-07
2.05401e-07
1.93206e-07
1.86461e-07
1.81609e-07
1.77277e-07
1.73173e-07
1.69193e-07
1.65392e-07
1.62075e-07
1.5984e-07
1.59537e-07
1.6176e-07
1.65367e-07
1.68727e-07
1.68941e-07
1.34942e-07
5.36977e-07
4.09635e-07
2.92652e-07
2.32546e-07
2.05594e-07
1.9352e-07
1.86825e-07
1.82031e-07
1.7778e-07
1.73744e-07
1.69789e-07
1.65974e-07
1.62612e-07
1.60315e-07
1.59931e-07
1.61922e-07
1.64969e-07
1.65897e-07
1.62667e-07
1.35809e-07
5.36789e-07
4.08212e-07
2.9195e-07
2.32473e-07
2.05895e-07
1.94017e-07
1.87437e-07
1.8274e-07
1.78571e-07
1.74571e-07
1.70603e-07
1.66733e-07
1.63293e-07
1.60928e-07
1.60512e-07
1.62361e-07
1.64785e-07
1.6236e-07
1.55913e-07
1.35132e-07
5.36571e-07
4.06968e-07
2.91419e-07
2.32589e-07
2.06421e-07
1.94786e-07
1.88347e-07
1.83748e-07
1.79617e-07
1.75582e-07
1.71533e-07
1.67562e-07
1.64035e-07
1.61632e-07
1.61274e-07
1.63122e-07
1.65115e-07
1.59976e-07
1.58868e-07
1.36714e-07
5.3656e-07
4.05987e-07
2.91115e-07
2.32917e-07
2.07158e-07
1.95765e-07
1.89452e-07
1.84924e-07
1.80786e-07
1.76672e-07
1.72514e-07
1.68445e-07
1.64857e-07
1.62484e-07
1.62287e-07
1.64264e-07
1.65849e-07
1.55003e-07
1.56701e-07
1.39157e-07
5.36815e-07
4.05203e-07
2.90998e-07
2.334e-07
2.08021e-07
1.96832e-07
1.90608e-07
1.86106e-07
1.81924e-07
1.77729e-07
1.73483e-07
1.69356e-07
1.65752e-07
1.63471e-07
1.63534e-07
1.65854e-07
1.67591e-07
1.55146e-07
1.55705e-07
1.41571e-07
5.3726e-07
4.04533e-07
2.90994e-07
2.33957e-07
2.08909e-07
1.97884e-07
1.91714e-07
1.87206e-07
1.82973e-07
1.7873e-07
1.7445e-07
1.70327e-07
1.66752e-07
1.64545e-07
1.64751e-07
1.67226e-07
1.68926e-07
1.602e-07
1.57419e-07
1.43914e-07
5.37824e-07
4.03998e-07
2.91113e-07
2.34576e-07
2.09805e-07
1.98902e-07
1.92757e-07
1.88235e-07
1.83972e-07
1.79717e-07
1.75455e-07
1.71399e-07
1.67928e-07
1.65851e-07
1.66185e-07
1.68672e-07
1.70003e-07
1.63098e-07
1.59587e-07
1.46199e-07
5.385e-07
4.03771e-07
2.91453e-07
2.35329e-07
2.10773e-07
1.99949e-07
1.93815e-07
1.89284e-07
1.85022e-07
1.80786e-07
1.76548e-07
1.72529e-07
1.6911e-07
1.67122e-07
1.67596e-07
1.70107e-07
1.70899e-07
1.63122e-07
1.62017e-07
1.48396e-07
5.3949e-07
4.04074e-07
2.92147e-07
2.36311e-07
2.11902e-07
2.0112e-07
1.94988e-07
1.90454e-07
1.86207e-07
1.82008e-07
1.77807e-07
1.73793e-07
1.7034e-07
1.6831e-07
1.68814e-07
1.71353e-07
1.71434e-07
1.63208e-07
1.63202e-07
1.51399e-07
5.41088e-07
4.05016e-07
2.93256e-07
2.37568e-07
2.13243e-07
2.02469e-07
1.96327e-07
1.91771e-07
1.87518e-07
1.83328e-07
1.79144e-07
1.75121e-07
1.71605e-07
1.69462e-07
1.69874e-07
1.72504e-07
1.73051e-07
1.65282e-07
1.65568e-07
1.54839e-07
5.43433e-07
4.0655e-07
2.94691e-07
2.39055e-07
2.14758e-07
2.0397e-07
1.9781e-07
1.93214e-07
1.88923e-07
1.84698e-07
1.8048e-07
1.76416e-07
1.72826e-07
1.70553e-07