/*--------------------------------*- C++ -*----------------------------------*\
  =========                 |
  \\      /  F ield         | OpenFOAM: The Open Source CFD Toolbox
   \\    /   O peration     | Website:  https://openfoam.org
    \\  /    A nd           | Version:  8
     \\/     M anipulation  |
\*---------------------------------------------------------------------------*/
FoamFile
{
    version     2.0;
    format      ascii;
    class       volScalarField;
    location    "1000";
    object      nut;
}
// * * * * * * * * * * * * * * * * * * * * * * * * * * * * * * * * * * * * * //

dimensions      [0 2 -1 0 0 0 0];

internalField   nonuniform List<scalar> 
8400
(
0.000108899
0.00010987
0.000110816
0.000111376
0.0001117
0.000111983
0.000112385
0.000113047
0.00011409
0.000115252
0.000115384
0.000113665
0.000110947
0.000108749
0.000107328
0.000106166
0.000105088
0.000104045
0.000103009
0.000101962
0.000100887
9.97693e-05
9.85953e-05
9.73546e-05
9.60403e-05
9.55592e-05
9.57248e-05
9.66684e-05
9.85045e-05
0.000101235
0.000104698
0.000108487
0.000111836
0.000113811
0.000114025
0.000112965
0.000111374
0.000109762
0.00010853
0.000107974
0.000108199
0.000109396
0.000111361
0.000113969
0.000117769
0.000123065
0.000128541
0.000132949
0.000135795
0.000135994
6.19187e-05
6.23819e-05
6.30213e-05
6.37574e-05
6.4439e-05
6.51458e-05
6.59279e-05
6.68656e-05
6.81649e-05
7.01311e-05
7.23809e-05
7.34416e-05
7.29977e-05
7.21602e-05
7.04496e-05
6.86738e-05
6.6893e-05
6.51257e-05
6.34046e-05
6.17795e-05
6.03174e-05
5.91288e-05
5.83846e-05
5.83233e-05
5.92501e-05
5.94067e-05
5.95585e-05
5.97432e-05
5.99967e-05
6.03825e-05
6.1e-05
6.19799e-05
6.33351e-05
6.45969e-05
6.51082e-05
6.49649e-05
6.46521e-05
6.4362e-05
6.42277e-05
6.43901e-05
6.48683e-05
6.59376e-05
6.76174e-05
6.979e-05
7.2912e-05
7.792e-05
8.33368e-05
8.73801e-05
8.98511e-05
9.20514e-05
6.09674e-05
5.71979e-05
4.9915e-05
5.42424e-05
5.74419e-05
5.88113e-05
5.89771e-05
5.86853e-05
5.90337e-05
6.08135e-05
6.26289e-05
6.38769e-05
6.44645e-05
6.33536e-05
6.22381e-05
6.11762e-05
6.01909e-05
5.93409e-05
5.86827e-05
5.82575e-05
5.80816e-05
5.81541e-05
5.84444e-05
5.88285e-05
5.89876e-05
5.91223e-05
5.92119e-05
5.92273e-05
5.91539e-05
5.89189e-05
5.83097e-05
5.70867e-05
5.56835e-05
5.52359e-05
5.58052e-05
5.60761e-05
5.62808e-05
5.65217e-05
5.67653e-05
5.6873e-05
5.71718e-05
5.7107e-05
5.6786e-05
5.66394e-05
5.6618e-05
5.84466e-05
6.30352e-05
6.64501e-05
6.80042e-05
6.96325e-05
6.1445e-05
6.13833e-05
6.13194e-05
6.12558e-05
6.11944e-05
6.11359e-05
6.1078e-05
6.10185e-05
6.09557e-05
6.08983e-05
6.08415e-05
6.08156e-05
6.07964e-05
6.07953e-05
6.07857e-05
6.07413e-05
6.06525e-05
6.05201e-05
6.03539e-05
6.01699e-05
5.99931e-05
5.98588e-05
5.97697e-05
5.96673e-05
5.9733e-05
5.97657e-05
5.97464e-05
5.97005e-05
5.96411e-05
5.95668e-05
5.94732e-05
5.93525e-05
5.91955e-05
5.90376e-05
5.85666e-05
5.80778e-05
5.78233e-05
5.79403e-05
5.80162e-05
5.67898e-05
5.79994e-05
5.88672e-05
5.83953e-05
5.80175e-05
5.71124e-05
5.06581e-05
5.26278e-05
5.43749e-05
5.63067e-05
5.71449e-05
6.14729e-05
6.14447e-05
6.14163e-05
6.1388e-05
6.13597e-05
6.13315e-05
6.13032e-05
6.1274e-05
6.12442e-05
6.12094e-05
6.11732e-05
6.11341e-05
6.10906e-05
6.1044e-05
6.09954e-05
6.09443e-05
6.08896e-05
6.08299e-05
6.07648e-05
6.06954e-05
6.06254e-05
6.0561e-05
6.05098e-05
6.04441e-05
6.03586e-05
6.0272e-05
6.01868e-05
6.01043e-05
6.00238e-05
5.99443e-05
5.98647e-05
5.97827e-05
5.96967e-05
5.9596e-05
5.94681e-05
5.93188e-05
5.91722e-05
5.90129e-05
5.87883e-05
5.87428e-05
5.87249e-05
5.87704e-05
5.90729e-05
6.04659e-05
7.29828e-05
5.46548e-05
4.75752e-05
4.81628e-05
4.99078e-05
5.01057e-05
6.14577e-05
6.14127e-05
6.13678e-05
6.13222e-05
6.12767e-05
6.12291e-05
6.11816e-05
6.11354e-05
6.10916e-05
6.10499e-05
6.10111e-05
6.09749e-05
6.09402e-05
6.0906e-05
6.08717e-05
6.08361e-05
6.07981e-05
6.07576e-05
6.07143e-05
6.06679e-05
6.06186e-05
6.05679e-05
6.05174e-05
6.04666e-05
6.0404e-05
6.03392e-05
6.02726e-05
6.02047e-05
6.01358e-05
6.00667e-05
5.99978e-05
5.99291e-05
5.98601e-05
5.97841e-05
5.97003e-05
5.96079e-05
5.95083e-05
5.94006e-05
5.92904e-05
5.92085e-05
5.91681e-05
5.91969e-05
5.94215e-05
6.01701e-05
6.19045e-05
5.86614e-05
6.59296e-05
5.39755e-05
4.65764e-05
4.61562e-05
6.14605e-05
6.14181e-05
6.13749e-05
6.13309e-05
6.12864e-05
6.12412e-05
6.11954e-05
6.11488e-05
6.11013e-05
6.10533e-05
6.10052e-05
6.09569e-05
6.09088e-05
6.08617e-05
6.08166e-05
6.07725e-05
6.07297e-05
6.06871e-05
6.06438e-05
6.05995e-05
6.05536e-05
6.05063e-05
6.04563e-05
6.04038e-05
6.03487e-05
6.02917e-05
6.02294e-05
6.01642e-05
6.0097e-05
6.00289e-05
5.99627e-05
5.98954e-05
5.9826e-05
5.97554e-05
5.9683e-05
5.96067e-05
5.9526e-05
5.94421e-05
5.93585e-05
5.9286e-05
5.92452e-05
5.92815e-05
5.95011e-05
6.00608e-05
6.09202e-05
6.06981e-05
6.33737e-05
6.28406e-05
4.85345e-05
4.40661e-05
6.1455e-05
6.14072e-05
6.13582e-05
6.13088e-05
6.12598e-05
6.12103e-05
6.11598e-05
6.1109e-05
6.10585e-05
6.10079e-05
6.09565e-05
6.09053e-05
6.08545e-05
6.08039e-05
6.07539e-05
6.0705e-05
6.06568e-05
6.06097e-05
6.05626e-05
6.05145e-05
6.04657e-05
6.04152e-05
6.03624e-05
6.03064e-05
6.0246e-05
6.01814e-05
6.0117e-05
6.00497e-05
5.99792e-05
5.99046e-05
5.9824e-05
5.9744e-05
5.96687e-05
5.95982e-05
5.953e-05
5.94627e-05
5.93963e-05
5.93292e-05
5.92634e-05
5.92105e-05
5.91972e-05
5.92732e-05
5.95308e-05
6.00606e-05
6.07922e-05
6.13237e-05
6.28871e-05
6.26518e-05
5.32484e-05
4.3239e-05
6.14465e-05
6.13883e-05
6.13301e-05
6.12721e-05
6.1213e-05
6.11548e-05
6.10965e-05
6.10388e-05
6.09805e-05
6.09225e-05
6.08646e-05
6.08085e-05
6.07525e-05
6.06982e-05
6.06451e-05
6.0593e-05
6.0542e-05
6.04912e-05
6.04407e-05
6.03901e-05
6.03374e-05
6.02827e-05
6.02253e-05
6.01635e-05
6.00969e-05
6.00256e-05
5.99491e-05
5.98683e-05
5.97848e-05
5.97003e-05
5.96169e-05
5.95363e-05
5.94597e-05
5.93889e-05
5.93236e-05
5.92624e-05
5.92037e-05
5.91477e-05
5.91002e-05
5.90733e-05
5.90984e-05
5.92324e-05
5.95532e-05
6.01127e-05
6.08407e-05
6.15675e-05
6.25574e-05
6.16482e-05
5.42273e-05
4.43826e-05
6.14312e-05
6.13552e-05
6.12791e-05
6.12048e-05
6.11315e-05
6.10588e-05
6.09866e-05
6.09161e-05
6.08467e-05
6.07791e-05
6.07138e-05
6.06496e-05
6.05892e-05
6.05307e-05
6.04735e-05
6.04189e-05
6.03654e-05
6.03122e-05
6.02592e-05
6.02053e-05
6.015e-05
6.00919e-05
6.0029e-05
5.9961e-05
5.98881e-05
5.98095e-05
5.97251e-05
5.96358e-05
5.95435e-05
5.94506e-05
5.93603e-05
5.92769e-05
5.92006e-05
5.91323e-05
5.90712e-05
5.90178e-05
5.89706e-05
5.89299e-05
5.89017e-05
5.89073e-05
5.89836e-05
5.91879e-05
5.95861e-05
6.01919e-05
6.09166e-05
6.16146e-05
6.20799e-05
6.04059e-05
5.36588e-05
4.48833e-05
6.14011e-05
6.12884e-05
6.1181e-05
6.1077e-05
6.09784e-05
6.08843e-05
6.07916e-05
6.07025e-05
6.06208e-05
6.05434e-05
6.04685e-05
6.04e-05
6.03332e-05
6.02717e-05
6.02145e-05
6.01588e-05
6.01065e-05
6.00554e-05
6.00031e-05
5.99491e-05
5.98918e-05
5.98296e-05
5.97628e-05
5.96898e-05
5.96085e-05
5.95204e-05
5.94262e-05
5.9325e-05
5.92218e-05
5.9123e-05
5.90305e-05
5.89487e-05
5.88777e-05
5.8818e-05
5.87696e-05
5.87322e-05
5.87018e-05
5.86824e-05
5.86862e-05
5.87354e-05
5.88759e-05
5.91615e-05
5.96375e-05
6.02763e-05
6.09517e-05
6.14687e-05
6.1351e-05
5.89225e-05
5.2504e-05
4.47312e-05
6.13297e-05
6.11352e-05
6.09689e-05
6.08168e-05
6.06796e-05
6.05606e-05
6.04467e-05
6.03496e-05
6.02544e-05
6.01718e-05
6.00945e-05
6.0023e-05
5.99608e-05
5.9903e-05
5.98522e-05
5.98072e-05
5.97625e-05
5.97165e-05
5.96688e-05
5.9619e-05
5.95615e-05
5.94953e-05
5.94238e-05
5.93423e-05
5.92479e-05
5.9146e-05
5.90375e-05
5.89222e-05
5.88096e-05
5.8705e-05
5.86102e-05
5.85416e-05
5.84951e-05
5.84592e-05
5.84346e-05
5.84216e-05
5.84196e-05
5.84271e-05
5.84722e-05
5.85786e-05
5.87915e-05
5.91619e-05
5.97015e-05
6.03291e-05
6.08749e-05
6.10773e-05
6.03078e-05
5.71927e-05
5.10578e-05
4.42659e-05
6.08553e-05
6.05928e-05
6.04103e-05
6.02547e-05
6.01215e-05
6.00036e-05
5.99017e-05
5.98015e-05
5.97225e-05
5.96464e-05
5.9588e-05
5.95431e-05
5.95047e-05
5.94655e-05
5.94276e-05
5.93958e-05
5.93651e-05
5.93281e-05
5.92822e-05
5.92263e-05
5.91624e-05
5.90855e-05
5.89904e-05
5.88846e-05
5.87672e-05
5.86341e-05
5.8503e-05
5.83883e-05
5.82906e-05
5.8216e-05
5.81601e-05
5.81267e-05
5.81083e-05
5.81052e-05
5.81162e-05
5.81295e-05
5.81588e-05
5.82159e-05
5.8316e-05
5.84844e-05
5.87554e-05
5.91469e-05
5.96464e-05
6.01726e-05
6.06577e-05
6.03654e-05
5.89039e-05
5.52487e-05
4.94867e-05
4.36245e-05
5.96848e-05
5.94793e-05
5.93392e-05
5.92311e-05
5.91554e-05
5.90984e-05
5.90597e-05
5.90349e-05
5.90204e-05
5.90109e-05
5.90061e-05
5.90044e-05
5.90007e-05
5.89911e-05
5.89763e-05
5.89549e-05
5.89243e-05
5.88828e-05
5.88277e-05
5.87596e-05
5.86791e-05
5.85823e-05
5.84738e-05
5.8361e-05
5.82445e-05
5.81303e-05
5.80289e-05
5.79447e-05
5.78804e-05
5.78387e-05
5.78132e-05
5.78059e-05
5.78129e-05
5.78284e-05
5.78533e-05
5.78905e-05
5.79445e-05
5.80258e-05
5.81463e-05
5.83188e-05
5.85571e-05
5.88576e-05
5.91953e-05
5.94981e-05
5.97255e-05
5.95272e-05
5.71264e-05
5.31538e-05
4.78952e-05
4.29057e-05
5.83358e-05
5.82568e-05
5.82156e-05
5.82025e-05
5.82102e-05
5.82332e-05
5.82656e-05
5.83043e-05
5.83444e-05
5.83827e-05
5.84167e-05
5.84442e-05
5.84625e-05
5.84705e-05
5.84678e-05
5.8452e-05
5.84223e-05
5.8379e-05
5.83227e-05
5.82539e-05
5.81731e-05
5.80828e-05
5.79885e-05
5.78938e-05
5.78023e-05
5.77205e-05
5.76512e-05
5.75953e-05
5.75533e-05
5.75242e-05
5.75033e-05
5.74895e-05
5.7482e-05
5.74785e-05
5.74795e-05
5.74869e-05
5.75062e-05
5.7541e-05
5.75989e-05
5.76869e-05
5.78031e-05
5.79385e-05
5.8065e-05
5.80994e-05
5.7986e-05
5.78757e-05
5.52997e-05
5.10022e-05
4.63481e-05
4.21589e-05
5.7513e-05
5.7521e-05
5.75437e-05
5.75766e-05
5.7617e-05
5.76624e-05
5.771e-05
5.77569e-05
5.78023e-05
5.78442e-05
5.788e-05
5.79092e-05
5.79301e-05
5.79399e-05
5.79381e-05
5.79244e-05
5.78984e-05
5.78606e-05
5.78115e-05
5.77522e-05
5.7685e-05
5.76116e-05
5.75338e-05
5.74545e-05
5.73759e-05
5.72987e-05
5.7223e-05
5.71483e-05
5.70736e-05
5.69977e-05
5.69184e-05
5.68356e-05
5.675e-05
5.66601e-05
5.65706e-05
5.64824e-05
5.63989e-05
5.63275e-05
5.62695e-05
5.62305e-05
5.62074e-05
5.61876e-05
5.61325e-05
5.59591e-05
5.5606e-05
5.54371e-05
5.33437e-05
4.88535e-05
4.48548e-05
4.13785e-05
5.71724e-05
5.71964e-05
5.72238e-05
5.72525e-05
5.72825e-05
5.73121e-05
5.73415e-05
5.73692e-05
5.73945e-05
5.74171e-05
5.74349e-05
5.74468e-05
5.74519e-05
5.74488e-05
5.74361e-05
5.74133e-05
5.73795e-05
5.73334e-05
5.72747e-05
5.72041e-05
5.71222e-05
5.70282e-05
5.69217e-05
5.68033e-05
5.66736e-05
5.65312e-05
5.63752e-05
5.6206e-05
5.60236e-05
5.58293e-05
5.56236e-05
5.54086e-05
5.51869e-05
5.4962e-05
5.47362e-05
5.45161e-05
5.43063e-05
5.41149e-05
5.39482e-05
5.38094e-05
5.36924e-05
5.35831e-05
5.34339e-05
5.31728e-05
5.27517e-05
5.26629e-05
5.11197e-05
4.6729e-05
4.3361e-05
4.04848e-05
5.69605e-05
5.69678e-05
5.69745e-05
5.69797e-05
5.69832e-05
5.69852e-05
5.69848e-05
5.69813e-05
5.69744e-05
5.69629e-05
5.69461e-05
5.69223e-05
5.68902e-05
5.68483e-05
5.6795e-05
5.67284e-05
5.66465e-05
5.65482e-05
5.64321e-05
5.62962e-05
5.61388e-05
5.59586e-05
5.5755e-05
5.55271e-05
5.52744e-05
5.49978e-05
5.46981e-05
5.43778e-05
5.40381e-05
5.36821e-05
5.33142e-05
5.29404e-05
5.25645e-05
5.21937e-05
5.18346e-05
5.14952e-05
5.11854e-05
5.09134e-05
5.06879e-05
5.0513e-05
5.03794e-05
5.02663e-05
5.01316e-05
4.99168e-05
4.9594e-05
4.98619e-05
4.85342e-05
4.45953e-05
4.17788e-05
3.93893e-05
5.65979e-05
5.65658e-05
5.65304e-05
5.6491e-05
5.64485e-05
5.64013e-05
5.63497e-05
5.62924e-05
5.62284e-05
5.61562e-05
5.60744e-05
5.59817e-05
5.5876e-05
5.57551e-05
5.56169e-05
5.54593e-05
5.528e-05
5.50767e-05
5.48466e-05
5.4588e-05
5.42998e-05
5.39806e-05
5.36304e-05
5.32493e-05
5.28378e-05
5.23987e-05
5.19349e-05
5.14499e-05
5.09484e-05
5.04365e-05
4.99209e-05
4.94088e-05
4.89093e-05
4.84324e-05
4.79883e-05
4.75861e-05
4.72381e-05
4.69534e-05
4.67403e-05
4.65996e-05
4.65221e-05
4.64835e-05
4.6447e-05
4.63664e-05
4.62662e-05
4.70516e-05
4.55168e-05
4.23621e-05
4.00667e-05
3.81275e-05
7.96477e-05
7.88505e-05
7.80279e-05
7.71738e-05
7.62914e-05
7.53855e-05
7.44618e-05
7.3526e-05
7.25843e-05
7.16416e-05
7.07016e-05
6.97669e-05
6.88389e-05
6.79175e-05
6.70013e-05
6.60885e-05
6.51759e-05
6.42594e-05
6.33354e-05
6.24004e-05
6.14507e-05
6.04833e-05
5.94966e-05
5.84899e-05
5.7464e-05
5.64211e-05
5.5365e-05
5.43017e-05
5.32379e-05
5.21825e-05
5.11463e-05
5.01415e-05
4.91822e-05
4.8283e-05
4.7459e-05
4.67209e-05
4.60766e-05
4.55279e-05
4.50724e-05
4.47008e-05
4.43986e-05
4.41457e-05
4.39233e-05
4.37124e-05
4.35581e-05
4.39713e-05
4.19111e-05
3.97616e-05
3.83547e-05
3.73332e-05
5.48206e-06
5.4581e-06
5.43135e-06
5.40474e-06
5.3801e-06
5.3576e-06
5.33744e-06
5.31941e-06
5.30302e-06
5.28762e-06
5.27249e-06
5.25695e-06
5.24039e-06
5.22233e-06
5.20255e-06
5.18102e-06
5.15798e-06
5.13379e-06
5.10898e-06
5.08407e-06
5.05967e-06
5.04985e-06
5.00206e-06
4.97443e-06
4.9476e-06
4.92335e-06
4.90191e-06
4.88275e-06
4.8651e-06
4.84811e-06
4.83102e-06
4.81563e-06
4.79869e-06
4.77917e-06
4.75699e-06
4.73246e-06
4.7061e-06
4.67857e-06
4.65024e-06
4.62197e-06
4.59534e-06
4.57176e-06
4.55234e-06
4.53766e-06
4.52768e-06
4.52171e-06
4.51838e-06
4.51609e-06
4.51419e-06
4.512e-06
5.41339e-06
5.2898e-06
5.16672e-06
5.04806e-06
4.93705e-06
4.83487e-06
4.74097e-06
4.65431e-06
4.57362e-06
4.49757e-06
4.42483e-06
4.35417e-06
4.28457e-06
4.21538e-06
4.14635e-06
4.07767e-06
4.00988e-06
3.94382e-06
3.88052e-06
3.81925e-06
3.76467e-06
1.5975e-05
1.59851e-05
1.59661e-05
1.59807e-05
1.60059e-05
1.60272e-05
1.60372e-05
1.60321e-05
1.60099e-05
1.59697e-05
1.58971e-05
1.58107e-05
1.57231e-05
1.56396e-05
1.5561e-05
1.54863e-05
1.54151e-05
1.53505e-05
1.52956e-05
1.52521e-05
1.52226e-05
1.52088e-05
1.52111e-05
1.52275e-05
1.52526e-05
1.52767e-05
1.52851e-05
1.52604e-05
1.51941e-05
5.41294e-06
5.28884e-06
5.16512e-06
5.04549e-06
4.93225e-06
4.82607e-06
4.72689e-06
4.63407e-06
4.54668e-06
4.46368e-06
4.38399e-06
4.30658e-06
4.23065e-06
4.15564e-06
4.08132e-06
4.00774e-06
3.93526e-06
3.86443e-06
3.79501e-06
3.65752e-06
1.54928e-05
1.54714e-05
1.54185e-05
1.53476e-05
1.52716e-05
1.51961e-05
1.51228e-05
1.50508e-05
1.4978e-05
1.49022e-05
1.48209e-05
1.47318e-05
1.46349e-05
1.45307e-05
1.44201e-05
1.43043e-05
1.41851e-05
1.40651e-05
1.39479e-05
1.38381e-05
1.37396e-05
1.36557e-05
1.35885e-05
1.35385e-05
1.35044e-05
1.34829e-05
1.3469e-05
1.34538e-05
1.34223e-05
1.33524e-05
5.41309e-06
5.29058e-06
5.16867e-06
5.05059e-06
4.93847e-06
4.83292e-06
4.73386e-06
4.64076e-06
4.55284e-06
4.46916e-06
4.38872e-06
4.3106e-06
4.23406e-06
4.15857e-06
4.08392e-06
4.01014e-06
3.93752e-06
3.86653e-06
3.79791e-06
1.59985e-05
1.58446e-05
1.56827e-05
1.55314e-05
1.53963e-05
1.52772e-05
1.51717e-05
1.50761e-05
1.49865e-05
1.4899e-05
1.48102e-05
1.47171e-05
1.46174e-05
1.45097e-05
1.43933e-05
1.42686e-05
1.41364e-05
1.39988e-05
1.38589e-05
1.37208e-05
1.35891e-05
1.34683e-05
1.3362e-05
1.32727e-05
1.32009e-05
1.31445e-05
1.30999e-05
1.3062e-05
1.30268e-05
1.29885e-05
1.29291e-05
5.41331e-06
5.29177e-06
5.17072e-06
5.05308e-06
4.94099e-06
4.8351e-06
4.73541e-06
4.64149e-06
4.55265e-06
4.46806e-06
4.3868e-06
4.30803e-06
4.23104e-06
4.15534e-06
4.08071e-06
4.00716e-06
3.93494e-06
3.86446e-06
3.79535e-06
3.65765e-06
1.54941e-05
1.54745e-05
1.54143e-05
1.53338e-05
1.52457e-05
1.51564e-05
1.50686e-05
1.4982e-05
1.4895e-05
1.48055e-05
1.47113e-05
1.46103e-05
1.45012e-05
1.43832e-05
1.42563e-05
1.41215e-05
1.39807e-05
1.38371e-05
1.36947e-05
1.35584e-05
1.34326e-05
1.33213e-05
1.32272e-05
1.31513e-05
1.30919e-05
1.30445e-05
1.30014e-05
1.29559e-05
1.29058e-05
1.28419e-05
5.41363e-06
5.29331e-06
5.17345e-06
5.0566e-06
4.94486e-06
4.8389e-06
4.73879e-06
4.64421e-06
4.55458e-06
4.46915e-06
4.38713e-06
4.30776e-06
4.23039e-06
4.15458e-06
4.08008e-06
4.00689e-06
3.93517e-06
3.86525e-06
3.79669e-06
3.65753e-06
1.54978e-05
1.54801e-05
1.54226e-05
1.53442e-05
1.52573e-05
1.51683e-05
1.508e-05
1.49925e-05
1.49045e-05
1.48139e-05
1.47187e-05
1.4617e-05
1.45073e-05
1.43887e-05
1.4261e-05
1.4125e-05
1.39826e-05
1.38371e-05
1.36927e-05
1.35541e-05
1.3426e-05
1.33122e-05
1.32155e-05
1.3137e-05
1.30761e-05
1.30293e-05
1.29892e-05
1.2946e-05
1.28942e-05
1.28281e-05
5.41406e-06
5.2951e-06
5.1765e-06
5.06041e-06
4.94883e-06
4.84249e-06
4.74157e-06
4.64588e-06
4.55499e-06
4.4683e-06
4.38515e-06
4.30488e-06
4.22692e-06
4.15086e-06
4.07644e-06
4.00359e-06
3.93242e-06
3.86315e-06
3.79521e-06
3.65661e-06
1.54901e-05
1.54743e-05
1.54182e-05
1.53408e-05
1.52545e-05
1.51658e-05
1.50779e-05
1.49909e-05
1.49037e-05
1.48144e-05
1.47209e-05
1.46212e-05
1.45134e-05
1.43965e-05
1.427e-05
1.41345e-05
1.3992e-05
1.38457e-05
1.37e-05
1.35597e-05
1.34298e-05
1.3314e-05
1.32152e-05
1.3134e-05
1.30698e-05
1.30199e-05
1.29786e-05
1.29368e-05
1.28863e-05
1.28209e-05
5.41457e-06
5.29713e-06
5.17992e-06
5.06466e-06
4.95327e-06
4.84654e-06
4.74478e-06
4.64793e-06
4.55574e-06
4.46777e-06
4.38349e-06
4.30237e-06
4.22391e-06
4.14772e-06
4.07352e-06
4.00119e-06
3.93071e-06
3.8622e-06
3.79496e-06
3.65688e-06
1.54906e-05
1.54756e-05
1.54199e-05
1.53425e-05
1.52556e-05
1.51663e-05
1.50778e-05
1.49906e-05
1.49038e-05
1.48154e-05
1.47232e-05
1.4625e-05
1.45188e-05
1.44032e-05
1.42774e-05
1.41421e-05
1.39991e-05
1.38517e-05
1.37044e-05
1.35622e-05
1.343e-05
1.3312e-05
1.32111e-05
1.31282e-05
1.30618e-05
1.30091e-05
1.29651e-05
1.2922e-05
1.28717e-05
1.28069e-05
5.41514e-06
5.29935e-06
5.1836e-06
5.06919e-06
4.95796e-06
4.85076e-06
4.74801e-06
4.64986e-06
4.5562e-06
4.46679e-06
4.38124e-06
4.29917e-06
4.22014e-06
4.14378e-06
4.06979e-06
3.99796e-06
3.92815e-06
3.86035e-06
3.79377e-06
3.65751e-06
1.54798e-05
1.5463e-05
1.5408e-05
1.53318e-05
1.5246e-05
1.51574e-05
1.50695e-05
1.49831e-05
1.48974e-05
1.48105e-05
1.47201e-05
1.46239e-05
1.45196e-05
1.44055e-05
1.42807e-05
1.41458e-05
1.40026e-05
1.38547e-05
1.37065e-05
1.3563e-05
1.34291e-05
1.33091e-05
1.32061e-05
1.31214e-05
1.30536e-05
1.29993e-05
1.29534e-05
1.29088e-05
1.28577e-05
1.27931e-05
5.41576e-06
5.30167e-06
5.18741e-06
5.07385e-06
4.96278e-06
4.85508e-06
4.75132e-06
4.65182e-06
4.55668e-06
4.46582e-06
4.37905e-06
4.29606e-06
4.21653e-06
4.14006e-06
4.06632e-06
3.99501e-06
3.92587e-06
3.85878e-06
3.7945e-06
1.60629e-05
1.57903e-05
1.56067e-05
1.54665e-05
1.5349e-05
1.52445e-05
1.51484e-05
1.50585e-05
1.49725e-05
1.48884e-05
1.48038e-05
1.4716e-05
1.46223e-05
1.45203e-05
1.44081e-05
1.42846e-05
1.41505e-05
1.40076e-05
1.38596e-05
1.37109e-05
1.35667e-05
1.34319e-05
1.33105e-05
1.32059e-05
1.31193e-05
1.30497e-05
1.29937e-05
1.29458e-05
1.28993e-05
1.28467e-05
1.27812e-05
5.41639e-06
5.30399e-06
5.1912e-06
5.07849e-06
4.96755e-06
4.85934e-06
4.75458e-06
4.65375e-06
4.55713e-06
4.46485e-06
4.37687e-06
4.29301e-06
4.21298e-06
4.13641e-06
4.0629e-06
3.99206e-06
3.92353e-06
3.85707e-06
3.79271e-06
1.59578e-05
1.58314e-05
1.56962e-05
1.5559e-05
1.54263e-05
1.53022e-05
1.51884e-05
1.50845e-05
1.49889e-05
1.48989e-05
1.48112e-05
1.47223e-05
1.46289e-05
1.45277e-05
1.44162e-05
1.42934e-05
1.41596e-05
1.40168e-05
1.38683e-05
1.3719e-05
1.35738e-05
1.34376e-05
1.33148e-05
1.32083e-05
1.31194e-05
1.30473e-05
1.29886e-05
1.29378e-05
1.28883e-05
1.2833e-05
1.27656e-05
5.41701e-06
5.30619e-06
5.19484e-06
5.08297e-06
4.97218e-06
4.86347e-06
4.75772e-06
4.65559e-06
4.55755e-06
4.46392e-06
4.37481e-06
4.29013e-06
4.20964e-06
4.13296e-06
4.05964e-06
3.98919e-06
3.92118e-06
3.85524e-06
3.79132e-06
1.59485e-05
1.58258e-05
1.56929e-05
1.55564e-05
1.54231e-05
1.52978e-05
1.5183e-05
1.50786e-05
1.49833e-05
1.48943e-05
1.48085e-05
1.47219e-05
1.46308e-05
1.45318e-05
1.44222e-05
1.43008e-05
1.41679e-05
1.40254e-05
1.38769e-05
1.3727e-05
1.35808e-05
1.34435e-05
1.33193e-05
1.32112e-05
1.31201e-05
1.30451e-05
1.29829e-05
1.29285e-05
1.28754e-05
1.28168e-05
1.27467e-05
5.41759e-06
5.30826e-06
5.19827e-06
5.08718e-06
4.97653e-06
4.86736e-06
4.76068e-06
4.65734e-06
4.55801e-06
4.46317e-06
4.37308e-06
4.28771e-06
4.20685e-06
4.1301e-06
4.05696e-06
3.98687e-06
3.91929e-06
3.85375e-06
3.79014e-06
1.59408e-05
1.58179e-05
1.56848e-05
1.55478e-05
1.54138e-05
1.52881e-05
1.51732e-05
1.50694e-05
1.49752e-05
1.48883e-05
1.48051e-05
1.47215e-05
1.46335e-05
1.45372e-05
1.443e-05
1.43106e-05
1.4179e-05
1.40375e-05
1.38895e-05
1.37396e-05
1.35931e-05
1.3455e-05
1.33297e-05
1.32199e-05
1.31265e-05
1.30485e-05
1.29827e-05
1.2924e-05
1.28663e-05
1.28033e-05
1.27295e-05
5.41813e-06
5.31016e-06
5.2014e-06
5.09103e-06
4.98046e-06
4.8708e-06
4.7632e-06
4.6587e-06
4.55816e-06
4.46222e-06
4.37122e-06
4.2852e-06
4.20396e-06
4.12708e-06
4.05402e-06
3.98414e-06
3.91681e-06
3.85149e-06
3.788e-06
1.5926e-05
1.57961e-05
1.56609e-05
1.55245e-05
1.53921e-05
1.52682e-05
1.5155e-05
1.50532e-05
1.49617e-05
1.48779e-05
1.47983e-05
1.47185e-05
1.46344e-05
1.4542e-05
1.44382e-05
1.43218e-05
1.41928e-05
1.40531e-05
1.39064e-05
1.37572e-05
1.36112e-05
1.3473e-05
1.33469e-05
1.32357e-05
1.314e-05
1.30587e-05
1.29886e-05
1.29249e-05
1.28619e-05
1.27936e-05
1.27152e-05
5.41862e-06
5.31183e-06
5.20415e-06
5.09439e-06
4.98388e-06
4.87382e-06
4.76549e-06
4.66012e-06
4.55871e-06
4.46199e-06
4.37039e-06
4.28397e-06
4.20253e-06
4.12562e-06
4.05265e-06
3.98293e-06
3.91577e-06
3.85055e-06
3.78764e-06
1.60218e-05
1.57539e-05
1.55698e-05
1.54263e-05
1.53045e-05
1.51965e-05
1.5099e-05
1.50108e-05
1.49303e-05
1.48553e-05
1.47827e-05
1.47085e-05
1.46287e-05
1.45396e-05
1.44386e-05
1.43239e-05
1.41961e-05
1.40573e-05
1.39112e-05
1.37625e-05
1.36167e-05
1.34787e-05
1.33524e-05
1.32403e-05
1.3143e-05
1.30593e-05
1.29859e-05
1.29182e-05
1.28507e-05
1.27782e-05
1.26964e-05
5.41905e-06
5.31317e-06
5.20625e-06
5.09679e-06
4.98609e-06
4.87542e-06
4.76623e-06
4.65989e-06
4.55753e-06
4.46e-06
4.36776e-06
4.28089e-06
4.19916e-06
4.12211e-06
4.04911e-06
3.9794e-06
3.91224e-06
3.847e-06
3.78345e-06
1.58944e-05
1.57685e-05
1.56323e-05
1.5493e-05
1.53583e-05
1.52333e-05
1.51209e-05
1.50215e-05
1.49338e-05
1.48548e-05
1.47807e-05
1.47066e-05
1.46278e-05
1.45401e-05
1.44404e-05
1.4327e-05
1.42001e-05
1.40622e-05
1.39168e-05
1.37692e-05
1.36243e-05
1.34872e-05
1.33615e-05
1.32497e-05
1.3152e-05
1.30673e-05
1.29924e-05
1.29229e-05
1.28537e-05
1.27802e-05
1.2699e-05
5.4194e-06
5.31416e-06
5.20789e-06
5.09886e-06
4.98831e-06
4.87756e-06
4.76814e-06
4.66149e-06
4.55883e-06
4.46103e-06
4.36857e-06
4.28151e-06
4.19963e-06
4.12247e-06
4.04935e-06
3.97948e-06
3.91213e-06
3.84668e-06
3.78292e-06
1.58928e-05
1.57686e-05
1.56334e-05
1.54942e-05
1.5359e-05
1.52337e-05
1.51215e-05
1.50231e-05
1.49372e-05
1.48607e-05
1.47893e-05
1.47181e-05
1.46424e-05
1.45575e-05
1.44604e-05
1.43495e-05
1.42254e-05
1.40904e-05
1.39484e-05
1.38047e-05
1.36643e-05
1.35323e-05
1.34122e-05
1.33064e-05
1.32154e-05
1.31377e-05
1.30703e-05
1.3009e-05
1.29493e-05
1.28871e-05
1.28196e-05
5.41962e-06
5.31398e-06
5.20714e-06
5.09732e-06
4.98585e-06
4.87418e-06
4.76392e-06
4.65661e-06
4.55347e-06
4.45537e-06
4.36277e-06
4.27572e-06
4.19399e-06
4.11707e-06
4.04423e-06
3.97471e-06
3.90775e-06
3.84272e-06
3.7795e-06
1.58764e-05
1.57589e-05
1.56241e-05
1.54841e-05
1.53497e-05
1.52328e-05
1.51371e-05
1.50597e-05
1.49969e-05
1.49441e-05
1.48962e-05
1.48475e-05
1.47927e-05
1.47272e-05
1.46478e-05
1.4553e-05
1.44435e-05
1.43223e-05
1.4194e-05
1.40645e-05
1.39399e-05
1.38257e-05
1.37263e-05
1.36442e-05
1.35799e-05
1.35319e-05
1.34968e-05
1.34702e-05
1.34473e-05
1.34243e-05
1.33987e-05
5.42008e-06
5.31553e-06
5.21026e-06
5.10232e-06
4.99444e-06
4.8866e-06
4.78028e-06
4.67696e-06
4.57794e-06
4.48416e-06
4.39618e-06
4.31421e-06
4.23805e-06
4.16722e-06
4.10101e-06
4.03856e-06
3.97895e-06
3.92148e-06
3.86583e-06
3.81193e-06
1.64051e-05
1.62748e-05
1.60831e-05
1.58871e-05
1.57237e-05
1.57032e-05
1.57541e-05
1.58367e-05
1.59282e-05
1.60143e-05
1.6085e-05
1.61324e-05
1.61511e-05
1.61384e-05
1.60935e-05
1.60186e-05
1.59189e-05
1.58029e-05
1.56809e-05
1.55632e-05
1.54593e-05
1.53762e-05
1.53183e-05
1.52861e-05
1.52773e-05
1.52866e-05
1.53075e-05
1.53334e-05
1.53593e-05
1.53833e-05
5.48962e-06
5.47433e-06
5.45539e-06
5.43316e-06
5.4071e-06
5.37932e-06
5.35083e-06
5.32254e-06
5.29513e-06
5.26908e-06
5.24462e-06
5.22179e-06
5.20044e-06
5.18026e-06
5.16085e-06
5.14176e-06
5.12262e-06
5.10316e-06
5.08331e-06
5.06318e-06
5.04354e-06
5.03778e-06
5.02557e-06
5.01012e-06
4.97237e-06
4.94161e-06
4.91613e-06
4.89429e-06
4.87462e-06
4.8558e-06
4.83677e-06
4.81675e-06
4.79517e-06
4.77184e-06
4.74693e-06
4.72092e-06
4.69439e-06
4.66804e-06
4.64259e-06
4.61854e-06
4.59635e-06
4.57617e-06
4.55791e-06
4.5412e-06
4.52553e-06
4.51023e-06
4.49462e-06
4.47803e-06
4.46003e-06
4.44062e-06
1.02482e-05
8.20494e-06
5.84985e-06
4.56281e-06
3.99959e-06
3.75725e-06
3.63038e-06
3.54176e-06
3.45867e-06
3.37094e-06
3.27742e-06
3.18787e-06
3.11865e-06
3.08326e-06
3.07516e-06
3.11161e-06
4.16476e-06
1.14926e-05
3.24983e-05
1.12305e-05
1.04502e-05
8.30815e-06
5.91567e-06
4.61391e-06
4.04739e-06
3.80436e-06
3.67478e-06
3.58129e-06
3.4895e-06
3.39239e-06
3.2935e-06
3.20417e-06
3.1391e-06
3.11204e-06
3.10846e-06
3.07203e-06
3.32857e-06
5.6219e-06
2.42009e-05
3.74453e-05
1.05391e-05
8.39957e-06
5.97437e-06
4.65933e-06
4.08505e-06
3.8358e-06
3.69855e-06
3.59569e-06
3.49728e-06
3.39848e-06
3.30202e-06
3.21738e-06
3.15733e-06
3.13618e-06
3.13937e-06
3.08808e-06
3.14365e-06
5.07739e-06
1.54117e-05
2.59042e-05
1.06849e-05
8.50998e-06
6.03807e-06
4.70428e-06
4.12077e-06
3.86455e-06
3.72104e-06
3.61294e-06
3.51183e-06
3.41293e-06
3.31787e-06
3.23521e-06
3.17707e-06
3.15937e-06
3.16787e-06
3.11316e-06
3.05805e-06
4.02717e-06
1.0411e-05
1.82855e-05
1.08247e-05
8.60095e-06
6.09034e-06
4.74157e-06
4.15154e-06
3.89094e-06
3.7441e-06
3.6346e-06
3.53298e-06
3.43404e-06
3.3392e-06
3.25578e-06
3.19736e-06
3.18205e-06
3.19997e-06
3.16155e-06
3.07481e-06
3.56515e-06
7.26017e-06
1.31631e-05
1.09461e-05
8.66781e-06
6.13111e-06
4.77411e-06
4.18032e-06
3.91844e-06
3.77223e-06
3.66361e-06
3.56237e-06
3.46333e-06
3.36748e-06
3.28079e-06
3.21804e-06
3.19983e-06
3.22238e-06
3.20607e-06
3.12443e-06
3.26299e-06
5.10098e-06
9.51911e-06
1.10431e-05
8.72135e-06
6.16879e-06
4.80818e-06
4.21331e-06
3.95225e-06
3.8075e-06
3.69977e-06
3.59849e-06
3.49814e-06
3.39962e-06
3.30946e-06
3.24291e-06
3.22206e-06
3.24845e-06
3.25735e-06
3.20464e-06
3.16397e-06
2.9617e-06
5.99228e-06
1.11198e-05
8.7683e-06
6.20836e-06
4.84652e-06
4.25124e-06
3.99105e-06
3.84717e-06
3.73934e-06
3.63645e-06
3.53219e-06
3.42892e-06
3.3337e-06
3.26271e-06
3.2381e-06
3.26644e-06
3.30092e-06
3.29482e-06
3.27731e-06
2.79682e-06
4.12112e-06
1.1189e-05
8.81707e-06
6.25107e-06
4.88747e-06
4.29008e-06
4.02957e-06
3.88483e-06
3.77503e-06
3.66898e-06
3.56062e-06
3.45339e-06
3.35447e-06
3.27868e-06
3.24749e-06
3.27214e-06
3.32441e-06
3.36098e-06
3.39234e-06
2.92851e-06
3.34288e-06
1.12567e-05
8.86471e-06
6.29104e-06
4.9249e-06
4.32433e-06
4.06091e-06
3.91317e-06
3.79892e-06
3.68861e-06
3.57775e-06
3.46916e-06
3.36968e-06
3.29196e-06
3.25436e-06
3.27078e-06
3.32925e-06
3.3916e-06
3.44517e-06
3.09446e-06
3.01612e-06
1.13185e-05
8.89564e-06
6.31889e-06
4.95231e-06
4.34872e-06
4.08119e-06
3.92929e-06
3.81039e-06
3.69694e-06
3.58491e-06
3.47743e-06
3.38087e-06
3.3051e-06
3.26432e-06
3.27149e-06
3.326e-06
3.39977e-06
3.45523e-06
3.23222e-06
2.86841e-06
1.13639e-05
8.899e-06
6.32875e-06
4.96671e-06
4.36065e-06
4.08939e-06
3.93372e-06
3.81243e-06
3.69801e-06
3.58753e-06
3.48386e-06
3.39297e-06
3.32196e-06
3.28104e-06
3.28154e-06
3.32853e-06
3.40371e-06
3.47337e-06
3.2815e-06
2.79122e-06
1.13826e-05
8.87562e-06
6.32399e-06
4.97053e-06
4.36477e-06
4.09173e-06
3.93425e-06
3.81238e-06
3.6991e-06
3.5924e-06
3.49471e-06
3.41034e-06
3.34458e-06
3.30509e-06
3.30204e-06
3.33826e-06
3.40599e-06
3.48273e-06
3.27858e-06
2.70727e-06
1.13738e-05
8.83487e-06
6.31119e-06
4.97029e-06
4.3685e-06
4.09602e-06
3.93847e-06
3.81753e-06
3.70665e-06
3.60444e-06
3.51218e-06
3.43235e-06
3.37014e-06
3.33076e-06
3.32165e-06
3.34769e-06
3.40351e-06
3.48155e-06
3.39781e-06
2.69445e-06
1.13499e-05
8.79452e-06
6.30051e-06
4.9737e-06
4.37722e-06
4.10746e-06
3.9511e-06
3.83194e-06
3.72355e-06
3.62428e-06
3.53412e-06
3.45593e-06
3.39282e-06
3.34956e-06
3.33553e-06
3.35458e-06
3.39695e-06
3.46336e-06
3.25359e-06
2.68444e-06
1.13247e-05
8.76753e-06
6.29874e-06
4.98446e-06
4.39361e-06
4.12689e-06
3.97227e-06
3.85443e-06
3.74721e-06
3.64691e-06
3.55579e-06
3.4748e-06
3.40714e-06
3.35924e-06
3.34367e-06
3.36489e-06
3.40809e-06
3.45633e-06
3.2375e-06
2.70312e-06
1.13116e-05
8.75636e-06
6.30492e-06
5.00068e-06
4.4152e-06
4.15159e-06
3.99754e-06
3.87988e-06
3.77132e-06
3.66786e-06
3.57302e-06
3.48708e-06
3.41397e-06
3.36186e-06
3.34503e-06
3.36674e-06
3.4071e-06
3.43292e-06
3.28081e-06
2.72137e-06
1.13137e-05
8.75073e-06
6.31425e-06
5.01843e-06
4.43683e-06
4.17518e-06
4.02084e-06
3.90185e-06
3.79068e-06
3.68392e-06
3.58481e-06
3.495e-06
3.41906e-06
3.36731e-06
3.35395e-06
3.37828e-06
3.40818e-06
3.38602e-06
3.21064e-06
2.71726e-06
1.13226e-05
8.73746e-06
6.31861e-06
5.03198e-06
4.45267e-06
4.19208e-06
4.0379e-06
3.91801e-06
3.80584e-06
3.69688e-06
3.59499e-06
3.50268e-06
3.42571e-06
3.37629e-06
3.36845e-06
3.39637e-06
3.40987e-06
3.31241e-06
3.15516e-06
2.74154e-06
1.13312e-05
8.70986e-06
6.30928e-06
5.03425e-06
4.45962e-06
4.20111e-06
4.04849e-06
3.93033e-06
3.82015e-06
3.71271e-06
3.61108e-06
3.51861e-06
3.44175e-06
3.39389e-06
3.38951e-06
3.41756e-06
3.40418e-06
3.20918e-06
3.16097e-06
2.76409e-06
1.13303e-05
8.66521e-06
6.28812e-06
5.02672e-06
4.46023e-06
4.20633e-06
4.05796e-06
3.94469e-06
3.83924e-06
3.73648e-06
3.63738e-06
3.54596e-06
3.46915e-06
3.4213e-06
3.41828e-06
3.44387e-06
3.39494e-06
3.09413e-06
3.10029e-06
2.7683e-06
1.1317e-05
8.60959e-06
6.261e-06
5.01653e-06
4.46089e-06
4.21396e-06
4.07292e-06
3.96761e-06
3.86888e-06
3.77173e-06
3.67534e-06
3.58385e-06
3.50519e-06
3.45531e-06
3.45194e-06
3.47296e-06
3.38222e-06
2.96877e-06
2.97882e-06
2.77933e-06
1.12951e-05
8.55726e-06
6.23865e-06
5.01213e-06
4.46829e-06
4.22999e-06
4.0979e-06
4.00164e-06
3.90956e-06
3.81646e-06
3.72129e-06
3.62783e-06
3.54597e-06
3.49359e-06
3.48959e-06
3.5055e-06
3.3682e-06
2.87576e-06
2.78713e-06
2.7611e-06
1.12756e-05
8.52265e-06
6.22985e-06
5.01939e-06