/*--------------------------------*- C++ -*----------------------------------*\
  =========                 |
  \\      /  F ield         | OpenFOAM: The Open Source CFD Toolbox
   \\    /   O peration     | Website:  https://openfoam.org
    \\  /    A nd           | Version:  8
     \\/     M anipulation  |
\*---------------------------------------------------------------------------*/
FoamFile
{
    version     2.0;
    format      ascii;
    class       surfaceScalarField;
    location    "1000";
    object      phi;
}
// * * * * * * * * * * * * * * * * * * * * * * * * * * * * * * * * * * * * * //

dimensions      [1 0 -1 0 0 0 0];

internalField   nonuniform List<scalar> 
16360
(
-2.95876
-0.0979135
-2.87024
-0.0885184
-2.80627
-0.0639871
-2.75166
-0.0546031
-2.69324
-0.058423
-2.62249
-0.0707444
-2.53517
-0.0873294
-2.43198
-0.103191
-2.32374
-0.108238
-2.23474
-0.0890158
-2.18529
-0.0494506
-2.17159
-0.0136879
-2.17801
0.00639189
-2.19576
0.0177481
-2.22156
0.0258115
-2.25478
0.0332277
-2.29453
0.039747
-2.3395
0.0449777
-2.38778
0.0482601
-2.43653
0.0487457
-2.48195
0.0454338
-2.5191
0.0371486
-2.54165
0.0225536
-2.54177
0.000122757
-2.50964
-0.0321185
-2.43518
-0.0744635
-2.31147
-0.123715
-2.13971
-0.171762
-1.93359
-0.206129
-1.71604
-0.217546
-1.51188
-0.204156
-1.34284
-0.169036
-1.22335
-0.119495
-1.15438
-0.0689756
-1.12255
-0.0318275
-1.10824
-0.0143325
-1.09328
-0.0149734
-1.06415
-0.0291257
-1.01422
-0.0499388
-0.943517
-0.0707206
-0.856395
-0.0871287
-0.761034
-0.0953468
-0.663421
-0.0976011
-0.569303
-0.0941056
-0.489717
-0.0795632
-0.434758
-0.0549421
-0.404038
-0.0307315
-0.392604
-0.0114272
-0.394939
0.00233021
0.0106984
-0.405636
-1.76549
-0.202095
-1.76142
-0.0925774
-1.78374
-0.0416359
-1.80063
-0.0377386
-1.80716
-0.0519027
-1.80099
-0.076923
-1.78002
-0.10831
-1.73557
-0.147642
-1.65654
-0.187293
-1.56685
-0.1787
-1.52053
-0.0957578
-1.52953
-0.00469255
-1.55485
0.0317425
-1.57833
0.04122
-1.60412
0.0515842
-1.63449
0.063583
-1.66923
0.0744972
-1.7075
0.0832354
-1.74797
0.0887372
-1.7885
0.0892751
-1.82578
0.0827012
-1.85506
0.0664346
-1.87001
0.0374955
-1.86264
-0.0072458
-1.82636
-0.0684093
-1.75901
-0.14181
-1.65845
-0.224279
-1.52771
-0.302503
-1.38155
-0.35229
-1.2384
-0.360692
-1.11346
-0.329083
-1.01772
-0.264789
-0.958712
-0.178491
-0.936836
-0.0908062
-0.94063
-0.0280323
-0.951772
-0.00320613
-0.955646
-0.0110684
-0.941838
-0.0429063
-0.906063
-0.0857045
-0.850029
-0.126739
-0.776934
-0.160207
-0.699444
-0.172854
-0.624066
-0.173002
-0.550388
-0.167802
-0.485983
-0.144004
-0.446239
-0.0946969
-0.429148
-0.0478205
-0.426582
-0.0139807
-0.434515
0.0102423
0.0257207
-0.449536
0.0646252
-0.156171
-0.00869936
-0.0192291
-0.0484004
-0.00191108
-0.083354
-0.00280565
-0.113229
-0.0220071
-0.139347
-0.0507754
-0.176897
-0.0707605
-0.255952
-0.0685968
-0.400543
-0.0426504
-0.571559
-0.00770888
-0.665731
-0.00159015
-0.677741
0.00731428
-0.683343
0.0373435
-0.708083
0.0659508
-0.739715
0.0832125
-0.769586
0.0934846
-0.792855
0.0977849
-0.807863
0.0982284
-0.814815
0.095665
-0.813304
0.0877549
-0.801429
0.0708379
-0.776102
0.0411389
-0.733267
-0.00534045
-0.681143
-0.0594024
-0.634101
-0.115457
-0.576898
-0.198989
-0.496085
-0.305095
-0.406227
-0.392378
-0.32788
-0.430657
-0.278425
-0.410174
-0.269555
-0.337971
-0.303371
-0.230985
-0.368054
-0.113832
-0.440706
-0.0181656
-0.503261
0.0345402
-0.554264
0.0477848
-0.586916
0.0215446
-0.597635
-0.0322099
-0.599215
-0.0841331
-0.582673
-0.143257
-0.540237
-0.202609
-0.496409
-0.216694
-0.463652
-0.205758
-0.430444
-0.201013
-0.389789
-0.184628
-0.368255
-0.116225
-0.367209
-0.0488644
-0.37537
-0.00579608
-0.390657
0.025537
0.0457628
-0.410713
2.18519
-0.0737132
2.18802
-0.0220873
2.19696
-0.0108597
2.21391
-0.019753
2.22882
-0.0368946
2.22957
-0.0515452
2.21182
-0.0530003
2.1792
-0.0359724
2.14067
-0.00412737
2.10341
0.0295433
2.04349
0.0583454
1.96054
0.0902787
1.87138
0.126491
1.77536
0.161957
1.66809
0.19048
1.55174
0.209835
1.4298
0.219719
1.30756
0.220493
1.19133
0.211899
1.08668
0.192392
0.99738
0.160146
0.924907
0.113601
0.868374
0.0511964
0.84885
-0.0398814
0.887955
-0.154558
0.955226
-0.266261
1.00335
-0.353212
1.01428
-0.403285
0.992507
-0.408865
0.950243
-0.367894
0.898555
-0.286263
0.845396
-0.177819
0.796646
-0.0650962
0.754775
0.0236952
0.712114
0.0772228
0.656227
0.103681
0.563632
0.114131
0.415297
0.11613
0.249367
0.0817985
0.108833
-0.00275873
-0.00308005
-0.0907114
-0.0923461
-0.127471
-0.160715
-0.137375
-0.206734
-0.154999
-0.234242
-0.157126
-0.259614
-0.0908508
-0.282419
-0.0260568
-0.300941
0.0127215
-0.326145
0.0507429
0.0743463
-0.354743
4.75491
-0.00951344
4.72219
0.0106425
4.68887
0.0224612
4.64874
0.0203735
4.59844
0.0134075
4.53828
0.00862096
4.47349
0.0117749
4.40927
0.0282613
4.34593
0.059205
4.27465
0.100818
4.18576
0.147235
4.08056
0.195492
3.96354
0.243523
3.83819
0.287319
3.70625
0.322435
3.56977
0.346321
3.43161
0.35787
3.29562
0.356475
3.16652
0.341004
3.04919
0.309719
2.94813
0.261205
2.86675
0.194974
2.80582
0.112121
2.74779
0.0181713
2.67035
-0.077124
2.5684
-0.164312
2.44893
-0.233744
2.32157
-0.275936
2.1967
-0.284
2.08483
-0.256032
1.99501
-0.196452
1.93236
-0.115175
1.89273
-0.0254562
1.85712
0.0593065
1.80812
0.12622
1.74262
0.16918
1.66711
0.189636
1.59745
0.185782
1.52189
0.157375
1.40026
0.118848
1.21779
0.0917739
0.995514
0.0948173
0.729513
0.128637
0.391775
0.182719
0.0508129
0.183834
-0.15493
0.114892
-0.196869
0.0159099
-0.209061
0.0249082
-0.245466
0.087174
0.11335
-0.284467
2.99683
0.0487361
2.94607
0.0614009
2.90323
0.065295
2.85725
0.0663674
2.80657
0.0640604
2.75299
0.0622148
2.70032
0.0644402
2.65675
0.071834
2.63175
0.0842007
2.63073
0.101856
2.65251
0.125457
2.69214
0.155859
2.74315
0.192502
2.79792
0.232548
2.84867
0.271676
2.88968
0.305306
2.91804
0.329516
2.93317
0.341356
2.9358
0.338362
2.92701
0.3185
2.90747
0.280741
2.87677
0.225681
2.83275
0.156155
2.7729
0.0780206
2.69604
-0.000261753
2.6019
-0.0701705
2.49312
-0.124965
2.37543
-0.158246
2.25651
-0.165084
2.14503
-0.144549
2.04881
-0.100246
1.97142
-0.0377836
1.91028
0.0356919
1.86004
0.109546
1.81246
0.173798
1.75906
0.222593
1.69503
0.25365
1.61476
0.26605
1.50885
0.263298
1.37101
0.256713
1.20287
0.259908
1.01571
0.281964
0.824907
0.319456
0.65314
0.354496
0.486579
0.350414
0.281092
0.320395
0.053924
0.243074
-0.0831629
0.16199
-0.150786
0.154804
0.167774
-0.205184
3.19484
0.117224
3.13719
0.119057
3.08285
0.11964
3.03113
0.118093
2.9798
0.115394
2.92807
0.113934
2.87632
0.116197
2.82478
0.123366
2.77343
0.135558
2.72279
0.152514
2.67445
0.173787
2.63148
0.198817
2.59749
0.2265
2.57497
0.255075
2.56429
0.282345
2.5637
0.305906
2.56994
0.323281
2.57918
0.332113
2.58745
0.330096
2.59075
0.315214
2.58513
0.286359
2.56688
0.243912
2.53282
0.190205
2.48119
0.12965
2.41275
0.0681785
2.33007
0.0125011
2.23511
-0.030008
2.13118
-0.0543131
2.0247
-0.0585933
1.92215
-0.0420023
1.82682
-0.00491251
1.74142
0.0476122
1.66965
0.10747
1.61142
0.167784
1.56143
0.223775
1.51225
0.271773
1.45628
0.309629
1.38581
0.336528
1.29433
0.354769
1.18015
0.370894
1.04733
0.392734
0.90424
0.425046
0.76009
0.463602
0.622698
0.491908
0.484865
0.488242
0.348576
0.456656
0.192582
0.399075
0.0408081
0.313795
-0.0610868
0.256688
0.234177
-0.127502
2.76155
0.17417
2.70951
0.171074
2.66287
0.166293
2.61898
0.161986
2.57642
0.157946
2.53469
0.15565
2.49413
0.156777
2.45523
0.162277
2.41836
0.172428
2.38376
0.187097
2.35176
0.205795
2.3229
0.227675
2.29794
0.251455
2.27754
0.275476
2.26204
0.297853
2.25131
0.316637
2.24462
0.329975
2.24057
0.336156
2.23699
0.333663
2.23094
0.32128
2.21889
0.298416
2.19721
0.265592
2.16269
0.224725
2.11316
0.179182
2.04787
0.133464
1.96789
0.0924849
1.87716
0.0607278
1.78085
0.0419858
1.68266
0.0395917
1.58664
0.0540185
1.49867
0.0830664
1.42347
0.122826
1.36116
0.16978
1.30924
0.219691
1.26393
0.269098
1.22014
0.315575
1.17213
0.357628
1.11415
0.394496
1.0419
0.427022
0.954478
0.458326
0.854715
0.492484
0.748036
0.531723
0.640058
0.571574
0.533805
0.598167
0.426629
0.595433
0.320226
0.563053
0.212692
0.506596
0.100866
0.425628
0.00694781
0.35062
0.301478
-0.060346
2.26101
0.23416
2.21272
0.219363
2.17032
0.208698
2.1319
0.200396
2.09609
0.193777
2.062
0.189736
2.02946
0.189312
1.9987
0.193016
1.97013
0.201001
1.94411
0.213119
1.92102
0.228906
1.90115
0.247531
1.88474
0.267875
1.87174
0.288487
1.86183
0.307759
1.85444
0.324034
1.84871
0.335703
1.84351
0.341359
1.8373
0.339869
1.82808
0.330484
1.81346
0.313032
1.79091
0.288135
1.75821
0.257409
1.71394
0.223454
1.65782
0.189589
1.5909
0.159421
1.51529
0.136345
1.43401
0.123272
1.35122
0.12239
1.271
0.134235
1.19652
0.157544
1.12955
0.189795
1.07113
0.228215
1.02078
0.270039
0.976633
0.313244
0.935523
0.356684
0.893469
0.399688
0.846312
0.441665
0.790884
0.482441
0.726262
0.522939
0.653977
0.564763
0.577331
0.608358
0.499874
0.64902
0.423303
0.674729
0.346604
0.672145
0.270686
0.638977
0.196738
0.580561
0.120681
0.501672
0.049837
0.421444
0.358235
-0.00690794
1.66008
0.290468
1.61983
0.259618
1.58626
0.242279
1.55689
0.229772
1.5307
0.219944
1.50682
0.213613
1.48496
0.211193
1.46521
0.212759
1.44785
0.218366
1.43307
0.227899
1.42101
0.240958
1.41173
0.256834
1.40512
0.27448
1.4009
0.292685
1.39861
0.310054
1.39753
0.325109
1.39677
0.336456
1.39528
0.342861
1.39177
0.343388
1.38474
0.337521
1.37252
0.325256
1.35342
0.307229
1.32604
0.284801
1.28952
0.259983
1.24383
0.235285
1.18979
0.213448
1.12905
0.197073
1.06398
0.188341
0.997585
0.188768
0.933001
0.198816
0.872754
0.217806
0.818339
0.244198
0.770415
0.276132
0.728626
0.311828
0.691761
0.350122
0.65786
0.390579
0.6244
0.433119
0.588698
0.477347
0.548732
0.522419
0.503883
0.567794
0.455102
0.613541
0.404478
0.658996
0.354331
0.699167
0.305876
0.723184
0.258611
0.719433
0.212478
0.685105
0.167713
0.625325
0.121518
0.547889
0.0754065
0.467545
0.398405
0.0352526
1.0168
0.347
0.987682
0.28875
0.964031
0.265915
0.945789
0.248036
0.931447
0.234298
0.919623
0.225417
0.909935
0.220888
0.90233
0.220386
0.896806
0.22388
0.893368
0.231318
0.891983
0.242349
0.892503
0.256281
0.894776
0.272217
0.898473
0.288993
0.903156
0.305364
0.908244
0.32004
0.91295
0.331749
0.916364
0.339434
0.91743
0.342318
0.914958
0.339991
0.907723
0.332497
0.894572
0.320397
0.874589
0.304783
0.847331
0.287228
0.81296
0.26966
0.772249
0.254157
0.7266
0.24271
0.677973
0.236981
0.628671
0.238093
0.581007
0.246486
0.536904
0.261914
0.497528
0.283566
0.463325
0.310346
0.433977
0.341204
0.408557
0.375564
0.385666
0.413478
0.363581
0.455215
0.340638
0.5003
0.315832
0.547217
0.289273
0.594351
0.261955
0.640849
0.235391
0.685578
0.211085
0.723486
0.189653
0.744596
0.170446
0.738637
0.152481
0.703069
0.134505
0.643305
0.114078
0.568313
0.0908849
0.490737
0.421051
0.0682841
0.366361
0.361497
0.359662
0.295467
0.355171
0.270366
0.352924
0.250269
0.351872
0.235353
0.352119
0.225157
0.35382
0.219217
0.35681
0.217381
0.360979
0.21972
0.366221
0.226072
0.372466
0.236087
0.379655
0.249094
0.387705
0.264153
0.396508
0.280195
0.405817
0.296067
0.415214
0.310624
0.424131
0.322815
0.431841
0.33173
0.437468
0.3367
0.440046
0.337398
0.438648
0.333893
0.432457
0.326609
0.420877
0.316355
0.403736
0.304354
0.381336
0.292071
0.35441
0.281082
0.324129
0.272967
0.292045
0.269047
0.259902
0.27021
0.22944
0.276939
0.202103
0.289293
0.178701
0.306975
0.159475
0.329535
0.144122
0.356536
0.131847
0.387836
0.121542
0.42378
0.111977
0.464749
0.102318
0.509979
0.0924721
0.557063
0.0833853
0.603429
0.0765757
0.647674
0.0735173
0.688648
0.0749545
0.722028
0.0801409
0.73939
0.0875759
0.731219
0.0956797
0.69497
0.102118
0.636845
0.104383
0.566048
0.101743
0.493364
0.426873
0.0959394
-0.266025
0.317135
-0.252674
0.282125
-0.23809
0.255788
-0.224181
0.236394
-0.211249
0.222415
-0.199074
0.212983
-0.187661
0.207749
-0.176853
0.206589
-0.166486
0.209322
-0.156107
0.215716
-0.145325
0.225334
-0.133816
0.237585
-0.121364
0.251689
-0.107919
0.266732
-0.0936039
0.281758
-0.0787464
0.295788
-0.0638573
0.307929
-0.0495862
0.317444
-0.0367006
0.323803
-0.0260605
0.326767
-0.0185775
0.32641
-0.0150816
0.323097
-0.0162158
0.317493
-0.022324
0.310468
-0.0332189
0.302962
-0.048093
0.295981
-0.0656243
0.290532
-0.0841244
0.287562
-0.101845
0.287943
-0.117348
0.292426
-0.129619
0.301536
-0.138219
0.31556
-0.143232
0.334571
-0.145193
0.358525
-0.144911
0.38753
-0.143005
0.421889
-0.139637
0.46142
-0.134314
0.504658
-0.126087
0.548838
-0.114073
0.591416
-0.0976737
0.631252
-0.0763227
0.667309
-0.0497567
0.695465
-0.0186257
0.708259
0.0141383
0.698462
0.045849
0.663288
0.0741259
0.608569
0.0963703
0.543807
0.111882
0.477843
0.416956
0.121788
-0.945706
0.265509
-0.909595
0.246043
-0.879777
0.225938
-0.853111
0.209743
-0.828318
0.197601
-0.804899
0.18956
-0.782644
0.185499
-0.76137
0.185315
-0.740861
0.188806
-0.720832
0.195678
-0.700984
0.205496
-0.681082
0.217686
-0.660955
0.231545
-0.640525
0.24629
-0.619872
0.261095
-0.599209
0.275124
-0.578885
0.287613
-0.559368
0.297924
-0.541164
0.305602
-0.524783
0.310401
-0.510681
0.312303
-0.499117
0.311545
-0.49015
0.308568
-0.483637
0.303972
-0.479177
0.298501
-0.47619
0.292996
-0.474014
0.288339
-0.471921
0.285444
-0.469183
0.285206
-0.465197
0.288433
-0.459459
0.295811
-0.451711
0.307834
-0.441958
0.324807
-0.430338
0.34689
-0.416928
0.374131
-0.401379
0.406327
-0.382624
0.442659
-0.359241
0.481272
-0.330153
0.519733
-0.295041
0.556297
-0.254107
0.590306
-0.207578
0.620771
-0.156036
0.643921
-0.101321
0.653555
-0.046418
0.643553
0.00569611
0.61118
0.0530463
0.561242
0.0927515
0.504096
0.124377
0.44622
0.392536
0.148796
-1.56534
0.216797
-1.52412
0.204829
-1.48878
0.190602
-1.45692
0.177868
-1.42712
0.167818
-1.39858
0.161011
-1.37073
0.157668
-1.34319
0.157785
-1.31565
0.161269
-1.28786
0.167886
-1.25961
0.177248
-1.23078
0.188851
-1.20131
0.202083
-1.17123
0.216228
-1.14067
0.230542
-1.10985
0.2443
-1.07906
0.25682
-1.04863
0.267514
-1.01896
0.275938
-0.990396
0.281824
-0.963226
0.285115
-0.937634
0.285944
-0.913704
0.284623
-0.891409
0.281661
-0.870613
0.277711
-0.851111
0.273508
-0.832617
0.269852
-0.814738
0.267575
-0.797009
0.267486
-0.778924
0.270345
-0.759956
0.276836
-0.739638
0.287517
-0.717588
0.302756
-0.693373
0.322673
-0.666366
0.347109
-0.635509
0.375472
-0.599431
0.406567
-0.556856
0.438693
-0.507155
0.470056
-0.450447
0.499584
-0.387093
0.526945
-0.317625
0.551314
-0.243375
0.569685
-0.16709
0.577272
-0.0926444
0.569097
-0.0232659
0.541797
0.0404329
0.49756
0.0952677
0.449239
0.141164
0.400324
0.354839
0.178887
-2.09151
0.171658
-2.0505
0.16383
-2.01386
0.153953
-1.9804
0.144401
-1.94903
0.136461
-1.91886
0.130853
-1.88917
0.127963
-1.85935
0.127959
-1.8289
0.130828
-1.79744
0.136426
-1.76466
0.14448
-1.73037
0.154574
-1.69449
0.166199
-1.65705
0.178775
-1.61818
0.191667
-1.57812
0.204238
-1.53719
0.21589
-1.49577
0.226091
-1.45427
0.234432
-1.41309
0.240654
-1.37264
0.244662
-1.33324
0.246534
-1.29515
0.246521
-1.25852
0.245034
-1.22342
0.242615
-1.1898
0.239883
-1.15745
0.237504
-1.12603
0.236168
-1.09509
0.236541
-1.06403
0.239272
-1.03218
0.244975
-0.998832
0.254174
-0.963293
0.267205
-0.924744
0.284141
-0.882235
0.304613
-0.834603
0.32783
-0.780605
0.352581
-0.719388
0.377462
-0.65065
0.401321
-0.574631
0.423565
-0.491738
0.444065
-0.402779
0.462352
-0.309601
0.476506
-0.215557
0.48321
-0.124932
0.478463
-0.0405403
0.457397
0.0369945
0.42003
0.10485
0.381383
0.163351
0.341811
0.304991
0.213189
-2.51538
0.129512
-2.47584
0.124309
-2.43945
0.117567
-2.4058
0.11076
-2.37418
0.104845
-2.34382
0.100492
-2.31395
0.0980984
-2.28387
0.0978724
-2.25292
0.0998776
-2.22054
0.104045
-2.18627
0.110199
-2.14975
0.118051
-2.11078
0.127226
-2.06928
0.137277
-2.02533
0.147721
-1.97913
0.15805
-1.93102
0.167772
-1.88141
0.176469
-1.83079
0.183805
-1.77967
0.189543
-1.72857
0.19357
-1.67798
0.19593
-1.62827
0.196811
-1.57972
0.196509
-1.5325
0.195409
-1.48661
0.193984
-1.44186
0.192749
-1.39792
0.19222
-1.35427
0.192901
-1.31029
0.195292
-1.2652
0.199891
-1.21817
0.207156
-1.16832
0.217374
-1.11475
0.230553
-1.05645
0.24631
-0.992455
0.263817
-0.92187
0.28199
-0.844138
0.299742
-0.759145
0.316341
-0.667126
0.331527
-0.568451
0.345409
-0.464092
0.357981
-0.356111
0.368515
-0.247996
0.375106
-0.144104
0.374571
-0.0465529
0.359854
0.0426039
0.330876
0.121667
0.302338
0.191387
0.272088
0.244048
0.252317
-2.85569
0.0878562
-2.81638
0.0849945
-2.77961
0.0808032
-2.74523
0.0763762
-2.71279
0.0724041
-2.68165
0.0693567
-2.65113
0.0675651
-2.62049
0.0672189
-2.589
0.0683898
-2.55601
0.0710558
-2.52093
0.0751096
-2.48327
0.0803839
-2.44268
0.0866348
-2.39896
0.0935648
-2.35208
0.100842
-2.30216
0.108124
-2.24947
0.115086
-2.1944
0.121424
-2.13746
0.126877
-2.07919
0.131273
-2.02016
0.134539
-1.96091
0.136683
-1.90192
0.137811
-1.84354
0.138112
-1.78598
0.137838
-1.72929
0.137291
-1.67333
0.136807
-1.61781
0.136719
-1.56229
0.13737
-1.50611
0.13911
-1.44849
0.14229
-1.38856
0.147224
-1.32536
0.15417
-1.25797
0.163157
-1.18555
0.173889
-1.10741
0.185682
-1.02306
0.197639
-0.932234
0.208922
-0.834906
0.219028
-0.731224
0.227834
-0.621434
0.235603
-0.50628
0.242814
-0.387546
0.249772
-0.268405
0.255978
-0.152801
0.258947
-0.0430906
0.250121
0.0557812
0.231983
0.144719
0.213403
0.224723
0.1921
0.172755
0.296008
-3.12698
0.0451914
-3.08598
0.044003
-3.04715
0.041953
-3.0105
0.0397367
-2.97579
0.0376867
-2.9425
0.0360804
-2.91001
0.0350896
-2.8776
0.0348141
-2.84452
0.0353111
-2.81006
0.0365813
-2.77352
0.038577
-2.73435
0.0412109
-2.69208
0.0443662
-2.64641
0.0478983
-2.59721
0.0516372
-2.54448
0.0554104
-2.48843
0.0590463
-2.4294
0.0623819
-2.36783
0.0652937
-2.30426
0.0676952
-2.23926
0.0695343
-2.17339
0.0708101
-2.10713
0.071567
-2.04092
0.0718925
-1.975
0.0719153
-1.90948
0.0717801
-1.84433
0.0716465
-1.77929
0.0716872
-1.71399
0.0720704
-1.64783
0.0729597
-1.58009
0.0745407
-1.50986
0.0770034
-1.43618
0.0805083
-1.35811
0.085116
-1.27495
0.0907183
-1.1862
0.0969339
-1.0917
0.103129
-0.991427
0.108648
-0.885513
0.113096
-0.774144
0.116459
-0.657612
0.119068
-0.536342
0.121551
-0.411232
0.124665
-0.284251
0.129006
-0.15718
0.13188
-0.0341873
0.127102
0.0740752
0.123734
0.172552
0.114901
0.262403
0.102226
0.0918145
0.343339
-3.33056
-3.28656
-3.2446
-3.20487
-3.16718
-3.13109
-3.09601
-3.0612
-3.02588
-2.9893
-2.95073
-2.90952
-2.86515
-2.81725
-2.76562
-2.71021
-2.65117
-2.5888
-2.5235
-2.45581
-2.38628
-2.31547
-2.2439
-2.17201
-2.1001
-2.02832
-1.95668
-1.88499
-1.81293
-1.73996
-1.66542
-1.58842
-1.50792
-1.42279
-1.33207
-1.23513
-1.13201
-1.02336
-0.910262
-0.7938
-0.674745
-0.553195
-0.428534
-0.299562
-0.167677
-0.040588
0.0831629
0.198065
0.300271
0.392097
0.00812912
-0.000171035
0.00819993
-5.49564e-05
0.00824986
-3.30847e-05
0.0082704
-7.16996e-06
0.00827055
9.49319e-06
0.00825769
1.80393e-05
0.00823599
2.21003e-05
0.00820807
2.36926e-05
0.0081761
2.37241e-05
0.00814204
2.27267e-05
0.00810769
2.10955e-05
0.00807468
1.91488e-05
0.00804446
1.71493e-05
0.00801816
1.53195e-05
0.00799652
1.38451e-05
0.00797981
1.28802e-05
0.00796768
1.26056e-05
0.00795914
1.32556e-05
0.00795262
1.49853e-05
0.00794861
1.54522e-05
0.00794673
1.5281e-05
0.00794541
1.56356e-05
0.00794405
1.53942e-05
0.00794137
1.52137e-05
0.00793579
1.57602e-05
0.00792595
1.68134e-05
0.00791105
1.80805e-05
0.00789093
1.9317e-05
0.00786599
2.02601e-05
0.00783729
2.06833e-05
0.00780635
2.04386e-05
0.00777496
1.94329e-05
0.00774499
1.77403e-05
0.00771825
1.54431e-05
0.00769658
1.25369e-05
0.00768165
9.10847e-06
0.00767479
5.38305e-06
0.00767672
1.68459e-06
0.00768735
-1.5614e-06
0.00770555
-3.97026e-06
0.00772903
-5.30785e-06
0.0077546
-5.53107e-06
0.00777859
-4.8639e-06
0.00779741
-3.73659e-06
0.00780827
-2.80098e-06
0.00780992
-3.01116e-06
0.00780372
-5.8115e-06
0.00779517
-1.37324e-05
0.00779525
-3.04648e-05
-5.94448e-05
0.00782015
0.00788926
-8.6957e-05
0.00789367
-3.23073e-05
0.00788035
2.99926e-06
0.00787358
1.52534e-05
0.00786876
2.23862e-05
0.00786182
2.49392e-05
0.00785199
2.40522e-05
0.00783972
2.13469e-05
0.00782588
1.79135e-05
0.00781159
1.43909e-05
0.00779811
1.1208e-05
0.00778679
8.68762e-06
0.0077789
7.04284e-06
0.00777547
6.35193e-06
0.00777716
6.55767e-06
0.00778411
7.66254e-06
0.00779591
9.66961e-06
0.00781152
1.27749e-05
0.00782998
1.65386e-05
0.00785079
1.77615e-05
0.00787463
1.5697e-05
0.00790047
1.33015e-05
0.0079246
1.19672e-05
0.00794385
1.22963e-05
0.0079574
1.30337e-05
0.00796476
1.39322e-05
0.00796597
1.47046e-05
0.00796148
1.52867e-05
0.00795224
1.55994e-05
0.0079395
1.56303e-05
0.00792462
1.54145e-05
0.00790907
1.49512e-05
0.00789447
1.42349e-05
0.00788266
1.30962e-05
0.00787554
1.13137e-05
0.00787481
8.85924e-06
0.00788185
5.81128e-06
0.00789741
2.34605e-06
0.00792134
-1.33707e-06
0.0079523
-5.08892e-06
0.00798787
-8.8536e-06
0.00802473
-1.27387e-05
0.00805923
-1.69875e-05
0.00808797
-2.20109e-05
0.00810863
-2.83792e-05
0.00812058
-3.66811e-05
0.00812497
-4.74797e-05
0.00812447
-6.16627e-05
0.00812305
-8.15141e-05
-0.000110671
0.0081262
0.00790048
-1.69672e-05
0.00789682
-6.14332e-06
0.007906
1.26915e-05
0.00791297
2.10295e-05
0.00791809
2.34927e-05
0.0079195
2.29015e-05
0.00791642
1.9962e-05
0.00790945
1.55707e-05
0.00789978
1.06992e-05
0.00788881
6.09848e-06
0.007878
2.30295e-06
0.00786883
-2.97787e-07
0.00786265
-1.56611e-06
0.00786061
-1.53678e-06
0.00786336
-2.77914e-07
0.00787108
2.08217e-06
0.00788357
5.32498e-06
0.00790053
9.19369e-06
0.00792111
1.33366e-05
0.00794373
1.47816e-05
0.00796515
1.45736e-05
0.00798433
1.36671e-05
0.00800008
1.34118e-05
0.008012
1.39763e-05
0.00801952
1.44283e-05
0.00802217
1.47812e-05
0.00801975
1.49435e-05
0.00801255
1.49634e-05
0.00800131
1.482e-05
0.00798715
1.44989e-05
0.00797151
1.39696e-05
0.00795601
1.3201e-05
0.00794236
1.21799e-05
0.00793227
1.0726e-05
0.00792747
8.53589e-06
0.00792951
5.50266e-06
0.00793963
1.69424e-06
0.00795843
-2.75199e-06
0.00798556
-7.72179e-06
0.00801953
-1.31306e-05
0.00805776
-1.89901e-05
0.00809683
-2.53988e-05
0.00813287
-3.2533e-05
0.00816213
-4.07602e-05
0.00818181
-5.06454e-05
0.00819086
-6.29387e-05
0.00819061
-7.83826e-05
0.00818461
-9.7492e-05
0.00817766
-0.000121259
-0.000151935
0.00817525
0.00796148
-9.06918e-06
0.00797435
3.50457e-07
0.00798618
1.67849e-05
0.00799162
2.59768e-05
0.00799102
2.85559e-05
0.00798538
2.69104e-05
0.00797552
2.24828e-05
0.00796256
1.6411e-05
0.00794785
9.82368e-06
0.00793281
3.69692e-06
0.00791885
-1.24301e-06
0.00790731
-4.54771e-06
0.00789934
-6.074e-06
0.00789585
-5.91636e-06
0.00789731
-4.17576e-06
0.0079038
-1.15291e-06
0.00791506
2.74499e-06
0.00793054
7.06328e-06
0.00794948
1.11351e-05
0.00796983
1.28562e-05
0.00798928
1.39687e-05
0.00800636
1.47122e-05
0.00802045
1.52387e-05
0.00803121
1.55436e-05
0.00803784
1.55032e-05
0.0080398
1.52437e-05
0.00803691
1.48346e-05
0.00802944
1.43933e-05
0.0080181
1.39256e-05
0.00800396
1.33841e-05
0.00798838
1.267e-05
0.00797298
1.16562e-05
0.00795951
1.02582e-05
0.00794978
8.28761e-06
0.0079455
5.46954e-06
0.00794825
1.70938e-06
0.00795925
-2.94856e-06
0.00797901
-8.41738e-06
0.00800707
-1.46205e-05
0.00804184
-2.15635e-05
0.00808064
-2.93189e-05
0.00812006
-3.80083e-05
0.00815621
-4.78081e-05
0.0081853
-5.89354e-05
0.00820429
-7.17422e-05
0.00821155
-8.67809e-05
0.0082077
-0.000104792
0.00819569
-0.000126399
0.00818009
-0.000152114
-0.000183392
0.0081668
0.0079616
-2.55939e-06
0.00796653
1.11113e-05
0.00796862
2.71864e-05
0.00796725
3.49812e-05
0.00796259
3.56391e-05
0.00795518
3.14756e-05
0.00794558
2.44239e-05
0.0079345
1.59408e-05
0.00792284
7.26929e-06
0.00791164
-5.21504e-07
0.007902
-6.61553e-06
0.00789499
-1.06086e-05
0.00789155
-1.24016e-05
0.00789229
-1.20572e-05
0.00789753
-9.83257e-06
0.00790726
-6.19551e-06
0.0079212
-1.72678e-06
0.00793881
2.94021e-06
0.00795925
7.03187e-06
0.00798059
9.14212e-06
0.00800084
1.1514e-05
0.00801913
1.32897e-05
0.00803463
1.43149e-05
0.0080465
1.46771e-05
0.00805396
1.45118e-05
0.00805653
1.40484e-05
0.00805411
1.34823e-05
0.00804705
1.29525e-05
0.00803608
1.2473e-05
0.00802224
1.19669e-05
0.00800687
1.12775e-05
0.0079915
1.02172e-05
0.00797788
8.61545e-06
0.00796783
6.24701e-06
0.00796316
2.90529e-06
0.00796551
-1.47324e-06
0.00797611
-6.86681e-06
0.00799544
-1.32097e-05
0.00802298
-2.04782e-05
0.00805704
-2.87333e-05
0.00809489
-3.80684e-05
0.00813298
-4.86559e-05
0.00816738
-6.07193e-05
0.00819435
-7.44543e-05
0.00821096
-9.004e-05
0.00821566
-0.000107755
0.00820889
-0.000128021
0.00819327
-0.000151355
0.00817287
-0.000178086
-0.000209171
0.00815313
0.00796449
-6.36576e-07
0.00797111
1.58102e-05
0.00797428
3.23536e-05
0.0079743
3.92878e-05
0.00797112
3.88293e-05
0.00796507
3.3299e-05
0.00795681
2.47472e-05
0.00794715
1.48289e-05
0.00793706
4.91953e-06
0.00792755
-3.84808e-06
0.00791962
-1.06203e-05
0.00791418
-1.49263e-05
0.007912
-1.67295e-05
0.00791357
-1.61291e-05
0.00791912
-1.34982e-05
0.00792858
-9.4135e-06
0.00794161
-4.54014e-06
0.00795759
4.55695e-07
0.00797541
4.90912e-06
0.00799373
7.40919e-06
0.00801149
1.02377e-05
0.00802782
1.23584e-05
0.00804184
1.34095e-05
0.00805256
1.36159e-05
0.00805917
1.32543e-05
0.00806114
1.26392e-05
0.00805835
1.2017e-05
0.00805107
1.15199e-05
0.00803997
1.1147e-05
0.00802599
1.07701e-05
0.0080104
1.01755e-05
0.0079947
9.12011e-06
0.0079806
7.35225e-06
0.00796996
4.65032e-06
0.00796464
8.78203e-07
0.00796633
-4.01468e-06
0.00797628
-1.00089e-05
0.00799496
-1.70815e-05
0.00802175
-2.52581e-05
0.00805498
-3.46106e-05
0.00809184
-4.5287e-05
0.0081287
-5.74612e-05
0.00816156
-7.13226e-05
0.00818655
-8.70807e-05
0.00820068
-0.000104898
0.00820248
-0.000124861
0.00819238
-0.000147145
0.00817311
-0.00017199
0.00814875
-0.0001996
-0.00023047
0.00812434
0.00796342
1.64585e-07
0.00796647
1.89496e-05
0.00796555
3.68108e-05
0.00796164
4.36968e-05
0.00795517
4.25798e-05
0.00794675
3.60054e-05
0.00793719
2.61826e-05
0.00792737
1.49603e-05
0.00791815
3.86808e-06
0.00791038
-5.86875e-06
0.00790483
-1.33849e-05
0.00790214
-1.81589e-05
0.00790276
-2.01754e-05
0.00790691
-1.95809e-05
0.00791458
-1.68369e-05
0.00792559
-1.26108e-05
0.00793957
-7.67111e-06
0.00795606
-2.74583e-06
0.00797441
1.43123e-06
0.00799319
3.95174e-06
0.0080113
7.13123e-06
0.00802813
9.42995e-06
0.00804275
1.05183e-05
0.00805417
1.07188e-05
0.00806156
1.04072e-05
0.00806439
9.93765e-06
0.00806246
9.55279e-06
0.00805597
9.36855e-06
0.00804549
9.34158e-06
0.0080319
9.27652e-06
0.00801642
8.918e-06
0.00800055
7.97793e-06
0.00798603
6.16916e-06
0.00797476
3.29384e-06
0.00796867
-7.52407e-07
0.00796954
-5.9878e-06
0.00797863
-1.23845e-05
0.00799635
-1.99594e-05
0.00802205
-2.87768e-05
0.00805399
-3.89597e-05
0.00808936
-5.06896e-05
0.00812459
-6.41393e-05
0.00815566
-7.94751e-05
0.0081787
-9.68516e-05
0.00819068
-0.000116402
0.00819002
-0.000138126
0.00817713
-0.000162003
0.00815455
-0.000188115
0.00812652
-0.000216465
-0.000247291
0.00809803
0.00796155
2.33245e-07
0.00796055
2.03893e-05
0.00795643
3.91906e-05
0.00795045
4.60101e-05
0.00794303
4.43232e-05
0.00793481
3.69494e-05
0.00792651
2.62446e-05
0.00791886
1.41865e-05
0.00791256
2.38545e-06
0.00790817
-7.88955e-06
0.00790622
-1.5769e-05
0.00790702
-2.07138e-05
0.00791072
-2.27591e-05
0.00791731
-2.21171e-05
0.00792662
-1.93072e-05
0.00793838
-1.50531e-05
0.00795227
-1.01808e-05
0.00796795
-5.4746e-06
0.0079849
-1.623e-06
0.00800156
1.25572e-06
0.00801772
4.51891e-06
0.00803306
6.59454e-06
0.00804651
7.64146e-06
0.00805716
7.7943e-06
0.00806418
7.5529e-06
0.00806691
7.28073e-06
0.00806506
7.20182e-06
0.00805866
7.38504e-06
0.00804815
7.72567e-06
0.00803436
7.9906e-06
0.00801846
7.87259e-06
0.00800191
7.04005e-06
0.0079865
5.22662e-06
0.0079742
2.25472e-06
0.00796705
-1.96139e-06
0.00796686
-7.41019e-06
0.00797487
-1.40609e-05
0.00799145
-2.19359e-05
0.00801589
-3.11495e-05
0.00804637
-4.1869e-05
0.00808006
-5.43077e-05
0.00811343
-6.86589e-05
0.0081425
-8.50802e-05
0.00816345
-0.00010372
0.00817333
-0.000124608
0.00817058
-0.000147733
0.00815552
-0.000172889
0.00813054
-0.000199993
0.00809966
-0.000228973
-0.000259815
0.00806795
0.00795902
-9.41217e-08
0.00795302
2.06432e-05
0.00794483
4.00152e-05
0.00793591
4.68776e-05
0.00792657
4.49591e-05
0.00791745
3.72429e-05
0.00790928
2.61682e-05
0.0079027
1.37669e-05
0.00789828
1.69001e-06
0.00789638
-8.78766e-06
0.00789725
-1.68044e-05
0.00790093
-2.18658e-05
0.00790727
-2.39983e-05
0.00791601
-2.34716e-05
0.00792679
-2.08304e-05
0.00793924
-1.6818e-05
0.0079531
-1.22731e-05
0.0079683
-8.14906e-06
0.00798444
-4.90219e-06
0.00800025
-1.85518e-06
0.00801587
1.18216e-06
0.00803087
2.97302e-06
0.00804454
3.75452e-06
0.00805579
3.93807e-06
0.00806364
3.91126e-06
0.00806733
3.99249e-06
0.00806639
4.3608e-06
0.00806074
5.01191e-06
0.00805069
5.79114e-06
0.00803704
6.43344e-06
0.0080209
6.58862e-06
0.0080038
5.92297e-06
0.00798758
4.17983e-06
0.00797433
1.19946e-06
0.00796617
-3.04421e-06
0.00796496
-8.5292e-06
0.00797189
-1.52536e-05
0.00798726
-2.32398e-05
0.00801031
-3.2607e-05
0.00803918
-4.35599e-05
0.00807106
-5.63085e-05
0.00810241
-7.11176e-05
0.00812929
-8.81721e-05
0.008148
-0.00010762
0.00815563
-0.00012949
0.0081508
-0.000153641
0.0081338
-0.000179837
0.0081069
-0.000207742
0.00807398
-0.000237203
-0.000268165
0.00803986
0.00795615
-6.99937e-07
0.00794476
1.98793e-05
0.00793233
3.93389e-05
0.00792057
4.61703e-05
0.00790961
4.41734e-05
0.00790011
3.64027e-05
0.00789275
2.53331e-05
0.00788805
1.29853e-05
0.00788634
1.00449e-06
0.00788775
-9.35504e-06
0.00789217
-1.72386e-05
0.00789932
-2.22631e-05
0.00790873
-2.44433e-05
0.0079199
-2.40729e-05
0.0079323
-2.1711e-05
0.0079455
-1.80582e-05
0.00795911
-1.37954e-05
0.00797239
-9.36477e-06
0.00798495
-5.52219e-06
0.00799908
-4.30775e-06
0.008015
-3.47822e-06
0.00803025
-1.65893e-06
0.0080441
-6.40689e-07
0.00805573
-2.0825e-07
0.00806417
1.14866e-07
0.00806851
6.37248e-07
0.00806817
1.48786e-06
0.00806293
2.6149e-06
0.00805302
3.82692e-06
0.00803914
4.81515e-06
0.00802243
5.21965e-06
0.00800446
4.71326e-06
0.00798716
3.05171e-06
0.00797276
1.28446e-07
0.00796345
-4.05637e-06
0.00796104
-9.45846e-06
0.00796673
-1.60716e-05
0.00798071
-2.39686e-05
0.00800219
-3.32501e-05
0.00802928
-4.41238e-05
0.00805915
-5.6867e-05
0.00808832
-7.17433e-05
0.00811286
-8.90267e-05
0.00812922