/*--------------------------------*- C++ -*----------------------------------*\
  =========                 |
  \\      /  F ield         | OpenFOAM: The Open Source CFD Toolbox
   \\    /   O peration     | Website:  https://openfoam.org
    \\  /    A nd           | Version:  8
     \\/     M anipulation  |
\*---------------------------------------------------------------------------*/
FoamFile
{
    version     2.0;
    format      ascii;
    class       volScalarField;
    location    "900";
    object      epsilon;
}
// * * * * * * * * * * * * * * * * * * * * * * * * * * * * * * * * * * * * * //

dimensions      [0 2 -3 0 0 0 0];

internalField   nonuniform List<scalar> 
8400
(
2.39703
2.39049
2.38392
2.37732
2.37069
2.36402
2.35731
2.35056
2.34375
2.33689
2.32998
2.323
2.31595
2.30883
2.30164
2.29437
2.28702
2.27958
2.27206
2.26444
2.25674
2.24894
2.24105
2.23306
2.22498
2.21681
2.20856
2.20034
2.19214
2.18401
2.17597
2.16805
2.16028
2.15271
2.14539
2.13836
2.13171
2.12549
2.11979
2.11473
2.11042
2.10701
2.10467
2.10363
2.10417
2.10664
2.11153
2.1195
2.13141
2.14845
0.183449
0.183698
0.183921
0.184131
0.184334
0.18453
0.184721
0.184906
0.185088
0.185265
0.185438
0.185608
0.185776
0.185942
0.186107
0.186273
0.186442
0.186613
0.186791
0.186976
0.187172
0.18738
0.187605
0.187849
0.188118
0.188415
0.188742
0.189082
0.189437
0.189808
0.1902
0.190614
0.191053
0.191523
0.192028
0.192572
0.193161
0.193803
0.194505
0.195277
0.19613
0.197076
0.198132
0.199317
0.200654
0.202174
0.203915
0.205929
0.208282
0.211068
0.0458884
0.0461511
0.0464145
0.0466781
0.0469416
0.0472051
0.0474686
0.047732
0.0479955
0.0482591
0.0485229
0.0487869
0.0490512
0.0493161
0.0495816
0.0498479
0.0501154
0.0503842
0.0506547
0.0509272
0.0512021
0.0514798
0.051761
0.0520465
0.0523371
0.0526337
0.0529342
0.0532365
0.0535408
0.0538472
0.054156
0.0544675
0.0547819
0.0550997
0.0554212
0.0557469
0.0560774
0.0564133
0.0567553
0.0571043
0.0574614
0.0578276
0.0582045
0.0585938
0.0589975
0.0594183
0.0598593
0.0603247
0.0608194
0.0613504
0.0381278
0.038347
0.0385675
0.0387894
0.0390127
0.0392374
0.0394637
0.0396914
0.0399206
0.0401515
0.0403839
0.0406179
0.0408536
0.0410909
0.04133
0.0415709
0.0418136
0.0420581
0.0423046
0.042553
0.0428035
0.0430561
0.0433109
0.0435676
0.0438262
0.0440867
0.0443492
0.0446137
0.0448802
0.0451487
0.0454193
0.0456919
0.0459667
0.0462436
0.0465227
0.046804
0.0470876
0.0473734
0.0476617
0.0479524
0.0482455
0.0485413
0.0488397
0.0491409
0.0494451
0.0497525
0.0500633
0.0503778
0.0506965
0.0510201
0.0382901
0.0385054
0.0387224
0.0389411
0.0391614
0.0393833
0.039607
0.0398325
0.0400597
0.0402888
0.0405196
0.0407524
0.0409871
0.0412237
0.0414624
0.041703
0.0419456
0.0421904
0.0424372
0.042686
0.0429369
0.0431898
0.0434448
0.0437018
0.043961
0.0442221
0.0444853
0.0447505
0.0450177
0.0452869
0.0455579
0.0458308
0.0461054
0.0463817
0.0466597
0.046939
0.0472197
0.0475015
0.0477842
0.0480675
0.0483512
0.0486349
0.0489182
0.0492005
0.0494812
0.0497596
0.0500348
0.0503056
0.0505708
0.0508287
0.040306
0.0405376
0.0407713
0.0410066
0.0412437
0.0414825
0.0417232
0.0419656
0.0422099
0.042456
0.0427041
0.0429542
0.0432062
0.0434602
0.0437162
0.0439743
0.0442345
0.0444967
0.044761
0.0450274
0.045296
0.0455668
0.0458398
0.0461151
0.0463925
0.0466722
0.0469541
0.0472382
0.0475245
0.047813
0.0481037
0.0483965
0.0486914
0.0489884
0.0492873
0.0495881
0.0498908
0.0501951
0.0505009
0.0508082
0.0511166
0.051426
0.051736
0.0520465
0.052357
0.0526672
0.0529765
0.0532845
0.0535906
0.0538942
0.0416772
0.0419194
0.0421636
0.0424095
0.0426572
0.0429068
0.0431582
0.0434116
0.043667
0.0439244
0.0441838
0.0444453
0.0447089
0.0449747
0.0452426
0.0455127
0.045785
0.0460595
0.0463363
0.0466153
0.0468967
0.0471803
0.0474663
0.0477546
0.0480452
0.0483381
0.0486332
0.0489307
0.0492304
0.0495323
0.0498363
0.0501423
0.0504504
0.0507603
0.051072
0.0513852
0.0516999
0.0520158
0.0523326
0.05265
0.0529677
0.0532853
0.0536022
0.0539179
0.0542316
0.0545427
0.05485
0.0551527
0.0554493
0.0557385
0.043587
0.0438453
0.0441058
0.0443682
0.0446326
0.0448989
0.0451671
0.0454374
0.0457098
0.0459843
0.0462609
0.0465396
0.0468206
0.0471037
0.0473892
0.0476769
0.047967
0.0482594
0.0485542
0.0488514
0.049151
0.0494531
0.0497576
0.0500646
0.0503741
0.050686
0.0510004
0.0513172
0.0516364
0.0519581
0.052282
0.0526083
0.0529367
0.0532673
0.0536
0.0539345
0.0542707
0.0546085
0.0549476
0.0552878
0.0556287
0.05597
0.0563113
0.0566521
0.0569918
0.0573299
0.0576655
0.057998
0.0583263
0.0586496
0.0452084
0.0454806
0.045755
0.0460314
0.0463097
0.0465901
0.0468726
0.0471573
0.0474441
0.0477331
0.0480243
0.0483178
0.0486137
0.0489119
0.0492125
0.0495156
0.0498211
0.0501291
0.0504396
0.0507527
0.0510683
0.0513865
0.0517072
0.0520306
0.0523566
0.0526851
0.0530163
0.0533499
0.0536861
0.0540248
0.0543659
0.0547093
0.0550549
0.0554027
0.0557525
0.0561041
0.0564574
0.056812
0.0571678
0.0575243
0.0578812
0.058238
0.0585943
0.0589493
0.0593024
0.0596528
0.0599995
0.0603415
0.0606777
0.0610069
0.0470569
0.0473454
0.0476362
0.0479291
0.048224
0.0485211
0.0488204
0.049122
0.0494258
0.0497319
0.0500404
0.0503513
0.0506647
0.0509805
0.0512989
0.0516199
0.0519435
0.0522697
0.0525985
0.0529301
0.0532643
0.0536013
0.053941
0.0542835
0.0546287
0.0549766
0.0553273
0.0556807
0.0560368
0.0563955
0.0567568
0.0571206
0.0574868
0.0578553
0.0582259
0.0585985
0.0589729
0.0593487
0.0597258
0.0601037
0.0604821
0.0608605
0.0612382
0.0616147
0.0619892
0.0623607
0.0627284
0.0630911
0.0634475
0.0637962
0.0489011
0.0492066
0.0495146
0.0498248
0.0501372
0.0504519
0.0507688
0.0510882
0.0514099
0.051734
0.0520607
0.0523899
0.0527216
0.053056
0.0533931
0.0537329
0.0540754
0.0544207
0.0547688
0.0551198
0.0554736
0.0558303
0.0561899
0.0565524
0.0569179
0.0572863
0.0576576
0.0580318
0.0584089
0.0587888
0.0591715
0.059557
0.059945
0.0603355
0.0607285
0.0611236
0.0615207
0.0619196
0.06232
0.0627215
0.0631238
0.0635264
0.0639288
0.0643303
0.0647302
0.0651278
0.0655222
0.0659123
0.0662972
0.0666757
0.0507049
0.0510273
0.0513521
0.0516791
0.0520084
0.05234
0.052674
0.0530105
0.0533494
0.053691
0.0540351
0.0543819
0.0547314
0.0550836
0.0554387
0.0557966
0.0561573
0.056521
0.0568877
0.0572573
0.0576299
0.0580056
0.0583843
0.0587661
0.059151
0.0595389
0.0599299
0.0603239
0.060721
0.0611209
0.0615238
0.0619294
0.0623378
0.0627487
0.0631619
0.0635773
0.0639947
0.0644137
0.0648339
0.065255
0.0656765
0.0660977
0.0665179
0.0669364
0.0673521
0.067764
0.0681707
0.0685707
0.0689622
0.0693433
0.0527932
0.053136
0.0534817
0.0538298
0.0541803
0.0545333
0.0548888
0.0552468
0.0556075
0.0559709
0.0563371
0.056706
0.0570778
0.0574525
0.0578302
0.0582108
0.0585945
0.0589812
0.0593711
0.0597642
0.0601604
0.0605599
0.0609627
0.0613688
0.0617781
0.0621908
0.0626068
0.0630261
0.0634487
0.0638746
0.0643038
0.0647361
0.0651715
0.06561
0.0660513
0.0664954
0.0669421
0.0673911
0.0678423
0.0682952
0.0687495
0.0692049
0.0696608
0.0701167
0.0705719
0.0710256
0.0714772
0.0719256
0.07237
0.0728095
0.0545303
0.0548912
0.0552546
0.0556204
0.0559887
0.0563594
0.0567327
0.0571087
0.0574873
0.0578687
0.058253
0.05864
0.05903
0.059423
0.0598191
0.0602182
0.0606204
0.0610259
0.0614345
0.0618465
0.0622617
0.0626802
0.0631022
0.0635275
0.0639561
0.0643882
0.0648236
0.0652624
0.0657045
0.0661498
0.0665983
0.0670499
0.0675044
0.0679618
0.0684217
0.068884
0.0693483
0.0698144
0.0702817
0.0707499
0.0712183
0.0716861
0.0721527
0.0726169
0.0730776
0.0735333
0.0739825
0.0744231
0.0748528
0.0752688
0.0572706
0.0576593
0.0580511
0.0584454
0.0588422
0.0592416
0.0596436
0.0600484
0.0604559
0.0608662
0.0612794
0.0616956
0.0621148
0.062537
0.0629623
0.0633908
0.0638226
0.0642576
0.064696
0.0651377
0.0655829
0.0660315
0.0664836
0.0669392
0.0673983
0.067861
0.0683272
0.0687969
0.0692701
0.0697468
0.0702268
0.0707101
0.0711966
0.0716861
0.0721785
0.0726736
0.0731711
0.0736708
0.0741723
0.0746751
0.075179
0.0756833
0.0761876
0.0766911
0.0771933
0.0776934
0.0781908
0.0786847
0.0791748
0.0796607
0.060524
0.0609547
0.0613871
0.0618211
0.0622569
0.0626945
0.0631341
0.0635756
0.0640193
0.0644651
0.0649131
0.0653635
0.0658162
0.0662714
0.0667291
0.0671893
0.0676523
0.0681179
0.0685863
0.0690575
0.0695314
0.0700081
0.0704876
0.0709699
0.0714548
0.0719423
0.0724323
0.0729245
0.0734188
0.0739148
0.0744124
0.074911
0.0754101
0.0759093
0.0764078
0.0769047
0.0773993
0.0778903
0.0783765
0.0788564
0.0793283
0.0797902
0.0802399
0.0806749
0.0810921
0.0814884
0.0818599
0.0822029
0.0825128
0.0827851
0.0739628
0.0745364
0.0751118
0.0756873
0.0762625
0.0768375
0.0774122
0.0779867
0.0785611
0.0791355
0.07971
0.0802848
0.0808598
0.0814353
0.0820113
0.0825879
0.0831651
0.0837431
0.0843219
0.0849013
0.0854815
0.0860622
0.0866433
0.0872245
0.0878057
0.0883863
0.0889658
0.0895437
0.0901192
0.0906913
0.0912589
0.0918207
0.092375
0.0929202
0.0934538
0.0939734
0.094476
0.094958
0.0954155
0.0958437
0.0962373
0.09659
0.0968947
0.0971432
0.097326
0.0974325
0.0974501
0.0973657
0.0971649
0.0968308
0.12962
0.130827
0.132018
0.133199
0.134373
0.135538
0.136696
0.137847
0.13899
0.140126
0.141255
0.142378
0.143494
0.144604
0.145708
0.146806
0.147898
0.148985
0.150066
0.151141
0.15221
0.153271
0.154325
0.155369
0.156404
0.157427
0.158435
0.159427
0.160399
0.161348
0.162268
0.163155
0.164002
0.164802
0.165545
0.166221
0.166818
0.167321
0.167713
0.167975
0.168082
0.168007
0.167717
0.167172
0.166326
0.165118
0.163476
0.161308
0.158503
0.154903
0.441303
0.444941
0.448664
0.452421
0.456203
0.460009
0.463839
0.467691
0.471568
0.475469
0.479394
0.483345
0.487323
0.491327
0.495358
0.499417
0.503504
0.507617
0.511757
0.515923
0.520113
0.524324
0.528554
0.532798
0.537052
0.54131
0.545563
0.549804
0.55402
0.5582
0.562327
0.566383
0.570345
0.574188
0.577881
0.581386
0.584662
0.587656
0.590308
0.592545
0.594281
0.59541
0.595803
0.595303
0.59371
0.590764
0.586111
0.579277
0.569666
0.556446
3.06596
3.07659
3.0874
3.09834
3.10943
3.12067
3.13207
3.14364
3.15539
3.16732
3.17945
3.19177
3.20429
3.21701
3.22994
3.24309
3.25645
3.27003
3.28382
3.29784
3.31209
3.32656
3.34126
3.35619
3.37135
3.38675
3.40237
3.41823
3.43433
3.45065
3.46721
3.48398
3.50097
3.51818
3.53558
3.55317
3.57094
3.58885
3.6069
3.62504
3.64325
3.66148
3.67969
3.69779
3.71573
3.7334
3.7507
3.76747
3.78354
3.79861
73.1774
70.2181
67.4614
64.8862
62.4708
60.196
58.044
56.0047
54.0701
52.2332
50.4877
48.8278
47.2484
45.7446
44.3118
42.946
41.6433
40.4
39.2128
38.0786
36.9944
35.9575
34.9654
34.0155
33.1058
32.2341
31.3984
30.5969
29.8278
29.0897
28.3808
27.6999
27.0456
26.4166
25.8118
25.2301
24.6705
24.1321
23.6128
23.1108
22.6249
22.154
21.6972
21.2531
20.8206
20.398
19.9832
19.5729
19.1616
18.7388
71.8241
67.0004
62.5981
58.5672
54.8759
51.4921
48.3897
45.5401
42.918
40.5008
38.2687
36.2039
34.2908
32.5156
30.8658
29.3303
27.8993
26.5639
25.316
24.1485
23.0548
22.0292
21.0662
20.161
19.3093
18.507
17.7506
17.0366
16.3621
15.7242
15.1204
14.5482
14.0056
13.4903
13.0005
12.5345
12.0906
11.6672
11.2637
10.8796
10.5137
10.165
9.83236
9.51485
9.21154
8.92154
8.64396
8.37794
8.12251
7.87656
71.8183
66.982
62.5556
58.5062
54.7967
51.3941
48.268
45.3908
42.7383
40.2889
38.0232
35.9245
33.9775
32.1687
30.486
28.9187
27.457
26.0921
24.8163
23.6223
22.5038
21.4548
20.4701
19.5447
18.6744
17.8551
17.0832
16.3551
15.668
15.019
14.4054
13.8249
13.2753
12.7547
12.2611
11.793
11.3486
10.9266
10.5256
10.1444
9.78169
9.43653
9.1079
8.7949
8.49666
8.21242
7.94143
7.68304
7.4366
7.20149
71.8184
67.0163
62.6275
58.6113
54.9289
51.5463
48.4337
45.5648
42.9162
40.4672
38.1996
36.0969
34.1446
32.3296
30.64
29.0654
27.5961
26.2237
24.9403
23.7388
22.6129
21.5567
20.5651
19.6331
18.7564
17.9309
17.1531
16.4195
15.7271
15.0731
14.4548
13.8699
13.3161
12.7915
12.2943
11.8225
11.3748
10.9496
10.5455
10.1614
9.79593
9.44816
9.11706
8.80169
8.5012
8.21479
7.94173
7.68131
7.43289
7.19582
71.8184
67.0171
62.6267
58.6058
54.9176
51.5292
48.4116
45.5386
42.8872
40.4366
38.1684
36.066
34.1146
32.301
30.6132
29.0407
27.5736
26.2035
24.9224
23.7232
22.5995
21.5455
20.5559
19.6259
18.7509
17.9272
17.1509
16.4188
15.7277
15.0748
14.4576
13.8737
13.3208
12.797
12.3004
11.8293
11.382
10.9572
10.5535
10.1696
9.8044
9.45675
9.12568
8.81026
8.50963
8.22299
7.94958
7.6887
7.43968
7.20186
71.8184
67.0197
62.6344
58.6198
54.9384
51.5569
48.4456
45.5783
42.9316
40.4848
38.2194
36.1191
34.169
32.3561
30.6685
29.0956
27.6279
26.2568
24.9745
23.774
22.6488
21.5932
20.602
19.6703
18.7937
17.9682
17.1903
16.4564
15.7637
15.1093
14.4905
13.905
13.3506
12.8254
12.3273
11.8548
11.4062
10.9801
10.575
10.1898
9.82332
9.47438
9.14202
8.82531
8.52337
8.23539
7.9606
7.69828
7.44776
7.20837
71.8184
67.0203
62.6359
58.6219
54.9405
51.5583
48.4458
45.5769
42.9285
40.48
38.213
36.1112
34.1599
32.3459
30.6576
29.0841
27.6161
26.2447
24.9624
23.7619
22.6369
21.5816
20.5907
19.6594
18.7832
17.9582
17.1807
16.4474
15.7551
15.1011
14.4828
13.8978
13.3439
12.819
12.3213
11.8492
11.4009
10.975
10.5702
10.1852
9.81888
9.47005
9.13775
8.82104
8.51903
8.23092
7.95592
7.69332
7.44242
7.20257
71.8184
67.0207
62.6371
58.6241
54.944
51.5631
48.452
45.5846
42.9376
40.4905
38.2249
36.1242
34.174
32.3609
30.6732
29.1004
27.6328
26.2617
24.9795
23.7791
22.6541
21.5986
20.6075
19.6758
18.7993
17.9739
17.1959
16.4621
15.7693
15.1148
14.4959
13.9102
13.3557
12.8302
12.3319
11.8591
11.4101
10.9836
10.5781
10.1924
9.82527
9.47567
9.14257
8.82503
8.52215
8.23312
7.95716
7.69355
7.44159
7.20062
71.8184
67.0208
62.6375
58.6249
54.9451
51.5644
48.4533
45.5858
42.9386
40.491
38.2249
36.1237
34.1729
32.3593
30.6711
29.0978
27.6297
26.2583
24.9757
23.775
22.6498
21.5941
20.6028
19.671
18.7944
17.969
17.191
16.4572
15.7644
15.1099
14.4911
13.9055
13.351
12.8255
12.3272
11.8544
11.4055
10.9789
10.5733
10.1875
9.82033
9.47059
9.13731
8.81954
8.51639
8.22704
7.95071
7.68667
7.43423
7.19272
71.8184
67.0208
62.6377
58.6253
54.9457
51.5652
48.4544
45.5871
42.9401
40.4928
38.227
36.1261
34.1755
32.3621
30.6742
29.101
27.6331
26.2618
24.9794
23.7788
22.6535
21.5979
20.6066
19.6748
18.7981
17.9726
17.1945
16.4606
15.7677
15.113
14.4939
13.9081
13.3534
12.8277
12.3291
11.856
11.4067
10.9798
10.5739
10.1877
9.82011
9.46991
9.13614
8.81784
8.51412
8.22416
7.94716
7.68241
7.42922
7.18691
71.8184
67.0208
62.6377
58.6253
54.9457
51.5652
48.4544
45.5871
42.9401
40.4928
38.2269
36.126
34.1754
32.362
30.674
29.1008
27.6329
26.2616
24.9792
23.7785
22.6532
21.5975
20.6062
19.6743
18.7976
17.972
17.1939
16.4598
15.7668
15.112
14.4929
13.9069
13.3521
12.8262
12.3275
11.8542
11.4047
10.9776
10.5714
10.185
9.817
9.46647
9.13231
8.81359
8.50942
8.21895
7.94141
7.67606
7.42224
7.17926
71.8184
67.0208
62.6375
58.6249
54.9451
51.5644
48.4533
45.5857
42.9385
40.4909
38.2247
36.1235
34.1727
32.359
30.6708
29.0974
27.6292
26.2577
24.9751
23.7743
22.6489
21.5931
20.6017
19.6698
18.793
17.9674
17.1892
16.4552
15.7622
15.1074
14.4882
13.9023
13.3474
12.8215
12.3228
11.8495
11.3999
10.9727
10.5665
10.1799
9.81176
9.46103
9.12666
8.80767
8.50318
8.21236
7.93442
7.66862
7.4143
7.17077
71.8184
67.0207
62.637
58.6241
54.9439
51.563
48.4519
45.5845
42.9375
40.4903
38.2246
36.1239
34.1735
32.3604
30.6726
29.0996
27.6319
26.2607
24.9784
23.7778
22.6525
21.5969
20.6055
19.6736
18.7967
17.971
17.1927
16.4585
15.7653
15.1103
14.4909
13.9047
13.3495
12.8233
12.3242
11.8505
11.4006
10.973
10.5663
10.1792
9.81064
9.45939
9.12446
8.80489
8.49977
8.20828
7.92963
7.66309
7.40797
7.16361
71.8184
67.0203
62.6359
58.6219
54.9405
51.5582
48.4457
45.5767
42.9283
40.4797
38.2126
36.1107
34.1593
32.3453
30.6567
29.0832
27.6149
26.2435
24.9609
23.7602
22.635
21.5794
20.5882
19.6566
18.78
17.9546
17.1767
16.4429
15.7501
15.0954
14.4764
13.8906
13.3358
12.81
12.3113
11.8379
11.3883
10.961
10.5546
10.1678
9.79935
9.44824
9.11342
8.7939
8.48879
8.19725
7.91848
7.65177
7.39641
7.15174
71.8184
67.0197
62.6344
58.6197
54.9383
51.5568
48.4455
45.5781
42.9313
40.4844
38.2189
36.1185
34.1683
32.3552
30.6674
29.0943
27.6264
26.2551
24.9725
23.7717
22.6462
21.5902
20.5986
19.6664
18.7893
17.9633
17.1848
16.4503
15.7569
15.1016
14.4819
13.8955
13.34
12.8135
12.3141
11.8401
11.3899
10.9619
10.5548
10.1673
9.79816
9.44636
9.11081
8.79055
8.48466
8.19232
7.91271
7.64511
7.38882
7.14317
71.8184
67.0171
62.6267
58.6058
54.9175
51.5291
48.4114
45.5384
42.8869
40.4362
38.1678
36.0653
34.1138
32.3
30.612
29.0393
27.572
26.2016
24.9202
23.7207
22.5967
21.5423
20.5522
19.6217
18.7462
17.9219
17.1449
16.412
15.7201
15.0663
14.4481
13.863
13.3089
12.7836
12.2854
11.8125
11.3633
10.9363
10.5301
10.1435
9.77516
9.42407
9.08917
8.76948
8.4641
8.17217
7.89291
7.62558
7.36948
7.12396
71.8184
67.0163
62.6275
58.6112
54.9288
51.5462
48.4335
45.5645
42.9158
40.4667
38.1989
36.0961
34.1436
32.3283
30.6386
29.0637
27.5942
26.2214
24.9376
23.7357
22.6094
21.5528
20.5606
19.628
18.7507
17.9245
17.1459
16.4115
15.7182
15.0631
14.4436
13.8574
13.3023
12.7761
12.2771
11.8034
11.3535
10.9259
10.5192
10.1321
9.76336
9.41192
9.07674
8.75684
8.45132
8.15936
7.88017
7.61306
7.35739
7.11259
71.8183
66.982
62.5556
58.5061
54.7966
51.394
48.2677
45.3905
42.7379
40.2883
38.0226
35.9237
33.9765
32.1675
30.4846
28.9171
27.4551
26.09
24.8139
23.6196
22.5007
21.4514
20.4663
19.5406
18.6698
17.8501
17.0776
16.3491
15.6615
15.0119
14.3977
13.8166
13.2664
12.7451
12.2508
11.7817
11.3364
10.9132
10.511
10.1284
9.76433
9.41767
9.08747
8.77284
8.473
8.18725
7.91501
7.65586
7.40962
7.17649
71.8241
67.0004
62.598
58.5672
54.8758
51.492
48.3896
45.54
42.918
40.5008
38.2687
36.204
34.2911
32.516
30.8663
29.3311
27.9004
26.5652
25.3178
24.1507
23.0576
22.0327
21.0705
20.1663
19.3158
18.5149
17.7602
17.0482
16.376
15.7409
15.1403
14.572
14.0338
13.5239
13.0406
12.5821
12.1471
11.7342
11.3423
10.9702
10.6171
10.2819
9.9641
9.66301
9.37825
9.10962
8.85732
8.62215
8.40615
8.21396
73.1774
70.2181
67.4614
64.8862
62.4708
60.196
58.0439
56.0045
54.0697
52.2326
50.4868
48.8267
47.2469
45.7427
44.3095
42.9432
41.6399
40.396
39.208
38.0729
36.9877
35.9497
34.9562
34.0049
33.0935
32.2198
31.3819
30.578
29.8061
29.0647
28.3522
27.6671
27.008
26.3736
25.7626
25.1738
24.6062
24.0586
23.5299
23.0192
22.5255
22.0478
21.5853
21.1371
20.7022
20.2797
19.8687
19.4682
19.0769
18.6934
5.72355
0.914103
0.422213
0.375577
0.352762
0.345527
0.33017
0.320945
0.308382
0.298101
0.287792
0.2768
0.268509
0.256789
0.250403
0.237622
0.236371
0.249609
0.51726
3.38573
5.74401
0.920741
0.426748
0.379899
0.356967
0.349618
0.33415
0.324805
0.31214
0.301739
0.291336
0.280226
0.271849
0.260011
0.253548
0.240644
0.239355
0.252705
0.522288
3.39973
5.76472
0.927192
0.431328
0.384287
0.361239
0.353775
0.338196
0.328728
0.31596
0.305438
0.294939
0.283711
0.275246
0.26329
0.256747
0.24372
0.242391
0.255852
0.527309
3.41243
5.78567
0.933608
0.435964
0.388745
0.365581
0.358
0.342309
0.332717
0.319844
0.3092
0.298604
0.287255
0.278702
0.266626
0.260002
0.246853
0.24548
0.259039
0.532015
3.42536
5.80687
0.940053
0.440664
0.393274
0.369994
0.362293
0.346489
0.336771
0.323793
0.313026
0.302332
0.290861
0.282217
0.270021
0.263315
0.250042
0.248622
0.26225
0.536627
3.4385
5.82831
0.946557
0.445434
0.397875
0.374479
0.366657
0.35074
0.340894
0.32781
0.316916
0.306124
0.29453
0.285794
0.273477
0.266685
0.253288
0.251819
0.265496
0.541216
3.45187
5.84999
0.953137
0.450279
0.402551
0.379039
0.371093
0.355062
0.345086
0.331895
0.320873
0.309981
0.298262
0.289434
0.276993
0.270116
0.256593
0.25507
0.268786
0.545818
3.46544
5.87192
0.9598
0.4552
0.407303
0.383674
0.375603
0.359456
0.349348
0.336049
0.324898
0.313904
0.302059
0.293136
0.280572
0.273608
0.259958
0.258379
0.272124
0.550454
3.47923
5.89411
0.966554
0.460202
0.412133
0.388386
0.380188
0.363925
0.353682
0.340274
0.328992
0.317896
0.305923
0.296904
0.284215
0.277163
0.263382
0.261747
0.275514
0.555137
3.49323
5.91655
0.973402
0.465286
0.417042
0.393178
0.384849
0.368469
0.35809
0.344572
0.333157
0.321957
0.309854
0.300739
0.287923
0.280781
0.266868
0.265174
0.27896
0.559876
3.50744
5.93925
0.980347
0.470453
0.422032
0.39805
0.389588
0.373091
0.362573
0.348945
0.337394
0.326089
0.313855
0.304641
0.291698
0.284464
0.270417
0.268663
0.282465
0.564677
3.52187
5.96222
0.987392
0.475707
0.427105
0.403005
0.394407
0.377792
0.367133
0.353393
0.341704
0.330293
0.317927
0.308612
0.29554
0.288213
0.27403
0.272214
0.286029
0.569547
3.53652
5.98545
0.994538
0.481049
0.432262
0.408044
0.399308
0.382574
0.371772
0.357918
0.34609
0.334571
0.322071
0.312655
0.299451
0.29203
0.277709
0.27583
0.289656
0.574488
3.55139
6.00895
1.00179
0.48648
0.437505
0.413168
0.404292
0.387438
0.37649
0.362522
0.350553
0.338925
0.326288
0.31677
0.303433
0.295916
0.281456
0.279511
0.293348
0.579505
3.56649
6.03273
1.00914
0.492002
0.442837
0.41838
0.409361
0.392386
0.381291
0.367207
0.355095
0.343356
0.330581
0.320958
0.307487
0.299872
0.285271
0.28326
0.297106
0.584601
3.58182
6.05679
1.0166
0.497617
0.448258
0.423681
0.414517
0.39742
0.386174
0.371974
0.359717
0.347866
0.334951
0.325223
0.311615
0.303901
0.289156
0.287077
0.300931
0.589778
3.59738
6.08114
1.02417
0.503327
0.453771
0.429074
0.419761
0.402542
0.391144
0.376825
0.364421
0.352456
0.3394
0.329564
0.315818
0.308003
0.293113
0.290965
0.304827
0.59504
3.61318
6.10577
1.03184
0.509133
0.459377
0.43456
0.425096
0.407753
0.3962
0.381762
0.369208
0.357129
0.34393
0.333985
0.320098
0.312181
0.297144
0.294924
0.308794
0.600388
3.62922
6.13069
1.03963
0.515038
0.465079
0.440141
0.430523
0.413056
0.401345
0.386786
0.374082
0.361886
0.348541
0.338486
0.324457
0.316435
0.30125
0.298957
0.312834
0.605826
3.64551
6.15591
1.04753
0.521043
0.470878
0.445819
0.436045
0.418452
0.406581
0.391901
0.379043
0.366728
0.353237
0.343069
0.328896
0.320769
0.305433
0.303066
0.31695
0.611355
3.66205
6.18143
1.05554
0.527151
0.476777
0.451596
0.441662
0.423944
0.411911
0.397107
0.384093
0.371659
0.358019
0.347736
0.333418
0.325183
0.309695
0.307252
0.321143
0.616978
3.67884
6.20726
1.06367
0.533363
0.482777
0.457475
0.447379
0.429533
0.417335
0.402406
0.389234
0.376679
0.362889
0.35249
0.338024
0.329679
0.314037
0.311516
0.325415
0.622697
3.69589
6.23339
1.07191
0.539682
0.488881
0.463457
0.453196
0.435221
0.422856
0.407802
0.39447
0.381791
0.367848
0.357332
0.342717
0.33426
0.318462
0.315861
0.329767
0.628515
3.7132
6.25983
1.08028
0.546109
0.495091
0.469545
0.459116
0.441012
0.428476
0.413295
0.3998
0.386997
0.3729
0.362264
0.347497
0.338927
0.322971
0.320289
0.334203
0.634434
3.73079
6.2866
1.08876
0.552647
0.501409
0.475741
0.465141
0.446907
0.434198
0.418888
0.405229
0.392299
0.378046
0.367287
0.352368
0.343682
0.327566
0.324801
0.338723
0.640456
3.74864
6.31368
1.09737
0.559299
0.507838
0.482047
0.471273
0.452908
0.440024
0.424584
0.410757
0.3977
0.383287
0.372406
0.357332
0.348528
0.33225
0.3294
0.34333
0.646583
3.76678
6.34109
1.10611
0.566067
0.51438
0.488466
0.477516
0.459017
0.445956
0.430384
0.416388
0.4032
0.388628
0.37762
0.362389
0.353466
0.337025
0.334088
0.348026
0.652819
3.7852
6.36883
1.11497
0.572952
0.521037
0.495001
0.48387
0.465238
0.451996
0.436291
0.422123
0.408804
0.394069
0.382934
0.367544
0.358499
0.341892
0.338867
0.352814
0.659166
3.8039
6.39691
1.12396
0.579958
0.527813
0.501653
0.490339
0.471573
0.458147
0.442307
0.427965
0.414513
0.399613
0.388348
0.372798
0.363629
0.346854
0.343738
0.357694
0.665626
3.82291
6.42533
1.13308
0.587088
0.534708
0.508426
0.496926
0.478024
0.464412
0.448435
0.433917
0.420329
0.405263
0.393866
0.378153
0.368858
0.351914
0.348705
0.362671
0.672202
3.84221
6.45409
1.14234
0.594343
0.541728
0.515322
0.503632
0.484593
0.470792
0.454678
0.439981
0.426256
0.41102
0.39949
0.383612
0.374189
0.357073
0.353769
0.367745
0.678897
3.86182
6.4832
1.15173
0.601728
0.548873
0.522344
0.510461
0.491285
0.477291
0.461038
0.446159
0.432295
0.416889
0.405222
0.389177
0.379624
0.362334
0.358933
0.37292
0.685713
3.88174
6.51267
1.16127
0.609243
0.556147
0.529495
0.517416
0.4981
0.483912
0.467518
0.452455
0.43845
0.42287
0.411066
0.394851
0.385165
0.367699
0.3642
0.378198
0.692653
3.90198
6.54249
1.17095
0.616894
0.563553
0.536777
0.524499
0.505043
0.490657
0.474121
0.458871
0.444722
0.428968
0.417023
0.400637
0.390816
0.373172
0.369572
0.383582
0.699721
3.92255
6.57269
1.18077
0.624681
0.571094
0.544195
0.531714
0.512117
0.49753
0.480849
0.46541
0.451116
0.435184
0.423097
0.406538
0.396579
0.378755
0.375051
0.389073
0.706919
3.94344
6.60325
1.19074
0.632609
0.578773
0.55175
0.539062
0.519323
0.504532
0.487706
0.472075
0.457634
0.441522
0.429289
0.412555
0.402456
0.38445
0.380641
0.394676
0.714251
3.96467
6.63419
1.20086
0.640681
0.586592
0.559446
0.546549
0.526666
0.511668
0.494694
0.478869
0.464279
0.447984
0.435605
0.418693
0.408451
0.39026
0.386344
0.400392
0.721719
3.98625
6.66551
1.21114
0.6489
0.594556
0.567286
0.554176
0.534149
0.518941
0.501817
0.485795
0.471053
0.454574
0.442045
0.424954
0.414567
0.396189
0.392162
0.406226
0.729327
4.00818
6.69721
1.22157
0.65727
0.602668
0.575274
0.561947
0.541774
0.526353
0.509078
0.492856
0.477961
0.461295
0.448614
0.431341
0.420806
0.402239
0.3981
0.412178
0.737078
4.03047
6.72931
1.23216
0.665793
0.61093
0.583414
0.569866
0.549546
0.533909
0.516481
0.500056
0.485005
0.46815
0.455315
0.437857
0.427172
0.408414
0.40416
0.418254
0.744976
4.05312
6.76181
1.24292
0.674473
0.619347
0.591708
0.577936
0.557467
0.541611
0.524028
0.507398
0.492189
0.475143
0.46215
0.444506
0.433668
0.414716
0.410345
0.424456
0.753025
4.07614
6.79472
1.25384
0.683314
0.627923
0.60016
0.58616
0.565542
0.549463
0.531724
0.514886
0.499517
0.482276
0.469124
0.451291
0.440297
0.421149
0.416658
0.430786
0.761228
4.09955
6.82803
1.26493
0.69232
0.63666
0.608774
0.594543
0.573774
0.557469
0.539571
0.522523
0.506991
0.489554
0.476239
0.458215
0.447063
0.427717
0.423103
0.43725
0.769589
4.12335
6.86177
1.2762
0.701495
0.645564
0.617555
0.603088
0.582167
0.565633
0.547575
0.530313
0.514616
0.49698
0.4835
0.465283
0.453969
0.434422
0.429683
0.443849
0.778112
4.14754
6.89592
1.28765
0.710842
0.654637
0.626505
0.6118
0.590725
0.573959
0.555738
0.538259
0.522395
0.504557
0.490911
0.472497
0.461019
0.441269
0.436401
0.450589
0.7868
4.17214
6.93051
1.29927
0.720366
0.663884
0.635629
0.620681
0.599452
0.58245
0.564065
0.546366
0.530332
0.512291
0.498474
0.479862
0.468217
0.448261
0.443262
0.457471
0.79566
4.19715
6.96554
1.31108
0.730071
0.673309
0.644932
0.629737
0.608352
0.59111
0.572559
0.554638
0.538432
0.520184
0.506194
0.487381
0.475566
0.455402
0.45027
0.464501
0.804693
4.22259
7.00101
1.32309
0.739961
0.682917
0.654418
0.638972
0.617429
0.599945
0.581225
0.563079
0.546698
0.528241
0.514075
0.495059
0.483071
0.462696
0.457427
0.471683
0.813906
4.24846
7.03693
1.33528
0.750041
0.692711
0.66409
0.648389
0.626688
0.608958
0.590068
0.571693
0.555135
0.536466
0.522122
0.5029
0.490735
0.470147
0.464739
0.479019
0.823303
4.27477
7.07331
1.34767
0.760315
0.702697
0.673954
0.657995
0.636134
0.618154
0.599091
0.580486
0.563747
0.544864
0.530338
0.510908
0.498563
0.47776
0.472209
0.486515
0.832888
4.30154
7.11016
1.36027
0.770788
0.712879
0.684015
0.667793
0.64577
0.627538
0.6083
0.58946
0.572539
0.553439
0.538728
0.519087
0.50656
0.485538
0.479842
0.494176
0.842667
4.32876
7.14748
1.37307
0.781464
0.723262
0.694277
0.677788
0.655602
0.637113
0.617699
0.598622
0.581515
0.562196
0.547297
0.527443
0.514729
0.493487
0.487642
0.502004
0.852644
4.35646
7.18528
1.38608
0.79235
0.733851
0.704746
0.687985
0.665636
0.646887
0.627293
0.607975
0.590681
0.571139
0.55605
0.535979
0.523077
0.50161
0.495613
0.510006
0.862825
4.38465
7.22357
1.39931
0.803449
0.744652
0.715426
0.69839
0.675875
0.656862
0.637087
0.617526
0.600041
0.580273
0.564991
0.544701
0.531606
0.509913
0.503761
0.518186
0.873216
4.41332
7.26236
1.41276
0.814768
0.755669
0.726323
0.709007
0.686326
0.667046
0.647087
0.627279
0.609601
0.589605
0.574125
0.553615
0.540323
0.518401
0.512091
0.526549
0.883821
4.4425
7.30166
1.42644
0.826312
0.766908
0.737443
0.719843
0.696993
0.677442
0.657297
0.63724
0.619365
0.599139
0.583459
0.562724
0.549233
0.527079
0.520606
0.5351
0.894647
4.4722
7.34147
1.44035
0.838086
0.778375
0.748791
0.730903
0.707883
0.688057
0.667724
0.647414
0.62934
0.60888
0.592997
0.572035
0.55834
0.535952
0.529314
0.543845
0.9057
4.50242
7.3818
1.45449
0.850096
0.790075
0.760372
0.742192
0.719001
0.698897
0.678373
0.657807
0.639531
0.618834
0.602744
0.581553
0.567651
0.545025
0.538219
0.552788
0.916985
4.53319
7.42266
1.46888
0.862349
0.802015
0.772194
0.753717
0.730353
0.709967
0.68925
0.668425
0.649943
0.629007
0.612707
0.591284
0.577171
0.554305
0.547327
0.561937
0.92851
4.56451
7.46407
1.48351
0.874849
0.8142
0.784262
0.765484
0.741945
0.721274
0.700362
0.679274
0.660584
0.639406
0.622892
0.601234
0.586907
0.563798
0.556643
0.571296
0.940281
4.5964
7.50602
1.4984
0.887605
0.826638
0.796583
0.7775
0.753784
0.732824
0.711713
0.69036
0.671459
0.650035
0.633305
0.611409
0.596863
0.573508
0.566174
0.580871
0.952305
4.62886
7.54854
1.51355
0.900621
0.839334
0.809162
0.78977
0.765877
0.744624
0.723312
0.70169
0.682575
0.660903
0.643952
0.621815
0.607047
0.583444
0.575925
0.59067
0.964589
4.66192
7.59162
1.52896
0.913906
0.852296
0.822008
0.802301
0.77823
0.75668
0.735165
0.71327
0.693938
0.672015
0.65484
0.63246
0.617466
0.59361
0.585904
0.600698
0.97714
4.69559
7.63529
1.54464
0.927465
0.86553
0.835127
0.815102
0.790849
0.768999
0.747279
0.725109
0.705555
0.683378
0.665976
0.643349
0.628125
0.604014
0.596117
0.610963
0.989966
4.72988
7.67954
1.56061
0.941307
0.879044
0.848526
0.828178
0.803743
0.781589
0.75966
0.737212
0.717434
0.695
0.677367
0.65449
0.639032
0.614663
0.606571
0.621471
1.00307
4.76481
7.72439
1.57686
0.955438
0.892844
0.862214
0.841538
0.816919
0.794457
0.772317
0.749587
0.729582
0.706888
0.68902
0.665891
0.650194
0.625564
0.617273
0.632229
1.01647
4.80039
7.76985
1.5934
0.969866
0.90694
0.876196
0.855189
0.830385
0.807611
0.785257
0.762241
0.742006
0.719049
0.700942
0.677558
0.661618
0.636725
0.62823
0.643246
1.03017
4.83664
7.81594
1.61024
0.9846
0.921339
0.890483
0.86914
0.844147
0.821059
0.798488
0.775184
0.754715
0.731492
0.713142
0.6895
0.673313
0.648153
0.639451
0.654529
1.04418
4.87358