/*--------------------------------*- C++ -*----------------------------------*\
  =========                 |
  \\      /  F ield         | OpenFOAM: The Open Source CFD Toolbox
   \\    /   O peration     | Website:  https://openfoam.org
    \\  /    A nd           | Version:  8
     \\/     M anipulation  |
\*---------------------------------------------------------------------------*/
FoamFile
{
    version     2.0;
    format      ascii;
    class       volScalarField;
    location    "900";
    object      p;
}
// * * * * * * * * * * * * * * * * * * * * * * * * * * * * * * * * * * * * * //

dimensions      [1 -1 -2 0 0 0 0];

internalField   nonuniform List<scalar> 
8400
(
11662.9
11681.9
11697.7
11713.1
11728.2
11743.2
11758.4
11773.9
11789.7
11806
11822.8
11840.3
11858.6
11877.9
11898.3
11919.9
11943.1
11968.1
11995.1
12024.4
12056.6
12091.9
12130.9
12174.3
12222.7
12277
12337.9
12406.2
12483.3
12570.5
12669.5
12782.1
12910.3
13056.8
13224.3
13416.2
13636.3
13889
14179.6
14514.3
14900.2
15345.9
15861.9
16462.3
17163.4
17979.4
18925.3
20062.1
21556.3
23502.2
11554.8
11568.6
11582.3
11596.4
11610.6
11624.8
11639.2
11653.8
11668.7
11684
11699.8
11716.2
11733.4
11751.3
11770.3
11790.5
11812.1
11835.2
11860.2
11887.4
11917.2
11949.8
11985.9
12025.9
12070.5
12120.3
12176.3
12239.4
12310.7
12391.6
12483.4
12587.8
12707
12843.2
12998.9
13177.3
13381.9
13616.8
13886.5
14196.6
14553.2
14963.3
15435.6
15980.4
16609
17329.7
18149.9
19100.2
20264.2
21692.5
11488.6
11506.8
11522.9
11538.1
11553.2
11568.5
11584
11599.8
11616
11632.7
11650
11667.9
11686.7
11706.5
11727.4
11749.5
11773.1
11798.5
11825.9
11855.6
11888
11923.5
11962.6
12005.6
12053.4
12106.4
12165.7
12232.2
12307.1
12391.6
12487.1
12595.4
12718.5
12858.7
13018.5
13201
13409.7
13648.6
13922.2
14235.9
14595.6
15008.2
15481.4
16024.4
16646.2
17353.9
18153.4
19059.5
20102.9
21278.7
11354
11358.2
11368.1
11380
11392.7
11405.7
11419
11432.5
11446.3
11460.4
11474.9
11490
11505.6
11522
11539.1
11557.3
11576.6
11597.2
11619.4
11643.5
11669.6
11698.2
11729.8
11764.8
11803.8
11847.4
11896.2
11951.2
12013.3
12083.7
12163.6
12254.5
12358.2
12476.6
12612.2
12767.4
12945.5
13149.9
13384.5
13653.9
13963.4
14318.5
14726
15193
15726.8
16333.5
17018.7
17791.4
18666.4
19640.1
11308.9
11330.5
11347.4
11362.4
11377.1
11391.9
11406.9
11422.3
11438
11454.2
11470.9
11488.2
11506.1
11524.9
11544.6
11565.4
11587.4
11610.8
11635.9
11662.8
11691.9
11723.3
11757.6
11795.2
11836.6
11882.3
11933.1
11989.8
12053.1
12124.2
12204.2
12294.5
12396.5
12512.2
12643.5
12792.7
12962.5
13155.9
13376.3
13627.3
13913.2
14238.3
14607.5
15025.6
15497.3
16025.7
16612.2
17259.1
17972.4
18750.8
11150.5
11150.8
11158.8
11169.6
11181.4
11193.6
11206.1
11218.8
11231.8
11245
11258.7
11272.7
11287.2
11302.2
11317.9
11334.4
11351.8
11370.3
11390
11411.3
11434.3
11459.2
11486.5
11516.4
11549.4
11585.9
11626.7
11672.2
11723.3
11780.9
11846
11919.7
12003.4
12098.7
12207.3
12331.3
12473
12635.1
12820.3
13032.1
13274
13549.8
13863.6
14219.2
14620.4
15069.3
15566.3
16110.2
16703.2
17345.9
11121
11144.9
11162.1
11176.6
11190.4
11204.3
11218.2
11232.4
11246.9
11261.6
11276.7
11292.2
11308.1
11324.5
11341.5
11359.3
11377.7
11397.1
11417.5
11439.1
11462.1
11486.8
11513.3
11542.1
11573.3
11607.5
11645
11686.4
11732.3
11783.4
11840.5
11904.4
11976.3
12057.4
12149
12252.8
12370.4
12503.9
12655.6
12827.9
13023.6
13245.3
13496.2
13779.1
14096.6
14450.2
14839.7
15263.7
15723.9
16222.6
10950.8
10949.2
10956.3
10966.6
10977.9
10989.6
11001.6
11013.8
11026.2
11038.8
11051.7
11064.8
11078.3
11092.3
11106.7
11121.6
11137.2
11153.4
11170.5
11188.6
11207.7
11228.2
11250
11273.6
11299.1
11326.9
11357.3
11390.7
11427.6
11468.5
11514
11564.8
11621.8
11685.9
11758.1
11839.7
11932
12036.6
12155.2
12289.6
12441.8
12614.1
12808.4
13026.9
13271.5
13543.1
13841.3
14165.1
14515.9
14896.9
10928.1
10952.3
10969
10982.7
10995.5
11008.2
11020.8
11033.6
11046.5
11059.4
11072.5
11085.8
11099.2
11112.8
11126.6
11140.6
11155
11169.8
11184.9
11200.6
11216.8
11233.8
11251.5
11270.2
11290
11311
11333.6
11357.9
11384.2
11412.8
11444.2
11478.8
11517.1
11559.6
11607.2
11660.4
11720.4
11787.9
11864.3
11950.7
12048.5
12159.2
12284.3
12425.3
12583.6
12760.3
12955.5
13168.9
13402.2
13659.5
10754.5
10752.2
10758.8
10768.5
10779.3
10790.5
10801.9
10813.3
10825
10836.7
10848.6
10860.6
10872.7
10885
10897.5
10910.2
10923.1
10936.2
10949.6
10963.4
10977.4
10991.9
11006.8
11022.2
11038.2
11054.9
11072.3
11090.5
11109.8
11130.1
11151.6
11174.6
11199.3
11225.8
11254.5
11285.7
11319.7
11357
11398.1
11443.6
11494.1
11550.3
11613.3
11683.7
11762.8
11851.5
11950.5
12060.5
12183.9
12325.6
10732
10755.6
10771.5
10784.2
10796.2
10807.9
10819.5
10831
10842.6
10854
10865.5
10876.8
10888.1
10899.3
10910.3
10921.3
10932.1
10942.7
10953.1
10963.3
10973.3
10983
10992.4
11001.5
11010.3
11018.6
11026.5
11033.8
11040.6
11046.7
11052.2
11056.8
11060.6
11063.5
11065.3
11065.9
11065.4
11063.5
11060.3
11055.8
11049.9
11042.8
11034.8
11026.4
11018.3
11011.5
11007.4
11007.9
11016.6
11038.7
10560.5
10558.1
10564.1
10573.2
10583.2
10593.5
10603.9
10614.4
10624.8
10635.1
10645.4
10655.6
10665.7
10675.7
10685.4
10695
10704.3
10713.2
10721.9
10730.1
10737.9
10745.1
10751.6
10757.3
10762.2
10766
10768.5
10769.7
10769.2
10766.8
10762.1
10754.9
10744.6
10731
10713.3
10691.2
10663.8
10630.6
10590.7
10543.5
10488.1
10423.8
10350.2
10266.9
10174.1
10072.7
9964.29
9851.91
9740.09
9636.07
10533.4
10555.6
10570.7
10582.8
10594.2
10605.2
10616.2
10627
10637.7
10648.3
10658.6
10668.7
10678.6
10688
10697.1
10705.7
10713.8
10721.2
10727.9
10733.8
10738.6
10742.4
10744.8
10745.7
10744.9
10742.1
10736.9
10729
10718.1
10703.5
10684.9
10661.4
10632.5
10597.4
10555
10504.4
10444.4
10373.8
10291.2
10195.1
10084.2
9956.8
9811.82
9648.34
9466.04
9265.52
9048.8
8820.02
8585.72
8355.09
10368.9
10366.9
10372.6
10380.9
10390
10399.4
10408.6
10417.8
10426.7
10435.5
10443.9
10452
10459.7
10466.9
10473.6
10479.6
10484.8
10489.2
10492.6
10494.8
10495.7
10495.1
10492.7
10488.2
10481.3
10471.7
10459
10442.6
10421.9
10396.4
10365.2
10327.6
10282.5
10228.8
10165.2
10090.2
10002.2
9899.32
9779.43
9640.29
9479.46
9294.42
9082.65
8841.97
8570.72
8268.16
7935.22
7575.74
7197.6
6814.95
10331.5
10351.5
10365.5
10377.1
10388
10398.7
10409.2
10419.6
10429.8
10439.7
10449.3
10458.5
10467.3
10475.5
10483.1
10489.9
10496
10501
10504.8
10507.3
10508.1
10507.2
10504.1
10498.5
10490
10478.1
10462.4
10442.1
10416.5
10384.9
10346.2
10299.2
10242.8
10175.4
10095.2
10000.4
9888.6
9757.32
9603.66
9424.45
9216.19
8975.15
8697.54
8379.82
8019.14
7613.72
7163.42
6672.01
6150.68
5619.85
10180.6
10180.3
10186.2
10194.2
10202.8
10211.4
10219.9
10228
10235.9
10243.3
10250.2
10256.6
10262.3
10267.2
10271.2
10274.2
10276
10276.5
10275.3
10272.4
10267.3
10259.8
10249.6
10236.1
10218.8
10197.3
10170.9
10138.7
10099.9
10053.5
9998.36
9933.04
9856.01
9765.47
9659.35
9535.26
9390.46
9221.86
9025.89
8798.59
8535.5
8231.71
7881.89
7480.72
7023.34
6505.39
5922.45
5272.36
4564.01
3828.38
10123.9
10141
10153.7
10164.8
10175.3
10185.6
10195.7
10205.5
10215
10224.1
10232.9
10241.1
10248.7
10255.6
10261.7
10266.8
10270.8
10273.5
10274.7
10274.1
10271.4
10266.3
10258.4
10247.2
10232.3
10213
10188.6
10158.3
10121.1
10075.9
10021.5
9956.35
9878.7
9786.58
9677.63
9549.16
9398.01
9220.52
9012.45
8768.9
8484.22
8151.85
7764.25
7313.16
6790.34
6187.38
5493.37
4696.6
3803.61
2865
9993.64
9997.96
10005.7
10014.5
10023.3
10032
10040.3
10048.3
10055.8
10062.7
10069.1
10074.7
10079.6
10083.4
10086.2
10087.7
10087.8
10086.2
10082.6
10076.8
10068.3
10056.9
10042
10023
9999.45
9970.5
9935.35
9893.01
9842.35
9782.07
9710.63
9626.27
9526.93
9410.2
9273.29
9112.93
8925.3
8705.95
8449.64
8150.26
7800.67
7392.46
6915.62
6358.68
5709.83
4957.69
4086.83
3071.98
1900.12
635.255
9907.02
9925.78
9937.89
9948.66
9958.79
9968.53
9977.92
9986.94
9995.56
10003.7
10011.3
10018.3
10024.5
10029.8
10034.2
10037.3
10039.2
10039.4
10037.8
10034.1
10027.9
10018.8
10006.4
9990.2
9969.48
9943.59
9911.69
9872.82
9825.87
9769.56
9702.39
9622.61
9528.2
9416.82
9285.69
9131.63
8950.88
8739.03
8490.89
8200.36
7860.26
7462.01
6994.96
6446.05
5801.22
5047.73
4166.17
3102.67
1771.26
197.205
9807
9816.74
9826.55
9836.34
9845.84
9855.01
9863.8
9872.18
9880.09
9887.46
9894.22
9900.26
9905.48
9909.74
9912.89
9914.75
9915.12
9913.76
9910.4
9904.72
9896.36
9884.88
9869.8
9850.55
9826.47
9796.8
9760.64
9716.96
9664.58
9602.09
9527.87
9440.04
9336.4
9214.36
9070.91
8902.48
8704.89
8473.14
8201.27
7882.12
7507.06
7065.36
6543.17
5922.13
5180.35
4295.13
3230.86
1883.46
43.5149
-2333.57
19425
11263.1
7230.23
5711.88
4877.48
4268.63
3844.92
3560.61
3360.46
3209.39
3089.7
2991.52
2908.3
2835.57
2770.26
2710.26
2654.02
2600.35
2548.32
2497.13
2446.11
2394.6
2342
2287.67
2230.95
2171.14
2107.46
2039.01
1964.8
1883.67
1794.28
1695.13
1584.46
1460.3
1320.14
1161.04
979.574
771.74
532.712
256.554
-63.8888
-437.229
-874.137
-1388.11
-1996.64
-2723.19
-3600.71
-4678.44
-6036.82
-7812.51
-6207.34
-1618.07
-116.288
450.019
884.325
1209.93
1434.3
1594.4
1713.27
1802.12
1868.2
1916.95
1952.28
1976.9
1992.77
2001.32
2003.61
2000.4
1992.25
1979.54
1962.48
1941.17
1915.58
1885.57
1850.88
1811.14
1765.86
1714.4
1655.95
1589.47
1513.77
1427.43
1328.75
1215.69
1086.04
937.071
765.535
567.511
338.411
72.8022
-235.986
-596.125
-1017.6
-1512.75
-2097.01
-2789.94
-3616.5
-4608.19
-5802.55
-7233.46
1024.61
3194.67
4377.84
4480.54
4323.91
4152.29
3965.99
3774.79
3596.43
3437.32
3296.54
3171.62
3060.16
2959.93
2868.93
2785.41
2707.88
2635.09
2565.93
2499.47
2434.86
2371.31
2308.07
2244.41
2179.58
2112.81
2043.3
1970.21
1892.59
1809.35
1719.25
1620.78
1512.2
1391.42
1256.14
1103.76
931.145
734.612
509.766
251.449
-46.4005
-391.036
-791.13
-1257.06
-1801.22
-2438.32
-3185.36
-4060.89
-5082.14
-6257.38
1275.7
1684.78
1876.28
1804.65
1702.45
1659.07
1647.46
1645.22
1649.5
1659.38
1672.02
1684.8
1696.2
1705.37
1711.8
1715.19
1715.37
1712.25
1705.8
1695.96
1682.68
1665.85
1645.33
1620.9
1592.24
1558.95
1520.55
1476.42
1425.86
1368.14
1302.32
1227.16
1141.26
1043
930.363
800.985
652.095
480.438
282.191
52.8957
-212.653
-520.555
-877.907
-1292.88
-1774.68
-2333.34
-2979.04
-3720.48
-4561.53
-5495.36
1717.16
1966.25
2282.9
2514.58
2654.49
2743.77
2796.1
2815.05
2808.69
2785.74
2752.01
2711.1
2665.5
2616.96
2566.7
2515.44
2463.64
2411.54
2359.2
2306.59
2253.58
2199.97
2145.48
2089.83
2032.64
1973.46
1911.7
1846.66
1777.55
1703.49
1623.49
1536.41
1440.95
1335.59
1218.49
1087.53
940.286
773.911
585.124
370.133
124.589
-156.467
-478.619
-848.011
-1271.16
-1754.54
-2303.78
-2922.23
-3608.51
-4353.85
1823.31
1908.94
2017.06
2079.11
2081.77
2053.67
2015.27
1973.01
1929.88
1888.63
1850.71
1816.3
1785.04
1756.4
1729.81
1704.7
1680.53
1656.83
1633.14
1609.08
1584.25
1558.28
1530.83
1501.47
1469.87
1435.63
1398.26
1357.27
1312.05
1261.86
1205.9
1143.22
1072.73
993.155
903.006
800.552
683.793
550.427
397.807
222.924
22.3854
-207.577
-471.055
-772.336
-1115.65
-1504.7
-1941.96
-2427.47
-2957.22
-3521.67
1838.87
1883.26
1954.99
2027.21
2082.57
2123.48
2155.09
2178.1
2192.16
2198.01
2196.82
2189.58
2177.13
2160.2
2139.43
2115.38
2088.52
2059.21
2027.72
1994.28
1959.02
1922.01
1883.23
1842.58
1799.92
1755.04
1707.69
1657.55
1604.2
1547.12
1485.7
1419.22
1346.84
1267.56
1180.23
1083.51
975.84
855.457
720.344
568.241
396.642
202.837
-16.0195
-262.763
-539.974
-849.592
-1192.36
-1567.03
-1969.47
-2392.35
1799.8
1822.01
1859.79
1899.79
1927.95
1940.85
1941.01
1931.07
1913.04
1888.96
1860.83
1830.21
1798.22
1765.63
1732.98
1700.55
1668.52
1636.91
1605.68
1574.73
1543.93
1513.08
1481.98
1450.41
1418.11
1384.78
1350.1
1313.73
1275.27
1234.28
1190.24
1142.59
1090.66
1033.72
970.917
901.268
823.67
736.877
639.498
529.999
406.721
267.928
111.875
-63.0593
-258.174
-474.158
-710.692
-965.951
-1235.98
-1514.63
1733.65
1747.25
1772.32
1802.96
1830.45
1850.74
1863.95
1871.13
1872.99
1870.16
1863.32
1853.09
1839.97
1824.36
1806.56
1786.86
1765.46
1742.54
1718.26
1692.71
1665.99
1638.14
1609.21
1579.2
1548.08
1515.8
1482.26
1447.35
1410.91
1372.75
1332.61
1290.22
1245.22
1197.21
1145.74
1090.25
1030.13
964.693
893.184
814.775
728.601
633.79
529.526
415.133
290.218
154.844
9.76163
-143.328
-301.515
-460.941
1650.19
1660.28
1679.47
1704.02
1726.95
1743.65
1752.92
1755.14
1750.98
1741.28
1726.98
1709.06
1688.37
1665.64
1641.43
1616.18
1590.24
1563.85
1537.19
1510.37
1483.47
1456.53
1429.55
1402.54
1375.46
1348.29
1320.96
1293.41
1265.59
1237.4
1208.75
1179.54
1149.65
1118.95
1087.31
1054.55
1020.53
985.07
947.994
909.143
868.382
825.624
780.866
734.235
686.048
636.896
587.733
539.979
495.643
457.256
1553.79
1563.9
1583.14
1607.77
1630.81
1647.65
1657.11
1659.56
1655.7
1646.34
1632.46
1615.03
1594.94
1572.91
1549.52
1525.25
1500.46
1475.41
1450.31
1425.32
1400.55
1376.09
1352
1328.34
1305.17
1282.54
1260.5
1239.1
1218.42
1198.55
1179.57
1161.62
1144.82
1129.36
1115.43
1103.28
1093.19
1085.5
1080.63
1079.05
1081.31
1088.06
1100.04
1118.07
1143.07
1176.01
1217.89
1269.69
1332.27
1406.38
1444.41
1458.08
1483.29
1514.16
1541.99
1562.72
1576.49
1584.33
1587.01
1585.16
1579.49
1570.63
1559.13
1545.41
1529.85
1512.75
1494.41
1475.07
1454.98
1434.35
1413.38
1392.29
1371.26
1350.51
1330.22
1310.62
1291.93
1274.39
1258.27
1243.87
1231.52
1221.59
1214.52
1210.81
1211.01
1215.78
1225.87
1242.14
1265.57
1297.28
1338.5
1390.6
1455.04
1533.36
1627.04
1737.45
1865.66
2012.23
2176.99
2359.11
1317.65
1339.95
1377.97
1418.35
1447.06
1460.69
1461.76
1452.95
1436.3
1413.88
1387.73
1359.45
1330.23
1300.92
1272.09
1244.17
1217.41
1191.99
1168
1145.52
1124.6
1105.29
1087.66
1071.8
1057.81
1045.85
1036.11
1028.82
1024.29
1022.88
1025.03
1031.25
1042.16
1058.49
1081.1
1110.96
1149.23
1197.24
1256.49
1328.69
1415.74
1519.74
1642.88
1787.46
1955.65
2149.37
2369.93
2617.73
2891.77
3190.07
1163.64
1208.18
1280.22
1352.98
1409.09
1450.98
1483.82
1508.34
1524.23
1532.26
1533.68
1529.54
1520.74
1508.11
1492.41
1474.31
1454.42
1433.27
1411.34
1389.07
1366.86
1345.09
1324.14
1304.37
1286.17
1269.94
1256.11
1245.16
1237.62
1234.1
1235.27
1241.91
1254.93
1275.37
1304.4
1343.41
1393.98
1457.92
1537.27
1634.36
1751.79
1892.38
2059.17
2255.27
2483.72
2747.15
3047.38
3384.83
3757.65
4161.92
954.825
1040.63
1149.15
1211.85
1215.44
1188.57
1151.73
1111.39
1070.61
1032.17
997.592
967.151
940.564
917.414
897.266
879.705
864.381
851.021
839.441
829.533
821.268
814.688
809.902
807.089
806.494
808.435
813.304
821.578
833.825
850.719
873.05
901.745
937.885
982.73
1037.74
1104.61
1185.3
1282.04
1397.42
1534.35
1696.11
1886.36
2109.05
2368.37
2668.5
3013.33
3405.85
3847.41
4336.49
4869.04
655.173
904.471
1221.58
1454.03
1595.04
1685.76
1739.91
1761.03
1757.31
1737.55
1707.65
1671.29
1631.05
1588.86
1546.04
1503.53
1462
1421.91
1383.65
1347.51
1313.77
1282.68
1254.51
1229.57
1208.2
1190.79
1177.82
1169.82
1167.44
1171.46
1182.76
1202.41
1231.62
1271.86
1324.8
1392.4
1476.93
1581.02
1707.7
1860.45
2043.2
2260.42
2517.03
2818.39
3170.11
3577.68
4045.85
4577.56
5171.94
5823.58
19.9107
429.222
621.224
550.444
449.451
407.699
398.111
398.381
405.705
419.238
436.206
454.119
471.571
487.862
502.654
515.846
527.511
537.846
547.133
555.709
563.958
572.304
581.21
591.18
602.77
616.59
633.322
653.729
678.675
709.14
746.245
791.273
845.701
911.232
989.831
1083.77
1195.67
1328.56
1485.95
1671.87
1890.95
2148.5
2450.53
2803.81
3215.79
3694.36
4247.37
4881.46
5599.82
6400.88
-425.283
1745.03
2928.76
3032.38
2877.07
2707.13
2522.96
2334.54
2159.52
2004.39
1868.35
1749.02
1644.17
1551.72
1469.86
1397.06
1332.09
1274
1222.06
1175.74
1134.67
1098.65
1067.58
1041.53
1020.65
1005.23
995.69
992.567
996.554
1008.5
1029.44
1060.6
1103.45
1159.71
1231.42
1320.96
1431.13
1565.18
1726.92
1920.78
2151.96
2426.47
2751.35
3134.74
3586.08
4116.11
4736.75
5460.26
6296.76
7251.51
-7851.71
-3262.18
-1759.81
-1192.53
-756.861
-429.522
-202.877
-39.973
82.3071
175.252
246.209
300.749
342.916
375.597
400.935
420.594
435.904
447.954
457.668
465.853
473.241
480.521
488.364
497.441
508.451
522.133
539.291
560.811
587.684
621.03
662.123
712.423
773.611
847.626
936.71
1043.47
1170.92
1322.59
1502.58
1715.69
1967.54
2264.79
2615.28
3028.41
3515.49
4090.29
4769.69
5574.24
6527.59
7655.86
17585.8
9424.1
5391.83
3874.47
3041.51
2434.61
2013.34
1731.95
1535.35
1388.55
1273.94
1181.77
1105.66
1041.28
985.794
937.307
894.555
856.687
823.145
793.593
767.867
745.942
727.919
714.01
704.538
699.938
700.765
707.701
721.573
743.369
774.26
815.629
869.103
936.588
1020.32
1122.91
1247.43
1397.46
1577.21
1791.63
2046.58
2349.01
2707.29
3131.61
3634.63
4232.58
4947.16
5809.14
6865.46
8198.26
-20202.9
-15587.3
-14017.1
-10059.2
-8092.79
-4675.08
-2573.8
481.488
2586.28
5395.13
7425.86
10069.5
11968.1
14515.8
16223.1
18746.5
20178.4
22762.3
23762.7
26396.8
-20229.1
-15626.5
-14066.3
-10110.4
-8150.96
-4731.82
-2636.28
421.159
2521.53
5332.52
7359.74
10006
11901.9
14453.4
16159.6
18689.9
20124.6
22723.4
23737.7
26410.4
-20263.5
-15663.8
-14113.1
-10158.4
-8205.78
-4785.69
-2695.39
363.799
2460.09
5273.22
7297.31
9946.28
11840.2
14395.6
16101.7
18638.1
20076.5
22685.9
23710
26400
-20302.4
-15701.6
-14158.8
-10204.4
-8258.19
-4837.1
-2751.84
309.046
2401.37
5216.71
7237.8
9889.58
11781.7
14340.8
16046.9
18588.5
20029.8
22646.4
23675.4
26373.2
-20343.3
-15740.1
-14203.9
-10249.1
-8308.81
-4886.53
-2806.16
256.493
2344.93
5162.48
7180.64
9835.18
11725.4
14288
15993.7
18539.6
19982.4
22603.7
23634.6
26336.8
-20385.3
-15778.9
-14248.5
-10292.7
-8358.07
-4934.37
-2858.74
205.739
2290.34
5110.08
7125.29
9782.44
11670.7
14236.3
15941.2
18490.5
19933.6
22558.1
23589
26294.2
-20427.7
-15817.9
-14292.7
-10335.6
-8406.26
-4980.95
-2909.93
156.426
2237.2
5059.09
7071.28
9730.85
11616.9
14185.2
15888.9
18440.7
19883.1
22509.9
23539.8
26247.3
-20470.2
-15856.8
-14336.5
-10377.8
-8453.57
-5026.51
-2960.03
108.249
2185.21
5009.16
7018.25
9680.05
11563.7
14134.2
15836.3
18390.2
19831.2
22459.7
23487.8
26197.4
-20512.6
-15895.5
-14379.9
-10419.5
-8500.18
-5071.27
-3009.25
60.955
2134.08
4960.02
6965.9
9629.72
11510.8
14083.2
15783.3
18338.8
19777.9
22407.7
23433.7
26145.2
-20554.8
-15933.9
-14423
-10460.7
-8546.21
-5115.36
-3057.78
14.3401
2083.6
4911.43
6914.02
9579.67
11457.9
14032.1
15729.8
18286.7
19723.5
22354.4
23378
26091.3
-20596.7
-15972
-14465.7
-10501.5
-8591.75
-5158.94
-3105.77
-31.7584
2033.61
4863.22
6862.44
9529.75
11405.1
13980.7
15675.8
18233.9
19668.2
22299.9
23321
26036.1
-20638.4
-16009.8
-14508
-10541.8
-8636.9
-5202.1
-3153.34
-77.4691
1983.98
4815.29
6811.05
9479.87
11352.2
13929
15621.4
18180.5
19612
22244.4
23263
25979.7
-20679.8
-16047.3
-14550.1
-10581.9
-8681.71
-5244.92
-3200.58
-122.892
1934.61
4767.51
6759.76
9429.96
11299.2
13877.1
15566.6
18126.5
19555.2
22188.3
23204.1
25922.5
-20721
-16084.5
-14591.9
-10621.7
-8726.25
-5287.47
-3247.56
-168.104
1885.41
4719.84
6708.52
9379.99
11246
13824.9
15511.4
18072.1
19497.8
22131.5
23144.6
25864.7
-20761.9
-16121.5
-14633.5
-10661.2
-8770.57
-5329.81
-3294.35
-213.165
1836.35
4672.22
6657.29
9329.93
11192.7
13772.5
15455.9
18017.3
19439.9
22074.1
23084.4
25806.2
-20802.7
-16158.3
-14674.9
-10700.5
-8814.71
-5371.99
-3340.98
-258.12
1787.37
4624.61
6606.05
9279.77
11139.2
13719.8
15400.1
17962.1
19381.7
22016.4
23023.9
25747.3
-20843.2
-16194.9
-14716.2
-10739.7
-8858.69
-5414.03
-3387.5
-303.002
1738.45
4576.99
6554.78
9229.51
11085.6
13666.9
15344
17906.7
19323.1
21958.2
22962.9
25688.1
-20883.7
-16231.4
-14757.3
-10778.8
-8902.56
-5455.97
-3433.92
-347.838
1689.57
4529.35
6503.47
9179.14
11031.8
13613.9
15287.8
17851
19264.2
21899.8
22901.6
25628.5
-20924
-16267.7
-14798.3
-10817.7
-8946.32
-5497.84
-3480.27
-392.645
1640.72
4481.67
6452.13
9128.67
10978
13560.7
15231.3
17795
19205.2
21841.2
22840.1
25568.7
-20964.2
-16303.8
-14839.2
-10856.5
-8990.01
-5539.64
-3526.57
-437.437
1591.88
4433.96
6400.76
9078.1
10924
13507.3
15174.8
17738.9
19145.9
21782.3
22778.3
25508.6
-21004.3
-16339.9
-14880.1
-10895.2
-9033.62
-5581.39
-3572.82
-482.223
1543.06
4386.2
6349.36
9027.45
10870
13453.8
15118.1
17682.7
19086.4
21723.2
22716.4
25448.4
-21044.3
-16375.9
-14920.8
-10933.9
-9077.19
-5623.11
-3619.03
-527.007
1494.25
4338.41
6297.93
8976.73
10815.9
13400.3
15061.3
17626.3
19026.9
21664.1
22654.3
25388.1
-21084.3
-16411.8
-14961.5
-10972.5
-9120.7
-5664.79
-3665.21
-571.793
1445.45
4290.59
6246.49
8925.95
10761.8
13346.6
15004.4
17569.8
18967.2
21604.8
22592.1
25327.7
-21124.2
-16447.6
-15002.2
-11011.1
-9164.17
-5706.45
-3711.36
-616.583
1396.67
4242.73
6195.05
8875.1
10707.7
13292.9
14947.5
17513.2
18907.5
21545.5
22529.8
25267.2
-21164.1
-16483.4
-15042.9
-11049.6
-9207.61
-5748.09
-3757.47
-661.375
1347.9
4194.85
6143.6
8824.22
10653.5
13239.1
14890.5
17456.6
18847.7
21486
22467.5
25206.7
-21204
-16519.1
-15083.5
-11088.1
-9251
-5789.71
-3803.55
-706.168
1299.17
4146.94
6092.17
8773.3
10599.3
13185.2
14833.5
17399.9
18787.9
21426.6
22405.2
25146.2
-21243.8
-16554.8
-15124
-11126.5
-9294.36
-5831.31
-3849.59
-750.958
1250.46
4099.03
6040.76
8722.36
10545.2
13131.4
14776.5
17343.2
18728.1
21367.1
22342.8
25085.6
-21283.6
-16590.4
-15164.6
-11164.9
-9337.69
-5872.89
-3895.6
-795.743
1201.79
4051.11
5989.38
8671.4
10491
13077.5
14719.5
17286.5
18668.2
21307.7
22280.4
25025.1
-21323.4
-16625.9
-15205.1
-11203.3
-9380.97
-5914.45
-3941.55
-840.518
1153.17
4003.19
5938.04
8620.44
10436.9
13023.6
14662.6
17229.8
18608.4
21248.2
22218
24964.6
-21363.1
-16661.5
-15245.6
-11241.6
-9424.21
-5955.98
-3987.46
-885.277
1104.59
3955.27
5886.75
8569.48
10382.8
12969.7
14605.7
17173.1
18548.7
21188.8
22155.7
24904.1
-21402.9
-16696.9
-15286
-11279.9
-9467.41
-5997.48
-4033.32
-930.016
1056.08
3907.37
5835.52
8518.54
10328.8
12915.9
14548.8
17116.5
18488.9
21129.5
22093.4
24843.7
-21442.5
-16732.3
-15326.4
-11318.2
-9510.55
-6038.94
-4079.11
-974.728
1007.63
3859.5
5784.36
8467.62
10274.9
12862.1
14492
17059.9
18429.3
21070.1
22031.1
24783.4
-21482.2
-16767.7
-15366.8
-11356.4
-9553.64
-6080.37
-4124.84
-1019.41
959.261
3811.65
5733.27
8416.74
10221
12808.3
14435.3
17003.3
18369.7
21010.9
21968.9
24723.1
-21521.8
-16803
-15407.1
-11394.5
-9596.67
-6121.75
-4170.49
-1064.05
910.972
3763.84
5682.28
8365.89
10167.2
12754.5
14378.7
16946.8
18310.2
20951.7
21906.9
24663
-21561.4
-16838.2
-15447.4
-11432.6
-9639.63
-6163.09
-4216.06
-1108.65
862.774
3716.07
5631.38
8315.1
10113.5
12700.9
14322.1
16890.4
18250.8
20892.7
21844.9
24602.9
-21600.9
-16873.4
-15487.6
-11470.7
-9682.51
-6204.37
-4261.55
-1153.2
814.676
3668.36
5580.59
8264.36
10060
12647.3
14265.7
16834.1
18191.5
20833.7
21783
24543
-21640.4
-16908.5
-15527.7
-11508.6
-9725.32
-6245.59
-4306.93
-1197.69
766.687
3620.7
5529.91
8213.69
10006.5
12593.7
14209.4
16777.8
18132.3
20774.9
21721.2
24483.2
-21679.8
-16943.5
-15567.8
-11546.5
-9768.04
-6286.74
-4352.21
-1242.12
718.814
3573.11
5479.36
8163.09
9953.21
12540.3
14153.2
16721.7
18073.2
20716.1
21659.5
24423.6
-21719.2
-16978.5
-15607.8
-11584.4
-9810.66
-6327.83
-4397.38
-1286.47
671.068
3525.6
5428.94
8112.58
9900.03
12487
14097.2
16665.7
18014.3
20657.5
21598
24364.1
-21758.5
-17013.3
-15647.8
-11622.1
-9853.19
-6368.83
-4442.43
-1330.75
623.456
3478.17
5378.67
8062.15
9846.99
12433.7
14041.3
16609.8
17955.6
20599.1
21536.7
24304.8
-21797.7
-17048.1
-15687.6
-11659.7
-9895.6
-6409.75
-4487.35
-1374.95
575.987
3430.82
5328.55
8011.83
9794.12
12380.6
13985.6
16554
17897
20540.8
21475.5
24245.6
-21836.9
-17082.8
-15727.4
-11697.3
-9937.9
-6450.58
-4532.14
-1419.05
528.67
3383.58
5278.59
7961.61
9741.41
12327.6
13930
16498.4
17838.5
20482.7
21414.4
24186.7
-21875.9
-17117.3
-15767
-11734.7
-9980.07
-6491.31
-4576.78
-1463.05
481.513
3336.43
5228.81
7911.51
9688.88
12274.8
13874.6
16443
17780.3
20424.8
21353.6
24127.9
-21914.9
-17151.8
-15806.6
-11772.1
-10022.1
-6531.94
-4621.26
-1506.96
434.526
3289.4
5179.2
7861.53
9636.54
12222.1
13819.4
16387.7
17722.2
20367
21292.9
24069.4
-21953.8
-17186.1
-15846
-11809.3
-10064
-6572.45
-4665.59
-1550.74
387.717
3242.48
5129.78
7811.68
9584.39
12169.5
13764.4
16332.5
17664.3
20309.4
21232.4
24011
-21992.5
-17220.3
-15885.3
-11846.4
-10105.8
-6612.85
-4709.74
-1594.42
341.095
3195.69
5080.56
7761.98
9532.45
12117.1
13709.6
16277.6
17606.7
20252.1
21172.1
23952.9
-22031.2
-17254.3
-15924.5
-11883.4
-10147.4
-6653.12
-4753.72
-1637.96
294.669
3149.03
5031.55
7712.41
9480.72
12064.8
13655.1
16222.8
17549.2
20194.9
21112.1
23895
-22069.7
-17288.2
-15963.6
-11920.3
-10188.8
-6693.27
-4797.51
-1681.37
248.447
3102.51
4982.76
7663
9429.22
12012.7
13600.7
16168.3
17492
20138
21052.3
23837.3
-22108.1
-17322
-16002.5
-11957
-10230.1
-6733.27
-4841.11
-1724.65
202.439
3056.14
4934.19
7613.75
9377.95
11960.8
13546.6
16113.9
17435
20081.3
20992.7
23779.9
-22146.3
-17355.6
-16041.2
-11993.5
-10271.2
-6773.13
-4884.5
-1767.78
156.654
3009.92
4885.86
7564.67
9326.92
11909.1
13492.8
16059.7
17378.3
20024.8
20933.3
23722.8
-22184.4
-17389.1
-16079.8
-12029.9
-10312
-6812.84
-4927.68
-1810.75
111.099
2963.87
4837.77
7515.76
9276.14
11857.6
13439.2
16005.8
17321.8
19968.6
20874.2
23665.9
-22222.4
-17422.4
-16118.2
-12066.2
-10352.7
-6852.4
-4970.63
-1853.57
65.785
2917.98
4789.94
7467.04
9225.62
11806.3
13385.8
15952.1
17265.6
19912.6
20815.4
23609.3
-22260.2
-17455.5
-16156.5
-12102.3
-10393.2
-6891.79
-5013.36
-1896.22
20.7193
2872.26
4742.36
7418.51
9175.37
11755.2
13332.7
15898.7
17209.6
19856.9
20756.8
23553
-22297.9
-17488.4
-16194.5
-12138.2
-10433.5
-6931.01
-5055.85
-1938.7
-24.0889
2826.73
4695.06
7370.18
9125.39
11704.4
13279.9
15845.4
17153.9
19801.5
20698.5
23497
-22335.3
-17521.2
-16232.4
-12173.9
-10473.6
-6970.05
-5098.1
-1981
-68.6307
2781.39
4648.03
7322.05
9075.71
11653.7
13227.4
15792.5
17098.6
19746.4
20640.5
23441.3
-22372.6
-17553.7
-16270.1
-12209.4
-10513.4
-7008.91
-5140.08
-2023.12
-112.897
2736.24
4601.3
7274.13
9026.31
11603.3
13175.2
15739.8
17043.5
19691.5
20582.8
23385.9
-22409.7
-17586.1
-16307.6
-12244.8
-10553
-7047.58
-5181.81
-2065.04
-156.88
2691.29
4554.86
7226.44
8977.23
11553.1
13123.3
15687.3
16988.7
19637
20525.4
23330.9
-22446.6
-17618.2
-16344.8
-12279.9
-10592.4
-7086.06
-5223.26
-2106.76
-200.571
2646.56
4508.73
7178.97
8928.45
11503.2
13071.7
15635.2
16934.2
19582.7
20468.3
23276.1
-22483.4
-17650.1
-16381.9
-12314.9
-10631.5
-7124.33
-5264.43
-2148.28
-243.959
2602.03
4462.91
7131.74
8880
11453.6
13020.5
15583.3
16880.1
19528.8
20411.5
23221.7
-22519.9
-17681.8
-16418.7
-12349.6
-10670.3
-7162.4
-5305.32
-2189.59
-287.038
2557.74
4417.41
7084.74
8831.87
11404.2
12969.5
15531.8
16826.3
19475.2
20355
23167.7
-22556.1
-17713.3
-16455.3
-12384.1
-10708.9
-7200.25
-5345.9
-2230.68
-329.798
2513.67
4372.25
7038
8784.09
11355.1
12918.9
15480.5
16772.8
19421.9
20298.9
23114
-22592.2
-17744.5
-16491.6
-12418.4
-10747.2
-7237.88
-5386.18
-2271.54
-372.231
2469.83
4327.43
6991.51
8736.65
11306.2
12868.7
15429.5
16719.7
19369
20243.2
23060.7
-22628
-17775.5
-16527.7
-12452.4
-10785.2
-7275.28
-5426.14
-2312.18
-414.327
2426.24
4282.96
6945.29
8689.57
11257.7
12818.8
15378.9
16667
19316.4
20187.8
23007.7
-22663.6
-17806.3
-16563.5
-12486.3
-10822.9
-7312.45
-5465.78
-2352.58
-456.079
2382.9
4238.84
6899.33
8642.86
11209.4
12769.3
15328.6
16614.6
19264.2
20132.8
22955.2
-22699
-17836.8
-16599
-12519.8
-10860.3
-7349.38
-5505.09
-2392.74
-497.477
2339.81
4195.1
6853.65
8596.51
11161.5
12720.2
15278.6
16562.6
19212.3
20078.1
22903
-22734.1
-17867
-16634.3
-12553.1
-10897.4
-7386.07
-5544.05
-2432.64
-538.512
2296.99
4151.72
6808.26
8550.55
11113.8
12671.4
15229
16510.9
19160.8
20023.8
22851.2
-22768.9
-17897
-16669.3
-12586.2
-10934.2
-7422.51
-5582.67
-2472.3
-579.178
2254.43
4108.74
6763.15
8504.98
11066.5
12623
15179.7
16459.7
19109.7
19969.9
22799.9
-22803.5
-17926.7
-16704
-12619
-10970.6
-7458.69
-5620.93
-2511.69
-619.464
2212.15
4066.14
6718.34
8459.81
11019.5
12575.1
15130.8
16408.8
19059
19916.4
22748.9
-22837.8
-17956.1
-16738.4
-12651.5
-11006.7
-7494.61
-5658.82
-2550.82
-659.362
2170.14
4023.95
6673.83
8415.05
10972.9
12527.5
15082.2
16358.4
19008.7
19863.4
22698.4
-22871.8
-17985.2
-16772.5
-12683.8
-11042.5
-7530.26
-5696.34
-2589.68
-698.863
2128.43
3982.16
6629.64
8370.7
10926.5
12480.4
15034
16308.4
18958.8
19810.7
22648.3
-22905.6
-18014.1
-16806.3
-12715.8
-11077.9
-7565.64
-5733.47
-2628.26
-737.96
2087
3940.79
6585.76
8326.77
10880.6
12433.7
14986.2
16258.8
18909.3
19758.4
22598.6
-22939
-18042.6
-16839.8
-12747.5
-11113
-7600.74
-5770.21
-2666.55
-776.644
2045.88
3899.85
6542.2
8283.28
10834.9
12387.4
14938.7
16209.6
18860.2
19706.6
22549.4
-22972.1
-18070.8
-16872.9
-12778.9
-11147.6
-7635.55
-5806.55
-2704.56
-814.905
2005.06
3859.35
6498.97
8240.22
10789.7
12341.5
14891.7
16160.9
18811.5
19655.2
22500.7
-23004.9
-18098.8
-16905.7
-12810
-11181.9
-7670.08
-5842.49
-2742.27
-852.737
1964.55
3819.28
6456.08
8197.62
10744.8
12296.2
14845.1
16112.7
18763.3
19604.3
22452.4
-23037.5
-18126.4
-16938.2
-12840.8
-11215.9
-7704.32
-5878
-2779.68
-890.13
1924.36
3779.67
6413.54
8155.46
10700.3
12251.2
14798.8
16064.8
18715.6
19553.8
22404.6
-23069.6
-18153.6
-16970.3
-12871.3
-11249.4
-7738.25
-5913.09
-2816.79
-927.075
1884.49
3740.51
6371.34
8113.78
10656.1
12206.8
14753
16017.5
18668.2
19503.8
22357.2
-23101.5
-18180.6
-17002.1
-12901.5
-11282.5
-7771.88
-5947.75
-2853.59
-963.566
1844.95
3701.83
6329.49
8072.56
10612.4
12162.8
14707.6
15970.6
18621.4
19454.2
22310.4
-23133
-18207.2
-17033.5
-12931.4
-11315.2
-7805.2
-5981.96
-2890.07
-999.592
1805.75
3663.61
6288.01
8031.83
10569
12119.2
14662.7
15924.2
18575
19405.1
22264
-23164.2
-18233.5
-17064.5
-12961
-11347.5
-7838.21
-6015.72
-2926.23
-1035.15
1766.88
3625.89
6246.9
7991.58
10526.1
12076.2
14618.2
15878.3
18529
19356.5
22218.2
-23195
-18259.4
-17095.1
-12990.2
-11379.4
-7870.9
-6049.02
-2962.06
-1070.22
1728.36
3588.65
6206.16
7951.83
10483.5
12033.7
14574.1
15832.9
18483.6
19308.4
22172.8
-23225.5
-18285
-17125.3
-13019.1
-11410.9
-7903.26
-6081.85
-2997.56
-1104.81
1690.19
3551.91
6165.8
7912.58
10441.4
11991.7
14530.4
15788
18438.6
19260.8
22128
-23255.6
-18310.2
-17155.2
-13047.7
-11441.8
-7935.3
-6114.21
-3032.73
-1138.9
1652.38
3515.68