/*--------------------------------*- C++ -*----------------------------------*\
  =========                 |
  \\      /  F ield         | OpenFOAM: The Open Source CFD Toolbox
   \\    /   O peration     | Website:  https://openfoam.org
    \\  /    A nd           | Version:  8
     \\/     M anipulation  |
\*---------------------------------------------------------------------------*/
FoamFile
{
    version     2.0;
    format      ascii;
    class       surfaceScalarField;
    location    "900";
    object      phi;
}
// * * * * * * * * * * * * * * * * * * * * * * * * * * * * * * * * * * * * * //

dimensions      [1 0 -1 0 0 0 0];

internalField   nonuniform List<scalar> 
16360
(
-1.36729
0.00022911
-1.36756
0.000261558
-1.36783
0.000273951
-1.36811
0.000278902
-1.36839
0.000280596
-1.36867
0.000280556
-1.36895
0.00027939
-1.36923
0.000277349
-1.3695
0.000274531
-1.36977
0.000270954
-1.37004
0.00026659
-1.3703
0.000261377
-1.37055
0.000255226
-1.3708
0.00024802
-1.37104
0.000239617
-1.37127
0.000229845
-1.37149
0.000218505
-1.3717
0.000205361
-1.37189
0.000190133
-1.37206
0.000172485
-1.37221
0.000152015
-1.37234
0.000128286
-1.37244
0.000100818
-1.37251
6.89277e-05
-1.37254
3.17247e-05
-1.37253
-1.23836e-05
-1.37246
-6.56466e-05
-1.37233
-0.000129163
-1.37213
-0.000203367
-1.37184
-0.000289545
-1.37145
-0.000389418
-1.37095
-0.000505087
-1.37031
-0.000639041
-1.36951
-0.000794211
-1.36854
-0.000974044
-1.36736
-0.00118261
-1.36593
-0.00142473
-1.36423
-0.00170618
-1.36219
-0.00203394
-1.35977
-0.00241659
-1.35691
-0.00286485
-1.35352
-0.00339237
-1.3495
-0.00401673
-1.34474
-0.00476163
-1.33908
-0.005662
-1.33231
-0.00677181
-1.32414
-0.00816262
-1.31424
-0.00990074
-1.30215
-0.0120956
-0.0153402
-1.28681
-1.56502
0.000501011
-1.56526
0.000502516
-1.56549
0.000504063
-1.56572
0.000507226
-1.56595
0.000508616
-1.56617
0.000508092
-1.5664
0.000505862
-1.56662
0.000502109
-1.56685
0.000496922
-1.56707
0.000490301
-1.56728
0.000482178
-1.56749
0.000472429
-1.5677
0.000460878
-1.5679
0.000447302
-1.56809
0.000431424
-1.56827
0.000412914
-1.56845
0.000391388
-1.56861
0.000366394
-1.56875
0.000337396
-1.56889
0.000303746
-1.569
0.000264663
-1.56909
0.000219294
-1.56915
0.000166897
-1.56919
0.000106167
-1.5692
3.55341e-05
-1.56916
-4.68553e-05
-1.56908
-0.000142727
-1.56896
-0.000253869
-1.56878
-0.000382713
-1.56854
-0.00053195
-1.56822
-0.000704708
-1.56782
-0.00090464
-1.56733
-0.00113601
-1.56672
-0.00140377
-1.56598
-0.00171374
-1.56509
-0.00207269
-1.56402
-0.00248861
-1.56276
-0.00297092
-1.56126
-0.00353083
-1.5595
-0.00418187
-1.55742
-0.00494055
-1.55499
-0.00582724
-1.55213
-0.00686746
-1.5488
-0.00809446
-1.54491
-0.00955464
-1.54037
-0.0113137
-1.53508
-0.0134536
-1.5289
-0.0160724
-1.52163
-0.0193662
-0.023795
-1.51318
-1.60396
0.000329368
-1.60385
0.000393338
-1.60376
0.000418575
-1.60368
0.000427379
-1.60361
0.000429454
-1.60352
0.000427892
-1.60344
0.000423811
-1.60336
0.000417619
-1.60327
0.000409436
-1.60318
0.000399235
-1.60308
0.000386895
-1.60298
0.000372221
-1.60288
0.000354953
-1.60277
0.00033476
-1.60265
0.000311242
-1.60252
0.00028392
-1.60238
0.000252235
-1.60223
0.000215546
-1.60206
0.000173078
-1.60188
0.000123914
-1.60168
6.69182e-05
-1.60147
8.34076e-07
-1.60122
-7.62343e-05
-1.60095
-0.000166073
-1.60065
-0.000270267
-1.6003
-0.000390807
-1.59991
-0.000530169
-1.59948
-0.000691408
-1.59898
-0.000878002
-1.59842
-0.00109389
-1.59778
-0.00134365
-1.59705
-0.00163255
-1.59622
-0.00196676
-1.59527
-0.00235344
-1.59418
-0.0028009
-1.59294
-0.00331888
-1.59151
-0.00391875
-1.58987
-0.00461387
-1.58798
-0.00542004
-1.5858
-0.00635603
-1.5833
-0.00744436
-1.58041
-0.0087122
-1.57709
-0.0101927
-1.57325
-0.0119274
-1.56884
-0.0139705
-1.56376
-0.0163911
-1.55794
-0.0192711
-1.55131
-0.0227099
-1.54379
-0.0268831
-0.0321453
-1.53544
-1.64888
0.000489664
-1.64891
0.000426793
-1.6489
0.000406346
-1.64887
0.000401072
-1.64884
0.000398296
-1.64881
0.000394624
-1.64878
0.000389087
-1.64874
0.000381405
-1.6487
0.000371439
-1.64866
0.000359044
-1.64862
0.000344016
-1.64857
0.000326086
-1.64852
0.000304911
-1.64847
0.000280068
-1.64841
0.000251044
-1.64834
0.000217225
-1.64827
0.000177893
-1.64818
0.000132271
-1.64809
7.93771e-05
-1.64798
1.80498e-05
-1.64786
-5.2906e-05
-1.64773
-0.00013496
-1.64757
-0.000229847
-1.6474
-0.000339439
-1.6472
-0.000466253
-1.64698
-0.000612974
-1.64673
-0.00078272
-1.64644
-0.000979158
-1.64611
-0.00120651
-1.64574
-0.00146961
-1.64531
-0.00177405
-1.64481
-0.0021263
-1.64425
-0.00253385
-1.6436
-0.00300539
-1.64284
-0.00355101
-1.64198
-0.00418243
-1.64099
-0.00491332
-1.63984
-0.00575961
-1.63852
-0.00673996
-1.637
-0.00787635
-1.63525
-0.00919476
-1.63324
-0.010726
-1.63092
-0.0125069
-1.62827
-0.0145824
-1.62523
-0.0170078
-1.62177
-0.0198501
-1.61786
-0.023186
-1.61346
-0.0271082
-1.60859
-0.031755
-0.0373216
-1.60341
-1.63381
0.000165124
-1.63363
0.000249631
-1.63351
0.000279925
-1.63339
0.000287869
-1.63328
0.000287776
-1.63317
0.000283616
-1.63306
0.000276559
-1.63294
0.000266891
-1.63283
0.000254586
-1.63271
0.000239483
-1.63258
0.000221326
-1.63246
0.000199783
-1.63233
0.000174438
-1.63219
0.000144791
-1.63205
0.000110229
-1.6319
7.00213e-05
-1.63175
2.33051e-05
-1.63159
-3.09365e-05
-1.63141
-9.39178e-05
-1.63123
-0.000166922
-1.63103
-0.000251447
-1.63082
-0.000349386
-1.63058
-0.000462776
-1.63033
-0.000593946
-1.63005
-0.000745686
-1.62974
-0.000921198
-1.6294
-0.0011242
-1.62902
-0.001359
-1.6286
-0.00163059
-1.62812
-0.00194471
-1.62759
-0.002308
-1.62698
-0.00272813
-1.6263
-0.00321398
-1.62553
-0.00377581
-1.62466
-0.00442548
-1.62367
-0.00517676
-1.62253
-0.00604557
-1.62124
-0.00705038
-1.61977
-0.00821263
-1.61809
-0.00955725
-1.61617
-0.0111133
-1.61398
-0.0129147
-1.61149
-0.015001
-1.60865
-0.0174192
-1.60543
-0.0202247
-1.6018
-0.0234817
-1.59772
-0.027263
-1.59318
-0.0316527
-1.58818
-0.0367554
-0.0427037
-1.5828
-1.6488
0.000379892
-1.64883
0.00028532
-1.64881
0.000251517
-1.64876
0.000239849
-1.6487
0.000233034
-1.64865
0.000226073
-1.64859
0.000217327
-1.64853
0.00020618
-1.64846
0.000192291
-1.6484
0.000175356
-1.64833
0.000155034
-1.64826
0.000130921
-1.64819
0.000102534
-1.64812
6.93055e-05
-1.64804
3.05124e-05
-1.64795
-1.46329e-05
-1.64786
-6.70328e-05
-1.64777
-0.0001278
-1.64766
-0.000198196
-1.64755
-0.000279707
-1.64743
-0.000374105
-1.64729
-0.000483421
-1.64714
-0.000609967
-1.64698
-0.000756421
-1.6468
-0.000925901
-1.6466
-0.00112201
-1.64638
-0.00134891
-1.64612
-0.00161144
-1.64584
-0.00191517
-1.64552
-0.00226653
-1.64515
-0.00267297
-1.64474
-0.00314305
-1.64427
-0.0036867
-1.64373
-0.00431535
-1.64311
-0.00504222
-1.6424
-0.00588255
-1.64159
-0.0068539
-1.64067
-0.00797653
-1.63961
-0.00927378
-1.63839
-0.0107725
-1.637
-0.0125035
-1.63541
-0.0145022
-1.63361
-0.0168091
-1.63156
-0.0194705
-1.62924
-0.0225391
-1.62665
-0.0260738
-1.62377
-0.0301384
-1.62062
-0.0348023
-1.61724
-0.0401422
-0.0462406
-1.6137
-1.64013
-8.17932e-07
-1.63995
9.9498e-05
-1.63983
0.000133357
-1.63973
0.000140532
-1.63963
0.000138511
-1.63954
0.000132065
-1.63945
0.000122506
-1.63935
0.000110067
-1.63925
9.46259e-05
-1.63915
7.59151e-05
-1.63905
5.35626e-05
-1.63895
2.71301e-05
-1.63884
-3.92558e-06
-1.63873
-4.02804e-05
-1.63862
-8.26879e-05
-1.6385
-0.000132014
-1.63838
-0.000189318
-1.63825
-0.00025585
-1.63811
-0.00033298
-1.63797
-0.000422337
-1.63782
-0.000525831
-1.63766
-0.000645667
-1.63748
-0.000784383
-1.6373
-0.000944919
-1.63709
-0.00113068
-1.63687
-0.00134561
-1.63662
-0.00159428
-1.63635
-0.00188196
-1.63605
-0.00221475
-1.63572
-0.00259969
-1.63535
-0.00304491
-1.63493
-0.00355981
-1.63446
-0.00415521
-1.63393
-0.0048436
-1.63334
-0.00563938
-1.63266
-0.00655912
-1.63189
-0.00762187
-1.63102
-0.0088495
-1.63002
-0.0102671
-1.62889
-0.0119033
-1.62761
-0.0137906
-1.62614
-0.0159662
-1.62448
-0.0184716
-1.6226
-0.0213536
-1.62047
-0.0246638
-1.61809
-0.028458
-1.61543
-0.0327954
-1.6125
-0.0377356
-1.6093
-0.0433374
-0.0496598
-1.60588
-1.64619
0.000248087
-1.64623
0.000140889
-1.6462
0.000101416
-1.64615
8.65089e-05
-1.64609
7.71476e-05
-1.64602
6.78073e-05
-1.64595
5.66406e-05
-1.64589
4.29094e-05
-1.64582
2.61744e-05
-1.64575
6.04439e-06
-1.64568
-1.78968e-05
-1.6456
-4.61457e-05
-1.64553
-7.93e-05
-1.64545
-0.000118052
-1.64537
-0.00016318
-1.64529
-0.000215651
-1.6452
-0.000276579
-1.64511
-0.000347257
-1.64501
-0.000429173
-1.64491
-0.000524063
-1.6448
-0.000633947
-1.64469
-0.000761159
-1.64456
-0.000908399
-1.64443
-0.00107879
-1.64428
-0.00127595
-1.64413
-0.00150407
-1.64395
-0.00176797
-1.64376
-0.00207326
-1.64355
-0.0024264
-1.64331
-0.00283487
-1.64305
-0.00330726
-1.64276
-0.00385355
-1.64243
-0.00448518
-1.64206
-0.00521537
-1.64164
-0.00605934
-1.64116
-0.00703454
-1.64062
-0.00816103
-1.64001
-0.00946174
-1.63931
-0.0109628
-1.63852
-0.012694
-1.63762
-0.014689
-1.63661
-0.0169854
-1.63545
-0.0196253
-1.63415
-0.0226551
-1.63269
-0.0261248
-1.63106
-0.0300878
-1.62926
-0.0345984
-1.62728
-0.039709
-1.62515
-0.0454672
-0.0519184
-1.62289
-1.64242
-0.000148266
-1.64223
-4.24412e-05
-1.64212
-7.63642e-06
-1.64204
-1.21492e-06
-1.64196
-4.54974e-06
-1.64187
-1.25192e-05
-1.64179
-2.37157e-05
-1.64171
-3.79068e-05
-1.64163
-5.52506e-05
-1.64155
-7.60686e-05
-1.64147
-0.000100785
-1.64138
-0.000129931
-1.6413
-0.000164121
-1.64121
-0.000204074
-1.64113
-0.000250627
-1.64104
-0.000304775
-1.64095
-0.000367672
-1.64085
-0.00044066
-1.64076
-0.000525288
-1.64066
-0.00062336
-1.64055
-0.000736969
-1.64045
-0.000868535
-1.64033
-0.00102086
-1.64022
-0.0011972
-1.64009
-0.00140131
-1.63996
-0.00163752
-1.63981
-0.00191088
-1.63966
-0.0022272
-1.63949
-0.00259319
-1.63931
-0.00301663
-1.63911
-0.00350647
-1.63889
-0.00407307
-1.63865
-0.00472835
-1.63838
-0.00548605
-1.63808
-0.006362
-1.63774
-0.00737434
-1.63735
-0.0085439
-1.63692
-0.00989448
-1.63643
-0.0114532
-1.63587
-0.0132507
-1.63524
-0.0153216
-1.63452
-0.0177048
-1.6337
-0.0204429
-1.63278
-0.0235827
-1.63173
-0.0271743
-1.63054
-0.0312703
-1.62922
-0.0359233
-1.62775
-0.0411824
-1.62612
-0.0470905
-0.0536865
-1.62435
-1.64366
0.00010781
-1.6437
-8.28815e-07
-1.64366
-4.14522e-05
-1.64361
-5.7593e-05
-1.64354
-6.82369e-05
-1.64348
-7.88759e-05
-1.64341
-9.13444e-05
-1.64334
-0.000106389
-1.64327
-0.000124473
-1.6432
-0.000146021
-1.64313
-0.000171499
-1.64306
-0.000201452
-1.64299
-0.000236511
-1.64291
-0.000277414
-1.64284
-0.000325024
-1.64276
-0.00038035
-1.64269
-0.000444565
-1.64261
-0.000519031
-1.64253
-0.000605327
-1.64245
-0.000705285
-1.64236
-0.000821028
-1.64228
-0.000955014
-1.64219
-0.00111009
-1.64209
-0.00128955
-1.642
-0.0014972
-1.6419
-0.00173746
-1.64179
-0.00201544
-1.64168
-0.00233702
-1.64157
-0.00270905
-1.64145
-0.0031394
-1.64132
-0.00363718
-1.64118
-0.00421292
-1.64102
-0.00487875
-1.64086
-0.00564866
-1.64069
-0.00653876
-1.64049
-0.00756757
-1.64028
-0.00875634
-1.64005
-0.0101293
-1.63978
-0.0117143
-1.63949
-0.0135427
-1.63916
-0.0156499
-1.63879
-0.0180756
-1.63837
-0.0208638
-1.63789
-0.0240623
-1.63734
-0.0277226
-1.63672
-0.0318982
-1.636
-0.0366432
-1.63517
-0.0420078
-1.63423
-0.0480354
-0.0547617
-1.63315
-1.64367
-0.000277538
-1.6435
-0.000173776
-1.6434
-0.00014036
-1.64332
-0.000134974
-1.64325
-0.000139212
-1.64318
-0.00014798
-1.64311
-0.000159868
-1.64304
-0.000174649
-1.64298
-0.00019249
-1.64291
-0.000213733
-1.64284
-0.000238821
-1.64277
-0.000268288
-1.64271
-0.000302767
-1.64264
-0.000342993
-1.64258
-0.000389824
-1.64251
-0.000444263
-1.64245
-0.000507472
-1.64239
-0.000580802
-1.64233
-0.000665819
-1.64227
-0.000764337
-1.64221
-0.000878462
-1.64216
-0.00101063
-1.6421
-0.00116367
-1.64205
-0.00134084
-1.642
-0.00154592
-1.64196
-0.00178331
-1.64191
-0.00205806
-1.64188
-0.00237605
-1.64184
-0.00274404
-1.64181
-0.0031699
-1.64178
-0.00366268
-1.64176
-0.00423286
-1.64175
-0.00489255
-1.64174
-0.00565571
-1.64174
-0.00653844
-1.64175
-0.00755927
-1.64177
-0.00873951
-1.64179
-0.0101036
-1.64183
-0.0116794
-1.64187
-0.0134987
-1.64193
-0.0155975
-1.64199
-0.0180161
-1.64205
-0.0207997
-1.64211
-0.0239975
-1.64217
-0.0276628
-1.64222
-0.0318519
-1.64224
-0.0366217
-1.64222
-0.0420264
-1.64215
-0.048113
-0.0549226
-1.64199
-1.64057
-3.44016e-05
-1.6406
-0.00013763
-1.64057
-0.000176719
-1.64051
-0.000192885
-1.64045
-0.000203895
-1.64038
-0.000214862
-1.64031
-0.000227486
-1.64024
-0.000242474
-1.64018
-0.000260276
-1.64011
-0.000281316
-1.64004
-0.00030606
-1.63997
-0.000335047
-1.63991
-0.000368901
-1.63984
-0.000408346
-1.63978
-0.000454225
-1.63971
-0.000507518
-1.63965
-0.000569361
-1.63959
-0.000641071
-1.63953
-0.000724177
-1.63948
-0.000820448
-1.63942
-0.000931936
-1.63937
-0.00106102
-1.63933
-0.00121044
-1.63928
-0.00138339
-1.63925
-0.00158356
-1.63922
-0.00181522
-1.63919
-0.00208331
-1.63917
-0.00239355
-1.63916
-0.00275257
-1.63917
-0.00316804
-1.63918
-0.00364882
-1.63921
-0.00420518
-1.63925
-0.00484899
-1.63931
-0.00559397
-1.6394
-0.006456
-1.6395
-0.00745338
-1.63963
-0.00860723
-1.6398
-0.00994189
-1.63999
-0.0114853
-1.64022
-0.0132696
-1.64048
-0.0153312
-1.64079
-0.0177118
-1.64113
-0.0204582
-1.64151
-0.0236226
-1.64191
-0.0272624
-1.64232
-0.0314395
-1.64272
-0.0362185
-1.64308
-0.0416645
-1.64336
-0.0478372
-0.0547814
-1.6435
-1.64476
-0.000386719
-1.64461
-0.000292093
-1.64452
-0.000262589
-1.64446
-0.000258802
-1.6444
-0.000263754
-1.64434
-0.000272719
-1.64428
-0.000284397
-1.64423
-0.000298591
-1.64417
-0.000315479
-1.64412
-0.000335394
-1.64406
-0.000358764
-1.64401
-0.000386098
-1.64396
-0.00041799
-1.64392
-0.000455127
-1.64387
-0.00049831
-1.64383
-0.000548462
-1.64379
-0.000606659
-1.64376
-0.000674142
-1.64373
-0.000752353
-1.64371
-0.000842961
-1.6437
-0.000947901
-1.64369
-0.00106941
-1.64369
-0.00121009
-1.6437
-0.00137294
-1.64372
-0.00156144
-1.64376
-0.00177962
-1.64381
-0.00203215
-1.64388
-0.00232444
-1.64397
-0.00266275
-1.64408
-0.00305433
-1.64422
-0.00350761
-1.64439
-0.0040323
-1.6446
-0.00463971
-1.64485
-0.00534292
-1.64515
-0.00615708
-1.64551
-0.00709977
-1.64592
-0.00819134
-1.64641
-0.00945536
-1.64697
-0.0109191
-1.64763
-0.0126142
-1.64838
-0.0145768
-1.64925
-0.0168489
-1.65023
-0.0194783
-1.65133
-0.0225195
-1.65256
-0.0260336
-1.65391
-0.0300877
-1.65537
-0.0347548
-1.65693
-0.0401117
-1.65853
-0.0462334
-0.0531863
-1.66013
-1.6356
-0.000179244
-1.63562
-0.000270893
-1.63558
-0.000306402
-1.63552
-0.000321942
-1.63545
-0.000332763
-1.63538
-0.000343292
-1.63531
-0.000355038
-1.63524
-0.000368658
-1.63517
-0.000384588
-1.6351
-0.000403233
-1.63503
-0.000425031
-1.63497
-0.000450473
-1.63491
-0.000480121
-1.63485
-0.000514624
-1.63479
-0.000554728
-1.63474
-0.000601299
-1.63469
-0.000655337
-1.63464
-0.000718001
-1.63461
-0.000790634
-1.63457
-0.000874791
-1.63455
-0.000972273
-1.63453
-0.00108517
-1.63453
-0.00121589
-1.63453
-0.00136725
-1.63455
-0.00154248
-1.63459
-0.00174535
-1.63464
-0.00198022
-1.63471
-0.00225214
-1.63481
-0.00256696
-1.63493
-0.00293149
-1.63508
-0.00335361
-1.63527
-0.00384248
-1.63551
-0.00440871
-1.63578
-0.00506467
-1.63612
-0.00582472
-1.63651
-0.00670559
-1.63697
-0.00772677
-1.63752
-0.00891096
-1.63815
-0.0102847
-1.63889
-0.011879
-1.63974
-0.01373
-1.6407
-0.0158801
-1.6418
-0.0183788
-1.64304
-0.0212841
-1.64441
-0.0246631
-1.64591
-0.0285919
-1.6475
-0.0331572
-1.64916
-0.0384591
-1.65078
-0.0446079
-0.0516927
-1.65228
-1.64634
-0.000464879
-1.64622
-0.000390005
-1.64616
-0.000368758
-1.64611
-0.000367925
-1.64607
-0.000373669
-1.64603
-0.000382251
-1.64599
-0.000392731
-1.64596
-0.000405049
-1.64592
-0.000419423
-1.64589
-0.000436177
-1.64586
-0.000455701
-1.64583
-0.000478436
-1.64581
-0.000504889
-1.64578
-0.00053564
-1.64577
-0.000571355
-1.64576
-0.000612802
-1.64575
-0.000660871
-1.64575
-0.000716587
-1.64576
-0.000781141
-1.64578
-0.000855909
-1.64581
-0.000942484
-1.64585
-0.00104271
-1.64591
-0.00115874
-1.64598
-0.00129303
-1.64608
-0.00144846
-1.6462
-0.00162837
-1.64634
-0.00183659
-1.64651
-0.00207762
-1.64672
-0.00235663
-1.64698
-0.00267964
-1.64728
-0.00305366
-1.64763
-0.0034868
-1.64805
-0.00398854
-1.64855
-0.00456989
-1.64913
-0.00524371
-1.64981
-0.00602504
-1.6506
-0.00693149
-1.65153
-0.00798374
-1.65261
-0.00920616
-1.65386
-0.0106276
-1.65531
-0.0122822
-1.65698
-0.0142107
-1.6589
-0.0164617
-1.66108
-0.0190943
-1.66357
-0.022179
-1.66636
-0.025799
-1.66947
-0.0300515
-1.67287
-0.0350569
-1.67651
-0.0409636
-0.0479252
-1.68028
-1.62378
-0.000323913
-1.62377
-0.000401149
-1.6237
-0.00043208
-1.62362
-0.000446845
-1.62354
-0.000457075
-1.62346
-0.000466437
-1.62337
-0.000476302
-1.62329
-0.000487321
-1.62321
-0.000499926
-1.62313
-0.000514491
-1.62306
-0.000531388
-1.62298
-0.000551022
-1.62291
-0.00057384
-1.62285
-0.000600351
-1.62279
-0.000631136
-1.62274
-0.000666865
-1.62269
-0.000708308
-1.62265
-0.000756358
-1.62262
-0.000812048
-1.6226
-0.000876572
-1.62259
-0.000951317
-1.62259
-0.00103789
-1.62261
-0.00113814
-1.62265
-0.00125423
-1.62271
-0.00138866
-1.6228
-0.00154432
-1.62291
-0.00172458
-1.62305
-0.00193335
-1.62323
-0.00217515
-1.62346
-0.00245525
-1.62373
-0.0027798
-1.62406
-0.00315594
-1.62446
-0.00359201
-1.62493
-0.00409777
-1.62549
-0.00468467
-1.62615
-0.00536614
-1.62692
-0.00615806
-1.62783
-0.00707925
-1.62888
-0.00815214
-1.63011
-0.00940364
-1.63152
-0.0108662
-1.63315
-0.0125794
-1.63502
-0.0145915
-1.63715
-0.0169632
-1.63956
-0.0197707
-1.64225
-0.023107
-1.64522
-0.0270831
-1.64843
-0.0318464
-1.65178
-0.0376179
-0.0446533
-1.65505
-1.64191
-0.00046716
-1.64188
-0.000429468
-1.64189
-0.000422125
-1.64192
-0.000425265
-1.64194
-0.000431137
-1.64197
-0.000438047
-1.642
-0.000445776
-1.64203
-0.000454494
-1.64207
-0.000464462
-1.64211
-0.000475964
-1.64215
-0.000489302
-1.6422
-0.000504799
-1.64225
-0.000522815
-1.6423
-0.000543756
-1.64237
-0.000568081
-1.64244
-0.000596322
-1.64252
-0.000629088
-1.64261
-0.000667083
-1.64271
-0.000711123
-1.64282
-0.000762151
-1.64295
-0.000821259
-1.6431
-0.000889711
-1.64327
-0.000968974
-1.64346
-0.00106075
-1.64368
-0.00116699
-1.64394
-0.00129001
-1.64423
-0.00143243
-1.64457
-0.00159735
-1.64495
-0.00178833
-1.6454
-0.00200955
-1.64591
-0.00226584
-1.64651
-0.00256286
-1.64719
-0.00290721
-1.64798
-0.00330665
-1.6489
-0.00377027
-1.64995
-0.00430882
-1.65118
-0.00493503
-1.65259
-0.00566408
-1.65423
-0.00651423
-1.65613
-0.00750761
-1.65832
-0.0086713
-1.66086
-0.0100388
-1.6638
-0.0116519
-1.6672
-0.0135648
-1.67112
-0.0158491
-1.67563
-0.0185973
-1.68079
-0.0219217
-1.68666
-0.0259755
-1.69324
-0.0310391
-0.0375764
-1.70032
-1.56412
-0.000378578
-1.5641
-0.000451857
-1.56405
-0.000475259
-1.56398
-0.000486595
-1.56392
-0.00049406
-1.56386
-0.000500504
-1.5638
-0.000506963
-1.56374
-0.000513924
-1.56368
-0.000521691
-1.56363
-0.000530511
-1.56358
-0.000540616
-1.56353
-0.000552245
-1.56349
-0.000565661
-1.56345
-0.000581155
-1.56342
-0.000599059
-1.56339
-0.000619753
-1.56338
-0.000643673
-1.56337
-0.000671326
-1.56338
-0.000703295
-1.5634
-0.000740255
-1.56344
-0.00078299
-1.5635
-0.000832406
-1.56358
-0.000889555
-1.56368
-0.000955656
-1.56382
-0.00103212
-1.56399
-0.00112059
-1.5642
-0.00122297
-1.56445
-0.00134147
-1.56476
-0.00147866
-1.56514
-0.00163754
-1.56558
-0.0018216
-1.56611
-0.0020349
-1.56673
-0.00228223
-1.56747
-0.00256919
-1.56834
-0.00290237
-1.56936
-0.00328961
-1.57055
-0.00374023
-1.57195
-0.00426544
-1.57359
-0.00487884
-1.5755
-0.00559717
-1.57773
-0.00644136
-1.58033
-0.0074379
-1.58336
-0.00862093
-1.58689
-0.0100364
-1.59099
-0.0117501
-1.59573
-0.0138555
-1.60118
-0.0164727
-1.60739
-0.0197574
-1.61439
-0.0240399
-0.0300682
-1.6219
-1.52365
-9.04228e-05
-1.52406
-4.22024e-05
-1.52451
-3.36e-05
-1.52496
-3.23319e-05
-1.52542
-3.31381e-05
-1.52589
-3.45247e-05
-1.52636
-3.62196e-05
-1.52683
-3.82489e-05
-1.52731
-4.07087e-05
-1.5278
-4.37098e-05
-1.52829
-4.73682e-05
-1.52879
-5.18076e-05
-1.5293
-5.71631e-05
-1.52982
-6.35862e-05
-1.53035
-7.12488e-05
-1.53089
-8.03477e-05
-1.53144
-9.11096e-05
-1.53201
-0.000103796
-1.53259
-0.000118711
-1.5332
-0.000136203
-1.53382
-0.000156681
-1.53447
-0.000180614
-1.53516
-0.000208548
-1.53587
-0.000241118
-1.53662
-0.000279059
-1.53742
-0.000323223
-1.53827
-0.000374605
-1.53918
-0.000434358
-1.54015
-0.000503827
-1.5412
-0.000584577
-1.54235
-0.000678442
-1.54359
-0.000787564
-1.54496
-0.000914463
-1.54647
-0.00106211
-1.54814
-0.00123402
-1.54999
-0.00143439
-1.55206
-0.00166826
-1.55439
-0.00194176
-1.557
-0.00226243
-1.55996
-0.00263972
-1.56332
-0.00308569
-1.56714
-0.00361606
-1.57151
-0.00425167
-1.57652
-0.00502153
-1.5823
-0.00596947
-1.589
-0.00716343
-1.59677
-0.0086943
-1.60587
-0.0106578
-1.61668
-0.0132387
-0.0172477
-1.6295
-1.22778
-1.22783
-1.22786
-1.22789
-1.22792
-1.22796
-1.228
-1.22803
-1.22807
-1.22812
-1.22817
-1.22822
-1.22827
-1.22834
-1.22841
-1.22849
-1.22858
-1.22868
-1.2288
-1.22894
-1.2291
-1.22928
-1.22948
-1.22973
-1.23001
-1.23033
-1.2307
-1.23114
-1.23164
-1.23223
-1.2329
-1.23369
-1.23461
-1.23567
-1.2369
-1.23834
-1.24
-1.24195
-1.24421
-1.24685
-1.24993
-1.25355
-1.2578
-1.26282
-1.26879
-1.27596
-1.28465
-1.29531
-1.30855
-1.3258
1.62587
-0.0342503
1.638
-0.0121355
1.64684
-0.00884029
1.65127
-0.00442687
1.65285
-0.00157532
1.65295
-9.99133e-05
1.65225
0.000691758
1.65109
0.0011602
1.64965
0.00144637
1.64803
0.00161865
1.64631
0.00171991
1.64453
0.00177719
1.64272
0.00180655
1.64091
0.00181747
1.63909
0.0018158
1.63729
0.00180524
1.6355
0.00178819
1.63373
0.00176619
1.63199
0.00174021
1.63028
0.00171085
1.6286
0.0016784
1.62696
0.00164296
1.62536
0.00160445
1.62379
0.00156266
1.62228
0.00151723
1.62081
0.00146768
1.61939
0.00141337
1.61804
0.00135349
1.61675
0.00128705
1.61554
0.00121302
1.61441
0.00113019
1.61337
0.00103708
1.61244
0.000932103
1.61163
0.000811957
1.61096
0.000674197
1.61044
0.000515688
1.61011
0.000332745
1.60999
0.000121218
1.61011
-0.000124565
1.61052
-0.000412809
1.61128
-0.000753729
1.61244
-0.00116011
1.61409
-0.0016492
1.61633
-0.0022455
1.61932
-0.00298575
1.62325
-0.00392877
1.62842
-0.00517648
1.63534
-0.00692132
1.64491
-0.00956264
-0.0139725
1.65888
1.57532
-0.0179538
1.5719
-0.00871311
1.5662
-0.00314235
1.56319
-0.00141607
1.56174
-0.000122084
1.56096
0.000679087
1.56059
0.00105609
1.56052
0.00122979
1.56066
0.00131269
1.56093
0.00134637
1.5613
0.00135176
1.56173
0.0013418
1.56222
0.00132378
1.56273
0.00130138
1.56327
0.00127632
1.56383
0.00124941
1.56439
0.00122088
1.56497
0.00119064
1.56555
0.00115841
1.56614
0.00112372
1.56673
0.00108599
1.56733
0.00104452
1.56794
0.000998513
1.56855
0.000946998
1.56918
0.000888895
1.56982
0.000822963
1.57049
0.000747708
1.57118
0.000661207
1.57191
0.000561135
1.57268
0.000445405
1.57349
0.000311628
1.57438
0.000156214
1.57533
-2.50284e-05
1.57638
-0.000236558
1.57754
-0.000483477
1.57883
-0.000772137
1.58027
-0.00111025
1.5819
-0.00150715
1.58375
-0.00197506
1.58586
-0.00252892
1.5883
-0.00318683
1.59111
-0.00397263
1.59438
-0.00491793
1.5982
-0.00606597
1.60269
-0.00747795
1.60801
-0.00924388
1.61433
-0.0115012
1.62188
-0.0144665
1.6308
-0.0184888
-0.0241166
1.64095
1.57763
-0.00396707
1.573
-0.00408444
1.57217
-0.0023067
1.57223
-0.00147744
1.57309
-0.000986115
1.57428
-0.000505357
1.57545
-0.000120733
1.57653
0.000154715
1.57748
0.000356299
1.57832
0.000506552
1.57906
0.00061723
1.5797
0.000697233
1.58027
0.000753717
1.58078
0.000791938
1.58124
0.000815594
1.58167
0.000827275
1.58206
0.00082876
1.58243
0.000821202
1.58278
0.000805258
1.58312
0.000781177
1.58346
0.000748867
1.5838
0.000707927
1.58414
0.000657657
1.58449
0.000597065
1.58485
0.000524947
1.58523
0.000439867
1.58564
0.000340072
1.58608
0.000222906
1.58656
8.52024e-05
1.58708
-7.63536e-05
1.58766
-0.000265742
1.5883
-0.000487695
1.58902
-0.000747852
1.58984
-0.00105178
1.59076
-0.00140763
1.59181
-0.00182473
1.59302
-0.0023143
1.5944
-0.00288994
1.59599
-0.00356843
1.59784
-0.00437029
1.59997
-0.00532079
1.60245
-0.00645206
1.60534
-0.00780561
1.60871
-0.00943612
1.61265
-0.0114171
1.61725
-0.0138497
1.62263
-0.0168748
1.62885
-0.0206904
1.63593
-0.0255712
-0.031875
1.64369
1.59001
-0.00235616
1.58927
-0.00334352
1.58952
-0.00256461
1.58974
-0.00169121
1.5898
-0.0010454
1.58979
-0.000497367
1.58972
-4.93336e-05
1.58959
0.000279733
1.58944
0.000508578
1.58928
0.000665082
1.58913
0.000768947
1.58899
0.000833849
1.58888
0.000870037
1.58878
0.000885018
1.58872
0.000884012
1.58867
0.000870517
1.58865
0.000846787
1.58866
0.000814157
1.58869
0.000773263
1.58875
0.000724196
1.58883
0.000666603
1.58894
0.000599729
1.58908
0.000522421
1.58924
0.000433017
1.58943
0.000329776
1.58966
0.000210767
1.58993
7.32082e-05
1.59024
-8.59601e-05
1.59059
-0.000270217
1.591
-0.000484174
1.59147
-0.000733441
1.59201
-0.00102398
1.59262
-0.00136285
1.59333
-0.0017582
1.59414
-0.0022201
1.59508
-0.00276049
1.59616
-0.00339357
1.5974
-0.00413635
1.59884
-0.00500941
1.60051
-0.00603773
1.60244
-0.00725182
1.60468
-0.00868944
1.60727
-0.0103979
1.61027
-0.0124371
1.61374
-0.0148836
1.61773
-0.0178362
1.62227
-0.0214219
1.62738
-0.0258022
1.63299
-0.0311734
-0.0377524
1.63886
1.59022
-0.000962947
1.58845
-0.00156479
1.58719
-0.00131341
1.58635
-0.000847213
1.58579
-0.000487575
1.5855
-0.000208633
1.58543
2.05994e-05
1.58552
0.000196858
1.5857
0.000323296
1.58596
0.00041152
1.58625
0.000471508
1.58658
0.000509801
1.58692
0.000531027
1.58726
0.00053861
1.58761
0.000534928
1.58796
0.000521487
1.58831
0.00049912
1.58865
0.000468133
1.589
0.000428404
1.58934
0.000379445
1.58969
0.000320466
1.59004
0.000250344
1.59039
0.00016769
1.59076
7.02807e-05
1.59113
-4.40989e-05
1.59152
-0.000178217
1.59193
-0.000335375
1.59236
-0.00051905
1.59282
-0.000733375
1.59332
-0.000983784
1.59387
-0.00127655
1.59446
-0.00161884
1.59512
-0.00201909
1.59585
-0.00248721
1.59666
-0.00303494
1.59758
-0.00367625
1.59861
-0.00442768
1.59978
-0.00530888
1.60112
-0.00634336
1.60264
-0.00755926
1.60438
-0.00899046
1.60637
-0.0106779
1.60864
-0.0126715
1.61124
-0.0150321
1.61419
-0.0178342
1.61752
-0.0211686
1.62124
-0.0251447
1.62533
-0.0298906
1.62971
-0.0355492
-0.0422645
1.63422
1.59117
-0.000510711
1.59055
-0.000953501
1.59023
-0.000991616
1.59019
-0.000810035
1.5903
-0.000595253
1.59048
-0.000391096
1.5907
-0.00019877
1.59093
-2.90606e-05
1.59114
0.00010953
1.59134
0.000216893
1.59151
0.000296725
1.59167
0.000352865
1.59181
0.0003887
1.59194
0.000407191
1.59207
0.000410754
1.59219
0.000401173
1.59231
0.000379623
1.59243
0.000346719
1.59256
0.000302583
1.59269
0.000246854
1.59283
0.000178912
1.59298
9.76011e-05
1.59315
1.3839e-06
1.59333
-0.000111575
1.59353
-0.000243869
1.59375
-0.000398763
1.594
-0.000579772
1.59427
-0.000791008
1.59457
-0.00103739
1.59491
-0.00132487
1.5953
-0.00166047
1.59573
-0.00205234
1.59622
-0.00251002
1.59678
-0.00304473
1.59741
-0.00366967
1.59814
-0.00440039
1.59896
-0.00525524
1.59991
-0.00625586
1.601
-0.00742782
1.60224
-0.00880134
1.60366
-0.0104122
1.60528
-0.0123028
1.60714
-0.0145234
1.60924
-0.0171332
1.61161
-0.0202022
1.61425
-0.0238111
1.61716
-0.0280521
1.62029
-0.0330257
1.62358
-0.0388346
-0.0455709
1.62688
1.59137
-0.000263459
1.59094
-0.000521155
1.59052
-0.000578525
1.5902
-0.000485058
1.58995
-0.000341074
1.58975
-0.00019747
1.58962
-6.71183e-05
1.58955
4.35194e-05
1.58953
0.000129943
1.58955
0.000192093
1.58962
0.000232847
1.58971
0.000255547
1.58984
0.000263051
1.58999
0.000257648
1.59016
0.00024105
1.59034
0.000214385
1.59055
0.000178226
1.59076
0.000132602
1.59099
7.71352e-05
1.59122
1.10139e-05
1.59147
-6.69944e-05
1.59172
-0.000158472
1.59199
-0.000265505
1.59227
-0.00039021
1.59256
-0.000535569
1.59287
-0.000705095
1.59319
-0.000902808
1.59353
-0.00113341
1.5939
-0.00140242
1.59429
-0.00171637
1.59471
-0.0020829
1.59517
-0.00251095
1.59567
-0.00301095
1.59622
-0.00359509
1.59683
-0.00427768
1.5975
-0.00507545
1.59826
-0.00600803
1.5991
-0.00709839
1.60005
-0.00837341
1.60111
-0.00986449
1.6023
-0.0116083
1.60365
-0.0136474
1.60516
-0.0160311
1.60684
-0.0188163
1.60871
-0.0220672
1.61075
-0.0258557
1.61296
-0.0302599
1.61529
-0.0353606
1.61769
-0.0412364
-0.0479563
1.62008
1.59149
-0.000139589
1.59126
-0.000290016
1.59103
-0.000348183
1.59087
-0.000323391
1.59079
-0.000259406
1.59078
-0.000187536
1.59083
-0.000118936
1.59093
-5.78845e-05
1.59107
-7.65062e-06
1.59123
3.02158e-05
1.59141
5.59106e-05
1.59159
7.03066e-05
1.59178
7.42502e-05
1.59197
6.83926e-05
1.59216
5.31565e-05
1.59235
2.86958e-05
1.59253
-5.12842e-06
1.59271
-4.87483e-05
1.59289
-0.000102909
1.59307
-0.000168622
1.59325
-0.000247376
1.59343
-0.000340925
1.59362
-0.000451388
1.59381
-0.000581245
1.59401
-0.000733559
1.59421
-0.000911975
1.59443
-0.00112075
1.59466
-0.00136486
1.59491
-0.00165015
1.59518
-0.00198348
1.59547
-0.0023729
1.59579
-0.00282782
1.59613
-0.00335921
1.59652
-0.0039799
1.59695
-0.00470489
1.59742
-0.00555164
1.59795
-0.00654056
1.59855
-0.00769535
1.59922
-0.00904356
1.59997
-0.0106171
1.60082
-0.0124526
1.60176
-0.0145923
1.60282
-0.0170841
1.60398
-0.0199818
1.60526
-0.0233448
1.60664
-0.0272376
1.60811
-0.0317272
1.60963
-0.0368803
1.61115
-0.0427577
-0.0494078
1.6126
1.59154
-6.24988e-05
1.59138
-0.000133405
1.5912
-0.000166841
1.59104
-0.00016264
1.59092
-0.000137013
1.59084
-0.000104999
1.59079
-7.39658e-05
1.59078
-4.7266e-05
1.5908
-2.72222e-05
1.59085
-1.5206e-05
1.59091
-1.15618e-05
1.591
-1.60827e-05
1.5911
-2.84601e-05
1.59122
-4.84741e-05
1.59135
-7.60674e-05
1.59149
-0.0001114
1.59164
-0.000154884
1.5918
-0.000207165
1.59196
-0.000269195
1.59214
-0.000342227
1.59232
-0.000427863
1.5925
-0.00052803
1.5927
-0.000645033
1.5929
-0.000781594
1.59311
-0.00094095
1.59332
-0.00112692
1.59354
-0.00134397
1.59378
-0.00159731
1.59402
-0.00189304
1.59427
-0.00223829
1.59454
-0.00264139
1.59483
-0.00311206
1.59513
-0.00366161
1.59545
-0.00430324
1.5958
-0.00505231
1.59617
-0.00592668
1.59658
-0.00694708
1.59702
-0.00813754
1.59751
-0.00952575
1.59803
-0.0111436
1.59861
-0.0130274
1.59923
-0.0152186
1.59991
-0.0177634
1.60064
-0.0207131
1.60142
-0.0241235
1.60224
-0.0280533
1.60307
-0.0325627
1.6039
-0.0377098
1.60469
-0.0435466
-0.050116
1.6054
1.59156
-5.03058e-06
1.59144
-1.25244e-05
1.59129
-2.03019e-05
1.59116