/*--------------------------------*- C++ -*----------------------------------*\
  =========                 |
  \\      /  F ield         | OpenFOAM: The Open Source CFD Toolbox
   \\    /   O peration     | Website:  https://openfoam.org
    \\  /    A nd           | Version:  8
     \\/     M anipulation  |
\*---------------------------------------------------------------------------*/
FoamFile
{
    version     2.0;
    format      ascii;
    class       volScalarField;
    location    "1000";
    object      epsilon;
}
// * * * * * * * * * * * * * * * * * * * * * * * * * * * * * * * * * * * * * //

dimensions      [0 2 -3 0 0 0 0];

internalField   nonuniform List<scalar> 
1200
(
5.35629e-06
5.27037e-06
5.18704e-06
5.09766e-06
5.00173e-06
4.9023e-06
4.80518e-06
4.71335e-06
4.63155e-06
4.51962e-06
4.47188e-06
4.56375e-06
4.70976e-06
4.76585e-06
4.75916e-06
4.1743e-06
4.25743e-06
4.33206e-06
4.89939e-06
5.7016e-06
6.1938e-06
6.70471e-06
7.44209e-06
8.44712e-06
9.75429e-06
1.12979e-05
3.14322e-05
3.47345e-05
3.80659e-05
4.11252e-05
4.40055e-05
4.6896e-05
4.97227e-05
5.23305e-05
5.45993e-05
5.66972e-05
5.95113e-05
6.4075e-05
6.85652e-05
7.2226e-05
7.47071e-05
7.51709e-05
7.23976e-05
7.29083e-05
7.61639e-05
8.0803e-05
8.4284e-05
8.42761e-05
8.23051e-05
7.61162e-05
7.36984e-05
9.65091e-05
0.000303743
0.000905103
0.00147951
0.00236628
0.00336666
0.00412147
0.00455304
0.00904118
5.3634e-06
4.65535e-06
4.05493e-06
3.5364e-06
3.09188e-06
2.70286e-06
2.38097e-06
2.12561e-06
1.96933e-06
1.82965e-06
1.87226e-06
2.44842e-06
2.52262e-06
2.51324e-06
1.94287e-06
2.42731e-06
3.00559e-06
3.10716e-06
5.34391e-06
6.19117e-06
5.41921e-06
4.97504e-06
5.16266e-06
5.758e-06
6.48751e-06
7.07341e-06
7.42019e-06
7.59443e-06
7.68473e-06
7.77834e-06
7.87985e-06
7.97528e-06
8.07612e-06
8.21508e-06
8.42281e-06
8.57704e-06
8.5715e-06
8.48059e-06
9.16855e-06
1.03798e-05
1.09981e-05
1.14476e-05
1.165e-05
4.93987e-05
4.99018e-05
4.95786e-05
1.16354e-05
4.96834e-05
5.57809e-05
6.13779e-05
7.41598e-05
0.000140128
0.00033153
0.00061174
0.000704158
0.000817147
0.00104408
0.00179666
0.00383664
0.00965773
5.35765e-06
4.62306e-06
3.99267e-06
3.44446e-06
2.96945e-06
2.55668e-06
2.20285e-06
1.90484e-06
1.66721e-06
1.48541e-06
1.44647e-06
1.74844e-06
1.74495e-06
1.48149e-06
1.27097e-06
3.43546e-06
4.60996e-06
7.21483e-06
7.93382e-06
8.26854e-06
8.13677e-06
8.06302e-06
7.92647e-06
8.48047e-06
8.78647e-06
8.80329e-06
8.9732e-06
9.24315e-06
9.54572e-06
9.81658e-06
9.97952e-06
9.97976e-06
9.83866e-06
9.94953e-06
1.03711e-05
1.06982e-05
1.07924e-05
1.09921e-05
1.15015e-05
5.35045e-05
6.87783e-05
8.87562e-05
0.00010916
0.000123413
0.000132322
0.000135236
0.000112738
5.34023e-05
1.16467e-05
4.99216e-05
6.59434e-05
0.000111307
0.000165371
0.000241152
0.000261833
0.000328588
0.000527417
0.000993863
0.00188047
0.00499659
5.36135e-06
4.62459e-06
3.99437e-06
3.44864e-06
2.97254e-06
2.55913e-06
2.20179e-06
1.89585e-06
1.63557e-06
1.42006e-06
1.3042e-06
1.43937e-06
1.51606e-06
1.40335e-06
2.11913e-06
6.68707e-06
7.85172e-06
8.46132e-06
9.07885e-06
9.4367e-06
9.6194e-06
9.64098e-06
9.49251e-06
9.21099e-06
8.90698e-06
9.02589e-06
9.43034e-06
9.8418e-06
1.02392e-05
1.06289e-05
1.09968e-05
1.13404e-05
1.16649e-05
5.19222e-05
5.99768e-05
6.8794e-05
7.8197e-05
8.84274e-05
0.000102249
0.000124155
0.00015597
0.000190998
0.000225956
0.000266639
0.000310873
0.000352367
0.000372553
0.000339971
0.000237434
0.000183146
0.000217792
0.000289895
0.000343465
0.000400933
0.000600773
0.00108898
0.00203695
0.00354223
0.00642994
0.0141548
5.36513e-06
4.62473e-06
3.99251e-06
3.44545e-06
2.96814e-06
2.55849e-06
2.20173e-06
1.89654e-06
1.63604e-06
1.41505e-06
1.25199e-06
1.23214e-06
1.27478e-06
1.26793e-06
1.27296e-06
3.91442e-06
5.27226e-06
6.99487e-06
7.44591e-06
8.50651e-06
8.83286e-06
9.12701e-06
9.14023e-06
8.84894e-06
8.48608e-06
8.72739e-06
9.12649e-06
9.74702e-06
1.02654e-05
1.07447e-05
1.12171e-05
4.92854e-05
5.23102e-05
6.13409e-05
7.13818e-05
8.21337e-05
9.4306e-05
0.000108151
0.000124338
0.000146044
0.000174059
0.000207792
0.000256393
0.000314288
0.000382115
0.000464808
0.000570348
0.000695479
0.000799596
0.000837509
0.000942933
0.00118757
0.00153615
0.00195287
0.00243947
0.00310859
0.00422904
0.00633833
0.0100996
0.0169801
5.3678e-06
4.62697e-06
3.9929e-06
3.44278e-06
2.96578e-06
2.55735e-06
2.20211e-06
1.89814e-06
1.63973e-06
1.41866e-06
1.23916e-06
1.13481e-06
1.0965e-06
1.08745e-06
1.08081e-06
2.25008e-06
3.18866e-06
4.27415e-06
4.2234e-06
4.45296e-06
5.44587e-06
6.64098e-06
7.80758e-06
8.25879e-06
8.22131e-06
7.93381e-06
7.74192e-06
8.57429e-06
9.14964e-06
9.65144e-06
1.00649e-05
1.04187e-05
1.07299e-05
1.09931e-05
1.11675e-05
1.13896e-05
4.97812e-05
5.91551e-05
7.00371e-05
7.69531e-05
7.87113e-05
8.85688e-05
0.000113801
0.000139244
0.000173561
0.00023006
0.000330195
0.000490871
0.000679406
0.000851079
0.00102806
0.00125259
0.00154658
0.0019398
0.00248494
0.00325746
0.00450591
0.00674207
0.010704
0.0175624
5.36996e-06
4.63101e-06
3.99469e-06
3.44115e-06
2.9656e-06
2.55672e-06
2.20319e-06
1.90127e-06
1.64448e-06
1.42476e-06
1.24109e-06
1.10435e-06
1.01259e-06
9.6035e-07
9.40509e-07
1.41591e-06
1.94697e-06
2.64829e-06
2.8389e-06
2.74608e-06
3.19687e-06
4.35889e-06
5.63701e-06
6.53379e-06
6.87114e-06
6.83865e-06
6.7694e-06
6.75862e-06
6.87014e-06
7.21146e-06
7.6441e-06
7.99112e-06
8.13847e-06
7.90697e-06
7.60748e-06
7.56663e-06
8.25897e-06
9.32102e-06
1.07827e-05
1.03883e-05
6.52782e-06
8.06219e-06
8.92958e-06
8.47288e-06
8.81002e-06
1.05471e-05
6.11834e-05
0.000109294
0.000217326
0.000389413
0.000530664
0.000598729
0.000627052
0.000785485
0.00119233
0.00178284
0.00272242
0.00462936
0.0086778
0.0160745
5.37269e-06
4.63275e-06
3.99078e-06
3.4342e-06
2.95981e-06
2.55146e-06
2.20173e-06
1.90349e-06
1.64863e-06
1.43027e-06
1.24719e-06
1.10157e-06
9.88172e-07
9.03587e-07
8.5401e-07
1.0017e-06
1.22274e-06
1.55425e-06
1.87871e-06
1.87137e-06
1.80536e-06
2.24252e-06
3.26796e-06
4.19057e-06
4.64379e-06
4.81846e-06
5.09189e-06
5.49153e-06
5.91232e-06
6.29388e-06
6.60654e-06
6.8273e-06
6.94184e-06
6.97034e-06
6.96539e-06
6.97137e-06
6.98141e-06
7.05719e-06
7.33476e-06
7.05145e-06
6.7902e-06
6.57675e-06
6.35505e-06
6.06727e-06
5.61017e-06
5.08927e-06
8.05912e-06
5.00314e-05
8.43252e-05
0.000162446
0.000235217
0.000252297
0.000203436
0.000148274
0.00011329
0.00019856
0.000441235
0.00082801
0.00225796
0.00504893
5.38372e-06
4.66775e-06
4.05047e-06
3.52107e-06
3.07091e-06
2.67691e-06
2.33635e-06
2.04554e-06
1.79401e-06
1.57306e-06
1.38192e-06
1.22228e-06
1.09128e-06
9.83732e-07
8.97834e-07
8.80639e-07
9.20509e-07
1.0563e-06
1.19336e-06
1.22641e-06
1.18998e-06
1.22785e-06
1.5146e-06
1.98211e-06
2.3776e-06
2.61147e-06
2.84797e-06
3.20972e-06
3.72067e-06
4.29584e-06
4.82587e-06
5.25746e-06
5.58283e-06
5.81161e-06
5.96678e-06
6.04766e-06
6.0519e-06
6.04067e-06
6.05897e-06
6.07528e-06
6.36619e-06
6.51849e-06
6.58875e-06
6.54095e-06
6.47148e-06
6.54679e-06
6.966e-06
7.28513e-06
7.28204e-06
8.26246e-06
1.14157e-05
6.01544e-05
5.76002e-05
5.16503e-05
4.99081e-05
1.16178e-05
5.00712e-05
7.00876e-05
0.00024259
0.000559852
5.36331e-06
5.27993e-06
5.1828e-06
5.08463e-06
4.99144e-06
4.89996e-06
4.80634e-06
4.69782e-06
4.55765e-06
4.36026e-06
4.11865e-06
3.88969e-06
3.70686e-06
3.5379e-06
3.31905e-06
3.05272e-06
2.92466e-06
2.85643e-06
2.92299e-06
3.11268e-06
3.35705e-06
3.54539e-06
3.7219e-06
4.00354e-06
4.43178e-06
5.04092e-06
5.7194e-06
6.4013e-06
7.0505e-06
7.73547e-06
8.56503e-06
9.61072e-06
1.08985e-05
3.09235e-05
3.39532e-05
3.7465e-05
4.14761e-05
4.55735e-05
5.02085e-05
5.66257e-05
6.29933e-05
6.95448e-05
7.63462e-05
8.33386e-05
9.03899e-05
9.75579e-05
0.000104211
0.000110751
0.000115721
0.000118813
0.000119164
0.000122721
0.000132034
0.000147663
0.000166441
0.000191797
0.000217617
0.000241755
0.000263095
0.000310585
5.34185e-06
5.27009e-06
5.19433e-06
5.10714e-06
5.01498e-06
4.90655e-06
4.80371e-06
4.71117e-06
4.62916e-06
4.52309e-06
4.48312e-06
4.58158e-06
4.7266e-06
4.78771e-06
4.76303e-06
4.17835e-06
4.26967e-06
4.36429e-06
4.89398e-06
5.70321e-06
6.21245e-06
6.72431e-06
7.45407e-06
8.43772e-06
9.7001e-06
1.12171e-05
3.10783e-05
3.42961e-05
3.76274e-05
4.07602e-05
4.37698e-05
4.67906e-05
4.97019e-05
5.23536e-05
5.46625e-05
5.6846e-05
5.96382e-05
6.40489e-05
6.84294e-05
7.20599e-05
7.45805e-05
7.5287e-05
7.24352e-05
7.23601e-05
7.58081e-05
8.00098e-05
8.34775e-05
8.3831e-05
8.19602e-05
7.55109e-05
7.49803e-05
0.000103799
0.000237007
0.000782922
0.00154736
0.00240629
0.00332691
0.00393807
0.00484577
0.00949973
5.3686e-06
4.65778e-06
4.0534e-06
3.53579e-06
3.09072e-06
2.70442e-06
2.37972e-06
2.12228e-06
1.96355e-06
1.82984e-06
1.86698e-06
2.4388e-06
2.51678e-06
2.50835e-06
1.92979e-06
2.4188e-06
3.02524e-06
3.14931e-06
5.24454e-06
6.18936e-06
5.46126e-06
5.00694e-06
5.1663e-06
5.74155e-06
6.46457e-06
7.04619e-06
7.39434e-06
7.57027e-06
7.66297e-06
7.76125e-06
7.86562e-06
7.95896e-06
8.057e-06
8.1952e-06
8.40336e-06
8.56058e-06
8.55602e-06
8.45494e-06
9.14923e-06
1.04059e-05
1.08825e-05
1.14957e-05
1.15901e-05
4.97955e-05
5.17771e-05
4.99509e-05
4.94204e-05
5.29002e-05
5.69231e-05
6.20634e-05
7.79164e-05
0.000152553
0.00028966
0.000570344
0.000619932
0.000655611
0.00083063
0.00152481
0.00456716
0.0113844
5.36474e-06
4.62536e-06
3.99123e-06
3.44222e-06
2.96571e-06
2.55764e-06
2.20341e-06
1.90403e-06
1.66589e-06
1.48487e-06
1.4435e-06
1.74115e-06
1.74125e-06
1.48054e-06
1.28207e-06
3.41272e-06
4.6531e-06
7.20028e-06
7.9087e-06
8.25343e-06
8.14189e-06
8.07143e-06
7.93748e-06
8.45852e-06
8.75008e-06
8.77028e-06
8.94979e-06
9.22565e-06
9.53074e-06
9.7996e-06
9.95538e-06
9.94033e-06
9.79029e-06
9.94125e-06
1.04012e-05
1.06917e-05
1.07773e-05
1.10008e-05
1.15065e-05
5.34118e-05
6.85312e-05
8.85769e-05
0.000108505
0.00012202
0.000130978
0.000136291
0.000118075
5.36627e-05
4.93577e-05
5.07264e-05
6.72745e-05
0.000103331
0.000154737
0.000225654
0.000254324
0.000325956
0.000518496
0.000993081
0.00187045
0.00506715
5.36694e-06
4.62768e-06
3.99485e-06
3.44587e-06
2.96943e-06
2.55962e-06
2.20236e-06
1.89575e-06
1.6355e-06
1.41985e-06
1.30228e-06
1.43367e-06
1.51111e-06
1.40119e-06
2.14162e-06
6.64546e-06
7.84261e-06
8.4447e-06
9.05924e-06
9.41614e-06
9.58144e-06
9.5897e-06
9.42764e-06
9.137e-06
8.86281e-06
9.02905e-06
9.406e-06
9.82352e-06
1.02265e-05
1.06206e-05
1.09904e-05
1.13348e-05
1.16366e-05
5.1885e-05
5.99736e-05
6.8815e-05
7.82871e-05
8.85949e-05
0.000102559
0.000124541
0.000156199
0.000190789
0.000225593
0.000266309
0.00031121
0.000354494
0.000378098
0.000350197
0.000249354
0.000191185
0.000226334
0.000300551
0.00035319
0.000404906
0.000597574
0.00107121
0.0020174
0.00353658
0.00638334
0.014045
5.36892e-06
4.62994e-06
3.99384e-06
3.4409e-06
2.96524e-06
2.55601e-06
2.20088e-06
1.89658e-06
1.63627e-06
1.41493e-06
1.25109e-06
1.22896e-06
1.2704e-06
1.26451e-06
1.27457e-06
3.93677e-06
5.2734e-06
7.04418e-06
7.62095e-06
8.48494e-06
8.79988e-06
9.0733e-06
9.07856e-06
8.77703e-06
8.45219e-06
8.70367e-06
9.10592e-06
9.72332e-06
1.0241e-05
1.07183e-05
1.11887e-05
1.16508e-05
5.20964e-05
6.1177e-05
7.12653e-05
8.2119e-05
9.43783e-05
0.000108127
0.000124317
0.000145928
0.000173724
0.000207231
0.000256764
0.000315818
0.000384221
0.000466892
0.000571928
0.000698669
0.000807967
0.00085229
0.000959757
0.00120632
0.00155936
0.00197962
0.00246362
0.00311919
0.00422301
0.00632693
0.0100892
0.0169605
5.37159e-06
4.63324e-06
3.99356e-06
3.43833e-06
2.96356e-06
2.55342e-06
2.20048e-06
1.89893e-06
1.64032e-06
1.41861e-06
1.23852e-06
1.13344e-06
1.09404e-06
1.08474e-06
1.07976e-06
2.26301e-06
3.20675e-06
4.2928e-06
4.18672e-06
4.44626e-06
5.48227e-06
6.68996e-06
7.76575e-06
8.21406e-06
8.16963e-06
7.87505e-06
7.7731e-06
8.51133e-06
9.11167e-06
9.62798e-06
1.00452e-05
1.03968e-05
1.0707e-05
1.09719e-05
1.11556e-05
1.13814e-05
4.95948e-05
5.90716e-05
6.95899e-05
7.61789e-05
7.77867e-05
8.89885e-05
0.00011511
0.000141422
0.000175549
0.000230889
0.00032799
0.000487271
0.000678613
0.00085264
0.00103149
0.00125611
0.0015495
0.00194309
0.00249018
0.00326102
0.00449882
0.00672098
0.0106409
0.0174143
5.37508e-06
4.6358e-06
3.99291e-06
3.43781e-06
2.96355e-06
2.55366e-06
2.20279e-06
1.90332e-06
1.64627e-06
1.42481e-06
1.2407e-06
1.1039e-06
1.01158e-06
9.58773e-07
9.39478e-07
1.41517e-06
1.93229e-06
2.75553e-06
2.84067e-06
2.73042e-06
3.21652e-06
4.40222e-06
5.6858e-06
6.56498e-06
6.87914e-06
6.84915e-06
6.78505e-06
6.77508e-06
6.89627e-06
7.23205e-06
7.65447e-06
7.98516e-06
8.1147e-06
7.87645e-06
7.56378e-06
7.5539e-06
8.2903e-06
9.39539e-06
1.08156e-05
1.03716e-05
6.59378e-06
8.03207e-06
8.84854e-06
8.3673e-06
8.76801e-06
1.05304e-05
5.94877e-05
0.000105683
0.000212405
0.000384585
0.000526344
0.000592767
0.000617113
0.00077591
0.0011871
0.00178158
0.0027165
0.00460897
0.00865521
0.0160485
5.37813e-06
4.63369e-06
3.98706e-06
3.43291e-06
2.95866e-06
2.55125e-06
2.20307e-06
1.90507e-06
1.64963e-06
1.43044e-06
1.24836e-06
1.10224e-06
9.88003e-07
9.02469e-07
8.53155e-07
9.98379e-07
1.2045e-06
1.63786e-06
1.9226e-06
1.86145e-06
1.79302e-06
2.25998e-06
3.30114e-06
4.20943e-06
4.64021e-06
4.81577e-06
5.10241e-06
5.51821e-06
5.94753e-06
6.32907e-06
6.63658e-06
6.85041e-06
6.96137e-06
6.9925e-06
6.99349e-06
7.00316e-06
7.0099e-06
7.06113e-06
7.29779e-06
7.04693e-06
6.80001e-06
6.5936e-06
6.3722e-06
6.08584e-06
5.61191e-06
5.06573e-06
7.48322e-06
1.15925e-05
8.09108e-05
0.000157362
0.000231201
0.000247731
0.000196995
0.000141215
0.000106921
0.000196089
0.00044196
0.000831538
0.00224982
0.00476257
5.38725e-06
4.66607e-06
4.04601e-06
3.5195e-06
3.06974e-06
2.67938e-06
2.33952e-06
2.04863e-06
1.79594e-06
1.57397e-06
1.38316e-06
1.22258e-06
1.0913e-06
9.84206e-07
8.98302e-07
8.81495e-07
9.26601e-07
1.08885e-06
1.22381e-06
1.23141e-06
1.18231e-06
1.21945e-06
1.51347e-06
1.98477e-06
2.37456e-06
2.60822e-06
2.84877e-06
3.22362e-06
3.74747e-06
4.32879e-06
4.85921e-06
5.28836e-06
5.61061e-06
5.83591e-06
5.98698e-06
6.06171e-06
6.05913e-06
6.04264e-06
6.06125e-06
6.08786e-06
6.37869e-06
6.52872e-06
6.58884e-06
6.53392e-06
6.46105e-06
6.51476e-06
6.69243e-06
6.85952e-06
7.00786e-06
8.20901e-06
1.11105e-05
5.74586e-05
5.4956e-05
5.05858e-05
4.98853e-05
1.15419e-05
4.92286e-05
6.96099e-05
0.000242573
0.000559829
5.35896e-06
5.27277e-06
5.18268e-06
5.09022e-06
4.9977e-06
4.90754e-06
4.8153e-06
4.70485e-06
4.55753e-06
4.36604e-06
4.12579e-06
3.89133e-06
3.70696e-06
3.53977e-06
3.32021e-06
3.04623e-06
2.90571e-06
2.82252e-06
2.87968e-06
3.06808e-06
3.3183e-06
3.52523e-06
3.72927e-06
4.03395e-06
4.47813e-06
5.09044e-06
5.7579e-06
6.41246e-06
7.03662e-06
7.71409e-06
8.55047e-06
9.60901e-06
1.09076e-05
3.07988e-05
3.39305e-05
3.74736e-05
4.15335e-05
4.57461e-05
5.0424e-05
5.67965e-05
6.31145e-05
6.96575e-05
7.64656e-05
8.34517e-05
9.04881e-05
9.76776e-05
0.000104352
0.000111076
0.000116038
0.000118942
0.000121107
0.000125528
0.000135591
0.000150272
0.000168048
0.000193179
0.000219062
0.000242784
0.000263813
0.000311186
)
;

boundaryField
{
    wall
    {
        type            epsilonWallFunction;
        value           nonuniform List<scalar> 
1200
(
5.35629e-06
5.3634e-06
5.35765e-06
5.36135e-06
5.36513e-06
5.3678e-06
5.36996e-06
5.37269e-06
5.38372e-06
5.36331e-06
5.27037e-06
4.65535e-06
4.62306e-06
4.62459e-06
4.62473e-06
4.62697e-06
4.63101e-06
4.63275e-06
4.66775e-06
5.27993e-06
5.18704e-06
4.05493e-06
3.99267e-06
3.99437e-06
3.99251e-06
3.9929e-06
3.99469e-06
3.99078e-06
4.05047e-06
5.1828e-06
5.09766e-06
3.5364e-06
3.44446e-06
3.44864e-06
3.44545e-06
3.44278e-06
3.44115e-06
3.4342e-06
3.52107e-06
5.08463e-06
5.00173e-06
3.09188e-06
2.96945e-06
2.97254e-06
2.96814e-06
2.96578e-06
2.9656e-06
2.95981e-06
3.07091e-06
4.99144e-06
4.9023e-06
2.70286e-06
2.55668e-06
2.55913e-06
2.55849e-06
2.55735e-06
2.55672e-06
2.55146e-06
2.67691e-06
4.89996e-06
4.80518e-06
2.38097e-06
2.20285e-06
2.20179e-06
2.20173e-06
2.20211e-06
2.20319e-06
2.20173e-06
2.33635e-06
4.80634e-06
4.71335e-06
2.12561e-06
1.90484e-06
1.89585e-06
1.89654e-06
1.89814e-06
1.90127e-06
1.90349e-06
2.04554e-06
4.69782e-06
4.63155e-06
1.96933e-06
1.66721e-06
1.63557e-06
1.63604e-06
1.63973e-06
1.64448e-06
1.64863e-06
1.79401e-06
4.55765e-06
4.51962e-06
1.82965e-06
1.48541e-06
1.42006e-06
1.41505e-06
1.41866e-06
1.42476e-06
1.43027e-06
1.57306e-06
4.36026e-06
4.47188e-06
1.87226e-06
1.44647e-06
1.3042e-06
1.25199e-06
1.23916e-06
1.24109e-06
1.24719e-06
1.38192e-06
4.11865e-06
4.56375e-06
2.44842e-06
1.74844e-06
1.43937e-06
1.23214e-06
1.13481e-06
1.10435e-06
1.10157e-06
1.22228e-06
3.88969e-06
4.70976e-06
2.52262e-06
1.74495e-06
1.51606e-06
1.27478e-06
1.0965e-06
1.01259e-06
9.88172e-07
1.09128e-06
3.70686e-06
4.76585e-06
2.51324e-06
1.48149e-06
1.40335e-06
1.26793e-06
1.08745e-06
9.6035e-07
9.03587e-07
9.83732e-07
3.5379e-06
4.75916e-06
1.94287e-06
1.27097e-06
2.11913e-06
1.27296e-06
1.08081e-06
9.40509e-07
8.5401e-07
8.97834e-07
3.31905e-06
4.1743e-06
2.42731e-06
3.43546e-06
6.68707e-06
3.91442e-06
2.25008e-06
1.41591e-06
1.0017e-06
8.80639e-07
3.05272e-06
4.25743e-06
3.00559e-06
4.60996e-06
7.85172e-06
5.27226e-06
3.18866e-06
1.94697e-06
1.22274e-06
9.20509e-07
2.92466e-06
4.33206e-06
3.10716e-06
7.21483e-06
8.46132e-06
6.99487e-06
4.27415e-06
2.64829e-06
1.55425e-06
1.0563e-06
2.85643e-06
4.89939e-06
5.34391e-06
7.93382e-06
9.07885e-06
7.44591e-06
4.2234e-06
2.8389e-06
1.87871e-06
1.19336e-06
2.92299e-06
5.7016e-06
6.19117e-06
8.26854e-06
9.4367e-06
8.50651e-06
4.45296e-06
2.74608e-06
1.87137e-06
1.22641e-06
3.11268e-06
6.1938e-06
5.41921e-06
8.13677e-06
9.6194e-06
8.83286e-06
5.44587e-06
3.19687e-06
1.80536e-06
1.18998e-06
3.35705e-06
6.70471e-06
4.97504e-06
8.06302e-06
9.64098e-06
9.12701e-06
6.64098e-06
4.35889e-06
2.24252e-06
1.22785e-06
3.54539e-06
7.44209e-06
5.16266e-06
7.92647e-06
9.49251e-06
9.14023e-06
7.80758e-06
5.63701e-06
3.26796e-06
1.5146e-06
3.7219e-06
8.44712e-06
5.758e-06
8.48047e-06
9.21099e-06
8.84894e-06
8.25879e-06
6.53379e-06
4.19057e-06
1.98211e-06
4.00354e-06
9.75429e-06
6.48751e-06
8.78647e-06
8.90698e-06
8.48608e-06
8.22131e-06
6.87114e-06
4.64379e-06
2.3776e-06
4.43178e-06
1.12979e-05
7.07341e-06
8.80329e-06
9.02589e-06
8.72739e-06
7.93381e-06
6.83865e-06
4.81846e-06
2.61147e-06
5.04092e-06
3.14322e-05
7.42019e-06
8.9732e-06
9.43034e-06
9.12649e-06
7.74192e-06
6.7694e-06
5.09189e-06
2.84797e-06
5.7194e-06
3.47345e-05
7.59443e-06
9.24315e-06
9.8418e-06
9.74702e-06
8.57429e-06
6.75862e-06
5.49153e-06
3.20972e-06
6.4013e-06
3.80659e-05
7.68473e-06
9.54572e-06
1.02392e-05
1.02654e-05
9.14964e-06
6.87014e-06
5.91232e-06
3.72067e-06
7.0505e-06
4.11252e-05
7.77834e-06
9.81658e-06
1.06289e-05
1.07447e-05
9.65144e-06
7.21146e-06
6.29388e-06
4.29584e-06
7.73547e-06
4.40055e-05
7.87985e-06
9.97952e-06
1.09968e-05
1.12171e-05
1.00649e-05
7.6441e-06
6.60654e-06
4.82587e-06
8.56503e-06
4.6896e-05
7.97528e-06
9.97976e-06
1.13404e-05
4.92854e-05
1.04187e-05
7.99112e-06
6.8273e-06
5.25746e-06
9.61072e-06
4.97227e-05
8.07612e-06
9.83866e-06
1.16649e-05
5.23102e-05
1.07299e-05
8.13847e-06
6.94184e-06
5.58283e-06
1.08985e-05
5.23305e-05
8.21508e-06
9.94953e-06
5.19222e-05
6.13409e-05
1.09931e-05
7.90697e-06
6.97034e-06
5.81161e-06
3.09235e-05
5.45993e-05
8.42281e-06
1.03711e-05
5.99768e-05
7.13818e-05
1.11675e-05
7.60748e-06
6.96539e-06
5.96678e-06
3.39532e-05
5.66972e-05
8.57704e-06
1.06982e-05
6.8794e-05
8.21337e-05
1.13896e-05
7.56663e-06
6.97137e-06
6.04766e-06
3.7465e-05
5.95113e-05
8.5715e-06
1.07924e-05
7.8197e-05
9.4306e-05
4.97812e-05
8.25897e-06
6.98141e-06
6.0519e-06
4.14761e-05
6.4075e-05
8.48059e-06
1.09921e-05
8.84274e-05
0.000108151
5.91551e-05
9.32102e-06
7.05719e-06
6.04067e-06
4.55735e-05
6.85652e-05
9.16855e-06
1.15015e-05
0.000102249
0.000124338
7.00371e-05
1.07827e-05
7.33476e-06
6.05897e-06
5.02085e-05
7.2226e-05
1.03798e-05
5.35045e-05
0.000124155
0.000146044
7.69531e-05
1.03883e-05
7.05145e-06
6.07528e-06
5.66257e-05
7.47071e-05
1.09981e-05
6.87783e-05
0.00015597
0.000174059
7.87113e-05
6.52782e-06
6.7902e-06
6.36619e-06
6.29933e-05
7.51709e-05
1.14476e-05
8.87562e-05
0.000190998
0.000207792
8.85688e-05
8.06219e-06
6.57675e-06
6.51849e-06
6.95448e-05
7.23976e-05
1.165e-05
0.00010916
0.000225956
0.000256393
0.000113801
8.92958e-06
6.35505e-06
6.58875e-06
7.63462e-05
7.29083e-05
4.93987e-05
0.000123413
0.000266639
0.000314288
0.000139244
8.47288e-06
6.06727e-06
6.54095e-06
8.33386e-05
7.61639e-05
4.99018e-05
0.000132322
0.000310873
0.000382115
0.000173561
8.81002e-06
5.61017e-06
6.47148e-06
9.03899e-05
8.0803e-05
4.95786e-05
0.000135236
0.000352367
0.000464808
0.00023006
1.05471e-05
5.08927e-06
6.54679e-06
9.75579e-05
8.4284e-05
1.16354e-05
0.000112738
0.000372553
0.000570348
0.000330195
6.11834e-05
8.05912e-06
6.966e-06
0.000104211
8.42761e-05
4.96834e-05
5.34023e-05
0.000339971
0.000695479
0.000490871
0.000109294
5.00314e-05
7.28513e-06
0.000110751
8.23051e-05
5.57809e-05
1.16467e-05
0.000237434
0.000799596
0.000679406
0.000217326
8.43252e-05
7.28204e-06
0.000115721
7.61162e-05
6.13779e-05
4.99216e-05
0.000183146
0.000837509
0.000851079
0.000389413
0.000162446
8.26246e-06
0.000118813
7.36984e-05
7.41598e-05
6.59434e-05
0.000217792
0.000942933
0.00102806
0.000530664
0.000235217
1.14157e-05
0.000119164
9.65091e-05
0.000140128
0.000111307
0.000289895
0.00118757
0.00125259
0.000598729
0.000252297
6.01544e-05
0.000122721
0.000303743
0.00033153
0.000165371
0.000343465
0.00153615
0.00154658
0.000627052
0.000203436
5.76002e-05
0.000132034
0.000905103
0.00061174
0.000241152
0.000400933
0.00195287
0.0019398
0.000785485
0.000148274
5.16503e-05
0.000147663
0.00147951
0.000704158
0.000261833
0.000600773
0.00243947
0.00248494
0.00119233
0.00011329
4.99081e-05
0.000166441
0.00236628
0.000817147
0.000328588
0.00108898
0.00310859
0.00325746
0.00178284
0.00019856
1.16178e-05
0.000191797
0.00336666
0.00104408
0.000527417
0.00203695
0.00422904
0.00450591
0.00272242
0.000441235
5.00712e-05
0.000217617
0.00412147
0.00179666
0.000993863
0.00354223
0.00633833
0.00674207
0.00462936
0.00082801
7.00876e-05
0.000241755
0.00455304
0.00383664
0.00188047
0.00642994
0.0100996
0.010704
0.0086778
0.00225796
0.00024259
0.000263095
0.00904118
0.00965773
0.00499659
0.0141548
0.0169801
0.0175624
0.0160745
0.00504893
0.000559852
0.000310585
5.34185e-06
5.3686e-06
5.36474e-06
5.36694e-06
5.36892e-06
5.37159e-06
5.37508e-06
5.37813e-06
5.38725e-06
5.35896e-06
5.27009e-06
4.65778e-06
4.62536e-06
4.62768e-06
4.62994e-06
4.63324e-06
4.6358e-06
4.63369e-06
4.66607e-06
5.27277e-06
5.19433e-06
4.0534e-06
3.99123e-06
3.99485e-06
3.99384e-06
3.99356e-06
3.99291e-06
3.98706e-06
4.04601e-06
5.18268e-06
5.10714e-06
3.53579e-06
3.44222e-06
3.44587e-06
3.4409e-06
3.43833e-06
3.43781e-06
3.43291e-06
3.5195e-06
5.09022e-06
5.01498e-06
3.09072e-06
2.96571e-06
2.96943e-06
2.96524e-06
2.96356e-06
2.96355e-06
2.95866e-06
3.06974e-06
4.9977e-06
4.90655e-06
2.70442e-06
2.55764e-06
2.55962e-06
2.55601e-06
2.55342e-06
2.55366e-06
2.55125e-06
2.67938e-06
4.90754e-06
4.80371e-06
2.37972e-06
2.20341e-06
2.20236e-06
2.20088e-06
2.20048e-06
2.20279e-06
2.20307e-06
2.33952e-06
4.8153e-06
4.71117e-06
2.12228e-06
1.90403e-06
1.89575e-06
1.89658e-06
1.89893e-06
1.90332e-06
1.90507e-06
2.04863e-06
4.70485e-06
4.62916e-06
1.96355e-06
1.66589e-06
1.6355e-06
1.63627e-06
1.64032e-06
1.64627e-06
1.64963e-06
1.79594e-06
4.55753e-06
4.52309e-06
1.82984e-06
1.48487e-06
1.41985e-06
1.41493e-06
1.41861e-06
1.42481e-06
1.43044e-06
1.57397e-06
4.36604e-06
4.48312e-06
1.86698e-06
1.4435e-06
1.30228e-06
1.25109e-06
1.23852e-06
1.2407e-06
1.24836e-06
1.38316e-06
4.12579e-06
4.58158e-06
2.4388e-06
1.74115e-06
1.43367e-06
1.22896e-06
1.13344e-06
1.1039e-06
1.10224e-06
1.22258e-06
3.89133e-06
4.7266e-06
2.51678e-06
1.74125e-06
1.51111e-06
1.2704e-06
1.09404e-06
1.01158e-06
9.88003e-07
1.0913e-06
3.70696e-06
4.78771e-06
2.50835e-06
1.48054e-06
1.40119e-06
1.26451e-06
1.08474e-06
9.58773e-07
9.02469e-07
9.84206e-07
3.53977e-06
4.76303e-06
1.92979e-06
1.28207e-06
2.14162e-06
1.27457e-06
1.07976e-06
9.39478e-07
8.53155e-07
8.98302e-07
3.32021e-06
4.17835e-06
2.4188e-06
3.41272e-06
6.64546e-06
3.93677e-06
2.26301e-06
1.41517e-06
9.98379e-07
8.81495e-07
3.04623e-06
4.26967e-06
3.02524e-06
4.6531e-06
7.84261e-06
5.2734e-06
3.20675e-06
1.93229e-06
1.2045e-06
9.26601e-07
2.90571e-06
4.36429e-06
3.14931e-06
7.20028e-06
8.4447e-06
7.04418e-06
4.2928e-06
2.75553e-06
1.63786e-06
1.08885e-06
2.82252e-06
4.89398e-06
5.24454e-06
7.9087e-06
9.05924e-06
7.62095e-06
4.18672e-06
2.84067e-06
1.9226e-06
1.22381e-06
2.87968e-06
5.70321e-06
6.18936e-06
8.25343e-06
9.41614e-06
8.48494e-06
4.44626e-06
2.73042e-06
1.86145e-06
1.23141e-06
3.06808e-06
6.21245e-06
5.46126e-06
8.14189e-06
9.58144e-06
8.79988e-06
5.48227e-06
3.21652e-06
1.79302e-06
1.18231e-06
3.3183e-06
6.72431e-06
5.00694e-06
8.07143e-06
9.5897e-06
9.0733e-06
6.68996e-06
4.40222e-06
2.25998e-06
1.21945e-06
3.52523e-06
7.45407e-06
5.1663e-06
7.93748e-06
9.42764e-06
9.07856e-06
7.76575e-06
5.6858e-06
3.30114e-06
1.51347e-06
3.72927e-06
8.43772e-06
5.74155e-06
8.45852e-06
9.137e-06
8.77703e-06
8.21406e-06
6.56498e-06
4.20943e-06
1.98477e-06
4.03395e-06
9.7001e-06
6.46457e-06
8.75008e-06
8.86281e-06
8.45219e-06
8.16963e-06
6.87914e-06
4.64021e-06
2.37456e-06
4.47813e-06
1.12171e-05
7.04619e-06
8.77028e-06
9.02905e-06
8.70367e-06
7.87505e-06
6.84915e-06
4.81577e-06
2.60822e-06
5.09044e-06
3.10783e-05
7.39434e-06
8.94979e-06
9.406e-06
9.10592e-06
7.7731e-06
6.78505e-06
5.10241e-06
2.84877e-06
5.7579e-06
3.42961e-05
7.57027e-06
9.22565e-06
9.82352e-06
9.72332e-06
8.51133e-06
6.77508e-06
5.51821e-06
3.22362e-06
6.41246e-06
3.76274e-05
7.66297e-06
9.53074e-06
1.02265e-05
1.0241e-05
9.11167e-06
6.89627e-06
5.94753e-06
3.74747e-06
7.03662e-06
4.07602e-05
7.76125e-06
9.7996e-06
1.06206e-05
1.07183e-05
9.62798e-06
7.23205e-06
6.32907e-06
4.32879e-06
7.71409e-06
4.37698e-05
7.86562e-06
9.95538e-06
1.09904e-05
1.11887e-05
1.00452e-05
7.65447e-06
6.63658e-06
4.85921e-06
8.55047e-06
4.67906e-05
7.95896e-06
9.94033e-06
1.13348e-05
1.16508e-05
1.03968e-05
7.98516e-06
6.85041e-06
5.28836e-06
9.60901e-06
4.97019e-05
8.057e-06
9.79029e-06
1.16366e-05
5.20964e-05
1.0707e-05
8.1147e-06
6.96137e-06
5.61061e-06
1.09076e-05
5.23536e-05
8.1952e-06
9.94125e-06
5.1885e-05
6.1177e-05
1.09719e-05
7.87645e-06
6.9925e-06
5.83591e-06
3.07988e-05
5.46625e-05
8.40336e-06
1.04012e-05
5.99736e-05
7.12653e-05
1.11556e-05
7.56378e-06
6.99349e-06
5.98698e-06
3.39305e-05
5.6846e-05
8.56058e-06
1.06917e-05
6.8815e-05
8.2119e-05
1.13814e-05
7.5539e-06
7.00316e-06
6.06171e-06
3.74736e-05
5.96382e-05
8.55602e-06
1.07773e-05
7.82871e-05
9.43783e-05
4.95948e-05
8.2903e-06
7.0099e-06
6.05913e-06
4.15335e-05
6.40489e-05
8.45494e-06
1.10008e-05
8.85949e-05
0.000108127
5.90716e-05
9.39539e-06
7.06113e-06
6.04264e-06
4.57461e-05
6.84294e-05
9.14923e-06
1.15065e-05
0.000102559
0.000124317
6.95899e-05
1.08156e-05
7.29779e-06
6.06125e-06
5.0424e-05
7.20599e-05
1.04059e-05
5.34118e-05
0.000124541
0.000145928
7.61789e-05
1.03716e-05
7.04693e-06
6.08786e-06
5.67965e-05
7.45805e-05
1.08825e-05
6.85312e-05
0.000156199
0.000173724
7.77867e-05
6.59378e-06
6.80001e-06
6.37869e-06
6.31145e-05
7.5287e-05
1.14957e-05
8.85769e-05
0.000190789
0.000207231
8.89885e-05
8.03207e-06
6.5936e-06
6.52872e-06
6.96575e-05
7.24352e-05
1.15901e-05
0.000108505
0.000225593
0.000256764
0.00011511
8.84854e-06
6.3722e-06
6.58884e-06
7.64656e-05
7.23601e-05
4.97955e-05
0.00012202
0.000266309
0.000315818
0.000141422
8.3673e-06
6.08584e-06
6.53392e-06
8.34517e-05
7.58081e-05
5.17771e-05
0.000130978
0.00031121
0.000384221
0.000175549
8.76801e-06
5.61191e-06
6.46105e-06
9.04881e-05
8.00098e-05
4.99509e-05
0.000136291
0.000354494
0.000466892
0.000230889
1.05304e-05
5.06573e-06
6.51476e-06
9.76776e-05
8.34775e-05
4.94204e-05
0.000118075
0.000378098
0.000571928
0.00032799
5.94877e-05
7.48322e-06
6.69243e-06
0.000104352
8.3831e-05
5.29002e-05
5.36627e-05
0.000350197
0.000698669
0.000487271
0.000105683
1.15925e-05
6.85952e-06
0.000111076
8.19602e-05
5.69231e-05
4.93577e-05
0.000249354
0.000807967
0.000678613
0.000212405
8.09108e-05
7.00786e-06
0.000116038
7.55109e-05
6.20634e-05
5.07264e-05
0.000191185
0.00085229
0.00085264
0.000384585
0.000157362
8.20901e-06
0.000118942
7.49803e-05
7.79164e-05
6.72745e-05
0.000226334
0.000959757
0.00103149
0.000526344
0.000231201
1.11105e-05
0.000121107
0.000103799
0.000152553
0.000103331
0.000300551
0.00120632
0.00125611
0.000592767
0.000247731
5.74586e-05
0.000125528
0.000237007
0.00028966
0.000154737
0.00035319
0.00155936
0.0015495
0.000617113
0.000196995
5.4956e-05
0.000135591
0.000782922
0.000570344
0.000225654
0.000404906
0.00197962
0.00194309
0.00077591
0.000141215
5.05858e-05
0.000150272
0.00154736
0.000619932
0.000254324
0.000597574
0.00246362
0.00249018
0.0011871
0.000106921
4.98853e-05
0.000168048
0.00240629
0.000655611
0.000325956
0.00107121
0.00311919
0.00326102
0.00178158
0.000196089
1.15419e-05
0.000193179
0.00332691
0.00083063
0.000518496
0.0020174
0.00422301
0.00449882
0.0027165
0.00044196
4.92286e-05
0.000219062
0.00393807
0.00152481
0.000993081
0.00353658
0.00632693
0.00672098
0.00460897
0.000831538
6.96099e-05
0.000242784
0.00484577
0.00456716
0.00187045
0.00638334
0.0100892
0.0106409
0.00865521
0.00224982
0.000242573
0.000263813
0.00949973
0.0113844
0.00506715
0.014045
0.0169605
0.0174143
0.0160485
0.00476257
0.000559829
0.000311186
)
;
    }
    inlet
    {
        type            turbulentMixingLengthDissipationRateInlet;
        mixingLength    0.071;
        phi             phi;
        k               k;
        value           uniform 2.72107e-07;
    }
    outlet
    {
        type            inletOutlet;
        inletValue      uniform 0.0001;
        value           nonuniform List<scalar> 
20
(
0.00904118
0.00965773
0.00499659
0.0001
0.0001
0.0001
0.0001
0.00504893
0.000559852
0.000310585
0.00949973
0.0113844
0.00506715
0.0001
0.0001
0.0001
0.0001
0.00476257
0.000559829
0.000311186
)
;
    }
    heatWall
    {
        type            epsilonWallFunction;
        value           nonuniform List<scalar> 
240
(
5.36331e-06
5.35896e-06
5.27993e-06
5.27277e-06
5.1828e-06
5.18268e-06
5.08463e-06
5.09022e-06
4.99144e-06
4.9977e-06
4.89996e-06
4.90754e-06