/*--------------------------------*- C++ -*----------------------------------*\
  =========                 |
  \\      /  F ield         | OpenFOAM: The Open Source CFD Toolbox
   \\    /   O peration     | Website:  https://openfoam.org
    \\  /    A nd           | Version:  8
     \\/     M anipulation  |
\*---------------------------------------------------------------------------*/
FoamFile
{
    version     2.0;
    format      ascii;
    class       volScalarField;
    location    "1000";
    object      p;
}
// * * * * * * * * * * * * * * * * * * * * * * * * * * * * * * * * * * * * * //

dimensions      [1 -1 -2 0 0 0 0];

internalField   nonuniform List<scalar> 
1200
(
1229.93
1229.8
1229.72
1229.68
1229.68
1229.71
1229.73
1229.74
1229.77
1229.74
1229.72
1228.3
1226.46
1227.04
1226.71
1227.5
1217.13
1210.83
1209.59
1208.98
1213.57
1227.42
1244.22
1263.96
1276.49
1272.01
1268.17
1264.87
1263.35
1258.5
1249.07
1239.29
1231.72
1223.45
1211.79
1201.43
1200.46
1213.64
1236.92
1267.51
1296.63
1338.04
1361.19
1351.83
1332.39
1363.61
1404.8
1483.52
1937.54
2588.79
3401.67
3847.04
3799.03
3531.67
3156.52
2862.97
2682.69
2245.83
1375.72
573.102
1034.57
1034.54
1034.5
1034.48
1034.49
1034.52
1034.56
1034.6
1034.7
1034.8
1035.25
1034.29
1032.2
1032.55
1032.2
1032.22
1021.34
1013.76
1013.42
1011.28
1017.45
1032.87
1049.29
1069.42
1083.04
1076.43
1071.77
1068.2
1067.54
1063.71
1055.12
1045.96
1037.46
1028.69
1017.01
1004.87
1002.59
1017.53
1042.64
1074.16
1099.25
1141.79
1169
1160.41
1134.41
1166.34
1199.2
1208.45
1727.17
2436.82
3280.9
3616.67
3564.07
3309.14
2950.48
2662.35
2503.65
2086.77
1190.06
312.425
839.433
839.42
839.378
839.342
839.336
839.363
839.394
839.4
839.44
839.424
839.446
838.634
837.268
836.765
836.165
835.777
826.833
821.716
809.101
811.76
822.453
837.963
851.176
875.379
889.164
878.774
873.089
869.914
871.503
869.323
861.709
852.508
845.179
835.565
822.641
809.166
805.856
818.485
839.374
870.303
899.247
934.289
961.937
957.019
939.019
980.18
1006.38
949.017
1492.13
2269.48
3044.04
3331.43
3296.5
3066.11
2730.91
2438.38
2275.24
1887.19
1006.94
174.138
644.256
644.231
644.187
644.151
644.145
644.167
644.192
644.201
644.26
644.297
644.498
643.969
642.607
642.669
642.638
642
633.144
627.865
589.008
604.605
624.299
642.389
658.692
685.556
699.205
685.274
678.959
673.405
672.675
671.726
666.256
657.253
646.548
636.419
625.177
616.922
618.05
631.875
646.134
662.903
682.493
708.676
722.495
715.704
707.282
747.388
779.21
790.895
1321.05
2024.97
2720.01
3054.76
2989.49
2778.4
2442.75
2142.25
1933.02
1524.61
725.628
-134.421
449.083
449.068
449.033
448.997
448.98
448.995
449.012
449.006
449.013
448.969
448.86
448.24
447.344
446.559
446.395
443.883
438.215
427.393
373.862
399.251
425.354
444.917
459.21
490.581
501.453
487.277
484.756
479.266
478.317
478.263
474.087
465.989
454.807
443.475
431.594
431.642
442.52
461.878
459.825
453.414
456.529
463.598
449.176
429.551
422.025
443.24
429.683
525.459
1007.17
1694.21
2300.06
2516.34
2461.61
2326.47
2044.67
1759.28
1547.44
1174.1
429.528
-432.065
253.91
253.901
253.871
253.832
253.806
253.812
253.819
253.806
253.796
253.752
253.661
253.115
252.177
251.679
251.012
248.3
242.335
236.858
196.783
209.847
230.107
249.529
260.045
287.266
300.782
293.607
295.345
284.216
283.004
284.264
280.918
272.796
259.902
248.19
235.743
239.061
254.43
284.991
274.931
246.868
239.637
238.841
204.553
169.829
155.909
151.708
61.4623
159.06
521.905
1039.45
1492.55
1618.16
1535.18
1438.41
1311.66
1216.33
1111.08
840.204
173.47
-655.666
58.7347
58.7302
58.6998
58.6563
58.6217
58.6215
58.6207
58.6009
58.5709
58.5025
58.3163
57.7293
56.8528
56.1002
54.9023
52.6736
46.9842
44.6464
31.1634
31.4301
36.2252
48.4555
63.4036
90.8292
103.268
95.8257
95.19
88.5256
88.6763
89.9894
87.1502
78.9204
64.2271
52.4463
39.3549
45.2178
61.8995
99.0089
80.887
45.582
36.136
37.3704
-13.2117
-50.6734
-66.5892
-68.5842
-166.847
-121.927
101.4
428.623
732.437
769.895
601.566
471.491
455.412
552.884
571.729
435.268
-112.043
-845.168
-136.435
-136.419
-136.44
-136.486
-136.532
-136.545
-136.556
-136.585
-136.63
-136.712
-136.927
-137.472
-138.312
-139.152
-140.505
-142.775
-148.017
-150.712
-155.823
-157.832
-158.667
-153.483
-139.439
-116.213
-101.806
-105.063
-102.428
-107.594
-107.677
-106.562
-109.626
-118.267
-132.19
-143.599
-154.049
-150.238
-135.083
-105.904
-117.109
-148.322
-157.219
-165.403
-212.186
-250.376
-263.698
-268.436
-351.341
-329.485
-159.068
32.9016
215.571
200.316
-1.59773
-200.152
-257.934
-138.376
-14.1326
-55.512
-414.73
-1022.79
-331.643
-331.637
-331.653
-331.687
-331.727
-331.74
-331.753
-331.787
-331.841
-331.934
-332.171
-332.698
-333.515
-334.41
-335.916
-338.241
-343.185
-346.33
-350.304
-352.221
-352.751
-350.643
-342.181
-324.859
-310.29
-308.225
-304.061
-305.174
-304.318
-303.335
-306.472
-314.826
-327.777
-339.339
-348.262
-343.808
-329.287
-304.556
-315.775
-343.448
-353.784
-364.509
-407.737
-444.271
-459.531
-463.018
-530.643
-468.295
-293.83
-144.041
-60.8412
-127.106
-317.599
-517.08
-594.867
-550.315
-463.068
-540.099
-769.402
-1298.39
-526.626
-526.721
-526.776
-526.826
-526.877
-526.899
-526.919
-526.958
-527.015
-527.115
-527.357
-527.865
-528.667
-529.587
-531.104
-533.367
-538.048
-541.212
-545.092
-547.26
-547.493
-545.172
-537.516
-522.992
-509.182
-505.485
-500.665
-500.778
-500.168
-499.714
-502.841
-510.87
-522.588
-533.781
-540.877
-536.726
-523.995
-505.607
-514.817
-539.532
-551.318
-563.304
-601.472
-634.1
-647.44
-650.652
-688.359
-625.415
-466.83
-332.254
-274.255
-348.077
-533.414
-736.043
-827.199
-799.199
-722.222
-810.879
-1032.14
-1529.96
1229.93
1229.81
1229.73
1229.68
1229.66
1229.68
1229.7
1229.69
1229.72
1229.71
1229.59
1228.26
1226.63
1227.14
1226.85
1226.89
1217.18
1210.7
1209.41
1208.96
1213.62
1227.67
1244.93
1264.84
1277.44
1273.15
1269.36
1265.98
1264.28
1258.93
1249.01
1238.89
1231.32
1222.89
1211.09
1200.9
1200.45
1214.24
1237.81
1268.49
1297.34
1337.78
1360.47
1351.69
1332
1362.64
1403.22
1481.87
1935.83
2588.09
3396.27
3840.14
3798.02
3537.54
3161.72
2863.18
2683.44
2242.53
1378.74
573.793
1034.57
1034.54
1034.51
1034.48
1034.47
1034.49
1034.51
1034.5
1034.54
1034.51
1034.35
1033.03
1031.37
1031.89
1031.83
1032.53
1021.6
1013.11
1012.65
1010.62
1016.28
1031.16
1047.83
1068.6
1082.14
1075.67
1071.47
1068.21
1067.67
1063.4
1054.03
1044.16
1035.65
1026.5
1014.16
1003.01
1001.69
1017.77
1043.03
1074.5
1100.33
1142.46
1168.34
1160.13
1133.81
1164.27
1198.45
1209.63
1725.12
2435.35
3274.53
3612.43
3561.6
3313.92
2951.14
2661.42
2506.46
2085.94
1188.91
314.99
839.437
839.433
839.395
839.349
839.323
839.331
839.35
839.332
839.345
839.274
839.076
838.047
836.711
836.474
836.331
836.226
827.323
821.104
807.961
811.22
822.02
837.697
851.272
874.684
888.237
878.05
871.893
868.454
869.832
867.139
859.173
850.224
843.418
833.567
820.818
807.922
804.82
818.213
840.097
872.713
900.961
935.366
961.374
956.566
938.267
978.412
1007.32
951.364
1493.35
2268.27
3037.6
3330.25
3297.76
3069.17
2733.69
2439.05
2279.02
1894.1
1015.12
177.31
644.259
644.24
644.196
644.152
644.132
644.142
644.161
644.152
644.184
644.162
644.154
643.492
642.21
642.139
642.16
643.18
633.711
627.974
590.052
604.564
623.14
641.127
657.643
684.496
697.82
684.222
678.09
672.566
671.977
671.121
665.478
656.336
646.111
636.502
625.106
617.038
618.611
633.256
648.282
664.602
683.719
709.609
722.964
715.733
707.19
746.503
778.978
793.959
1320.78
2028.26
2725.29
3058.12
2995.26
2782.58
2444.06
2147.51
1938.75
1521.48
730.521
-137.217
449.087
449.077
449.045
449.002
448.971
448.974
448.988
448.978
448.984
448.933
448.791
448.148
447.196
446.52
446.509
444.43
438.978
428.607
375.639
399.688
425.318
443.737
458.187
489.182
499.851
486.094
484.18
479.017
478.567
478.559
474.071
465.854
454.801
443.489
431.822
432.395
442.7
462.05
460.065
453.544
455.732
462.948
449.897
431.401
423.412
445.159
432.042
528.649
1010.71
1701.5
2305.24
2524.27
2472.75
2338.76
2053.92
1769.87
1553.94
1173.1
446.705
-429.098
253.913
253.909
253.881
253.837
253.801
253.797
253.804
253.792
253.787
253.742
253.634
253.096
252.178
251.614
251.034
248.549
243.136
237.72
197.007
211.571
231.443
250.595
259.601
287.609
300.76
293.198
294.419
283.61
282.846
284.255
280.54
272.143
259.238
247.532
234.773
238.854
254.096
285.026
274.463
245.71
236.687
237.253
203.948
170.526
156.129
151.529
60.818
160.861
524.181
1042.15
1496.72
1621.7
1540.2
1449.11
1324.47
1235.52
1123.4
851.252
191.751
-663.735
58.7372
58.7371
58.7074
58.6595
58.6185
58.611
58.6111
58.5959
58.5741
58.5135
58.343
57.7937
56.9469
56.2195
55.1031
52.8885
47.5042
45.0498
32.0112
33.0871
37.7565
50.3256
64.5059
92.0469
104.77
97.1186
95.8553
88.516
88.7833
90.1425
87.0803
78.7002
63.9613
52.3378
38.7453
44.8946
61.6655
97.3005
79.1252
44.4233
35.626
34.3648
-14.8889
-51.4046
-68.2114
-70.5824
-170.754
-126.248
101.517
432.87
734.701
769.229
602.51
482.342
470.465
573.921
582.615
447.322
-102.543
-837.82
-136.433
-136.41
-136.428
-136.477
-136.527
-136.547
-136.559
-136.582
-136.619
-136.693
-136.884
-137.39
-138.195
-139.014
-140.333
-142.641
-147.7
-150.502
-155.373
-157.413
-158.032
-152.061
-137.647
-114.613
-100.092
-103.415
-100.901
-106.632
-107.019
-105.897
-109.099
-117.783
-131.575
-143.052
-154.396
-150.313
-135.128
-105.486
-117.226
-149.317
-158.579
-165.79
-212.811
-251.656
-264.44
-268.716
-351.12
-331.911
-163.043
24.5846
212.05
197.301
-5.90572
-199.138
-251.955
-119.502
-2.64623
-32.3076
-401.4
-1002.02
-331.642
-331.633
-331.648
-331.684
-331.725
-331.741
-331.754
-331.781
-331.823
-331.901
-332.106
-332.599
-333.385
-334.243
-335.739
-338.02
-342.952
-346.219
-350.128
-351.836
-352.343
-349.99
-341.351
-323.899
-309.07
-306.556
-302.353
-303.535
-302.739
-301.695
-304.971
-313.281
-326.194
-338.016
-347.149
-342.599
-328.032
-302.876
-314.506
-343.858
-354.676
-363.548
-407.547
-444.443
-459.399
-462.709
-530.233
-471.333
-294.079
-141.478
-60.8862
-129.746
-320.023
-511.554
-585.733
-535.391
-456.888
-525.818
-768.673
-1295.78
-526.624
-526.717
-526.772
-526.825
-526.877
-526.904
-526.923
-526.955
-527.005
-527.096
-527.318
-527.812
-528.601
-529.503
-531.027
-533.209
-537.922
-541.187
-545.066
-547.199
-547.449
-544.93
-537.222
-522.815
-508.952
-505.046
-500.225
-500.39
-499.82
-499.352
-502.76
-510.916
-522.836
-533.687
-540.644
-536.755
-524.243
-505.663
-514.664
-540.47
-552.474
-563.189
-601.709
-634.414
-648.1
-650.886
-689.228
-626.085
-468.386
-333.161
-275.976
-350.084
-535.004
-731.775
-819.791
-785.905
-717.916
-798.23
-1035.74
-1519.67
)
;

boundaryField
{
    wall
    {
        type            calculated;
        value           nonuniform List<scalar> 
1200
(
1229.93
1034.57
839.431
644.254
449.082
253.908
58.7334
-136.436
-331.644
-526.627
1229.8
1034.54
839.413
644.227
449.063
253.896
58.7268
-136.423
-331.639
-526.724
1229.72
1034.5
839.37
644.182
449.027
253.865
58.6961
-136.446
-331.655
-526.778
1229.69
1034.48
839.338
644.15
448.994
253.829
58.6548
-136.49
-331.689
-526.827
1229.69
1034.5
839.342
644.152
448.985
253.808
58.6233
-136.534
-331.728
-526.876
1229.72
1034.54
839.379
644.18
449.006
253.82
58.6268
-136.543
-331.739
-526.897
1229.75
1034.59
839.417
644.207
449.024
253.827
58.6255
-136.554
-331.753
-526.918
1229.76
1034.65
839.435
644.226
449.02
253.813
58.6034
-136.586
-331.791
-526.959
1229.79
1034.78
839.487
644.298
449.027
253.801
58.5691
-136.636
-331.851
-527.019
1229.76
1034.95
839.5
644.366
448.987
253.757
58.497
-136.721
-331.951
-527.124
1229.79
1035.71
839.631
644.672
448.896
253.675
58.3028
-136.949
-332.204
-527.378
1228.33
1034.91
838.928
644.205
448.287
253.124
57.6967
-137.513
-332.748
-527.892
1226.38
1032.61
837.548
642.801
447.418
252.177
56.8059
-138.371
-333.581
-528.7
1226.99
1032.88
836.915
642.929
446.579
251.711
56.0405
-139.221
-334.495
-529.629
1226.64
1032.38
836.081
642.876
446.338
250.998
54.8012
-140.592
-336.006
-531.142
1227.8
1032.08
835.575
641.425
443.571
248.166
52.5599
-142.843
-338.355
-533.444
1217.1
1021.19
826.582
632.853
437.825
241.938
46.7326
-148.175
-343.307
-538.111
1210.9
1014.07
822.033
627.683
426.781
236.388
44.4787
-150.816
-346.387
-541.217
1209.66
1013.75
809.646
588.613
373.113
196.051
30.7946
-156.003
-350.383
-545.097
1208.97
1011.63
812.001
604.683
399.074
208.694
30.5916
-158.013
-352.408
-547.282
1213.55
1018.09
822.633
624.883
425.367
229.422
35.4264
-159.022
-352.954
-547.51
1227.28
1033.78
838.042
642.984
445.532
249.174
47.5248
-154.27
-351
-545.292
1243.84
1050.02
851.128
659.146
459.712
260.408
62.9162
-140.356
-342.66
-537.666
1263.49
1069.81
875.719
686.009
491.193
287.117
90.3422
-116.99
-325.4
-523.087
1275.98
1083.45
889.583
699.796
502.196
300.783
102.625
-102.613
-310.934
-509.297
1271.41
1076.79
879.093
685.771
487.872
293.862
95.2021
-105.864
-309.092
-505.715
1267.56
1071.91
873.68
679.377
485.092
295.743
94.8782
-103.131
-304.933
-500.894
1264.31
1068.17
870.673
673.825
479.392
284.485
88.5306
-108.053
-305.991
-500.992
1262.88
1067.45
872.345
673.024
478.206
283.08
88.6336
-107.99
-305.093
-500.365
1258.29
1063.84
870.407
672.02
478.136
284.269
89.9194
-106.882
-304.134
-499.913
1249.09
1055.65
862.978
666.633
474.13
281.112
87.1908
-109.896
-307.21
-502.893
1239.47
1046.84
853.695
657.716
466.102
273.126
79.0397
-118.527
-315.595
-510.851
1231.9
1038.39
846.071
646.804
454.863
260.249
64.358
-132.518
-328.575
-522.462
1223.7
1029.79
836.55
636.428
443.489
248.541
52.5475
-143.877
-340.012
-533.83
1212.12
1018.37
823.557
625.253
431.474
236.248
39.7427
-153.942
-348.856
-540.989
1201.68
1005.78
809.769
616.914
431.306
239.214
45.3728
-150.269
-344.432
-536.699
1200.44
1003.04
806.348
617.767
442.5
254.688
62.0198
-135.127
-329.934
-523.861
1213.33
1017.38
818.603
631.136
461.838
285.16
99.7629
-106.087
-305.37
-505.574
1236.49
1042.42
839.012
645.032
459.696
275.167
81.7974
-117.161
-316.404
-514.888
1267.02
1073.93
869.13
661.999
453.373
247.594
46.1377
-147.792
-343.206
-539.076
1296.29
1098.65
898.381
681.803
457.009
241.053
36.42
-156.439
-353.298
-550.755
1338.18
1141.53
933.708
708.179
464.065
239.557
38.8893
-165.138
-364.987
-563.356
1361.56
1169.44
962.241
722.264
448.84
204.439
-12.3022
-211.859
-407.864
-601.361
1351.88
1160.64
957.366
715.763
428.58
168.64
-50.1807
-249.785
-444.235
-633.952
1332.55
1134.78
939.661
707.424
421.335
154.919
-65.7064
-263.336
-459.681
-647.095
1364.1
1167.47
981.319
747.884
442.281
150.663
-67.9115
-268.348
-463.292
-650.509
1405.66
1200.01
1006.68
779.351
428.296
60.5004
-165.273
-351.402
-531.341
-687.874
1484.33
1208.91
948.996
788.921
524.072
157.73
-120.254
-329.043
-467.141
-625.062
1938.76
1729
1492.69
1321.07
1005.7
520.633
100.669
-158.077
-293.771
-465.925
2589.32
2437.6
2270.43
2024.34
1691.51
1038.3
425.848
35.8331
-145.666
-331.728
3403.89
3282.15
3045.4
2720.62
2299.14
1490.92
730.902
216.545
-61.2496
-273.482
3848.42
3618.13
3332.15
3054.16
2513.75
1616.69
769.845
201.213
-126.256
-347.282
3799.59
3564.04
3296.06
2987.29
2457.42
1533
600.777
-0.416454
-316.931
-532.887
3529.21
3306.66
3065.11
2776.76
2321.86
1433.42
466.09
-202.184
-520.608
-738.566
3154.23
2950.07
2730.22
2442.28
2041.2
1305.64
448.362
-262.66
-600.166
-831.32
2863.5
2662.49
2437.86
2139.56
1754.34
1207.18
542.787
-148.832
-558.704
-806.41
2682.3
2502.95
2273.55
1930.38
1544.44
1105.69
566.597
-19.9959
-467.005
-724.737
2246.65
2087.68
1885.04
1526.43
1174.89
835.623
429.937
-66.9246
-548.23
-817.801
1374.17
1190.78
1002.29
723.45
421.225
164.879
-116.284
-420.987
-769.793
-1030.53
571.786
311.438
172.82
-132.775
-433.247
-651.163
-847.954
-1032.64
-1300.59
-1535.47
1229.94
1034.57
839.438
644.26
449.088
253.914
58.7385
-136.432
-331.641
-526.623
1229.81
1034.55
839.439
644.245
449.082
253.913
58.7406
-136.405
-331.631
-526.714
1229.73
1034.51
839.403
644.201
449.05
253.887
58.7111
-136.422
-331.645
-526.77
1229.68
1034.48
839.353
644.153
449.004
253.84
58.661
-136.472
-331.682
-526.825
1229.65
1034.46
839.317
644.125
448.967
253.799
58.6168
-136.525
-331.724
-526.877
1229.66
1034.47
839.314
644.129
448.963
253.79
58.6057
-136.549
-331.742
-526.906
1229.68
1034.48
839.328
644.146
448.977
253.796
58.6063
-136.56
-331.754
-526.925
1229.67
1034.45
839.297
644.127
448.963
253.785
58.5934
-136.581
-331.777
-526.954
1229.7
1034.46
839.297
644.146
448.969
253.782
58.5758
-136.614
-331.814
-527
1229.69
1034.36
839.198
644.093
448.916
253.737
58.519
-136.683
-331.884
-527.087
1229.53
1033.9
838.891
643.98
448.755
253.62
58.3565
-136.862
-332.073
-527.298
1228.23
1032.41
837.752
643.255
448.102
253.087
57.8263
-137.349
-332.55
-527.785
1226.71
1030.96
836.432
642.015
447.122
252.178
56.9938
-138.136
-333.32
-528.568
1227.19
1031.56
836.325
641.88
446.5
251.582
56.2792
-138.945
-334.158
-529.462
1226.92
1031.65
836.417
641.93
446.565
251.048
55.2042
-140.245
-335.649
-530.989
1226.58
1032.67
836.428
643.755
444.708
248.683
53.0022
-142.572
-337.907
-533.133
1217.2
1021.74
827.57
634.006
439.369
243.533
47.7558
-147.542
-342.83
-537.858
1210.63
1012.79
820.789
628.159
429.235
238.192
45.2061
-150.406
-346.162
-541.182
1209.33
1012.33
807.42
590.449
376.389
197.71
32.3494
-155.203
-350.051
-545.059
1208.97
1010.26
810.982
604.485
399.866
212.705
33.9081
-157.241
-351.65
-547.174
1213.64
1015.64
821.84
622.551
425.298
232.118
38.5495
-157.678
-352.139
-547.431
1227.81
1030.26
837.616
640.512
443.106
250.957
51.2533
-151.282
-349.635
-544.809
1245.31
1047.1
851.317
657.148
457.654
259.238
65.0006
-136.742
-340.874
-537.069
1265.31
1068.2
874.34
683.985
488.523
287.754
92.5438
-113.839
-323.365
-522.712
1277.95
1081.72
887.814
697.188
499.081
300.753
105.412
-99.2925
-308.434
-508.821
1273.75
1075.31
877.73
683.707
485.496
292.928
97.7291
-102.624
-305.688
-504.79
1269.97
1071.33
871.306
677.67
483.843
294.008
96.1575
-100.201
-301.474
-499.971
1266.53
1068.24
867.704
672.145
478.891
283.341
88.5118
-106.164
-302.705
-500.16
1264.74
1067.76
868.996
671.627
478.678
282.771
88.8308
-106.688
-301.947
-499.619
1259.14
1063.27
866.049
670.826
478.686
284.253
90.2188
-105.556
-300.875
-499.157
1248.99
1053.51
857.89
665.1
474.03
280.351
87.0448
-108.814
-304.214
-502.712
1238.71
1043.28
849.025
655.873
465.743
271.816
78.5857
-117.515
-312.498
-510.936
1231.14
1034.73
842.522
645.855
454.749
258.897
63.8364
-131.246
-325.389
-522.96
1222.64
1025.4
832.574
636.494
443.479
247.186
52.2411
-142.779
-337.341
-533.634
1210.76
1012.8
819.9
625.031
431.943
234.27
38.3608
-154.508
-346.555
-540.528
1200.66
1002.1
807.318
617.048
432.734
238.701
44.742
-150.287
-341.976
-536.779
1200.47
1001.23
804.328
618.896
442.721
253.839
61.5358
-135.095
-327.39
-524.372
1214.54
1017.92
818.095
633.997
462.094
284.86
96.5223
-105.323
-302.074
-505.687
1238.24
1043.25
840.459
649.386
460.207
274.24
78.2265
-117.201
-313.885
-514.577
1268.98
1074.73
873.885
665.511
453.602
245.006
43.89
-149.862
-344.096
-540.909
1297.68
1100.93
901.835
684.417
455.265
235.283
35.3431
-159.359
-355.147
-553.032
1337.63
1142.72
935.948
710.109
462.486
236.538
32.8453
-166.048
-363.05
-563.136
1360.11
1167.9
961.072
723.199
450.238
204.062
-15.801
-213.131
-407.406
-601.82
1351.64
1159.9
956.222
715.68
432.375
171.714
-51.8994
-252.241
-444.481
-634.566
1331.84
1133.43
937.628
707.056
424.105
157.118
-69.1256
-264.803
-459.251
-648.451
1362.16
1163.13
977.277
746.014
446.121
152.575
-71.346
-268.805
-462.401
-651.033
1402.36
1197.64
1007.02
778.839
433.433
61.787
-172.328
-351.064
-529.499
-689.721
1481.05
1209.19
951.413
795.93
530.04
162.201
-127.917
-332.354
-472.429
-626.446
1934.6
1723.3
1492.79
1320.75
1012.18
525.462
102.263
-164.022
-294.137
-469.305
2587.56
2434.57
2267.27
2028.87
1704.1
1043.27
435.675
21.7003
-139.822
-333.711
3394.05
3273.22
3036.28
2724.67
2306
1498.3
736.278
211.141
-60.4142
-276.766
3838.86
3611.01
3329.53
3058.64
2526.75
1623.13
769.326
196.475
-130.495
-350.88
3797.47
3561.51
3298.16
2997.39
2476.86
1542.33
603.337
-7.02446
-320.557
-535.516
3540
3316.26
3070.16
2784.22
2343.35
1454.05
487.759
-197.066
-507.902
-729.231
3164.03
2951.5
2734.28
2444.52
2057.4
1330.47
477.517
-247.202
-580.332
-815.661
2862.62
2661.3
2439.54
2150.2
1774.8
1244.66
584.016
-109.013
-526.943
-778.699
2683.74
2507.18
2280.66
1941.39
1556.93
1128.78
587.741
3.23884
-452.919
-715.4
2241.74
2085.03
1896.14
1519.67
1172.3
855.826
452.65
-20.8733
-517.672
-791.303
1380.19
1187.93
1019.71
732.698
455.008
200.34
-98.3428
-395.138
-768.267
-1037.32
575.103
315.973
178.628
-138.864
-427.915
-668.243
-835.11
-992.178
-1293.55
-1514.11
)
;
    }
    inlet
    {
        type            calculated;
        value           nonuniform List<scalar> 
20
(
1229.93
1034.57
839.433
644.256
449.083
253.91
58.7347
-136.435
-331.643
-526.626
1229.93
1034.57
839.437
644.259
449.087
253.913
58.7372
-136.433
-331.642
-526.624
)
;
    }
    outlet
    {
        type            calculated;
        value           nonuniform List<scalar> 
20
(
-97.6792
-293.037
-488.42
-683.754
-879.112
-1074.47
-1269.83
-1465.19
-1660.88
-1856.52
-97.6792
-293.037
-488.421
-683.754
-879.112
-1074.47
-1269.83
-1465.2
-1660.87
-1856.52
)
;
    }
    heatWall
    {
        type            calculated;
        value           nonuniform List<scalar> 
240
(
-624.212
-624.21
-624.308
-624.303
-624.363
-624.359
-624.413
-624.412
-624.464
-624.464
-624.487
-624.491
-624.507
-624.511
-624.545
-624.543
-624.603
-624.593
-624.703
-624.684
-624.946
-624.906
-625.454
-625.4
-626.255
-626.189
-627.176
-627.092
-628.694
-628.617
-630.962
-630.805
-635.649
-635.523
-638.821
-638.797
-642.708
-642.682
-644.879
-644.819
-645.115
-645.071
-642.799
-642.556
-635.15
-634.856
-620.634
-620.457
-606.832
-606.601
-603.14
-602.7
-598.326
-597.886
-598.447
-598.059
-597.843
-597.495
-597.394
-597.032
-600.524
-600.444
-608.556
-608.601
-620.275
-620.523
-631.469
-631.376
-638.567
-638.334
-634.418
-634.447
-621.689
-621.937
-603.302
-603.358
-612.513
-612.36
-637.229
-638.167
-649.016
-650.172
-661.002
-660.887
-699.17
-699.408
-731.8
-732.114
-745.141
-745.801
-748.354
-748.589
-786.062
-786.931
-723.119
-723.789
-564.535
-566.091
-429.96
-430.867
-371.961
-373.682
-445.783
-447.791
-631.121
-632.711
-833.75
-829.482
-924.906
-917.499
-896.908
-883.614
-819.931
-815.626
-908.589
-895.941
-1129.85
-1133.45
-1627.67
-1617.38
1327.52
1327.52
1327.39
1327.39
1327.31
1327.32
1327.27
1327.27
1327.27
1327.25
1327.29
1327.26
1327.32
1327.29
1327.33
1327.28
1327.36
1327.31
1327.33
1327.29
1327.32
1327.19
1325.92
1325.88
1324.09
1324.26
1324.69
1324.79
1324.36
1324.51
1325.21
1324.6
1314.86
1314.91
1308.58
1308.45
1307.35
1307.17
1306.74
1306.73
1311.35
1311.4
1325.21
1325.46
1342.01
1342.72
1361.75
1362.63
1374.28
1375.22
1369.79
1370.94
1365.95
1367.14
1362.65
1363.76
1361.13
1362.06
1356.28
1356.7
1346.85
1346.79
1337.06
1336.66
1329.49
1329.08
1321.22
1320.65
1309.56
1308.85
1299.19
1298.66
1298.22
1298.21
1311.4
1311.99
1334.68
1335.56
1365.27
1366.25
1394.39
1395.1
1435.79
1435.54
1458.95
1458.23
1449.58
1449.44
1430.14
1429.75
1461.37
1460.4
1502.56
1500.97
1581.27
1579.62
2035.29
2033.58
2686.55
2685.85
3499.42
3494.02
3944.79
3937.89
3896.77
3895.76
3629.4
3635.27
3254.25
3259.45
2960.68
2960.9
2780.39
2781.15
2343.53
2340.23
1473.41
1476.42
670.783
671.473
)
;
    }
}


// ************************************************************************* //
