/*--------------------------------*- C++ -*----------------------------------*\
  =========                 |
  \\      /  F ield         | OpenFOAM: The Open Source CFD Toolbox
   \\    /   O peration     | Website:  https://openfoam.org
    \\  /    A nd           | Version:  8
     \\/     M anipulation  |
\*---------------------------------------------------------------------------*/
FoamFile
{
    version     2.0;
    format      ascii;
    class       volScalarField;
    location    "1000";
    object      p_rgh;
}
// * * * * * * * * * * * * * * * * * * * * * * * * * * * * * * * * * * * * * //

dimensions      [1 -1 -2 0 0 0 0];

internalField   nonuniform List<scalar> 
1200
(
-4178.79
-4178.9
-4178.97
-4178.99
-4178.99
-4178.97
-4178.94
-4178.92
-4178.86
-4178.89
-4178.85
-4179.56
-4181.2
-4181.31
-4181.95
-4181.25
-4190.87
-4194.52
-4192.51
-4187.79
-4174.94
-4149.97
-4122.6
-4094.08
-4071.95
-4066.12
-4060.96
-4055.07
-4047.41
-4041.8
-4039.85
-4038.06
-4033.24
-4027.72
-4026.78
-4029.86
-4030.01
-4019.58
-3996.11
-3964.07
-3932
-3896.28
-3880.76
-3893.7
-3898.83
-3871.54
-3811.01
-3662.75
-3250.66
-2565.9
-1771.25
-1219
-897.78
-734.58
-648.184
-511.799
-152.72
172.978
33.4542
26.6806
-4178.98
-4178.99
-4179.02
-4179.02
-4179.01
-4178.98
-4178.94
-4178.89
-4178.76
-4178.66
-4177.9
-4178.07
-4179.91
-4180.1
-4180.77
-4180.79
-4191.18
-4196.04
-4193.61
-4190.1
-4175.8
-4149.27
-4122.64
-4095.23
-4072.04
-4066.92
-4061.64
-4055.85
-4047.75
-4041.38
-4038.87
-4036.84
-4032.87
-4027.39
-4025.13
-4029.97
-4031.76
-4020.33
-3994.81
-3961.87
-3932.64
-3897.57
-3878.94
-3892.53
-3900.44
-3875.99
-3822.74
-3715.67
-3283.79
-2550.64
-1734.13
-1252.02
-939.495
-751.114
-648.957
-519.689
-163.02
183.776
29.8541
-45.9755
-4178.94
-4178.94
-4178.97
-4178.99
-4178.99
-4178.97
-4178.94
-4178.92
-4178.87
-4178.9
-4178.65
-4178.8
-4179.68
-4180.29
-4181.11
-4181.96
-4191.22
-4194
-4201.2
-4195.2
-4176.78
-4149.97
-4126.25
-4096.19
-4072.47
-4069.87
-4064.06
-4057.1
-4047.81
-4040.72
-4038.27
-4036.67
-4030.76
-4025.37
-4023.97
-4029.51
-4031.12
-4022.2
-4000.81
-3968.27
-3935.33
-3905.71
-3887.93
-3897.55
-3902.65
-3876.92
-3830.94
-3752.26
-3318.01
-2543.07
-1767
-1314.9
-999.76
-789.423
-664.396
-531.356
-175
167.181
43.2768
54.1989
-4178.95
-4178.96
-4178.99
-4179.01
-4179.01
-4178.99
-4178.97
-4178.95
-4178.89
-4178.88
-4178.48
-4178.39
-4179.21
-4179
-4179.15
-4180.57
-4191.14
-4196.27
-4221.75
-4208.09
-4180.23
-4150.14
-4122.92
-4092.49
-4068.58
-4068.12
-4062.9
-4057.79
-4050.65
-4042.71
-4038.72
-4037.11
-4034.81
-4029.8
-4026.58
-4027.59
-4024.91
-4012.55
-3994.85
-3973.27
-3946.15
-3919.62
-3909.08
-3916.57
-3916.99
-3894.5
-3856.23
-3749.24
-3305.42
-2577.25
-1854.18
-1380.63
-1074.02
-854.97
-718.346
-560.283
-224.042
65.513
54.1533
22.5959
-4178.95
-4178.96
-4178.98
-4179
-4179
-4178.99
-4178.98
-4178.98
-4178.98
-4179.06
-4179.09
-4179.29
-4179.63
-4180.06
-4179.98
-4183.02
-4190.55
-4201.35
-4231.68
-4216.89
-4183.79
-4151.2
-4123.98
-4091.72
-4070.43
-4070.87
-4062.63
-4056.83
-4049.74
-4041.67
-4037.21
-4035.41
-4034.83
-4033.69
-4031.8
-4024.05
-4010.43
-3989.6
-3980.97
-3977.64
-3960.83
-3940.64
-3941.82
-3947.87
-3942.8
-3925.51
-3911.14
-3757.18
-3332.57
-2658.11
-1997.47
-1568.87
-1260.22
-1005.92
-826.975
-630.275
-291.937
0.635846
58.0829
-10.382
-4178.96
-4178.96
-4178.98
-4178.99
-4179
-4179
-4179
-4179.02
-4179.04
-4179.12
-4179.22
-4179.59
-4180.19
-4180.29
-4180.51
-4183.1
-4190.36
-4195.65
-4222.14
-4212.3
-4183.27
-4150.65
-4124.12
-4096.98
-4075.98
-4070.65
-4057.44
-4056.03
-4049.61
-4040.86
-4036.12
-4034.57
-4035.76
-4036.28
-4034.56
-4023.01
-4003.94
-3972.69
-3968.04
-3983.79
-3974.93
-3955.57
-3964.21
-3972.49
-3969.66
-3965.53
-3991.65
-3825.84
-3437.8
-2869.4
-2297.62
-1910.03
-1628.13
-1361.4
-1098.91
-786.27
-396.906
-51.9897
53.2232
-18.1311
-4178.96
-4178.97
-4178.98
-4179
-4179.02
-4179.02
-4179.03
-4179.05
-4179.1
-4179.21
-4179.44
-4180.01
-4180.8
-4181.31
-4182.09
-4183.75
-4190.04
-4192.12
-4202.99
-4198.81
-4181.54
-4154.58
-4126.96
-4097.86
-4077.83
-4072.42
-4061.3
-4055.93
-4048.23
-4039.71
-4034.95
-4033.71
-4036.26
-4037.3
-4035.14
-4021.11
-4000.41
-3961.24
-3965.49
-3988.56
-3981.29
-3957.02
-3974.53
-3983.91
-3981.99
-3973.56
-4007.69
-3876.39
-3534.31
-3061.74
-2570.23
-2220.24
-1988.54
-1745.05
-1428.96
-1012.11
-566.529
-160.483
4.3227
3.13282
-4178.96
-4178.95
-4178.96
-4178.97
-4179
-4179.01
-4179.03
-4179.07
-4179.13
-4179.26
-4179.54
-4180.14
-4181.03
-4181.81
-4182.89
-4184.6
-4189.92
-4192.18
-4196.28
-4193.56
-4181.44
-4159.9
-4132.88
-4105.32
-4084.45
-4076.7
-4063
-4056.64
-4048.72
-4040.38
-4035.88
-4034.9
-4036.78
-4036.89
-4033.19
-4021.28
-4001.62
-3969.89
-3968.55
-3986.44
-3978.97
-3961.64
-3975.08
-3983.96
-3982.2
-3976.28
-3999.49
-3873.96
-3556.91
-3159.63
-2729.62
-2395.47
-2181.09
-1973.06
-1680.61
-1252.96
-763.748
-306.842
-50.3598
37.4779
-4179
-4179
-4179
-4179.01
-4179.02
-4179.03
-4179.06
-4179.1
-4179.18
-4179.32
-4179.62
-4180.22
-4181.14
-4182.09
-4183.48
-4185.47
-4190.37
-4192.77
-4194.92
-4191.55
-4180.42
-4162.5
-4139.76
-4114.74
-4093.85
-4082.82
-4068.8
-4059.34
-4049.84
-4041.19
-4036.44
-4035.26
-4036.64
-4036.54
-4032.25
-4019.54
-4000.04
-3972.5
-3970.74
-3984.64
-3978.4
-3964.38
-3975.99
-3984.46
-3983.28
-3975.35
-3983.2
-3831.1
-3509.86
-3144.6
-2770.73
-2469.83
-2261.01
-2056.31
-1769.2
-1372.04
-904.816
-473.386
-146.84
-11.9027
-4178.81
-4178.9
-4178.94
-4178.96
-4178.98
-4179
-4179.02
-4179.07
-4179.15
-4179.29
-4179.6
-4180.19
-4181.1
-4182.11
-4183.62
-4185.76
-4190.48
-4192.84
-4194.54
-4191.26
-4180.5
-4163.05
-4141.09
-4117.76
-4097.47
-4085.57
-4071.47
-4061.22
-4051.44
-4042.62
-4037.39
-4035.69
-4036.15
-4035.66
-4030.54
-4018.04
-3999.65
-3976.6
-3973.08
-3983.81
-3978.76
-3967.03
-3975.45
-3982.03
-3979.32
-3968.84
-3949.33
-3793.36
-3488.35
-3138.85
-2783.31
-2489.93
-2280.27
-2079.59
-1798.34
-1404.82
-942.897
-518.275
-186.465
-27.6676
-4178.78
-4178.9
-4178.96
-4178.99
-4179.01
-4179
-4178.98
-4178.97
-4178.91
-4178.92
-4178.98
-4179.61
-4181.04
-4181.21
-4181.81
-4181.86
-4190.82
-4194.66
-4192.67
-4187.8
-4174.9
-4149.71
-4121.87
-4093.18
-4070.97
-4064.95
-4059.75
-4053.96
-4046.48
-4041.37
-4039.9
-4038.44
-4033.62
-4028.25
-4027.46
-4030.37
-4029.99
-4018.97
-3995.24
-3963.08
-3931.32
-3896.56
-3881.5
-3893.82
-3899.18
-3872.51
-3812.67
-3664.39
-3252.81
-2566.87
-1776.03
-1223.67
-899.237
-729.128
-642.86
-512.357
-151.863
170.71
36.5432
28.5414
-4178.97
-4178.99
-4179.01
-4179.02
-4179.03
-4179.02
-4178.99
-4178.99
-4178.93
-4178.95
-4178.81
-4179.32
-4180.73
-4180.76
-4181.13
-4180.49
-4190.91
-4196.68
-4194.3
-4190.79
-4177.04
-4151.04
-4124.1
-4096.03
-4072.9
-4067.65
-4061.93
-4055.82
-4047.59
-4041.66
-4039.94
-4038.62
-4034.69
-4029.58
-4027.92
-4031.81
-4032.67
-4020.06
-3994.4
-3961.46
-3931.49
-3896.99
-3879.73
-3892.9
-3901.13
-3878.16
-3823.95
-3715.74
-3286.71
-2552.17
-1738.15
-1255.56
-940.857
-745.924
-648.282
-520.451
-161.245
182.768
28.8711
-43.364
-4178.94
-4178.93
-4178.95
-4178.98
-4179
-4179
-4178.99
-4178.99
-4178.97
-4179.05
-4179.03
-4179.39
-4180.24
-4180.59
-4180.94
-4181.53
-4190.73
-4194.64
-4202.31
-4195.71
-4177.17
-4150.18
-4126.15
-4096.87
-4073.34
-4070.54
-4065.25
-4058.6
-4049.48
-4042.89
-4040.8
-4038.99
-4032.52
-4027.36
-4025.8
-4030.72
-4032.13
-4022.46
-4000.1
-3965.91
-3933.61
-3904.62
-3888.56
-3898.19
-3903.71
-3879.01
-3830.83
-3751.23
-3318.29
-2544.67
-1771.6
-1316.33
-998.771
-786.972
-662.542
-530.652
-171.649
172.446
51.6161
56.0137
-4178.95
-4178.96
-4178.99
-4179.01
-4179.02
-4179.02
-4179
-4179
-4178.97
-4179.01
-4178.83
-4178.87
-4179.61
-4179.52
-4179.64
-4179.37
-4190.57
-4196.02
-4220.85
-4208.19
-4181.39
-4151.37
-4123.89
-4093.46
-4069.84
-4069.14
-4063.75
-4058.63
-4051.36
-4043.31
-4039.48
-4038.03
-4035.28
-4029.74
-4026.68
-4027.52
-4024.33
-4011.11
-3992.67
-3971.51
-3944.84
-3918.66
-3908.64
-3916.66
-3917.23
-3895.52
-3856.66
-3745.76
-3305.95
-2575.22
-1852.66
-1378.89
-1069.28
-851.417
-717.304
-555.028
-218.658
62.0303
58.7249
19.4372
-4178.95
-4178.95
-4178.97
-4178.99
-4179.01
-4179.01
-4179.01
-4179.01
-4179.01
-4179.09
-4179.17
-4179.39
-4179.79
-4180.1
-4179.87
-4182.48
-4189.79
-4200.15
-4230.08
-4216.48
-4183.82
-4152.41
-4125
-4093.01
-4071.98
-4072.06
-4063.26
-4057.08
-4049.51
-4041.39
-4037.27
-4035.6
-4034.89
-4033.7
-4031.57
-4023.35
-4010.33
-3989.47
-3980.7
-3977.52
-3961.7
-3941.41
-3941.09
-3945.92
-3941.35
-3923.52
-3908.5
-3754.23
-3329.47
-2652.35
-1994.83
-1563
-1251.09
-995.747
-819.275
-620.195
-285.741
-0.694648
75.0693
-7.6477
-4178.95
-4178.95
-4178.97
-4178.99
-4179.01
-4179.02
-4179.02
-4179.03
-4179.05
-4179.13
-4179.25
-4179.62
-4180.2
-4180.36
-4180.49
-4182.85
-4189.58
-4194.72
-4221.22
-4210.26
-4181.93
-4149.77
-4124.73
-4096.66
-4075.98
-4071.11
-4058.3
-4056.6
-4049.77
-4040.87
-4036.5
-4035.22
-4036.44
-4036.96
-4035.55
-4023.28
-4004.37
-3972.85
-3968.47
-3985.07
-3977.78
-3957.05
-3964.27
-3970.72
-3968.33
-3964.27
-3990.81
-3823.45
-3435.33
-2867
-2294.11
-1906.95
-1623.62
-1351.26
-1086.66
-767.694
-385.606
-42.1617
70.9519
-26.7355
-4178.96
-4178.96
-4178.98
-4179
-4179.02
-4179.03
-4179.04
-4179.06
-4179.1
-4179.2
-4179.41
-4179.95
-4180.71
-4181.2
-4181.89
-4183.54
-4189.55
-4191.73
-4202.23
-4197.15
-4179.97
-4152.72
-4125.91
-4096.78
-4076.45
-4071.16
-4060.66
-4055.94
-4048.14
-4039.56
-4035.03
-4033.94
-4036.51
-4037.45
-4035.84
-4021.43
-4000.65
-3962.84
-3967.28
-3989.67
-3981.82
-3960.04
-3976.28
-3984.79
-3983.67
-3975.17
-4011.19
-3880.13
-3533.3
-3056.6
-2567.36
-2220.3
-1987.12
-1734.23
-1414.54
-991.643
-556.046
-149.355
13.1691
9.32484
-4178.96
-4178.94
-4178.94
-4178.97
-4178.99
-4179.01
-4179.03
-4179.07
-4179.12
-4179.24
-4179.49
-4180.06
-4180.92
-4181.68
-4182.72
-4184.48
-4189.63
-4191.95
-4195.88
-4193.19
-4180.77
-4158.39
-4131.07
-4103.75
-4082.8
-4075.1
-4061.55
-4055.7
-4048.07
-4039.72
-4035.33
-4034.39
-4036.14
-4036.34
-4033.47
-4021.28
-4001.61
-3969.51
-3968.56
-3987.49
-3980.45
-3962.11
-3975.72
-3985.16
-3982.94
-3976.49
-3999.43
-3875.5
-3559.61
-3166.22
-2731.95
-2397.49
-2183.89
-1969.83
-1672.23
-1232.71
-752.04
-283.85
-37.5844
57.5494
-4179
-4178.99
-4178.99
-4179
-4179.02
-4179.03
-4179.06
-4179.09
-4179.16
-4179.29
-4179.55
-4180.13
-4181.01
-4181.92
-4183.3
-4185.24
-4190.12
-4192.63
-4194.74
-4191.18
-4180.02
-4161.81
-4138.85
-4113.7
-4092.59
-4081.11
-4067.06
-4057.69
-4048.26
-4039.56
-4034.94
-4033.71
-4035.04
-4035.2
-4031.09
-4018.3
-3998.76
-3970.86
-3969.48
-3985.1
-3979.32
-3963.41
-3975.76
-3984.59
-3983.04
-3974.91
-3982.21
-3833.69
-3510.03
-3141.58
-2770.12
-2471.7
-2262.55
-2049.65
-1758.99
-1355.85
-897.494
-457.81
-146.041
-8.2195
-4178.81
-4178.89
-4178.93
-4178.96
-4178.98
-4179
-4179.02
-4179.07
-4179.14
-4179.28
-4179.56
-4180.14
-4181.04
-4182.02
-4183.54
-4185.61
-4190.35
-4192.82
-4194.51
-4191.21
-4180.46
-4162.81
-4140.78
-4117.56
-4097.24
-4085.1
-4070.99
-4060.78
-4051.05
-4042.23
-4037.29
-4035.73
-4036.4
-4035.56
-4030.3
-4018.07
-3999.9
-3976.65
-3972.91
-3984.71
-3979.89
-3966.92
-3975.68
-3982.34
-3980
-3969.12
-3950.28
-3794.08
-3490.09
-3139.89
-2784.94
-2491.66
-2281.5
-2074.81
-1790.4
-1390.82
-938.122
-504.852
-189.749
-16.8684
)
;

boundaryField
{
    wall
    {
        type            fixedFluxPressure;
        gradient        nonuniform List<scalar> 
1200
(
-0.82588
-0.445425
-0.755091
-0.642417
-0.653598
-0.622342
-0.520285
-0.457123
-0.226962
-0.311315
-1.36006
-1.22431
-2.56601
-1.74783
-1.85439
-1.70684
-1.38763
-1.77186
-0.816196
-0.947662
-1.48239
-1.63988
-3.32949
-1.86388
-2.30522
-2.0991
-1.4878
-2.39058
-1.01655
-0.852553
0.39302
-0.182207
-1.4658
-0.259966
-0.966505
-1.05629
-0.610037
-1.77247
-0.636385
-0.193271
3.75124
3.17944
2.55168
2.6491
1.79967
0.970476
0.647126
-0.87584
-0.418412
0.0698205
6.23548
6.79136
6.44563
5.15754
4.30362
3.0787
2.11912
0.523652
0.318256
0.87079
7.06495
10.5206
8.84916
6.19952
4.71495
3.06688
1.91868
0.572338
0.0794423
0.722177
9.66598
19.7069
13.8033
9.90348
5.71083
2.79119
0.983661
-0.55092
-1.45234
-0.55942
9.62607
32.3617
19.0762
15.2354
5.75774
1.80831
-0.704457
-2.24673
-3.6791
-1.93714
6.80951
59.6178
30.4169
27.4283
7.11817
1.97958
-2.21488
-3.82919
-6.68506
-3.80204
26.2232
181.708
74.1798
69.5493
14.2399
5.51716
-5.40013
-8.72427
-13.2351
-8.04125
10.8109
248.124
117.77
94.5569
18.6849
3.56416
-13.023
-16.4794
-19.8909
-10.8023
-32.2293
163.515
111.748
77.7192
29.5929
-0.256296
-18.76
-23.4663
-26.3125
-13.1818
-19.9067
131.318
59.8739
104.002
8.01502
12.6728
-23.8794
-27.573
-33.9244
-16.801
-26.8951
73.2916
-33.5846
95.1558
-22.5378
-5.52153
-40.4326
-34.82
-35.9529
-15.235
122.671
-57.3546
-80.8174
-230.15
-124.938
-53.5824
-45.4525
-27.5468
-45.3868
-30.5035
-8.45865
-56.7276
-100.245
-116.574
-155.894
-158.849
-100.663
-63.3945
-48.7337
-25.0352
30.012
125.793
127
-72.8385
-244.712
-188.132
-67.0682
-41.4666
-22.8074
-1.82153
30.2738
132.237
217.907
-157.855
-299.497
-292.842
-147.517
-71.9441
-31.6788
-2.07152
-1.66327
142.795
96.3317
30.9084
-70.7671
-461.205
-335.406
-72.3992
-75.0615
-9.04788
-8.65664
258.254
72.0932
233.598
5.11354
-273.694
-319.519
-141.956
-81.5671
-6.68684
-55.7059
360.755
31.6983
238.121
246.084
-142.125
-372.288
-314.727
-142.952
-47.8131
-151.042
293.307
-19.4645
181.331
200.935
145.489
-194.934
-366.606
-191.679
-59.9907
-187.217
158.086
136.148
181.373
244.664
-59.7797
-194.811
-310.93
-216.496
-38.0112
-204.63
164.811
167.675
236.354
297.377
0.329005
-257.262
-323.026
-257.534
-45.7349
-238.64
142.337
127.762
198.784
237.991
102.23
-249.459
-320.025
-346.635
-92.1104
-244.271
55.8574
236.713
167.143
134.322
159.367
-124.747
-280.971
-348.432
-91.7337
-222.956
-8.74944
303.394
167.864
50.4676
107.609
2.00401
-183.653
-326.74
-85.6413
-185.998
-35.9731
336.762
139.648
-44.4831
30.3793
-17.0833
-125.192
-309.752
-78.8331
-86.0157
50.8804
433.53
117.647
-50.6586
1.90633
-28.0216
-128.143
-319.687
-79.7623
8.19851
209.869
507.565
150.764
16.8849
77.3349
16.2757
-107.982
-295.109
-21.0252
73.4695
354.201
474.838
185.128
45.1071
132.204
47.7313
-104.108
-307.424
7.7684
70.9796
368.746
357.123
102.558
22.3168
138.962
52.3644
-131.224
-319.152
50.5036
98.8952
439.151
393.951
3.58167
5.76646
140.487
40.4914
-111.157
-269.188
-19.4462
130.746
542.943
366.312
30.4095
-47.6566
202.082
155.124
42.8164
-237.542
-44.7297
98.5315
364.111
241.288
-3.25469
-134.463
61.2666
61.9692
-12.1185
-249.638
10.9573
-8.08857
183.499
196.753
-113.389
-7.83475
103.185
48.0955
-17.6841
-259.003
53.7222
-121.688
-59.6549
47.2852
-295.615
-15.7876
67.3876
301.595
-73.1067
-325.692
12.9674
-174.954
-87.4133
-144.769
-440.603
-51.4481
94.4935
364.158
-20.9665
-251.752
-28.5223
-197.625
-92.4215
-469.109
-361.593
-16.1782
290.287
222.28
211.943
96.7994
182.657
-135.588
-240.54
-346.621
-276.077
191.818
566.448
113.616
311.971
194.414
225.539
59.394
-103.937
-232.501
-198.917
186.66
286.503
607.548
105.979
-191.227
-20.9745
146.988
176.808
121.627
-92.0797
-134.595
-45.3943
363.785
130.842
-50.809
44.4096
21.0654
91.9459
138.776
23.5419
-388.42
-475.625
197.109
236.561
14.2186
59.301
64.1326
148.421
256.985
56.6091
-276.023
-395.901
353.139
144.833
-59.9708
138.287
192.75
454.252
455.621
198.111
-383.483
-418.102
269.099
35.4374
-109.708
57.2838
344.063
327.039
120.788
56.2412
-554.539
-384.75
629.295
-24.3734
-278.876
194.167
324.997
180.539
-8.74159
-789.326
-554.923
-531.84
669.438
176.846
461.668
141.453
490.184
732.773
222.756
7.70655
-588.042
-508.754
-292.521
396.373
23.5909
362.021
212.362
309.333
377.596
-250.341
-1080.42
-459.013
-1109.89
1172.59
-649.734
210.413
887.252
500.838
545.015
244.964
-369.842
-650.794
-614.277
389.702
-163.359
308.873
552.002
580.897
287.8
-239.346
-1034.53
-589.392
-19.8876
358.987
339.911
318.145
221.863
-11.0772
-175.23
-877.097
-1673.01
-871.668
-315.473
472.51
267.036
210.885
-985.868
-991.393
-397.935
-656.405
-1844.42
-1994.5
-2160.35
-812.975
-1411.15
-1009.32
-918.978
-165.087
-273.716
-189.627
-1387.95
-2411.28
-2819.97
-1890.14
-2119.43
-1648.57
215.131
56.2943
-206.75
-1074.5
-1974.95
-3660.45
-4038.75
-4182.32
-3355.55
-2884.49
-153.52
-279.789
-675.991
-1052.41
-1197.73
-2155.14
-2052.6
-2345.36
-1574.62
-1006.2
327.167
365.792
-859.728
727.799
318.742
-1832.43
-2132.66
-4565.02
-3252.42
-2769.08
-621.302
287.075
-1859.95
-870.827
-3321.1
-3436.55
-1696.41
-2502.74
-156.372
644.675
-526.631
-394.918
-527.334
658.252
-473.162
1801.19
-1114.56
-3941.47
-880.765
-2207.54
0.825875
0.445427
0.755078
0.642403
0.65359
0.622341
0.520288
0.457126
0.226962
0.311318
1.36055
1.22383
2.56555
1.74764
1.85437
1.70683
1.38754
1.77171
0.816214
0.947964
1.48203
1.6383
3.32785
1.86325
2.30437
2.09815
1.48692
2.39009
1.0167
0.85349
-0.396968
0.179658
1.46294
0.257645
0.963848
1.05389
0.609415
1.77231
0.637062
0.194289
-3.75655
-3.18242
-2.55565
-2.65255
-1.80178
-0.972201
-0.646152
0.875338
0.419175
-0.0697008
-6.23891
-6.7928
-6.44717
-5.16011
-4.30415
-3.07968
-2.11834
-0.524821
-0.318464
-0.872466
-7.06644
-10.5213
-8.84968
-6.20024
-4.71498
-3.06701
-1.91871
-0.5732
-0.0811645
-0.725453
-9.66649
-19.7079
-13.804
-9.90392
-5.71104
-2.79143
-0.983931
0.547198
1.44953
0.555399
-9.62543
-32.3642
-19.0773
-15.2359
-5.75804
-1.80911
0.703475
2.23802
3.67189
1.93134
-6.81498
-59.6556
-30.4274
-27.4336
-7.11903
-1.98038
2.21326
3.81473
6.66572
3.79184
-26.2703
-181.983
-74.3004
-69.6195
-14.256
-5.51892
5.39908
8.70754
13.1941
8.01711
-10.8779
-248.154
-117.952
-94.7144
-18.7572
-3.57778
13.0231
16.4572
19.8114
10.7494
32.2289
-163.15
-111.648
-77.7419
-29.6743
0.220658
18.7572
23.4553
26.2099
13.1065
19.9429
-130.991
-59.6066
-103.814
-8.00066
-12.689
23.875
27.6035
33.7894
16.6987
26.9217
-72.659
34.231
-92.031
22.5706
5.54486
40.4386
34.8302
35.8021
15.1363
-122.391
57.271
80.4421
230.047
111.133
53.5576
45.4741
27.5457
45.1575
30.4991
8.49142
55.16
98.6772
118.243
156.184
158.98
100.639
63.3879
48.9821
25.3608
-30.1058
-125.747
-125.656
73.9854
251.085
188.782
62.5212
38.5932
22.575
2.17232
-30.8845
-129.24
-216.405
158.984
300.162
281.101
135.297
67.9547
31.0487
2.74254
1.41116
-142.033
-95.3478
-31.2794
71.2015
453.565
328.387
68.7775
74.5036
9.74287
8.23687
-258.184
-71.9978
-235.929
-8.01814
270.004
317.208
141.641
81.5135
7.26257
55.4266
-361.05
-32.3746
-245.954
-252.189
144.452
371.1
311.529
142.051
48.2446
151.154
-293.274
18.0059
-198.045
-212.888
-145.003
197.86
361.714
190.595
61.3538
187.523
-157.601
-137.51
-204.348
-263.531
57.9602
198.77
309.658
213.576
41.5049
205.057
-164.111
-169.243
-253.01
-308.077
-2.60955
257.035
319.723
254.448
52.6422
238.961
-141.67
-128.109
-205.943
-238.989
-107.962
244.186
316.265
346.965
102.436
244.426
-54.8379
-234.879
-168.222
-134.726
-164.363
120.909
279.921
351.757
101.284
222.934
9.86958
-299.749
-168.409
-50.5527
-107.852
-1.65286
187.306
331.939
92.0007
185.963
36.9802
-334.58
-140.001
44.507
-29.8106
18.9811
132.503
316.711
80.2802
86.1374
-50.2484
-435.842
-117.899
50.809
-0.826094
30.5353
136.385
328.131
78.1783
-7.96113
-209.91
-513.481
-150.959
-16.6192
-75.9235
-14.1948
114.132
303.117
19.3081
-73.2381
-354.606
-479.694
-185.191
-44.5528
-130.424
-45.7951
106.972
313.163
-8.13787
-70.7258
-368.919
-358.37
-102.361
-20.665
-136.639
-49.9768
131.5
321.925
-49.4257
-98.4966
-438.907
-397.002
-2.9498
-3.97405
-138.38
-38.6759
109.02
269.913
21.4097
-130.215
-543.117
-367.008
-29.7492
48.5116
-201.315
-153.779
-44.7836
237.724
46.5229
-98.0418
-364.839
-241.58
4.00955
135.305
-61.2806
-61.0386
10.1351
248.96
-9.54758
8.45715
-183.909
-196.769
114.175
8.64729
-102.903
-51.8803
12.9032
256.83
-51.6326
121.883
59.8254
-47.2773
296.461
17.6045
-66.511
-311.304
65.3374
321.079
-9.6156
175.056
87.5681
144.712
441.509
56.6602
-89.2348
-359.473
10.0864
248.446
34.6885
197.68
92.5008
469.123
363.688
23.113
-281.545
-213.295
-218.083
-95.1134
-175.599
135.543
240.647
349.383
279.379
-186.569
-561.36
-113.141
-312.058
-188.065
-222.931
-59.3265
104.089
232.936
200.349
-184.835
-285.962
-607.795
-103.46
199.168
21.1717
-146.507
-176.745
-120.777
93.8426
136.164
45.6194
-364.851
-128.006
56.4928
-44.6337
-20.9231
-91.8725
-137.383
-20.8712
389.628
475.244
-197.907
-233.792
-15.0844
-60.9727
-65.7639
-151.001
-255.374
-53.5514
277.203
395.5
-365.651
-145.071
58.965
-140.405
-192.24
-453.921
-453.974
-195.743
384.803
418.686
-305.43
-35.892
123.133
-58.7397
-344.054
-325.844
-121.425
-55.3954
556.226
387.587
-629.858
22.5385
293.527
-196.898
-324.878
-179.372
19.7931
788.292
556.403
535.819
-667.368
-177.32
-438.625
-144.328
-489.981
-729.28
-222.321
-10.0345
585.318
512.077
298.674
-391.397
-23.1988
-367.675
-212.858
-310.618
-398.43
242.744
1040.44
449.717
1122.18
-1153.72
662.213
-219.875
-889.964
-525.137
-527.781
-247.216
306.671
630.799
630.665
-363.719
188.787
-315.939
-512.064
-565.353
-288.352
206.477
994.085
571.175
38.9212
-330.415
-299.741
-318.156
-219.725
-34.913
159.72
854.527
1642.97
851.746
330.62
-447.497
-213.782
-204.786
984.777
933.531
395.674
654.312
1837.49
1977.36
2167.08
829.053
1460.6
1017.5
923.035
141.762
234.757
186.999
1391.08
2400.03
2820.53
1901.25
2160.12
1652.1
-226.3
-49.37
196.708
1077.07
1973.21
3656.37
4037.8
4195.87
3379.3
2882.65
119.571
288.098
656.724
1055.33
1196.08
2152.22
2050.34
2354.03
1587.69
1006.36
-317.302
-363.818
816.086
-724.849
-318.129
1829.48
2131.17
4573.72
3258.31
2770.86
580.114
-392.015
1838.14
870.773
3321.24
3435.72
1680.19
2504.67
162.057
-633.195
524.25
393.18
527.005
-659.156
472.849
-1803.22
1084.15
3935.47
895.407
2223.25
)
;
        value           nonuniform List<scalar> 
1200
(
-4178.79
-4178.98
-4178.94
-4178.95
-4178.95
-4178.96
-4178.96
-4178.96
-4179
-4178.81
-4178.91
-4179
-4178.95
-4178.97
-4178.97
-4178.97
-4178.97
-4178.95
-4179
-4178.9
-4178.97
-4179.02
-4178.98
-4179
-4178.99
-4178.98
-4178.99
-4178.96
-4179
-4178.94
-4178.99
-4179.02
-4178.99
-4179.01
-4179
-4179
-4179
-4178.98
-4179.01
-4178.96
-4178.98
-4179
-4178.98
-4179
-4179
-4179
-4179.01
-4179
-4179.02
-4178.98
-4178.95
-4178.97
-4178.95
-4178.98
-4178.98
-4178.99
-4179.01
-4179.01
-4179.03
-4178.99
-4178.92
-4178.92
-4178.92
-4178.96
-4178.97
-4178.99
-4179.02
-4179.03
-4179.06
-4179.02
-4178.89
-4178.84
-4178.89
-4178.93
-4178.97
-4179.01
-4179.05
-4179.07
-4179.1
-4179.07
-4178.83
-4178.68
-4178.82
-4178.85
-4178.97
-4179.03
-4179.1
-4179.14
-4179.19
-4179.15
-4178.87
-4178.51
-4178.83
-4178.81
-4179.04
-4179.11
-4179.21
-4179.27
-4179.34
-4179.3
-4178.78
-4177.44
-4178.47
-4178.3
-4179.06
-4179.2
-4179.45
-4179.56
-4179.65
-4179.62
-4179.53
-4177.45
-4178.5
-4178.15
-4179.24
-4179.58
-4180.05
-4180.18
-4180.27
-4180.22
-4181.28
-4179.5
-4179.4
-4179.01
-4179.56
-4180.19
-4180.84
-4181.09
-4181.21
-4181.13
-4181.36
-4179.77
-4180.14
-4178.74
-4180.03
-4180.26
-4181.37
-4181.88
-4182.17
-4182.15
-4182.01
-4180.59
-4181.19
-4178.92
-4180.03
-4180.53
-4182.19
-4182.98
-4183.57
-4183.66
-4180.94
-4180.93
-4182.16
-4181.14
-4183.32
-4183.24
-4183.87
-4184.67
-4185.58
-4185.84
-4190.88
-4191.32
-4191.47
-4191.44
-4190.93
-4190.76
-4190.29
-4190.08
-4190.5
-4190.54
-4194.44
-4195.73
-4193.69
-4196.5
-4201.96
-4196.16
-4192.27
-4192.28
-4192.83
-4192.84
-4192.44
-4193.29
-4200.66
-4222.14
-4232.4
-4222.98
-4203.35
-4196.46
-4195
-4194.54
-4187.8
-4189.73
-4194.98
-4207.99
-4217.02
-4213.49
-4199.64
-4193.73
-4191.74
-4191.29
-4174.96
-4175.12
-4176.61
-4179.64
-4183.76
-4183.94
-4182.34
-4181.81
-4180.62
-4180.52
-4150.12
-4148.35
-4149.92
-4149.56
-4150.57
-4150.95
-4155.51
-4160.71
-4162.87
-4163.17
-4123
-4121.91
-4126.3
-4122.49
-4123.48
-4123.74
-4127.41
-4133.79
-4140.27
-4141.24
-4094.57
-4094.85
-4095.85
-4092.06
-4091.12
-4097.13
-4098.33
-4106.09
-4115.3
-4117.86
-4072.48
-4071.65
-4072.07
-4068.01
-4069.7
-4075.98
-4078.44
-4085.23
-4094.5
-4097.6
-4066.72
-4066.59
-4069.57
-4067.63
-4070.27
-4070.37
-4073.03
-4077.49
-4083.7
-4085.83
-4061.56
-4061.51
-4063.49
-4062.48
-4062.28
-4057.06
-4061.59
-4063.67
-4069.68
-4071.72
-4055.63
-4055.89
-4056.36
-4057.37
-4056.7
-4055.77
-4055.92
-4057.09
-4060.16
-4061.46
-4047.88
-4047.86
-4046.97
-4050.31
-4049.85
-4049.54
-4048.27
-4049.03
-4050.61
-4051.65
-4042.02
-4041.27
-4039.63
-4042.42
-4041.78
-4040.86
-4039.79
-4040.71
-4041.99
-4042.82
-4039.84
-4038.37
-4036.98
-4038.34
-4037.16
-4035.93
-4034.92
-4036.16
-4037.19
-4037.44
-4037.89
-4035.97
-4035.44
-4036.63
-4035.28
-4034.25
-4033.6
-4035.17
-4036.04
-4035.67
-4033.08
-4031.94
-4029.85
-4034.51
-4034.76
-4035.42
-4036.13
-4037.11
-4037.45
-4036.02
-4027.49
-4026.31
-4024.4
-4029.71
-4033.68
-4035.93
-4037.2
-4037.16
-4037.22
-4035.71
-4026.47
-4023.81
-4023.05
-4026.45
-4031.93
-4034.06
-4034.73
-4033.11
-4032.86
-4030.65
-4029.64
-4029.06
-4028.89
-4027.55
-4024.38
-4022.85
-4020.97
-4021.33
-4020.17
-4018
-4030.05
-4031.29
-4030.62
-4025.16
-4010.44
-4003.65
-4000.3
-4001.69
-4000.69
-3999.52
-4019.89
-4020.49
-4022.09
-4013.26
-3989.62
-3972.47
-3960.52
-3970.07
-3973.31
-3976.57
-3996.55
-3995.04
-4001.18
-3995.92
-3981.09
-3967.78
-3964.59
-3968.61
-3971.35
-3973.15
-3964.56
-3962.11
-3969.45
-3974.16
-3977.67
-3983.03
-3988.04
-3985.89
-3984.4
-3983.36
-3932.34
-3933.26
-3936.21
-3946.84
-3960.32
-3973.51
-3980.98
-3978.19
-3977.91
-3978.21
-3896.13
-3897.81
-3906.32
-3920.11
-3940.13
-3954.83
-3955.52
-3961.38
-3964.87
-3967.09
-3880.41
-3878.46
-3887.66
-3909.32
-3942.12
-3964.31
-3973.6
-3974.76
-3976.14
-3975.35
-3893.65
-3892.29
-3897.23
-3916.52
-3948.8
-3973.69
-3983.4
-3983.38
-3984.46
-3981.89
-3898.68
-3900.06
-3901.95
-3916.86
-3943.41
-3970.66
-3981.07
-3981.85
-3983.42
-3978.97
-3871.07
-3874.81
-3875.77
-3894.1
-3926.38
-3966.55
-3972.96
-3976.2
-3975.68
-3968.71
-3810.12
-3821.79
-3830.47
-3856.33
-3912.52
-3992.69
-4006.23
-3999.63
-3983.89
-3948.85
-3661.93
-3715.12
-3752.17
-3751.28
-3758.52
-3827.11
-3874.64
-3873.59
-3830.06
-3793.04
-3249.4
-3281.71
-3317.55
-3305.86
-3334.01
-3439.02
-3535.01
-3555.9
-3509.75
-3487.46
-2565.41
-2549.87
-2542.12
-2577.89
-2661.04
-2870.52
-3064.49
-3156.56
-3146.25
-3138.33
-1769.13
-1733.11
-1766.08
-1853.16
-1998.58
-2299.19
-2571.71
-2728.52
-2771.13
-2782.54
-1218
-1250.67
-1314.24
-1381.41
-1571.61
-1911.46
-2220.22
-2394.42
-2468.97
-2489.14
-897.701
-939.771
-1000.13
-1076.32
-1264.5
-1630.25
-1989.31
-2179.71
-2260.41
-2279.78
-736.891
-753.012
-790.339
-856.654
-1010.65
-1366.38
-1750.48
-1974.87
-2059.92
-2082.16
-649.87
-649.524
-664.878
-718.775
-830.493
-1104.96
-1436.02
-1685.2
-1774.56
-1802.5
-511.226
-519.766
-532.016
-563.026
-635.28
-795.493
-1022.22
-1263.33
-1380.49
-1412.06
-152.979
-163.66
-176.696
-226.699
-294.921
-402.333
-571.686
-769.49
-908.803
-945.433
173.768
185.033
165.246
67.3467
1.56269
-56.6189
-165.92
-318.178
-481.571
-525.193
31.819
30.8101
37.7633
51.9674
49.9896
44.734
0.195702
-56.6143
-147.198
-184.806
25.005
-46.2315
51.2151
24.0847
-11.4268
-13.5557
0.38856
27.6938
-14.2631
-33.2426
-4178.78
-4178.97
-4178.94
-4178.95
-4178.95
-4178.95
-4178.96
-4178.96
-4179
-4178.8
-4178.89
-4178.99
-4178.92
-4178.95
-4178.95
-4178.95
-4178.96
-4178.93
-4178.99
-4178.89
-4178.96
-4179
-4178.95
-4178.98
-4178.97
-4178.96
-4178.97
-4178.94
-4178.99
-4178.93
-4178.99
-4179.02
-4178.98
-4179.01
-4178.99
-4178.99
-4179
-4178.96
-4179
-4178.96
-4179.02
-4179.03
-4179.01
-4179.03
-4179.01
-4179.01
-4179.02
-4178.99
-4179.02
-4178.98
-4179.01
-4179.03
-4179.02
-4179.03
-4179.02
-4179.02
-4179.03
-4179.02
-4179.04
-4179
-4178.99
-4179.02
-4179.01
-4179.02
-4179.02
-4179.03
-4179.04
-4179.04
-4179.06
-4179.03
-4178.99
-4179.04
-4179.02
-4179.03
-4179.03
-4179.04
-4179.06
-4179.07
-4179.09
-4179.06
-4178.93
-4179.01
-4179.02
-4179.01
-4179.02
-4179.05
-4179.09
-4179.12
-4179.15
-4179.13
-4178.94
-4179.11
-4179.13
-4179.08
-4179.11
-4179.13
-4179.19
-4179.24
-4179.27
-4179.27
-4179.04
-4179.26
-4179.22
-4179.01
-4179.2
-4179.26
-4179.4
-4179.47
-4179.52
-4179.54
-4179.64
-4179.93
-4179.69
-4179.11
-4179.44
-4179.62
-4179.92
-4180.02
-4180.08
-4180.11
-4180.96
-4181.13
-4180.52
-4179.8
-4179.87
-4180.2
-4180.66
-4180.86
-4180.95
-4181
-4181.16
-4181.08
-4180.74
-4179.78
-4180.12
-4180.39
-4181.14
-4181.61
-4181.83
-4181.98
-4181.75
-4181.32
-4180.85
-4179.87
-4179.82
-4180.48
-4181.79
-4182.63
-4183.21
-4183.5
-4182.17
-4180.36
-4181.34
-4178.8
-4182.21
-4182.72
-4183.43
-4184.41
-4185.13
-4185.53
-4190.8
-4190.78
-4190.48
-4190.26
-4189.4
-4189.18
-4189.3
-4189.47
-4189.99
-4190.28
-4194.74
-4196.99
-4194.94
-4195.78
-4199.52
-4194.21
-4191.6
-4191.85
-4192.57
-4192.82
-4192.75
-4194.62
-4202.84
-4220.45
-4229.36
-4220.42
-4201.91
-4195.72
-4194.66
-4194.51
-4187.79
-4191.16
-4195.93
-4208.29
-4216.35
-4209.09
-4196.33
-4193.02
-4190.99
-4191.19
-4174.87
-4177.71
-4177.33
-4181.99
-4183.85
-4181.27
-4179.17
-4180.39
-4179.82
-4180.45
-4149.56
-4151.96
-4150.24
-4151.97
-4153.05
-4149.46
-4151.8
-4157.59
-4161.45
-4162.69
-4121.47
-4124.83
-4126.11
-4124.35
-4125.53
-4125.11
-4125.45
-4130.17
-4138.35
-4140.63
-4092.69
-4096.42
-4097.22
-4093.95
-4093.65
-4096.52
-4096.31
-4102.99
-4113.15
-4117.46
-4070.44
-4073.29
-4073.75
-4070.45
-4072.73
-4075.99
-4075.83
-4082.02
-4091.95
-4097.09
-4064.35
-4067.99
-4070.84
-4069.64
-4072.66
-4071.39
-4070.56
-4074.32
-4080.23
-4084.82
-4059.14
-4062.06
-4065.82
-4064.17
-4063.61
-4058.68
-4060.38
-4060.88
-4066.18
-4070.71
-4053.41
-4055.79
-4059.34
-4059.05
-4057.21
-4056.86
-4055.94
-4055.24
-4056.86
-4060.53
-4046.02
-4047.49
-4050.31
-4051.7
-4049.41
-4049.83
-4048.09
-4047.73
-4047.47
-4050.84
-4041.15
-4041.77
-4043.98
-4043.6
-4041.28
-4040.87
-4039.48
-4039.37
-4038.73
-4042.03
-4039.91
-4040.45
-4042.1
-4039.86
-4037.32
-4036.68
-4035.05
-4035.03
-4034.17
-4037.25
-4038.61
-4039.5
-4040.23
-4038.5
-4035.72
-4035.54
-4034.04
-4034.11
-4032.91
-4035.75
-4033.78
-4035.62
-4033.44
-4035.58
-4034.96
-4036.77
-4036.63
-4035.8
-4034.22
-4036.52
-4028.48
-4030.67
-4028.33
-4029.83
-4033.71
-4037.3
-4037.55
-4036.07
-4034.51
-4035.51
-4027.77
-4029.23
-4026.73
-4026.81
-4031.45
-4036.05
-4036.25
-4033.56
-4030.49
-4030.19