/*--------------------------------*- C++ -*----------------------------------*\
  =========                 |
  \\      /  F ield         | OpenFOAM: The Open Source CFD Toolbox
   \\    /   O peration     | Website:  https://openfoam.org
    \\  /    A nd           | Version:  8
     \\/     M anipulation  |
\*---------------------------------------------------------------------------*/
FoamFile
{
    version     2.0;
    format      ascii;
    class       volScalarField;
    location    "900";
    object      alphat;
}
// * * * * * * * * * * * * * * * * * * * * * * * * * * * * * * * * * * * * * //

dimensions      [1 -1 -1 0 0 0 0];

internalField   nonuniform List<scalar> 
8400
(
0.124719
0.123314
0.121919
0.12053
0.119147
0.117768
0.116394
0.115024
0.113659
0.112299
0.110945
0.109597
0.108256
0.106922
0.105597
0.104281
0.102975
0.101678
0.100392
0.0991166
0.0978519
0.0965985
0.0953566
0.0941265
0.0929084
0.0917024
0.0905087
0.0893277
0.0881597
0.0870048
0.0858634
0.0847355
0.0836214
0.0825214
0.0814361
0.0803658
0.0793111
0.0782722
0.0772497
0.0762442
0.0752565
0.0742873
0.0733375
0.0724079
0.0714996
0.0706136
0.0697512
0.0689139
0.0681033
0.0673211
0.0577327
0.0577441
0.0577557
0.0577678
0.0577804
0.0577937
0.0578078
0.0578228
0.0578386
0.0578551
0.0578722
0.0578899
0.0579082
0.057927
0.0579464
0.0579663
0.0579866
0.0580073
0.0580283
0.0580495
0.0580711
0.0580929
0.0581149
0.0581372
0.0581596
0.0581821
0.0582046
0.0582272
0.0582501
0.0582732
0.0582963
0.0583193
0.0583421
0.0583649
0.0583877
0.0584104
0.0584328
0.0584548
0.0584762
0.0584972
0.0585177
0.0585376
0.0585567
0.058575
0.058592
0.0586073
0.0586207
0.0586319
0.0586399
0.0586437
0.0582613
0.0582792
0.058297
0.0583148
0.0583328
0.058351
0.0583696
0.0583885
0.0584078
0.0584274
0.0584471
0.058467
0.058487
0.0585073
0.0585279
0.0585486
0.0585694
0.0585903
0.0586112
0.0586321
0.0586532
0.0586743
0.0586956
0.0587168
0.0587378
0.0587588
0.0587797
0.0588008
0.0588221
0.0588435
0.0588648
0.058886
0.0589072
0.0589283
0.0589494
0.0589705
0.0589912
0.0590116
0.0590319
0.059052
0.0590718
0.0590913
0.0591104
0.059129
0.0591467
0.0591636
0.0591793
0.0591934
0.0592054
0.0592149
0.0584326
0.0584535
0.0584741
0.0584944
0.0585147
0.0585349
0.0585552
0.0585756
0.058596
0.0586163
0.0586366
0.0586568
0.0586771
0.0586974
0.0587179
0.0587384
0.0587588
0.0587792
0.0587996
0.0588201
0.0588407
0.0588613
0.0588821
0.0589026
0.0589231
0.0589434
0.0589639
0.0589847
0.0590058
0.0590272
0.0590486
0.0590699
0.0590914
0.0591131
0.0591348
0.0591566
0.0591783
0.0592002
0.0592223
0.0592447
0.0592672
0.0592899
0.0593125
0.0593351
0.0593578
0.0593807
0.0594033
0.0594251
0.0594465
0.0594669
0.0582456
0.0582743
0.0583025
0.05833
0.058357
0.0583835
0.0584096
0.0584352
0.0584604
0.0584851
0.0585095
0.0585336
0.0585575
0.0585813
0.0586051
0.0586287
0.0586521
0.0586754
0.0586987
0.0587221
0.0587456
0.0587692
0.0587927
0.058816
0.0588391
0.0588623
0.0588858
0.0589098
0.0589343
0.058959
0.0589838
0.0590088
0.059034
0.0590595
0.0590851
0.0591109
0.0591371
0.0591639
0.0591914
0.0592193
0.0592477
0.0592765
0.0593059
0.0593359
0.0593668
0.0593987
0.0594318
0.0594649
0.0594987
0.0595326
0.0577811
0.0578235
0.0578655
0.0579064
0.057946
0.0579843
0.0580213
0.0580571
0.0580917
0.0581252
0.0581578
0.0581899
0.0582214
0.0582526
0.0582834
0.0583137
0.0583436
0.0583734
0.0584032
0.0584332
0.0584633
0.0584933
0.058523
0.0585523
0.0585816
0.0586111
0.0586412
0.058672
0.0587034
0.0587349
0.0587665
0.0587985
0.0588308
0.0588635
0.0588965
0.0589301
0.0589645
0.059
0.0590362
0.0590731
0.0591107
0.0591492
0.0591888
0.0592299
0.0592726
0.0593163
0.0593611
0.0594072
0.0594539
0.0595018
0.0570974
0.0571437
0.0571934
0.057245
0.0572971
0.057349
0.0574
0.0574498
0.0574983
0.0575455
0.0575916
0.057637
0.0576815
0.0577253
0.0577684
0.0578107
0.0578525
0.0578942
0.0579359
0.0579778
0.0580196
0.058061
0.0581018
0.0581422
0.0581825
0.0582235
0.0582654
0.058308
0.0583509
0.0583938
0.058437
0.0584806
0.0585248
0.0585695
0.0586148
0.0586612
0.0587089
0.0587577
0.0588075
0.0588582
0.05891
0.0589632
0.0590182
0.0590749
0.0591329
0.0591924
0.0592526
0.0593145
0.0593748
0.0594377
0.0567325
0.0566852
0.0566567
0.056648
0.0566558
0.0566764
0.0567064
0.0567433
0.0567854
0.0568312
0.0568801
0.0569313
0.0569843
0.0570382
0.0570926
0.0571476
0.0572032
0.0572598
0.0573173
0.0573755
0.0574337
0.0574913
0.0575483
0.057605
0.0576623
0.0577209
0.0577808
0.0578412
0.0579016
0.0579618
0.0580224
0.0580839
0.0581464
0.0582098
0.0582742
0.0583398
0.0584065
0.0584741
0.0585425
0.058612
0.0586834
0.0587573
0.0588335
0.0589104
0.0589876
0.059065
0.0591425
0.0592236
0.0593006
0.0593786
0.0580004
0.0577304
0.0574881
0.0572858
0.0571212
0.0569896
0.0568862
0.0568068
0.0567482
0.056708
0.0566841
0.056674
0.0566755
0.0566863
0.0567051
0.0567315
0.0567654
0.0568068
0.0568549
0.0569079
0.0569638
0.0570209
0.057079
0.0571396
0.0572044
0.0572741
0.0573473
0.0574215
0.0574948
0.0575679
0.0576429
0.0577215
0.0578035
0.0578875
0.0579724
0.058058
0.0581439
0.0582301
0.0583172
0.0584071
0.0585009
0.0585983
0.0586948
0.0587864
0.0588811
0.0589758
0.0590687
0.0591673
0.0592632
0.0593513
0.0603117
0.0600414
0.059788
0.0595459
0.0593174
0.0591037
0.0589033
0.0587158
0.0585431
0.0583875
0.0582512
0.0581316
0.0580237
0.0579235
0.0578297
0.0577448
0.0576732
0.057619
0.0575831
0.0575607
0.0575429
0.0575229
0.0575026
0.0574918
0.057501
0.057532
0.0575745
0.0576137
0.0576426
0.0576695
0.0577107
0.0577735
0.0578502
0.0579282
0.0580034
0.0580789
0.0581537
0.0582257
0.0583015
0.0583913
0.0584953
0.0586046
0.0587064
0.0587939
0.058889
0.0589858
0.0590843
0.0591879
0.0593072
0.0593921
0.0611285
0.0610157
0.0609113
0.0608114
0.0607141
0.060618
0.0605224
0.0604261
0.0603294
0.0602342
0.0601422
0.0600548
0.059971
0.0598878
0.0598029
0.0597159
0.0596286
0.059544
0.0594645
0.0593899
0.0593172
0.0592428
0.0591669
0.0590943
0.0590311
0.0589796
0.0589353
0.0588908
0.0588425
0.0587954
0.0587591
0.0587374
0.0587257
0.0587173
0.0587115
0.0587119
0.0587195
0.0587327
0.0587555
0.0587939
0.0588461
0.0589073
0.0589693
0.059032
0.0590955
0.0591645
0.0592502
0.0593279
0.0594135
0.0594848
0.0611872
0.0611358
0.061085
0.0610344
0.060984
0.0609335
0.0608828
0.0608318
0.0607806
0.0607297
0.0606798
0.0606306
0.0605819
0.060533
0.0604838
0.0604343
0.060385
0.0603364
0.0602886
0.0602413
0.060194
0.0601463
0.060099
0.0600532
0.0600095
0.0599673
0.0599252
0.0598821
0.0598389
0.0597976
0.0597599
0.0597253
0.0596919
0.0596586
0.0596264
0.0595965
0.0595697
0.0595471
0.0595293
0.0595162
0.0595068
0.0595029
0.0595034
0.0595141
0.0595293
0.0595501
0.0595827
0.0596154
0.059663
0.0597055
0.0612039
0.0611709
0.0611381
0.0611052
0.0610724
0.0610393
0.0610062
0.0609728
0.0609393
0.0609059
0.0608726
0.0608395
0.0608065
0.0607734
0.0607403
0.0607073
0.0606743
0.0606414
0.0606087
0.0605761
0.0605433
0.0605106
0.0604783
0.0604466
0.0604154
0.060384
0.0603521
0.0603198
0.0602879
0.0602574
0.0602283
0.0601999
0.060171
0.0601413
0.060112
0.0600842
0.0600583
0.0600345
0.0600121
0.0599901
0.059969
0.0599502
0.0599341
0.0599253
0.0599193
0.0599156
0.0599175
0.0599234
0.0599296
0.0599459
0.061213
0.0611894
0.0611658
0.061142
0.061118
0.0610937
0.0610692
0.0610446
0.0610198
0.0609951
0.0609703
0.0609456
0.0609208
0.060896
0.0608712
0.0608465
0.0608218
0.0607971
0.0607723
0.0607475
0.0607226
0.0606979
0.0606735
0.0606494
0.0606251
0.0606003
0.0605749
0.0605496
0.0605249
0.0605013
0.0604782
0.0604547
0.0604302
0.0604053
0.060381
0.0603579
0.060336
0.0603148
0.0602937
0.0602721
0.0602511
0.0602317
0.060214
0.0601996
0.0601865
0.060173
0.0601614
0.0601576
0.0601559
0.0601562
0.0612167
0.061197
0.0611773
0.0611576
0.0611377
0.0611178
0.0610977
0.0610776
0.0610576
0.0610375
0.0610174
0.0609974
0.0609773
0.0609573
0.0609373
0.0609174
0.0608976
0.0608777
0.0608578
0.0608377
0.0608177
0.0607981
0.0607787
0.0607593
0.0607395
0.0607193
0.0606989
0.060679
0.0606598
0.0606411
0.0606223
0.0606027
0.0605825
0.0605626
0.0605434
0.0605251
0.060507
0.060489
0.0604706
0.0604523
0.060435
0.0604184
0.0604021
0.0603875
0.0603744
0.0603603
0.0603496
0.0603372
0.0603286
0.0603232
0.0612212
0.0612064
0.0611915
0.0611764
0.0611612
0.0611458
0.0611304
0.061115
0.0610995
0.061084
0.0610684
0.0610527
0.061037
0.0610213
0.0610056
0.06099
0.0609744
0.0609586
0.0609427
0.0609267
0.0609107
0.060895
0.0608794
0.0608635
0.0608473
0.0608308
0.0608143
0.0607983
0.0607826
0.0607669
0.0607507
0.060734
0.0607172
0.0607008
0.0606847
0.0606687
0.0606525
0.0606361
0.0606199
0.0606036
0.0605876
0.060571
0.0605538
0.0605383
0.0605237
0.0605059
0.0604916
0.0604789
0.0604665
0.0604544
0.0612212
0.0612062
0.0611912
0.0611761
0.061161
0.0611459
0.0611308
0.0611157
0.0611007
0.0610856
0.0610705
0.0610553
0.0610402
0.0610251
0.0610102
0.0609953
0.0609804
0.0609654
0.0609502
0.0609351
0.0609202
0.0609055
0.0608908
0.060876
0.0608608
0.0608457
0.0608309
0.0608165
0.0608021
0.0607877
0.0607728
0.060758
0.0607434
0.0607292
0.0607151
0.0607009
0.0606867
0.0606728
0.0606589
0.0606452
0.0606322
0.0606193
0.0606065
0.0605941
0.0605825
0.0605734
0.0605634
0.0605553
0.060549
0.0605449
0.0612256
0.0612156
0.0612056
0.0611955
0.0611854
0.0611752
0.0611651
0.061155
0.0611449
0.0611347
0.0611245
0.0611142
0.061104
0.0610938
0.0610837
0.0610735
0.0610632
0.0610529
0.0610424
0.061032
0.0610217
0.0610115
0.0610011
0.0609907
0.0609802
0.0609698
0.0609596
0.0609495
0.0609393
0.060929
0.0609187
0.0609085
0.0608985
0.0608885
0.0608784
0.0608681
0.0608578
0.0608474
0.0608369
0.0608274
0.0608184
0.0608079
0.0607972
0.0607882
0.0607788
0.0607701
0.0607611
0.0607529
0.0607456
0.0607388
0.0612381
0.0612398
0.0612409
0.0612414
0.0612413
0.0612408
0.0612399
0.0612385
0.0612365
0.061234
0.0612309
0.0612274
0.0612236
0.0612194
0.0612146
0.0612089
0.0612023
0.0611945
0.0611955
0.0611989
0.0611993
0.0611952
0.0611878
0.0611824
0.0611789
0.0611788
0.0611828
0.0611897
0.0611971
0.061202
0.061202
0.0611956
0.0611813
0.0611581
0.0611414
0.0611292
0.0611204
0.0611142
0.0611092
0.0611042
0.061099
0.0610933
0.0610891
0.0610809
0.0610739
0.0610657
0.0610564
0.0610447
0.0610323
0.0610195
0.146516
0.144963
0.143196
0.141431
0.139708
0.138034
0.136407
0.134822
0.133273
0.131755
0.130264
0.128792
0.127332
0.125878
0.124422
0.122964
0.121502
0.120039
0.118579
0.117137
0.115716
0.11432
0.112949
0.111603
0.110284
0.108987
0.10771
0.10645
0.105201
0.103961
0.102727
0.101497
0.100266
0.0990334
0.0977938
0.0965598
0.0953339
0.0941192
0.0929229
0.091753
0.0906104
0.0894987
0.0884322
0.0874058
0.0864321
0.0855134
0.0846583
0.0838732
0.0831674
0.0825567
0.27115
0.267818
0.264624
0.261556
0.258601
0.255742
0.252963
0.25026
0.24763
0.245069
0.242574
0.240145
0.237777
0.23547
0.233222
0.23103
0.228893
0.226809
0.224777
0.222795
0.220861
0.218974
0.217132
0.215334
0.213579
0.211865
0.210192
0.208557
0.206961
0.205402
0.203879
0.202391
0.200937
0.199517
0.198129
0.196773
0.195448
0.194154
0.19289
0.191651
0.190433
0.189233
0.188051
0.186883
0.185726
0.184577
0.183429
0.182271
0.181085
0.179833
0.269213
0.26306
0.25718
0.25155
0.246163
0.241011
0.236088
0.23138
0.226872
0.222553
0.21841
0.214435
0.210616
0.206945
0.203413
0.200014
0.196739
0.193581
0.190536
0.187595
0.184754
0.182008
0.179352
0.176781
0.174291
0.171878
0.169539
0.16727
0.165068
0.16293
0.160852
0.158832
0.156868
0.154955
0.153091
0.151273
0.149498
0.147763
0.146066
0.144408
0.142792
0.141217
0.139682
0.138183
0.13672
0.135291
0.133893
0.132524
0.131179
0.129855
0.269204
0.263028
0.257108
0.25144
0.246012
0.240813
0.235828
0.231047
0.226455
0.222043
0.2178
0.213717
0.209784
0.205993
0.202338
0.198811
0.195406
0.192115
0.188934
0.185858
0.18288
0.179996
0.177202
0.174494
0.171867
0.169318
0.166844
0.164442
0.162109
0.159841
0.157637
0.155494
0.153408
0.151379
0.149403
0.14748
0.145607
0.143781
0.142003
0.140269
0.138579
0.136932
0.135326
0.133759
0.132232
0.130743
0.129291
0.127876
0.126496
0.12515
0.269204
0.263073
0.257206
0.251589
0.246208
0.241048
0.236096
0.231338
0.226765
0.222366
0.218131
0.214051
0.210119
0.206327
0.202668
0.199135
0.195722
0.192423
0.189232
0.186145
0.183155
0.180259
0.177452
0.174731
0.17209
0.169528
0.16704
0.164624
0.162277
0.159996
0.157778
0.155621
0.153523
0.15148
0.149492
0.147556
0.14567
0.143832
0.142041
0.140295
0.138593
0.136933
0.135315
0.133737
0.132198
0.130697
0.129233
0.127806
0.126414
0.125057
0.269204
0.263074
0.257204
0.251581
0.246191
0.241021
0.236059
0.231293
0.226714
0.222309
0.218071
0.21399
0.210057
0.206266
0.202609
0.199079
0.195669
0.192373
0.189187
0.186104
0.183119
0.180228
0.177425
0.174709
0.172073
0.169515
0.167032
0.164621
0.162278
0.160001
0.157787
0.155634
0.153539
0.1515
0.149515
0.147582
0.145699
0.143864
0.142075
0.140331
0.138631
0.136972
0.135355
0.133777
0.132239
0.130737
0.129273
0.127844
0.126449
0.125088
0.269204
0.263077
0.257215
0.251601
0.246222
0.241064
0.236114
0.23136
0.226791
0.222397
0.218167
0.214094
0.210168
0.206382
0.20273
0.199203
0.195796
0.192503
0.189318
0.186235
0.18325
0.180359
0.177556
0.174838
0.172202
0.169642
0.167158
0.164744
0.162399
0.16012
0.157904
0.155748
0.153651
0.15161
0.149622
0.147686
0.1458
0.143961
0.142169
0.140422
0.138718
0.137055
0.135434
0.133852
0.132308
0.130801
0.129331
0.127895
0.126494
0.125125
0.269204
0.263078
0.257217
0.251604
0.246225
0.241066
0.236114
0.231357
0.226785
0.222388
0.218155
0.214078
0.210149
0.206361
0.202705
0.199177
0.195768
0.192473
0.189287
0.186204
0.183218
0.180326
0.177524
0.174806
0.172169
0.169611
0.167126
0.164714
0.162369
0.160091
0.157876
0.155721
0.153625
0.151584
0.149597
0.147662
0.145776
0.143939
0.142147
0.1404
0.138696
0.137034
0.135413
0.13383
0.132286
0.130778
0.129306
0.127868
0.126464
0.125091
0.269204
0.263078
0.257219
0.251607
0.24623
0.241073
0.236124
0.23137
0.226801
0.222407
0.218177
0.214103
0.210178
0.206392
0.20274
0.199214
0.195807
0.192515
0.18933
0.186248
0.183264
0.180373
0.177571
0.174854
0.172217
0.169659
0.167174
0.164761
0.162417
0.160138
0.157922
0.155766
0.153669
0.151627
0.149639
0.147702
0.145815
0.143975
0.142181
0.140432
0.138726
0.137061
0.135436
0.13385
0.132301
0.130789
0.129312
0.127869
0.126459
0.12508
0.269204
0.263079
0.257219
0.251608
0.246232
0.241075
0.236126
0.231372
0.226803
0.222407
0.218177
0.214102
0.210176
0.206389
0.202735
0.199208
0.1958
0.192506
0.18932
0.186237
0.183252
0.18036
0.177557
0.174839
0.172202
0.169643
0.167158
0.164744
0.162399
0.16012
0.157904
0.155748
0.15365
0.151608
0.149619
0.147682
0.145794
0.143954
0.14216
0.14041
0.138702
0.137036
0.13541
0.133822
0.132272
0.130757
0.129278
0.127831
0.126417
0.125034
0.269204
0.263079
0.257219
0.251609
0.246233
0.241076
0.236128
0.231374
0.226805
0.222411
0.218181
0.214107
0.210181
0.206395
0.202742
0.199215
0.195808
0.192515
0.18933
0.186247
0.183262
0.180371
0.177568
0.17485
0.172213
0.169653
0.167169
0.164755
0.16241
0.16013
0.157913
0.155757
0.153659
0.151616
0.149626
0.147688
0.145799
0.143957
0.142162
0.14041
0.138701
0.137033
0.135404
0.133814
0.132261
0.130743
0.129259
0.127808
0.126389
0.125001
0.269204
0.263079
0.257219
0.251609
0.246232
0.241076
0.236127
0.231374
0.226805
0.22241
0.218181
0.214107
0.210181
0.206395
0.202742
0.199215
0.195808
0.192515
0.189329
0.186247
0.183261
0.180369
0.177566
0.174848
0.172211
0.169651
0.167166
0.164752
0.162406
0.160126
0.157909
0.155752
0.153653
0.151609
0.149619
0.14768
0.14579
0.143947
0.14215
0.140397
0.138687
0.137017
0.135386
0.133793
0.132237
0.130716
0.129229
0.127774
0.12635
0.124957
0.269204
0.263079
0.257219
0.251608
0.246231
0.241075
0.236126
0.231372
0.226802
0.222407
0.218177
0.214102
0.210176
0.206389
0.202735
0.199208
0.1958
0.192506
0.189319
0.186236
0.18325
0.180357
0.177553
0.174834
0.172196
0.169636
0.16715
0.164736
0.16239
0.160109
0.157892
0.155734
0.153635
0.15159
0.149599
0.14766
0.145769
0.143926
0.142128
0.140374
0.138662
0.136991
0.135359
0.133764
0.132206
0.130682
0.129192
0.127734
0.126306
0.124909
0.269204
0.263078
0.257218
0.251607
0.24623
0.241073
0.236123
0.23137
0.226801
0.222406
0.218177
0.214103
0.210178
0.206392
0.20274
0.199214
0.195807
0.192513
0.189328
0.186245
0.18326
0.180367
0.177564
0.174845
0.172207
0.169647
0.167161
0.164747
0.1624
0.160119
0.157901
0.155743
0.153642
0.151597
0.149605
0.147664
0.145771
0.143927
0.142127
0.140371
0.138657
0.136984
0.135349
0.133751
0.132189
0.130662
0.129167
0.127704
0.126271
0.124868
0.269204
0.263078
0.257217
0.251604
0.246225
0.241065
0.236113
0.231357
0.226785
0.222387
0.218154
0.214078
0.210149
0.206361
0.202706
0.199177
0.195767
0.192472
0.189284
0.1862
0.183213
0.180319
0.177515
0.174795
0.172156
0.169596
0.16711
0.164695
0.162348
0.160067
0.157849
0.155691
0.15359
0.151545
0.149553
0.147612
0.14572
0.143875
0.142075
0.14032
0.138605
0.136931
0.135296
0.133697
0.132134
0.130605
0.129108
0.127643
0.126207
0.1248
0.269204
0.263077
0.257215
0.251601
0.246221
0.241063
0.236113
0.231359
0.22679
0.222396
0.218166
0.214093
0.210168
0.206382
0.20273
0.199203
0.195795
0.192501
0.189314
0.18623
0.183243
0.180349
0.177544
0.174824
0.172184
0.169623
0.167135
0.164719
0.162371
0.160088
0.157868
0.155708
0.153605
0.151558
0.149564
0.14762
0.145726
0.143878
0.142076
0.140317
0.1386
0.136923
0.135284
0.133681
0.132114
0.13058
0.129078
0.127606
0.126165
0.124751
0.269204
0.263074
0.257204
0.251581
0.246191
0.24102
0.236058
0.231292
0.226712
0.222308
0.21807
0.213989
0.210057
0.206266
0.202609
0.199078
0.195668
0.192371
0.189183
0.186098
0.183111
0.180217
0.177412
0.174693
0.172054
0.169494
0.167008
0.164593
0.162246
0.159965
0.157747
0.155588
0.153487
0.151442
0.149449
0.147507
0.145614
0.143768
0.141968
0.14021
0.138494
0.136818
0.13518
0.133577
0.13201
0.130476
0.128973
0.127501
0.126058
0.124642
0.269204
0.263073
0.257206
0.251589
0.246208
0.241047
0.236094
0.231337
0.226764
0.222364
0.21813
0.214051
0.210119
0.206327
0.202668
0.199135
0.195721
0.19242
0.189227
0.186137
0.183145
0.180246
0.177436
0.174712
0.172068
0.169503
0.167012
0.164592
0.162241
0.159955
0.157732
0.155569
0.153463
0.151414
0.149417
0.147471
0.145575
0.143726
0.141922
0.140162
0.138443
0.136765
0.135124
0.13352
0.131951
0.130416
0.128914
0.127443
0.126003
0.124593
0.269203
0.263028
0.257107
0.251439
0.246011
0.240811
0.235826
0.231045
0.226453
0.222041
0.217799
0.213716
0.209783
0.205993
0.202338
0.198811
0.195404
0.192113
0.18893
0.185852
0.182871
0.179985
0.177188
0.174478
0.171848
0.169298
0.166822
0.164418
0.162082
0.159813
0.157607
0.155461
0.153373
0.151342
0.149364
0.147438
0.145563
0.143735
0.141954
0.140218
0.138526
0.136876
0.135267
0.133697
0.132168
0.130677
0.129225
0.127814
0.126447
0.125129
0.269212
0.263057
0.257177
0.251546
0.246158
0.241006
0.236083
0.231375
0.226868
0.22255
0.218409
0.214434
0.210617
0.206948
0.203418
0.200019
0.196745
0.193589
0.190544
0.187604
0.184764
0.18202
0.179365
0.176797
0.174312
0.171905
0.169573
0.167313
0.165122
0.162997
0.160935
0.158935
0.156993
0.155109
0.153279
0.151503
0.14978
0.148108
0.146486
0.144913
0.143389
0.141915
0.140489
0.139114
0.13779
0.136521
0.135313
0.134175
0.133123
0.132192
0.271153
0.267819
0.264623
0.261554
0.258598
0.255738
0.252959
0.250256
0.247625
0.245064
0.242569
0.24014
0.237772
0.235465
0.233217
0.231024
0.228886
0.226801
0.224767
0.222782
0.220845
0.218954
0.217108
0.215305
0.213545
0.211826
0.210146
0.208504
0.206899
0.205331
0.203797
0.202297
0.200829
0.199393
0.197987
0.19661
0.195261
0.193939
0.192643
0.191371
0.190122
0.188895
0.187688
0.1865
0.185329
0.184174
0.183033
0.181903
0.180781
0.179664
0.127853
0.0668253
0.0493746
0.0468538
0.0458389
0.0455007
0.0448272
0.0443979
0.0438147
0.0433201
0.042813
0.0422643
0.0418309
0.041223
0.0408646
0.0401851
0.0401602
0.041475
0.0553046
0.107119
0.128
0.0669711
0.0495463
0.0470339
0.0460217
0.0456811
0.0450076
0.044576
0.0439923
0.0434956
0.0429875
0.042437
0.0420023
0.0413931
0.0410333
0.0403528
0.0403268
0.0416434
0.0554707
0.107245
0.128134
0.0671154
0.0497177
0.0472146
0.0462052
0.0458621
0.0451886
0.0447546
0.0441704
0.0436717
0.0431628
0.0426107
0.042175
0.0415647
0.0412034
0.0405223
0.040495
0.0418129
0.0556252
0.107364
0.128283
0.067254
0.0498893
0.0473966
0.0463901
0.0460446
0.0453712
0.044935
0.0443503
0.0438498
0.0433402
0.0427867
0.04235
0.0417387
0.041376
0.0406944
0.0406654
0.0419807
0.0557721
0.107487
0.12843
0.0673906
0.0500613
0.0475795
0.046576
0.0462282
0.0455551
0.0451168
0.044532
0.0440297
0.0435196
0.0429648
0.0425272
0.0419149
0.0415509
0.0408687
0.0408378
0.0421489
0.0559168
0.107613
0.128577
0.0675269
0.0502342
0.0477636
0.0467632
0.0464131
0.0457405
0.0453001
0.0447153
0.0442115
0.043701
0.0431451
0.0427067
0.0420935
0.0417282
0.0410456
0.0410125
0.0423183
0.0560623
0.107742
0.128723
0.0676638
0.0504085
0.0479489
0.0469517
0.0465994
0.0459275
0.0454852
0.0449005
0.0443952
0.0438845
0.0433275
0.0428883
0.0422744
0.0419078
0.0412246
0.0411893
0.0424893
0.0562095
0.107873
0.128871
0.0678017
0.0505843
0.0481355
0.0471416
0.0467872
0.046116
0.0456719
0.0450874
0.0445808
0.0440699
0.0435118
0.0430719
0.0424573
0.0420895
0.0414056
0.041368
0.0426616
0.0563581
0.108006
0.129018
0.0679409
0.0507617
0.0483237
0.0473331
0.0469765
0.0463061
0.0458601
0.045276
0.0447681
0.0442569
0.0436979
0.0432573
0.0426419
0.042273
0.0415884
0.0415484
0.0428352
0.0565074
0.10814
0.129167
0.0680813
0.0509407
0.0485132
0.047526
0.0471672
0.0464977
0.0460499
0.0454661
0.0449568
0.0444455
0.0438853
0.043444
0.042828
0.0424578
0.0417726
0.0417301
0.0430097
0.0566567
0.108275
0.129317
0.0682229
0.0511211
0.0487042
0.0477203
0.0473593
0.0466906
0.046241
0.0456575
0.0451467
0.0446352
0.044074
0.043632
0.0430153
0.0426439
0.041958
0.0419131
0.0431851
0.0568053
0.108412
0.129468
0.0683654
0.0513029
0.0488967
0.047916
0.0475528
0.0468849
0.0464333
0.0458501
0.045338
0.0448261
0.0442639
0.0438211
0.0432037
0.0428311
0.0421446
0.0420972
0.0433612
0.056953
0.108549
0.129619
0.0685091
0.0514861
0.0490906
0.0481133
0.0477477
0.0470806
0.0466271
0.0460441
0.0455304
0.0450183
0.0444549
0.0440114
0.0433932
0.0430196
0.0423324
0.0422825
0.0435382
0.0571003
0.108688
0.129772
0.0686542
0.0516709
0.049286
0.0483121
0.0479442
0.0472779
0.0468223
0.0462395
0.0457243
0.0452119
0.0446474
0.0442031
0.0435842
0.0432094
0.0425215
0.0424692
0.0437165
0.0572476
0.108828
0.129926
0.0688014
0.0518574
0.0494834
0.0485129
0.0481426
0.0474771
0.0470194
0.0464368
0.04592
0.0454072
0.0448415
0.0443965
0.0437768
0.0434008
0.0427123
0.0426574
0.0438962
0.0573959
0.10897
0.130081
0.0689512
0.052046
0.0496829
0.0487158
0.0483431
0.0476784
0.0472186
0.0466361
0.0461177
0.0456045
0.0450376
0.0445918
0.0439713
0.043594
0.0429048
0.0428474
0.0440777
0.0575459
0.109113
0.130237
0.0691042
0.0522369
0.0498846
0.0489211
0.048546
0.047882
0.0474202
0.0468377
0.0463176
0.045804
0.0452359
0.0447892
0.0441679
0.0437892
0.0430993
0.0430392
0.0442614
0.0576985
0.109259
0.130396
0.0692606
0.0524303
0.0500888
0.0491288
0.0487513
0.0480881
0.0476241
0.0470417
0.0465199
0.0460058
0.0454365
0.0449888
0.0443667
0.0439866
0.0432959
0.0432332
0.0444474
0.0578541
0.109406
0.130557
0.0694199
0.0526263
0.0502955
0.0493391
0.0489591
0.0482966
0.0478304
0.047248
0.0467246
0.04621
0.0456394
0.0451908
0.0445677
0.0441861
0.0434947
0.0434292
0.0446356
0.0580126
0.109555
0.130721
0.0695818
0.0528246
0.0505045
0.0495517
0.0491691
0.0485074
0.0480389
0.0474567
0.0469315
0.0464164
0.0458446
0.0453949
0.0447709
0.0443876
0.0436955
0.0436272
0.0448261
0.0581739
0.109706
0.130888
0.0697455
0.0530251
0.0507156
0.0497664
0.0493813
0.0487203
0.0482496
0.0476674
0.0471405
0.0466249
0.0460518
0.045601
0.044976
0.0445911
0.0438982
0.0438272
0.0450187
0.0583373
0.109859
0.131056
0.0699102
0.0532275
0.0509287
0.0499831
0.0495953
0.0489351
0.0484622
0.0478801
0.0473514
0.0468352
0.0462608
0.0458088
0.045183
0.0447964
0.0441027
0.0440289
0.045213
0.0585023
0.110014
0.131227
0.0700754
0.0534316
0.0511434
0.0502015
0.049811
0.0491516
0.0486764
0.0480944
0.0475639
0.0470472
0.0464714
0.0460183
0.0453915
0.0450034
0.044309
0.0442324
0.0454089
0.0586682
0.11017
0.131399
0.0702404
0.0536371
0.0513596
0.0504213
0.0500282
0.0493696
0.0488921
0.0483101
0.0477779
0.0472606
0.0466835
0.0462294
0.0456017
0.0452119
0.0445168
0.0444374
0.0456064
0.0588346
0.110327
0.131571
0.0704051
0.053844
0.0515771
0.0506426
0.0502467
0.049589
0.0491092
0.0485273
0.0479933
0.0474755
0.0468971
0.0464419
0.0458134
0.045422
0.0447263
0.0446441
0.0458052
0.0590014
0.110486
0.131744
0.0705694
0.0540521
0.051796
0.0508652
0.0504666
0.0498097
0.0493277
0.0487459
0.0482103
0.0476919
0.0471122
0.0466559
0.0460266
0.0456338
0.0449375
0.0448525
0.0460055
0.0591688
0.110646
0.131918
0.0707336
0.0542615
0.0520161
0.0510891
0.0506879
0.050032
0.0495477
0.0489661
0.0484287
0.0479099
0.047329
0.0468717
0.0462416
0.0458473
0.0451505
0.0450627
0.0462075
0.059337
0.110809
0.132092
0.0708983
0.0544723
0.0522378
0.0513147
0.0509108
0.0502559
0.0497694
0.049188
0.0486489
0.0481296
0.0475475
0.0470893
0.0464585
0.0460628
0.0453654
0.0452748
0.0464113
0.0595066
0.110973
0.132266
0.0710641
0.0546849
0.0524612
0.0515419
0.0511355
0.0504815
0.0499929
0.0494116
0.0488709
0.0483512
0.0477681
0.0473089
0.0466775
0.0462803
0.0455824
0.045489
0.0466172
0.059678
0.111139
0.132441
0.0712315
0.0548994
0.0526864
0.0517711
0.0513621
0.0507092
0.0502183
0.0496373
0.049095
0.0485749
0.0479908
0.0475307
0.0468987
0.0465001
0.0458017
0.0457055
0.0468253
0.0598518
0.111308
0.132617
0.0714009
0.055116
0.0529137
0.0520024
0.0515907
0.0509389
0.0504459
0.0498652
0.0493214
0.0488009
0.0482159
0.0477549
0.0471222
0.0467222
0.0460233
0.0459243
0.0470359
0.0600285
0.111478
0.132794
0.0715726
0.0553348
0.0531432
0.0522359
0.0518216
0.0511709
0.0506758
0.0500954
0.0495501
0.0490293
0.0484433
0.0479814
0.0473482
0.0469468
0.0462475
0.0461455
0.047249
0.0602081
0.111651
0.132973
0.0717465
0.0555559
0.0533751
0.0524718
0.0520548
0.0514052
0.050908
0.050328
0.0497812
0.0492602
0.0486733
0.0482105
0.0475767
0.0471738
0.0464741
0.0463693
0.0474648
0.0603909
0.111826
0.133154
0.0719228
0.0557793
0.0536092
0.05271
0.0522904
0.0516419
0.0511426
0.050563
0.0500148
0.0494935
0.0489057
0.048442
0.0478076
0.0474033
0.0467032
0.0465955
0.0476831
0.0605766
0.112003
0.133337
0.0721011
0.0560051
0.0538457
0.0529506
0.0525284
0.0518811
0.0513797
0.0508005
0.0502508
0.0497292
0.0491405
0.0486759
0.048041
0.0476352
0.0469347
0.0468241
0.047904
0.0607652
0.112183
0.133521
0.0722814
0.0562332
0.0540846
0.0531936
0.0527688
0.0521227
0.0516192
0.0510404
0.0504892
0.0499673
0.0493777
0.0489121
0.0482767
0.0478695
0.0471686
0.0470551
0.0481273
0.0609563
0.112364
0.133708
0.0724635
0.0564636
0.0543259
0.0534391
0.0530116
0.0523667
0.051861
0.0512826
0.05073
0.0502077
0.0496172
0.0491507
0.0485148
0.0481061
0.0474049
0.0472885
0.0483531
0.0611497
0.112547
0.133895
0.0726474
0.0566964
0.0545696
0.053687
0.0532567
0.0526131
0.0521052
0.0515272
0.0509731
0.0504505
0.0498591
0.0493917
0.0487552
0.048345
0.0476435
0.0475241
0.0485811
0.0613451
0.112732
0.134085
0.0728331
0.0569315
0.0548156
0.0539372
0.0535042
0.0528618
0.0523518
0.0517741
0.0512185
0.0506955
0.0501032
0.0496348
0.0489979
0.0485861
0.0478843
0.0477619
0.0488114
0.0615422
0.112919
0.134276
0.0730203
0.0571689
0.0550638
0.0541897
0.053754
0.0531128
0.0526006
0.0520233
0.0514661
0.0509429
0.0503496
0.0498803
0.0492428
0.0488295
0.0481273
0.048002
0.0490439
0.0617409
0.113109
0.134468
0.073209
0.0574085
0.0553144
0.0544446
0.0540061
0.0533661
0.0528518
0.0522748
0.0517161
0.0511924
0.0505983
0.0501279
0.04949
0.0490751
0.0483726
0.0482443
0.0492786
0.0619412
0.1133
0.134662
0.0733993
0.0576504
0.0555673
0.0547018
0.0542605
0.0536217
0.0531053
0.0525286
0.0519684
0.0514443
0.0508493
0.0503779
0.0497394
0.0493229
0.0486202
0.0484888
0.0495156
0.0621431
0.113493
0.134857
0.073591
0.0578946
0.0558224
0.0549613
0.0545173
0.0538798
0.0533611
0.0527847
0.0522231
0.0516986
0.0511026
0.0506301
0.0499912
0.0495731
0.0488701
0.0487357
0.0497548
0.0623467
0.113688
0.135054
0.0737843
0.0581411
0.0560799
0.0552232
0.0547764
0.0541401
0.0536193
0.0530433
0.0524801
0.0519551
0.0513583
0.0508848
0.0502453
0.0498256
0.0491224
0.048985
0.0499965
0.0625523
0.113885
0.135253
0.0739793
0.05839
0.0563398
0.0554875
0.0550379
0.0544029
0.0538799
0.0533042
0.0527395
0.0522142
0.0516164
0.0511419
0.050502
0.0500807
0.0493773
0.0492368
0.0502407
0.0627601
0.114085
0.135452
0.074176
0.0586412
0.056602
0.0557542
0.0553018
0.0546682
0.054143
0.0535677
0.0530015
0.0524758
0.0518772
0.0514016
0.0507613
0.0503384
0.0496349
0.0494913
0.0504876
0.0629705
0.114287
0.135653
0.0743744
0.0588949
0.0568667
0.0560233
0.0555682
0.0549359
0.0544087
0.0538337
0.0532662
0.0527401
0.0521407
0.0516641
0.0510234
0.0505989
0.0498952
0.0497485
0.0507374
0.0631836
0.114491
0.135856
0.0745746
0.059151
0.0571338
0.056295
0.0558372
0.0552063
0.054677
0.0541025
0.0535335
0.0530071
0.052407
0.0519294
0.0512883
0.0508622
0.0501583
0.0500086
0.0509901
0.0633999
0.114698
0.13606
0.0747766
0.0594096
0.0574034
0.0565693
0.0561088
0.0554793
0.054948
0.0543741
0.0538038
0.0532771
0.0526762
0.0521976
0.0515562
0.0511284
0.0504245
0.0502717
0.051246
0.0636194
0.114908
0.136266
0.0749807
0.0596708
0.0576757
0.0568462
0.0563831
0.0557552
0.055222
0.0546485
0.054077
0.05355
0.0529484
0.0524688
0.0518272
0.0513977
0.0506937
0.0505378
0.051505
0.0638424
0.11512
0.136473
0.075187
0.0599347
0.0579508
0.057126
0.0566603
0.056034
0.0554988
0.054926
0.0543532
0.053826
0.0532237
0.0527432
0.0521012
0.0516702
0.0509661
0.0508071
0.0517673
0.064069
0.115335
0.136682
0.0753956
0.0602015
0.0582287
0.0574087
0.0569404
0.0563157
0.0557787
0.0552065
0.0546325
0.054105
0.0535022
0.0530206
0.0523785
0.0519458
0.0512417
0.0510796
0.0520331
0.0642994
0.115552
0.136893
0.0756068
0.0604712
0.0585096
0.0576944
0.0572236
0.0566005
0.0560617
0.05549
0.0549149
0.0543872
0.0537838
0.0533013
0.052659
0.0522246
0.0515207
0.0513554
0.0523022
0.0645336
0.115773
0.137105
0.0758206
0.0607439
0.0587935
0.0579832
0.0575098
0.0568884
0.0563477
0.0557767
0.0552005
0.0546726
0.0540686
0.0535852
0.0529427
0.0525068
0.0518029
0.0516346
0.0525748
0.0647716