/*--------------------------------*- C++ -*----------------------------------*\
  =========                 |
  \\      /  F ield         | OpenFOAM: The Open Source CFD Toolbox
   \\    /   O peration     | Website:  https://openfoam.org
    \\  /    A nd           | Version:  8
     \\/     M anipulation  |
\*---------------------------------------------------------------------------*/
FoamFile
{
    version     2.0;
    format      ascii;
    class       volScalarField;
    location    "900";
    object      epsilon;
}
// * * * * * * * * * * * * * * * * * * * * * * * * * * * * * * * * * * * * * //

dimensions      [0 2 -3 0 0 0 0];

internalField   nonuniform List<scalar> 
8400
(
0.112217
0.108478
0.104848
0.101321
0.0978889
0.0945483
0.0912957
0.0881293
0.085048
0.0820512
0.0791387
0.0763101
0.0735648
0.0709024
0.0683217
0.065822
0.0634017
0.0610596
0.058794
0.0566036
0.0544866
0.0524413
0.0504661
0.0485593
0.0467189
0.0449433
0.0432306
0.0415792
0.0399873
0.0384534
0.036976
0.0355534
0.0341843
0.032867
0.0316003
0.0303828
0.0292132
0.0280903
0.0270129
0.0259799
0.0249903
0.0240429
0.0231369
0.0222714
0.0214456
0.020659
0.0199109
0.0192011
0.0185294
0.0178958
0.0109909
0.0109958
0.0110011
0.0110067
0.0110128
0.0110193
0.0110263
0.0110337
0.0110415
0.0110497
0.0110583
0.0110674
0.0110768
0.0110866
0.0110968
0.0111073
0.0111182
0.0111293
0.0111406
0.0111522
0.0111641
0.0111761
0.0111884
0.011201
0.0112137
0.0112265
0.0112395
0.0112526
0.0112658
0.0112791
0.0112925
0.0113059
0.0113194
0.0113328
0.0113463
0.0113596
0.0113729
0.0113861
0.0113991
0.0114119
0.0114243
0.0114364
0.011448
0.0114591
0.0114695
0.011479
0.0114875
0.0114947
0.0115003
0.0115038
0.0113215
0.0113311
0.0113409
0.0113507
0.0113607
0.0113708
0.0113811
0.0113915
0.0114021
0.0114128
0.0114236
0.0114346
0.0114458
0.0114571
0.0114685
0.0114801
0.0114917
0.0115035
0.0115153
0.0115272
0.0115391
0.0115512
0.0115633
0.0115756
0.0115879
0.0116002
0.0116126
0.0116249
0.0116373
0.0116498
0.0116622
0.0116747
0.0116872
0.0116996
0.0117121
0.0117244
0.0117368
0.0117491
0.0117612
0.0117733
0.0117852
0.0117968
0.0118082
0.0118193
0.01183
0.0118402
0.0118498
0.0118585
0.0118662
0.0118724
0.0114288
0.0114407
0.0114527
0.0114646
0.0114764
0.0114882
0.0115
0.0115116
0.0115233
0.0115349
0.0115465
0.0115581
0.0115698
0.0115814
0.0115932
0.0116049
0.0116167
0.0116285
0.0116403
0.0116521
0.011664
0.0116759
0.011688
0.0117001
0.0117122
0.0117244
0.0117367
0.0117489
0.0117612
0.0117736
0.011786
0.0117986
0.0118112
0.0118239
0.0118366
0.0118494
0.0118623
0.0118752
0.0118883
0.0119014
0.0119146
0.0119279
0.0119413
0.0119547
0.0119682
0.0119816
0.0119949
0.0120081
0.0120209
0.0120332
0.0113182
0.011335
0.0113516
0.0113679
0.0113838
0.0113994
0.0114147
0.0114296
0.0114442
0.0114586
0.0114728
0.0114868
0.0115007
0.0115146
0.0115283
0.011542
0.0115557
0.0115693
0.0115828
0.0115964
0.0116099
0.0116236
0.0116373
0.0116511
0.0116649
0.0116788
0.0116928
0.0117067
0.0117208
0.0117351
0.0117494
0.011764
0.0117786
0.0117934
0.0118083
0.0118235
0.0118389
0.0118545
0.0118705
0.0118867
0.0119033
0.0119202
0.0119375
0.0119553
0.0119734
0.011992
0.012011
0.0120305
0.0120502
0.0120702
0.011044
0.0110686
0.0110931
0.0111171
0.0111403
0.0111626
0.0111841
0.0112048
0.0112248
0.0112443
0.0112632
0.0112817
0.0112999
0.0113179
0.0113356
0.0113531
0.0113705
0.0113877
0.0114049
0.011422
0.0114391
0.0114562
0.0114735
0.0114908
0.0115082
0.0115256
0.0115431
0.0115607
0.0115785
0.0115965
0.0116148
0.0116332
0.0116518
0.0116706
0.0116898
0.0117093
0.0117292
0.0117496
0.0117704
0.0117918
0.0118138
0.0118364
0.0118597
0.0118836
0.0119083
0.0119337
0.01196
0.011987
0.0120149
0.0120433
0.0106469
0.0106733
0.0107017
0.0107312
0.010761
0.0107906
0.0108196
0.0108479
0.0108755
0.0109024
0.0109287
0.0109544
0.0109795
0.0110043
0.0110287
0.0110528
0.0110766
0.0111001
0.0111235
0.0111469
0.0111702
0.0111937
0.0112172
0.0112408
0.0112644
0.011288
0.0113118
0.0113358
0.01136
0.0113846
0.0114093
0.0114344
0.0114597
0.0114854
0.0115115
0.0115382
0.0115655
0.0115933
0.0116219
0.0116512
0.0116814
0.0117124
0.0117443
0.0117771
0.0118109
0.0118455
0.0118811
0.0119175
0.0119548
0.0119926
0.0104347
0.0104081
0.0103921
0.0103871
0.0103912
0.0104023
0.0104186
0.0104388
0.0104619
0.0104871
0.0105139
0.0105419
0.0105707
0.0106002
0.0106302
0.0106605
0.0106912
0.010722
0.0107532
0.0107847
0.0108166
0.0108488
0.0108813
0.010914
0.0109469
0.0109799
0.0110133
0.0110471
0.0110813
0.0111158
0.0111507
0.0111859
0.0112215
0.0112576
0.0112944
0.0113319
0.0113702
0.0114092
0.0114491
0.0114899
0.0115316
0.0115741
0.0116176
0.0116621
0.0117074
0.0117535
0.0118004
0.0118476
0.0118958
0.0119443
0.0111567
0.0109991
0.010859
0.0107427
0.0106484
0.010573
0.010514
0.0104688
0.0104354
0.0104121
0.0103976
0.0103904
0.0103897
0.0103945
0.010404
0.0104175
0.0104346
0.010455
0.0104785
0.0105049
0.0105339
0.0105651
0.0105982
0.0106329
0.010669
0.0107067
0.0107458
0.0107863
0.0108282
0.0108712
0.0109149
0.0109594
0.0110047
0.0110512
0.011099
0.0111481
0.0111982
0.0112491
0.0113012
0.0113543
0.0114082
0.0114627
0.0115184
0.0115749
0.0116315
0.0116887
0.0117461
0.0118025
0.0118598
0.0119176
0.0125671
0.0123964
0.0122376
0.0120871
0.0119453
0.0118129
0.0116898
0.0115762
0.0114721
0.0113773
0.0112917
0.011215
0.011147
0.011087
0.011034
0.0109873
0.0109471
0.0109138
0.0108877
0.0108687
0.0108561
0.010849
0.0108461
0.0108468
0.0108511
0.0108596
0.0108729
0.0108913
0.0109141
0.0109401
0.0109677
0.0109966
0.0110279
0.0110637
0.0111045
0.0111492
0.011196
0.0112444
0.0112955
0.0113493
0.0114039
0.0114588
0.011516
0.011576
0.0116356
0.011697
0.0117565
0.0118153
0.011873
0.0119314
0.0130996
0.0130247
0.0129554
0.0128899
0.0128266
0.0127648
0.0127037
0.0126435
0.0125841
0.0125256
0.0124678
0.0124107
0.0123546
0.0122997
0.0122458
0.0121926
0.01214
0.0120883
0.012038
0.0119898
0.0119442
0.0119012
0.0118603
0.0118207
0.0117822
0.0117451
0.0117104
0.0116789
0.0116511
0.0116267
0.0116049
0.0115854
0.0115687
0.0115564
0.01155
0.0115495
0.0115541
0.0115639
0.0115793
0.0116004
0.0116258
0.0116553
0.0116895
0.0117289
0.011771
0.0118169
0.0118628
0.0119096
0.0119551
0.0120038
0.0131387
0.0131048
0.0130713
0.0130382
0.0130053
0.0129726
0.0129401
0.0129077
0.0128755
0.0128434
0.0128115
0.0127798
0.0127482
0.0127167
0.0126854
0.0126541
0.012623
0.0125922
0.0125616
0.0125315
0.0125019
0.0124727
0.0124438
0.0124151
0.0123867
0.0123587
0.0123313
0.0123047
0.0122788
0.0122535
0.0122288
0.0122046
0.0121814
0.0121596
0.0121394
0.012121
0.0121042
0.0120892
0.0120766
0.0120664
0.0120589
0.0120544
0.0120536
0.0120567
0.0120629
0.0120737
0.0120882
0.0121063
0.0121268
0.0121533
0.0131498
0.0131281
0.0131065
0.013085
0.0130636
0.0130422
0.0130208
0.0129995
0.0129782
0.012957
0.0129358
0.0129146
0.0128934
0.0128722
0.012851
0.0128298
0.0128087
0.0127877
0.0127668
0.012746
0.0127253
0.0127047
0.0126841
0.0126636
0.0126431
0.0126229
0.0126028
0.0125829
0.0125633
0.0125437
0.0125243
0.0125051
0.0124862
0.0124679
0.0124502
0.0124331
0.0124164
0.0124002
0.0123849
0.0123704
0.0123571
0.0123451
0.012335
0.0123264
0.0123191
0.0123148
0.0123126
0.0123132
0.012317
0.0123238
0.0131558
0.0131403
0.0131247
0.0131091
0.0130935
0.0130777
0.013062
0.0130463
0.0130305
0.0130148
0.012999
0.0129831
0.0129672
0.0129512
0.0129353
0.0129193
0.0129034
0.0128876
0.0128717
0.0128559
0.0128401
0.0128243
0.0128084
0.0127925
0.0127767
0.012761
0.0127453
0.0127298
0.0127142
0.0126986
0.012683
0.0126676
0.0126523
0.0126374
0.0126227
0.012608
0.0125935
0.0125792
0.0125652
0.0125516
0.0125386
0.0125263
0.0125149
0.012504
0.0124937
0.0124852
0.0124778
0.012472
0.0124684
0.0124669
0.0131581
0.0131452
0.0131322
0.0131193
0.0131064
0.0130935
0.0130807
0.0130679
0.0130551
0.0130423
0.0130294
0.0130166
0.0130037
0.0129908
0.0129779
0.012965
0.0129522
0.0129395
0.0129268
0.0129141
0.0129013
0.0128886
0.0128758
0.0128631
0.0128504
0.0128378
0.0128252
0.0128127
0.0128001
0.0127875
0.0127749
0.0127625
0.0127503
0.0127382
0.0127262
0.0127142
0.0127022
0.0126903
0.0126788
0.0126675
0.0126564
0.0126456
0.0126353
0.0126251
0.0126152
0.0126065
0.0125982
0.0125911
0.0125845
0.012579
0.0131612
0.0131516
0.0131418
0.013132
0.0131222
0.0131123
0.0131025
0.0130926
0.0130827
0.0130727
0.0130627
0.0130526
0.0130425
0.0130324
0.0130223
0.0130121
0.013002
0.0129919
0.0129818
0.0129716
0.0129614
0.0129512
0.0129409
0.0129306
0.0129204
0.0129101
0.0128999
0.0128896
0.0128792
0.0128688
0.0128584
0.0128481
0.0128378
0.0128276
0.0128172
0.0128068
0.0127963
0.0127859
0.0127756
0.0127652
0.0127548
0.0127444
0.0127342
0.0127239
0.0127137
0.0127039
0.0126941
0.0126846
0.0126756
0.0126673
0.0131611
0.0131512
0.0131414
0.0131316
0.0131218
0.0131121
0.0131024
0.0130927
0.013083
0.0130733
0.0130636
0.0130539
0.0130441
0.0130344
0.0130247
0.013015
0.0130054
0.0129958
0.0129862
0.0129766
0.012967
0.0129574
0.0129478
0.0129382
0.0129287
0.0129193
0.0129098
0.0129003
0.0128908
0.0128814
0.012872
0.0128627
0.0128535
0.0128443
0.012835
0.0128258
0.0128167
0.0128078
0.0127989
0.0127902
0.0127815
0.012773
0.0127649
0.012757
0.0127496
0.0127424
0.012736
0.0127301
0.012725
0.0127209
0.0131643
0.0131578
0.0131514
0.013145
0.0131385
0.0131321
0.0131256
0.0131192
0.0131127
0.0131062
0.0130996
0.013093
0.0130865
0.0130799
0.0130733
0.0130667
0.0130602
0.0130536
0.013047
0.0130404
0.0130338
0.0130272
0.0130206
0.0130141
0.0130075
0.013001
0.0129944
0.0129878
0.0129812
0.0129746
0.0129681
0.0129616
0.012955
0.0129484
0.0129419
0.0129353
0.0129289
0.0129225
0.012916
0.0129096
0.0129031
0.0128969
0.0128909
0.0128847
0.0128788
0.0128728
0.0128672
0.0128619
0.0128568
0.0128521
0.0131724
0.0131738
0.0131748
0.0131755
0.0131759
0.0131759
0.0131756
0.0131749
0.0131739
0.0131727
0.013171
0.0131691
0.0131669
0.0131645
0.0131619
0.0131594
0.013157
0.0131547
0.0131528
0.0131511
0.0131498
0.0131489
0.0131486
0.0131482
0.013148
0.0131479
0.0131478
0.0131477
0.0131476
0.0131474
0.013147
0.0131462
0.013145
0.0131434
0.0131414
0.013139
0.0131359
0.0131322
0.0131279
0.013123
0.0131175
0.0131114
0.0131047
0.0130976
0.0130903
0.0130821
0.0130736
0.013065
0.0130559
0.0130465
0.186907
0.181239
0.174813
0.168519
0.16248
0.156686
0.15111
0.145722
0.140505
0.135454
0.13057
0.125857
0.121315
0.116941
0.112728
0.108667
0.104749
0.100966
0.097311
0.0937781
0.0903632
0.0870636
0.0838784
0.0808086
0.0778521
0.0750091
0.0722785
0.0696584
0.0671446
0.0647319
0.0624143
0.060186
0.0580413
0.0559749
0.0539821
0.0520589
0.0502026
0.0484116
0.0466849
0.0450226
0.0434261
0.0418969
0.0404352
0.0390431
0.0377247
0.03648
0.0353136
0.0342293
0.0332326
0.0323314
1.14672
1.10489
1.06577
1.02911
0.994597
0.961966
0.930952
0.901437
0.873323
0.846522
0.820957
0.796557
0.773256
0.750992
0.729707
0.709349
0.689866
0.671211
0.653342
0.636216
0.619797
0.604048
0.588937
0.574432
0.560503
0.547124
0.534267
0.521907
0.510022
0.498588
0.487585
0.476992
0.466792
0.456967
0.447502
0.438381
0.429591
0.421119
0.412954
0.405051
0.397381
0.389927
0.382672
0.375596
0.368676
0.361885
0.355182
0.348506
0.34175
0.334713
1.12227
1.04695
0.978232
0.915331
0.857743
0.804985
0.756646
0.712269
0.671453
0.633843
0.599124
0.567018
0.53728
0.509691
0.484055
0.460199
0.437966
0.417218
0.39783
0.37969
0.362697
0.346759
0.331794
0.317728
0.304491
0.292023
0.280265
0.269166
0.258678
0.248758
0.239365
0.230461
0.222014
0.21399
0.206359
0.199094
0.192167
0.185555
0.179235
0.173208
0.167467
0.161994
0.156773
0.151787
0.147021
0.14246
0.138091
0.133898
0.129865
0.125972
1.12216
1.0466
0.977438
0.914166
0.856206
0.803041
0.754199
0.70925
0.667814
0.629553
0.594166
0.561389
0.530983
0.502738
0.476462
0.451988
0.429163
0.407849
0.387924
0.369277
0.351807
0.335424
0.320044
0.305592
0.292
0.279205
0.267149
0.255781
0.245051
0.234915
0.225333
0.216267
0.207683
0.199549
0.191838
0.184524
0.177581
0.170988
0.164722
0.158765
0.153099
0.147706
0.142572
0.137682
0.133022
0.12858
0.124345
0.120306
0.116453
0.112776
1.12216
1.04713
0.97856
0.915803
0.858264
0.805409
0.756775
0.711949
0.670567
0.632308
0.596884
0.564038
0.533543
0.505192
0.478802
0.454205
0.431255
0.409814
0.389764
0.370992
0.3534
0.336898
0.321404
0.306841
0.293143
0.280247
0.268095
0.256634
0.245817
0.235599
0.22594
0.216801
0.208149
0.199953
0.192183
0.184812
0.177816
0.171171
0.164858
0.158855
0.153146
0.147713
0.14254
0.137614
0.132919
0.128445
0.124179
0.12011
0.116228
0.112524
1.12216
1.04715
0.978546
0.915716
0.858085
0.80514
0.756426
0.711537
0.670112
0.631828
0.596394
0.563553
0.533072
0.504744
0.478382
0.453818
0.430901
0.409497
0.389482
0.370746
0.353189
0.33672
0.321257
0.306725
0.293055
0.280184
0.268056
0.256618
0.245821
0.235621
0.225978
0.216855
0.208217
0.200032
0.192272
0.18491
0.177922
0.171284
0.164976
0.158978
0.153271
0.14784
0.142667
0.13774
0.133043
0.128565
0.124293
0.120217
0.116325
0.112609
1.12216
1.04719
0.978665
0.915934
0.85841
0.805571
0.756956
0.712155
0.670803
0.632578
0.597189
0.564379
0.533918
0.505599
0.479238
0.454669
0.431741
0.410321
0.390287
0.371529
0.353948
0.337455
0.321966
0.307408
0.293712
0.280815
0.268661
0.257197
0.246375
0.236151
0.226483
0.217336
0.208675
0.200468
0.192686
0.185302
0.178293
0.171635
0.165306
0.159288
0.153561
0.14811
0.142918
0.13797
0.133253
0.128754
0.12446
0.120362
0.116447
0.112706
1.12216
1.0472
0.97869
0.915968
0.858442
0.805592
0.756958
0.712133
0.670755
0.632502
0.597088
0.564256
0.533775
0.505441
0.479067
0.454488
0.431555
0.410131
0.390096
0.371339
0.353761
0.337272
0.321788
0.307236
0.293547
0.280657
0.268511
0.257054
0.24624
0.236023
0.226363
0.217223
0.208569
0.200368
0.192592
0.185215
0.17821
0.171556
0.165232
0.159216
0.153492
0.148043
0.142851
0.137903
0.133185
0.128684
0.124387
0.120283
0.116363
0.112614
1.12216
1.0472
0.978708
0.916003
0.858496
0.805667
0.757056
0.712253
0.670898
0.632667
0.597273
0.564459
0.533994
0.505673
0.47931
0.45474
0.431812
0.410392
0.390359
0.371602
0.354023
0.337531
0.322044
0.307487
0.293792
0.280897
0.268743
0.257279
0.246457
0.236232
0.226563
0.217414
0.20875
0.20054
0.192755
0.185367
0.178353
0.171688
0.165353
0.159327
0.153591
0.148129
0.142925
0.137964
0.133232
0.128716
0.124405
0.120285
0.116348
0.112582
1.12216
1.0472
0.978714
0.916015
0.858514
0.805688
0.757077
0.712272
0.670913
0.632676
0.597274
0.564451
0.533978
0.505648
0.479276
0.454697
0.431762
0.410336
0.390297
0.371536
0.353953
0.337458
0.321969
0.30741
0.293715
0.280819
0.268665
0.257201
0.246379
0.236155
0.226487
0.217339
0.208676
0.200467
0.192682
0.185295
0.17828
0.171616
0.16528
0.159253
0.153515
0.148051
0.142844
0.13788
0.133143
0.128622
0.124304
0.120178
0.116232
0.112458
1.12216
1.04721
0.978718
0.916022
0.858524
0.805702
0.757094
0.712294
0.670938
0.632705
0.597307
0.564488
0.534018
0.505691
0.479322
0.454746
0.431813
0.410388
0.390351
0.371591
0.354008
0.337514
0.322025
0.307466
0.293769
0.280872
0.268717
0.257252
0.246428
0.236201
0.22653
0.217379
0.208713
0.2005
0.192712
0.18532
0.178301
0.171632
0.165291
0.159257
0.153513
0.148042
0.142827
0.137854
0.133108
0.128577
0.124249
0.120111
0.116154
0.112367
1.12216
1.04721
0.978718
0.916022
0.858524
0.805702
0.757095
0.712294
0.670939
0.632705
0.597307
0.564487
0.534017
0.505689
0.479319
0.454742
0.431808
0.410382
0.390344
0.371583
0.354
0.337505
0.322015
0.307456
0.293759
0.280861
0.268705
0.257239
0.246413
0.236185
0.226513
0.217361
0.208693
0.200478
0.192687
0.185294
0.178272
0.171599
0.165254
0.159216
0.153468
0.147991
0.14277
0.13779
0.133036
0.128497
0.124159
0.120012
0.116045
0.112247
1.12216
1.0472
0.978715
0.916016
0.858515
0.80569
0.757079
0.712275
0.670915
0.632677
0.597275
0.56445
0.533975
0.505642
0.479268
0.454686
0.431749
0.41032
0.390278
0.371515
0.353931
0.337434
0.321943
0.307384
0.293686
0.280788
0.268632
0.257166
0.246341
0.236113
0.226442
0.21729
0.208622
0.200408
0.192617
0.185223
0.178201
0.171527
0.16518
0.159141
0.15339
0.147909
0.142685
0.1377
0.132941
0.128396
0.124052
0.119897
0.115922
0.112116
1.12216
1.0472
0.978708
0.916004
0.858498
0.80567
0.757059
0.712257
0.670901
0.63267
0.597274
0.564457
0.533989
0.505663
0.479296
0.454721
0.431789
0.410365
0.390327
0.371567
0.353985
0.33749
0.322
0.307441
0.293743
0.280844
0.268686
0.257217
0.24639
0.236159
0.226484
0.217328
0.208656
0.200437
0.192641
0.185242
0.178214
0.171535
0.165181
0.159134
0.153375
0.147887
0.142653
0.137659
0.13289
0.128334
0.123978
0.119812
0.115824
0.112004
1.12216
1.0472
0.97869
0.91597
0.858445
0.805596
0.756963
0.712138
0.67076
0.632506
0.597089
0.564253
0.533769
0.505429
0.479049
0.454464
0.431525
0.410095
0.390055
0.371294
0.353712
0.337219
0.321732
0.307177
0.293483
0.28059
0.268438
0.256976
0.246154
0.23593
0.226262
0.217112
0.208447
0.200234
0.192445
0.185052
0.178029
0.171354
0.165005
0.158961
0.153205
0.147718
0.142486
0.137492
0.132722
0.128165
0.123807
0.119638
0.115646
0.111822
1.12216
1.04719
0.978667
0.915936
0.858413
0.805575
0.756962
0.712161
0.670809
0.632582
0.59719
0.564376
0.533909
0.505583
0.479215
0.454638
0.431702
0.410275
0.390234
0.37147
0.353884
0.337386
0.321892
0.307329
0.293627
0.280725
0.268563
0.257091
0.24626
0.236026
0.226348
0.217188
0.208513
0.200291
0.192491
0.185088
0.178056
0.17137
0.165011
0.158957
0.153189
0.147692
0.142447
0.137441
0.13266
0.12809
0.123718
0.119535
0.115529
0.111689
1.12216
1.04715
0.978547
0.915719
0.858089
0.805146
0.756433
0.711545
0.67012
0.631834
0.596397
0.563551
0.533063
0.504727
0.478356
0.453784
0.430859
0.409446
0.389424
0.370681
0.353118
0.336644
0.321176
0.306638
0.292962
0.280085
0.267949
0.256502
0.245695
0.235484
0.225828
0.21669
0.208036
0.199833
0.192053
0.184667
0.177651
0.170981
0.164636
0.158595
0.15284
0.147353
0.142118
0.137121
0.132346
0.127783
0.123417
0.119238
0.115235
0.111397
1.12216
1.04713
0.978561
0.915806
0.858268
0.805416
0.756783
0.711957
0.670575
0.632314
0.596885
0.564034
0.533531
0.505172
0.478771
0.454165
0.431205
0.409755
0.389696
0.370917
0.353318
0.33681
0.321309
0.30674
0.293035
0.28013
0.267969
0.256498
0.245669
0.235439
0.225765
0.216611
0.207942
0.199726
0.191933
0.184537
0.177511
0.170833
0.16448
0.158433
0.152672
0.147181
0.141943
0.136944
0.132169
0.127608
0.123246
0.119074
0.115083
0.111264
1.12216
1.0466
0.97744
0.914169
0.856211
0.803048
0.754208
0.70926
0.667824
0.62956
0.59417
0.561387
0.530974
0.502719
0.476434
0.45195
0.429115
0.407792
0.38786
0.369207
0.351732
0.335344
0.319961
0.305506
0.291911
0.279113
0.267054
0.255682
0.244949
0.234811
0.225226
0.216159
0.207574
0.19944
0.191728
0.184411
0.177463
0.170863
0.164589
0.158622
0.152943
0.147537
0.142389
0.137485
0.132815
0.128368
0.124135
0.120113
0.1163
0.112702
1.12227
1.04695
0.978234
0.915335
0.85775
0.804996
0.756662
0.712289
0.671476
0.633867
0.599147
0.567039
0.537297
0.509703
0.484063
0.460203
0.437969
0.417223
0.397839
0.379706
0.362723
0.3468
0.331854
0.317809
0.304599
0.292161
0.280439
0.269382
0.258943
0.249081
0.239755
0.230932
0.222578
0.214663
0.207161
0.200048
0.193299
0.186896
0.180819
0.175053
0.169583
0.164397
0.159484
0.154838
0.150454
0.146332
0.142477
0.138907
0.135664
0.132837
1.14672
1.10489
1.06577
1.02911
0.994603
0.961974
0.930963
0.90145
0.873336
0.846533
0.820962
0.796553
0.773239
0.75096
0.729658
0.709281
0.689779
0.671106
0.653219
0.636077
0.619641
0.603876
0.588747
0.574222
0.560271
0.546863
0.533973
0.521573
0.509641
0.498153
0.487087
0.476422
0.466139
0.456219
0.446643
0.437395
0.428458
0.419816
0.411453
0.403355
0.395508
0.387898
0.380511
0.373334
0.366353
0.359553
0.352919
0.346435
0.34008
0.333826
0.120087
0.0171501
0.00692536
0.00591617
0.0055399
0.00541792
0.00518118
0.00503384
0.00483851
0.00467681
0.00451498
0.00434409
0.00421226
0.00403181
0.0039279
0.00373564
0.00372855
0.00410519
0.00972443
0.0710255
0.12047
0.0172634
0.00699707
0.0059842
0.0056061
0.00548237
0.00524388
0.00509466
0.00489769
0.00473412
0.00457076
0.00439801
0.00426479
0.00408247
0.00397729
0.00378315
0.00377561
0.00415571
0.00981552
0.0712787
0.120855
0.0173729
0.00706938
0.00605326
0.00567335
0.00554785
0.00530756
0.00515642
0.00495777
0.00479228
0.00462736
0.00445269
0.00431803
0.00413382
0.00402734
0.0038313
0.00382328
0.00420682
0.00990255
0.0715058
0.121247
0.0174816
0.00714259
0.0061235
0.00574177
0.00561446
0.00537234
0.00521923
0.00501887
0.0048514
0.00468488
0.00450827
0.00437214
0.00418602
0.0040782
0.00388025
0.00387171
0.00425794
0.00998258
0.0717394
0.121646
0.0175903
0.00721675
0.00619487
0.00581132
0.00568215
0.00543818
0.00528305
0.00508094
0.00491145
0.0047433
0.00456471
0.00442709
0.00423904
0.00412985
0.00393
0.00392084
0.00430915
0.0100596
0.0719763
0.122049
0.0176998
0.00729195
0.00626738
0.005882
0.00575093
0.00550507
0.00534789
0.005144
0.00497246
0.00480266
0.00462207
0.00448293
0.00429294
0.00418236
0.0039806
0.00397075
0.00436073
0.0101355
0.0722171
0.122458
0.01781
0.00736826
0.00634102
0.00595382
0.00582081
0.00557306
0.00541378
0.0052081
0.00503449
0.00486302
0.00468041
0.00453975
0.0043478
0.00423582
0.00403211
0.00402154
0.00441293
0.0102112
0.0724625
0.12287
0.0179212
0.00744572
0.00641581
0.00602679
0.00589181
0.00564215
0.00548076
0.00527328
0.00509758
0.00492444
0.00473981
0.00459759
0.00440369
0.00429029
0.00408461
0.00407327
0.00446591
0.0102875
0.0727127
0.123287
0.0180335
0.00752441
0.00649179
0.00610093
0.00596395
0.00571239
0.00554886
0.0053396
0.00516179
0.00498698
0.00480031
0.00465655
0.00446068
0.00434586
0.00413817
0.00412603
0.00451982
0.0103651
0.0729682
0.123707
0.018147
0.00760435
0.00656896
0.00617626
0.00603727
0.00578381
0.00561813
0.00540708
0.00522716
0.00505068
0.00486198
0.00471665
0.00451881
0.00440254
0.00419281
0.00417985
0.00457472
0.0104442
0.073229
0.124131
0.0182618
0.0076856
0.00664735
0.00625282
0.00611178
0.00585644
0.00568858
0.00547576
0.00529373
0.00511558
0.00492483
0.00477794
0.0045781
0.00446037
0.00424858
0.00423476
0.00463068
0.010525
0.073495
0.124558
0.018378
0.00776818
0.00672698
0.00633062
0.00618749
0.00593028
0.00576024
0.00554565
0.00536149
0.00518167
0.00498886
0.00484041
0.00463855
0.00451934
0.00430545
0.00429075
0.00468769
0.0106074
0.073766
0.124989
0.0184955
0.00785209
0.00680787
0.00640967
0.00626443
0.00600534
0.0058331
0.00561674
0.00543044
0.00524895
0.00505405
0.00490403
0.00470013
0.00457943
0.00436341
0.0043478
0.00474573
0.0106914
0.0740416
0.125423
0.0186143
0.00793735
0.00689003
0.00648998
0.0063426
0.00608163
0.00590716
0.00568903
0.00550057
0.00531739
0.0051204
0.00496878
0.00476281
0.00464062
0.00442244
0.0044059
0.00480479
0.0107768
0.0743216
0.125861
0.0187344
0.00802394
0.00697346
0.00657157
0.00642199
0.00615915
0.00598242
0.00576251
0.00557186
0.00538698
0.00518788
0.00503465
0.00482659
0.00470288
0.00448253
0.00446504
0.00486484
0.0108633
0.0746056
0.126302
0.0188557
0.00811189
0.00705819
0.00665445
0.00650265
0.00623792
0.00605889
0.00583719
0.00564433
0.00545772
0.00525648
0.00510162
0.00489146
0.00476621
0.00454366
0.0045252
0.00492587
0.0109507
0.0748933
0.126747
0.0189784
0.0082012
0.00714427
0.00673866
0.0065846
0.00631797
0.00613662
0.0059131
0.005718
0.00552963
0.00532623
0.00516971
0.00495742
0.00483063
0.00460586
0.0045864
0.0049879
0.0110392
0.0751847
0.127194
0.0191026
0.00829195
0.00723175
0.00682427
0.00666792
0.00639937
0.00621565
0.00599029
0.00579291
0.00560276
0.00539717
0.00523897
0.00502453
0.00489617
0.00466915
0.00464867
0.00505095
0.0111286
0.0754799
0.127646
0.0192288
0.00838423
0.0073207
0.00691135
0.00675266
0.00648218
0.00629605
0.00606882
0.00586912
0.00567717
0.00546935
0.00530945
0.00509282
0.00496287
0.00473357
0.00471206
0.0051151
0.0112192
0.0757791
0.128101
0.0193573
0.00847814
0.00741122
0.00699999
0.00683892
0.00656648
0.0063779
0.00614877
0.00594672
0.00575293
0.00554285
0.00538122
0.00516238
0.00503079
0.00479919
0.0047766
0.0051804
0.0113111
0.0760826
0.128562
0.0194883
0.00857375
0.00750338
0.00709027
0.00692677
0.00665235
0.00646127
0.00623021
0.00602576
0.00583011
0.00561775
0.00545434
0.00523325
0.00509999
0.00486605
0.00484236
0.00524694
0.0114046
0.0763908
0.12903
0.0196221
0.00867116
0.00759726
0.00718225
0.00701628
0.00673985
0.00654622
0.00631321
0.00610632
0.00590878
0.00569409
0.00552887
0.00530549
0.00517053
0.0049342
0.00490939
0.00531478
0.0114999
0.0767038
0.129504
0.0197586
0.00877042
0.00769291
0.007276
0.00710749
0.00682903
0.00663281
0.00639782
0.00618844
0.00598898
0.00577193
0.00560486
0.00537915
0.00524244
0.0050037
0.00497772
0.00538398
0.0115971
0.0770218
0.129985
0.0198979
0.00887157
0.00779037
0.00737153
0.00720044
0.00691993
0.00672108
0.00648408
0.00627217
0.00607075
0.0058513
0.00568234
0.00545426
0.00531576
0.00507455
0.00504739
0.00545456
0.0116963
0.077345
0.130475
0.0200397
0.00897461
0.00788965
0.00746889
0.00729516
0.00701257
0.00681103
0.00657199
0.00635752
0.0061541
0.0059322
0.00576131
0.00553083
0.00539049
0.0051468
0.00511841
0.00552654
0.0117975
0.0776732
0.130973
0.0201838
0.00907952
0.00799076
0.00756806
0.00739164
0.00710695
0.00690267
0.00666157
0.00644448
0.00623904
0.00601465
0.00584179
0.00560887
0.00546665
0.00522043
0.0051908
0.00559993
0.0119006
0.0780064
0.131478
0.02033
0.00918628
0.0080937
0.00766905
0.00748988
0.00720307
0.00699601
0.0067528
0.00653306
0.00632555
0.00609864
0.00592377
0.00568837
0.00554424
0.00529547
0.00526457
0.00567472
0.0120054
0.0783444
0.13199
0.0204778
0.00929484
0.00819844
0.00777184
0.00758987
0.00730091
0.00709103
0.0068457
0.00662326
0.00641365
0.00618416
0.00600725
0.00576935
0.00562327
0.00537192
0.00533972
0.00575091
0.0121119
0.0786872
0.132509
0.0206271
0.00940519
0.00830496
0.00787642
0.0076916
0.00740048
0.00718773
0.00694025
0.00671507
0.00650333
0.00627124
0.00609225
0.00585182
0.00570377
0.0054498
0.00541628
0.0058285
0.0122199
0.0790347
0.133033
0.0207777
0.00951733
0.00841329
0.0079828
0.00779509
0.0075018
0.00728613
0.00703647
0.00680851
0.00659461
0.00635988
0.00617879
0.00593579
0.00578574
0.00552914
0.00549426
0.0059075
0.0123295
0.079387
0.133562
0.0209297
0.00963126
0.00852342
0.008091
0.00790036
0.00760488
0.00738626
0.00713439
0.00690361
0.00668752
0.00645012
0.0062669
0.00602132
0.00586923
0.00560996
0.0055737
0.00598794
0.0124406
0.0797441
0.134095
0.0210831
0.00974703
0.00863541
0.00820106
0.00800745
0.00770976
0.00748814
0.00723405
0.00700041
0.00678211
0.00654201
0.00635664
0.00610843
0.00595429
0.00569233
0.00565466
0.00606988
0.0125533
0.0801064
0.134633
0.0212381
0.00986472
0.00874931
0.00831303
0.00811641
0.00781649
0.00759184
0.00733549
0.00709897
0.00687842
0.0066356
0.00644805
0.0061972
0.00604097
0.00577629
0.00573718
0.00615337
0.0126677
0.080474
0.135176
0.0213949
0.00998439
0.00886518
0.00842698
0.00822729
0.00792513
0.0076974
0.00743878
0.00719934
0.00697653
0.00673097
0.00654121
0.00628769
0.00612934
0.0058619
0.00582132
0.00623847
0.012784
0.0808473
0.135723
0.0215538
0.0101061
0.00898309
0.00854297
0.00834016
0.00803575
0.00780489
0.00754399
0.0073016
0.00707651
0.00682817
0.00663618
0.00637996
0.00621946
0.00594923
0.00590715
0.00632526
0.0129023
0.0812266
0.136275
0.0217149
0.01023
0.00910311
0.00866106
0.00845509
0.00814841
0.0079144
0.00765119
0.00740582
0.00717842
0.00692728
0.00673303
0.00647407
0.0063114
0.00603834
0.00599473
0.00641381
0.0130229
0.081612
0.136833
0.0218783
0.0103561
0.00922531
0.00878134
0.00857215
0.00826319
0.00802598
0.00776045
0.00751207
0.00728233
0.00702836
0.00683182
0.00657009
0.0064052
0.00612929
0.00608411
0.00650419
0.0131459
0.0820039
0.137398
0.0220441
0.0104845
0.00934976
0.00890387
0.00869142
0.00838017
0.00813971
0.00787183
0.0076204
0.0073883
0.00713147
0.00693259
0.00666808
0.00650093
0.00622213
0.00617534
0.00659645
0.0132713
0.0824024
0.137968
0.0222126
0.0106152
0.00947654
0.00902873
0.00881295
0.00849939
0.00825565
0.0079854
0.00773088
0.00749639
0.00723666
0.00703542
0.00676807
0.00659863
0.00631691
0.00626849
0.00669066
0.0133993
0.0828075
0.138545
0.0223837
0.0107484
0.0096057
0.00915598
0.00893683
0.00862093
0.00837385
0.0081012
0.00784356
0.00760664
0.00734398
0.00714034
0.00687013
0.00669836
0.00641367
0.00636359
0.00678687
0.01353
0.0832193
0.13913
0.0225576
0.0108841
0.00973732
0.00928568
0.00906309
0.00874485
0.00849438
0.0082193
0.00795849
0.0077191
0.00745347
0.00724739
0.00697429
0.00680015
0.00651247
0.00646068
0.00688509
0.0136632
0.0836379
0.139721
0.0227342
0.0110223
0.00987145
0.00941788
0.00919181
0.00887119
0.00861728
0.00833974
0.00807571
0.00783383
0.00756519
0.00735664
0.0070806
0.00690404
0.00661333
0.00655979
0.00698538
0.0137991
0.0840632
0.14032
0.0229136
0.0111631
0.0100081
0.00955266
0.00932302
0.009
0.0087426
0.00846257
0.00819528
0.00795086
0.00767918
0.0074681
0.00718909
0.00701007
0.00671628
0.00666097
0.00708775
0.0139375
0.0844952
0.140927
0.0230958
0.0113065
0.0101475
0.00969004
0.0094568
0.00913135
0.0088704
0.00858784
0.00831724
0.00807024
0.00779547
0.00758183
0.0072998
0.00711827
0.00682138
0.00676423
0.00719225
0.0140785
0.084934
0.14154
0.0232807
0.0114526
0.0102894
0.0098301
0.00959318
0.00926528
0.00900073
0.00871561
0.00844164
0.00819202
0.00791411
0.00769786
0.00741277
0.00722868
0.00692864
0.00686963
0.0072989
0.0142221
0.0853796
0.142162
0.0234684
0.0116015
0.0104341
0.00997288
0.00973222
0.00940184
0.00913363
0.00884591
0.00856853
0.00831624
0.00803514
0.00781623
0.00752805
0.00734136
0.00703812
0.00697722
0.00740775
0.0143682
0.085832
0.14279
0.0236588
0.0117532
0.0105816
0.0101184
0.00987397
0.00954109
0.00926916
0.00897879
0.00869794
0.00844294
0.00815862
0.007937
0.00764568
0.00745634
0.00714988
0.00708703
0.00751885
0.0145169
0.0862912
0.143427
0.0238521
0.0119077
0.0107319
0.0102668
0.0100185
0.00968308
0.00940737
0.00911432
0.00882995
0.00857219
0.0082846
0.00806023
0.00776573
0.00757369
0.00726397
0.00719914
0.00763226
0.0146682
0.0867575
0.14407
0.0240482
0.0120652
0.0108851
0.0104181
0.0101658
0.00982787
0.00954832
0.00925255
0.00896461
0.00870406
0.00841315
0.00818598
0.00788827
0.00769349
0.00738046
0.0073136
0.00774803
0.0148223
0.0872309
0.144721
0.0242471
0.0122256
0.0110412
0.0105723
0.0103161
0.00997552
0.00969208
0.00939356
0.009102
0.00883861
0.00854435
0.00831434
0.00801337
0.0078158
0.00749943
0.00743049
0.00786625