/*--------------------------------*- C++ -*----------------------------------*\
  =========                 |
  \\      /  F ield         | OpenFOAM: The Open Source CFD Toolbox
   \\    /   O peration     | Website:  https://openfoam.org
    \\  /    A nd           | Version:  8
     \\/     M anipulation  |
\*---------------------------------------------------------------------------*/
FoamFile
{
    version     2.0;
    format      ascii;
    class       volScalarField;
    location    "900";
    object      k;
}
// * * * * * * * * * * * * * * * * * * * * * * * * * * * * * * * * * * * * * //

dimensions      [0 2 -2 0 0 0 0];

internalField   nonuniform List<scalar> 
8400
(
0.0124982
0.0122188
0.0119444
0.0116747
0.0114092
0.0111478
0.0108902
0.0106366
0.0103868
0.0101409
0.00989905
0.00966128
0.00942769
0.00919833
0.00897326
0.00875251
0.00853611
0.00832405
0.00811634
0.00791295
0.00771387
0.00751908
0.00732855
0.00714224
0.00696011
0.00678211
0.00660819
0.00643832
0.00627245
0.00611055
0.00595257
0.00579848
0.00564823
0.00550179
0.00535913
0.00522023
0.00508506
0.0049536
0.00482584
0.00470177
0.00458137
0.00446466
0.00435164
0.00424233
0.00413674
0.00403492
0.00393692
0.00384284
0.00375274
0.00366678
0.00266118
0.00266203
0.00266293
0.00266389
0.00266492
0.00266601
0.00266718
0.00266841
0.00266972
0.00267109
0.00267253
0.00267403
0.00267559
0.00267721
0.00267889
0.00268062
0.00268239
0.00268421
0.00268606
0.00268795
0.00268988
0.00269183
0.00269383
0.00269585
0.0026979
0.00269996
0.00270205
0.00270415
0.00270626
0.00270839
0.00271053
0.00271268
0.00271482
0.00271697
0.00271911
0.00272124
0.00272335
0.00272544
0.00272749
0.00272951
0.00273147
0.00273338
0.00273521
0.00273696
0.00273859
0.00274009
0.00274141
0.00274253
0.00274338
0.00274389
0.0027132
0.00271477
0.00271635
0.00271794
0.00271955
0.00272119
0.00272285
0.00272454
0.00272625
0.00272798
0.00272974
0.00273152
0.00273332
0.00273514
0.00273698
0.00273884
0.00274072
0.00274261
0.00274451
0.00274641
0.00274833
0.00275026
0.0027522
0.00275415
0.00275611
0.00275807
0.00276003
0.002762
0.00276397
0.00276594
0.00276792
0.0027699
0.00277188
0.00277385
0.00277582
0.00277778
0.00277973
0.00278167
0.00278358
0.00278548
0.00278735
0.00278919
0.00279099
0.00279273
0.00279441
0.00279601
0.00279751
0.00279887
0.00280007
0.00280102
0.00272998
0.00273189
0.0027338
0.00273569
0.00273758
0.00273946
0.00274134
0.0027432
0.00274507
0.00274693
0.00274878
0.00275064
0.0027525
0.00275437
0.00275624
0.00275812
0.00276
0.00276188
0.00276376
0.00276564
0.00276753
0.00276944
0.00277135
0.00277327
0.00277519
0.00277711
0.00277904
0.00278098
0.00278294
0.0027849
0.00278688
0.00278887
0.00279086
0.00279287
0.00279488
0.00279691
0.00279894
0.00280099
0.00280305
0.00280513
0.00280722
0.00280932
0.00281143
0.00281355
0.00281566
0.00281778
0.00281989
0.00282195
0.00282397
0.0028259
0.00271235
0.00271502
0.00271767
0.00272026
0.0027228
0.00272529
0.00272772
0.0027301
0.00273243
0.00273473
0.00273699
0.00273922
0.00274144
0.00274365
0.00274584
0.00274803
0.0027502
0.00275236
0.00275452
0.00275668
0.00275884
0.00276102
0.0027632
0.00276538
0.00276757
0.00276976
0.00277197
0.00277419
0.00277643
0.0027787
0.00278099
0.00278329
0.00278562
0.00278797
0.00279034
0.00279274
0.00279518
0.00279766
0.00280018
0.00280276
0.00280538
0.00280806
0.0028108
0.00281359
0.00281646
0.00281941
0.00282243
0.00282549
0.00282862
0.00283177
0.00266856
0.00267251
0.00267644
0.00268027
0.00268398
0.00268756
0.002691
0.00269432
0.00269753
0.00270064
0.00270368
0.00270665
0.00270956
0.00271244
0.00271528
0.00271808
0.00272086
0.00272362
0.00272636
0.0027291
0.00273185
0.0027346
0.00273735
0.00274011
0.00274286
0.00274563
0.00274842
0.00275124
0.00275409
0.00275697
0.00275988
0.00276281
0.00276579
0.00276879
0.00277184
0.00277494
0.00277811
0.00278136
0.00278468
0.00278807
0.00279156
0.00279514
0.00279882
0.00280262
0.00280654
0.00281057
0.00281472
0.002819
0.00282338
0.00282786
0.00260457
0.00260885
0.00261346
0.00261824
0.00262307
0.00262786
0.00263256
0.00263715
0.00264161
0.00264597
0.00265021
0.00265437
0.00265844
0.00266245
0.00266639
0.00267028
0.00267412
0.00267792
0.00268171
0.00268549
0.00268928
0.00269306
0.00269683
0.0027006
0.00270437
0.00270816
0.00271199
0.00271585
0.00271976
0.00272369
0.00272766
0.00273167
0.00273573
0.00273984
0.00274402
0.00274828
0.00275264
0.0027571
0.00276167
0.00276634
0.00277114
0.00277607
0.00278114
0.00278637
0.00279173
0.00279722
0.00280284
0.0028086
0.00281443
0.00282036
0.00257022
0.00256587
0.00256325
0.00256244
0.00256312
0.00256496
0.00256765
0.00257098
0.00257477
0.00257891
0.00258331
0.00258791
0.00259265
0.0025975
0.00260241
0.00260737
0.00261239
0.00261745
0.00262257
0.00262774
0.00263296
0.0026382
0.00264345
0.00264872
0.00265403
0.00265939
0.00266481
0.00267028
0.00267581
0.00268137
0.00268697
0.00269264
0.00269837
0.00270418
0.0027101
0.00271612
0.00272226
0.0027285
0.00273486
0.00274136
0.002748
0.0027548
0.00276176
0.00276885
0.00277604
0.00278332
0.00279071
0.00279819
0.00280571
0.00281327
0.00268718
0.00266192
0.00263936
0.00262056
0.00260527
0.00259305
0.00258345
0.00257609
0.00257066
0.00256688
0.00256454
0.00256344
0.00256338
0.00256422
0.00256582
0.00256808
0.00257095
0.0025744
0.00257838
0.00258283
0.00258766
0.00259279
0.00259817
0.0026038
0.0026097
0.00261589
0.00262234
0.00262898
0.00263576
0.00264266
0.0026497
0.0026569
0.00266428
0.00267184
0.00267958
0.00268748
0.0026955
0.00270363
0.00271191
0.00272037
0.002729
0.00273779
0.00274669
0.00275557
0.00276453
0.00277354
0.00278253
0.00279154
0.00280057
0.00280947
0.00290824
0.00288194
0.00285738
0.002834
0.00281192
0.00279124
0.00277195
0.00275406
0.00273761
0.00272266
0.00270922
0.00269723
0.00268655
0.00267699
0.00266842
0.00266082
0.00265429
0.00264901
0.00264502
0.0026422
0.00264026
0.00263893
0.00263811
0.00263795
0.00263869
0.00264043
0.00264303
0.00264616
0.00264959
0.00265337
0.00265766
0.00266261
0.00266817
0.00267429
0.00268096
0.0026881
0.00269546
0.00270295
0.00271085
0.0027194
0.00272836
0.00273746
0.00274667
0.00275587
0.00276519
0.00277475
0.00278413
0.00279352
0.00280316
0.00281206
0.00298926
0.00297794
0.00296747
0.00295753
0.00294791
0.00293846
0.00292912
0.00291984
0.00291064
0.00290157
0.00289265
0.00288393
0.0028754
0.00286701
0.00285869
0.0028504
0.00284217
0.00283409
0.0028263
0.00281887
0.00281178
0.00280496
0.00279833
0.00279195
0.00278591
0.0027803
0.00277515
0.00277037
0.00276593
0.00276193
0.00275849
0.00275566
0.0027534
0.00275174
0.00275084
0.00275079
0.00275152
0.00275299
0.00275537
0.00275877
0.00276302
0.00276796
0.00277347
0.00277963
0.0027861
0.00279316
0.0028006
0.00280796
0.00281535
0.00282277
0.00299515
0.00299003
0.00298496
0.00297995
0.00297496
0.00296999
0.00296502
0.00296007
0.00295513
0.00295022
0.00294534
0.00294049
0.00293567
0.00293087
0.00292607
0.00292126
0.00291648
0.00291174
0.00290706
0.00290243
0.00289786
0.00289333
0.00288884
0.00288441
0.00288006
0.00287579
0.00287159
0.00286746
0.00286341
0.00285947
0.00285568
0.00285203
0.00284852
0.00284518
0.00284205
0.00283918
0.00283657
0.00283428
0.00283237
0.00283087
0.00282977
0.00282914
0.00282907
0.00282968
0.00283078
0.00283253
0.00283501
0.00283792
0.00284145
0.00284556
0.00299682
0.00299354
0.00299028
0.00298703
0.00298377
0.00298052
0.00297727
0.00297402
0.00297077
0.00296753
0.00296429
0.00296105
0.00295782
0.00295458
0.00295134
0.00294811
0.00294488
0.00294167
0.00293847
0.00293529
0.00293211
0.00292894
0.00292579
0.00292266
0.00291954
0.00291644
0.00291335
0.00291028
0.00290723
0.00290424
0.00290129
0.00289838
0.00289549
0.00289266
0.0028899
0.00288724
0.00288468
0.00288223
0.00287991
0.00287771
0.00287564
0.0028738
0.00287224
0.00287103
0.00287004
0.00286944
0.00286924
0.00286944
0.00287003
0.00287122
0.00299773
0.00299539
0.00299304
0.00299068
0.00298831
0.00298592
0.00298352
0.00298112
0.00297872
0.00297632
0.00297391
0.00297149
0.00296906
0.00296663
0.0029642
0.00296177
0.00295935
0.00295693
0.00295451
0.00295209
0.00294967
0.00294725
0.00294484
0.00294243
0.00294002
0.00293761
0.00293519
0.00293278
0.00293039
0.00292803
0.00292567
0.00292332
0.00292097
0.00291864
0.00291635
0.00291411
0.0029119
0.00290973
0.0029076
0.00290551
0.0029035
0.00290161
0.00289986
0.00289826
0.00289674
0.00289543
0.00289429
0.00289353
0.00289307
0.0028929
0.00299808
0.00299613
0.00299417
0.00299222
0.00299026
0.0029883
0.00298635
0.00298439
0.00298244
0.00298049
0.00297853
0.00297657
0.00297461
0.00297265
0.00297068
0.00296873
0.00296678
0.00296484
0.0029629
0.00296095
0.00295901
0.00295706
0.00295513
0.00295319
0.00295126
0.00294932
0.00294738
0.00294545
0.00294354
0.00294164
0.00293974
0.00293784
0.00293594
0.00293407
0.00293222
0.00293039
0.00292858
0.00292678
0.002925
0.00292325
0.00292155
0.00291991
0.00291832
0.00291679
0.00291533
0.00291399
0.00291278
0.00291166
0.00291069
0.00290992
0.00299856
0.0029971
0.00299563
0.00299414
0.00299265
0.00299115
0.00298965
0.00298814
0.00298664
0.00298512
0.0029836
0.00298207
0.00298053
0.00297899
0.00297745
0.00297591
0.00297437
0.00297283
0.00297129
0.00296973
0.00296818
0.00296662
0.00296507
0.0029635
0.00296193
0.00296036
0.00295878
0.00295721
0.00295564
0.00295407
0.00295248
0.00295089
0.00294931
0.00294773
0.00294615
0.00294456
0.00294297
0.00294138
0.00293979
0.0029382
0.00293662
0.00293502
0.00293342
0.00293186
0.00293033
0.00292878
0.0029273
0.0029259
0.00292455
0.0029233
0.00299853
0.00299704
0.00299556
0.00299407
0.00299259
0.00299111
0.00298963
0.00298816
0.00298668
0.00298521
0.00298373
0.00298224
0.00298076
0.00297928
0.00297781
0.00297634
0.00297488
0.00297341
0.00297195
0.00297048
0.00296902
0.00296756
0.0029661
0.00296464
0.00296319
0.00296174
0.00296029
0.00295885
0.00295742
0.00295598
0.00295455
0.00295312
0.0029517
0.0029503
0.00294889
0.00294749
0.0029461
0.00294474
0.00294338
0.00294204
0.00294073
0.00293945
0.0029382
0.00293699
0.00293585
0.0029348
0.00293383
0.00293295
0.00293222
0.00293165
0.00299902
0.00299805
0.00299707
0.00299609
0.00299511
0.00299414
0.00299316
0.00299217
0.00299119
0.0029902
0.0029892
0.0029882
0.0029872
0.0029862
0.00298521
0.00298421
0.00298321
0.00298221
0.00298121
0.00298021
0.0029792
0.0029782
0.00297719
0.00297619
0.00297519
0.00297418
0.00297318
0.00297219
0.00297119
0.00297018
0.00296919
0.00296819
0.0029672
0.00296621
0.00296521
0.00296421
0.00296323
0.00296224
0.00296125
0.00296027
0.00295932
0.00295836
0.0029574
0.00295647
0.00295557
0.00295468
0.00295383
0.00295302
0.00295226
0.00295156
0.00300024
0.00300044
0.00300058
0.00300067
0.00300071
0.0030007
0.00300064
0.00300053
0.00300037
0.00300016
0.0029999
0.0029996
0.00299925
0.00299887
0.00299846
0.00299803
0.00299759
0.00299715
0.00299695
0.00299685
0.00299671
0.0029965
0.00299629
0.00299612
0.002996
0.00299598
0.00299607
0.00299623
0.0029964
0.00299649
0.00299645
0.0029962
0.00299572
0.00299497
0.00299433
0.00299375
0.00299319
0.00299261
0.002992
0.00299132
0.00299056
0.00298972
0.00298886
0.00298784
0.00298684
0.0029857
0.0029845
0.00298322
0.00298188
0.00298049
0.0174844
0.0171257
0.0167165
0.0163113
0.0159185
0.0155382
0.0151689
0.0148092
0.0144579
0.0141146
0.0137792
0.0134515
0.0131315
0.0128187
0.0125127
0.012213
0.0119194
0.0116315
0.0113494
0.0110735
0.0108039
0.0105406
0.0102838
0.0100335
0.00978984
0.00955277
0.00932219
0.00909795
0.00887974
0.00866721
0.00845998
0.00825767
0.0080599
0.00786631
0.00767651
0.00749081
0.0073092
0.00713176
0.00695877
0.0067906
0.00662746
0.00646966
0.00631781
0.00617197
0.00603297
0.005901
0.00577678
0.00566095
0.0055544
0.0054584
0.0589323
0.0574908
0.0561262
0.0548317
0.0535991
0.0524203
0.0512875
0.0501976
0.0491482
0.0481373
0.047163
0.0462236
0.0453174
0.0444431
0.0435991
0.0427841
0.0419969
0.0412362
0.0405009
0.0397899
0.0391023
0.038437
0.0377932
0.03717
0.0365667
0.0359824
0.0354164
0.034868
0.0343365
0.0338213
0.0333218
0.0328374
0.0323675
0.0319117
0.0314694
0.0310403
0.0306239
0.0302199
0.0298278
0.029446
0.0290731
0.0287083
0.0283509
0.0280002
0.0276551
0.0273143
0.0269759
0.0266367
0.0262913
0.025929
0.0580919
0.0554638
0.0530102
0.0507132
0.0485634
0.0465513
0.0446687
0.0429046
0.0412494
0.0396942
0.0382309
0.0368524
0.0355521
0.0343242
0.0331632
0.0320643
0.031023
0.0300354
0.0290975
0.0282062
0.0273583
0.0265509
0.0257814
0.0250475
0.0243469
0.0236776
0.0230377
0.0224253
0.0218389
0.0212769
0.0207378
0.0202203
0.0197231
0.019245
0.0187848
0.0183412
0.0179134
0.0175001
0.0171004
0.0167147
0.0163432
0.015985
0.0156395
0.0153061
0.0149839
0.0146724
0.0143708
0.0140784
0.0137942
0.0135172
0.0580882
0.0554512
0.0529812
0.0506698
0.048505
0.0464759
0.0445718
0.0427828
0.0410997
0.0395143
0.0380192
0.0366075
0.0352733
0.0340108
0.032815
0.0316813
0.0306055
0.0295835
0.028612
0.0276876
0.0268074
0.0259686
0.0251686
0.0244051
0.0236759
0.0229791
0.0223127
0.021675
0.0210645
0.0204795
0.0199187
0.0193808
0.0188645
0.0183686
0.0178923
0.0174346
0.0169945
0.0165712
0.0161638
0.0157717
0.0153941
0.0150304
0.01468
0.0143423
0.0140168
0.013703
0.0134004
0.0131086
0.0128272
0.0125558
0.0580882
0.0554701
0.0530217
0.0507302
0.0485826
0.0465671
0.0446732
0.0428911
0.0412125
0.0396294
0.0381349
0.0367225
0.0353865
0.0341213
0.0329223
0.0317848
0.0307048
0.0296785
0.0287024
0.0277733
0.0268883
0.0260446
0.0252398
0.0244715
0.0237376
0.0230362
0.0223653
0.0217232
0.0211083
0.0205192
0.0199544
0.0194126
0.0188927
0.0183934
0.0179137
0.0174527
0.0170094
0.016583
0.0161726
0.0157776
0.0153972
0.0150308
0.0146778
0.0143376
0.0140096
0.0136934
0.0133884
0.0130944
0.0128107
0.012537
0.0580882
0.0554705
0.0530212
0.050727
0.0485759
0.0465568
0.0446594
0.0428746
0.0411938
0.0396093
0.038114
0.0367014
0.0353656
0.0341011
0.032903
0.0317667
0.030688
0.0296631
0.0286885
0.027761
0.0268775
0.0260354
0.0252321
0.0244653
0.0237329
0.0230327
0.0223631
0.0217223
0.0211085
0.0205205
0.0199567
0.0194158
0.0188967
0.0183982
0.0179193
0.0174589
0.0170162
0.0165903
0.0161804
0.0157857
0.0154056
0.0150394
0.0146865
0.0143463
0.0140183
0.0137019
0.0133967
0.0131021
0.0128178
0.0125434
0.0580882
0.0554719
0.0530255
0.050735
0.0485881
0.0465733
0.0446802
0.0428994
0.0412221
0.0396406
0.0381478
0.0367373
0.035403
0.0341396
0.0329423
0.0318064
0.0307279
0.029703
0.0287281
0.0278001
0.0269161
0.0260733
0.0252693
0.0245016
0.0237683
0.0230673
0.0223967
0.0217549
0.0211402
0.0205512
0.0199864
0.0194445
0.0189244
0.0184249
0.0179449
0.0174835
0.0170398
0.0166129
0.0162019
0.0158062
0.015425
0.0150577
0.0147037
0.0143623
0.014033
0.0137153
0.0134087
0.0131127
0.0128268
0.0125506
0.0580882
0.0554723
0.0530263
0.0507363
0.0485893
0.0465742
0.0446803
0.0428985
0.0412201
0.0396374
0.0381435
0.0367319
0.0353967
0.0341325
0.0329344
0.031798
0.0307191
0.0296938
0.0287187
0.0277907
0.0269066
0.0260639
0.02526
0.0244925
0.0237594
0.0230587
0.0223884
0.0217469
0.0211325
0.0205438
0.0199793
0.0194378
0.018918
0.0184188
0.0179391
0.017478
0.0170345
0.0166078
0.016197
0.0158015
0.0154204
0.0150532
0.0146991
0.0143577
0.0140283
0.0137103
0.0134034
0.013107
0.0128206
0.0125438
0.0580882
0.0554724
0.053027
0.0507375
0.0485914
0.046577
0.0446841
0.0429033
0.0412259
0.0396443
0.0381514
0.0367407
0.0354063
0.0341429
0.0329456
0.0318098
0.0307313
0.0297064
0.0287317
0.0278038
0.0269199
0.0260773
0.0252734
0.0245059
0.0237727
0.0230718
0.0224013
0.0217595
0.0211449
0.0205559
0.019991
0.0194491
0.0189289
0.0184293
0.0179492
0.0174875
0.0170435
0.0166163
0.0162049
0.0158087
0.015427
0.015059
0.0147042
0.0143619
0.0140316
0.0137127
0.0134047
0.0131071
0.0128195
0.0125414
0.0580882
0.0554725
0.0530272
0.050738
0.048592
0.0465778
0.0446849
0.042904
0.0412265
0.0396446
0.0381514
0.0367403
0.0354056
0.0341418
0.032944
0.0318078
0.030729
0.0297038
0.0287287
0.0278005
0.0269164
0.0260735
0.0252694
0.0245018
0.0237685
0.0230675
0.0223969
0.0217551
0.0211404
0.0205514
0.0199865
0.0194446
0.0189244
0.0184247
0.0179446
0.0174829
0.0170389
0.0166115
0.0162001
0.0158038
0.0154219
0.0150537
0.0146986
0.014356
0.0140253
0.013706
0.0133975
0.0130994
0.0128111
0.0125322
0.0580882
0.0554726
0.0530273
0.0507382
0.0485924
0.0465783
0.0446856
0.0429048
0.0412275
0.0396458
0.0381528
0.0367419
0.0354074
0.0341438
0.0329462
0.0318101
0.0307314
0.0297063
0.0287314
0.0278033
0.0269192
0.0260764
0.0252724
0.0245048
0.0237714
0.0230704
0.0223998
0.0217579
0.0211432
0.020554
0.0199891
0.019447
0.0189266
0.0184268
0.0179464
0.0174845
0.0170402
0.0166125
0.0162007
0.015804
0.0154217
0.0150531
0.0146974
0.0143542
0.0140229
0.0137028
0.0133935
0.0130945
0.0128053
0.0125255
0.0580882
0.0554725
0.0530273
0.0507382
0.0485924
0.0465783
0.0446856
0.0429049
0.0412275
0.0396458
0.0381528
0.0367419
0.0354073
0.0341437
0.0329461
0.03181
0.0307312
0.0297061
0.0287311
0.027803
0.0269189
0.026076
0.0252719
0.0245042
0.0237709
0.0230698
0.0223991
0.0217572
0.0211423
0.0205531
0.019988
0.0194458
0.0189253
0.0184253
0.0179448
0.0174828
0.0170382
0.0166103
0.0161983
0.0158013
0.0154186
0.0150495
0.0146935
0.0143498
0.0140178
0.0136971
0.0133872
0.0130874
0.0127974
0.0125166
0.0580882
0.0554725
0.0530272
0.050738
0.048592
0.0465778
0.044685
0.0429041
0.0412265
0.0396447
0.0381514
0.0367403
0.0354055
0.0341416
0.0329438
0.0318074
0.0307285
0.0297031
0.0287279
0.0277996
0.0269154
0.0260724
0.0252681
0.0245004
0.0237669
0.0230658
0.0223951
0.0217531
0.0211382
0.0205489
0.0199838
0.0194416
0.018921
0.018421
0.0179404
0.0174782
0.0170336
0.0166056
0.0161934
0.0157962
0.0154133
0.015044
0.0146876
0.0143435
0.0140112
0.01369
0.0133795
0.0130791
0.0127884
0.0125069
0.0580882
0.0554724
0.053027
0.0507376
0.0485914
0.0465771
0.0446842
0.0429033
0.041226
0.0396443
0.0381514
0.0367406
0.0354062
0.0341426
0.0329451
0.0318091
0.0307304
0.0297054
0.0287304
0.0278023
0.0269182
0.0260753
0.0252711
0.0245034
0.02377
0.0230688
0.022398
0.0217559
0.0211409
0.0205515
0.0199862
0.0194438
0.018923
0.0184227
0.0179418
0.0174794
0.0170344
0.016606
0.0161934
0.0157958
0.0154123
0.0150425
0.0146854
0.0143407
0.0140076
0.0136856
0.0133742
0.0130729
0.0127812
0.0124986
0.0580882
0.0554723
0.0530264
0.0507363
0.0485894
0.0465742
0.0446804
0.0428985
0.0412202
0.0396375
0.0381435
0.0367318
0.0353964
0.0341321
0.0329338
0.0317972
0.030718
0.0296924
0.0287171
0.0277887
0.0269043
0.0260613
0.0252571
0.0244894
0.023756
0.0230549
0.0223842
0.0217423
0.0211274
0.0205382
0.0199731
0.0194309
0.0189103
0.0184102
0.0179296
0.0174673
0.0170225
0.0165943
0.0161818
0.0157843
0.0154009
0.015031
0.014674
0.0143291
0.0139959
0.0136736
0.0133619
0.0130603
0.0127681
0.012485
0.0580882
0.0554719
0.0530255
0.050735
0.0485882
0.0465734
0.0446803
0.0428995
0.0412222
0.0396407
0.0381478
0.0367371
0.0354027
0.0341391
0.0329415
0.0318053
0.0307264
0.0297011
0.0287259
0.0277975
0.0269131
0.0260699
0.0252655
0.0244975
0.0237637
0.0230622
0.0223912
0.0217488
0.0211335
0.0205437
0.0199781
0.0194354
0.0189143
0.0184136
0.0179324
0.0174695
0.0170241
0.0165953
0.0161821
0.0157839
0.0153998
0.0150292
0.0146713
0.0143256
0.0139915
0.0136683
0.0133556
0.0130528
0.0127595
0.0124752
0.0580882
0.0554705
0.0530212
0.050727
0.048576
0.0465568
0.0446595
0.0428747
0.0411939
0.0396094
0.038114
0.0367013
0.0353653
0.0341006
0.0329022
0.0317655
0.0306864
0.0296611
0.0286861
0.0277581
0.0268743
0.0260317
0.025228
0.0244608
0.0237278
0.0230272
0.022357
0.0217155
0.0211011
0.0205122
0.0199475
0.0194056
0.0188853
0.0183855
0.0179051
0.017443
0.0169983
0.0165701
0.0161576
0.0157599
0.0153764
0.0150062
0.0146487
0.0143033
0.0139694
0.0136465
0.0133339
0.0130312
0.0127378
0.0124534
0.0580882
0.0554701
0.0530217
0.0507302
0.0485827
0.0465672
0.0446733
0.0428913
0.0412126
0.0396295
0.0381349
0.0367223
0.035386
0.0341206
0.0329212
0.0317834
0.0307029
0.0296761
0.0286995
0.0277699
0.0268844
0.0260402
0.0252349
0.0244661
0.0237317
0.0230297
0.0223581
0.0217153
0.0210996
0.0205096
0.0199438
0.0194008
0.0188796
0.0183789
0.0178976
0.0174347
0.0169893
0.0165605
0.0161473
0.0157491
0.0153651
0.0149945
0.0146367
0.014291
0.013957
0.013634
0.0133216
0.0130193
0.0127267
0.0124435
0.0580881
0.0554512
0.0529812
0.0506698
0.048505
0.046476
0.0445719
0.0427829
0.0410998
0.0395144
0.0380192
0.0366074
0.0352729
0.0340101
0.032814
0.0316799
0.0306037
0.0295813
0.0286093
0.0276845
0.0268039
0.0259647
0.0251643
0.0244005
0.023671
0.0229739
0.0223072
0.0216693
0.0210584
0.0204731
0.0199121
0.0193739
0.0188573
0.0183614
0.0178848
0.0174268
0.0169863
0.0165625
0.0161545
0.0157617
0.0153833
0.0150187
0.0146674
0.0143288
0.0140025
0.0136882
0.0133857
0.013095
0.0128163
0.0125506
0.0580918
0.0554635
0.0530099
0.0507128
0.0485632
0.0465511
0.0446687
0.0429048
0.0412497
0.0396946
0.0382315
0.036853
0.0355528
0.0343248
0.0331638
0.0320649
0.0310237
0.0300361
0.0290985
0.0282075
0.02736
0.0265533
0.0257847
0.0250519
0.0243527
0.023685
0.0230471
0.0224372
0.0218536
0.021295
0.0207601
0.0202474
0.019756
0.0192848
0.0188328
0.0183991
0.017983
0.0175836
0.0172004
0.0168328
0.0164804
0.0161428
0.0158197
0.0155111
0.015217
0.0149379
0.0146744
0.0144284
0.0142029
0.0140049
0.0589327
0.0574909
0.0561261
0.0548315
0.053599
0.0524202
0.0512873
0.0501974
0.0491481
0.0481371
0.0471626
0.046223
0.0453165
0.0444417
0.0435971
0.0427815
0.0419936
0.0412322
0.0404961
0.0397844
0.0390959
0.0384298
0.037785
0.0371608
0.0365562
0.0359705
0.0354028
0.0348524
0.0343186
0.0338007
0.0332981
0.0328101
0.0323361
0.0318756
0.0314279
0.0309925
0.0305688
0.0301564
0.0297546
0.0293629
0.0289808
0.0286078
0.0282435
0.0278871
0.0275383
0.0271964
0.0268608
0.0265306
0.0262049
0.0258825
0.0130953
0.00357784
0.0019543
0.00175959
0.00168418
0.00165938
0.00161066
0.00157998
0.00153881
0.00150432
0.00146938
0.00143204
0.0014029
0.00136251
0.00133898
0.0012949
0.00129326
0.00137904
0.00245092
0.00921826
0.0131236
0.00359355
0.00196781
0.00177308
0.00169758
0.00167252
0.00162364
0.00159268
0.00155133
0.00151657
0.00148144
0.00144384
0.00141451
0.00137387
0.00135015
0.00130582
0.0013041
0.00139032
0.00246606
0.0092401
0.0131515
0.00360881
0.00198137
0.0017867
0.00171114
0.00168581
0.00163675
0.00160551
0.00156397
0.00152894
0.00149362
0.00145576
0.00142623
0.00138534
0.00136143
0.00131686
0.00131504
0.00140169
0.00248042
0.00925995
0.0131805
0.00362381
0.00199503
0.0018005
0.00172486
0.00169927
0.00165003
0.00161851
0.00157678
0.00154148
0.00150596
0.00146784
0.00143811
0.00139698
0.00137286
0.00132806
0.00132612
0.001413
0.00249371
0.00928038
0.0132097
0.00363876
0.00200882
0.00181445
0.00173875
0.00171289
0.00166347
0.00163166
0.00158974
0.00155416
0.00151846
0.00148007
0.00145015
0.00140876
0.00138445
0.0013394
0.00133733
0.00142432
0.00250656
0.00930114
0.0132391
0.00365375
0.00202274
0.00182857
0.00175281
0.00172667
0.00167707
0.00164498
0.00160287
0.00156701
0.00153111
0.00149246
0.00146234
0.00142071
0.00139619
0.00135091
0.00134869
0.0014357
0.00251926
0.00932226
0.0132688
0.00366883
0.00203682
0.00184284
0.00176703
0.00174061
0.00169084
0.00165846
0.00161616
0.00158003
0.00154393
0.00150502
0.0014747
0.00143282
0.00140811
0.00136259
0.00136021
0.00144718
0.00253197
0.00934375
0.0132988
0.00368401
0.00205107
0.00185728
0.00178141
0.00175472
0.00170478
0.00167211
0.00162963
0.00159322
0.00155693
0.00151776
0.00148724
0.00144512
0.0014202
0.00137444
0.0013719
0.00145879
0.00254477
0.00936563
0.0133289
0.00369932
0.00206549
0.00187189
0.00179597
0.001769
0.00171889
0.00168593
0.00164327
0.00160658
0.00157011
0.00153068
0.00149996
0.0014576
0.00143248
0.00138647
0.00138377
0.00147055
0.00255773
0.0093879
0.0133593
0.00371478
0.00208009
0.00188668
0.00181071
0.00178345
0.00173317
0.00169992
0.00165708
0.00162013
0.00158346
0.00154378
0.00151287
0.00147026
0.00144494
0.00139868
0.0013958
0.00148247
0.00257086
0.00941054
0.0133899
0.00373039
0.00209487
0.00190163
0.00182561
0.00179807
0.00174764
0.00171409
0.00167108
0.00163385
0.001597
0.00155706
0.00152596
0.00148311
0.00145758
0.00141107
0.00140802
0.00149454
0.00258417
0.00943356
0.0134208
0.00374614
0.00210984
0.00191677
0.0018407
0.00181286
0.00176227
0.00172844
0.00168526
0.00164776
0.00161072
0.00157052
0.00153922
0.00149613
0.0014704
0.00142364
0.00142041
0.00150678
0.00259764
0.00945693
0.0134518
0.00376205
0.00212499
0.00193207
0.00185596
0.00182783
0.00177709
0.00174296
0.00169961
0.00166183
0.00162461
0.00158416
0.00155267
0.00150933
0.0014834
0.00143638
0.00143296
0.00151917
0.00261128
0.00948064
0.0134831
0.00377811
0.00214033
0.00194756
0.00187141
0.00184298
0.00179209
0.00175766
0.00171414
0.00167609
0.00163868
0.00159797
0.00156629
0.0015227
0.00149657
0.00144929
0.00144569
0.00153172
0.00262506
0.00950467
0.0135146
0.00379433
0.00215585
0.00196324
0.00188705
0.00185831
0.00180727
0.00177254
0.00172885
0.00169052
0.00165293
0.00161196
0.00158008
0.00153625
0.00150991
0.00146237
0.00145858
0.00154442
0.00263898
0.009529
0.0135464
0.00381074
0.00217157
0.00197911
0.00190287
0.00187384
0.00182264
0.00178761
0.00174374
0.00170514
0.00166736
0.00162613
0.00159405
0.00154997
0.00152342
0.00147562
0.00147164
0.00155729
0.00265305
0.00955364
0.0135783
0.00382735
0.00218749
0.00199518
0.00191891
0.00188956
0.00183821
0.00180287
0.00175883
0.00171995
0.00168197
0.00164048
0.0016082
0.00156387
0.00153711
0.00148905
0.00148487
0.00157033
0.00266727
0.00957859
0.0136106
0.00384421
0.00220363
0.00201146
0.00193515
0.00190549
0.00185399
0.00181834
0.00177413
0.00173495
0.00169679
0.00165503
0.00162254
0.00157796
0.00155098
0.00150266
0.00149828
0.00158354
0.00268166
0.00960384
0.0136432
0.00386132
0.00222
0.00202796
0.00195163
0.00192165
0.00186999
0.00183403
0.00178963
0.00175016
0.0017118
0.00166977
0.00163708
0.00159224
0.00156505
0.00151646
0.00151187
0.00159693
0.00269624
0.00962943
0.0136761
0.00387871
0.00223659
0.0020447
0.00196833
0.00193803
0.00188621
0.00184993
0.00180535
0.00176559
0.00172703
0.00168473
0.00165182
0.00160673
0.00157931
0.00153046
0.00152566
0.00161052
0.00271102
0.00965535
0.0137094
0.00389639
0.00225344
0.00206167
0.00198527
0.00195464
0.00190266
0.00186606
0.0018213
0.00178124
0.00174248
0.0016999
0.00166678
0.00162142
0.00159378
0.00154465
0.00153964
0.00162431
0.00272603
0.00968162
0.0137431
0.00391435
0.00227052
0.00207888
0.00200245
0.00197148
0.00191935
0.00188242
0.00183748
0.00179711
0.00175814
0.00171529
0.00168195
0.00163632
0.00160845
0.00155905
0.00155382
0.0016383
0.00274126
0.00970825
0.0137773
0.00393258
0.00228785
0.00209633
0.00201987
0.00198857
0.00193628
0.00189901
0.00185388
0.00181321
0.00177404
0.0017309
0.00169733
0.00165144
0.00162334
0.00157366
0.00156821
0.0016525
0.00275672
0.00973525
0.0138119
0.00395106
0.00230543
0.00211402
0.00203754
0.00200589
0.00195344
0.00191583
0.00187052
0.00182954
0.00179015
0.00174674
0.00171294
0.00166678
0.00163843
0.00158848
0.0015828
0.00166691
0.00277241
0.00976261
0.013847
0.00396976
0.00232325
0.00213195
0.00205544
0.00202344
0.00197084
0.00193289
0.00188739
0.00184609
0.00180649
0.00176279
0.00172876
0.00168233
0.00165374
0.0016035
0.0015976
0.00168152
0.00278832
0.00979035
0.0138825
0.00398866
0.0023413
0.00215011
0.00207359
0.00204123
0.00198847
0.00195017
0.00190448
0.00186287
0.00182306
0.00177906
0.0017448
0.00169809
0.00166926
0.00161874
0.00161261
0.00169635
0.00280444
0.00981845
0.0139184
0.00400773
0.00235958
0.00216851
0.00209197
0.00205925
0.00200633
0.00196769
0.0019218
0.00187988
0.00183984
0.00179556
0.00176106
0.00171408
0.00168499
0.00163419
0.00162783
0.00171138
0.00282077
0.00984692
0.0139547
0.00402696
0.00237809
0.00218714
0.00211058
0.0020775
0.00202442
0.00198543
0.00193936
0.00189711
0.00185686
0.00181227
0.00177754
0.00173028
0.00170094
0.00164986
0.00164326
0.00172663
0.0028373
0.00987575
0.0139913
0.00404633
0.00239683
0.00220601
0.00212943
0.00209599
0.00204275
0.00200341
0.00195714
0.00191456
0.00187409
0.00182922
0.00179424
0.0017467
0.00171711
0.00166574
0.00165891
0.00174209
0.00285403
0.00990495
0.0140282
0.00406586
0.0024158
0.00222511
0.00214853
0.00211471
0.00206132
0.00202162
0.00197515
0.00193225
0.00189156
0.00184639
0.00181117
0.00176335
0.00173351
0.00168186
0.00167478
0.00175777
0.00287096
0.00993451
0.0140654
0.00408555
0.002435
0.00224445
0.00216786
0.00213368
0.00208013
0.00204007
0.00199341
0.00195018
0.00190926
0.0018638
0.00182833
0.00178024
0.00175014
0.0016982
0.00169088
0.00177367
0.00288812
0.00996447
0.0141029
0.00410542
0.00245445
0.00226404
0.00218745
0.00215289
0.00209919
0.00205876
0.00201191
0.00196835
0.00192721
0.00188145
0.00184574
0.00179736
0.001767
0.00171478
0.00170721
0.0017898
0.00290551
0.00999481
0.0141407
0.00412549
0.00247415
0.00228389
0.0022073
0.00217236
0.0021185
0.00207771
0.00203067
0.00198678
0.00194541
0.00189935
0.00186339
0.00181474
0.00178412
0.00173161
0.00172379
0.00180618
0.00292315
0.0100256
0.0141787
0.00414578
0.00249412
0.002304
0.00222742
0.00219209
0.00213808
0.00209692
0.00204968
0.00200546
0.00196387
0.00191751
0.00188131
0.00183237
0.00180149
0.00174869
0.00174061
0.0018228
0.00294105
0.0100568
0.0142172
0.00416629
0.00251435
0.00232438
0.00224781
0.00221209
0.00215793
0.0021164
0.00206897
0.00202442
0.0019826
0.00193594
0.00189948
0.00185027
0.00181911
0.00176602
0.00175769
0.00183969
0.00295923
0.0100884
0.0142559
0.00418706
0.00253486
0.00234505
0.00226848
0.00223237
0.00217806
0.00213616
0.00208853
0.00204364
0.0020016
0.00195464
0.00191793
0.00186843
0.00183701
0.00178363
0.00177504
0.00185683
0.00297769
0.0101205
0.014295
0.00420807
0.00255565
0.00236599
0.00228944
0.00225294
0.00219847
0.0021562
0.00210838
0.00206315
0.00202088
0.00197362
0.00193666
0.00188687
0.00185518
0.00180151
0.00179265
0.00187425
0.00299646
0.010153
0.0143345
0.00422935
0.00257674
0.00238723
0.0023107
0.0022738
0.00221918
0.00217653
0.00212851
0.00208295
0.00204044
0.00199288
0.00195566
0.00190559
0.00187363
0.00181966
0.00181053
0.00189194
0.00301553
0.010186
0.0143744
0.0042509
0.00259813
0.00240877
0.00233226
0.00229495
0.00224019
0.00219716
0.00214894
0.00210304
0.0020603
0.00201243
0.00197496
0.0019246
0.00189235
0.0018381
0.0018287
0.00190992
0.0030349
0.0102195
0.0144147
0.00427273
0.00261982
0.00243062
0.00235413
0.00231642
0.0022615
0.00221808
0.00216967