/*--------------------------------*- C++ -*----------------------------------*\
  =========                 |
  \\      /  F ield         | OpenFOAM: The Open Source CFD Toolbox
   \\    /   O peration     | Website:  https://openfoam.org
    \\  /    A nd           | Version:  8
     \\/     M anipulation  |
\*---------------------------------------------------------------------------*/
FoamFile
{
    version     2.0;
    format      ascii;
    class       volScalarField;
    location    "900";
    object      nut;
}
// * * * * * * * * * * * * * * * * * * * * * * * * * * * * * * * * * * * * * //

dimensions      [0 2 -1 0 0 0 0];

internalField   nonuniform List<scalar> 
8400
(
0.000125278
0.000123867
0.000122465
0.000121069
0.00011968
0.000118295
0.000116914
0.000115538
0.000114167
0.0001128
0.00011144
0.000110086
0.000108738
0.000107399
0.000106068
0.000104746
0.000103434
0.000102131
0.000100839
9.95577e-05
9.82873e-05
9.70282e-05
9.57808e-05
9.45451e-05
9.33215e-05
9.21101e-05
9.0911e-05
8.97247e-05
8.85513e-05
8.73913e-05
8.62447e-05
8.51117e-05
8.39925e-05
8.28876e-05
8.17974e-05
8.07223e-05
7.96627e-05
7.86191e-05
7.7592e-05
7.6582e-05
7.55898e-05
7.46162e-05
7.3662e-05
7.27282e-05
7.18157e-05
7.09256e-05
7.00592e-05
6.92181e-05
6.84036e-05
6.76178e-05
5.79904e-05
5.80017e-05
5.80133e-05
5.80253e-05
5.80379e-05
5.80512e-05
5.80653e-05
5.80803e-05
5.80961e-05
5.81126e-05
5.81298e-05
5.81475e-05
5.81658e-05
5.81846e-05
5.8204e-05
5.8224e-05
5.82444e-05
5.82652e-05
5.82862e-05
5.83075e-05
5.83291e-05
5.83509e-05
5.83731e-05
5.83954e-05
5.84179e-05
5.84404e-05
5.8463e-05
5.84857e-05
5.85086e-05
5.85317e-05
5.85549e-05
5.85779e-05
5.86009e-05
5.86237e-05
5.86465e-05
5.86693e-05
5.86917e-05
5.87137e-05
5.87352e-05
5.87562e-05
5.87767e-05
5.87966e-05
5.88157e-05
5.8834e-05
5.8851e-05
5.88663e-05
5.88797e-05
5.88907e-05
5.88986e-05
5.89023e-05
5.85196e-05
5.85375e-05
5.85554e-05
5.85732e-05
5.85912e-05
5.86094e-05
5.8628e-05
5.86471e-05
5.86664e-05
5.8686e-05
5.87058e-05
5.87257e-05
5.87458e-05
5.87662e-05
5.87868e-05
5.88076e-05
5.88285e-05
5.88494e-05
5.88704e-05
5.88914e-05
5.89125e-05
5.89337e-05
5.8955e-05
5.89763e-05
5.89974e-05
5.90184e-05
5.90394e-05
5.90606e-05
5.90819e-05
5.91033e-05
5.91247e-05
5.9146e-05
5.91672e-05
5.91884e-05
5.92096e-05
5.92307e-05
5.92514e-05
5.92719e-05
5.92922e-05
5.93123e-05
5.93322e-05
5.93517e-05
5.93709e-05
5.93894e-05
5.94072e-05
5.94241e-05
5.94398e-05
5.94539e-05
5.94659e-05
5.94753e-05
5.86897e-05
5.87106e-05
5.87312e-05
5.87517e-05
5.8772e-05
5.87923e-05
5.88127e-05
5.88331e-05
5.88536e-05
5.8874e-05
5.88943e-05
5.89146e-05
5.89349e-05
5.89554e-05
5.89759e-05
5.89965e-05
5.9017e-05
5.90375e-05
5.90579e-05
5.90784e-05
5.90991e-05
5.91199e-05
5.91406e-05
5.91613e-05
5.91818e-05
5.92022e-05
5.92228e-05
5.92436e-05
5.92648e-05
5.92862e-05
5.93077e-05
5.93291e-05
5.93507e-05
5.93724e-05
5.93942e-05
5.9416e-05
5.94378e-05
5.94598e-05
5.9482e-05
5.95045e-05
5.95271e-05
5.95497e-05
5.95725e-05
5.95951e-05
5.96179e-05
5.96408e-05
5.96635e-05
5.96854e-05
5.97068e-05
5.97273e-05
5.85e-05
5.85288e-05
5.85571e-05
5.85848e-05
5.86119e-05
5.86385e-05
5.86646e-05
5.86904e-05
5.87157e-05
5.87405e-05
5.8765e-05
5.87891e-05
5.88131e-05
5.88371e-05
5.88609e-05
5.88846e-05
5.89081e-05
5.89315e-05
5.89549e-05
5.89783e-05
5.9002e-05
5.90257e-05
5.90493e-05
5.90727e-05
5.90959e-05
5.91191e-05
5.91427e-05
5.91668e-05
5.91914e-05
5.92162e-05
5.92411e-05
5.92662e-05
5.92915e-05
5.93171e-05
5.93428e-05
5.93687e-05
5.9395e-05
5.94219e-05
5.94495e-05
5.94776e-05
5.9506e-05
5.9535e-05
5.95644e-05
5.95946e-05
5.96256e-05
5.96577e-05
5.96909e-05
5.97241e-05
5.97581e-05
5.97922e-05
5.80321e-05
5.80747e-05
5.81168e-05
5.81579e-05
5.81977e-05
5.82361e-05
5.82733e-05
5.83092e-05
5.8344e-05
5.83777e-05
5.84104e-05
5.84426e-05
5.84743e-05
5.85056e-05
5.85365e-05
5.85669e-05
5.8597e-05
5.86269e-05
5.86569e-05
5.86869e-05
5.87172e-05
5.87473e-05
5.87771e-05
5.88066e-05
5.8836e-05
5.88656e-05
5.88958e-05
5.89268e-05
5.89583e-05
5.89899e-05
5.90217e-05
5.90538e-05
5.90863e-05
5.91191e-05
5.91523e-05
5.9186e-05
5.92205e-05
5.92561e-05
5.92925e-05
5.93296e-05
5.93674e-05
5.9406e-05
5.94457e-05
5.94871e-05
5.95299e-05
5.95738e-05
5.96189e-05
5.96652e-05
5.97121e-05
5.97602e-05
5.73445e-05
5.7391e-05
5.74409e-05
5.74927e-05
5.75451e-05
5.75972e-05
5.76485e-05
5.76985e-05
5.77471e-05
5.77946e-05
5.78409e-05
5.78864e-05
5.79312e-05
5.79752e-05
5.80184e-05
5.80609e-05
5.8103e-05
5.81448e-05
5.81867e-05
5.82288e-05
5.82708e-05
5.83124e-05
5.83533e-05
5.83938e-05
5.84344e-05
5.84756e-05
5.85176e-05
5.85604e-05
5.86034e-05
5.86466e-05
5.86899e-05
5.87337e-05
5.87781e-05
5.8823e-05
5.88686e-05
5.89152e-05
5.8963e-05
5.90121e-05
5.90621e-05
5.9113e-05
5.9165e-05
5.92185e-05
5.92737e-05
5.93307e-05
5.9389e-05
5.94487e-05
5.95092e-05
5.95714e-05
5.9632e-05
5.96952e-05
5.69775e-05
5.693e-05
5.69014e-05
5.68927e-05
5.69005e-05
5.69212e-05
5.69514e-05
5.69885e-05
5.70307e-05
5.70767e-05
5.71258e-05
5.71773e-05
5.72305e-05
5.72846e-05
5.73393e-05
5.73945e-05
5.74503e-05
5.75071e-05
5.75649e-05
5.76234e-05
5.76818e-05
5.77397e-05
5.77969e-05
5.78539e-05
5.79115e-05
5.79703e-05
5.80304e-05
5.80911e-05
5.81518e-05
5.82123e-05
5.82731e-05
5.83349e-05
5.83976e-05
5.84614e-05
5.8526e-05
5.85919e-05
5.86589e-05
5.87268e-05
5.87955e-05
5.88653e-05
5.8937e-05
5.90113e-05
5.90878e-05
5.9165e-05
5.92426e-05
5.93204e-05
5.93982e-05
5.94797e-05
5.9557e-05
5.96354e-05
5.82506e-05
5.79794e-05
5.77361e-05
5.75329e-05
5.73676e-05
5.72355e-05
5.71316e-05
5.70519e-05
5.6993e-05
5.69526e-05
5.69287e-05
5.69185e-05
5.692e-05
5.69309e-05
5.69498e-05
5.69763e-05
5.70104e-05
5.70519e-05
5.71002e-05
5.71535e-05
5.72096e-05
5.7267e-05
5.73253e-05
5.73861e-05
5.74513e-05
5.75213e-05
5.75948e-05
5.76693e-05
5.77429e-05
5.78163e-05
5.78916e-05
5.79706e-05
5.8053e-05
5.81374e-05
5.82226e-05
5.83086e-05
5.83949e-05
5.84814e-05
5.8569e-05
5.86592e-05
5.87535e-05
5.88513e-05
5.89482e-05
5.90402e-05
5.91354e-05
5.92305e-05
5.93238e-05
5.94229e-05
5.95192e-05
5.96077e-05
6.05716e-05
6.03002e-05
6.00457e-05
5.98025e-05
5.9573e-05
5.93585e-05
5.91573e-05
5.89689e-05
5.87954e-05
5.86393e-05
5.85024e-05
5.83822e-05
5.82739e-05
5.81732e-05
5.8079e-05
5.79938e-05
5.79219e-05
5.78675e-05
5.78314e-05
5.78089e-05
5.7791e-05
5.7771e-05
5.77506e-05
5.77397e-05
5.7749e-05
5.77801e-05
5.78228e-05
5.78621e-05
5.78912e-05
5.79183e-05
5.79596e-05
5.80227e-05
5.80997e-05
5.8178e-05
5.82536e-05
5.83294e-05
5.84046e-05
5.84769e-05
5.8553e-05
5.86432e-05
5.87476e-05
5.88574e-05
5.89597e-05
5.90476e-05
5.91431e-05
5.92403e-05
5.93393e-05
5.94434e-05
5.95632e-05
5.96485e-05
6.13919e-05
6.12786e-05
6.11738e-05
6.10735e-05
6.09757e-05
6.08792e-05
6.07832e-05
6.06866e-05
6.05894e-05
6.04938e-05
6.04014e-05
6.03136e-05
6.02294e-05
6.01459e-05
6.00606e-05
5.99733e-05
5.98856e-05
5.98006e-05
5.97208e-05
5.96459e-05
5.95729e-05
5.94982e-05
5.9422e-05
5.9349e-05
5.92856e-05
5.92339e-05
5.91894e-05
5.91447e-05
5.90962e-05
5.90489e-05
5.90124e-05
5.89907e-05
5.8979e-05
5.89705e-05
5.89646e-05
5.89651e-05
5.89727e-05
5.8986e-05
5.90089e-05
5.90474e-05
5.90999e-05
5.91614e-05
5.92236e-05
5.92867e-05
5.93505e-05
5.94198e-05
5.95058e-05
5.95839e-05
5.96699e-05
5.97415e-05
6.14509e-05
6.13992e-05
6.13483e-05
6.12975e-05
6.12468e-05
6.11961e-05
6.11452e-05
6.1094e-05
6.10425e-05
6.09915e-05
6.09413e-05
6.0892e-05
6.0843e-05
6.0794e-05
6.07445e-05
6.06949e-05
6.06453e-05
6.05965e-05
6.05485e-05
6.0501e-05
6.04535e-05
6.04056e-05
6.03581e-05
6.03121e-05
6.02682e-05
6.02259e-05
6.01836e-05
6.01404e-05
6.00969e-05
6.00555e-05
6.00176e-05
5.99829e-05
5.99493e-05
5.99159e-05
5.98835e-05
5.98535e-05
5.98267e-05
5.98039e-05
5.97861e-05
5.97729e-05
5.97635e-05
5.97596e-05
5.97601e-05
5.97709e-05
5.97862e-05
5.98071e-05
5.98398e-05
5.98727e-05
5.99205e-05
5.99632e-05
6.14677e-05
6.14345e-05
6.14016e-05
6.13686e-05
6.13356e-05
6.13025e-05
6.12691e-05
6.12356e-05
6.1202e-05
6.11685e-05
6.1135e-05
6.11018e-05
6.10687e-05
6.10355e-05
6.10023e-05
6.0969e-05
6.09359e-05
6.0903e-05
6.08701e-05
6.08373e-05
6.08044e-05
6.07716e-05
6.07391e-05
6.07073e-05
6.0676e-05
6.06445e-05
6.06125e-05
6.058e-05
6.0548e-05
6.05173e-05
6.04882e-05
6.04597e-05
6.04306e-05
6.04009e-05
6.03714e-05
6.03434e-05
6.03175e-05
6.02936e-05
6.02711e-05
6.0249e-05
6.02278e-05
6.0209e-05
6.01928e-05
6.0184e-05
6.0178e-05
6.01743e-05
6.01762e-05
6.01821e-05
6.01884e-05
6.02048e-05
6.1477e-05
6.14533e-05
6.14296e-05
6.14057e-05
6.13816e-05
6.13573e-05
6.13327e-05
6.13079e-05
6.12831e-05
6.12582e-05
6.12334e-05
6.12086e-05
6.11837e-05
6.11588e-05
6.11339e-05
6.11091e-05
6.10842e-05
6.10595e-05
6.10346e-05
6.10097e-05
6.09847e-05
6.09599e-05
6.09354e-05
6.09112e-05
6.08868e-05
6.08619e-05
6.08365e-05
6.0811e-05
6.07862e-05
6.07625e-05
6.07394e-05
6.07158e-05
6.06912e-05
6.06661e-05
6.06418e-05
6.06186e-05
6.05966e-05
6.05753e-05
6.05541e-05
6.05324e-05
6.05113e-05
6.04918e-05
6.04741e-05
6.04597e-05
6.04465e-05
6.04329e-05
6.04212e-05
6.04175e-05
6.04158e-05
6.04161e-05
6.14805e-05
6.14607e-05
6.1441e-05
6.14212e-05
6.14012e-05
6.13812e-05
6.13611e-05
6.13409e-05
6.13207e-05
6.13006e-05
6.12805e-05
6.12603e-05
6.12402e-05
6.12201e-05
6.12e-05
6.11801e-05
6.11602e-05
6.11403e-05
6.11202e-05
6.11001e-05
6.10801e-05
6.10603e-05
6.10408e-05
6.10214e-05
6.10016e-05
6.09813e-05
6.09609e-05
6.09408e-05
6.09215e-05
6.09028e-05
6.08839e-05
6.08643e-05
6.08441e-05
6.08241e-05
6.08049e-05
6.07864e-05
6.07683e-05
6.07502e-05
6.07318e-05
6.07134e-05
6.06961e-05
6.06794e-05
6.0663e-05
6.06484e-05
6.06353e-05
6.06213e-05
6.06105e-05
6.05981e-05
6.05895e-05
6.05841e-05
6.14854e-05
6.14706e-05
6.14557e-05
6.14406e-05
6.14253e-05
6.141e-05
6.13946e-05
6.13791e-05
6.13636e-05
6.1348e-05
6.13324e-05
6.13167e-05
6.13009e-05
6.12852e-05
6.12695e-05
6.12539e-05
6.12382e-05
6.12224e-05
6.12064e-05
6.11904e-05
6.11744e-05
6.11587e-05
6.1143e-05
6.11271e-05
6.11109e-05
6.10943e-05
6.10778e-05
6.10617e-05
6.1046e-05
6.10302e-05
6.1014e-05
6.09972e-05
6.09804e-05
6.09639e-05
6.09478e-05
6.09318e-05
6.09155e-05
6.08991e-05
6.08828e-05
6.08665e-05
6.08504e-05
6.08337e-05
6.08165e-05
6.08009e-05
6.07862e-05
6.07683e-05
6.0754e-05
6.07412e-05
6.07286e-05
6.07164e-05
6.1485e-05
6.14699e-05
6.14548e-05
6.14397e-05
6.14244e-05
6.14092e-05
6.1394e-05
6.13789e-05
6.13638e-05
6.13486e-05
6.13334e-05
6.13182e-05
6.1303e-05
6.12879e-05
6.12729e-05
6.1258e-05
6.1243e-05
6.12279e-05
6.12127e-05
6.11976e-05
6.11826e-05
6.11678e-05
6.11531e-05
6.11382e-05
6.1123e-05
6.11078e-05
6.10929e-05
6.10784e-05
6.10641e-05
6.10496e-05
6.10347e-05
6.10198e-05
6.10052e-05
6.09909e-05
6.09768e-05
6.09625e-05
6.09483e-05
6.09343e-05
6.09204e-05
6.09066e-05
6.08936e-05
6.08806e-05
6.08678e-05
6.08553e-05
6.08437e-05
6.08346e-05
6.08246e-05
6.08165e-05
6.08102e-05
6.08062e-05
6.149e-05
6.14801e-05
6.14702e-05
6.14602e-05
6.14501e-05
6.14401e-05
6.14301e-05
6.142e-05
6.14099e-05
6.13998e-05
6.13896e-05
6.13794e-05
6.13692e-05
6.1359e-05
6.13489e-05
6.13388e-05
6.13286e-05
6.13182e-05
6.13078e-05
6.12975e-05
6.12872e-05
6.1277e-05
6.12667e-05
6.12563e-05
6.12458e-05
6.12355e-05
6.12253e-05
6.12152e-05
6.12051e-05
6.11948e-05
6.11845e-05
6.11743e-05
6.11644e-05
6.11544e-05
6.11443e-05
6.11341e-05
6.11239e-05
6.11134e-05
6.1103e-05
6.10935e-05
6.10846e-05
6.10742e-05
6.10635e-05
6.10545e-05
6.10452e-05
6.10366e-05
6.10277e-05
6.10196e-05
6.10124e-05
6.10058e-05
6.1502e-05
6.15037e-05
6.15047e-05
6.15052e-05
6.15051e-05
6.15046e-05
6.15036e-05
6.15022e-05
6.15002e-05
6.14976e-05
6.14945e-05
6.1491e-05
6.14871e-05
6.14829e-05
6.1478e-05
6.14724e-05
6.14656e-05
6.14578e-05
6.14589e-05
6.14622e-05
6.14626e-05
6.14585e-05
6.14511e-05
6.14457e-05
6.14422e-05
6.14421e-05
6.14461e-05
6.1453e-05
6.14604e-05
6.14653e-05
6.14654e-05
6.14589e-05
6.14446e-05
6.14213e-05
6.14045e-05
6.13922e-05
6.13833e-05
6.13771e-05
6.1372e-05
6.1367e-05
6.13617e-05
6.13559e-05
6.13516e-05
6.13433e-05
6.13361e-05
6.13278e-05
6.13183e-05
6.13064e-05
6.12937e-05
6.12805e-05
0.000147203
0.000145642
0.000143866
0.000142093
0.000140362
0.000138679
0.000137044
0.000135451
0.000133895
0.00013237
0.000130871
0.000129392
0.000127926
0.000126464
0.000125002
0.000123536
0.000122067
0.000120597
0.000119131
0.000117682
0.000116254
0.000114851
0.000113474
0.000112122
0.000110796
0.000109493
0.000108211
0.000106944
0.00010569
0.000104444
0.000103204
0.000101968
0.000100731
9.94928e-05
9.82474e-05
9.70076e-05
9.5776e-05
9.45556e-05
9.33536e-05
9.21782e-05
9.10303e-05
8.99133e-05
8.88417e-05
8.78104e-05
8.6832e-05
8.59089e-05
8.50495e-05
8.42605e-05
8.35511e-05
8.29371e-05
0.000272578
0.000269228
0.000266017
0.000262933
0.000259962
0.000257088
0.000254295
0.000251578
0.000248933
0.000246359
0.000243851
0.000241408
0.000239028
0.000236709
0.000234449
0.000232245
0.000230097
0.000228002
0.000225959
0.000223967
0.000222022
0.000220125
0.000218274
0.000216466
0.000214702
0.000212979
0.000211297
0.000209654
0.000208049
0.000206482
0.000204951
0.000203455
0.000201993
0.000200566
0.00019917
0.000197807
0.000196475
0.000195174
0.000193903
0.000192658
0.000191433
0.000190227
0.000189039
0.000187864
0.000186702
0.000185547
0.000184392
0.000183229
0.000182036
0.000180777
0.000270631
0.000264445
0.000258535
0.000252875
0.00024746
0.000242281
0.000237332
0.000232598
0.000228067
0.000223725
0.000219561
0.000215564
0.000211725
0.000208035
0.000204484
0.000201067
0.000197775
0.000194601
0.000191539
0.000188583
0.000185727
0.000182967
0.000180297
0.000177712
0.000175209
0.000172784
0.000170432
0.000168151
0.000165937
0.000163788
0.000161699
0.000159669
0.000157694
0.000155771
0.000153897
0.00015207
0.000150285
0.000148541
0.000146835
0.000145168
0.000143544
0.000141961
0.000140417
0.000138911
0.00013744
0.000136003
0.000134598
0.000133221
0.00013187
0.000130539
0.000270621
0.000264414
0.000258462
0.000252764
0.000247308
0.000242081
0.000237071
0.000232264
0.000227648
0.000223213
0.000218947
0.000214842
0.000210889
0.000207078
0.000203404
0.000199858
0.000196435
0.000193127
0.00018993
0.000186837
0.000183843
0.000180944
0.000178135
0.000175413
0.000172772
0.00017021
0.000167723
0.000165308
0.000162963
0.000160683
0.000158467
0.000156313
0.000154216
0.000152176
0.00015019
0.000148257
0.000146373
0.000144539
0.000142751
0.000141008
0.000139309
0.000137653
0.000136038
0.000134464
0.000132928
0.000131431
0.000129972
0.000128549
0.000127162
0.00012581
0.000270621
0.000264458
0.00025856
0.000252914
0.000247505
0.000242318
0.000237339
0.000232557
0.000227959
0.000223537
0.00021928
0.000215179
0.000211226
0.000207414
0.000203736
0.000200184
0.000196753
0.000193437
0.000190229
0.000187125
0.00018412
0.000181209
0.000178387
0.000175651
0.000172997
0.000170421
0.00016792
0.000165491
0.000163132
0.000160839
0.000158609
0.000156441
0.000154331
0.000152278
0.00015028
0.000148333
0.000146437
0.00014459
0.000142789
0.000141034
0.000139323
0.000137655
0.000136028
0.000134441
0.000132894
0.000131385
0.000129914
0.000128479
0.00012708
0.000125715
0.000270621
0.000264459
0.000258559
0.000252906
0.000247488
0.000242291
0.000237302
0.000232512
0.000227908
0.00022348
0.000219219
0.000215117
0.000211164
0.000207352
0.000203676
0.000200127
0.000196699
0.000193387
0.000190183
0.000187084
0.000184083
0.000181177
0.00017836
0.000175629
0.000172979
0.000170408
0.000167912
0.000165488
0.000163132
0.000160843
0.000158618
0.000156453
0.000154348
0.000152298
0.000150303
0.000148359
0.000146466
0.000144621
0.000142823
0.00014107
0.000139361
0.000137694
0.000136068
0.000134482
0.000132935
0.000131426
0.000129954
0.000128517
0.000127115
0.000125747
0.000270621
0.000264463
0.00025857
0.000252926
0.000247519
0.000242334
0.000237358
0.000232579
0.000227986
0.000223568
0.000219316
0.000215221
0.000211275
0.000207469
0.000203797
0.000200252
0.000196827
0.000193517
0.000190315
0.000187216
0.000184216
0.000181309
0.000178491
0.000175759
0.000173108
0.000170536
0.000168038
0.000165612
0.000163255
0.000160963
0.000158736
0.000156569
0.00015446
0.000152408
0.00015041
0.000148464
0.000146567
0.000144719
0.000142918
0.000141161
0.000139448
0.000137777
0.000136147
0.000134557
0.000133005
0.00013149
0.000130012
0.000128569
0.00012716
0.000125784
0.000270621
0.000264464
0.000258572
0.000252929
0.000247522
0.000242336
0.000237358
0.000232576
0.00022798
0.000223559
0.000219304
0.000215205
0.000211256
0.000207448
0.000203773
0.000200226
0.000196799
0.000193487
0.000190284
0.000187184
0.000184183
0.000181276
0.000178459
0.000175726
0.000173076
0.000170504
0.000168007
0.000165581
0.000163225
0.000160934
0.000158707
0.000156541
0.000154434
0.000152383
0.000150385
0.00014844
0.000146544
0.000144697
0.000142896
0.00014114
0.000139427
0.000137756
0.000136126
0.000134535
0.000132982
0.000131467
0.000129987
0.000128542
0.00012713
0.00012575
0.000270621
0.000264464
0.000258573
0.000252932
0.000247527
0.000242343
0.000237368
0.000232589
0.000227996
0.000223578
0.000219326
0.000215231
0.000211285
0.000207479
0.000203808
0.000200263
0.000196839
0.000193528
0.000190327
0.000187229
0.000184229
0.000181323
0.000178506
0.000175775
0.000173124
0.000170552
0.000168055
0.000165629
0.000163272
0.000160981
0.000158754
0.000156587
0.000154478
0.000152426
0.000150427
0.00014848
0.000146583
0.000144733
0.00014293
0.000141172
0.000139456
0.000137783
0.000136149
0.000134555
0.000132998
0.000131478
0.000129993
0.000128543
0.000127125
0.000125738
0.000270621
0.000264464
0.000258574
0.000252934
0.000247529
0.000242345
0.00023737
0.000232591
0.000227997
0.000223579
0.000219326
0.00021523
0.000211282
0.000207476
0.000203803
0.000200257
0.000196831
0.00019352
0.000190318
0.000187218
0.000184217
0.00018131
0.000178492
0.00017576
0.000173109
0.000170536
0.000168038
0.000165612
0.000163255
0.000160963
0.000158735
0.000156568
0.000154459
0.000152406
0.000150407
0.00014846
0.000146562
0.000144712
0.000142908
0.000141149
0.000139433
0.000137758
0.000136123
0.000134527
0.000132969
0.000131446
0.000129959
0.000128505
0.000127083
0.000125693
0.000270621
0.000264464
0.000258574
0.000252934
0.000247529
0.000242346
0.000237371
0.000232593
0.000228
0.000223582
0.00021933
0.000215234
0.000211288
0.000207482
0.00020381
0.000200265
0.00019684
0.000193529
0.000190327
0.000187228
0.000184228
0.000181321
0.000178503
0.000175771
0.00017312
0.000170547
0.000168049
0.000165623
0.000163265
0.000160973
0.000158745
0.000156577
0.000154468
0.000152414
0.000150414
0.000148466
0.000146567
0.000144716
0.00014291
0.00014115
0.000139432
0.000137755
0.000136118
0.000134519
0.000132957
0.000131431
0.00012994
0.000128481
0.000127055
0.000125659
0.000270621
0.000264464
0.000258574
0.000252934
0.000247529
0.000242346
0.000237371
0.000232593
0.000228
0.000223582
0.00021933
0.000215234
0.000211288
0.000207482
0.00020381
0.000200265
0.00019684
0.000193529
0.000190326
0.000187227
0.000184227
0.000181319
0.000178501
0.000175769
0.000173118
0.000170545
0.000168046
0.00016562
0.000163262
0.00016097
0.000158741
0.000156572
0.000154462
0.000152408
0.000150407
0.000148457
0.000146558
0.000144705
0.000142899
0.000141137
0.000139417
0.000137738
0.000136099
0.000134498
0.000132934
0.000131404
0.000129909
0.000128447
0.000127016
0.000125615
0.000270621
0.000264464
0.000258574
0.000252933
0.000247528
0.000242345
0.000237369
0.00023259
0.000227997
0.000223578
0.000219326
0.00021523
0.000211283
0.000207476
0.000203803
0.000200257
0.000196831
0.00019352
0.000190316
0.000187217
0.000184215
0.000181307
0.000178488
0.000175755
0.000173103
0.00017053
0.000168031
0.000165604
0.000163245
0.000160953
0.000158723
0.000156555
0.000154444
0.000152389
0.000150387
0.000148437
0.000146537
0.000144684
0.000142877
0.000141113
0.000139393
0.000137713
0.000136072
0.000134469
0.000132902
0.00013137
0.000129872
0.000128406
0.000126972
0.000125566
0.000270621
0.000264464
0.000258573
0.000252932
0.000247527
0.000242342
0.000237367
0.000232588
0.000227995
0.000223577
0.000219326
0.000215231
0.000211285
0.000207479
0.000203808
0.000200263
0.000196838
0.000193527
0.000190325
0.000187226
0.000184225
0.000181317
0.000178499
0.000175766
0.000173114
0.000170541
0.000168042
0.000165614
0.000163256
0.000160963
0.000158733
0.000156563
0.000154451
0.000152395
0.000150393
0.000148441
0.000146539
0.000144685
0.000142876
0.000141111
0.000139388
0.000137705
0.000136062
0.000134456
0.000132885
0.00013135
0.000129847
0.000128376
0.000126936
0.000125525
0.000270621
0.000264463
0.000258572
0.000252929
0.000247521
0.000242335
0.000237357
0.000232575
0.000227979
0.000223558
0.000219303
0.000215205
0.000211256
0.000207448
0.000203773
0.000200226
0.000196798
0.000193486
0.000190281
0.00018718
0.000184178
0.000181269
0.000178449
0.000175715
0.000173063
0.000170489
0.00016799
0.000165562
0.000163203
0.00016091
0.00015868
0.00015651
0.000154399
0.000152343
0.00015034
0.000148389
0.000146487
0.000144633
0.000142824
0.000141059
0.000139335
0.000137653
0.000136009
0.000134402
0.00013283
0.000131293
0.000129788
0.000128315
0.000126872
0.000125457
0.000270621
0.000264463
0.000258569
0.000252926
0.000247518
0.000242333
0.000237357
0.000232578
0.000227985
0.000223567
0.000219316
0.000215221
0.000211275
0.000207469
0.000203797
0.000200252
0.000196826
0.000193514
0.000190311
0.00018721
0.000184208
0.000181299
0.000178479
0.000175744
0.000173091
0.000170516
0.000168016
0.000165587
0.000163226
0.000160931
0.0001587
0.000156528
0.000154414
0.000152356
0.000150351
0.000148398
0.000146493
0.000144636
0.000142824
0.000141056
0.00013933
0.000137644
0.000135996
0.000134385
0.00013281
0.000131267
0.000129757
0.000128278
0.000126829
0.000125408
0.000270621
0.000264459
0.000258559
0.000252906
0.000247487
0.00024229
0.000237301
0.00023251
0.000227906
0.000223479
0.000219219
0.000215116
0.000211164
0.000207353
0.000203676
0.000200127
0.000196698
0.000193385
0.00019018
0.000187078
0.000184075
0.000181166
0.000178347
0.000175613
0.00017296
0.000170386
0.000167887
0.00016546
0.000163101
0.000160808
0.000158578
0.000156408
0.000154296
0.000152239
0.000150236
0.000148284
0.000146381
0.000144526
0.000142715
0.000140949
0.000139224
0.000137539
0.000135892
0.000134281
0.000132705
0.000131163
0.000129652
0.000128172
0.000126722
0.000125299
0.000270621
0.000264458
0.00025856
0.000252914
0.000247504
0.000242317
0.000237338
0.000232555
0.000227958
0.000223536
0.000219279
0.000215178
0.000211226
0.000207414
0.000203735
0.000200183
0.000196751
0.000193433
0.000190224
0.000187118
0.00018411
0.000181196
0.000178371
0.000175632
0.000172974
0.000170395
0.000167891
0.000165459
0.000163095
0.000160797
0.000158562
0.000156388
0.000154272
0.000152211
0.000150204
0.000148248
0.000146342
0.000144483
0.00014267
0.0001409
0.000139172
0.000137485
0.000135836
0.000134223
0.000132646
0.000131103
0.000129593
0.000128114
0.000126666
0.000125249
0.000270621
0.000264413
0.000258461
0.000252763
0.000247307
0.000242079
0.000237068
0.000232261
0.000227646
0.000223211
0.000218946
0.000214841
0.000210888
0.000207078
0.000203404
0.000199858
0.000196434
0.000193125
0.000189925
0.00018683
0.000183834
0.000180933
0.000178122
0.000175396
0.000172754
0.000170189
0.0001677
0.000165284
0.000162936
0.000160655
0.000158437
0.00015628
0.000154181
0.000152139
0.000150151
0.000148215
0.000146329
0.000144492
0.000142702
0.000140957
0.000139256
0.000137597
0.000135979
0.000134402
0.000132864
0.000131365
0.000129906
0.000128487
0.000127113
0.000125788
0.00027063
0.000264443
0.000258531
0.000252871
0.000247455
0.000242275
0.000237327
0.000232593
0.000228063
0.000223722
0.000219559
0.000215564
0.000211726
0.000208038
0.000204489
0.000201073
0.000197782
0.000194608
0.000191547
0.000188592
0.000185737
0.000182978
0.00018031
0.000177728
0.00017523
0.00017281
0.000170466
0.000168194
0.000165991
0.000163855
0.000161783
0.000159772
0.00015782
0.000155925
0.000154086
0.000152301
0.000150569
0.000148888
0.000147257
0.000145676
0.000144144
0.000142662
0.000141229
0.000139846
0.000138515
0.00013724
0.000136026
0.000134881
0.000133823
0.000132888
0.000272581
0.000269229
0.000266016
0.000262931
0.00025996
0.000257085
0.000254291
0.000251573
0.000248928
0.000246353
0.000243846
0.000241403
0.000239023
0.000236704
0.000234444
0.00023224
0.00023009
0.000227994
0.000225949
0.000223954
0.000222006
0.000220105
0.000218249
0.000216437
0.000214668
0.000212939
0.00021125
0.0002096
0.000207987
0.00020641
0.000204868
0.00020336
0.000201884
0.000200441
0.000199027
0.000197643
0.000196287
0.000194958
0.000193655
0.000192376
0.000191121
0.000189887
0.000188673
0.000187479
0.000186302
0.000185141
0.000183994
0.000182858
0.000181731
0.000180608
0.000128521
6.71764e-05
4.96345e-05
4.71006e-05
4.60803e-05
4.57403e-05
4.50633e-05
4.46318e-05
4.40455e-05
4.35483e-05
4.30385e-05
4.24869e-05
4.20512e-05
4.14401e-05
4.10798e-05
4.03968e-05
4.03717e-05
4.16933e-05
5.5595e-05
0.000107678
0.000128669
6.7323e-05
4.98072e-05
4.72816e-05
4.62641e-05
4.59217e-05
4.52447e-05
4.48108e-05
4.42239e-05
4.37246e-05
4.32139e-05
4.26605e-05
4.22236e-05
4.16111e-05
4.12494e-05
4.05653e-05
4.05391e-05
4.18625e-05
5.5762e-05
0.000107804
0.000128803
6.74681e-05
4.99795e-05
4.74632e-05
4.64486e-05
4.61036e-05
4.54266e-05
4.49904e-05
4.4403e-05
4.39017e-05
4.33902e-05
4.28352e-05
4.23972e-05
4.17836e-05
4.14204e-05
4.07357e-05
4.07082e-05
4.2033e-05
5.59172e-05
0.000107924
0.000128953
6.76074e-05
5.01519e-05
4.76462e-05
4.66344e-05
4.62871e-05
4.56102e-05
4.51717e-05
4.45839e-05
4.40807e-05
4.35685e-05
4.30121e-05
4.25731e-05
4.19585e-05
4.15939e-05
4.09087e-05
4.08795e-05
4.22016e-05
5.60649e-05
0.000108048
0.000129101
6.77448e-05
5.03248e-05
4.78301e-05
4.68213e-05
4.64717e-05
4.57951e-05
4.53544e-05
4.47665e-05
4.42616e-05
4.37488e-05
4.31911e-05
4.27512e-05
4.21357e-05
4.17697e-05
4.1084e-05
4.10528e-05
4.23707e-05
5.62104e-05
0.000108175
0.000129249
6.78818e-05
5.04987e-05
4.80151e-05
4.70095e-05
4.66575e-05
4.59814e-05
4.55387e-05
4.49508e-05
4.44444e-05
4.39312e-05
4.33723e-05
4.29316e-05
4.23152e-05
4.1948e-05
4.12617e-05
4.12284e-05
4.25411e-05
5.63567e-05
0.000108304
0.000129396
6.80194e-05
5.06739e-05
4.82014e-05
4.7199e-05
4.68449e-05
4.61693e-05
4.57247e-05
4.5137e-05
4.4629e-05
4.41156e-05
4.35556e-05
4.31142e-05
4.2497e-05
4.21286e-05
4.14417e-05
4.14062e-05
4.27129e-05
5.65046e-05
0.000108436
0.000129544
6.8158e-05
5.08506e-05
4.83891e-05
4.73899e-05
4.70337e-05
4.63589e-05
4.59124e-05
4.53249e-05
4.48156e-05
4.4302e-05
4.3741e-05
4.32988e-05
4.26809e-05
4.23112e-05
4.16237e-05
4.15858e-05
4.28862e-05
5.6654e-05
0.000108569
0.000129693
6.82979e-05
5.10289e-05
4.85782e-05
4.75823e-05
4.72239e-05
4.655e-05
4.61017e-05
4.55145e-05
4.50038e-05
4.449e-05
4.3928e-05
4.34851e-05
4.28665e-05
4.24956e-05
4.18074e-05
4.17672e-05
4.30607e-05
5.68041e-05
0.000108704
0.000129842
6.84391e-05
5.12088e-05
4.87687e-05
4.77763e-05
4.74156e-05
4.67426e-05
4.62924e-05
4.57056e-05
4.51935e-05
4.46796e-05
4.41165e-05
4.36728e-05
4.30536e-05
4.26814e-05
4.19926e-05
4.19499e-05
4.32361e-05
5.69542e-05
0.00010884
0.000129993
6.85814e-05
5.13902e-05
4.89607e-05
4.79716e-05
4.76088e-05
4.69365e-05
4.64845e-05
4.58979e-05
4.53845e-05
4.48703e-05
4.43062e-05
4.38618e-05
4.32418e-05
4.28685e-05
4.2179e-05
4.21338e-05
4.34124e-05
5.71036e-05
0.000108977
0.000130144
6.87247e-05
5.1573e-05
4.91542e-05
4.81684e-05
4.78032e-05
4.71318e-05
4.66779e-05
4.60916e-05
4.55768e-05
4.50622e-05
4.4497e-05
4.40519e-05
4.34312e-05
4.30567e-05
4.23665e-05
4.23189e-05
4.35894e-05
5.72521e-05
0.000109116
0.000130297
6.88691e-05
5.17572e-05
4.93491e-05
4.83667e-05
4.79992e-05
4.73286e-05
4.68726e-05
4.62866e-05
4.57702e-05
4.52554e-05
4.4689e-05
4.42432e-05
4.36218e-05
4.32461e-05
4.25553e-05
4.25052e-05
4.37674e-05
5.74001e-05
0.000109255
0.00013045
6.9015e-05
5.1943e-05
4.95456e-05
4.85666e-05
4.81967e-05
4.75269e-05
4.70689e-05
4.64831e-05
4.59652e-05
4.545e-05
4.48825e-05
4.44359e-05
4.38137e-05
4.34369e-05
4.27455e-05
4.26929e-05
4.39466e-05
5.75482e-05
0.000109396
0.000130605
6.9163e-05
5.21305e-05
4.9744e-05
4.87684e-05
4.83962e-05
4.77272e-05
4.72671e-05
4.66814e-05
4.61619e-05
4.56464e-05
4.50777e-05
4.46303e-05
4.40073e-05
4.36293e-05
4.29372e-05
4.28821e-05
4.41272e-05
5.76973e-05
0.000109538
0.00013076
6.93136e-05
5.232e-05
4.99445e-05
4.89724e-05
4.85978e-05
4.79295e-05
4.74673e-05
4.68818e-05
4.63606e-05
4.58447e-05
4.52748e-05
4.48266e-05
4.42028e-05
4.38236e-05
4.31308e-05
4.3073e-05
4.43097e-05
5.78481e-05
0.000109683
0.000130918
6.94674e-05
5.25119e-05
5.01473e-05
4.91787e-05
4.88017e-05
4.81342e-05
4.76699e-05
4.70844e-05
4.65616e-05
4.60452e-05
4.54741e-05
4.50251e-05
4.44005e-05
4.40198e-05
4.33263e-05
4.32659e-05
4.44944e-05
5.80015e-05
0.000109829
0.000131078
6.96246e-05
5.27064e-05
5.03526e-05
4.93876e-05
4.90081e-05
4.83414e-05
4.78749e-05
4.72894e-05
4.67649e-05
4.62481e-05
4.56758e-05
4.52258e-05
4.46003e-05
4.42182e-05
4.3524e-05
4.34608e-05
4.46813e-05
5.81579e-05
0.000109977
0.00013124
6.97848e-05
5.29033e-05
5.05604e-05
4.95989e-05
4.92169e-05
4.8551e-05
4.80823e-05
4.74969e-05
4.69707e-05
4.64534e-05
4.58798e-05
4.54288e-05
4.48024e-05
4.44188e-05
4.37237e-05
4.36579e-05
4.48706e-05
5.83173e-05
0.000110127
0.000131405
6.99475e-05
5.31027e-05
5.07705e-05
4.98127e-05
4.94281e-05
4.87629e-05
4.8292e-05
4.77066e-05
4.71787e-05
4.66609e-05
4.6086e-05
4.5634e-05
4.50067e-05
4.46214e-05
4.39256e-05
4.38569e-05
4.50621e-05
5.84794e-05
0.000110279
0.000131572
7.0112e-05
5.33043e-05
5.09827e-05
5.00285e-05
4.96414e-05
4.89769e-05
4.85037e-05
4.79185e-05
4.73888e-05
4.68705e-05
4.62943e-05
4.58411e-05
4.52129e-05
4.4826e-05
4.41294e-05
4.4058e-05
4.52556e-05
5.86437e-05
0.000110433
0.000131742
7.02776e-05
5.35078e-05
5.11969e-05
5.02464e-05
4.98565e-05
4.91929e-05
4.87174e-05
4.81323e-05
4.76008e-05
4.70819e-05
4.65044e-05
4.60501e-05
4.54209e-05
4.50324e-05
4.4335e-05
4.42608e-05
4.5451e-05
5.88096e-05
0.000110588
0.000131913
7.04437e-05
5.37129e-05
5.14127e-05
5.04659e-05
5.00733e-05
4.94105e-05
4.89328e-05
4.83477e-05
4.78144e-05
4.7295e-05
4.67161e-05
4.62607e-05
4.56306e-05
4.52404e-05
4.45423e-05
4.44653e-05
4.5648e-05
5.89763e-05
0.000110745
0.000132086
7.06096e-05
5.39195e-05
5.16301e-05
5.06869e-05