/*--------------------------------*- C++ -*----------------------------------*\
  =========                 |
  \\      /  F ield         | OpenFOAM: The Open Source CFD Toolbox
   \\    /   O peration     | Website:  https://openfoam.org
    \\  /    A nd           | Version:  8
     \\/     M anipulation  |
\*---------------------------------------------------------------------------*/
FoamFile
{
    version     2.0;
    format      ascii;
    class       volScalarField;
    location    "900";
    object      p;
}
// * * * * * * * * * * * * * * * * * * * * * * * * * * * * * * * * * * * * * //

dimensions      [1 -1 -2 0 0 0 0];

internalField   nonuniform List<scalar> 
8400
(
33927.9
63615.1
93332.2
121660
148423
173458
196706
218193
238015
256316
273266
289033
303771
317605
330635
342951
354647
365831
376632
387185
397624
408065
418615
429372
440441
451935
463976
476690
490203
504656
520214
537082
555510
575793
598292
623445
651794
683978
720737
762913
811475
867542
932420
1.00767e+06
1.09511e+06
1.19649e+06
1.31355e+06
1.45028e+06
1.61713e+06
1.82335e+06
33353.6
63158.3
93182.8
121795
148750
173874
197123
218544
238258
256430
273244
288874
303475
317168
330052
342221
353772
364822
375499
385937
396257
406566
416959
427534
438394
449655
461434
473849
487020
501085
516209
532595
550480
570144
591930
616264
643666
674734
710156
750721
797338
851038
913005
984629
1.06748e+06
1.16305e+06
1.27275e+06
1.3992e+06
1.54857e+06
1.72779e+06
35103.9
66260.8
97148.4
126285
153506
178693
201857
223100
242586
260512
277079
292472
306848
320332
333028
345037
356463
367423
378042
388442
398729
409001
419347
429862
440651
451826
463499
475780
488787
502662
517575
533723
551338
570694
592132
616068
642996
673478
708165
747817
793306
845621
905898
975454
1.05575e+06
1.14824e+06
1.2544e+06
1.37625e+06
1.51741e+06
1.6818e+06
33866.1
65800.8
97581.5
127387
154967
180242
203296
224300
243475
261054
277259
292284
306293
319416
331769
343459
354595
365292
375662
385810
395828
405802
415818
425966
436345
447057
458201
469879
482204
495317
509381
524585
541147
559331
579462
601928
627169
655693
688095
725071
767421
816053
872017
936516
1.01088e+06
1.09652e+06
1.19495e+06
1.30804e+06
1.4385e+06
1.58976e+06
36340.3
70630.2
103842
134418
162289
187525
210335
230985
249760
266928
282731
297372
311022
323819
335888
347341
358288
368834
379080
389114
399018
408870
418752
428751
438957
449459
460347
471717
483681
496379
509968
524626
540565
558041
577360
598873
622977
650128
680869
715834
755741
801411
853785
913928
983027
1.06239e+06
1.15342e+06
1.25772e+06
1.37745e+06
1.51556e+06
35391.1
71255.8
105738
137012
165078
190169
212639
232858
251171
267876
283229
297440
310685
323109
334842
345999
356685
366994
377013
386819
396486
406085
415695
425396
435268
445386
455831
466695
478093
490157
503037
516904
531962
548457
566675
586936
609600
635095
663923
696665
733979
776617
825442
881425
945677
1.01946e+06
1.10414e+06
1.20119e+06
1.31245e+06
1.44041e+06
37912
76803.5
112814
144608
172599
197310
219276
238965
256766
272997
287913
301727
314614
326724
338184
349108
359592
369721
379570
389207
398701
408122
417543
427037
436672
446514
456638
467136
478120
489716
502066
515333
529709
545425
562740
581948
603384
627448
654603
685376
720363
760253
805838
858019
917845
986515
1.06536e+06
1.15583e+06
1.25967e+06
1.37902e+06
37848.1
79349.4
116539
148512
176161
200334
221727
240878
258193
273991
288523
301994
314577
326421
337652
348376
358684
368650
378344
387828
397169
406439
415706
425036
434486
444120
454009
464246
474940
486212
498197
511047
524943
540098
556752
575182
595712
618720
644637
673949
707211
745068
788262
837654
894242
959161
1.03369e+06
1.11928e+06
1.2176e+06
1.33066e+06
40589.6
85585.8
123220
154704
181618
205084
225872
244520
261420
276869
291103
304321
316688
328346
339420
350009
360196
370048
379628
388998
398225
407377
416520
425711
435004
444458
454144
464154
474597
485589
497258
509749
523233
537909
554008
571803
591611
613796
638769
666992
699003
735421
776967
824485
878920
941362
1.01306e+06
1.09544e+06
1.1901e+06
1.29898e+06
41754.8
89073.2
126122
156979
183358
206383
226812
245162
261803
277022
291047
304072
316264
327765
338699
349165
359242
368999
378498
387801
396977
406094
415213
424389
433674
443126
452817
462838
473294
484298
495974
508464
521935
536581
552629
570346
590046
612088
636871
664848
696552
732597
773696
820669
874457
936130
1.00693e+06
1.08824e+06
1.18165e+06
1.28896e+06
38821.5
86338.4
124955
156433
183202
206584
227304
245876
262692
278052
292196
305321
317595
329166
340155
350663
360768
370538
380039
389339
398510
407620
416730
425892
435159
444593
454273
464291
474747
485750
497423
509913
523389
538048
554113
571855
591591
613677
638515
666572
698394
734610
775944
823233
877456
939696
1.01121e+06
1.09344e+06
1.18796e+06
1.29646e+06
21011.3
72542.2
115636
149018
176759
200940
222315
241374
258548
274180
288533
301819
314214
325870
336910
347434
357525
367256
376701
385931
395023
404043
413054
422115
431290
440656
450299
460314
470800
481868
493654
506318
520042
535027
551506
569759
590113
612937
638660
667784
700879
738592
781684
831030
887685
952759
1.02756e+06
1.11359e+06
1.21241e+06
1.32571e+06
21239.5
66184.9
111581
147682
177082
202681
225437
245729
263945
280448
295526
309402
322264
334269
345550
356219
366372
376099
385483
394603
403535
412352
421124
429928
438850
447983
457426
467278
477649
488673
500511
513348
527378
542811
559888
578902
600194
624154
651240
681982
716964
756864
802501
854821
914986
984195
1.06389e+06
1.15567e+06
1.26127e+06
1.38235e+06
-12418.3
34502
83396.1
121958
153020
180159
204565
226493
246225
264104
280420
295393
309205
322013
333958
345169
355764
365849
375519
384858
393941
402844
411646
420443
429337
438433
447834
457645
468000
479066
491045
504153
518606
534636
552514
572570
595182
620783
649881
683048
720927
764293
814078
871359
937446
1.01373e+06
1.10185e+06
1.2035e+06
1.32073e+06
1.45533e+06
11889.3
45001.4
94451.5
136242
169276
197872
223715
246987
267852
286622
303582
318947
332891
345580
357178
367851
377761
387056
395868
404307
412469
420451
428360
436310
444414
452775
461489
470671
480479
491117
502822
515834
530401
546797
565354
586452
610510
637998
669461
705516
746872
794411
849153
912268
985208
1.06964e+06
1.16741e+06
1.28065e+06
1.41156e+06
1.56229e+06
-56785.5
-10889.6
44110.4
87635.9
122301
153245
182087
208698
232989
255116
275251
293507
309980
324790
338088
350057
360895
370801
379960
388538
396694
404586
412378
420224
428256
436574
445275
454483
464380
475192
487177
500610
515799
533108
552962
575816
602147
632487
667447
707710
754084
807557
869220
940356
1.02265e+06
1.11813e+06
1.2288e+06
1.35727e+06
1.5064e+06
1.679e+06
6963.21
31510.6
82325.6
124600
157498
187214
215564
242223
266927
289681
310500
329343
346168
360976
373845
384924
394418
402569
409629
415859
421527
426900
432232
437737
443575
449856
456672
464142
472428
481731
492295
504425
518504
534998
554427
577338
604309
635981
673045
716219
766361
824539
891914
969934
1.06038e+06
1.16552e+06
1.28806e+06
1.43111e+06
1.5984e+06
1.79412e+06
-110395
-41677.8
24288.2
68708.6
104532
138422
171233
202513
232027
259714
285477
309141
330504
349403
365763
379620
391115
400475
408001
414058
419070
423485
427709
432072
436827
442144
448142
454919
462588
471304
481295
492892
506543
522801
542288
565692
593784
627411
667412
714638
770201
835455
911613
1.0004e+06
1.10399e+06
1.2251e+06
1.36688e+06
1.53321e+06
1.72892e+06
1.9616e+06
6434.47
28688.8
55173.8
81510.6
110179
141352
173475
205147
235644
264672
292043
317511
340754
361433
379280
394164
406115
415320
422103
426918
430325
432942
435296
437822
440880
444693
449374
454954
461439
468888
477481
487534
499488
513886
531353
552605
578474
609921
647964
693652
748200
812977
889430
979723
1.08593e+06
1.21126e+06
1.35905e+06
1.53351e+06
1.7392e+06
1.98092e+06
47117.1
76048.8
88007.3
105004
128282
156354
187049
218440
249289
278948
307037
333209
357064
378179
396192
410890
422259
430490
435969
439254
441037
442068
443051
444492
446774
450181
454812
460652
467646
475815
485338
496572
510005
526200
545773
569398
597889
632217
673321
722100
779780
847746
927155
1.01999e+06
1.12798e+06
1.25375e+06
1.40006e+06
1.5702e+06
1.76778e+06
1.99577e+06
5.06204e+06
5.06153e+06
5.06128e+06
5.06119e+06
5.06114e+06
5.0611e+06
5.06108e+06
5.06107e+06
5.06106e+06
5.06106e+06
5.06105e+06
5.06106e+06
5.06106e+06
5.06107e+06
5.06107e+06
5.06108e+06
5.06108e+06
5.06109e+06
5.06109e+06
5.06109e+06
5.06109e+06
5.06109e+06
5.06109e+06
5.06109e+06
5.06109e+06
5.06109e+06
5.06109e+06
5.06109e+06
5.06109e+06
5.06109e+06
5.0611e+06
5.06111e+06
5.06111e+06
5.06112e+06
5.06112e+06
5.06113e+06
5.06113e+06
5.06113e+06
5.06113e+06
5.06113e+06
5.06112e+06
5.06111e+06
5.06109e+06
5.06107e+06
5.06104e+06
5.06101e+06
5.06096e+06
5.0609e+06
5.06082e+06
5.06072e+06
5.06035e+06
5.06063e+06
5.06073e+06
5.06077e+06
5.0608e+06
5.06082e+06
5.06084e+06
5.06085e+06
5.06086e+06
5.06088e+06
5.06089e+06
5.0609e+06
5.06091e+06
5.06092e+06
5.06093e+06
5.06094e+06
5.06095e+06
5.06096e+06
5.06097e+06
5.06097e+06
5.06097e+06
5.06097e+06
5.06097e+06
5.06097e+06
5.06097e+06
5.06097e+06
5.06097e+06
5.06098e+06
5.06098e+06
5.06099e+06
5.06099e+06
5.061e+06
5.06101e+06
5.06101e+06
5.06102e+06
5.06102e+06
5.06103e+06
5.06103e+06
5.06103e+06
5.06102e+06
5.06102e+06
5.06101e+06
5.06099e+06
5.06097e+06
5.06095e+06
5.06091e+06
5.06087e+06
5.06081e+06
5.06075e+06
5.06066e+06
5.06071e+06
5.06084e+06
5.06092e+06
5.06093e+06
5.06092e+06
5.06091e+06
5.0609e+06
5.0609e+06
5.06089e+06
5.06089e+06
5.06088e+06
5.06088e+06
5.06089e+06
5.06089e+06
5.06089e+06
5.0609e+06
5.0609e+06
5.06091e+06
5.06091e+06
5.06091e+06
5.06091e+06
5.06091e+06
5.06091e+06
5.0609e+06
5.0609e+06
5.0609e+06
5.0609e+06
5.0609e+06
5.0609e+06
5.06091e+06
5.06091e+06
5.06092e+06
5.06093e+06
5.06093e+06
5.06094e+06
5.06094e+06
5.06094e+06
5.06095e+06
5.06094e+06
5.06094e+06
5.06094e+06
5.06093e+06
5.06091e+06
5.0609e+06
5.06087e+06
5.06084e+06
5.0608e+06
5.06076e+06
5.0607e+06
5.06063e+06
5.06063e+06
5.06066e+06
5.06067e+06
5.06067e+06
5.06066e+06
5.06066e+06
5.06067e+06
5.06067e+06
5.06068e+06
5.06068e+06
5.06069e+06
5.0607e+06
5.06071e+06
5.06072e+06
5.06073e+06
5.06074e+06
5.06075e+06
5.06076e+06
5.06077e+06
5.06077e+06
5.06077e+06
5.06077e+06
5.06077e+06
5.06077e+06
5.06077e+06
5.06077e+06
5.06078e+06
5.06078e+06
5.06078e+06
5.06079e+06
5.0608e+06
5.06081e+06
5.06081e+06
5.06082e+06
5.06083e+06
5.06083e+06
5.06084e+06
5.06084e+06
5.06084e+06
5.06084e+06
5.06083e+06
5.06083e+06
5.06082e+06
5.0608e+06
5.06078e+06
5.06076e+06
5.06073e+06
5.06069e+06
5.06064e+06
5.06059e+06
5.06057e+06
5.06058e+06
5.0606e+06
5.06062e+06
5.06063e+06
5.06064e+06
5.06065e+06
5.06065e+06
5.06066e+06
5.06066e+06
5.06067e+06
5.06067e+06
5.06068e+06
5.06068e+06
5.06069e+06
5.0607e+06
5.06071e+06
5.06071e+06
5.06071e+06
5.06072e+06
5.06072e+06
5.06071e+06
5.06071e+06
5.06071e+06
5.06071e+06
5.06071e+06
5.06071e+06
5.06071e+06
5.06072e+06
5.06072e+06
5.06073e+06
5.06073e+06
5.06074e+06
5.06075e+06
5.06075e+06
5.06076e+06
5.06076e+06
5.06076e+06
5.06077e+06
5.06076e+06
5.06076e+06
5.06076e+06
5.06075e+06
5.06074e+06
5.06072e+06
5.0607e+06
5.06067e+06
5.06064e+06
5.06061e+06
5.06056e+06
5.06048e+06
5.06049e+06
5.06049e+06
5.0605e+06
5.0605e+06
5.06051e+06
5.06051e+06
5.06051e+06
5.06051e+06
5.06051e+06
5.06052e+06
5.06052e+06
5.06053e+06
5.06054e+06
5.06055e+06
5.06056e+06
5.06057e+06
5.06057e+06
5.06058e+06
5.06058e+06
5.06058e+06
5.06058e+06
5.06058e+06
5.06058e+06
5.06058e+06
5.06059e+06
5.06059e+06
5.06059e+06
5.0606e+06
5.06061e+06
5.06061e+06
5.06062e+06
5.06063e+06
5.06064e+06
5.06064e+06
5.06065e+06
5.06065e+06
5.06066e+06
5.06066e+06
5.06066e+06
5.06066e+06
5.06066e+06
5.06066e+06
5.06065e+06
5.06064e+06
5.06062e+06
5.0606e+06
5.06058e+06
5.06055e+06
5.06052e+06
5.06039e+06
5.06039e+06
5.0604e+06
5.06041e+06
5.06041e+06
5.06042e+06
5.06042e+06
5.06043e+06
5.06044e+06
5.06044e+06
5.06045e+06
5.06046e+06
5.06046e+06
5.06047e+06
5.06048e+06
5.06049e+06
5.0605e+06
5.0605e+06
5.06051e+06
5.06051e+06
5.06051e+06
5.06051e+06
5.06051e+06
5.06051e+06
5.06051e+06
5.06052e+06
5.06052e+06
5.06052e+06
5.06053e+06
5.06053e+06
5.06054e+06
5.06055e+06
5.06056e+06
5.06056e+06
5.06057e+06
5.06057e+06
5.06058e+06
5.06058e+06
5.06059e+06
5.06059e+06
5.06059e+06
5.06059e+06
5.06059e+06
5.06059e+06
5.06058e+06
5.06057e+06
5.06056e+06
5.06054e+06
5.06052e+06
5.0605e+06
5.0603e+06
5.0603e+06
5.0603e+06
5.06031e+06
5.06031e+06
5.06031e+06
5.06032e+06
5.06032e+06
5.06033e+06
5.06033e+06
5.06034e+06
5.06034e+06
5.06035e+06
5.06036e+06
5.06036e+06
5.06037e+06
5.06038e+06
5.06039e+06
5.06039e+06
5.06039e+06
5.0604e+06
5.0604e+06
5.0604e+06
5.0604e+06
5.0604e+06
5.0604e+06
5.06041e+06
5.06041e+06
5.06042e+06
5.06043e+06
5.06043e+06
5.06044e+06
5.06045e+06
5.06046e+06
5.06047e+06
5.06047e+06
5.06048e+06
5.06049e+06
5.06049e+06
5.0605e+06
5.0605e+06
5.06051e+06
5.06051e+06
5.06051e+06
5.06051e+06
5.0605e+06
5.0605e+06
5.06049e+06
5.06048e+06
5.06046e+06
5.0602e+06
5.0602e+06
5.0602e+06
5.06021e+06
5.06021e+06
5.06022e+06
5.06022e+06
5.06023e+06
5.06023e+06
5.06024e+06
5.06024e+06
5.06025e+06
5.06026e+06
5.06027e+06
5.06028e+06
5.06029e+06
5.06029e+06
5.0603e+06
5.06031e+06
5.06031e+06
5.06031e+06
5.06031e+06
5.06032e+06
5.06032e+06
5.06032e+06
5.06032e+06
5.06033e+06
5.06033e+06
5.06034e+06
5.06035e+06
5.06035e+06
5.06036e+06
5.06037e+06
5.06038e+06
5.06039e+06
5.06039e+06
5.0604e+06
5.06041e+06
5.06041e+06
5.06042e+06
5.06043e+06
5.06044e+06
5.06044e+06
5.06044e+06
5.06045e+06
5.06045e+06
5.06045e+06
5.06045e+06
5.06044e+06
5.06044e+06
5.0601e+06
5.0601e+06
5.06011e+06
5.06011e+06
5.06011e+06
5.06012e+06
5.06012e+06
5.06013e+06
5.06013e+06
5.06014e+06
5.06014e+06
5.06015e+06
5.06016e+06
5.06017e+06
5.06017e+06
5.06018e+06
5.06019e+06
5.0602e+06
5.0602e+06
5.06021e+06
5.06021e+06
5.06021e+06
5.06021e+06
5.06022e+06
5.06022e+06
5.06022e+06
5.06023e+06
5.06024e+06
5.06024e+06
5.06025e+06
5.06026e+06
5.06027e+06
5.06027e+06
5.06028e+06
5.06029e+06
5.0603e+06
5.06031e+06
5.06032e+06
5.06033e+06
5.06034e+06
5.06034e+06
5.06035e+06
5.06036e+06
5.06037e+06
5.06038e+06
5.06039e+06
5.06039e+06
5.06039e+06
5.0604e+06
5.0604e+06
5.06e+06
5.06001e+06
5.06001e+06
5.06001e+06
5.06002e+06
5.06002e+06
5.06003e+06
5.06003e+06
5.06004e+06
5.06004e+06
5.06005e+06
5.06005e+06
5.06006e+06
5.06007e+06
5.06008e+06
5.06008e+06
5.06009e+06
5.0601e+06
5.0601e+06
5.06011e+06
5.06011e+06
5.06011e+06
5.06012e+06
5.06012e+06
5.06013e+06
5.06013e+06
5.06014e+06
5.06014e+06
5.06015e+06
5.06016e+06
5.06017e+06
5.06018e+06
5.06018e+06
5.06019e+06
5.0602e+06
5.06021e+06
5.06022e+06
5.06023e+06
5.06024e+06
5.06025e+06
5.06027e+06
5.06028e+06
5.06029e+06
5.0603e+06
5.06031e+06
5.06033e+06
5.06034e+06
5.06035e+06
5.06036e+06
5.06037e+06
5.05991e+06
5.05991e+06
5.05991e+06
5.05991e+06
5.05992e+06
5.05992e+06
5.05993e+06
5.05993e+06
5.05994e+06
5.05995e+06
5.05995e+06
5.05996e+06
5.05997e+06
5.05997e+06
5.05998e+06
5.05999e+06
5.06e+06
5.06e+06
5.06001e+06
5.06002e+06
5.06002e+06
5.06002e+06
5.06003e+06
5.06003e+06
5.06004e+06
5.06004e+06
5.06005e+06
5.06006e+06
5.06007e+06
5.06007e+06
5.06008e+06
5.06009e+06
5.0601e+06
5.06011e+06
5.06012e+06
5.06013e+06
5.06014e+06
5.06015e+06
5.06016e+06
5.06017e+06
5.06019e+06
5.0602e+06
5.06022e+06
5.06024e+06
5.06025e+06
5.06027e+06
5.06028e+06
5.0603e+06
5.06032e+06
5.06033e+06
5.05981e+06
5.05981e+06
5.05981e+06
5.05982e+06
5.05982e+06
5.05983e+06
5.05983e+06
5.05984e+06
5.05984e+06
5.05984e+06
5.05985e+06
5.05985e+06
5.05986e+06
5.05987e+06
5.05987e+06
5.05988e+06
5.05989e+06
5.05989e+06
5.0599e+06
5.05991e+06
5.05991e+06
5.05991e+06
5.05992e+06
5.05992e+06
5.05993e+06
5.05994e+06
5.05995e+06
5.05995e+06
5.05996e+06
5.05997e+06
5.05998e+06
5.05999e+06
5.06e+06
5.06001e+06
5.06002e+06
5.06003e+06
5.06004e+06
5.06005e+06
5.06007e+06
5.06008e+06
5.0601e+06
5.06012e+06
5.06014e+06
5.06016e+06
5.06018e+06
5.0602e+06
5.06022e+06
5.06024e+06
5.06027e+06
5.06029e+06
5.05971e+06
5.05971e+06
5.05972e+06
5.05972e+06
5.05973e+06
5.05973e+06
5.05974e+06
5.05975e+06
5.05975e+06
5.05976e+06
5.05977e+06
5.05977e+06
5.05978e+06
5.05979e+06
5.0598e+06
5.0598e+06
5.05981e+06
5.05982e+06
5.05982e+06
5.05983e+06
5.05983e+06
5.05984e+06
5.05984e+06
5.05985e+06
5.05985e+06
5.05986e+06
5.05987e+06
5.05988e+06
5.05989e+06
5.05989e+06
5.0599e+06
5.05991e+06
5.05992e+06
5.05993e+06
5.05994e+06
5.05995e+06
5.05996e+06
5.05998e+06
5.05999e+06
5.06001e+06
5.06003e+06
5.06005e+06
5.06007e+06
5.0601e+06
5.06012e+06
5.06014e+06
5.06017e+06
5.0602e+06
5.06023e+06
5.06026e+06
5.0596e+06
5.05961e+06
5.05962e+06
5.05962e+06
5.05963e+06
5.05963e+06
5.05963e+06
5.05963e+06
5.05963e+06
5.05964e+06
5.05964e+06
5.05965e+06
5.05965e+06
5.05966e+06
5.05967e+06
5.05967e+06
5.05968e+06
5.05969e+06
5.05969e+06
5.0597e+06
5.05971e+06
5.05971e+06
5.05972e+06
5.05973e+06
5.05974e+06
5.05974e+06
5.05975e+06
5.05976e+06
5.05977e+06
5.05978e+06
5.05979e+06
5.0598e+06
5.05981e+06
5.05982e+06
5.05983e+06
5.05985e+06
5.05986e+06
5.05988e+06
5.05989e+06
5.05991e+06
5.05994e+06
5.05996e+06
5.05998e+06
5.06001e+06
5.06004e+06
5.06007e+06
5.0601e+06
5.06014e+06
5.06017e+06
5.06021e+06
5.05949e+06
5.05951e+06
5.05953e+06
5.05955e+06
5.05956e+06
5.05957e+06
5.05957e+06
5.05958e+06
5.05959e+06
5.05959e+06
5.05959e+06
5.0596e+06
5.0596e+06
5.05961e+06
5.05961e+06
5.05962e+06
5.05963e+06
5.05963e+06
5.05964e+06
5.05964e+06
5.05965e+06
5.05965e+06
5.05966e+06
5.05966e+06
5.05967e+06
5.05968e+06
5.05969e+06
5.05969e+06
5.0597e+06
5.05971e+06
5.05972e+06
5.05973e+06
5.05974e+06
5.05975e+06
5.05976e+06
5.05977e+06
5.05979e+06
5.0598e+06
5.05982e+06
5.05984e+06
5.05987e+06
5.05989e+06
5.05992e+06
5.05995e+06
5.05998e+06
5.06001e+06
5.06005e+06
5.06009e+06
5.06013e+06
5.06018e+06
5.05936e+06
5.05939e+06
5.0594e+06
5.0594e+06
5.05939e+06
5.0594e+06
5.0594e+06
5.0594e+06
5.05941e+06
5.05942e+06
5.05942e+06
5.05943e+06
5.05944e+06
5.05945e+06
5.05946e+06
5.05947e+06
5.05947e+06
5.05948e+06
5.05949e+06
5.0595e+06
5.05951e+06
5.05952e+06
5.05952e+06
5.05953e+06
5.05954e+06
5.05955e+06
5.05956e+06
5.05957e+06
5.05958e+06
5.05959e+06
5.0596e+06
5.05961e+06
5.05962e+06
5.05963e+06
5.05965e+06
5.05966e+06
5.05968e+06
5.0597e+06
5.05972e+06
5.05974e+06
5.05977e+06
5.05979e+06
5.05982e+06
5.05985e+06
5.05989e+06
5.05993e+06
5.05997e+06
5.06001e+06
5.06007e+06
5.06012e+06
5.05924e+06
5.05938e+06
5.05945e+06
5.05946e+06
5.05946e+06
5.05945e+06
5.05944e+06
5.05943e+06
5.05943e+06
5.05942e+06
5.05942e+06
5.05942e+06
5.05942e+06
5.05942e+06
5.05943e+06
5.05943e+06
5.05943e+06
5.05944e+06
5.05944e+06
5.05945e+06
5.05945e+06
5.05946e+06
5.05946e+06
5.05947e+06
5.05948e+06
5.05949e+06
5.05949e+06
5.0595e+06
5.05951e+06
5.05952e+06
5.05953e+06
5.05954e+06
5.05955e+06
5.05956e+06
5.05957e+06
5.05958e+06
5.0596e+06
5.05962e+06
5.05964e+06
5.05966e+06
5.05969e+06
5.05972e+06
5.05975e+06
5.05978e+06
5.05982e+06
5.05986e+06
5.05991e+06
5.05996e+06
5.06002e+06
5.06008e+06
5.05869e+06
5.05898e+06
5.05907e+06
5.05911e+06
5.05914e+06
5.05916e+06
5.05918e+06
5.05919e+06
5.05921e+06
5.05922e+06
5.05923e+06
5.05924e+06
5.05925e+06
5.05926e+06
5.05927e+06
5.05928e+06
5.05929e+06
5.05929e+06
5.0593e+06
5.05931e+06
5.05932e+06
5.05933e+06
5.05934e+06
5.05935e+06
5.05935e+06
5.05936e+06
5.05937e+06
5.05938e+06
5.05939e+06
5.0594e+06
5.05941e+06
5.05942e+06
5.05944e+06
5.05945e+06
5.05946e+06
5.05948e+06
5.05949e+06
5.05951e+06
5.05954e+06
5.05956e+06
5.05959e+06
5.05962e+06
5.05965e+06
5.05968e+06
5.05972e+06
5.05977e+06
5.05982e+06
5.05987e+06
5.05994e+06
5.06002e+06
5.06019e+06
5.05968e+06
5.05943e+06
5.05933e+06
5.05928e+06
5.05925e+06
5.05923e+06
5.05921e+06
5.05921e+06
5.0592e+06
5.0592e+06
5.0592e+06
5.05921e+06
5.05921e+06
5.05921e+06
5.05922e+06
5.05922e+06
5.05923e+06
5.05923e+06
5.05924e+06
5.05925e+06
5.05925e+06
5.05926e+06
5.05927e+06
5.05928e+06
5.05928e+06
5.05929e+06
5.0593e+06
5.05931e+06
5.05932e+06
5.05933e+06
5.05934e+06
5.05935e+06
5.05936e+06
5.05937e+06
5.05939e+06
5.05941e+06
5.05943e+06
5.05945e+06
5.05947e+06
5.0595e+06
5.05953e+06
5.05956e+06
5.0596e+06
5.05964e+06
5.05968e+06
5.05974e+06
5.0598e+06
5.05987e+06
5.05996e+06
5.07265e+06
5.07292e+06
5.07301e+06
5.07325e+06
5.07337e+06
5.07358e+06
5.07371e+06
5.0739e+06
5.07404e+06
5.07421e+06
5.07434e+06
5.0745e+06
5.07462e+06
5.07478e+06
5.07489e+06
5.07504e+06
5.07513e+06
5.07529e+06
5.07535e+06
5.0755e+06
5.0725e+06
5.07277e+06
5.07286e+06
5.0731e+06
5.07322e+06
5.07343e+06
5.07356e+06
5.07374e+06
5.07388e+06
5.07405e+06
5.07418e+06
5.07434e+06
5.07446e+06
5.07462e+06
5.07472e+06
5.07488e+06
5.07496e+06
5.07512e+06
5.07518e+06
5.07533e+06
5.07235e+06
5.07262e+06
5.07271e+06
5.07295e+06
5.07307e+06
5.07327e+06
5.0734e+06
5.07359e+06
5.07372e+06
5.07389e+06
5.07402e+06
5.07418e+06
5.0743e+06
5.07445e+06
5.07456e+06
5.07471e+06
5.07479e+06
5.07495e+06
5.07501e+06
5.07516e+06
5.07221e+06
5.07247e+06
5.07257e+06
5.0728e+06
5.07292e+06
5.07312e+06
5.07325e+06
5.07344e+06
5.07356e+06
5.07373e+06
5.07386e+06
5.07402e+06
5.07413e+06
5.07429e+06
5.07439e+06
5.07454e+06
5.07462e+06
5.07478e+06
5.07484e+06
5.07499e+06
5.07206e+06
5.07233e+06
5.07242e+06
5.07265e+06
5.07277e+06
5.07297e+06
5.0731e+06
5.07328e+06
5.07341e+06
5.07358e+06
5.0737e+06
5.07386e+06
5.07397e+06
5.07412e+06
5.07422e+06
5.07437e+06
5.07445e+06
5.0746e+06
5.07466e+06
5.07481e+06
5.07192e+06
5.07219e+06
5.07228e+06
5.07251e+06
5.07263e+06
5.07283e+06
5.07295e+06
5.07313e+06
5.07326e+06
5.07342e+06
5.07354e+06
5.07369e+06
5.0738e+06
5.07395e+06
5.07405e+06
5.0742e+06
5.07428e+06
5.07443e+06
5.07449e+06
5.07464e+06
5.07178e+06
5.07205e+06
5.07214e+06
5.07237e+06
5.07248e+06
5.07268e+06
5.0728e+06
5.07298e+06
5.0731e+06
5.07326e+06
5.07338e+06
5.07353e+06
5.07364e+06
5.07379e+06
5.07388e+06
5.07403e+06
5.07411e+06
5.07426e+06
5.07431e+06
5.07446e+06
5.07164e+06
5.07191e+06
5.072e+06
5.07223e+06
5.07234e+06
5.07254e+06
5.07265e+06
5.07283e+06
5.07295e+06
5.07311e+06
5.07322e+06
5.07337e+06
5.07348e+06
5.07362e+06
5.07371e+06
5.07386e+06
5.07394e+06
5.07409e+06
5.07414e+06
5.07429e+06
5.07151e+06
5.07177e+06
5.07185e+06
5.07208e+06
5.07219e+06
5.07239e+06
5.07251e+06
5.07268e+06
5.07279e+06
5.07295e+06
5.07306e+06
5.07321e+06
5.07331e+06
5.07346e+06
5.07355e+06
5.07369e+06
5.07377e+06
5.07391e+06
5.07397e+06
5.07412e+06
5.07137e+06
5.07163e+06
5.07171e+06
5.07194e+06
5.07205e+06
5.07224e+06
5.07236e+06
5.07253e+06
5.07264e+06
5.0728e+06
5.0729e+06
5.07305e+06
5.07315e+06
5.07329e+06
5.07338e+06
5.07352e+06
5.0736e+06
5.07374e+06
5.0738e+06
5.07394e+06
5.07123e+06
5.07149e+06
5.07157e+06
5.0718e+06
5.0719e+06
5.07209e+06
5.07221e+06
5.07238e+06
5.07249e+06
5.07264e+06
5.07275e+06
5.07289e+06
5.07299e+06
5.07313e+06
5.07322e+06
5.07336e+06
5.07343e+06
5.07358e+06
5.07363e+06
5.07377e+06
5.07109e+06
5.07135e+06
5.07143e+06
5.07165e+06
5.07176e+06
5.07195e+06
5.07206e+06
5.07222e+06
5.07233e+06
5.07249e+06
5.07259e+06
5.07274e+06
5.07283e+06
5.07297e+06
5.07306e+06
5.0732e+06
5.07327e+06
5.07341e+06
5.07346e+06
5.07361e+06
5.07094e+06
5.0712e+06
5.07128e+06
5.07151e+06
5.07161e+06
5.0718e+06
5.07191e+06
5.07207e+06
5.07218e+06
5.07233e+06
5.07244e+06
5.07258e+06
5.07268e+06
5.07281e+06
5.0729e+06
5.07304e+06
5.07311e+06
5.07325e+06
5.0733e+06
5.07344e+06
5.0708e+06
5.07106e+06
5.07114e+06
5.07136e+06
5.07146e+06
5.07165e+06
5.07175e+06
5.07192e+06
5.07203e+06
5.07218e+06
5.07228e+06
5.07242e+06
5.07252e+06
5.07266e+06
5.07274e+06
5.07288e+06
5.07295e+06
5.07309e+06
5.07314e+06
5.07328e+06
5.07065e+06
5.07091e+06
5.07099e+06
5.07121e+06
5.07131e+06
5.0715e+06
5.0716e+06
5.07177e+06
5.07187e+06
5.07202e+06
5.07213e+06
5.07227e+06
5.07236e+06
5.0725e+06
5.07258e+06
5.07272e+06
5.07279e+06
5.07293e+06
5.07297e+06
5.07312e+06
5.07051e+06
5.07076e+06
5.07084e+06
5.07106e+06
5.07116e+06
5.07134e+06
5.07145e+06
5.07161e+06
5.07172e+06
5.07187e+06
5.07197e+06
5.07211e+06
5.0722e+06
5.07234e+06
5.07242e+06
5.07256e+06
5.07263e+06
5.07277e+06
5.07281e+06
5.07296e+06
5.07035e+06
5.07061e+06
5.07069e+06
5.07091e+06
5.071e+06
5.07119e+06
5.07129e+06
5.07146e+06
5.07156e+06
5.07171e+06
5.07181e+06
5.07195e+06
5.07204e+06
5.07218e+06
5.07226e+06
5.0724e+06
5.07247e+06
5.07261e+06
5.07265e+06
5.0728e+06
5.0702e+06
5.07046e+06
5.07053e+06
5.07075e+06
5.07085e+06
5.07103e+06
5.07114e+06
5.0713e+06
5.0714e+06
5.07155e+06
5.07165e+06
5.07179e+06
5.07189e+06
5.07202e+06
5.0721e+06
5.07224e+06
5.07231e+06
5.07245e+06
5.07249e+06
5.07263e+06
5.07005e+06
5.0703e+06
5.07037e+06
5.07059e+06
5.07069e+06
5.07088e+06
5.07098e+06
5.07114e+06
5.07125e+06
5.0714e+06
5.07149e+06
5.07163e+06
5.07173e+06
5.07186e+06
5.07195e+06
5.07208e+06
5.07215e+06
5.07229e+06
5.07233e+06
5.07247e+06
5.06989e+06
5.07014e+06
5.07022e+06
5.07044e+06
5.07053e+06
5.07072e+06
5.07082e+06
5.07099e+06
5.07109e+06
5.07124e+06
5.07134e+06
5.07148e+06
5.07157e+06
5.0717e+06
5.07179e+06
5.07192e+06
5.07199e+06
5.07213e+06
5.07217e+06
5.07231e+06
5.06973e+06
5.06999e+06
5.07006e+06
5.07028e+06
5.07037e+06
5.07056e+06
5.07066e+06
5.07083e+06
5.07093e+06
5.07108e+06
5.07118e+06
5.07132e+06
5.07141e+06
5.07155e+06
5.07163e+06
5.07176e+06
5.07183e+06
5.07197e+06
5.07201e+06
5.07215e+06
5.06958e+06
5.06983e+06
5.0699e+06
5.07012e+06
5.07022e+06
5.07041e+06
5.07051e+06
5.07067e+06
5.07077e+06
5.07092e+06
5.07102e+06
5.07116e+06
5.07125e+06
5.07139e+06
5.07147e+06
5.0716e+06
5.07167e+06
5.07181e+06
5.07185e+06
5.07199e+06
5.06943e+06
5.06968e+06
5.06975e+06
5.06997e+06
5.07006e+06
5.07025e+06
5.07035e+06
5.07052e+06
5.07062e+06
5.07077e+06
5.07087e+06
5.07101e+06
5.0711e+06
5.07123e+06
5.07132e+06
5.07145e+06
5.07151e+06
5.07165e+06
5.07169e+06
5.07183e+06
5.06928e+06
5.06953e+06
5.0696e+06
5.06982e+06
5.06991e+06
5.0701e+06
5.0702e+06
5.07037e+06
5.07047e+06
5.07062e+06
5.07072e+06
5.07086e+06
5.07095e+06
5.07108e+06
5.07116e+06
5.07129e+06
5.07136e+06
5.07149e+06
5.07153e+06
5.07167e+06
5.06913e+06
5.06939e+06
5.06945e+06
5.06967e+06
5.06977e+06
5.06995e+06
5.07005e+06
5.07022e+06
5.07032e+06
5.07047e+06
5.07056e+06
5.0707e+06
5.07079e+06
5.07093e+06
5.07101e+06
5.07114e+06
5.0712e+06
5.07134e+06
5.07138e+06
5.07151e+06
5.06899e+06
5.06924e+06
5.06931e+06
5.06953e+06
5.06962e+06
5.0698e+06
5.0699e+06
5.07007e+06
5.07017e+06
5.07032e+06
5.07042e+06
5.07055e+06
5.07064e+06
5.07078e+06
5.07085e+06
5.07098e+06
5.07105e+06
5.07118e+06
5.07122e+06
5.07135e+06
5.06885e+06
5.0691e+06
5.06917e+06
5.06939e+06
5.06948e+06
5.06966e+06
5.06976e+06
5.06992e+06
5.07002e+06
5.07017e+06
5.07027e+06
5.07041e+06
5.07049e+06
5.07063e+06
5.0707e+06
5.07083e+06
5.07089e+06
5.07103e+06
5.07106e+06
5.0712e+06
5.06871e+06
5.06897e+06
5.06903e+06
5.06925e+06
5.06934e+06
5.06952e+06
5.06962e+06
5.06978e+06
5.06988e+06
5.07003e+06
5.07012e+06
5.07026e+06
5.07034e+06
5.07047e+06
5.07055e+06
5.07068e+06
5.07074e+06
5.07087e+06
5.07091e+06
5.07104e+06
5.06858e+06
5.06883e+06
5.06889e+06
5.06911e+06
5.0692e+06
5.06938e+06
5.06947e+06
5.06964e+06
5.06973e+06
5.06988e+06
5.06997e+06
5.07011e+06
5.07019e+06
5.07032e+06
5.0704e+06
5.07052e+06
5.07058e+06
5.07071e+06
5.07075e+06
5.07088e+06
5.06844e+06
5.06869e+06
5.06875e+06
5.06897e+06
5.06906e+06
5.06924e+06
5.06933e+06
5.06949e+06
5.06959e+06
5.06973e+06
5.06983e+06
5.06996e+06
5.07004e+06
5.07017e+06
5.07024e+06
5.07037e+06
5.07043e+06
5.07056e+06
5.07059e+06
5.07072e+06
5.0683e+06
5.06855e+06
5.06861e+06
5.06883e+06
5.06891e+06
5.0691e+06
5.06919e+06
5.06935e+06
5.06944e+06
5.06959e+06
5.06968e+06
5.06981e+06
5.06989e+06
5.07002e+06
5.07009e+06
5.07021e+06
5.07027e+06
5.0704e+06
5.07043e+06
5.07056e+06
5.06816e+06
5.06841e+06
5.06847e+06
5.06869e+06
5.06877e+06
5.06895e+06
5.06905e+06
5.0692e+06
5.0693e+06
5.06944e+06
5.06953e+06
5.06966e+06
5.06974e+06
5.06986e+06
5.06993e+06
5.07006e+06
5.07011e+06
5.07024e+06
5.07027e+06
5.0704e+06
5.06802e+06
5.06827e+06
5.06833e+06
5.06855e+06
5.06863e+06
5.06881e+06
5.0689e+06
5.06906e+06
5.06915e+06
5.06929e+06
5.06938e+06
5.06951e+06
5.06959e+06
5.06971e+06
5.06978e+06
5.0699e+06
5.06996e+06
5.07008e+06
5.07011e+06
5.07024e+06
5.06788e+06
5.06813e+06
5.06819e+06
5.0684e+06
5.06848e+06
5.06866e+06
5.06875e+06
5.06891e+06
5.069e+06
5.06914e+06
5.06922e+06
5.06935e+06
5.06943e+06
5.06956e+06
5.06962e+06
5.06974e+06
5.0698e+06
5.06992e+06
5.06995e+06
5.07008e+06
5.06774e+06
5.06799e+06
5.06805e+06
5.06826e+06
5.06834e+06
5.06852e+06
5.0686e+06
5.06876e+06
5.06885e+06
5.06899e+06
5.06907e+06
5.0692e+06
5.06928e+06
5.0694e+06
5.06947e+06
5.06959e+06
5.06964e+06
5.06976e+06
5.06979e+06
5.06992e+06
5.0676e+06
5.06785e+06
5.0679e+06
5.06811e+06
5.06819e+06
5.06837e+06
5.06845e+06
5.06861e+06
5.0687e+06
5.06884e+06
5.06892e+06
5.06905e+06
5.06912e+06
5.06924e+06
5.06931e+06
5.06943e+06
5.06948e+06
5.06961e+06
5.06963e+06
5.06976e+06
5.06745e+06
5.0677e+06
5.06775e+06
5.06796e+06
5.06804e+06
5.06822e+06
5.0683e+06
5.06846e+06
5.06855e+06
5.06868e+06
5.06877e+06
5.06889e+06
5.06897e+06
5.06909e+06
5.06915e+06
5.06927e+06
5.06932e+06
5.06945e+06
5.06947e+06
5.0696e+06
5.06731e+06
5.06756e+06
5.06761e+06
5.06782e+06
5.06789e+06
5.06807e+06
5.06815e+06
5.06831e+06
5.06839e+06
5.06853e+06
5.06861e+06
5.06874e+06
5.06881e+06
5.06893e+06
5.069e+06
5.06912e+06
5.06917e+06
5.06929e+06
5.06932e+06
5.06944e+06
5.06716e+06
5.06741e+06
5.06746e+06
5.06767e+06
5.06775e+06
5.06792e+06
5.06801e+06
5.06816e+06
5.06824e+06
5.06838e+06
5.06846e+06
5.06859e+06
5.06866e+06
5.06878e+06
5.06884e+06
5.06896e+06
5.06901e+06
5.06914e+06
5.06916e+06
5.06929e+06
5.06702e+06
5.06727e+06
5.06732e+06
5.06752e+06
5.0676e+06
5.06777e+06
5.06786e+06
5.06801e+06
5.06809e+06
5.06823e+06
5.06831e+06
5.06844e+06
5.06851e+06
5.06863e+06
5.06869e+06
5.06881e+06
5.06886e+06
5.06898e+06
5.069e+06
5.06913e+06
5.06688e+06
5.06712e+06
5.06717e+06
5.06738e+06
5.06745e+06
5.06763e+06
5.06771e+06
5.06786e+06
5.06794e+06
5.06808e+06
5.06816e+06
5.06829e+06
5.06836e+06
5.06848e+06
5.06854e+06
5.06866e+06
5.06871e+06
5.06883e+06
5.06885e+06
5.06897e+06
5.06674e+06
5.06698e+06
5.06703e+06
5.06724e+06
5.06731e+06
5.06748e+06
5.06756e+06
5.06772e+06
5.0678e+06