/*--------------------------------*- C++ -*----------------------------------*\
  =========                 |
  \\      /  F ield         | OpenFOAM: The Open Source CFD Toolbox
   \\    /   O peration     | Website:  https://openfoam.org
    \\  /    A nd           | Version:  8
     \\/     M anipulation  |
\*---------------------------------------------------------------------------*/
FoamFile
{
    version     2.0;
    format      ascii;
    class       volScalarField;
    location    "900";
    object      p_rgh;
}
// * * * * * * * * * * * * * * * * * * * * * * * * * * * * * * * * * * * * * //

dimensions      [1 -1 -2 0 0 0 0];

internalField   nonuniform List<scalar> 
8400
(
22340.4
52077.8
81886.3
110316
137190
162355
185766
207456
227518
246076
263275
279261
294175
308145
321290
333725
345563
356922
367924
378685
389316
399912
410560
421343
432348
443675
455433
467742
480730
494537
509331
525318
542749
561922
583189
606971
633761
664128
698729
738323
783791
836154
896630
966700
1.04809e+06
1.1425e+06
1.25163e+06
1.3795e+06
1.5364e+06
1.73129e+06
21819.1
51692.7
81810.5
110520
137582
162836
186252
207887
227852
246288
263354
279202
293975
307804
320808
333104
344805
356033
366907
377542
388039
398490
408974
419571
430371
441474
452988
465027
477710
491171
505575
521121
538046
556632
577218
600206
626062
655320
688597
726605
770166
820218
877860
944395
1.02129e+06
1.10998e+06
1.21185e+06
1.32945e+06
1.46882e+06
1.63662e+06
23675.6
54931.3
85918.9
115155
142486
167810
191153
212618
232360
250550
267365
282971
297520
311146
323973
336119
347700
358833
369634
380211
390657
401057
411488
422031
432775
443820
455271
467237
479832
493192
507476
522877
539623
557989
578305
600954
626380
655095
687694
724865
767399
816201
872320
936983
1.01155e+06
1.09743e+06
1.19602e+06
1.30929e+06
1.44071e+06
1.59397e+06
22495.7
54535.2
86417.9
116327
144024
169446
192686
213919
233348
251185
267631
282867
297053
310331
322829
334665
345955
356811
367339
377638
387793
397879
407971
418146
428492
439101
450071
461501
473499
486194
499732
514294
530091
547381
566468
587700
611480
638279
668642
703201
742678
787907
839852
899626
968478
1.04775e+06
1.1389e+06
1.24367e+06
1.36468e+06
1.50519e+06
25112.7
59531.9
92854.8
123540
151535
176925
199927
220803
239825
257243
273280
288133
301969
314937
327166
338773
349871
360565
370952
381122
391151
401110
411069
421106
431302
441744
452522
463729
475468
487859
501042
515183
530485
547186
565563
585932
608661
634178
662978
695634
732798
775222
823770
879431
943312
1.01664e+06
1.10073e+06
1.19709e+06
1.30776e+06
1.43557e+06
24245.4
60238.8
94836.9
126228
154424
179673
202333
222769
241313
258251
273826
288242
301675
314272
326165
337467
348287
358721
368859
378780
388553
398246
407926
417665
427541
437631
448017
458786
470035
481877
494444
507894
522417
538234
555596
574797
596176
620125
647104
677640
712335
751880
797076
848830
908170
976262
1.05436e+06
1.14386e+06
1.24647e+06
1.36457e+06
26917.3
65960
102101
134025
162159
187036
209194
229095
247119
263573
278706
292725
305806
318092
329711
340774
351383
361626
371585
381331
390929
400443
409938
419483
429147
439000
449115
459576
470473
481914
494025
506955
520877
535995
552539
570778
591023
613638
639046
667727
700231
737198
779362
827558
882749
946034
1.01864e+06
1.1019e+06
1.19743e+06
1.3073e+06
26953.9
68607.5
105935
138041
165837
190175
211756
231108
248634
264643
279382
293054
305827
317842
329224
340080
350504
360580
370382
379976
389426
398795
408148
417547
427053
436731
446648
456884
467529
478686
490476
503036
516529
531140
547086
564618
584032
605673
629933
657259
688169
723264
763227
808848
861035
920825
989396
1.06809e+06
1.15842e+06
1.2623e+06
29817.9
74974.6
112758
144383
171452
195092
216074
234927
252037
267697
282140
295557
308109
319933
331148
341857
352149
362101
371781
381254
390583
399831
409060
418326
427684
437192
446916
456933
467333
478219
489703
501915
515007
529157
544572
561499
580225
601083
624449
650754
680497
714256
752687
796554
846730
904210
970142
1.04583e+06
1.13275e+06
1.2327e+06
31123.8
78595.9
115749
146708
173222
196415
217040
235603
252470
267920
282176
295424
307823
319509
330600
341199
351391
361252
370849
380248
389514
398710
407898
417130
426459
435941
445641
455637
466021
476890
488356
500545
513602
527703
543051
559890
578503
599217
622400
648476
677936
711347
749358
792717
842290
899054
964144
1.03885e+06
1.12461e+06
1.22309e+06
28305.8
76018.4
114692
146223
173087
196602
217486
236246
253269
268849
283221
296573
309067
320841
332012
342683
352939
362852
372492
381927
391223
400444
409648
418889
428219
437695
447385
457371
467742
478596
490043
502210
515246
529325
544652
561474
580077
600789
623981
650085
679604
713116
751283
794872
844776
901991
967683
1.04316e+06
1.12989e+06
1.22942e+06
10808.2
62583.1
105665
138996
166723
190930
212367
231524
248828
264618
279152
292636
305238
317101
328349
339081
349386
359341
369018
378484
387806
397048
406265
415514
424851
434340
444055
454078
464500
475424
486968
499268
512483
526795
542420
559619
578690
599976
623868
650829
681385
716142
755798
801162
853175
912870
981467
1.06033e+06
1.15093e+06
1.25485e+06
11167
56462.6
101795
137699
166891
192297
214893
235073
253230
269730
284861
298845
311861
324064
335585
346536
357015
367108
376895
386447
395833
405116
414354
423608
432942
442426
452140
462172
472620
483599
495244
507707
521158
535794
551849
569600
589363
611501
636432
664648
696701
733231
774990
822865
877868
941107
1.01395e+06
1.09785e+06
1.19443e+06
1.30532e+06
-22044.1
25318.4
74090.9
112270
142835
169427
193292
214732
234060
251640
267775
282689
296564
309553
321791
333399
344484
355142
365458
375509
385362
395080
404724
414354
424037
433846
443861
454172
464890
476144
488085
500885
514735
529857
546518
565028
585742
609069
635483
665529
699831
739120
784258
836253
896258
965544
1.04568e+06
1.13829e+06
1.24522e+06
1.36828e+06
2407.76
36220.2
85521.3
126707
158870
186435
211190
233416
253353
271370
287795
302866
316771
329669
341708
353025
363747
373993
383867
393462
402861
412139
421366
430610
439941
449431
459158
469216
479719
490808
502647
515424
529355
544696
561756
580889
602497
627041
655057
687159
724057
766566
815667
872485
938295
1.0146e+06
1.10318e+06
1.20595e+06
1.32505e+06
1.4626e+06
-65537.1
-18653.2
36181.1
78845.6
112153
141391
168345
193051
215567
236174
255140
272653
288856
303876
317837
330867
343096
354650
365652
376220
386461
396477
406365
416215
426113
436136
446368
456907
467878
479429
491735
505002
519484
535485
553374
573570
596541
622838
653087
687992
728378
775194
829542
892705
966159
1.0517e+06
1.15132e+06
1.26735e+06
1.40244e+06
1.5594e+06
-1412.34
24732.5
75541.1
116775
147797
174976
200355
223853
245442
265346
283785
300894
316757
331444
345027
357596
369251
380108
390293
399942
409192
418178
427031
435869
444791
453884
463229
472920
483068
493804
505288
517727
531396
546628
563831
583486
606153
632487
663227
699181
741272
790566
848314
915974
995192
1.08808e+06
1.19701e+06
1.32482e+06
1.47485e+06
1.65081e+06
-117320
-46398.7
19874.2
63277.7
96873.2
127511
156303
183076
207888
230990
252601
272856
291817
309500
325911
341073
355035
367880
379721
390702
400996
410795
420291
429646
439003
448485
458209
468283
478806
489900
501730
514515
528531
544137
561776
581986
605439
632939
665379
703741
749154
802921
866487
941590
1.03019e+06
1.1348e+06
1.25828e+06
1.40413e+06
1.57676e+06
1.78335e+06
6.42307
25567
53019.5
78565.3
104921
132484
159949
186186
210779
233791
255434
275889
295243
313472
330502
346270
360755
373987
386050
397071
407225
416745
425860
434766
443634
452615
461850
471442
481451
491958
503120
515135
528239
542759
559125
577857
599619
625250
655752
692261
736049
788520
851266
926249
1.01562e+06
1.1222e+06
1.24908e+06
1.39999e+06
1.57906e+06
1.79057e+06
39642.7
72308.6
85276.6
101227
121909
146046
171672
197124
221485
244485
266187
286728
306191
324563
341749
357645
372194
385398
397333
408138
418010
427196
435970
444567
453188
462020
471217
480907
491177
502108
513851
526639
540735
556477
574306
594770
618538
646417
679376
718487
764986
820222
885639
963011
1.05417e+06
1.16149e+06
1.28757e+06
1.43551e+06
1.60862e+06
1.80964e+06
5.07092e+06
5.07041e+06
5.07015e+06
5.07006e+06
5.07001e+06
5.06997e+06
5.06995e+06
5.06993e+06
5.06992e+06
5.06991e+06
5.06991e+06
5.06991e+06
5.0699e+06
5.0699e+06
5.06991e+06
5.06991e+06
5.06991e+06
5.06992e+06
5.06992e+06
5.06992e+06
5.06993e+06
5.06993e+06
5.06993e+06
5.06993e+06
5.06993e+06
5.06993e+06
5.06993e+06
5.06993e+06
5.06993e+06
5.06993e+06
5.06993e+06
5.06993e+06
5.06993e+06
5.06994e+06
5.06994e+06
5.06994e+06
5.06993e+06
5.06993e+06
5.06993e+06
5.06992e+06
5.06991e+06
5.0699e+06
5.06988e+06
5.06986e+06
5.06984e+06
5.0698e+06
5.06976e+06
5.0697e+06
5.06963e+06
5.06953e+06
5.06932e+06
5.06961e+06
5.0697e+06
5.06974e+06
5.06976e+06
5.06979e+06
5.0698e+06
5.06981e+06
5.06982e+06
5.06983e+06
5.06984e+06
5.06984e+06
5.06985e+06
5.06986e+06
5.06986e+06
5.06987e+06
5.06988e+06
5.06988e+06
5.06989e+06
5.0699e+06
5.0699e+06
5.06991e+06
5.06991e+06
5.06991e+06
5.06991e+06
5.06991e+06
5.06991e+06
5.06992e+06
5.06992e+06
5.06992e+06
5.06992e+06
5.06992e+06
5.06993e+06
5.06993e+06
5.06993e+06
5.06993e+06
5.06993e+06
5.06992e+06
5.06992e+06
5.06991e+06
5.06991e+06
5.0699e+06
5.06988e+06
5.06986e+06
5.06984e+06
5.06981e+06
5.06977e+06
5.06972e+06
5.06965e+06
5.06957e+06
5.06978e+06
5.06991e+06
5.06999e+06
5.06999e+06
5.06999e+06
5.06998e+06
5.06997e+06
5.06996e+06
5.06995e+06
5.06994e+06
5.06993e+06
5.06993e+06
5.06992e+06
5.06992e+06
5.06992e+06
5.06992e+06
5.06993e+06
5.06993e+06
5.06993e+06
5.06993e+06
5.06994e+06
5.06994e+06
5.06994e+06
5.06994e+06
5.06994e+06
5.06994e+06
5.06994e+06
5.06994e+06
5.06994e+06
5.06994e+06
5.06994e+06
5.06994e+06
5.06994e+06
5.06994e+06
5.06994e+06
5.06994e+06
5.06994e+06
5.06994e+06
5.06994e+06
5.06993e+06
5.06992e+06
5.06991e+06
5.0699e+06
5.06988e+06
5.06986e+06
5.06983e+06
5.0698e+06
5.06976e+06
5.0697e+06
5.06964e+06
5.0698e+06
5.06982e+06
5.06984e+06
5.06983e+06
5.06983e+06
5.06983e+06
5.06983e+06
5.06983e+06
5.06983e+06
5.06983e+06
5.06984e+06
5.06984e+06
5.06985e+06
5.06985e+06
5.06986e+06
5.06986e+06
5.06987e+06
5.06988e+06
5.06988e+06
5.06989e+06
5.0699e+06
5.0699e+06
5.0699e+06
5.06991e+06
5.06991e+06
5.06991e+06
5.06991e+06
5.06991e+06
5.06992e+06
5.06992e+06
5.06992e+06
5.06992e+06
5.06993e+06
5.06993e+06
5.06993e+06
5.06993e+06
5.06993e+06
5.06993e+06
5.06993e+06
5.06993e+06
5.06992e+06
5.06991e+06
5.0699e+06
5.06989e+06
5.06987e+06
5.06985e+06
5.06982e+06
5.06978e+06
5.06974e+06
5.06969e+06
5.06983e+06
5.06985e+06
5.06987e+06
5.06988e+06
5.06989e+06
5.0699e+06
5.0699e+06
5.06991e+06
5.06991e+06
5.06991e+06
5.06991e+06
5.06991e+06
5.06991e+06
5.06991e+06
5.06992e+06
5.06992e+06
5.06992e+06
5.06993e+06
5.06993e+06
5.06993e+06
5.06994e+06
5.06994e+06
5.06994e+06
5.06994e+06
5.06994e+06
5.06994e+06
5.06994e+06
5.06994e+06
5.06994e+06
5.06995e+06
5.06995e+06
5.06995e+06
5.06995e+06
5.06995e+06
5.06996e+06
5.06996e+06
5.06996e+06
5.06996e+06
5.06995e+06
5.06995e+06
5.06995e+06
5.06994e+06
5.06993e+06
5.06992e+06
5.06991e+06
5.06989e+06
5.06987e+06
5.06984e+06
5.06981e+06
5.06977e+06
5.06984e+06
5.06985e+06
5.06986e+06
5.06986e+06
5.06986e+06
5.06986e+06
5.06986e+06
5.06986e+06
5.06986e+06
5.06986e+06
5.06986e+06
5.06986e+06
5.06986e+06
5.06987e+06
5.06987e+06
5.06988e+06
5.06988e+06
5.06989e+06
5.06989e+06
5.0699e+06
5.0699e+06
5.0699e+06
5.06991e+06
5.06991e+06
5.06991e+06
5.06991e+06
5.06992e+06
5.06992e+06
5.06992e+06
5.06992e+06
5.06993e+06
5.06993e+06
5.06994e+06
5.06994e+06
5.06994e+06
5.06995e+06
5.06995e+06
5.06995e+06
5.06995e+06
5.06995e+06
5.06995e+06
5.06994e+06
5.06994e+06
5.06993e+06
5.06992e+06
5.06991e+06
5.06989e+06
5.06988e+06
5.06985e+06
5.06983e+06
5.06985e+06
5.06985e+06
5.06986e+06
5.06986e+06
5.06987e+06
5.06987e+06
5.06988e+06
5.06988e+06
5.06988e+06
5.06989e+06
5.06989e+06
5.06989e+06
5.06989e+06
5.0699e+06
5.0699e+06
5.06991e+06
5.06991e+06
5.06992e+06
5.06992e+06
5.06993e+06
5.06993e+06
5.06993e+06
5.06993e+06
5.06994e+06
5.06994e+06
5.06994e+06
5.06994e+06
5.06994e+06
5.06995e+06
5.06995e+06
5.06995e+06
5.06996e+06
5.06996e+06
5.06996e+06
5.06997e+06
5.06997e+06
5.06997e+06
5.06997e+06
5.06998e+06
5.06998e+06
5.06998e+06
5.06998e+06
5.06997e+06
5.06997e+06
5.06996e+06
5.06996e+06
5.06995e+06
5.06994e+06
5.06992e+06
5.06991e+06
5.06985e+06
5.06986e+06
5.06986e+06
5.06986e+06
5.06987e+06
5.06987e+06
5.06987e+06
5.06987e+06
5.06987e+06
5.06987e+06
5.06987e+06
5.06987e+06
5.06988e+06
5.06988e+06
5.06988e+06
5.06989e+06
5.06989e+06
5.0699e+06
5.0699e+06
5.06991e+06
5.06991e+06
5.06991e+06
5.06992e+06
5.06992e+06
5.06992e+06
5.06992e+06
5.06993e+06
5.06993e+06
5.06993e+06
5.06994e+06
5.06994e+06
5.06995e+06
5.06995e+06
5.06996e+06
5.06996e+06
5.06997e+06
5.06997e+06
5.06997e+06
5.06998e+06
5.06998e+06
5.06998e+06
5.06999e+06
5.06999e+06
5.06999e+06
5.06999e+06
5.06999e+06
5.06998e+06
5.06998e+06
5.06997e+06
5.06997e+06
5.06986e+06
5.06986e+06
5.06986e+06
5.06986e+06
5.06987e+06
5.06987e+06
5.06987e+06
5.06987e+06
5.06988e+06
5.06988e+06
5.06988e+06
5.06988e+06
5.06989e+06
5.06989e+06
5.06989e+06
5.0699e+06
5.0699e+06
5.06991e+06
5.06991e+06
5.06992e+06
5.06992e+06
5.06993e+06
5.06993e+06
5.06993e+06
5.06993e+06
5.06994e+06
5.06994e+06
5.06994e+06
5.06995e+06
5.06995e+06
5.06996e+06
5.06996e+06
5.06997e+06
5.06997e+06
5.06998e+06
5.06998e+06
5.06999e+06
5.06999e+06
5.07e+06
5.07e+06
5.07001e+06
5.07001e+06
5.07002e+06
5.07002e+06
5.07003e+06
5.07003e+06
5.07003e+06
5.07004e+06
5.07004e+06
5.07004e+06
5.06986e+06
5.06986e+06
5.06986e+06
5.06986e+06
5.06986e+06
5.06987e+06
5.06987e+06
5.06987e+06
5.06987e+06
5.06988e+06
5.06988e+06
5.06988e+06
5.06988e+06
5.06989e+06
5.06989e+06
5.06989e+06
5.0699e+06
5.0699e+06
5.06991e+06
5.06991e+06
5.06992e+06
5.06992e+06
5.06992e+06
5.06993e+06
5.06993e+06
5.06993e+06
5.06994e+06
5.06994e+06
5.06995e+06
5.06995e+06
5.06996e+06
5.06996e+06
5.06997e+06
5.06998e+06
5.06998e+06
5.06999e+06
5.06999e+06
5.07e+06
5.07001e+06
5.07002e+06
5.07002e+06
5.07003e+06
5.07004e+06
5.07005e+06
5.07006e+06
5.07007e+06
5.07008e+06
5.07008e+06
5.07009e+06
5.0701e+06
5.06986e+06
5.06986e+06
5.06986e+06
5.06986e+06
5.06986e+06
5.06987e+06
5.06987e+06
5.06987e+06
5.06987e+06
5.06988e+06
5.06988e+06
5.06988e+06
5.06988e+06
5.06989e+06
5.06989e+06
5.06989e+06
5.0699e+06
5.0699e+06
5.06991e+06
5.06991e+06
5.06992e+06
5.06992e+06
5.06992e+06
5.06993e+06
5.06993e+06
5.06993e+06
5.06994e+06
5.06994e+06
5.06995e+06
5.06996e+06
5.06996e+06
5.06997e+06
5.06998e+06
5.06998e+06
5.06999e+06
5.07e+06
5.07001e+06
5.07001e+06
5.07002e+06
5.07003e+06
5.07004e+06
5.07006e+06
5.07007e+06
5.07008e+06
5.07009e+06
5.07011e+06
5.07012e+06
5.07014e+06
5.07015e+06
5.07017e+06
5.06986e+06
5.06986e+06
5.06986e+06
5.06986e+06
5.06987e+06
5.06987e+06
5.06987e+06
5.06987e+06
5.06988e+06
5.06988e+06
5.06988e+06
5.06988e+06
5.06989e+06
5.06989e+06
5.06989e+06
5.0699e+06
5.0699e+06
5.06991e+06
5.06991e+06
5.06992e+06
5.06992e+06
5.06993e+06
5.06993e+06
5.06993e+06
5.06994e+06
5.06994e+06
5.06995e+06
5.06995e+06
5.06996e+06
5.06997e+06
5.06997e+06
5.06998e+06
5.06999e+06
5.06999e+06
5.07e+06
5.07001e+06
5.07002e+06
5.07003e+06
5.07004e+06
5.07005e+06
5.07007e+06
5.07008e+06
5.0701e+06
5.07011e+06
5.07013e+06
5.07015e+06
5.07017e+06
5.07019e+06
5.07021e+06
5.07023e+06
5.06986e+06
5.06986e+06
5.06986e+06
5.06986e+06
5.06987e+06
5.06987e+06
5.06987e+06
5.06987e+06
5.06987e+06
5.06987e+06
5.06987e+06
5.06988e+06
5.06988e+06
5.06988e+06
5.06988e+06
5.06989e+06
5.06989e+06
5.0699e+06
5.0699e+06
5.06991e+06
5.06991e+06
5.06991e+06
5.06992e+06
5.06992e+06
5.06993e+06
5.06993e+06
5.06994e+06
5.06994e+06
5.06995e+06
5.06996e+06
5.06997e+06
5.06997e+06
5.06998e+06
5.06999e+06
5.07e+06
5.07001e+06
5.07002e+06
5.07003e+06
5.07005e+06
5.07006e+06
5.07008e+06
5.07009e+06
5.07011e+06
5.07013e+06
5.07016e+06
5.07018e+06
5.07021e+06
5.07023e+06
5.07026e+06
5.07029e+06
5.06985e+06
5.06985e+06
5.06986e+06
5.06986e+06
5.06987e+06
5.06987e+06
5.06988e+06
5.06988e+06
5.06988e+06
5.06989e+06
5.06989e+06
5.06989e+06
5.0699e+06
5.0699e+06
5.0699e+06
5.06991e+06
5.06991e+06
5.06992e+06
5.06992e+06
5.06993e+06
5.06993e+06
5.06993e+06
5.06994e+06
5.06994e+06
5.06995e+06
5.06995e+06
5.06996e+06
5.06996e+06
5.06997e+06
5.06998e+06
5.06999e+06
5.06999e+06
5.07e+06
5.07001e+06
5.07002e+06
5.07003e+06
5.07004e+06
5.07006e+06
5.07007e+06
5.07009e+06
5.0701e+06
5.07012e+06
5.07015e+06
5.07017e+06
5.0702e+06
5.07022e+06
5.07025e+06
5.07029e+06
5.07032e+06
5.07036e+06
5.06985e+06
5.06985e+06
5.06986e+06
5.06986e+06
5.06986e+06
5.06986e+06
5.06986e+06
5.06986e+06
5.06986e+06
5.06986e+06
5.06986e+06
5.06986e+06
5.06987e+06
5.06987e+06
5.06987e+06
5.06988e+06
5.06988e+06
5.06989e+06
5.06989e+06
5.0699e+06
5.0699e+06
5.06991e+06
5.06991e+06
5.06992e+06
5.06992e+06
5.06993e+06
5.06994e+06
5.06995e+06
5.06995e+06
5.06996e+06
5.06997e+06
5.06998e+06
5.06999e+06
5.07e+06
5.07001e+06
5.07002e+06
5.07004e+06
5.07005e+06
5.07007e+06
5.07009e+06
5.07011e+06
5.07013e+06
5.07016e+06
5.07018e+06
5.07021e+06
5.07025e+06
5.07028e+06
5.07032e+06
5.07036e+06
5.07041e+06
5.06983e+06
5.06985e+06
5.06987e+06
5.06988e+06
5.06989e+06
5.0699e+06
5.06991e+06
5.06991e+06
5.06991e+06
5.06991e+06
5.06991e+06
5.06992e+06
5.06992e+06
5.06992e+06
5.06992e+06
5.06992e+06
5.06993e+06
5.06993e+06
5.06993e+06
5.06993e+06
5.06994e+06
5.06994e+06
5.06995e+06
5.06995e+06
5.06995e+06
5.06996e+06
5.06997e+06
5.06997e+06
5.06998e+06
5.06999e+06
5.07e+06
5.07001e+06
5.07001e+06
5.07002e+06
5.07004e+06
5.07005e+06
5.07006e+06
5.07008e+06
5.07009e+06
5.07011e+06
5.07014e+06
5.07016e+06
5.07019e+06
5.07022e+06
5.07025e+06
5.07029e+06
5.07033e+06
5.07037e+06
5.07042e+06
5.07047e+06
5.0698e+06
5.06983e+06
5.06984e+06
5.06983e+06
5.06983e+06
5.06983e+06
5.06983e+06
5.06983e+06
5.06983e+06
5.06984e+06
5.06984e+06
5.06985e+06
5.06985e+06
5.06986e+06
5.06986e+06
5.06987e+06
5.06987e+06
5.06988e+06
5.06989e+06
5.06989e+06
5.0699e+06
5.0699e+06
5.06991e+06
5.06992e+06
5.06992e+06
5.06993e+06
5.06994e+06
5.06995e+06
5.06996e+06
5.06997e+06
5.06998e+06
5.06999e+06
5.07e+06
5.07001e+06
5.07002e+06
5.07004e+06
5.07005e+06
5.07007e+06
5.07009e+06
5.07011e+06
5.07013e+06
5.07016e+06
5.07019e+06
5.07022e+06
5.07026e+06
5.0703e+06
5.07035e+06
5.0704e+06
5.07045e+06
5.07051e+06
5.06978e+06
5.06991e+06
5.06999e+06
5.07e+06
5.06999e+06
5.06998e+06
5.06997e+06
5.06996e+06
5.06995e+06
5.06994e+06
5.06994e+06
5.06993e+06
5.06993e+06
5.06993e+06
5.06993e+06
5.06993e+06
5.06993e+06
5.06993e+06
5.06993e+06
5.06994e+06
5.06994e+06
5.06994e+06
5.06995e+06
5.06995e+06
5.06996e+06
5.06996e+06
5.06997e+06
5.06998e+06
5.06998e+06
5.06999e+06
5.07e+06
5.07001e+06
5.07002e+06
5.07003e+06
5.07004e+06
5.07006e+06
5.07007e+06
5.07009e+06
5.07011e+06
5.07013e+06
5.07016e+06
5.07018e+06
5.07021e+06
5.07025e+06
5.07029e+06
5.07033e+06
5.07038e+06
5.07044e+06
5.0705e+06
5.07057e+06
5.06932e+06
5.06961e+06
5.0697e+06
5.06974e+06
5.06977e+06
5.06979e+06
5.0698e+06
5.06982e+06
5.06983e+06
5.06983e+06
5.06984e+06
5.06985e+06
5.06986e+06
5.06986e+06
5.06987e+06
5.06987e+06
5.06988e+06
5.06989e+06
5.06989e+06
5.0699e+06
5.0699e+06
5.06991e+06
5.06992e+06
5.06992e+06
5.06993e+06
5.06994e+06
5.06995e+06
5.06996e+06
5.06996e+06
5.06997e+06
5.06998e+06
5.06999e+06
5.07001e+06
5.07002e+06
5.07003e+06
5.07005e+06
5.07006e+06
5.07008e+06
5.0701e+06
5.07012e+06
5.07015e+06
5.07018e+06
5.07021e+06
5.07025e+06
5.07029e+06
5.07034e+06
5.07039e+06
5.07045e+06
5.07052e+06
5.07061e+06
5.07092e+06
5.07041e+06
5.07016e+06
5.07006e+06
5.07001e+06
5.06997e+06
5.06995e+06
5.06993e+06
5.06992e+06
5.06992e+06
5.06991e+06
5.06991e+06
5.06991e+06
5.06991e+06
5.06991e+06
5.06991e+06
5.06991e+06
5.06992e+06
5.06992e+06
5.06992e+06
5.06993e+06
5.06993e+06
5.06994e+06
5.06994e+06
5.06995e+06
5.06996e+06
5.06996e+06
5.06997e+06
5.06998e+06
5.06999e+06
5.07e+06
5.07001e+06
5.07002e+06
5.07003e+06
5.07004e+06
5.07006e+06
5.07007e+06
5.07009e+06
5.07011e+06
5.07014e+06
5.07016e+06
5.07019e+06
5.07023e+06
5.07026e+06
5.07031e+06
5.07035e+06
5.07041e+06
5.07047e+06
5.07055e+06
5.07064e+06
5.07158e+06
5.07186e+06
5.07196e+06
5.0722e+06
5.07233e+06
5.07254e+06
5.07268e+06
5.07287e+06
5.073e+06
5.07318e+06
5.07331e+06
5.07347e+06
5.0736e+06
5.07375e+06
5.07386e+06
5.07402e+06
5.07411e+06
5.07427e+06
5.07433e+06
5.07449e+06
5.07156e+06
5.07183e+06
5.07193e+06
5.07218e+06
5.0723e+06
5.07251e+06
5.07265e+06
5.07284e+06
5.07297e+06
5.07315e+06
5.07328e+06
5.07344e+06
5.07356e+06
5.07372e+06
5.07383e+06
5.07399e+06
5.07408e+06
5.07424e+06
5.0743e+06
5.07446e+06
5.07153e+06
5.07181e+06
5.07191e+06
5.07215e+06
5.07228e+06
5.07249e+06
5.07262e+06
5.07281e+06
5.07294e+06
5.07312e+06
5.07325e+06
5.07341e+06
5.07353e+06
5.07369e+06
5.0738e+06
5.07395e+06
5.07405e+06
5.07421e+06
5.07427e+06
5.07443e+06
5.0715e+06
5.07178e+06
5.07188e+06
5.07212e+06
5.07225e+06
5.07246e+06
5.07259e+06
5.07278e+06
5.07292e+06
5.07309e+06
5.07322e+06
5.07338e+06
5.0735e+06
5.07366e+06
5.07377e+06
5.07392e+06
5.07401e+06
5.07417e+06
5.07424e+06
5.0744e+06
5.07148e+06
5.07175e+06
5.07186e+06
5.0721e+06
5.07222e+06
5.07243e+06
5.07257e+06
5.07275e+06
5.07289e+06
5.07306e+06
5.07319e+06
5.07335e+06
5.07347e+06
5.07363e+06
5.07373e+06
5.07389e+06
5.07398e+06
5.07414e+06
5.07421e+06
5.07437e+06
5.07145e+06
5.07173e+06
5.07183e+06
5.07207e+06
5.0722e+06
5.07241e+06
5.07254e+06
5.07273e+06
5.07286e+06
5.07303e+06
5.07316e+06
5.07332e+06
5.07344e+06
5.07359e+06
5.0737e+06
5.07386e+06
5.07395e+06
5.07411e+06
5.07418e+06
5.07434e+06
5.07143e+06
5.0717e+06
5.0718e+06
5.07204e+06
5.07217e+06
5.07238e+06
5.07251e+06
5.0727e+06
5.07283e+06
5.073e+06
5.07313e+06
5.07329e+06
5.07341e+06
5.07356e+06
5.07367e+06
5.07382e+06
5.07392e+06
5.07408e+06
5.07414e+06
5.0743e+06
5.0714e+06
5.07168e+06
5.07178e+06
5.07202e+06
5.07214e+06
5.07235e+06
5.07248e+06
5.07267e+06
5.0728e+06
5.07297e+06
5.0731e+06
5.07326e+06
5.07337e+06
5.07353e+06
5.07364e+06
5.07379e+06
5.07388e+06
5.07404e+06
5.07411e+06
5.07427e+06
5.07137e+06
5.07165e+06
5.07175e+06
5.07199e+06
5.07211e+06
5.07232e+06
5.07245e+06
5.07264e+06
5.07277e+06
5.07294e+06
5.07307e+06
5.07323e+06
5.07334e+06
5.0735e+06
5.07361e+06
5.07376e+06
5.07385e+06
5.07401e+06
5.07408e+06
5.07424e+06
5.07135e+06
5.07162e+06
5.07172e+06
5.07196e+06
5.07209e+06
5.07229e+06
5.07242e+06
5.07261e+06
5.07274e+06
5.07291e+06
5.07304e+06
5.0732e+06
5.07331e+06
5.07347e+06
5.07358e+06
5.07373e+06
5.07382e+06
5.07398e+06
5.07405e+06
5.07421e+06
5.07132e+06
5.07159e+06
5.07169e+06
5.07193e+06
5.07206e+06
5.07227e+06
5.07239e+06
5.07258e+06
5.07271e+06
5.07288e+06
5.07301e+06
5.07317e+06
5.07328e+06
5.07344e+06
5.07355e+06
5.0737e+06
5.07379e+06
5.07395e+06
5.07402e+06
5.07418e+06
5.07129e+06
5.07157e+06
5.07166e+06
5.07191e+06
5.07203e+06
5.07224e+06
5.07236e+06
5.07255e+06
5.07268e+06
5.07285e+06
5.07298e+06
5.07314e+06
5.07326e+06
5.07341e+06
5.07352e+06
5.07367e+06
5.07376e+06
5.07392e+06
5.07399e+06
5.07415e+06
5.07126e+06
5.07154e+06
5.07163e+06
5.07188e+06
5.072e+06
5.07221e+06
5.07233e+06
5.07252e+06
5.07265e+06
5.07282e+06
5.07295e+06
5.07311e+06
5.07323e+06
5.07338e+06
5.07349e+06
5.07364e+06
5.07373e+06
5.07389e+06
5.07396e+06
5.07412e+06
5.07123e+06
5.07151e+06
5.0716e+06
5.07184e+06
5.07197e+06
5.07218e+06
5.0723e+06
5.07249e+06
5.07262e+06
5.07279e+06
5.07292e+06
5.07308e+06
5.0732e+06
5.07335e+06
5.07346e+06
5.07361e+06
5.07371e+06
5.07387e+06
5.07393e+06
5.07409e+06
5.0712e+06
5.07147e+06
5.07157e+06
5.07181e+06
5.07193e+06
5.07214e+06
5.07227e+06
5.07246e+06
5.07259e+06
5.07276e+06
5.07289e+06
5.07305e+06
5.07317e+06
5.07332e+06
5.07343e+06
5.07359e+06
5.07368e+06
5.07384e+06
5.0739e+06
5.07407e+06
5.07116e+06
5.07144e+06
5.07154e+06
5.07178e+06
5.0719e+06
5.07211e+06
5.07224e+06
5.07243e+06
5.07256e+06
5.07273e+06
5.07285e+06
5.07302e+06
5.07313e+06
5.07329e+06
5.0734e+06
5.07356e+06
5.07365e+06
5.07381e+06
5.07387e+06
5.07404e+06
5.07113e+06
5.07141e+06
5.0715e+06
5.07175e+06
5.07187e+06
5.07208e+06
5.07221e+06
5.0724e+06
5.07253e+06
5.0727e+06
5.07282e+06
5.07299e+06
5.0731e+06
5.07326e+06
5.07337e+06
5.07353e+06
5.07362e+06
5.07378e+06
5.07385e+06
5.07401e+06
5.07109e+06
5.07137e+06
5.07147e+06
5.07171e+06
5.07184e+06
5.07205e+06
5.07218e+06
5.07236e+06
5.07249e+06
5.07267e+06
5.07279e+06
5.07296e+06
5.07307e+06
5.07323e+06
5.07334e+06
5.0735e+06
5.07359e+06
5.07375e+06
5.07382e+06
5.07398e+06
5.07106e+06
5.07134e+06
5.07144e+06
5.07168e+06
5.0718e+06
5.07201e+06
5.07214e+06
5.07233e+06
5.07246e+06
5.07264e+06
5.07276e+06
5.07293e+06
5.07304e+06
5.0732e+06
5.07331e+06
5.07347e+06
5.07356e+06
5.07372e+06
5.07379e+06
5.07395e+06
5.07102e+06
5.0713e+06
5.0714e+06
5.07165e+06
5.07177e+06
5.07198e+06
5.07211e+06
5.0723e+06
5.07243e+06
5.0726e+06
5.07273e+06
5.07289e+06
5.07301e+06
5.07317e+06
5.07328e+06
5.07344e+06
5.07353e+06
5.07369e+06
5.07376e+06
5.07392e+06
5.07099e+06
5.07127e+06
5.07137e+06
5.07161e+06
5.07173e+06
5.07195e+06
5.07208e+06
5.07227e+06
5.0724e+06
5.07257e+06
5.0727e+06
5.07286e+06
5.07298e+06
5.07314e+06
5.07325e+06
5.07341e+06
5.0735e+06
5.07366e+06
5.07373e+06
5.07389e+06
5.07096e+06
5.07124e+06
5.07134e+06
5.07158e+06
5.0717e+06
5.07192e+06
5.07205e+06
5.07224e+06
5.07237e+06
5.07254e+06
5.07267e+06
5.07283e+06
5.07295e+06
5.07311e+06
5.07322e+06
5.07338e+06
5.07347e+06
5.07363e+06
5.0737e+06
5.07386e+06
5.07093e+06
5.07121e+06
5.07131e+06
5.07155e+06
5.07167e+06
5.07189e+06
5.07201e+06
5.07221e+06
5.07234e+06
5.07251e+06
5.07264e+06
5.07281e+06
5.07292e+06
5.07308e+06
5.07319e+06
5.07335e+06
5.07344e+06
5.0736e+06
5.07367e+06
5.07383e+06
5.0709e+06
5.07118e+06
5.07128e+06
5.07152e+06
5.07164e+06
5.07186e+06
5.07199e+06
5.07218e+06
5.07231e+06
5.07248e+06
5.07261e+06
5.07278e+06
5.07289e+06
5.07306e+06
5.07316e+06
5.07332e+06
5.07341e+06
5.07357e+06
5.07364e+06
5.0738e+06
5.07087e+06
5.07115e+06
5.07125e+06
5.07149e+06
5.07161e+06
5.07183e+06
5.07196e+06
5.07215e+06
5.07228e+06
5.07246e+06
5.07258e+06
5.07275e+06
5.07287e+06
5.07303e+06
5.07313e+06
5.07329e+06
5.07338e+06
5.07355e+06
5.07361e+06
5.07378e+06
5.07084e+06
5.07112e+06
5.07122e+06
5.07147e+06
5.07159e+06
5.0718e+06
5.07193e+06
5.07212e+06
5.07225e+06
5.07243e+06
5.07255e+06
5.07272e+06
5.07284e+06
5.073e+06
5.07311e+06
5.07326e+06
5.07335e+06
5.07352e+06
5.07358e+06
5.07375e+06
5.07081e+06
5.0711e+06
5.07119e+06
5.07144e+06
5.07156e+06
5.07177e+06
5.0719e+06
5.07209e+06
5.07222e+06
5.0724e+06
5.07253e+06
5.07269e+06
5.07281e+06
5.07297e+06
5.07308e+06
5.07323e+06
5.07333e+06
5.07349e+06
5.07355e+06
5.07372e+06
5.07079e+06
5.07107e+06
5.07116e+06
5.07141e+06
5.07153e+06
5.07174e+06
5.07187e+06
5.07207e+06
5.07219e+06
5.07237e+06
5.0725e+06
5.07266e+06
5.07278e+06
5.07294e+06
5.07305e+06
5.07321e+06
5.0733e+06
5.07346e+06
5.07352e+06
5.07369e+06
5.07076e+06
5.07104e+06
5.07114e+06
5.07138e+06
5.0715e+06
5.07172e+06
5.07184e+06
5.07204e+06
5.07217e+06
5.07234e+06
5.07247e+06
5.07263e+06
5.07275e+06
5.07291e+06
5.07302e+06
5.07318e+06
5.07327e+06
5.07343e+06
5.07349e+06
5.07366e+06
5.07073e+06
5.07101e+06
5.07111e+06
5.07135e+06
5.07147e+06
5.07169e+06
5.07182e+06
5.07201e+06
5.07214e+06
5.07231e+06
5.07244e+06
5.0726e+06
5.07272e+06
5.07288e+06
5.07299e+06
5.07315e+06
5.07324e+06
5.0734e+06
5.07346e+06
5.07363e+06
5.0707e+06
5.07098e+06
5.07108e+06
5.07133e+06
5.07144e+06
5.07166e+06
5.07179e+06
5.07198e+06
5.07211e+06
5.07228e+06
5.07241e+06
5.07257e+06
5.07269e+06
5.07285e+06
5.07296e+06
5.07311e+06
5.0732e+06
5.07337e+06
5.07343e+06
5.0736e+06
5.07067e+06
5.07095e+06
5.07105e+06
5.0713e+06
5.07141e+06
5.07163e+06
5.07176e+06
5.07195e+06
5.07208e+06
5.07225e+06
5.07238e+06
5.07254e+06
5.07266e+06
5.07282e+06
5.07292e+06
5.07308e+06
5.07317e+06
5.07334e+06
5.0734e+06
5.07356e+06
5.07064e+06
5.07092e+06
5.07102e+06
5.07126e+06
5.07138e+06
5.0716e+06
5.07172e+06
5.07192e+06
5.07204e+06
5.07222e+06
5.07235e+06
5.07251e+06
5.07263e+06
5.07279e+06
5.07289e+06
5.07305e+06
5.07314e+06
5.0733e+06
5.07337e+06
5.07353e+06
5.07061e+06
5.07089e+06
5.07099e+06
5.07123e+06
5.07135e+06
5.07157e+06
5.07169e+06
5.07189e+06
5.07201e+06
5.07219e+06
5.07231e+06
5.07248e+06
5.0726e+06
5.07276e+06
5.07286e+06
5.07302e+06
5.07311e+06
5.07327e+06
5.07334e+06
5.0735e+06
5.07057e+06
5.07086e+06
5.07095e+06
5.0712e+06
5.07132e+06
5.07153e+06
5.07166e+06
5.07185e+06
5.07198e+06
5.07216e+06
5.07228e+06
5.07245e+06
5.07256e+06
5.07272e+06
5.07283e+06
5.07299e+06
5.07308e+06
5.07324e+06
5.0733e+06
5.07347e+06
5.07054e+06
5.07083e+06
5.07092e+06
5.07117e+06
5.07129e+06
5.0715e+06
5.07163e+06
5.07182e+06
5.07195e+06
5.07213e+06
5.07225e+06
5.07242e+06
5.07253e+06
5.07269e+06
5.0728e+06
5.07296e+06
5.07305e+06
5.07321e+06
5.07327e+06
5.07344e+06
5.07051e+06
5.07079e+06
5.07089e+06
5.07114e+06
5.07125e+06
5.07147e+06
5.0716e+06
5.07179e+06
5.07192e+06
5.07209e+06
5.07222e+06
5.07238e+06
5.0725e+06
5.07266e+06
5.07277e+06
5.07293e+06
5.07302e+06
5.07318e+06
5.07324e+06
5.07341e+06
5.07048e+06
5.07076e+06
5.07086e+06
5.0711e+06
5.07122e+06
5.07144e+06
5.07156e+06
5.07176e+06
5.07188e+06
5.07206e+06
5.07218e+06
5.07235e+06
5.07247e+06
5.07263e+06
5.07273e+06
5.07289e+06
5.07298e+06
5.07315e+06
5.07321e+06
5.07338e+06
5.07044e+06
5.07073e+06
5.07082e+06
5.07107e+06
5.07119e+06
5.07141e+06
5.07153e+06
5.07172e+06
5.07185e+06
5.07203e+06
5.07215e+06
5.07232e+06
5.07244e+06
5.0726e+06
5.0727e+06
5.07286e+06
5.07295e+06
5.07312e+06
5.07318e+06
5.07335e+06
5.07041e+06
5.0707e+06
5.07079e+06
5.07104e+06
5.07116e+06
5.07137e+06
5.0715e+06
5.07169e+06
5.07182e+06
5.072e+06
5.07212e+06
5.07229e+06
5.07241e+06
5.07257e+06
5.07267e+06
5.07283e+06
5.07292e+06
5.07309e+06
5.07315e+06
5.07332e+06
5.07038e+06
5.07067e+06
5.07076e+06
5.07101e+06
5.07113e+06
5.07134e+06
5.07147e+06
5.07166e+06
5.07179e+06
5.07197e+06
5.07209e+06
5.07226e+06
5.07237e+06
5.07254e+06
5.07264e+06
5.0728e+06
5.07289e+06
5.07305e+06
5.07312e+06
5.07329e+06
5.07035e+06
5.07064e+06
5.07073e+06
5.07098e+06
5.0711e+06
5.07131e+06
5.07144e+06
5.07163e+06
5.07176e+06
5.07194e+06
5.07206e+06
5.07223e+06