/*--------------------------------*- C++ -*----------------------------------*\
  =========                 |
  \\      /  F ield         | OpenFOAM: The Open Source CFD Toolbox
   \\    /   O peration     | Website:  https://openfoam.org
    \\  /    A nd           | Version:  8
     \\/     M anipulation  |
\*---------------------------------------------------------------------------*/
FoamFile
{
    version     2.0;
    format      ascii;
    class       surfaceScalarField;
    location    "900";
    object      phi;
}
// * * * * * * * * * * * * * * * * * * * * * * * * * * * * * * * * * * * * * //

dimensions      [1 0 -1 0 0 0 0];

internalField   nonuniform List<scalar> 
16360
(
-10.1465
-0.0209913
-10.1262
-0.0203407
-10.1068
-0.019428
-10.0886
-0.0181958
-10.072
-0.0167103
-10.0569
-0.0150704
-10.0436
-0.0133712
-10.0319
-0.0116909
-10.0218
-0.0100875
-10.0131
-0.00859877
-10.0059
-0.0072463
-9.99984
-0.0060368
-9.99487
-0.0049673
-9.99083
-0.00403042
-9.98758
-0.00321737
-9.98502
-0.00252137
-9.98305
-0.00193897
-9.98157
-0.00146697
-9.98047
-0.00110076
-9.97966
-0.000833376
-9.97903
-0.000657162
-9.97848
-0.000566654
-9.97793
-0.000561266
-9.97728
-0.000646506
-9.97646
-0.000832083
-9.97534
-0.00112791
-9.97382
-0.00154205
-9.97175
-0.00208311
-9.96899
-0.00276491
-9.96538
-0.00360945
-9.96073
-0.00464594
-9.95483
-0.0059077
-9.9474
-0.00743069
-9.93814
-0.00925647
-9.92669
-0.0114377
-9.91263
-0.0140411
-9.89548
-0.0171455
-9.87463
-0.020839
-9.8494
-0.025224
-9.81896
-0.0304276
-9.78235
-0.0366066
-9.73838
-0.0439481
-9.68568
-0.0526794
-9.62255
-0.0630924
-9.54695
-0.0755789
-9.45626
-0.0906741
-9.3472
-0.109034
-9.21596
-0.13122
-9.05795
-0.158024
-0.194195
-8.86376
-9.73888
-0.0423083
-9.71728
-0.0419825
-9.69634
-0.0404391
-9.67657
-0.0380316
-9.65825
-0.0350668
-9.64153
-0.0318024
-9.62644
-0.0284481
-9.61294
-0.0251611
-9.60096
-0.0220492
-9.59036
-0.019177
-9.58103
-0.0165759
-9.5728
-0.0142551
-9.56553
-0.0122087
-9.55909
-0.0104242
-9.55336
-0.0088892
-9.54824
-0.00759064
-9.54364
-0.00651643
-9.53946
-0.00565257
-9.53561
-0.00498395
-9.53199
-0.00449578
-9.52851
-0.00417604
-9.52507
-0.00401977
-9.52161
-0.00403105
-9.51805
-0.00422059
-9.51431
-0.00460123
-9.51028
-0.00518552
-9.50586
-0.00598768
-9.50093
-0.0070284
-9.49535
-0.00833901
-9.48899
-0.00996211
-9.48169
-0.0119494
-9.47323
-0.0143601
-9.46339
-0.0172636
-9.45188
-0.0207451
-9.43838
-0.024909
-9.42253
-0.0298789
-9.40388
-0.0357954
-9.38189
-0.0428204
-9.35595
-0.0511484
-9.32534
-0.0610173
-9.28921
-0.0727118
-9.24655
-0.086571
-9.19618
-0.103008
-9.13671
-0.122533
-9.06649
-0.145783
-8.98357
-0.173568
-8.88572
-0.206858
-8.77026
-0.246702
-8.63352
-0.294825
-0.3553
-8.47238
-9.04053
-0.067204
-9.01688
-0.0656748
-8.99446
-0.0629121
-8.97347
-0.0590678
-8.95407
-0.0544868
-8.93633
-0.0495421
-8.92022
-0.0445424
-8.90564
-0.0397093
-8.89249
-0.0351846
-8.88061
-0.0310468
-8.86986
-0.0273278
-8.86007
-0.0240303
-8.85111
-0.0211407
-8.84285
-0.0186382
-8.83519
-0.0165022
-8.82804
-0.0147105
-8.8213
-0.0132411
-8.8149
-0.0120702
-8.80874
-0.0111727
-8.80275
-0.0105258
-8.79683
-0.0101157
-8.79092
-0.0099395
-8.78496
-0.0100038
-8.77888
-0.0103206
-8.77261
-0.0109039
-8.76605
-0.0117694
-8.75912
-0.0129381
-8.7517
-0.0144426
-8.74369
-0.0163302
-8.73497
-0.0186625
-8.7254
-0.0215119
-8.71478
-0.0249629
-8.70291
-0.0291165
-8.68954
-0.0340967
-8.67439
-0.0400524
-8.65712
-0.0471548
-8.63732
-0.0555995
-8.61452
-0.065617
-8.58818
-0.0774873
-8.55763
-0.0915475
-8.52213
-0.108196
-8.48076
-0.127909
-8.43249
-0.151259
-8.37608
-0.178932
-8.31008
-0.211754
-8.23287
-0.25074
-8.14265
-0.297046
-8.03737
-0.35194
-7.91496
-0.41723
-0.496481
-7.77375
-8.09826
-0.091518
-8.07337
-0.0906081
-8.04936
-0.0869589
-8.02693
-0.081528
-8.00631
-0.0751143
-7.98751
-0.0683288
-7.97043
-0.0616039
-7.9549
-0.0552167
-7.94075
-0.0493235
-7.9278
-0.0439971
-7.91587
-0.0392543
-7.9048
-0.0350814
-7.89447
-0.0314508
-7.88473
-0.0283284
-7.87552
-0.0256813
-7.86673
-0.0234764
-7.8583
-0.0216786
-7.85014
-0.0202515
-7.84219
-0.0191611
-7.83436
-0.0183804
-7.82659
-0.0178945
-7.81884
-0.0177008
-7.81106
-0.0178063
-7.80319
-0.0182224
-7.79516
-0.0189626
-7.78691
-0.0200445
-7.77835
-0.0214966
-7.7694
-0.023364
-7.75998
-0.0257101
-7.74999
-0.028613
-7.73931
-0.0321629
-7.72778
-0.0364654
-7.71523
-0.0416488
-7.70145
-0.0478691
-7.68621
-0.0553086
-7.66922
-0.0641752
-7.65012
-0.0747103
-7.62853
-0.0872053
-7.604
-0.102012
-7.576
-0.119546
-7.54389
-0.140294
-7.50697
-0.164841
-7.46437
-0.193877
-7.4151
-0.228217
-7.35798
-0.268852
-7.29173
-0.316977
-7.21489
-0.373915
-7.12567
-0.44114
-7.02237
-0.520505
-0.614689
-6.9042
-7.00729
-0.121888
-6.97898
-0.118948
-6.95283
-0.113136
-6.92901
-0.10536
-6.9075
-0.096618
-6.88811
-0.0876982
-6.87058
-0.0791111
-6.85464
-0.0711435
-6.84003
-0.0639263
-6.82653
-0.0574964
-6.81394
-0.0518368
-6.80211
-0.0469031
-6.79089
-0.0426438
-6.78018
-0.0390086
-6.76988
-0.0359481
-6.75994
-0.0334144
-6.75028
-0.0313574
-6.74083
-0.0297287
-6.73153
-0.0284865
-6.72232
-0.0276008
-6.71316
-0.0270564
-6.70402
-0.0268513
-6.69486
-0.0269913
-6.68563
-0.0274847
-6.67628
-0.0283426
-6.66674
-0.0295857
-6.65696
-0.0312527
-6.64686
-0.0334039
-6.63639
-0.0361178
-6.62547
-0.0394866
-6.61397
-0.0436149
-6.60178
-0.0486261
-6.58876
-0.0546709
-6.57472
-0.0619283
-6.55946
-0.0706045
-6.54272
-0.0809367
-6.52423
-0.0932081
-6.50368
-0.107762
-6.48069
-0.125004
-6.45485
-0.145402
-6.42566
-0.169507
-6.39255
-0.197975
-6.35487
-0.231577
-6.31185
-0.271217
-6.26264
-0.318002
-6.2063
-0.373247
-6.14176
-0.438427
-6.06771
-0.515137
-5.98294
-0.605265
-0.711184
-5.88652
-5.82513
-0.15252
-5.79449
-0.149604
-5.76627
-0.141373
-5.74113
-0.130501
-5.71892
-0.11881
-5.69922
-0.107374
-5.68157
-0.0967423
-5.66556
-0.0871446
-5.65085
-0.0786333
-5.63719
-0.07117
-5.62434
-0.064678
-5.61216
-0.059073
-5.60051
-0.0542722
-5.58929
-0.050203
-5.57844
-0.0467946
-5.56789
-0.0439805
-5.55758
-0.0416969
-5.54745
-0.039884
-5.53746
-0.0384936
-5.52757
-0.0374949
-5.51775
-0.0368746
-5.50799
-0.0366301
-5.49825
-0.0367628
-5.4885
-0.0372757
-5.47868
-0.0381792
-5.46874
-0.0395017
-5.45863
-0.0412962
-5.44832
-0.0436391
-5.43775
-0.0466221
-5.42683
-0.0503475
-5.41548
-0.0549307
-5.40359
-0.0605089
-5.39103
-0.0672478
-5.37766
-0.0753413
-5.36329
-0.0850134
-5.34772
-0.0965297
-5.33073
-0.110212
-5.31206
-0.126443
-5.29144
-0.145657
-5.26852
-0.168357
-5.24293
-0.195138
-5.21424
-0.226703
-5.18193
-0.263882
-5.14545
-0.307669
-5.1042
-0.359257
-5.05743
-0.420008
-5.00432
-0.4915
-4.94397
-0.575456
-4.87535
-0.673836
-0.788796
-4.79774
-4.60537
-0.192013
-4.56979
-0.185193
-4.53925
-0.171918
-4.51335
-0.156385
-4.49123
-0.140915
-4.47197
-0.126614
-4.45483
-0.113865
-4.43927
-0.1027
-4.4249
-0.0930113
-4.41142
-0.0846472
-4.39864
-0.0774522
-4.38641
-0.0712908
-4.37462
-0.0660437
-4.3632
-0.0616139
-4.35209
-0.0579134
-4.34124
-0.0548555
-4.33061
-0.0523597
-4.32015
-0.0503587
-4.30984
-0.0488042
-4.29966
-0.0476696
-4.28958
-0.0469442
-4.27961
-0.0466231
-4.26971
-0.0467017
-4.25984
-0.0471792
-4.24993
-0.0480701
-4.23996
-0.0494152
-4.22989
-0.0512845
-4.21967
-0.0537691
-4.20926
-0.0569691
-4.19857
-0.060991
-4.18752
-0.0659553
-4.17603
-0.0720056
-4.16399
-0.0793142
-4.15128
-0.0880837
-4.13776
-0.0985543
-4.12327
-0.111019
-4.10766
-0.125827
-4.09076
-0.143374
-4.07236
-0.164106
-4.0522
-0.188547
-4.03005
-0.217324
-4.0056
-0.251169
-3.9785
-0.290957
-3.94839
-0.337765
-3.91484
-0.392825
-3.87732
-0.457568
-3.83518
-0.533649
-3.78778
-0.622943
-3.73413
-0.727478
-0.849524
-3.67337
-3.352
-0.233716
-3.3143
-0.222887
-3.28422
-0.201993
-3.26032
-0.180279
-3.2407
-0.160518
-3.2239
-0.143406
-3.20894
-0.128814
-3.19524
-0.116406
-3.18241
-0.105841
-3.17022
-0.0968288
-3.15852
-0.0891324
-3.14722
-0.0825703
-3.13626
-0.0769995
-3.12559
-0.0722988
-3.11517
-0.068363
-3.10497
-0.0650925
-3.09496
-0.0623989
-3.0851
-0.0602152
-3.07539
-0.0585012
-3.0658
-0.0572391
-3.05633
-0.0564214
-3.04695
-0.0560393
-3.03762
-0.0560815
-3.02827
-0.0565447
-3.01885
-0.0574509
-3.00934
-0.0588563
-2.99969
-0.0608464
-2.98987
-0.0635194
-2.97984
-0.066973
-2.96951
-0.0713065
-2.95883
-0.0766352
-2.94776
-0.0831011
-2.93622
-0.0908776
-2.92416
-0.100174
-2.91147
-0.111248
-2.8981
-0.12441
-2.88394
-0.140019
-2.8689
-0.158469
-2.85283
-0.180212
-2.83559
-0.205792
-2.81703
-0.235854
-2.79696
-0.271168
-2.77519
-0.312672
-2.75149
-0.361486
-2.72556
-0.418829
-2.697
-0.486174
-2.66534
-0.565302
-2.63013
-0.658237
-2.5904
-0.767159
-0.894865
-2.54506
-2.03138
-0.288434
-1.99382
-0.260441
-1.97001
-0.225795
-1.95361
-0.196678
-1.94101
-0.173119
-1.93032
-0.154099
-1.92061
-0.138531
-1.91142
-0.125594
-1.90254
-0.114713
-1.89385
-0.105483
-1.88533
-0.0976252
-1.87694
-0.0909272
-1.86869
-0.085246
-1.86056
-0.0804584
-1.85253
-0.0764479
-1.84457
-0.0731088
-1.83664
-0.0703542
-1.8287
-0.0681284
-1.82075
-0.0664085
-1.81277
-0.0651898
-1.80475
-0.0644639
-1.79663
-0.0642073
-1.78837
-0.0643882
-1.77992
-0.0649915
-1.77127
-0.066046
-1.7624
-0.0676282
-1.75332
-0.0698379
-1.74405
-0.0727652
-1.73456
-0.0764797
-1.72484
-0.0810525
-1.7149
-0.0865893
-1.70476
-0.0932426
-1.69444
-0.101202
-1.68393
-0.110691
-1.67321
-0.121974
-1.66227
-0.135376
-1.65108
-0.151263
-1.63957
-0.170032
-1.62764
-0.19214
-1.61523
-0.218148
-1.60224
-0.248748
-1.58856
-0.284774
-1.5741
-0.327176
-1.55859
-0.377006
-1.54181
-0.435603
-1.5235
-0.504474
-1.5033
-0.585445
-1.48083
-0.68064
-1.45543
-0.792449
-0.924033
-1.42604
-0.608791
-0.356538
-0.586942
-0.282289
-0.576622
-0.236126
-0.571277
-0.202046
-0.568353
-0.176079
-0.566308
-0.15619
-0.564391
-0.140486
-0.562264
-0.127726
-0.559777
-0.117168
-0.556859
-0.108331
-0.553513
-0.100897
-0.549773
-0.0946284
-0.545687
-0.0893555
-0.541287
-0.0849428
-0.536574
-0.081268
-0.531536
-0.0782196
-0.526177
-0.075707
-0.520544
-0.0736774
-0.514727
-0.0721205
-0.508813
-0.0710507
-0.502831
-0.0704767
-0.49674
-0.0703771
-0.490464
-0.0707039
-0.483976
-0.0714198
-0.477337
-0.0725416
-0.470677
-0.0741517
-0.464112
-0.076362
-0.457677
-0.0792594
-0.451349
-0.0828848
-0.445138
-0.0872757
-0.439136
-0.0925358
-0.433462
-0.0988553
-0.428173
-0.106471
-0.423247
-0.115623
-0.418664
-0.126576
-0.414444
-0.139658
-0.410556
-0.155247
-0.406876
-0.173742
-0.4033
-0.195612
-0.399812
-0.221488
-0.39637
-0.252107
-0.392883
-0.288262
-0.389212
-0.330909
-0.385018
-0.38117
-0.380016
-0.440512
-0.374001
-0.510419
-0.366534
-0.592754
-0.357226
-0.689811
-0.34606
-0.80401
-0.937994
-0.332422
0.864083
-0.352897
0.85557
-0.273787
0.851753
-0.232341
0.850063
-0.200407
0.848672
-0.174745
0.846989
-0.154552
0.84514
-0.138657
0.843346
-0.12591
0.841754
-0.115518
0.840454
-0.106962
0.839495
-0.0998852
0.83889
-0.0940218
0.838642
-0.0891657
0.83876
-0.0851494
0.83926
-0.0818336
0.84015
-0.0791066
0.84141
-0.0768908
0.842983
-0.0751443
0.84478
-0.073852
0.846725
-0.0730076
0.84878
-0.0725981
0.850955
-0.0726002
0.853278
-0.0729932
0.855746
-0.0737804
0.85831
-0.075001
0.860897
-0.0767195
0.86346
-0.0789995
0.865997
-0.0818881
0.868521
-0.0854295
0.871004
-0.0897012
0.873369
-0.0948378
0.875537
-0.101017
0.877462
-0.108432
0.879087
-0.117288
0.880302
-0.12784
0.880987
-0.140408
0.881078
-0.155354
0.880526
-0.17309
0.879198
-0.194148
0.876955
-0.219181
0.873744
-0.24889
0.869529
-0.284067
0.864376
-0.325728
0.858363
-0.375095
0.851846
-0.433771
0.844945
-0.503334
0.838012
-0.585774
0.831828
-0.683468
0.826697
-0.798728
-0.934195
0.823197
2.38136
-0.291518
2.35496
-0.247406
2.3337
-0.211117
2.31887
-0.185621
2.30849
-0.164414
2.30056
-0.146659
2.29405
-0.132159
2.28849
-0.120347
2.28365
-0.11065
2.27936
-0.10265
2.27553
-0.096043
2.27208
-0.0905889
2.26898
-0.0860891
2.26618
-0.0823791
2.26367
-0.0793281
2.26144
-0.0768396
2.25945
-0.0748496
2.25767
-0.0733189
2.25605
-0.0722215
2.25455
-0.0715332
2.25316
-0.0712296
2.25186
-0.0712929
2.25063
-0.071723
2.24943
-0.0725428
2.24822
-0.073792
2.24697
-0.0755127
2.24566
-0.0777398
2.24427
-0.0805089
2.24276
-0.0838764
2.24105
-0.0879375
2.23905
-0.0928245
2.23669
-0.0986883
2.23392
-0.10569
2.23063
-0.114016
2.22668
-0.123905
2.22193
-0.135653
2.21622
-0.149612
2.2094
-0.166211
2.20124
-0.185983
2.1916
-0.209539
2.18035
-0.237573
2.16732
-0.270949
2.15243
-0.310734
2.13554
-0.358227
2.1169
-0.415015
2.09649
-0.482826
2.07443
-0.56379
2.05138
-0.660255
2.02765
-0.775076
-0.910897
2.00426
3.86435
-0.263376
3.83817
-0.221248
3.82124
-0.194211
3.80707
-0.171484
3.79516
-0.152544
3.78496
-0.136481
3.77587
-0.123093
3.76759
-0.112073
3.75995
-0.103004
3.75283
-0.0955288
3.74616
-0.0893708
3.73988
-0.0843064
3.73395
-0.0801447
3.72831
-0.076728
3.72295
-0.0739337
3.71781
-0.0716722
3.71287
-0.0698817
3.70809
-0.0685193
3.70341
-0.0675509
3.69882
-0.0669452
3.69428
-0.0666775
3.68974
-0.0667375
3.68517
-0.067135
3.68052
-0.0678962
3.67575
-0.0690523
3.67084
-0.0706294
3.66574
-0.07265
3.66042
-0.0751482
3.65478
-0.0781872
3.64873
-0.0818617
3.64216
-0.0862864
3.63499
-0.091582
3.62715
-0.0978824
3.6185
-0.105359
3.60885
-0.114241
3.59803
-0.124812
3.58583
-0.137411
3.57202
-0.152441
3.55639
-0.1704
3.53873
-0.191869
3.51881
-0.217562
3.49636
-0.248385
3.47112
-0.28542
3.44276
-0.329976
3.41135
-0.383596
3.37659
-0.44813
3.33846
-0.525767
3.29709
-0.618919
3.25294
-0.730686
-0.86442
3.20654
5.53937
-0.192658
5.49333
-0.175227
5.45107
-0.151983
5.41558
-0.136033
5.38526
-0.122255
5.35882
-0.110062
5.33539
-0.099674
5.31433
-0.0910265
5.29519
-0.0838752
5.27764
-0.0779801
5.26141
-0.0731434
5.24631
-0.069194
5.23217
-0.0659813
5.21885
-0.0633797
5.20624
-0.0612915
5.19423
-0.0596451
5.18274
-0.0583888
5.17169
-0.0574831
5.16101
-0.0568939
5.15065
-0.0565926
5.14054
-0.0565624
5.1306
-0.0568039
5.12078
-0.0573346
5.11102
-0.0581792
5.10128
-0.05936
5.09152
-0.0608931
5.0817
-0.0627977
5.07171
-0.0651116
5.06146
-0.0678979
5.05081
-0.071237
5.03968
-0.0752138
5.02798
-0.0799187
5.01557
-0.0854681
5.00228
-0.0920279
4.9879
-0.0998165
4.9722
-0.109092
4.95493
-0.120152
4.93582
-0.133361
4.91459
-0.149181
4.89096
-0.168179
4.86456
-0.191071
4.83498
-0.218752
4.80181
-0.252255
4.76456
-0.292813
4.72294
-0.341928
4.67641
-0.40151
4.62462
-0.473704
4.5669
-0.561278
4.50316
-0.667066
-0.794665
4.43341
6.62716
-0.17718
6.59898
-0.147059
6.58182
-0.13485
6.56748
-0.12172
6.55513
-0.109921
6.54451
-0.0994571
6.53521
-0.0903973
6.5269
-0.0827297
6.51933
-0.076323
6.51236
-0.0710184
6.50589
-0.0666623
6.49983
-0.0631108
6.49413
-0.0602337
6.48871
-0.0579209
6.48354
-0.0560838
6.47856
-0.0546525
6.47373
-0.0535715
6.46902
-0.0527934
6.46439
-0.0522784
6.45981
-0.0519981
6.4552
-0.0519416
6.45052
-0.0521168
6.44571
-0.0525441
6.44074
-0.0532462
6.4356
-0.0542407
6.43027
-0.0555417
6.42469
-0.05717
6.41879
-0.0591629
6.41246
-0.0615698
6.40562
-0.0644424
6.39818
-0.0678338
6.39006
-0.0718147
6.38112
-0.0764958
6.37116
-0.0820331
6.35995
-0.0886107
6.34728
-0.0964308
6.33284
-0.105734
6.31632
-0.116839
6.29732
-0.13016
6.2754
-0.146209
6.24998
-0.165633
6.22044
-0.189213
6.18605
-0.217838
6.14586
-0.252619
6.09891
-0.294978
6.04407
-0.346706
5.97993
-0.409716
5.90532
-0.486598
5.81897
-0.580654
-0.695927
5.72019
8.96975
-0.0941026
8.91628
-0.0936068
8.86325
-0.0818351
8.81674
-0.0752221
8.77519
-0.0683789
8.73757
-0.0618454
8.70327
-0.0561233
8.6718
-0.0512764
8.64272
-0.0472591
8.61568
-0.043994
8.59041
-0.0413831
8.56665
-0.0393242
8.54418
-0.037724
8.5228
-0.0365034
8.50232
-0.035597
8.4826
-0.0349494
8.46351
-0.0345136
8.44493
-0.0342494
8.42676
-0.0341276
8.4089
-0.0341348
8.39124
-0.0342753
8.37368
-0.0345672
8.35614
-0.0350328
8.33855
-0.0356929
8.32087
-0.0365644
8.30302
-0.0376614
8.28489
-0.0390026
8.26635
-0.0406114
8.24726
-0.0425072
8.22748
-0.044702
8.20685
-0.0472171
8.18516
-0.0501082
8.16217
-0.0534689
8.13755
-0.0574125
8.11099
-0.0620574
8.0821
-0.0675386
8.05043
-0.0740432
8.01542
-0.0818355
7.9765
-0.091245
7.93294
-0.102671
7.88392
-0.116645
7.8286
-0.133847
7.766
-0.155103
7.69489
-0.18151
7.6141
-0.214302
7.52271
-0.25511
7.41928
-0.306277
7.3029
-0.370337
7.17295
-0.450763
-0.552348
7.02941
8.7521
-0.0849226
8.72925
-0.0707673
8.72337
-0.0759583
8.71932
-0.0711787
8.7157
-0.064764
8.71251
-0.0586694
8.70954
-0.0531789
8.7067
-0.048463
8.70401
-0.044589
8.70151
-0.0415038
8.69925
-0.0391054
8.69725
-0.0372931
8.69555
-0.0359797
8.69416
-0.0350857
8.6931
-0.0345316
8.69236
-0.0342353
8.69193
-0.0341177
8.69177
-0.0341105
8.69181
-0.0341655
8.69197
-0.0342631
8.69213
-0.0344123
8.69221
-0.0346427
8.69215
-0.0349868
8.69193
-0.035477
8.69154
-0.0361474
8.69093
-0.037022
8.69007
-0.0381183
8.6889
-0.0394461
8.68737
-0.0410048
8.68544
-0.0427916
8.68306
-0.0448242
8.68012
-0.047156
8.67651
-0.0498621
8.67209
-0.05302
8.66675
-0.0567164
8.6603
-0.0610726
8.65252
-0.0662632
8.64317
-0.0725104
8.63197
-0.0800653
8.61858
-0.0892639
8.60257
-0.100641
8.58357
-0.114866
8.56105
-0.132586
8.53437
-0.154753
8.50266
-0.182566
8.46491
-0.217483
8.41984
-0.261203
8.36554
-0.315988
8.29955
-0.384715
-0.472553
8.21982
13.471
0.0100131
13.4236
-0.0233541
13.373
-0.0253152
13.3265
-0.0247331
13.2845
-0.0227091
13.2459
-0.0200909
13.2102
-0.0175334
13.1771
-0.0153903
13.1463
-0.0137613
13.1174
-0.0126106
13.0901
-0.0118654
13.0643
-0.0114549
13.0397
-0.0113141
13.016
-0.0113786
12.993
-0.0115813
12.9706
-0.0118541
12.9486
-0.0121373
12.9268
-0.0123893
12.9053
-0.0125921
12.8838
-0.0127543
12.8623
-0.0129053
12.8407
-0.0130896
12.8191
-0.01333
12.7973
-0.0136498
12.7752
-0.0140964
12.7529
-0.0146889
12.7302
-0.0154218
12.707
-0.0162692
12.6832
-0.0171939
12.6586
-0.0181696
12.633
-0.0191972
12.6061
-0.0203036
12.5778
-0.0215171
12.5476
-0.0228515
12.5152
-0.0243219
12.48
-0.0259615
12.4416
-0.0278263
12.3991
-0.0300031
12.3518
-0.0326331
12.2984
-0.035927
12.2377
-0.0400993
12.1682
-0.0453757
12.0878
-0.0522054
11.9943
-0.0612463
11.8845
-0.0728358
11.7549
-0.0878484
11.6008
-0.107033
11.4162
-0.131331
11.1927
-0.161261
-0.194751
10.9149
8.69563
0.0339109
8.66419
0.00809761
8.63301
0.00587638
8.60048
0.00780008
8.56787
0.00990518
8.53645
0.0113144
8.50715
0.0117402
8.48039
0.0113434
8.45615
0.0104523
8.43422
0.00932453
8.41429
0.00809026
8.39608
0.00679639
8.37934
0.00546335
8.36384
0.00412522
8.34938
0.00284554
8.33578
0.00170558
8.32283
0.000776256
8.31034
9.66768e-05
8.2981
-0.00033219
8.28593
-0.000542716
8.27365
-0.000588761
8.26111
-0.00053726
8.2483
-0.000512232
8.23521
-0.000549449
8.22177
-0.000639966
8.20792
-0.000827424
8.19358
-0.00108802
8.17868
-0.00136217
8.16308
-0.00157148
8.14657
-0.00164202
8.12889
-0.00153263
8.10977
-0.00123105
8.08893
-0.000723387
8.06602
2.91144e-05
8.04059
0.00109898
8.01206
0.00259062
7.97968
0.00459015
7.94252
0.00714718
7.89948
0.0103871
7.8491
0.0144763
7.78972
0.0193895
7.71946
0.0250511
7.63549
0.0316615
7.53522
0.0392719
7.41427
0.0480275
7.26832
0.0582162
7.09123
0.0700726
6.8759
0.0840452
6.61397
0.100679
0.121819
6.2973
-6.57639
-6.56828
-6.56239
-6.55459
-6.5447
-6.53341
-6.52169
-6.51036
-6.49991
-6.49057
-6.48246
-6.47565
-6.47019
-6.46609
-6.46329
-6.46162
-6.46085
-6.46074
-6.46104
-6.46156
-6.46214
-6.46267
-6.46317
-6.46371
-6.46434
-6.46516
-6.46624
-6.46758
-6.46914
-6.4708
-6.47238
-6.47364
-6.47437
-6.47433
-6.47321
-6.47065
-6.46618
-6.45909
-6.44857
-6.43409
-6.41488
-6.38971
-6.35829
-6.31891
-6.27093
-6.21269
-6.14263
-6.05868
-5.95799
-5.83615
0.406424
-0.00852012
0.40939
-0.00297545
0.411526
-0.00214741
0.412556
-0.00104027
0.41287
-0.000324224
0.412813
4.62952e-05
0.412558
0.000244916
0.412185
0.000362149
0.411742
0.000433585
0.411255
0.000476496
0.410743
0.000501595
0.410217
0.000515637
0.409684
0.000522644
0.409149
0.000524998
0.408615
0.000524166
0.408083
0.000521088
0.407557
0.000516377
0.407036
0.000510431
0.406522
0.000503506
0.406017
0.000495756
0.405519
0.000487262
0.405031
0.000478046
0.404553
0.000468082
0.404085
0.000457303
0.40363
0.000445606
0.403187
0.000432857
0.402758
0.000418891
0.402345
0.000403502
0.401948
0.000386438
0.401571
0.000367397
0.401215
0.000346057
0.400884
0.000322074
0.400579
0.000294997
0.400305
0.000264412
0.400066
0.000229296
0.399868
0.000188907
0.399716
0.00014228
0.399619
8.82509e-05
0.399584
2.54388e-05
0.399623
-4.81138e-05
0.399749
-0.000135021
0.399979
-0.000238586
0.400334
-0.00036319
0.40084
-0.000515019
0.401535
-0.000703325
0.402469
-0.000942926
0.403721
-0.00125942
0.405413
-0.0017009
0.407772
-0.00236656
-0.00347156
0.411235
0.393841
-0.00446687
0.392984
-0.0021385
0.391555
-0.000737846
0.390798
-0.000301489
0.390429
2.54961e-05
0.39023
0.000227403
0.390134
0.000322491
0.39011
0.0003669
0.390137
0.000388229
0.390198
0.000397107
0.390282
0.00039882
0.390382
0.000396607
0.390494
0.0003923
0.390614
0.000386826
0.390739
0.000380637
0.390868
0.000373947
0.390999
0.000366839
0.391131
0.000359304
0.391265
0.000351279
0.3914
0.000342656
0.391535
0.000333291
0.391672
0.000323004
0.39181
0.000311585
0.391951
0.000298782
0.392094
0.000284304
0.392241
0.00026782
0.392393
0.000248957
0.392552
0.000227269
0.392718
0.000202193
0.392895
0.000173047
0.393084
0.000139144
0.393289
9.98543e-05
0.393513
5.41078e-05
0.39376
6.44661e-07
0.394034
-6.18779e-05
0.394342
-0.000134991
0.394688
-0.000220619
0.395081
-0.000321123
0.39553
-0.000439386
0.396045
-0.000579315
0.39664
-0.000745588
0.39733
-0.00094417
0.398134
-0.00118301
0.399077
-0.00147297
0.400188
-0.00182939
0.401505
-0.00227482
0.403075
-0.00284359
0.40495
-0.0035897
0.40717
-0.00460015
-0.00601136
0.409697
0.394407
-0.000977492
0.393243
-0.000992421
0.393028
-0.000540059
0.393039
-0.000328103
0.39325
-0.000202032
0.39354
-7.94521e-05
0.393828
1.80652e-05
0.39409
8.79156e-05
0.394323
0.000139192
0.394526
0.000177409
0.394703
0.0002056
0.394857
0.000226027
0.394993
0.000240495
0.395113
0.000250329
0.395221
0.000256466
0.395319
0.000259573
0.395409
0.00026011
0.395494
0.00025838
0.395574
0.000254554
0.395652
0.000248701
0.395729
0.000240798
0.395805
0.000230743
0.395882
0.000218353
0.395962
0.000203372
0.396045
0.000185459
0.396133
0.000164213
0.396227
0.000139184
0.396329
0.000109821
0.39644
7.53464e-05
0.396563
3.4789e-05
0.3967
-1.28362e-05
0.396853
-6.87205e-05
0.397027
-0.000134256
0.397224
-0.000211164
0.397448
-0.000301054
0.397705
-0.000406374
0.398
-0.00052994
0.398339
-0.000675154
0.398732
-0.000846194
0.399187
-0.00104827
0.399716
-0.0012878
0.400331
-0.00157284
0.401048
-0.00191378
0.401886
-0.00232433
0.402867
-0.00282294
0.404014
-0.00343488
0.405353
-0.00419529
0.406904
-0.00515345
0.408669
-0.00637773
-0.00795727
0.410603
0.397497
-0.000578645
0.397303
-0.000814688
0.397359
-0.000613228
0.397406
-0.000390474
0.397413
-0.000225901
0.397404
-8.65103e-05
0.397379
2.7312e-05
0.39734
0.000110656
0.397295
0.000168692
0.397248
0.000208456
0.397202
0.000234919
0.397161
0.000251549
0.397125
0.000260929
0.397094
0.000264949
0.39707
0.000264924
0.397052
0.000261744
0.39704
0.000255989
0.397034
0.000248005
0.397035
0.000237964
0.397042
0.000225893
0.397055
0.000211706
0.397075
0.000195213
0.397102
0.000176129
0.397135
0.000154065
0.397177
0.000128497
0.397227
9.88268e-05
0.397286
6.44922e-05
0.397356
2.46328e-05
0.397438
-2.16848e-05
0.397533
-7.55103e-05
0.397644
-0.000138141
0.397772
-0.000211284
0.397919
-0.000296681
0.39809
-0.000396421
0.398288
-0.000512901
0.398516
-0.000649109
0.398781
-0.000808611
0.399087
-0.000995677
0.399443
-0.00121547
0.399855
-0.00147427
0.400334
-0.00177976
0.400889
-0.00214142
0.401533
-0.00257109
0.40228
-0.00308376
0.403142
-0.00369861
0.404136
-0.00444031
0.405269
-0.00534057
0.406543
-0.00643965
0.407939
-0.0077863
-0.0094347
0.409405
0.39755
-0.000232768
0.397094
-0.000375132
0.396771
-0.000307085
0.396552
-0.000186984
0.396405
-9.46064e-05
0.396325
-2.31242e-05
0.396301
3.55084e-05
0.396315
8.06063e-05
0.396355
0.000113034
0.396411
0.000135777
0.396479
0.000151342
0.396553
0.000161388
0.396631
0.000167091
0.396711
0.00016932
0.396791
0.000168682
0.396871
0.000165568
0.396951
0.000160202
0.397031
0.000152679
0.39711
0.000142979
0.397189
0.000130987
0.397269
0.000116498
0.397349
9.92322e-05
0.397431
7.88184e-05
0.397514
5.48077e-05
0.397601
2.65227e-05
0.397691
-6.73471e-06
0.397786
-4.58213e-05
0.397887
-9.17351e-05
0.397996
-0.000145551
0.398114
-0.000208474
0.398243
-0.000282095
0.398385
-0.000368269
0.398543
-0.000469097
0.398719
-0.000587053
0.398917
-0.000725047
0.39914
-0.000886551
0.399393
-0.0010757
0.399681
-0.00129744
0.40001
-0.00155765
0.400385
-0.00186342
0.400815
-0.00222324
0.401308
-0.00264739
0.401872
-0.00314837
0.402517
-0.00374142
0.403251
-0.00444511
0.40408
-0.00528209
0.405007
-0.00627965
0.406025
-0.00746986
0.407115
-0.00888815
-0.0105704
0.408239
0.397785
-0.000121484
0.39762
-0.000226289
0.397528
-0.0002322
0.397509
-0.000184289
0.397527
-0.000128789
0.397565
-7.63511e-05
0.397611
-2.7188e-05
0.39766
1.61482e-05
0.397705
5.1543e-05
0.397746
7.90091e-05
0.397782
9.94904e-05
0.397813
0.000113958
0.397841
0.00012327
0.397867
0.000128178
0.39789
0.000129302
0.397913
0.000127107
0.397935
0.000121909
0.397958
0.000113883
0.397982
0.000103074
0.398008
8.94109e-05
0.398036
7.26995e-05
0.398067
5.26766e-05
0.398101
2.89399e-05
0.39814
9.69587e-07
0.398183
-3.1843e-05
0.398231
-7.02764e-05
0.398285
-0.000115373
0.398346
-0.0001682
0.398416
-0.000229997
0.398495
-0.000302221
0.398584
-0.000386622
0.398687
-0.000485254
0.398803
-0.000600503
0.398937
-0.000735159
0.39909
-0.000892501
0.399266
-0.00107641
0.399467
-0.00129147
0.399699
-0.0015431
0.399965
-0.00183773
0.400271
-0.00218295
0.400622
-0.00258772
0.401024
-0.00306268
0.401483
-0.00362041
0.402005
-0.00427576
0.402593
-0.00504611
0.40325
-0.00595165
0.403973
-0.00701533
0.404754
-0.00826219
0.405572
-0.00971789
-0.0114053
0.406395
0.397836
-6.11286e-05
0.397715
-0.000121495
0.397599
-0.000133662
0.397508
-0.000108843
0.397435
-7.18251e-05
0.397378
-3.5103e-05
0.397336
-1.83755e-06
0.39731
2.641e-05
0.397297
4.85527e-05
0.397295
6.45662e-05
0.397304
7.517e-05
0.397321
8.11948e-05
0.397345
8.33536e-05
0.397375
8.22261e-05
0.39741
7.82564e-05
0.39745
7.17456e-05
0.397493
6.28584e-05
0.397539
5.16378e-05
0.397589
3.79933e-05
0.39764
2.17393e-05
0.397695
2.57731e-06
0.397752
-1.99083e-05
0.397811
-4.62351e-05
0.397874
-7.70649e-05
0.39794
-0.000113078
0.398009
-0.000155181
0.398083
-0.000204456
0.398162
-0.000262115
0.398246
-0.000329555
0.398338
-0.000408406
0.398437
-0.000500577
0.398545
-0.000608298
0.398664
-0.000734169
0.398796
-0.000881222
0.398942
-0.00105302
0.399105
-0.00125372
0.399288
-0.00148826
0.399493
-0.00176238
0.399724
-0.00208282
0.399985
-0.00245747
0.40028
-0.00289552
0.400611
-0.00340765
0.400984
-0.00400621
0.401401
-0.00470535
0.401863
-0.00552116
0.402371
-0.00647155
0.402919
-0.00757593
0.403499
-0.00885438
0.404096
-0.0103266
-0.0120097
0.404688
0.397867
-3.14833e-05
0.397795
-6.66601e-05
0.397725
-8.03311e-05
0.397674
-7.36991e-05
0.397644
-5.74565e-05
0.397632
-3.92585e-05
0.397636
-2.18288e-05
0.397652
-6.26422e-06
0.397678
6.61652e-06
0.397711
1.63982e-05
0.397747
2.31109e-05
0.397785
2.69551e-05
0.397824
2.81334e-05
0.397864
2.68128e-05
0.397903
2.31138e-05
0.397942
1.70962e-05
0.39798
8.74958e-06
0.398018
-2.01325e-06
0.398056
-1.53581e-05
0.398093
-3.15413e-05
0.398131
-5.08989e-05
0.398169
-7.39017e-05
0.398209
-0.000101112
0.398249
-0.0001332
0.398292
-0.000170943
0.398337
-0.000215284
0.398384
-0.000267337
0.398435
-0.000328385
0.398491
-0.00039991
0.398551
-0.000483634
0.398617
-0.000581565
0.39869
-0.000696044
0.398771
-0.000829803
0.398861
-0.000986031
0.398962
-0.00116846
0.399076
-0.00138145
0.399204
-0.0016301
0.399348
-0.00192036
0.39951
-0.00225914
0.399694
-0.00265445
0.3999
-0.00311549
0.400132
-0.00365282
0.400391
-0.00427842
0.400679
-0.00500569
0.400994
-0.00584949
0.401336
-0.00682588
0.401699
-0.0079515
0.402075
-0.00924298
0.402452
-0.0107153
-0.0123808
0.402812
0.397878
-1.34749e-05
0.397825
-3.02726e-05
0.397767
-3.89675e-05
0.397716
-3.84606e-05
0.397675
-3.25614e-05
0.397645
-2.49103e-05
0.397624
-1.73294e-05
0.397613
-1.06908e-05
0.397609
-5.62617e-06
0.397612
-2.51859e-06
0.397621
-1.49057e-06
0.397634
-2.52136e-06
0.397652
-5.54968e-06
0.397673
-1.05193e-05
0.397698
-1.7402e-05
0.397726
-2.62137e-05
0.397755
-3.70305e-05
0.397788
-5.0002e-05
0.397822
-6.53408e-05
0.397858
-8.33519e-05
0.397896
-0.000104432
0.397935
-0.000129086
0.397977
-0.000157921
0.39802
-0.000191657
0.398064
-0.00023114
0.398111
-0.000277364
0.39816
-0.000331486
0.398211
-0.000394848
0.398265
-0.000468994
0.398323
-0.000555717
0.398383
-0.000657092
0.398448
-0.000775536
0.398517
-0.000913863
0.398592
-0.00107535
0.398673
-0.00126383
0.398761
-0.00148375
0.398858
-0.00174031
0.398963
-0.00203953
0.399078
-0.00238835
0.399205
-0.00279477
0.399344
-0.00326794
0.399496
-0.00381817
0.399661
-0.00445704
0.39984
-0.00519735
0.400031
-0.00605298
0.400231
-0.00703858
0.400436
-0.00816905
0.40064
-0.00945891
0.400833
-0.010921
-0.0125661
0.401007
0.397883
-3.9135e-07
0.397839
-2.78452e-06
0.39779
-6.19071e-06
0.397745
-9.72866e-06
0.397709
-1.32219e-05
0.397685
-1.66156e-05
0.397672
-2.00029e-05
0.397669
-2.35002e-05
0.397674
-2.7267e-05
0.397687
-3.14492e-05
0.397706
-3.62002e-05
0.397729
-4.16773e-05
0.397756
-4.80348e-05
0.397785
-5.543e-05
0.397816
-6.40303e-05
0.397848
-7.40212e-05
0.397881
-8.56186e-05
0.397914
-9.90805e-05
0.397947
-0.000114716
0.397981
-0.000132901
0.398015
-0.000154089
0.398049
-0.000178822
0.398084
-0.000207741
0.398118
-0.000241596
0.398153
-0.000281259
0.398188
-0.000327743
0.398223
-0.000382219
0.398259
-0.000446041
0.398296
-0.000520771
0.398334
-0.000608213
0.398372
-0.000710455
0.398412
-0.000829923
0.398453
-0.000969439
0.398495
-0.00113229
0.398539
-0.00132231
0.398585
-0.00154396
0.398633
-0.0018024
0.398683
-0.00210362
0.398736
-0.0024545
0.39879
-0.00286295
0.398847
-0.00333791
0.398905
-0.00388948
0.398964
-0.00452887
0.399022
-0.00526842
0.399077
-0.00612135
0.399127
-0.00710145
0.399169
-0.00822271
0.399196
-0.00949829
0.399202
-0.0109399
-0.0125566
0.399181
0.397883
1.26819e-05
0.397839
2.47294e-05
0.39779
2.66861e-05
0.397745
1.91895e-05
0.397709
6.39769e-06
0.397684