/*--------------------------------*- C++ -*----------------------------------*\
  =========                 |
  \\      /  F ield         | OpenFOAM: The Open Source CFD Toolbox
   \\    /   O peration     | Website:  https://openfoam.org
    \\  /    A nd           | Version:  8
     \\/     M anipulation  |
\*---------------------------------------------------------------------------*/
FoamFile
{
    version     2.0;
    format      ascii;
    class       volScalarField;
    location    "300";
    object      p_rgh;
}
// * * * * * * * * * * * * * * * * * * * * * * * * * * * * * * * * * * * * * //

dimensions      [1 -1 -2 0 0 0 0];

internalField   nonuniform List<scalar> 
1200
(
592.338
384.801
296.876
266.256
245.773
228.77
215.073
203.573
193.522
184.591
176.488
169.079
162.309
156.074
150.3
144.911
139.844
135.086
130.599
126.329
122.241
118.331
114.583
110.955
107.431
104.016
100.69
97.4312
94.238
91.1029
88.0119
84.9608
81.9446
78.9529
75.979
73.0217
70.0817
67.1545
64.2311
61.3091
58.3883
55.4648
52.5347
49.5997
46.6648
43.7222
40.7674
37.7991
34.822
31.8435
28.8441
25.8367
22.8154
19.7741
16.7289
13.6765
10.608
7.4867
4.28306
0.354364
150.231
175.673
181.946
187.768
188.646
185.726
181.36
176.435
171.294
166.166
161.122
156.222
151.52
147.018
142.702
138.544
134.529
130.665
126.932
123.301
119.761
116.317
112.961
109.663
106.423
103.25
100.125
97.0368
93.9896
90.9778
87.9906
85.0267
82.0832
79.1527
76.2314
73.3161
70.4077
67.506
64.6017
61.694
58.7855
55.8705
52.9463
50.0156
47.0811
44.1396
41.1848
38.2147
35.2367
32.2523
29.2497
26.2395
23.214
20.1706
17.1213
14.0647
10.9944
7.88795
4.73763
1.47357
221.641
279.236
285.84
272.683
257.493
242.658
228.695
215.9
204.312
193.878
184.427
175.817
167.973
160.81
154.233
148.152
142.506
137.249
132.323
127.676
123.278
119.105
115.12
111.287
107.599
104.047
100.597
97.2368
93.9644
90.7638
87.6199
84.5274
81.4774
78.4608
75.4724
72.5039
69.5531
66.6191
63.6894
60.7633
57.8442
54.9219
51.9952
49.066
46.1326
43.1962
40.2475
37.2848
34.3166
31.3382
28.347
25.3472
22.332
19.3041
16.2662
13.2202
10.1649
7.0954
4.04004
1.19786
222.127
244.365
237.732
220.038
206.093
195.638
186.851
179.192
172.447
166.413
160.877
155.717
150.878
146.311
141.971
137.82
133.838
130.002
126.286
122.683
119.183
115.774
112.435
109.152
105.935
102.779
99.662
96.5836
93.5486
90.5441
87.5637
84.6084
81.6709
78.7465
75.835
72.9303
70.0326
67.1418
64.2461
61.3483
58.453
55.5479
52.6356
49.7184
46.7913
43.859
40.9119
37.9493
34.9806
31.9983
29.007
26.0011
22.9808
19.9527
16.9087
13.8556
10.7967
7.73924
4.71544
1.96688
225.731
245.025
248.51
239.097
229.014
219.552
209.888
200.336
191.305
182.926
175.16
167.973
161.325
155.16
149.431
144.087
139.077
134.348
129.865
125.611
121.556
117.67
113.922
110.295
106.788
103.382
100.055
96.8038
93.6233
90.4941
87.4113
84.3738
81.3688
78.3894
75.4347
72.4972
69.5741
66.6619
63.7494
60.8415
57.939
55.0285
52.1151
49.1997
46.2748
43.345
40.4002
37.4427
34.4801
31.5038
28.5216
25.5202
22.5066
19.489
16.4524
13.4064
10.3557
7.31728
4.3312
1.6855
225.733
245.029
248.515
239.069
228.949
219.484
209.79
200.229
191.222
182.85
175.095
167.934
161.31
155.159
149.448
144.122
139.125
134.407
129.933
125.69
121.642
117.757
114.014
110.396
106.894
103.489
100.165
96.9195
93.7402
90.6079
87.5225
84.4831
81.4748
78.4907
75.5304
72.5875
69.6584
66.7372
63.8166
60.9033
57.994
55.0769
52.1588
49.2388
46.3101
43.3752
40.4248
37.4647
34.4999
31.5207
28.5354
25.5299
22.5136
19.4929
16.4533
13.4045
10.3491
7.30782
4.31978
1.67393
222.138
244.396
237.826
220.129
206.174
195.738
186.933
179.282
172.558
166.496
160.934
155.773
150.925
146.33
141.971
137.806
133.806
129.949
126.219
122.61
119.102
115.68
112.336
109.063
105.852
102.693
99.581
96.5179
93.4892
90.4827
87.5046
84.5546
81.6207
78.6989
75.7893
72.8891
69.9956
67.1008
64.2031
61.31
58.4136
55.5072
52.5973
49.6821
46.758
43.8236
40.8728
37.9143
34.9509
31.9709
28.982
25.976
22.9593
19.9339
16.8916
13.8404
10.778
7.71937
4.69217
1.93653
221.646
279.116
285.689
272.575
257.394
242.532
228.556
215.831
204.327
193.903
184.475
175.922
168.115
160.963
154.392
148.308
142.654
137.382
132.444
127.796
123.396
119.214
115.223
111.4
107.721
104.161
100.709
97.3577
94.0825
90.8682
87.7153
84.6154
81.5553
78.5292
75.5311
72.5584
69.6062
66.6615
63.7259
60.8032
57.8801
54.9556
52.0317
49.1053
46.1756
43.2341
40.2796
37.3198
34.355
31.3744
28.3815
25.3779
22.3642
19.3378
16.2973
13.2493
10.1854
7.10853
4.04007
1.17246
150.324
175.783
182.049
187.893
188.773
185.78
181.365
176.46
171.309
166.122
161.075
156.193
151.484
146.971
142.647
138.475
134.455
130.581
126.841
123.213
119.682
116.243
112.883
109.597
106.376
103.204
100.082
97.0098
93.9717
90.9611
87.9798
85.0208
82.0791
79.1536
76.2371
73.3317
70.435
67.533
64.6331
61.7373
58.8309
55.9206
53.0046
50.0814
47.1526
44.2053
41.2465
38.2804
35.3067
32.3182
29.3117
26.2973
23.2726
20.2319
17.1785
14.1177
11.0364
7.92022
4.75276
1.45615
592.092
384.976
296.853
266.291
245.905
228.817
215.076
203.652
193.62
184.633
176.561
169.208
162.447
156.219
150.451
145.058
140.001
135.245
130.754
126.484
122.404
118.499
114.738
111.109
107.598
104.177
100.843
97.59
94.3989
91.2606
88.1704
85.1165
82.0951
79.1035
76.1303
73.1772
70.2407
67.3045
64.3775
61.4581
58.5305
55.6049
52.6758
49.7419
46.8052
43.8504
40.8912
37.9269
34.9557
31.9732
28.9703
25.9605
22.941
19.9048
16.8565
13.8001
10.7206
7.59024
4.3684
0.403391
591.775
384.413
296.347
266.156
246.061
228.991
215.139
203.645
193.587
184.548
176.431
169.084
162.336
156.11
150.332
144.955
139.935
135.196
130.699
126.431
122.369
118.467
114.695
111.057
107.538
104.108
100.762
97.4986
94.2987
91.1517
88.0546
84.997
81.971
78.975
76.0042
73.0518
70.1101
67.1748
64.2482
61.3271
58.4059
55.4839
52.5613
49.6333
46.692
43.7428
40.7884
37.8282
34.8558
31.8622
28.8665
25.856
22.8349
19.8096
16.7637
13.6972
10.6099
7.49861
4.30198
0.356099
150.027
175.394
181.558
187.581
188.677
185.745
181.335
176.443
171.314
166.111
161.04
156.171
151.479
146.967
142.631
138.475
134.485
130.621
126.875
123.251
119.734
116.296
112.926
109.635
106.409
103.228
100.097
97.016
93.9683
90.9496
87.9604
84.993
82.0433
79.1102
76.1895
73.2775
70.3681
67.4577
64.5513
61.6462
58.7355
55.8218
52.9049
49.9801
47.0423
44.0934
41.1381
38.1767
35.201
32.2077
29.2088
26.194
23.1694
20.1382
17.0886
14.0201
10.9345
7.83689
4.69457
1.42364
221.465
278.988
285.364
272.14
257.064
242.339
228.459
215.767
204.277
193.848
184.399
175.832
168.016
160.848
154.253
148.169
142.526
137.254
132.314
127.67
123.279
119.098
115.104
111.287
107.612
104.052
100.606
97.2592
93.9862
90.7802
87.6349
84.5374
81.4813
78.4608
75.4668
72.4958
69.5402
66.593
63.6595
60.7342
57.807
54.8833
51.9598
49.0308
46.095
43.1484
40.1977
37.2429
34.2736
31.2925
28.3016
25.2967
22.2831
19.2586
16.2206
13.1672
10.1016
7.03812
3.99265
1.14896
221.998
244.386
237.673
219.863
205.91
195.551
186.806
179.197
172.521
166.487
160.945
155.803
150.969
146.385
142.019
137.847
133.839
129.978
126.253
122.643
119.13
115.701
112.356
109.092
105.884
102.724
99.6198
96.5595
93.528
90.528
87.5556
84.601
81.6648
78.7439
75.8309
72.9269
70.0275
67.1275
64.2336
61.3391
58.4352
55.5313
52.6216
49.7012
46.7739
43.8329
40.8863
37.9332
34.9636
31.9833
28.9876
25.9817
22.9655
19.9323
16.8911
13.8372
10.7745
7.72137
4.71209
1.96509
225.613
245.089
248.478
238.888
228.69
219.277
209.665
200.195
191.272
182.952
175.23
168.075
161.438
155.274
149.527
144.148
139.098
134.348
129.862
125.594
121.516
117.611
113.862
110.252
106.749
103.343
100.032
96.7934
93.6144
90.4952
87.4235
84.3852
81.381
78.4059
75.4488
72.5084
69.5802
66.6593
63.75
60.8419
57.9283
55.0188
52.1041
49.1797
46.2516
43.3124
40.3696
37.4195
34.4534
31.4779
28.4847
25.4868
22.4771
19.4471
16.4129
13.3679
10.3176
7.28124
4.31244
1.6766
225.632
245.104
248.485
238.901
228.704
219.263
209.652
200.168
191.226
182.92
175.217
168.068
161.441
155.296
149.561
144.19
139.149
134.408
129.929
125.663
121.59
117.692
113.947
110.334
106.831
103.427
100.113
96.8685
93.6861
90.5668
87.4929
84.4509
81.4434
78.4657
75.5066
72.5633
69.6318
66.7107
63.8007
60.8896
57.9754
55.0656
52.1492
49.223
46.2925
43.3526
40.41
37.4575
34.4886
31.5113
28.5163
25.5173
22.5052
19.4731
16.4362
13.3885
10.3374
7.29842
4.32862
1.69626
222.056
244.444
237.724
219.965
206.063
195.7
186.979
179.337
172.596
166.556
161.008
155.829
150.968
146.38
142.003
137.818
133.804
129.941
126.213
122.593
119.075
115.65
112.304
109.026
105.809
102.65
99.5409
96.4669
93.4325
90.4397
87.4715
84.5189
81.5873
78.6731
75.7682
72.8694
69.9743
67.0857
64.2005
61.3073
58.4098
55.5115
52.603
49.6831
46.7543
43.8169
40.8747
37.9185
34.9449
31.9639
28.9676
25.9634
22.9453
19.9108
16.8689
13.8139
10.7539
7.69937
4.68971
1.95226
221.555
279.124
285.415
272.179
257.148
242.479
228.632
215.922
204.412
194.015
184.577
175.99
168.161
160.992
154.389
148.299
142.65
137.378
132.436
127.781
123.38
119.197
115.201
111.367
107.675
104.115
100.661
97.2934
94.0117
90.8083
87.6613
84.5606
81.5046
78.4848
75.4933
72.5224
69.5672
66.6316
63.7061
60.7803
57.8607
54.9432
52.0215
49.0943
46.1596
43.2223
40.2806
37.3253
34.3538
31.3756
28.3872
25.3861
22.3712
19.3445
16.3074
13.2535
10.1909
7.12426
4.07153
1.2172
150.116
175.507
181.782
187.776
188.841
185.974
181.564
176.574
171.389
166.207
161.109
156.188
151.472
146.944
142.595
138.435
134.433
130.565
126.818
123.187
119.661
116.222
112.862
109.569
106.337
103.167
100.045
96.9576
93.912
90.9038
87.9203
84.9594
82.0189
79.0924
76.1792
73.2717
70.367
67.4732
64.5784
61.6768
58.7786
55.8737
52.9614
50.0407
47.1077
44.1731
41.2275
38.2664
35.2888
32.301
29.3069
26.296
23.2703
20.2353
17.1874
14.1194
11.0374
7.93574
4.78195
1.49662
591.989
384.452
296.57
266.329
246.188
229.214
215.379
203.769
193.667
184.678
176.542
169.157
162.412
156.185
150.403
145.027
139.988
135.239
130.738
126.466
122.394
118.487
114.732
111.104
107.584
104.169
100.839
97.5753
94.3785
91.2389
88.1442
85.0917
82.0731
79.0794
76.1108
73.1568
70.2131
67.288
64.3661
61.4436
58.5305
55.6117
52.6894
49.7614
46.8227
43.8868
40.9379
37.9754
34.9994
32.0121
29.0225
26.016
22.9947
19.9653
16.9223
13.8581
10.7757
7.66017
4.44869
0.487061
)
;

boundaryField
{
    wall
    {
        type            fixedFluxPressure;
        gradient        nonuniform List<scalar> 
1200
(
112.006
41.0068
35.4522
25.9596
23.7653
20.2767
16.5865
18.0579
42.0066
19.97
78.3145
55.9861
49.1696
-4.48691
-12.9235
-15.2737
-9.66406
-2.2295
55.4312
105.56
107
77.7932
94.9189
11.5075
5.7988
5.56825
20.412
54.1748
53.6132
57.3812
20.7433
37.6255
108.674
34.8144
41.4707
33.2024
32.7716
79.2418
23.4769
-7.26816
-57.8082
-6.17492
86.0989
36.9174
64.5738
48.5688
22.3049
49.4305
-13.3383
-56.6628
-44.6625
-3.78163
64.0486
17.499
55.1621
44.4336
7.81408
10.6481
-38.7253
-80.0622
-13.6651
5.11541
47.6593
9.33686
44.9731
27.8841
-9.16109
-15.3519
-39.9716
-61.3316
-14.8595
-1.81128
26.8877
-0.446615
28.693
12.5166
-11.0525
-18.3929
-22.8948
-24.1955
-13.5165
-4.16389
7.30961
-14.6836
7.00322
-0.504583
-7.48847
-17.463
-16.0676
-9.89566
8.49828
10.9323
6.19034
-14.5912
-4.66884
-13.6888
-11.9576
-22.8308
-17.2145
-9.41495
11.5393
16.4286
5.62906
-13.3733
-13.646
-24.245
-14.776
-20.8447
-7.1416
3.64954
-0.760054
10.2721
-2.88698
-17.1433
-20.2737
-26.7135
-11.0534
-14.0515
0.852718
10.035
-5.1839
8.29019
-8.65108
-18.267
-22.4708
-26.1686
-8.53909
-9.55239
2.34361
6.78058
-6.86184
10.2332
-7.70537
-14.9022
-23.0688
-27.6517
-9.92706
-6.03431
5.38219
6.85018
-5.88275
14.3727
-3.89043
-9.61319
-19.4173
-23.0118
-6.40883
0.516404
10.3542
9.64841
-8.34418
14.1228
-3.52977
-5.46673
-12.6125
-14.0409
-2.32759
1.82393
8.21287
6.42652
-17.9192
9.12047
-4.036
-0.353091
-4.64991
-5.20944
0.424453
0.732334
4.53642
2.71685
-21.7909
8.99066
-0.86817
4.65641
-0.181495
-0.594828
1.53876
0.896058
3.44551
1.30326
-19.7333
11.5814
1.79574
6.57585
0.281456
0.459526
1.07598
1.55044
4.72986
3.19469
-20.3705
10.3517
1.28003
8.01501
3.2192
4.95871
3.31311
2.91535
5.29425
3.68318
-25.4973
5.71886
-0.188008
10.6051
7.90715
10.2208
5.4086
3.12946
4.21558
2.29488
-27.4551
4.36189
1.47364
14.6694
11.7036
12.9095
5.77806
3.20832
4.27424
2.49461
-22.5823
7.03491
3.35608
16.0482
12.1356
13.3947
6.24447
4.20393
4.24459
1.28938
-20.5019
5.75469
0.0413519
12.1768
8.85816
12.3714
7.21364
6.48938
5.51691
1.23674
-21.8811
2.83
-2.51375
10.3657
7.74889
12.6109
8.61516
9.00333
7.76622
2.8873
-18.8461
4.36872
-0.987172
11.3518
7.89684
12.418
8.45011
9.10155
7.31183
1.65884
-14.7608
5.58881
-1.77877
8.6793
4.78836
10.3707
7.95311
9.56791
7.41214
0.86457
-13.8532
4.09584
-4.51478
5.00252
2.24655
10.3319
10.1912
12.8564
10.4311
2.94878
-12.5036
4.18352
-4.44685
4.27781
1.94272
10.9642
11.3925
14.2014
11.9351
4.04666
-10.0984
5.54769
-3.38675
3.35497
-0.0750442
8.36772
8.66575
12.0739
11.463
4.28134
-8.85814
5.93957
-3.1541
1.71952
-2.334
6.04601
6.71929
10.9341
11.9497
5.20022
-7.53252
6.64795
-2.16984
1.53649
-2.20625
6.56527
7.2738
11.1172
12.3219
4.89174
-5.53783
7.89095
-0.96985
1.24755
-2.39648
6.39031
6.84546
10.3171
12.1119
4.35587
-4.6488
8.43117
-0.183813
0.494844
-3.30538
5.07773
5.34502
9.0742
12.3037
4.78502
-5.24084
8.32571
0.93636
0.75123
-2.83737
4.81232
4.39761
7.7698
11.6704
3.87096
-6.20826
7.65809
1.40922
0.586305
-2.28503
4.88154
4.09726
7.4084
12.0941
4.0795
-5.85845
7.85692
2.38122
0.89261
-1.27348
5.35165
4.41496
8.03109
13.7272
5.56702
-4.22695
9.60533
5.04174
2.73543
0.44825
5.31089
3.15537
6.18278
12.0964
3.37424
-3.56894
10.0423
5.81
2.34965
-0.194594
3.17455
0.641174
4.1255
11.1017
2.39552
-3.73515
9.5109
5.65359
1.67958
-0.176881
2.72005
0.625428
4.74243
12.2715
3.0597
-3.6352
9.94666
7.2948
3.39671
2.07387
3.7051
0.817539
4.03586
10.6542
0.154421
-3.9268
9.68628
7.60145
3.1582
1.86051
2.20858
-0.847143
2.58293
9.59539
-1.14826
-5.44442
8.23122
6.96402
2.63071
2.13242
1.86978
-1.13501
2.129
8.87862
-2.49265
-6.86644
7.03529
6.95072
3.28803
3.95013
3.09719
-0.23787
2.26594
8.3714
-3.66972
-5.56195
7.68137
7.42518
3.31821
4.59099
3.47205
0.680595
3.25812
9.23038
-3.257
-4.27193
9.16166
9.47223
5.09549
6.51565
4.47902
1.28038
2.41817
6.70216
-7.05417
-4.33529
9.25385
9.91077
5.00258
6.14604
2.92079
-0.460644
-0.147531
4.07751
-9.13602
-5.97595
7.49899
8.32574
3.12317
4.67747
1.38623
-0.947571
-1.07378
3.06749
-9.53799
-6.93923
7.01339
8.57459
3.32012
5.39734
2.21912
1.08257
0.269999
3.83892
-8.58234
-3.9188
8.79288
9.11806
2.90289
5.2513
1.8192
1.28546
-0.223197
3.69183
-7.59927
-4.63607
8.03555
9.06296
3.80102
7.49058
3.81159
2.78145
-1.13619
1.20141
-10.3072
-4.04516
8.96269
10.0971
3.82391
6.79746
2.48559
2.44391
-1.64009
0.465019
-10.991
-4.06608
8.78701
9.79105
2.98062
6.01588
1.64183
2.71837
-1.38893
0.656262
-10.6209
-7.31204
6.31144
9.13165
4.02324
8.53845
3.97253
4.58165
-1.348
-0.519855
-12.0235
-7.18217
6.37149
9.14983
3.47796
8.09469
3.43858
4.52081
-2.01774
-1.63504
-13.1233
-4.36653
8.73214
10.6383
3.62553
7.89902
3.22716
5.33331
-0.821869
-0.216408
-11.5849
-0.58541
11.8071
12.7134
4.40086
7.8318
2.39489
4.87942
-1.07973
-0.0715112
-11.0243
-2.59568
10.0297
11.5289
3.53213
7.43777
1.93984
4.10358
-3.12741
-3.02301
-14.0466
-4.00043
8.42919
9.56548
0.619335
3.97733
-1.71049
0.619154
-6.27691
-5.78659
-16.1554
-0.519519
9.84239
9.91356
0.325175
1.98715
-4.43728
-3.05747
-8.97285
-8.12023
-16.9336
-112.006
-41.0069
-35.4522
-25.9596
-23.7653
-20.2767
-16.5865
-18.0579
-42.0065
-19.97
-78.3252
-55.9833
-49.1681
4.48853
12.9253
15.2752
9.66481
2.22969
-55.428
-105.573
-107.016
-77.7828
-94.9182
-11.5058
-5.79695
-5.56718
-20.4125
-54.1816
-53.6012
-57.4002
-20.7134
-37.6097
-108.681
-34.821
-41.4787
-33.2104
-32.7764
-79.2652
-23.4581
7.29557
57.8918
6.19678
-86.1088
-36.931
-64.5933
-48.5867
-22.3094
-49.4604
13.3615
56.7218
44.7575
3.80642
-64.0543
-17.5113
-55.1879
-44.4591
-7.81755
-10.673
38.7504
80.1252
13.7391
-5.09174
-47.6572
-9.34257
-44.9974
-27.9105
9.16044
15.3326
39.9947
61.3748
14.9067
1.83349
-26.8781
0.447015
-28.7111
-12.5375
11.0554
18.3753
22.9139
24.2045
13.5407
4.18354
-7.2948
14.6904
-7.01125
0.491044
7.49271
17.4431
16.0826
9.87161
-8.49529
-10.9163
-6.17247
14.6035
4.67103
13.6825
11.9628
22.8066
17.2256
9.36753
-11.5505
-16.4157
-5.6102
13.3885
13.6562
24.2451
14.783
20.8156
7.14831
-3.71395
0.745781
-10.2607
2.90579
17.16
20.2897
26.7176
11.0619
14.0172
-0.849937
-10.1105
5.17244
-8.27905
8.66965
18.284
22.4899
26.1741
8.54879
9.5131
-2.34341
-6.85901
6.85626
-10.2216
7.72333
14.9182
23.0886
27.6569
9.93787
5.99134
-5.38369
-6.92707
5.88624
-14.3601
3.90739
9.62719
19.436
23.0152
6.42022
-0.56123
-10.3567
-9.72212
8.35846
-14.1087
3.54587
5.47846
12.6287
14.041
2.33869
-1.86889
-8.21534
-6.4954
17.9457
-9.10436
4.05142
0.362368
4.66243
5.20535
-0.414057
-0.776097
-4.53796
-2.77988
21.8293
-8.97245
0.882748
-4.64969
0.190296
0.586819
-1.5292
-0.93815
-3.44601
-1.36034
19.7807
-11.5614
-1.78194
-6.57136
-0.275865
-0.470728
-1.0673
-1.59084
-4.7295
-3.24593
20.4235
-10.3301
-1.26659
-8.01221
-3.21641
-4.97255
-3.30543
-2.95413
-5.29315
-3.72856
25.5537
-5.69563
0.201425
-10.6036
-7.9069
-10.2369
-5.4021
-3.16679
-4.21377
-2.33395
27.5123
-4.33735
-1.46022
-14.6689
-11.7053
-12.927
-5.77273
-3.24449
-4.27189
-2.52727
22.6366
-7.00967
-3.34267
-16.0481
-12.1384
-13.4128
-6.24032
-4.23938
-4.24197
-1.31569
20.55
-5.72923
-0.0277675
-12.1763
-8.86118
-12.3895
-7.21075
-6.52454
-5.51423
-1.25679
21.9215
-2.8046
2.52758
-10.3642
-7.75154
-12.6285
-8.61352
-9.03836
-7.76365
-2.90192
18.8776
-4.34377
1.00102
-11.3493
-7.89882
-12.4348
-8.44951
-9.13644
-7.30941
-1.66892
14.7816
-5.56465
1.79249
-8.67553
-4.78935
-10.3864
-7.95333
-9.60257
-7.40986
-0.870931
13.8625
-4.07264
4.52832
-4.99735
-2.24634
-10.3464
-10.192
-12.8908
-10.429
-2.95269
12.5017
-4.16139
4.46
-4.27135
-1.94138
-10.9775
-11.3938
-14.2352
-11.9332
-4.04938
10.0857
-5.52676
3.39922
-3.34749
0.077408
-8.3798
-8.66694
-12.1067
-11.4611
-4.28394
8.83537
-5.91989
3.16571
-1.71124
2.33728
-6.0568
-6.72013
-10.9658
-11.9479
-5.20356
7.50059
-6.62948
2.18046
-1.52763
2.21022
-6.57493
-7.27416
-11.1475
-12.32
-4.89607
5.49763
-7.87363
0.979406
-1.23837
2.40089
-6.399
-6.84524
-10.346
-12.1098
-4.3611
4.60141
-8.41494
0.192251
-0.485573
3.31005
-5.08555
-5.34407
-9.10145
-12.3014
-4.79122
5.18752
-8.31043
-0.929076
-0.742132
2.84207
-4.8194
-4.39586
-7.79542
-11.6677
-3.87795
6.15
-7.64364
-1.40307
-0.577614
2.28958
-4.88805
-4.0947
-7.43239
-12.091
-4.08683
5.79583
-7.84323
-2.37616
-0.884485
1.27776
-5.35771
-4.41163
-8.05347
-13.7236
-5.57429
4.16049
-9.59235
-5.03774
-2.72801
-0.44433
-5.3166
-3.15133
-6.20361
-12.0923
-3.38075
3.49924
-10.03
-5.80704
-2.34303
0.198114
-3.17998
-0.63646
-4.14485
-11.097
-2.40042
3.66274
-9.4992
-5.65154
-1.67375
0.180001
-2.72528
-0.620176
-4.76045
-12.2661
-3.06243
3.56051
-9.93551
-7.29359
-3.39173
-2.07121
-3.71028
-0.811932
-4.05272
-10.6481
-0.154048
3.85023
-9.67564
-7.601
-3.15409
-1.85831
-2.21376
0.852994
-2.59875
-9.58846
1.15253
5.36618
-8.22105
-6.96421
-2.6274
-2.13065
-1.87501
1.14099
-2.14392
-8.87085
2.50113
6.78654
-7.02556
-6.95146
-3.2855
-3.94879
-3.10255
0.243821
-2.28011
-8.36272
3.6829
5.48012
-7.67209
-7.4264
-3.31639
-4.59001
-3.47755
-0.674785
-3.27168
-9.22077
3.27508
4.18797
-9.1529
-9.47387
-5.09431
-6.51493
-4.48465
-1.2748
-2.43124
-6.69159
7.07732
4.24932
-9.24564
-9.91278
-5.00198
-6.1455
-2.92653
0.465946
0.134918
-4.06589
9.16427
5.88789
-7.49131
-8.32804
-3.12306
-4.67697
-1.39204
0.952547
1.06159
-3.05485
9.57064
6.84874
-7.00624
-8.57712
-3.3204
-5.39679
-2.22501
-1.07803
-0.281856
-3.82526
8.61891
3.82535
-8.78632
-9.12075
-2.90351
-5.25062
-1.82519
-1.28139
0.211617
-3.67716
7.63928
4.53957
-8.02957
-9.06572
-3.80194
-7.48974
-3.81767
-2.77785
1.12487
-1.18573
10.3505
3.9459
-8.95729
-10.1
-3.82511
-6.79638
-2.49174
-2.44075
1.62896
-0.448377
11.0375
3.96396
-8.78225
-9.79395
-2.98206
-6.01444
-1.64795
-2.71559
1.37793
-0.638783
10.6704
7.20713
-6.30725
-9.13457
-4.0249
-8.53663
-3.97862
-4.5792
1.3371
0.53811
12.0756
7.07401
-6.3679
-9.15272
-3.47981
-8.09246
-3.44464
-4.51861
2.00692
1.654
13.1774
4.2543
-8.72925
-10.6412
-3.62751
-7.89623
-3.23306
-5.33125
0.811087
0.23594
11.6404
0.468894
-11.8049
-12.7162
-4.40295
-7.82842
-2.40059
-4.87739
1.06899
0.0914887
11.0801
2.47534
-10.0283
-11.5316
-3.53432
-7.43376
-1.94533
-4.10146
3.11673
3.04341
14.1021
3.87651
-8.42839
-9.56803
-0.621603
-3.97268
1.70524
-0.616845
6.26629
5.80735
16.2102
0.39166
-9.84225
-9.91596
-0.327526
-1.98181
4.4323
3.0601
8.9623
8.14128
16.9867
)
;
        value           nonuniform List<scalar> 
1200
(
592.616
150.334
221.73
222.192
225.791
225.784
222.18
221.691
150.43
592.14
384.999
175.813
279.358
244.353
244.992
244.99
244.372
279.109
175.922
385.242
297.147
182.141
286.076
237.76
248.523
248.527
237.877
285.823
182.184
296.998
266.31
187.863
272.955
220.124
239.2
239.151
220.211
272.773
187.952
266.273
245.628
188.631
257.709
206.186
229.175
229.069
206.23
257.519
188.74
245.763
228.657
185.717
242.819
195.682
219.69
219.596
195.758
242.558
185.683
228.615
215.037
181.373
228.815
186.875
210.002
209.86
186.91
228.518
181.264
214.92
203.534
176.43
215.968
179.192
200.409
200.262
179.254
215.785
176.402
203.589
193.486
171.283
204.331
172.411
191.324
191.222
172.54
204.282
171.269
193.594
184.612
166.193
193.894
166.377
182.916
182.816
166.467
193.845
166.078
184.609
176.517
161.164
184.441
160.844
175.127
175.035
160.897
184.422
161.056
176.57
169.078
156.247
175.81
155.674
167.923
167.868
155.746
175.885
156.195
169.233
162.297
151.541
167.951
150.832
161.269
161.245
150.904
168.09
151.49
162.464
156.058
147.044
160.79
146.274
155.102
155.089
146.305
160.947
146.985
156.237
150.287
142.738
154.224
141.947
149.382
149.389
141.955
154.393
142.673
150.476
144.891
138.58
148.143
137.806
144.055
144.086
137.8
148.313
138.496
145.075
139.8
134.553
142.495
133.837
139.064
139.111
133.807
142.656
134.466
140.009
135.032
130.688
137.247
130.013
134.347
134.404
129.953
137.385
130.59
135.248
130.551
126.962
132.327
126.302
129.865
129.933
126.221
132.448
126.853
130.762
126.278
123.328
127.68
122.703
125.618
125.701
122.618
127.803
123.227
126.493
122.178
119.776
123.278
119.209
121.576
121.667
119.116
123.404
119.693
122.411
118.261
116.329
119.108
115.81
117.699
117.789
115.694
119.221
116.254
118.506
114.526
112.979
115.129
112.476
113.953
114.047
112.351
115.233
112.894
114.742
110.903
109.678
111.287
109.183
110.318
110.427
109.08
111.416
109.611
111.113
107.375
106.43
107.593
105.962
106.807
106.925
105.873
107.743
106.396
107.605
103.968
103.261
104.044
102.809
103.402
103.52
102.714
104.183
103.222
104.182
100.652
100.139
100.593
99.6844
100.067
100.191
99.6007
100.733
100.1
100.845
97.3954
97.0468
97.2254
96.5967
96.8099
96.9457
96.5433
97.3898
97.0359
97.5975
94.2056
93.9999
93.953
93.5598
93.6286
93.768
93.5178
94.1181
94.0015
94.4089
91.0767
90.9914
90.755
90.5529
90.4944
90.6292
90.5045
90.8987
90.9898
91.2712
87.9888
88.0051
87.6116
87.5683
87.4058
87.538
87.5216
87.743
88.0098
88.1833
84.9411
85.0431
84.5215
84.6124
84.3685
84.4999
84.5732
84.6437
85.0517
85.1286
81.9301
82.1026
81.4744
81.6741
81.363
81.4911
81.6383
81.5816
82.1096
82.1059
78.9407
79.1736
78.4598
78.7477
78.3811
78.5037
78.7128
78.5524
79.1846
79.1154
75.9654
76.2521
75.4742
75.8367
75.4276
75.5426
75.8008
75.5512
76.2666
76.1399
73.0058
73.335
72.5068
72.9315
72.4914
72.5998
72.8998
72.5775
73.3622
73.1874
70.0666
70.4272
69.5585
70.0345
69.5708
69.6719
70.0072
69.627
70.4697
70.2548
67.1436
67.5298
66.6312
67.1483
66.6628
66.7505
67.1092
66.6775
67.5637
67.3132
64.2219
64.6267
63.7034
64.2516
63.7487
63.8245
64.2051
63.7367
64.6613
64.3838
61.2995
61.7176
60.7769
61.352
60.8407
60.9101
61.3118
60.8156
61.7685
61.4662
58.379
58.8102
57.862
58.4611
57.944
58.0032
58.4159
57.8907
58.8581
58.5313
55.4548
55.8946
54.9405
55.5553
55.0329
55.0823
55.5052
54.9624
55.9452
55.6026
52.5209
52.9668
52.0122
52.6417
52.1202
52.1633
52.5945
52.0373
53.0275
52.6702
49.5823
50.033
49.0831
49.7262
49.2094
49.2464
49.6815
49.1112
50.103
49.7333
46.6507
47.1001
46.1509
46.7991
46.2861
46.3186
46.7596
46.1839
47.1765
46.7977
43.7113
44.1623
43.2196
43.8714
43.3612
43.3863
43.8267
43.2403
44.2228
43.8334
40.7564
41.2077
40.2721
40.924
40.4156
40.432
40.8714
40.2794
41.2575
40.8689
37.7839
38.2332
37.3054
37.9568
37.4545
37.468
37.9117
37.3172
38.2889
37.9035
34.8044
35.2539
34.3379
34.9886
34.4937
34.5053
34.9533
34.3558
35.3171
34.9347
31.8334
32.2739
31.3609
32.0053
31.5171
31.525
31.9738
31.3739
32.3282
31.9547
28.8323
29.2694
28.3696
29.0162
28.5407
28.5449
28.9886
28.3787
29.3155
28.9449
25.8262
26.2615
25.3724
26.0105
25.5375
25.536
25.9819
25.3738
26.2992
25.9333
22.8049
23.2356
22.3565
22.988
22.522
22.5176
22.9658
22.3607
23.2749
22.9147
19.7554
20.1859
19.327
19.9626
19.5109
19.5028
19.9452
19.3344
20.2312
19.8749
16.7105
17.1367
16.2891
16.9172
16.4732
16.462
16.9028
16.2922
17.1749
16.8237
13.6652
14.086
13.2469
13.8645
13.4268
13.4127
13.8538
13.2473
14.1176
13.7711
10.6061
11.0235
10.1968
10.8076
10.376
10.3552
10.7903
10.1827
11.0367
10.6929
7.47983
7.91248
7.12439
7.74794
7.33661
7.31284
7.72988
7.10074
7.91299
7.55485
4.27267
4.75814
4.06417
4.71683
4.34188
4.31567
4.69404
4.02439
4.73853
4.32763
0.352812
1.49773
1.223
1.96759
1.69116
1.66293
1.9291
1.14992
1.43586
0.360375
591.497
149.924
221.376
221.933
225.553
225.581
222.014
221.51
150.01
591.941
384.215
175.253
278.866
244.398
245.122
245.143
244.468
279.131
175.368
384.186
296.076
181.363
285.127
237.645
248.465
248.472
237.673
285.282
181.647
296.424
266.102
187.486
271.868
219.776
238.785
238.819
219.883
271.981
187.717
266.346
246.207
188.692
256.848
205.817
228.529
228.584
206.007
257.024
188.874
246.33
229.105
185.755
242.178
195.507
219.139
219.151
195.68
242.452
186.071
229.417
215.175
181.322
228.338
186.781
209.551
209.581
187.002
228.671
181.664
215.534
203.683
176.448
215.699
179.196
200.121
200.136
179.365
215.969
176.632
203.832
193.622
171.325
204.258
172.557
191.253
191.226
172.615
204.457
171.43
193.694
184.527
166.084
193.832
166.523
182.962
182.953
166.586
194.073
166.25
184.703
176.402
160.999
184.385
160.978
175.263
175.277
161.045
184.631
161.128
176.533
169.085
156.145
175.839
155.845
168.125
168.135
155.857
176.026
156.186
169.132
162.348
151.458
168.038
151.015
161.494
161.506
150.989
168.186
151.467
162.395
156.126
146.941
160.867
146.423
155.332
155.366
146.405
161.008
146.931
156.168
150.345
142.594
154.263
142.043
149.576
149.619
142.019
154.388
142.569
150.379
144.974
138.439
148.178
137.861
144.181
144.226
137.823
148.294
138.414
145.01
139.979
134.461
142.536
133.841
139.111
139.164
133.803
142.648
134.421
139.981
135.25
130.598
137.256
129.967
134.349
134.41
129.938
137.375
130.556
135.235
130.748
126.845
132.309
126.237
129.862
129.929
126.21
132.432
126.806
130.73
126.482
123.224
127.667
122.623
125.586
125.652
122.585
127.774
123.174
126.456
122.433
119.719
123.279
119.103
121.497
121.565
119.062
123.372
119.651
122.387
118.537
116.285
119.094
115.664
117.582
117.66
115.636
119.189
116.211
118.48
114.752
112.908
115.095
112.315
113.831
113.914
112.289
115.191
112.851
114.728
111.109
109.62
111.287
109.061
110.229
110.303
109.008
111.351
109.556
111.1
107.594
106.402
107.618
105.858
106.73
106.799
105.787
107.653
106.318
107.576
104.157
103.217
104.054
102.695
103.323
103.396
102.629
104.092
103.149
104.165
100.8
100.083
100.611
99.5974
100.019
100.087
99.5213
100.637
100.026
100.837
97.5344
97.006
97.2706
96.5464
96.7873
96.8422
96.4414
97.2612
96.9315
97.5679
94.3311
93.9582
93.9976
93.5168
93.609
93.6582
93.4039
93.976
93.8822
94.3684
91.178
90.9361
90.789
90.5192
90.4949
90.5454
90.4178
90.7778
90.8751
91.2283
88.0777
87.9459
87.6433
87.551
87.429
87.4774
87.4544
87.6335
87.8903
88.1313
85.0166
84.9767
84.5433
84.597
84.3905
84.4341
84.5004
84.5323
84.9284
85.0796
81.9855
82.0238
81.4843
81.6616
81.3869
81.4271
81.5697
81.4782
81.9884
82.0623
78.9871
79.0894
78.4618
78.7427
78.4142
78.4528
78.6592
78.4614
79.0615
79.0675
76.0177
76.1689
75.4651
75.8292
75.4559
75.4944
75.7567
75.4732
76.1498
76.1012
73.0677
73.2586
72.4929
72.9257
72.5143
72.5509
72.8587
72.5031
73.2412
73.1466
70.125
70.3487
69.5349
70.0257
69.5835
69.6183
69.9628
69.5464
70.3323
70.1991
67.1856
67.4339
66.581
67.1211
66.6584
66.6973
67.0774
66.6154
67.4426
67.2794
64.2573
64.5263
63.6455
64.2282
63.7507
63.7928
64.1985
63.6952
64.5502
64.3598
61.3365
61.6226
60.7206
61.3354
60.8426
60.8829
61.3054
60.7679
61.6456
61.4355
58.415
58.7108
57.7892
58.4273
57.9234
57.9662
58.4075
57.8501
58.7514
58.5297
55.4937
55.7978
54.8647
55.5239
55.0144
55.0602
55.5135
54.9364
55.8491
55.614
52.5749
52.8845
51.9428
52.6155
52.099
52.1446
52.6058
52.0158
52.9385
52.695
49.6505
49.9627
49.0137
49.6935
49.17
49.2154
49.6837
49.0884
50.0191
49.77
46.7059
47.0234
46.0768
46.7661
46.2403
46.284
46.7528
46.1512
47.0839
46.8302
43.7535
44.0707
43.125
43.8206
43.2961
43.3415
43.8138
43.216
44.1555
43.9039
40.7993
41.1152
40.1731
40.8741
40.3542
40.4028
40.876
40.2808
41.2165
40.9603
37.8432
38.1583
37.2223
37.9257
37.4077
37.4542
37.9212
37.3279
38.258
37.9989
34.8733
35.1838
34.2523
34.9555
34.4397
34.4832
34.9425
34.353
35.2784
35.0206
31.8721
32.1861
31.2698
31.9764
31.4646
31.5069
31.961
31.376
32.291
32.0308
28.8781
29.1891
28.2791
28.9783
28.4657
28.5068
28.9609
28.39
29.3032
29.0481
25.8662
26.172
25.2715
25.9723
25.4694
25.5112
25.9576
25.3902
26.2942
26.0433
22.845
23.1478
22.2586
22.9583
22.4617
22.5012
22.9388
22.3746
23.268
23.0211
19.828
20.123
19.2357
19.9224
19.4253
19.4631
19.8995
19.3479
20.2361
19.9954
16.7818
17.0732
16.1976
16.8825
16.3921
16.4276
16.8577
16.3125
17.191
16.9552
13.7083
13.9988
13.1405
13.8283
13.3475
13.3804
13.8005
13.2555
14.1196
13.8872
10.6114
10.9056
10.0697
10.7637
10.2974
10.3313
10.7416
10.1935
11.0372
10.8035
7.50517
7.81237
7.00912
7.71266
7.26192
7.29339
7.68886
7.13203
7.94302
7.69569
4.31205
4.67405
3.96851
4.71069
4.30177
4.33271
4.68784
4.08718
4.79623
4.4896
0.357321
1.39948
1.12381
1.96437
1.67096
1.70725
1.95969
1.23971