/*--------------------------------*- C++ -*----------------------------------*\
  =========                 |
  \\      /  F ield         | OpenFOAM: The Open Source CFD Toolbox
   \\    /   O peration     | Website:  https://openfoam.org
    \\  /    A nd           | Version:  8
     \\/     M anipulation  |
\*---------------------------------------------------------------------------*/
FoamFile
{
    version     2.0;
    format      ascii;
    class       volVectorField;
    location    "300";
    object      U;
}
// * * * * * * * * * * * * * * * * * * * * * * * * * * * * * * * * * * * * * //

dimensions      [0 1 -1 0 0 0 0];

internalField   nonuniform List<vector> 
1200
(
(4.00456 -0.295046 0.00231115)
(4.02906 -0.228017 0.00356619)
(4.03228 -0.190716 0.00496726)
(4.02779 -0.165039 0.0051961)
(4.02222 -0.146203 0.00439828)
(4.01634 -0.131888 0.00374477)
(4.01024 -0.120583 0.00347304)
(4.0041 -0.11141 0.00318908)
(3.99801 -0.103834 0.00292674)
(3.99199 -0.0974954 0.00294579)
(3.98608 -0.0921535 0.00301057)
(3.98027 -0.0876306 0.00292854)
(3.97454 -0.0837844 0.00279804)
(3.9689 -0.0805053 0.00265391)
(3.96335 -0.0777033 0.00252917)
(3.95789 -0.0753051 0.00237991)
(3.95251 -0.0732529 0.00211597)
(3.94722 -0.0714948 0.00180868)
(3.942 -0.069985 0.00153235)
(3.93686 -0.0686866 0.00125212)
(3.93179 -0.0675702 0.000910403)
(3.92679 -0.0666095 0.000546879)
(3.92185 -0.0657793 0.00024776)
(3.91699 -0.0650601 -2.31739e-05)
(3.91219 -0.0644371 -0.00031039)
(3.90744 -0.063896 -0.00055778)
(3.90276 -0.0634234 -0.000752133)
(3.89814 -0.0630092 -0.000934283)
(3.89356 -0.0626454 -0.00109862)
(3.88904 -0.0623242 -0.00123159)
(3.88458 -0.0620392 -0.00134818)
(3.88016 -0.0617848 -0.00144732)
(3.87579 -0.0615559 -0.00152038)
(3.87147 -0.0613488 -0.00158158)
(3.86719 -0.0611606 -0.00165002)
(3.86295 -0.0609878 -0.00173062)
(3.85876 -0.060827 -0.0018063)
(3.85461 -0.0606758 -0.0018604)
(3.85049 -0.0605322 -0.00190558)
(3.84642 -0.0603945 -0.00195261)
(3.84238 -0.0602622 -0.00199796)
(3.83838 -0.0601338 -0.00204681)
(3.83442 -0.0600088 -0.00211518)
(3.83049 -0.0598866 -0.00220184)
(3.82659 -0.0597659 -0.0022713)
(3.82272 -0.0596467 -0.00232363)
(3.81889 -0.0595285 -0.00237666)
(3.81509 -0.059411 -0.00245114)
(3.81131 -0.0592944 -0.00253817)
(3.80756 -0.059177 -0.00258565)
(3.80384 -0.0590596 -0.00264246)
(3.80015 -0.0589423 -0.00269155)
(3.79649 -0.0588246 -0.00274099)
(3.79285 -0.0587074 -0.00283322)
(3.78923 -0.05859 -0.00292389)
(3.78564 -0.0584722 -0.00297749)
(3.78208 -0.0583544 -0.00298132)
(3.77855 -0.0582423 -0.00301193)
(3.77515 -0.058149 -0.00306099)
(3.77144 -0.0582723 -0.00306589)
(4.00712 0.104049 -0.000484434)
(4.00325 0.133716 -0.000256973)
(4.00189 0.134142 0.000507349)
(4.00121 0.12926 0.000906347)
(4.0016 0.123 0.000824938)
(4.00259 0.116349 0.000808864)
(4.00379 0.110035 0.000925065)
(4.00503 0.104346 0.000965035)
(4.00625 0.0993257 0.000979574)
(4.00743 0.0949348 0.00118394)
(4.00855 0.0911021 0.00145605)
(4.00959 0.0877621 0.00164856)
(4.01056 0.0848585 0.00181297)
(4.01146 0.0823322 0.00199805)
(4.0123 0.0801326 0.00223113)
(4.01309 0.0782157 0.00245754)
(4.01382 0.0765383 0.00261799)
(4.01451 0.0750687 0.00277321)
(4.01515 0.0737827 0.00295744)
(4.01577 0.0726553 0.00312335)
(4.01634 0.0716618 0.00322866)
(4.01689 0.0707835 0.00331426)
(4.01741 0.070009 0.00343058)
(4.01791 0.0693257 0.0035285)
(4.01838 0.0687179 0.00358756)
(4.01884 0.0681755 0.00366351)
(4.01928 0.0676924 0.00375255)
(4.0197 0.0672598 0.00382095)
(4.02011 0.0668694 0.0038885)
(4.0205 0.0665156 0.00397121)
(4.02089 0.0661934 0.00405708)
(4.02126 0.0658982 0.00415018)
(4.02162 0.0656267 0.00425727)
(4.02198 0.0653753 0.00436972)
(4.02233 0.0651401 0.00447955)
(4.02267 0.064919 0.0045799)
(4.02301 0.0647085 0.00468164)
(4.02334 0.064507 0.00480413)
(4.02367 0.064314 0.0049311)
(4.02399 0.0641284 0.00505054)
(4.02431 0.0639479 0.00517454)
(4.02463 0.0637726 0.00529446)
(4.02495 0.0636014 0.00539543)
(4.02526 0.0634333 0.00548073)
(4.02557 0.0632694 0.00557327)
(4.02588 0.0631081 0.00568346)
(4.02619 0.0629492 0.005794)
(4.0265 0.0627926 0.00588188)
(4.0268 0.0626372 0.00596287)
(4.02711 0.0624853 0.00606521)
(4.02741 0.0623343 0.00615741)
(4.02772 0.0621844 0.00626026)
(4.02802 0.0620357 0.00636012)
(4.02832 0.0618861 0.0064284)
(4.02862 0.0617373 0.00649649)
(4.02892 0.0615895 0.00659308)
(4.02922 0.0614405 0.00672708)
(4.02954 0.061279 0.00683824)
(4.02987 0.0610773 0.00692882)
(4.03024 0.0605699 0.00703867)
(3.98981 -0.0197026 0.000808933)
(3.98183 -0.04071 0.00180124)
(3.98276 -0.0575844 0.00323903)
(3.98642 -0.067053 0.00475465)
(3.99026 -0.0718839 0.00592102)
(3.99393 -0.074388 0.00676617)
(3.99733 -0.0755494 0.00737683)
(4.00043 -0.0758973 0.0077074)
(4.00321 -0.075783 0.00778014)
(4.00572 -0.0754224 0.00783104)
(4.008 -0.0749415 0.00786986)
(4.01007 -0.0744087 0.00779937)
(4.01196 -0.0738588 0.00765572)
(4.01368 -0.073312 0.0075236)
(4.01527 -0.0727782 0.0074397)
(4.01674 -0.0722644 0.00736156)
(4.01811 -0.0717766 0.00727839)
(4.01938 -0.0713116 0.0072361)
(4.02058 -0.0708649 0.00722875)
(4.02171 -0.0704384 0.00721694)
(4.02278 -0.0700345 0.00718873)
(4.0238 -0.0696507 0.00718299)
(4.02478 -0.0692812 0.00720261)
(4.02572 -0.0689244 0.0071829)
(4.02663 -0.0685822 0.00713301)
(4.0275 -0.0682524 0.00710361)
(4.02836 -0.0679314 0.00706588)
(4.02919 -0.0676197 0.00699541)
(4.03 -0.0673176 0.00692678)
(4.03079 -0.0670233 0.00687216)
(4.03157 -0.0667364 0.00682111)
(4.03234 -0.066457 0.00678286)
(4.03311 -0.0661842 0.00675997)
(4.03386 -0.0659177 0.00674715)
(4.03461 -0.0656583 0.00674843)
(4.03536 -0.0654058 0.00675578)
(4.0361 -0.0651573 0.00677526)
(4.03684 -0.0649129 0.00682776)
(4.03758 -0.0646717 0.00688979)
(4.03831 -0.064434 0.00694988)
(4.03905 -0.064201 0.00703026)
(4.03979 -0.0639714 0.00711443)
(4.04053 -0.0637459 0.00719067)
(4.04127 -0.063525 0.00726675)
(4.04201 -0.0633068 0.00734877)
(4.04275 -0.0630919 0.00745614)
(4.0435 -0.0628796 0.00756896)
(4.04425 -0.0626701 0.00766216)
(4.045 -0.0624638 0.00775847)
(4.04576 -0.0622584 0.00786168)
(4.04652 -0.0620567 0.00796434)
(4.04728 -0.0618567 0.00807981)
(4.04805 -0.0616586 0.00819161)
(4.04882 -0.0614656 0.00829536)
(4.04959 -0.0612746 0.00839944)
(4.05036 -0.0610852 0.00852209)
(4.05114 -0.0609 0.00867061)
(4.05191 -0.0607317 0.00880469)
(4.05267 -0.0606079 0.0089147)
(4.05334 -0.0606674 0.00902956)
(3.99817 -0.00163813 0.000245557)
(3.99615 0.00888562 7.2317e-05)
(3.99913 0.0201794 8.55819e-05)
(4.00302 0.0301792 0.000411817)
(4.006 0.0384979 0.000795302)
(4.00835 0.0450942 0.000966269)
(4.01035 0.0503341 0.00105865)
(4.0121 0.0545619 0.00104742)
(4.01366 0.0579951 0.000873146)
(4.01507 0.060794 0.000710434)
(4.01638 0.0630776 0.0005703)
(4.0176 0.0649312 0.000388077)
(4.01876 0.0664274 0.000194737)
(4.01986 0.0676294 4.47274e-05)
(4.0209 0.0685848 -3.87953e-05)
(4.02191 0.0693285 -7.0814e-05)
(4.02288 0.0698925 -4.01579e-05)
(4.02381 0.0703106 5.15324e-05)
(4.02472 0.0706086 0.00016576)
(4.0256 0.0708018 0.000296418)
(4.02646 0.0709051 0.000457666)
(4.0273 0.070936 0.00066787)
(4.02813 0.0709091 0.000894008)
(4.02894 0.0708329 0.00107104)
(4.02973 0.0707151 0.00122451)
(4.03052 0.0705651 0.00138941)
(4.03129 0.0703898 0.00152058)
(4.03206 0.0701922 0.00160555)
(4.03282 0.0699773 0.00168094)
(4.03357 0.0697507 0.00174433)
(4.03431 0.0695151 0.00178688)
(4.03505 0.0692718 0.00182661)
(4.03579 0.0690232 0.00186219)
(4.03653 0.0687715 0.00188779)
(4.03726 0.0685172 0.00191581)
(4.03799 0.0682608 0.00194102)
(4.03872 0.068003 0.00196924)
(4.03946 0.0677453 0.00201948)
(4.04019 0.0674888 0.00206414)
(4.04092 0.0672328 0.00209969)
(4.04166 0.0669776 0.00215567)
(4.0424 0.0667245 0.00220793)
(4.04314 0.0664727 0.00225286)
(4.04388 0.066222 0.00230519)
(4.04463 0.0659736 0.00235728)
(4.04538 0.065728 0.00243073)
(4.04613 0.0654858 0.00250246)
(4.04689 0.0652464 0.0025504)
(4.04765 0.0650096 0.00260029)
(4.04841 0.064776 0.00264469)
(4.04918 0.0645435 0.00269977)
(4.04995 0.0643153 0.00275478)
(4.05072 0.06409 0.00279904)
(4.0515 0.0638651 0.00285578)
(4.05228 0.0636432 0.00290556)
(4.05307 0.0634244 0.00295695)
(4.05385 0.0632072 0.00301771)
(4.05463 0.0629839 0.00306743)
(4.05538 0.0627432 0.00308076)
(4.05624 0.0624485 0.00308972)
(3.99794 -0.00102208 0.000276775)
(3.99508 -0.00120641 0.000143988)
(3.99583 -0.00451381 0.000256405)
(3.9983 -0.0103524 0.000815953)
(4.00077 -0.017334 0.00165758)
(4.00319 -0.0245808 0.00237265)
(4.00561 -0.0315132 0.00295103)
(4.00795 -0.0378312 0.00331988)
(4.01013 -0.0434255 0.00341378)
(4.01216 -0.0482785 0.00335888)
(4.01404 -0.0524335 0.00319023)
(4.01577 -0.0559624 0.00293753)
(4.01737 -0.058935 0.00265618)
(4.01886 -0.0614164 0.00236647)
(4.02025 -0.063475 0.00212141)
(4.02154 -0.0651728 0.00196009)
(4.02276 -0.0665605 0.00189685)
(4.02392 -0.0676801 0.00188853)
(4.02501 -0.0685707 0.00188543)
(4.02605 -0.069269 0.00191824)
(4.02704 -0.0698042 0.00200891)
(4.028 -0.0701984 0.00214663)
(4.02892 -0.0704739 0.00228991)
(4.02982 -0.0706517 0.00239285)
(4.03069 -0.0707471 0.00248243)
(4.03153 -0.0707713 0.0025745)
(4.03236 -0.0707371 0.00262878)
(4.03316 -0.0706564 0.00265226)
(4.03396 -0.070536 0.00267269)
(4.03474 -0.0703808 0.0026688)
(4.03551 -0.0701979 0.0026375)
(4.03627 -0.0699935 0.0026083)
(4.03703 -0.0697714 0.0025772)
(4.03777 -0.0695351 0.00253514)
(4.03852 -0.0692879 0.00249906)
(4.03926 -0.0690327 0.00246996)
(4.04 -0.0687716 0.00245349)
(4.04074 -0.0685048 0.00245837)
(4.04148 -0.068234 0.00245529)
(4.04221 -0.0679618 0.00245236)
(4.04295 -0.0676888 0.00247719)
(4.04369 -0.0674153 0.0024993)
(4.04443 -0.0671432 0.00252463)
(4.04518 -0.0668732 0.00257232)
(4.04592 -0.0666056 0.00262794)
(4.04667 -0.0663398 0.00270734)
(4.04743 -0.0660758 0.0027822)
(4.04818 -0.065815 0.00283896)
(4.04894 -0.0655579 0.00290475)
(4.04971 -0.065304 0.00296897)
(4.05047 -0.0650541 0.00306101)
(4.05124 -0.0648064 0.00314489)
(4.05202 -0.0645619 0.00321943)
(4.0528 -0.0643217 0.00332542)
(4.05358 -0.0640845 0.0034265)
(4.05436 -0.0638505 0.00352571)
(4.05514 -0.0636192 0.00362468)
(4.05592 -0.0633948 0.00371931)
(4.05665 -0.0631831 0.00377179)
(4.05743 -0.0630051 0.00380035)
(3.99794 0.00101669 0.00023662)
(3.99508 0.00118745 7.39988e-05)
(3.99584 0.0044626 0.000183082)
(3.99831 0.0102786 0.000639696)
(4.00079 0.0172492 0.00128241)
(4.00321 0.0244783 0.0018636)
(4.00563 0.0314056 0.00222991)
(4.00797 0.0377172 0.00239823)
(4.01015 0.0432958 0.00239944)
(4.01217 0.0481418 0.00223318)
(4.01404 0.0522953 0.00193335)
(4.01577 0.0558159 0.001601)
(4.01737 0.0587777 0.00127409)
(4.01886 0.0612542 0.000927754)
(4.02024 0.0633095 0.00063804)
(4.02153 0.0650036 0.000458645)
(4.02275 0.06639 0.000387892)
(4.0239 0.067512 0.000373567)
(4.02499 0.0684068 0.000371497)
(4.02603 0.0691083 0.000424468)
(4.02702 0.0696468 0.000542217)
(4.02798 0.070048 0.00069307)
(4.0289 0.0703307 0.000849789)
(4.02979 0.0705104 0.00099374)
(4.03066 0.0706042 0.00114077)
(4.0315 0.0706279 0.00128568)
(4.03233 0.0705909 0.00140551)
(4.03313 0.0705017 0.00152521)
(4.03393 0.0703711 0.00165318)
(4.03471 0.070208 0.00174942)
(4.03548 0.0700176 0.00181728)
(4.03624 0.0698052 0.00189195)
(4.037 0.0695755 0.00196484)
(4.03775 0.0693324 0.00202178)
(4.03849 0.0690797 0.00207569)
(4.03924 0.0688193 0.00213068)
(4.03998 0.0685524 0.00219165)
(4.04072 0.0682826 0.00225223)
(4.04146 0.0680107 0.00228643)
(4.0422 0.0677364 0.00231497)
(4.04294 0.0674625 0.00235567)
(4.04368 0.0671894 0.00237781)
(4.04442 0.0669172 0.00239562)
(4.04517 0.0666469 0.00242851)
(4.04591 0.0663782 0.00246601)
(4.04666 0.0661126 0.00251585)
(4.04742 0.0658507 0.00254635)
(4.04818 0.0655907 0.00255776)
(4.04894 0.0653325 0.00257939)
(4.0497 0.0650768 0.00259603)
(4.05047 0.0648247 0.00263716)
(4.05124 0.0645754 0.00266199)
(4.05201 0.0643283 0.0026764)
(4.05279 0.0640848 0.00271957)
(4.05357 0.0638444 0.00275629)
(4.05435 0.0636067 0.00279055)
(4.05514 0.063374 0.00281474)
(4.05591 0.0631493 0.00283339)
(4.05664 0.0629408 0.00280714)
(4.05742 0.0627739 0.00274754)
(3.99817 0.00163509 0.000137455)
(3.99614 -0.00885815 -0.000103851)
(3.99911 -0.0201145 1.39399e-05)
(4.003 -0.0300996 0.000308908)
(4.00598 -0.038416 0.000503138)
(4.00832 -0.0450034 0.000542562)
(4.01033 -0.0502398 0.000392667)
(4.01208 -0.0544867 0.000236101)
(4.01363 -0.0579599 0.000136298)
(4.01505 -0.0608002 -9.75275e-06)
(4.01636 -0.0631288 -0.000184088)
(4.01759 -0.0650359 -0.000306992)
(4.01875 -0.0665889 -0.000394921)
(4.01985 -0.0678457 -0.000497503)
(4.0209 -0.068851 -0.000554707)
(4.02191 -0.0696372 -0.000560305)
(4.02288 -0.0702365 -0.000531451)
(4.02382 -0.0706812 -0.000488912)
(4.02473 -0.0709985 -0.000452545)
(4.02561 -0.0712067 -0.000389085)
(4.02647 -0.0713215 -0.000300401)
(4.02732 -0.0713596 -0.000208029)
(4.02814 -0.0713357 -0.000110983)
(4.02895 -0.0712626 -3.08255e-06)
(4.02974 -0.0711484 0.000121143)
(4.03053 -0.0709991 0.00024232)
(4.0313 -0.0708227 0.000356329)
(4.03206 -0.0706253 0.000497239)
(4.03282 -0.0704096 0.000652426)
(4.03357 -0.0701792 0.000773295)
(4.03431 -0.069938 0.000869583)
(4.03505 -0.0696877 0.000972428)
(4.03579 -0.0694305 0.00106979)
(4.03652 -0.069169 0.00114845)
(4.03725 -0.068904 0.00121531)
(4.03798 -0.0686374 0.00127846)
(4.03871 -0.0683697 0.00134558)
(4.03944 -0.0681006 0.00139711)
(4.04018 -0.0678324 0.00141747)
(4.04091 -0.0675665 0.00143753)
(4.04164 -0.0673015 0.00145986)
(4.04238 -0.0670389 0.00146142)
(4.04312 -0.0667792 0.00145915)
(4.04386 -0.066522 0.00146773)
(4.04461 -0.0662687 0.00148739)
(4.04536 -0.0660175 0.00151407)
(4.04611 -0.0657691 0.00151882)
(4.04686 -0.0655244 0.00151701)
(4.04762 -0.0652833 0.00153978)
(4.04838 -0.0650452 0.00156462)
(4.04915 -0.0648082 0.00160736)
(4.04992 -0.0645751 0.00164547)
(4.05069 -0.0643459 0.00168651)
(4.05147 -0.064118 0.00175017)
(4.05225 -0.0638929 0.00181276)
(4.05303 -0.0636711 0.00188513)
(4.05382 -0.0634496 0.00195178)
(4.0546 -0.0632212 0.00200867)
(4.05534 -0.062974 0.00202246)
(4.05619 -0.0626712 0.001991)
(3.98983 0.0196805 0.000613377)
(3.98186 0.0406651 0.000962212)
(3.98278 0.0575341 0.00189064)
(3.98643 0.0669889 0.0030385)
(3.99028 0.071803 0.00374776)
(3.99395 0.0743172 0.00392601)
(3.99734 0.0754971 0.00374826)
(4.00042 0.0758591 0.00351188)
(4.00319 0.0757684 0.00327282)
(4.0057 0.0754402 0.00295675)
(4.00796 0.0749839 0.00265885)
(4.01002 0.0744699 0.0024411)
(4.0119 0.0739382 0.00227635)
(4.01363 0.0734043 0.00215384)
(4.01522 0.0728802 0.00211257)
(4.01669 0.0723766 0.00208816)
(4.01806 0.0718954 0.00205106)
(4.01934 0.071434 0.00201709)
(4.02054 0.0709889 0.00199261)
(4.02167 0.0705618 0.00198655)
(4.02274 0.0701529 0.00198459)
(4.02376 0.069759 0.00198489)
(4.02474 0.0693793 0.0019986)
(4.02568 0.069012 0.00204166)
(4.02658 0.0686559 0.00211691)
(4.02746 0.0683111 0.00219429)
(4.02831 0.0679763 0.00227827)
(4.02914 0.0676506 0.00240401)
(4.02996 0.0673337 0.00254751)
(4.03075 0.0670238 0.00266571)
(4.03154 0.0667202 0.00277085)
(4.03231 0.0664244 0.00287944)
(4.03307 0.0661358 0.00297936)
(4.03383 0.0658528 0.00306511)
(4.03458 0.0655762 0.00313595)
(4.03533 0.0653052 0.00320357)
(4.03607 0.0650391 0.0032802)
(4.03681 0.0647787 0.00333513)
(4.03755 0.0645225 0.00336565)
(4.03829 0.0642704 0.00340481)
(4.03902 0.0640245 0.00343619)
(4.03976 0.0637826 0.00345041)
(4.0405 0.0635454 0.00345974)
(4.04125 0.0633133 0.00347146)
(4.04199 0.0630851 0.00349605)
(4.04274 0.0628617 0.0035107)
(4.04349 0.0626405 0.00349403)
(4.04424 0.0624216 0.00346627)
(4.04499 0.0622055 0.00345554)
(4.04575 0.0619919 0.00343918)
(4.04651 0.0617834 0.00341183)
(4.04727 0.0615774 0.00337848)
(4.04804 0.0613737 0.00334847)
(4.04881 0.0611746 0.00331923)
(4.04958 0.0609789 0.00328191)
(4.05036 0.0607862 0.00325952)
(4.05114 0.0605998 0.00323416)
(4.05192 0.0604328 0.00318362)
(4.05267 0.0603146 0.00309425)
(4.05335 0.0603828 0.0029717)
(4.00712 -0.103985 -0.000479845)
(4.00325 -0.133739 -0.000268792)
(4.00189 -0.134198 0.000181645)
(4.00121 -0.12935 0.000390357)
(4.0016 -0.123146 0.000206329)
(4.0026 -0.116528 -0.000260003)
(4.0038 -0.110235 -0.000721913)
(4.00504 -0.104565 -0.000958056)
(4.00627 -0.0995387 -0.0011023)
(4.00746 -0.0951192 -0.0012586)
(4.00857 -0.0912572 -0.0012889)
(4.00961 -0.0878849 -0.00122017)
(4.01058 -0.0849382 -0.00113481)
(4.01148 -0.0823663 -0.00101423)
(4.01233 -0.0801203 -0.000834301)
(4.01311 -0.0781555 -0.00068356)
(4.01385 -0.0764346 -0.000581237)
(4.01453 -0.0749251 -0.00049505)
(4.01518 -0.0736003 -0.000395239)
(4.01579 -0.0724334 -0.000290585)
(4.01636 -0.0714025 -0.0002015)
(4.0169 -0.0704902 -0.000113812)
(4.01742 -0.0696788 -2.85522e-05)
(4.01791 -0.0689546 7.05324e-05)
(4.01839 -0.068307 0.000195727)
(4.01884 -0.0677253 0.000313436)
(4.01927 -0.0672008 0.000430585)
(4.01969 -0.066726 0.000583673)
(4.0201 -0.066295 0.000753979)
(4.02049 -0.0659039 0.000916924)
(4.02087 -0.0655476 0.00108454)
(4.02125 -0.0652199 0.00125557)
(4.02161 -0.0649175 0.00142286)
(4.02196 -0.0646383 0.00159148)
(4.02231 -0.0643785 0.00175129)
(4.02265 -0.0641359 0.00191554)
(4.02299 -0.0639086 0.00209938)
(4.02332 -0.0636938 0.0022623)
(4.02364 -0.063491 0.0024122)
(4.02396 -0.0632981 0.00257616)
(4.02428 -0.0631123 0.00271962)
(4.02459 -0.0629343 0.00284951)
(4.0249 -0.0627624 0.00297023)
(4.02521 -0.0625955 0.00308448)
(4.02552 -0.0624335 0.00320927)
(4.02583 -0.0622727 0.00330256)
(4.02613 -0.0621146 0.0033631)
(4.02643 -0.0619588 0.00341112)
(4.02674 -0.0618048 0.00346889)
(4.02704 -0.0616535 0.00352504)
(4.02734 -0.0615024 0.00355043)
(4.02764 -0.0613526 0.00356672)
(4.02794 -0.0612041 0.00358552)
(4.02823 -0.0610555 0.00358984)
(4.02853 -0.0609073 0.00358032)
(4.02883 -0.0607594 0.00358841)
(4.02913 -0.0606095 0.0035983)
(4.02944 -0.0604466 0.00357145)
(4.02977 -0.0602418 0.00351015)
(4.03014 -0.0597232 0.00342108)
(4.0045 0.295145 0.00125329)
(4.02898 0.228096 0.00285031)
(4.03222 0.190841 0.00364196)
(4.02772 0.165201 0.00352629)
(4.02215 0.146373 0.00274432)
(4.01629 0.132076 0.00165223)
(4.01019 0.120795 0.000787085)
(4.00404 0.111628 0.000384981)
(3.99796 0.10405 0.000166038)
(3.99195 0.0977115 -4.10468e-05)
(3.98603 0.0923602 -7.79673e-05)
(3.98021 0.0878161 -2.73679e-05)
(3.97448 0.0839427 -1.05588e-05)
(3.96885 0.0806297 1.36244e-05)
(3.9633 0.0777887 7.92803e-05)
(3.95785 0.0753479 0.00010989)
(3.95247 0.0732478 9.85702e-05)
(3.94718 0.0714384 7.40336e-05)
(3.94196 0.0698766 7.7705e-05)
(3.93682 0.0685268 9.15691e-05)
(3.93176 0.0673585 9.14375e-05)
(3.92676 0.0663452 9.71293e-05)
(3.92183 0.0654653 9.06477e-05)
(3.91697 0.0646998 8.63675e-05)
(3.91216 0.0640313 0.000105713)
(3.90742 0.0634461 0.00011165)
(3.90274 0.0629323 0.000109407)
(3.89812 0.0624794 0.000135644)
(3.89355 0.0620782 0.000177463)
(3.88903 0.0617205 0.000223426)
(3.88456 0.0614 0.000282191)
(3.88014 0.0611121 0.00033797)
(3.87577 0.0608518 0.000387669)
(3.87145 0.0606147 0.000443622)
(3.86717 0.0603977 0.000488531)
(3.86294 0.0601979 0.000536869)
(3.85874 0.0600123 0.000605206)
(3.85459 0.0598394 0.000645933)
(3.85048 0.0596768 0.000674692)
(3.84641 0.0595233 0.000712964)
(3.84237 0.0593783 0.000714474)
(3.83837 0.0592398 0.000699894)
(3.83441 0.0591071 0.000668832)
(3.83047 0.0589794 0.000623467)
(3.82658 0.0588558 0.000584491)
(3.82271 0.0587363 0.000496973)
(3.81888 0.0586187 0.000383015)
(3.81507 0.0585025 0.000264654)
(3.81129 0.0583872 0.000159655)
(3.80755 0.0582716 6.81988e-05)
(3.80383 0.0581567 -5.81075e-05)
(3.80013 0.0580423 -0.000192833)
(3.79647 0.057928 -0.000322145)
(3.79283 0.057814 -0.00046944)
(3.78921 0.0577004 -0.00063087)
(3.78562 0.0575871 -0.000771716)
(3.78206 0.0574748 -0.000905023)
(3.77854 0.0573691 -0.00107832)
(3.77514 0.0572838 -0.00127926)
(3.77145 0.0574177 -0.00149214)
(4.00451 -0.295172 0.000265834)
(4.029 -0.228213 0.000945551)
(4.03219 -0.191014 0.00220081)
(4.02763 -0.165372 0.00249765)
(4.02205 -0.146505 0.0018693)
(4.01622 -0.132167 0.00141967)
(4.01016 -0.120868 0.00135695)
(4.00403 -0.111703 0.00127414)
(3.99796 -0.104136 0.00119968)
(3.99196 -0.0978172 0.00139217)
(3.98605 -0.0924925 0.00161555)
(3.98023 -0.0879769 0.00167717)
(3.9745 -0.0841336 0.00167618)
(3.96886 -0.080852 0.00164852)
(3.96332 -0.0780438 0.00162843)
(3.95786 -0.0756372 0.00157306)
(3.95248 -0.0735693 0.00139315)
(3.94719 -0.0717898 0.00116103)
(3.94197 -0.0702584 0.000952)
(3.93683 -0.0689396 0.000732076)
(3.93176 -0.0678012 0.000444374)
(3.92677 -0.0668164 0.000129265)
(3.92184 -0.0659652 -0.000126352)
(3.91698 -0.0652293 -0.000357861)
(3.91218 -0.0645906 -0.000609247)
(3.90745 -0.0640351 -0.000824122)
(3.90277 -0.0635519 -0.000989007)
(3.89814 -0.06313 -0.00114446)
(3.89357 -0.0627597 -0.00128464)
(3.88906 -0.0624332 -0.00139576)
(3.88459 -0.0621438 -0.00149262)
(3.88017 -0.0618858 -0.00157394)
(3.8758 -0.0616547 -0.00163094)
(3.87148 -0.0614462 -0.00167766)
(3.8672 -0.0612559 -0.00173306)
(3.86296 -0.0610805 -0.00180194)
(3.85877 -0.0609175 -0.00186709)
(3.85462 -0.0607643 -0.00191174)
(3.85051 -0.0606196 -0.00194846)
(3.84643 -0.0604818 -0.0019879)
(3.84239 -0.0603491 -0.00202648)
(3.83839 -0.0602207 -0.00206927)
(3.83443 -0.0600955 -0.00213224)
(3.83049 -0.0599726 -0.0022141)
(3.8266 -0.0598521 -0.00227928)
(3.82273 -0.0597329 -0.00232781)
(3.8189 -0.0596149 -0.00237746)
(3.81509 -0.0594975 -0.00244895)
(3.81132 -0.0593801 -0.00253333)
(3.80757 -0.0592639 -0.00257847)
(3.80385 -0.0591478 -0.00263321)
(3.80016 -0.0590314 -0.00268047)
(3.79649 -0.0589149 -0.0027283)
(3.79285 -0.0587973 -0.00281913)
(3.78924 -0.0586793 -0.00290858)
(3.78565 -0.0585617 -0.0029611)
(3.78209 -0.0584459 -0.00296398)
(3.77856 -0.0583357 -0.00299364)
(3.77516 -0.0582446 -0.00304269)
(3.77145 -0.0583737 -0.00304415)
(4.00712 0.103957 0.0014281)
(4.00326 0.133607 0.00261812)
(4.00189 0.134045 0.00381489)
(4.00116 0.129297 0.00436896)
(4.00152 0.123225 0.00430148)
(4.00253 0.11669 0.00422316)
(4.00373 0.110416 0.00423523)
(4.00497 0.104739 0.00415012)
(4.0062 0.0997016 0.00403052)
(4.00739 0.0952637 0.00409723)
(4.00851 0.0913833 0.00423184)
(4.00955 0.0880046 0.00429001)
(4.01052 0.0850635 0.00432482)
(4.01143 0.0825059 0.00438567)
(4.01228 0.0802811 0.00449998)
(4.01306 0.0783446 0.00461326)
(4.01379 0.0766622 0.00466648)
(4.01448 0.0751982 0.00472022)
(4.01513 0.0739186 0.00480835)
(4.01574 0.0727977 0.00488337)
(4.01632 0.0718165 0.00490294)
(4.01686 0.070956 0.00490772)
(4.01738 0.0701948 0.0049477)
(4.01788 0.069517 0.00497359)
(4.01835 0.0689137 0.00496479)
(4.0188 0.0683742 0.0049767)
(4.01924 0.0678872 0.00500525)
(4.01966 0.0674462 0.00501658)
(4.02006 0.0670464 0.00503023)
(4.02045 0.0666821 0.00506197)
(4.02084 0.0663485 0.00509962)
(4.02121 0.0660421 0.00514704)
(4.02157 0.0657589 0.00521079)
(4.02192 0.065496 0.00528208)
(4.02227 0.0652521 0.0053528)
(4.02261 0.0650224 0.00541597)
(4.02294 0.0648048 0.0054823)
(4.02328 0.0645983 0.005571)
(4.0236 0.0644007 0.00566571)
(4.02393 0.0642109 0.00575433)
(4.02425 0.0640288 0.00584886)
(4.02456 0.0638527 0.00594059)
(4.02488 0.0636821 0.00601463)
(4.02519 0.0635166 0.00607417)
(4.0255 0.0633539 0.00614208)
(4.02581 0.0631948 0.00622869)
(4.02612 0.0630386 0.00631663)
(4.02642 0.0628845 0.00638287)
(4.02673 0.0627331 0.00644314)
(4.02703 0.0625815 0.00652562)
(4.02733 0.0624317 0.00659882)
(4.02763 0.0622835 0.00668344)
(4.02793 0.0621361 0.00676583)
(4.02823 0.0619913 0.00681737)
(4.02853 0.0618467 0.00686945)
(4.02883 0.0617008 0.00695067)
(4.02913 0.0615512 0.00706994)
(4.02943 0.0613904 0.00716698)
(4.02976 0.0611885 0.00724403)
(4.03012 0.0606768 0.00734092)
(3.98982 -0.0197193 3.6418e-06)
(3.98186 -0.0408018 0.000256557)
(3.98281 -0.0577474 0.00121289)
(3.98645 -0.0671927 0.00243483)
(3.99026 -0.0719422 0.00343809)
(3.99391 -0.0744049 0.00421093)
(3.99729 -0.0755538 0.00481125)
(4.00036 -0.0758947 0.00517249)
(4.00313 -0.0757907 0.00530209)
(4.00565 -0.0754608 0.00542682)
(4.00792 -0.075014 0.00554997)
(4.00999 -0.0745092 0.00556927)
(4.01188 -0.0739841 0.00551742)
(4.01361 -0.0734586 0.00547705)
(4.0152 -0.0729432 0.00548363)
(4.01668 -0.0724406 0.00549373)
(4.01805 -0.0719491 0.00549586)
(4.01933 -0.0714737 0.00553567)
(4.02053 -0.0710186 0.00560709)
(4.02166 -0.0705807 0.00567056)
(4.02274 -0.0701558 0.00571403)
(4.02376 -0.0697449 0.00577646)
(4.02474 -0.0693519 0.00586089)
(4.02568 -0.0689768 0.00590258)
(4.02658 -0.0686159 0.00591077)
(4.02746 -0.0682693 0.00593631)
(4.02831 -0.0679381 0.00595053)
(4.02914 -0.06762 0.00592908)
(4.02995 -0.0673131 0.00590675)
(4.03075 -0.0670175 0.0058959)
(4.03153 -0.0667323 0.00588626)
(4.03231 -0.066456 0.00588721)
(4.03307 -0.0661883 0.0059015)
(4.03383 -0.0659286 0.00592398)
(4.03458 -0.0656751 0.00595881)
(4.03532 -0.065425 0.00599807)
(4.03606 -0.0651791 0.00604799)
(4.0368 -0.0649371 0.00612958)
(4.03754 -0.0646998 0.00621946)
(4.03828 -0.0644664 0.0063062)
(4.03902 -0.0642356 0.00641213)
(4.03975 -0.0640084 0.0065208)
(4.04049 -0.0637838 0.00662054)
(4.04123 -0.0635609 0.00671916)
(4.04197 -0.0633416 0.0068228)
(4.04272 -0.0631251 0.00695096)
(4.04346 -0.0629115 0.00708378)
(4.04421 -0.0627007 0.00719621)
(4.04496 -0.0624919 0.00731098)
(4.04572 -0.0622874 0.00743196)
(4.04647 -0.062084 0.0075517)
(4.04723 -0.0618837 0.00768362)
(4.048 -0.0616861 0.00781126)
(4.04876 -0.061488 0.00793023)
(4.04953 -0.0612927 0.00804896)
(4.05031 -0.0611023 0.00818573)
(4.05108 -0.0609195 0.00834784)
(4.05186 -0.0607521 0.00849502)
(4.0526 -0.0606313 0.00861759)
(4.05326 -0.0606964 0.0087444)
(3.99816 -0.0016508 0.000357157)
(3.99613 0.00879646 0.000427195)
(3.99913 0.019993 0.000719642)
(4.00303 0.0299395 0.00128581)
(4.006 0.0382696 0.00184973)
(4.00833 0.0448897 0.00214715)
(4.01032 0.0501561 0.00232167)
(4.01206 0.0544116 0.00235784)
(4.01361 0.057866 0.00220494)
(4.01503 0.0606695 0.00204435)
(4.01634 0.0629458 0.00189241)
(4.01756 0.0647959 0.00168871)
(4.01872 0.0662943 0.00146738)
(4.01982 0.0674964 0.00128505)
(4.02088 0.0684515 0.00116642)
(4.02189 0.0692042 0.00109766)
(4.02286 0.0697886 0.00109076)
(4.0238 0.0702272 0.00114466)
(4.02471 0.0705406 0.0012213)
(4.0256 0.0707528 0.00131494)
(4.02646 0.0708823 0.00143994)
(4.02731 0.0709399 0.00161477)
(4.02813 0.0709352 0.00180649)
(4.02894 0.0708796 0.00195022)
(4.02973 0.0707829 0.00207161)
(4.03051 0.0706506 0.0022056)
(4.03129 0.0704885 0.00230708)
(4.03205 0.0703042 0.00236364)
(4.0328 0.0701017 0.00241186)
(4.03355 0.0698828 0.00244931)
(4.0343 0.0696513 0.00246711)
(4.03504 0.069411 0.00248323)
(4.03578 0.069164 0.00249629)
(4.03651 0.0689116 0.00250042)
(4.03724 0.0686562 0.00250797)
(4.03798 0.0683993 0.00251366)
(4.03871 0.0681413 0.00252327)
(4.03944 0.0678822 0.00255572)
(4.04017 0.0676224 0.00258337)
(4.04091 0.0673636 0.00260267)
(4.04164 0.0671066 0.00264309)
(4.04238 0.0668509 0.00268043)
(4.04312 0.0665979 0.00271109)
(4.04386 0.0663485 0.00274974)
(4.04461 0.0661016 0.00278872)
(4.04536 0.0658571 0.00284957)
(4.04611 0.0656145 0.00290918)
(4.04686 0.0653747 0.00294547)
(4.04762 0.065138 0.00298417)
(4.04839 0.0649035 0.00301781)
(4.04915 0.0646735 0.00306254)
(4.04992 0.064445 0.00310757)
(4.0507 0.0642187 0.00314222)
(4.05147 0.0639974 0.00318971)
(4.05226 0.0637781 0.00323057)
(4.05304 0.0635592 0.00327335)
(4.05382 0.0633388 0.00332578)
(4.0546 0.0631136 0.00336746)
(4.05534 0.0628689 0.00337309)
(4.0562 0.0625667 0.00337458)
(3.99792 -0.00102866 0.000276064)
(3.99505 -0.00122604 8.8352e-05)
(3.99584 -0.00453913 0.00012453)
(3.99833 -0.0103776 0.00060529)
(4.00081 -0.0173406 0.00137658)
(4.0032 -0.0245496 0.00203628)
(4.00561 -0.031458 0.00257478)
(4.00792 -0.0377604 0.00291694)
(4.01009 -0.0433378 0.00299466)
(4.01211 -0.0481934 0.00293164)
(4.01398 -0.0523666 0.00276087)
(4.01571 -0.0559101 0.00251043)
(4.01731 -0.0588942 0.00223448)
(4.01881 -0.0613934 0.00195238)
(4.0202 -0.0634695 0.00171648)
(4.02151 -0.0651775 0.00156541)
(4.02274 -0.0665697 0.00151317)
(4.02389 -0.0676945 0.00151634)
(4.02499 -0.0685912 0.00152494)
(4.02603 -0.0692911 0.00156954)
(4.02703 -0.069824 0.00167196)
(4.02799 -0.0702179 0.00182133)
(4.02891 -0.0704942 0.00197606)
(4.02981 -0.0706689 0.00209016)
(4.03067 -0.0707587 0.00219056)
(4.03152 -0.0707797 0.00229308)
(4.03234 -0.070742 0.00235739)
(4.03314 -0.0706537 0.00239048)
(4.03394 -0.070525 0.00242009)
(4.03472 -0.0703652 0.00242494)
(4.03549 -0.0701796 0.00240195)
(4.03625 -0.0699722 0.00238064)
(4.037 -0.069748 0.00235705)
(4.03775 -0.0695109 0.00232212)
(4.0385 -0.069264 0.00229282)
(4.03924 -0.0690092 0.00227018)
(4.03998 -0.0687485 0.00225987)
(4.04072 -0.0684849 0.00227063)
(4.04145 -0.0682196 0.00227318)
(4.04219 -0.0679525 0.00227564)
(4.04293 -0.0676851 0.00230564)
(4.04367 -0.0674188 0.00233273)
(4.04442 -0.0671531 0.00236283)
(4.04516 -0.0668881 0.00241513)
(4.04591 -0.0666246 0.0024752)
(4.04666 -0.0663637 0.00255889)
(4.04741 -0.0661061 0.0026379)
(4.04817 -0.0658506 0.00269866)
(4.04892 -0.0655975 0.00276832)
(4.04969 -0.0653471 0.00283627)
(4.05045 -0.0650988 0.00293192)
(4.05122 -0.0648543 0.00301928)
(4.052 -0.0646127 0.00309717)
(4.05278 -0.0643731 0.00320641)
(4.05356 -0.0641365 0.00331061)
(4.05434 -0.0639031 0.00341282)
(4.05512 -0.0636746 0.00351467)
(4.05589 -0.0634522 0.00361205)
(4.05662 -0.0632434 0.0036672)
(4.05739 -0.0630712 0.00369819)
(3.99792 0.00100809 0.000235929)
(3.99505 0.00118467 1.8523e-05)
(3.99584 0.00447992 5.17446e-05)
(3.99834 0.0102826 0.000430041)
(4.00081 0.0171953 0.00100279)
(4.00322 0.0243637 0.00152884)
(4.00562 0.0312242 0.00185528)
(4.00794 0.0374929 0.00199668)
(4.01011 0.0430663 0.00198122)
(4.01212 0.0479201 0.00180618)
(4.01399 0.0520929 0.0015034)
(4.01572 0.0556454 0.00117233)
(4.01732 0.0586432 0.000849758)
(4.01881 0.0611516 0.000509878)
(4.0202 0.0632363 0.000228097)
(4.02151 0.064954 5.76938e-05)
(4.02273 0.0663548 -3.30738e-06)
(4.02389 0.0674854 -7.38362e-06)
(4.02498 0.068387 1.05809e-06)
(4.02602 0.0690938 6.46708e-05)
(4.02702 0.0696336 0.00019311)
(4.02798 0.0700308 0.00035462)
(4.0289 0.0703098 0.000521883)
(4.02979 0.0704919 0.000676189)
(4.03066 0.0705917 0.000833341)
(4.0315 0.0706205 0.000988114)
(4.03232 0.0705922 0.00111751)
(4.03313 0.0705182 0.00124644)
(4.03392 0.0704043 0.00138335)
(4.0347 0.0702562 0.0014882)