/*--------------------------------*- C++ -*----------------------------------*\
  =========                 |
  \\      /  F ield         | OpenFOAM: The Open Source CFD Toolbox
   \\    /   O peration     | Website:  https://openfoam.org
    \\  /    A nd           | Version:  8
     \\/     M anipulation  |
\*---------------------------------------------------------------------------*/
FoamFile
{
    version     2.0;
    format      ascii;
    class       volScalarField;
    location    "700";
    object      alphat;
}
// * * * * * * * * * * * * * * * * * * * * * * * * * * * * * * * * * * * * * //

dimensions      [1 -1 -1 0 0 0 0];

internalField   nonuniform List<scalar> 
8400
(
0.321458
0.317476
0.313589
0.309796
0.306091
0.302468
0.29892
0.295443
0.292033
0.288686
0.2854
0.282171
0.278997
0.275875
0.272802
0.269776
0.266793
0.263851
0.260946
0.258077
0.25524
0.252433
0.249655
0.246902
0.244174
0.241469
0.238787
0.236126
0.233487
0.23087
0.228276
0.225704
0.223155
0.220631
0.218132
0.215659
0.213214
0.210797
0.208409
0.206051
0.203726
0.201433
0.199176
0.196955
0.194774
0.192638
0.190556
0.18854
0.186605
0.184776
0.0674165
0.0671893
0.0669887
0.0668109
0.0666528
0.0665121
0.0663868
0.0662752
0.0661757
0.0660872
0.0660086
0.0659387
0.0658768
0.0658219
0.0657734
0.0657304
0.0656923
0.0656584
0.0656283
0.0656012
0.0655765
0.065554
0.065533
0.0655133
0.0654945
0.0654763
0.0654587
0.0654414
0.0654246
0.0654082
0.0653924
0.0653772
0.0653626
0.065349
0.0653364
0.0653251
0.0653153
0.0653072
0.0653009
0.0652968
0.065295
0.0652958
0.0652992
0.0653054
0.0653145
0.0653269
0.065343
0.0653636
0.0653895
0.0654225
0.0594262
0.0594654
0.0595077
0.0595527
0.0595999
0.0596487
0.0596987
0.0597497
0.0598013
0.0598534
0.0599056
0.0599579
0.0600101
0.0600621
0.0601137
0.0601648
0.0602154
0.0602654
0.0603147
0.0603632
0.060411
0.0604579
0.0605039
0.0605492
0.0605936
0.0606373
0.0606804
0.0607229
0.0607651
0.060807
0.0608488
0.0608907
0.0609328
0.0609752
0.0610181
0.0610617
0.061106
0.0611512
0.0611974
0.0612449
0.0612939
0.0613443
0.0613962
0.0614497
0.061505
0.0615624
0.0616223
0.0616852
0.0617521
0.061824
0.0575671
0.0576173
0.0576692
0.0577218
0.0577745
0.0578269
0.0578785
0.0579294
0.0579794
0.0580283
0.0580762
0.0581229
0.0581685
0.0582129
0.0582562
0.0582983
0.0583393
0.0583791
0.0584179
0.0584555
0.0584922
0.058528
0.0585629
0.058597
0.0586304
0.0586633
0.0586958
0.058728
0.0587602
0.0587926
0.0588253
0.0588584
0.0588923
0.0589271
0.0589628
0.0589996
0.0590376
0.059077
0.0591178
0.0591602
0.0592043
0.0592499
0.0592972
0.0593461
0.0593967
0.0594492
0.059504
0.0595615
0.0596226
0.0596879
0.0559359
0.0559951
0.0560545
0.0561135
0.0561717
0.0562286
0.0562839
0.0563375
0.0563893
0.0564392
0.0564874
0.0565338
0.0565783
0.0566211
0.0566622
0.0567017
0.0567397
0.0567763
0.0568115
0.0568455
0.0568784
0.0569102
0.0569411
0.0569712
0.0570008
0.05703
0.0570591
0.0570882
0.0571177
0.0571477
0.0571785
0.0572102
0.057243
0.057277
0.0573123
0.057349
0.0573871
0.0574267
0.0574679
0.0575108
0.0575551
0.057601
0.0576482
0.0576966
0.0577464
0.0577976
0.0578507
0.0579059
0.0579637
0.058025
0.0545859
0.0546332
0.0546837
0.0547361
0.0547893
0.0548427
0.0548958
0.0549481
0.0549993
0.0550494
0.0550981
0.0551453
0.0551909
0.0552349
0.0552772
0.0553181
0.0553574
0.0553951
0.0554316
0.0554667
0.0555008
0.0555339
0.0555664
0.0555983
0.0556299
0.0556614
0.0556931
0.0557252
0.0557579
0.0557916
0.0558262
0.055862
0.0558992
0.0559376
0.0559774
0.0560187
0.0560612
0.0561052
0.0561505
0.056197
0.0562446
0.0562931
0.0563425
0.0563925
0.0564433
0.0564949
0.0565474
0.0566017
0.0566577
0.0567169
0.0539125
0.0538877
0.0538721
0.0538659
0.0538678
0.0538765
0.0538907
0.0539095
0.053932
0.0539574
0.0539851
0.0540146
0.0540453
0.054077
0.0541091
0.0541417
0.0541745
0.0542075
0.0542404
0.0542733
0.0543062
0.0543391
0.054372
0.054405
0.0544381
0.0544715
0.0545053
0.0545397
0.0545747
0.0546106
0.0546474
0.0546851
0.0547239
0.0547637
0.0548046
0.0548464
0.0548892
0.0549329
0.0549775
0.0550229
0.0550691
0.0551158
0.0551628
0.0552101
0.0552578
0.055306
0.0553547
0.055405
0.0554571
0.0555118
0.054785
0.0546199
0.0544722
0.0543459
0.0542392
0.05415
0.054076
0.0540153
0.0539662
0.0539274
0.0538975
0.0538755
0.0538603
0.0538512
0.0538474
0.0538483
0.053853
0.053861
0.0538718
0.053885
0.0539003
0.0539172
0.0539354
0.0539545
0.0539742
0.0539945
0.0540151
0.0540359
0.0540566
0.0540773
0.0540978
0.0541182
0.0541385
0.0541588
0.0541792
0.0541998
0.0542206
0.0542419
0.0542638
0.0542864
0.0543097
0.0543335
0.0543577
0.0543821
0.0544066
0.0544309
0.0544554
0.0544792
0.0545039
0.0545281
0.0572954
0.0569962
0.0567297
0.0564957
0.0562883
0.056103
0.0559377
0.0557899
0.0556585
0.0555422
0.0554393
0.0553492
0.0552707
0.0552025
0.0551438
0.0550935
0.0550507
0.0550147
0.0549846
0.0549596
0.0549392
0.0549225
0.054909
0.054898
0.0548889
0.0548812
0.0548746
0.0548686
0.0548631
0.0548577
0.0548526
0.0548478
0.0548434
0.0548394
0.0548355
0.054832
0.0548289
0.0548267
0.0548254
0.0548249
0.0548253
0.0548261
0.0548268
0.0548272
0.0548262
0.0548226
0.0548164
0.0548063
0.0547918
0.0547738
0.0599325
0.0596391
0.059397
0.0591796
0.0589803
0.0587941
0.0586205
0.0584575
0.0583046
0.0581613
0.0580269
0.0579013
0.0577833
0.0576727
0.0575702
0.0574743
0.057384
0.0572988
0.0572179
0.057141
0.0570684
0.0570001
0.0569354
0.0568737
0.0568152
0.0567604
0.0567091
0.0566612
0.0566167
0.0565756
0.0565381
0.0565045
0.0564744
0.0564469
0.056422
0.0564001
0.0563814
0.0563662
0.0563546
0.0563469
0.0563435
0.0563441
0.0563474
0.0563512
0.0563547
0.0563577
0.0563567
0.0563596
0.0563554
0.0563576
0.0610838
0.0609242
0.0607889
0.0606679
0.0605572
0.0604504
0.0603482
0.0602541
0.06016
0.0600665
0.0599763
0.0598889
0.0598022
0.0597189
0.0596392
0.0595612
0.0594841
0.0594073
0.0593304
0.0592531
0.0591758
0.0590997
0.059025
0.0589505
0.0588763
0.0588027
0.0587294
0.0586568
0.0585854
0.0585153
0.0584475
0.0583833
0.0583216
0.0582611
0.0582012
0.0581416
0.0580835
0.0580287
0.0579788
0.0579337
0.0578916
0.0578528
0.0578188
0.0577871
0.0577546
0.0577271
0.0576963
0.0576562
0.0576244
0.0575778
0.0611809
0.0611223
0.0610651
0.0610092
0.0609543
0.0609006
0.0608472
0.0607944
0.0607422
0.0606901
0.0606384
0.0605869
0.0605357
0.0604846
0.0604339
0.0603832
0.0603327
0.0602823
0.0602321
0.0601822
0.0601327
0.0600837
0.0600349
0.0599864
0.0599379
0.0598894
0.059841
0.0597927
0.0597447
0.0596972
0.0596504
0.0596041
0.0595581
0.0595121
0.0594661
0.0594204
0.0593752
0.0593308
0.0592868
0.0592431
0.0592003
0.0591589
0.0591176
0.0590767
0.0590372
0.0589951
0.0589559
0.0589151
0.0588722
0.058828
0.0612024
0.0611674
0.0611328
0.0610983
0.0610638
0.0610295
0.0609954
0.0609612
0.060927
0.0608928
0.0608588
0.0608249
0.0607909
0.0607571
0.0607234
0.0606897
0.0606561
0.0606226
0.0605892
0.060556
0.0605227
0.0604893
0.060456
0.0604225
0.060389
0.0603555
0.060322
0.0602884
0.0602547
0.060221
0.0601873
0.0601536
0.0601198
0.0600861
0.0600523
0.0600186
0.059985
0.0599516
0.0599184
0.0598853
0.0598525
0.05982
0.0597876
0.0597554
0.0597235
0.0596913
0.059659
0.0596265
0.059594
0.0595604
0.0612124
0.0611879
0.0611634
0.0611388
0.061114
0.0610892
0.0610643
0.0610394
0.0610143
0.0609892
0.0609641
0.0609387
0.0609133
0.0608878
0.0608622
0.0608366
0.060811
0.0607855
0.0607601
0.0607348
0.0607095
0.0606842
0.0606589
0.0606335
0.0606081
0.0605827
0.0605572
0.0605318
0.0605064
0.0604811
0.0604557
0.0604304
0.0604051
0.0603797
0.0603544
0.0603291
0.0603039
0.0602786
0.0602533
0.060228
0.0602027
0.0601773
0.0601519
0.0601266
0.060101
0.0600759
0.0600505
0.0600249
0.059999
0.059973
0.0612165
0.0611965
0.0611765
0.0611565
0.0611365
0.0611165
0.0610964
0.0610764
0.0610564
0.0610364
0.0610165
0.0609966
0.0609768
0.0609569
0.0609369
0.060917
0.0608971
0.0608771
0.0608571
0.060837
0.0608169
0.0607967
0.0607764
0.0607562
0.0607359
0.0607157
0.0606953
0.060675
0.0606545
0.0606341
0.0606136
0.0605931
0.0605726
0.0605522
0.0605318
0.0605114
0.060491
0.0604706
0.0604503
0.06043
0.0604098
0.0603895
0.0603694
0.0603492
0.0603289
0.0603086
0.0602884
0.0602679
0.0602474
0.0602267
0.061221
0.0612058
0.0611904
0.0611749
0.0611594
0.0611438
0.0611282
0.0611125
0.0610967
0.0610808
0.0610649
0.0610489
0.0610328
0.0610166
0.0610003
0.060984
0.0609677
0.0609513
0.060935
0.0609186
0.0609022
0.0608858
0.0608693
0.0608527
0.0608362
0.0608196
0.0608029
0.0607862
0.0607695
0.0607528
0.0607361
0.0607194
0.0607028
0.0606861
0.0606694
0.0606526
0.0606358
0.0606189
0.060602
0.060585
0.060568
0.0605509
0.0605338
0.0605165
0.0604995
0.0604822
0.0604652
0.0604481
0.0604308
0.0604135
0.061221
0.0612056
0.0611903
0.061175
0.0611596
0.0611443
0.0611289
0.0611135
0.0610981
0.0610827
0.0610673
0.061052
0.0610368
0.0610215
0.0610063
0.0609911
0.060976
0.0609609
0.0609458
0.0609308
0.0609158
0.0609007
0.0608857
0.0608707
0.0608557
0.0608407
0.0608257
0.0608107
0.0607956
0.0607806
0.0607656
0.0607505
0.0607355
0.0607205
0.0607056
0.0606907
0.0606758
0.0606609
0.0606461
0.0606313
0.0606165
0.0606017
0.0605869
0.060572
0.0605573
0.0605427
0.0605281
0.0605139
0.0604999
0.0604866
0.0612253
0.0612157
0.0612065
0.0611973
0.0611883
0.0611793
0.0611705
0.061162
0.0611538
0.0611463
0.0611395
0.0611332
0.0611275
0.0611224
0.0611178
0.0611132
0.0611086
0.0611039
0.0611001
0.0610969
0.0610938
0.0610907
0.0610873
0.0610836
0.0610795
0.0610747
0.0610692
0.0610629
0.0610558
0.0610479
0.0610394
0.0610302
0.0610206
0.0610109
0.0610019
0.0609941
0.0609877
0.0609826
0.0609785
0.0609749
0.0609712
0.0609671
0.0609627
0.0609585
0.0609545
0.0609518
0.0609506
0.060953
0.0609607
0.0609765
0.0614578
0.0616782
0.0618941
0.0621063
0.0623149
0.0625198
0.0627212
0.062919
0.0631134
0.0633043
0.0634916
0.0636751
0.0638543
0.0642475
0.0649995
0.065795
0.0664037
0.0666937
0.0670301
0.0674899
0.067956
0.0683075
0.0685408
0.0686896
0.0687602
0.0687498
0.068666
0.0685224
0.0683309
0.0681187
0.068074
0.0681418
0.0682807
0.0684587
0.0685772
0.0686856
0.0688077
0.0689339
0.0690524
0.069165
0.0692737
0.0693763
0.0694726
0.0695621
0.0696444
0.0697192
0.0697858
0.0699408
0.0702513
0.0708107
0.38437
0.381964
0.379193
0.376777
0.374567
0.372509
0.370624
0.368907
0.367302
0.365713
0.36403
0.362145
0.359968
0.35744
0.354668
0.351841
0.349006
0.346235
0.343454
0.340677
0.33791
0.335139
0.332354
0.329549
0.326714
0.32384
0.320917
0.317933
0.314876
0.311728
0.308481
0.305252
0.302081
0.299032
0.296199
0.293576
0.291131
0.288809
0.286525
0.284218
0.28186
0.279454
0.277023
0.274591
0.272172
0.269754
0.267326
0.264887
0.262518
0.260204
0.27115
0.267807
0.264606
0.261535
0.25858
0.255723
0.252947
0.250248
0.24762
0.245061
0.242568
0.240139
0.237772
0.235467
0.23322
0.231031
0.228897
0.226815
0.224785
0.222804
0.22087
0.218983
0.217141
0.215344
0.21359
0.211878
0.210207
0.208575
0.20698
0.205422
0.2039
0.202412
0.200958
0.199538
0.19815
0.196794
0.195469
0.194176
0.192912
0.191673
0.190456
0.189258
0.188078
0.186913
0.185759
0.184611
0.18346
0.182297
0.181106
0.179866
0.269206
0.263036
0.257147
0.251513
0.246127
0.240978
0.236058
0.231353
0.226847
0.222528
0.218385
0.21441
0.210591
0.206922
0.203393
0.199996
0.196724
0.193568
0.190522
0.18758
0.184738
0.181991
0.179335
0.176765
0.174278
0.171868
0.169532
0.167266
0.165065
0.162927
0.160849
0.158827
0.156861
0.154946
0.153081
0.151261
0.149485
0.14775
0.146052
0.144397
0.142784
0.141213
0.13968
0.138185
0.136726
0.135301
0.133899
0.132499
0.131078
0.129638
0.269198
0.263009
0.25708
0.251408
0.245981
0.240785
0.235804
0.231025
0.226435
0.222024
0.217782
0.213699
0.209767
0.205979
0.202327
0.198802
0.195399
0.19211
0.188929
0.185851
0.182873
0.179988
0.177194
0.174487
0.171862
0.169316
0.166845
0.164446
0.162114
0.159847
0.157643
0.155499
0.153413
0.151382
0.149406
0.147482
0.145608
0.143783
0.142004
0.140272
0.138584
0.136938
0.135333
0.133767
0.13224
0.130758
0.12933
0.127955
0.126599
0.125177
0.269198
0.263054
0.257179
0.25156
0.246179
0.241021
0.236071
0.231316
0.226745
0.222346
0.218112
0.214033
0.210103
0.206314
0.202658
0.199128
0.195717
0.192419
0.189228
0.18614
0.183149
0.180252
0.177446
0.174725
0.172087
0.169528
0.167043
0.164629
0.162283
0.160003
0.157785
0.155628
0.153528
0.151485
0.149496
0.14756
0.145673
0.143835
0.142044
0.140299
0.138599
0.136942
0.135326
0.133749
0.132204
0.130688
0.129209
0.12779
0.126442
0.12508
0.269198
0.263056
0.257179
0.251553
0.246163
0.240994
0.236034
0.231271
0.226692
0.222288
0.218051
0.213971
0.210041
0.206253
0.202599
0.199072
0.195665
0.19237
0.189183
0.186099
0.183113
0.180221
0.17742
0.174704
0.172071
0.169516
0.167035
0.164626
0.162285
0.160008
0.157794
0.155641
0.153545
0.151506
0.14952
0.147587
0.145703
0.143868
0.142079
0.140336
0.138637
0.136981
0.135367
0.133796
0.132264
0.130763
0.129284
0.127835
0.126453
0.125101
0.269199
0.26306
0.25719
0.251573
0.246194
0.241037
0.236089
0.231336
0.226768
0.222375
0.218147
0.214075
0.210152
0.20637
0.202721
0.199197
0.195792
0.1925
0.189314
0.186231
0.183245
0.180353
0.177551
0.174834
0.1722
0.169644
0.167161
0.16475
0.162407
0.160128
0.157912
0.155756
0.153658
0.151616
0.149628
0.147692
0.145805
0.143967
0.142175
0.140429
0.138726
0.137064
0.135442
0.13386
0.13232
0.130822
0.129353
0.127903
0.126498
0.125132
0.269199
0.263061
0.257193
0.251577
0.246197
0.241039
0.236089
0.231333
0.226762
0.222365
0.218134
0.214059
0.210134
0.206349
0.202697
0.199171
0.195764
0.192471
0.189284
0.186199
0.183213
0.180321
0.177518
0.174802
0.172168
0.169612
0.167131
0.16472
0.162377
0.160099
0.157884
0.155729
0.153633
0.151592
0.149605
0.147669
0.145783
0.143946
0.142154
0.140409
0.138707
0.137048
0.135427
0.133843
0.132295
0.130789
0.129323
0.127881
0.126472
0.125098
0.269199
0.263062
0.257195
0.25158
0.246203
0.241047
0.236098
0.231346
0.226778
0.222384
0.218156
0.214085
0.210162
0.20638
0.202731
0.199208
0.195803
0.192511
0.189326
0.186243
0.183258
0.180367
0.177566
0.17485
0.172216
0.16966
0.167179
0.164768
0.162424
0.160146
0.15793
0.155775
0.153677
0.151635
0.149647
0.14771
0.145823
0.143983
0.14219
0.140441
0.138736
0.137073
0.135452
0.133867
0.132315
0.1308
0.129325
0.127881
0.126468
0.125087
0.269199
0.263062
0.257196
0.251582
0.246205
0.241049
0.236101
0.231348
0.22678
0.222386
0.218157
0.214084
0.21016
0.206377
0.202727
0.199202
0.195796
0.192502
0.189316
0.186232
0.183246
0.180354
0.177552
0.174835
0.172201
0.169644
0.167162
0.164751
0.162407
0.160128
0.157912
0.155757
0.153659
0.151617
0.149629
0.147692
0.145804
0.143964
0.14217
0.140421
0.138714
0.137048
0.135424
0.133839
0.132288
0.13077
0.129289
0.127842
0.126426
0.125042
0.269199
0.263062
0.257196
0.251583
0.246206
0.24105
0.236103
0.231351
0.226783
0.22239
0.218161
0.214089
0.210166
0.206383
0.202733
0.199208
0.195803
0.19251
0.189324
0.186241
0.183255
0.180363
0.177561
0.174845
0.172211
0.169655
0.167173
0.164761
0.162417
0.160138
0.157922
0.155766
0.153668
0.151625
0.149636
0.147698
0.14581
0.143969
0.142174
0.140423
0.138715
0.137046
0.135418
0.133829
0.132276
0.130756
0.12927
0.127818
0.126398
0.125009
0.269199
0.263062
0.257196
0.251583
0.246206
0.241051
0.236104
0.231352
0.226784
0.222391
0.218162
0.21409
0.210166
0.206382
0.202732
0.199207
0.195801
0.192508
0.189322
0.186239
0.183253
0.180361
0.177559
0.174843
0.172209
0.169652
0.16717
0.164758
0.162414
0.160134
0.157917
0.155761
0.153662
0.151619
0.14963
0.147692
0.145802
0.14396
0.142163
0.140411
0.138701
0.137031
0.1354
0.133807
0.132251
0.130729
0.12924
0.127784
0.126359
0.124966
0.269199
0.263062
0.257196
0.251582
0.246205
0.24105
0.236103
0.231351
0.226782
0.222388
0.218159
0.214085
0.21016
0.206376
0.202724
0.199199
0.195792
0.192498
0.189311
0.186226
0.18324
0.180348
0.177546
0.174829
0.172194
0.169638
0.167155
0.164742
0.162398
0.160118
0.1579
0.155743
0.153644
0.151601
0.149611
0.147673
0.145783
0.14394
0.142142
0.140388
0.138676
0.137005
0.135373
0.133777
0.132218
0.130694
0.129203
0.127744
0.126316
0.124918
0.269199
0.263062
0.257195
0.251581
0.246204
0.241049
0.236101
0.23135
0.226782
0.222388
0.218159
0.214087
0.210162
0.206379
0.202728
0.199203
0.195797
0.192504
0.189318
0.186234
0.183249
0.180357
0.177556
0.17484
0.172206
0.169649
0.167166
0.164754
0.162408
0.160128
0.157909
0.155751
0.153652
0.151608
0.149617
0.147678
0.145787
0.143942
0.142143
0.140386
0.138671
0.136997
0.135361
0.133763
0.132201
0.130673
0.129177
0.127714
0.126281
0.124878
0.269199
0.263061
0.257193
0.251578
0.246199
0.241042
0.236092
0.231338
0.226767
0.22237
0.218137
0.214061
0.210134
0.206347
0.202693
0.199165
0.195756
0.192461
0.189273
0.186188
0.183201
0.180309
0.177506
0.17479
0.172156
0.169599
0.167115
0.164702
0.162357
0.160076
0.157857
0.155699
0.1536
0.151556
0.149566
0.147627
0.145736
0.143892
0.142092
0.140334
0.138619
0.136943
0.135307
0.133708
0.132145
0.130615
0.129119
0.127653
0.126218
0.124812
0.269199
0.26306
0.257191
0.251575
0.246196
0.24104
0.236093
0.231341
0.226773
0.222379
0.21815
0.214077
0.210152
0.206368
0.202716
0.19919
0.195783
0.192488
0.189301
0.186217
0.18323
0.180338
0.177536
0.174819
0.172184
0.169627
0.167142
0.164728
0.16238
0.160097
0.157877
0.155717
0.153616
0.15157
0.149578
0.147636
0.145743
0.143896
0.142092
0.140332
0.138613
0.136934
0.135294
0.133691
0.132123
0.13059
0.129088
0.127617
0.126177
0.124764
0.269199
0.263057
0.25718
0.251555
0.246165
0.240998
0.236038
0.231275
0.226696
0.222292
0.218054
0.213973
0.210041
0.206251
0.202595
0.199065
0.195655
0.192358
0.189169
0.186084
0.183098
0.180206
0.177405
0.174689
0.172055
0.169499
0.167016
0.164602
0.162256
0.159975
0.157756
0.155598
0.153498
0.151454
0.149464
0.147524
0.145632
0.143786
0.141984
0.140224
0.138506
0.136828
0.135188
0.133586
0.132019
0.130485
0.128984
0.127513
0.126071
0.124657
0.269199
0.263056
0.257182
0.251563
0.246183
0.241025
0.236075
0.231319
0.226747
0.222348
0.218113
0.214034
0.210103
0.206312
0.202653
0.19912
0.195707
0.192406
0.189213
0.186123
0.183132
0.180236
0.17743
0.17471
0.172071
0.169509
0.167021
0.164602
0.162251
0.159964
0.157741
0.155578
0.153474
0.151427
0.149433
0.147489
0.145594
0.143744
0.141938
0.140175
0.138454
0.136773
0.135132
0.133528
0.13196
0.130426
0.128925
0.127455
0.126016
0.124608
0.269199
0.263011
0.257084
0.251413
0.245986
0.240789
0.235807
0.231027
0.226436
0.222025
0.217782
0.213699
0.209767
0.205977
0.202323
0.198796
0.19539
0.192098
0.188915
0.185836
0.182858
0.179974
0.177182
0.174476
0.171851
0.169304
0.166831
0.164427
0.162092
0.159821
0.157615
0.155469
0.153384
0.151354
0.149379
0.147456
0.14558
0.143752
0.141969
0.140231
0.138535
0.136883
0.135273
0.133704
0.132175
0.130685
0.129235
0.127825
0.126459
0.125142
0.269207
0.263041
0.257154
0.25152
0.246134
0.240983
0.236062
0.231355
0.226848
0.22253
0.218388
0.214414
0.210597
0.206927
0.203398
0.199999
0.196724
0.193566
0.190519
0.187579
0.18474
0.181997
0.179347
0.176784
0.174303
0.171899
0.16957
0.16731
0.165119
0.162992
0.16093
0.15893
0.156991
0.155109
0.153283
0.15151
0.149788
0.148115
0.146491
0.144915
0.143388
0.14191
0.140483
0.139107
0.137784
0.136516
0.135308
0.13417
0.133119
0.132188
0.271149
0.267809
0.26461
0.261541
0.258586
0.255729
0.252952
0.25025
0.24762
0.24506
0.242566
0.240138
0.237771
0.235465
0.233217
0.231026
0.228888
0.226803
0.22477
0.222787
0.220853
0.218966
0.217124
0.215326
0.213569
0.211853
0.210174
0.208534
0.20693
0.205362
0.20383
0.202332
0.200867
0.199433
0.198029
0.196652
0.195303
0.19398
0.192683
0.191409
0.19016
0.188934
0.187728
0.186542
0.185374
0.184221
0.183082
0.181955
0.180835
0.17972
0.117903
0.0558902
0.0580723
0.0658864
0.0745709
0.0815862
0.0849477
0.0832366
0.0756741
0.0625791
0.0465549
0.0338332
0.0294421
0.0293114
0.0316262
0.0340768
0.0380782
0.0418627
0.0532778
0.153124
0.117337
0.0557969
0.0577774
0.0655286
0.0743309
0.0815834
0.0852093
0.0837108
0.076258
0.0631503
0.0470012
0.0341091
0.0296765
0.0296286
0.0317227
0.0341564
0.0381601
0.0419835
0.0540948
0.154381
0.116791
0.0557074
0.0574689
0.0651338
0.0740375
0.0815253
0.08543
0.0841735
0.0768712
0.0637933
0.0475413
0.0344458
0.0299048
0.0298086
0.0317602
0.0341807
0.0381536
0.0420179
0.0548882
0.155612
0.116268
0.0556229
0.057148
0.0647023
0.0736891
0.0814091
0.0856071
0.0846231
0.0775133
0.0645093
0.0481784
0.034847
0.0301365
0.0300199
0.0318158
0.03422
0.038155
0.0420785
0.0558036
0.156827
0.11577
0.0555448
0.0568165
0.0642348
0.073285
0.0812332
0.0857383
0.0850573
0.0781827
0.0652978
0.0489137
0.0353168
0.0303764
0.0302344
0.0318859
0.034274
0.0381652
0.0421698
0.0568245
0.158027
0.115296
0.0554743
0.0564769
0.0637336
0.0728257
0.0809961
0.0858212
0.0854729
0.0788757
0.0661545
0.0497444
0.0358577
0.0306272
0.0304426
0.0319689
0.0343406
0.0381846
0.0422947
0.0579369
0.159213
0.114845
0.055413
0.0561324
0.0632014
0.0723122
0.080697
0.0858533
0.0858669
0.079588
0.0670736
0.0506647
0.0364701
0.0308912
0.0306386
0.0320643
0.0344195
0.038215
0.0424584
0.0591335
0.160382
0.114417
0.0553624
0.0557863
0.0626414
0.0717458
0.0803351
0.0858324
0.0862353
0.0803146
0.0680488
0.0516687
0.037155
0.0311771
0.030829
0.0321732
0.0345119
0.0382589
0.042667
0.06041
0.161533
0.114011
0.055324
0.0554421
0.0620574
0.0711285
0.07991
0.0857561
0.0865746
0.0810507
0.0690739
0.0527505
0.037913
0.031492
0.0310203
0.0322981
0.0346195
0.0383194
0.0429271
0.0617629
0.162664
0.113625
0.0552986
0.0551034
0.0614535
0.0704627
0.0794219
0.0856224
0.0868813
0.0817917
0.0701447
0.0539077
0.0387462
0.0318416
0.0312189
0.0324414
0.0347442
0.0384
0.0432455
0.0631885
0.163774
0.11326
0.0552875
0.0547736
0.0608343
0.0697514
0.0788706
0.0854289
0.0871518
0.0825342
0.0712585
0.0551403
0.0396603
0.0322332
0.0314336
0.0326067
0.0348883
0.0385046
0.0436285
0.0646823
0.164861
0.112914
0.0552918
0.0544567
0.0602046
0.0689972
0.0782562
0.0851731
0.0873824
0.0832754
0.0724154
0.0564522
0.0406633
0.0326749
0.0316721
0.0327974
0.0350542
0.0386374
0.0440819
0.0662396
0.165923
0.112589
0.0553125
0.0541558
0.0595691
0.0682032
0.0775784
0.0848525
0.0875698
0.084013
0.0736167
0.057851
0.041767
0.0331752
0.0319432
0.033017
0.0352443
0.038803
0.0446108
0.0678553
0.166959
0.112284
0.0553502
0.0538739
0.0589324
0.0673724
0.0768368
0.0844639
0.0877101
0.0847454
0.0748657
0.0593468
0.0429873
0.0337442
0.0322532
0.033268
0.035461
0.0390064
0.0452195
0.0695243
0.167966
0.112001
0.055405
0.0536132
0.058299
0.066508
0.0760311
0.0840036
0.0877986
0.0854701
0.0761662
0.0609522
0.0443442
0.034394
0.0326036
0.0335524
0.0357067
0.0392526
0.0459114
0.071241
0.168943
0.111741
0.0554773
0.0533761
0.0576738
0.0656135
0.0751607
0.0834673
0.0878299
0.0861839
0.0775218
0.0626817
0.0458621
0.0351426
0.0329944
0.0338721
0.0359842
0.0395468
0.0466886
0.0729984
0.169887
0.111505
0.0555672
0.0531648
0.0570619
0.0646926
0.0742246
0.0828496
0.0877965
0.0868819
0.0789349
0.0645498
0.0475693
0.0360152
0.033424
0.0342289
0.0362962
0.0398942
0.0475519
0.0747882
0.170797
0.111296
0.0556754
0.0529808
0.0564677
0.063749
0.0732215
0.082144
0.0876895
0.0875569
0.0804053
0.0665697
0.0494963
0.0370468
0.0338938
0.0346246
0.0366457
0.0402998
0.0485009
0.0766009
0.171673
0.111118
0.0558021
0.0528252
0.0558959
0.0627868
0.0721504
0.0813433
0.0874977
0.0881981
0.0819291
0.0687515
0.0516739
0.0382833
0.0345588
0.0350632
0.0370361
0.0407689
0.049534
0.078426
0.172513
0.110974
0.0559474
0.0526988
0.055351
0.0618111
0.0710106
0.0804391
0.087207
0.0887905
0.0834969
0.0711011
0.054135
0.0397459
0.0351319
0.0355443
0.0374711
0.0413069
0.0506488
0.080253
0.173317
0.110866
0.0561114
0.0526019
0.0548377
0.0608277
0.069802
0.0794219
0.0868004
0.089314
0.0850927
0.073618
0.0569138
0.0415394
0.0358019
0.0360668
0.0379557
0.0419193
0.0518421
0.0820721
0.174083
0.1108
0.0562947
0.0525348
0.0543603
0.0598435
0.0685254
0.0782819
0.0862578
0.089743
0.0866934
0.0762948
0.0600434
0.0437623
0.0365709
0.036634
0.0384961
0.0426121
0.053111
0.0838777
0.174811
0.110779
0.0564981
0.0524975
0.0539234
0.0588663
0.0671829
0.0770085
0.0855563
0.0900461
0.0882665
0.0791101
0.0635392
0.0465191
0.037532
0.0372527
0.0391003
0.0433924
0.0544555
0.0856729
0.175502
0.110809
0.0567221
0.0524896
0.0535306
0.0579053
0.0657789
0.0755923
0.0846704
0.0901856
0.0897692
0.0820278
0.0673962
0.0499055
0.0388463
0.0379353
0.0397792
0.0442714
0.0558848
0.0874784
0.176156
0.110894
0.0569676
0.0525106
0.0531857
0.0569712
0.0643207
0.074025
0.0835723
0.0901173
0.091148
0.0849962
0.071587
0.0539924
0.0407464
0.0387045
0.0405522
0.0452706
0.0574279
0.0893398
0.176773
0.111038
0.0572355
0.05256
0.0528924
0.056076
0.0628195
0.0723011
0.0822328
0.0897901
0.0923375
0.0879467
0.0760601
0.0588116
0.0435142
0.0396099
0.0414584
0.0464355
0.0591489
0.0913355
0.177353
0.111248
0.0575273
0.0526375
0.052654
0.0552333
0.061291
0.070419
0.0806221
0.0891461
0.0932593
0.0907927
0.0807386
0.0643501
0.0474329
0.0407676
0.0425831
0.0478611
0.0611653
0.0935774
0.177897
0.111527
0.057845
0.0527432
0.0524739
0.054458
0.0597565
0.0683841
0.0787122
0.0881211
0.0938205
0.0934261
0.0855165
0.0705501
0.0527509
0.0424444
0.0441137
0.0497316
0.0636573
0.0962007
0.178403
0.111881
0.0581904
0.0528766
0.0523546
0.0537658
0.0582444
0.066212
0.0764805
0.0866463
0.0939121
0.0957118
0.0902501
0.077294
0.0596808
0.0457805
0.0464283
0.0523573
0.0668564
0.0993426
0.178867
0.112315
0.0585653
0.0530371
0.0522982
0.0531733
0.0567911
0.0639329
0.0739157
0.0846516
0.0934072
0.0974816
0.0947472
0.0843743
0.0681757
0.0530366
0.0501195
0.0561477
0.0709988
0.103109
0.179283
0.112831
0.0589711
0.0532235
0.0523057
0.0526968
0.0554407
0.0615974
0.0710273
0.0820733
0.0921632
0.0985269
0.0987533
0.0914524
0.077433
0.0619323
0.0558027
0.0614752
0.0762481
0.107536
0.179644
0.113431
0.0594089
0.0534346
0.0523766
0.05235
0.0542432
0.0592801
0.0678583
0.0788702
0.0900318
0.0985977
0.101948
0.0982001
0.0872096
0.0725529
0.0637864
0.0685135
0.0826375
0.112574
0.179938
0.114117
0.0598802
0.0536683
0.0525075
0.0521415
0.0532496
0.0570819
0.0645012
0.0750481
0.0868831
0.0974119
0.103911
0.104104
0.0969893
0.0844499
0.073863
0.0771656
0.0900624
0.118102
0.180147
0.114888
0.0603858
0.0539222
0.0526922
0.0520712
0.0525026
0.055124
0.0611121
0.0706942
0.08265
0.0947007
0.104152
0.10847
0.105981
0.0971658
0.0868889
0.0871315
0.098324
0.123957
0.180251
0.11574
0.0609259
0.0541932
0.0529217
0.0521283
0.0520254
0.0535288
0.0579126
0.0660142
0.07739
0.0902844
0.102199
0.110483
0.112948
0.10892
0.101202
0.0980211
0.10717
0.129965
0.180218
0.116669
0.0614999
0.0544779
0.0531852
0.0522923
0.0518123
0.0523877
0.055163
0.0613552
0.071355
0.0841744
0.0977367
0.109463
0.116808
0.118023
0.113679
0.109395
0.116328
0.135957
0.180009
0.117668
0.0621063
0.0547735
0.0534722
0.0525367
0.051827
0.0517269
0.0530939
0.0571809
0.0650468
0.0766711
0.0907064
0.104925
0.116735
0.123708
0.124502
0.121058
0.125556
0.141802
0.179569
0.118728
0.0627429
0.0550777
0.0537737
0.0528336
0.0520116
0.0514932
0.0518139
0.0539574
0.059221
0.0684935
0.0814776
0.0966638
0.111796
0.124338
0.132035
0.134184
0.134674
0.1474
0.178813
0.119837
0.0634065
0.0553889
0.0540832
0.0531592
0.0523031
0.0515743
0.0512547
0.0519441
0.0547049
0.0608347
0.0711273
0.0852024
0.101546
0.117918
0.131712
0.140491
0.143565
0.152608
0.177612
0.120983
0.0640932
0.0557058
0.0543961
0.0534968
0.0526487
0.0518436
0.051213
0.051046
0.0519717
0.0550494
0.0615605
0.0723417
0.0871751
0.104788
0.123133
0.139591
0.151336
0.157252
0.175732
0.122155
0.0647979
0.0560272
0.0547096
0.0538364
0.0530144
0.0522006
0.0514594
0.0509037
0.0508263
0.0518085
0.0548179
0.0610559
0.0714688
0.0862596
0.104782
0.125633
0.14646
0.163487
0.172819
0.123336
0.0655147
0.0563518
0.0550222
0.0541734
0.0533826
0.0525866
0.0518271
0.0511395
0.0506481
0.0506097
0.0515227
0.0541701
0.0595017
0.0683554
0.0812598
0.0986067
0.120909
0.148541
0.180404
0.124516
0.0662372
0.0566788
0.0553335
0.0545059
0.0537462
0.0529751
0.0522301
0.0515149
0.0508877
0.0504571
0.050466
0.0513531
0.0537438
0.0582711
0.0652273
0.0742923
0.0845717
0.0949862
0.105888
0.12568
0.0669589
0.0570075
0.0556438
0.0548339
0.0541033
0.0533563
0.0526344
0.0519263
0.051265
0.0506941
0.0503344
0.0504429
0.0514795
0.0541242
0.059105
0.066861
0.0772983
0.0899098
0.104598
0.126817
0.0676735
0.0573369
0.0559526
0.0551577
0.0544543
0.0537285
0.0530291
0.052338
0.051678
0.051063
0.0505515
0.0502823
0.0505498
0.0519171
0.0552442
0.0615658
0.0717535
0.0864001
0.10729
0.127919
0.0683759
0.0576669
0.0562594
0.055476
0.0547976
0.0540905
0.0534113
0.0527377
0.0520894
0.0514686
0.0509031
0.0504617
0.0503252
0.0508995
0.0529784
0.0578958
0.0673799
0.0832441
0.109073
0.128975
0.0690608
0.0579974
0.0565661
0.0557906
0.055134
0.0544426
0.0537821
0.0531238
0.0524882
0.0518738
0.0512932
0.0507797
0.0504372
0.0505472
0.051755
0.0554637
0.0640078
0.0804892
0.110382
0.12998
0.0697224
0.0583253
0.0568706
0.0561018
0.0554652
0.0547858
0.0541421
0.053498
0.0528742
0.0522684
0.0516845
0.0511452
0.0506967
0.0505435
0.0511653
0.0539085
0.0614437
0.0781297
0.111406
0.130932
0.0703608
0.0586525
0.057173
0.0564087
0.0557919
0.0551229
0.0544921
0.0538597
0.0532477
0.05265
0.0520677
0.0515192
0.0510173
0.0507142
0.0509485
0.0529532
0.0595157
0.0761324
0.112241
0.131824
0.070972
0.0589797
0.057477
0.0567144
0.0561143
0.0554558
0.0548364
0.0542119
0.0536085
0.053018
0.0524383
0.0518882
0.0513574
0.0509704
0.0509472
0.052401
0.0580806
0.0744592
0.112944
0.132657
0.0715529
0.0593028
0.0577791
0.0570199
0.0564337
0.0557816
0.0551751
0.0545576
0.0539584
0.0533771
0.052796
0.0522499
0.0517001
0.0512672
0.0510697
0.0521168
0.0570254
0.0730694
0.113549
0.133435
0.0721084
0.0596263
0.0580807
0.0573245
0.0567535
0.0561022
0.0555055
0.0548961
0.0542993
0.0537259
0.0531452
0.0526034
0.0520406
0.0515823
0.0512643
0.0520123
0.0562616
0.0719234
0.114082
0.134152
0.0726342
0.0599478
0.0583829
0.0576259
0.0570705
0.0564239
0.0558314
0.0552277
0.0546362
0.0540652
0.0534873
0.0529489
0.0523761
0.0519049
0.0515011
0.0520278
0.0557214
0.0709885
0.114561
0.134815
0.0731332
0.0602671
0.0586872
0.057929
0.0573804
0.0567432
0.0561555
0.0555553
0.0549691
0.0544009
0.053823
0.0532887
0.0527072
0.0522294
0.0517623
0.0521251
0.0553545
0.0702366
0.114996
0.135427
0.0736074
0.0605841
0.0589907
0.0582359
0.0576906
0.0570587
0.0564762
0.0558817
0.0552964