/*--------------------------------*- C++ -*----------------------------------*\
  =========                 |
  \\      /  F ield         | OpenFOAM: The Open Source CFD Toolbox
   \\    /   O peration     | Website:  https://openfoam.org
    \\  /    A nd           | Version:  8
     \\/     M anipulation  |
\*---------------------------------------------------------------------------*/
FoamFile
{
    version     2.0;
    format      ascii;
    class       volScalarField;
    location    "700";
    object      epsilon;
}
// * * * * * * * * * * * * * * * * * * * * * * * * * * * * * * * * * * * * * //

dimensions      [0 2 -3 0 0 0 0];

internalField   nonuniform List<scalar> 
8400
(
2.18967
2.10254
2.01901
1.93908
1.86263
1.7895
1.71954
1.65262
1.5886
1.52739
1.46886
1.41292
1.35947
1.30839
1.25958
1.21293
1.16833
1.12569
1.0849
1.04586
1.00848
0.972651
0.9383
0.90534
0.87369
0.843277
0.814033
0.785892
0.758797
0.732693
0.707532
0.68327
0.659867
0.637287
0.615498
0.594472
0.574183
0.554607
0.535725
0.517519
0.499974
0.483078
0.466824
0.451209
0.436235
0.421917
0.408284
0.395388
0.383297
0.372118
0.0201682
0.0197486
0.0193649
0.0190138
0.0186925
0.0183987
0.0181305
0.0178859
0.0176634
0.0174613
0.017278
0.0171123
0.0169628
0.0168283
0.0167075
0.0165993
0.0165027
0.0164168
0.0163406
0.0162732
0.0162138
0.0161617
0.0161161
0.0160764
0.0160419
0.016012
0.0159862
0.015964
0.015945
0.0159286
0.0159146
0.0159026
0.0158925
0.0158839
0.0158767
0.0158708
0.0158661
0.0158625
0.01586
0.0158586
0.0158584
0.0158593
0.0158617
0.0158656
0.0158713
0.0158791
0.0158894
0.0159028
0.0159202
0.0159427
0.0122882
0.0122778
0.0122712
0.0122682
0.0122683
0.0122715
0.0122773
0.0122856
0.0122962
0.0123089
0.0123234
0.0123397
0.0123576
0.012377
0.0123976
0.0124194
0.0124423
0.012466
0.0124906
0.0125158
0.0125415
0.0125678
0.0125944
0.0126212
0.0126483
0.0126756
0.0127028
0.0127302
0.0127574
0.0127846
0.0128118
0.0128389
0.012866
0.0128931
0.0129203
0.0129476
0.012975
0.0130027
0.0130306
0.013059
0.0130878
0.0131172
0.0131474
0.0131784
0.0132106
0.0132441
0.0132793
0.0133166
0.0133564
0.0133996
0.0110195
0.0110331
0.0110488
0.0110659
0.011084
0.0111029
0.0111225
0.0111426
0.0111631
0.0111839
0.0112051
0.0112265
0.0112481
0.0112698
0.0112917
0.0113137
0.0113356
0.0113576
0.0113795
0.0114012
0.0114229
0.0114444
0.0114657
0.0114868
0.0115077
0.0115284
0.0115488
0.011569
0.011589
0.0116088
0.0116285
0.0116481
0.0116677
0.0116873
0.011707
0.0117269
0.0117471
0.0117677
0.0117887
0.0118102
0.0118323
0.0118552
0.0118789
0.0119036
0.0119295
0.0119567
0.0119856
0.0120163
0.0120493
0.0120851
0.0100452
0.0100696
0.0100948
0.0101205
0.0101464
0.0101723
0.0101981
0.0102236
0.0102489
0.0102738
0.0102983
0.0103224
0.0103461
0.0103694
0.0103923
0.0104148
0.0104368
0.0104584
0.0104795
0.0105002
0.0105204
0.0105402
0.0105596
0.0105786
0.0105971
0.0106153
0.0106331
0.0106507
0.0106679
0.010685
0.0107019
0.0107188
0.0107357
0.0107528
0.0107701
0.0107877
0.0108056
0.0108241
0.0108431
0.0108627
0.010883
0.0109042
0.0109262
0.0109493
0.0109735
0.0109989
0.0110257
0.0110542
0.0110847
0.0111175
0.0093207
0.0093395
0.00936017
0.00938219
0.00940519
0.00942884
0.0094529
0.0094772
0.00950158
0.00952593
0.00955016
0.00957421
0.00959801
0.00962152
0.00964469
0.00966746
0.00968982
0.00971176
0.00973325
0.00975428
0.00977485
0.00979494
0.00981458
0.00983379
0.00985259
0.00987102
0.00988912
0.00990695
0.00992455
0.00994203
0.00995945
0.00997691
0.0099945
0.0100123
0.0100305
0.010049
0.010068
0.0100876
0.0101077
0.0101285
0.0101501
0.0101724
0.0101956
0.0102198
0.0102449
0.0102711
0.0102986
0.0103274
0.0103578
0.0103902
0.00902272
0.00900595
0.00899334
0.00898502
0.00898064
0.00897973
0.00898177
0.00898634
0.00899307
0.00900161
0.00901172
0.00902315
0.0090357
0.00904918
0.00906347
0.00907842
0.00909389
0.0091098
0.00912606
0.00914259
0.00915934
0.00917624
0.00919326
0.00921036
0.00922752
0.00924474
0.009262
0.00927932
0.00929672
0.00931423
0.0093319
0.00934976
0.00936789
0.00938632
0.00940512
0.00942433
0.00944399
0.00946414
0.0094848
0.00950601
0.00952781
0.00955025
0.00957338
0.00959724
0.00962188
0.00964736
0.00967383
0.00970143
0.00973034
0.0097609
0.00952163
0.00943654
0.00935907
0.00929154
0.00923326
0.00918318
0.00914022
0.00910355
0.00907237
0.00904607
0.0090241
0.00900599
0.00899137
0.00897989
0.00897119
0.00896501
0.00896115
0.00895938
0.00895949
0.00896129
0.00896461
0.00896929
0.00897519
0.00898217
0.0089901
0.00899884
0.00900828
0.0090183
0.00902881
0.00903972
0.00905094
0.00906241
0.00907407
0.00908588
0.00909779
0.00910978
0.00912182
0.00913389
0.00914597
0.00915806
0.00917018
0.00918235
0.00919459
0.00920692
0.00921934
0.00923185
0.00924435
0.00925702
0.0092698
0.00928272
0.0108575
0.0106962
0.0105523
0.0104255
0.0103123
0.0102104
0.0101183
0.0100349
0.00995924
0.00989077
0.00982885
0.00977306
0.00972284
0.00967788
0.00963784
0.00960237
0.00957116
0.00954393
0.00952041
0.00950033
0.00948341
0.00946943
0.00945812
0.00944923
0.00944249
0.00943766
0.00943448
0.00943271
0.00943209
0.00943239
0.00943342
0.00943499
0.00943694
0.00943914
0.00944148
0.00944385
0.0094461
0.00944809
0.00944972
0.00945091
0.00945162
0.00945178
0.00945127
0.00944992
0.0094476
0.00944421
0.00943929
0.00943246
0.0094235
0.00941194
0.0123482
0.0121718
0.012029
0.0119027
0.0117864
0.0116777
0.0115752
0.0114782
0.0113864
0.0112994
0.0112168
0.0111385
0.0110645
0.0109944
0.0109282
0.0108656
0.0108067
0.0107514
0.0106994
0.0106506
0.0106049
0.0105623
0.0105229
0.0104866
0.0104534
0.0104232
0.0103959
0.0103714
0.0103495
0.01033
0.0103127
0.0102975
0.0102845
0.0102736
0.0102648
0.010258
0.010253
0.0102494
0.010247
0.0102455
0.0102449
0.010245
0.0102456
0.0102469
0.0102486
0.0102502
0.0102517
0.0102521
0.0102521
0.010251
0.0130695
0.0129646
0.0128779
0.0128011
0.0127299
0.0126621
0.0125969
0.0125327
0.0124711
0.0124106
0.0123521
0.0122953
0.0122404
0.0121874
0.0121362
0.0120864
0.012038
0.0119909
0.0119447
0.0118992
0.011854
0.0118092
0.0117646
0.0117204
0.0116767
0.0116338
0.0115919
0.0115513
0.0115116
0.0114728
0.0114345
0.0113966
0.0113592
0.0113225
0.0112869
0.011253
0.0112213
0.0111913
0.0111626
0.0111349
0.0111092
0.0110853
0.0110624
0.0110411
0.0110226
0.0110054
0.0109886
0.0109723
0.0109539
0.0109307
0.013135
0.0130972
0.0130604
0.0130242
0.0129886
0.0129533
0.0129184
0.0128838
0.0128495
0.0128156
0.012782
0.0127487
0.0127158
0.0126832
0.012651
0.0126192
0.0125876
0.0125564
0.0125253
0.0124944
0.0124637
0.0124331
0.0124026
0.0123722
0.012342
0.0123121
0.0122824
0.0122529
0.0122237
0.0121947
0.0121657
0.0121369
0.0121083
0.0120799
0.0120517
0.012024
0.0119966
0.0119694
0.0119426
0.011916
0.0118899
0.0118638
0.0118382
0.0118131
0.0117879
0.0117633
0.0117388
0.0117139
0.0116886
0.0116624
0.0131489
0.0131263
0.0131038
0.0130815
0.0130593
0.0130372
0.013015
0.012993
0.0129709
0.0129489
0.012927
0.0129051
0.0128832
0.0128615
0.0128399
0.0128183
0.0127969
0.0127755
0.0127541
0.0127328
0.0127115
0.0126902
0.0126689
0.0126477
0.0126264
0.0126052
0.0125841
0.012563
0.0125419
0.0125208
0.0124998
0.0124788
0.0124579
0.012437
0.0124161
0.0123954
0.0123747
0.012354
0.0123335
0.0123131
0.0122928
0.0122725
0.0122523
0.0122323
0.0122123
0.0121924
0.0121724
0.0121524
0.012132
0.0121112
0.0131554
0.0131396
0.0131237
0.0131077
0.0130917
0.0130757
0.0130596
0.0130435
0.0130273
0.0130111
0.0129949
0.0129787
0.0129625
0.0129463
0.01293
0.0129138
0.0128975
0.0128813
0.0128651
0.0128489
0.0128326
0.0128164
0.0128003
0.0127841
0.0127679
0.0127517
0.0127356
0.0127195
0.0127034
0.0126873
0.0126712
0.0126551
0.012639
0.0126229
0.0126069
0.0125908
0.0125748
0.0125587
0.0125427
0.0125268
0.0125108
0.0124948
0.0124789
0.012463
0.0124471
0.0124312
0.0124153
0.0123993
0.0123831
0.0123666
0.013158
0.0131451
0.0131321
0.0131192
0.0131063
0.0130933
0.0130804
0.0130674
0.0130545
0.0130415
0.0130286
0.0130156
0.0130027
0.0129898
0.0129769
0.012964
0.0129511
0.0129383
0.0129254
0.0129125
0.0128997
0.0128868
0.012874
0.0128611
0.0128483
0.0128354
0.0128225
0.0128096
0.0127968
0.0127839
0.012771
0.0127582
0.0127453
0.0127325
0.0127196
0.0127067
0.0126939
0.0126811
0.0126682
0.0126554
0.0126426
0.0126298
0.012617
0.0126043
0.0125915
0.0125787
0.0125658
0.012553
0.01254
0.0125269
0.0131611
0.0131512
0.0131414
0.0131314
0.0131214
0.0131113
0.0131012
0.013091
0.0130808
0.0130706
0.0130603
0.01305
0.0130397
0.0130293
0.0130189
0.0130086
0.0129981
0.0129877
0.0129772
0.0129667
0.0129562
0.0129457
0.0129352
0.0129246
0.012914
0.0129034
0.0128928
0.0128821
0.0128715
0.0128608
0.0128502
0.0128395
0.0128288
0.0128181
0.0128073
0.0127966
0.0127858
0.012775
0.0127642
0.0127535
0.0127427
0.0127319
0.012721
0.0127102
0.0126994
0.0126886
0.0126777
0.0126668
0.0126558
0.0126449
0.0131609
0.013151
0.013141
0.0131311
0.0131212
0.0131112
0.0131013
0.0130914
0.0130814
0.0130715
0.0130616
0.0130517
0.0130418
0.0130319
0.0130221
0.0130122
0.0130024
0.0129927
0.0129829
0.0129732
0.0129635
0.0129538
0.0129442
0.0129345
0.0129249
0.0129153
0.0129058
0.0128962
0.0128867
0.0128772
0.0128677
0.0128582
0.0128488
0.0128393
0.0128298
0.0128203
0.0128108
0.0128013
0.0127918
0.0127823
0.0127728
0.0127634
0.0127539
0.0127445
0.0127351
0.0127258
0.0127165
0.0127072
0.0126981
0.0126893
0.013164
0.0131579
0.013152
0.0131461
0.0131404
0.0131347
0.0131291
0.0131235
0.0131179
0.0131123
0.0131068
0.0131015
0.0130963
0.0130912
0.0130864
0.0130818
0.0130774
0.0130732
0.0130692
0.0130655
0.0130619
0.0130586
0.0130555
0.0130526
0.0130499
0.0130473
0.0130449
0.0130426
0.0130404
0.0130381
0.0130357
0.0130332
0.0130305
0.0130275
0.0130242
0.0130205
0.0130165
0.0130123
0.0130079
0.0130035
0.0129992
0.0129949
0.0129908
0.0129868
0.012983
0.0129796
0.012977
0.0129756
0.0129767
0.012982
0.0133156
0.0134614
0.0136054
0.0137475
0.0138878
0.0140264
0.0141631
0.0142978
0.0144305
0.0145611
0.0146897
0.0148162
0.0149407
0.0150635
0.0151846
0.0153044
0.0154248
0.0156151
0.0158302
0.0160347
0.0162318
0.0164431
0.0166685
0.016896
0.0171201
0.0173392
0.0175506
0.0177511
0.0179377
0.0181072
0.0182561
0.0183823
0.0184846
0.0185638
0.0186551
0.0187464
0.0188283
0.0189019
0.0189707
0.0190341
0.0190914
0.0191429
0.0191888
0.0192293
0.0192645
0.019295
0.0193211
0.0193506
0.0194772
0.0197744
3.29789
3.24205
3.17393
3.1099
3.04897
2.98947
2.93096
2.87349
2.81718
2.76213
2.70838
2.65588
2.60445
2.55379
2.50351
2.4532
2.4025
2.35114
2.30009
2.24929
2.19879
2.14877
2.09931
2.05044
2.00218
1.95453
1.90746
1.86095
1.81497
1.76946
1.7244
1.67972
1.63538
1.59131
1.54747
1.50433
1.46206
1.42096
1.3813
1.34315
1.30646
1.2711
1.23689
1.20365
1.17122
1.13947
1.10828
1.07754
1.0472
1.01775
1.14672
1.1049
1.0658
1.02914
0.994639
0.962004
0.93098
0.901452
0.873323
0.846511
0.820937
0.796531
0.773225
0.750955
0.729663
0.709295
0.689802
0.671138
0.653261
0.636133
0.619714
0.60397
0.588864
0.574364
0.560438
0.547058
0.534197
0.521831
0.509937
0.498496
0.487487
0.476891
0.466689
0.456865
0.447401
0.438284
0.429498
0.421031
0.412871
0.40497
0.397301
0.389847
0.38259
0.375511
0.368589
0.361795
0.355092
0.348419
0.341671
0.334644
1.12228
1.04698
0.978283
0.915394
0.857805
0.805036
0.756682
0.71229
0.671464
0.633849
0.599131
0.567028
0.537291
0.5097
0.48406
0.460196
0.437957
0.417204
0.397815
0.379678
0.36269
0.346759
0.3318
0.317736
0.304498
0.292024
0.280259
0.269151
0.258655
0.248728
0.23933
0.230424
0.221976
0.213954
0.206325
0.199063
0.19214
0.185532
0.179216
0.173194
0.167455
0.161983
0.156761
0.151773
0.147006
0.142446
0.138079
0.133894
0.129874
0.125991
1.12217
1.04662
0.977477
0.914214
0.856252
0.803079
0.754225
0.709265
0.667822
0.629558
0.594173
0.561397
0.530992
0.502743
0.476463
0.451981
0.429149
0.40783
0.387904
0.369259
0.351794
0.335416
0.320041
0.305593
0.292001
0.279203
0.267143
0.255769
0.245034
0.234895
0.22531
0.216243
0.207659
0.199526
0.191818
0.184506
0.177567
0.170978
0.164716
0.158762
0.153097
0.147704
0.142569
0.137678
0.133016
0.128573
0.124336
0.120297
0.116452
0.1128
1.12217
1.04715
0.978591
0.915841
0.8583
0.805438
0.756795
0.711961
0.670576
0.632317
0.596895
0.564052
0.533557
0.505203
0.478806
0.454202
0.431244
0.409799
0.389747
0.370978
0.353391
0.336895
0.321405
0.306846
0.293148
0.280249
0.268092
0.256627
0.245805
0.235583
0.225921
0.216782
0.20813
0.199935
0.192167
0.184799
0.177806
0.171165
0.164854
0.158854
0.153146
0.147712
0.142538
0.13761
0.132916
0.128443
0.124177
0.120105
0.116217
0.112516
1.12217
1.04716
0.97857
0.915746
0.858113
0.805162
0.756441
0.711549
0.670124
0.631842
0.596413
0.563574
0.533093
0.504761
0.478391
0.453819
0.430895
0.409485
0.389469
0.370736
0.353184
0.336721
0.321263
0.306733
0.293063
0.28019
0.268057
0.256614
0.245812
0.235609
0.225964
0.21684
0.208201
0.200018
0.19226
0.1849
0.177915
0.17128
0.164975
0.158978
0.153272
0.14784
0.142666
0.137735
0.133037
0.12856
0.124293
0.120223
0.116332
0.112617
1.12217
1.0472
0.978683
0.915956
0.85843
0.805587
0.756969
0.712166
0.670817
0.632596
0.597211
0.564404
0.533942
0.505619
0.47925
0.454672
0.431737
0.410312
0.390277
0.371522
0.353947
0.337459
0.321976
0.30742
0.293723
0.280824
0.268666
0.257197
0.246371
0.236143
0.226474
0.217326
0.208664
0.200458
0.192677
0.185296
0.178289
0.171633
0.165307
0.15929
0.153564
0.148111
0.142917
0.137967
0.133247
0.128746
0.124454
0.120361
0.11645
0.112712
1.12217
1.0472
0.978702
0.915983
0.858457
0.805605
0.756969
0.712144
0.670769
0.632521
0.597112
0.564282
0.5338
0.505461
0.479079
0.454492
0.431551
0.410123
0.390088
0.371334
0.353762
0.337279
0.321801
0.307251
0.293561
0.280669
0.268519
0.257058
0.24624
0.23602
0.226359
0.217218
0.208563
0.200363
0.192588
0.185212
0.178209
0.171557
0.165234
0.15922
0.153495
0.148044
0.142851
0.137901
0.133182
0.128679
0.124382
0.120282
0.116366
0.112621
1.12217
1.04721
0.978716
0.916014
0.858507
0.805676
0.757063
0.712262
0.67091
0.632684
0.597294
0.564481
0.534015
0.505689
0.479319
0.45474
0.431806
0.410383
0.39035
0.371598
0.354025
0.33754
0.322058
0.307504
0.293809
0.280912
0.268755
0.257287
0.246461
0.236234
0.226564
0.217414
0.20875
0.20054
0.192755
0.185368
0.178354
0.171691
0.165357
0.159331
0.153594
0.148131
0.142924
0.137961
0.133228
0.128712
0.124401
0.120285
0.116351
0.112589
1.12216
1.04721
0.978721
0.916024
0.858522
0.805694
0.757081
0.712277
0.67092
0.632686
0.597288
0.564467
0.533992
0.505657
0.479279
0.454693
0.431752
0.410324
0.390287
0.371531
0.353955
0.337467
0.321983
0.307428
0.293733
0.280835
0.268679
0.257212
0.246387
0.236161
0.226492
0.217343
0.20868
0.200471
0.192686
0.185298
0.178284
0.17162
0.165284
0.159257
0.153519
0.148053
0.142843
0.137876
0.133138
0.128618
0.124301
0.120178
0.116237
0.112466
1.12216
1.04721
0.978723
0.916029
0.85853
0.805704
0.757094
0.712292
0.670937
0.632706
0.597311
0.564494
0.534022
0.505691
0.479317
0.454735
0.431798
0.410373
0.390338
0.371584
0.35401
0.337523
0.32204
0.307485
0.293789
0.28089
0.268732
0.257264
0.246438
0.23621
0.226539
0.217387
0.208721
0.200508
0.192718
0.185326
0.178307
0.171637
0.165295
0.15926
0.153515
0.148043
0.142826
0.137851
0.133104
0.128574
0.124247
0.120113
0.116159
0.112376
1.12216
1.04721
0.978723
0.916029
0.858529
0.805702
0.75709
0.712286
0.670929
0.632696
0.5973
0.564482
0.53401
0.50568
0.479306
0.454724
0.431788
0.410363
0.390329
0.371575
0.354001
0.337514
0.322031
0.307475
0.293779
0.28088
0.268721
0.257252
0.246425
0.236196
0.226524
0.217372
0.208704
0.200488
0.192696
0.185301
0.178277
0.171603
0.165257
0.159218
0.153468
0.14799
0.142768
0.137787
0.133033
0.128495
0.124159
0.120016
0.116052
0.112258
1.12216
1.04721
0.978721
0.916024
0.85852
0.805688
0.75707
0.712259
0.670896
0.632658
0.597256
0.564433
0.533958
0.505623
0.479246
0.454662
0.431723
0.410297
0.390262
0.371507
0.353932
0.337444
0.321961
0.307404
0.293707
0.280808
0.268649
0.257181
0.246354
0.236126
0.226455
0.217303
0.208636
0.20042
0.192627
0.185231
0.178206
0.17153
0.165181
0.15914
0.153388
0.147908
0.142682
0.137698
0.13294
0.128396
0.124054
0.119903
0.115931
0.112127
1.12216
1.04721
0.978717
0.916014
0.858504
0.805667
0.757046
0.712235
0.670874
0.63264
0.597245
0.564429
0.533962
0.505636
0.479267
0.454691
0.43176
0.41034
0.39031
0.37156
0.353989
0.337503
0.32202
0.307463
0.293765
0.280864
0.268703
0.257232
0.246403
0.236172
0.226498
0.217343
0.208671
0.20045
0.192652
0.185249
0.178217
0.171534
0.165179
0.159131
0.153372
0.147884
0.142651
0.137657
0.13289
0.128335
0.123982
0.119818
0.115833
0.112016
1.12217
1.0472
0.978701
0.915981
0.858451
0.805592
0.756946
0.712111
0.670725
0.632469
0.597052
0.564218
0.533734
0.505395
0.479016
0.454431
0.431494
0.410071
0.39004
0.37129
0.353719
0.337236
0.321755
0.307202
0.293508
0.280611
0.268456
0.256991
0.246169
0.235945
0.226278
0.217129
0.208463
0.200248
0.192455
0.185057
0.17803
0.171351
0.165
0.158956
0.1532
0.147715
0.142484
0.137492
0.132724
0.128169
0.123813
0.119646
0.115656
0.111833
1.12217
1.04719
0.978679
0.91595
0.85842
0.80557
0.756942
0.712129
0.670769
0.632539
0.597147
0.564334
0.53387
0.505546
0.479179
0.454604
0.431673
0.410253
0.390223
0.371471
0.353897
0.337407
0.32192
0.307358
0.293654
0.280747
0.268582
0.257107
0.246275
0.236041
0.226364
0.217205
0.208529
0.200304
0.1925
0.185091
0.178053
0.171364
0.165003
0.158949
0.153183
0.147688
0.142446
0.137442
0.132663
0.128094
0.123725
0.119543
0.115538
0.111699
1.12217
1.04715
0.978561
0.915733
0.858096
0.805138
0.75641
0.71151
0.670076
0.631786
0.59635
0.563506
0.533021
0.504688
0.478319
0.45375
0.430831
0.409427
0.389417
0.370687
0.353136
0.336671
0.321208
0.30667
0.292991
0.280109
0.267968
0.256518
0.24571
0.235499
0.225845
0.216708
0.208052
0.199846
0.19206
0.184668
0.177647
0.170973
0.164626
0.158585
0.152832
0.147349
0.142117
0.137123
0.132351
0.127789
0.123424
0.119246
0.115244
0.111406
1.12217
1.04714
0.978575
0.915819
0.858273
0.805407
0.756758
0.71192
0.67053
0.632265
0.596837
0.563989
0.533489
0.505132
0.478735
0.454134
0.431181
0.409742
0.389695
0.370929
0.353342
0.336842
0.321344
0.306774
0.293065
0.280154
0.267987
0.256513
0.245684
0.235454
0.225782
0.216628
0.207957
0.199737
0.191938
0.184535
0.177504
0.170821
0.164467
0.158421
0.152664
0.147176
0.141942
0.136946
0.132174
0.127614
0.123253
0.119082
0.115091
0.111271
1.12216
1.04661
0.977452
0.91418
0.856213
0.803036
0.754181
0.709221
0.667777
0.629511
0.594122
0.561341
0.530931
0.502679
0.476398
0.451919
0.429092
0.407782
0.387863
0.369223
0.351759
0.335379
0.319998
0.305541
0.291941
0.279136
0.267072
0.255698
0.244964
0.234827
0.225245
0.216177
0.207591
0.199452
0.191733
0.184409
0.177456
0.170853
0.164578
0.158612
0.152936
0.147535
0.14239
0.13749
0.132822
0.128375
0.124144
0.120121
0.116308
0.112709
1.12227
1.04696
0.978244
0.915343
0.857749
0.804982
0.756634
0.71225
0.67143
0.633818
0.599098
0.566991
0.537251
0.509659
0.484021
0.460167
0.437942
0.417207
0.397838
0.379721
0.362752
0.346837
0.331895
0.317849
0.304633
0.292189
0.280463
0.269404
0.258966
0.249107
0.239785
0.230963
0.222607
0.214688
0.207178
0.200055
0.193299
0.18689
0.180812
0.175047
0.16958
0.164398
0.15949
0.154847
0.150465
0.146343
0.142488
0.138917
0.135673
0.132843
1.14672
1.10489
1.06577
1.02909
0.994576
0.961935
0.930912
0.901391
0.873272
0.846467
0.820896
0.796487
0.773174
0.750897
0.7296
0.709231
0.689739
0.671079
0.653204
0.636071
0.61964
0.603874
0.58874
0.574206
0.560245
0.54683
0.533936
0.521536
0.509605
0.498118
0.487051
0.476383
0.466092
0.456162
0.446577
0.437321
0.428379
0.419736
0.411376
0.403283
0.395441
0.387835
0.380451
0.373274
0.366291
0.35949
0.352853
0.346366
0.340007
0.333749
0.0907054
0.0104796
0.0123192
0.0176116
0.0241801
0.0298899
0.032391
0.0301514
0.0233211
0.0141542
0.00636266
0.00246282
0.00152243
0.00155393
0.00187662
0.00232724
0.00326744
0.00436481
0.0088657
0.202149
0.0890699
0.0104261
0.0121953
0.0174939
0.0242377
0.0302776
0.0331156
0.0310287
0.0240779
0.0146119
0.00654641
0.00251864
0.00155744
0.00158075
0.00188896
0.00233822
0.00328001
0.0043978
0.00927985
0.205713
0.0875269
0.0103726
0.0120595
0.0173462
0.0242478
0.030616
0.0338134
0.0319184
0.0248831
0.0151307
0.00677393
0.00259037
0.00159134
0.00159777
0.00189447
0.0023436
0.00327904
0.00441084
0.00971277
0.210177
0.0860702
0.0103192
0.011912
0.0171675
0.0242072
0.0309002
0.0344797
0.0328193
0.0257407
0.0157174
0.00705069
0.0026806
0.00162897
0.00162208
0.00190435
0.00235395
0.00328181
0.00443415
0.0102174
0.214629
0.0847073
0.0102664
0.0117532
0.016957
0.0241123
0.0311237
0.0351078
0.0337279
0.026652
0.0163766
0.00738126
0.00279138
0.00166965
0.00165131
0.00191842
0.00236903
0.00328836
0.00446887
0.0107907
0.219066
0.0834363
0.0102148
0.0115835
0.0167146
0.0239605
0.0312806
0.0356906
0.0346396
0.0276171
0.017112
0.00776954
0.00292474
0.0017136
0.00168326
0.00193626
0.00238825
0.00329856
0.00451539
0.0114264
0.22348
0.0822545
0.0101648
0.011404
0.0164406
0.0237496
0.0313652
0.0362205
0.0355484
0.0286345
0.0179255
0.00821862
0.00308264
0.00176143
0.00171683
0.00195762
0.00241122
0.00331242
0.00457422
0.0121186
0.227861
0.0811587
0.0101172
0.0112157
0.0161359
0.0234782
0.0313721
0.0366896
0.0364477
0.0297014
0.0188186
0.00873171
0.00326746
0.00181402
0.00175163
0.00198243
0.00243767
0.00333005
0.00464581
0.0128618
0.232204
0.0801464
0.0100727
0.0110203
0.015802
0.0231457
0.0312966
0.0370896
0.0373296
0.0308145
0.0197931
0.00931302
0.00348238
0.00187266
0.00178789
0.00201073
0.00246742
0.00335159
0.00473043
0.0136497
0.236502
0.079215
0.010032
0.0108192
0.015441
0.0227521
0.0311341
0.037412
0.0381859
0.0319704
0.0208515
0.00996814
0.00373167
0.001939
0.00182625
0.00204263
0.00250035
0.00337722
0.00482828
0.0144768
0.24075
0.0783626
0.00999604
0.0106144
0.0150552
0.022298
0.0308806
0.0376481
0.0390075
0.0331656
0.0219978
0.0107047
0.00402091
0.00201505
0.00186742
0.00207827
0.00253642
0.0034072
0.00493954
0.0153384
0.244944
0.0775874
0.00996564
0.0104075
0.0146474
0.0217849
0.0305329
0.0377893
0.0397849
0.0343962
0.0232372
0.0115328
0.00435749
0.00210334
0.00191223
0.00211783
0.00257566
0.00344182
0.00506438
0.0162306
0.249081
0.0768882
0.00994165
0.0102006
0.0142207
0.0212149
0.0300879
0.0378265
0.0405075
0.0356584
0.0245765
0.0124654
0.00475109
0.00220714
0.00196146
0.00216154
0.00261818
0.0034814
0.00520292
0.0171496
0.253161
0.0762647
0.00992504
0.0099958
0.0137788
0.0205909
0.0295435
0.0377501
0.0411635
0.0369474
0.0260238
0.0135187
0.00521444
0.00233087
0.00201598
0.00220967
0.00266415
0.00352631
0.00535532
0.018093
0.257182
0.0757175
0.00991681
0.00979517
0.0133252
0.0199162
0.0288978
0.0375502
0.0417392
0.0382569
0.0275886
0.014713
0.00576419
0.00248044
0.00207675
0.00226256
0.00271381
0.00357698
0.00552206
0.0190606
0.261148
0.0752482
0.00991791
0.00960075
0.012864
0.019195
0.0281499
0.0372164
0.0422189
0.0395785
0.0292803
0.0160726
0.00642208
0.00266403
0.00214455
0.00232054
0.00276753
0.00363406
0.00570418
0.0200557
0.265063
0.0748586
0.00992926
0.00941456
0.0123994
0.0184321
0.0272995
0.0367381
0.0425843
0.0409001
0.0311082
0.0176267
0.0072166
0.0028933
0.00221989
0.00238402
0.00282587
0.00369845
0.00590371
0.0210863
0.26893
0.0745516
0.00995178
0.00923864
0.0119358
0.0176335
0.0263481
0.036104
0.0428136
0.0422049
0.0330795
0.0194091
0.008185
0.00318548
0.00230337
0.00245366
0.00288967
0.00377151
0.00612406
0.0221659
0.272758
0.0743307
0.00998647
0.00907508
0.011478
0.0168061
0.025298
0.0353033
0.0428813
0.0434693
0.0351973
0.0214581
0.00937543
0.00356645
0.00240611
0.00253051
0.00296024
0.00385529
0.00637065
0.0233149
0.276554
0.074201
0.0100344
0.00892591
0.011031
0.0159577
0.0241539
0.0343252
0.0427578
0.0446611
0.0374574
0.0238144
0.0108488
0.00407079
0.00252778
0.00261637
0.00303947
0.00395288
0.00665194
0.0245632
0.28033
0.0741683
0.0100966
0.00879307
0.0105998
0.0150973
0.0229226
0.0331612
0.0424102
0.0457374
0.0398443
0.0265185
0.0126819
0.004751
0.00267566
0.00271396
0.00313027
0.00406913
0.006981
0.0259532
0.284095
0.074239
0.010174
0.00867838
0.0101897
0.0142351
0.0216145
0.0318053
0.0418021
0.0466421
0.0423248
0.0296049
0.0149683
0.00568733
0.00288207
0.00282769
0.0032373
0.00421192
0.00737815
0.0275446
0.287863
0.0744204
0.0102678
0.00858355
0.00980622
0.0133827
0.0202432
0.0302559
0.0408955
0.0473048
0.0448423
0.0330947
0.0178185
0.00699483
0.00319348
0.00296515
0.00336862
0.00439441
0.00787494
0.0294196
0.291644
0.0747206
0.0103788
0.00851013
0.00945458
0.0125526
0.0188267
0.028518
0.0396538
0.0476403
0.0473093
0.036981
0.0213491
0.00883097
0.00368817
0.00314026
0.00353854
0.00463889
0.00852023
0.0316896
0.295444
0.0751486
0.0105083
0.00845941
0.00913998
0.0117583
0.0173872
0.0266053
0.0380458
0.0475514
0.0496014
0.0412144
0.02567
0.0114036
0.00449526
0.00337983
0.00377321
0.00498365
0.0093892
0.034503
0.299268
0.075714
0.0106572
0.00843227
0.0088671
0.0110135
0.0159512
0.0245425
0.0360515
0.0469335
0.0515535
0.0456846
0.0308624
0.0149742
0.00582456
0.0037368
0.00412147
0.00549478
0.0105965
0.0380518
0.303113
0.0764267
0.0108265
0.00842913
0.00863996
0.0103318
0.0145492
0.0223673
0.0336696
0.0456845
0.0529595
0.0501994
0.036944
0.0198489
0.00801556
0.00431774
0.00467547
0.00628608
0.0123133
0.0425748
0.306968
0.0772967
0.011017
0.00844988
0.00846165
0.00972626
0.0132141
0.0201312
0.0309244
0.0437178
0.0535793
0.0544644
0.0438142
0.0263386
0.011617
0.00533969
0.00560818
0.00755021
0.0147879
0.0483522
0.31081
0.0783334
0.0112297
0.00849389
0.00833399
0.00920804
0.0119799
0.0178986
0.0278738
0.0409821
0.0531571
0.058071
0.0511814
0.0346394
0.0175016
0.00808665
0.00723901
0.00960295
0.0183643
0.055687
0.314601
0.0795465
0.0114656
0.00855993
0.00825721
0.00878579
0.0108786
0.0157444
0.0246147
0.0374859
0.0514568
0.0605068
0.058498
0.044574
0.0260474
0.0132031
0.0101165
0.0129261
0.0234836
0.0648648
0.318282
0.0809445
0.0117256
0.00864618
0.00822963
0.00846446
0.00993802
0.0137479
0.0212834
0.0333237
0.0483176
0.0612031
0.064967
0.0556529
0.0374644
0.0212512
0.0150732
0.0181798
0.0306557
0.0760974
0.321772
0.0825345
0.0120107
0.0087503
0.00824755
0.00824449
0.00917796
0.0119842
0.0180472
0.0286941
0.043725
0.059622
0.0695278
0.0669174
0.0517775
0.0332958
0.0231612
0.0261544
0.040399
0.089475
0.324964
0.0843209
0.0123217
0.00886965
0.00830542
0.0081211
0.00860788
0.0105141
0.0150835
0.0238987
0.0378872
0.0554178
0.0709454
0.0766635
0.0681192
0.0501285
0.0354537
0.0376501
0.0531632
0.104941
0.327714
0.086305
0.0126594
0.00900153
0.00839631
0.00808428
0.00822458
0.0093741
0.0125507
0.0193065
0.0312769
0.0486603
0.0681538
0.0825061
0.0841262
0.0721702
0.0566755
0.0533439
0.0692611
0.122295
0.329839
0.0884844
0.0130243
0.00914348
0.00851263
0.00811955
0.00801174
0.00857014
0.0105559
0.0152804
0.0245863
0.0400102
0.0608086
0.0819853
0.0950222
0.0934996
0.0811737
0.0736289
0.0887863
0.141193
0.331097
0.0908529
0.0134169
0.00929346
0.00864703
0.00820971
0.00794163
0.00807686
0.0091342
0.0120869
0.0185654
0.0306841
0.0498193
0.0742766
0.0975112
0.110073
0.10724
0.0984456
0.111554
0.161179
0.331169
0.0933999
0.0138372
0.0094499
0.00879321
0.00833747
0.00797936
0.00784271
0.00824667
0.00983098
0.0137924
0.0220911
0.0371432
0.0602854
0.0891394
0.115945
0.130535
0.130329
0.137156
0.181736
0.329613
0.0961099
0.0142846
0.00961167
0.00894645
0.00848792
0.00808903
0.00780046
0.00779731
0.00845048
0.0105088
0.0153695
0.0253208
0.0431818
0.0705747
0.104959
0.137669
0.157572
0.164738
0.202175
0.325781
0.0989628
0.0147579
0.00977805
0.00910366
0.00865017
0.00824006
0.00788131
0.0076602
0.00776329
0.00859582
0.0109668
0.0164094
0.0275004
0.0476163
0.0792614
0.120701
0.162841
0.192206
0.221336
0.318625
0.101934
0.0152551
0.00994858
0.00926319
0.00881752
0.00841091
0.00802845
0.00771138
0.00753956
0.0077039
0.00859998
0.0110211
0.0164963
0.0277265
0.0486928
0.0835204
0.133086
0.1897
0.235886
0.306208
0.104995
0.0157734
0.010123
0.00942426
0.00898649
0.00858914
0.00820431
0.00785529
0.00757062
0.00743176
0.00760972
0.00845348
0.0106446
0.0154975
0.02545
0.0446353
0.0790867
0.135273
0.213692
0.284086
0.108115
0.0163093
0.0103009
0.00958656
0.00915556
0.00876892
0.00838916
0.00803499
0.00771323
0.00745898
0.00734353
0.00751846
0.00827048
0.010122
0.0140062
0.0215685
0.0357086
0.0617796
0.110651
0.210565
0.111264
0.0168587
0.0104821
0.00974992
0.00932418
0.00894802
0.00857486
0.00822441
0.00789416
0.00760117
0.00737533
0.00728964
0.00748905
0.00824124
0.0100066
0.0135169
0.0197851
0.0298575
0.0441957
0.0625771
0.114408
0.0174169
0.0106661
0.0099142
0.0094921
0.00912574
0.00875873
0.00841419
0.00808472
0.00778064
0.00751327
0.00731825
0.00727413
0.0075448
0.00844804
0.0105728
0.0149818
0.0234834
0.0389937
0.0679383
0.117517
0.017979
0.0108525
0.0100795
0.00965946
0.00930197
0.00894009
0.00860149
0.00827521
0.00796966
0.00768782
0.00744671
0.00728714
0.0073071
0.00772366
0.00899145
0.0120878
0.0191307
0.0347799
0.0723244
0.120561
0.0185403
0.011041
0.0102459
0.00982658
0.00947712
0.00911915
0.00878569
0.00846251
0.00815842
0.00787223
0.00761209
0.00739944
0.0072898
0.00743182
0.00816727
0.0103492
0.0161325
0.0313038
0.0754784
0.123516
0.0190962
0.0112312
0.0104135
0.00999356
0.00965144
0.0092963
0.00896706
0.00864602
0.00834359
0.00805664
0.00778818
0.00755118
0.00737392
0.00736038
0.00776103
0.00930859
0.0140584
0.0284847
0.0779214
0.12636
0.0196431
0.011423
0.0105824
0.0101607
0.00982509
0.00947164
0.00914584
0.00882631
0.00852455
0.00823777
0.00796514
0.00771652
0.00750268
0.00739995
0.00758597
0.00869052
0.0126116
0.0262166
0.0799039
0.129077
0.0201772
0.0116161
0.0107527
0.0103284
0.00999848
0.00964563
0.00932223
0.00900383
0.00870206
0.00841528
0.00813973
0.00788529
0.00764997
0.00749546
0.00754032
0.00833258
0.011595
0.0243995
0.0815671
0.131655
0.0206964
0.0118102
0.0109243
0.0104965
0.0101716
0.00981889
0.00949713
0.00917895
0.0088769
0.00858971
0.00831134
0.00805373
0.00780431
0.00761919
0.00756854
0.00813824
0.0108777
0.0229474
0.0829991
0.134086
0.021199
0.0120055
0.0110976
0.0106658
0.0103449
0.00999165
0.00967125
0.00935253
0.00904969
0.00876167
0.00848021
0.0082205
0.00796073
0.00775713
0.00763991
0.00804919
0.0103724
0.0217902
0.0842581
0.136367
0.0216839
0.0122017
0.0112725
0.0108365
0.010519
0.0101647
0.00984492
0.00952549
0.00922106
0.0089321
0.00864689
0.00838567