/*--------------------------------*- C++ -*----------------------------------*\
  =========                 |
  \\      /  F ield         | OpenFOAM: The Open Source CFD Toolbox
   \\    /   O peration     | Website:  https://openfoam.org
    \\  /    A nd           | Version:  8
     \\/     M anipulation  |
\*---------------------------------------------------------------------------*/
FoamFile
{
    version     2.0;
    format      ascii;
    class       volScalarField;
    location    "700";
    object      k;
}
// * * * * * * * * * * * * * * * * * * * * * * * * * * * * * * * * * * * * * //

dimensions      [0 2 -2 0 0 0 0];

internalField   nonuniform List<scalar> 
8400
(
0.088659
0.0863375
0.0840855
0.0819044
0.0797923
0.077746
0.0757629
0.0738407
0.0719774
0.0701714
0.0684212
0.0667251
0.0650816
0.063489
0.0619456
0.0604496
0.0589991
0.0575923
0.0562272
0.0549019
0.0536146
0.0523635
0.0511467
0.0499626
0.0488096
0.0476863
0.0465912
0.0455231
0.0444808
0.0434634
0.0424699
0.0414996
0.0405518
0.0396259
0.0387215
0.037838
0.0369753
0.0361329
0.0353108
0.0345087
0.0337267
0.0329648
0.0322234
0.0315027
0.0308035
0.0301272
0.0294758
0.0288526
0.0282618
0.0277098
0.00389671
0.00384946
0.00380619
0.00376652
0.00373014
0.00369681
0.0036663
0.00363843
0.00361301
0.00358988
0.00356887
0.00354984
0.00353264
0.00351713
0.00350319
0.0034907
0.00347952
0.00346956
0.0034607
0.00345284
0.00344589
0.00343976
0.00343436
0.00342961
0.00342543
0.00342177
0.00341855
0.00341573
0.00341325
0.00341107
0.00340916
0.00340748
0.00340601
0.00340473
0.00340363
0.00340271
0.00340194
0.00340134
0.00340091
0.00340064
0.00340056
0.00340068
0.00340101
0.00340158
0.00340242
0.00340357
0.00340509
0.00340705
0.00340957
0.00341282
0.00285567
0.00285541
0.00285566
0.00285639
0.00285755
0.00285909
0.00286097
0.00286317
0.00286564
0.00286836
0.00287132
0.00287447
0.00287781
0.00288131
0.00288495
0.00288872
0.00289259
0.00289656
0.00290059
0.00290469
0.00290883
0.002913
0.0029172
0.0029214
0.00292561
0.00292981
0.002934
0.00293818
0.00294235
0.0029465
0.00295064
0.00295478
0.00295892
0.00296306
0.00296722
0.0029714
0.00297563
0.00297989
0.00298422
0.00298861
0.00299309
0.00299768
0.00300238
0.00300723
0.00301224
0.00301746
0.00302292
0.00302868
0.00303484
0.0030415
0.00266145
0.00266427
0.00266737
0.00267065
0.00267406
0.00267756
0.00268113
0.00268473
0.00268836
0.00269201
0.00269567
0.00269933
0.00270299
0.00270664
0.00271028
0.0027139
0.00271749
0.00272105
0.00272457
0.00272806
0.00273151
0.00273492
0.00273828
0.0027416
0.00274487
0.00274811
0.0027513
0.00275447
0.0027576
0.00276071
0.00276382
0.00276692
0.00277004
0.00277318
0.00277636
0.00277958
0.00278286
0.00278622
0.00278966
0.00279319
0.00279684
0.00280061
0.00280452
0.00280858
0.00281282
0.00281726
0.00282194
0.0028269
0.00283222
0.00283796
0.00250458
0.00250895
0.00251342
0.00251795
0.00252249
0.002527
0.00253145
0.00253583
0.00254013
0.00254434
0.00254847
0.00255251
0.00255645
0.0025603
0.00256406
0.00256773
0.00257131
0.0025748
0.0025782
0.00258152
0.00258476
0.00258792
0.002591
0.00259401
0.00259696
0.00259985
0.0026027
0.00260551
0.00260829
0.00261106
0.00261383
0.00261662
0.00261943
0.00262229
0.0026252
0.00262818
0.00263123
0.00263438
0.00263763
0.00264099
0.00264447
0.00264809
0.00265184
0.00265574
0.00265981
0.00266406
0.00266852
0.00267323
0.00267824
0.0026836
0.00238305
0.00238649
0.00239024
0.0023942
0.00239831
0.0024025
0.00240673
0.00241097
0.00241521
0.0024194
0.00242356
0.00242765
0.00243167
0.00243563
0.0024395
0.00244328
0.00244698
0.00245059
0.00245411
0.00245754
0.00246089
0.00246415
0.00246735
0.00247047
0.00247354
0.00247655
0.00247953
0.00248248
0.00248541
0.00248835
0.0024913
0.00249428
0.00249731
0.00250039
0.00250354
0.00250678
0.0025101
0.00251351
0.00251703
0.00252066
0.0025244
0.00252827
0.00253225
0.00253637
0.00254062
0.00254502
0.0025496
0.00255438
0.0025594
0.00256472
0.00232997
0.00232727
0.00232531
0.0023241
0.00232358
0.00232365
0.00232423
0.00232523
0.00232659
0.00232824
0.00233015
0.00233227
0.00233456
0.00233699
0.00233953
0.00234217
0.00234487
0.00234764
0.00235045
0.0023533
0.00235617
0.00235905
0.00236196
0.00236487
0.0023678
0.00237073
0.00237368
0.00237665
0.00237964
0.00238267
0.00238573
0.00238883
0.00239199
0.00239522
0.00239851
0.00240187
0.00240531
0.00240883
0.00241244
0.00241613
0.00241991
0.00242378
0.00242775
0.00243181
0.00243598
0.00244026
0.00244468
0.00244927
0.00245407
0.00245913
0.00241272
0.00239829
0.0023852
0.00237382
0.00236404
0.00235568
0.00234856
0.00234253
0.00233746
0.00233323
0.00232975
0.00232693
0.00232472
0.00232304
0.00232183
0.00232105
0.00232066
0.0023206
0.00232085
0.00232137
0.00232213
0.0023231
0.00232426
0.00232557
0.00232703
0.00232859
0.00233026
0.002332
0.00233381
0.00233567
0.00233756
0.00233948
0.00234143
0.00234339
0.00234536
0.00234735
0.00234936
0.00235137
0.0023534
0.00235544
0.00235751
0.00235959
0.00236169
0.0023638
0.00236592
0.00236805
0.00237019
0.00237233
0.00237451
0.00237669
0.00263475
0.00260827
0.0025846
0.00256372
0.00254508
0.00252831
0.00251316
0.00249947
0.0024871
0.00247595
0.0024659
0.00245689
0.00244883
0.00244166
0.0024353
0.00242971
0.00242482
0.00242057
0.00241693
0.00241383
0.00241123
0.00240909
0.00240735
0.00240598
0.00240492
0.00240414
0.00240359
0.00240323
0.00240303
0.00240295
0.00240297
0.00240307
0.00240322
0.00240341
0.00240363
0.00240385
0.00240407
0.00240427
0.00240445
0.00240459
0.00240469
0.00240473
0.00240468
0.00240452
0.0024042
0.00240369
0.00240293
0.00240184
0.00240038
0.00239852
0.00287373
0.00284613
0.00282364
0.00280364
0.00278521
0.00276795
0.0027517
0.00273634
0.00272181
0.00270806
0.00269502
0.00268269
0.00267104
0.00266002
0.00264963
0.00263984
0.00263061
0.00262191
0.00261372
0.002606
0.00259875
0.00259198
0.00258566
0.00257981
0.0025744
0.00256943
0.0025649
0.00256079
0.00255708
0.00255375
0.00255076
0.00254813
0.00254583
0.00254387
0.00254223
0.00254089
0.00253985
0.00253906
0.0025385
0.00253814
0.00253799
0.00253801
0.00253816
0.00253841
0.0025387
0.00253897
0.00253912
0.00253925
0.00253915
0.00253906
0.00298473
0.00296884
0.00295561
0.00294386
0.00293297
0.00292257
0.00291257
0.00290288
0.00289347
0.0028842
0.00287524
0.00286653
0.00285805
0.00284987
0.00284197
0.00283428
0.00282677
0.00281941
0.00281216
0.00280496
0.00279781
0.00279072
0.00278368
0.00277669
0.00276977
0.00276295
0.00275625
0.00274971
0.00274331
0.00273705
0.0027309
0.00272486
0.00271895
0.00271315
0.00270749
0.00270204
0.00269687
0.00269201
0.00268739
0.00268302
0.00267893
0.00267515
0.00267161
0.0026683
0.00266531
0.00266261
0.00265985
0.00265696
0.002654
0.00265011
0.00299458
0.00298883
0.00298323
0.00297774
0.00297232
0.00296697
0.00296168
0.00295642
0.00295122
0.00294605
0.00294093
0.00293586
0.00293082
0.00292584
0.0029209
0.00291599
0.00291113
0.0029063
0.00290149
0.00289671
0.00289196
0.00288722
0.00288251
0.00287782
0.00287314
0.00286849
0.00286387
0.00285928
0.00285473
0.0028502
0.0028457
0.00284123
0.00283678
0.00283235
0.00282796
0.00282361
0.00281932
0.00281508
0.00281087
0.00280672
0.00280262
0.00279857
0.00279457
0.00279063
0.00278673
0.00278282
0.002779
0.0027751
0.00277109
0.00276694
0.00299668
0.00299325
0.00298985
0.00298646
0.00298308
0.00297971
0.00297635
0.00297299
0.00296963
0.00296628
0.00296294
0.0029596
0.00295628
0.00295296
0.00294966
0.00294636
0.00294308
0.00293981
0.00293654
0.00293328
0.00293002
0.00292676
0.0029235
0.00292024
0.00291698
0.00291372
0.00291046
0.00290721
0.00290396
0.00290071
0.00289746
0.00289422
0.00289098
0.00288774
0.00288451
0.00288129
0.00287807
0.00287487
0.00287169
0.00286852
0.00286536
0.00286222
0.0028591
0.00285599
0.0028529
0.0028498
0.00284669
0.00284357
0.00284042
0.00283718
0.00299768
0.00299527
0.00299286
0.00299044
0.00298801
0.00298557
0.00298313
0.00298068
0.00297822
0.00297576
0.00297329
0.00297082
0.00296834
0.00296586
0.00296338
0.00296089
0.00295841
0.00295593
0.00295345
0.00295097
0.00294849
0.00294602
0.00294354
0.00294107
0.00293859
0.00293611
0.00293364
0.00293117
0.0029287
0.00292623
0.00292376
0.00292129
0.00291882
0.00291635
0.00291389
0.00291142
0.00290896
0.00290649
0.00290403
0.00290157
0.00289911
0.00289665
0.0028942
0.00289174
0.00288928
0.00288684
0.00288437
0.0028819
0.00287939
0.00287686
0.00299807
0.00299611
0.00299414
0.00299218
0.00299022
0.00298825
0.00298628
0.00298431
0.00298235
0.00298038
0.00297841
0.00297645
0.00297448
0.00297252
0.00297056
0.0029686
0.00296664
0.00296468
0.00296272
0.00296076
0.0029588
0.00295683
0.00295487
0.0029529
0.00295093
0.00294896
0.00294699
0.00294501
0.00294304
0.00294106
0.00293909
0.00293711
0.00293513
0.00293316
0.00293118
0.00292921
0.00292723
0.00292526
0.00292329
0.00292132
0.00291935
0.00291739
0.00291542
0.00291346
0.0029115
0.00290952
0.00290755
0.00290557
0.00290357
0.00290156
0.00299854
0.00299705
0.00299554
0.00299403
0.00299251
0.00299098
0.00298945
0.00298791
0.00298636
0.0029848
0.00298324
0.00298167
0.0029801
0.00297852
0.00297694
0.00297535
0.00297376
0.00297217
0.00297058
0.00296898
0.00296738
0.00296577
0.00296416
0.00296255
0.00296093
0.00295931
0.00295769
0.00295606
0.00295444
0.00295281
0.00295118
0.00294954
0.00294791
0.00294627
0.00294463
0.00294299
0.00294135
0.0029397
0.00293805
0.00293639
0.00293474
0.00293308
0.00293142
0.00292976
0.0029281
0.00292643
0.00292476
0.00292309
0.00292141
0.00291973
0.00299851
0.002997
0.00299549
0.00299398
0.00299247
0.00299096
0.00298945
0.00298794
0.00298644
0.00298493
0.00298342
0.00298191
0.00298041
0.00297891
0.00297741
0.00297592
0.00297443
0.00297294
0.00297146
0.00296998
0.0029685
0.00296703
0.00296556
0.00296409
0.00296262
0.00296116
0.0029597
0.00295824
0.00295678
0.00295532
0.00295387
0.00295242
0.00295096
0.00294951
0.00294806
0.00294661
0.00294515
0.0029437
0.00294225
0.0029408
0.00293935
0.0029379
0.00293646
0.00293502
0.00293358
0.00293215
0.00293072
0.00292931
0.00292793
0.00292659
0.00299899
0.00299806
0.00299715
0.00299627
0.0029954
0.00299453
0.00299367
0.00299283
0.00299199
0.00299118
0.00299039
0.00298963
0.00298889
0.00298819
0.00298753
0.00298689
0.00298628
0.00298569
0.00298515
0.00298464
0.00298416
0.0029837
0.00298327
0.00298285
0.00298244
0.00298204
0.00298163
0.00298121
0.00298079
0.00298033
0.00297986
0.00297935
0.0029788
0.00297822
0.00297762
0.00297702
0.0029764
0.0029758
0.0029752
0.00297461
0.00297402
0.00297344
0.00297286
0.0029723
0.00297177
0.00297132
0.00297099
0.00297089
0.00297121
0.0029722
0.0030219
0.00304386
0.00306544
0.00308668
0.0031076
0.0031282
0.00314846
0.00316839
0.00318797
0.00320721
0.0032261
0.00324464
0.00326283
0.00328628
0.00331872
0.00335212
0.0033808
0.00340901
0.00344107
0.00347508
0.00350842
0.00354031
0.00357057
0.00359875
0.00362441
0.00364725
0.00366717
0.0036842
0.00369834
0.00371
0.003724
0.00373871
0.00375292
0.00376585
0.00377836
0.00379059
0.00380224
0.00381316
0.00382337
0.00383288
0.00384165
0.00384968
0.00385697
0.00386352
0.00386935
0.00387448
0.00387896
0.00388623
0.00390757
0.00395291
0.11897
0.117589
0.115924
0.114383
0.112924
0.111509
0.110133
0.108795
0.107489
0.106203
0.104923
0.103631
0.102314
0.100958
0.0995705
0.0981714
0.0967596
0.0953389
0.0939187
0.0924996
0.0910831
0.0896712
0.0882642
0.0868619
0.0854636
0.0840683
0.0826742
0.0812796
0.0798822
0.0784791
0.0770688
0.0756647
0.0742704
0.0728921
0.0715398
0.0702224
0.0689401
0.0676926
0.0664769
0.065288
0.0641224
0.0629782
0.061854
0.0607488
0.0596601
0.0585839
0.0575159
0.0564533
0.0554034
0.0543775
0.0589323
0.0574899
0.0561249
0.0548304
0.053598
0.0524193
0.0512865
0.0501966
0.0491471
0.0481361
0.0471617
0.0462221
0.0453159
0.0444415
0.0435975
0.0427824
0.0419951
0.0412343
0.0404989
0.0397879
0.0391003
0.0384352
0.0377916
0.0371686
0.0365654
0.0359812
0.0354152
0.0348667
0.0343351
0.0338197
0.03332
0.0328354
0.0323654
0.0319095
0.0314673
0.0310383
0.030622
0.0302182
0.0298264
0.0294446
0.0290717
0.028707
0.0283497
0.0279991
0.0276541
0.0273132
0.0269746
0.0266351
0.0262896
0.0259286
0.0580914
0.0554621
0.0530081
0.0507112
0.0485616
0.0465496
0.0446669
0.0429028
0.0412474
0.0396921
0.0382289
0.0368505
0.0355504
0.0343226
0.0331617
0.0320628
0.0310215
0.0300338
0.0290959
0.0282046
0.0273568
0.0265496
0.0257804
0.0250467
0.0243463
0.023677
0.0230369
0.0224244
0.0218377
0.0212754
0.0207361
0.0202184
0.019721
0.0192429
0.0187826
0.0183391
0.0179113
0.0174981
0.0170986
0.0167134
0.0163421
0.0159842
0.0156389
0.0153055
0.0149835
0.0146721
0.0143705
0.0140769
0.0137894
0.0135069
0.0580877
0.0554497
0.0529793
0.0506679
0.0485033
0.0464743
0.0445703
0.0427812
0.0410981
0.0395128
0.0380178
0.0366063
0.0352722
0.0340098
0.0328141
0.0316804
0.0306044
0.0295824
0.0286109
0.0276865
0.0268064
0.0259677
0.0251679
0.0244046
0.0236756
0.0229789
0.0223125
0.0216748
0.0210641
0.020479
0.0199181
0.01938
0.0188636
0.0183678
0.0178915
0.0174339
0.0169939
0.0165708
0.0161636
0.0157717
0.0153942
0.0150307
0.0146803
0.0143425
0.014017
0.0137034
0.0134019
0.0131122
0.0128324
0.0125585
0.0580878
0.0554686
0.0530198
0.0507283
0.0485808
0.0465654
0.0446715
0.0428895
0.0412109
0.0396279
0.0381336
0.0367215
0.0353856
0.0341206
0.0329216
0.0317841
0.030704
0.0296776
0.0287014
0.0277724
0.0268874
0.026044
0.0252394
0.0244713
0.0237376
0.0230362
0.0223653
0.0217232
0.0211082
0.020519
0.019954
0.0194122
0.0188921
0.0183929
0.0179132
0.0174523
0.0170091
0.0165828
0.0161727
0.0157778
0.0153976
0.0150313
0.0146783
0.014338
0.0140097
0.0136928
0.0133871
0.0130933
0.0128115
0.0125378
0.0580878
0.055469
0.0530192
0.0507249
0.0485739
0.0465548
0.0446575
0.0428728
0.0411922
0.0396079
0.0381129
0.0367006
0.035365
0.0341007
0.0329026
0.0317662
0.0306875
0.0296625
0.0286878
0.0277603
0.0268769
0.026035
0.0252319
0.0244653
0.023733
0.023033
0.0223634
0.0217225
0.0211086
0.0205204
0.0199565
0.0194156
0.0188964
0.0183979
0.017919
0.0174587
0.0170161
0.0165903
0.0161805
0.015786
0.015406
0.0150399
0.0146871
0.0143471
0.0140193
0.013703
0.0133972
0.013102
0.0128184
0.0125444
0.0580878
0.0554704
0.0530234
0.0507328
0.0485859
0.0465712
0.0446782
0.0428975
0.0412204
0.0396392
0.0381468
0.0367365
0.0354025
0.0341393
0.032942
0.0318061
0.0307275
0.0297024
0.0287275
0.0277995
0.0269156
0.026073
0.0252692
0.0245018
0.0237687
0.0230678
0.0223972
0.0217553
0.0211405
0.0205514
0.0199865
0.0194445
0.0189244
0.0184249
0.0179449
0.0174836
0.0170399
0.0166131
0.0162023
0.0158067
0.0154256
0.0150583
0.0147041
0.0143626
0.0140333
0.0137159
0.0134095
0.013113
0.0128272
0.0125513
0.0580877
0.0554706
0.0530242
0.0507339
0.048587
0.0465719
0.0446782
0.0428965
0.0412184
0.0396361
0.0381425
0.0367312
0.0353962
0.0341322
0.0329342
0.0317977
0.0307187
0.0296933
0.0287182
0.0277902
0.0269063
0.0260637
0.0252601
0.0244929
0.0237599
0.0230593
0.022389
0.0217474
0.021133
0.0205442
0.0199796
0.019438
0.0189182
0.018419
0.0179393
0.0174783
0.0170349
0.0166082
0.0161976
0.0158021
0.0154211
0.015054
0.0146999
0.0143582
0.0140286
0.0137107
0.0134041
0.0131076
0.0128212
0.0125446
0.0580877
0.0554708
0.0530248
0.0507351
0.048589
0.0465747
0.044682
0.0429013
0.0412242
0.0396429
0.0381503
0.0367399
0.0354057
0.0341425
0.0329452
0.0318093
0.0307308
0.0297059
0.0287311
0.0278033
0.0269196
0.0260772
0.0252735
0.0245063
0.0237733
0.0230725
0.022402
0.0217603
0.0211456
0.0205565
0.0199916
0.0194496
0.0189294
0.0184298
0.0179497
0.0174881
0.0170441
0.0166169
0.0162056
0.0158094
0.0154277
0.0150598
0.014705
0.0143626
0.0140321
0.013713
0.0134052
0.0131077
0.0128202
0.0125422
0.0580877
0.0554709
0.053025
0.0507356
0.0485896
0.0465754
0.0446827
0.0429019
0.0412246
0.0396431
0.0381501
0.0367393
0.0354048
0.0341412
0.0329434
0.0318072
0.0307283
0.029703
0.028728
0.0277999
0.026916
0.0260734
0.0252696
0.0245022
0.0237691
0.0230683
0.0223978
0.021756
0.0211413
0.0205522
0.0199873
0.0194454
0.0189251
0.0184255
0.0179453
0.0174837
0.0170397
0.0166123
0.0162009
0.0158046
0.0154227
0.0150544
0.0146993
0.0143567
0.0140259
0.0137064
0.0133979
0.0130999
0.0128118
0.0125331
0.0580877
0.0554709
0.0530251
0.0507358
0.0485899
0.0465759
0.0446833
0.0429026
0.0412255
0.039644
0.0381512
0.0367406
0.0354063
0.0341428
0.0329453
0.0318092
0.0307305
0.0297054
0.0287305
0.0278026
0.0269188
0.0260763
0.0252725
0.0245052
0.0237721
0.0230712
0.0224007
0.0217589
0.0211441
0.0205549
0.0199899
0.0194479
0.0189275
0.0184277
0.0179473
0.0174854
0.0170411
0.0166134
0.0162016
0.0158049
0.0154226
0.0150538
0.0146981
0.0143549
0.0140235
0.0137033
0.0133941
0.0130951
0.0128061
0.0125264
0.0580877
0.0554709
0.0530251
0.0507358
0.0485899
0.0465759
0.0446832
0.0429025
0.0412253
0.0396438
0.0381509
0.0367403
0.0354059
0.0341424
0.0329448
0.0318087
0.03073
0.0297049
0.02873
0.0278021
0.0269183
0.0260758
0.025272
0.0245047
0.0237715
0.0230706
0.0224001
0.0217582
0.0211433
0.0205541
0.019989
0.0194469
0.0189264
0.0184264
0.0179459
0.0174838
0.0170392
0.0166113
0.0161992
0.0158021
0.0154194
0.0150503
0.0146941
0.0143503
0.0140184
0.0136977
0.0133878
0.0130881
0.0127982
0.0125177
0.0580877
0.0554709
0.053025
0.0507356
0.0485896
0.0465754
0.0446825
0.0429016
0.0412242
0.0396424
0.0381493
0.0367383
0.0354037
0.0341399
0.0329421
0.0318058
0.0307269
0.0297017
0.0287267
0.0277986
0.0269147
0.0260721
0.0252683
0.0245009
0.0237677
0.0230667
0.0223961
0.0217541
0.0211392
0.02055
0.0199849
0.0194427
0.0189222
0.0184222
0.0179416
0.0174794
0.0170347
0.0166066
0.0161943
0.015797
0.015414
0.0150447
0.0146882
0.0143441
0.0140118
0.0136906
0.0133801
0.0130799
0.0127893
0.012508
0.0580877
0.0554708
0.0530248
0.0507352
0.048589
0.0465746
0.0446817
0.0429008
0.0412234
0.0396418
0.0381489
0.0367383
0.035404
0.0341406
0.0329432
0.0318072
0.0307287
0.0297037
0.028729
0.0278012
0.0269175
0.026075
0.0252713
0.024504
0.0237708
0.0230698
0.0223991
0.021757
0.021142
0.0205526
0.0199874
0.019445
0.0189243
0.018424
0.0179431
0.0174805
0.0170354
0.0166069
0.0161942
0.0157964
0.0154129
0.015043
0.014686
0.0143413
0.0140082
0.0136863
0.013375
0.0130738
0.0127822
0.0124998
0.0580877
0.0554706
0.0530242
0.050734
0.048587
0.0465718
0.0446779
0.042896
0.0412175
0.0396348
0.0381409
0.0367292
0.035394
0.0341298
0.0329317
0.0317951
0.030716
0.0296907
0.0287156
0.0277876
0.0269037
0.0260612
0.0252574
0.0244901
0.0237569
0.023056
0.0223854
0.0217434
0.0211286
0.0205394
0.0199743
0.0194322
0.0189117
0.0184116
0.0179309
0.0174685
0.0170235
0.0165951
0.0161825
0.0157848
0.0154014
0.0150315
0.0146745
0.0143297
0.0139965
0.0136744
0.0133628
0.0130612
0.0127692
0.0124863
0.0580877
0.0554703
0.0530234
0.0507328
0.0485858
0.046571
0.0446778
0.0428968
0.0412194
0.0396378
0.038145
0.0367344
0.0354
0.0341366
0.0329391
0.0318031
0.0307244
0.0296994
0.0287245
0.0277966
0.0269126
0.02607
0.025266
0.0244983
0.0237648
0.0230635
0.0223924
0.02175
0.0211347
0.0205449
0.0199794
0.0194367
0.0189156
0.018415
0.0179336
0.0174706
0.017025
0.016596
0.0161827
0.0157843
0.0154002
0.0150296
0.0146718
0.0143262
0.0139921
0.0136691
0.0133565
0.0130538
0.0127606
0.0124764
0.0580877
0.0554689
0.0530191
0.0507248
0.0485737
0.0465544
0.044657
0.042872
0.0411911
0.0396065
0.0381111
0.0366985
0.0353626
0.034098
0.0328997
0.0317633
0.0306844
0.0296594
0.0286848
0.0277573
0.026874
0.026032
0.0252287
0.0244618
0.0237291
0.0230286
0.0223584
0.0217168
0.0211024
0.0205135
0.0199488
0.019407
0.0188867
0.0183869
0.0179063
0.017444
0.0169991
0.0165707
0.016158
0.0157602
0.0153766
0.0150065
0.0146491
0.0143039
0.0139701
0.0136473
0.0133348
0.0130322
0.012739
0.0124547
0.0580877
0.0554685
0.0530196
0.050728
0.0485804
0.0465648
0.0446707
0.0428885
0.0412097
0.0396265
0.0381319
0.0367194
0.0353833
0.034118
0.0329188
0.0317811
0.030701
0.0296745
0.0286984
0.0277693
0.0268843
0.0260407
0.0252358
0.0244674
0.0237331
0.0230311
0.0223595
0.0217166
0.0211009
0.0205108
0.0199451
0.0194022
0.018881
0.0183802
0.0178988
0.0174357
0.01699
0.0165609
0.0161476
0.0157493
0.0153653
0.0149947
0.0146371
0.0142916
0.0139577
0.0136349
0.0133225
0.0130203
0.0127278
0.0124446
0.0580877
0.0554496
0.0529791
0.0506675
0.0485027
0.0464735
0.0445693
0.0427801
0.0410968
0.0395113
0.0380161
0.0366044
0.0352701
0.0340075
0.0328116
0.0316777
0.0306017
0.0295797
0.0286083
0.027684
0.0268039
0.0259652
0.0251653
0.0244018
0.0236724
0.0229753
0.0223086
0.0216705
0.0210596
0.0204744
0.0199134
0.0193752
0.0188587
0.0183627
0.017886
0.0174278
0.016987
0.0165629
0.0161548
0.0157619
0.0153835
0.015019
0.0146678
0.0143294
0.0140032
0.0136891
0.0133866
0.013096
0.0128174
0.0125516
0.0580913
0.0554619
0.0530077
0.0507105
0.0485607
0.0465485
0.0446658
0.0429017
0.0412465
0.0396913
0.0382281
0.0368497
0.0355495
0.0343216
0.0331608
0.032062
0.031021
0.0300337
0.0290966
0.0282061
0.0273592
0.0265531
0.025785
0.0250525
0.0243534
0.0236858
0.0230479
0.0224379
0.0218544
0.0212959
0.020761
0.0202485
0.0197572
0.019286
0.0188338
0.0183999
0.0179834
0.0175838
0.0172003
0.0168326
0.0164802
0.0161426
0.0158197
0.0155112
0.0152172
0.0149381
0.0146747
0.0144286
0.0142031
0.014005
0.0589322
0.0574898
0.0561246
0.0548298
0.053597
0.0524181
0.0512851
0.0501952
0.0491457
0.0481348
0.0471603
0.0462207
0.0453144
0.0444397
0.0435953
0.04278
0.0419924
0.0412314
0.0404958
0.0397845
0.0390965
0.0384307
0.0377861
0.0371619
0.0365573
0.0359715
0.0354038
0.0348534
0.0343197
0.0338019
0.0332994
0.0328114
0.0323374
0.0318766
0.0314287
0.030993
0.0305691
0.0301565
0.0297546
0.029363
0.0289811
0.0286083
0.0282441
0.0278879
0.0275392
0.0271973
0.0268617
0.0265315
0.0262058
0.0258834
0.0109285
0.00255725
0.00282596
0.00359883
0.00448604
0.00521691
0.0055415
0.00529233
0.00443797
0.00314412
0.00181827
0.000964403
0.000707314
0.000712956
0.000813846
0.00094082
0.00117851
0.00142828
0.00229645
0.01859
0.0108035
0.0025486
0.00280457
0.00357704
0.00448417
0.00525056
0.00561177
0.00538407
0.00452679
0.00320911
0.00185317
0.000979243
0.000718247
0.00072297
0.000817775
0.000944154
0.00118206
0.00143574
0.00236743
0.01883
0.0106846
0.00254001
0.00278147
0.00355118
0.00447626
0.00527797
0.00567795
0.00547581
0.00462035
0.00328219
0.0018959
0.000997982
0.000728814
0.000729064
0.000819463
0.000945588
0.00118179
0.00143846
0.00243972
0.0191091
0.0105716
0.00253155
0.00275669
0.00352113
0.00446199
0.00529865
0.00573959
0.00556738
0.0047189
0.00336395
0.00194717
0.00102111
0.00074024
0.000737197
0.000822327
0.000948231
0.00118232
0.0014433
0.00252308
0.0193857
0.010465
0.0025233
0.00273031
0.00348683
0.00444103
0.00531205
0.00579609
0.00565841
0.00482242
0.00345472
0.00200745
0.00104901
0.000752409
0.000746475
0.000826282
0.000952025
0.00118367
0.00145052
0.00261652
0.0196599
0.010365
0.00251536
0.00270243
0.0034483
0.00441316
0.00531767
0.00584685
0.00574839
0.00493069
0.00355454
0.00207699
0.00108197
0.000765396
0.000756265
0.000831206
0.000956819
0.00118581
0.00146021
0.00271871
0.0199313
0.0102712
0.00250783
0.00267323
0.00340562
0.00437819
0.00531504
0.00589123
0.00583675
0.00504333
0.00366325
0.00215585
0.00112024
0.000779349
0.000766237
0.000837037
0.000962523
0.00118878
0.00147254
0.00282863
0.0201995
0.0101836
0.00250081
0.0026429
0.00335895
0.00433605
0.00530373
0.00592856
0.00592281
0.00515985
0.00378059
0.00224404
0.00116411
0.000794557
0.000776379
0.000843767
0.000969097
0.00119263
0.00148766
0.00294535
0.0204642
0.0101019
0.00249445
0.00261169
0.00330852
0.0042867
0.00528333
0.00595817
0.00600585
0.0052797
0.00390636
0.00234168
0.00121399
0.000811368
0.000786814
0.000851427
0.00097652
0.00119743
0.00150572
0.00306801
0.0207249
0.010026
0.00248885
0.00257986
0.00325458
0.00423018
0.0052535
0.00597937
0.00608512
0.00540237
0.00404042
0.00244908
0.00127043
0.00083019
0.000797763
0.000860067
0.000984792
0.00120327
0.00152685
0.00319585
0.0209815
0.00995593
0.00248415
0.00254768
0.00319745
0.00416659
0.00521392
0.00599147
0.00615984
0.00552737
0.00418283
0.00256681
0.00133421
0.000851508
0.000809484
0.000869754
0.000993932
0.00121025
0.00155116
0.00332825
0.0212336
0.00989146
0.00248048
0.00251544
0.00313751
0.00409607
0.00516428
0.00599374
0.00622918
0.00565423
0.00433382
0.00269576
0.00140638
0.000875905
0.000822249
0.000880566
0.00100398
0.00121848
0.00157878
0.00346464
0.021481
0.00983262
0.00247798
0.00248345
0.00307514
0.00401884
0.0051043
0.00598543
0.00629227
0.00578251
0.0044938
0.00283715
0.00148833
0.000904104
0.000836328
0.000892586
0.00101497
0.00122809
0.0016098
0.00360454
0.0217237
0.00977945
0.00247677
0.00245201
0.00301078
0.00393514
0.00503371
0.00596571
0.00634812
0.00591173
0.00466332
0.00299255
0.00158183
0.000937033
0.00085198
0.000905898
0.00102699
0.00123922
0.00164431
0.00374761
0.0219615
0.00973205
0.00247699
0.00242142
0.00294489
0.00384527
0.00495227
0.0059337
0.00639563
0.00604128
0.00484301
0.00316389
0.00168917
0.000975896
0.000869415
0.000920589
0.00104011
0.00125203
0.00168244
0.00389371
0.0221944
0.00969059
0.00247876
0.00239199
0.00287796
0.00374956
0.00485975
0.00588843
0.00643347
0.00617038
0.00503351
0.00335344
0.00181322
0.00102231
0.000888774
0.000936745
0.00105443
0.0012667
0.00172437
0.00404302
0.0224224
0.0096553
0.00248221
0.00236401
0.00281051
0.00364846
0.00475594
0.00582882
0.00646007
0.00629795
0.00523535
0.00356378
0.00195756
0.00107854
0.000910121
0.00095446
0.00107009
0.00128347
0.00177041
0.0041961
0.0226458
0.0096265
0.00248746
0.0023378
0.00274311
0.00354247
0.00464069
0.0057537
0.00647354
0.00642246
0.00544876
0.0037977
0.00212658
0.00114778
0.000933569
0.000973881
0.0010873
0.00130265
0.00182104
0.00435399
0.0228648
0.00960458
0.00249465
0.00231364
0.00267637
0.00343221
0.00451395
0.00566179
0.00647161
0.00654182
0.0056735
0.00405805
0.00232551
0.00123458
0.000963477
0.00099526
0.00110634
0.00132468
0.00187701
0.00451828
0.0230796
0.00958998
0.00250391
0.00229183
0.00261096
0.00331841
0.00437577
0.00555176
0.00645161
0.00665318
0.00590859
0.00434751
0.00256046
0.00134394
0.00099569
0.00101892
0.00112761
0.00135016
0.00193946
0.00469135
0.0232906
0.00958325
0.00251536
0.00227265
0.00254757
0.00320198
0.00422641
0.00542227
0.0064104
0.00675274
0.00615193
0.00466821
0.00283849
0.00148429
0.00103412
0.00104535
0.0011517
0.00137999
0.00201012
0.00487661
0.0234982
0.00958498
0.00252913
0.00225637
0.00248695
0.003084
0.0040664
0.00527208
0.00634442
0.00683562
0.00639994
0.00502128
0.00316743
0.00166686
0.00108473
0.00107538
0.00117953
0.00141554
0.00209163
0.00507883
0.0237029
0.00959581
0.00254537
0.00224325
0.00242992
0.00296578
0.00389662
0.00510014
0.00624976
0.00689569
0.00664708
0.00540608
0.00355505
0.00190589
0.00115673
0.00111047
0.00121262
0.00145905
0.00218808
0.0053047
0.023905
0.00961646
0.00256419
0.00223349
0.00237729
0.00284884
0.00371841
0.00490584
0.00612229
0.00692554
0.00688541
0.00581915
0.00400772
0.00221805
0.00126468
0.00115321
0.00125357
0.00151419
0.00230563
0.00556324
0.024105
0.00964768
0.00258573
0.0022273
0.0023299
0.00273495
0.00353367
0.00468918
0.00595795
0.00691654
0.00710424
0.00625341
0.0045292
0.00262169
0.00142995
0.00120845
0.00130698
0.00158706
0.00245353
0.00586636
0.0243029
0.00969023
0.00261012
0.0022248
0.00228856
0.00262608
0.00334494
0.00445106
0.00575313
0.00685908
0.00728987
0.00669716
0.00511901
0.00313543
0.00168207
0.00128545
0.00138114
0.00168775
0.00264525
0.00622909
0.0244986
0.00974492
0.00263748
0.00222605
0.002254
0.00252439
0.00315552
0.00419365
0.00550522
0.006743
0.0074255
0.00713304
0.00577042
0.00377605
0.00206017
0.0014018
0.00149085
0.00183269
0.00289969
0.00666925
0.0246915
0.00981253
0.00266793
0.00223105
0.00222684
0.00243209
0.00296944
0.00392068
0.00521326
0.00655836
0.00749139
0.00753695
0.00646742
0.0045545
0.00261553
0.00159063
0.00166188
0.0020474
0.00324182
0.00720627
0.0248808
0.0098938
0.00270161
0.00223971
0.00220749
0.00235137
0.00279142
0.00363779
0.00487889
0.00629662
0.00746559
0.00787724
0.00718096
0.00546708
0.00341471
0.00203294
0.00193701
0.00236917
0.00370226
0.00785882
0.0250645
0.00998942
0.00273863
0.00225182
0.00219615
0.00228417
0.00262669
0.00335271
0.00450737
0.00595247
0.00732561
0.00811489
0.00786614
0.00647957
0.0044524
0.00279592
0.00237914
0.00284645
0.00431435
0.00864099
0.02524
0.0100999
0.00277909
0.00226713
0.00219266
0.00223198
0.00248058
0.00307524
0.00410868
0.00552629
0.00705138
0.00820526
0.00846325
0.00753783
0.00569078
0.00383309
0.0030643
0.00353221
0.0051083
0.00955808
0.0254035
0.0102258
0.00282311
0.00228527
0.00219655
0.00219556
0.002358
0.00281674
0.00369815
0.00502713
0.00663006
0.0081017
0.00889597
0.00856517
0.00709993
0.00519304
0.00406111
0.00447263
0.00610491
0.0106042
0.0255499
0.010367
0.00287075
0.00230584
0.00220701
0.00217474
0.00226261
0.002589
0.00329628
0.00447545
0.0060629
0.00776394
0.00907253
0.00943946
0.00858822
0.00687452
0.00540685
0.00569504
0.00731108
0.0117627
0.0256727
0.0105236
0.00292207
0.00232841
0.00222297
0.00216836
0.00219612
0.00240237
0.00292682
0.00390421
0.00537294
0.00717346
0.00890281
0.00999601
0.00997685
0.00884788
0.00741447
0.0072033
0.00871923
0.013009
0.0257631
0.0106951
0.00297712
0.00235259
0.00224319
0.00217429
0.00215766
0.00226359
0.002613
0.00335649
0.00460977
0.00635141
0.00833043
0.0100568
0.0109465
0.0106627
0.00957643
0.00897605
0.0103065
0.0143128
0.0258098
0.0108807
0.00303585
0.00237803
0.00226645
0.00218978
0.00214381
0.00217395
0.0023723
0.00287799
0.00384649
0.00537079
0.00737403
0.00952836
0.0112772
0.0120432
0.0116661
0.0109647
0.0120361
0.0156408
0.0257976
0.0110793
0.0030982
0.00240446
0.00229169
0.0022119
0.00214921
0.00212867
0.00221145
0.00250574
0.00316549
0.00434937
0.00613408
0.00840467
0.0107793
0.0126548
0.0134699
0.0132715
0.0138653
0.0169615
0.0257053
0.0112894
0.00316398
0.00243168
0.00231809
0.00223807
0.00216779
0.00211813
0.00212428
0.00225674
0.0026365
0.00342897
0.00480022
0.00682768
0.00938668
0.0120715
0.0142459
0.0153638
0.0157377
0.0182396
0.0255016
0.0115091
0.00323294
0.00245956
0.00234508
0.00226632
0.00219406
0.00213076
0.00209414
0.00212231
0.00229178
0.0027298
0.00361057
0.00511563
0.00734854
0.0102163
0.0133234
0.015982
0.0175514
0.0194186
0.0251351
0.0117363
0.00330469
0.002488
0.00237237
0.00229539
0.002224
0.00215617
0.00210027
0.00207335
0.00211474
0.00229955
0.00275283
0.0036509
0.00519576
0.00754886
0.0107166
0.0144027
0.017903