/*--------------------------------*- C++ -*----------------------------------*\
  =========                 |
  \\      /  F ield         | OpenFOAM: The Open Source CFD Toolbox
   \\    /   O peration     | Website:  https://openfoam.org
    \\  /    A nd           | Version:  8
     \\/     M anipulation  |
\*---------------------------------------------------------------------------*/
FoamFile
{
    version     2.0;
    format      ascii;
    class       volScalarField;
    location    "700";
    object      nut;
}
// * * * * * * * * * * * * * * * * * * * * * * * * * * * * * * * * * * * * * //

dimensions      [0 2 -1 0 0 0 0];

internalField   nonuniform List<scalar> 
8400
(
0.00032308
0.000319077
0.000315172
0.000311359
0.000307636
0.000303995
0.000300429
0.000296935
0.000293508
0.000290144
0.000286842
0.000283597
0.000280407
0.00027727
0.000274182
0.000271141
0.000268143
0.000265186
0.000262267
0.000259384
0.000256533
0.000253713
0.00025092
0.000248154
0.000245412
0.000242694
0.000239998
0.000237325
0.000234673
0.000232042
0.000229435
0.00022685
0.000224288
0.000221751
0.00021924
0.000216754
0.000214296
0.000211867
0.000209466
0.000207097
0.000204759
0.000202455
0.000200185
0.000197952
0.000195759
0.000193612
0.000191519
0.000189491
0.000187546
0.000185707
6.77597e-05
6.75314e-05
6.73299e-05
6.71513e-05
6.69925e-05
6.68511e-05
6.67252e-05
6.66131e-05
6.65132e-05
6.64243e-05
6.63452e-05
6.62751e-05
6.62129e-05
6.61578e-05
6.6109e-05
6.60659e-05
6.60277e-05
6.59937e-05
6.59634e-05
6.59362e-05
6.59115e-05
6.58889e-05
6.58679e-05
6.58481e-05
6.58292e-05
6.5811e-05
6.57933e-05
6.57759e-05
6.5759e-05
6.57425e-05
6.57266e-05
6.57113e-05
6.56966e-05
6.56828e-05
6.56701e-05
6.56586e-05
6.56487e-05
6.56403e-05
6.56338e-05
6.56295e-05
6.56275e-05
6.5628e-05
6.56311e-05
6.5637e-05
6.56458e-05
6.56579e-05
6.56737e-05
6.56939e-05
6.57194e-05
6.5752e-05
5.9727e-05
5.97666e-05
5.98093e-05
5.98547e-05
5.99024e-05
5.99516e-05
6.00021e-05
6.00535e-05
6.01055e-05
6.01579e-05
6.02106e-05
6.02633e-05
6.03159e-05
6.03682e-05
6.04202e-05
6.04717e-05
6.05226e-05
6.0573e-05
6.06226e-05
6.06715e-05
6.07196e-05
6.07668e-05
6.08131e-05
6.08586e-05
6.09033e-05
6.09473e-05
6.09905e-05
6.10333e-05
6.10756e-05
6.11178e-05
6.11597e-05
6.12018e-05
6.1244e-05
6.12865e-05
6.13295e-05
6.13731e-05
6.14174e-05
6.14626e-05
6.15088e-05
6.15563e-05
6.16052e-05
6.16555e-05
6.17072e-05
6.17606e-05
6.18158e-05
6.18729e-05
6.19325e-05
6.19952e-05
6.20618e-05
6.21334e-05
5.7852e-05
5.79027e-05
5.79552e-05
5.80083e-05
5.80616e-05
5.81145e-05
5.81667e-05
5.82181e-05
5.82685e-05
5.83179e-05
5.83662e-05
5.84134e-05
5.84594e-05
5.85042e-05
5.85478e-05
5.85903e-05
5.86316e-05
5.86717e-05
5.87108e-05
5.87488e-05
5.87857e-05
5.88217e-05
5.88569e-05
5.88912e-05
5.89248e-05
5.89579e-05
5.89905e-05
5.90229e-05
5.90552e-05
5.90877e-05
5.91204e-05
5.91536e-05
5.91876e-05
5.92223e-05
5.9258e-05
5.92948e-05
5.93327e-05
5.9372e-05
5.94127e-05
5.9455e-05
5.94988e-05
5.95443e-05
5.95913e-05
5.96399e-05
5.96903e-05
5.97425e-05
5.9797e-05
5.98541e-05
5.99148e-05
5.99797e-05
5.62021e-05
5.62618e-05
5.63219e-05
5.63816e-05
5.64404e-05
5.64979e-05
5.65537e-05
5.66079e-05
5.66602e-05
5.67107e-05
5.67594e-05
5.68062e-05
5.68512e-05
5.68944e-05
5.6936e-05
5.69758e-05
5.70142e-05
5.70511e-05
5.70867e-05
5.71211e-05
5.71542e-05
5.71863e-05
5.72175e-05
5.72479e-05
5.72777e-05
5.73071e-05
5.73363e-05
5.73656e-05
5.73952e-05
5.74253e-05
5.74562e-05
5.74879e-05
5.75208e-05
5.75548e-05
5.75901e-05
5.76268e-05
5.76649e-05
5.77044e-05
5.77456e-05
5.77883e-05
5.78325e-05
5.78782e-05
5.79252e-05
5.79735e-05
5.8023e-05
5.80741e-05
5.81269e-05
5.81818e-05
5.82393e-05
5.83004e-05
5.48352e-05
5.4883e-05
5.49341e-05
5.4987e-05
5.50407e-05
5.50947e-05
5.51483e-05
5.52011e-05
5.52529e-05
5.53034e-05
5.53526e-05
5.54002e-05
5.54462e-05
5.54907e-05
5.55334e-05
5.55747e-05
5.56143e-05
5.56525e-05
5.56893e-05
5.57247e-05
5.57591e-05
5.57925e-05
5.58253e-05
5.58574e-05
5.58893e-05
5.5921e-05
5.59529e-05
5.59851e-05
5.60181e-05
5.60518e-05
5.60866e-05
5.61226e-05
5.61598e-05
5.61983e-05
5.62382e-05
5.62795e-05
5.63221e-05
5.63661e-05
5.64114e-05
5.64579e-05
5.65055e-05
5.6554e-05
5.66033e-05
5.66532e-05
5.67039e-05
5.67554e-05
5.68079e-05
5.68621e-05
5.6918e-05
5.69771e-05
5.41508e-05
5.41259e-05
5.41106e-05
5.41045e-05
5.41065e-05
5.41155e-05
5.413e-05
5.41491e-05
5.41718e-05
5.41975e-05
5.42255e-05
5.42553e-05
5.42863e-05
5.43182e-05
5.43507e-05
5.43835e-05
5.44166e-05
5.44499e-05
5.44831e-05
5.45163e-05
5.45494e-05
5.45825e-05
5.46157e-05
5.46489e-05
5.46823e-05
5.47158e-05
5.47498e-05
5.47844e-05
5.48196e-05
5.48557e-05
5.48926e-05
5.49305e-05
5.49694e-05
5.50094e-05
5.50504e-05
5.50924e-05
5.51353e-05
5.51791e-05
5.52238e-05
5.52693e-05
5.53155e-05
5.53623e-05
5.54094e-05
5.54568e-05
5.55046e-05
5.55528e-05
5.56016e-05
5.5652e-05
5.57041e-05
5.57589e-05
5.5023e-05
5.48572e-05
5.47089e-05
5.45821e-05
5.44751e-05
5.43855e-05
5.43113e-05
5.42503e-05
5.42012e-05
5.41623e-05
5.41322e-05
5.41102e-05
5.40951e-05
5.4086e-05
5.40822e-05
5.40832e-05
5.4088e-05
5.40961e-05
5.4107e-05
5.41203e-05
5.41356e-05
5.41527e-05
5.4171e-05
5.41902e-05
5.42101e-05
5.42305e-05
5.42512e-05
5.42721e-05
5.42929e-05
5.43137e-05
5.43343e-05
5.43548e-05
5.43752e-05
5.43956e-05
5.44161e-05
5.44367e-05
5.44576e-05
5.4479e-05
5.45009e-05
5.45236e-05
5.4547e-05
5.45709e-05
5.45951e-05
5.46196e-05
5.46442e-05
5.46685e-05
5.46931e-05
5.4717e-05
5.47417e-05
5.47661e-05
5.75428e-05
5.72423e-05
5.69747e-05
5.67397e-05
5.65314e-05
5.63453e-05
5.61793e-05
5.60308e-05
5.5899e-05
5.57821e-05
5.56788e-05
5.55883e-05
5.55095e-05
5.5441e-05
5.53821e-05
5.53315e-05
5.52886e-05
5.52524e-05
5.52222e-05
5.51972e-05
5.51767e-05
5.516e-05
5.51464e-05
5.51353e-05
5.51262e-05
5.51185e-05
5.51119e-05
5.51059e-05
5.51003e-05
5.50949e-05
5.50898e-05
5.5085e-05
5.50806e-05
5.50766e-05
5.50727e-05
5.50692e-05
5.50661e-05
5.50639e-05
5.50625e-05
5.50621e-05
5.50625e-05
5.50633e-05
5.5064e-05
5.50644e-05
5.50634e-05
5.50597e-05
5.50536e-05
5.50434e-05
5.50289e-05
5.50108e-05
6.01908e-05
5.98962e-05
5.9653e-05
5.94347e-05
5.92345e-05
5.90476e-05
5.88732e-05
5.87095e-05
5.8556e-05
5.84121e-05
5.82771e-05
5.8151e-05
5.80325e-05
5.79215e-05
5.78185e-05
5.77222e-05
5.76315e-05
5.7546e-05
5.74648e-05
5.73875e-05
5.73146e-05
5.7246e-05
5.7181e-05
5.7119e-05
5.70603e-05
5.70053e-05
5.69538e-05
5.69057e-05
5.6861e-05
5.68197e-05
5.67821e-05
5.67483e-05
5.67181e-05
5.66905e-05
5.66655e-05
5.66435e-05
5.66247e-05
5.66095e-05
5.65979e-05
5.65901e-05
5.65867e-05
5.65873e-05
5.65906e-05
5.65944e-05
5.65979e-05
5.6601e-05
5.65999e-05
5.66029e-05
5.65987e-05
5.66009e-05
6.1347e-05
6.11867e-05
6.10509e-05
6.09294e-05
6.08182e-05
6.07109e-05
6.06083e-05
6.05138e-05
6.04193e-05
6.03254e-05
6.02348e-05
6.0147e-05
6.00599e-05
5.99763e-05
5.98963e-05
5.98179e-05
5.97405e-05
5.96634e-05
5.95862e-05
5.95085e-05
5.9431e-05
5.93546e-05
5.92795e-05
5.92047e-05
5.91302e-05
5.90563e-05
5.89827e-05
5.89098e-05
5.88381e-05
5.87677e-05
5.86996e-05
5.86351e-05
5.85732e-05
5.85124e-05
5.84523e-05
5.83924e-05
5.8334e-05
5.8279e-05
5.82289e-05
5.81836e-05
5.81413e-05
5.81023e-05
5.80682e-05
5.80363e-05
5.80037e-05
5.79762e-05
5.79452e-05
5.79049e-05
5.7873e-05
5.78262e-05
6.14446e-05
6.13857e-05
6.13282e-05
6.12721e-05
6.1217e-05
6.11631e-05
6.11095e-05
6.10564e-05
6.1004e-05
6.09517e-05
6.08997e-05
6.08481e-05
6.07966e-05
6.07454e-05
6.06944e-05
6.06435e-05
6.05928e-05
6.05422e-05
6.04918e-05
6.04417e-05
6.0392e-05
6.03427e-05
6.02938e-05
6.0245e-05
6.01964e-05
6.01477e-05
6.0099e-05
6.00505e-05
6.00024e-05
5.99547e-05
5.99077e-05
5.98612e-05
5.98149e-05
5.97688e-05
5.97227e-05
5.96767e-05
5.96313e-05
5.95867e-05
5.95425e-05
5.94987e-05
5.94557e-05
5.94141e-05
5.93727e-05
5.93315e-05
5.9292e-05
5.92497e-05
5.92103e-05
5.91693e-05
5.91263e-05
5.90818e-05
6.14662e-05
6.1431e-05
6.13963e-05
6.13616e-05
6.1327e-05
6.12925e-05
6.12583e-05
6.1224e-05
6.11896e-05
6.11553e-05
6.11212e-05
6.10871e-05
6.1053e-05
6.10191e-05
6.09852e-05
6.09514e-05
6.09176e-05
6.0884e-05
6.08506e-05
6.08171e-05
6.07837e-05
6.07503e-05
6.07168e-05
6.06832e-05
6.06496e-05
6.06159e-05
6.05822e-05
6.05485e-05
6.05147e-05
6.04809e-05
6.0447e-05
6.04132e-05
6.03793e-05
6.03453e-05
6.03114e-05
6.02776e-05
6.02439e-05
6.02104e-05
6.0177e-05
6.01438e-05
6.01108e-05
6.00782e-05
6.00457e-05
6.00134e-05
5.99813e-05
5.9949e-05
5.99165e-05
5.98839e-05
5.98512e-05
5.98175e-05
6.14763e-05
6.14517e-05
6.14271e-05
6.14024e-05
6.13776e-05
6.13526e-05
6.13277e-05
6.13027e-05
6.12775e-05
6.12523e-05
6.1227e-05
6.12016e-05
6.11761e-05
6.11505e-05
6.11248e-05
6.10991e-05
6.10734e-05
6.10479e-05
6.10223e-05
6.09969e-05
6.09715e-05
6.09461e-05
6.09207e-05
6.08952e-05
6.08697e-05
6.08442e-05
6.08187e-05
6.07931e-05
6.07676e-05
6.07422e-05
6.07167e-05
6.06913e-05
6.06659e-05
6.06404e-05
6.0615e-05
6.05896e-05
6.05643e-05
6.05389e-05
6.05135e-05
6.04881e-05
6.04626e-05
6.04372e-05
6.04117e-05
6.03863e-05
6.03606e-05
6.03354e-05
6.03099e-05
6.02842e-05
6.02582e-05
6.02321e-05
6.14803e-05
6.14603e-05
6.14401e-05
6.142e-05
6.14e-05
6.13798e-05
6.13597e-05
6.13396e-05
6.13195e-05
6.12995e-05
6.12795e-05
6.12595e-05
6.12396e-05
6.12197e-05
6.11997e-05
6.11797e-05
6.11597e-05
6.11397e-05
6.11196e-05
6.10994e-05
6.10792e-05
6.1059e-05
6.10386e-05
6.10183e-05
6.0998e-05
6.09777e-05
6.09573e-05
6.09368e-05
6.09163e-05
6.08958e-05
6.08752e-05
6.08547e-05
6.08342e-05
6.08136e-05
6.07932e-05
6.07727e-05
6.07522e-05
6.07318e-05
6.07114e-05
6.0691e-05
6.06707e-05
6.06504e-05
6.06301e-05
6.06099e-05
6.05896e-05
6.05692e-05
6.05489e-05
6.05284e-05
6.05077e-05
6.0487e-05
6.14851e-05
6.14699e-05
6.14545e-05
6.1439e-05
6.14235e-05
6.14079e-05
6.13922e-05
6.13765e-05
6.13607e-05
6.13448e-05
6.13288e-05
6.13128e-05
6.12967e-05
6.12805e-05
6.12642e-05
6.12478e-05
6.12315e-05
6.12151e-05
6.11987e-05
6.11823e-05
6.11658e-05
6.11493e-05
6.11328e-05
6.11162e-05
6.10996e-05
6.10829e-05
6.10662e-05
6.10495e-05
6.10327e-05
6.1016e-05
6.09992e-05
6.09825e-05
6.09658e-05
6.0949e-05
6.09322e-05
6.09154e-05
6.08985e-05
6.08816e-05
6.08647e-05
6.08476e-05
6.08305e-05
6.08134e-05
6.07962e-05
6.07789e-05
6.07618e-05
6.07445e-05
6.07273e-05
6.07102e-05
6.06929e-05
6.06755e-05
6.14848e-05
6.14693e-05
6.14539e-05
6.14384e-05
6.1423e-05
6.14076e-05
6.13921e-05
6.13766e-05
6.13611e-05
6.13456e-05
6.13302e-05
6.13149e-05
6.12996e-05
6.12843e-05
6.1269e-05
6.12537e-05
6.12385e-05
6.12234e-05
6.12083e-05
6.11932e-05
6.11781e-05
6.1163e-05
6.11479e-05
6.11328e-05
6.11178e-05
6.11027e-05
6.10876e-05
6.10725e-05
6.10574e-05
6.10423e-05
6.10273e-05
6.10122e-05
6.09971e-05
6.0982e-05
6.0967e-05
6.09521e-05
6.09371e-05
6.09222e-05
6.09074e-05
6.08925e-05
6.08777e-05
6.08628e-05
6.08479e-05
6.0833e-05
6.08182e-05
6.08037e-05
6.0789e-05
6.07748e-05
6.07607e-05
6.07473e-05
6.14897e-05
6.14802e-05
6.14709e-05
6.14618e-05
6.14528e-05
6.14439e-05
6.14351e-05
6.14267e-05
6.14186e-05
6.14111e-05
6.14043e-05
6.13982e-05
6.13925e-05
6.13875e-05
6.13829e-05
6.13784e-05
6.13738e-05
6.13693e-05
6.13655e-05
6.13623e-05
6.13593e-05
6.13562e-05
6.13529e-05
6.13493e-05
6.13452e-05
6.13404e-05
6.13349e-05
6.13287e-05
6.13216e-05
6.13138e-05
6.13053e-05
6.12961e-05
6.12864e-05
6.12768e-05
6.12678e-05
6.126e-05
6.12536e-05
6.12486e-05
6.12445e-05
6.12409e-05
6.12373e-05
6.12332e-05
6.12288e-05
6.12246e-05
6.12207e-05
6.1218e-05
6.12169e-05
6.12194e-05
6.12271e-05
6.12431e-05
6.17227e-05
6.1944e-05
6.21609e-05
6.2374e-05
6.25835e-05
6.27893e-05
6.29916e-05
6.31903e-05
6.33855e-05
6.35773e-05
6.37654e-05
6.39497e-05
6.41297e-05
6.45246e-05
6.52799e-05
6.6079e-05
6.66902e-05
6.69816e-05
6.73195e-05
6.77812e-05
6.82494e-05
6.86025e-05
6.88368e-05
6.89863e-05
6.90572e-05
6.90468e-05
6.89626e-05
6.88185e-05
6.86261e-05
6.84131e-05
6.83681e-05
6.84362e-05
6.85758e-05
6.87546e-05
6.88736e-05
6.89824e-05
6.91051e-05
6.92319e-05
6.93509e-05
6.9464e-05
6.95731e-05
6.96763e-05
6.9773e-05
6.98629e-05
6.99455e-05
7.00207e-05
7.00875e-05
7.02433e-05
7.05551e-05
7.11171e-05
0.000386264
0.000383846
0.000381062
0.000378634
0.000376413
0.000374345
0.00037245
0.000370725
0.000369112
0.000367515
0.000365824
0.000363929
0.000361741
0.000359201
0.000356414
0.000353573
0.000350725
0.00034794
0.000345146
0.000342355
0.000339574
0.000336789
0.000333991
0.000331172
0.000328323
0.000325435
0.000322497
0.000319499
0.000316427
0.000313263
0.000310001
0.000306755
0.000303568
0.000300504
0.000297658
0.000295021
0.000292564
0.000290231
0.000287936
0.000285617
0.000283247
0.000280828
0.000278385
0.000275941
0.00027351
0.000271079
0.000268639
0.000266188
0.000263806
0.000261481
0.000272578
0.000269218
0.000265999
0.000262912
0.00025994
0.000257068
0.000254278
0.000251564
0.000248922
0.00024635
0.000243843
0.000241401
0.000239022
0.000236705
0.000234446
0.000232245
0.000230099
0.000228007
0.000225966
0.000223974
0.00022203
0.000220133
0.000218281
0.000216475
0.000214711
0.00021299
0.00021131
0.000209669
0.000208066
0.0002065
0.00020497
0.000203474
0.000202012
0.000200584
0.000199189
0.000197825
0.000196494
0.000195193
0.000193923
0.000192678
0.000191454
0.00019025
0.000189063
0.000187892
0.000186732
0.000185578
0.000184421
0.000183252
0.000182055
0.000180808
0.000270624
0.000264422
0.000258501
0.000252838
0.000247423
0.000242247
0.000237302
0.000232571
0.000228041
0.0002237
0.000219535
0.000215539
0.0002117
0.000208012
0.000204464
0.00020105
0.00019776
0.000194587
0.000191525
0.000188568
0.000185711
0.00018295
0.000180279
0.000177696
0.000175196
0.000172773
0.000170425
0.000168146
0.000165934
0.000163785
0.000161696
0.000159664
0.000157687
0.000155762
0.000153887
0.000152057
0.000150272
0.000148527
0.000146821
0.000145157
0.000143536
0.000141956
0.000140416
0.000138913
0.000137446
0.000136013
0.000134604
0.000133197
0.000131768
0.000130321
0.000270616
0.000264394
0.000258434
0.000252733
0.000247277
0.000242053
0.000237046
0.000232242
0.000227628
0.000223194
0.000218929
0.000214824
0.000210872
0.000207064
0.000203392
0.000199849
0.000196428
0.000193122
0.000189924
0.00018683
0.000183836
0.000180936
0.000178127
0.000175406
0.000172767
0.000170208
0.000167724
0.000165312
0.000162968
0.000160689
0.000158473
0.000156318
0.000154221
0.00015218
0.000150193
0.000148259
0.000146375
0.00014454
0.000142752
0.000141011
0.000139313
0.000137659
0.000136046
0.000134472
0.000132937
0.000131447
0.000130011
0.000128629
0.000127266
0.000125836
0.000270616
0.00026444
0.000258534
0.000252885
0.000247476
0.000242291
0.000237315
0.000232535
0.000227939
0.000223517
0.00021926
0.000215161
0.00021121
0.000207401
0.000203725
0.000200177
0.000196748
0.000193432
0.000190225
0.00018712
0.000184114
0.000181202
0.00017838
0.000175646
0.000172994
0.00017042
0.000167923
0.000165496
0.000163138
0.000160846
0.000158616
0.000156447
0.000154337
0.000152283
0.000150284
0.000148337
0.00014644
0.000144593
0.000142793
0.000141038
0.000139329
0.000137663
0.000136039
0.000134453
0.0001329
0.000131376
0.00012989
0.000128463
0.000127108
0.000125739
0.000270616
0.000264441
0.000258533
0.000252878
0.000247459
0.000242264
0.000237278
0.000232489
0.000227886
0.000223459
0.000219199
0.000215098
0.000211148
0.00020734
0.000203666
0.000200121
0.000196695
0.000193383
0.00019018
0.000187079
0.000184078
0.000181171
0.000178354
0.000175624
0.000172977
0.000170409
0.000167915
0.000165493
0.000163139
0.000160851
0.000158625
0.000156461
0.000154354
0.000152304
0.000150308
0.000148364
0.00014647
0.000144625
0.000142828
0.000141075
0.000139367
0.000137702
0.00013608
0.0001345
0.000132961
0.000131452
0.000129965
0.000128508
0.000127119
0.000125759
0.000270616
0.000264445
0.000258545
0.000252898
0.000247491
0.000242307
0.000237332
0.000232555
0.000227963
0.000223546
0.000219296
0.000215203
0.000211259
0.000207457
0.000203788
0.000200246
0.000196823
0.000193514
0.000190311
0.000187212
0.00018421
0.000181303
0.000178486
0.000175755
0.000173107
0.000170537
0.000168042
0.000165618
0.000163262
0.000160972
0.000158744
0.000156577
0.000154468
0.000152415
0.000150416
0.000148469
0.000146573
0.000144725
0.000142924
0.000141168
0.000139457
0.000137786
0.000136155
0.000134565
0.000133017
0.000131511
0.000130034
0.000128577
0.000127164
0.000125791
0.000270617
0.000264447
0.000258547
0.000252902
0.000247494
0.000242309
0.000237332
0.000232552
0.000227956
0.000223536
0.000219283
0.000215187
0.00021124
0.000207436
0.000203765
0.00020022
0.000196796
0.000193484
0.000190281
0.00018718
0.000184178
0.00018127
0.000178453
0.000175723
0.000173075
0.000170505
0.000168011
0.000165587
0.000163232
0.000160943
0.000158716
0.000156549
0.000154442
0.00015239
0.000150393
0.000148447
0.000146551
0.000144704
0.000142903
0.000141148
0.000139438
0.00013777
0.00013614
0.000134548
0.000132992
0.000131478
0.000130004
0.000128554
0.000127138
0.000125757
0.000270617
0.000264447
0.000258549
0.000252905
0.000247499
0.000242316
0.000237342
0.000232564
0.000227972
0.000223556
0.000219305
0.000215213
0.000211269
0.000207467
0.000203799
0.000200257
0.000196835
0.000193525
0.000190323
0.000187224
0.000184224
0.000181317
0.000178501
0.000175771
0.000173123
0.000170554
0.000168059
0.000165636
0.00016328
0.00016099
0.000158762
0.000156595
0.000154487
0.000152434
0.000150435
0.000148488
0.000146591
0.000144742
0.000142939
0.000141181
0.000139467
0.000137795
0.000136165
0.000134572
0.000133012
0.000131489
0.000130006
0.000128554
0.000127134
0.000125746
0.000270617
0.000264448
0.00025855
0.000252907
0.000247501
0.000242318
0.000237344
0.000232567
0.000227974
0.000223557
0.000219306
0.000215212
0.000211267
0.000207464
0.000203794
0.000200251
0.000196827
0.000193516
0.000190313
0.000187213
0.000184211
0.000181304
0.000178487
0.000175756
0.000173108
0.000170538
0.000168043
0.000165618
0.000163262
0.000160972
0.000158744
0.000156577
0.000154468
0.000152415
0.000150417
0.000148469
0.000146572
0.000144722
0.000142919
0.00014116
0.000139444
0.00013777
0.000136137
0.000134544
0.000132985
0.000131459
0.00012997
0.000128515
0.000127092
0.000125701
0.000270617
0.000264448
0.000258551
0.000252908
0.000247502
0.00024232
0.000237346
0.000232569
0.000227978
0.000223561
0.00021931
0.000215217
0.000211273
0.00020747
0.000203801
0.000200258
0.000196834
0.000193524
0.000190321
0.000187221
0.00018422
0.000181313
0.000178497
0.000175766
0.000173118
0.000170548
0.000168053
0.000165629
0.000163273
0.000160982
0.000158754
0.000156586
0.000154477
0.000152424
0.000150424
0.000148476
0.000146578
0.000144727
0.000142923
0.000141163
0.000139445
0.000137768
0.000136131
0.000134534
0.000132973
0.000131445
0.000129951
0.000128491
0.000127064
0.000125668
0.000270617
0.000264448
0.000258551
0.000252908
0.000247503
0.00024232
0.000237347
0.00023257
0.000227979
0.000223562
0.000219311
0.000215217
0.000211273
0.000207469
0.0002038
0.000200257
0.000196833
0.000193522
0.000190319
0.000187219
0.000184218
0.000181311
0.000178494
0.000175764
0.000173116
0.000170546
0.00016805
0.000165626
0.000163269
0.000160978
0.000158749
0.000156581
0.000154471
0.000152418
0.000150418
0.000148469
0.00014657
0.000144718
0.000142912
0.00014115
0.000139431
0.000137753
0.000136113
0.000134512
0.000132947
0.000131417
0.000129921
0.000128457
0.000127025
0.000125624
0.000270617
0.000264448
0.00025855
0.000252907
0.000247502
0.00024232
0.000237346
0.000232569
0.000227977
0.000223559
0.000219308
0.000215213
0.000211267
0.000207463
0.000203792
0.000200248
0.000196823
0.000193511
0.000190308
0.000187207
0.000184205
0.000181298
0.000178481
0.00017575
0.000173101
0.000170531
0.000168035
0.00016561
0.000163253
0.000160961
0.000158732
0.000156563
0.000154453
0.000152399
0.000150399
0.000148451
0.000146551
0.000144698
0.000142891
0.000141128
0.000139407
0.000137727
0.000136086
0.000134482
0.000132915
0.000131383
0.000129883
0.000128416
0.000126981
0.000125576
0.000270617
0.000264447
0.000258549
0.000252906
0.000247501
0.000242318
0.000237345
0.000232568
0.000227976
0.000223559
0.000219308
0.000215214
0.000211269
0.000207466
0.000203796
0.000200252
0.000196828
0.000193518
0.000190315
0.000187215
0.000184214
0.000181307
0.000178491
0.000175761
0.000173113
0.000170543
0.000168047
0.000165621
0.000163264
0.000160971
0.000158741
0.000156572
0.000154461
0.000152406
0.000150405
0.000148455
0.000146555
0.000144701
0.000142891
0.000141125
0.000139401
0.000137718
0.000136074
0.000134468
0.000132897
0.000131361
0.000129858
0.000128387
0.000126946
0.000125536
0.000270617
0.000264447
0.000258548
0.000252903
0.000247496
0.000242311
0.000237336
0.000232556
0.000227961
0.000223541
0.000219286
0.000215189
0.00021124
0.000207433
0.00020376
0.000200214
0.000196787
0.000193475
0.00019027
0.000187168
0.000184166
0.000181258
0.000178441
0.000175711
0.000173062
0.000170492
0.000167996
0.00016557
0.000163212
0.000160919
0.000158689
0.000156519
0.000154409
0.000152354
0.000150354
0.000148404
0.000146504
0.000144649
0.00014284
0.000141073
0.000139349
0.000137665
0.00013602
0.000134412
0.000132841
0.000131303
0.000129799
0.000128325
0.000126883
0.000125469
0.000270617
0.000264446
0.000258545
0.0002529
0.000247493
0.00024231
0.000237336
0.000232559
0.000227967
0.00022355
0.000219299
0.000215204
0.000211259
0.000207454
0.000203784
0.000200239
0.000196814
0.000193502
0.000190298
0.000187197
0.000184195
0.000181288
0.000178471
0.00017574
0.000173091
0.00017052
0.000168023
0.000165595
0.000163235
0.00016094
0.000158708
0.000156537
0.000154425
0.000152368
0.000150366
0.000148414
0.000146511
0.000144653
0.000142841
0.000141071
0.000139343
0.000137655
0.000136006
0.000134395
0.000132819
0.000131277
0.000129768
0.00012829
0.000126841
0.000125421
0.000270617
0.000264442
0.000258535
0.00025288
0.000247462
0.000242267
0.000237281
0.000232493
0.00022789
0.000223463
0.000219202
0.0002151
0.000211147
0.000207337
0.000203662
0.000200113
0.000196685
0.000193371
0.000190166
0.000187064
0.000184062
0.000181155
0.000178339
0.000175609
0.000172962
0.000170392
0.000167895
0.000165469
0.000163111
0.000160817
0.000158587
0.000156417
0.000154306
0.000152252
0.000150251
0.000148301
0.000146399
0.000144543
0.000142732
0.000140963
0.000139235
0.000137548
0.0001359
0.000134289
0.000132714
0.000131173
0.000129663
0.000128184
0.000126735
0.000125313
0.000270617
0.000264441
0.000258536
0.000252888
0.000247479
0.000242294
0.000237318
0.000232538
0.000227941
0.000223519
0.000219262
0.000215161
0.000211209
0.000207398
0.000203721
0.000200169
0.000196737
0.000193419
0.00019021
0.000187103
0.000184097
0.000181185
0.000178364
0.00017563
0.000172977
0.000170402
0.0001679
0.000165469
0.000163105
0.000160807
0.000158571
0.000156398
0.000154283
0.000152224
0.00015022
0.000148266
0.00014636
0.000144501
0.000142686
0.000140914
0.000139183
0.000137494
0.000135843
0.000134231
0.000132655
0.000131113
0.000129604
0.000128127
0.00012668
0.000125264
0.000270616
0.000264396
0.000258438
0.000252737
0.000247282
0.000242057
0.000237049
0.000232244
0.000227629
0.000223194
0.000218929
0.000214824
0.000210871
0.000207062
0.000203389
0.000199843
0.000196419
0.000193109
0.00018991
0.000186815
0.000183821
0.000180922
0.000178115
0.000175394
0.000172756
0.000170196
0.000167709
0.000165293
0.000162945
0.000160663
0.000158445
0.000156288
0.000154191
0.000152152
0.000150166
0.000148232
0.000146347
0.000144509
0.000142717
0.000140969
0.000139265
0.000137604
0.000135985
0.000134408
0.000132871
0.000131373
0.000129916
0.000128499
0.000127125
0.000125801
0.000270625
0.000264426
0.000258508
0.000252845
0.00024743
0.000242252
0.000237305
0.000232573
0.000228043
0.000223702
0.000219538
0.000215543
0.000211706
0.000208017
0.000204469
0.000201052
0.00019776
0.000194585
0.000191523
0.000188567
0.000185713
0.000182956
0.000180291
0.000177715
0.000175221
0.000172805
0.000170463
0.000168191
0.000165988
0.000163851
0.000161778
0.000159767
0.000157817
0.000155926
0.00015409
0.000152308
0.000150576
0.000148895
0.000147262
0.000145677
0.000144142
0.000142657
0.000141222
0.000139839
0.000138509
0.000137234
0.000136021
0.000134876
0.000133819
0.000132883
0.000272577
0.000269219
0.000266003
0.000262918
0.000259947
0.000257075
0.000254283
0.000251566
0.000248923
0.000246349
0.000243842
0.0002414
0.000239021
0.000236703
0.000234443
0.00023224
0.000230091
0.000227995
0.000225951
0.000223958
0.000222013
0.000220116
0.000218264
0.000216457
0.00021469
0.000212964
0.000211277
0.000209628
0.000208015
0.00020644
0.000204899
0.000203393
0.00020192
0.000200479
0.000199067
0.000197683
0.000196327
0.000194997
0.000193692
0.000192413
0.000191157
0.000189924
0.000188712
0.00018752
0.000186345
0.000185186
0.000184041
0.000182907
0.000181782
0.000180661
0.000118504
5.61625e-05
5.83435e-05
6.61859e-05
7.49051e-05
8.19493e-05
8.53241e-05
8.36044e-05
7.60085e-05
6.28574e-05
4.67649e-05
3.39881e-05
2.95754e-05
2.944e-05
3.17651e-05
3.42306e-05
3.82559e-05
4.20631e-05
5.35357e-05
0.000153861
0.000117934
5.60689e-05
5.80475e-05
6.58269e-05
7.46645e-05
8.19471e-05
8.55876e-05
8.40814e-05
7.65957e-05
6.34318e-05
4.72137e-05
3.42655e-05
2.98111e-05
2.97591e-05
3.18631e-05
3.43118e-05
3.83392e-05
4.21852e-05
5.43569e-05
0.000155126
0.000117386
5.59792e-05
5.77379e-05
6.54308e-05
7.43705e-05
8.18894e-05
8.581e-05
8.45469e-05
7.72124e-05
6.40783e-05
4.77567e-05
3.4604e-05
3.0041e-05
2.99405e-05
3.19017e-05
3.4337e-05
3.83334e-05
4.222e-05
5.51544e-05
0.000156364
0.00011686
5.58947e-05
5.7416e-05
6.49978e-05
7.40211e-05
8.17733e-05
8.59886e-05
8.49993e-05
7.78581e-05
6.47981e-05
4.8397e-05
3.50073e-05
3.02743e-05
3.01536e-05
3.19584e-05
3.43774e-05
3.83354e-05
4.22812e-05
5.60744e-05
0.000157586
0.00011636
5.58165e-05
5.70834e-05
6.45288e-05
7.36158e-05
8.15973e-05
8.61211e-05
8.54361e-05
7.85312e-05
6.55907e-05
4.9136e-05
3.54796e-05
3.05159e-05
3.037e-05
3.20298e-05
3.44325e-05
3.83462e-05
4.23733e-05
5.71005e-05
0.000158792
0.000115884
5.5746e-05
5.67428e-05
6.4026e-05
7.31552e-05
8.13599e-05
8.62051e-05
8.58545e-05
7.92281e-05
6.64518e-05
4.99708e-05
3.60232e-05
3.07684e-05
3.05802e-05
3.21142e-05
3.45003e-05
3.83662e-05
4.24991e-05
5.82184e-05
0.000159984
0.000115432
5.56848e-05
5.63972e-05
6.3492e-05
7.26401e-05
8.10602e-05
8.62382e-05
8.6251e-05
7.99444e-05
6.73758e-05
5.08956e-05
3.66387e-05
3.10342e-05
3.07781e-05
3.2211e-05
3.45803e-05
3.83973e-05
4.26638e-05
5.94209e-05
0.000161159
0.000115002
5.56345e-05
5.60501e-05
6.29301e-05
7.20719e-05
8.06975e-05
8.62181e-05
8.6622e-05
8.06751e-05
6.83559e-05
5.19046e-05
3.7327e-05
3.13221e-05
3.09704e-05
3.23214e-05
3.46739e-05
3.84418e-05
4.28736e-05
6.07038e-05
0.000162316
0.000114594
5.55964e-05
5.5705e-05
6.23442e-05
7.14526e-05
8.02714e-05
8.61423e-05
8.69637e-05
8.14153e-05
6.93862e-05
5.29916e-05
3.80887e-05
3.16388e-05
3.11635e-05
3.24477e-05
3.47826e-05
3.8503e-05
4.31351e-05
6.20633e-05
0.000163454
0.000114207
5.55716e-05
5.53654e-05
6.17384e-05
7.07847e-05
7.9782e-05
8.60089e-05
8.72726e-05
8.21604e-05
7.04625e-05
5.41544e-05
3.89259e-05
3.19905e-05
3.13639e-05
3.25925e-05
3.49085e-05
3.85844e-05
4.34552e-05
6.34958e-05
0.000164569
0.000113841
5.55611e-05
5.50349e-05
6.11172e-05
7.0071e-05
7.92292e-05
8.58155e-05
8.75453e-05
8.29071e-05
7.15819e-05
5.53929e-05
3.98444e-05
3.23842e-05
3.15804e-05
3.27592e-05
3.50538e-05
3.86897e-05
4.38401e-05
6.49969e-05
0.000165661
0.000113494
5.55661e-05
5.47174e-05
6.04856e-05
6.93144e-05
7.8613e-05
8.55596e-05
8.7778e-05
8.36525e-05
7.27446e-05
5.67112e-05
4.08521e-05
3.28282e-05
3.18206e-05
3.29515e-05
3.52209e-05
3.88233e-05
4.42957e-05
6.65616e-05
0.000166729
0.000113167
5.55877e-05
5.4416e-05
5.98482e-05
6.85179e-05
7.79332e-05
8.52386e-05
8.79673e-05
8.43944e-05
7.39521e-05
5.81167e-05
4.19611e-05
3.3331e-05
3.20934e-05
3.31726e-05
3.54122e-05
3.89899e-05
4.48271e-05
6.81851e-05
0.000167769
0.000112862
5.56264e-05
5.41337e-05
5.92095e-05
6.76843e-05
7.71893e-05
8.48493e-05
8.81092e-05
8.5131e-05
7.52074e-05
5.96196e-05
4.31871e-05
3.39028e-05
3.24053e-05
3.34252e-05
3.56301e-05
3.91942e-05
4.54387e-05
6.9862e-05
0.000168781
0.000112578
5.56824e-05
5.38729e-05
5.85744e-05
6.68172e-05
7.63812e-05
8.43882e-05
8.81993e-05
8.58599e-05
7.65145e-05
6.12327e-05
4.45504e-05
3.45557e-05
3.27577e-05
3.37112e-05
3.58772e-05
3.94416e-05
4.61338e-05
7.15868e-05
0.000169762
0.000112317
5.57559e-05
5.36359e-05
5.79476e-05
6.59199e-05
7.55081e-05
8.38507e-05
8.82319e-05
8.65779e-05
7.7877e-05
6.29705e-05
4.60754e-05
3.53078e-05
3.31505e-05
3.40327e-05
3.61561e-05
3.97372e-05
4.69146e-05
7.33525e-05
0.00017071
0.000112081
5.58474e-05
5.34248e-05
5.73341e-05
6.49961e-05
7.45691e-05
8.32315e-05
8.81997e-05
8.72802e-05
7.92973e-05
6.48475e-05
4.77906e-05
3.61845e-05
3.35822e-05
3.43912e-05
3.64696e-05
4.00861e-05
4.77819e-05
7.51507e-05
0.000171625
0.000111872
5.59571e-05
5.32412e-05
5.67386e-05
6.40496e-05
7.35629e-05
8.25242e-05
8.80935e-05
8.79594e-05
8.07752e-05
6.68772e-05
4.97266e-05
3.72209e-05
3.40543e-05
3.47889e-05
3.68207e-05
4.04935e-05
4.87352e-05
7.69718e-05
0.000172504
0.000111694
5.60855e-05
5.30863e-05
5.61656e-05
6.30846e-05
7.24885e-05
8.17214e-05
8.79023e-05
8.86048e-05
8.23069e-05
6.90694e-05
5.19144e-05
3.84631e-05
3.47225e-05
3.52296e-05
3.72129e-05
4.09647e-05
4.9773e-05
7.88054e-05
0.000173347
0.00011155
5.62326e-05
5.29607e-05
5.56198e-05
6.2106e-05
7.13452e-05
8.08147e-05
8.76118e-05
8.92013e-05
8.38828e-05
7.14303e-05
5.4387e-05
3.99325e-05
3.52981e-05
3.57129e-05
3.76498e-05
4.1505e-05
5.08929e-05
8.06407e-05
0.000174154
0.000111442
5.63985e-05
5.28648e-05
5.51057e-05
6.11197e-05
7.01328e-05
7.97948e-05
8.72051e-05
8.97287e-05
8.5487e-05
7.39595e-05
5.71788e-05
4.17343e-05
3.59711e-05
3.62378e-05
3.81365e-05
4.21201e-05
5.20916e-05
8.24681e-05
0.000174923
0.000111376
5.65839e-05
5.27989e-05
5.46278e-05
6.01328e-05
6.88522e-05
7.86514e-05
8.6662e-05
9.01613e-05
8.70963e-05
7.66492e-05
6.03232e-05
4.39674e-05
3.67436e-05
3.68075e-05
3.86793e-05
4.28159e-05
5.33662e-05
8.42818e-05
0.000175654
0.000111356
5.67893e-05
5.27629e-05
5.41906e-05
5.9153e-05
6.75056e-05
7.73744e-05
8.59594e-05
9.04677e-05
8.8678e-05
7.94784e-05
6.38355e-05
4.67371e-05
3.7709e-05
3.74291e-05
3.92861e-05
4.35997e-05
5.47168e-05
8.60851e-05
0.000176347
0.000111387
5.70155e-05
5.27565e-05