/*--------------------------------*- C++ -*----------------------------------*\
  =========                 |
  \\      /  F ield         | OpenFOAM: The Open Source CFD Toolbox
   \\    /   O peration     | Website:  https://openfoam.org
    \\  /    A nd           | Version:  8
     \\/     M anipulation  |
\*---------------------------------------------------------------------------*/
FoamFile
{
    version     2.0;
    format      ascii;
    class       volScalarField;
    location    "700";
    object      p;
}
// * * * * * * * * * * * * * * * * * * * * * * * * * * * * * * * * * * * * * //

dimensions      [1 -1 -2 0 0 0 0];

internalField   nonuniform List<scalar> 
8400
(
40652.5
75726.6
111166
145218
177754
208617
237753
265171
290924
315110
337833
359222
379396
398472
416564
433775
450205
465948
481092
495717
509893
523687
537149
550324
563250
575958
588467
600795
612961
624984
636894
648725
660521
672327
684196
696179
708339
720751
733515
746760
760659
775451
791474
809221
829323
852412
879313
912878
960562
1.02741e+06
36796.3
71116.4
106626
140954
173751
204804
234051
261519
287277
311434
334110
355434
375533
394529
412534
429652
445982
461615
476638
491128
505157
518785
532063
545035
557736
570192
582424
594447
606278
617936
629449
640848
652171
663457
674746
686077
697496
709059
720835
732913
745411
758492
772386
787408
803927
822265
842791
866776
897403
937421
43366.6
80528.5
117383
152309
185343
216420
245554
272819
298329
322219
344631
365712
385598
404415
422281
439303
455579
471202
486257
500822
514967
528754
542234
555447
568430
581210
593807
606240
618525
630686
642752
654756
666738
678737
690794
702956
715271
727800
740617
753815
767518
781895
797167
813609
831527
851213
872983
897408
925314
956420
35683
71993.3
109257
144816
178303
209604
238771
265930
291242
314878
337000
357770
377337
395833
413375
430072
446019
461306
476013
490215
503979
517360
530403
543148
555630
567874
579899
591724
603366
614846
626186
637414
648561
659655
670728
681810
692934
704142
715480
727015
738840
751080
763901
777508
792139
808054
825554
844981
866539
890301
43533.4
84307.7
123657
160176
194041
225372
254364
281238
306214
329506
351305
371788
391113
409423
426837
443463
459397
474724
489525
503871
517822
531431
544740
557788
570605
583217
595641
607895
619995
631957
643798
655543
667216
678843
690446
702052
713685
725376
737159
749084
761214
773634
786445
799765
813723
828457
844103
860728
878261
896636
36648.9
77633
117801
154950
189047
220286
248978
275426
299911
322683
343959
363930
382762
400597
417559
433754
449278
464213
478633
492605
506184
519418
532347
545008
557430
569640
581657
593496
605174
616704
628105
639395
650594
661721
672795
683835
694865
705908
716997
728175
739499
751037
762869
775085
787777
801043
814956
829437
844247
859446
43350.5
89170.7
131396
169287
203485
234516
262865
288924
313025
335441
356404
376109
394727
412401
429254
445388
460896
475857
490339
504399
518088
531448
544513
557317
569888
582247
594412
606396
618211
629869
641384
652770
664040
675208
686286
697291
708240
719151
730049
740966
751944
763030
774281
785757
797518
809637
822167
835030
848002
861063
40214.2
87716.5
130750
168681
202472
232912
260605
286006
309472
331286
351689
370880
389027
406275
422746
438542
453754
468457
482713
496576
510091
523295
536223
548902
561358
573610
585672
597557
609276
620840
632258
643541
654699
665742
676682
687534
698315
709044
719745
730450
741195
752021
762974
774096
785426
797004
808846
820884
832872
844800
45984
97583.5
141028
178509
211739
241694
268989
294065
317260
338845
359055
378081
396091
413229
429612
445343
460508
475178
489412
503259
516761
529952
542862
555518
567942
580152
592164
603990
615641
627127
638456
649637
660677
671586
682374
693054
703644
714161
724632
735087
745561
756094
766732
777515
788483
799665
811075
822672
834292
845813
48303.2
101512
143029
179195
211567
240910
267749
292477
315399
336766
356794
375669
393554
410587
426886
442550
457663
472294
486499
500326
513813
526991
539887
552526
564929
577112
589090
600878
612487
623926
635206
646336
657325
668182
678918
689548
700087
710559
720990
731409
741853
752364
762986
773761
784730
795920
807342
818958
830665
842310
44889.9
100100
143411
179884
212384
241825
268718
293491
316477
337929
358056
377042
395044
412195
428612
444393
459618
474357
488664
502586
516162
529422
542395
555103
567566
579804
591829
603654
615292
626750
638039
649167
660141
670971
681667
692243
702717
713113
723458
733786
744134
754549
765079
775769
786661
797788
809157
820742
832472
844165
28727.2
89969
137723
175190
207849
237406
264347
289093
312025
333428
353520
372482
390471
407619
424038
439826
455060
469807
484123
498054
511639
524913
537905
550641
563143
575431
587519
599420
611144
622699
634090
645322
656403
667338
678136
688807
699367
709836
720240
730610
740986
751415
761944
772624
783499
794601
805927
817457
829095
840600
27412.6
82982.7
133844
174058
207995
238403
266010
291199
314417
336035
356324
375488
393686
411052
427697
443711
459165
474116
488613
502698
516408
529779
542845
555642
568198
580545
592705
604700
616547
628253
639827
651271
662590
673784
684854
695797
706615
717311
727896
738388
748819
759227
769659
780164
790783
801543
812430
823384
834281
844811
-4060.92
53757.2
108551
151237
186252
217172
245066
270349
293535
315112
335436
354746
373213
390969
408119
424733
440860
456532
471768
486579
500978
514981
528612
541901
554883
567600
580092
592401
604560
616596
628535
640394
652190
663927
675603
687200
698694
710058
721267
732306
743176
753894
764493
775017
785501
795954
806364
816638
826631
835995
19865
65173.9
120903
166899
203560
235033
262909
287710
310050
330592
349847
368159
385773
402872
419587
436003
452167
468086
483732
499060
514019
528567
542669
556309
569495
582258
594642
606704
618502
630101
641569
652970
664369
675810
687314
698871
710436
721945
733324
744505
755439
766109
776529
786732
796749
806576
816149
825319
833809
841018
-47654.1
10880.8
71617
119085
156906
189577
218583
244283
267251
288225
307819
326471
344506
362182
379704
397227
414848
432586
450386
468142
485722
502983
519776
535980
551513
566339
580460
593912
606761
619101
631052
642752
654345
665962
677685
689535
701463
713362
725091
736503
747482
757975
767986
777564
786767
795643
804133
812068
819153
824888
21233.8
58054.7
115924
163857
200420
230994
257511
280331
300043
317459
333289
348075
362255
376214
390311
404874
420174
436344
453353
471066
489289
507761
526180
544258
561759
578512
594411
609413
623538
636870
649549
661771
673768
685776
697963
710373
722924
735426
747607
759171
769876
779593
788308
796117
803166
809588
815406
820318
823487
822572
-98247
-22905.1
51932.5
105631
147354
182848
213519
239802
262364
281993
299370
315021
329382
342888
356037
369415
383646
399134
415939
434001
453179
473169
493536
513844
533717
552864
571078
588238
604318
619388
633618
647272
660710
674361
688551
703358
718658
734120
749218
763353
776015
786878
795847
803056
808816
813476
817442
820930
823580
824312
7810.5
44002.4
87514.6
127973
163940
195919
224330
249550
271992
292039
309976
325984
340197
352826
364311
375418
387320
400719
415588
431962
449914
469113
488930
508818
528367
547243
565199
582084
597847
612570
626467
639882
653323
667568
683181
700227
718539
737638
756618
774423
790202
803453
814080
822366
828836
834187
839336
845585
853142
860075
39688.1
77088.9
107293
140110
171632
200281
226221
249966
271898
292190
310828
327671
342590
355620
367095
377753
388767
401613
416708
433567
451978
471569
491731
511907
531668
550675
568693
585597
601352
616018
629791
643029
656261
670224
685860
703530
722873
743210
763292
781670
797262
809520
818448
824498
828231
830148
830657
830443
830416
827983
5.16718e+06
5.16667e+06
5.16642e+06
5.16632e+06
5.16627e+06
5.16623e+06
5.1662e+06
5.16617e+06
5.16616e+06
5.16615e+06
5.16614e+06
5.16613e+06
5.16612e+06
5.16612e+06
5.16611e+06
5.16611e+06
5.1661e+06
5.1661e+06
5.1661e+06
5.16609e+06
5.16609e+06
5.16609e+06
5.16608e+06
5.16608e+06
5.16608e+06
5.16607e+06
5.16607e+06
5.16606e+06
5.16606e+06
5.16605e+06
5.16605e+06
5.16604e+06
5.16604e+06
5.16604e+06
5.16603e+06
5.16603e+06
5.16602e+06
5.16601e+06
5.166e+06
5.16599e+06
5.16597e+06
5.16595e+06
5.16593e+06
5.1659e+06
5.16587e+06
5.16583e+06
5.16578e+06
5.16572e+06
5.16565e+06
5.16554e+06
5.16549e+06
5.16578e+06
5.16587e+06
5.1659e+06
5.16593e+06
5.16594e+06
5.16595e+06
5.16596e+06
5.16596e+06
5.16597e+06
5.16597e+06
5.16597e+06
5.16597e+06
5.16597e+06
5.16597e+06
5.16597e+06
5.16597e+06
5.16597e+06
5.16597e+06
5.16597e+06
5.16597e+06
5.16597e+06
5.16597e+06
5.16596e+06
5.16596e+06
5.16596e+06
5.16595e+06
5.16595e+06
5.16595e+06
5.16594e+06
5.16594e+06
5.16594e+06
5.16593e+06
5.16593e+06
5.16593e+06
5.16592e+06
5.16591e+06
5.16591e+06
5.1659e+06
5.16588e+06
5.16587e+06
5.16585e+06
5.16583e+06
5.1658e+06
5.16577e+06
5.16573e+06
5.16569e+06
5.16564e+06
5.16558e+06
5.1655e+06
5.16585e+06
5.16598e+06
5.16606e+06
5.16606e+06
5.16605e+06
5.16604e+06
5.16602e+06
5.166e+06
5.16599e+06
5.16598e+06
5.16597e+06
5.16596e+06
5.16595e+06
5.16594e+06
5.16593e+06
5.16593e+06
5.16592e+06
5.16592e+06
5.16592e+06
5.16591e+06
5.16591e+06
5.1659e+06
5.1659e+06
5.1659e+06
5.16589e+06
5.16588e+06
5.16588e+06
5.16587e+06
5.16587e+06
5.16586e+06
5.16586e+06
5.16586e+06
5.16585e+06
5.16585e+06
5.16584e+06
5.16584e+06
5.16583e+06
5.16583e+06
5.16582e+06
5.1658e+06
5.16579e+06
5.16577e+06
5.16575e+06
5.16573e+06
5.1657e+06
5.16566e+06
5.16562e+06
5.16558e+06
5.16552e+06
5.16546e+06
5.16577e+06
5.1658e+06
5.16581e+06
5.1658e+06
5.16579e+06
5.16579e+06
5.16578e+06
5.16578e+06
5.16578e+06
5.16577e+06
5.16577e+06
5.16577e+06
5.16577e+06
5.16577e+06
5.16577e+06
5.16577e+06
5.16577e+06
5.16577e+06
5.16577e+06
5.16577e+06
5.16577e+06
5.16577e+06
5.16577e+06
5.16577e+06
5.16576e+06
5.16576e+06
5.16576e+06
5.16575e+06
5.16575e+06
5.16575e+06
5.16574e+06
5.16574e+06
5.16574e+06
5.16574e+06
5.16573e+06
5.16573e+06
5.16572e+06
5.16572e+06
5.16571e+06
5.1657e+06
5.16569e+06
5.16567e+06
5.16565e+06
5.16563e+06
5.16561e+06
5.16558e+06
5.16555e+06
5.16551e+06
5.16546e+06
5.16541e+06
5.16571e+06
5.16572e+06
5.16574e+06
5.16575e+06
5.16576e+06
5.16576e+06
5.16576e+06
5.16576e+06
5.16576e+06
5.16575e+06
5.16575e+06
5.16574e+06
5.16574e+06
5.16574e+06
5.16573e+06
5.16573e+06
5.16573e+06
5.16572e+06
5.16572e+06
5.16572e+06
5.16571e+06
5.16571e+06
5.16571e+06
5.1657e+06
5.1657e+06
5.16569e+06
5.16569e+06
5.16568e+06
5.16568e+06
5.16567e+06
5.16567e+06
5.16567e+06
5.16566e+06
5.16566e+06
5.16566e+06
5.16566e+06
5.16565e+06
5.16565e+06
5.16564e+06
5.16563e+06
5.16562e+06
5.1656e+06
5.16559e+06
5.16557e+06
5.16555e+06
5.16552e+06
5.1655e+06
5.16547e+06
5.16543e+06
5.16539e+06
5.16562e+06
5.16562e+06
5.16563e+06
5.16563e+06
5.16563e+06
5.16563e+06
5.16562e+06
5.16562e+06
5.16561e+06
5.1656e+06
5.1656e+06
5.1656e+06
5.16559e+06
5.16559e+06
5.16559e+06
5.16559e+06
5.16559e+06
5.16559e+06
5.16558e+06
5.16558e+06
5.16558e+06
5.16558e+06
5.16558e+06
5.16558e+06
5.16557e+06
5.16557e+06
5.16557e+06
5.16556e+06
5.16556e+06
5.16556e+06
5.16555e+06
5.16555e+06
5.16555e+06
5.16555e+06
5.16555e+06
5.16555e+06
5.16554e+06
5.16554e+06
5.16554e+06
5.16553e+06
5.16552e+06
5.16551e+06
5.1655e+06
5.16548e+06
5.16547e+06
5.16545e+06
5.16543e+06
5.1654e+06
5.16538e+06
5.16535e+06
5.16553e+06
5.16553e+06
5.16553e+06
5.16554e+06
5.16554e+06
5.16554e+06
5.16554e+06
5.16554e+06
5.16553e+06
5.16553e+06
5.16553e+06
5.16553e+06
5.16553e+06
5.16553e+06
5.16552e+06
5.16552e+06
5.16552e+06
5.16552e+06
5.16552e+06
5.16552e+06
5.16551e+06
5.16551e+06
5.16551e+06
5.16551e+06
5.1655e+06
5.1655e+06
5.16549e+06
5.16549e+06
5.16549e+06
5.16548e+06
5.16548e+06
5.16548e+06
5.16548e+06
5.16547e+06
5.16547e+06
5.16547e+06
5.16547e+06
5.16547e+06
5.16546e+06
5.16546e+06
5.16545e+06
5.16544e+06
5.16543e+06
5.16542e+06
5.16541e+06
5.1654e+06
5.16538e+06
5.16536e+06
5.16535e+06
5.16533e+06
5.16543e+06
5.16543e+06
5.16543e+06
5.16543e+06
5.16543e+06
5.16543e+06
5.16543e+06
5.16543e+06
5.16542e+06
5.16542e+06
5.16542e+06
5.16541e+06
5.16541e+06
5.16541e+06
5.16541e+06
5.1654e+06
5.1654e+06
5.1654e+06
5.1654e+06
5.1654e+06
5.1654e+06
5.1654e+06
5.16539e+06
5.16539e+06
5.16539e+06
5.16538e+06
5.16538e+06
5.16538e+06
5.16537e+06
5.16537e+06
5.16537e+06
5.16537e+06
5.16537e+06
5.16537e+06
5.16537e+06
5.16537e+06
5.16537e+06
5.16537e+06
5.16537e+06
5.16537e+06
5.16536e+06
5.16536e+06
5.16535e+06
5.16534e+06
5.16534e+06
5.16533e+06
5.16532e+06
5.16531e+06
5.1653e+06
5.16529e+06
5.16533e+06
5.16533e+06
5.16533e+06
5.16534e+06
5.16534e+06
5.16533e+06
5.16533e+06
5.16533e+06
5.16533e+06
5.16533e+06
5.16532e+06
5.16532e+06
5.16532e+06
5.16532e+06
5.16532e+06
5.16532e+06
5.16532e+06
5.16532e+06
5.16532e+06
5.16532e+06
5.16531e+06
5.16531e+06
5.16531e+06
5.16531e+06
5.1653e+06
5.1653e+06
5.1653e+06
5.16529e+06
5.16529e+06
5.16529e+06
5.16529e+06
5.16529e+06
5.16529e+06
5.16529e+06
5.16529e+06
5.16529e+06
5.16529e+06
5.16529e+06
5.16529e+06
5.16529e+06
5.16529e+06
5.16529e+06
5.16529e+06
5.16528e+06
5.16528e+06
5.16528e+06
5.16527e+06
5.16527e+06
5.16526e+06
5.16526e+06
5.16524e+06
5.16524e+06
5.16524e+06
5.16524e+06
5.16524e+06
5.16523e+06
5.16523e+06
5.16523e+06
5.16523e+06
5.16523e+06
5.16522e+06
5.16522e+06
5.16522e+06
5.16522e+06
5.16522e+06
5.16522e+06
5.16522e+06
5.16521e+06
5.16521e+06
5.16521e+06
5.16521e+06
5.16521e+06
5.16521e+06
5.16521e+06
5.1652e+06
5.1652e+06
5.16519e+06
5.16519e+06
5.16519e+06
5.16519e+06
5.16519e+06
5.16519e+06
5.16519e+06
5.16519e+06
5.1652e+06
5.1652e+06
5.1652e+06
5.1652e+06
5.16521e+06
5.16521e+06
5.16521e+06
5.16521e+06
5.16521e+06
5.16521e+06
5.16521e+06
5.16521e+06
5.16522e+06
5.16522e+06
5.16522e+06
5.16522e+06
5.16514e+06
5.16514e+06
5.16514e+06
5.16514e+06
5.16514e+06
5.16513e+06
5.16513e+06
5.16513e+06
5.16513e+06
5.16513e+06
5.16512e+06
5.16512e+06
5.16512e+06
5.16512e+06
5.16512e+06
5.16512e+06
5.16512e+06
5.16512e+06
5.16512e+06
5.16512e+06
5.16512e+06
5.16511e+06
5.16511e+06
5.16511e+06
5.16511e+06
5.1651e+06
5.1651e+06
5.1651e+06
5.1651e+06
5.1651e+06
5.1651e+06
5.1651e+06
5.1651e+06
5.1651e+06
5.16511e+06
5.16511e+06
5.16511e+06
5.16512e+06
5.16512e+06
5.16513e+06
5.16513e+06
5.16513e+06
5.16514e+06
5.16514e+06
5.16515e+06
5.16516e+06
5.16516e+06
5.16517e+06
5.16518e+06
5.16519e+06
5.16504e+06
5.16504e+06
5.16504e+06
5.16504e+06
5.16504e+06
5.16504e+06
5.16503e+06
5.16503e+06
5.16503e+06
5.16503e+06
5.16503e+06
5.16503e+06
5.16503e+06
5.16503e+06
5.16503e+06
5.16503e+06
5.16503e+06
5.16503e+06
5.16503e+06
5.16503e+06
5.16503e+06
5.16502e+06
5.16502e+06
5.16502e+06
5.16502e+06
5.16501e+06
5.16501e+06
5.16501e+06
5.16501e+06
5.16501e+06
5.16501e+06
5.16501e+06
5.16501e+06
5.16502e+06
5.16502e+06
5.16503e+06
5.16503e+06
5.16504e+06
5.16504e+06
5.16505e+06
5.16505e+06
5.16506e+06
5.16507e+06
5.16508e+06
5.16509e+06
5.1651e+06
5.16511e+06
5.16513e+06
5.16514e+06
5.16516e+06
5.16494e+06
5.16494e+06
5.16494e+06
5.16494e+06
5.16494e+06
5.16494e+06
5.16493e+06
5.16493e+06
5.16493e+06
5.16493e+06
5.16492e+06
5.16492e+06
5.16492e+06
5.16492e+06
5.16492e+06
5.16492e+06
5.16492e+06
5.16492e+06
5.16492e+06
5.16492e+06
5.16492e+06
5.16491e+06
5.16491e+06
5.16491e+06
5.16491e+06
5.1649e+06
5.1649e+06
5.1649e+06
5.1649e+06
5.1649e+06
5.1649e+06
5.16491e+06
5.16491e+06
5.16492e+06
5.16492e+06
5.16493e+06
5.16493e+06
5.16494e+06
5.16495e+06
5.16496e+06
5.16497e+06
5.16498e+06
5.16499e+06
5.165e+06
5.16502e+06
5.16503e+06
5.16505e+06
5.16507e+06
5.16509e+06
5.16512e+06
5.16483e+06
5.16484e+06
5.16484e+06
5.16484e+06
5.16484e+06
5.16484e+06
5.16484e+06
5.16484e+06
5.16484e+06
5.16484e+06
5.16484e+06
5.16484e+06
5.16484e+06
5.16484e+06
5.16484e+06
5.16484e+06
5.16484e+06
5.16484e+06
5.16484e+06
5.16484e+06
5.16484e+06
5.16484e+06
5.16484e+06
5.16483e+06
5.16483e+06
5.16483e+06
5.16482e+06
5.16482e+06
5.16482e+06
5.16482e+06
5.16483e+06
5.16483e+06
5.16484e+06
5.16484e+06
5.16485e+06
5.16485e+06
5.16486e+06
5.16486e+06
5.16487e+06
5.16488e+06
5.16489e+06
5.16491e+06
5.16492e+06
5.16494e+06
5.16496e+06
5.16498e+06
5.165e+06
5.16503e+06
5.16506e+06
5.16508e+06
5.16473e+06
5.16473e+06
5.16474e+06
5.16474e+06
5.16474e+06
5.16473e+06
5.16473e+06
5.16472e+06
5.16472e+06
5.16472e+06
5.16472e+06
5.16471e+06
5.16471e+06
5.16471e+06
5.16472e+06
5.16472e+06
5.16472e+06
5.16472e+06
5.16472e+06
5.16472e+06
5.16472e+06
5.16471e+06
5.16471e+06
5.16471e+06
5.16471e+06
5.16471e+06
5.1647e+06
5.1647e+06
5.16471e+06
5.16471e+06
5.16471e+06
5.16472e+06
5.16472e+06
5.16473e+06
5.16474e+06
5.16474e+06
5.16475e+06
5.16476e+06
5.16477e+06
5.16479e+06
5.1648e+06
5.16482e+06
5.16483e+06
5.16485e+06
5.16488e+06
5.1649e+06
5.16493e+06
5.16497e+06
5.165e+06
5.16504e+06
5.16462e+06
5.16463e+06
5.16465e+06
5.16466e+06
5.16467e+06
5.16467e+06
5.16467e+06
5.16467e+06
5.16467e+06
5.16467e+06
5.16467e+06
5.16467e+06
5.16467e+06
5.16467e+06
5.16466e+06
5.16466e+06
5.16466e+06
5.16466e+06
5.16466e+06
5.16466e+06
5.16465e+06
5.16465e+06
5.16465e+06
5.16464e+06
5.16464e+06
5.16464e+06
5.16464e+06
5.16464e+06
5.16464e+06
5.16464e+06
5.16464e+06
5.16465e+06
5.16465e+06
5.16466e+06
5.16466e+06
5.16467e+06
5.16468e+06
5.16469e+06
5.1647e+06
5.16471e+06
5.16473e+06
5.16475e+06
5.16477e+06
5.16479e+06
5.16482e+06
5.16485e+06
5.16488e+06
5.16492e+06
5.16496e+06
5.165e+06
5.16448e+06
5.16451e+06
5.16452e+06
5.16451e+06
5.1645e+06
5.1645e+06
5.1645e+06
5.16449e+06
5.16449e+06
5.16449e+06
5.1645e+06
5.1645e+06
5.1645e+06
5.16451e+06
5.16451e+06
5.16451e+06
5.16451e+06
5.16452e+06
5.16452e+06
5.16452e+06
5.16452e+06
5.16452e+06
5.16451e+06
5.16451e+06
5.16451e+06
5.16451e+06
5.16451e+06
5.16451e+06
5.16452e+06
5.16452e+06
5.16453e+06
5.16453e+06
5.16454e+06
5.16454e+06
5.16455e+06
5.16456e+06
5.16457e+06
5.16458e+06
5.16459e+06
5.16461e+06
5.16463e+06
5.16465e+06
5.16467e+06
5.1647e+06
5.16473e+06
5.16476e+06
5.1648e+06
5.16485e+06
5.16489e+06
5.16495e+06
5.16436e+06
5.1645e+06
5.16457e+06
5.16458e+06
5.16456e+06
5.16455e+06
5.16454e+06
5.16452e+06
5.16451e+06
5.1645e+06
5.16449e+06
5.16449e+06
5.16448e+06
5.16448e+06
5.16448e+06
5.16447e+06
5.16447e+06
5.16447e+06
5.16447e+06
5.16446e+06
5.16446e+06
5.16446e+06
5.16445e+06
5.16445e+06
5.16445e+06
5.16444e+06
5.16444e+06
5.16444e+06
5.16444e+06
5.16445e+06
5.16445e+06
5.16446e+06
5.16446e+06
5.16447e+06
5.16447e+06
5.16448e+06
5.16449e+06
5.1645e+06
5.16452e+06
5.16453e+06
5.16455e+06
5.16457e+06
5.1646e+06
5.16463e+06
5.16466e+06
5.1647e+06
5.16474e+06
5.16479e+06
5.16485e+06
5.16491e+06
5.16381e+06
5.16409e+06
5.16419e+06
5.16422e+06
5.16424e+06
5.16426e+06
5.16427e+06
5.16428e+06
5.16429e+06
5.1643e+06
5.1643e+06
5.16431e+06
5.16431e+06
5.16432e+06
5.16432e+06
5.16432e+06
5.16433e+06
5.16433e+06
5.16433e+06
5.16433e+06
5.16433e+06
5.16433e+06
5.16433e+06
5.16432e+06
5.16432e+06
5.16432e+06
5.16432e+06
5.16432e+06
5.16433e+06
5.16433e+06
5.16434e+06
5.16434e+06
5.16435e+06
5.16436e+06
5.16436e+06
5.16437e+06
5.16438e+06
5.1644e+06
5.16441e+06
5.16443e+06
5.16445e+06
5.16447e+06
5.1645e+06
5.16453e+06
5.16457e+06
5.16461e+06
5.16465e+06
5.16471e+06
5.16477e+06
5.16484e+06
5.16531e+06
5.1648e+06
5.16454e+06
5.16444e+06
5.16439e+06
5.16435e+06
5.16432e+06
5.1643e+06
5.16429e+06
5.16428e+06
5.16427e+06
5.16427e+06
5.16427e+06
5.16427e+06
5.16426e+06
5.16426e+06
5.16426e+06
5.16426e+06
5.16426e+06
5.16426e+06
5.16425e+06
5.16425e+06
5.16425e+06
5.16424e+06
5.16424e+06
5.16424e+06
5.16424e+06
5.16424e+06
5.16425e+06
5.16425e+06
5.16425e+06
5.16426e+06
5.16426e+06
5.16427e+06
5.16428e+06
5.16429e+06
5.1643e+06
5.16431e+06
5.16432e+06
5.16434e+06
5.16436e+06
5.16439e+06
5.16441e+06
5.16445e+06
5.16448e+06
5.16452e+06
5.16457e+06
5.16463e+06
5.1647e+06
5.16478e+06
5.08892e+06
5.09228e+06
5.09296e+06
5.09528e+06
5.09629e+06
5.09781e+06
5.09871e+06
5.09959e+06
5.1001e+06
5.10043e+06
5.10057e+06
5.10057e+06
5.10048e+06
5.10063e+06
5.10049e+06
5.10114e+06
5.10101e+06
5.10237e+06
5.10202e+06
5.10436e+06
5.0895e+06
5.0928e+06
5.09346e+06
5.09573e+06
5.09672e+06
5.09821e+06
5.09909e+06
5.09995e+06
5.10046e+06
5.10079e+06
5.10092e+06
5.10092e+06
5.10085e+06
5.10099e+06
5.10083e+06
5.1015e+06
5.10134e+06
5.10271e+06
5.10237e+06
5.10478e+06
5.09013e+06
5.09337e+06
5.09404e+06
5.09625e+06
5.09723e+06
5.09868e+06
5.09955e+06
5.10039e+06
5.1009e+06
5.10123e+06
5.10137e+06
5.10137e+06
5.10131e+06
5.10145e+06
5.10128e+06
5.10198e+06
5.1018e+06
5.10321e+06
5.10289e+06
5.10537e+06
5.09083e+06
5.09402e+06
5.09468e+06
5.09684e+06
5.09781e+06
5.09923e+06
5.10009e+06
5.10092e+06
5.10143e+06
5.10176e+06
5.10191e+06
5.10192e+06
5.10188e+06
5.10201e+06
5.10183e+06
5.10255e+06
5.10235e+06
5.10379e+06
5.10348e+06
5.10601e+06
5.09161e+06
5.09474e+06
5.09539e+06
5.09751e+06
5.09846e+06
5.09985e+06
5.1007e+06
5.10152e+06
5.10203e+06
5.10237e+06
5.10253e+06
5.10255e+06
5.10254e+06
5.10264e+06
5.10246e+06
5.10316e+06
5.10291e+06
5.10435e+06
5.104e+06
5.10655e+06
5.09245e+06
5.09553e+06
5.09618e+06
5.09824e+06
5.09919e+06
5.10053e+06
5.10138e+06
5.10219e+06
5.1027e+06
5.10305e+06
5.10321e+06
5.10325e+06
5.10325e+06
5.10333e+06
5.10314e+06
5.10383e+06
5.10352e+06
5.10496e+06
5.10455e+06
5.10711e+06
5.09337e+06
5.09639e+06
5.09703e+06
5.09904e+06
5.09997e+06
5.10128e+06
5.10212e+06
5.10291e+06
5.10342e+06
5.10376e+06
5.10394e+06
5.10398e+06
5.10399e+06
5.10406e+06
5.10388e+06
5.10453e+06
5.10419e+06
5.10562e+06
5.10517e+06
5.10774e+06
5.09436e+06
5.09732e+06
5.09795e+06
5.0999e+06
5.10081e+06
5.10208e+06
5.10291e+06
5.10367e+06
5.10418e+06
5.10452e+06
5.10469e+06
5.10474e+06
5.10476e+06
5.10481e+06
5.10464e+06
5.10527e+06
5.1049e+06
5.10634e+06
5.10585e+06
5.10842e+06
5.09541e+06
5.09831e+06
5.09894e+06
5.10082e+06
5.10172e+06
5.10294e+06
5.10374e+06
5.10448e+06
5.10497e+06
5.1053e+06
5.10547e+06
5.10552e+06
5.10554e+06
5.10558e+06
5.10541e+06
5.10603e+06
5.10564e+06
5.10708e+06
5.10656e+06
5.10914e+06
5.09654e+06
5.09937e+06
5.09999e+06
5.10181e+06
5.10268e+06
5.10385e+06
5.10462e+06
5.10533e+06
5.10579e+06
5.1061e+06
5.10626e+06
5.10631e+06
5.10633e+06
5.10636e+06
5.10621e+06
5.1068e+06
5.10641e+06
5.10785e+06
5.10731e+06
5.1099e+06
5.09774e+06
5.1005e+06
5.1011e+06
5.10285e+06
5.1037e+06
5.10481e+06
5.10555e+06
5.10621e+06
5.10665e+06
5.10693e+06
5.10708e+06
5.10712e+06
5.10714e+06
5.10716e+06
5.10702e+06
5.1076e+06
5.1072e+06
5.10866e+06
5.10809e+06
5.11068e+06
5.09901e+06
5.1017e+06
5.10229e+06
5.10397e+06
5.10478e+06
5.10583e+06
5.10653e+06
5.10714e+06
5.10754e+06
5.1078e+06
5.10793e+06
5.10796e+06
5.10797e+06
5.10798e+06
5.10787e+06
5.10843e+06
5.10804e+06
5.1095e+06
5.1089e+06
5.1115e+06
5.10036e+06
5.10298e+06
5.10354e+06
5.10515e+06
5.10592e+06
5.10691e+06
5.10756e+06
5.10812e+06
5.10848e+06
5.10871e+06
5.10882e+06
5.10884e+06
5.10883e+06
5.10884e+06
5.10874e+06
5.1093e+06
5.10892e+06
5.11038e+06
5.10977e+06
5.11237e+06
5.10179e+06
5.10433e+06
5.10487e+06
5.1064e+06
5.10713e+06
5.10805e+06
5.10865e+06
5.10915e+06
5.10947e+06
5.10967e+06
5.10976e+06
5.10975e+06
5.10974e+06
5.10974e+06
5.10966e+06
5.11021e+06
5.10985e+06
5.11132e+06
5.11069e+06
5.1133e+06
5.1033e+06
5.10576e+06
5.10628e+06
5.10773e+06
5.10842e+06
5.10927e+06
5.10981e+06
5.11025e+06
5.11052e+06
5.11069e+06
5.11075e+06
5.11072e+06
5.1107e+06
5.11069e+06
5.11063e+06
5.11118e+06
5.11083e+06
5.11231e+06
5.11167e+06
5.11429e+06
5.1049e+06
5.10727e+06
5.10777e+06
5.10914e+06
5.10978e+06
5.11055e+06
5.11103e+06
5.11142e+06
5.11165e+06
5.11177e+06
5.1118e+06
5.11175e+06
5.11171e+06
5.1117e+06
5.11166e+06
5.1122e+06
5.11187e+06
5.11336e+06
5.11272e+06
5.11533e+06
5.10659e+06
5.10888e+06
5.10935e+06
5.11063e+06
5.11122e+06
5.11192e+06
5.11234e+06
5.11266e+06
5.11284e+06
5.11293e+06
5.11292e+06
5.11285e+06
5.1128e+06
5.11278e+06
5.11276e+06
5.11329e+06
5.11298e+06
5.11446e+06
5.11382e+06
5.11643e+06
5.10838e+06
5.11057e+06
5.11102e+06
5.11222e+06
5.11275e+06
5.11337e+06
5.11373e+06
5.11399e+06
5.11412e+06
5.11415e+06
5.11411e+06
5.11402e+06
5.11396e+06
5.11394e+06
5.11394e+06
5.11446e+06
5.11417e+06
5.11564e+06
5.11498e+06
5.11759e+06
5.11027e+06
5.11237e+06
5.11279e+06
5.1139e+06
5.11438e+06
5.11492e+06
5.11521e+06
5.1154e+06
5.11547e+06
5.11546e+06
5.11537e+06
5.11527e+06
5.1152e+06
5.11519e+06
5.1152e+06
5.1157e+06
5.11543e+06
5.1169e+06
5.11622e+06
5.11882e+06
5.11225e+06
5.11426e+06
5.11465e+06
5.11568e+06
5.1161e+06
5.11656e+06
5.11678e+06
5.1169e+06
5.11691e+06
5.11684e+06
5.11672e+06
5.11661e+06
5.11653e+06
5.11652e+06
5.11655e+06
5.11704e+06
5.11679e+06
5.11823e+06
5.11755e+06
5.12012e+06
5.11434e+06
5.11625e+06
5.11662e+06
5.11755e+06
5.11792e+06
5.1183e+06
5.11845e+06
5.11851e+06
5.11845e+06
5.11833e+06
5.11817e+06
5.11804e+06
5.11796e+06
5.11795e+06
5.118e+06
5.11848e+06
5.11824e+06
5.11966e+06
5.11896e+06
5.12152e+06
5.11654e+06
5.11834e+06
5.11868e+06
5.11953e+06
5.11984e+06
5.12015e+06
5.12023e+06
5.12021e+06
5.12009e+06
5.1199e+06
5.11971e+06
5.11957e+06
5.11948e+06
5.11947e+06
5.11955e+06
5.12e+06
5.11979e+06
5.12118e+06
5.12047e+06
5.123e+06
5.11883e+06
5.12054e+06
5.12084e+06
5.12161e+06
5.12187e+06
5.1221e+06
5.12211e+06
5.12202e+06
5.12183e+06
5.12159e+06
5.12135e+06
5.12118e+06
5.12109e+06
5.12109e+06
5.12119e+06
5.12161e+06
5.12143e+06
5.12279e+06
5.12208e+06
5.12459e+06
5.12122e+06
5.12282e+06
5.1231e+06
5.1238e+06
5.124e+06
5.12416e+06
5.1241e+06
5.12394e+06
5.12368e+06
5.12337e+06
5.12309e+06
5.12289e+06
5.12279e+06
5.12278e+06
5.12291e+06
5.1233e+06
5.12315e+06
5.12448e+06
5.12377e+06
5.12626e+06
5.12369e+06
5.1252e+06
5.12546e+06
5.12607e+06
5.12623e+06
5.12632e+06
5.1262e+06
5.12597e+06
5.12563e+06
5.12527e+06
5.12493e+06
5.12469e+06
5.12456e+06
5.12455e+06
5.12469e+06
5.12507e+06
5.12496e+06
5.12625e+06
5.12557e+06
5.12804e+06
5.12625e+06
5.12766e+06
5.12789e+06
5.12844e+06
5.12855e+06
5.12859e+06
5.12841e+06
5.12811e+06
5.12771e+06
5.12727e+06
5.12687e+06
5.12658e+06
5.12641e+06
5.12639e+06
5.12655e+06
5.1269e+06
5.12684e+06
5.12811e+06
5.12746e+06
5.12993e+06
5.12887e+06
5.13018e+06
5.13039e+06
5.13088e+06
5.13096e+06
5.13095e+06
5.13073e+06
5.13037e+06
5.12991e+06
5.1294e+06
5.12893e+06
5.12856e+06
5.12834e+06
5.1283e+06
5.12848e+06
5.12881e+06
5.12882e+06
5.13007e+06
5.12949e+06
5.13195e+06
5.13153e+06
5.13276e+06
5.13295e+06
5.13339e+06
5.13344e+06
5.1334e+06
5.13315e+06
5.13275e+06
5.13224e+06
5.13167e+06
5.13112e+06
5.13067e+06
5.13037e+06
5.1303e+06
5.13052e+06
5.13082e+06
5.13092e+06
5.13217e+06
5.13167e+06
5.13414e+06
5.13422e+06
5.13536e+06
5.13554e+06
5.13595e+06
5.13599e+06
5.13593e+06
5.13567e+06
5.13525e+06
5.13471e+06
5.13409e+06
5.13348e+06
5.13295e+06
5.13258e+06
5.13247e+06
5.13269e+06
5.13296e+06
5.13318e+06
5.13447e+06
5.13408e+06
5.13656e+06
5.13691e+06
5.13797e+06
5.13814e+06
5.13853e+06
5.13857e+06
5.13852e+06
5.13827e+06
5.13787e+06
5.13732e+06
5.13669e+06
5.13604e+06
5.13546e+06
5.13503e+06
5.13486e+06
5.13503e+06
5.13531e+06
5.1357e+06
5.13703e+06
5.13677e+06
5.13924e+06
5.13958e+06
5.14056e+06
5.14074e+06
5.14112e+06
5.14118e+06
5.14115e+06
5.14093e+06
5.14057e+06
5.14006e+06
5.13946e+06
5.13882e+06
5.13822e+06
5.13777e+06
5.13756e+06
5.13768e+06
5.13801e+06
5.13857e+06
5.13993e+06
5.13981e+06
5.14224e+06
5.14219e+06
5.14311e+06
5.1433e+06
5.14368e+06
5.14377e+06
5.14379e+06
5.14363e+06
5.14334e+06
5.14291e+06
5.14238e+06
5.1418e+06
5.14125e+06
5.14083e+06
5.14061e+06
5.14072e+06
5.14114e+06
5.14185e+06
5.14321e+06
5.14322e+06
5.14555e+06
5.14473e+06
5.14559e+06
5.14579e+06
5.14618e+06
5.14631e+06
5.1464e+06
5.14633e+06
5.14614e+06
5.14582e+06
5.14541e+06
5.14495e+06
5.1445e+06
5.14416e+06
5.14401e+06
5.14417e+06
5.14472e+06
5.14552e+06
5.14684e+06
5.14697e+06
5.14915e+06
5.14717e+06
5.14798e+06
5.14819e+06
5.1486e+06
5.14879e+06
5.14894e+06
5.14897e+06
5.14891e+06
5.14874e+06
5.14848e+06
5.14818e+06
5.14789e+06
5.14769e+06
5.14768e+06
5.14794e+06
5.14858e+06
5.14947e+06
5.15074e+06
5.15096e+06
5.15295e+06
5.14949e+06
5.15025e+06
5.15047e+06
5.15091e+06
5.15115e+06
5.15139e+06
5.15153e+06
5.1516e+06
5.15159e+06
5.15152e+06
5.1514e+06
5.1513e+06
5.15129e+06
5.15144e+06
5.15183e+06
5.15258e+06
5.1536e+06
5.15478e+06
5.15509e+06
5.15684e+06
5.15166e+06
5.15239e+06
5.15262e+06
5.15308e+06
5.15338e+06
5.1537e+06
5.15395e+06
5.15416e+06
5.15431e+06
5.15443e+06
5.15452e+06
5.15463e+06
5.15482e+06
5.15515e+06
5.15572e+06
5.15661e+06
5.15773e+06
5.1588e+06
5.15918e+06
5.16068e+06
5.15368e+06
5.15437e+06
5.15462e+06
5.15511e+06
5.15545e+06
5.15585e+06
5.15619e+06
5.15653e+06
5.15685e+06
5.15715e+06
5.15744e+06
5.15777e+06
5.15816e+06
5.15869e+06
5.15944e+06
5.16045e+06
5.16162e+06
5.16262e+06
5.16309e+06
5.16436e+06
5.15554e+06
5.15619e+06
5.15645e+06
5.15696e+06
5.15735e+06
5.15781e+06
5.15824e+06
5.1587e+06
5.15915e+06
5.15961e+06
5.1601e+06
5.16062e+06
5.16121e+06
5.16193e+06
5.16282e+06
5.16391e+06
5.1651e+06
5.16612e+06
5.16671e+06
5.16777e+06
5.15722e+06
5.15785e+06
5.15811e+06
5.15864e+06
5.15906e+06
5.15957e+06
5.16008e+06
5.16062e+06
5.16119e+06
5.16179e+06
5.16243e+06
5.16313e+06
5.16389e+06
5.16476e+06
5.16577e+06
5.16693e+06
5.16816e+06
5.16924e+06
5.16995e+06
5.17085e+06
5.15874e+06
5.15934e+06
5.15961e+06
5.16015e+06
5.16059e+06
5.16114e+06
5.16169e+06
5.16231e+06
5.16295e+06
5.16366e+06
5.16442e+06
5.16524e+06
5.16615e+06
5.16714e+06
5.16825e+06
5.16944e+06
5.17068e+06
5.17185e+06
5.17276e+06
5.17353e+06
5.1601e+06
5.16067e+06
5.16094e+06
5.16148e+06
5.16193e+06
5.16251e+06
5.16309e+06
5.16375e+06
5.16445e+06
5.16521e+06
5.16604e+06
5.16695e+06
5.16795e+06
5.16903e+06
5.1702e+06
5.17144e+06
5.17273e+06
5.17404e+06
5.17514e+06
5.17578e+06
5.1613e+06
5.16185e+06
5.16211e+06
5.16265e+06
5.1631e+06
5.16369e+06
5.16428e+06
5.16496e+06
5.16568e+06
5.16647e+06
5.16733e+06
5.16826e+06
5.16928e+06
5.17039e+06
5.17159e+06
5.17286e+06
5.17423e+06
5.17566e+06
5.17683e+06
5.17725e+06
5.16236e+06
5.16288e+06
5.16313e+06
5.16366e+06
5.16411e+06
5.16469e+06
5.16528e+06
5.16596e+06
5.16667e+06
5.16746e+06
5.1683e+06
5.16922e+06
5.17021e+06
5.17127e+06
5.1724e+06
5.1736e+06
5.17485e+06
5.17611e+06
5.17709e+06
5.17739e+06
5.16328e+06
5.16378e+06
5.16402e+06
5.16454e+06
5.16497e+06
5.16554e+06
5.16611e+06
5.16677e+06
5.16746e+06
5.16821e+06
5.16902e+06
5.16989e+06