/*--------------------------------*- C++ -*----------------------------------*\
  =========                 |
  \\      /  F ield         | OpenFOAM: The Open Source CFD Toolbox
   \\    /   O peration     | Website:  https://openfoam.org
    \\  /    A nd           | Version:  8
     \\/     M anipulation  |
\*---------------------------------------------------------------------------*/
FoamFile
{
    version     2.0;
    format      ascii;
    class       volScalarField;
    location    "700";
    object      T;
}
// * * * * * * * * * * * * * * * * * * * * * * * * * * * * * * * * * * * * * //

dimensions      [0 0 0 1 0 0 0];

internalField   nonuniform List<scalar> 
8400
(
302.427
302.424
302.427
302.429
302.431
302.433
302.436
302.438
302.441
302.445
302.448
302.452
302.456
302.46
302.464
302.469
302.473
302.478
302.483
302.488
302.493
302.497
302.502
302.506
302.511
302.515
302.518
302.522
302.525
302.527
302.529
302.53
302.531
302.531
302.53
302.529
302.527
302.523
302.519
302.514
302.508
302.501
302.492
302.483
302.472
302.459
302.445
302.429
302.411
302.391
302.575
302.575
302.58
302.584
302.587
302.59
302.593
302.596
302.599
302.601
302.604
302.607
302.609
302.612
302.614
302.617
302.62
302.622
302.625
302.627
302.63
302.632
302.634
302.636
302.637
302.638
302.639
302.64
302.64
302.639
302.638
302.636
302.633
302.63
302.625
302.62
302.613
302.606
302.597
302.587
302.576
302.563
302.548
302.532
302.514
302.494
302.472
302.448
302.422
302.393
302.479
302.487
302.5
302.511
302.521
302.531
302.541
302.55
302.558
302.566
302.574
302.581
302.588
302.594
302.601
302.606
302.612
302.617
302.622
302.626
302.63
302.633
302.636
302.638
302.64
302.641
302.641
302.64
302.639
302.637
302.634
302.63
302.624
302.618
302.61
302.601
302.591
302.579
302.565
302.55
302.533
302.514
302.493
302.47
302.445
302.418
302.389
302.358
302.325
302.29
302.107
302.122
302.14
302.157
302.174
302.189
302.204
302.217
302.23
302.242
302.254
302.264
302.274
302.284
302.293
302.301
302.308
302.315
302.322
302.327
302.332
302.336
302.34
302.342
302.344
302.344
302.344
302.343
302.34
302.336
302.331
302.324
302.316
302.307
302.296
302.283
302.269
302.253
302.235
302.215
302.193
302.169
302.144
302.116
302.086
302.055
302.021
301.986
301.949
301.911
301.479
301.496
301.519
301.54
301.56
301.579
301.598
301.615
301.632
301.648
301.664
301.678
301.692
301.706
301.718
301.73
301.741
301.752
301.762
301.771
301.779
301.786
301.793
301.798
301.802
301.805
301.807
301.808
301.808
301.806
301.802
301.798
301.791
301.783
301.774
301.763
301.75
301.735
301.719
301.701
301.682
301.66
301.637
301.613
301.587
301.559
301.531
301.501
301.47
301.439
300.85
300.866
300.885
300.904
300.922
300.94
300.957
300.974
300.99
301.006
301.02
301.035
301.048
301.062
301.074
301.086
301.098
301.109
301.119
301.128
301.137
301.145
301.152
301.158
301.163
301.167
301.17
301.172
301.173
301.173
301.171
301.168
301.164
301.159
301.152
301.144
301.135
301.124
301.112
301.1
301.085
301.07
301.054
301.036
301.018
300.999
300.979
300.959
300.938
300.917
300.363
300.372
300.385
300.397
300.409
300.421
300.432
300.443
300.453
300.464
300.474
300.484
300.493
300.502
300.511
300.52
300.528
300.536
300.544
300.551
300.557
300.563
300.569
300.574
300.578
300.581
300.584
300.587
300.588
300.589
300.589
300.588
300.586
300.584
300.581
300.578
300.573
300.568
300.562
300.556
300.549
300.542
300.534
300.526
300.517
300.508
300.499
300.49
300.481
300.472
300.113
300.116
300.121
300.126
300.131
300.136
300.14
300.145
300.149
300.153
300.157
300.161
300.165
300.169
300.173
300.176
300.18
300.183
300.186
300.189
300.192
300.195
300.197
300.199
300.201
300.203
300.204
300.206
300.207
300.207
300.208
300.208
300.208
300.208
300.207
300.206
300.205
300.204
300.203
300.202
300.2
300.198
300.196
300.195
300.193
300.191
300.189
300.187
300.185
300.183
300.03
300.029
300.03
300.031
300.033
300.034
300.035
300.036
300.037
300.038
300.039
300.04
300.04
300.041
300.042
300.043
300.044
300.045
300.046
300.046
300.047
300.048
300.049
300.049
300.05
300.051
300.052
300.052
300.053
300.053
300.054
300.055
300.055
300.055
300.056
300.056
300.057
300.057
300.057
300.057
300.058
300.058
300.058
300.059
300.059
300.059
300.06
300.06
300.061
300.062
300.009
300.007
300.007
300.008
300.009
300.009
300.01
300.01
300.011
300.012
300.012
300.013
300.013
300.014
300.014
300.015
300.015
300.016
300.016
300.017
300.017
300.018
300.018
300.019
300.019
300.019
300.02
300.02
300.021
300.021
300.021
300.022
300.022
300.022
300.023
300.023
300.023
300.023
300.024
300.024
300.024
300.024
300.025
300.025
300.025
300.026
300.026
300.027
300.028
300.029
300.001
300.001
300.002
300.002
300.003
300.003
300.003
300.004
300.004
300.005
300.005
300.006
300.006
300.007
300.007
300.008
300.008
300.009
300.009
300.01
300.01
300.011
300.011
300.012
300.012
300.013
300.013
300.013
300.014
300.014
300.014
300.014
300.015
300.015
300.015
300.015
300.015
300.016
300.016
300.016
300.017
300.017
300.017
300.018
300.018
300.018
300.019
300.019
300.02
300.02
300.002
300.002
300.002
300.002
300.003
300.003
300.004
300.004
300.005
300.005
300.006
300.006
300.007
300.007
300.008
300.008
300.009
300.009
300.01
300.011
300.011
300.012
300.012
300.013
300.013
300.013
300.014
300.014
300.014
300.015
300.015
300.015
300.016
300.016
300.016
300.017
300.017
300.017
300.017
300.018
300.018
300.019
300.019
300.019
300.02
300.02
300.021
300.022
300.022
300.023
300.003
300.003
300.003
300.004
300.005
300.005
300.006
300.007
300.008
300.008
300.009
300.01
300.011
300.011
300.012
300.013
300.013
300.014
300.015
300.016
300.016
300.017
300.018
300.018
300.019
300.019
300.02
300.02
300.021
300.021
300.021
300.022
300.022
300.022
300.023
300.023
300.023
300.024
300.024
300.024
300.025
300.025
300.026
300.026
300.027
300.027
300.028
300.028
300.029
300.03
300.008
300.009
300.01
300.011
300.012
300.013
300.014
300.015
300.016
300.016
300.017
300.018
300.019
300.019
300.02
300.021
300.022
300.022
300.023
300.024
300.024
300.025
300.026
300.026
300.027
300.027
300.028
300.028
300.028
300.029
300.029
300.03
300.03
300.03
300.031
300.031
300.031
300.032
300.032
300.032
300.033
300.033
300.034
300.034
300.035
300.035
300.036
300.036
300.037
300.038
300.003
300.003
300.002
300.002
300.002
300.003
300.003
300.004
300.005
300.006
300.006
300.008
300.009
300.01
300.011
300.012
300.013
300.014
300.015
300.016
300.018
300.019
300.02
300.021
300.022
300.023
300.024
300.025
300.025
300.026
300.027
300.028
300.029
300.03
300.031
300.031
300.032
300.033
300.034
300.035
300.036
300.037
300.038
300.039
300.04
300.041
300.042
300.043
300.044
300.045
300.018
300.022
300.025
300.028
300.031
300.034
300.037
300.039
300.042
300.044
300.047
300.049
300.051
300.054
300.056
300.058
300.06
300.061
300.063
300.065
300.066
300.067
300.069
300.07
300.071
300.072
300.073
300.074
300.075
300.076
300.077
300.078
300.079
300.08
300.081
300.082
300.083
300.083
300.084
300.085
300.086
300.087
300.088
300.089
300.089
300.09
300.091
300.092
300.093
300.094
300.001
299.999
299.996
299.994
299.992
299.991
299.99
299.989
299.988
299.988
299.988
299.988
299.989
299.989
299.99
299.99
299.991
299.991
299.991
299.992
299.992
299.992
299.992
299.993
299.993
299.993
299.993
299.994
299.994
299.994
299.995
299.995
299.995
299.996
299.996
299.997
299.997
299.998
299.998
299.999
300
300
300.001
300.002
300.003
300.004
300.004
300.005
300.005
300.004
300.031
300.036
300.041
300.045
300.05
300.055
300.06
300.064
300.069
300.074
300.079
300.084
300.089
300.093
300.098
300.103
300.107
300.111
300.115
300.119
300.123
300.127
300.13
300.133
300.137
300.14
300.143
300.146
300.149
300.152
300.155
300.158
300.161
300.164
300.166
300.169
300.172
300.175
300.177
300.18
300.183
300.185
300.188
300.191
300.194
300.197
300.2
300.203
300.206
300.21
300.003
300.005
300.006
300.006
300.007
300.008
300.009
300.01
300.011
300.013
300.014
300.016
300.017
300.019
300.02
300.022
300.023
300.025
300.027
300.028
300.029
300.031
300.032
300.033
300.035
300.036
300.037
300.038
300.039
300.04
300.041
300.042
300.043
300.044
300.045
300.046
300.047
300.047
300.048
300.048
300.049
300.049
300.049
300.05
300.05
300.051
300.051
300.052
300.053
300.058
302.038
302.038
302.038
302.039
302.04
302.039
302.038
302.037
302.035
302.033
302.032
302.03
302.029
302.028
302.027
302.027
302.026
302.025
302.025
302.026
302.026
302.027
302.027
302.028
302.029
302.029
302.029
302.029
302.029
302.029
302.028
302.027
302.026
302.024
302.022
302.021
302.019
302.017
302.016
302.014
302.012
302.009
302.005
302.001
301.996
301.991
301.986
301.981
301.975
301.971
303.148
303.145
303.143
303.14
303.137
303.135
303.132
303.13
303.127
303.125
303.123
303.12
303.118
303.116
303.113
303.111
303.109
303.107
303.105
303.102
303.1
303.098
303.096
303.094
303.092
303.09
303.088
303.086
303.084
303.082
303.08
303.079
303.077
303.075
303.073
303.071
303.069
303.068
303.066
303.064
303.062
303.061
303.059
303.057
303.056
303.054
303.053
303.052
303.051
303.05
303.15
303.15
303.15
303.15
303.15
303.15
303.15
303.149
303.149
303.149
303.149
303.149
303.148
303.148
303.148
303.148
303.148
303.147
303.147
303.147
303.146
303.146
303.146
303.146
303.145
303.145
303.145
303.144
303.144
303.144
303.143
303.143
303.143
303.142
303.142
303.142
303.141
303.141
303.141
303.141
303.14
303.14
303.14
303.139
303.139
303.139
303.139
303.139
303.138
303.138
303.15
303.15
303.15
303.15
303.15
303.15
303.15
303.15
303.15
303.15
303.15
303.15
303.15
303.15
303.15
303.15
303.15
303.15
303.15
303.15
303.15
303.15
303.15
303.15
303.15
303.15
303.15
303.15
303.15
303.15
303.15
303.15
303.15
303.15
303.15
303.149
303.149
303.149
303.149
303.149
303.149
303.149
303.149
303.149
303.149
303.149
303.149
303.149
303.149
303.149
303.15
303.15
303.15
303.15
303.15
303.15
303.15
303.15
303.15
303.15
303.15
303.15
303.15
303.15
303.15
303.15
303.15
303.15
303.15
303.15
303.15
303.15
303.15
303.15
303.15
303.15
303.15
303.15
303.15
303.15
303.15
303.15
303.15
303.15
303.15
303.15
303.15
303.15
303.15
303.15
303.15
303.15
303.15
303.15
303.15
303.15
303.15
303.15
303.15
303.15
303.15
303.15
303.15
303.15
303.15
303.15
303.15
303.15
303.15
303.15
303.15
303.15
303.15
303.15
303.15
303.15
303.15
303.15
303.15
303.15
303.15
303.15
303.15
303.15
303.15
303.15
303.15
303.15
303.15
303.15
303.15
303.15
303.15
303.15
303.15
303.15
303.15
303.15
303.15
303.15
303.15
303.15
303.15
303.15
303.15
303.15
303.15
303.15
303.15
303.15
303.15
303.15
303.15
303.15
303.15
303.15
303.15
303.15
303.15
303.15
303.15
303.15
303.15
303.15
303.15
303.15
303.15
303.15
303.15
303.15
303.15
303.15
303.15
303.15
303.15
303.15
303.15
303.15
303.15
303.15
303.15
303.15
303.15
303.15
303.15
303.15
303.15
303.15
303.15
303.15
303.15
303.15
303.15
303.15
303.15
303.15
303.15
303.15
303.15
303.15
303.15
303.15
303.15
303.15
303.15
303.15
303.15
303.15
303.15
303.15
303.15
303.15
303.15
303.15
303.15
303.15
303.15
303.15
303.15
303.15
303.15
303.15
303.15
303.15
303.15
303.15
303.15
303.15
303.15
303.15
303.15
303.15
303.15
303.15
303.15
303.15
303.15
303.15
303.15
303.15
303.15
303.15
303.15
303.15
303.15
303.15
303.15
303.15
303.15
303.15
303.15
303.15
303.15
303.15
303.15
303.15
303.15
303.15
303.15
303.15
303.15
303.15
303.15
303.15
303.15
303.15
303.15
303.15
303.15
303.15
303.15
303.15
303.15
303.15
303.15
303.15
303.15
303.15
303.15
303.15
303.15
303.15
303.15
303.15
303.15
303.15
303.15
303.15
303.15
303.15
303.15
303.15
303.15
303.15
303.15
303.15
303.15
303.15
303.15
303.15
303.15
303.15
303.15
303.15
303.15
303.15
303.15
303.15
303.15
303.15
303.15
303.15
303.15
303.15
303.15
303.15
303.15
303.15
303.15
303.15
303.15
303.15
303.15
303.15
303.15
303.15
303.15
303.15
303.15
303.15
303.15
303.15
303.15
303.15
303.15
303.15
303.15
303.15
303.15
303.15
303.15
303.15
303.15
303.15
303.15
303.15
303.15
303.15
303.15
303.15
303.15
303.15
303.15
303.15
303.15
303.15
303.15
303.15
303.15
303.15
303.15
303.15
303.15
303.15
303.15
303.15
303.15
303.15
303.15
303.15
303.15
303.15
303.15
303.15
303.15
303.15
303.15
303.15
303.15
303.15
303.15
303.15
303.15
303.15
303.15
303.15
303.15
303.15
303.15
303.15
303.15
303.15
303.15
303.15
303.15
303.15
303.15
303.15
303.15
303.15
303.15
303.15
303.15
303.15
303.15
303.15
303.15
303.15
303.15
303.15
303.15
303.15
303.15
303.15
303.15
303.15
303.15
303.15
303.15
303.15
303.15
303.15
303.15
303.15
303.15
303.15
303.15
303.15
303.15
303.15
303.15
303.15
303.15
303.15
303.15
303.15
303.15
303.15
303.15
303.15
303.15
303.15
303.15
303.15
303.15
303.15
303.15
303.15
303.15
303.15
303.15
303.15
303.15
303.15
303.15
303.15
303.15
303.15
303.15
303.15
303.15
303.15
303.15
303.15
303.15
303.15
303.15
303.15
303.15
303.15
303.15
303.15
303.15
303.15
303.15
303.15
303.15
303.15
303.15
303.15
303.15
303.15
303.15
303.15
303.15
303.15
303.15
303.15
303.15
303.15
303.15
303.15
303.15
303.15
303.15
303.15
303.15
303.15
303.15
303.15
303.15
303.15
303.15
303.15
303.15
303.15
303.15
303.15
303.15
303.15
303.15
303.15
303.15
303.15
303.15
303.15
303.15
303.15
303.15
303.15
303.15
303.15
303.15
303.15
303.15
303.15
303.15
303.15
303.15
303.15
303.15
303.15
303.15
303.15
303.15
303.15
303.15
303.15
303.15
303.15
303.15
303.15
303.15
303.15
303.15
303.15
303.15
303.15
303.15
303.15
303.15
303.15
303.15
303.15
303.15
303.15
303.15
303.15
303.15
303.15
303.15
303.15
303.15
303.15
303.15
303.15
303.15
303.15
303.15
303.15
303.15
303.15
303.15
303.15
303.15
303.15
303.15
303.15
303.15
303.15
303.15
303.15
303.15
303.15
303.15
303.15
303.15
303.15
303.15
303.15
303.15
303.15
303.15
303.15
303.15
303.15
303.15
303.15
303.15
303.15
303.15
303.15
303.15
303.15
303.15
303.15
303.15
303.15
303.15
303.15
303.15
303.15
303.15
303.15
303.15
303.15
303.15
303.15
303.15
303.15
303.15
303.15
303.15
303.15
303.15
303.15
303.15
303.15
303.15
303.15
303.15
303.15
303.15
303.15
303.15
303.15
303.15
303.15
303.15
303.15
303.15
303.15
303.15
303.15
303.15
303.15
303.15
303.15
303.15
303.15
303.15
303.15
303.15
303.15
303.15
303.15
303.15
303.15
303.15
303.15
303.15
303.15
303.15
303.15
303.15
303.15
303.15
303.15
303.15
303.15
303.15
303.15
303.15
303.15
303.15
303.15
303.15
303.15
303.15
303.15
303.15
303.15
303.15
303.15
303.15
303.15
303.15
303.15
303.15
303.15
303.15
303.15
303.15
303.15
303.15
303.15
303.15
303.15
303.15
303.15
303.15
303.15
303.15
303.15
303.15
303.15
303.15
303.15
303.15
303.15
303.15
303.15
303.15
303.15
303.15
303.15
303.15
303.15
303.15
303.15
303.15
303.15
303.15
303.15
303.15
303.15
303.15
303.15
303.15
303.15
303.15
303.15
303.15
303.15
303.15
303.15
303.15
303.15
303.15
303.15
303.15
303.15
303.15
303.15
303.15
303.15
303.15
303.15
303.15
303.15
303.15
303.15
303.15
303.15
303.15
303.15
303.15
303.15
303.15
303.15
303.15
303.15
303.15
303.15
303.15
303.15
303.15
303.15
303.15
303.15
303.15
303.15
303.15
303.15
303.15
303.15
303.15
303.15
303.15
303.15
303.15
303.15
303.149
303.149
303.149
303.149
303.149
303.149
303.149
303.149
303.149
303.149
303.149
303.149
303.149
303.149
303.148
303.148
303.148
303.148
303.15
303.15
303.15
303.15
303.15
303.15
303.15
303.149
303.149
303.149
303.149
303.149
303.148
303.148
303.148
303.148
303.148
303.147
303.147
303.147
303.146
303.146
303.146
303.146
303.145
303.145
303.145
303.144
303.144
303.144
303.143
303.143
303.142
303.142
303.142
303.141
303.141
303.14
303.14
303.14
303.139
303.139
303.138
303.137
303.137
303.136
303.136
303.135
303.134
303.133
303.148
303.145
303.143
303.14
303.137
303.135
303.132
303.13
303.127
303.125
303.123
303.12
303.118
303.116
303.113
303.111
303.109
303.107
303.105
303.102
303.1
303.098
303.096
303.094
303.092
303.09
303.088
303.086
303.084
303.082
303.08
303.078
303.077
303.075
303.073
303.071
303.069
303.067
303.066
303.064
303.062
303.06
303.059
303.057
303.055
303.053
303.052
303.05
303.048
303.047
302.578
301.851
301.188
300.778
300.569
300.466
300.403
300.361
300.363
300.458
300.67
300.882
300.711
300.255
300.282
300.674
301.177
301.577
301.748
301.671
302.583
301.864
301.207
300.801
300.594
300.491
300.429
300.39
300.395
300.491
300.699
300.907
300.751
300.312
300.388
300.79
301.265
301.623
301.768
301.701
302.589
301.878
301.229
300.827
300.62
300.517
300.456
300.419
300.427
300.523
300.727
300.934
300.802
300.384
300.478
300.874
301.322
301.651
301.781
301.719
302.596
301.896
301.253
300.854
300.648
300.544
300.484
300.449
300.459
300.554
300.754
300.962
300.862
300.475
300.575
300.959
301.378
301.678
301.792
301.736
302.605
301.916
301.281
300.884
300.677
300.573
300.513
300.48
300.492
300.585
300.779
300.988
300.929
300.58
300.677
301.042
301.43
301.701
301.802
301.751
302.615
301.939
301.311
300.916
300.708
300.603
300.543
300.511
300.524
300.615
300.802
301.014
300.996
300.693
300.779
301.122
301.478
301.722
301.811
301.763
302.627
301.965
301.345
300.951
300.742
300.635
300.575
300.543
300.557
300.644
300.823
301.036
301.06
300.806
300.88
301.197
301.521
301.74
301.817
301.774
302.64
301.994
301.382
300.989
300.777
300.668
300.607
300.577
300.589
300.673
300.843
301.055
301.117
300.915
300.976
301.266
301.559
301.754
301.822
301.783
302.655
302.026
301.424
301.031
300.816
300.704
300.641
300.61
300.623
300.701
300.863
301.071
301.166
301.016
301.066
301.328
301.591
301.765
301.825
301.789
302.672
302.062
301.469
301.076
300.857
300.741
300.677
300.645
300.656
300.729
300.881
301.084
301.206
301.106
301.146
301.382
301.618
301.773
301.826
301.794
302.69
302.102
301.518
301.125
300.901
300.781
300.714
300.681
300.689
300.757
300.899
301.095
301.237
301.184
301.217
301.428
301.638
301.777
301.824
301.796
302.71
302.145
301.572
301.178
300.95
300.824
300.753
300.718
300.724
300.785
300.916
301.104
301.261
301.249
301.278
301.465
301.654
301.778
301.821
301.796
302.731
302.191
301.631
301.236
301.002
300.87
300.795
300.757
300.758
300.813
300.933
301.111
301.277
301.301
301.328
301.494
301.663
301.775
301.815
301.793
302.753
302.241
301.694
301.299
301.058
300.919
300.839
300.797
300.794
300.841
300.95
301.117
301.287
301.341
301.367
301.516
301.668
301.769
301.807
301.788
302.776
302.294
301.762
301.368
301.119
300.973
300.887
300.839
300.831
300.87
300.967
301.122
301.292
301.37
301.397
301.53
301.668
301.761
301.796
301.782
302.8
302.35
301.835
301.442
301.186
301.031
300.937
300.884
300.869
300.899
300.984
301.126
301.293
301.389
301.417
301.537
301.663
301.749
301.784
301.773
302.824
302.409
301.913
301.522
301.259
301.095
300.992
300.932
300.909
300.929
301.001
301.13
301.291
301.401
301.43
301.538
301.654
301.735
301.77
301.762
302.849
302.47
301.996
301.608
301.339
301.164
301.052
300.983
300.951
300.961
301.02
301.133
301.286
301.407
301.435
301.534
301.642
301.718
301.754
301.75
302.873
302.532
302.083
301.701
301.425
301.24
301.118
301.039
300.997
300.995
301.039
301.137
301.278
301.405
301.435
301.526
301.626
301.7
301.737
301.736
302.897
302.595
302.173
301.799
301.519
301.324
301.19
301.099
301.046
301.031
301.06
301.141
301.267
301.393
301.43
301.514
301.608
301.679
301.718
301.721
302.92
302.658
302.266
301.904
301.621
301.415
301.269
301.166
301.099
301.07
301.084
301.147
301.256
301.375
301.421
301.498
301.588
301.657
301.697
301.704
302.941
302.72
302.36
302.013
301.73
301.516
301.357
301.241
301.159
301.114
301.11
301.155
301.247
301.357
301.41
301.481
301.566
301.634
301.676
301.687
302.961
302.78
302.455
302.126
301.846
301.625
301.455
301.324
301.226
301.163
301.141
301.166
301.24
301.339
301.398
301.462
301.542
301.61
301.654
301.669
302.978
302.838
302.549
302.242
301.968
301.743
301.562
301.416
301.302
301.22
301.177
301.182
301.236
301.322
301.384
301.443
301.518
301.585
301.631
301.65
302.993
302.891
302.64
302.359
302.096
301.87
301.68
301.521
301.388
301.285
301.22
301.203
301.236
301.308
301.37
301.423
301.494
301.56
301.609
301.631
303.006
302.939
302.726
302.474
302.227
302.004
301.808
301.637
301.487
301.362
301.272
301.23
301.241
301.297
301.357
301.404
301.471
301.536
301.586
301.612
303.016
302.983
302.807
302.586
302.358
302.143
301.946
301.765
301.599
301.452
301.336
301.266
301.252
301.29
301.345
301.386
301.448
301.512
301.563
301.592
303.023
303.02
302.879
302.691
302.488
302.286
302.093
301.906
301.727
301.558
301.414
301.313
301.27
301.287
301.337
301.371
301.427
301.488
301.541
301.573
303.027
303.05
302.943
302.788
302.612
302.429
302.244
302.058
301.869
301.682
301.51
301.375
301.298
301.289
301.326
301.358
301.409
301.467
301.519
301.554
303.03
303.075
302.997
302.874
302.727
302.567
302.397
302.218
302.026
301.825
301.627
301.456
301.341
301.299
301.317
301.348
301.392
301.447
301.499
301.535
303.03
303.094
303.041
302.948
302.83
302.695
302.546
302.381
302.194
301.986
301.767
301.561
301.404
301.322
301.315
301.341
301.379
301.429
301.479
301.517
303.028
303.108
303.076
303.008
302.918
302.811
302.686
302.541
302.368
302.163
301.932
301.696
301.492
301.363
301.322
301.338
301.368
301.413
301.461
301.5
303.025
303.117
303.101
303.055
302.99
302.909
302.811
302.691
302.54
302.35
302.118
301.861
301.615
301.43
301.341
301.337
301.361
301.4
301.444
301.483
303.021
303.123
303.119
303.089
303.045
302.988
302.916
302.824
302.702
302.537
302.32
302.058
301.779
301.535
301.383
301.341
301.356
301.388
301.429
301.467
303.016
303.126
303.132
303.114
303.085
303.047
302.999
302.934
302.843
302.711
302.525
302.278
301.984
301.69
301.463
301.358
301.353
301.38
301.416
301.451
303.011
303.127
303.139
303.129
303.112
303.089
303.059
303.017
302.956
302.862
302.717
302.505
302.224
301.903
301.604
301.409
301.354
301.374
301.405
301.437
303.005
303.127
303.143
303.139
303.13
303.116
303.099
303.074
303.038
302.978
302.879
302.718
302.479
302.167
301.822
301.527
301.374
301.37
301.395
301.423
302.999
303.126
303.146
303.144
303.14
303.133
303.123
303.11
303.091
303.058
302.999
302.894
302.719
302.456
302.114
301.747
301.465
301.37
301.387
301.41
302.993
303.125
303.147
303.147
303.145
303.142
303.137
303.131
303.122
303.106
303.076
303.018
302.912
302.729
302.448
302.076
301.681
301.403
301.381
301.398
302.987
303.123
303.147
303.149
303.148
303.146
303.144
303.141
303.137
303.13
303.117
303.091
303.038
302.938
302.76
302.473
302.077
301.648
301.383
301.386
302.981
303.121
303.147
303.149
303.149
303.148
303.148
303.146
303.145
303.142
303.136
303.125
303.104
303.061
302.979
302.826
302.56
302.144
301.622
301.384
302.975
303.119
303.147
303.15
303.15
303.149
303.149
303.149
303.148
303.147
303.144
303.139
303.13
303.112
303.081
303.025
302.924
302.735
302.376
301.717
302.97
303.117
303.147
303.15
303.15
303.15
303.15
303.15
303.149
303.149
303.148
303.145
303.14
303.13
303.113
303.085
303.044
302.988
302.92
302.842
302.965
303.115
303.146
303.15
303.15
303.15
303.15
303.15
303.15
303.15
303.149
303.148
303.145
303.139
303.128
303.108
303.075
303.025
302.955
302.86
302.96
303.114
303.146
303.15
303.15
303.15
303.15
303.15
303.15
303.15
303.15
303.149
303.148
303.144
303.137
303.123
303.096
303.05
302.977
302.863
302.956
303.112
303.146
303.15
303.15
303.15
303.15
303.15
303.15
303.15
303.15
303.15
303.149
303.147
303.142
303.132
303.11
303.068
302.994
302.866
302.951
303.11
303.146
303.15
303.15
303.15
303.15
303.15
303.15
303.15
303.15
303.15
303.149
303.148
303.145
303.138
303.12
303.082
303.008
302.868
302.948
303.109
303.145
303.15
303.15
303.15
303.15
303.15
303.15
303.15
303.15
303.15
303.15
303.149
303.147
303.141
303.127
303.093
303.019
302.87
302.945
303.107
303.145
303.15
303.15
303.15
303.15
303.15
303.15
303.15
303.15
303.15
303.15
303.149
303.148
303.144
303.132
303.101
303.028
302.871
302.942
303.106
303.145
303.15
303.15
303.15
303.15
303.15
303.15
303.15
303.15
303.15
303.15
303.15
303.149
303.145
303.136
303.107
303.035
302.873
302.939
303.105
303.145
303.15
303.15
303.15
303.15
303.15
303.15
303.15
303.15
303.15
303.15
303.15
303.149
303.147
303.138
303.112
303.041
302.875
302.937
303.104
303.144
303.149
303.15
303.15
303.15
303.15
303.15
303.15
303.15
303.15
303.15
303.15
303.149
303.147
303.14
303.116
303.046
302.876
302.936
303.103
303.144
303.149
303.15
303.15
303.15
303.15
303.15
303.15
303.15
303.15
303.15
303.15
303.15
303.148
303.142
303.12
303.051
302.878
302.935
303.102
303.144
303.149
303.15
303.15
303.15
303.15
303.15
303.15
303.15
303.15
303.15
303.15
303.15
303.148
303.143
303.122
303.055
302.879
302.934
303.102
303.144
303.149
303.15
303.15
303.15
303.15
303.15
303.15
303.15
303.15
303.15
303.15
303.15
303.149
303.144
303.124
303.058
302.881
302.933
303.101
303.144
303.149
303.15
303.15
303.15
303.15
303.15
303.15
303.15
303.15
303.15
303.15
303.15
303.149
303.145
303.126
303.06
302.882
302.932
303.101
303.144
303.149
303.15
303.15
303.15
303.15
303.15
303.15
303.15
303.15
303.15
303.15
303.15
303.149
303.145
303.128
303.063
302.883
302.932
303.101
303.144
303.149
303.15
303.15
303.15
303.15
303.15
303.15
303.15
303.15
303.15
303.15
303.15
303.149
303.146
303.129
303.065
302.885
302.932
303.1
303.144
303.149
303.15
303.15
303.15
303.15
303.15
303.15
303.15
303.15
303.15
303.15
303.15
303.149
303.146
303.13
303.067
302.886
302.932
303.1
303.144
303.149
303.15
303.15
303.15
303.15
303.15
303.15
303.15
303.15
303.15
303.15
303.15
303.149
303.146
303.131
303.068
302.887
302.933
303.1
303.144
303.149
303.15
303.15
303.15
303.15
303.15
303.15
303.15
303.15
303.15
303.15
303.15
303.149
303.146
303.132
303.07
302.889
302.933
303.1
303.144
303.149
303.15
303.15
303.15
303.15
303.15
303.15
303.15
303.15
303.15
303.15
303.15
303.149
303.147
303.132
303.071
302.89
302.934
303.1
303.144
303.149
303.15
303.15
303.15
303.15
303.15
303.15
303.15
303.15
303.15
303.15
303.15
303.149
303.147
303.133
303.072
302.891
302.934
303.1
303.144
303.149
303.15
303.15
303.15
303.15
303.15
303.15
303.15
303.15
303.15
303.15
303.15
303.149
303.147
303.133
303.074
302.893
302.935
303.101
303.144
303.149
303.15
303.15
303.15
303.15
303.15
303.15
303.15
303.15
303.15
303.15
303.15
303.15
303.147
303.134
303.075
302.894
302.936
303.101
303.144
303.149
303.15
303.15
303.15
303.15
303.15
303.15
303.15
303.15
303.15
303.15
303.15
303.15
303.147
303.134
303.075
302.895
302.937
303.101
303.144
303.149
303.15
303.15
303.15
303.15
303.15
303.15
303.15
303.15
303.15
303.15
303.15
303.15
303.147
303.135
303.076
302.897
302.938
303.101
303.144
303.149
303.15
303.15
303.15
303.15
303.15
303.15
303.15
303.15
303.15
303.15
303.15
303.15
303.147
303.135
303.077
302.898
302.939
303.101
303.144
303.149
303.15
303.15
303.15
303.15
303.15
303.15
303.15
303.15
303.15
303.15
303.15
303.15
303.147
303.135
303.078
302.899
302.94
303.102
303.144
303.149
303.15
303.15
303.15
303.15
303.15
303.15
303.15
303.15
303.15
303.15
303.15
303.15
303.147
303.135
303.079
302.901
302.941
303.102
303.144
303.149
303.15
303.15
303.15
303.15
303.15
303.15
303.15
303.15
303.15
303.15
303.15
303.15
303.147
303.136
303.079
302.902
302.942
303.102
303.144
303.149
303.15
303.15
303.15
303.15
303.15
303.15
303.15
303.15
303.15
303.15
303.15
303.15
303.148
303.136
303.08
302.903
302.943
303.103
303.144
303.149
303.15
303.15
303.15
303.15
303.15
303.15
303.15
303.15
303.15
303.15
303.15
303.15
303.148
303.136
303.081
302.905
302.944
303.103
303.144
303.149
303.15
303.15
303.15
303.15
303.15
303.15
303.15
303.15
303.15
303.15
303.15
303.15
303.148
303.136
303.082
302.906
302.945
303.103
303.144
303.149
303.15
303.15
303.15
303.15
303.15
303.15
303.15
303.15
303.15
303.15
303.15
303.15
303.148
303.137
303.082
302.907
302.946
303.104
303.144
303.149
303.15
303.15
303.15
303.15
303.15
303.15
303.15
303.15
303.15
303.15
303.15
303.15
303.148
303.137
303.083
302.909
302.948
303.104
303.144
303.149
303.15
303.15
303.15
303.15
303.15
303.15
303.15
303.15
303.15
303.15
303.15
303.15
303.148
303.137
303.083
302.91
302.949
303.105
303.144
303.149
303.15
303.15
303.15
303.15
303.15
303.15
303.15
303.15
303.15
303.15
303.15
303.15
303.148
303.137
303.084
302.911
302.95
303.105
303.144
303.149
303.15
303.15
303.15
303.15
303.15
303.15
303.15
303.15
303.15
303.15
303.15
303.15
303.148
303.137
303.085
302.913
302.951
303.106
303.144
303.149
303.15
303.15
303.15
303.15
303.15
303.15
303.15
303.15
303.15
303.15
303.15
303.15
303.148
303.137
303.085
302.914
302.952
303.106
303.144
303.149
303.15
303.15
303.15
303.15
303.15
303.15
303.15
303.15
303.15
303.15
303.15
303.15
303.148
303.137
303.086
302.915
302.953
303.106
303.145
303.149
303.15
303.15
303.15
303.15
303.15
303.15
303.15
303.15
303.15
303.15
303.15
303.15
303.148
303.138
303.086
302.917
302.954
303.107
303.145
303.149
303.15
303.15
303.15
303.15
303.15
303.15
303.15
303.15
303.15
303.15
303.15
303.15
303.148
303.138
303.087
302.918
302.955
303.107
303.145
303.149
303.15
303.15
303.15
303.15
303.15
303.15
303.15
303.15
303.15
303.15
303.15
303.15
303.148
303.138
303.088
302.919
302.957
303.108
303.145
303.149
303.15
303.15
303.15
303.15
303.15
303.15
303.15
303.15
303.15
303.15
303.15
303.15
303.148
303.138
303.088
302.921
302.958
303.108
303.145
303.149
303.15
303.15
303.15
303.15
303.15
303.15
303.15
303.15
303.15
303.15
303.15
303.15
303.148
303.138
303.089
302.922
302.959
303.109
303.145
303.15
303.15
303.15
303.15
303.15
303.15
303.15
303.15
303.15
303.15
303.15
303.15
303.15
303.148
303.138
303.089
302.924
302.96
303.109
303.145
303.15
303.15
303.15
303.15
303.15
303.15
303.15
303.15
303.15
303.15
303.15
303.15
303.15
303.148
303.138
303.09
302.925
302.961
303.11
303.145
303.15
303.15
303.15
303.15
303.15
303.15
303.15
303.15
303.15
303.15
303.15
303.15
303.15
303.148
303.139
303.09
302.926
302.962
303.11
303.145
303.15
303.15
303.15
303.15
303.15
303.15
303.15
303.15
303.15
303.15
303.15
303.15
303.15
303.148
303.139
303.091
302.928
302.963
303.111
303.145
303.15
303.15
303.15
303.15
303.15
303.15
303.15
303.15
303.15
303.15
303.15
303.15
303.15
303.148
303.139
303.092
302.929
302.964
303.111
303.145
303.15
303.15
303.15
303.15
303.15
303.15
303.15
303.15
303.15
303.15
303.15
303.15
303.15
303.148
303.139
303.092
302.931
302.966
303.111
303.145
303.15
303.15
303.15
303.15
303.15
303.15
303.15
303.15
303.15
303.15
303.15
303.15
303.15
303.148
303.139
303.093
302.932
302.967
303.112
303.146
303.15
303.15
303.15