/*--------------------------------*- C++ -*----------------------------------*\
  =========                 |
  \\      /  F ield         | OpenFOAM: The Open Source CFD Toolbox
   \\    /   O peration     | Website:  https://openfoam.org
    \\  /    A nd           | Version:  8
     \\/     M anipulation  |
\*---------------------------------------------------------------------------*/
FoamFile
{
    version     2.0;
    format      ascii;
    class       volScalarField;
    location    "600";
    object      alphat;
}
// * * * * * * * * * * * * * * * * * * * * * * * * * * * * * * * * * * * * * //

dimensions      [1 -1 -1 0 0 0 0];

internalField   nonuniform List<scalar> 
8400
(
0.0824997
0.0813008
0.0800079
0.0789399
0.0779616
0.077002
0.0760324
0.0750367
0.0742482
0.0736146
0.0730693
0.0724989
0.0717757
0.0708043
0.0696408
0.0685765
0.0675173
0.0664505
0.0653717
0.0642785
0.0631676
0.0621804
0.0616646
0.0613358
0.0610461
0.0607414
0.0604086
0.0600452
0.0596453
0.0592049
0.0587173
0.0581673
0.0575396
0.0568176
0.0559802
0.0550061
0.0538859
0.0526455
0.0513837
0.0504805
0.050638
0.0509965
0.0498104
0.0486598
0.0472202
0.0452631
0.042747
0.0403957
0.0410854
0.0419888
0.0546688
0.0549676
0.0553232
0.0552914
0.0552252
0.0553352
0.0556937
0.0563437
0.0569075
0.0574237
0.0579082
0.0583851
0.0588516
0.059274
0.0594824
0.0591964
0.058735
0.0582187
0.0577473
0.0574676
0.0576026
0.0580535
0.058153
0.058183
0.0581877
0.0581804
0.0581547
0.0580942
0.0579762
0.057778
0.0574845
0.057116
0.0566963
0.0562221
0.0556725
0.0550108
0.0541571
0.0528456
0.0512131
0.0486184
0.0471756
0.0477072
0.0486977
0.0496033
0.0501498
0.0503524
0.0502967
0.0500995
0.0498142
0.0494223
0.0566489
0.056891
0.057355
0.0578017
0.0581458
0.0583103
0.058336
0.0582547
0.0580923
0.0578814
0.0576546
0.0574252
0.0571975
0.0569502
0.0567623
0.0567338
0.0568136
0.0568435
0.0569815
0.0572666
0.0574391
0.0575628
0.0577582
0.057858
0.0578916
0.0579335
0.057999
0.0580714
0.058124
0.0581418
0.0581056
0.057984
0.0577775
0.0574992
0.0571627
0.0567799
0.0563479
0.0558456
0.0552825
0.0547225
0.0542404
0.0538685
0.0535937
0.0533875
0.0532031
0.0530037
0.052755
0.0524377
0.0520415
0.0515713
0.0611642
0.0610848
0.0610037
0.0609208
0.0608379
0.0607547
0.0606735
0.0605961
0.0605242
0.0604582
0.0604015
0.0603562
0.060324
0.0603148
0.0604409
0.0609635
0.0616406
0.0621214
0.0617357
0.0604709
0.0593899
0.0587683
0.058502
0.0584297
0.0584378
0.0584683
0.0584949
0.0585084
0.0585102
0.0585034
0.0584804
0.0584262
0.0583264
0.0581742
0.0579722
0.0577295
0.0574519
0.0571392
0.056796
0.0564481
0.0560946
0.055744
0.0554199
0.0551177
0.0548216
0.054524
0.0542073
0.0538416
0.0534147
0.0529204
0.0612057
0.0611737
0.0611416
0.0611099
0.0610788
0.0610485
0.0610188
0.0609907
0.060965
0.0609434
0.0609281
0.0609202
0.0609214
0.0609335
0.0609666
0.0610451
0.061143
0.061123
0.0609538
0.0607122
0.0604461
0.0601952
0.0599814
0.0598082
0.0596689
0.0595544
0.0594559
0.059367
0.059283
0.059199
0.0591086
0.0590383
0.0589671
0.0588782
0.0587645
0.058626
0.0584626
0.0582734
0.0580586
0.0578096
0.0575357
0.0572497
0.0569458
0.0566291
0.0563004
0.0559597
0.0555934
0.0551984
0.0547833
0.0543678
0.0611941
0.0611495
0.0611041
0.0610582
0.0610129
0.0609662
0.0609203
0.0608757
0.0608338
0.0607945
0.0607593
0.0607286
0.0607022
0.0606795
0.0606597
0.0606404
0.0606139
0.0605645
0.060479
0.0603843
0.0602856
0.0601878
0.0600936
0.0600049
0.0599221
0.0598456
0.0597763
0.0597143
0.0596581
0.0596059
0.0595568
0.0594789
0.0593818
0.0592755
0.0591647
0.0590491
0.0589236
0.0587809
0.0586154
0.0584239
0.058207
0.0579681
0.057711
0.0574395
0.0571542
0.0568483
0.0565256
0.0561793
0.0557956
0.0553565
0.0611853
0.0611303
0.0610751
0.0610181
0.0609606
0.0609024
0.0608434
0.0607836
0.060724
0.060668
0.0606152
0.0605677
0.0605251
0.0604872
0.0604523
0.0604174
0.0603789
0.0603334
0.0602806
0.0602202
0.0601556
0.0600861
0.0600118
0.0599348
0.0598571
0.0597822
0.0597146
0.0596557
0.0595989
0.0595436
0.05949
0.0594326
0.0593655
0.0592861
0.0591929
0.0590828
0.0589538
0.0588066
0.0586409
0.0584564
0.0582531
0.0580329
0.0577996
0.0575571
0.0573059
0.0570415
0.0567608
0.0564545
0.0561094
0.055707
0.0611739
0.0611055
0.0610365
0.0609672
0.0608966
0.0608226
0.0607473
0.060672
0.0605943
0.0605184
0.0604456
0.0603773
0.0603174
0.0602643
0.0602174
0.0601755
0.0601338
0.0600889
0.0600391
0.059986
0.0599253
0.0598563
0.0597807
0.0596996
0.0596158
0.0595384
0.0594636
0.0593885
0.059325
0.0592755
0.059237
0.0592017
0.0591617
0.0591101
0.059041
0.0589504
0.0588372
0.0587026
0.0585477
0.0583733
0.0581827
0.0579796
0.0577668
0.0575457
0.0573177
0.0570799
0.0568272
0.0565473
0.056224
0.0558388
0.06116
0.0610752
0.0609882
0.060899
0.0608084
0.0607176
0.0606218
0.0605219
0.0604209
0.0603186
0.0602184
0.0601226
0.060037
0.0599625
0.0598977
0.0598425
0.0597924
0.0597429
0.0596892
0.0596329
0.0595678
0.0594965
0.0594162
0.0593304
0.0592394
0.0591343
0.0590332
0.0589536
0.0589018
0.0588772
0.0588708
0.0588707
0.0588659
0.0588463
0.0588042
0.0587368
0.0586436
0.0585261
0.0583858
0.0582255
0.05805
0.0578639
0.0576698
0.0574683
0.0572608
0.0570451
0.0568127
0.0565474
0.0562308
0.0558406
0.0611343
0.0610197
0.0609031
0.0607892
0.0606683
0.0605411
0.0604118
0.0602772
0.0601335
0.0599869
0.0598403
0.0597013
0.059573
0.0594644
0.0593754
0.0593038
0.0592455
0.0591926
0.0591372
0.0590713
0.0590001
0.0589184
0.0588227
0.0587069
0.0585842
0.0584775
0.0583967
0.0583554
0.0583573
0.058392
0.058443
0.0584956
0.0585355
0.0585497
0.0585324
0.058485
0.0584089
0.0583046
0.0581778
0.0580333
0.0578746
0.0577054
0.0575295
0.0573493
0.0571642
0.0569701
0.0567539
0.0564933
0.0561589
0.0557336
0.0610902
0.0609149
0.0607337
0.0605565
0.0603779
0.0601876
0.0599859
0.0597662
0.0595357
0.059292
0.0590372
0.0587959
0.0585771
0.0584017
0.0582738
0.0581923
0.0581415
0.0581012
0.0580573
0.0580003
0.0579219
0.0578247
0.0577215
0.0576275
0.0575597
0.057534
0.0575595
0.0576451
0.057777
0.05792
0.05805
0.0581555
0.0582266
0.0582565
0.0582484
0.0582106
0.0581473
0.0580588
0.0579525
0.0578321
0.0576978
0.0575559
0.0574134
0.0572751
0.0571294
0.0569545
0.0567151
0.0563994
0.0559908
0.0554851
0.060926
0.060531
0.0601939
0.0598552
0.0595136
0.0591134
0.0586789
0.0581733
0.0575709
0.056893
0.0561403
0.0553309
0.0545683
0.0539408
0.0535616
0.0534606
0.0535597
0.0537278
0.0538505
0.0539117
0.0539571
0.0541089
0.0546056
0.0556239
0.0566516
0.0571236
0.0573313
0.0574491
0.057568
0.057695
0.0578026
0.057885
0.057941
0.0579691
0.0579733
0.0579645
0.0579512
0.0579379
0.0579399
0.0579269
0.0578556
0.0576906
0.0575146
0.057357
0.0571954
0.0569858
0.0566661
0.0562676
0.055776
0.0551918
0.0596386
0.058903
0.0581399
0.0573588
0.0566373
0.0560413
0.0555781
0.0552363
0.054986
0.0547934
0.0546392
0.0545176
0.0544292
0.0543876
0.0544185
0.0545377
0.0547569
0.0550581
0.0553891
0.0557077
0.0559804
0.056203
0.0564297
0.0566883
0.0569272
0.0570932
0.057218
0.0573094
0.0573787
0.0574317
0.0574646
0.0574797
0.057491
0.0575223
0.0575988
0.0577393
0.0579532
0.058243
0.0585706
0.0588086
0.0588396
0.0586376
0.0583458
0.0580379
0.0576889
0.0572442
0.0566778
0.0560314
0.0553137
0.0545261
0.0576814
0.0570797
0.0565308
0.0560764
0.0557235
0.0554615
0.0552772
0.0551485
0.0550595
0.0550171
0.0550181
0.0550615
0.055156
0.055299
0.0554799
0.0556865
0.0559017
0.056103
0.0562767
0.056424
0.0565437
0.0566334
0.0567024
0.0567582
0.0568019
0.0568291
0.0568356
0.0568106
0.05675
0.056661
0.0565604
0.056481
0.0564764
0.0566021
0.0568769
0.0572665
0.0577244
0.0582255
0.0586947
0.0589636
0.0589073
0.0585565
0.0580601
0.0575038
0.0569
0.0562293
0.0554947
0.054719
0.0539155
0.0530892
0.0563267
0.0560255
0.0557766
0.0555931
0.0554697
0.0553982
0.0553685
0.0553793
0.0554242
0.0554941
0.0555901
0.0557043
0.0558233
0.0559434
0.0560574
0.0561541
0.0562309
0.0562873
0.0563208
0.0563315
0.0563196
0.0562809
0.0562113
0.056107
0.0559626
0.0557721
0.055529
0.05523
0.0548831
0.0545147
0.054176
0.0539431
0.053897
0.0540721
0.0544088
0.0547825
0.0551125
0.0554
0.0556308
0.0557258
0.0556274
0.0553585
0.0549899
0.054569
0.0541157
0.0536233
0.0530828
0.0524916
0.0518531
0.0511768
0.0557768
0.0556907
0.0556331
0.0556102
0.0556154
0.0556414
0.0556837
0.0557356
0.0557912
0.0558473
0.0558948
0.0559316
0.0559527
0.0559525
0.0559294
0.0558809
0.0558047
0.0557
0.055564
0.0553928
0.0551823
0.0549258
0.054615
0.054242
0.0537991
0.053281
0.0526908
0.0520438
0.0513747
0.0507447
0.0502409
0.0499543
0.0499356
0.0501439
0.0504451
0.0507017
0.050874
0.0510067
0.0511361
0.0512485
0.0513123
0.0513142
0.0512578
0.0511454
0.0509773
0.0507427
0.0504264
0.0500163
0.0495088
0.0489133
0.0557266
0.0557202
0.0557231
0.0557303
0.0557383
0.0557422
0.0557381
0.0557207
0.0556874
0.0556349
0.0555579
0.0554548
0.0553219
0.0551545
0.0549511
0.0547097
0.0544265
0.0540992
0.0537254
0.053301
0.0528219
0.0522833
0.0516802
0.0510093
0.0502724
0.0494808
0.0486594
0.0478512
0.0471205
0.0465495
0.0462196
0.0461744
0.0463811
0.0467245
0.0470667
0.0473307
0.0475249
0.0476926
0.0478594
0.0480196
0.0481534
0.0482446
0.0482826
0.0482559
0.0481539
0.0479635
0.047668
0.0472517
0.046705
0.0460338
0.0556058
0.0555595
0.0554989
0.0554241
0.0553316
0.0552175
0.0550793
0.0549156
0.0547204
0.0544922
0.0542285
0.0539259
0.0535822
0.0531944
0.0527607
0.05228
0.0517506
0.0511722
0.0505459
0.0498717
0.0491512
0.0483878
0.0475866
0.0467578
0.0459203
0.045104
0.0443519
0.0437207
0.0432746
0.0430689
0.0431237
0.0434
0.0438008
0.044211
0.0445535
0.0448121
0.0450088
0.0451668
0.0452945
0.0453885
0.0454385
0.0454346
0.0453662
0.0452224
0.0449896
0.0446556
0.0442061
0.0436261
0.0429059
0.0420531
0.0543813
0.0542243
0.0540334
0.0538084
0.0535483
0.0532531
0.0529208
0.0525505
0.0521411
0.051691
0.0511992
0.0506648
0.0500877
0.0494685
0.0488086
0.0481106
0.0473785
0.0466171
0.0458322
0.0450314
0.0442241
0.0434217
0.0426392
0.0418966
0.0412199
0.0406412
0.040197
0.0399226
0.0398421
0.039954
0.0402203
0.0405708
0.040927
0.0412315
0.041462
0.0416235
0.0417272
0.0417796
0.041781
0.0417288
0.0416164
0.0414363
0.0411774
0.040831
0.0403871
0.0398358
0.039167
0.0383742
0.0374559
0.0364295
0.0689373
0.068212
0.0674673
0.0666889
0.0658694
0.0650049
0.064094
0.0631376
0.0621375
0.0610967
0.0600199
0.0589121
0.0577801
0.0566313
0.0554735
0.0543164
0.0531702
0.0520461
0.0509563
0.0499138
0.0489318
0.0480238
0.0472029
0.0464811
0.0458675
0.0453668
0.0449769
0.0446858
0.0444693
0.0442929
0.0441178
0.0439096
0.0436463
0.0433216
0.0429398
0.0425082
0.0420322
0.0415139
0.0409523
0.0403454
0.0396885
0.0389766
0.0382032
0.0373637
0.036454
0.0354698
0.0344094
0.0332781
0.0320893
0.0308686
0.00545236
0.00550409
0.00555484
0.00546808
0.00536977
0.00532093
0.00530587
0.00529468
0.00527592
0.00525325
0.00523184
0.00521246
0.00519318
0.00517238
0.00514971
0.00512555
0.0051004
0.00507462
0.0050486
0.00502272
0.00497455
0.00494904
0.00494854
0.00493917
0.00490298
0.00487213
0.00484511
0.0048212
0.00479926
0.00477803
0.00475681
0.00473546
0.00471432
0.00469401
0.00467512
0.00465804
0.00464311
0.00463041
0.00461888
0.00460765
0.00459604
0.00458366
0.00456977
0.00455478
0.00453929
0.00452369
0.00450811
0.00449234
0.00447588
0.00445815
0.00534558
0.0050852
0.00503606
0.0050044
0.00492716
0.00481936
0.00471383
0.00462372
0.00454466
0.00446921
0.0043943
0.00432042
0.0042485
0.00417856
0.00411013
0.00404302
0.00397752
0.00391427
0.003854
0.00379699
0.00370481
0.00362896
0.0156836
0.0157424
0.0156701
0.0156824
0.0157219
0.015754
0.0157638
0.0157517
0.0157246
0.0156918
0.0156613
0.0156381
0.0156238
0.0156173
0.0156143
0.0156096
0.0156001
0.0155818
0.0155517
0.015509
0.0154582
0.0154012
0.0153399
0.0152761
0.0152099
0.0151393
0.0150606
0.0149687
0.00544427
0.00525089
0.00509274
0.00499228
0.00490355
0.00480616
0.00470459
0.00460788
0.00451874
0.00443501
0.00435414
0.00427505
0.00419764
0.00412194
0.00404784
0.00397528
0.00390438
0.00383547
0.00376923
0.0158049
0.0156715
0.015537
0.0154114
0.0152932
0.0151856
0.0150846
0.0149882
0.0148933
0.0147977
0.0147008
0.0146036
0.014508
0.0144165
0.0143311
0.0142529
0.0141815
0.0141154
0.0140521
0.0139883
0.0139214
0.0138495
0.0137722
0.0136904
0.0136061
0.0135214
0.0134377
0.0133554
0.0132735
0.0131896
0.0131007
0.00541435
0.00530561
0.00515112
0.00501993
0.00491202
0.00481277
0.00471497
0.00461948
0.0045286
0.00444265
0.00436042
0.00428069
0.00420276
0.00412642
0.00405163
0.00397843
0.003907
0.00383769
0.00377118
0.0158173
0.0156791
0.0155455
0.0154176
0.0152954
0.0151781
0.0150641
0.0149517
0.0148393
0.0147259
0.0146115
0.0144971
0.0143846
0.0142761
0.0141732
0.0140769
0.0139866
0.0139009
0.0138174
0.0137333
0.013646
0.0135538
0.0134566
0.0133554
0.0132522
0.0131495
0.0130489
0.0129515
0.0128565
0.0127625
0.0126666
0.00538083
0.0052919
0.00516687
0.00503716
0.00492026
0.00481542
0.00471715
0.00462255
0.00453148
0.00444433
0.00436081
0.00428017
0.00420168
0.00412494
0.00404985
0.00397646
0.00390504
0.00383598
0.00376993
0.0158126
0.0156775
0.0155471
0.0154221
0.0153023
0.0151865
0.015073
0.0149599
0.0148457
0.0147294
0.0146114
0.014493
0.0143763
0.0142635
0.0141567
0.0140566
0.013963
0.0138744
0.013788
0.013701
0.0136104
0.0135144
0.0134127
0.0133064
0.0131977
0.0130893
0.0129833
0.0128811
0.0127828
0.012687
0.0125912
0.00537462
0.00526965
0.00515988
0.00504211
0.00492735
0.00482048
0.00472083
0.0046262
0.00453532
0.00444785
0.00436361
0.00428221
0.00420313
0.00412599
0.00405064
0.00397716
0.00390584
0.00383707
0.0037715
0.0158309
0.0156975
0.0155688
0.0154455
0.0153273
0.0152128
0.0151
0.014987
0.0148717
0.0147534
0.0146324
0.0145103
0.0143896
0.0142729
0.0141626
0.0140598
0.0139643
0.0138745
0.0137876
0.0137001
0.0136088
0.0135116
0.0134079
0.0132989
0.013187
0.0130751
0.0129661
0.0128617
0.0127626
0.0126676
0.0125744
0.00538267
0.00526276
0.00515205
0.00504102
0.00493102
0.00482505
0.00472448
0.00462888
0.00453733
0.00444919
0.00436412
0.00428181
0.00420192
0.00412418
0.00404846
0.00397488
0.0039037
0.0038353
0.00377031
0.0158284
0.0156987
0.0155737
0.0154538
0.0153385
0.0152261
0.0151145
0.0150013
0.0148846
0.0147637
0.0146393
0.0145134
0.014389
0.0142693
0.0141567
0.0140527
0.0139571
0.013868
0.0137823
0.0136961
0.0136058
0.0135088
0.0134043
0.0132934
0.0131785
0.0130634
0.0129512
0.0128447
0.012745
0.0126512
0.012561
0.00538914
0.00526709
0.0051517
0.00504126
0.00493383
0.00482937
0.00472872
0.00463227
0.00453977
0.00445077
0.00436485
0.00428174
0.00420115
0.0041229
0.00404695
0.0039734
0.0039025
0.00383459
0.00377029
0.0158354
0.0157086
0.0155866
0.0154697
0.0153566
0.0152457
0.0151344
0.0150201
0.014901
0.0147766
0.014648
0.0145176
0.0143891
0.0142659
0.014151
0.014046
0.0139505
0.0138626
0.0137787
0.0136944
0.0136054
0.0135089
0.0134034
0.0132902
0.0131718
0.0130524
0.0129362
0.0128267
0.0127256
0.0126324
0.0125451
0.0053898
0.00527202
0.00515551
0.00504407
0.00493698
0.0048332
0.00473262
0.00463551
0.00454197
0.00445186
0.0043649
0.00428083
0.00419946
0.00412066
0.00404444
0.0039709
0.00390027
0.00383287
0.00376927
0.0158352
0.0157122
0.0155938
0.0154802
0.0153698
0.0152605
0.0151495
0.0150341
0.0149125
0.0147846
0.0146517
0.014517
0.0143846
0.0142585
0.0141419
0.0140364
0.0139419
0.013856
0.0137747
0.013693
0.0136061
0.0135102
0.0134039
0.0132879
0.0131655
0.0130411
0.0129199
0.0128065
0.012703
0.0126097
0.0125246
0.00538786
0.00527323
0.00515874
0.00504759
0.00494046
0.00483673
0.00473604
0.00463838
0.00454391
0.0044527
0.00436466
0.00427965
0.00419753
0.00411826
0.00404185
0.0039684
0.00389813
0.00383133
0.00376849
0.0158376
0.0157184
0.0156036
0.0154923
0.0153831
0.0152734
0.0151606
0.0150422
0.0149168
0.0147844
0.0146471
0.0145083
0.0143726
0.0142443
0.0141269
0.0140223
0.01393
0.0138474
0.0137699
0.0136918
0.0136074
0.0135127
0.0134053
0.0132862
0.0131589
0.0130287
0.0129016
0.0127831
0.0126765
0.0125823
0.0124988
0.00538653
0.00527207
0.00515997
0.00505034
0.00494368
0.00483994
0.00473896
0.00464072
0.00454537
0.00445309
0.00436398
0.00427803
0.0041952
0.00411548
0.00403889
0.00396556
0.0038957
0.00382952
0.00376749
0.0158407
0.0157282
0.0156174
0.0155058
0.0153918
0.0152744
0.0151523
0.0150246
0.0148906
0.0147511
0.0146086
0.0144667
0.0143298
0.0142023
0.0140877
0.0139873
0.0139007
0.0138247
0.0137538
0.0136817
0.0136019
0.0135095
0.0134021
0.0132804
0.0131483
0.0130121
0.0128788
0.0127548
0.0126444
0.0125489
0.0124666
0.00538638
0.00527086
0.00516016
0.00505215
0.00494636
0.00484276
0.00474144
0.00464254
0.00454631
0.00445301
0.00436286
0.004276
0.0041925
0.00411236
0.00403563
0.00396247
0.00389304
0.0038275
0.0037663
0.0158404
0.0157319
0.0156248
0.0155159
0.0154033
0.0152856
0.0151619
0.0150312
0.0148934
0.0147498
0.014603
0.0144571
0.0143173
0.0141881
0.0140733
0.0139746
0.013891
0.0138188
0.0137522
0.0136837
0.0136062
0.0135142
0.0134046
0.0132787
0.0131404
0.0129969
0.0128563
0.0127259
0.012611
0.0125135
0.0124319
0.00538663
0.00527041
0.00516034
0.00505349
0.00494853
0.00484512
0.00474345
0.00464389
0.0045468
0.00445257
0.00436151
0.00427389
0.00418981
0.00410936
0.00403262
0.00395973
0.00389079
0.00382595
0.00376559
0.015843
0.0157382
0.0156345
0.0155284
0.0154177
0.0153008
0.0151766
0.0150441
0.0149035
0.0147563
0.0146056
0.0144562
0.0143135
0.0141828
0.0140679
0.0139706
0.0138899
0.0138214
0.0137584
0.013693
0.013617
0.0135248
0.0134127
0.0132818
0.0131369
0.0129858
0.0128376
0.0127009
0.0125813
0.0124814
0.0124002
0.00538665
0.00527037
0.00516078
0.00505463
0.00495019
0.00484686
0.00474482
0.00464455
0.00454659
0.00445144
0.00435954
0.0042712
0.00418659
0.00410585
0.0040291
0.00395642
0.00388793
0.00382371
0.00376409
0.0158313
0.0157329
0.0156345
0.0155328
0.0154256
0.0153108
0.0151871
0.0150537
0.0149108
0.0147603
0.014606
0.0144531
0.0143078
0.0141758
0.0140613
0.0139658
0.0138878
0.0138227
0.0137632
0.0137002
0.0136255
0.0135323
0.0134175
0.0132817
0.0131303
0.0129722
0.0128172
0.0126746
0.0125512
0.0124497
0.012369
0.00538642
0.00527025
0.00516121
0.00505553
0.00495135
0.00484803
0.00474572
0.00464496
0.00454636
0.00445058
0.00435813
0.00426934
0.00418445
0.00410363
0.00402699
0.00395461
0.00388661
0.00382302
0.00376297
0.00362472
0.0153782
0.0154027
0.0153846
0.0153349
0.0152595
0.0151619
0.0150446
0.0149104
0.0147634
0.0146095
0.0144557
0.0143091
0.0141764
0.0140625
0.0139687
0.0138933
0.0138312
0.0137743
0.0137133
0.0136391
0.0135447
0.0134265
0.013286
0.0131285
0.0129637
0.0128026
0.0126549
0.0125278
0.0124249
0.0123451
0.00538614
0.00526987
0.0051612
0.00505572
0.00495142
0.00484776
0.00474496
0.00464356
0.00454428
0.00444784
0.0043548
0.00426555
0.00418034
0.00409936
0.00402273
0.00395055
0.00388293
0.00381987
0.00376158
0.0158277
0.0157309
0.0156287
0.0155211
0.0154092
0.0152924
0.0151686
0.0150362
0.0148943
0.0147446
0.0145911
0.0144394
0.0142968
0.0141688
0.0140596
0.0139711
0.0139006
0.0138427
0.0137889
0.0137294
0.0136553
0.0135595
0.0134386
0.013294
0.0131322
0.0129631
0.0127982
0.0126482
0.0125207
0.0124193
0.0123433
0.00538595
0.00526939
0.00516103
0.00505594
0.00495184
0.00484823
0.00474537
0.00464385
0.00454443
0.00444782
0.00435459
0.00426517
0.00417986
0.00409883
0.00402223
0.00395023
0.00388292
0.00382022
0.00376231
0.0158357
0.0157394
0.015644
0.0155465
0.0154435
0.015332
0.0152091
0.0150735
0.0149264
0.0147708
0.0146121
0.0144569
0.0143121
0.0141843
0.0140776
0.0139928
0.0139275
0.0138753
0.0138274
0.0137736
0.0137046
0.0136134
0.0134968
0.0133562
0.0131981
0.0130333
0.0128736
0.0127302
0.0126112
0.0125211
0.0124595
0.00538582
0.00526805
0.00515871
0.00505281
0.00494794
0.00484357
0.00474004
0.00463801
0.00453826
0.00444146
0.00434816
0.00425878
0.00417361
0.00409281
0.00401662
0.00394518
0.0038785
0.00381652
0.00375946
0.0158304
0.0157452
0.0156516
0.0155524
0.0154476
0.0153434
0.0152282
0.0151036
0.0149716
0.0148352
0.0146987
0.0145677
0.0144346
0.0143167
0.0142213
0.0141509
0.0141143
0.0140972
0.0140869
0.0140711
0.0140386
0.0139812
0.0138953
0.0137822
0.013649
0.013507
0.0133696
0.0132493
0.0131557
0.0130947
0.0130679
0.00538609
0.00526912
0.00516124
0.0050571
0.00495541
0.00485518
0.00475607
0.00465875
0.00456388
0.00447203
0.0043837
0.00429921
0.00421877
0.00414267
0.00407123
0.0040047
0.00394332
0.00388726
0.00383652
0.00379055
0.00371037
0.00364625
0.00360836
0.00358696
0.0155496
0.0157768
0.0158824
0.015911
0.0158926
0.0158493
0.0157978
0.0157989
0.0156696
0.0155125
0.0153764
0.0152383
0.0152752
0.0153862
0.0155108
0.0156129
0.0156715
0.0156773
0.0156316
0.0155447
0.0154336
0.0153178
0.0152161
0.0151442
0.015112
0.0151256
0.00545531
0.00543581
0.00541706
0.00539712
0.00537464
0.00535015
0.00532453
0.00529814
0.00527136
0.00524456
0.005218
0.00519188
0.00516645
0.00514199
0.00511873
0.00509691
0.0050767
0.00505811
0.00504106
0.00502516
0.00498663
0.00496825
0.00494623
0.00492248
0.00490122
0.00487921
0.00485478
0.004828
0.00480018
0.0047729
0.00474767
0.00474546
0.00474033
0.00473449
0.00472842
0.00470292
0.00468227
0.00466332
0.00464334
0.00462035
0.00459351
0.00456307
0.00453027
0.00449706
0.00446567
0.00443817
0.00441574
0.00439887
0.00438698
0.00437856
0.00981416
0.00913918
0.0125442
0.015454
0.00379023
0.00371122
0.0146113
0.012066
0.00943063
0.00774276
0.00713646
0.00730917
0.00766499
0.00878071
0.00997949
0.0112696
0.01234
0.0135165
0.0043998
0.0116247
0.00983081
0.00914067
0.012597
0.0155365
0.00379879
0.0037102
0.0144891
0.0118
0.009084
0.00744084
0.00696694
0.00673574
0.00745793
0.00870434
0.00994631
0.0112342
0.012309
0.0134719
0.00438122
0.0115943
0.0098511
0.00914614
0.0126501
0.0156172
0.00380831
0.00371131
0.0143764
0.0115552
0.00878493
0.0072273
0.00688159
0.00667679
0.00731559
0.00856682
0.0098342
0.011147
0.0122508
0.0134209
0.00434912
0.0115207
0.00986883
0.00915324
0.0126979
0.0156877
0.00381642
0.00371197
0.0142651
0.0113332
0.00854867
0.0071311
0.00696679
0.00666609
0.00730298
0.00850953
0.00977479
0.0110958
0.0122135
0.0133821
0.0043169
0.0114571
0.00988507
0.00916284
0.0127402
0.015746
0.00382343
0.00371233
0.0141585
0.0111491
0.00840136
0.00714754
0.00735216
0.00677386
0.00745793
0.00853355
0.00975673
0.0110631
0.0121866
0.0133612
0.00431945
0.0113838
0.00989958
0.00917509
0.012776
0.0157901
0.00382931
0.00371248
0.0140602
0.0110323
0.00833286
0.00717332
0.00743521
0.00752561
0.00768451
0.00860565
0.0097695
0.011046
0.0121669
0.0133564
0.00434418
0.0112977
0.00991261
0.00919017
0.0128051
0.0158182
0.00383458
0.00371313
0.0139969
0.0109504
0.00828412
0.00718707
0.00751982
0.0077668
0.00790246
0.00869482
0.00979531
0.0110348
0.0121489
0.0133557
0.00437412
0.0112005
0.00992479
0.00920058
0.0128245
0.0158369
0.00384031
0.00371469
0.0139555
0.0108915
0.00824253
0.0071531
0.00750357
0.00792824
0.00806417
0.00877167
0.00981877
0.0110221
0.0121278
0.0133501
0.0043969
0.011094
0.00993763
0.00920578
0.0128374
0.0158478
0.00384585
0.00371681
0.0139313
0.0108471
0.0081958
0.00709449
0.00737579
0.00793482
0.00815939
0.00882445
0.00983103
0.0110039
0.0121021
0.013334
0.00440481
0.0109804
0.00995133
0.00920612
0.0128442
0.0158506
0.00385214
0.00372037
0.0139228
0.0108173
0.00815607
0.00703727
0.00726028
0.00788253
0.00820142
0.00885258
0.00983032
0.0109796
0.0120722
0.0133065
0.00439564
0.010862
0.00996724
0.0092026
0.0128453
0.0158397
0.00385928
0.00372639
0.0139366
0.0108144
0.00814384
0.00700617
0.00723919
0.00786079
0.00821833
0.00886617
0.00982005
0.0109496
0.0120389
0.0132693
0.00437098
0.0107408
0.0099854
0.00919386
0.0128398
0.0158087
0.00386755
0.00373629
0.0139839
0.0108612
0.00818554
0.00702282
0.00725654
0.00789881
0.00823796
0.00887306
0.00980203
0.0109142
0.0120019
0.0132238
0.00433308
0.010618
0.0100067
0.00917866
0.0128246
0.00373166
0.00387708
0.00375102
0.0140783
0.01098
0.00830271
0.00708388
0.00724206
0.00793885
0.00825866
0.0088708
0.00977464
0.0108722
0.0119612
0.0131721
0.00428463
0.0104949
0.0100298
0.00915422
0.0127997
0.00374175
0.0038876
0.00377084
0.0142288
0.0111845
0.0085043
0.00717493
0.00720942
0.00789034
0.00825671
0.00884869
0.00973056
0.0108201
0.0119151
0.0131145
0.00422236
0.010375
0.0100547
0.00911832
0.0127562
0.00375406
0.00389955
0.00379555
0.0144334
0.0114688
0.00878109
0.00729271
0.00715271
0.0077517
0.0082173
0.0087995
0.00966684
0.0107559
0.011862
0.0130523
0.00415338
0.0102575
0.0100803
0.00907011
0.0126935
0.0159349
0.00391231
0.00382395
0.0146811
0.0118107
0.00910705
0.00743955
0.00708462
0.00755999
0.00812904
0.00871811
0.00958428
0.0106812
0.0118035
0.0129883
0.00408281
0.0101425
0.0101067
0.00901021
0.0126182
0.00375134
0.00392432
0.00385471
0.014957
0.012192
0.00947601
0.00763091
0.00703816
0.00735897
0.00799787
0.00860402
0.0094834
0.0105982
0.0117424
0.0129302
0.00401713
0.0100304
0.0101336
0.00894009
0.0125294
0.00375003
0.00393609
0.00388651
0.0152461
0.0125971
0.00988621
0.00789041
0.0070466
0.00719002
0.00785253
0.00847328
0.00936939
0.0105094
0.0116818
0.0128761
0.00396113
0.00992273
0.010162
0.00886185
0.0124272
0.00374797
0.00394702
0.00391825
0.0155328
0.0130114
0.010329
0.00823399
0.00715007
0.00709313
0.00771067
0.00834586
0.00925041
0.0104228
0.0116221
0.0128242
0.00391177
0.00982518
0.0101925
0.00877762
0.0123138
0.00374571
0.00395675
0.00394901
0.0158024
0.013423
0.0107892
0.00867002
0.00739129
0.00709094
0.00759185
0.008219
0.00913651
0.0103365
0.0115595
0.0127741
0.00386351
0.00974283
0.0102253
0.0086889
0.0121902
0.00374356
0.00396511
0.00397959
0.0037856
0.0138172
0.0112506
0.00918496
0.00781655
0.00715634
0.00736928
0.00808951
0.00902504
0.010245
0.011499
0.0127286
0.00381409
0.00967788
0.0102605
0.00859742
0.0120573
0.00374169
0.00397179
0.00400814
0.00383062
0.0142003
0.0116915
0.00971723
0.00841865
0.00739897
0.00743369
0.00793107
0.0088823
0.010148
0.011444
0.0126925
0.0037673
0.00963522
0.010298
0.00850435
0.0119167
0.00374058
0.00397664
0.00403418
0.00387221
0.0145575
0.012092
0.0101893
0.00904963
0.00781722
0.0076455
0.00781702
0.00872285
0.0100491
0.0113931
0.0126627
0.00374068
0.00960656
0.0103378
0.00841017
0.0117686
0.00374071
0.00397991
0.00405751
0.00390974
0.0148822
0.0124365
0.0105419
0.00946618
0.00832891
0.00780093
0.00774498
0.00860294
0.00999407
0.0113704
0.0126667
0.00374506
0.00958975
0.0103804
0.00831542
0.0116122
0.0157722
0.00398194
0.00407836
0.00394296
0.0151693
0.0127179
0.0107648
0.0095539
0.00863956
0.00780037
0.00732887
0.00853823
0.00997492
0.0113622
0.0127078
0.00378016
0.00958457
0.0104265
0.00822025
0.0114452
0.0155891
0.00398248
0.00409712
0.0039728
0.0154229
0.0129469
0.0108997
0.00961374
0.0087702
0.00795126
0.00731481
0.00856125
0.00999737
0.0113811
0.0128025
0.00384758
0.00959006
0.0104761
0.00812362
0.0112576
0.0154213
0.00398293
0.00411399
0.00400105
0.0156598
0.01316
0.0110174
0.00964884
0.00866031
0.00756917
0.0073725
0.00864688
0.010057
0.0114313
0.0129664
0.00394685
0.00960546
0.0105294
0.00802397
0.0110613
0.0152425
0.00398052
0.00412902
0.00402905
0.0158972
0.013396
0.0111876
0.0097635
0.00877316
0.0072987
0.00764192
0.00880099
0.0101548
0.0115174
0.0132125
0.00407432
0.00962995
0.0105865
0.00791985
0.0108512
0.0150432
0.00397556
0.00414276
0.00405816
0.00379656
0.0136626
0.011395
0.00990572
0.00887719
0.00770956
0.00802436
0.00901679
0.0102918
0.0116464
0.0135538
0.00422495
0.00966237
0.0106477
0.00781043
0.0106237
0.0148169
0.00396795
0.00415603
0.00409063
0.00383801
0.0139976
0.0116811
0.0101484
0.00915048
0.00822021
0.00843997
0.00927654
0.0104656
0.0118257
0.0140015
0.00439365
0.00970162
0.0107147
0.00769631
0.0103778
0.0145604
0.00395707
0.004168
0.00412504
0.00388423
0.0143884
0.0120342
0.0104553
0.00948212
0.00870439
0.00885626
0.00956427
0.0106737
0.0120618
0.0145636
0.00457537
0.00974657
0.0107896
0.00757915
0.0101141
0.0142723
0.00394328
0.00417921
0.00416272
0.00393782
0.0148423
0.0124553
0.0108101
0.00983604
0.00914854
0.00926111
0.00987121
0.0109172
0.0123639
0.0152509
0.00476539
0.00979574
0.0108758
0.00746112
0.00983302
0.0139498
0.00392584
0.00418806
0.00420207
0.0039983
0.0153629
0.0129536
0.0112171
0.0102054
0.00957004
0.00964832
0.0101936
0.0111966
0.0127182
0.00372905
0.00496323
0.00984779
0.0109776
0.00734448
0.00953502
0.0135897
0.00390448
0.00419381
0.00424191
0.00406445
0.00376905
0.0135381
0.0116888
0.0105944
0.00995969
0.0100207
0.0105321
0.0115157
0.0131389
0.00383203
0.00516369
0.0099017
0.0110983
0.00723094
0.00922006
0.0131868
0.00387788
0.00419536
0.00428145
0.00413572
0.00385538
0.0142236
0.0122435
0.0110287
0.0103478
0.0103935
0.0108943
0.0118842
0.0136407
0.00394791
0.00536523
0.00995638
0.0112401
0.00712188
0.00888812
0.0127356
0.00384409
0.00419054
0.00431911
0.00421063
0.00394882
0.0150074
0.0129013
0.0115413
0.0107776
0.0107892
0.0112943
0.0123169
0.0142427
0.00407701
0.00556732
0.0100108
0.0114043
0.00701816
0.00854006
0.0122321
0.00380153
0.00417698
0.00435301
0.00428892
0.00405105
0.0158922
0.0136812
0.0121635
0.0112844
0.0112321
0.011753
0.0128348
0.0149695
0.00421968
0.00576988
0.010064
0.0115912
0.00692063
0.00817832
0.0116741
0.00374854
0.00415269
0.00438108
0.00436953
0.00416451
0.00388133
0.014596
0.0129227
0.0119079
0.0117536
0.0122998
0.0134676
0.0158525
0.00437679
0.00597332
0.010115
0.0118022
0.00683173
0.00780781
0.0110616
0.0154095
0.00411569
0.00440086
0.00445033
0.00429085
0.00402097
0.0156636
0.0138314
0.0126823
0.012382
0.012954
0.0142059
0.00386913
0.00455059
0.00617839
0.0101625
0.0120396
0.00675555
0.00743668
0.01038
0.0146214
0.00406724
0.00440858
0.0045271
0.00442505
0.00417913
0.003897
0.0148825
0.0136264
0.0131575
0.013756
0.015112
0.00400118
0.00474045
0.00638591
0.0102054
0.0123066
0.00669725
0.00707901
0.00967779
0.0137417
0.00400033
0.00439942
0.00459407
0.00456308
0.00436019
0.00407831
0.00379247
0.0146882
0.0140953
0.014685
0.00378261
0.00415933
0.00494778
0.0065964
0.0102422
0.0126071
0.00666175
0.00674705
0.00896794
0.0127732
0.00391396
0.00436787
0.00464331
0.004696
0.00455627
0.00429816
0.00399202
0.00370356
0.0150851
0.0037012
0.00392694
0.00434657
0.00517437
0.00681089
0.0102711
0.012946
0.00665269
0.00645208
0.00827094
0.0117327
0.00380611
0.00430783
0.00466575
0.00481269
0.00475532
0.00454672
0.00424508
0.00390808
0.0036818
0.00385937
0.0041094
0.00456669
0.00542128
0.00703018
0.0102899
0.013329
0.00667208
0.00620379
0.00760955
0.0106457
0.0150235