/*--------------------------------*- C++ -*----------------------------------*\
  =========                 |
  \\      /  F ield         | OpenFOAM: The Open Source CFD Toolbox
   \\    /   O peration     | Website:  https://openfoam.org
    \\  /    A nd           | Version:  8
     \\/     M anipulation  |
\*---------------------------------------------------------------------------*/
FoamFile
{
    version     2.0;
    format      ascii;
    class       volScalarField;
    location    "600";
    object      p;
}
// * * * * * * * * * * * * * * * * * * * * * * * * * * * * * * * * * * * * * //

dimensions      [1 -1 -2 0 0 0 0];

internalField   nonuniform List<scalar> 
8400
(
12572.7
12506.8
12687.8
13568.8
15782.5
19399.2
24181.2
29650
35177.2
40099.3
43723.7
45435.3
44729.6
41185.7
34862.5
26403.8
16709.8
7571.74
2562.64
6607.87
23641.2
54226.7
94573
137694
177595
211464
238442
258434
271813
279575
283423
285200
286127
286817
287571
288547
289825
291381
293022
294711
296344
297714
299103
301055
303945
307410
310893
313882
316090
317503
12765.5
13632.8
13559.5
13934.8
15817.3
19359.4
24293.4
30082.8
35936.9
41039.2
44611
45988.2
44784.8
40786.3
33854.7
24356.1
12847.5
605.183
-8525.94
-7928.82
8352.52
41115.9
84517.5
129481
170560
205745
234203
255388
269679
278258
282795
285076
286356
287290
288198
289255
290555
292092
293697
295185
296526
297843
299456
301687
304613
307943
311215
314015
316112
317494
18009.3
18240.1
14616.7
12799.1
13688.6
17417.7
23117.5
29679.9
36193.6
41844.4
45856.5
47511.1
46334.3
42230.9
35112.8
25006.4
12129.1
-2628.11
-15029.9
-15763.1
3312.22
39324.8
83278.5
127567
167858
202516
230714
251624
265682
274478
279722
282828
284778
286182
287413
288695
290124
291704
293395
295063
296663
298327
300296
302745
305655
308780
311772
314329
316281
317614
5736.96
6835.04
8831.97
10301.6
12935.2
17224
22735.9
28800.8
34799.6
40159.9
44220.5
46132.7
44931.6
40062.8
31951.7
22115.2
10884.9
-2605.16
-14082.6
-12400.9
10082.3
48462.2
92115.9
133702
170349
201234
225638
243331
255485
263882
269998
274582
278006
280657
282968
285216
287495
289800
292099
294337
296529
298788
301252
303992
306939
309902
312642
314962
316752
318014
-24858.7
-8081.03
7768.66
16194.3
21427.8
25835.7
30119.8
34428
38674
42518.4
45366.1
46429.4
44891.9
40291.7
33089
24684.7
15835.2
8243.56
8476.49
22858.6
51110.1
85871
119742
149052
173339
193118
208844
221209
231429
240687
249303
256780
262900
268084
272865
277444
281789
285827
289534
292936
296120
299201
302274
305363
308404
311263
313806
315934
317589
318751
-2832.05
4792.47
19222.2
29019.5
34782.2
38825.3
42141.3
45043.5
47623.6
49796.8
51300.1
51747.4
50750.4
48187
44535.4
40816.5
38227.8
38610.1
45109.9
59225.1
78857.9
100254
120285
137519
151983
164340
175407
186039
196983
208511
219990
230484
239980
249012
257821
266193
273808
280496
286268
291258
295656
299642
303339
306790
309970
312823
315286
317289
318775
319734
3046.66
11293.7
24104.3
33663.2
39723.1
43982.4
47215
49605.1
51255.9
52273
52745.1
52717.4
52267.4
51618.2
51207.9
51565.9
53221.9
56724.7
62610.2
71466.7
82970.5
95649.5
108180
119833
130548
140753
151074
162048
173691
185641
197623
209544
221512
233562
245386
256492
266496
275228
282716
289120
294658
299535
303894
307796
311245
314214
316665
318550
319846
320604
8124.72
18257.3
30221.4
39164.5
45180.6
49535.9
52738.2
54874
56063.2
56509.9
56470.9
56205.2
55981
56113.7
56934
58713
61622.2
65696.6
70779.7
77006.8
84652
93313.8
102320
111229
119981
128918
138206
147829
158173
169524
181841
195066
208964
223049
236700
249389
260804
270834
279511
286970
293398
298988
303889
308181
311882
314970
317416
319211
320393
321071
11768.3
24138.3
35769.8
44186.8
50049.1
54352.9
57433.7
59364.2
60292.2
60470.7
60200.4
59792.9
59559
59812.3
60832.8
62808.3
65798.3
69708.8
74307.7
79284.6
84786.8
91019.3
97727.2
104745
111990
119303
126909
135374
145127
156442
169330
183541
198563
213728
228372
242002
254375
265424
275159
283635
290956
297267
302716
307412
311401
314676
317220
319064
320303
321077
15545.8
29455
40600.2
48396.7
53890.3
57884.3
60633.2
62255.7
62936
62924.6
62510.3
61990.8
61672.8
61849.3
62774.4
64608.6
67379.4
70972.1
75166.7
79713.7
84434.9
89431.8
94815.5
100449
106245
112379
119225
127233
136802
148182
161338
175920
191339
206910
221997
236130
249068
260741
271144
280285
288206
295005
300822
305796
310019
313514
316266
318307
319750
320742
17773.5
32995.1
43720.6
51112
56382
60135.5
62610.9
63988.1
64479.8
64331.8
63811.8
63200.4
62793
62870.6
63667
65322.8
67852.3
71142.3
74992.6
79182.4
83543.1
88015.3
92620.7
97403.4
102490
108157
114806
122810
132484
144032
157364
172103
187661
203375
218634
232983
246168
258086
268707
278040
286142
293107
299058
304129
308438
312052
314982
317254
318954
320203
20438.4
35309.8
45320
52429.6
57553.4
61110.7
63360.8
64532.9
64857.9
64578.3
63954.9
63268
62807.4
62846.5
63601.1
65188.2
67603
70727.9
74374.5
78346.2
82498.3
86762.5
91140
95709.9
100664
106326
113124
121407
131350
143056
156445
171146
186607
202222
217440
231833
245110
257092
267704
276982
285035
291981
297939
303022
307334
310956
313938
316332
318209
319652
20827
35423.8
45285.8
52405.4
57519.3
61027.2
63210.3
64302.9
64532.7
64145.8
63413.3
62632.1
62111.4
62137.7
62929.6
64597.7
67122.4
70370.4
74148.2
78263.2
82568.7
86983.4
91500
96209
101312
107112
114014
122456
132677
144615
158035
172540
187628
202793
217612
231741
244871
256742
267223
276379
284351
291253
297187
302248
306530
310127
313122
315581
317559
319122
19696.7
33143.3
43096.3
50450.5
55790.1
59527.4
61944.2
63264.1
63703.1
63494.3
62906.1
62243.5
61825.9
61952.2
62857.6
64674.6
67415.2
70985.7
75231.2
79975.9
85054.1
90351.3
95829.1
101522
107528
114054
121418
129978
139964
151378
164029
177572
191584
205662
219485
232782
245266
256653
266782
275702
283538
290385
296308
301373
305665
309287
312337
314875
316939
318593
17881
29681.9
39466.2
47148.3
53024.1
57361.9
60384.9
62283.8
63255.1
63522.7
63345.1
63017.9
62861
63178.1
64222.3
66170.4
69102.3
73001.5
77774.3
83269
89300.3
95685.4
102279
109003
115869
123027
130747
139337
149013
159817
171606
184093
196927
209771
222358
234481
245948
256573
266224
274879
282582
289382
295317
300434
304803
308516
311652
314261
316384
318097
16911.5
27464.8
36804.7
44510
50665.1
55409.3
58901.4
61306.1
62804.2
63594.3
63914.1
64024.7
64203.9
64728.8
65843.3
67742.2
70560.4
74361.2
79134.9
84800.2
91210.2
98176.3
105507
113054
120760
128697
137044
146022
155789
166376
177667
189433
201396
213285
224890
236059
246680
256644
265855
274248
281807
288540
294470
299631
304078
307877
311089
313757
315932
317693
16524.4
26093.7
34866.8
42331.1
48483.3
53386
57150.2
59911.5
61829
63080.5
63872
64427
64981.5
65774.1
67024.5
68923.3
71624.2
75229.3
79777.9
85243.9
91533.8
98504.2
105996
113874
122061
130571
139491
148935
158978
169610
180726
192148
203665
215073
226206
236933
247150
256761
265690
273884
281317
287986
293901
299089
303589
307447
310710
313423
315641
317439
16574.5
25270.4
33499.5
40663.1
46711.5
51660.2
55585.8
58595
60833.2
62461.5
63662.8
64639.4
65598.4
66748.1
68284.9
70381
73178.4
76775.6
81215.9
86487.4
92527.7
99239
106517
114273
122461
131085
140189
149820
159995
170669
181738
193050
204429
215698
226699
237294
247365
256822
265606
273682
281037
287667
293578
298789
303326
307227
310528
313275
315523
317338
16747.3
24763.5
32556.7
39469.7
45413.4
50365.2
54378.9
57544.9
59990.3
61870.8
63359.5
64645.8
65924.5
67389.2
69222.7
71583.3
74595.8
78343
82854.6
88108
94043.2
100583
107653
115203
123222
131733
140776
150382
160542
171197
182235
193506
204837
216052
226990
237507
247489
256855
265555
273566
280877
287486
293401
298632
303201
307137
310472
313247
315509
317314
16961.5
24658.7
32219.4
38990.1
44861.9
49798.9
53838.8
57064.2
59596.9
61588.4
63208.9
64644.5
66086
67722
69731
72266.4
75445.6
79341.1
83971.2
89304
95275.6
101809
108836
116321
124268
132711
141696
151249
161357
171956
182932
194132
205385
216518
227370
237802
247705
257002
265647
273615
280897
287492
293404
298643
303223
307170
310513
313285
315520
317271
300002
300002
300002
300002
300002
300002
300002
300002
300002
300002
300002
300003
300003
300003
300003
300003
300003
300003
300003
300003
300003
300003
300003
300003
300003
300002
300002
300002
300002
300001
300001
300001
300001
300001
300000
300000
300000
299999
299999
299998
299998
299997
299997
299996
299996
299995
299995
299995
299994
299994
299904
299904
299904
299904
299904
299904
299904
299905
299905
299905
299905
299905
299905
299905
299905
299906
299906
299906
299906
299906
299906
299905
299905
299905
299905
299905
299904
299904
299904
299904
299904
299903
299903
299903
299903
299902
299902
299902
299901
299901
299900
299900
299899
299899
299898
299898
299897
299897
299897
299896
299807
299807
299807
299807
299807
299807
299807
299807
299807
299807
299807
299807
299808
299808
299808
299808
299808
299808
299808
299808
299808
299808
299808
299808
299807
299807
299807
299807
299806
299806
299806
299806
299806
299805
299805
299805
299804
299804
299803
299803
299803
299802
299802
299801
299801
299800
299800
299799
299799
299799
299709
299709
299709
299709
299709
299709
299709
299709
299709
299710
299710
299710
299710
299710
299710
299710
299711
299711
299711
299711
299710
299710
299710
299710
299710
299710
299709
299709
299709
299709
299708
299708
299708
299708
299707
299707
299707
299706
299706
299705
299705
299704
299704
299703
299703
299703
299702
299702
299701
299701
299612
299612
299612
299612
299612
299612
299612
299612
299612
299612
299612
299612
299613
299613
299613
299613
299613
299613
299613
299613
299613
299613
299613
299612
299612
299612
299612
299611
299611
299611
299611
299611
299610
299610
299610
299609
299609
299609
299608
299608
299607
299607
299606
299606
299606
299605
299605
299604
299604
299604
299514
299514
299514
299514
299514
299514
299514
299514
299514
299515
299515
299515
299515
299515
299515
299515
299515
299515
299515
299515
299515
299515
299515
299515
299514
299514
299514
299514
299514
299513
299513
299513
299513
299513
299512
299512
299511
299511
299511
299510
299510
299509
299509
299508
299508
299508
299507
299507
299506
299506
299417
299417
299417
299417
299417
299417
299417
299417
299417
299417
299417
299417
299417
299418
299418
299418
299418
299418
299418
299418
299418
299418
299417
299417
299417
299417
299416
299416
299416
299416
299416
299415
299415
299415
299415
299414
299414
299413
299413
299413
299412
299412
299411
299411
299410
299410
299410
299409
299409
299408
299319
299319
299319
299319
299319
299319
299319
299319
299319
299320
299320
299320
299320
299320
299320
299320
299320
299320
299320
299320
299320
299320
299320
299319
299319
299319
299319
299319
299318
299318
299318
299318
299318
299317
299317
299317
299316
299316
299315
299315
299315
299314
299314
299313
299313
299313
299312
299312
299311
299311
299221
299222
299222
299222
299222
299222
299222
299222
299222
299222
299222
299222
299222
299223
299223
299223
299223
299223
299223
299223
299222
299222
299222
299222
299222
299221
299221
299221
299221
299221
299220
299220
299220
299220
299219
299219
299219
299218
299218
299217
299217
299217
299216
299216
299215
299215
299215
299214
299214
299213
299124
299124
299124
299124
299124
299124
299124
299124
299124
299125
299125
299125
299125
299125
299125
299125
299125
299125
299125
299125
299125
299125
299124
299124
299124
299124
299124
299123
299123
299123
299123
299123
299122
299122
299122
299121
299121
299121
299120
299120
299119
299119
299119
299118
299118
299118
299117
299117
299116
299116
299026
299026
299026
299026
299027
299027
299027
299027
299027
299027
299027
299027
299027
299028
299028
299028
299028
299028
299028
299027
299027
299027
299027
299027
299026
299026
299026
299026
299026
299025
299025
299025
299025
299024
299024
299024
299023
299023
299022
299022
299022
299021
299021
299021
299020
299020
299020
299019
299019
299018
298929
298929
298929
298929
298929
298929
298929
298929
298929
298930
298930
298930
298930
298930
298930
298930
298930
298930
298930
298930
298930
298929
298929
298929
298929
298929
298928
298928
298928
298928
298927
298927
298927
298927
298926
298926
298926
298925
298925
298924
298924
298924
298924
298923
298923
298923
298922
298922
298921
298921
298831
298831
298831
298831
298831
298832
298832
298832
298832
298832
298832
298832
298832
298833
298833
298833
298833
298833
298832
298832
298832
298832
298832
298831
298831
298831
298831
298830
298830
298830
298830
298830
298829
298829
298829
298828
298828
298828
298827
298827
298827
298826
298826
298826
298825
298825
298825
298824
298824
298823
298734
298734
298734
298734
298734
298734
298734
298734
298734
298735
298735
298735
298735
298735
298735
298735
298735
298735
298735
298735
298735
298734
298734
298734
298734
298733
298733
298733
298733
298732
298732
298732
298732
298731
298731
298731
298730
298730
298730
298729
298729
298729
298728
298728
298728
298728
298727
298727
298726
298726
298636
298636
298636
298636
298636
298637
298637
298637
298637
298637
298637
298637
298637
298637
298638
298638
298637
298637
298637
298637
298637
298637
298636
298636
298636
298636
298635
298635
298635
298635
298635
298634
298634
298634
298633
298633
298633
298632
298632
298632
298631
298631
298631
298631
298630
298630
298630
298629
298629
298628
298539
298539
298539
298539
298539
298539
298539
298539
298539
298540
298540
298540
298540
298540
298540
298540
298540
298540
298540
298540
298539
298539
298539
298539
298538
298538
298538
298538
298537
298537
298537
298537
298536
298536
298536
298535
298535
298535
298534
298534
298534
298534
298533
298533
298533
298533
298532
298532
298531
298531
298441
298441
298441
298441
298441
298441
298442
298442
298442
298442
298442
298442
298442
298442
298442
298442
298442
298442
298442
298442
298442
298441
298441
298441
298441
298441
298440
298440
298440
298440
298439
298439
298439
298438
298438
298438
298437
298437
298437
298436
298436
298436
298436
298436
298435
298435
298435
298434
298434
298433
298344
298344
298344
298344
298344
298344
298344
298344
298344
298344
298345
298345
298345
298345
298345
298345
298345
298345
298345
298344
298344
298344
298344
298343
298343
298343
298343
298342
298342
298342
298342
298341
298341
298341
298340
298340
298340
298339
298339
298339
298339
298338
298338
298338
298338
298337
298337
298337
298336
298336
298246
298246
298246
298246
298246
298246
298246
298247
298247
298247
298247
298247
298247
298247
298247
298247
298247
298247
298247
298247
298247
298246
298246
298246
298246
298245
298245
298245
298245
298244
298244
298244
298243
298243
298243
298242
298242
298242
298241
298241
298241
298241
298241
298240
298240
298240
298240
298239
298239
298238
298149
298149
298149
298149
298149
298149
298149
298149
298149
298149
298149
298150
298150
298150
298150
298150
298150
298149
298149
298149
298149
298149
298148
298148
298148
298148
298147
298147
298147
298147
298146
298146
298146
298145
298145
298145
298144
298144
298144
298144
298143
298143
298143
298143
298143
298142
298142
298141
298141
298140
309770
309774
309774
309777
309777
309777
309776
309775
309773
309771
309770
309769
309767
309766
309765
309764
309763
309763
309763
309764
309671
309673
309673
309674
309674
309673
309672
309669
309666
309664
309662
309661
309657
309654
309652
309651
309649
309648
309647
309648
309571
309573
309572
309572
309571
309569
309567
309564
309560
309558
309555
309553
309547
309544
309541
309539
309537
309535
309533
309533
309473
309473
309471
309471
309468
309466
309463
309459
309455
309451
309448
309444
309439
309435
309432
309430
309426
309424
309421
309420
309374
309374
309371
309369
309366
309363
309359
309354
309349
309345
309341
309336
309331
309327
309323
309319
309315
309312
309308
309306
309276
309275
309271
309269
309264
309260
309255
309250
309245
309239
309234
309228
309223
309218
309214
309209
309204
309200
309195
309192
309179
309177
309172
309168
309163
309158
309153
309147
309140
309134
309127
309122
309116
309110
309104
309099
309093
309088
309081
309078
309081
309078
309072
309068
309062
309057
309051
309044
309037
309029
309022
309015
309008
309002
308995
308989
308981
308975
308968
308964
308984
308980
308973
308968
308962
308956
308949
308941
308933
308925
308917
308909
308901
308894
308886
308879
308870
308863
308855
308849
308887
308882
308874
308868
308861
308855
308847
308839
308831
308821
308812
308803
308794
308786
308777
308768
308759
308751
308741
308735
308790
308784
308775
308769
308761
308754
308746
308737
308728
308718
308708
308698
308687
308678
308668
308658
308648
308638
308628
308620
308693
308686
308677
308669
308661
308653
308644
308635
308625
308614
308603
308592
308580
308570
308559
308548
308536
308526
308515
308506
308596
308588
308578
308570
308561
308552
308543
308532
308521
308509
308497
308485
308473
308461
308449
308437
308425
308413
308401
308391
308499
308490
308479
308471
308461
308451
308441
308430
308418
308405
308392
308379
308366
308353
308340
308327
308313
308301
308287
308277
308403
308393
308381
308371
308360
308350
308339
308327
308314
308300
308286
308272
308258
308244
308230
308216
308201
308188
308174
308162
308306
308296
308283
308272
308260
308249
308237
308223
308209
308195
308180
308165
308150
308136
308120
308105
308090
308075
308060
308047
308210
308198
308185
308173
308160
308148
308134
308120
308105
308090
308075
308059
308043
308027
308011
307995
307978
307962
307946
307932
308114
308101
308087
308074
308060
308047
308032
308017
308001
307985
307969
307952
307935
307918
307901
307884
307866
307849
307832
307817
308018
308004
307989
307975
307960
307945
307930
307913
307897
307879
307862
307845
307827
307809
307791
307773
307754
307736
307718
307702
307922
307908
307891
307876
307860
307844
307828
307810
307792
307774
307756
307738
307720
307701
307681
307662
307641
307623
307603
307587
307827
307811
307793
307777
307760
307743
307725
307707
307688
307668
307649
307630
307611
307592
307571
307550
307529
307509
307489
307472
307731
307714
307696
307679
307660
307642
307623
307604
307584
307563
307543
307522
307503
307482
307461
307439
307417
307396
307375
307357
307636
307618
307598
307580
307561
307542
307522
307501
307480
307458
307436
307415
307394
307372
307350
307327
307304
307283
307261
307242
307540
307521
307501
307481
307461
307441
307420
307398
307376
307353
307330
307307
307285
307262
307239
307215
307192
307170
307147
307127
307445
307425
307404
307383
307362
307341
307319
307296
307272
307249
307225
307201
307177
307152
307128
307104
307080
307057
307034
307013
307350
307329
307307
307285
307263
307241
307218
307194
307169
307145
307119
307095
307069
307043
307018
306993
306969
306946
306921
306900
307256
307234
307210
307188
307165
307141
307117
307092
307067
307041
307015
306989
306961
306935
306909
306884
306858
306835
306810
306787
307162
307139
307114
307091
307067
307042
307017
306992
306965
306938
306911
306883
306856
306828
306801
306775
306749
306724
306698
306675
307068
307044
307019
306994
306969
306944
306918
306891
306864
306836
306808
306779
306751
306723
306695
306668
306641
306615
306588
306564
306975
306950
306924
306898
306872
306846
306819
306791
306763
306734
306705
306676
306647
306618
306589
306561
306533
306507
306479
306453
306883
306857
306829
306803
306776
306749
306721
306692
306663
306633
306603
306573
306543
306514
306484
306455
306426
306399
306370
306344
306791
306764
306736
306708
306680
306652
306623
306594
306564
306533
306502
306471
306440
306410
306380
306350
306320
306292
306262
306235
306699
306671
306642
306614
306585
306555
306526
306496
306465
306433
306402
306370
306338
306307
306276
306245
306215
306185
306154
306126
306608
306579
306549
306519
306489
306459
306429
306398
306366
306334
306302
306269
306237
306204
306173
306141
306109
306079
306047
306018
306518
306487
306456
306426
306395
306364
306333
306301
306268
306236
306202
306169
306136
306102
306070
306037
306005
305973
305940
305910
306427
306396
306364
306332
306301
306269
306237
306204
306171
306137
306103
306069
306035
306001
305967
305934
305900
305868
305834
305803
306338
306305
306272
306240
306207
306174
306141
306108
306074
306039
306004
305969
305934
305900
305865
305831
305796
305763
305728
305696
306248
306215
306181
306147
306114
306080
306046
306012
305977
305942
305906
305870
305834
305799
305763
305728
305693
305659
305623
305590
306159
306125
306090
306056
306021
305986
305951
305916
305880
305844
305808
305771
305735
305698
305662
305626
305590
305555
305518
305484
306071
306035
306000
305964
305928
305893
305857
305821
305784
305748
305710
305673
305635
305598
305561
305524
305487
305451
305414
305379
305983
305946
305909
305873
305836
305800
305763
305726
305689
305651
305613
305575
305537
305498
305461
305423
305385
305348
305310
305274
305895
305857
305820
305782
305744
305707
305669
305632
305594
305555
305516
305477
305438
305399
305361
305322
305284
305246
305207
305169
305807
305769
305730
305691
305653
305615
305576
305538
305499
305459
305420
305380
305340
305301
305261
305222
305182
305143
305104
305065
305720
305680
305641
305601
305562
305523
305483
305444
305404
305364
305324
305283
305243
305202
305162
305122
305082
305042
305001
304962
305633
305592
305552
305511
305471
305431
305391
305351
305310
305270
305229
305187
305146
305104
305063
305022
304981
304941
304899
304859
305546
305504
305463
305421
305380
305339
305299
305258
305217
305175
305133
305091
305049
305007
304965
304923
304882
304840
304798
304756
305459
305417
305374
305332
305290
305248
305207
305165
305123
305081
305039
304996
304953
304910
304868
304825
304782
304740
304697
304654
305372
305329
305286
305243
305200
305157
305115
305072
305030
304987
304944
304901
304857
304814
304770
304727
304683
304640
304596
304553
305286
305242
305198
305154
305111
305067
305023
304980
304937
304894
304850
304806
304762
304718
304673
304629
304585
304541
304496
304451
305201
305156
305111
305066
305021
304977
304932
304888
304844
304801
304757
304712
304667
304622
304577
304532
304487
304441
304396
304350
305115
305069
305024
304978
304933
304887
304842
304797
304752
304707
304663
304618
304572
304527
304481
304435
304389
304343
304296
304249
305031
304984
304937
304891
304844
304798
304752
304706
304660
304614
304569
304523
304477
304431
304384
304338
304291
304244
304196
304149
304946
304899
304851
304804
304756
304709
304662
304615
304568
304521
304475
304429
304382
304335
304288
304241
304193
304145
304097
304048
304862
304814
304765
304717
304669
304621
304573
304525
304477
304429
304382
304334
304287
304239
304192
304144
304095
304046
303997
303948
304779
304729
304680
304631
304582
304533
304484
304435
304386
304337
304289
304240
304192
304144
304095
304046
303997
303947
303897
303848
304696
304646
304595
304545
304495
304445
304396
304346
304296
304246
304197
304147
304098
304049
303999
303949
303899
303848
303798
303747
304613
304562
304511
304460
304409
304359
304308
304257
304206
304156
304105
304055
304005
303954
303904
303853
303802
303751
303699
303647
304531
304479
304427
304376
304324
304272
304221
304169
304117
304066
304015
303963
303912
303861
303810
303758
303706
303654
303602
303548
304450
304397
304344
304292
304239
304187
304134
304082
304029
303977
303925
303872
303820
303768
303716
303664
303611
303558
303505
303451
304369
304315
304262
304208
304155
304101
304048
303995
303942
303888
303835
303782
303729
303676
303623
303570
303516
303462
303408
303354
304289
304234
304180
304125
304071
304017
303963
303909
303855
303801
303747
303693
303639
303585
303531
303476
303422
303367
303313
303258
304209
304153
304098
304043
303988
303933
303878
303823
303768
303713
303659
303604
303549
303494
303439
303384
303329
303273
303218
303163
304129
304073
304017
303961
303905
303850
303794
303738
303683
303627
303571
303515
303460
303404
303348
303292
303236
303180
303124
303068
304050
303994
303937
303880
303823
303767
303710
303654
303597
303541
303484
303428
303371
303315
303258
303201
303144
303087
303030
302973
303972
303915
303857
303799
303742
303685
303627
303570
303513
303455
303398
303341
303283
303226
303168
303111
303053
302996
302938
302880
303895
303836
303778
303719
303661
303603
303545
303487
303429
303371
303312
303254
303196
303138
303080
303021
302963
302904
302846
302787
303817
303758
303699
303640
303581
303522
303463
303404
303345
303286
303227
303168
303109
303050
302991
302932
302873
302814
302754
302695
303741
303681
303621
303561
303501
303441
303382
303322
303262
303203
303143
303083
303023
302964
302904
302844
302784
302724
302664
302604
303665
303604
303543
303483
303422
303361
303301
303240
303180
303120
303059
302999
302938
302877
302817
302756
302695
302635
302574
302513
303589
303528
303466
303405
303343
303282
303221
303160
303098
303037
302976
302915
302853
302792
302731
302669
302607
302546
302484
302423
303514
303452
303390
303328
303265
303203
303141
303079
303017
302955
302893
302831
302769
302707
302645
302583
302520
302458
302396
302333
303440
303377
303314
303251
303188
303125
303062
303000
302937
302874
302811
302748
302686
302623
302560
302497
302434
302371
302307
302244
303366
303302
303239
303175
303111
303048
302984
302921
302857
302793
302730
302666
302603
302539
302475
302412
302348
302284
302220
302156
303293
303228
303164
303100
303035
302971
302906
302842
302778
302714
302649
302585
302520
302456
302392
302327
302263
302198
302133
302069
303220
303155
303090
303025
302960
302895
302829
302764
302699
302634
302569
302504
302439
302374
302308
302243
302178
302113
302047
301982
303148
303082
303016
302951
302885
302819
302753
302687
302621
302556
302490
302424
302358
302292
302226
302160
302094
302028
301962
301896
303077
303010
302944
302877
302810
302744
302677
302611
302544
302478
302411
302344
302278
302211
302145
302078
302011
301945
301878
301811
303006
302939
302871
302804
302737
302670
302602
302535
302468
302400
302333
302266
302199
302131
302064
301997
301929
301862
301794
301727
302936
302868
302800
302732
302664
302596
302528
302460
302392
302324
302256
302188
302120
302052
301984
301916
301848
301780
301712
301643
302866
302798
302729
302660
302592
302523
302454
302386
302317
302248
302180
302111
302042
301974
301905
301836
301767
301699
301630
301561
302798
302728
302659
302589
302520
302451
302382
302312
302243
302174
302104
302035
301966
301896
301827
301757
301688
301618
301549
301479
302730
302660
302589
302519
302449
302380
302310
302240
302170
302100
302030
301960
301889
301819
301749
301679
301609
301539
301469
301398
302662
302592
302521
302450
302380
302309
302238
302168
302097
302026
301956
301885
301814
301743
301673
301602
301531
301460
301389
301318
302596
302525
302453
302382
302310
302239
302168
302097
302025
301954
301883
301811
301740
301668
301597
301525
301454
301382
301311
301239
302530
302458
302386
302314
302242
302170
302098
302026
301954
301882
301810
301738
301666
301594
301522
301450
301378
301306
301233
301161
302465
302393
302320
302247
302175
302102
302029
301957
301884
301811
301739
301666
301593
301520
301448
301375
301302
301230
301157
301084
302401
302328
302254
302181
302108
302034
301961
301888
301814
301741
301668
301594
301521
301448
301375
301301
301228
301154
301081
301008
302338
302264
302190
302116
302042
301968
301894
301820
301746
301672
301598
301524
301450
301376
301302
301228
301154
301080
301006
300932
302275
302200
302126
302051
301976
301902
301827
301752
301678
301603
301529
301454
301380
301305
301231
301156
301081
301007
300932
300857
302213
302138
302062
301987
301912
301836
301761
301686
301611
301536
301460
301385
301310
301235
301160
301085
301010
300934
300859
300784
302152
302076
302000
301924
301848
301772
301696
301620
301545
301469
301393
301317
301242
301166
301090
301014
300939
300863
300787
300711
302091
302015
301938
301862
301785
301709
301632
301556
301479
301403
301327
301250
301174
301098
301021
300945
300868
300792
300715
300639
302032
301954
301877
301800
301723
301646
301569
301492
301415
301338
301261
301184
301107
301030
300953
300876
300799
300722
300645
300568
301973
301895
301817
301740
301662
301584
301507
301429
301351
301274
301196
301119
301041
300964
300886
300808
300731
300653
300575
300498
301915
301836
301758
301680
301602
301523
301445
301367
301289
301211
301132
301054
300976
300898
300820
300742
300663
300585
300507
300429
301858
301779
301700
301621
301542
301463
301385
301306
301227
301148
301070
300991
300912
300833
300755
300676
300597
300518
300439
300360
301801
301722
301642
301563
301484
301404
301325
301246
301166
301087
301008
300928
300849
300770
300690
300611
300532
300452
300373
300293
301746
301666
301586
301506
301426
301346
301266
301186
301106
301027
300947
300867
300787
300707
300627
300547
300467
300387
300307
300227
301691
301611
301530
301450
301369
301289
301208
301128
301047
300967
300887
300806
300726
300645
300565
300484
300404
300323
300243
300162
301637
301556
301475
301394
301313
301232
301151
301070
300989
300908
300827
300747
300666
300585
300504
300422
300341
300260
300179
300098
301585
301503
301421
301340
301258
301177
301095
301014
300932
300851
300769
300688
300606
300525
300443
300361
300280
300198
300116
300035
301533
301450
301368
301286
301204
301122
301040
300958
300876
300794
300712
300630
300548
300466
300383
300301
300219
300137
300055
299972
301481
301399
301316
301234
301151
301068
300986
300903
300821
300738
300655
300573
300490
300407
300325
300242
300159
300077
299994
299911
301431
301348
301265
301182
301099
301015
300932
300849
300766
300683
300600
300516
300433
300350
300267
300184
300100
300017
299934
299851
301382
301298
301214
301131
301047
300963
300880
300796
300712
300629
300545
300461
300377
300294
300210
300126
300043
299959
299875
299791
301333
301249
301165
301081
300996
300912
300828
300744
300660
300575
300491
300407
300323
300238
300154
300070
299986
299902
299817
299733
301285
301201
301116
301031
300947
300862
300777
300692
300608
300523
300438
300354
300269
300184
300099