/*--------------------------------*- C++ -*----------------------------------*\
  =========                 |
  \\      /  F ield         | OpenFOAM: The Open Source CFD Toolbox
   \\    /   O peration     | Website:  https://openfoam.org
    \\  /    A nd           | Version:  8
     \\/     M anipulation  |
\*---------------------------------------------------------------------------*/
FoamFile
{
    version     2.0;
    format      ascii;
    class       surfaceScalarField;
    location    "600";
    object      phi;
}
// * * * * * * * * * * * * * * * * * * * * * * * * * * * * * * * * * * * * * //

dimensions      [1 0 -1 0 0 0 0];

internalField   nonuniform List<scalar> 
16360
(
-2.15245
-0.0105551
-2.14976
-0.00269471
-2.15607
0.00631327
-2.16681
0.0107321
-2.17705
0.0102439
-2.18329
0.00625139
-2.18342
0.000138093
-2.17651
-0.00689576
-2.16297
-0.0135649
-2.14412
-0.0188269
-2.12262
-0.0214967
-2.10282
-0.0198198
-2.09065
-0.0121485
-2.09318
0.00252666
-2.11502
0.0218551
-2.15531
0.040284
-2.20959
0.054271
-2.27094
0.0613462
-2.3278
0.0568472
-2.36145
0.0336409
-2.35035
-0.0110979
-2.28029
-0.0700557
-2.15469
-0.125604
-1.99089
-0.163811
-1.80573
-0.185163
-1.61145
-0.194267
-1.41782
-0.193618
-1.23408
-0.183761
-1.06764
-0.166442
-0.921752
-0.145879
-0.794417
-0.127336
-0.680762
-0.113655
-0.577776
-0.102981
-0.484763
-0.0930116
-0.401991
-0.0827705
-0.329736
-0.0722465
-0.267078
-0.0626411
-0.210593
-0.0564724
-0.168367
-0.0422106
-0.14914
-0.0191759
-0.147954
-0.0010909
-0.142825
-0.00499926
-0.124636
-0.018266
-0.0964449
-0.0283591
-0.0651169
-0.0313683
-0.0345229
-0.0305835
-0.0066681
-0.0278514
0.0174371
-0.0241105
0.0373992
-0.0199731
-0.0156163
0.0530048
-1.94253
-0.0204204
-1.93391
-0.0113131
-1.93178
0.00418595
-1.92878
0.00772628
-1.92038
0.0018266
-1.90314
-0.0109923
-1.87673
-0.0262846
-1.84327
-0.0403409
-1.80493
-0.0519154
-1.76362
-0.0601554
-1.72185
-0.0632658
-1.68326
-0.0584093
-1.65258
-0.0428397
-1.63417
-0.0158961
-1.62794
0.0156309
-1.63154
0.04389
-1.64192
0.0646624
-1.65314
0.072571
-1.65424
0.0579469
-1.62148
0.000891812
-1.52722
-0.105356
-1.38472
-0.212572
-1.22745
-0.282865
-1.06986
-0.321399
-0.917993
-0.337043
-0.773131
-0.339141
-0.6346
-0.332139
-0.507356
-0.310983
-0.398159
-0.275638
-0.309308
-0.234739
-0.238387
-0.198252
-0.180332
-0.171712
-0.131226
-0.152096
-0.0890113
-0.135245
-0.0528954
-0.118905
-0.0230149
-0.10214
-0.00153906
-0.0841274
0.00710637
-0.0651535
0.00918214
-0.0443826
0.0176394
-0.027757
0.0363804
-0.0199703
0.0524487
-0.0210755
0.0611356
-0.0268026
0.0654364
-0.0325962
0.0699478
-0.0358622
0.0757486
-0.0363583
0.0824111
-0.0344613
0.0890453
-0.0307231
0.0947856
-0.0257224
-0.0198739
0.0990394
-1.08098
-0.0667033
-1.06723
-0.0250376
-1.04125
-0.0218063
-1.00401
-0.0295074
-0.960184
-0.041992
-0.916395
-0.0547613
-0.877041
-0.0656507
-0.843113
-0.0742693
-0.814423
-0.0805966
-0.789475
-0.0850748
-0.765244
-0.087516
-0.737747
-0.0858921
-0.705075
-0.0755099
-0.669566
-0.0514266
-0.633485
-0.0204189
-0.588836
-0.000774314
-0.528325
0.00413885
-0.456114
0.000368833
-0.375805
-0.0223586
-0.275904
-0.0990187
-0.165912
-0.215314
-0.0586357
-0.319822
0.050871
-0.392379
0.157662
-0.4282
0.254349
-0.43374
0.32886
-0.413683
0.373375
-0.376641
0.394074
-0.331665
0.399008
-0.280585
0.392031
-0.227772
0.374958
-0.181174
0.350494
-0.147239
0.321934
-0.123518
0.291826
-0.105113
0.262275
-0.0893475
0.235168
-0.0750451
0.212398
-0.0613495
0.195509
-0.0482012
0.187105
-0.0359062
0.185913
-0.0265274
0.187786
-0.0218735
0.188495
-0.021827
0.186181
-0.024494
0.181306
-0.0277175
0.175421
-0.0299795
0.169504
-0.030452
0.163891
-0.0288618
0.158577
-0.025435
0.153374
-0.0205255
-0.0147357
0.148257
1.66026
-0.0308711
1.62703
0.00818312
1.59502
0.0101962
1.5584
0.00712074
1.51407
0.00231807
1.46195
-0.00264719
1.40292
-0.00661356
1.33769
-0.00905196
1.26692
-0.0098429
1.19105
-0.00921029
1.11113
-0.0075937
1.03058
-0.00534668
0.957912
-0.00284345
0.906693
-0.000238375
0.885024
0.00125041
0.884839
-0.000576126
0.898064
-0.00906586
0.94588
-0.0474695
1.04963
-0.126121
1.16812
-0.217512
1.24712
-0.294334
1.28036
-0.353055
1.27837
-0.390398
1.2547
-0.404535
1.21744
-0.39645
1.17288
-0.369109
1.12347
-0.327258
1.06791
-0.276103
1.00728
-0.219949
0.943747
-0.164236
0.878439
-0.115872
0.810715
-0.0795196
0.741171
-0.0539791
0.672225
-0.0361666
0.606685
-0.0238037
0.546814
-0.0151824
0.494255
-0.00881183
0.449851
-0.00380902
0.413939
1.85014e-05
0.385336
0.00210444
0.361577
0.00190972
0.340138
-0.000385047
0.319529
-0.00388516
0.299327
-0.00751841
0.279733
-0.0103713
0.261038
-0.0117505
0.243351
-0.011185
0.227078
-0.00915129
0.212682
-0.00610206
-0.00143921
0.19939
4.1328
0.055456
4.09229
0.0486941
4.04976
0.0527217
4.00699
0.0499031
3.96225
0.0470663
3.91292
0.0466791
3.85673
0.0495885
3.79164
0.0560307
3.71615
0.0656566
3.62947
0.0774704
3.53176
0.090119
3.42427
0.102159
3.30935
0.112084
3.19086
0.118261
3.07404
0.118068
2.96675
0.106695
2.88018
0.0775182
2.80774
0.0249899
2.72861
-0.046989
2.63575
-0.124666
2.53695
-0.19552
2.43519
-0.251292
2.33157
-0.286773
2.22678
-0.299753
2.12134
-0.291003
2.01546
-0.263228
1.90885
-0.220646
1.80094
-0.168178
1.69186
-0.110867
1.58188
-0.0542594
1.47031
-0.00430331
1.35604
0.0347446
1.24048
0.0615723
1.12705
0.0772668
1.01921
0.0840439
0.91942
0.084611
0.829118
0.0814811
0.74886
0.0764409
0.67849
0.0703752
0.617049
0.063523
0.562963
0.0559797
0.514543
0.0480235
0.470481
0.0401734
0.429951
0.0330129
0.392586
0.0270063
0.358618
0.0222276
0.328309
0.0191342
0.301204
0.0179662
0.276251
0.0188528
0.0219213
0.252894
2.90916
0.0926412
2.88991
0.0679343
2.88659
0.0560414
2.8901
0.0463991
2.89903
0.0381213
2.91247
0.0332333
2.92905
0.0330157
2.94696
0.0381235
2.96407
0.0485388
2.97815
0.0633865
2.98732
0.0809531
2.99047
0.0990024
2.98764
0.114927
2.97996
0.125945
2.96939
0.128629
2.95768
0.11841
2.94403
0.0911577
2.92295
0.0460682
2.8866
-0.010612
2.83243
-0.0704982
2.76303
-0.126123
2.68163
-0.169895
2.59142
-0.196561
2.49551
-0.203848
2.39674
-0.192233
2.29729
-0.163777
2.19842
-0.121781
2.10055
-0.0703177
2.00283
-0.0131521
1.90353
0.0450436
1.80224
0.0969918
1.69871
0.138273
1.59287
0.167418
1.48504
0.185095
1.37602
0.193067
1.26713
0.193496
1.16023
0.188367
1.05743
0.179242
0.960478
0.167325
0.870479
0.153523
0.787831
0.138638
0.712407
0.123453
0.643819
0.10876
0.581563
0.0952668
0.525055
0.083518
0.473412
0.0738881
0.425891
0.0666723
0.382006
0.0618544
0.341601
0.0592503
0.0586551
0.304868
2.37769
0.130249
2.34543
0.100193
2.32263
0.0788236
2.30713
0.0619032
2.29818
0.0470829
2.29631
0.0350999
2.30208
0.02723
2.3157
0.0244984
2.33676
0.027495
2.36397
0.0361662
2.39537
0.0495441
2.42867
0.0656994
2.46163
0.081978
2.49237
0.0952046
2.51927
0.101727
2.54007
0.0976188
2.55117
0.0800661
2.5482
0.049048
2.52893
0.00864156
2.4931
-0.0346638
2.4414
-0.074425
2.37664
-0.105142
2.30247
-0.122384
2.22244
-0.123817
2.1393
-0.109094
2.05493
-0.0793879
1.96883
-0.0356728
1.87838
0.0201257
1.78393
0.0813091
1.68934
0.139645
1.59717
0.189158
1.50754
0.227895
1.42001
0.254959
1.33438
0.270726
1.25072
0.276713
1.16926
0.274949
1.09031
0.267326
1.01419
0.255375
0.94112
0.240386
0.871197
0.223435
0.804363
0.205468
0.740504
0.187317
0.679524
0.169749
0.621337
0.153463
0.565791
0.139073
0.512645
0.127041
0.461851
0.117465
0.413554
0.110156
0.368016
0.104797
0.101034
0.325651
1.90539
0.16388
1.87621
0.129391
1.85347
0.101571
1.83602
0.079349
1.82307
0.0600088
1.81486
0.043334
1.812
0.0301018
1.81534
0.0211271
1.82575
0.0171064
1.8435
0.0184155
1.86812
0.0249115
1.89824
0.0355907
1.93169
0.0485203
1.96591
0.06099
1.99793
0.0697177
2.02417
0.0713617
2.04069
0.0635471
2.04393
0.0458096
2.03266
0.0199097
2.00691
-0.00892121
1.96787
-0.0353855
1.91801
-0.0552685
1.86025
-0.0646086
1.79739
-0.0609667
1.73106
-0.042764
1.65968
-0.00801522
1.58352
0.0404778
1.50727
0.0963576
1.43451
0.15407
1.36517
0.208969
1.29792
0.256401
1.23234
0.293482
1.16853
0.318776
1.10681
0.332445
1.04745
0.336063
0.990586
0.331829
0.936118
0.321811
0.883711
0.30779
0.83287
0.29123
0.783061
0.273254
0.733835
0.254696
0.68493
0.236218
0.636258
0.218416
0.587836
0.201885
0.539724
0.187183
0.492021
0.174747
0.444926
0.16456
0.398829
0.156255
0.354266
0.149362
0.143405
0.311893
1.50076
0.198725
1.47217
0.157959
1.44883
0.124904
1.43006
0.0981377
1.41517
0.0749164
1.40383
0.0546569
1.39613
0.0378033
1.39251
0.0247623
1.39368
0.0159322
1.40036
0.0117382
1.4129
0.0123665
1.431
0.0174973
1.45352
0.0259969
1.47853
0.0359636
1.50341
0.0448387
1.52489
0.049889
1.53945
0.0489917
1.54396
0.0412978
1.53634
0.0275411
1.51758
0.0098606
1.48904
-0.00683458
1.45136
-0.0176063
1.40623
-0.0194982
1.35417
-0.00891031
1.29535
0.0160666
1.23388
0.0534581
1.17451
0.0998571
1.11816
0.152723
1.06449
0.207759
1.01337
0.260096
0.96461
0.305159
0.918408
0.339694
0.875049
0.362137
0.834727
0.372765
0.797425
0.373371
0.762836
0.366419
0.730359
0.35428
0.699148
0.338989
0.668277
0.322099
0.636915
0.304624
0.604412
0.287201
0.570405
0.270217
0.534851
0.253961
0.497952
0.238779
0.460042
0.225094
0.421447
0.213341
0.382409
0.203599
0.343224
0.195446
0.304422
0.188158
0.181059
0.266759
1.08448
0.229189
1.06138
0.181067
1.04361
0.142687
1.02927
0.11242
1.01777
0.0864053
1.00844
0.0640093
1.00088
0.0453466
0.995212
0.0303991
0.991943
0.0192116
0.991735
0.0119495
0.995282
0.00883494
1.00292
0.00984917
1.01447
0.0144586
1.02897
0.0214613
1.04472
0.029088
1.05932
0.0352905
1.06999
0.0383141
1.07402
0.0372518
1.06919
0.032342
1.05402
0.0250002
1.02943
0.0177507
0.997029
0.0147956
0.95681
0.0207183
0.910569
0.037339
0.862074
0.0645607
0.8139
0.10162
0.766898
0.146867
0.721916
0.197703
0.679572
0.250077
0.640638
0.299016
0.605741
0.340067
0.575315
0.370122
0.549513
0.387924
0.528217
0.394054
0.510936
0.390656
0.496792
0.380552
0.484671
0.366377
0.473328
0.350327
0.461444
0.333994
0.447856
0.318224
0.431802
0.303256
0.413019
0.288992
0.391607
0.275365
0.36786
0.262522
0.34216
0.250799
0.31492
0.240587
0.286413
0.232106
0.256934
0.224924
0.227078
0.218023
0.210524
0.197612
0.661294
0.262404
0.645039
0.197291
0.633411
0.15437
0.624935
0.120908
0.618331
0.0930016
0.612284
0.0700606
0.60605
0.0515727
0.599536
0.0369211
0.593049
0.0256927
0.587226
0.0177551
0.582965
0.0131216
0.581109
0.0117039
0.582331
0.0132598
0.586702
0.0171104
0.593556
0.0222368
0.601434
0.027395
0.608238
0.0314956
0.611539
0.0339535
0.609006
0.0348966
0.598782
0.03525
0.57975
0.0368074
0.552145
0.0424103
0.517685
0.0551757
0.478182
0.0768418
0.435126
0.107612
0.390462
0.146277
0.347231
0.190113
0.307548
0.23739
0.272388
0.285217
0.243067
0.328334
0.220186
0.362957
0.20392
0.386384
0.194058
0.397769
0.190214
0.397891
0.191617
0.389256
0.197021
0.37515
0.204877
0.358515
0.213422
0.34178
0.220827
0.326584
0.225297
0.313746
0.2258
0.302755
0.222291
0.292503
0.215584
0.28208
0.206773
0.271333
0.196399
0.261176
0.184126
0.25286
0.169356
0.246873
0.152331
0.241944
0.133998
0.236369
0.229255
0.115275
0.204329
0.26772
0.201062
0.200542
0.202235
0.153179
0.205329
0.117826
0.2074
0.0909026
0.207
0.0704746
0.20338
0.0552005
0.196095
0.0442034
0.184972
0.0368488
0.17024
0.0325118
0.15275
0.0306004
0.133963
0.0304837
0.115779
0.0314164
0.100223
0.0326648
0.0888698
0.0336177
0.082313
0.0339921
0.0797056
0.0341229
0.0788314
0.034823
0.0768001
0.0369347
0.0708088
0.0412397
0.0588416
0.0487514
0.0404388
0.0608063
0.0168651
0.0787407
-0.00970398
0.103397
-0.0372005
0.135108
-0.0648145
0.173881
-0.0926523
0.217949
-0.120178
0.264923
-0.143895
0.308928
-0.159619
0.344044
-0.166017
0.369348
-0.163649
0.384031
-0.153858
0.387997
-0.138436
0.38247
-0.119238
0.370054
-0.0979568
0.353877
-0.0759314
0.336496
-0.0540943
0.319946
-0.0330486
0.305529
-0.0135173
0.294194
0.00373512
0.28549
0.0180951
0.278145
0.0294028
0.27078
0.03787
0.262866
0.0436811
0.255372
0.046518
0.250033
0.0458481
0.247557
0.0416704
0.246117
0.0347322
0.243316
0.23779
0.0262069
-0.277927
0.220792
-0.264313
0.186927
-0.264336
0.153161
-0.271997
0.125477
-0.284812
0.10375
-0.301065
0.0867229
-0.319192
0.0733126
-0.337772
0.0627935
-0.355625
0.05467
-0.371762
0.0486288
-0.385438
0.0442984
-0.39618
0.0412364
-0.403827
0.0390714
-0.40868
0.037521
-0.411507
0.0364247
-0.413393
0.0358711
-0.415535
0.0362725
-0.418898
0.0381781
-0.424074
0.0421036
-0.431581
0.0487435
-0.442001
0.0591521
-0.455522
0.0743421
-0.471651
0.0948936
-0.489365
0.121113
-0.507014
0.152768
-0.522112
0.188989
-0.531888
0.227723
-0.533261
0.26631
-0.525318
0.301014
-0.509738
0.328481
-0.487477
0.347083
-0.459358
0.355904
-0.426703
0.355348
-0.391303
0.347076
-0.354976
0.333721
-0.319221
0.318115
-0.285056
0.302331
-0.252853
0.287749
-0.222664
0.275345
-0.194527
0.266063
-0.168791
0.259762
-0.14591
0.255263
-0.126301
0.251166
-0.11034
0.246898
-0.0980889
0.243125
-0.0891929
0.241145
-0.0828636
0.241226
-0.0784277
0.241674
-0.0754241
0.240318
0.23568
-0.0732954
-0.667663
0.181974
-0.649687
0.168957
-0.644811
0.148281
-0.647386
0.128048
-0.653709
0.110058
-0.661775
0.0947973
-0.670549
0.0820794
-0.679475
0.0716771
-0.688169
0.0633677
-0.696411
0.0568828
-0.704103
0.0519662
-0.711237
0.0483674
-0.717946
0.0458026
-0.724496
0.0440861
-0.731237
0.0431667
-0.738486
0.0431161
-0.746418
0.0441984
-0.755114
0.0468538
-0.764689
0.0516686
-0.775298
0.059372
-0.78689
0.070756
-0.799037
0.0864937
-0.811043
0.106897
-0.821773
0.131832
-0.82957
0.160563
-0.83239
0.191815
-0.828399
0.223728
-0.816184
0.254083
-0.795544
0.280375
-0.767361
0.300307
-0.732735
0.312458
-0.693248
0.316416
-0.650859
0.312965
-0.607673
0.303892
-0.565421
0.291464
-0.525075
0.277767
-0.486934
0.264188
-0.450814
0.251629
-0.416404
0.240942
-0.383305
0.232975
-0.351447
0.227906
-0.321235
0.225041
-0.293393
0.223315
-0.268629
0.222144
-0.247189
0.221682
-0.228505
0.222449
-0.211586
0.224296
-0.195825
0.225914
-0.181091
0.225587
0.222042
-0.167449
-0.973084
0.153122
-0.951427
0.147313
-0.938198
0.135043
-0.93138
0.121209
-0.929118
0.107807
-0.930122
0.0957863
-0.933501
0.0854835
-0.938705
0.0769097
-0.945308
0.06996
-0.952936
0.0645189
-0.961312
0.0603647
-0.970271
0.0573039
-0.979663
0.0551835
-0.98941
0.0538474
-0.999494
0.0532405
-1.00984
0.0534543
-1.02035
0.0547132
-1.03091
0.0574167
-1.04139
0.0621277
-1.0515
0.0694795
-1.06083
0.0800804
-1.06872
0.0943847
-1.07431
0.112495
-1.07651
0.134037
-1.0741
0.158147
-1.06581
0.183531
-1.05066
0.208566
-1.02803
0.231453
-0.998042
0.25038
-0.961557
0.26382
-0.920012
0.270912
-0.875256
0.271656
-0.829235
0.266934
-0.783603
0.258252
-0.739409
0.247274
-0.697054
0.235423
-0.656566
0.223704
-0.61782
0.21288
-0.580608
0.203728
-0.544536
0.196901
-0.509259
0.19262
-0.474794
0.190571
-0.44159
0.190112
-0.410156
0.190719
-0.380696
0.192211
-0.352849
0.194588
-0.326012
0.197463
-0.299878
0.19979
-0.274548
0.200262
0.197942
-0.250459
-1.25913
0.128963
-1.23872
0.126881
-1.22377
0.120102
-1.21395
0.111408
-1.20846
0.102316
-1.20641
0.0937296
-1.20701
0.0860867
-1.20967
0.0795512
-1.21383
0.0741411
-1.21912
0.0697848
-1.22516
0.066389
-1.23168
0.063832
-1.23851
0.0620015
-1.24549
0.06082
-1.25251
0.0602739
-1.25951
0.0604565
-1.26636
0.0615792
-1.2729
0.0639728
-1.27884
0.0680748
-1.28372
0.0743539
-1.28687
0.0832329
-1.28747
0.0949819
-1.28456
0.109581
-1.27715
0.126627
-1.26434
0.145334
-1.24541
0.164596
-1.21992
0.183083
-1.18787
0.199401
-1.14977
0.212268
-1.10665
0.220705
-1.05999
0.224253
-1.01143
0.223092
-0.962507
0.218
-0.914389
0.210131
-0.867807
0.200698
-0.823104
0.190723
-0.780388
0.180983
-0.739608
0.172096
-0.700529
0.16465
-0.662735
0.159101
-0.625752
0.155628
-0.589288
0.154109
-0.553372
0.154191
-0.518152
0.155497
-0.483686
0.157741
-0.449779
0.16068
-0.416154
0.163844
-0.382758
0.166399
-0.349863
0.167368
0.166092
-0.318021
-1.58551
0.104065
-1.56303
0.104412
-1.54421
0.101279
-1.52916
0.0963575
-1.51755
0.0907084
-1.50885
0.0850335
-1.50251
0.0797431
-1.49803
0.0750678
-1.49495
0.0710684
-1.49292
0.0677492
-1.49161
0.0650862
-1.49077
0.0630064
-1.49023
0.0614545
-1.48982
0.0604033
-1.48941
0.0598624
-1.48887
0.0599137
-1.48802
0.060724
-1.48658
0.0625364
-1.48417
0.0656558
-1.48021
0.0704021
-1.47401
0.0770413
-1.46475
0.085716
-1.45152
0.0963569
-1.43352
0.108624
-1.41009
0.121904
-1.38083
0.135345
-1.34569
0.14795
-1.305
0.158715
-1.25951
0.16677
-1.21031
0.171517
-1.1588
0.172743
-1.10638
0.170681
-1.05433
0.165958
-1.00363
0.159429
-0.954903
0.151963
-0.908464
0.144275
-0.864378
0.136889
-0.822502
0.130219
-0.782495
0.124642
-0.743877
0.120474
-0.706126
0.117872
-0.66881
0.1168
-0.631686
0.117067
-0.594619
0.118428
-0.557495
0.120621
-0.520164
0.123351
-0.482507
0.126186
-0.44461
0.128495
-0.406807
0.129564
0.128894
-0.369607
-1.93555
0.0735937
-1.90606
0.0749064
-1.87885
0.0740679
-1.85433
0.0718529
-1.83255
0.0689171
-1.81327
0.0657469
-1.79616
0.0626425
-1.78089
0.0597786
-1.76709
0.0572639
-1.75445
0.0551166
-1.7427
0.0533329
-1.73159
0.0518971
-1.72091
0.0507812
-1.71049
0.0499814
-1.70015
0.0495175
-1.68969
0.0494508
-1.67887
0.0499005
-1.66736
0.0510243
-1.6547
0.0530047
-1.64035
0.0560408
-1.62359
0.0602866
-1.60368
0.0658029
-1.57986
0.0725261
-1.55145
0.0802198
-1.518
0.0884634
-1.47934
0.0966925
-1.43566
0.10426
-1.38747
0.110528
-1.33566
0.114969
-1.2814
0.117254
-1.22597
0.117315
-1.17066
0.115362
-1.11652
0.111828
-1.06435
0.10726
-1.01458
0.102186
-0.967342
0.0970384
-0.922578
0.0921263
-0.880063
0.0877018
-0.839421
0.0840003
-0.800176
0.0812264
-0.761805
0.0794997
-0.723832
0.0788268
-0.685869
0.0791061
-0.64763
0.0801834
-0.608879
0.0818722
-0.569447
0.0839277
-0.529277
0.0860165
-0.488507
0.0877138
-0.447473
0.0885281
0.0880207
-0.406597
-2.24752
0.0381279
-2.21165
0.0390368
-2.1767
0.0391236
-2.14337
0.038514
-2.11193
0.0374881
-2.08245
0.0362584
-2.05479
0.034989
-2.02877
0.0337741
-2.00418
0.032668
-1.98075
0.0316967
-1.95828
0.0308659
-1.93655
0.03017
-1.91537
0.0296045
-1.89457
0.0291758
-1.87395
0.0288993
-1.8533
0.0288092
-1.83237
0.0289647
-1.81079
0.0294466
-1.78813
0.0303478
-1.76384
0.0317563
-1.7373
0.0337387
-1.70782
0.0363237
-1.67477
0.0394768
-1.63762
0.0430747
-1.59606
0.046907
-1.55006
0.050696
-1.49994
0.054133
-1.44633
0.0569194
-1.39017
0.0588116
-1.33258
0.0596652
-1.27474
0.0594698
-1.21773
0.0583444
-1.16241
0.0564986
-1.10933
0.0541828
-1.05878
0.0516395
-1.0108
0.0490613
-0.965265
0.0465977
-0.921944
0.0443776
-0.880469
0.0425226
-0.840379
0.0411361
-0.801152
0.0402798
-0.762291
0.0399605
-0.723332
0.0401393
-0.683898
0.0407412
-0.643694
0.041667
-0.602532
0.0427714
-0.560368
0.043863
-0.517376
0.0447175
-0.473941
0.0450901
0.0446188
-0.430541
-2.47289
-2.43386
-2.39474
-2.35622
-2.31873
-2.28248
-2.24749
-2.21372
-2.18106
-2.14936
-2.11851
-2.08834
-2.05874
-2.02956
-2.00066
-1.97185
-1.94289
-1.91345
-1.8831
-1.85135
-1.81761
-1.78129
-1.74181
-1.69873
-1.65183
-1.60114
-1.54701
-1.49009
-1.43128
-1.37162
-1.31215
-1.2538
-1.1973
-1.14312
-1.09148
-1.04242
-0.99582
-0.951445
-0.90892
-0.867785
-0.827509
-0.787558
-0.747423
-0.706676
-0.665006
-0.622239
-0.578379
-0.533661
-0.488568
-0.443943
0.00816568
-0.000207589
0.00822184
-0.000168458
0.00817837
-0.000108071
0.00820164
-8.53074e-06
0.00823233
3.23647e-05
0.00823403
2.89322e-05
0.00821108
1.90593e-05
0.00818104
1.82666e-05
0.00815304
2.25638e-05
0.00812648
2.52008e-05
0.00809868
2.45075e-05
0.00806944
2.22333e-05
0.0080407
2.00119e-05
0.00801462
1.81702e-05
0.00799263
1.64345e-05
0.00797543
1.47153e-05
0.00796318
1.32793e-05
0.00795553
1.25494e-05
0.00795137
1.30105e-05
0.00794923
1.44008e-05
0.00794724
1.64997e-05
0.00794367
1.87433e-05
0.00793758
2.06146e-05
0.0079286
2.1486e-05
0.0079159
2.18989e-05
0.00789931
2.20207e-05
0.00788054
2.08488e-05
0.00786153
1.86408e-05
0.00784426
1.58347e-05
0.00783034
1.28832e-05
0.00782073
1.01805e-05
0.00781546
8.07202e-06
0.00781364
6.79671e-06
0.00781364
6.38019e-06
0.00781353
6.64968e-06
0.00781156
7.29175e-06
0.00780649
7.88706e-06
0.00779787
8.03524e-06
0.0077861
7.44584e-06
0.00777217
5.95768e-06
0.00775748
3.6085e-06
0.00774344
5.72457e-07
0.00773116
-2.9745e-06
0.00772138
-6.94925e-06
0.00771457
-1.14731e-05
0.00771148
-1.69357e-05
0.00771377
-2.40144e-05
0.00772473
-3.38056e-05
0.00775024
-4.82477e-05
-7.08593e-05
0.00780043
0.00787303
-2.55394e-05
0.00794942
1.03584e-06
0.0078741
-2.77833e-05
0.00781956
-1.17823e-05
0.00781042
1.97773e-05
0.00781809
3.40428e-05
0.00782014
3.1542e-05
0.00781353
2.50422e-05
0.00780396
2.13981e-05
0.00779536
2.01309e-05
0.00778801
1.89101e-05
0.00778124
1.68997e-05
0.00777547
1.46448e-05
0.00777212
1.28475e-05
0.00777274
1.17819e-05
0.00777832
1.14239e-05
0.00778918
1.17108e-05
0.00780509
1.26236e-05
0.00782532
1.42823e-05
0.00784682
1.78028e-05
0.00786841
2.04423e-05
0.00788928
2.18405e-05
0.0079064
2.40707e-05
0.00791687
2.63282e-05
0.00792208
2.58733e-05
0.00792432
2.35216e-05
0.00792439
2.07436e-05
0.00792366
1.77235e-05
0.00792415
1.44081e-05
0.00792748
1.10879e-05
0.00793454
8.04423e-06
0.00794532
5.4626e-06
0.00795887
3.41157e-06
0.00797357
1.84418e-06
0.00798759
6.15083e-07
0.00799922
-5.49447e-07
0.00800732
-2.02421e-06
0.0080116
-4.25412e-06
0.00801257
-7.60915e-06
0.00801141
-1.22472e-05
0.00800964
-1.81547e-05
0.00800863
-2.51914e-05
0.00800937
-3.31275e-05
0.00801229
-4.17825e-05
0.00801755
-5.11251e-05
0.00802542
-6.1322e-05
0.00803683
-7.28572e-05
0.00805352
-8.66674e-05
0.00807807
-0.000104402
-0.000128793
0.0081129
0.00783583
-1.42244e-05
0.00788854
3.44035e-05
0.00790556
2.41585e-05
0.00788726
1.20539e-05
0.00787575
1.65604e-05
0.00787786
2.52578e-05
0.00788371
2.76706e-05
0.00788537
2.42287e-05
0.00788194
1.94351e-05
0.00787584
1.58189e-05
0.00786916
1.337e-05
0.00786292
1.13613e-05
0.00785793
9.54998e-06
0.00785534
8.19259e-06
0.00785648
7.60944e-06
0.00786237
7.9642e-06
0.00787333
9.3007e-06
0.00788885
1.15852e-05
0.0079073
1.50241e-05
0.00792773
1.89535e-05
0.00794738
2.24496e-05
0.00796464
2.47728e-05
0.0079787
2.68171e-05
0.0079885
2.83761e-05
0.00799299
2.79316e-05
0.00799302
2.54799e-05
0.00799057
2.20688e-05
0.00798806
1.80087e-05
0.00798758
1.3579e-05
0.00799075
9.11001e-06
0.00799836
4.92619e-06
0.00801017
1.25531e-06
0.00802495
-1.80824e-06
0.00804089
-4.30404e-06
0.00805595
-6.43545e-06
0.00806839
-8.56915e-06
0.00807716
-1.12011e-05
0.00808196
-1.49043e-05
0.0080834
-2.01454e-05
0.00808275
-2.71624e-05
0.0080816
-3.59732e-05
0.00808136
-4.63939e-05
0.00808293
-5.81038e-05
0.00808664
-7.07594e-05
0.00809244
-8.41258e-05
0.00810032
-9.81435e-05
0.00811066
-0.000113126
0.00812449
-0.000129905
0.00814352
-0.000149906
-0.000175399
0.00816948
0.00792611
-3.57463e-05
0.00793541
5.25634e-06
0.00796442
3.15672e-05
0.00796872
3.08568e-05
0.00795988
2.76093e-05
0.00795124
2.81497e-05
0.00794567
2.86452e-05
0.00794024
2.62137e-05
0.00793257
2.16033e-05
0.00792276
1.67503e-05
0.00791222
1.27512e-05
0.00790243
9.72958e-06
0.00789468
7.52945e-06
0.00789012
6.15121e-06
0.00788986
5.75737e-06
0.00789471
6.51105e-06
0.00790489
8.48911e-06
0.00791979
1.16417e-05
0.00793793
1.59756e-05
0.00795716
2.06452e-05
0.0079758
2.45048e-05
0.00799166
2.75789e-05
0.0080035
2.97762e-05
0.00801092
3.07414e-05
0.00801357
2.99225e-05
0.00801209
2.72669e-05
0.00800855
2.3202e-05
0.00800532
1.81784e-05
0.0080046
1.26486e-05
0.00800808
7.00579e-06
0.00801647
1.65623e-06
0.00802933
-3.08001e-06
0.00804525
-7.05094e-06
0.00806218
-1.03169e-05
0.00807793
-1.31516e-05
0.00809065
-1.60193e-05
0.0080992
-1.95759e-05
0.00810335
-2.45064e-05
0.00810386
-3.13688e-05
0.00810219
-4.05094e-05
0.00810006
-5.19672e-05
0.00809902
-6.54863e-05
0.00810002
-8.06394e-05
0.0081033
-9.69127e-05
0.00810868
-0.000113816
0.00811579
-0.000131088
0.00812454
-0.000148807
0.00813538
-0.000167596
0.00814925
-0.000188698
-0.000213944
0.00816738
0.00796018
-2.23565e-05
0.00793593
-3.93195e-06
0.00793775
2.98591e-05
0.00794058
4.09094e-05
0.00793637
3.91181e-05
0.00792883
3.45618e-05
0.00792199
3.03114e-05
0.00791637
2.56957e-05
0.00791068
2.02458e-05
0.00790412
1.45786e-05
0.00789707
9.55111e-06
0.00789066
5.66354e-06
0.00788624
3.0477e-06
0.00788508
1.70912e-06
0.00788823
1.69134e-06
0.00789639
3.06659e-06
0.00790964
5.81565e-06
0.00792732
9.74895e-06
0.00794813
1.45722e-05
0.00796956
1.98366e-05
0.00798938
2.44776e-05
0.00800596
2.81651e-05
0.00801795
3.06458e-05
0.00802478
3.15583e-05
0.00802662
3.05654e-05
0.00802461
2.76416e-05
0.00802077
2.30885e-05
0.00801754
1.73494e-05
0.00801724
1.09626e-05
0.00802153
4.43096e-06
0.00803096
-1.74249e-06
0.00804492
-7.18098e-06
0.00806179
-1.17142e-05
0.00807933
-1.54292e-05
0.00809516
-1.86632e-05
0.00810734
-2.20082e-05
0.0081147
-2.62435e-05
0.00811712
-3.21598e-05
0.00811553
-4.04259e-05
0.00811164
-5.14479e-05
0.00810747
-6.52825e-05
0.00810471
-8.16339e-05
0.00810444
-9.99478e-05
0.00810691
-0.000119499
0.00811176
-0.00013956
0.00811829
-0.000159627
0.00812587
-0.000179585
0.00813431
-0.000199815
0.00814405
-0.000221368
-0.000245858
0.00815596
0.00797181
-7.39639e-06
0.00795695
1.36397e-06
0.0079485
2.66447e-05
0.00794824
4.02983e-05
0.0079479
4.20014e-05
0.0079448
3.73524e-05
0.00793997
3.09186e-05
0.0079346
2.44091e-05
0.00792886
1.80342e-05
0.00792254
1.19539e-05
0.00791589
6.59373e-06
0.00790984
2.40031e-06
0.0079057
-3.46716e-07
0.00790481
-1.53426e-06
0.00790826
-1.12804e-06
0.00791667
8.6617e-07
0.00792995
4.34349e-06
0.00794722
9.06965e-06
0.00796663
1.47824e-05
0.00798599
2.06489e-05
0.00800354
2.5575e-05
0.00801768
2.94788e-05
0.00802706
3.19871e-05
0.00803116
3.27084e-05
0.0080304
3.13969e-05
0.00802619
2.80431e-05
0.00802064
2.29407e-05
0.00801632
1.6545e-05
0.0080156
9.42653e-06
0.00802004
2.19668e-06
0.00803003
-4.56451e-06
0.00804476
-1.04416e-05
0.00806231
-1.52835e-05
0.0080802
-1.92083e-05
0.00809584
-2.26272e-05
0.00810713
-2.62496e-05
0.00811289
-3.09565e-05
0.0081131
-3.76629e-05
0.00810892
-4.71331e-05
0.00810239
-5.98146e-05
0.00809584
-7.57797e-05
0.00809123
-9.46997e-05
0.0080898
-0.000115861
0.00809185
-0.000138363
0.00809681
-0.000161248
0.00810361
-0.000183776
0.00811108
-0.00020558
0.00811833
-0.000226919
0.0081253
-0.00024863
-0.000272175
0.00813247
0.00796447
-2.97751e-06
0.00796066
1.04707e-05
0.00794963
2.96075e-05
0.00794237
4.05226e-05
0.00793769
4.29649e-05
0.00793308
3.9043e-05
0.00792759
3.19509e-05
0.0079215
2.40464e-05
0.0079152
1.64235e-05
0.00790892
9.5239e-06
0.00790304
3.65744e-06
0.00789831
-8.51304e-07
0.00789585
-3.7407e-06
0.00789685
-4.85339e-06
0.00790233
-4.1512e-06
0.00791274
-1.71125e-06
0.00792789
2.26932e-06
0.00794684
7.46212e-06
0.00796791
1.34299e-05
0.00798854
1.95641e-05
0.00800661
2.48621e-05
0.00802063
2.90093e-05
0.00802932
3.16218e-05
0.00803235
3.22893e-05
0.00803037
3.07963e-05
0.00802502
2.71607e-05
0.0080187
2.16716e-05
0.00801416
1.48648e-05
0.00801376
7.34143e-06
0.00801899
-2.13687e-07
0.0080301
-7.17502e-06
0.008046
-1.31369e-05
0.00806451
-1.79643e-05
0.00808289
-2.18111e-05
0.00809833
-2.51711e-05
0.00810857
-2.88551e-05
0.00811241
-3.38381e-05
0.00810998
-4.11157e-05
0.00810273
-5.15496e-05
0.00809302
-6.56395e-05
0.00808356
-8.34403e-05
0.00807669
-0.000104573
0.00807385
-0.000128215
0.00807543
-0.000153266
0.00808066
-0.000178572
0.00808811
-0.000203174
0.00809595
-0.000226539
0.00810268
-0.000248751
0.00810766
-0.000270499
-0.000293171
0.00811102
0.0079569
-6.6267e-06
0.00795592
1.34323e-05
0.0079481
3.27071e-05
0.00793989
4.09088e-05
0.0079336
4.19572e-05
0.00792876
3.78467e-05
0.0079243
3.05837e-05
0.00791969
2.2095e-05
0.00791489
1.3729e-05
0.0079102
6.26032e-06
0.00790609
9.85527e-08
0.00790332
-4.47885e-06
0.00790291
-7.25958e-06
0.00790594
-8.1138e-06
0.00791328
-7.02948e-06
0.00792526
-4.12441e-06
0.00794154
3.64573e-07
0.00796101
6.07379e-06
0.00798159
1.2585e-05
0.00800094
1.90706e-05
0.00801727
2.45056e-05
0.00802909
2.86975e-05
0.00803526
3.12497e-05
0.00803562
3.17469e-05
0.00803104
2.99852e-05
0.00802339
2.60548e-05
0.00801535
2.0279e-05
0.00800977
1.3201e-05
0.00800905
5.4869e-06
0.00801459
-2.12622e-06
0.0080264
-9.02793e-06
0.00804312
-1.48324e-05
0.00806229
-1.94207e-05
0.00808084
-2.30096e-05
0.0080957
-2.6157e-05
0.00810447
-2.97503e-05
0.00810593
-3.48701e-05
0.00810034
-4.26008e-05
0.00808946
-5.38146e-05
0.00807608
-6.90604e-05
0.00806331
-8.84045e-05
0.00805392
-0.000111376
0.00804963
-0.000137064
0.00805093
-0.000164199
0.00805686
-0.000191504
0.00806556
-0.000217836
0.00807456
-0.000242489
0.00808171
-0.000265442
0.00808569
-0.000287231
-0.000309185
0.00808618
0.00795435
-1.12969e-05
0.00794892
1.08778e-05
0.0079418
3.29277e-05
0.00793371
4.07064e-05
0.00792629
4.05931e-05
0.0079202
3.58474e-05
0.00791513
2.83958e-05
0.00791053
1.97386e-05
0.00790615
1.10866e-05
0.00790218
3.33354e-06
0.00789912
-2.98627e-06
0.00789771
-7.56593e-06
0.00789892
-1.02105e-05
0.00790369
-1.08318e-05
0.00791272
-9.45458e-06
0.00792623
-6.2218e-06
0.00794376
-1.41399e-06
0.0079641
4.54364e-06
0.00798528
1.1156e-05
0.00800478
1.76843e-05
0.00802061
2.31749e-05
0.00803136
2.73299e-05
0.00803602
2.97642e-05
0.00803461
3.00738e-05
0.00802825
2.80914e-05
0.00801912
2.39723e-05
0.00801012
1.80887e-05
0.00800422
1.09849e-05
0.00800383
3.38786e-06
0.00801022
-3.97633e-06
0.00802319
-1.0528e-05
0.00804111
-1.59016e-05
0.00806119
-2.00238e-05
0.00808005
-2.31684e-05
0.00809436
-2.59657e-05
0.00810155
-2.93656e-05
0.00810039
-3.45154e-05
0.00809136
-4.25526e-05
0.00807652
-5.43784e-05
0.00805911
-7.05319e-05
0.00804275
-9.10424e-05
0.00803062
-0.000115408
0.00802484
-0.000142609
0.0080259
-0.000171301
0.00803275
-0.000200062
0.00804308
-0.000227653
0.0080537
-0.00025331
0.00806186
-0.000276783
0.00806548
-0.000298632
-0.000320091
0.00806377
0.00795433
-1.38166e-05
0.00794356
6.73867e-06
0.0079344
3.02846e-05
0.00792605
3.86768e-05
0.00791842
3.82185e-05
0.00791203
3.29658e-05
0.00790694
2.52482e-05
0.00790288
1.65353e-05
0.0078996
7.88796e-06
0.00789715
1.48297e-07
0.00789591
-6.1101e-06
0.00789657
-1.05376e-05
0.00789997
-1.29512e-05
0.00790693
-1.32985e-05
0.007918
-1.16341e-05
0.00793325
-8.12464e-06
0.00795208
-3.08696e-06
0.00797313
3.02041e-06
0.00799428
9.70781e-06
0.00801309
1.61808e-05
0.00802765
2.15404e-05
0.00803661
2.55073e-05
0.00803914
2.76998e-05
0.00803542
2.77466e-05
0.00802685