/*--------------------------------*- C++ -*----------------------------------*\
  =========                 |
  \\      /  F ield         | OpenFOAM: The Open Source CFD Toolbox
   \\    /   O peration     | Website:  https://openfoam.org
    \\  /    A nd           | Version:  8
     \\/     M anipulation  |
\*---------------------------------------------------------------------------*/
FoamFile
{
    version     2.0;
    format      ascii;
    class       volScalarField;
    location    "600";
    object      T;
}
// * * * * * * * * * * * * * * * * * * * * * * * * * * * * * * * * * * * * * //

dimensions      [0 0 0 1 0 0 0];

internalField   nonuniform List<scalar> 
8400
(
299.999
300.002
300.005
300.008
300.011
300.013
300.014
300.015
300.015
300.015
300.014
300.013
300.013
300.013
300.014
300.017
300.02
300.024
300.027
300.03
300.031
300.03
300.029
300.026
300.022
300.019
300.015
300.012
300.011
300.011
300.012
300.013
300.015
300.018
300.021
300.023
300.025
300.027
300.028
300.027
300.026
300.023
300.019
300.017
300.015
300.012
300.01
300.007
300.004
300
300.009
300.01
300.013
300.016
300.018
300.019
300.02
300.021
300.021
300.021
300.02
300.019
300.019
300.02
300.021
300.024
300.028
300.032
300.037
300.042
300.048
300.053
300.058
300.059
300.059
300.057
300.055
300.052
300.05
300.048
300.046
300.046
300.046
300.046
300.045
300.045
300.045
300.044
300.042
300.038
300.035
300.032
300.029
300.027
300.025
300.023
300.021
300.02
300.018
300.017
299.995
299.991
299.992
299.994
299.996
299.997
299.999
299.999
299.999
299.998
299.997
299.996
299.996
299.999
300.004
300.011
300.017
300.025
300.035
300.047
300.058
300.067
300.072
300.075
300.077
300.078
300.077
300.076
300.073
300.07
300.066
300.063
300.06
300.058
300.056
300.054
300.051
300.049
300.045
300.042
300.039
300.035
300.032
300.029
300.027
300.025
300.023
300.021
300.02
300.019
300.003
300.003
300.002
300
299.998
299.994
299.99
299.985
299.978
299.972
299.964
299.957
299.949
299.939
299.928
299.924
299.937
299.958
299.986
300.014
300.034
300.047
300.056
300.063
300.069
300.074
300.077
300.078
300.078
300.075
300.072
300.069
300.067
300.064
300.062
300.059
300.056
300.053
300.05
300.046
300.042
300.039
300.035
300.032
300.029
300.027
300.024
300.023
300.021
300.02
300.01
300.012
300.014
300.017
300.022
300.026
300.031
300.037
300.041
300.046
300.049
300.05
300.051
300.05
300.048
300.046
300.045
300.047
300.049
300.052
300.054
300.056
300.058
300.06
300.063
300.067
300.07
300.073
300.075
300.075
300.074
300.073
300.071
300.069
300.067
300.064
300.061
300.058
300.054
300.051
300.046
300.042
300.038
300.035
300.032
300.029
300.026
300.024
300.023
300.021
300.005
300.006
300.005
300.005
300.004
300.005
300.005
300.006
300.008
300.01
300.013
300.017
300.02
300.023
300.026
300.029
300.031
300.033
300.035
300.037
300.039
300.041
300.043
300.046
300.05
300.054
300.057
300.061
300.064
300.066
300.067
300.067
300.068
300.067
300.067
300.066
300.064
300.061
300.058
300.054
300.05
300.046
300.042
300.038
300.034
300.031
300.028
300.026
300.024
300.022
300.003
300.004
300.004
300.004
300.004
300.004
300.003
300.002
300.002
300.002
300.003
300.004
300.006
300.009
300.012
300.015
300.018
300.02
300.022
300.024
300.025
300.026
300.028
300.03
300.032
300.035
300.039
300.043
300.047
300.05
300.053
300.055
300.057
300.058
300.058
300.058
300.057
300.056
300.054
300.052
300.049
300.045
300.042
300.038
300.035
300.032
300.029
300.026
300.024
300.022
300.002
300.003
300.003
300.003
300.003
300.003
300.003
300.002
300.002
300.002
300.001
300.002
300.002
300.004
300.005
300.007
300.01
300.012
300.014
300.015
300.016
300.016
300.017
300.018
300.02
300.023
300.026
300.03
300.034
300.039
300.043
300.046
300.048
300.05
300.051
300.052
300.052
300.051
300.05
300.048
300.046
300.043
300.04
300.037
300.034
300.031
300.029
300.026
300.024
300.022
300.001
300.002
300.002
300.002
300.002
300.003
300.003
300.003
300.002
300.002
300.002
300.002
300.002
300.002
300.003
300.004
300.005
300.007
300.008
300.009
300.01
300.01
300.011
300.011
300.013
300.015
300.018
300.022
300.026
300.031
300.035
300.039
300.042
300.044
300.046
300.047
300.047
300.047
300.046
300.045
300.043
300.041
300.038
300.036
300.033
300.03
300.028
300.025
300.023
300.022
300
300.001
300.001
300.001
300.001
300.002
300.002
300.002
300.002
300.002
300.002
300.002
300.002
300.002
300.002
300.002
300.003
300.004
300.004
300.005
300.006
300.006
300.007
300.008
300.009
300.01
300.013
300.016
300.021
300.025
300.03
300.034
300.037
300.04
300.042
300.043
300.043
300.043
300.043
300.042
300.04
300.038
300.036
300.034
300.031
300.029
300.026
300.024
300.022
300.021
300
300
300
300
300.001
300.001
300.001
300.002
300.002
300.002
300.002
300.002
300.001
300.001
300.001
300.001
300.002
300.002
300.002
300.003
300.003
300.004
300.005
300.005
300.006
300.008
300.01
300.013
300.018
300.022
300.027
300.031
300.035
300.037
300.039
300.041
300.041
300.041
300.04
300.039
300.038
300.036
300.034
300.032
300.029
300.027
300.025
300.023
300.021
300.02
300
300
300
300
300
300.001
300.001
300.001
300.001
300.001
300.001
300.001
300.001
300
300
300
300.001
300.001
300.001
300.002
300.002
300.002
300.003
300.003
300.004
300.006
300.009
300.013
300.018
300.023
300.028
300.032
300.036
300.038
300.04
300.04
300.041
300.04
300.039
300.037
300.035
300.033
300.031
300.029
300.027
300.025
300.023
300.021
300.02
300.018
300.001
300.001
300.001
300.001
300.001
300.001
300.001
300.001
300.001
300.001
300.001
300.001
300.001
300.002
300.002
300.002
300.002
300.003
300.003
300.003
300.003
300.003
300.004
300.005
300.007
300.01
300.014
300.018
300.023
300.027
300.031
300.035
300.037
300.038
300.039
300.038
300.037
300.035
300.032
300.03
300.027
300.026
300.024
300.023
300.022
300.02
300.019
300.018
300.017
300.017
300.004
300.003
300.003
300.003
300.003
300.003
300.003
300.002
300.003
300.003
300.003
300.003
300.003
300.004
300.004
300.004
300.004
300.005
300.005
300.006
300.007
300.008
300.009
300.011
300.014
300.017
300.021
300.025
300.029
300.032
300.035
300.036
300.037
300.036
300.034
300.032
300.029
300.026
300.023
300.021
300.019
300.018
300.018
300.017
300.017
300.017
300.016
300.016
300.015
300.014
300.005
300.005
300.005
300.004
300.004
300.004
300.004
300.005
300.005
300.005
300.005
300.006
300.006
300.007
300.008
300.008
300.009
300.01
300.011
300.012
300.014
300.015
300.017
300.019
300.022
300.025
300.028
300.031
300.033
300.034
300.035
300.035
300.033
300.031
300.028
300.024
300.021
300.018
300.016
300.015
300.014
300.014
300.014
300.014
300.014
300.014
300.013
300.013
300.012
300.011
300.007
300.007
300.007
300.007
300.008
300.008
300.008
300.009
300.009
300.01
300.01
300.011
300.012
300.013
300.014
300.015
300.016
300.017
300.019
300.02
300.021
300.023
300.025
300.026
300.028
300.03
300.032
300.033
300.034
300.034
300.033
300.031
300.028
300.025
300.021
300.018
300.015
300.014
300.012
300.012
300.011
300.011
300.011
300.011
300.011
300.011
300.01
300.009
300.008
300.005
300.011
300.01
300.011
300.011
300.011
300.012
300.012
300.013
300.013
300.014
300.015
300.016
300.017
300.018
300.019
300.021
300.022
300.023
300.024
300.025
300.027
300.028
300.029
300.03
300.031
300.032
300.032
300.032
300.031
300.03
300.028
300.025
300.022
300.018
300.015
300.012
300.01
300.009
300.007
300.007
300.006
300.006
300.006
300.005
300.005
300.005
300.004
300.002
299.998
299.992
300.015
300.014
300.014
300.013
300.013
300.013
300.014
300.014
300.014
300.015
300.016
300.017
300.017
300.018
300.02
300.021
300.022
300.023
300.024
300.025
300.026
300.027
300.027
300.028
300.028
300.028
300.027
300.026
300.025
300.022
300.019
300.016
300.012
300.008
300.004
300.001
299.998
299.995
299.993
299.992
299.991
299.99
299.99
299.99
299.989
299.988
299.986
299.982
299.975
299.964
300.017
300.015
300.014
300.013
300.013
300.012
300.011
300.011
300.011
300.011
300.011
300.011
300.011
300.012
300.012
300.013
300.013
300.014
300.015
300.015
300.016
300.016
300.016
300.016
300.015
300.014
300.012
300.01
300.006
300.002
299.996
299.99
299.983
299.975
299.968
299.961
299.954
299.95
299.946
299.944
299.942
299.942
299.942
299.942
299.941
299.939
299.935
299.928
299.916
299.898
300
299.997
299.995
299.994
299.992
299.991
299.989
299.987
299.986
299.984
299.983
299.981
299.98
299.979
299.978
299.977
299.975
299.974
299.973
299.971
299.969
299.967
299.963
299.959
299.955
299.948
299.941
299.931
299.92
299.908
299.894
299.878
299.862
299.847
299.832
299.82
299.81
299.803
299.798
299.795
299.795
299.795
299.795
299.795
299.794
299.79
299.782
299.77
299.752
299.726
303.147
303.142
303.137
303.132
303.127
303.123
303.118
303.113
303.109
303.104
303.1
303.095
303.091
303.086
303.082
303.077
303.073
303.069
303.065
303.06
303.056
303.053
303.049
303.045
303.042
303.038
303.035
303.031
303.028
303.025
303.022
303.019
303.015
303.012
303.009
303.006
303.003
303
302.998
302.995
302.992
302.989
302.987
302.984
302.981
302.979
302.977
302.975
302.973
302.971
303.15
303.15
303.15
303.15
303.15
303.149
303.149
303.149
303.148
303.148
303.148
303.147
303.147
303.146
303.146
303.145
303.145
303.144
303.143
303.143
303.142
303.141
303.14
303.139
303.138
303.137
303.135
303.134
303.133
303.132
303.13
303.129
303.128
303.127
303.126
303.124
303.123
303.122
303.121
303.12
303.118
303.117
303.116
303.115
303.114
303.113
303.112
303.111
303.11
303.11
303.15
303.15
303.15
303.15
303.15
303.15
303.15
303.15
303.15
303.15
303.15
303.15
303.15
303.15
303.15
303.15
303.15
303.15
303.15
303.15
303.149
303.149
303.149
303.149
303.149
303.149
303.148
303.148
303.148
303.148
303.147
303.147
303.147
303.146
303.146
303.146
303.145
303.145
303.145
303.144
303.144
303.144
303.143
303.143
303.142
303.142
303.142
303.141
303.141
303.141
303.15
303.15
303.15
303.15
303.15
303.15
303.15
303.15
303.15
303.15
303.15
303.15
303.15
303.15
303.15
303.15
303.15
303.15
303.15
303.15
303.15
303.15
303.15
303.15
303.15
303.15
303.15
303.15
303.15
303.15
303.15
303.15
303.15
303.15
303.15
303.149
303.149
303.149
303.149
303.149
303.149
303.149
303.149
303.149
303.149
303.149
303.149
303.149
303.149
303.148
303.15
303.15
303.15
303.15
303.15
303.15
303.15
303.15
303.15
303.15
303.15
303.15
303.15
303.15
303.15
303.15
303.15
303.15
303.15
303.15
303.15
303.15
303.15
303.15
303.15
303.15
303.15
303.15
303.15
303.15
303.15
303.15
303.15
303.15
303.15
303.15
303.15
303.15
303.15
303.15
303.15
303.15
303.15
303.15
303.15
303.15
303.15
303.15
303.15
303.15
303.15
303.15
303.15
303.15
303.15
303.15
303.15
303.15
303.15
303.15
303.15
303.15
303.15
303.15
303.15
303.15
303.15
303.15
303.15
303.15
303.15
303.15
303.15
303.15
303.15
303.15
303.15
303.15
303.15
303.15
303.15
303.15
303.15
303.15
303.15
303.15
303.15
303.15
303.15
303.15
303.15
303.15
303.15
303.15
303.15
303.15
303.15
303.15
303.15
303.15
303.15
303.15
303.15
303.15
303.15
303.15
303.15
303.15
303.15
303.15
303.15
303.15
303.15
303.15
303.15
303.15
303.15
303.15
303.15
303.15
303.15
303.15
303.15
303.15
303.15
303.15
303.15
303.15
303.15
303.15
303.15
303.15
303.15
303.15
303.15
303.15
303.15
303.15
303.15
303.15
303.15
303.15
303.15
303.15
303.15
303.15
303.15
303.15
303.15
303.15
303.15
303.15
303.15
303.15
303.15
303.15
303.15
303.15
303.15
303.15
303.15
303.15
303.15
303.15
303.15
303.15
303.15
303.15
303.15
303.15
303.15
303.15
303.15
303.15
303.15
303.15
303.15
303.15
303.15
303.15
303.15
303.15
303.15
303.15
303.15
303.15
303.15
303.15
303.15
303.15
303.15
303.15
303.15
303.15
303.15
303.15
303.15
303.15
303.15
303.15
303.15
303.15
303.15
303.15
303.15
303.15
303.15
303.15
303.15
303.15
303.15
303.15
303.15
303.15
303.15
303.15
303.15
303.15
303.15
303.15
303.15
303.15
303.15
303.15
303.15
303.15
303.15
303.15
303.15
303.15
303.15
303.15
303.15
303.15
303.15
303.15
303.15
303.15
303.15
303.15
303.15
303.15
303.15
303.15
303.15
303.15
303.15
303.15
303.15
303.15
303.15
303.15
303.15
303.15
303.15
303.15
303.15
303.15
303.15
303.15
303.15
303.15
303.15
303.15
303.15
303.15
303.15
303.15
303.15
303.15
303.15
303.15
303.15
303.15
303.15
303.15
303.15
303.15
303.15
303.15
303.15
303.15
303.15
303.15
303.15
303.15
303.15
303.15
303.15
303.15
303.15
303.15
303.15
303.15
303.15
303.15
303.15
303.15
303.15
303.15
303.15
303.15
303.15
303.15
303.15
303.15
303.15
303.15
303.15
303.15
303.15
303.15
303.15
303.15
303.15
303.15
303.15
303.15
303.15
303.15
303.15
303.15
303.15
303.15
303.15
303.15
303.15
303.15
303.15
303.15
303.15
303.15
303.15
303.15
303.15
303.15
303.15
303.15
303.15
303.15
303.15
303.15
303.15
303.15
303.15
303.15
303.15
303.15
303.15
303.15
303.15
303.15
303.15
303.15
303.15
303.15
303.15
303.15
303.15
303.15
303.15
303.15
303.15
303.15
303.15
303.15
303.15
303.15
303.15
303.15
303.15
303.15
303.15
303.15
303.15
303.15
303.15
303.15
303.15
303.15
303.15
303.15
303.15
303.15
303.15
303.15
303.15
303.15
303.15
303.15
303.15
303.15
303.15
303.15
303.15
303.15
303.15
303.15
303.15
303.15
303.15
303.15
303.15
303.15
303.15
303.15
303.15
303.15
303.15
303.15
303.15
303.15
303.15
303.15
303.15
303.15
303.15
303.15
303.15
303.15
303.15
303.15
303.15
303.15
303.15
303.15
303.15
303.15
303.15
303.15
303.15
303.15
303.15
303.15
303.15
303.15
303.15
303.15
303.15
303.15
303.15
303.15
303.15
303.15
303.15
303.15
303.15
303.15
303.15
303.15
303.15
303.15
303.15
303.15
303.15
303.15
303.15
303.15
303.15
303.15
303.15
303.15
303.15
303.15
303.15
303.15
303.15
303.15
303.15
303.15
303.15
303.15
303.15
303.15
303.15
303.15
303.15
303.15
303.15
303.15
303.15
303.15
303.15
303.15
303.15
303.15
303.15
303.15
303.15
303.15
303.15
303.15
303.15
303.15
303.15
303.15
303.15
303.15
303.15
303.15
303.15
303.15
303.15
303.15
303.15
303.15
303.15
303.15
303.15
303.15
303.15
303.15
303.15
303.15
303.15
303.15
303.15
303.15
303.15
303.15
303.15
303.15
303.15
303.15
303.15
303.15
303.15
303.15
303.15
303.15
303.15
303.15
303.15
303.15
303.15
303.15
303.15
303.15
303.15
303.15
303.15
303.15
303.15
303.15
303.15
303.15
303.15
303.15
303.15
303.15
303.15
303.15
303.15
303.15
303.15
303.15
303.15
303.15
303.15
303.15
303.15
303.15
303.15
303.15
303.15
303.15
303.15
303.15
303.15
303.15
303.15
303.15
303.15
303.15
303.15
303.15
303.15
303.15
303.15
303.15
303.15
303.15
303.15
303.15
303.15
303.15
303.15
303.15
303.15
303.15
303.15
303.15
303.15
303.15
303.15
303.15
303.15
303.15
303.149
303.149
303.15
303.15
303.15
303.15
303.15
303.15
303.15
303.15
303.15
303.15
303.15
303.15
303.15
303.15
303.15
303.15
303.15
303.15
303.15
303.15
303.15
303.15
303.15
303.15
303.15
303.15
303.15
303.15
303.15
303.15
303.15
303.15
303.15
303.15
303.149
303.149
303.149
303.149
303.149
303.149
303.149
303.149
303.149
303.148
303.148
303.148
303.148
303.148
303.147
303.147
303.15
303.15
303.15
303.15
303.15
303.15
303.15
303.15
303.15
303.15
303.15
303.15
303.15
303.15
303.15
303.15
303.15
303.15
303.15
303.15
303.149
303.149
303.149
303.149
303.149
303.149
303.148
303.148
303.148
303.147
303.147
303.147
303.147
303.146
303.146
303.145
303.145
303.144
303.144
303.143
303.143
303.142
303.142
303.141
303.14
303.14
303.139
303.138
303.137
303.136
303.15
303.15
303.15
303.15
303.15
303.149
303.149
303.149
303.149
303.148
303.148
303.147
303.147
303.146
303.146
303.145
303.145
303.144
303.144
303.143
303.142
303.141
303.14
303.139
303.138
303.136
303.135
303.134
303.133
303.131
303.13
303.129
303.128
303.126
303.125
303.123
303.122
303.12
303.119
303.117
303.116
303.114
303.113
303.111
303.11
303.108
303.106
303.104
303.102
303.1
303.147
303.142
303.137
303.132
303.127
303.123
303.118
303.113
303.109
303.104
303.1
303.095
303.091
303.086
303.082
303.078
303.073
303.069
303.065
303.06
303.056
303.053
303.049
303.045
303.042
303.038
303.035
303.032
303.028
303.025
303.022
303.018
303.015
303.012
303.008
303.006
303.003
303
302.997
302.994
302.991
302.988
302.986
302.983
302.98
302.977
302.975
302.972
302.969
302.966
302.248
300.833
298.973
297.226
295.828
294.848
294.216
293.821
293.569
293.426
293.394
293.371
293.374
293.421
293.512
293.605
293.699
293.836
294.038
294.228
302.281
300.892
299.039
297.277
295.855
294.855
294.209
293.805
293.547
293.402
293.382
293.362
293.365
293.409
293.497
293.583
293.672
293.802
293.988
294.157
302.314
300.954
299.109
297.335
295.888
294.865
294.203
293.789
293.525
293.38
293.369
293.355
293.359
293.403
293.489
293.57
293.656
293.781
293.958
294.114
302.348
301.019
299.186
297.399
295.926
294.88
294.2
293.776
293.506
293.362
293.354
293.348
293.355
293.401
293.483
293.559
293.64
293.762
293.93
294.075
302.382
301.086
299.269
297.471
295.972
294.901
294.203
293.767
293.493
293.354
293.343
293.344
293.354
293.401
293.477
293.548
293.626
293.744
293.904
294.038
302.415
301.157
299.358
297.552
296.028
294.93
294.212
293.766
293.49
293.352
293.332
293.343
293.354
293.4
293.47
293.537
293.613
293.727
293.879
294.004
302.448
301.229
299.454
297.642
296.095
294.97
294.231
293.774
293.493
293.353
293.328
293.338
293.354
293.398
293.463
293.526
293.6
293.711
293.856
293.973
302.481
301.305
299.558
297.745
296.174
295.02
294.258
293.787
293.502
293.357
293.326
293.334
293.353
293.395
293.455
293.515
293.587
293.695
293.834
293.945
302.514
301.386
299.67
297.858
296.263
295.077
294.29
293.804
293.513
293.364
293.325
293.331
293.35
293.39
293.447
293.504
293.575
293.68
293.814
293.92
302.547
301.469
299.789
297.979
296.36
295.141
294.325
293.823
293.524
293.371
293.323
293.328
293.347
293.385
293.439
293.493
293.563
293.666
293.795
293.897
302.58
301.555
299.913
298.108
296.463
295.209
294.361
293.839
293.532
293.376
293.322
293.325
293.343
293.379
293.431
293.484
293.553
293.654
293.779
293.878
302.613
301.642
300.041
298.241
296.571
295.278
294.397
293.853
293.536
293.377
293.322
293.322
293.339
293.373
293.423
293.474
293.543
293.642
293.764
293.863
302.645
301.729
300.172
298.379
296.682
295.349
294.431
293.864
293.536
293.374
293.322
293.321
293.336
293.368
293.415
293.466
293.534
293.631
293.751
293.85
302.676
301.815
300.303
298.519
296.797
295.422
294.466
293.875
293.537
293.373
293.323
293.321
293.333
293.364
293.409
293.458
293.526
293.622
293.74
293.84
302.706
301.9
300.436
298.664
296.917
295.5
294.505
293.889
293.54
293.375
293.325
293.322
293.332
293.36
293.403
293.451
293.519
293.614
293.731
293.834
302.735
301.984
300.569
298.812
297.042
295.584
294.549
293.907
293.548
293.38
293.328
293.324
293.333
293.358
293.398
293.446
293.513
293.607
293.725
293.831
302.762
302.066
300.702
298.964
297.175
295.676
294.6
293.932
293.561
293.388
293.332
293.327
293.335
293.357
293.394
293.441
293.508
293.602
293.72
293.831
302.788
302.146
300.835
299.119
297.316
295.777
294.66
293.963
293.578
293.397
293.337
293.331
293.337
293.356
293.391
293.437
293.505
293.597
293.718
293.833
302.812
302.223
300.967
299.279
297.465
295.887
294.728
294.002
293.6
293.409
293.343
293.334
293.34
293.356
293.389
293.435
293.502
293.595
293.718
293.839
302.834
302.298
301.097
299.441
297.62
296.006
294.804
294.046
293.626
293.422
293.349
293.337
293.343
293.356
293.388
293.433
293.5
293.593
293.72
293.848
302.855
302.369
301.225
299.603
297.78
296.132
294.887
294.094
293.654
293.437
293.355
293.339
293.343
293.356
293.387
293.432
293.5
293.593
293.723
293.858
302.874
302.435
301.349
299.765
297.944
296.263
294.975
294.146
293.684
293.452
293.362
293.342
293.344
293.357
293.387
293.432
293.5
293.595
293.729
293.872
302.89
302.498
301.468
299.924
298.109
296.397
295.067
294.201
293.715
293.469
293.369
293.345
293.346
293.357
293.387
293.433
293.501
293.598
293.737
293.887
302.905
302.556
301.581
300.081
298.275
296.535
295.163
294.258
293.748
293.489
293.38
293.35
293.349
293.359
293.389
293.435
293.504
293.603
293.747
293.905
302.918
302.609
301.688
300.232
298.441
296.676
295.263
294.319
293.783
293.511
293.394
293.358
293.355
293.363
293.392
293.438
293.508
293.609
293.759
293.924
302.93
302.658
301.789
300.379
298.607
296.819
295.367
294.383
293.82
293.533
293.409
293.367
293.362
293.368
293.396
293.442
293.513
293.617
293.773
293.945
302.94
302.703
301.885
300.522
298.77
296.965
295.475
294.45
293.858
293.556
293.421
293.374
293.37
293.375
293.401
293.448
293.519
293.627
293.788
293.967
302.948
302.744
301.976
300.66
298.931
297.113
295.588
294.52
293.898
293.579
293.433
293.383
293.377
293.382
293.407
293.454
293.527
293.638
293.805
293.991
302.956
302.781
302.063
300.795
299.091
297.266
295.707
294.596
293.941
293.603
293.447
293.391
293.385
293.389
293.414
293.462
293.536
293.651
293.823
294.015
302.962
302.814
302.145
300.927
299.253
297.425
295.832
294.679
293.989
293.632
293.464
293.402
293.393
293.397
293.422
293.471
293.547
293.666
293.842
294.04
302.967
302.845
302.223
301.056
299.418
297.591
295.967
294.772
294.045
293.665
293.484
293.415
293.403
293.406
293.432
293.481
293.56
293.682
293.863
294.065
302.971
302.874
302.297
301.185
299.586
297.766
296.114
294.875
294.109
293.704
293.509
293.432
293.414
293.417
293.443
293.493
293.574
293.699
293.885
294.09
302.974
302.9
302.37
301.314
299.761
297.954
296.276
294.993
294.183
293.749
293.54
293.452
293.429
293.43
293.456
293.507
293.59
293.719
293.908
294.115
302.977
302.925
302.44
301.445
299.944
298.156
296.455
295.127
294.268
293.803
293.576
293.477
293.447
293.446
293.471
293.523
293.608
293.74
293.932
294.14
302.979
302.949
302.51
301.577
300.135
298.374
296.655
295.28
294.37
293.867
293.62
293.508
293.47
293.466
293.49
293.542
293.629
293.763
293.956
294.165
302.98
302.971
302.578
301.712
300.337
298.612
296.878
295.454
294.488
293.943
293.671
293.546
293.499
293.491
293.513
293.565
293.653
293.789
293.982
294.188
302.981
302.992
302.645
301.85
300.55
298.87
297.129
295.656
294.627
294.031
293.732
293.591
293.535
293.521
293.541
293.592
293.68
293.816
294.008
294.211
302.981
303.011
302.711
301.99
300.775
299.152
297.411
295.889
294.792
294.136
293.802
293.645
293.577
293.557
293.574
293.624
293.711
293.847
294.035
294.233
302.98
303.029
302.776
302.132
301.01
299.46
297.729
296.16
294.986
294.261
293.884
293.707
293.628
293.6
293.613
293.66
293.746
293.88
294.063
294.254
302.978
303.046
302.838
302.276
301.256
299.791
298.087
296.476
295.219
294.412
293.981
293.777
293.686
293.651
293.658
293.702
293.786
293.916
294.091
294.273
302.976
303.061
302.897
302.418
301.509
300.147
298.489
296.845
295.5
294.596
294.096
293.858
293.753
293.709
293.711
293.75
293.83
293.954
294.119
294.291
302.973
303.073
302.952
302.556
301.766
300.525
298.937
297.276
295.841
294.824
294.235
293.952
293.829
293.777
293.77
293.804
293.878
293.994
294.149
294.308
302.969
303.083
303
302.686
302.02
300.919
299.43
297.775
296.258
295.112
294.41
294.062
293.913
293.853
293.836
293.864
293.93
294.036
294.178
294.324
302.964
303.09
303.041
302.803
302.263
301.319
299.962
298.347
296.764
295.481
294.636
294.193
294.006
293.933
293.908
293.928
293.985
294.08
294.207
294.339
302.958
303.095
303.074
302.905
302.489
301.71
300.516
298.989
297.374
295.955
294.938
294.362
294.11
294.018
293.985
293.995
294.042
294.124
294.236
294.352
302.951
303.097
303.098
302.987
302.686
302.077
301.075
299.689
298.093
296.562
295.353
294.595
294.235
294.106
294.063
294.064
294.1
294.168
294.264
294.364
302.944
303.098
303.115
303.05
302.847
302.401
301.609
300.419
298.913
297.321
295.923
294.936
294.406
294.203
294.142
294.133
294.158
294.212
294.292
294.374
302.936
303.096
303.126
303.093
302.969
302.669
302.087
301.134
299.802
298.234
296.689
295.445
294.669
294.325
294.225
294.201
294.214
294.255
294.318
294.384
302.928
303.094
303.131
303.12
303.052
302.87
302.481
301.781
300.701
299.269
297.672
296.193
295.104
294.514
294.31
294.266
294.269
294.296
294.343
294.392
302.919
303.09
303.133
303.135
303.103
303.005
302.774
302.311
301.523
300.347
298.843
297.232
295.82
294.874
294.442
294.329
294.32
294.334
294.367
294.399
302.911
303.086
303.133
303.142
303.13
303.084
302.965
302.699
302.192
301.345
300.1
298.542
296.915
295.559
294.734
294.423
294.368
294.371
294.388
294.405
302.902
303.081
303.131
303.144
303.142
303.124
303.071
302.942
302.665
302.145
301.274
299.992
298.389
296.731
295.4
294.657
294.422
294.404
294.408
294.408
302.894
303.077
303.13
303.145
303.147
303.141
303.121
303.069
302.944
302.681
302.185
301.341
300.068
298.44
296.737
295.381
294.654
294.442
294.424
294.41
302.885
303.072
303.127
303.145
303.148
303.147
303.141
303.123
303.077
302.972
302.751
302.327
301.578
300.393
298.783
297.017
295.566
294.742
294.458
294.413
302.876
303.067
303.125
303.144
303.148
303.149
303.147
303.141
303.127
303.092
303.016
302.859
302.554
302.001
301.065
299.643
297.936
296.452
295.546
294.865
302.868
303.062
303.123
303.143
303.148
303.149
303.149
303.147
303.142
303.13
303.104
303.052
302.952
302.768
302.453
301.927
301.049
299.546
297.264
296.104
302.86
303.057
303.12
303.142
303.148
303.15
303.149
303.149
303.146
303.141
303.13
303.108
303.067
302.99
302.851
302.607
302.149
301.167
298.736
297.5
302.853
303.052
303.118
303.141
303.148
303.15
303.15
303.149
303.148
303.146
303.14
303.129
303.107
303.069
303
302.876
302.646
302.203
301.201
299.742
302.846
303.048
303.115
303.14
303.148
303.149
303.15
303.15
303.149
303.148
303.144
303.138
303.125
303.103
303.063
302.992
302.86
302.607
302.104
301.268
302.839
303.044
303.113
303.14
303.147
303.149
303.15
303.15
303.15
303.149
303.147
303.143
303.134
303.119
303.092
303.047
302.97
302.84
302.634
302.349
302.833
303.04
303.111
303.139
303.147
303.149
303.15
303.15
303.15
303.149
303.148
303.145
303.14
303.128
303.108
303.074
303.022
302.949
302.859
302.741
302.828
303.036
303.108
303.138
303.147
303.149
303.15
303.15
303.15
303.15
303.149
303.147
303.143
303.135
303.119
303.091
303.046
302.98
302.889
302.763
302.823
303.033
303.106
303.137
303.147
303.149
303.15
303.15
303.15
303.15
303.149
303.148
303.145
303.139
303.126
303.102
303.06
302.995
302.898
302.766
302.819
303.03
303.105
303.136
303.146
303.149
303.15
303.15
303.15
303.15
303.15
303.149
303.147
303.142
303.131
303.11
303.071
303.006
302.906
302.768
302.815
303.027
303.103
303.135
303.146
303.149
303.15
303.15
303.15
303.15
303.15
303.149
303.147
303.143
303.134
303.115
303.079
303.014
302.913
302.77
302.812
303.025
303.101
303.135
303.146
303.149
303.15
303.15
303.15
303.15
303.15
303.149
303.148
303.145
303.137
303.12
303.085
303.021
302.918
302.772
302.809
303.023
303.1
303.134
303.146
303.149
303.15
303.15
303.15
303.15
303.15
303.149
303.148
303.146
303.139
303.123
303.09
303.027
302.923
302.774
302.807
303.021
303.099
303.134
303.146
303.149
303.15
303.15
303.15
303.15
303.15
303.15
303.149
303.146
303.14
303.126
303.094
303.032
302.928
302.775
302.805
303.02
303.098
303.133
303.145
303.149
303.15
303.15
303.15
303.15
303.15
303.15
303.149
303.147
303.142
303.128
303.098
303.037
302.931
302.777
302.804
303.019
303.098
303.133
303.145
303.149
303.15
303.15
303.15
303.15
303.15
303.15
303.149
303.147
303.142
303.13
303.101
303.041
302.935
302.778
302.803
303.019
303.097
303.133
303.145
303.149
303.15
303.15
303.15
303.15
303.15
303.15
303.149
303.148
303.143
303.131
303.103
303.044
302.938
302.78
302.803
303.018
303.097
303.133
303.145
303.149
303.15
303.15
303.15
303.15
303.15
303.15
303.149
303.148
303.144
303.133
303.106
303.048
302.941
302.782
302.803
303.018
303.097
303.133
303.145
303.149
303.15
303.15
303.15
303.15
303.15
303.15
303.149
303.148
303.144
303.134
303.108
303.051
302.944
302.783
302.803
303.018
303.097
303.133
303.145
303.149
303.15
303.15
303.15
303.15
303.15
303.15
303.15
303.148
303.145
303.135
303.11
303.053
302.946
302.784
302.803
303.018
303.097
303.133
303.145
303.149
303.15
303.15
303.15
303.15
303.15
303.15
303.15
303.148
303.145
303.136
303.111
303.056
302.949
302.786
302.804
303.018
303.097
303.133
303.145
303.149
303.15
303.15
303.15
303.15
303.15
303.15
303.15
303.149
303.145
303.136
303.113
303.058
302.951
302.787
302.804
303.019
303.097
303.133
303.145
303.149
303.15
303.15
303.15
303.15
303.15
303.15
303.15
303.149
303.146
303.137
303.114
303.06
302.953
302.788
302.805
303.019
303.097
303.133
303.145
303.149
303.15
303.15
303.15
303.15
303.15
303.15
303.15
303.149
303.146
303.138
303.115
303.062
302.955
302.789
302.807
303.02
303.097
303.133
303.145
303.149
303.15
303.15
303.15
303.15
303.15
303.15
303.15
303.149
303.146
303.138
303.116
303.064
302.957
302.791
302.808
303.02
303.098
303.133
303.145
303.149
303.15
303.15
303.15
303.15
303.15
303.15
303.15
303.149
303.146
303.139
303.117
303.065
302.959
302.792
302.809
303.021
303.098
303.133
303.145
303.149
303.15
303.15
303.15
303.15
303.15
303.15
303.15
303.149
303.147
303.139
303.118
303.066
302.96
302.793
302.811
303.021
303.098
303.133
303.145
303.149
303.15
303.15
303.15
303.15
303.15
303.15
303.15
303.149
303.147
303.139
303.119
303.068
302.962
302.794
302.812
303.022
303.098
303.133
303.145
303.149
303.15
303.15
303.15
303.15
303.15
303.15
303.15
303.149
303.147
303.14
303.119
303.069
302.964
302.795
302.814
303.022
303.099
303.134
303.146
303.149
303.15
303.15
303.15
303.15
303.15
303.15
303.15
303.149
303.147
303.14
303.12
303.07
302.965
302.797
302.815
303.023
303.099
303.134
303.146
303.149
303.15
303.15
303.15
303.15
303.15
303.15
303.15
303.149
303.147
303.14
303.12
303.071
302.967
302.798
302.817
303.024
303.099
303.134
303.146
303.149
303.15
303.15
303.15
303.15
303.15
303.15
303.15
303.149
303.147
303.14
303.121
303.073
302.969
302.799
302.819
303.025
303.1
303.134
303.146
303.149
303.15
303.15
303.15
303.15
303.15
303.15
303.15
303.149
303.147
303.141
303.122
303.074
302.971
302.8
302.82
303.025
303.1
303.134
303.146
303.149
303.15
303.15
303.15
303.15
303.15
303.15
303.15
303.149
303.147
303.141
303.122
303.075
302.973
302.801
302.822
303.026
303.101
303.134
303.146
303.149
303.15
303.15
303.15
303.15
303.15
303.15
303.15
303.149
303.147
303.141
303.123
303.076
302.974
302.802
302.824
303.027
303.101
303.135
303.146
303.149
303.15
303.15
303.15
303.15
303.15
303.15
303.15
303.149
303.147
303.141
303.123
303.077
302.976
302.803
302.826
303.028
303.102
303.135
303.146
303.149
303.15
303.15
303.15
303.15
303.15
303.15
303.15
303.149
303.147
303.141
303.124
303.078
302.978
302.804
302.828
303.029