/*--------------------------------*- C++ -*----------------------------------*\
  =========                 |
  \\      /  F ield         | OpenFOAM: The Open Source CFD Toolbox
   \\    /   O peration     | Website:  https://openfoam.org
    \\  /    A nd           | Version:  8
     \\/     M anipulation  |
\*---------------------------------------------------------------------------*/
FoamFile
{
    version     2.0;
    format      ascii;
    class       volScalarField;
    location    "300";
    object      alphat;
}
// * * * * * * * * * * * * * * * * * * * * * * * * * * * * * * * * * * * * * //

dimensions      [1 -1 -1 0 0 0 0];

internalField   nonuniform List<scalar> 
8400
(
0.347654
0.347327
0.346998
0.346668
0.346337
0.346005
0.345671
0.345335
0.344996
0.344656
0.344313
0.343967
0.343618
0.343265
0.34291
0.34255
0.342186
0.341818
0.341446
0.341069
0.340687
0.3403
0.339908
0.33951
0.339107
0.338698
0.338285
0.337871
0.337458
0.337047
0.336639
0.336236
0.335839
0.335452
0.335076
0.334714
0.33437
0.334048
0.333752
0.333489
0.333265
0.333087
0.332965
0.332912
0.332941
0.333072
0.33333
0.333749
0.334372
0.335261
0.147068
0.147149
0.147223
0.147295
0.147365
0.147435
0.147504
0.147572
0.147639
0.147705
0.147771
0.147835
0.147899
0.147962
0.148024
0.148086
0.148149
0.148211
0.148275
0.14834
0.148407
0.148477
0.148551
0.148628
0.148712
0.148802
0.148899
0.148999
0.149102
0.149208
0.14932
0.149437
0.14956
0.14969
0.149828
0.149976
0.150135
0.150307
0.150493
0.150697
0.150921
0.151167
0.15144
0.151745
0.152086
0.152472
0.152911
0.153415
0.153999
0.154684
0.0927506
0.0929335
0.0931166
0.0932996
0.0934823
0.0936647
0.0938467
0.0940282
0.0942093
0.0943899
0.09457
0.0947496
0.0949288
0.0951077
0.0952862
0.0954645
0.0956427
0.0958209
0.0959994
0.0961782
0.0963577
0.0965381
0.0967198
0.0969033
0.0970891
0.0972777
0.0974674
0.0976574
0.0978479
0.0980388
0.0982304
0.0984227
0.0986159
0.0988103
0.099006
0.0992033
0.0994025
0.0996039
0.099808
0.100015
0.100226
0.100441
0.100661
0.100887
0.101121
0.101362
0.101614
0.101879
0.102158
0.102456
0.0874233
0.0875915
0.0877599
0.0879288
0.088098
0.0882677
0.0884379
0.0886085
0.0887796
0.0889512
0.0891233
0.0892959
0.089469
0.0896427
0.0898169
0.0899917
0.0901671
0.0903431
0.0905198
0.0906971
0.0908752
0.0910541
0.0912337
0.091414
0.0915948
0.0917763
0.0919585
0.0921412
0.0923247
0.0925087
0.0926935
0.0928789
0.093065
0.0932518
0.0934393
0.0936275
0.0938165
0.0940062
0.0941967
0.094388
0.0945801
0.0947732
0.0949672
0.0951621
0.0953582
0.0955555
0.0957541
0.0959543
0.0961563
0.0963605
0.0875905
0.0877546
0.0879194
0.0880847
0.0882505
0.0884169
0.0885839
0.0887515
0.0889197
0.0890885
0.089258
0.0894282
0.0895991
0.0897708
0.0899431
0.0901162
0.0902901
0.0904647
0.0906401
0.0908163
0.0909931
0.0911708
0.0913492
0.0915283
0.0917082
0.0918888
0.0920701
0.092252
0.0924346
0.0926179
0.0928017
0.092986
0.0931708
0.0933561
0.0935416
0.0937274
0.0939134
0.0940994
0.0942853
0.0944709
0.094656
0.0948404
0.0950238
0.0952059
0.0953863
0.0955645
0.0957401
0.0959122
0.0960802
0.0962429
0.089095
0.0892662
0.0894379
0.0896101
0.0897828
0.089956
0.0901298
0.0903041
0.0904791
0.0906546
0.0908308
0.0910076
0.0911851
0.0913632
0.091542
0.0917215
0.0919017
0.0920825
0.0922641
0.0924464
0.0926295
0.0928133
0.0929978
0.0931831
0.0933691
0.0935558
0.0937433
0.0939315
0.0941204
0.0943099
0.0945002
0.094691
0.0948825
0.0950745
0.095267
0.0954599
0.0956532
0.0958469
0.0960407
0.0962346
0.0964285
0.0966223
0.0968157
0.0970086
0.0972008
0.097392
0.0975819
0.0977703
0.0979568
0.0981412
0.0900968
0.0902717
0.0904471
0.0906231
0.0907995
0.0909765
0.0911541
0.0913323
0.091511
0.0916904
0.0918705
0.0920512
0.0922326
0.0924147
0.0925975
0.092781
0.0929653
0.0931502
0.093336
0.0935225
0.0937097
0.0938977
0.0940865
0.094276
0.0944663
0.0946572
0.0948489
0.0950413
0.0952343
0.095428
0.0956222
0.095817
0.0960122
0.0962079
0.0964038
0.0966
0.0967962
0.0969925
0.0971885
0.0973841
0.0975791
0.0977733
0.0979663
0.0981578
0.0983475
0.0985347
0.0987191
0.0989
0.0990766
0.0992482
0.0914456
0.091627
0.0918089
0.0919913
0.0921742
0.0923576
0.0925416
0.0927262
0.0929113
0.0930971
0.0932835
0.0934705
0.0936582
0.0938466
0.0940357
0.0942255
0.094416
0.0946072
0.0947992
0.0949919
0.0951854
0.0953797
0.0955747
0.0957704
0.0959669
0.0961642
0.0963621
0.0965608
0.0967602
0.0969602
0.0971608
0.097362
0.0975637
0.0977659
0.0979685
0.0981715
0.0983746
0.0985778
0.098781
0.098984
0.0991866
0.0993886
0.0995899
0.09979
0.0999887
0.100186
0.10038
0.100573
0.100762
0.100947
0.0925641
0.0927506
0.0929376
0.0931252
0.0933132
0.0935018
0.0936909
0.0938806
0.0940709
0.0942618
0.0944533
0.0946455
0.0948384
0.0950319
0.0952262
0.0954212
0.0956169
0.0958133
0.0960105
0.0962085
0.0964072
0.0966067
0.096807
0.097008
0.0972097
0.0974122
0.0976154
0.0978194
0.0980239
0.0982292
0.098435
0.0986413
0.0988482
0.0990554
0.099263
0.0994708
0.0996786
0.0998865
0.100094
0.100301
0.100508
0.100714
0.100918
0.101121
0.101322
0.101521
0.101717
0.10191
0.102098
0.102282
0.0938036
0.0939963
0.0941895
0.0943831
0.0945772
0.0947719
0.094967
0.0951628
0.0953591
0.095556
0.0957536
0.0959518
0.0961507
0.0963503
0.0965506
0.0967516
0.0969533
0.0971558
0.097359
0.097563
0.0977678
0.0979733
0.0981796
0.0983867
0.0985945
0.0988031
0.0990124
0.0992224
0.0994331
0.0996444
0.0998564
0.100069
0.100282
0.100495
0.100709
0.100923
0.101137
0.101351
0.101565
0.101778
0.101991
0.102203
0.102413
0.102623
0.10283
0.103034
0.103236
0.103434
0.103628
0.103818
0.0950072
0.0952061
0.0954057
0.0956058
0.0958063
0.0960074
0.096209
0.0964111
0.0966138
0.0968171
0.097021
0.0972256
0.0974309
0.0976368
0.0978434
0.0980508
0.0982588
0.0984677
0.0986772
0.0988876
0.0990987
0.0993106
0.0995232
0.0997367
0.0999509
0.100166
0.100382
0.100598
0.100815
0.101033
0.101252
0.101471
0.10169
0.10191
0.102131
0.102351
0.102572
0.102793
0.103014
0.103234
0.103454
0.103673
0.103891
0.104108
0.104323
0.104536
0.104746
0.104953
0.105157
0.105356
0.0961573
0.0963625
0.0965681
0.0967742
0.0969806
0.0971876
0.097395
0.097603
0.0978116
0.0980207
0.0982305
0.0984409
0.0986519
0.0988636
0.099076
0.0992891
0.099503
0.0997175
0.0999329
0.100149
0.100366
0.100583
0.100802
0.101021
0.101241
0.101462
0.101683
0.101905
0.102128
0.102352
0.102576
0.1028
0.103026
0.103251
0.103477
0.103703
0.103929
0.104155
0.104381
0.104606
0.10483
0.105054
0.105276
0.105496
0.105713
0.105928
0.106139
0.106346
0.106548
0.106743
0.0974492
0.0976618
0.097875
0.0980887
0.0983028
0.0985174
0.0987324
0.098948
0.0991642
0.0993809
0.0995982
0.0998161
0.100035
0.100254
0.100474
0.100694
0.100916
0.101138
0.101361
0.101584
0.101809
0.102034
0.10226
0.102486
0.102714
0.102942
0.103171
0.103401
0.103632
0.103863
0.104095
0.104328
0.104561
0.104795
0.105029
0.105264
0.105499
0.105734
0.105969
0.106204
0.106439
0.106673
0.106907
0.107139
0.10737
0.1076
0.107827
0.108052
0.108274
0.108492
0.0985012
0.0987206
0.0989404
0.0991604
0.0993809
0.0996017
0.099823
0.100045
0.100267
0.10049
0.100713
0.100937
0.101161
0.101386
0.101612
0.101838
0.102066
0.102293
0.102522
0.102751
0.102981
0.103212
0.103443
0.103675
0.103908
0.104142
0.104376
0.104611
0.104847
0.105083
0.10532
0.105557
0.105795
0.106033
0.106272
0.106511
0.106749
0.106988
0.107226
0.107463
0.107699
0.107934
0.108168
0.108399
0.108627
0.108853
0.109074
0.109289
0.109499
0.109701
0.100106
0.100336
0.100565
0.100795
0.101025
0.101256
0.101487
0.101718
0.10195
0.102182
0.102415
0.102648
0.102882
0.103116
0.103351
0.103587
0.103822
0.104059
0.104296
0.104534
0.104773
0.105012
0.105252
0.105493
0.105734
0.105976
0.106218
0.106462
0.106706
0.10695
0.107195
0.107441
0.107687
0.107933
0.10818
0.108426
0.108673
0.10892
0.109167
0.109413
0.109658
0.109903
0.110146
0.110388
0.110628
0.110866
0.111102
0.111335
0.111566
0.111793
0.101926
0.102173
0.10242
0.102666
0.102912
0.103158
0.103404
0.10365
0.103895
0.10414
0.104385
0.10463
0.104875
0.10512
0.105365
0.10561
0.105855
0.1061
0.106345
0.10659
0.106836
0.107081
0.107327
0.107573
0.107819
0.108064
0.10831
0.108556
0.108801
0.109046
0.109291
0.109535
0.109778
0.11002
0.11026
0.110499
0.110735
0.110968
0.111199
0.111425
0.111646
0.111862
0.112072
0.112273
0.112466
0.112648
0.112819
0.112976
0.113117
0.113241
0.108849
0.109143
0.109437
0.109729
0.110019
0.110307
0.110594
0.110879
0.111163
0.111444
0.111724
0.112002
0.112279
0.112553
0.112827
0.113099
0.113369
0.113638
0.113906
0.114173
0.114438
0.114701
0.114963
0.115224
0.115483
0.11574
0.115995
0.116249
0.116499
0.116747
0.116992
0.117232
0.117469
0.1177
0.117925
0.118144
0.118354
0.118555
0.118745
0.118922
0.119084
0.119228
0.119353
0.119454
0.119528
0.119571
0.119577
0.119541
0.119458
0.11932
0.130973
0.131411
0.131841
0.132265
0.132684
0.133098
0.133507
0.13391
0.134308
0.134701
0.135088
0.13547
0.135847
0.136219
0.136586
0.136948
0.137305
0.137658
0.138005
0.138349
0.138687
0.139021
0.139349
0.139673
0.139991
0.140303
0.140609
0.140907
0.141198
0.14148
0.141752
0.142013
0.14226
0.142493
0.142708
0.142902
0.143073
0.143217
0.143329
0.143403
0.143432
0.14341
0.143326
0.14317
0.142927
0.142579
0.142103
0.141471
0.140645
0.139571
0.197446
0.198011
0.198585
0.199161
0.199738
0.200316
0.200893
0.20147
0.202047
0.202624
0.2032
0.203776
0.204352
0.204927
0.205502
0.206076
0.20665
0.207223
0.207796
0.208369
0.208941
0.209511
0.21008
0.210648
0.211212
0.211774
0.212332
0.212884
0.21343
0.213968
0.214496
0.215012
0.215513
0.215997
0.21646
0.216897
0.217303
0.217673
0.218
0.218274
0.218487
0.218624
0.218671
0.218609
0.218413
0.21805
0.217475
0.216626
0.215421
0.213741
0.377413
0.377858
0.378307
0.37876
0.379216
0.379677
0.380142
0.380611
0.381086
0.381566
0.382053
0.382545
0.383044
0.38355
0.384062
0.384582
0.385109
0.385643
0.386185
0.386733
0.387289
0.387853
0.388424
0.389002
0.389587
0.39018
0.39078
0.391387
0.392
0.392621
0.393249
0.393882
0.394522
0.395168
0.395819
0.396475
0.397135
0.397799
0.398465
0.399132
0.3998
0.400466
0.401128
0.401785
0.402434
0.403071
0.403693
0.404294
0.404868
0.405404
1.08355
1.06874
1.05457
1.04098
1.0279
1.01527
1.00302
0.991133
0.979587
0.968366
0.957457
0.946848
0.936527
0.926484
0.916709
0.907192
0.897925
0.888899
0.880106
0.871537
0.863186
0.855045
0.847108
0.839367
0.831816
0.824451
0.817263
0.81025
0.803404
0.796721
0.790196
0.783826
0.777605
0.77153
0.765597
0.759802
0.754143
0.748616
0.743208
0.737903
0.732695
0.727577
0.722541
0.717578
0.712677
0.707823
0.702992
0.698148
0.693223
0.688086
1.07683
1.05216
1.02859
1.00603
0.984429
0.963764
0.944006
0.9251
0.906993
0.889635
0.872981
0.85699
0.841621
0.826839
0.812612
0.798907
0.785697
0.772956
0.760657
0.74878
0.737301
0.726201
0.715461
0.705063
0.694992
0.68523
0.675764
0.66658
0.657664
0.649003
0.640587
0.632403
0.62444
0.616687
0.609132
0.601765
0.594575
0.587552
0.580698
0.574021
0.567513
0.561168
0.554979
0.54894
0.543044
0.537284
0.531653
0.526143
0.52074
0.51543
1.0768
1.05207
1.02836
1.00568
0.983955
0.963152
0.943214
0.924088
0.905725
0.88808
0.871111
0.854779
0.839049
0.823888
0.809265
0.795152
0.781522
0.768352
0.755619
0.743301
0.731379
0.719833
0.708647
0.697805
0.687289
0.677088
0.667185
0.65757
0.648229
0.639151
0.630326
0.621743
0.613393
0.605267
0.597357
0.589656
0.582155
0.574848
0.567728
0.560788
0.554024
0.547429
0.540999
0.534729
0.528616
0.522654
0.516841
0.511173
0.505648
0.500263
1.0768
1.05225
1.02876
1.00628
0.984746
0.964102
0.944292
0.925267
0.906979
0.889389
0.872456
0.856145
0.840423
0.825259
0.810625
0.796494
0.782841
0.769641
0.756875
0.74452
0.732559
0.720972
0.709742
0.698854
0.688293
0.678044
0.668095
0.658432
0.649043
0.639918
0.631046
0.622417
0.614021
0.60585
0.597895
0.590148
0.582602
0.57525
0.568085
0.561101
0.554293
0.547654
0.54118
0.534867
0.52871
0.522704
0.516847
0.511135
0.505564
0.500131
1.0768
1.05225
1.02875
1.00625
0.984678
0.963996
0.944148
0.925089
0.906775
0.889164
0.872218
0.8559
0.840176
0.825016
0.810389
0.796268
0.782628
0.769444
0.756694
0.744357
0.732415
0.720847
0.709637
0.698768
0.688227
0.677997
0.668066
0.658421
0.649051
0.639943
0.631087
0.622473
0.614093
0.605936
0.597994
0.59026
0.582725
0.575384
0.568229
0.561253
0.554452
0.54782
0.541351
0.535041
0.528884
0.522878
0.517018
0.511299
0.505718
0.500271
1.0768
1.05226
1.02879
1.00633
0.984802
0.964168
0.944369
0.925358
0.907088
0.889517
0.872607
0.85632
0.840623
0.825485
0.810876
0.79677
0.783141
0.769965
0.757221
0.744888
0.732947
0.721378
0.710166
0.699295
0.688749
0.678514
0.668577
0.658925
0.649546
0.64043
0.631565
0.622942
0.614551
0.606383
0.59843
0.590684
0.583137
0.575783
0.568614
0.561625
0.554809
0.54816
0.541674
0.535345
0.529169
0.523141
0.517256
0.511511
0.505901
0.500422
1.0768
1.05227
1.0288
1.00634
0.984815
0.964177
0.944371
0.925349
0.907066
0.889482
0.872558
0.856258
0.840548
0.825399
0.81078
0.796665
0.783029
0.769847
0.757099
0.744762
0.732818
0.721249
0.710037
0.699166
0.688621
0.678388
0.668453
0.658804
0.649428
0.640315
0.631454
0.622834
0.614447
0.606282
0.598333
0.59059
0.583047
0.575695
0.568528
0.56154
0.554725
0.548077
0.54159
0.535259
0.529079
0.523046
0.517155
0.511401
0.50578
0.500287
1.0768
1.05227
1.02881
1.00635
0.984836
0.964207
0.944411
0.925401
0.907131
0.889559
0.872648
0.856361
0.840664
0.825526
0.810918
0.796814
0.783186
0.770013
0.757272
0.744942
0.733003
0.721438
0.710229
0.699361
0.688817
0.678585
0.66865
0.659
0.649623
0.640508
0.631643
0.62302
0.614628
0.606459
0.598504
0.590755
0.583204
0.575845
0.568669
0.561671
0.554845
0.548185
0.541685
0.535339
0.529144
0.523093
0.517182
0.511406
0.505761
0.500242
1.0768
1.05227
1.02881
1.00636
0.984842
0.964215
0.94442
0.925409
0.907137
0.889563
0.872648
0.856357
0.840655
0.825512
0.8109
0.79679
0.783158
0.76998
0.757234
0.744899
0.732957
0.721388
0.710176
0.699304
0.688758
0.678524
0.668587
0.658935
0.649556
0.640439
0.631574
0.622949
0.614556
0.606385
0.598428
0.590677
0.583125
0.575762
0.568584
0.561583
0.554752
0.548087
0.541581
0.535228
0.529024
0.522964
0.517042
0.511254
0.505595
0.500059
1.0768
1.05227
1.02881
1.00636
0.984846
0.96422
0.944427
0.925418
0.907148
0.889576
0.872664
0.856375
0.840676
0.825536
0.810926
0.796819
0.78319
0.770014
0.757271
0.744938
0.732998
0.72143
0.71022
0.699349
0.688804
0.678569
0.668632
0.65898
0.6496
0.640482
0.631615
0.622988
0.614593
0.606419
0.598459
0.590704
0.583146
0.575779
0.568594
0.561586
0.554748
0.548074
0.541558
0.535194
0.528977
0.522903
0.516965
0.511159
0.505481
0.499925
1.0768
1.05227
1.02881
1.00636
0.984846
0.96422
0.944426
0.925417
0.907148
0.889576
0.872663
0.856374
0.840675
0.825535
0.810925
0.796818
0.783188
0.770012
0.757268
0.744935
0.732994
0.721426
0.710215
0.699343
0.688797
0.678562
0.668623
0.65897
0.649589
0.640469
0.6316
0.622971
0.614573
0.606396
0.598433
0.590674
0.583112
0.575739
0.568549
0.561535
0.55469
0.548007
0.541482
0.535108
0.52888
0.522792
0.51684
0.511019
0.505323
0.499747
1.0768
1.05227
1.02881
1.00636
0.984842
0.964215
0.944419
0.925408
0.907136
0.889562
0.872647
0.856355
0.840653
0.82551
0.810896
0.796786
0.783153
0.769974
0.757227
0.744891
0.732947
0.721377
0.710163
0.69929
0.688741
0.678504
0.668564
0.658908
0.649525
0.640404
0.631533
0.622902
0.614502
0.606323
0.598357
0.590595
0.583031
0.575655
0.568461
0.561442
0.554591
0.547903
0.54137
0.534988
0.528751
0.522653
0.516689
0.510853
0.505142
0.49955
1.0768
1.05227
1.02881
1.00635
0.984836
0.964206
0.944411
0.9254
0.90713
0.889558
0.872646
0.856358
0.84066
0.825521
0.810913
0.796807
0.783178
0.770003
0.75726
0.744928
0.732987
0.721419
0.710207
0.699334
0.688787
0.678549
0.668609
0.658952
0.649568
0.640445
0.631571
0.622937
0.614534
0.606351
0.59838
0.590613
0.583042
0.575659
0.568458
0.56143
0.55457
0.547871
0.541327
0.534932
0.52868
0.522566
0.516585
0.51073
0.504999
0.499384
1.0768
1.05227
1.0288
1.00634
0.984815
0.964176
0.94437
0.925347
0.907065
0.88948
0.872555
0.856254
0.840544
0.825393
0.810773
0.796656
0.783018
0.769835
0.757084
0.744745
0.732798
0.721225
0.710008
0.699133
0.688582
0.678343
0.668401
0.658743
0.649358
0.640235
0.631361
0.622727
0.614324
0.606141
0.598171
0.590404
0.582833
0.57545
0.568247
0.561219
0.554357
0.547656
0.541108
0.534709
0.528452
0.522332
0.516342
0.510479
0.504736
0.499108
1.0768
1.05226
1.02879
1.00633
0.984802
0.964167
0.944368
0.925357
0.907086
0.889515
0.872603
0.856315
0.840617
0.825477
0.810866
0.796758
0.783127
0.769948
0.757201
0.744864
0.732918
0.721345
0.710127
0.699249
0.688696
0.678452
0.668506
0.658843
0.649452
0.640322
0.631441
0.622799
0.614388
0.606196
0.598217
0.59044
0.582859
0.575465
0.568251
0.56121
0.554335
0.547619
0.541057
0.534641
0.528367
0.522227
0.516217
0.510331
0.504563
0.498908
1.0768
1.05225
1.02875
1.00625
0.984678
0.963995
0.944147
0.925088
0.906773
0.889161
0.872214
0.855895
0.84017
0.825007
0.810378
0.796255
0.782612
0.769425
0.756672
0.744331
0.732384
0.720811
0.709594
0.698719
0.688169
0.67793
0.667989
0.658332
0.648947
0.639823
0.630949
0.622314
0.613909
0.605724
0.597751
0.589981
0.582406
0.575017
0.567808
0.560772
0.553901
0.547188
0.540628
0.534214
0.527939
0.521799
0.515786
0.509896
0.504123
0.498461
1.0768
1.05225
1.02876
1.00628
0.984745
0.964101
0.944291
0.925265
0.906977
0.889385
0.872451
0.856138
0.840415
0.825249
0.810612
0.796478
0.782822
0.769619
0.756848
0.744489
0.732521
0.720928
0.709691
0.698794
0.688224
0.677964
0.668002
0.658324
0.64892
0.639776
0.630883
0.62223
0.613808
0.605606
0.597616
0.58983
0.582239
0.574835
0.567612
0.560562
0.553677
0.546953
0.540381
0.533957
0.527674
0.521526
0.515508
0.509617
0.503847
0.498195
1.0768
1.05207
1.02836
1.00567
0.983955
0.963151
0.943212
0.924086
0.905722
0.888076
0.871106
0.854773
0.839041
0.823878
0.809252
0.795137
0.781505
0.768331
0.755595
0.743273
0.731346
0.719795
0.708604
0.697755
0.687233
0.677024
0.667113
0.657489
0.648139
0.639051
0.630214
0.621619
0.613256
0.605115
0.597188
0.589467
0.581945
0.574612
0.567465
0.560494
0.553696
0.547064
0.540594
0.534282
0.528124
0.522119
0.516267
0.51057
0.505036
0.499683
1.07683
1.05216
1.02859
1.00602
0.984428
0.963763
0.944005
0.925099
0.906992
0.889635
0.872982
0.856991
0.841623
0.826842
0.812616
0.798914
0.785707
0.772969
0.760675
0.748803
0.737331
0.726239
0.71551
0.705125
0.695069
0.685328
0.675886
0.66673
0.65785
0.649233
0.640868
0.632747
0.62486
0.617199
0.609756
0.602525
0.5955
0.588676
0.582047
0.575612
0.569367
0.563312
0.557447
0.551775
0.546301
0.541034
0.535992
0.531206
0.526733
0.522687
1.08355
1.06874
1.05457
1.04098
1.0279
1.01527
1.00302
0.991132
0.979584
0.968362
0.957452
0.94684
0.936517
0.926471
0.916693
0.907172
0.897901
0.888869
0.880069
0.871493
0.863134
0.854983
0.847033
0.839279
0.831713
0.824329
0.817121
0.810082
0.803208
0.796493
0.78993
0.783516
0.777245
0.771111
0.76511
0.759237
0.753487
0.747855
0.742337
0.736927
0.73162
0.726412
0.721297
0.71627
0.711323
0.706451
0.701647
0.6969
0.6922
0.68753
0.463769
0.251445
0.19436
0.186921
0.183056
0.181796
0.179062
0.177378
0.175033
0.173065
0.171047
0.168841
0.167138
0.16467
0.163294
0.160467
0.160185
0.163126
0.20798
0.388779
0.46434
0.252051
0.195053
0.187635
0.18378
0.18251
0.179778
0.178086
0.17574
0.173766
0.171746
0.169534
0.167828
0.165355
0.163974
0.161143
0.160856
0.163797
0.20865
0.389331
0.464917
0.252637
0.195748
0.188354
0.18451
0.18323
0.1805
0.178799
0.176453
0.174473
0.17245
0.170233
0.168523
0.166047
0.16466
0.161827
0.161533
0.164473
0.209316
0.389832
0.465499
0.253217
0.196445
0.189079
0.185245
0.183956
0.181228
0.179519
0.177173
0.175185
0.173161
0.170939
0.169225
0.166745
0.165352
0.162516
0.162215
0.165152
0.209935
0.39034
0.466086
0.253797
0.197148
0.189809
0.185987
0.184688
0.181962
0.180245
0.177899
0.175904
0.173878
0.17165
0.169933
0.167449
0.166051
0.163213
0.162904
0.165831
0.210539
0.390855
0.466677
0.25438
0.197856
0.190546
0.186735
0.185426
0.182702
0.180976
0.178631
0.17663
0.174601
0.172368
0.170647
0.16816
0.166756
0.163916
0.163598
0.166512
0.211136
0.391377
0.467273
0.254966
0.19857
0.191289
0.187489
0.18617
0.183449
0.181715
0.179369
0.177361
0.175331
0.173093
0.171368
0.168877
0.167467
0.164625
0.164299
0.167196
0.211731
0.391905
0.467875
0.255558
0.19929
0.192038
0.188249
0.18692
0.184202
0.182459
0.180114
0.178099
0.176067
0.173824
0.172095
0.169601
0.168185
0.165341
0.165006
0.167884
0.212328
0.39244
0.468481
0.256155
0.200016
0.192793
0.189016
0.187677
0.184962
0.18321
0.180865
0.178843
0.17681
0.174561
0.172829
0.170331
0.16891
0.166063
0.165719
0.168578
0.212927
0.392981
0.469093
0.256757
0.200749
0.193555
0.18979
0.18844
0.185728
0.183967
0.181623
0.179594
0.177559
0.175305
0.173569
0.171068
0.169641
0.166792
0.166439
0.169277
0.21353
0.393528
0.46971
0.257365
0.201489
0.194323
0.19057
0.18921
0.186501
0.184731
0.182387
0.180352
0.178315
0.176056
0.174316
0.171812
0.170379
0.167528
0.167165
0.169982
0.214137
0.394082
0.470331
0.257979
0.202236
0.195098
0.191357
0.189986
0.18728
0.185502
0.183158
0.181116
0.179077
0.176814
0.17507
0.172562
0.171124
0.16827
0.167898
0.170693
0.21475
0.394642
0.470959
0.258598
0.202989
0.19588
0.192151
0.19077
0.188066
0.186279
0.183936
0.181887
0.179846
0.177578
0.17583
0.17332
0.171876
0.169019
0.168637
0.171411
0.215368
0.395209
0.471591
0.259224
0.203749
0.196668
0.192951
0.191559
0.18886
0.187064
0.184721
0.182665
0.180623
0.178349
0.176598
0.174084
0.172634
0.169775
0.169384
0.172136
0.215992
0.395783
0.472229
0.259856
0.204517
0.197463
0.193759
0.192356
0.18966
0.187855
0.185513
0.18345
0.181406
0.179128
0.177373
0.174855
0.1734
0.170539
0.170137
0.172867
0.216622
0.396363
0.472873
0.260493
0.205291
0.198265
0.194573
0.19316
0.190467
0.188653
0.186312
0.184242
0.182196
0.179913
0.178154
0.175634
0.174173
0.171309
0.170898
0.173605
0.217259
0.396951
0.473522
0.261137
0.206073
0.199074
0.195395
0.193971
0.191281
0.189458
0.187118
0.185042
0.182994
0.180706
0.178943
0.17642
0.174952
0.172086
0.171665
0.174351
0.217902
0.397545
0.474176
0.261787
0.206862
0.19989
0.196223
0.194788
0.192103
0.190271
0.187931
0.185848
0.183799
0.181506
0.179739
0.177213
0.175739
0.172871
0.17244
0.175103
0.218553
0.398146
0.474836
0.262443
0.207658
0.200713
0.197059
0.195613
0.192931
0.19109
0.188751
0.186662
0.184611
0.182313
0.180543
0.178013
0.176534
0.173664
0.173222
0.175863
0.21921
0.398754
0.475502
0.263105
0.208461
0.201544
0.197903
0.196446
0.193767
0.191918
0.189579
0.187483
0.18543
0.183128
0.181353
0.178821
0.177336
0.174463
0.174012
0.17663
0.219874
0.399369
0.476174
0.263773
0.209272
0.202381
0.198754
0.197285
0.194611
0.192752
0.190415
0.188311
0.186257
0.18395
0.182172
0.179636
0.178145
0.175271
0.174809
0.177405
0.220545
0.399992
0.476851
0.264448
0.210091
0.203226
0.199612
0.198133
0.195462
0.193594
0.191258
0.189148
0.187092
0.18478
0.182998
0.18046
0.178962
0.176086
0.175613
0.178188
0.221224
0.400622
0.477535
0.265129
0.210917
0.204079
0.200478
0.198987
0.196321
0.194444
0.192108
0.189992
0.187934
0.185618
0.183832
0.18129
0.179787
0.176909
0.176426
0.178979
0.22191
0.401259
0.478224
0.265816
0.21175
0.204939
0.201352
0.19985
0.197188
0.195301
0.192967
0.190843
0.188784
0.186463
0.184673
0.182129
0.18062
0.177739
0.177246
0.179777
0.222604
0.401904
0.478919
0.26651
0.212592
0.205807
0.202233
0.20072
0.198062
0.196167
0.193833
0.191703
0.189642
0.187317
0.185523
0.182976
0.18146
0.178578
0.178075
0.180584
0.223305
0.402557
0.479621
0.26721
0.213441
0.206683
0.203123
0.201598
0.198944
0.19704
0.194707
0.192571
0.190508
0.188178
0.18638
0.183831
0.182309
0.179425
0.178911
0.181399
0.224015
0.403218
0.480328
0.267916
0.214298
0.207566
0.20402
0.202484
0.199835
0.197921
0.19559
0.193446
0.191382
0.189048
0.187246
0.184694
0.183166
0.18028
0.179755
0.182222
0.224732
0.403886
0.481042
0.268629
0.215163
0.208457
0.204925
0.203378
0.200733
0.19881
0.19648
0.19433
0.192264
0.189926
0.18812
0.185565
0.184031
0.181144
0.180608
0.183053
0.225458
0.404562
0.481761
0.269349
0.216036
0.209357
0.205839
0.20428
0.20164
0.199708
0.197379
0.195222
0.193155
0.190812
0.189002
0.186445
0.184904
0.182016
0.181469
0.183893
0.226192
0.405246
0.482487
0.270076
0.216918
0.210264
0.206761
0.20519
0.202555
0.200614
0.198286
0.196123
0.194054
0.191707
0.189893
0.187334
0.185786
0.182896
0.182339
0.184742
0.226934
0.405939
0.48322
0.270809
0.217808
0.21118
0.207692
0.206109
0.203479
0.201528
0.199202
0.197032
0.194962
0.192611
0.190793
0.188231
0.186677
0.183786
0.183217
0.185599
0.227684
0.40664
0.483959
0.271549
0.218706
0.212105
0.208631
0.207037
0.204411
0.202451
0.200127
0.19795
0.195878
0.193523
0.191701
0.189136
0.187576
0.184684
0.184104
0.186466
0.228444
0.407349
0.484704
0.272296
0.219612
0.213037
0.209578
0.207972
0.205352
0.203383
0.20106
0.198877
0.196803
0.194444
0.192618
0.190051
0.188484
0.185591
0.185
0.187341
0.229212
0.408067
0.485455
0.27305
0.220528
0.213979
0.210535
0.208917
0.206301
0.204323
0.202002
0.199812
0.197737
0.195374
0.193544
0.190975
0.189401
0.186507
0.185905
0.188226
0.229988
0.408793
0.486214
0.273811
0.221452
0.214929
0.2115
0.20987
0.20726
0.205273
0.202953
0.200757
0.19868
0.196313
0.194479
0.191908
0.190328
0.187432
0.18682
0.18912
0.230774
0.409529
0.486978
0.274579
0.222384
0.215888
0.212474
0.210833
0.208227
0.206231
0.203913
0.201711
0.199632
0.197261
0.195423
0.19285
0.191263
0.188367
0.187743
0.190023
0.231569
0.410273
0.48775
0.275355
0.223326
0.216856
0.213457
0.211804
0.209204
0.207199
0.204882
0.202674
0.200594
0.198219
0.196376
0.193801
0.192208
0.189311
0.188676
0.190936
0.232373
0.411026
0.488528
0.276138
0.224277
0.217832
0.21445
0.212785
0.21019
0.208176
0.205861
0.203646
0.201565
0.199186
0.197339
0.194762
0.193163
0.190265
0.189618
0.191859
0.233187
0.411788
0.489313
0.276928
0.225237
0.218819
0.215451
0.213775
0.211185
0.209162
0.206849
0.204628
0.202545
0.200163
0.198312
0.195733
0.194127
0.191229
0.19057
0.192791
0.23401
0.41256
0.490105
0.277726
0.226206
0.219814
0.216463
0.214774
0.21219
0.210158
0.207846
0.205619
0.203535
0.20115
0.199294
0.196714
0.195101
0.192202
0.191532
0.193734
0.234842
0.413341
0.490904
0.278532
0.227185
0.220819
0.217484
0.215783
0.213205
0.211164
0.208854
0.206621
0.204535
0.202146
0.200287
0.197705
0.196085
0.193186
0.192504
0.194687
0.235685
0.414132
0.49171
0.279346
0.228173
0.221833
0.218514
0.216802
0.214229
0.21218
0.209871
0.207632
0.205545
0.203153
0.201289
0.198705
0.197079
0.194179
0.193487
0.19565
0.236538
0.414932
0.492523
0.280167
0.229171
0.222857
0.219555
0.217831
0.215264
0.213205
0.210899
0.208654
0.206565
0.20417
0.202302
0.199717
0.198083
0.195183
0.194479
0.196623
0.2374
0.415743
0.493344
0.280996
0.230179
0.223891
0.220605
0.218869
0.216308
0.214241
0.211936
0.209685
0.207596
0.205197
0.203325
0.200738
0.199098
0.196198
0.195482
0.197607
0.238274
0.416563
0.494171
0.281834
0.231197
0.224935
0.221666
0.219918
0.217363
0.215287
0.212984
0.210727
0.208637
0.206234
0.204358
0.20177
0.200123
0.197223
0.196496
0.198603
0.239157
0.417394
0.495006
0.282679
0.232225
0.225989
0.222737
0.220977
0.218428
0.216343
0.214043
0.21178
0.209688
0.207283
0.205402
0.202813
0.201159
0.19826
0.19752
0.199609
0.240051
0.418235
0.495848
0.283533
0.233263
0.227054
0.223818
0.222046
0.219504
0.21741
0.215112
0.212844
0.21075
0.208342
0.206457
0.203867
0.202206
0.199307
0.198555
0.200626
0.240956
0.419086
0.496698
0.284396
0.234312
0.228129
0.22491
0.223127
0.22059
0.218488
0.216192
0.213918
0.211823
0.209412
0.207523
0.204932
0.203264
0.200365
0.199602
0.201655
0.241872
0.419948
0.497555
0.285267
0.235371
0.229214
0.226013
0.224217
0.221687
0.219577
0.217282
0.215003
0.212907
0.210493
0.2086
0.206008
0.204334
0.201435
0.20066
0.202695
0.2428
0.420821
0.49842
0.286147
0.236441
0.23031
0.227126
0.225319
0.222796
0.220677
0.218384
0.2161
0.214002
0.211586
0.209689
0.207096
0.205414
0.202516
0.201729
0.203746
0.243738
0.421705
0.499293
0.287035
0.237521
0.231417
0.228251
0.226432
0.223915
0.221788
0.219498
0.217208
0.215109
0.21269
0.210789
0.208195
0.206507
0.20361
0.20281
0.20481
0.244688
0.422601
0.500173
0.287933
0.238613
0.232535
0.229387
0.227556
0.225046
0.22291
0.220622
0.218327
0.216227
0.213806
0.2119
0.209306
0.207611
0.204715
0.203903
0.205886
0.24565
0.423507
0.501062
0.288839
0.239716
0.233665
0.230534
0.228692
0.226188
0.224044
0.221759
0.219459
0.217358
0.214934
0.213024
0.210429
0.208727
0.205832
0.205008
0.206974
0.246624
0.424425
0.501958
0.289755
0.24083
0.234806
0.231693
0.229839
0.227342
0.22519
0.222907
0.220602
0.2185
0.216073
0.21416
0.211565
0.209856
0.206961
0.206126
0.208075
0.24761
0.425355
0.502862
0.290681
0.241955
0.235958
0.232863
0.230998
0.228508
0.226347
0.224067
0.221757
0.219654
0.217226
0.215308
0.212712
0.210996
0.208103
0.207256
0.209188
0.248608
0.426297
0.503775
0.291616
0.243093
0.237122
0.234045
0.232168
0.229685
0.227517
0.225239
0.222925
0.22082
0.21839
0.216468
0.213873
0.21215
0.209258
0.208398
0.210315
0.249619
0.427251
0.504696
0.29256
0.244242
0.238298
0.23524
0.233351
0.230875
0.2287
0.226424
0.224105
0.222
0.219567
0.217641
0.215046
0.213316
0.210426
0.209554
0.211454
0.250643
0.428218
0.505625
0.293515
0.245403
0.239486
0.236446
0.234547
0.232078
0.229894
0.227622
0.225298
0.223191
0.220757
0.218827
0.216232
0.214495
0.211607
0.210722
0.212607
0.25168
0.429196
0.506563
0.294479
0.246576
0.240686
0.237665
0.235755
0.233293
0.231102
0.228832
0.226503
0.224396
0.22196
0.220026
0.217432
0.215688
0.212801
0.211904
0.213773
0.25273
0.430188
0.50751
0.295454
0.247762
0.241899
0.238897
0.236975
0.234521
0.232322
0.230055
0.227722
0.225614
0.223177
0.221239
0.218644
0.216894
0.214009
0.2131
0.214954
0.253793
0.431193
0.508465
0.296439
0.248961
0.243125
0.240142
0.238208
0.235761
0.233556
0.231291
0.228954
0.226846
0.224407
0.222465
0.219871
0.218113
0.21523
0.214309
0.216148
0.25487
0.432211
0.509428
0.297435
0.250172
0.244363
0.241399
0.239455
0.237015
0.234803
0.232541
0.2302
0.22809
0.225651
0.223705
0.221111
0.219347
0.216466
0.215532
0.217357
0.255962
0.433242
0.510401
0.298441
0.251396
0.245614
0.24267
0.240715
0.238283
0.236063
0.233804
0.23146
0.229349
0.226908
0.224958
0.222366
0.220595
0.217716
0.21677
0.21858
0.257067
0.434287
0.511383
0.299458
0.252633
0.246879
0.243954