/*--------------------------------*- C++ -*----------------------------------*\
  =========                 |
  \\      /  F ield         | OpenFOAM: The Open Source CFD Toolbox
   \\    /   O peration     | Website:  https://openfoam.org
    \\  /    A nd           | Version:  8
     \\/     M anipulation  |
\*---------------------------------------------------------------------------*/
FoamFile
{
    version     2.0;
    format      ascii;
    class       volScalarField;
    location    "300";
    object      nut;
}
// * * * * * * * * * * * * * * * * * * * * * * * * * * * * * * * * * * * * * //

dimensions      [0 2 -1 0 0 0 0];

internalField   nonuniform List<scalar> 
8400
(
0.000348417
0.000348089
0.000347759
0.000347429
0.000347097
0.000346764
0.000346429
0.000346092
0.000345753
0.000345412
0.000345068
0.000344721
0.000344371
0.000344018
0.000343662
0.000343301
0.000342937
0.000342568
0.000342195
0.000341817
0.000341434
0.000341046
0.000340653
0.000340254
0.00033985
0.00033944
0.000339027
0.000338612
0.000338198
0.000337786
0.000337377
0.000336973
0.000336576
0.000336187
0.00033581
0.000335447
0.000335103
0.00033478
0.000334484
0.00033422
0.000333995
0.000333817
0.000333695
0.000333642
0.000333671
0.000333802
0.000334061
0.000334481
0.000335106
0.000335996
0.000147395
0.000147476
0.00014755
0.000147622
0.000147693
0.000147763
0.000147832
0.0001479
0.000147967
0.000148034
0.000148099
0.000148164
0.000148227
0.00014829
0.000148353
0.000148415
0.000148478
0.000148541
0.000148605
0.00014867
0.000148737
0.000148807
0.000148881
0.000148959
0.000149042
0.000149133
0.00014923
0.00014933
0.000149433
0.00014954
0.000149652
0.000149769
0.000149892
0.000150022
0.000150161
0.000150309
0.000150469
0.000150641
0.000150828
0.000151032
0.000151256
0.000151503
0.000151777
0.000152082
0.000152425
0.000152811
0.000153251
0.000153756
0.000154341
0.000155028
9.29575e-05
9.31408e-05
9.33243e-05
9.35077e-05
9.36909e-05
9.38736e-05
9.4056e-05
9.42379e-05
9.44194e-05
9.46004e-05
9.47809e-05
9.4961e-05
9.51406e-05
9.53198e-05
9.54987e-05
9.56774e-05
9.5856e-05
9.60346e-05
9.62135e-05
9.63927e-05
9.65726e-05
9.67534e-05
9.69355e-05
9.71195e-05
9.73056e-05
9.74947e-05
9.76848e-05
9.78752e-05
9.80661e-05
9.82575e-05
9.84494e-05
9.86422e-05
9.88359e-05
9.90307e-05
9.92268e-05
9.94246e-05
9.96242e-05
9.98261e-05
0.000100031
0.000100238
0.00010045
0.000100665
0.000100886
0.000101113
0.000101346
0.000101589
0.000101841
0.000102106
0.000102386
0.000102685
8.76185e-05
8.7787e-05
8.79558e-05
8.8125e-05
8.82946e-05
8.84647e-05
8.86353e-05
8.88063e-05
8.89777e-05
8.91497e-05
8.93222e-05
8.94951e-05
8.96686e-05
8.98427e-05
9.00173e-05
9.01925e-05
9.03683e-05
9.05447e-05
9.07218e-05
9.08995e-05
9.1078e-05
9.12573e-05
9.14373e-05
9.16179e-05
9.17992e-05
9.19811e-05
9.21636e-05
9.23468e-05
9.25307e-05
9.27152e-05
9.29003e-05
9.30862e-05
9.32727e-05
9.34599e-05
9.36478e-05
9.38365e-05
9.40259e-05
9.4216e-05
9.4407e-05
9.45987e-05
9.47913e-05
9.49848e-05
9.51792e-05
9.53747e-05
9.55712e-05
9.5769e-05
9.59681e-05
9.61688e-05
9.63713e-05
9.6576e-05
8.7786e-05
8.79505e-05
8.81156e-05
8.82813e-05
8.84475e-05
8.86142e-05
8.87816e-05
8.89495e-05
8.91181e-05
8.92873e-05
8.94572e-05
8.96278e-05
8.97991e-05
8.99711e-05
9.01438e-05
9.03173e-05
9.04916e-05
9.06666e-05
9.08424e-05
9.10189e-05
9.11962e-05
9.13742e-05
9.1553e-05
9.17326e-05
9.19128e-05
9.20938e-05
9.22755e-05
9.24579e-05
9.26409e-05
9.28245e-05
9.30088e-05
9.31935e-05
9.33787e-05
9.35644e-05
9.37504e-05
9.39366e-05
9.4123e-05
9.43094e-05
9.44957e-05
9.46818e-05
9.48673e-05
9.50521e-05
9.5236e-05
9.54185e-05
9.55994e-05
9.57781e-05
9.5954e-05
9.61266e-05
9.6295e-05
9.64582e-05
8.92939e-05
8.94654e-05
8.96375e-05
8.98101e-05
8.99832e-05
9.01568e-05
9.0331e-05
9.05057e-05
9.0681e-05
9.0857e-05
9.10335e-05
9.12107e-05
9.13886e-05
9.15671e-05
9.17463e-05
9.19262e-05
9.21068e-05
9.2288e-05
9.247e-05
9.26528e-05
9.28362e-05
9.30204e-05
9.32054e-05
9.3391e-05
9.35775e-05
9.37646e-05
9.39525e-05
9.41411e-05
9.43304e-05
9.45204e-05
9.47111e-05
9.49023e-05
9.50942e-05
9.52867e-05
9.54796e-05
9.5673e-05
9.58668e-05
9.60608e-05
9.62551e-05
9.64495e-05
9.66439e-05
9.68381e-05
9.70319e-05
9.72253e-05
9.74179e-05
9.76096e-05
9.78e-05
9.79889e-05
9.81759e-05
9.83607e-05
9.02979e-05
9.04732e-05
9.0649e-05
9.08254e-05
9.10022e-05
9.11796e-05
9.13576e-05
9.15361e-05
9.17153e-05
9.18951e-05
9.20755e-05
9.22566e-05
9.24384e-05
9.2621e-05
9.28042e-05
9.29881e-05
9.31727e-05
9.33581e-05
9.35443e-05
9.37312e-05
9.39188e-05
9.41073e-05
9.42965e-05
9.44864e-05
9.46771e-05
9.48685e-05
9.50606e-05
9.52534e-05
9.54469e-05
9.5641e-05
9.58356e-05
9.60309e-05
9.62265e-05
9.64226e-05
9.6619e-05
9.68156e-05
9.70123e-05
9.7209e-05
9.74055e-05
9.76016e-05
9.7797e-05
9.79917e-05
9.81851e-05
9.83771e-05
9.85672e-05
9.87549e-05
9.89398e-05
9.91211e-05
9.92982e-05
9.94702e-05
9.16498e-05
9.18316e-05
9.20139e-05
9.21967e-05
9.238e-05
9.25638e-05
9.27482e-05
9.29332e-05
9.31187e-05
9.33049e-05
9.34917e-05
9.36792e-05
9.38673e-05
9.40561e-05
9.42456e-05
9.44358e-05
9.46267e-05
9.48184e-05
9.50108e-05
9.5204e-05
9.53979e-05
9.55925e-05
9.5788e-05
9.59842e-05
9.61811e-05
9.63788e-05
9.65772e-05
9.67763e-05
9.69761e-05
9.71766e-05
9.73777e-05
9.75793e-05
9.77815e-05
9.79842e-05
9.81872e-05
9.83906e-05
9.85942e-05
9.87979e-05
9.90016e-05
9.9205e-05
9.94081e-05
9.96106e-05
9.98123e-05
0.000100013
0.000100212
0.00010041
0.000100605
0.000100797
0.000100987
0.000101173
9.27708e-05
9.29576e-05
9.31451e-05
9.33331e-05
9.35215e-05
9.37105e-05
9.39001e-05
9.40902e-05
9.42809e-05
9.44722e-05
9.46642e-05
9.48568e-05
9.50501e-05
9.5244e-05
9.54387e-05
9.56341e-05
9.58303e-05
9.60272e-05
9.62248e-05
9.64232e-05
9.66224e-05
9.68223e-05
9.7023e-05
9.72245e-05
9.74267e-05
9.76296e-05
9.78333e-05
9.80377e-05
9.82427e-05
9.84484e-05
9.86547e-05
9.88615e-05
9.90688e-05
9.92765e-05
9.94846e-05
9.96928e-05
9.99012e-05
0.000100109
0.000100318
0.000100525
0.000100732
0.000100939
0.000101144
0.000101347
0.000101549
0.000101748
0.000101944
0.000102137
0.000102326
0.000102511
9.4013e-05
9.42062e-05
9.43998e-05
9.45939e-05
9.47884e-05
9.49835e-05
9.51791e-05
9.53752e-05
9.5572e-05
9.57694e-05
9.59674e-05
9.6166e-05
9.63654e-05
9.65654e-05
9.67661e-05
9.69675e-05
9.71697e-05
9.73727e-05
9.75763e-05
9.77808e-05
9.7986e-05
9.8192e-05
9.83988e-05
9.86063e-05
9.88146e-05
9.90236e-05
9.92334e-05
9.94439e-05
9.9655e-05
9.98669e-05
0.000100079
0.000100292
0.000100506
0.00010072
0.000100934
0.000101148
0.000101363
0.000101577
0.000101792
0.000102006
0.000102219
0.000102431
0.000102642
0.000102852
0.000103059
0.000103265
0.000103467
0.000103666
0.00010386
0.00010405
9.52193e-05
9.54187e-05
9.56188e-05
9.58193e-05
9.60202e-05
9.62217e-05
9.64238e-05
9.66263e-05
9.68295e-05
9.70333e-05
9.72376e-05
9.74427e-05
9.76484e-05
9.78548e-05
9.80618e-05
9.82697e-05
9.84782e-05
9.86875e-05
9.88975e-05
9.91083e-05
9.93199e-05
9.95323e-05
9.97454e-05
9.99593e-05
0.000100174
0.000100389
0.000100606
0.000100823
0.00010104
0.000101259
0.000101478
0.000101697
0.000101917
0.000102138
0.000102359
0.00010258
0.000102801
0.000103023
0.000103244
0.000103465
0.000103685
0.000103905
0.000104123
0.000104341
0.000104556
0.000104769
0.00010498
0.000105188
0.000105392
0.000105592
9.6372e-05
9.65777e-05
9.67838e-05
9.69902e-05
9.71972e-05
9.74046e-05
9.76125e-05
9.7821e-05
9.803e-05
9.82396e-05
9.84498e-05
9.86606e-05
9.88721e-05
9.90843e-05
9.92972e-05
9.95108e-05
9.97251e-05
9.99402e-05
0.000100156
0.000100373
0.00010059
0.000100808
0.000101027
0.000101247
0.000101467
0.000101688
0.00010191
0.000102133
0.000102356
0.00010258
0.000102805
0.00010303
0.000103256
0.000103482
0.000103708
0.000103935
0.000104161
0.000104388
0.000104614
0.00010484
0.000105065
0.000105288
0.000105511
0.000105731
0.00010595
0.000106165
0.000106377
0.000106584
0.000106786
0.000106982
9.76668e-05
9.78799e-05
9.80936e-05
9.83077e-05
9.85223e-05
9.87374e-05
9.89529e-05
9.9169e-05
9.93856e-05
9.96028e-05
9.98206e-05
0.000100039
0.000100258
0.000100478
0.000100698
0.000100919
0.000101141
0.000101364
0.000101587
0.000101811
0.000102036
0.000102262
0.000102488
0.000102715
0.000102943
0.000103172
0.000103402
0.000103632
0.000103863
0.000104095
0.000104327
0.000104561
0.000104794
0.000105029
0.000105264
0.000105499
0.000105734
0.00010597
0.000106206
0.000106441
0.000106677
0.000106912
0.000107146
0.000107379
0.00010761
0.00010784
0.000108068
0.000108293
0.000108516
0.000108735
9.87212e-05
9.89411e-05
9.91613e-05
9.93819e-05
9.96028e-05
9.98241e-05
0.000100046
0.000100268
0.000100491
0.000100714
0.000100938
0.000101162
0.000101387
0.000101613
0.000101839
0.000102066
0.000102293
0.000102522
0.000102751
0.00010298
0.000103211
0.000103442
0.000103674
0.000103907
0.00010414
0.000104374
0.000104609
0.000104845
0.000105081
0.000105318
0.000105555
0.000105793
0.000106031
0.00010627
0.000106509
0.000106748
0.000106988
0.000107227
0.000107465
0.000107703
0.00010794
0.000108176
0.000108409
0.000108641
0.00010887
0.000109096
0.000109317
0.000109534
0.000109744
0.000109947
0.00010033
0.00010056
0.00010079
0.00010102
0.000101251
0.000101482
0.000101714
0.000101946
0.000102178
0.000102411
0.000102644
0.000102878
0.000103112
0.000103347
0.000103582
0.000103818
0.000104054
0.000104291
0.000104529
0.000104768
0.000105007
0.000105246
0.000105487
0.000105728
0.00010597
0.000106212
0.000106456
0.000106699
0.000106944
0.000107189
0.000107434
0.000107681
0.000107927
0.000108174
0.000108421
0.000108669
0.000108916
0.000109163
0.00010941
0.000109657
0.000109903
0.000110148
0.000110392
0.000110635
0.000110875
0.000111114
0.000111351
0.000111584
0.000111815
0.000112043
0.000102153
0.000102401
0.000102649
0.000102896
0.000103142
0.000103389
0.000103635
0.000103881
0.000104127
0.000104373
0.000104618
0.000104864
0.000105109
0.000105355
0.0001056
0.000105846
0.000106091
0.000106337
0.000106583
0.000106828
0.000107074
0.000107321
0.000107567
0.000107813
0.000108059
0.000108306
0.000108552
0.000108798
0.000109044
0.00010929
0.000109535
0.000109779
0.000110023
0.000110265
0.000110506
0.000110745
0.000110982
0.000111216
0.000111447
0.000111674
0.000111896
0.000112112
0.000112322
0.000112524
0.000112717
0.0001129
0.000113071
0.000113228
0.00011337
0.000113494
0.000109092
0.000109387
0.000109681
0.000109974
0.000110265
0.000110554
0.000110841
0.000111127
0.000111411
0.000111693
0.000111973
0.000112252
0.000112529
0.000112805
0.000113079
0.000113351
0.000113622
0.000113892
0.000114161
0.000114427
0.000114693
0.000114957
0.00011522
0.000115481
0.000115741
0.000115999
0.000116254
0.000116508
0.000116759
0.000117008
0.000117253
0.000117494
0.000117731
0.000117963
0.000118189
0.000118407
0.000118618
0.00011882
0.00011901
0.000119187
0.00011935
0.000119495
0.00011962
0.000119721
0.000119795
0.000119838
0.000119844
0.000119809
0.000119725
0.000119587
0.000131265
0.000131704
0.000132135
0.00013256
0.00013298
0.000133395
0.000133805
0.000134209
0.000134608
0.000135002
0.00013539
0.000135773
0.00013615
0.000136523
0.000136891
0.000137253
0.000137611
0.000137965
0.000138313
0.000138657
0.000138996
0.000139331
0.00013966
0.000139984
0.000140303
0.000140616
0.000140922
0.000141221
0.000141513
0.000141796
0.000142068
0.000142329
0.000142577
0.00014281
0.000143026
0.000143221
0.000143393
0.000143537
0.000143648
0.000143723
0.000143752
0.00014373
0.000143646
0.00014349
0.000143246
0.000142897
0.000142421
0.000141787
0.000140959
0.000139883
0.000197886
0.000198451
0.000199027
0.000199604
0.000200183
0.000200761
0.00020134
0.000201918
0.000202497
0.000203075
0.000203652
0.000204229
0.000204806
0.000205383
0.000205959
0.000206534
0.000207109
0.000207684
0.000208258
0.000208832
0.000209405
0.000209977
0.000210547
0.000211116
0.000211682
0.000212245
0.000212804
0.000213357
0.000213904
0.000214443
0.000214973
0.00021549
0.000215992
0.000216477
0.000216941
0.000217379
0.000217786
0.000218157
0.000218484
0.00021876
0.000218972
0.00021911
0.000219157
0.000219095
0.000218899
0.000218535
0.000217959
0.000217108
0.0002159
0.000214217
0.000378243
0.000378688
0.000379139
0.000379592
0.00038005
0.000380511
0.000380977
0.000381448
0.000381923
0.000382405
0.000382892
0.000383386
0.000383886
0.000384392
0.000384906
0.000385427
0.000385955
0.00038649
0.000387033
0.000387583
0.00038814
0.000388705
0.000389277
0.000389856
0.000390443
0.000391037
0.000391638
0.000392246
0.000392861
0.000393483
0.000394112
0.000394747
0.000395389
0.000396036
0.000396688
0.000397346
0.000398007
0.000398672
0.00039934
0.000400009
0.000400678
0.000401345
0.000402009
0.000402668
0.000403318
0.000403957
0.00040458
0.000405182
0.000405758
0.000406296
0.00108926
0.00107437
0.00106012
0.00104646
0.00103331
0.00102061
0.0010083
0.000996353
0.000984746
0.000973466
0.000962499
0.000951833
0.000941458
0.000931362
0.000921535
0.000911968
0.000902652
0.000893578
0.000884738
0.000876124
0.000867729
0.000859545
0.000851565
0.000843783
0.000836193
0.000828788
0.000821563
0.000814512
0.00080763
0.000800912
0.000794353
0.000787949
0.000781695
0.000775587
0.000769623
0.000763797
0.000758108
0.000752552
0.000747116
0.000741783
0.000736547
0.000731402
0.000726339
0.00072135
0.000716423
0.000711543
0.000706687
0.000701817
0.000696866
0.000691702
0.0010825
0.0010577
0.00103401
0.00101132
0.000989613
0.00096884
0.000948978
0.000929972
0.000911769
0.00089432
0.000877579
0.000861503
0.000846053
0.000831194
0.000816891
0.000803114
0.000789835
0.000777026
0.000764663
0.000752723
0.000741184
0.000730025
0.000719229
0.000708776
0.000698652
0.000688839
0.000679323
0.00067009
0.000661127
0.000652421
0.00064396
0.000635733
0.000627729
0.000619934
0.00061234
0.000604934
0.000597706
0.000590646
0.000583756
0.000577044
0.000570502
0.000564123
0.000557902
0.000551831
0.000545904
0.000540114
0.000534453
0.000528913
0.000523482
0.000518144
0.00108247
0.00105761
0.00103378
0.00101097
0.000989138
0.000968225
0.000948181
0.000928955
0.000910495
0.000892757
0.000875699
0.000859281
0.000843468
0.000828227
0.000813527
0.000799339
0.000785638
0.000772399
0.000759599
0.000747216
0.000735231
0.000723624
0.00071238
0.00070148
0.000690909
0.000680654
0.000670699
0.000661033
0.000651643
0.000642518
0.000633646
0.000625018
0.000616623
0.000608454
0.000600503
0.000592761
0.000585221
0.000577875
0.000570718
0.000563742
0.000556942
0.000550312
0.000543849
0.000537546
0.0005314
0.000525407
0.000519563
0.000513866
0.000508311
0.000502897
0.00108247
0.00105779
0.00103417
0.00101158
0.000989932
0.00096918
0.000949266
0.00093014
0.000911756
0.000894073
0.000877051
0.000860654
0.000844849
0.000829606
0.000814895
0.000800689
0.000786964
0.000773695
0.000760861
0.000748442
0.000736417
0.000724769
0.00071348
0.000702535
0.000691918
0.000681615
0.000671613
0.000661899
0.000652461
0.000643288
0.00063437
0.000625695
0.000617255
0.00060904
0.000601043
0.000593256
0.00058567
0.000578279
0.000571077
0.000564056
0.000557212
0.000550538
0.000544031
0.000537684
0.000531494
0.000525457
0.000519569
0.000513827
0.000508227
0.000502765
0.00108247
0.00105779
0.00103417
0.00101155
0.000989864
0.000969073
0.000949121
0.000929962
0.000911551
0.000893847
0.000876812
0.000860408
0.000844601
0.000829361
0.000814657
0.000800462
0.00078675
0.000773496
0.000760679
0.000748278
0.000736272
0.000724643
0.000713374
0.000702449
0.000691851
0.000681568
0.000671585
0.000661889
0.000652469
0.000643313
0.000634411
0.000625752
0.000617327
0.000609127
0.000601143
0.000593368
0.000585794
0.000578414
0.000571221
0.000564209
0.000557372
0.000550705
0.000544202
0.000537858
0.00053167
0.000525632
0.000519741
0.000513992
0.000508382
0.000502906
0.00108247
0.00105781
0.00103421
0.00101163
0.000989989
0.000969246
0.000949343
0.000930232
0.000911865
0.000894202
0.000877203
0.00086083
0.00084505
0.000829832
0.000815147
0.000800966
0.000787265
0.000774021
0.000761209
0.000748811
0.000736807
0.000725178
0.000713907
0.000702978
0.000692376
0.000682088
0.000672098
0.000662395
0.000652967
0.000643803
0.000634891
0.000626223
0.000617787
0.000609577
0.000601582
0.000593795
0.000586209
0.000578816
0.000571609
0.000564583
0.000557731
0.000551047
0.000544527
0.000538165
0.000531956
0.000525896
0.000519981
0.000514205
0.000508566
0.000503057
0.00108247
0.00105781
0.00103422
0.00101164
0.000990002
0.000969255
0.000949344
0.000930222
0.000911844
0.000894167
0.000877153
0.000860767
0.000844975
0.000829746
0.00081505
0.000800861
0.000787153
0.000773902
0.000761086
0.000748685
0.000736678
0.000725048
0.000713777
0.000702848
0.000692248
0.000681961
0.000671974
0.000662273
0.000652849
0.000643687
0.000634779
0.000626114
0.000617683
0.000609476
0.000601484
0.000593701
0.000586117
0.000578727
0.000571523
0.000564498
0.000557647
0.000550963
0.000544442
0.000538078
0.000531866
0.000525801
0.000519879
0.000514095
0.000508444
0.000502922
0.00108247
0.00105781
0.00103423
0.00101165
0.000990023
0.000969285
0.000949385
0.000930275
0.000911908
0.000894244
0.000877244
0.000860871
0.000845091
0.000829874
0.000815189
0.00080101
0.000787311
0.000774069
0.00076126
0.000748865
0.000736864
0.000725238
0.00071397
0.000703044
0.000692445
0.000682159
0.000672172
0.000662471
0.000653044
0.000643881
0.00063497
0.000626301
0.000617865
0.000609653
0.000601656
0.000593866
0.000586276
0.000578877
0.000571664
0.00056463
0.000557768
0.000551072
0.000544538
0.000538159
0.00053193
0.000525848
0.000519906
0.0005141
0.000508425
0.000502877
0.00108247
0.00105781
0.00103423
0.00101166
0.000990029
0.000969293
0.000949394
0.000930283
0.000911915
0.000894248
0.000877244
0.000860867
0.000845083
0.00082986
0.00081517
0.000800986
0.000787282
0.000774035
0.000761222
0.000748822
0.000736817
0.000725187
0.000713916
0.000702988
0.000692386
0.000682097
0.000672108
0.000662405
0.000652977
0.000643812
0.0006349
0.00062623
0.000617793
0.000609579
0.00060158
0.000593788
0.000586196
0.000578795
0.000571579
0.00056454
0.000557674
0.000550974
0.000544433
0.000538047
0.000531811
0.000525718
0.000519765
0.000513946
0.000508257
0.000502693
0.00108247
0.00105781
0.00103423
0.00101166
0.000990033
0.000969298
0.000949401
0.000930292
0.000911926
0.000894262
0.00087726
0.000860885
0.000845104
0.000829884
0.000815197
0.000801016
0.000787315
0.00077407
0.000761259
0.000748862
0.000736858
0.00072523
0.00071396
0.000703032
0.000692431
0.000682143
0.000672154
0.000662451
0.000653022
0.000643856
0.000634942
0.00062627
0.00061783
0.000609613
0.000601611
0.000593815
0.000586218
0.000578811
0.000571589
0.000564544
0.00055767
0.000550961
0.00054441
0.000538013
0.000531763
0.000525657
0.000519688
0.000513852
0.000508143
0.000502558
0.00108247
0.00105781
0.00103423
0.00101166
0.000990033
0.000969298
0.000949401
0.000930291
0.000911925
0.000894261
0.00087726
0.000860885
0.000845103
0.000829883
0.000815196
0.000801014
0.000787313
0.000774068
0.000761257
0.000748859
0.000736855
0.000725226
0.000713955
0.000703027
0.000692425
0.000682135
0.000672145
0.00066244
0.00065301
0.000643842
0.000634926
0.000626252
0.000617809
0.00060959
0.000601584
0.000593785
0.000586183
0.000578772
0.000571544
0.000564493
0.000557611
0.000550894
0.000544334
0.000537926
0.000531665
0.000525546
0.000519562
0.00051371
0.000507984
0.000502379
0.00108247
0.00105781
0.00103423
0.00101166
0.000990029
0.000969293
0.000949393
0.000930282
0.000911914
0.000894247
0.000877243
0.000860865
0.000845081
0.000829858
0.000815167
0.000800982
0.000787278
0.000774029
0.000761215
0.000748815
0.000736808
0.000725176
0.000713903
0.000702973
0.000692369
0.000682077
0.000672085
0.000662378
0.000652946
0.000643777
0.000634859
0.000626182
0.000617738
0.000609516
0.000601508
0.000593706
0.000586101
0.000578687
0.000571455
0.000564399
0.000557512
0.000550788
0.000544222
0.000537806
0.000531536
0.000525405
0.00051941
0.000513544
0.000507803
0.000502181
0.00108247
0.00105781
0.00103423
0.00101165
0.000990022
0.000969285
0.000949385
0.000930274
0.000911907
0.000894243
0.000877242
0.000860868
0.000845088
0.000829869
0.000815184
0.000801003
0.000787303
0.000774059
0.000761249
0.000748851
0.000736847
0.000725218
0.000713947
0.000703018
0.000692414
0.000682123
0.00067213
0.000662423
0.000652989
0.000643818
0.000634897
0.000626218
0.00061777
0.000609544
0.000601532
0.000593724
0.000586113
0.000578691
0.000571452
0.000564387
0.000557491
0.000550756
0.000544178
0.000537749
0.000531464
0.000525318
0.000519305
0.00051342
0.000507658
0.000502014
0.00108247
0.00105781
0.00103422
0.00101164
0.000990002
0.000969254
0.000949344
0.000930221
0.000911842
0.000894165
0.000877151
0.000860764
0.000844971
0.00082974
0.000815043
0.000800852
0.000787142
0.000773889
0.000761071
0.000748667
0.000736657
0.000725023
0.000713748
0.000702815
0.000692209
0.000681916
0.000671921
0.000662213
0.000652778
0.000643607
0.000634686
0.000626007
0.000617559
0.000609334
0.000601321
0.000593513
0.000585903
0.000578481
0.00057124
0.000564175
0.000557277
0.00055054
0.000543958
0.000537525
0.000531235
0.000525083
0.000519062
0.000513167
0.000507394
0.000501737
0.00108247
0.00105781
0.00103421
0.00101163
0.000989989
0.000969245
0.000949342
0.00093023
0.000911863
0.000894199
0.000877199
0.000860825
0.000845044
0.000829825
0.000815137
0.000800954
0.000787251
0.000774003
0.000761189
0.000748787
0.000736778
0.000725144
0.000713867
0.000702932
0.000692323
0.000682026
0.000672027
0.000662313
0.000652873
0.000643694
0.000634766
0.000626079
0.000617623
0.000609389
0.000601367
0.00059355
0.000585928
0.000578495
0.000571243
0.000564165
0.000557254
0.000550503
0.000543906
0.000537457
0.000531149
0.000524978
0.000518936
0.000513018
0.000507221
0.000501536
0.00108247
0.00105779
0.00103417
0.00101155
0.000989864
0.000969072
0.00094912
0.00092996
0.000911549
0.000893844
0.000876808
0.000860402
0.000844595
0.000829353
0.000814647
0.000800449
0.000786734
0.000773478
0.000760657
0.000748252
0.000736241
0.000724607
0.000713332
0.000702399
0.000691794
0.000681501
0.000671507
0.000661799
0.000652365
0.000643193
0.000634272
0.000625592
0.000617142
0.000608915
0.0006009
0.000593088
0.000585473
0.000578046
0.000570799
0.000563725
0.000556818
0.00055007
0.000543475
0.000537027
0.00053072
0.000524547
0.000518503
0.000512581
0.000506778
0.000501086
0.00108247
0.00105779
0.00103417
0.00101158
0.000989932
0.000969179
0.000949265
0.000930138
0.000911754
0.000894069
0.000877046
0.000860647
0.000844841
0.000829595
0.000814882
0.000800673
0.000786945
0.000773672
0.000760834
0.00074841
0.000736379
0.000724724
0.000713428
0.000702475
0.000691848
0.000681535
0.00067152
0.000661792
0.000652338
0.000643146
0.000634206
0.000625508
0.000617041
0.000608795
0.000600763
0.000592936
0.000585305
0.000577863
0.000570601
0.000563514
0.000556594
0.000549834
0.000543227
0.000536769
0.000530453
0.000524273
0.000518223
0.000512301
0.0005065
0.000500819
0.00108247
0.00105761
0.00103378
0.00101097
0.000989137
0.000968224
0.00094818
0.000928953
0.000910492
0.000892754
0.000875694
0.000859275
0.00084346
0.000828217
0.000813515
0.000799325
0.000785621
0.000772378
0.000759574
0.000747187
0.000735198
0.000723586
0.000712336
0.00070143
0.000690852
0.000680589
0.000670627
0.000660952
0.000651552
0.000642416
0.000633533
0.000624893
0.000616486
0.000608302
0.000600334
0.000592572
0.000585009
0.000577639
0.000570453
0.000563446
0.000556612
0.000549945
0.000543441
0.000537096
0.000530906
0.000524869
0.000518986
0.000513259
0.000507696
0.000502315
0.0010825
0.0010577
0.00103401
0.00101132
0.000989613
0.000968839
0.000948977
0.000929971
0.000911769
0.00089432
0.00087758
0.000861504
0.000846055
0.000831197
0.000816896
0.000803121
0.000789845
0.000777039
0.000764681
0.000752746
0.000741214
0.000730064
0.000719278
0.000708839
0.00069873
0.000688937
0.000679445
0.000670242
0.000661314
0.000652652
0.000644243
0.000636079
0.000628151
0.000620449
0.000612967
0.000605698
0.000598636
0.000591775
0.000585112
0.000578643
0.000572365
0.000566278
0.000560382
0.00055468
0.000549177
0.000543883
0.000538815
0.000534003
0.000529506
0.000525439
0.00108926
0.00107437
0.00106012
0.00104646
0.00103331
0.00102061
0.0010083
0.000996352
0.000984743
0.000973462
0.000962493
0.000951826
0.000941448
0.000931349
0.000921519
0.000911948
0.000902627
0.000893548
0.000884701
0.00087608
0.000867676
0.000859482
0.000851491
0.000843695
0.000836089
0.000828666
0.00082142
0.000814344
0.000807434
0.000800683
0.000794085
0.000787637
0.000781332
0.000775166
0.000769133
0.000763229
0.000757449
0.000751787
0.00074624
0.000740801
0.000735467
0.000730231
0.000725089
0.000720035
0.000715062
0.000710165
0.000705334
0.000700563
0.000695838
0.000691144
0.000466196
0.000252767
0.000195384
0.000187905
0.00018402
0.000182754
0.000180005
0.000178312
0.000175955
0.000173977
0.000171948
0.00016973
0.000168018
0.000165537
0.000164154
0.000161312
0.000161029
0.000163985
0.000209073
0.000390811
0.00046677
0.000253376
0.00019608
0.000188623
0.000184748
0.000183471
0.000180724
0.000179024
0.000176666
0.000174681
0.00017265
0.000170427
0.000168711
0.000166226
0.000164837
0.000161992
0.000161703
0.000164659
0.000209747
0.000391366
0.00046735
0.000253965
0.000196778
0.000189346
0.000185481
0.000184195
0.00018145
0.000179741
0.000177383
0.000175392
0.000173358
0.00017113
0.000169411
0.000166921
0.000165527
0.000162679
0.000162383
0.000165339
0.000210415
0.000391869
0.000467935
0.000254548
0.00019748
0.000190074
0.000186221
0.000184925
0.000182182
0.000180464
0.000178106
0.000176108
0.000174073
0.000171839
0.000170116
0.000167623
0.000166223
0.000163372
0.00016307
0.000166022
0.000211038
0.00039238
0.000468525
0.000255131
0.000198186
0.000190809
0.000186967
0.00018566
0.00018292
0.000181194
0.000178836
0.000176831
0.000174794
0.000172554
0.000170828
0.000168331
0.000166926
0.000164072
0.000163762
0.000166704
0.000211645
0.000392898
0.000469119
0.000255717
0.000198898
0.000191549
0.000187718
0.000186402
0.000183665
0.00018193
0.000179571
0.00017756
0.000175521
0.000173276
0.000171546
0.000169045
0.000167634
0.000164779
0.00016446
0.000167388
0.000212245
0.000393422
0.000469719
0.000256307
0.000199615
0.000192296
0.000188476
0.00018715
0.000184415
0.000182672
0.000180314
0.000178295
0.000176254
0.000174005
0.000172271
0.000169766
0.000168349
0.000165492
0.000165164
0.000168076
0.000212844
0.000393953
0.000470323
0.000256902
0.000200339
0.000193049
0.000189241
0.000187905
0.000185172
0.00018342
0.000181062
0.000179037
0.000176994
0.000174739
0.000173002
0.000170494
0.000169071
0.000166212
0.000165875
0.000168768
0.000213443
0.000394491
0.000470933
0.000257501
0.00020107
0.000193809
0.000190012
0.000188665
0.000185936
0.000184175
0.000181817
0.000179785
0.000177741
0.000175481
0.000173739
0.000171228
0.0001698
0.000166938
0.000166592
0.000169465
0.000214046
0.000395034
0.000471548
0.000258107
0.000201807
0.000194574
0.00019079
0.000189433
0.000186706
0.000184936
0.000182579
0.00018054
0.000178494
0.000176229
0.000174483
0.000171969
0.000170535
0.00016767
0.000167315
0.000170168
0.000214652
0.000395585
0.000472168
0.000258718
0.00020255
0.000195347
0.000191574
0.000190207
0.000187483
0.000185704
0.000183348
0.000181302
0.000179254
0.000176983
0.000175234
0.000172717
0.000171277
0.00016841
0.000168045
0.000170877
0.000215263
0.000396142
0.000472793
0.000259335
0.000203301
0.000196126
0.000192365
0.000190987
0.000188267
0.000186479
0.000184123
0.00018207
0.00018002
0.000177745
0.000175992
0.000173471
0.000172026
0.000169156
0.000168782
0.000171592
0.000215878
0.000396705
0.000473424
0.000259958
0.000204058
0.000196911
0.000193163
0.000191774
0.000189057
0.000187261
0.000184905
0.000182845
0.000180794
0.000178513
0.000176756
0.000174232
0.000172781
0.000169909
0.000169525
0.000172314
0.0002165
0.000397275
0.00047406
0.000260587
0.000204822
0.000197704
0.000193967
0.000192568
0.000189854
0.000188049
0.000185694
0.000183627
0.000181574
0.000179289
0.000177528
0.000175001
0.000173544
0.00017067
0.000170276
0.000173042
0.000217127
0.000397852
0.000474701
0.000261222
0.000205594
0.000198503
0.000194779
0.000193369
0.000190659
0.000188844
0.00018649
0.000184416
0.000182361
0.000180071
0.000178307
0.000175776
0.000174313
0.000171437
0.000171033
0.000173777
0.000217761
0.000398435
0.000475348
0.000261863
0.000206372
0.000199309
0.000195598
0.000194177
0.00019147
0.000189647
0.000187293
0.000185213
0.000183156
0.000180861
0.000179093
0.000176559
0.00017509
0.000172211
0.000171798
0.000174519
0.000218401
0.000399026
0.000476
0.00026251
0.000207158
0.000200122
0.000196424
0.000194992
0.000192289
0.000190456
0.000188103
0.000186016
0.000183958
0.000181658
0.000179886
0.000177349
0.000175874
0.000172993
0.000172569
0.000175268
0.000219048
0.000399623
0.000476658
0.000263164
0.000207951
0.000200943
0.000197257
0.000195814
0.000193114
0.000191273
0.000188921
0.000186827
0.000184767
0.000182462
0.000180686
0.000178146
0.000176665
0.000173782
0.000173348
0.000176025
0.000219701
0.000400227
0.000477322
0.000263823
0.000208751
0.00020177
0.000198097
0.000196644
0.000193947
0.000192097
0.000189745
0.000187645
0.000185583
0.000183273
0.000181493
0.000178951
0.000177464
0.000174578
0.000174134
0.000176789
0.000220362
0.000400839
0.000477992
0.000264489
0.000209559
0.000202605
0.000198945
0.00019748
0.000194788
0.000192928
0.000190578
0.00018847
0.000186407
0.000184092
0.000182309
0.000179763
0.00017827
0.000175382
0.000174928
0.00017756
0.000221029
0.000401457
0.000478667
0.000265161
0.000210374
0.000203447
0.0001998
0.000198325
0.000195636
0.000193767
0.000191418
0.000189303
0.000187238
0.000184919
0.000183131
0.000180583
0.000179083
0.000176194
0.000175729
0.000178339
0.000221704
0.000402083
0.000479348
0.000265839
0.000211197
0.000204297
0.000200663
0.000199176
0.000196492
0.000194614
0.000192265
0.000190144
0.000188077
0.000185753
0.000183962
0.00018141
0.000179905
0.000177013
0.000176538
0.000179126
0.000222386
0.000402717
0.000480035
0.000266523
0.000212027
0.000205154
0.000201534
0.000200035
0.000197355
0.000195468
0.00019312
0.000190992
0.000188924
0.000186595
0.0001848
0.000182245
0.000180734
0.00017784
0.000177355
0.000179921
0.000223076
0.000403357
0.000480728
0.000267214
0.000212865
0.000206018
0.000202412
0.000200902
0.000198226
0.00019633
0.000193983
0.000191848
0.000189778