/*--------------------------------*- C++ -*----------------------------------*\
  =========                 |
  \\      /  F ield         | OpenFOAM: The Open Source CFD Toolbox
   \\    /   O peration     | Website:  https://openfoam.org
    \\  /    A nd           | Version:  8
     \\/     M anipulation  |
\*---------------------------------------------------------------------------*/
FoamFile
{
    version     2.0;
    format      ascii;
    class       volScalarField;
    location    "300";
    object      p_rgh;
}
// * * * * * * * * * * * * * * * * * * * * * * * * * * * * * * * * * * * * * //

dimensions      [1 -1 -2 0 0 0 0];

internalField   nonuniform List<scalar> 
8400
(
1.19095
20.0314
35.894
51.2019
66.2645
81.3138
96.4976
111.932
127.722
143.972
160.787
178.282
196.584
215.836
236.203
257.869
281.045
305.975
332.945
362.285
394.377
429.657
468.632
511.934
560.314
614.512
675.226
743.413
820.316
907.33
1006.06
1118.33
1246.29
1392.38
1559.46
1750.81
1970.28
2222.31
2512.15
2845.89
3230.71
3675.09
4189.65
4788.27
5487.3
6300.82
7243.93
8377.17
9866.56
11806
-8.78017
4.89474
18.5292
32.6017
46.7389
60.9519
75.3072
89.8893
104.784
120.082
135.879
152.282
169.407
187.387
206.373
226.538
248.077
271.216
296.218
323.395
353.106
385.755
421.793
461.752
506.238
555.969
611.852
674.856
746.041
826.682
918.264
1022.5
1141.38
1277.18
1432.54
1610.5
1814.56
2048.77
2317.8
2627.02
2982.6
3391.61
3862.54
4405.8
5032.6
5751.29
6569.02
7516.6
8677.05
10100.9
22.4947
40.4888
56.5103
71.7099
86.8129
102.04
117.503
133.288
149.478
166.158
183.427
201.393
220.176
239.911
260.756
282.892
306.52
331.872
359.221
388.887
421.247
456.711
495.701
538.704
586.321
639.275
698.453
764.837
839.52
923.78
1019.09
1127.16
1249.95
1389.73
1549.12
1731.14
1939.25
2177.44
2450.31
2763.11
3121.8
3533.17
4005.05
4546.44
5166.46
5872.11
6669.22
7572.64
8612.89
9785.2
-14.4326
-10.2129
-0.362383
11.5808
24.2512
37.2571
50.5021
63.9897
77.7629
91.8808
106.416
121.453
137.088
153.426
170.597
188.749
208.049
228.686
250.878
274.875
300.985
329.597
361.168
396.166
435.097
478.593
527.375
582.277
644.264
714.458
794.156
884.856
988.29
1106.46
1241.66
1396.54
1574.13
1777.94
2011.93
2280.63
2589.18
2943.32
3349.6
3815.25
4347.5
4952.47
5635.61
6406.01
7278.37
8249.08
37.7381
59.2317
76.1166
91.1211
105.804
120.584
135.607
150.946
166.661
182.817
199.486
216.749
234.702
253.452
273.126
293.877
315.871
339.288
364.326
391.222
420.223
451.645
485.886
523.406
564.709
610.381
661.094
717.616
780.83
851.755
931.561
1021.59
1123.4
1238.77
1369.71
1518.55
1687.93
1880.81
2100.56
2350.9
2635.94
2960.12
3328.23
3745.18
4215.46
4742.27
5327.12
5972.03
6683.23
7459.35
-22.7634
-22.4469
-14.4374
-3.61152
8.17494
20.3814
32.8551
45.5683
58.5379
71.8036
85.4146
99.4318
113.925
128.977
144.685
161.165
178.563
197.053
216.819
238.066
261.028
285.961
313.182
343.056
376.008
412.531
453.195
498.659
549.685
607.152
672.075
745.623
829.147
924.196
1032.55
1156.23
1297.55
1459.13
1643.89
1855.09
2096.28
2371.3
2684.12
3038.73
3438.69
3886.3
4381.75
4924.04
5515.25
6156.01
45.0071
68.774
85.9271
100.393
114.247
128.062
142.023
156.2
170.635
185.365
200.437
215.9
231.813
248.239
265.254
282.937
301.387
320.727
341.114
362.716
385.724
410.357
436.872
465.564
496.77
530.881
568.35
609.697
655.52
706.509
763.458
827.282
899.034
979.916
1071.31
1174.78
1292.1
1425.28
1576.56
1748.39
1943.47
2164.63
2414.81
2696.86
3013.37
3365.91
3754.24
4176.99
4635.74
5132.91
-27.2807
-28.8152
-21.684
-11.4141
-0.112954
11.6148
23.5907
35.7745
48.1661
60.7839
73.6608
86.8382
100.366
114.299
128.704
143.651
159.215
175.49
192.587
210.634
229.774
250.179
272.042
295.591
321.086
348.831
379.175
412.52
449.33
490.137
535.556
586.294
643.164
707.096
779.152
860.538
952.617
1056.92
1175.15
1309.17
1461
1632.73
1826.5
2044.38
2288.17
2558.94
2856.31
3179.12
3528.78
3908.55
47.2327
71.3696
88.0278
101.64
114.461
127.113
139.786
152.54
165.394
178.359
191.449
204.681
218.075
231.659
245.468
259.539
273.917
288.659
303.827
319.494
335.745
352.682
370.42
389.091
408.854
429.892
452.416
476.672
502.944
531.561
562.909
597.429
635.634
678.115
725.55
778.717
838.504
905.913
982.073
1068.24
1165.77
1276.14
1400.85
1541.43
1699.3
1875.47
2070.04
2282.71
2515.31
2771.72
-28.4159
-30.6776
-24.0865
-14.3097
-3.51792
7.66078
19.0365
30.5514
42.1892
53.947
65.8302
77.8464
90.0054
102.321
114.812
127.495
140.394
153.536
166.952
180.675
194.746
209.212
224.124
239.544
255.538
272.185
289.575
307.808
327.001
347.29
368.829
391.796
416.398
442.874
471.501
502.601
536.545
573.765
614.762
660.112
710.474
766.597
829.326
899.6
978.453
1066.85
1165.47
1275.09
1398.16
1539.29
46.2168
69.683
85.5503
98.3294
110.254
121.932
133.537
145.11
156.651
168.149
179.59
190.962
202.247
213.431
224.5
235.44
246.233
256.858
267.295
277.521
287.514
297.244
306.681
315.791
324.534
332.869
340.745
348.112
354.911
361.076
366.538
371.219
375.034
377.897
379.717
380.405
379.876
378.052
374.878
370.342
364.489
357.448
349.497
341.098
332.981
326.171
322.02
322.506
331.076
352.993
-27.2756
-29.6987
-23.624
-14.5235
-4.49552
5.83689
16.2695
26.7249
37.162
47.5537
57.8762
68.1039
78.2113
88.1706
97.9512
107.52
116.835
125.849
134.509
142.757
150.522
157.722
164.261
170.03
174.897
178.716
181.312
182.486
182.009
179.615
174.995
167.8
157.625
144.014
126.455
104.367
77.1119
43.9962
4.27101
-42.8337
-98.0754
-162.151
-235.593
-318.655
-411.159
-512.311
-620.395
-732.474
-844.012
-947.784
42.765
64.9107
79.9268
92.0821
103.434
114.522
125.489
136.348
147.078
157.646
168.013
178.135
187.966
197.455
206.544
215.165
223.242
230.688
237.402
243.271
248.162
251.925
254.382
255.33
254.532
251.721
246.584
238.764
227.848
213.359
194.753
171.408
142.611
107.554
65.3205
14.8851
-44.8996
-115.293
-197.658
-293.434
-404.102
-531.086
-675.643
-838.661
-1020.44
-1220.4
-1436.52
-1664.68
-1898.36
-2128.38
-23.8035
-25.8001
-20.1275
-11.7576
-2.60128
6.74412
16.0664
25.2658
34.2793
43.0544
51.5385
59.6747
67.3996
74.6459
81.3359
87.3784
92.6718
97.1004
100.529
102.8
103.738
103.136
100.755
96.3202
89.5131
79.9682
67.2629
50.9092
30.3448
4.91854
-26.1165
-63.6168
-108.569
-162.103
-225.511
-300.262
-388.009
-490.619
-610.16
-748.895
-909.256
-1093.77
-1304.92
-1544.91
-1815.38
-2117.06
-2449.03
-2807.48
-3184.54
-3566.09
35.906
55.9143
69.8943
81.5347
92.5128
103.245
113.819
124.224
134.42
144.357
153.976
163.213
171.996
180.243
187.861
194.742
200.763
205.78
209.627
212.112
213.012
212.07
208.987
203.416
194.956
183.14
167.427
147.194
121.714
90.1474
51.5232
4.72091
-51.5534
-118.796
-198.725
-293.304
-404.782
-535.706
-688.933
-867.646
-1075.32
-1315.67
-1592.5
-1909.31
-2268.95
-2673.21
-3122.21
-3612.22
-4132.06
-4661.37
-17.2568
-17.5405
-11.572
-3.47601
5.17116
13.855
22.3741
30.6229
38.5255
46.0112
53.0031
59.4176
65.1627
70.1342
74.2126
77.261
79.1216
79.612
78.5223
75.6113
70.6022
63.174
52.9563
39.5226
22.3784
0.952135
-25.4138
-57.4802
-96.1249
-142.362
-197.368
-262.49
-339.287
-429.559
-535.375
-659.107
-803.482
-971.607
-1167
-1393.65
-1655.98
-1958.9
-2307.71
-2707.72
-3163.77
-3680.21
-4261.45
-4909.64
-5615.9
-6349.35
23.0636
40.5031
53.2985
64.4744
75.1086
85.4652
95.5861
105.447
115.001
124.193
132.949
141.192
148.831
155.764
161.871
167.014
171.031
173.735
174.911
174.309
171.639
166.566
158.699
147.586
132.701
113.437
89.089
58.8368
21.7313
-23.3269
-77.6179
-142.633
-220.089
-311.99
-420.667
-548.814
-699.581
-876.61
-1084.13
-1327.03
-1610.95
-1942.41
-2328.95
-2778.78
-3300.12
-3901.36
-4593.38
-5387.83
-6278.21
-7214.07
-9.49544
-4.95906
2.91654
11.8011
20.7545
29.5002
37.924
45.9551
53.5279
60.5678
66.9904
72.6999
77.5854
81.5194
84.3563
85.927
86.0344
84.4527
80.9224
75.1413
66.7604
55.3776
40.5265
21.6667
-1.82711
-30.6763
-65.7201
-107.932
-158.438
-218.548
-289.78
-373.9
-472.966
-589.368
-725.897
-885.804
-1072.9
-1291.63
-1547.21
-1845.73
-2194.32
-2601.35
-3076.8
-3632.11
-4279.05
-5028.97
-5897.24
-6909.05
-8077.4
-9338.46
1.22502
20.3305
32.5765
43.4648
53.6993
63.5286
73
82.0976
90.7777
98.9792
106.627
113.63
119.885
125.271
129.648
132.852
134.694
134.957
133.385
129.686
123.517
114.486
102.135
85.9333
65.2723
39.4409
7.61233
-31.166
-78.0041
-134.185
-201.203
-280.794
-374.974
-486.094
-616.892
-770.568
-950.866
-1162.18
-1409.67
-1699.44
-2038.63
-2435.82
-2901.59
-3448.99
-4092.02
-4843.39
-5722.43
-6782.86
-8110.34
-9679.66
-1.2626
8.62704
18.5592
28.4614
38.0735
47.3392
56.2229
64.6844
72.6713
80.1167
86.9385
93.0396
98.3084
102.614
105.805
107.706
108.113
106.792
103.469
97.8291
89.5072
78.0797
63.0555
43.8686
19.8619
-9.72914
-45.7884
-89.3473
-141.597
-203.923
-277.944
-365.54
-468.909
-590.625
-733.696
-901.669
-1098.73
-1329.85
-1600.96
-1919.21
-2293.22
-2733.65
-3254.33
-3873.53
-4613.1
-5495.63
-6556.62
-7899.76
-9733.7
-12102.9
29002.1
20840.2
16807.3
15289
14454.6
13845.7
13422
13137.7
12937.6
12786.5
12666.8
12568.6
12485.4
12412.7
12347.4
12287.4
12231.1
12177.5
12125.4
12074.2
12023.2
11971.7
11919.1
11864.8
11808.1
11748.3
11684.6
11616.1
11541.9
11460.8
11371.4
11272.3
11161.6
11037.4
10897.3
10738.2
10556.7
10348.9
10109.8
9833.66
9513.21
9139.86
8702.95
8188.97
7580.43
6853.87
5976.35
4898.61
3540.22
1764.52
3467.36
8056.63
9558.41
10124.7
10559
10884.6
11109
11269.1
11388
11476.8
11542.9
11591.6
11627
11651.6
11667.4
11676
11678.3
11675.1
11666.9
11654.2
11637.1
11615.8
11590.2
11560.2
11525.5
11485.8
11440.5
11389.1
11330.6
11264.1
11188.4
11102.1
11003.4
10890.3
10760.7
10611.7
10440.2
10242.1
10013
9747.41
9438.62
9078.47
8656.99
8161.83
7577.56
6884.62
6058.05
5066.35
3871.98
2441.06
10796.9
12967
14150.1
14252.8
14096.2
13924.6
13738.3
13547.1
13368.7
13209.6
13068.8
12943.9
12832.4
12732.2
12641.2
12557.7
12480.1
12407.3
12338.2
12271.7
12207.1
12143.6
12080.3
12016.7
11951.8
11885.1
11815.6
11742.5
11664.8
11581.6
11491.5
11393
11284.4
11163.6
11028.4
10876
10703.4
10506.8
10282
10023.6
9725.78
9381.14
8981.03
8515.1
7970.92
7333.82
6586.76
5711.22
4689.97
3514.72
11145.6
11554.7
11746.2
11674.5
11572.3
11528.9
11517.3
11515.1
11519.4
11529.2
11541.9
11554.7
11566
11575.2
11581.6
11585
11585.2
11582.1
11575.6
11565.8
11552.5
11535.7
11515.2
11490.7
11462.1
11428.8
11390.4
11346.3
11295.7
11238
11172.1
11097
11011.1
10912.8
10800.2
10670.8
10521.9
10350.2
10152
9922.67
9657.11
9349.2
8991.84
8576.86
8095.05
7536.38
6890.67
6149.21
5308.16
4374.32
11684.6
11933.7
12250.4
12482
12621.9
12711.2
12763.6
12782.5
12776.1
12753.2
12719.5
12678.5
12632.9
12584.4
12534.1
12482.9
12431.1
12379
12326.6
12274
12221
12167.4
12112.9
12057.3
12000.1
11940.9
11879.1
11814.1
11745
11670.9
11590.9
11503.8
11408.4
11303
11185.9
11054.9
10907.7
10741.3
10552.5
10337.5
10091.9
9810.87
9488.71
9119.31
8696.16
8212.76
7663.51
7045.06
6358.76
5613.41
11888.4
11974
12082.1
12144.2
12146.8
12118.7
12080.3
12038
11994.9
11953.7
11915.7
11881.3
11850.1
11821.4
11794.8
11769.7
11745.5
11721.8
11698.2
11674.1
11649.3
11623.3
11595.8
11566.5
11534.9
11500.6
11463.3
11422.3
11377
11326.9
11270.9
11208.2
11137.7
11058.1
10968
10865.5
10748.8
10615.4
10462.8
10287.9
10087.3
9857.35
9593.86
9292.57
8949.25
8560.19
8122.92
7637.4
7107.64
6543.18
12001.5
12045.9
12117.6
12189.8
12245.2
12286.1
12317.7
12340.7
12354.8
12360.6
12359.4
12352.2
12339.7
12322.8
12302
12278
12251.1
12221.8
12190.3
12156.9
12121.6
12084.6
12045.8
12005.2
11962.5
11917.6
11870.3
11820.1
11766.8
11709.7
11648.3
11581.8
11509.4
11430.1
11342.8
11246.1
11138.4
11018
10882.9
10730.8
10559.2
10365.3
10146.5
9899.73
9622.51
9312.88
8970.11
8595.42
8192.97
7770.08
12060
12082.2
12120
12160
12188.2
12201.1
12201.2
12191.3
12173.2
12149.2
12121
12090.4
12058.4
12025.8
11993.2
11960.7
11928.7
11897.1
11865.9
11834.9
11804.1
11773.3
11742.2
11710.6
11678.3
11645
11610.3
11573.9
11535.4
11494.4
11450.4
11402.7
11350.8
11293.9
11231.1
11161.4
11083.8
10997
10899.6
10790.1
10666.8
10528
10372
10197
10001.9
9785.9
9549.36
9294.09
9024.05
8745.39
12091.5
12105.1
12130.1
12160.8
12188.3
12208.5
12221.8
12228.9
12230.8
12227.9
12221.1
12210.9
12197.8
12182.1
12164.3
12144.6
12123.2
12100.3
12076
12050.5
12023.8
11995.9
11967
11937
11905.8
11873.6
11840
11805.1
11768.7
11730.5
11690.4
11648
11603
11555
11503.5
11448
11387.8
11322.4
11250.9
11172.5
11086.3
10991.5
10887.2
10772.8
10647.9
10512.5
10367.4
10214.3
10056.1
9896.66
12105.6
12115.7
12134.9
12159.4
12182.3
12199
12208.3
12210.5
12206.4
12196.7
12182.4
12164.4
12143.7
12121
12096.8
12071.5
12045.6
12019.2
11992.5
11965.7
11938.8
11911.9
11884.9
11857.9
11830.8
11803.6
11776.3
11748.8
11720.9
11692.7
11664.1
11634.9
11605
11574.3
11542.6
11509.9
11475.8
11440.4
11403.3
11364.4
11323.7
11280.9
11236.1
11189.5
11141.3
11092.1
11043
10995.2
10950.8
10912.4
12106.8
12116.9
12136.1
12160.7
12183.8
12200.6
12210.1
12212.5
12208.7
12199.3
12185.4
12168
12147.9
12125.9
12102.5
12078.2
12053.4
12028.4
12003.3
11978.3
11953.5
11929
11904.9
11881.3
11858.1
11835.5
11813.4
11792
11771.3
11751.5
11732.5
11714.5
11697.7
11682.3
11668.3
11656.2
11646.1
11638.4
11633.5
11631.9
11634.2
11640.9
11652.9
11670.9
11695.9
11728.8
11770.7
11822.5
11885.1
11959.2
12095
12108.6
12133.9
12164.7
12192.6
12213.3
12227
12234.9
12237.6
12235.7
12230
12221.2
12209.7
12196
12180.4
12163.3
12144.9
12125.6
12105.5
12084.9
12063.9
12042.8
12021.8
12001
11980.7
11961.1
11942.4
11924.9
11908.8
11894.4
11882
11872.1
11865
11861.3
11861.5
11866.2
11876.3
11892.6
11916
11947.7
11988.9
12041
12105.5
12183.8
12277.4
12387.8
12516
12662.6
12827.4
13009.5
12065.8
12088.1
12126.1
12166.5
12195.2
12208.8
12209.9
12201.1
12184.4
12162
12135.9
12107.6
12078.4
12049
12020.2
11992.3
11965.5
11940.1
11916.1
11893.6
11872.7
11853.4
11835.8
11819.9
11805.9
11794
11784.2
11776.9
11772.4
11771
11773.1
11779.3
11790.2
11806.6
11829.2
11859
11897.3
11945.3
12004.5
12076.7
12163.8
12267.7
12390.9
12535.5
12703.6
12897.4
13117.9
13365.7
13639.7
13938
12009.4
12053.9
12126
12198.7
12254.8
12296.7
12329.6
12354.1
12370
12378
12379.4
12375.3
12366.5
12353.8
12338.1
12320
12300.1
12279
12257
12234.8
12212.6
12190.8
12169.8
12150.1
12131.9
12115.6
12101.8
12090.8
12083.3
12079.8
12080.9
12087.6
12100.6
12121
12150
12189.1
12239.6
12303.5
12382.9
12480
12597.4
12738
12904.8
13100.9
13329.3
13592.7
13892.9
14230.4
14603.2
15007.5
11898.2
11984
12092.5
12155.2
12158.8
12131.9
12095
12054.7
12013.9
11975.5
11940.9
11910.5
11883.9
11860.7
11840.6
11823
11807.7
11794.3
11782.7
11772.8
11764.6
11758
11753.2
11750.4
11749.8
11751.7
11756.6
11764.8
11777.1
11794
11816.3
11845
11881.1
11926
11981
12047.8
12128.5
12225.2
12340.6
12477.5
12639.3
12829.5
13052.2
13311.5
13611.7
13956.5
14349
14790.5
15279.6
15812.2
11696.1
11945.4
12262.5
12494.9
12635.9
12726.7
12780.8
12801.9
12798.2
12778.5
12748.5
12712.2
12671.9
12629.7
12586.9
12544.4
12502.9
12462.8
12424.5
12388.4
12354.6
12323.6
12295.4
12270.4
12249.1
12231.7
12218.7
12210.7
12208.3
12212.3
12223.6
12243.2
12272.5
12312.7
12365.6
12433.2
12517.7
12621.8
12748.5
12901.2
13084
13301.2
13557.8
13859.1
14210.9
14618.4
15086.6
15618.3
16212.7
16864.3
11158.4
11567.7
11759.7
11688.9
11587.9
11546.2
11536.6
11536.9
11544.2
11557.7
11574.7
11592.6
11610
11626.3
11641.1
11654.3
11666
11676.3
11685.6
11694.2
11702.4
11710.8
11719.7
11729.6
11741.2
11755
11771.8
11792.2
11817.1
11847.6
11884.7
11929.7
11984.1
12049.6
12128.2
12222.2
12334.1
12466.9
12624.3
12810.2
13029.3
13286.8
13588.9
13942.2
14354.1
14832.7
15385.7
16019.8
16738.1
17539.2
10810.8
12981.1
14164.8
14268.5
14113.1
13943.2
13759
13570.6
13395.6
13240.5
13104.4
12985.1
12880.2
12787.8
12705.9
12633.1
12568.1
12510.1
12458.1
12411.8
12370.7
12334.7
12303.6
12277.6
12256.7
12241.3
12231.7
12228.6
12232.6
12244.5
12265.5
12296.6
12339.4
12395.7
12467.4
12556.9
12667.1
12801.1
12962.9
13156.7
13387.9
13662.4
13987.3
14370.7
14822
15352
15972.7
16696.2
17532.6
18487.4
3481.97
8071.5
9573.86
10141.1
10576.8
10904.1
11130.8
11293.7
11416
11508.9
11579.9
11634.4
11676.6
11709.2
11734.6
11754.2
11769.6
11781.6
11791.3
11799.5
11806.9
11814.2
11822
11831.1
11842.1
11855.8
11872.9
11894.4
11921.3
11954.6
11995.7
12046
12107.2
12181.2
12270.3
12377
12504.5
12656.1
12836.1
13049.2
13301.1
13598.3
13948.8
14361.9
14849
15423.8
16103.2
16907.7
17861.1
18989.4
29017.1
20855.4
16823.1
15305.7
14472.8
13865.9
13444.6
13163.2
12966.6
12819.8
12705.2
12613
12536.9
12472.5
12417.1
12368.6
12325.8
12288
12254.4
12224.9
12199.1
12177.2
12159.2
12145.3
12135.8
12131.2
12132
12139
12152.8
12174.6
12205.5
12246.9
12300.4
12367.8
12451.6
12554.2
12678.7
12828.7
13008.4
13222.9
13477.8
13780.2
14138.5
14562.8
15065.8
15663.8
16378.4
17240.3
18296.7
19629.4
-20385.9
-15769.9
-14199.2
-10240.7
-8273.88
-4855.71
-2753.94
301.82
2407.1
5216.41
7247.62
9891.76
11790.8
14339
16046.8
18570.6
20003
22587.4
23588.3
26222.9
-20315.8
-15711.9
-14150.1
-10192.8
-8231.95
-4811.38
-2714.39
344.48
2446.3
5258.71
7287.38
9935.04
11832.4
14385.4
16093
18624.7
20060.8
22661.1
23676.8
26351
-20254
-15651.9
-14098.8
-10141.7
-8186.67
-4764.19
-2671.48
390.095
2488.79
5304.31
7330.8
9982.17
11878.5
14436.3
16144.7
18683.6
20124.3
22736.2
23762.6
26455.1
-20196.6
-15592.5
-14046.4
-10088.6
-8139.02
-4714.58
-2625.95
438.294
2533.99
5352.67
7377.13
10032.3
11927.7
14490.2
16199.6
18744.7
20189.2
22809.2
23841.6
26542.8
-20141.4
-15533.8
-13993.4
-10034.2
-8089.61
-4663.01
-2578.31
488.657
2581.42
5403.29
7425.77
10084.6
11979.2
14546.1
16256.1
18806.4
20253.5
22879
23914.3
26620.8
-20087.2
-15475.6
-13939.9
-9978.81
-8038.88
-4609.9
-2528.98
540.775
2630.66
5455.68
7476.17
10138.6
12032.1
14603
16313.2
18867.8
20316.2
22945.9
23982.1
26692.6
-20033.5
-15417.5
-13886.1
-9922.73
-7987.12
-4555.58
-2478.32
594.279
2681.3
5509.43
7527.86
10193.7
12086
14660.5
16370.4
18928.5
20377.2
23010.2
24046.3
26760.1
-19980
-15359.4
-13831.9
-9866.05
-7934.57
-4500.31
-2426.62
648.854
2733.02
5564.17
7580.45
10249.4
12140.3
14718
16427.3
18988.4
20436.6
23072.3
24107.6
26824.5
-19926.4
-15301.1
-13777.5
-9808.88
-7881.37
-4444.3
-2374.12
704.238
2785.52
5619.61
7633.66
10305.6
12194.8
14775.4
16483.7
19047.4
20494.6
23132.6
24166.8
26886.5
-19872.7
-15242.7
-13722.7
-9751.29
-7827.68
-4387.72
-2321.01
760.217
2838.6
5675.53
7687.24
10362
12249.4
14832.6
16539.5
19105.5
20551.4
23191.4
24224.2
26946.7
-19818.8
-15184
-13667.7
-9693.37
-7773.59
-4330.71
-2267.46
816.618
2892.06
5731.74
7741.03
10418.4
12303.9
14889.5
16594.7
19162.9
20607.2
23249
24280.2
27005.4
-19764.8
-15125.2
-13612.4
-9635.17
-7719.2
-4273.38
-2213.59
873.303
2945.78
5788.11
7794.91
10474.8
12358.1
14946
16649.4
19219.5
20662.1
23305.5
24335.1
27062.9
-19710.6
-15066.1
-13557
-9576.76
-7664.6
-4215.83
-2159.5
930.164
2999.65
5844.54
7848.77
10531
12412.2
15002
16703.5
19275.5
20716.1
23361.2
24389
27119.5
-19656.3
-15006.9
-13501.4
-9518.19
-7609.84
-4158.13
-2105.28
987.112
3053.57
5900.93
7902.55
10587
12465.9
15057.7
16757.2
19330.9
20769.5
23416.1
24442.1
27175.2
-19601.9
-14947.6
-13445.7
-9459.52
-7554.99
-4100.35
-2050.99
1044.08
3107.48
5957.24
7956.21
10642.7
12519.4
15113.1
16810.4
19385.7
20822.2
23470.3
24494.5
27230.2
-19547.4
-14888.2
-13390
-9400.78
-7500.1
-4042.54
-1996.69
1101.01
3161.34
6013.42
8009.7
10698.3
12572.5
15168
16863.1
19440
20874.4
23523.9
24546.3
27284.7
-19492.9
-14828.8
-13334.3
-9342.02
-7445.2
-3984.75
-1942.42
1157.86
3215.1
6069.43
8063.02
10753.5
12625.4
15222.5
16915.4
19493.9
20926.1
23577
24597.5
27338.5
-19438.4
-14769.4
-13278.6
-9283.28
-7390.34
-3927.02
-1888.23
1214.59
3268.74
6125.26
8116.13
10808.5
12678
15276.8
16967.4
19547.3
20977.4
23629.7
24648.2
27391.9
-19383.9
-14709.9
-13222.9
-9224.59
-7335.55
-3869.38
-1834.13
1271.18
3322.23
6180.87
8169.03
10863.2
12730.2
15330.6
17019
19600.4
21028.2
23681.9
24698.5
27444.8
-19329.5
-14650.6
-13167.3
-9165.98
-7280.86
-3811.86
-1780.16
1327.61
3375.56
6236.26
8221.7
10917.7
12782.2
15384.2
17070.2
19653
21078.6
23733.7
24748.3
27497.4
-19275.2
-14591.3
-13111.9
-9107.47
-7226.28
-3754.48
-1726.33
1383.84
3428.7
6291.42
8274.15
10971.8
12834
15437.4
17121.2
19705.3
21128.7
23785.1
24797.8
27549.5
-19221
-14532.1
-13056.5
-9049.09
-7171.85
-3697.26
-1672.66
1439.88
3481.65
6346.33
8326.37
11025.7
12885.4
15490.3
17171.8
19757.3
21178.4
23836.2
24846.9
27601.3
-19166.9
-14473
-13001.3
-8990.85
-7117.58
-3640.21
-1619.17
1495.7
3534.4
6401
8378.36
11079.3
12936.6
15542.8
17222.1
19808.9
21227.8
23886.9
24895.7
27652.8
-19113.1
-14414.1
-12946.3
-8932.78
-7063.48
-3583.36
-1565.87
1551.3
3586.94
6455.4
8430.12
11132.6
12987.5
15595.1
17272.1
19860.3
21276.9
23937.3
24944.1
27704
-19059.3
-14355.3
-12891.5
-8874.89
-7009.56
-3526.72
-1512.76
1606.66
3639.27
6509.54
8481.64
11185.6
13038.2
15647.1
17321.8
19911.3
21325.7
23987.4
24992.2
27754.8
-19005.8
-14296.7
-12836.8
-8817.19
-6955.84
-3470.29
-1459.86
1661.78
3691.38
6563.43
8532.92
11238.3
13088.6
15698.8
17371.3
19962
21374.2
24037.2
25040.1
27805.4
-18952.5
-14238.3
-12782.4
-8759.69
-6902.33
-3414.09
-1407.17
1716.66
3743.28
6617.04
8583.97
11290.8
13138.8
15750.2
17420.5
20012.4
21422.5
24086.7
25087.6
27855.7
-18899.4
-14180.1
-12728.2
-8702.4
-6849.03
-3358.11
-1354.69
1771.28
3794.94
6670.38
8634.78
11342.9
13188.7
15801.3
17469.4
20062.5
21470.4
24136
25134.8
27905.7
-18846.5
-14122.1
-12674.2
-8645.34
-6795.96
-3302.38
-1302.44
1825.65
3846.38
6723.45
8685.36
11394.8
13238.3
15852.1
17518.1
20112.4
21518.1
24184.9
25181.8
27955.4
-18793.8
-14064.3
-12620.4
-8588.5
-6743.11
-3246.9
-1250.42
1879.75
3897.59
6776.24
8735.7
11446.4
13287.7
15902.6
17566.5
20161.9
21565.5
24233.6
25228.4
28004.9
-18741.4
-14006.7
-12566.9
-8531.91
-6690.49
-3191.67
-1198.62
1933.58
3948.57
6828.76
8785.8
11497.7
13336.9
15952.8
17614.7
20211.2
21612.6
24282
25274.8
28054.1
-18689.3
-13949.3
-12513.6
-8475.56
-6638.12
-3136.7
-1147.06
1987.14
3999.31
6880.99
8835.66
11548.7
13385.8
16002.8
17662.6
20260.2
21659.5
24330.1
25321
28103.1
-18637.4
-13892.2
-12460.6
-8419.46
-6585.99
-3081.99
-1095.74
2040.42
4049.82
6932.94
8885.29
11599.5
13434.5
16052.5
17710.2
20309
21706.1
24378
25366.8
28151.8
-18585.7
-13835.3
-12407.8
-8363.61
-6534.11
-3027.56
-1044.66
2093.42
4100.09
6984.6
8934.68
11649.9
13482.9
16101.9
17757.6
20357.4
21752.4
24425.6
25412.4
28200.3
-18534.4
-13778.7
-12355.3
-8308.02
-6482.48
-2973.39
-993.819
2146.14
4150.12
7035.97
8983.83
11700.1
13531.1
16151
17804.8
20405.6
21798.5
24473
25457.8
28248.5
-18483.2
-13722.3
-12303.1
-8252.7
-6431.1
-2919.5
-943.223
2198.58
4199.91
7087.05
9032.74
11750
13579
16199.8
17851.7
20453.5
21844.4
24520.1
25502.8
28296.4
-18432.4
-13666.2
-12251.1
-8197.64
-6379.97
-2865.89
-892.871
2250.73
4249.47
7137.84
9081.41
11799.5
13626.8
16248.3
17898.3
20501.1
21890
24566.9
25547.6
28344.1
-18381.8
-13610.4
-12199.4
-8142.85
-6329.1
-2812.55
-842.766
2302.59
4298.78
7188.34
9129.85
11848.8
13674.2
16296.6
17944.7
20548.5
21935.3
24613.5
25592.2
28391.6
-18331.6
-13554.8
-12148
-8088.33
-6278.49
-2759.51
-792.909
2354.16
4347.85
7238.54
9178.04
11897.8
13721.4
16344.5
17990.9
20595.6
21980.4
24659.8
25636.4
28438.8
-18281.5
-13499.4
-12096.8
-8034.09
-6228.15
-2706.75
-743.301
2405.43
4396.68
7288.44
9226
11946.5
13768.4
16392.2
18036.8
20642.4
22025.2
24705.8
25680.4
28485.7
-18231.8
-13444.3
-12046
-7980.13
-6178.06
-2654.28
-693.943
2456.4
4445.27
7338.05
9273.71
11994.9
13815.2
16439.6
18082.5
20688.9
22069.8
24751.6
25724.2
28532.4
-18182.4
-13389.5
-11995.4
-7926.46
-6128.24
-2602.1
-644.836
2507.08
4493.62
7387.35
9321.19
12043
13861.7
16486.7
18127.9
20735.1
22114.1
24797.1
25767.7
28578.9
-18133.2
-13335
-11945.1
-7873.06
-6078.68
-2550.22
-595.981
2557.45
4541.72
7436.34
9368.42
12090.8
13907.9
16533.5
18173.1
20781.1
22158.1
24842.3
25810.9
28625.1
-18084.4
-13280.7
-11895
-7819.96
-6029.39
-2498.63
-547.38
2607.51
4589.58
7485.03
9415.42
12138.3
13953.9
16580
18218
20826.8
22201.9
24887.3
25853.8
28671
-18035.8
-13226.8
-11845.3
-7767.14
-5980.37
-2447.35
-499.033
2657.27
4637.19
7533.41
9462.17
12185.5
13999.7
16626.2
18262.7
20872.2
22245.5
24932
25896.5
28716.7
-17987.6
-13173.1
-11795.8
-7714.61
-5931.62
-2396.37
-450.94
2706.72
4684.55
7581.48
9508.68
12232.4
14045.2
16672.2
18307.1
20917.3
22288.8
24976.5
25938.9
28762.1
-17939.6
-13119.6
-11746.7
-7662.38
-5883.14
-2345.7
-403.102
2755.85
4731.68
7629.23
9554.95
12279
14090.5
16717.8
18351.3
20962.2
22331.8
25020.7
25981.1
28807.3
-17891.9
-13066.5
-11697.8
-7610.45
-5834.93
-2295.33
-355.519
2804.68
4778.55
7676.67
9600.98
12325.3
14135.5
16763.1
18395.2
21006.7
22374.6
25064.6
26023
28852.2
-17844.5
-13013.6
-11649.2
-7558.81
-5786.98
-2245.27
-308.191
2853.18
4825.18
7723.8
9646.76
12371.2
14180.3
16808.2
18438.9
21051
22417.1
25108.2
26064.6
28896.9
-17797.4
-12961
-11600.9
-7507.46
-5739.31
-2195.52
-261.118
2901.37
4871.57
7770.6
9692.31
12416.9
14224.9
16852.9
18482.3
21095
22459.3
25151.6
26105.9
28941.3
-17750.6
-12908.8
-11552.9
-7456.42
-5691.91
-2146.08
-214.3
2949.24
4917.71
7817.09
9737.61
12462.2
14269.2
16897.3
18525.5
21138.7
22501.3
25194.7
26147
28985.5
-17704.2
-12856.7
-11505.2
-7405.68
-5644.77
-2096.96
-167.737
2996.79
4963.6
7863.25
9782.67
12507.2
14313.3
16941.4
18568.4
21182.1
22543.1
25237.6
26187.8
29029.4
-17658
-12805
-11457.7
-7355.24
-5597.91
-2048.16
-121.43
3044.01
5009.25
7909.09
9827.49
12551.9
14357.1
16985.2
18611
21225.3
22584.5
25280.2
26228.3
29073
-17612.1
-12753.6
-11410.6
-7305.11
-5551.33
-1999.67
-75.3794
3090.91
5054.65
7954.6
9872.06
12596.3
14400.7
17028.8
18653.5
21268.1
22625.7
25322.5
26268.6
29116.4
-17566.5
-12702.4
-11363.8
-7255.29
-5505.01
-1951.5
-29.5849
3137.48
5099.81
7999.79
9916.4
12640.4
14444
17072
18695.6
21310.6
22666.7
25364.5
26308.6
29159.6
-17521.2
-12651.6
-11317.2
-7205.77
-5458.97
-1903.66
15.9534
3183.71
5144.72
8044.64
9960.49
12684.1
14487.1
17114.8
18737.6
21352.9
22707.4
25406.2
26348.3
29202.4
-17476.2
-12601
-11271
-7156.57
-5413.2
-1856.15
61.2358
3229.62
5189.38
8089.16
10004.3
12727.5
14529.9
17157.4
18779.2
21394.9
22747.8
25447.7
26387.7
29245
-17431.5
-12550.8
-11225
-7107.68
-5367.7
-1808.96
106.263
3275.19
5233.8
8133.35
10047.9
12770.6
14572.5
17199.7
18820.6
21436.5
22788
25488.9
26426.9
29287.4
-17387.2
-12500.8
-11179.3
-7059.11
-5322.48
-1762.1
151.035
3320.42
5277.98
8177.21
10091.3
12813.4
14614.9
17241.7
18861.8
21477.9
22827.9
25529.8
26465.8
29329.5
-17343.1
-12451.1
-11134
-7010.85
-5277.52
-1715.57
195.552
3365.32
5321.91
8220.72
10134.4
12855.8
14657
17283.3
18902.7
21519
22867.5
25570.5
26504.4
29371.3
-17299.3
-12401.8
-11088.9
-6962.91
-5232.84
-1669.37
239.815
3409.88
5365.6
8263.9
10177.3
12897.9
14698.8
17324.6
18943.4
21559.8
22906.9
25610.9
26542.8
29412.8
-17255.9
-12352.7
-11044.1
-6915.29
-5188.44
-1623.51
283.823
3454.09
5409.04
8306.74
10220
12939.7
14740.5
17365.7
18983.8
21600.2
22946
25651
26580.8
29454.1
-17212.7
-12303.9
-10999.6
-6867.99
-5144.3
-1577.98
327.578
3497.96
5452.24
8349.23
10262.4
12981.1
14781.8
17406.3
19023.9
21640.4
22984.9
25690.8
26618.6
29495.2
-17169.9
-12255.4
-10955.5
-6821.02
-5100.44
-1532.8
371.079
3541.49
5495.2
8391.38
10304.5
13022.2
14823
17446.7
19063.8
21680.3
23023.5
25730.3
26656.2
29535.9
-17127.3
-12207.3
-10911.6
-6774.37
-5056.84
-1487.95
414.327
3584.66
5537.91
8433.18
10346.5
13063
14863.8
17486.8
19103.5
21719.9
23061.8
25769.6
26693.4
29576.4
-17085.1
-12159.4
-10868
-6728.04
-5013.52
-1443.45
457.323
3627.49
5580.38
8474.64
10388.1
13103.4
14904.5
17526.5
19142.8
21759.2
23099.9
25808.6
26730.3
29616.7
-17043.2
-12111.9
-10824.7
-6682.05
-4970.47
-1399.3
500.066
3669.96
5622.61
8515.74
10429.6
13143.5
14944.9
17565.9
19182
21798.1
23137.7
25847.2
26767
29656.6
-17001.6
-12064.6
-10781.7
-6636.39
-4927.69
-1355.49
542.559
3712.08
5664.6
8556.49
10470.8
13183.3
14985
17605
19220.9
21836.8
23175.2
25885.7
26803.4
29696.3
-16960.3
-12017.7
-10739
-6591.05
-4885.18
-1312.03
584.802
3753.84
5706.35
8596.89
10511.7
13222.7
15024.9
17643.8
19259.5
21875.2
23212.5
25923.8
26839.5
29735.8
-16919.3
-11971
-10696.6
-6546.05
-4842.93
-1268.92
626.797
3795.25
5747.86
8636.94
10552.5
13261.7
15064.6
17682.2
19297.8
21913.3
23249.4
25961.6
26875.4
29774.9
-16878.6
-11924.7
-10654.4
-6501.39
-4800.95
-1226.16
668.544
3836.29
5789.13
8676.63
10593
13300.5
15104
17720.3
19336
21951
23286.2
25999.2
26910.9
29813.8
-16838.2
-11878.7
-10612.6
-6457.06
-4759.24
-1183.75
710.044
3876.98
5830.16
8715.96
10633.2
13338.8
15143.2
17758.1
19373.8
21988.5
23322.6
26036.5
26946.2
29852.4
-16798.1
-11833
-10571.1
-6413.06
-4717.79
-1141.71
751.299
3917.3
5870.96
8754.93
10673.2
13376.8
15182.1
17795.6
19411.4
22025.6
23358.8
26073.4
26981.2
29890.8
-16758.4
-11787.6
-10529.9
-6369.41
-4676.61
-1100.02
792.308
3957.26
5911.52
8793.54
10713
13414.5
15220.8
17832.7
19448.8
22062.4
23394.7
26110.1
27015.9
29928.9
-16718.9
-11742.5
-10488.9
-6326.1
-4635.69
-1058.69
833.074
3996.84
5951.84
8831.78
10752.5
13451.8
15259.2
17869.5
19485.9
22098.9
23430.4
26146.6
27050.3
29966.7
-16679.7
-11697.7
-10448.3
-6283.13
-4595.03
-1017.72
873.596
4036.06
5991.93
8869.66
10791.8
13488.8
15297.4
17905.9
19522.7
22135.2
23465.8
26182.7
27084.4
30004.2
-16640.9
-11653.3
-10407.9
-6240.51
-4554.64
-977.124
913.876
4074.9
6031.79
8907.17
10830.9
13525.4
15335.4
17942
19559.3
22171.1
23500.9
26218.5
27118.3
30041.5
-16602.4
-11609.1
-10367.8
-6198.24
-4514.5
-936.892
953.916
4113.37
6071.41
8944.31
10869.7
13561.7
15373.1
17977.8
19595.6
22206.6
23535.8
26254.1
27151.8
30078.5
-16564.1
-11565.3
-10328
-6156.32
-4474.62
-897.031
993.716
4151.47
6110.8
8981.08
10908.3
13597.6
15410.6
18013.3
19631.7
22241.9
23570.3
26289.3
27185.1
30115.2
-16526.2
-11521.8
-10288.6
-6114.74
-4435
-857.542
1033.28
4189.18
6149.96
9017.49
10946.7
13633.2
15447.8
18048.4
19667.5
22276.9
23604.6
26324.3
27218.1
30151.6
-16488.6
-11478.6
-10249.4
-6073.53
-4395.64
-818.427
1072.6
4226.52
6188.89
9053.51
10984.9
13668.4
15484.8
18083.2
19703.1
22311.5
23638.7
26359
27250.8
30187.8
-16451.2
-11435.7
-10210.4
-6032.66
-4356.52
-779.689
1111.7
4263.47
6227.59
9089.17
11022.8
13703.2
15521.5
18117.6
19738.4
22345.8
23672.5
26393.3
27283.2
30223.7