/*--------------------------------*- C++ -*----------------------------------*\
  =========                 |
  \\      /  F ield         | OpenFOAM: The Open Source CFD Toolbox
   \\    /   O peration     | Website:  https://openfoam.org
    \\  /    A nd           | Version:  8
     \\/     M anipulation  |
\*---------------------------------------------------------------------------*/
FoamFile
{
    version     2.0;
    format      ascii;
    class       surfaceScalarField;
    location    "300";
    object      phi;
}
// * * * * * * * * * * * * * * * * * * * * * * * * * * * * * * * * * * * * * //

dimensions      [1 0 -1 0 0 0 0];

internalField   nonuniform List<scalar> 
16360
(
-1.36703
0.000220113
-1.36729
0.000253248
-1.36755
0.000266
-1.36782
0.000271223
-1.3681
0.000273132
-1.36837
0.000273303
-1.36864
0.000272312
-1.36891
0.00027045
-1.36918
0.000267807
-1.36944
0.000264378
-1.3697
0.000260155
-1.36996
0.000255068
-1.37021
0.00024904
-1.37045
0.000241941
-1.37068
0.000233654
-1.37091
0.000223986
-1.37112
0.000212732
-1.37132
0.00019968
-1.37151
0.000184537
-1.37167
0.000166967
-1.37182
0.00014658
-1.37194
0.000122931
-1.37204
9.55483e-05
-1.3721
6.37291e-05
-1.37213
2.65356e-05
-1.37211
-1.77292e-05
-1.37204
-7.11022e-05
-1.3719
-0.000134589
-1.3717
-0.000208707
-1.3714
-0.000294742
-1.37101
-0.000394446
-1.3705
-0.000509939
-1.36985
-0.000643704
-1.36905
-0.000798662
-1.36808
-0.00097826
-1.36689
-0.00118658
-1.36546
-0.00142845
-1.36375
-0.00170964
-1.36171
-0.00203713
-1.35929
-0.0024195
-1.35643
-0.00286748
-1.35303
-0.00339472
-1.34901
-0.00401882
-1.34425
-0.00476346
-1.33859
-0.00566359
-1.33181
-0.00677315
-1.32365
-0.00816368
-1.31375
-0.00990146
-1.30165
-0.0120959
-0.0153396
-1.28631
-1.56481
0.000482227
-1.56504
0.000484661
-1.56526
0.000487009
-1.56548
0.000490861
-1.5657
0.000492886
-1.56592
0.000492946
-1.56614
0.000491275
-1.56636
0.000488027
-1.56657
0.000483308
-1.56678
0.000477132
-1.56699
0.00046941
-1.5672
0.000460032
-1.5674
0.000448829
-1.56759
0.000435584
-1.56778
0.000419979
-1.56796
0.000401727
-1.56812
0.000380439
-1.56828
0.000355671
-1.56842
0.000326896
-1.56855
0.000293423
-1.56866
0.000254502
-1.56874
0.000209345
-1.5688
0.000157139
-1.56884
9.65659e-05
-1.56884
2.60728e-05
-1.5688
-5.6167e-05
-1.56872
-0.000151852
-1.56859
-0.000262791
-1.56841
-0.0003914
-1.56816
-0.000540374
-1.56784
-0.000712842
-1.56744
-0.000912451
-1.56694
-0.00114346
-1.56633
-0.00141084
-1.56559
-0.0017204
-1.56469
-0.00207893
-1.56363
-0.00249442
-1.56236
-0.00297628
-1.56086
-0.00353575
-1.5591
-0.00418638
-1.55702
-0.00494466
-1.55458
-0.00583098
-1.55173
-0.00687088
-1.5484
-0.00809762
-1.5445
-0.00955762
-1.53996
-0.0113165
-1.53467
-0.0134565
-1.52849
-0.0160752
-1.52122
-0.0193691
-0.0237976
-1.51276
-1.60407
0.000303578
-1.60395
0.000368147
-1.60386
0.000394361
-1.60377
0.000404176
-1.60369
0.000407246
-1.6036
0.000406647
-1.60351
0.000403469
-1.60342
0.000398129
-1.60333
0.000390723
-1.60323
0.000381255
-1.60313
0.0003696
-1.60303
0.000355558
-1.60292
0.000338857
-1.6028
0.000319192
-1.60268
0.000296165
-1.60255
0.000269288
-1.60241
0.000238007
-1.60225
0.000201707
-1.60208
0.000159575
-1.6019
0.000110734
-1.6017
5.39944e-05
-1.60148
-1.18915e-05
-1.60123
-8.87801e-05
-1.60096
-0.000178367
-1.60065
-0.000282275
-1.6003
-0.000402483
-1.59991
-0.000541515
-1.59947
-0.000702401
-1.59898
-0.000888607
-1.59841
-0.00110408
-1.59777
-0.00135338
-1.59704
-0.00164178
-1.59621
-0.00197545
-1.59526
-0.00236153
-1.59417
-0.00280837
-1.59293
-0.00332569
-1.5915
-0.00392487
-1.58985
-0.00461928
-1.58796
-0.00542471
-1.58579
-0.00635997
-1.58329
-0.00744757
-1.5804
-0.00871469
-1.57708
-0.0101945
-1.57325
-0.0119286
-1.56884
-0.0139711
-1.56376
-0.0163912
-1.55795
-0.0192708
-1.55131
-0.0227092
-1.5438
-0.026882
-0.0321438
-1.53545
-1.64897
0.000458699
-1.649
0.000396958
-1.64899
0.000377755
-1.64896
0.000373689
-1.64892
0.000372095
-1.64888
0.000369548
-1.64885
0.000365078
-1.64881
0.000358404
-1.64876
0.000349383
-1.64872
0.000337868
-1.64867
0.00032365
-1.64863
0.000306484
-1.64857
0.000286013
-1.64852
0.000261794
-1.64845
0.00023334
-1.64838
0.000200049
-1.64831
0.000161203
-1.64822
0.000116062
-1.64812
6.35699e-05
-1.64802
2.61906e-06
-1.64789
-6.79343e-05
-1.64776
-0.000149588
-1.6476
-0.000244078
-1.64743
-0.000353299
-1.64723
-0.000479733
-1.64701
-0.000626057
-1.64675
-0.000795389
-1.64646
-0.000991372
-1.64613
-0.00121822
-1.64576
-0.00148077
-1.64533
-0.00178461
-1.64483
-0.0021362
-1.64426
-0.00254303
-1.64361
-0.00301379
-1.64286
-0.00355858
-1.642
-0.00418912
-1.641
-0.00491907
-1.63986
-0.00576437
-1.63854
-0.00674372
-1.63702
-0.00787909
-1.63527
-0.00919646
-1.63326
-0.0107267
-1.63095
-0.0125066
-1.62829
-0.0145811
-1.62526
-0.0170056
-1.6218
-0.0198471
-1.61789
-0.0231823
-1.6135
-0.0271038
-1.60863
-0.03175
-0.0373161
-1.60346
-1.63397
0.000132087
-1.63379
0.000217686
-1.63366
0.000249199
-1.63355
0.000258375
-1.63343
0.000259478
-1.63332
0.000256481
-1.63321
0.000250527
-1.63309
0.000241904
-1.63297
0.000230584
-1.63285
0.000216405
-1.63272
0.000199114
-1.6326
0.000178368
-1.63246
0.000153771
-1.63233
0.000124806
-1.63218
9.08721e-05
-1.63204
5.12233e-05
-1.63188
5.05822e-06
-1.63171
-4.87468e-05
-1.63154
-0.000111308
-1.63135
-0.000183871
-1.63115
-0.00026798
-1.63094
-0.000365545
-1.6307
-0.000478525
-1.63045
-0.000609279
-1.63017
-0.000760593
-1.62986
-0.000935651
-1.62951
-0.00113816
-1.62913
-0.00137243
-1.62871
-0.00164344
-1.62823
-0.00195692
-1.6277
-0.00231951
-1.62709
-0.00273888
-1.62641
-0.00322388
-1.62564
-0.00378479
-1.62477
-0.00443348
-1.62377
-0.0051837
-1.62264
-0.00605138
-1.62135
-0.00705499
-1.61988
-0.008216
-1.6182
-0.00955933
-1.61628
-0.0111141
-1.61409
-0.0129141
-1.6116
-0.0149991
-1.60876
-0.0174159
-1.60555
-0.02022
-1.60192
-0.0234757
-1.59785
-0.0272558
-1.59331
-0.0316442
-1.58831
-0.0367458
-0.042693
-1.58293
-1.64893
0.00034387
-1.64897
0.000250897
-1.64894
0.000218524
-1.64889
0.000208193
-1.64883
0.000202646
-1.64877
0.00019689
-1.64871
0.000189305
-1.64865
0.00017925
-1.64858
0.000166412
-1.64852
0.000150437
-1.64845
0.000131029
-1.64838
0.000107777
-1.6483
8.021e-05
-1.64823
4.77054e-05
-1.64814
9.59811e-06
-1.64806
-3.48961e-05
-1.64797
-8.66885e-05
-1.64787
-0.000146909
-1.64776
-0.000216774
-1.64765
-0.000297802
-1.64753
-0.000391745
-1.64739
-0.000500623
-1.64724
-0.000626732
-1.64708
-0.000772748
-1.6469
-0.000941765
-1.6467
-0.00113737
-1.64647
-0.00136375
-1.64622
-0.0016257
-1.64593
-0.0019288
-1.64561
-0.00227947
-1.64524
-0.00268513
-1.64483
-0.00315437
-1.64435
-0.00369709
-1.64381
-0.00432473
-1.6432
-0.0050505
-1.64249
-0.00588963
-1.64168
-0.00685971
-1.64076
-0.00798098
-1.6397
-0.00927679
-1.63848
-0.010774
-1.63709
-0.0125035
-1.63551
-0.0145006
-1.6337
-0.0168058
-1.63165
-0.0194656
-1.62934
-0.0225326
-1.62675
-0.0260656
-1.62387
-0.0301286
-1.62073
-0.034791
-1.61734
-0.0401294
-0.0462265
-1.61381
-1.6403
-3.89084e-05
-1.64012
6.27379e-05
-1.64
9.80499e-05
-1.63989
0.000106625
-1.6398
0.000105957
-1.6397
0.000100803
-1.6396
9.24781e-05
-1.63951
8.12096e-05
-1.63941
6.68834e-05
-1.63931
4.92314e-05
-1.6392
2.78842e-05
-1.6391
2.38753e-06
-1.63899
-2.78169e-05
-1.63888
-6.3376e-05
-1.63876
-0.000105028
-1.63864
-0.000153641
-1.63852
-0.000210326
-1.63839
-0.000276258
-1.63826
-0.00035281
-1.63811
-0.000441637
-1.63796
-0.000544624
-1.6378
-0.000663964
-1.63762
-0.000802193
-1.63743
-0.000962241
-1.63722
-0.0011475
-1.637
-0.00136191
-1.63675
-0.00161002
-1.63648
-0.00189709
-1.63618
-0.00222922
-1.63585
-0.00261344
-1.63548
-0.00305787
-1.63506
-0.00357189
-1.63459
-0.00416633
-1.63406
-0.00485367
-1.63346
-0.0056483
-1.63279
-0.0065668
-1.63202
-0.00762821
-1.63114
-0.00885441
-1.63015
-0.0102704
-1.62902
-0.011905
-1.62773
-0.0137907
-1.62627
-0.0159645
-1.6246
-0.0184681
-1.62272
-0.0213482
-1.6206
-0.0246564
-1.61822
-0.0284487
-1.61556
-0.0327842
-1.61263
-0.0377225
-1.60944
-0.0433223
-0.0496429
-1.60602
-1.64635
0.000207184
-1.64639
0.000101943
-1.64635
6.40774e-05
-1.6463
5.06682e-05
-1.64623
4.27378e-05
-1.64617
3.47656e-05
-1.6461
2.49046e-05
-1.64603
1.24298e-05
-1.64596
-3.11003e-06
-1.64589
-2.20883e-05
-1.64582
-4.49373e-05
-1.64574
-7.21682e-05
-1.64566
-0.00010439
-1.64559
-0.000142221
-1.6455
-0.000186519
-1.64542
-0.000238227
-1.64533
-0.000298443
-1.64524
-0.000368447
-1.64514
-0.000449736
-1.64504
-0.000544043
-1.64493
-0.000653371
-1.64482
-0.000780047
-1.64469
-0.000926765
-1.64456
-0.00109664
-1.64441
-0.00129328
-1.64425
-0.00152085
-1.64408
-0.00178418
-1.64389
-0.00208885
-1.64367
-0.00244134
-1.64344
-0.00284907
-1.64318
-0.00332067
-1.64288
-0.00386607
-1.64255
-0.00449675
-1.64218
-0.00522589
-1.64176
-0.00606869
-1.64128
-0.00704263
-1.64074
-0.00816775
-1.64013
-0.00946699
-1.63943
-0.0109665
-1.63864
-0.012696
-1.63774
-0.0146892
-1.63673
-0.0169837
-1.63557
-0.0196217
-1.63427
-0.0226494
-1.63281
-0.0261171
-1.63118
-0.0300779
-1.62938
-0.0345862
-1.62741
-0.0396946
-1.62528
-0.0454506
-0.0518996
-1.62302
-1.64259
-0.000191322
-1.64241
-8.40669e-05
-1.6423
-4.76773e-05
-1.64221
-3.96668e-05
-1.64212
-4.14597e-05
-1.64204
-4.79294e-05
-1.64196
-5.76863e-05
-1.64187
-7.04908e-05
-1.64179
-8.65028e-05
-1.64171
-0.000106047
-1.64162
-0.000129569
-1.64154
-0.000157587
-1.64145
-0.000190693
-1.64136
-0.000229646
-1.64127
-0.00027526
-1.64118
-0.000328514
-1.64109
-0.000390586
-1.641
-0.000462816
-1.6409
-0.000546732
-1.6408
-0.000644127
-1.6407
-0.0007571
-1.64059
-0.000888072
-1.64048
-0.00103983
-1.64036
-0.00121559
-1.64023
-0.00141913
-1.6401
-0.00165478
-1.63995
-0.00192755
-1.6398
-0.00224324
-1.63963
-0.00260858
-1.63945
-0.00303131
-1.63925
-0.00352038
-1.63903
-0.00408613
-1.63879
-0.00474048
-1.63852
-0.00549718
-1.63821
-0.00637201
-1.63787
-0.00738315
-1.63749
-0.00855139
-1.63705
-0.00990054
-1.63656
-0.0114577
-1.63601
-0.0132536
-1.63537
-0.0153228
-1.63465
-0.017704
-1.63383
-0.0204401
-1.6329
-0.0235779
-1.63185
-0.0271674
-1.63067
-0.0312611
-1.62935
-0.0359117
-1.62787
-0.0411685
-1.62625
-0.0470742
-0.0536677
-1.62448
-1.64383
6.18554e-05
-1.64387
-4.4726e-05
-1.64383
-8.35179e-05
-1.64377
-9.79482e-05
-1.64371
-0.000106951
-1.64364
-0.000115996
-1.64357
-0.000126924
-1.6435
-0.00014047
-1.64343
-0.000157119
-1.64336
-0.00017729
-1.64329
-0.000201447
-1.64321
-0.000230163
-1.64314
-0.000264042
-1.64307
-0.000303819
-1.64299
-0.000350371
-1.64291
-0.000404715
-1.64284
-0.000468011
-1.64276
-0.000541622
-1.64268
-0.000627115
-1.6426
-0.00072632
-1.64251
-0.000841363
-1.64242
-0.000974689
-1.64234
-0.00112913
-1.64224
-0.00130797
-1.64215
-0.00151503
-1.64205
-0.0017547
-1.64194
-0.00203207
-1.64183
-0.00235304
-1.64172
-0.00272441
-1.64159
-0.00315407
-1.64146
-0.00365112
-1.64132
-0.00422606
-1.64117
-0.00489101
-1.64101
-0.00565998
-1.64083
-0.00654904
-1.64064
-0.00757671
-1.64043
-0.00876424
-1.64019
-0.0101359
-1.63993
-0.0117194
-1.63964
-0.0135462
-1.63931
-0.0156518
-1.63894
-0.0180757
-1.63851
-0.0208619
-1.63803
-0.0240584
-1.63748
-0.0277165
-1.63686
-0.0318898
-1.63614
-0.0366323
-1.63531
-0.0419945
-1.63436
-0.0480195
-0.0547432
-1.63329
-1.64383
-0.000324207
-1.64365
-0.000218792
-1.64355
-0.000183679
-1.64347
-0.000176599
-1.6434
-0.000179149
-1.64333
-0.00018627
-1.64326
-0.000196547
-1.64319
-0.000209758
-1.64312
-0.000226081
-1.64306
-0.000245867
-1.64299
-0.000269561
-1.64292
-0.00029767
-1.64285
-0.000330878
-1.64279
-0.000369897
-1.64272
-0.00041558
-1.64266
-0.000468944
-1.64259
-0.000531151
-1.64253
-0.00060354
-1.64247
-0.00068768
-1.64241
-0.000785385
-1.64236
-0.000898742
-1.6423
-0.00103018
-1.64225
-0.00118254
-1.6422
-0.00135907
-1.64215
-0.00156354
-1.6421
-0.00180031
-1.64206
-0.00207446
-1.64202
-0.00239184
-1.64199
-0.00275921
-1.64196
-0.00318441
-1.64193
-0.00367651
-1.64191
-0.00424597
-1.6419
-0.00490487
-1.64189
-0.00566717
-1.64189
-0.00654898
-1.6419
-0.0075688
-1.64191
-0.00874793
-1.64194
-0.0101108
-1.64197
-0.0116853
-1.64202
-0.0135032
-1.64207
-0.0156004
-1.64213
-0.0180174
-1.64219
-0.0207992
-1.64225
-0.0239951
-1.64231
-0.0276584
-1.64235
-0.0318452
-1.64237
-0.0366127
-1.64235
-0.0420149
-1.64227
-0.048099
-0.0549059
-1.64211
-1.64076
-8.40911e-05
-1.64079
-0.000185379
-1.64075
-0.00022254
-1.64069
-0.000236846
-1.64063
-0.000246022
-1.64056
-0.000255187
-1.64049
-0.000266034
-1.64042
-0.000279287
-1.64035
-0.00029541
-1.64028
-0.000314808
-1.64021
-0.000337977
-1.64014
-0.000365459
-1.64008
-0.000397876
-1.64001
-0.000435951
-1.63995
-0.000480532
-1.63988
-0.000532611
-1.63982
-0.000593314
-1.63976
-0.000663949
-1.6397
-0.00074605
-1.63964
-0.00084139
-1.63959
-0.000952007
-1.63954
-0.00108027
-1.63949
-0.00122894
-1.63945
-0.00140118
-1.63942
-0.00160066
-1.63938
-0.00183166
-1.63936
-0.00209913
-1.63934
-0.00240876
-1.63933
-0.00276716
-1.63934
-0.00318199
-1.63935
-0.00366214
-1.63938
-0.00421784
-1.63942
-0.00486094
-1.63949
-0.00560516
-1.63957
-0.00646637
-1.63967
-0.00746288
-1.63981
-0.00861579
-1.63997
-0.00994942
-1.64016
-0.0114917
-1.64039
-0.0132747
-1.64066
-0.015335
-1.64096
-0.0177142
-1.6413
-0.020459
-1.64167
-0.0236217
-1.64207
-0.0272596
-1.64248
-0.0314346
-1.64288
-0.0362115
-1.64324
-0.0416551
-1.64352
-0.0478253
-0.0547668
-1.64366
-1.64489
-0.000435271
-1.64473
-0.000338795
-1.64465
-0.000307533
-1.64458
-0.000301983
-1.64452
-0.000305173
-1.64447
-0.000312377
-1.64441
-0.000322313
-1.64435
-0.000334786
-1.6443
-0.00034998
-1.64425
-0.000368252
-1.64419
-0.000390035
-1.64414
-0.000415842
-1.6441
-0.000446258
-1.64405
-0.00048199
-1.64401
-0.000523845
-1.64397
-0.000572747
-1.64393
-0.000629762
-1.6439
-0.000696133
-1.64387
-0.000773307
-1.64385
-0.000862951
-1.64383
-0.000966988
-1.64383
-0.00108766
-1.64383
-0.00122756
-1.64384
-0.00138967
-1.64386
-0.00157748
-1.6439
-0.00179501
-1.64395
-0.00204693
-1.64402
-0.00233863
-1.64411
-0.00267636
-1.64423
-0.00306738
-1.64437
-0.00352007
-1.64454
-0.00404418
-1.64475
-0.00465099
-1.645
-0.00535357
-1.6453
-0.00616706
-1.64566
-0.00710903
-1.64607
-0.00819983
-1.64656
-0.00946303
-1.64713
-0.0109259
-1.64778
-0.0126199
-1.64853
-0.0145815
-1.6494
-0.0168524
-1.65037
-0.0194805
-1.65148
-0.0225203
-1.6527
-0.0260328
-1.65405
-0.0300852
-1.65551
-0.0347504
-1.65706
-0.0401053
-1.65866
-0.0462247
-0.0531752
-1.66025
-1.63581
-0.000230627
-1.63583
-0.000320945
-1.63579
-0.000354667
-1.63572
-0.000368308
-1.63565
-0.000377186
-1.63557
-0.000385737
-1.6355
-0.000395499
-1.63543
-0.000407167
-1.63536
-0.000421173
-1.63529
-0.000437936
-1.63522
-0.000457901
-1.63515
-0.000481579
-1.63509
-0.000509535
-1.63503
-0.000542416
-1.63497
-0.000580984
-1.63492
-0.000626096
-1.63487
-0.000678751
-1.63483
-0.000740123
-1.63479
-0.000811551
-1.63476
-0.000894576
-1.63473
-0.000991002
-1.63472
-0.00110292
-1.63471
-0.00123273
-1.63472
-0.00138323
-1.63474
-0.00155768
-1.63477
-0.00175982
-1.63483
-0.00199401
-1.6349
-0.00226528
-1.635
-0.00257951
-1.63512
-0.00294347
-1.63528
-0.00336502
-1.63547
-0.00385334
-1.6357
-0.00441903
-1.63598
-0.00507444
-1.63631
-0.00583395
-1.63671
-0.00671424
-1.63717
-0.0077348
-1.63771
-0.00891836
-1.63835
-0.0102914
-1.63908
-0.0118849
-1.63993
-0.0137352
-1.6409
-0.0158844
-1.642
-0.0183821
-1.64323
-0.0212863
-1.6446
-0.0246641
-1.64609
-0.0285915
-1.64769
-0.0331552
-1.64934
-0.0384555
-1.65096
-0.0446022
-0.0516849
-1.65245
-1.64638
-0.000511468
-1.64627
-0.000434824
-1.64621
-0.000412
-1.64617
-0.000409526
-1.64613
-0.000413579
-1.6461
-0.000420429
-1.64607
-0.000429161
-1.64603
-0.000439711
-1.646
-0.000452341
-1.64597
-0.000467385
-1.64594
-0.000485238
-1.64592
-0.00050635
-1.6459
-0.000531236
-1.64588
-0.000560486
-1.64587
-0.000594764
-1.64586
-0.000634842
-1.64585
-0.000681622
-1.64586
-0.000736131
-1.64587
-0.000799542
-1.64589
-0.000873234
-1.64592
-0.000958816
-1.64597
-0.00105812
-1.64603
-0.00117328
-1.6461
-0.00130677
-1.6462
-0.00146147
-1.64632
-0.00164069
-1.64647
-0.00184828
-1.64664
-0.00208872
-1.64685
-0.00236719
-1.64711
-0.00268969
-1.64741
-0.00306323
-1.64777
-0.00349591
-1.64819
-0.00399722
-1.64869
-0.00457815
-1.64927
-0.00525155
-1.64995
-0.00603246
-1.65075
-0.00693848
-1.65167
-0.00799031
-1.65275
-0.00921229
-1.65401
-0.0106332
-1.65545
-0.0122873
-1.65712
-0.0142152
-1.65904
-0.0164656
-1.66123
-0.0190975
-1.66371
-0.0221814
-1.6665
-0.0258005
-1.6696
-0.030052
-1.673
-0.0350562
-1.67664
-0.0409615
-0.0479214
-1.68041
-1.62398
-0.000371079
-1.62396
-0.000448454
-1.6239
-0.00047809
-1.62382
-0.000491221
-1.62373
-0.000499621
-1.62364
-0.00050706
-1.62356
-0.000514956
-1.62347
-0.000524002
-1.62339
-0.00053465
-1.62331
-0.000547285
-1.62323
-0.000562288
-1.62316
-0.000580073
-1.62309
-0.00060111
-1.62303
-0.000625914
-1.62297
-0.000655061
-1.62291
-0.000689225
-1.62286
-0.000729184
-1.62282
-0.000775827
-1.62279
-0.000830187
-1.62277
-0.000893468
-1.62276
-0.000967049
-1.62277
-0.00105252
-1.62279
-0.00115177
-1.62283
-0.00126693
-1.62289
-0.00140049
-1.62298
-0.00155535
-1.62309
-0.00173488
-1.62324
-0.00194297
-1.62342
-0.00218416
-1.62365
-0.00246371
-1.62392
-0.00278775
-1.62425
-0.00316341
-1.62465
-0.00359906
-1.62513
-0.00410443
-1.62569
-0.00469096
-1.62635
-0.0053721
-1.62712
-0.00616371
-1.62803
-0.00708461
-1.62908
-0.00815721
-1.63031
-0.00940844
-1.63172
-0.0108707
-1.63336
-0.0125836
-1.63523
-0.0145953
-1.63736
-0.0169667
-1.63976
-0.0197738
-1.64246
-0.0231096
-1.64542
-0.027085
-1.64863
-0.0318475
-1.65197
-0.037618
-0.0446521
-1.65524
-1.6417
-0.000500433
-1.64169
-0.000461478
-1.64172
-0.000453054
-1.64175
-0.000455056
-1.64179
-0.000459705
-1.64183
-0.000465353
-1.64188
-0.000471775
-1.64192
-0.000479165
-1.64197
-0.000487796
-1.64202
-0.000497971
-1.64207
-0.000510005
-1.64213
-0.000524222
-1.64219
-0.000540988
-1.64225
-0.00056072
-1.64232
-0.000583887
-1.6424
-0.000611025
-1.64249
-0.00064274
-1.64258
-0.00067973
-1.64269
-0.000722822
-1.64281
-0.000772958
-1.64295
-0.00083122
-1.6431
-0.000898888
-1.64328
-0.000977428
-1.64347
-0.00106852
-1.6437
-0.00117415
-1.64396
-0.00129659
-1.64426
-0.00143848
-1.6446
-0.00160291
-1.64499
-0.00179346
-1.64544
-0.00201428
-1.64595
-0.00227021
-1.64655
-0.00256692
-1.64724
-0.00291098
-1.64803
-0.00331016
-1.64895
-0.00377355
-1.65001
-0.00431191
-1.65124
-0.00493795
-1.65265
-0.00566685
-1.65429
-0.00651686
-1.65619
-0.0075101
-1.65839
-0.00867369
-1.66093
-0.010041
-1.66387
-0.0116541
-1.66727
-0.0135668
-1.6712
-0.0158509
-1.67571
-0.0185989
-1.68087
-0.0219231
-1.68674
-0.0259766
-1.69332
-0.0310396
-0.037576
-1.70039
-1.56399
-0.000402098
-1.56397
-0.000475323
-1.56393
-0.000498079
-1.56387
-0.000508628
-1.56382
-0.000515207
-1.56376
-0.000520699
-1.56371
-0.000526172
-1.56366
-0.000532116
-1.56361
-0.00053886
-1.56356
-0.000546656
-1.56351
-0.000555737
-1.56347
-0.00056636
-1.56343
-0.00057879
-1.5634
-0.000593319
-1.56337
-0.000610294
-1.56335
-0.000630093
-1.56334
-0.000653146
-1.56334
-0.000679968
-1.56335
-0.000711152
-1.56338
-0.000747365
-1.56342
-0.000789394
-1.56348
-0.00083815
-1.56356
-0.000894674
-1.56367
-0.000960191
-1.56381
-0.00103611
-1.56398
-0.00112408
-1.5642
-0.00122599
-1.56446
-0.00134406
-1.56477
-0.00148086
-1.56514
-0.00163938
-1.56559
-0.00182309
-1.56612
-0.0020361
-1.56675
-0.00228317
-1.56749
-0.00256988
-1.56836
-0.00290286
-1.56938
-0.00328992
-1.57058
-0.00374037
-1.57198
-0.00426544
-1.57362
-0.00487872
-1.57553
-0.00559694
-1.57776
-0.00644103
-1.58037
-0.00743747
-1.5834
-0.00862039
-1.58693
-0.0100358
-1.59103
-0.0117492
-1.59578
-0.0138544
-1.60123
-0.0164712
-1.60745
-0.0197553
-1.61446
-0.0240368
-0.0300634
-1.62197
-1.52291
-9.7777e-05
-1.52334
-4.81053e-05
-1.5238
-3.90916e-05
-1.52427
-3.75329e-05
-1.52475
-3.80922e-05
-1.52523
-3.92102e-05
-1.52572
-4.06225e-05
-1.52621
-4.23612e-05
-1.5267
-4.45109e-05
-1.5272
-4.71916e-05
-1.5277
-5.05371e-05
-1.52822
-5.46641e-05
-1.52873
-5.97003e-05
-1.52926
-6.58132e-05
-1.5298
-7.31806e-05
-1.53035
-8.19858e-05
-1.53091
-9.24604e-05
-1.53148
-0.000104876
-1.53207
-0.000119529
-1.53269
-0.000136773
-1.53332
-0.000157015
-1.53398
-0.000180719
-1.53466
-0.000208437
-1.53538
-0.000240806
-1.53614
-0.000278554
-1.53694
-0.000322544
-1.53779
-0.000373761
-1.5387
-0.000433358
-1.53968
-0.000502676
-1.54074
-0.000583284
-1.54188
-0.000677035
-1.54313
-0.000786033
-1.5445
-0.000912815
-1.54601
-0.00106037
-1.54768
-0.00123218
-1.54954
-0.00143245
-1.55162
-0.00166624
-1.55394
-0.00193965
-1.55656
-0.00226023
-1.55952
-0.00263743
-1.56288
-0.00308331
-1.5667
-0.00361356
-1.57107
-0.00424906
-1.57609
-0.00501876
-1.58187
-0.00596649
-1.58857
-0.00716015
-1.59635
-0.00869062
-1.60545
-0.0106536
-1.61625
-0.0132337
-0.0172412
-1.62907
-1.22724
-1.22728
-1.22732
-1.22736
-1.2274
-1.22744
-1.22748
-1.22752
-1.22757
-1.22761
-1.22766
-1.22772
-1.22778
-1.22784
-1.22792
-1.228
-1.22809
-1.2282
-1.22832
-1.22845
-1.22861
-1.22879
-1.229
-1.22924
-1.22952
-1.22984
-1.23021
-1.23065
-1.23115
-1.23173
-1.23241
-1.2332
-1.23411
-1.23517
-1.2364
-1.23783
-1.2395
-1.24144
-1.2437
-1.24634
-1.24942
-1.25303
-1.25728
-1.2623
-1.26827
-1.27543
-1.28412
-1.29477
-1.30801
-1.32525
1.62587
-0.0342503
1.638
-0.0121355
1.64684
-0.00884029
1.65127
-0.00442687
1.65285
-0.00157532
1.65295
-9.99163e-05
1.65225
0.000691754
1.65109
0.0011602
1.64965
0.00144636
1.64803
0.00161865
1.64631
0.00171991
1.64453
0.00177719
1.64272
0.00180654
1.64091
0.00181747
1.63909
0.0018158
1.63729
0.00180524
1.6355
0.00178819
1.63373
0.00176619
1.63199
0.00174022
1.63028
0.00171085
1.6286
0.0016784
1.62696
0.00164296
1.62536
0.00160446
1.62379
0.00156266
1.62228
0.00151723
1.62081
0.00146768
1.61939
0.00141338
1.61804
0.0013535
1.61675
0.00128706
1.61554
0.00121302
1.61441
0.00113019
1.61337
0.00103709
1.61244
0.000932108
1.61163
0.000811962
1.61096
0.000674202
1.61044
0.000515693
1.61011
0.000332749
1.60999
0.000121222
1.61011
-0.000124562
1.61052
-0.000412805
1.61128
-0.000753726
1.61244
-0.00116011
1.61409
-0.00164919
1.61633
-0.0022455
1.61932
-0.00298575
1.62325
-0.00392877
1.62842
-0.00517648
1.63534
-0.00692132
1.64491
-0.00956264
-0.0139725
1.65888
1.57532
-0.0179538
1.5719
-0.00871311
1.5662
-0.00314235
1.56319
-0.00141607
1.56174
-0.000122085
1.56096
0.000679084
1.56059
0.00105609
1.56052
0.00122978
1.56066
0.00131268
1.56093
0.00134636
1.5613
0.00135175
1.56173
0.00134179
1.56222
0.00132378
1.56273
0.00130137
1.56327
0.00127632
1.56383
0.0012494
1.56439
0.00122087
1.56497
0.00119064
1.56555
0.00115841
1.56614
0.00112372
1.56673
0.00108599
1.56733
0.00104453
1.56794
0.000998518
1.56855
0.000947004
1.56918
0.000888902
1.56982
0.000822971
1.57049
0.000747717
1.57118
0.000661216
1.57191
0.000561145
1.57268
0.000445415
1.57349
0.000311638
1.57438
0.000156225
1.57533
-2.50182e-05
1.57638
-0.000236548
1.57754
-0.000483467
1.57883
-0.000772128
1.58027
-0.00111024
1.5819
-0.00150714
1.58375
-0.00197505
1.58586
-0.00252891
1.5883
-0.00318683
1.59111
-0.00397262
1.59438
-0.00491793
1.5982
-0.00606597
1.60269
-0.00747795
1.60801
-0.00924388
1.61433
-0.0115012
1.62188
-0.0144665
1.6308
-0.0184888
-0.0241166
1.64095
1.57763
-0.00396706
1.573
-0.00408444
1.57217
-0.0023067
1.57223
-0.00147744
1.57309
-0.000986119
1.57428
-0.000505362
1.57545
-0.000120741
1.57653
0.000154705
1.57748
0.000356287
1.57832
0.00050654
1.57906
0.000617218
1.5797
0.000697221
1.58027
0.000753705
1.58078
0.000791927
1.58124
0.000815585
1.58167
0.000827267
1.58206
0.000828754
1.58243
0.000821199
1.58278
0.000805257
1.58312
0.000781179
1.58346
0.000748871
1.5838
0.000707933
1.58414
0.000657666
1.58449
0.000597075
1.58485
0.000524958
1.58523
0.000439879
1.58564
0.000340085
1.58608
0.00022292
1.58656
8.52173e-05
1.58708
-7.63382e-05
1.58766
-0.000265726
1.5883
-0.000487679
1.58902
-0.000747836
1.58984
-0.00105176
1.59076
-0.00140761
1.59181
-0.00182472
1.59302
-0.00231429
1.5944
-0.00288993
1.59599
-0.00356842
1.59784
-0.00437028
1.59997
-0.00532078
1.60245
-0.00645205
1.60534
-0.0078056
1.60871
-0.00943612
1.61265
-0.0114171
1.61725
-0.0138497
1.62263
-0.0168748
1.62885
-0.0206904
1.63593
-0.0255712
-0.031875
1.64369
1.59001
-0.00235616
1.58927
-0.00334351
1.58952
-0.00256461
1.58974
-0.00169121
1.5898
-0.00104541
1.58979
-0.000497374
1.58972
-4.93435e-05
1.58959
0.00027972
1.58944
0.000508564
1.58928
0.000665066
1.58913
0.000768931
1.58899
0.000833833
1.58888
0.000870021
1.58878
0.000885004
1.58872
0.000884
1.58867
0.000870508
1.58865
0.00084678
1.58866
0.000814152
1.58869
0.000773261
1.58875
0.000724198
1.58883
0.000666608
1.58894
0.000599737
1.58908
0.000522431
1.58924
0.00043303
1.58943
0.000329791
1.58966
0.000210783
1.58993
7.32256e-05
1.59024
-8.59412e-05
1.59059
-0.000270197
1.591
-0.000484153
1.59147
-0.00073342
1.59201
-0.00102396
1.59262
-0.00136283
1.59333
-0.00175818
1.59414
-0.00222008
1.59508
-0.00276047
1.59616
-0.00339355
1.5974
-0.00413633
1.59884
-0.0050094
1.60051
-0.00603772
1.60244
-0.00725181
1.60468
-0.00868943
1.60727
-0.0103979
1.61027
-0.012437
1.61374
-0.0148836
1.61773
-0.0178362
1.62227
-0.0214219
1.62738
-0.0258022
1.63299
-0.0311734
-0.0377524
1.63886
1.59022
-0.000962943
1.58845
-0.00156478
1.58719
-0.00131341
1.58635
-0.000847215
1.58579
-0.000487582
1.5855
-0.000208643
1.58543
2.0587e-05
1.58552
0.000196843
1.5857
0.000323279
1.58596
0.000411501
1.58625
0.000471488
1.58658
0.000509782
1.58692
0.000531009
1.58726
0.000538593
1.58761
0.000534912
1.58796
0.000521473
1.58831
0.00049911
1.58865
0.000468127
1.589
0.000428402
1.58934
0.000379446
1.58969
0.000320472
1.59004
0.000250353
1.59039
0.000167702
1.59076
7.02956e-05
1.59113
-4.40813e-05
1.59152
-0.000178198
1.59193
-0.000335354
1.59236
-0.000519028
1.59282
-0.00073335
1.59332
-0.000983759
1.59387
-0.00127652
1.59446
-0.00161882
1.59512
-0.00201907
1.59585
-0.00248718
1.59666
-0.00303492
1.59758
-0.00367623
1.59861
-0.00442766
1.59978
-0.00530886
1.60112
-0.00634334
1.60264
-0.00755925
1.60438
-0.00899045
1.60637
-0.0106779
1.60864
-0.0126715
1.61124
-0.0150321
1.61419
-0.0178342
1.61752
-0.0211686
1.62124
-0.0251447
1.62533
-0.0298906
1.62971
-0.0355492
-0.0422645
1.63422
1.59117
-0.000510707
1.59055
-0.000953497
1.59023
-0.000991615
1.59019
-0.000810038
1.5903
-0.00059526
1.59048
-0.000391107
1.5907
-0.000198784
1.59093
-2.9078e-05
1.59114
0.000109511
1.59134
0.000216872
1.59151
0.000296703
1.59167
0.000352843
1.59181
0.000388679
1.59194
0.000407172
1.59207
0.000410737
1.59219
0.000401158
1.59231
0.000379612
1.59243
0.000346713
1.59256
0.000302581
1.59269
0.000246855
1.59283
0.000178918
1.59298
9.76106e-05
1.59315
1.39691e-06
1.59333
-0.000111559
1.59353
-0.000243849
1.59375
-0.00039874
1.594
-0.000579747
1.59427
-0.000790982
1.59457
-0.00103736
1.59491
-0.00132484
1.5953
-0.00166044
1.59573
-0.00205231
1.59622
-0.00250999
1.59678
-0.0030447
1.59741
-0.00366964
1.59814
-0.00440036
1.59896
-0.00525522
1.59991
-0.00625584
1.601
-0.0074278
1.60224
-0.00880132
1.60366
-0.0104122
1.60528
-0.0123028
1.60714
-0.0145234
1.60924
-0.0171332
1.61161
-0.0202022
1.61425
-0.0238111
1.61716
-0.0280521
1.62029
-0.0330257
1.62358
-0.0388346
-0.0455709
1.62688
1.59137
-0.000263455
1.59094
-0.000521152
1.59052
-0.000578525
1.5902
-0.000485061
1.58995
-0.000341081
1.58975
-0.000197481
1.58962
-6.71337e-05
1.58955
4.35004e-05
1.58953
0.000129921
1.58955
0.00019207
1.58962
0.000232824
1.58971
0.000255524
1.58984
0.000263029
1.58999
0.000257627
1.59016
0.000241032
1.59034
0.00021437
1.59055
0.000178215
1.59076
0.000132595
1.59099
7.7132e-05
1.59122
1.1015e-05
1.59147
-6.69889e-05
1.59172
-0.000158462
1.59199
-0.000265491
1.59227
-0.000390193
1.59256
-0.000535549
1.59287
-0.000705071
1.59319
-0.00090278
1.59353
-0.00113338
1.5939
-0.00140239
1.59429
-0.00171633
1.59471
-0.00208287
1.59517
-0.00251092
1.59567
-0.00301092
1.59622
-0.00359506
1.59683
-0.00427764
1.5975
-0.00507542
1.59826
-0.00600801
1.5991
-0.00709837
1.60005
-0.00837339
1.60111
-0.00986447
1.6023
-0.0116083
1.60365
-0.0136474
1.60516
-0.0160311
1.60684
-0.0188163
1.60871
-0.0220672
1.61075
-0.0258557
1.61296
-0.0302599
1.61529
-0.0353606
1.61769
-0.0412364
-0.0479563
1.62008
1.59149
-0.000139586
1.59126
-0.000290014
1.59103
-0.000348183
1.59087
-0.000323394
1.59079
-0.000259414
1.59078
-0.000187548
1.59083
-0.000118953
1.59093
-5.79046e-05
1.59107
-7.67322e-06
1.59123
3.01917e-05
1.59141
5.58864e-05
1.59159
7.02825e-05
1.59178
7.42266e-05
1.59197
6.83707e-05
1.59216
5.31376e-05
1.59235
2.86801e-05
1.59253
-5.14064e-06
1.59271
-4.87565e-05
1.59289
-0.000102913
1.59307
-0.000168622
1.59325
-0.000247371
1.59343
-0.000340915
1.59362
-0.000451374
1.59381
-0.000581227
1.59401
-0.000733537
1.59421
-0.000911949
1.59443
-0.00112072
1.59466
-0.00136483
1.59491
-0.00165012
1.59518
-0.00198345
1.59547
-0.00237287
1.59579
-0.00282778
1.59613
-0.00335917
1.59652
-0.00397987
1.59695
-0.00470485
1.59742
-0.00555161
1.59795
-0.00654053
1.59855
-0.00769532
1.59922
-0.00904353
1.59997
-0.010617
1.60082
-0.0124526
1.60176
-0.0145923
1.60282
-0.0170841
1.60398
-0.0199818
1.60526
-0.0233448
1.60664
-0.0272376
1.60811
-0.0317272
1.60963
-0.0368803
1.61115
-0.0427577
-0.0494078
1.6126
1.59154
-6.24959e-05
1.59138
-0.000133403
1.5912
-0.000166842
1.59104
-0.000162644
1.59092
-0.000137021
1.59084
-0.000105012
1.59079
-7.39824e-05
1.59078
-4.72862e-05
1.5908
-2.72453e-05
1.59085
-1.52311e-05
1.59091
-1.15869e-05
1.591
-1.61071e-05
1.5911
-2.84835e-05
1.59122
-4.84959e-05
1.59135
-7.60865e-05
1.59149
-0.000111415
1.59164
-0.000154897
1.5918
-0.000207173
1.59196
-0.0002692
1.59214
-0.000342228
1.59232
-0.000427859
1.5925
-0.000528021
1.5927
-0.000645019
1.5929
-0.000781576
1.59311
-0.000940927
1.59332
-0.00112689
1.59354
-0.00134394
1.59378
-0.00159728
1.59402
-0.00189301
1.59427
-0.00223826
1.59454
-0.00264135
1.59483
-0.00311202
1.59513
-0.00366157
1.59545
-0.0043032
1.5958
-0.00505227
1.59617
-0.00592664
1.59658
-0.00694705
1.59702
-0.00813751
1.59751
-0.00952573
1.59803
-0.0111436
1.59861
-0.0130274
1.59923
-0.0152186
1.59991
-0.0177634
1.60064
-0.0207131
1.60142
-0.0241235
1.60224
-0.0280533
1.60307
-0.0325627
1.6039
-0.0377098
1.60469
-0.0435466
-0.050116
1.6054
1.59156
-5.02834e-06
1.59144
-1.25233e-05
1.59129
-2.03035e-05
1.59116
-2.85768e-05
1.59106