/*--------------------------------*- C++ -*----------------------------------*\
  =========                 |
  \\      /  F ield         | OpenFOAM: The Open Source CFD Toolbox
   \\    /   O peration     | Website:  https://openfoam.org
    \\  /    A nd           | Version:  8
     \\/     M anipulation  |
\*---------------------------------------------------------------------------*/
FoamFile
{
    version     2.0;
    format      ascii;
    class       volScalarField;
    location    "900";
    object      k;
}
// * * * * * * * * * * * * * * * * * * * * * * * * * * * * * * * * * * * * * //

dimensions      [0 2 -2 0 0 0 0];

internalField   nonuniform List<scalar> 
8400
(
0.00346286
0.00340145
0.0033469
0.0032953
0.00325138
0.0032197
0.00321291
0.00324702
0.00332806
0.00343484
0.00352119
0.0035515
0.00352512
0.00345802
0.00337421
0.00329671
0.00324082
0.00320396
0.0031679
0.003125
0.00308047
0.00303617
0.00298681
0.00293001
0.00287397
0.00282045
0.00276932
0.00272048
0.0026738
0.00262908
0.00258609
0.00254455
0.00250617
0.00247332
0.00244523
0.00242052
0.00239799
0.00237667
0.00235585
0.00233515
0.00231458
0.00229461
0.00227638
0.00226206
0.00225551
0.00226332
0.00229665
0.00237283
0.00251313
0.00272833
0.00258967
0.00253057
0.00247124
0.00240829
0.00233111
0.00224002
0.00212907
0.00200182
0.00188168
0.00179639
0.00175164
0.00173277
0.00172566
0.00172222
0.00172126
0.00172305
0.00173054
0.00174781
0.00176871
0.00178946
0.00181101
0.00183376
0.00185673
0.00188014
0.00189834
0.00191319
0.00192821
0.00194617
0.001969
0.0019976
0.00203199
0.00207138
0.0021115
0.00214595
0.00217364
0.00219491
0.00221013
0.0022195
0.00222301
0.00222043
0.00221132
0.00219496
0.00217034
0.0021359
0.00208927
0.00202704
0.00194501
0.00183978
0.00171553
0.00160356
0.00284631
0.00276577
0.00271137
0.00265819
0.00261299
0.00253652
0.00237387
0.00216038
0.0019484
0.001789
0.00168463
0.00163146
0.0016282
0.00165042
0.0016846
0.00168262
0.00164961
0.00165911
0.00169137
0.0017294
0.00176719
0.00180863
0.00185197
0.00189694
0.00194473
0.00199599
0.0020504
0.00210637
0.00216108
0.00221104
0.00225275
0.00228365
0.00230466
0.00232057
0.00233347
0.0023443
0.00235343
0.00236073
0.00236566
0.00236748
0.0023654
0.00235874
0.00234684
0.00232887
0.00230334
0.00226749
0.00221619
0.00213995
0.00202257
0.00184021
0.00299469
0.0029886
0.00298035
0.00297076
0.00296719
0.00296429
0.0029613
0.00295765
0.0029533
0.00294857
0.00294217
0.00292429
0.00288635
0.00284755
0.00279419
0.00227295
0.0017876
0.00173302
0.00176882
0.001823
0.00182113
0.00186492
0.00191502
0.00196499
0.00202027
0.00207995
0.00214019
0.00219659
0.00224501
0.0022826
0.00230846
0.0023239
0.00233222
0.00233919
0.00234702
0.00235642
0.00236729
0.00237879
0.00238952
0.00239793
0.00240274
0.00240314
0.00239872
0.00238932
0.00237476
0.00235415
0.0023249
0.00228148
0.00221401
0.00210683
0.0029979
0.00299571
0.00299349
0.00299129
0.00298904
0.00298674
0.00298436
0.0029819
0.00297922
0.00297609
0.0029722
0.00296659
0.00295669
0.00294027
0.00291427
0.00284031
0.00271432
0.00260565
0.00254306
0.00233562
0.00187123
0.00189812
0.00194544
0.0019958
0.00205266
0.00211332
0.00217099
0.00221993
0.00225643
0.00227965
0.0022917
0.00229675
0.00229929
0.00230348
0.00231175
0.00232464
0.00234163
0.00236105
0.00238052
0.00239756
0.00241024
0.00241749
0.00241903
0.00241513
0.00240635
0.00239286
0.00237328
0.00234306
0.00229271
0.00220928
0.00299725
0.00299439
0.00299151
0.00298862
0.00298566
0.00298266
0.00297963
0.00297658
0.00297357
0.00297063
0.00296767
0.00296437
0.00295986
0.00295254
0.00294001
0.00291362
0.00286338
0.00279438
0.00271483
0.00259534
0.00241705
0.00224821
0.00194001
0.00198571
0.00204784
0.00211127
0.002167
0.00220881
0.00223401
0.00224423
0.00224452
0.00224141
0.0022405
0.00224409
0.00225488
0.00227332
0.00229853
0.00232802
0.00235809
0.0023852
0.00240676
0.00242143
0.00242902
0.00243021
0.00242622
0.00241827
0.00240633
0.00238676
0.00234833
0.0022724
0.00299689
0.0029936
0.00299028
0.00298693
0.00298353
0.00298008
0.00297657
0.00297305
0.00296955
0.00296612
0.00296281
0.00295962
0.00295622
0.00295184
0.002945
0.00293216
0.00290728
0.00286605
0.00280681
0.00272128
0.00259634
0.00244047
0.00220373
0.00198813
0.00201472
0.00208793
0.00214631
0.00218384
0.00219927
0.00219684
0.00218492
0.00217303
0.00216855
0.00217236
0.00218681
0.00221184
0.00224639
0.00228701
0.00232859
0.00236644
0.00239735
0.00241976
0.00243353
0.00243968
0.00244006
0.00243687
0.00243164
0.00242241
0.00239691
0.00232584
0.0029963
0.00299238
0.00298844
0.00298446
0.00298043
0.00297641
0.00297237
0.00296833
0.00296436
0.00296054
0.00295692
0.00295355
0.00295037
0.00294703
0.00294267
0.00293534
0.00292137
0.002896
0.00285477
0.00279181
0.00269722
0.00256823
0.00238133
0.00215185
0.00201107
0.00204903
0.00211838
0.00215769
0.00216686
0.002152
0.00212534
0.00210135
0.00209174
0.0020974
0.00211702
0.00214895
0.0021928
0.00224429
0.002297
0.00234522
0.00238515
0.00241503
0.00243482
0.00244579
0.00245029
0.00245138
0.00245204
0.00245264
0.00244192
0.00237813
0.00299547
0.00299063
0.00298578
0.00298094
0.00297611
0.00297127
0.00296651
0.00296186
0.00295741
0.00295319
0.00294932
0.00294588
0.0029428
0.00293997
0.00293686
0.00293228
0.00292379
0.00290761
0.00287895
0.00283229
0.00275945
0.00265448
0.00250258
0.00230339
0.00211587
0.0020352
0.00207354
0.00213406
0.00214643
0.00212395
0.00208042
0.00203708
0.00201767
0.00203013
0.00205734
0.00209523
0.00214653
0.00220676
0.0022686
0.00232545
0.00237303
0.0024094
0.00243459
0.00245007
0.00245853
0.00246364
0.00246953
0.00247912
0.0024842
0.00243054
0.00299404
0.00298764
0.0029813
0.00297503
0.00296893
0.00296305
0.00295738
0.00295207
0.00294716
0.00294272
0.00293888
0.00293565
0.00293302
0.00293083
0.00292871
0.00292587
0.00292063
0.00291001
0.00288981
0.00285487
0.00279816
0.00271305
0.00258869
0.00242049
0.00223588
0.00209922
0.0020577
0.0020898
0.00212231
0.00212005
0.00206932
0.00199486
0.00194897
0.00199082
0.00202274
0.00206254
0.00211698
0.00218181
0.00224902
0.00231135
0.00236408
0.00240513
0.00243451
0.00245383
0.00246596
0.00247502
0.00248594
0.00250358
0.00252406
0.00248214
0.0029913
0.00298169
0.00297261
0.00296402
0.00295596
0.00294867
0.002942
0.00293617
0.00293132
0.00292738
0.00292435
0.00292214
0.00292057
0.00291949
0.00291862
0.00291729
0.00291427
0.00290729
0.00289281
0.00286623
0.00282147
0.00275219
0.0026499
0.00250928
0.00234332
0.00219203
0.00209889
0.00207556
0.00208706
0.00209546
0.00207846
0.00204076
0.00201422
0.00201067
0.0020271
0.00206144
0.002113
0.00217656
0.00224383
0.00230715
0.00236152
0.00240463
0.0024364
0.0024585
0.00247392
0.00248697
0.002503
0.00252794
0.002562
0.00253147
0.00298464
0.00296767
0.00295352
0.00294133
0.00293136
0.00292292
0.00291661
0.002912
0.00290879
0.00290697
0.00290608
0.00290591
0.00290619
0.00290671
0.00290728
0.00290739
0.00290611
0.0029016
0.00289099
0.00287027
0.00283424
0.00277729
0.0026926
0.0025754
0.00243215
0.00228759
0.00217401
0.00211012
0.00208609
0.00207947
0.00207099
0.00205615
0.00204421
0.00204099
0.0020527
0.00208334
0.00213149
0.00219113
0.00225446
0.0023146
0.00236689
0.00240917
0.00244141
0.00246523
0.00248366
0.0025009
0.00252225
0.00255433
0.00259889
0.00257846
0.00294972
0.002926
0.00291136
0.00289971
0.00289188
0.00288662
0.00288432
0.00288378
0.00288428
0.00288571
0.00288747
0.00288957
0.00289183
0.00289393
0.00289582
0.0028971
0.00289703
0.00289418
0.00288609
0.00286931
0.00283953
0.00279194
0.00272115
0.00262341
0.00250233
0.00237376
0.00226029
0.00217851
0.00212908
0.00210197
0.00208541
0.0020732
0.00206527
0.00206753
0.00208527
0.00211913
0.00216622
0.00222126
0.00227828
0.00233214
0.00237936
0.00241841
0.00244953
0.0024744
0.00249594
0.0025181
0.0025461
0.00258667
0.00264218
0.00263196
0.00286729
0.00285521
0.00284931
0.00284669
0.00284676
0.00284881
0.00285247
0.00285678
0.00286124
0.00286571
0.00287
0.00287414
0.00287792
0.00288132
0.00288428
0.00288653
0.0028875
0.00288567
0.00287899
0.00286467
0.00283915
0.00279847
0.00273856
0.00265678
0.00255568
0.00244608
0.00234356
0.0022608
0.00220158
0.00216254
0.00213789
0.0021234
0.0021176
0.0021234
0.00214328
0.00217594
0.00221801
0.00226513
0.00231299
0.00235808
0.00239823
0.00243266
0.00246196
0.00248785
0.00251306
0.00254124
0.00257727
0.00262782
0.00269546
0.00269429
0.00279049
0.00279311
0.002798
0.00280424
0.00281142
0.00281902
0.00282667
0.00283419
0.00284124
0.00284779
0.00285378
0.00285926
0.00286414
0.00286847
0.00287215
0.00287497
0.00287639
0.00287529
0.00287
0.00285718
0.00283391
0.00279827
0.00274685
0.00267811
0.00259443
0.00250368
0.00241673
0.00234262
0.0022853
0.00224439
0.00221757
0.00220265
0.00219845
0.00220481
0.00222209
0.00224865
0.00228165
0.00231796
0.00235477
0.00239001
0.00242261
0.00245252
0.00248061
0.00250856
0.00253875
0.00257439
0.00261986
0.00268156
0.0027619
0.0027679
0.0027568
0.00276505
0.00277375
0.00278263
0.00279153
0.0028003
0.00280884
0.002817
0.00282469
0.00283188
0.00283851
0.00284452
0.00284986
0.00285455
0.00285842
0.00286128
0.00286263
0.00286157
0.00285674
0.00284576
0.00282597
0.00279189
0.00274708
0.00268919
0.00262056
0.00254734
0.00247709
0.00241591
0.00236689
0.0023306
0.00230631
0.00229294
0.00228956
0.00229443
0.00230673
0.00232517
0.00234789
0.0023731
0.00239938
0.002426
0.00245284
0.0024804
0.00250966
0.00254205
0.0025794
0.00262426
0.00268043
0.00275392
0.00284655
0.0028564
0.00274528
0.00275366
0.00276201
0.00277029
0.00277848
0.00278651
0.00279434
0.00280191
0.00280913
0.00281595
0.00282227
0.00282804
0.0028332
0.00283759
0.00284109
0.00284346
0.00284422
0.00284269
0.00283779
0.00282784
0.00281084
0.00278319
0.00273983
0.00269102
0.00263562
0.00257833
0.0025242
0.00247699
0.00243865
0.00240973
0.00239001
0.00237891
0.00237559
0.00237802
0.00238496
0.00239575
0.00240968
0.00242636
0.00244577
0.00246822
0.00249419
0.00252435
0.00255934
0.00259995
0.00264727
0.00270304
0.00277043
0.00285504
0.00295769
0.00296535
0.00272952
0.0027375
0.00274535
0.00275307
0.00276062
0.00276798
0.00277511
0.00278195
0.00278844
0.00279454
0.00280016
0.00280524
0.00280966
0.00281329
0.00281598
0.00281747
0.00281741
0.00281525
0.00281021
0.00280117
0.00278676
0.00276462
0.00273006
0.00268405
0.0026407
0.00259786
0.00255853
0.00252452
0.00249675
0.00247546
0.00246053
0.00245152
0.00244774
0.00244758
0.00245033
0.00245662
0.00246726
0.00248311
0.00250493
0.00253314
0.00256788
0.00260903
0.00265633
0.00270966
0.00276925
0.00283614
0.00291284
0.00300445
0.00311034
0.00310401
0.00269896
0.0027064
0.00271377
0.00272099
0.00272805
0.00273486
0.00274139
0.00274759
0.00275337
0.0027587
0.00276352
0.00276772
0.00277122
0.00277396
0.00277577
0.00277645
0.00277576
0.00277335
0.00276873
0.00276123
0.00275003
0.00273384
0.0027101
0.00267006
0.00263586
0.00260615
0.00257995
0.0025575
0.00253895
0.0025243
0.00251344
0.00250605
0.00250166
0.00250249
0.00251286
0.00253276
0.00256192
0.00259972
0.00264521
0.00269721
0.00275444
0.00281577
0.00288013
0.00294691
0.00301595
0.00308774
0.00316386
0.0032477
0.00333681
0.00329086
0.00477716
0.00461929
0.00446672
0.00432055
0.00418161
0.00405042
0.0039273
0.00381225
0.00370511
0.00360557
0.00351315
0.00342731
0.00334748
0.00327307
0.00320354
0.00313835
0.00307701
0.00301908
0.00296405
0.00291141
0.00286061
0.00281105
0.00276171
0.00270662
0.00269021
0.00269604
0.0027129
0.00273831
0.00277081
0.00280959
0.0028544
0.00290552
0.00296365
0.00302615
0.00308794
0.00314915
0.00321
0.00327067
0.0033312
0.0033914
0.00345074
0.00350852
0.00356362
0.00361467
0.00366001
0.00369757
0.00372453
0.00373716
0.00373154
0.00357836
2.3838e-05
2.36243e-05
2.34316e-05
2.32542e-05
2.30833e-05
2.29127e-05
2.27383e-05
2.25588e-05
2.23734e-05
2.21819e-05
2.1985e-05
2.1784e-05
2.15803e-05
2.13755e-05
2.11712e-05
2.09689e-05
2.07699e-05
2.05754e-05
2.03848e-05
2.02001e-05
2.00214e-05
1.97911e-05
1.95716e-05
1.93633e-05
1.9166e-05
1.8975e-05
1.8786e-05
1.85984e-05
1.8412e-05
1.82271e-05
1.80446e-05
1.78656e-05
1.76911e-05
1.75223e-05
1.736e-05
1.72049e-05
1.70572e-05
1.69166e-05
1.67827e-05
1.66545e-05
1.65301e-05
1.64084e-05
1.6289e-05
1.61718e-05
1.60572e-05
1.59457e-05
1.58374e-05
1.57312e-05
1.56248e-05
1.55134e-05
2.32369e-05
2.21949e-05
2.12448e-05
2.03678e-05
1.95531e-05
1.8793e-05
1.80803e-05
1.74077e-05
1.67701e-05
1.61641e-05
1.55879e-05
1.50404e-05
1.45215e-05
1.4031e-05
1.35691e-05
1.31353e-05
1.27289e-05
1.23483e-05
1.19931e-05
1.16615e-05
1.13549e-05
1.12068e-05
1.1115e-05
1.10467e-05
1.11559e-05
1.12037e-05
1.12146e-05
1.12044e-05
1.11835e-05
1.11587e-05
1.1134e-05
1.11112e-05
1.10912e-05
1.10736e-05
1.10579e-05
1.1043e-05
1.10278e-05
1.10108e-05
1.09907e-05
1.09664e-05
1.09377e-05
1.09047e-05
1.08675e-05
1.08265e-05
1.07822e-05
1.07355e-05
1.0688e-05
1.06427e-05
1.06046e-05
1.05755e-05
2.32343e-05
2.21824e-05
2.1215e-05
2.03188e-05
1.94817e-05
1.8695e-05
1.79515e-05
1.72456e-05
1.65734e-05
1.59323e-05
1.53209e-05
1.47384e-05
1.41846e-05
1.36593e-05
1.31624e-05
1.26936e-05
1.22519e-05
1.18362e-05
1.14458e-05
1.13471e-05
1.12463e-05
1.11451e-05
1.10468e-05
1.09536e-05
1.08683e-05
1.07884e-05
1.07124e-05
1.0639e-05
1.05674e-05
1.04973e-05
1.04284e-05
1.03611e-05
1.02955e-05
1.02319e-05
1.01704e-05
1.01109e-05
1.0053e-05
9.99631e-06
9.93991e-06
9.88318e-06
9.82582e-06
9.76748e-06
9.70814e-06
9.64815e-06
9.5878e-06
9.52658e-06
9.463e-06
9.39563e-06
9.32749e-06
9.27101e-06
2.32342e-05
2.21895e-05
2.12297e-05
2.03402e-05
1.95083e-05
1.87252e-05
1.7984e-05
1.72792e-05
1.66071e-05
1.59656e-05
1.53531e-05
1.47692e-05
1.42137e-05
1.36864e-05
1.31874e-05
1.27162e-05
1.22718e-05
1.18531e-05
1.14592e-05
1.13555e-05
1.12518e-05
1.11464e-05
1.10426e-05
1.09431e-05
1.08489e-05
1.07598e-05
1.06747e-05
1.05926e-05
1.05123e-05
1.04332e-05
1.0355e-05
1.02775e-05
1.02009e-05
1.01256e-05
1.00515e-05
9.97886e-06
9.90734e-06
9.83653e-06
9.76592e-06
9.69503e-06
9.62347e-06
9.55104e-06
9.47794e-06
9.40482e-06
9.33277e-06
9.26307e-06
9.19551e-06
9.12707e-06
9.05409e-06
8.98424e-06
2.32341e-05
2.21892e-05
2.12288e-05
2.03379e-05
1.95046e-05
1.87201e-05
1.79776e-05
1.72717e-05
1.6599e-05
1.5957e-05
1.53444e-05
1.47607e-05
1.42058e-05
1.36795e-05
1.31818e-05
1.27119e-05
1.22691e-05
1.18518e-05
1.14592e-05
1.13566e-05
1.12535e-05
1.11482e-05
1.1044e-05
1.09437e-05
1.08484e-05
1.0758e-05
1.06716e-05
1.05883e-05
1.05071e-05
1.04272e-05
1.03484e-05
1.02706e-05
1.01939e-05
1.01182e-05
1.00438e-05
9.97038e-06
9.8976e-06
9.82497e-06
9.75196e-06
9.67813e-06
9.60321e-06
9.5271e-06
9.44997e-06
9.37206e-06
9.29387e-06
9.21688e-06
9.14306e-06
9.07252e-06
9.00074e-06
8.92924e-06
2.3234e-05
2.21894e-05
2.12298e-05
2.03404e-05
1.95086e-05
1.87256e-05
1.79844e-05
1.72799e-05
1.66083e-05
1.59673e-05
1.53557e-05
1.4773e-05
1.42191e-05
1.36939e-05
1.31973e-05
1.27286e-05
1.22868e-05
1.18702e-05
1.14779e-05
1.13751e-05
1.12716e-05
1.11653e-05
1.10598e-05
1.09579e-05
1.08608e-05
1.07687e-05
1.06809e-05
1.05964e-05
1.05144e-05
1.04344e-05
1.03559e-05
1.02789e-05
1.02033e-05
1.0129e-05
1.00557e-05
9.9832e-06
9.91085e-06
9.8381e-06
9.76438e-06
9.68926e-06
9.6126e-06
9.53462e-06
9.45579e-06
9.3766e-06
9.2971e-06
9.21746e-06
9.13905e-06
9.06419e-06
8.99105e-06
8.91905e-06
2.32339e-05
2.21892e-05
2.12297e-05
2.03402e-05
1.95083e-05
1.87249e-05
1.79833e-05
1.72782e-05
1.6606e-05
1.59646e-05
1.53528e-05
1.47701e-05
1.42167e-05
1.36923e-05
1.31968e-05
1.27292e-05
1.22884e-05
1.18727e-05
1.1481e-05
1.13768e-05
1.12744e-05
1.11685e-05
1.10628e-05
1.09602e-05
1.08623e-05
1.07692e-05
1.06806e-05
1.05957e-05
1.05138e-05
1.04344e-05
1.03572e-05
1.02818e-05
1.0208e-05
1.01356e-05
1.0064e-05
9.99279e-06
9.92122e-06
9.84867e-06
9.77456e-06
9.69845e-06
9.62025e-06
9.54026e-06
9.45909e-06
9.37777e-06
9.29686e-06
9.21632e-06
9.13624e-06
9.05847e-06
8.9832e-06
8.91012e-06
2.32338e-05
2.21891e-05
2.12296e-05
2.03402e-05
1.95081e-05
1.87247e-05
1.79829e-05
1.72778e-05
1.66058e-05
1.59647e-05
1.53535e-05
1.47719e-05
1.42197e-05
1.36969e-05
1.3203e-05
1.27371e-05
1.22976e-05
1.18829e-05
1.14903e-05
1.12071e-05
1.11658e-05
1.11002e-05
1.10208e-05
1.09352e-05
1.08478e-05
1.07611e-05
1.06761e-05
1.05933e-05
1.05128e-05
1.04346e-05
1.03586e-05
1.02846e-05
1.02123e-05
1.01412e-05
1.00708e-05
1.00003e-05
9.92892e-06
9.85608e-06
9.78119e-06
9.70393e-06
9.62437e-06
9.54274e-06
9.45963e-06
9.37598e-06
9.29288e-06
9.21082e-06
9.12971e-06
9.05052e-06
8.97395e-06
8.90006e-06
2.32337e-05
2.2189e-05
2.12295e-05
2.03397e-05
1.95072e-05
1.87232e-05
1.79809e-05
1.72752e-05
1.66029e-05
1.59618e-05
1.53509e-05
1.477e-05
1.42189e-05
1.36975e-05
1.3205e-05
1.27404e-05
1.2302e-05
1.18882e-05
1.14961e-05
1.12108e-05
1.11731e-05
1.11147e-05
1.10429e-05
1.09628e-05
1.08781e-05
1.07913e-05
1.07041e-05
1.06178e-05
1.05333e-05
1.04513e-05
1.0372e-05
1.02955e-05
1.02212e-05
1.01486e-05
1.00769e-05
1.00052e-05
9.93268e-06
9.85845e-06
9.78194e-06
9.70297e-06
9.62171e-06
9.53856e-06
9.45405e-06
9.3689e-06
9.2841e-06
9.20062e-06
9.11863e-06
9.03869e-06
8.96156e-06
8.88746e-06
2.32337e-05
2.2189e-05
2.12293e-05
2.0339e-05
1.95058e-05
1.8721e-05
1.7978e-05
1.72719e-05
1.65993e-05
1.59584e-05
1.53482e-05
1.47684e-05
1.42188e-05
1.3699e-05
1.32081e-05
1.2745e-05
1.2308e-05
1.18951e-05
1.15035e-05
1.12184e-05
1.11806e-05
1.1122e-05
1.10498e-05
1.09691e-05
1.08837e-05
1.07962e-05
1.07085e-05
1.06221e-05
1.05379e-05
1.04566e-05
1.03782e-05
1.03027e-05
1.02294e-05
1.01577e-05
1.00864e-05
1.00146e-05
9.94135e-06
9.86581e-06
9.78752e-06
9.70641e-06
9.62286e-06
9.53755e-06
9.45115e-06
9.36428e-06
9.27775e-06
9.19256e-06
9.1093e-06
9.02847e-06
8.95061e-06
8.87613e-06
2.32338e-05
2.21891e-05
2.1229e-05
2.03381e-05
1.9504e-05
1.87182e-05
1.79744e-05
1.72676e-05
1.65948e-05
1.59541e-05
1.53446e-05
1.4766e-05
1.42178e-05
1.36996e-05
1.32103e-05
1.27486e-05
1.23128e-05
1.19008e-05
1.15098e-05
1.12247e-05
1.11868e-05
1.11275e-05
1.10544e-05
1.09728e-05
1.08867e-05
1.0799e-05
1.07116e-05
1.0626e-05
1.05432e-05
1.04636e-05
1.03873e-05
1.03138e-05
1.02422e-05
1.01717e-05
1.0101e-05
1.00291e-05
9.95486e-06
9.8777e-06
9.79735e-06
9.71386e-06
9.62779e-06
9.53998e-06
9.45137e-06
9.36266e-06
9.27458e-06
9.18791e-06
9.10331e-06
9.02146e-06
8.94281e-06
8.86785e-06
2.32338e-05
2.21891e-05
2.12285e-05
2.03367e-05
1.95016e-05
1.87147e-05
1.79698e-05
1.72624e-05
1.65893e-05
1.59489e-05
1.53402e-05
1.47627e-05
1.42159e-05
1.36991e-05
1.32112e-05
1.27509e-05
1.23163e-05
1.19051e-05
1.15145e-05
1.12297e-05
1.11918e-05
1.11322e-05
1.10588e-05
1.09772e-05
1.08915e-05
1.08046e-05
1.07186e-05
1.06348e-05
1.05542e-05
1.0477e-05
1.04031e-05
1.03317e-05
1.02618e-05
1.01922e-05
1.01217e-05
1.00489e-05
9.97311e-06
9.89373e-06
9.81074e-06
9.72455e-06
9.63587e-06
9.54554e-06
9.45473e-06
9.36414e-06
9.27455e-06
9.18667e-06
9.10103e-06
9.01822e-06
8.93881e-06
8.86328e-06
2.32338e-05
2.2189e-05
2.12278e-05
2.03351e-05
1.94987e-05
1.87107e-05
1.79648e-05
1.72568e-05
1.65837e-05
1.59437e-05
1.5336e-05
1.47598e-05
1.42146e-05
1.36994e-05
1.32132e-05
1.27544e-05
1.2321e-05
1.19107e-05
1.15206e-05
1.12351e-05
1.11953e-05
1.11334e-05
1.10578e-05
1.09742e-05
1.0887e-05
1.07991e-05
1.07128e-05
1.06294e-05
1.05499e-05
1.04742e-05
1.0402e-05
1.03324e-05
1.02641e-05
1.01956e-05
1.01256e-05
1.00527e-05
9.97614e-06
9.89557e-06
9.81116e-06
9.72349e-06
9.63359e-06
9.5423e-06
9.45078e-06
9.35982e-06
9.27012e-06
9.18219e-06
9.09662e-06
9.01386e-06
8.93447e-06
8.859e-06
2.32338e-05
2.21887e-05
2.12267e-05
2.03328e-05
1.9495e-05
1.87056e-05
1.79585e-05
1.72496e-05
1.65761e-05
1.59363e-05
1.53291e-05
1.47538e-05
1.42096e-05
1.36957e-05
1.32107e-05
1.2753e-05
1.23205e-05
1.19109e-05
1.15207e-05
1.12228e-05
1.11707e-05
1.11017e-05
1.10237e-05
1.09413e-05
1.08574e-05
1.07742e-05
1.06931e-05
1.06153e-05
1.05411e-05
1.04705e-05
1.04027e-05
1.03366e-05
1.02708e-05
1.02039e-05
1.01343e-05
1.00609e-05
9.98317e-06
9.90087e-06
9.81454e-06
9.72501e-06
9.63343e-06
9.54098e-06
9.44859e-06
9.3571e-06
9.26719e-06
9.17921e-06
9.09355e-06
9.01069e-06
8.93119e-06
8.85567e-06
2.32338e-05
2.21882e-05
2.12255e-05
2.03304e-05
1.94916e-05
1.87012e-05
1.79536e-05
1.72447e-05
1.65717e-05
1.59329e-05
1.5327e-05
1.47531e-05
1.42105e-05
1.36982e-05
1.32147e-05
1.27584e-05
1.23269e-05
1.19178e-05
1.15278e-05
1.12294e-05
1.11743e-05
1.11037e-05
1.10245e-05
1.0941e-05
1.08559e-05
1.07717e-05
1.06899e-05
1.06118e-05
1.05377e-05
1.04674e-05
1.04001e-05
1.03345e-05
1.0269e-05
1.02019e-05
1.01317e-05
1.00575e-05
9.97846e-06
9.89475e-06
9.80707e-06
9.7165e-06
9.6241e-06
9.53132e-06
9.43907e-06
9.348e-06
9.25867e-06
9.1714e-06
9.08649e-06
9.00432e-06
8.92554e-06
8.8508e-06
2.32337e-05
2.21873e-05
2.12227e-05
2.03254e-05
1.94841e-05
1.86912e-05
1.79415e-05
1.7231e-05
1.6557e-05
1.59177e-05
1.53119e-05
1.47385e-05
1.41966e-05
1.36853e-05
1.32029e-05
1.27475e-05
1.23167e-05
1.19082e-05
1.152e-05
1.13571e-05
1.12356e-05
1.11366e-05
1.10464e-05
1.09591e-05
1.08735e-05
1.07898e-05
1.07091e-05
1.06322e-05
1.05592e-05
1.04898e-05
1.04231e-05
1.03575e-05
1.02915e-05
1.02233e-05
1.01514e-05
1.00748e-05
9.99332e-06
9.90714e-06
9.81714e-06
9.72468e-06
9.631e-06
9.53734e-06
9.44482e-06
9.35402e-06
9.26527e-06
9.17884e-06
9.09507e-06
9.01435e-06
8.93738e-06
8.86496e-06
2.32336e-05
2.21866e-05
2.12218e-05
2.03248e-05
1.94839e-05
1.86917e-05
1.79427e-05
1.72331e-05
1.65601e-05
1.59218e-05
1.53169e-05
1.47445e-05
1.42036e-05
1.3693e-05
1.32111e-05
1.27559e-05
1.2325e-05
1.1916e-05
1.15269e-05
1.13643e-05
1.12421e-05
1.11424e-05
1.10518e-05
1.09648e-05
1.08799e-05
1.07974e-05
1.07183e-05
1.06432e-05
1.05721e-05
1.05046e-05
1.04395e-05
1.03754e-05
1.03106e-05
1.02432e-05
1.01719e-05
1.00959e-05
1.00149e-05
9.92944e-06
9.84068e-06
9.74999e-06
9.6589e-06
9.5686e-06
9.48007e-06
9.39402e-06
9.31074e-06
9.23044e-06
9.1535e-06
9.08052e-06
9.01235e-06
8.95003e-06
2.32335e-05
2.21787e-05
2.12051e-05
2.03002e-05
1.94527e-05
1.86555e-05
1.79033e-05
1.7192e-05
1.65188e-05
1.58816e-05
1.52788e-05
1.47093e-05
1.41719e-05
1.36652e-05
1.31873e-05
1.27362e-05
1.23093e-05
1.19043e-05
1.15192e-05
1.13607e-05
1.12417e-05
1.11447e-05
1.10595e-05
1.09777e-05
1.08998e-05
1.08251e-05
1.07558e-05
1.06894e-05
1.06264e-05
1.05668e-05
1.05103e-05
1.04555e-05
1.04006e-05
1.03437e-05
1.02834e-05
1.02187e-05
1.01497e-05
1.0077e-05
1.00019e-05
9.92599e-06
9.85089e-06
9.77792e-06
9.70794e-06
9.64155e-06
9.57906e-06
9.52071e-06
9.4668e-06
9.41803e-06
9.37555e-06
9.34097e-06
2.32364e-05
2.21901e-05
2.12302e-05
2.03404e-05
1.95115e-05
1.87371e-05
1.80119e-05
1.7332e-05
1.66933e-05
1.60928e-05
1.55283e-05
1.4998e-05
1.45004e-05
1.40336e-05
1.35956e-05
1.31841e-05
1.27963e-05
1.24299e-05
1.2082e-05
1.17503e-05
1.14346e-05
1.13571e-05
1.13627e-05
1.11987e-05
1.10916e-05
1.10162e-05
1.11269e-05
1.11864e-05
1.1213e-05
1.12205e-05
1.12174e-05
1.12083e-05
1.11945e-05
1.11759e-05
1.11516e-05
1.11211e-05
1.10847e-05
1.10437e-05
1.09998e-05
1.09552e-05
1.09115e-05
1.08703e-05
1.08326e-05
1.07988e-05
1.07689e-05
1.07428e-05
1.07205e-05
1.07028e-05
1.06911e-05
1.06881e-05
2.38359e-05
2.36251e-05
2.34275e-05
2.3238e-05
2.30519e-05
2.2866e-05
2.26784e-05
2.24883e-05
2.22968e-05
2.21053e-05
2.19148e-05
2.17266e-05
2.1541e-05
2.13583e-05
2.11781e-05
2.09999e-05
2.08227e-05
2.06456e-05
2.04677e-05
2.02879e-05
2.01069e-05
1.99083e-05
1.96627e-05
1.9428e-05
1.92054e-05
1.89952e-05
1.87983e-05
1.86125e-05
1.84349e-05
1.82629e-05
1.80944e-05
1.7928e-05
1.77628e-05
1.7598e-05
1.74336e-05
1.72695e-05
1.71061e-05
1.69442e-05
1.67849e-05
1.66292e-05
1.64782e-05
1.63325e-05
1.61924e-05
1.60582e-05
1.59294e-05
1.58059e-05
1.56872e-05
1.55726e-05
1.54612e-05
1.53521e-05
3.82064e-06
3.83091e-06
3.47695e-06
3.00248e-06
2.67838e-06
2.48252e-06
2.34247e-06
2.21463e-06
2.08989e-06
2.00679e-06
1.97874e-06
1.87805e-06
1.85964e-06
1.88517e-06
1.85501e-06
1.93124e-06
1.99386e-06
2.05464e-06
2.15017e-06
2.29502e-06
3.90211e-06
3.96598e-06
3.65535e-06
3.15137e-06
2.78377e-06
2.55444e-06
2.39521e-06
2.25373e-06
2.10792e-06
1.99545e-06
1.96474e-06
1.86801e-06
1.83579e-06
1.91696e-06
1.9087e-06
1.98816e-06
2.04149e-06
2.09832e-06
2.19942e-06
2.34837e-06
3.95295e-06
4.11806e-06
3.84621e-06
3.32615e-06
2.91228e-06
2.64411e-06
2.46414e-06
2.31218e-06
2.14844e-06
2.0033e-06
1.93983e-06
1.90137e-06
1.84535e-06
1.95846e-06
1.96978e-06
2.03441e-06
2.08363e-06
2.14194e-06
2.25159e-06
2.40203e-06
3.98619e-06
4.26226e-06
4.03772e-06
3.52153e-06
3.06256e-06
2.75058e-06
2.54683e-06
2.3854e-06
2.21601e-06
2.04807e-06
1.94065e-06
1.95969e-06
1.99403e-06
2.06551e-06
2.0947e-06
2.11118e-06
2.13488e-06
2.18972e-06
2.30669e-06
2.45521e-06
4.0483e-06
4.38187e-06
4.21567e-06
3.72898e-06
3.22878e-06
2.8674e-06
2.63529e-06
2.46657e-06
2.30462e-06
2.13859e-06
2.01331e-06
2.02008e-06
2.06971e-06
2.14495e-06
2.1594e-06
2.16216e-06
2.18008e-06
2.23924e-06
2.36267e-06
2.50624e-06
4.12951e-06
4.47359e-06
4.3736e-06
3.93618e-06
3.40076e-06
2.98751e-06
2.72355e-06
2.54869e-06
2.40101e-06
2.24758e-06
2.13137e-06
2.11605e-06
2.16661e-06
2.20033e-06
2.20546e-06
2.20379e-06
2.22421e-06
2.29186e-06
2.41843e-06
2.55424e-06
4.21243e-06
4.54379e-06
4.51655e-06
4.13383e-06
3.5681e-06
3.10393e-06
2.80695e-06
2.62376e-06
2.48782e-06
2.35154e-06
2.23776e-06
2.22325e-06
2.24299e-06
2.2622e-06
2.24983e-06
2.2455e-06
2.27195e-06
2.34788e-06
2.47285e-06
2.59728e-06
4.27863e-06
4.59195e-06
4.64532e-06
4.32037e-06
3.72456e-06
3.20996e-06
2.87971e-06
2.68667e-06
2.56167e-06
2.46651e-06
2.39052e-06
2.3285e-06
2.3301e-06
2.30515e-06
2.28401e-06
2.28514e-06
2.32186e-06
2.40403e-06
2.52404e-06
2.6345e-06
4.32323e-06
4.61317e-06
4.75421e-06
4.4983e-06
3.87288e-06
3.30467e-06
2.93936e-06
2.73401e-06
2.61122e-06
2.52921e-06
2.46082e-06
2.39908e-06
2.36228e-06
2.32587e-06
2.3097e-06
2.32169e-06
2.36901e-06
2.45508e-06
2.56866e-06
2.66575e-06
4.37105e-06
4.60578e-06
4.83874e-06
4.66202e-06
4.01525e-06
3.39342e-06
2.98997e-06
2.76752e-06
2.63925e-06
2.55201e-06
2.48159e-06
2.4157e-06
2.37196e-06
2.34039e-06
2.3322e-06
2.35455e-06
2.41124e-06
2.50057e-06
2.60784e-06
2.69266e-06
4.41658e-06
4.6204e-06
4.89466e-06
4.7956e-06
4.14183e-06
3.47252e-06
3.03337e-06
2.79286e-06
2.65632e-06
2.56117e-06
2.48787e-06
2.42386e-06
2.37902e-06
2.35223e-06
2.35226e-06
2.38435e-06
2.44929e-06
2.54085e-06
2.64166e-06
2.7164e-06
4.46096e-06
4.70042e-06
4.95028e-06
4.88581e-06
4.2336e-06
3.53491e-06
3.06633e-06
2.80937e-06
2.66565e-06
2.56436e-06
2.4891e-06
2.42707e-06
2.38358e-06
2.36244e-06
2.37093e-06
2.41237e-06
2.4843e-06
2.57665e-06
2.67146e-06
2.73831e-06
4.50343e-06
4.81729e-06
5.04717e-06
4.97187e-06
4.29741e-06
3.56769e-06
3.08105e-06
2.81775e-06
2.66891e-06
2.56416e-06
2.48859e-06
2.42852e-06
2.38805e-06
2.37322e-06
2.39037e-06
2.44044e-06
2.518e-06
2.61039e-06
2.69928e-06
2.75888e-06
4.54458e-06
4.97028e-06
5.18293e-06
5.04458e-06
4.322e-06
3.56833e-06
3.0773e-06
2.81572e-06
2.66824e-06
2.56359e-06
2.48917e-06
2.43155e-06
2.39496e-06
2.38645e-06
2.41168e-06
2.46959e-06
2.55188e-06
2.64358e-06
2.72616e-06
2.77822e-06
4.5866e-06
5.20368e-06
5.36144e-06
5.08806e-06
4.29339e-06
3.53109e-06
3.05555e-06
2.80693e-06
2.66573e-06
2.56527e-06
2.49331e-06
2.4384e-06
2.40582e-06
2.40321e-06
2.43553e-06
2.50013e-06
2.58617e-06
2.67638e-06
2.75225e-06
2.79612e-06
5.36815e-06
5.5621e-06
5.56405e-06
5.07691e-06
4.20168e-06
3.45767e-06
3.02044e-06
2.79558e-06
2.66489e-06
2.57103e-06
2.50201e-06
2.44959e-06
2.42037e-06
2.42285e-06
2.46114e-06
2.53124e-06
2.61993e-06
2.70799e-06
2.7772e-06
2.81222e-06
6.24203e-06
6.13022e-06
5.77091e-06
4.98808e-06
4.04772e-06
3.35764e-06
2.97934e-06
2.78565e-06
2.66791e-06
2.58153e-06
2.51504e-06
2.46408e-06
2.43692e-06
2.44318e-06
2.48629e-06
2.56073e-06
2.65134e-06
2.73731e-06
2.80045e-06
2.82619e-06
6.94911e-06
6.8124e-06
5.85998e-06
4.78591e-06
3.8456e-06
3.24937e-06
2.94116e-06
2.78e-06
2.67532e-06
2.59571e-06
2.53066e-06
2.47985e-06
2.45331e-06
2.46165e-06
2.50822e-06
2.58621e-06
2.67875e-06
2.76354e-06
2.82163e-06
2.83783e-06
7.65567e-06
6.8684e-06
5.56992e-06
4.44625e-06
3.62621e-06
3.15309e-06
2.91235e-06
2.77948e-06
2.6859e-06
2.61091e-06
2.54622e-06
2.49463e-06
2.46732e-06
2.47596e-06
2.52464e-06
2.60589e-06
2.70121e-06
2.78637e-06
2.84079e-06
2.84711e-06
7.93885e-06
6.58405e-06
5.14939e-06
4.1088e-06
3.44595e-06
3.0835e-06
2.89498e-06
2.78293e-06
2.69748e-06
2.62496e-06
2.55988e-06
2.50674e-06
2.47742e-06
2.4849e-06
2.53455e-06
2.6189e-06
2.71827e-06
2.80596e-06
2.85838e-06
2.85413e-06
8.03212e-06
6.3806e-06
4.86034e-06
3.87663e-06
3.32695e-06
3.0406e-06
2.88652e-06
2.78822e-06
2.70844e-06
2.63716e-06
2.57108e-06
2.51569e-06
2.48361e-06
2.48889e-06
2.53838e-06
2.62546e-06
2.73012e-06
2.82276e-06
2.87498e-06
2.85908e-06
8.05617e-06
6.23418e-06
4.68732e-06
3.73908e-06
3.25641e-06
3.01674e-06
2.88368e-06
2.79436e-06
2.71856e-06
2.6479e-06
2.58064e-06
2.52266e-06
2.48728e-06
2.48946e-06
2.53775e-06
2.62692e-06
2.7376e-06
2.83728e-06
2.89108e-06
2.86222e-06
8.05437e-06
6.14342e-06
4.56387e-06
3.66401e-06
3.21815e-06
3.00561e-06
2.88556e-06
2.80236e-06
2.72868e-06
2.65867e-06
2.59057e-06
2.52991e-06
2.49052e-06
2.4888e-06
2.53507e-06
2.62542e-06
2.74181e-06
2.84979e-06
2.90699e-06
2.86393e-06
8.04828e-06
6.0896e-06
4.48737e-06
3.61728e-06
3.20079e-06
3.00452e-06
2.89322e-06
2.81297e-06
2.74091e-06
2.67156e-06
2.60293e-06
2.53953e-06
2.49558e-06
2.48925e-06
2.53268e-06
2.62299e-06
2.74374e-06
2.86027e-06
2.92283e-06
2.86472e-06
8.0461e-06
6.06395e-06
4.44666e-06
3.59448e-06
3.19683e-06
3.01221e-06
2.90599e-06
2.8281e-06
2.75728e-06
2.68831e-06
2.61895e-06
2.55282e-06
2.50405e-06
2.49232e-06
2.53198e-06
2.62081e-06
2.74386e-06
2.8684e-06
2.93846e-06
2.86513e-06
8.05221e-06
6.05888e-06
4.43393e-06
3.59122e-06
3.20558e-06
3.02781e-06
2.92508e-06
2.8489e-06
2.77884e-06
2.70964e-06
2.639e-06
2.57008e-06
2.51632e-06
2.4985e-06
2.53334e-06
2.61875e-06
2.74164e-06
2.87343e-06
2.95346e-06
2.86581e-06
8.06606e-06
6.07218e-06
4.44319e-06
3.6049e-06
3.22544e-06
3.05137e-06
2.95065e-06
2.87531e-06
2.80537e-06
2.73512e-06
2.66249e-06
2.59056e-06
2.53177e-06
2.50754e-06
2.53653e-06
2.61587e-06
2.73569e-06
2.87426e-06
2.96723e-06
2.86745e-06
8.08938e-06
6.10539e-06
4.47017e-06
3.63166e-06
3.25439e-06
3.08189e-06
2.98176e-06
2.90626e-06
2.83538e-06
2.76322e-06
2.68801e-06