/*--------------------------------*- C++ -*----------------------------------*\
  =========                 |
  \\      /  F ield         | OpenFOAM: The Open Source CFD Toolbox
   \\    /   O peration     | Website:  https://openfoam.org
    \\  /    A nd           | Version:  8
     \\/     M anipulation  |
\*---------------------------------------------------------------------------*/
FoamFile
{
    version     2.0;
    format      ascii;
    class       volScalarField;
    location    "900";
    object      p_rgh;
}
// * * * * * * * * * * * * * * * * * * * * * * * * * * * * * * * * * * * * * //

dimensions      [1 -1 -2 0 0 0 0];

internalField   nonuniform List<scalar> 
8400
(
34816.9
81295.9
111502
133006
157696
197380
252480
312603
366813
411448
448960
483761
517937
552495
587780
623131
656289
684920
708906
729106
745426
757178
764389
767674
767808
765599
761890
757562
753510
750619
749702
751446
756382
764836
776800
791853
809191
827748
846357
863943
879675
893041
903843
912144
918207
922420
925191
926885
927832
928338
38473.6
82717.9
101400
114320
134735
178617
245358
317346
376791
419649
452784
484500
517363
551584
587517
624516
659418
688403
712236
732860
749901
761787
768530
771004
770165
766917
762190
756922
752045
748441
746890
748031
752369
760276
771832
786658
803955
822624
841464
859376
875520
889374
900722
909608
916261
921025
924277
926379
927646
928338
42693
84875.2
106431
121063
139449
182062
254470
335092
399964
440008
463165
485507
512009
543055
580108
622920
663892
693363
716290
738116
757673
770245
776196
777189
774623
769563
763063
756142
749765
744816
742070
742173
745662
752987
764311
779236
796871
816020
835415
853920
870677
885155
897144
906688
914001
919388
923193
925754
927373
928303
20301.2
68893.5
97761.4
114572
133743
175680
245019
322751
387679
431299
461276
489187
520264
555948
599482
648228
685959
703738
717015
740743
767986
781714
786406
785293
780308
772706
763727
754489
745994
739172
734855
733725
736310
743070
754201
769264
787311
807088
827267
846639
864285
879643
892495
902881
910997
917121
921574
924678
926715
927930
-3735.8
56370.3
97687.1
121080
142953
176675
224705
279839
334511
385371
433217
479903
525388
569397
613670
657633
687384
705265
730180
768224
792382
797216
798790
795041
786848
776070
764148
752269
741443
732657
726768
724421
726016
731931
742489
757420
775854
796463
817762
838365
857224
873710
887583
898882
907810
914646
919711
923325
925767
927290
6075.6
46149.9
78554.4
100754
122216
150649
187048
227797
269304
310798
354045
401144
452501
507000
562952
617332
663404
701508
738648
777427
797753
809418
811319
803842
792286
778323
763564
749146
736093
725408
717921
714177
714378
718932
728591
743467
762678
784620
807532
829789
850163
867937
882863
895020
904653
912079
917645
921689
924498
926345
-8477.84
25053.1
55585
80993.8
106767
136341
169502
204353
239559
275407
313558
355985
403894
457239
514732
573771
630402
682519
730055
771655
797654
812311
813788
807120
794306
778089
761271
744943
730101
717725
708656
703380
702048
705313
714397
729700
750040
773453
798015
821894
843722
862715
878614
891521
901728
909606
915554
919944
923091
925285
-4162.03
22821.8
50463.4
75117
99648.9
125421
152316
180165
209397
241057
276475
316899
363118
415198
472329
532697
593544
652040
705510
750910
782977
801874
807004
802244
790705
774842
757140
739941
724017
710399
700038
693566
691274
693809
702587
718451
739684
764017
789709
814848
837929
858071
874924
888554
899284
907542
913779
918413
921793
924217
-5725.63
17114.5
41037.9
62885.1
84819.6
107570
131280
156524
184203
215247
250452
290438
335588
385945
441089
499920
560538
620317
675985
723918
760199
783503
793560
792544
783339
768780
752116
735068
718820
704667
693585
686490
683872
685890
694059
710187
732071
756857
783129
809150
833291
854467
872196
886487
897659
906173
912547
917247
920680
923177
-4165.56
16039.7
37245.8
56811.5
76715
97522.3
119605
143644
170462
200793
235194
274059
317587
365783
418404
474781
533610
592689
648845
698414
737878
765250
779861
782769
776275
763416
747908
731749
716208
702331
691096
683676
680936
682601
689841
705554
728167
753626
780174
806428
830951
852620
870837
885514
896919
905522
911872
916485
919822
922268
-837.694
18272
37132
54532.1
72279.4
91057.1
111588
134617
160749
190520
224320
262420
304916
351741
402709
457358
514729
572970
629205
679981
721961
752786
771279
777739
773923
762805
748145
732514
717362
703584
692106
684233
681089
683086
691337
707752
730477
755729
781669
807241
831286
852729
870894
885584
896986
905521
911733
916159
919299
921593
6090.61
21989
38486
54629.8
71156.6
88812.7
108439
130784
156425
185821
219309
257091
299196
345509
395846
449798
506501
564270
620544
672191
716046
749582
771248
780798
779459
769887
755678
739877
724438
710526
699126
691455
688649
691542
700935
717453
739016
762814
787179
811213
833997
854570
872209
886596
897795
906142
912136
916307
919179
921237
9967.29
24637.6
39475.1
54983.2
71175.8
88635.2
108119
130388
156076
185655
219475
257710
300359
347297
398253
452717
509711
567522
623918
676185
721358
756913
781080
793192
793983
785696
771670
755221
738891
724379
712907
705575
703325
706835
716516
732215
751945
773525
795609
817489
838469
857717
874493
888357
899226
907317
913056
916938
919497
921268
11192.3
25628.9
40460.9
55814.5
72080.4
89830.8
109786
132655
159037
189401
224101
263356
307207
355543
408018
463931
522062
580720
637879
690920
737059
774083
800136
814236
816703
809368
795283
777893
760236
744571
732443
724928
722786
726396
735732
750116
767618
786474
805763
825072
843921
861593
877331
890570
901070
908905
914406
918007
920251
921724
11921.8
26596.5
42256.4
58305.7
75335.4
93962.8
114914
138893
166502
198218
234387
275228
320774
370866
425063
482556
542088
602049
660268
713980
760868
798953
826314
841848
845530
838733
824194
805435
785947
768551
755172
746953
744469
747741
756291
769038
784087
800016
816317
832908
849533
865579
880260
892892
903070
910720
916058
919439
921424
922641
12827.5
27959.8
44546.5
61757.7
80128.5
100257
122817
148488
177872
211448
249563
292411
339999
392108
448237
507527
568728
630165
689545
744049
791184
829126
856775
873197
877707
871011
855459
834686
812723
793051
778034
768885
765903
768670
776249
787221
799759
812769
826133
840090
854593
869119
882854
894993
904972
912567
917872
921158
923015
924084
13641.2
29689
47186.1
65533.4
85268.9
106975
131297
158879
190296
226014
266378
311551
361503
415976
474416
535912
599144
662302
722993
778392
825791
862994
889360
905332
910228
903304
886177
862633
837465
815032
798226
788258
784991
787431
794143
803418
813565
823845
834511
846081
858694
871900
884856
896651
906581
914277
919717
923103
925054
926101
14550.2
32025.5
50722.2
70355.5
91525.3
114822
140877
170315
203700
241500
284045
331495
383805
440673
501491
565272
630586
695482
757457
813633
861185
897739
922210
936136
940368
932937
913833
886852
857871
832450
814138
804020
801280
804116
810460
818293
826175
833833
841917
851223
862051
874021
886271
897799
907770
915690
921428
925143
927437
928487
14245.2
32684.2
52332.3
73019.6
95357.5
119946
147406
178348
213330
252820
297141
346459
400725
459619
522495
588318
655576
722224
785687
843011
891211
927745
951261
963006
965389
956988
935408
904218
870678
841928
822326
812728
811406
815506
822197
829221
835460
841106
847171
854688
864100
875096
886811
898182
908275
916492
922621
926803
929511
930479
14565.1
33973.9
54339.4
75762.5
98918.2
124437
152943
185058
221340
262249
308113
359094
415134
475896
540706
608477
677632
746041
811038
869539
918327
954512
976391
985004
984741
975534
952290
917565
879853
847814
826623
817075
816723
821847
828970
835679
841024
845478
850272
856588
864985
875223
886469
897646
907772
916186
922619
927166
930076
931063
934396
934395
934395
934395
934395
934395
934395
934395
934395
934395
934395
934395
934395
934395
934395
934395
934395
934395
934395
934394
934394
934394
934394
934394
934394
934393
934393
934393
934393
934393
934392
934392
934392
934392
934392
934391
934391
934391
934391
934391
934391
934390
934390
934390
934390
934390
934390
934389
934389
934389
934395
934395
934395
934395
934395
934395
934395
934395
934395
934395
934395
934394
934394
934394
934394
934394
934394
934394
934394
934394
934394
934394
934394
934394
934393
934393
934393
934393
934393
934392
934392
934392
934392
934392
934391
934391
934391
934391
934391
934390
934390
934390
934390
934390
934390
934389
934389
934389
934389
934389
934395
934395
934395
934395
934395
934395
934395
934395
934395
934395
934395
934394
934394
934394
934394
934394
934394
934394
934394
934394
934394
934394
934394
934394
934393
934393
934393
934393
934393
934392
934392
934392
934392
934392
934391
934391
934391
934391
934391
934390
934390
934390
934390
934390
934390
934389
934389
934389
934389
934389
934395
934395
934395
934395
934395
934395
934395
934395
934395
934395
934395
934394
934394
934394
934394
934394
934394
934394
934394
934394
934394
934394
934394
934394
934393
934393
934393
934393
934393
934392
934392
934392
934392
934392
934391
934391
934391
934391
934391
934390
934390
934390
934390
934390
934390
934389
934389
934389
934389
934389
934395
934395
934395
934395
934395
934395
934395
934395
934395
934395
934395
934394
934394
934394
934394
934394
934394
934394
934394
934394
934394
934394
934394
934394
934393
934393
934393
934393
934393
934392
934392
934392
934392
934392
934391
934391
934391
934391
934391
934390
934390
934390
934390
934390
934390
934389
934389
934389
934389
934389
934395
934395
934395
934395
934395
934395
934395
934395
934395
934395
934395
934394
934394
934394
934394
934394
934394
934394
934394
934394
934394
934394
934394
934394
934393
934393
934393
934393
934393
934392
934392
934392
934392
934392
934391
934391
934391
934391
934391
934390
934390
934390
934390
934390
934390
934389
934389
934389
934389
934389
934395
934395
934395
934395
934395
934395
934395
934395
934395
934395
934395
934394
934394
934394
934394
934394
934394
934394
934394
934394
934394
934394
934394
934394
934393
934393
934393
934393
934393
934393
934392
934392
934392
934392
934391
934391
934391
934391
934391
934390
934390
934390
934390
934390
934390
934389
934389
934389
934389
934389
934395
934395
934395
934395
934395
934395
934395
934395
934395
934395
934395
934394
934394
934394
934394
934394
934394
934394
934394
934394
934394
934394
934394
934394
934393
934393
934393
934393
934393
934393
934392
934392
934392
934392
934392
934391
934391
934391
934391
934390
934390
934390
934390
934390
934390
934389
934389
934389
934389
934389
934395
934395
934395
934395
934395
934395
934395
934395
934395
934395
934395
934394
934394
934394
934394
934394
934394
934394
934394
934394
934394
934394
934394
934394
934393
934393
934393
934393
934393
934393
934392
934392
934392
934392
934392
934391
934391
934391
934391
934390
934390
934390
934390
934390
934390
934389
934389
934389
934389
934389
934395
934395
934395
934395
934395
934395
934395
934395
934395
934395
934395
934394
934394
934394
934394
934394
934394
934394
934394
934394
934394
934394
934394
934394
934393
934393
934393
934393
934393
934393
934392
934392
934392
934392
934392
934391
934391
934391
934391
934390
934390
934390
934390
934390
934390
934389
934389
934389
934389
934389
934395
934395
934395
934395
934395
934395
934395
934395
934395
934395
934395
934394
934394
934394
934394
934394
934394
934394
934394
934394
934394
934394
934394
934394
934393
934393
934393
934393
934393
934393
934392
934392
934392
934392
934392
934391
934391
934391
934391
934391
934390
934390
934390
934390
934390
934389
934389
934389
934389
934389
934395
934395
934395
934395
934395
934395
934395
934395
934395
934395
934395
934394
934394
934394
934394
934394
934394
934394
934394
934394
934394
934394
934394
934394
934393
934393
934393
934393
934393
934393
934393
934392
934392
934392
934392
934391
934391
934391
934391
934391
934390
934390
934390
934390
934390
934389
934389
934389
934389
934389
934395
934395
934395
934395
934395
934395
934395
934395
934395
934395
934395
934394
934394
934394
934394
934394
934394
934394
934394
934394
934394
934394
934394
934394
934393
934393
934393
934393
934393
934393
934393
934392
934392
934392
934392
934391
934391
934391
934391
934391
934390
934390
934390
934390
934390
934389
934389
934389
934389
934389
934395
934395
934395
934395
934395
934395
934395
934395
934395
934395
934395
934394
934394
934394
934394
934394
934394
934394
934394
934394
934394
934394
934394
934394
934393
934393
934393
934393
934393
934393
934393
934392
934392
934392
934392
934391
934391
934391
934391
934391
934390
934390
934390
934390
934390
934389
934389
934389
934389
934389
934395
934395
934395
934395
934395
934395
934395
934395
934395
934395
934395
934394
934394
934394
934394
934394
934394
934394
934394
934394
934394
934394
934394
934394
934393
934393
934393
934393
934393
934393
934393
934392
934392
934392
934392
934391
934391
934391
934391
934391
934390
934390
934390
934390
934390
934389
934389
934389
934389
934389
934395
934395
934395
934395
934395
934395
934395
934395
934395
934395
934395
934395
934394
934394
934394
934394
934394
934394
934394
934394
934394
934394
934394
934394
934393
934393
934393
934393
934393
934393
934393
934392
934392
934392
934392
934392
934391
934391
934391
934391
934390
934390
934390
934390
934390
934389
934389
934389
934389
934389
934395
934395
934395
934395
934395
934395
934395
934395
934395
934395
934395
934394
934394
934394
934394
934394
934394
934394
934394
934394
934394
934394
934394
934394
934393
934393
934393
934393
934393
934393
934393
934392
934392
934392
934392
934392
934391
934391
934391
934391
934391
934390
934390
934390
934390
934389
934389
934389
934389
934389
934395
934395
934395
934395
934395
934395
934395
934395
934395
934395
934395
934395
934394
934394
934394
934394
934394
934394
934394
934394
934394
934394
934394
934394
934393
934393
934393
934393
934393
934393
934393
934392
934392
934392
934392
934392
934391
934391
934391
934391
934391
934390
934390
934390
934390
934390
934389
934389
934389
934389
934395
934395
934395
934395
934395
934395
934395
934395
934395
934395
934395
934394
934394
934394
934394
934394
934394
934394
934394
934394
934394
934394
934394
934394
934394
934393
934393
934393
934393
934393
934393
934392
934392
934392
934392
934392
934391
934391
934391
934391
934391
934390
934390
934390
934390
934390
934389
934389
934389
934389
934395
934395
934395
934395
934395
934395
934395
934395
934395
934395
934395
934395
934395
934395
934394
934394
934394
934394
934394
934394
934394
934394
934394
934394
934394
934394
934394
934393
934393
934393
934393
934393
934393
934392
934392
934392
934392
934392
934391
934391
934391
934391
934391
934390
934390
934390
934390
934390
934389
934389
934249
934248
934245
934244
934243
934245
934246
934247
934247
934248
934252
934258
934257
934258
934259
934259
934258
934258
934259
934261
934250
934250
934247
934245
934245
934245
934246
934246
934244
934245
934251
934254
934253
934255
934257
934256
934256
934255
934256
934257
934251
934250
934249
934247
934246
934246
934246
934244
934242
934245
934250
934252
934253
934253
934254
934253
934252
934252
934252
934252
934252
934250
934250
934248
934247
934246
934245
934243
934242
934245
934248
934249
934251
934251
934251
934249
934249
934248
934249
934249
934251
934250
934250
934249
934248
934247
934246
934244
934243
934245
934247
934247
934249
934250
934249
934248
934247
934246
934247
934246
934249
934249
934248
934248
934248
934247
934247
934246
934245
934246
934248
934247
934248
934249
934249
934248
934247
934246
934246
934246
934247
934247
934247
934247
934247
934247
934248
934248
934248
934248
934249
934250
934249
934249
934249
934249
934248
934247
934246
934246
934245
934244
934245
934246
934247
934248
934249
934249
934250
934250
934251
934251
934250
934250
934250
934249
934249
934248
934247
934247
934243
934242
934243
934245
934247
934248
934249
934250
934251
934251
934252
934252
934251
934251
934250
934250
934249
934249
934248
934248
934243
934242
934243
934245
934247
934249
934250
934252
934252
934252
934253
934252
934252
934252
934251
934251
934250
934250
934249
934250
934244
934243
934244
934246
934248
934250
934252
934253
934253
934254
934254
934253
934253
934253
934253
934252
934252
934251
934251
934251
934246
934246
934246
934248
934250
934251
934253
934254
934255
934255
934255
934255
934254
934254
934254
934254
934253
934253
934253
934253
934249
934249
934249
934250
934252
934253
934255
934255
934256
934256
934256
934256
934256
934256
934255
934255
934255
934254
934254
934255
934252
934252
934252
934253
934254
934255
934256
934257
934258
934258
934258
934257
934257
934257
934257
934256
934256
934256
934256
934256
934255
934255
934255
934255
934257
934258
934258
934259
934259
934259
934259
934259
934259
934259
934258
934258
934258
934258
934258
934258
934258
934258
934258
934258
934259
934260
934260
934261
934261
934261
934261
934261
934260
934260
934260
934260
934259
934259
934259
934259
934262
934261
934261
934261
934261
934262
934262
934263
934263
934263
934262
934262
934262
934262
934261
934261
934261
934261
934261
934261
934264
934264
934264
934264
934264
934264
934264
934264
934264
934264
934264
934264
934264
934263
934263
934263
934263
934262
934262
934263
934266
934266
934266
934266
934266
934266
934266
934266
934266
934266
934266
934265
934265
934265
934265
934264
934264
934264
934264
934265
934268
934268
934268
934268
934268
934268
934268
934268
934268
934267
934267
934267
934267
934267
934266
934266
934266
934266
934265
934266
934270
934270
934270
934270
934269
934269
934269
934269
934269
934269
934269
934269
934269
934268
934268
934268
934267
934267
934267
934268
934272
934271
934271
934271
934271
934271
934271
934271
934271
934271
934271
934270
934270
934270
934270
934269
934269
934269
934268
934270
934273
934273
934273
934273
934273
934273
934273
934273
934273
934273
934272
934272
934272
934272
934271
934271
934271
934270
934270
934272
934275
934275
934275
934275
934275
934275
934275
934275
934274
934274
934274
934274
934274
934273
934273
934273
934272
934272
934271
934273
934277
934277
934277
934277
934277
934277
934277
934276
934276
934276
934276
934276
934275
934275
934275
934274
934274
934273
934273
934275
934279
934279
934279
934279
934279
934278
934278
934278
934278
934278
934278
934277
934277
934277
934276
934276
934275
934275
934274
934276
934281
934281
934281
934281
934280
934280
934280
934280
934280
934280
934279
934279
934279
934279
934278
934278
934277
934276
934276
934278
934283
934283
934283
934282
934282
934282
934282
934282
934282
934281
934281
934281
934281
934280
934280
934279
934279
934278
934277
934279
934285
934285
934285
934284
934284
934284
934284
934284
934283
934283
934283
934283
934282
934282
934282
934281
934280
934280
934279
934281
934287
934287
934286
934286
934286
934286
934286
934285
934285
934285
934285
934284
934284
934284
934283
934283
934282
934281
934281
934283
934289
934288
934288
934288
934288
934287
934287
934287
934287
934287
934286
934286
934286
934285
934285
934285
934284
934283
934283
934285
934290
934290
934290
934290
934289
934289
934289
934289
934289
934288
934288
934288
934287
934287
934287
934286
934286
934285
934285
934287
934292
934292
934292
934291
934291
934291
934291
934291
934290
934290
934290
934290
934289
934289
934288
934288
934288
934288
934287
934290
934294
934294
934293
934293
934293
934293
934293
934292
934292
934292
934292
934291
934291
934291
934291
934290
934290
934290
934290
934292
934295
934295
934295
934295
934295
934295
934294
934294
934294
934294
934294
934293
934293
934293
934293
934293
934293
934293
934292
934293
934297
934297
934297
934297
934296
934296
934296
934296
934296
934296
934295
934295
934295
934295
934295
934295
934295
934295
934294
934295
934299
934299
934298
934298
934298
934298
934298
934298
934298
934297
934297
934297
934297
934297
934296
934296
934296
934296
934296
934297
934301
934300
934300
934300
934300
934300
934299
934299
934299
934299
934299
934299
934299
934299
934298
934298
934298
934297
934297
934298
934302
934302
934302
934302
934301
934301
934301
934301
934301
934301
934301
934300
934300
934300
934300
934299
934299
934299
934298
934300
934304
934304
934303
934303
934303
934303
934303
934303
934302
934302
934302
934302
934302
934302
934301
934301
934300
934300
934299
934301
934306
934305
934305
934305
934305
934304
934304
934304
934304
934304
934303
934303
934303
934303
934303
934302
934301
934301
934300
934302
934307
934307
934307
934307
934306
934306
934306
934306
934305
934305
934305
934305
934304
934304
934304
934303
934303
934302
934301
934303
934309
934309
934308
934308
934308
934308
934307
934307
934307
934307
934306
934306
934306
934305
934305
934305
934304
934303
934303
934305
934311
934310
934310
934310
934310
934309
934309
934309
934309
934308
934308
934308
934307
934307
934307
934306
934306
934305
934305
934308
934312
934312
934312
934311
934311
934311
934311
934311
934310
934310
934310
934309
934309
934309
934309
934308
934308
934307
934307
934310
934314
934314
934313
934313
934313
934313
934313
934312
934312
934312
934312
934311
934311
934311
934311
934311
934311
934310
934310
934312
934315
934315
934315
934315
934315
934314
934314
934314
934314
934314
934314
934314
934314
934314
934314
934314
934313
934313
934313
934315
934317
934317
934317
934317
934316
934316
934316
934316
934316
934316
934316
934316
934316
934316
934316
934316
934316
934316
934316
934317
934319
934319
934318
934318
934318
934318
934318
934318
934318
934318
934318
934318
934318
934318
934318
934318
934319
934319
934319
934320
934320
934320
934320
934320
934320
934320
934320
934320
934320
934320
934320
934320
934320
934320
934321
934321
934321
934321
934321
934323
934322
934322
934322
934322
934322
934322
934322
934322
934322
934322
934322
934322
934322
934322
934323
934323
934323
934324
934324
934325
934324
934324
934324
934324
934324
934324
934324
934324
934324
934324
934324
934324
934324
934325
934325
934325
934325
934326
934326
934327
934326
934326
934325
934325
934325
934325
934325
934326
934326
934326
934326
934326
934326
934327
934327
934327
934327
934328
934328
934329
934327
934327
934327
934327
934327
934327
934327
934327
934328
934328
934328
934328
934328
934328
934329
934329
934329
934329
934330
934331
934329
934329
934329
934329
934329
934329
934329
934329
934329
934330
934330
934330
934330
934330
934330
934331
934331
934331
934332
934332
934331
934331
934331
934331
934331
934331
934331
934331
934331
934331
934332
934332
934332
934332
934332
934332
934333
934333
934333
934334
934333
934333
934333
934333
934333
934333
934333
934333
934333
934333
934333
934334
934334
934334
934334
934334
934334
934334
934335
934335
934335
934334
934334
934334
934334
934334
934335
934335
934335
934335
934335
934335
934335
934335
934336
934336
934336
934336
934336
934337
934336
934336
934336
934336
934336
934336
934336
934336
934336
934337
934337
934337
934337
934337
934337
934337
934338
934338
934338
934338
934338
934338
934338
934338
934338
934338
934338
934338
934338
934338
934338
934338
934339
934339
934339
934339
934339
934339
934339
934340
934340
934340
934339
934339
934339
934339
934340
934340
934340
934340
934340
934340
934340
934340
934340
934341
934341
934341
934341
934341
934341
934341
934341
934341
934341
934341
934341
934341
934341
934341
934341
934342
934342
934342
934342
934342
934342
934342
934342
934343
934343
934343
934343
934343
934342
934343
934343
934343
934343
934343
934343
934343
934343
934343
934344
934344
934344
934344
934344
934344
934344
934344
934344
934344
934344
934344
934344
934344
934344
934344
934344
934345
934345
934345
934345
934345
934345
934345
934345
934346
934346
934346
934346
934345
934345
934345
934345
934346
934346
934346
934346
934346
934346
934346
934346
934347
934347
934347
934347
934347
934347
934347
934347
934347
934347
934347
934347
934347
934347
934347
934347
934347
934347
934348
934348
934348
934348
934348
934349
934349
934349
934348
934348
934348
934348
934348
934348
934348
934348
934348
934348
934349
934349
934349
934349
934349
934350
934350
934350
934350
934350
934350
934350
934349
934349
934349
934349
934349
934350
934350
934350
934350
934350
934350
934350
934351
934351
934351
934351
934352
934351
934351
934351
934351
934351
934351
934351
934351
934351
934351
934351
934351
934351
934351
934352
934352
934352
934352
934352
934353
934352
934352
934352
934352
934352
934352
934352
934352
934352
934352
934352
934352
934352
934353
934353
934353
934353
934353
934354
934355
934353
934353
934353
934353
934353
934353
934353
934353
934353
934353
934353
934353
934354
934354
934354
934354
934354
934355
934355
934356
934355
934354
934354
934354
934354
934354
934354
934354
934354
934354
934354
934355
934355
934355
934355
934355
934356
934356
934356
934357
934356
934356
934355
934355
934355
934355
934355
934355
934355
934355
934356
934356
934356
934356
934356
934356
934357
934357
934358
934358
934357
934357
934356
934356
934356
934356
934356
934356
934356
934356
934357
934357
934357
934357
934357
934357
934358
934358
934359
934359
934358
934358
934357
934357
934357
934357
934357
934357
934357
934358
934358
934358
934358
934358
934358
934358
934358
934359
934359
934359
934359
934359
934359
934358
934358
934358
934358
934358
934359
934359
934359
934359
934359
934359
934359
934359
934359
934359
934359
934359
934360
934360
934360
934359
934359
934359
934359
934360
934360
934360
934360
934360
934360
934360
934360
934360
934360
934360
934360
934360
934361
934361
934361
934360
934360
934360
934360
934361
934361
934361
934361
934361
934361
934361
934361
934361
934361
934361
934361
934361
934362
934362
934362
934362
934361
934361
934362
934362
934362
934362
934362
934362
934362
934362
934362
934362
934362
934362
934362
934362
934363
934363
934363
934363
934362
934362
934362
934362
934362
934362
934362
934362
934362
934362
934362
934362
934362
934362
934363
934363
934364
934364
934364
934364
934363
934363
934363
934363
934363
934363
934363
934363
934363
934363
934363
934363
934363
934363
934363
934363
934365
934365
934365
934365
934364
934364
934364
934364
934364
934364
934364
934364
934364
934364
934363
934363
934363
934363
934364
934364
934366
934366
934366
934366
934365
934365
934365
934365
934365
934365
934365
934365
934364
934364
934364
934364
934364
934363
934363
934364
934367
934367
934367
934366
934366
934366
934366
934366
934366
934366
934365
934365
934365
934365
934364
934364
934364
934363
934363
934364
934368
934368
934367
934367
934367
934367
934367
934367
934367
934366
934366
934366
934366
934365
934365
934365
934364
934363
934363
934364
934369
934369
934368
934368
934368
934368
934368
934368
934367
934367
934367
934367
934366
934366
934366
934365
934365
934364
934364
934365
934370
934369
934369
934369
934369
934369
934369
934368
934368
934368
934368
934367
934367
934367
934367
934366
934366
934366
934366
934367
934370
934370
934370
934370
934370
934370
934369
934369
934369
934369
934369
934368
934368
934368
934368
934367
934367
934367
934368
934368
934371
934371
934371
934371
934370
934370
934370
934370
934370
934370
934369
934369
934369
934369
934369
934368
934368
934368
934369
934369
934372
934372
934372
934371
934371
934371
934371
934371
934371
934370
934370
934370
934370
934370
934370
934369
934369
934369
934370
934370
934373
934373
934372
934372
934372
934372
934372
934372
934371
934371
934371
934371
934371
934371
934371
934370
934370
934370
934371
934371
934374
934373
934373
934373
934373
934373
934373
934372
934372
934372
934372
934372
934372
934372
934371
934371
934371
934371
934371
934372
934374
934374
934374
934374
934374
934373
934373
934373
934373
934373
934373
934373
934373
934372
934372
934372
934372
934372
934372
934372
934375
934375
934375
934374
934374
934374
934374
934374
934374
934374
934374
934373
934373
934373
934373
934373
934373
934372
934372
934373
934376
934375
934375
934375
934375
934375
934375
934375
934375
934374
934374
934374
934374
934374
934374
934374
934374
934373
934373
934373
934376
934376
934376
934376
934376
934376
934375
934375
934375
934375
934375
934375
934375
934375
934375
934375
934374
934374
934374
934374
934377
934377
934377
934376
934376
934376
934376
934376
934376
934376
934376
934376
934376
934376
934375
934375
934375
934375
934375
934375
934378
934377
934377
934377
934377
934377
934377
934377
934377
934377
934377
934377
934376
934376
934376
934376
934376
934376
934376
934376
934378
934378
934378
934378
934378
934378
934378
934377
934377
934377
934377
934377
934377
934377
934377
934377
934377
934377
934377
934377
934379
934379
934378
934378
934378
934378
934378
934378
934378
934378
934378
934378
934378
934378
934378
934378
934378
934378
934378
934378
934379
934379
934379
934379
934379
934379
934379
934379
934379
934379
934379
934379
934379
934379
934379
934379
934379
934379
934379
934379
934380
934380
934380
934380
934380
934380
934380
934380
934380
934380
934380
934380
934380
934380
934380
934380
934380
934380
934380
934380
934381
934381
934380
934380
934380
934380
934380
934380
934380
934380
934380
934380
934380
934381
934381
934381
934381
934381
934381
934381
934381
934381
934381
934381
934381
934381
934381
934381
934381
934381
934381
934381
934381
934381
934381
934382
934382
934382
934382
934383
934382
934382
934382
934382
934382
934382
934382
934382
934382
934382
934382
934382
934382
934382
934382
934383
934383
934383
934383
934384
934383
934382
934382
934382
934382
934382
934382
934382
934382
934382
934382
934383
934383
934383
934383
934383
934384
934384
934385
934385
934383
934383
934383
934383
934383
934383
934383
934383
934383
934383
934383
934383
934383
934383
934384
934384
934384
934385
934385
934386
934384
934384
934384
934384
934384
934384
934384
934384
934384
934384
934384
934384
934384
934384
934384
934384
934385
934385
934386
934386
934384
934384
934384
934384
934384
934384
934384
934384
934384
934384
934384
934384
934384
934384
934385
934385