/*--------------------------------*- C++ -*----------------------------------*\
  =========                 |
  \\      /  F ield         | OpenFOAM: The Open Source CFD Toolbox
   \\    /   O peration     | Website:  https://openfoam.org
    \\  /    A nd           | Version:  8
     \\/     M anipulation  |
\*---------------------------------------------------------------------------*/
FoamFile
{
    version     2.0;
    format      ascii;
    class       volVectorField;
    location    "900";
    object      U;
}
// * * * * * * * * * * * * * * * * * * * * * * * * * * * * * * * * * * * * * //

dimensions      [0 1 -1 0 0 0 0];

internalField   nonuniform List<vector> 
8400
(
(-38.5253 -0.865273 1.58497e-15)
(-37.413 -0.927638 1.74643e-15)
(-36.5683 -1.01249 1.9088e-15)
(-35.7825 -1.22979 2.05263e-15)
(-34.8574 -1.53743 2.17583e-15)
(-33.5431 -1.90063 2.2633e-15)
(-31.6828 -2.22015 2.2849e-15)
(-29.3736 -2.33735 2.19657e-15)
(-26.967 -2.13029 1.9463e-15)
(-24.8922 -1.61963 1.48335e-15)
(-23.4659 -1.00364 8.17187e-16)
(-22.6456 -0.536147 1.37492e-16)
(-22.1948 -0.291044 -3.52766e-16)
(-21.9064 -0.220327 -6.01364e-16)
(-21.6194 -0.256376 -6.85188e-16)
(-21.2146 -0.336687 -7.29236e-16)
(-20.6712 -0.391738 -7.60202e-16)
(-20.0869 -0.368262 -7.14524e-16)
(-19.5728 -0.298347 -5.18682e-16)
(-19.1505 -0.230887 -2.02898e-16)
(-18.8127 -0.167188 2.01945e-16)
(-18.5895 -0.0888362 7.08343e-16)
(-18.5194 -0.00315523 1.18874e-15)
(-18.6137 0.0749829 1.50236e-15)
(-18.8564 0.134267 1.61176e-15)
(-19.2078 0.168741 1.51518e-15)
(-19.6206 0.17648 1.24073e-15)
(-20.0447 0.158334 8.18762e-16)
(-20.4305 0.116733 2.86252e-16)
(-20.7315 0.0547673 -3.59356e-16)
(-20.906 -0.0246845 -1.06428e-15)
(-20.9188 -0.119452 -1.82325e-15)
(-20.7404 -0.228408 -2.61919e-15)
(-20.353 -0.350728 -3.33454e-15)
(-19.7422 -0.481427 -3.88393e-15)
(-18.9013 -0.611798 -4.25723e-15)
(-17.8389 -0.731667 -4.48312e-15)
(-16.5796 -0.831519 -4.6106e-15)
(-15.1619 -0.904167 -4.66988e-15)
(-13.6342 -0.94577 -4.66511e-15)
(-12.0491 -0.955743 -4.58361e-15)
(-10.4582 -0.935992 -4.40582e-15)
(-8.90878 -0.889841 -4.05407e-15)
(-7.44102 -0.820908 -3.4005e-15)
(-6.0876 -0.732458 -2.30021e-15)
(-4.8734 -0.627869 -5.86978e-16)
(-3.81851 -0.512421 1.48808e-15)
(-2.94416 -0.394571 4.08239e-15)
(-2.27046 -0.285261 6.55014e-15)
(-1.79485 -0.197403 8.35768e-15)
(-26.3547 -0.971845 -1.97108e-15)
(-26.8247 -0.942537 -1.5644e-15)
(-27.5858 -1.07936 -1.08155e-15)
(-28.3291 -1.33538 -5.14298e-16)
(-28.5578 -1.60159 2.25717e-16)
(-28.2828 -1.97933 1.03606e-15)
(-27.6625 -2.40498 1.8391e-15)
(-26.5342 -2.65687 2.5771e-15)
(-25.0112 -2.6158 3.31574e-15)
(-23.1887 -2.24015 4.32417e-15)
(-21.8763 -1.51822 5.38294e-15)
(-21.4053 -0.749457 5.70581e-15)
(-21.3083 -0.217924 4.94928e-15)
(-21.1855 -0.0616643 3.29925e-15)
(-20.9428 -0.236872 1.221e-15)
(-20.4567 -0.613756 -1.03662e-15)
(-19.7534 -0.903873 -3.21733e-15)
(-19.0321 -0.879542 -5.08536e-15)
(-18.4686 -0.71651 -6.59662e-15)
(-18.0195 -0.602517 -7.90999e-15)
(-17.6257 -0.48855 -8.89614e-15)
(-17.3442 -0.268398 -9.4606e-15)
(-17.242 0.00861223 -9.69777e-15)
(-17.3255 0.27175 -9.87436e-15)
(-17.5816 0.480163 -1.00629e-14)
(-17.9587 0.616472 -1.03328e-14)
(-18.4017 0.674448 -1.08527e-14)
(-18.8557 0.655007 -1.16615e-14)
(-19.2697 0.563046 -1.26411e-14)
(-19.5979 0.405662 -1.35822e-14)
(-19.8016 0.190816 -1.43761e-14)
(-19.8503 -0.073046 -1.48939e-14)
(-19.7171 -0.377796 -1.50423e-14)
(-19.3883 -0.714155 -1.48398e-14)
(-18.8494 -1.0666 -1.44184e-14)
(-18.0898 -1.4131 -1.38384e-14)
(-17.1157 -1.72924 -1.32098e-14)
(-15.9506 -1.99274 -1.26677e-14)
(-14.6321 -2.18723 -1.23681e-14)
(-13.2072 -2.30424 -1.23253e-14)
(-11.7255 -2.34349 -1.26404e-14)
(-10.2347 -2.31122 -1.32424e-14)
(-8.77663 -2.21726 -1.40507e-14)
(-7.3858 -2.0716 -1.48781e-14)
(-6.08885 -1.88185 -1.54292e-14)
(-4.90477 -1.65238 -1.50873e-14)
(-3.84706 -1.38595 -1.36841e-14)
(-2.92961 -1.08562 -1.13227e-14)
(-2.17639 -0.758896 -8.46593e-15)
(-1.62958 -0.436489 -5.81575e-15)
(1.25013 -2.10669 -3.37134e-15)
(-6.41854 0.586749 -4.48247e-15)
(-13.1491 1.90752 -7.36099e-15)
(-25.8542 -0.504696 -1.04616e-14)
(-20.7569 -0.842941 -7.52451e-15)
(-14.4005 -1.17659 -4.93727e-15)
(-15.6272 -1.28701 -3.65735e-15)
(-19.0111 -1.12996 -3.26995e-15)
(-22.1244 -0.937474 -3.88636e-15)
(-21.8361 -1.04083 -4.11116e-15)
(-20.0276 -1.20122 -4.31308e-15)
(-19.2852 -1.41825 -5.04126e-15)
(-19.3625 -1.64542 -6.27042e-15)
(-19.5525 -1.92657 -7.80942e-15)
(-19.477 -2.25467 -9.55903e-15)
(-18.7856 -2.48092 -1.12879e-14)
(-18.1111 -2.40609 -1.32067e-14)
(-17.4564 -1.77929 -1.51043e-14)
(-17.0116 -1.09899 -1.59652e-14)
(-16.5719 -0.917451 -1.69322e-14)
(-16.0207 -0.885072 -1.80112e-14)
(-15.5832 -0.509859 -1.8473e-14)
(-15.4275 -0.0174226 -1.82701e-14)
(-15.4993 0.43883 -1.78969e-14)
(-15.791 0.796071 -1.72582e-14)
(-16.2227 1.02641 -1.64419e-14)
(-16.7263 1.12026 -1.57631e-14)
(-17.2409 1.08057 -1.52487e-14)
(-17.7135 0.916805 -1.49402e-14)
(-18.0997 0.642058 -1.46756e-14)
(-18.3632 0.272886 -1.4462e-14)
(-18.4757 -0.170936 -1.41487e-14)
(-18.4109 -0.669421 -1.36829e-14)
(-18.1546 -1.21015 -1.30602e-14)
(-17.6951 -1.77429 -1.23248e-14)
(-17.0186 -2.32953 -1.15052e-14)
(-16.1309 -2.83804 -1.0711e-14)
(-15.057 -3.26338 -1.00643e-14)
(-13.8359 -3.57756 -9.75422e-15)
(-12.5147 -3.76567 -9.75746e-15)
(-11.1422 -3.82719 -1.02623e-14)
(-9.76348 -3.77326 -1.13373e-14)
(-8.41636 -3.6217 -1.30372e-14)
(-7.13026 -3.39168 -1.51926e-14)
(-5.92639 -3.09965 -1.72071e-14)
(-4.81872 -2.75751 -1.88098e-14)
(-3.81459 -2.37237 -1.9168e-14)
(-2.91542 -1.94554 -1.85042e-14)
(-2.11922 -1.47051 -1.6422e-14)
(-1.42424 -0.942929 -1.26922e-14)
(23.2414 -1.66277 -1.00326e-15)
(22.1547 -1.07238 -9.7549e-16)
(21.3426 -1.00861 -1.02224e-15)
(21.0774 -1.3372 -9.94045e-16)
(22.593 -1.78225 -6.38614e-16)
(23.3062 -2.05317 -2.35786e-16)
(23.1522 -1.84315 1.36329e-16)
(22.1365 -1.10861 4.48465e-16)
(20.6786 0.00253906 3.76528e-16)
(19.6181 1.26244 1.73924e-17)
(18.6639 2.39542 -4.82845e-16)
(17.3577 3.18749 -1.07991e-15)
(15.0892 3.46695 -1.70621e-15)
(12.0513 3.24422 -2.21731e-15)
(8.45834 2.56667 -2.37845e-15)
(3.90801 1.1355 -3.65463e-16)
(-11.3656 -2.5289 -1.12527e-14)
(-14.3852 -2.75217 -2.26974e-14)
(-14.5487 -2.61408 -2.73948e-14)
(-14.3346 -2.59066 -3.10169e-14)
(-13.7447 -2.13003 -3.39036e-14)
(-13.1635 -1.06147 -3.48154e-14)
(-13.0376 -0.123932 -3.23266e-14)
(-13.1291 0.630669 -2.97354e-14)
(-13.4941 1.1974 -2.68395e-14)
(-14.0178 1.55004 -2.39676e-14)
(-14.6173 1.69178 -2.16018e-14)
(-15.2243 1.63772 -1.95948e-14)
(-15.7855 1.40783 -1.77159e-14)
(-16.2576 1.02453 -1.60175e-14)
(-16.6042 0.514951 -1.44906e-14)
(-16.7973 -0.0903732 -1.30599e-14)
(-16.8114 -0.763871 -1.18239e-14)
(-16.632 -1.49237 -1.06679e-14)
(-16.2598 -2.26038 -9.52555e-15)
(-15.677 -3.02717 -8.54364e-15)
(-14.8871 -3.73688 -7.63076e-15)
(-13.915 -4.33228 -6.72137e-15)
(-12.8011 -4.77113 -6.35413e-15)
(-11.5935 -5.03326 -6.19355e-15)
(-10.3406 -5.12028 -6.6975e-15)
(-9.08529 -5.04964 -7.93952e-15)
(-7.8619 -4.84711 -1.00323e-14)
(-6.69574 -4.54063 -1.27491e-14)
(-5.6042 -4.15566 -1.56756e-14)
(-4.59861 -3.7127 -1.8448e-14)
(-3.68465 -3.22651 -2.06548e-14)
(-2.86214 -2.70435 -2.16995e-14)
(-2.1271 -2.14039 -2.09468e-14)
(-1.46829 -1.51637 -1.75127e-14)
(60.968 0.336809 2.2537e-15)
(60.2106 0.442385 2.27537e-15)
(59.6439 0.36545 2.30164e-15)
(59.0844 0.16981 2.35503e-15)
(58.296 -0.0567693 2.42738e-15)
(57.1666 -0.140672 2.50674e-15)
(55.7695 0.100982 2.56515e-15)
(54.231 0.736085 2.59654e-15)
(52.4934 1.70161 2.56842e-15)
(50.2811 2.8616 2.38575e-15)
(47.6329 4.09397 2.20304e-15)
(44.5309 5.28133 2.03603e-15)
(40.9434 6.30058 1.84223e-15)
(36.8924 7.04732 1.4582e-15)
(32.4052 7.48044 9.45885e-16)
(27.5249 7.54011 1.20567e-15)
(21.0525 6.85618 9.59655e-16)
(15.5991 6.1097 6.5699e-16)
(10.7298 5.1182 5.28851e-16)
(6.26386 3.26197 6.12714e-15)
(-9.72752 -2.54715 -3.6692e-14)
(-9.79034 -1.49066 -5.3886e-14)
(-9.75505 -0.228385 -5.25991e-14)
(-10.1054 0.91178 -4.76769e-14)
(-10.6606 1.71501 -4.45952e-14)
(-11.3591 2.18722 -3.98926e-14)
(-12.1043 2.36331 -3.4386e-14)
(-12.8329 2.28145 -2.7835e-14)
(-13.4993 1.97551 -2.1691e-14)
(-14.0656 1.47974 -1.79976e-14)
(-14.4982 0.831819 -1.46671e-14)
(-14.7729 0.070477 -1.08141e-14)
(-14.8724 -0.773312 -8.25917e-15)
(-14.7807 -1.69256 -7.20169e-15)
(-14.5156 -2.67967 -5.76323e-15)
(-14.0475 -3.67707 -4.61445e-15)
(-13.3705 -4.59768 -3.85343e-15)
(-12.5112 -5.35734 -3.02342e-15)
(-11.5167 -5.90434 -2.46051e-15)
(-10.4372 -6.22099 -2.13044e-15)
(-9.31932 -6.31726 -2.44841e-15)
(-8.20223 -6.22012 -3.33578e-15)
(-7.1162 -5.96408 -5.31553e-15)
(-6.08301 -5.58498 -8.03956e-15)
(-5.11689 -5.11571 -1.11246e-14)
(-4.22676 -4.5833 -1.43424e-14)
(-3.4165 -4.0088 -1.73484e-14)
(-2.68509 -3.4067 -1.95086e-14)
(-2.02946 -2.77628 -1.94198e-14)
(-1.43912 -2.09751 -1.48829e-14)
(45.9857 -0.311078 2.21992e-15)
(45.3105 -0.0931991 2.2201e-15)
(44.7682 0.125457 2.2197e-15)
(44.2377 0.311523 2.21925e-15)
(43.5428 0.4982 2.21727e-15)
(42.6372 0.795577 2.21219e-15)
(41.5933 1.31947 2.20598e-15)
(40.5816 2.12437 2.20234e-15)
(39.7519 3.20568 2.20359e-15)
(39.1117 4.52017 2.19985e-15)
(38.5398 5.99526 2.18319e-15)
(37.8527 7.52668 2.14774e-15)
(36.8565 8.98022 2.08533e-15)
(35.3915 10.2208 1.9579e-15)
(33.3547 11.1517 1.73955e-15)
(30.7076 11.6966 1.61757e-15)
(27.2466 11.6728 1.51756e-15)
(23.252 11.1475 1.39061e-15)
(18.8928 10.2274 1.17858e-15)
(14.4092 8.89418 2.2896e-15)
(7.61828 6.3834 -5.83471e-15)
(2.98256 4.17761 -1.66012e-14)
(-5.3641 0.726666 -4.4236e-14)
(-6.47602 1.70309 -4.58261e-14)
(-7.39333 2.53735 -4.42036e-14)
(-8.33535 3.04685 -3.87078e-14)
(-9.25236 3.20792 -3.16468e-14)
(-10.1064 3.06998 -2.51118e-14)
(-10.8725 2.67417 -1.88973e-14)
(-11.5237 2.06026 -1.50979e-14)
(-12.0354 1.26751 -1.32025e-14)
(-12.393 0.335508 -1.22411e-14)
(-12.5946 -0.703868 -1.23576e-14)
(-12.6083 -1.83984 -1.18554e-14)
(-12.4693 -3.06292 -1.08348e-14)
(-12.1265 -4.29606 -8.70059e-15)
(-11.5634 -5.41551 -6.5212e-15)
(-10.8194 -6.31085 -4.35754e-15)
(-9.95812 -6.93169 -2.64973e-15)
(-9.02954 -7.27187 -1.30091e-15)
(-8.07349 -7.35583 -1.25885e-15)
(-7.12107 -7.22266 -1.13864e-15)
(-6.19599 -6.91519 -2.69931e-15)
(-5.316 -6.47484 -4.82433e-15)
(-4.49242 -5.93915 -7.67896e-15)
(-3.73209 -5.33883 -1.07721e-14)
(-3.03734 -4.69823 -1.39877e-14)
(-2.40673 -4.03714 -1.67509e-14)
(-1.8374 -3.36007 -1.76619e-14)
(-1.31688 -2.64596 -1.48556e-14)
(40.2281 1.19021 2.21715e-15)
(39.494 1.38178 2.21716e-15)
(38.8358 1.58198 2.21668e-15)
(38.2017 1.7565 2.21656e-15)
(37.4638 1.91793 2.2161e-15)
(36.5863 2.14378 2.21337e-15)
(35.62 2.52721 2.20823e-15)
(34.6508 3.13195 2.20085e-15)
(33.7588 3.98289 2.19169e-15)
(32.9994 5.07807 2.18211e-15)
(32.3909 6.40009 2.17166e-15)
(31.902 7.90909 2.15667e-15)
(31.4394 9.52268 2.13209e-15)
(30.8582 11.1132 2.08249e-15)
(29.9957 12.5332 1.98518e-15)
(28.7094 13.6373 1.87837e-15)
(26.8473 14.2682 1.78655e-15)
(24.3746 14.3559 1.70898e-15)
(21.3296 13.912 1.59201e-15)
(17.8665 12.9832 1.80692e-15)
(13.4786 11.2953 -6.91874e-16)
(9.1754 9.28992 -6.65856e-15)
(3.79647 6.57287 -2.11778e-14)
(-1.10074 4.2857 -3.67115e-14)
(-4.03572 3.77309 -4.00913e-14)
(-5.16036 4.11796 -3.40369e-14)
(-6.2175 4.19352 -2.83496e-14)
(-7.15955 3.95413 -2.28845e-14)
(-7.98543 3.44044 -1.86953e-14)
(-8.68709 2.68629 -1.66881e-14)
(-9.25505 1.72557 -1.61825e-14)
(-9.68763 0.600934 -1.62084e-14)
(-9.99782 -0.63889 -1.6028e-14)
(-10.104 -1.961 -1.46781e-14)
(-10.0887 -3.37901 -1.44939e-14)
(-9.8727 -4.82317 -1.3328e-14)
(-9.42493 -6.12581 -1.03014e-14)
(-8.80246 -7.13543 -8.47652e-15)
(-8.098 -7.80735 -6.42911e-15)
(-7.35506 -8.15351 -4.40597e-15)
(-6.59979 -8.21547 -4.03366e-15)
(-5.8495 -8.04469 -3.40825e-15)
(-5.11749 -7.69174 -4.50924e-15)
(-4.41656 -7.2026 -6.57482e-15)
(-3.75572 -6.61804 -9.2465e-15)
(-3.14037 -5.97071 -1.23894e-14)
(-2.5715 -5.28581 -1.59498e-14)
(-2.0485 -4.58517 -1.92088e-14)
(-1.56822 -3.87698 -2.18095e-14)
(-1.11423 -3.14094 -2.21979e-14)
(33.3363 1.47829 2.20842e-15)
(32.7031 1.54566 2.20867e-15)
(32.0907 1.67433 2.20834e-15)
(31.522 1.84467 2.20847e-15)
(30.9075 2.07296 2.20907e-15)
(30.2321 2.41834 2.20817e-15)
(29.5266 2.94383 2.20519e-15)
(28.8299 3.68065 2.19997e-15)
(28.1721 4.62283 2.1922e-15)
(27.5741 5.74436 2.18332e-15)
(27.0539 7.02037 2.17378e-15)
(26.6248 8.43513 2.16243e-15)
(26.2803 9.96847 2.14789e-15)
(25.9716 11.57 2.12356e-15)
(25.5994 13.1438 2.07576e-15)
(25.0311 14.5556 2.00692e-15)
(24.1192 15.6505 1.93397e-15)
(22.751 16.2958 1.87402e-15)
(20.875 16.4149 1.81054e-15)
(18.5338 15.9931 1.84732e-15)
(15.5837 14.9121 9.21525e-16)
(12.3256 13.2981 -2.30306e-15)
(8.48838 11.0658 -1.06711e-14)
(4.40321 8.57247 -2.3321e-14)
(0.721878 6.49576 -3.45032e-14)
(-2.06292 5.38867 -3.32762e-14)
(-3.19461 5.23837 -2.64366e-14)
(-4.14905 4.87365 -2.10066e-14)
(-4.95445 4.24338 -1.80422e-14)
(-5.62786 3.35682 -1.67581e-14)
(-6.17435 2.24191 -1.6466e-14)
(-6.60439 0.940576 -1.64134e-14)
(-6.94977 -0.467847 -1.62811e-14)
(-7.16499 -1.92527 -1.6683e-14)
(-7.29056 -3.48233 -1.78034e-14)
(-7.2466 -5.13337 -1.63734e-14)
(-6.95623 -6.6442 -1.56735e-14)
(-6.47606 -7.78332 -1.34118e-14)
(-5.95753 -8.50791 -1.00816e-14)
(-5.43509 -8.85836 -8.15246e-15)
(-4.91604 -8.89753 -7.29844e-15)
(-4.40133 -8.6893 -5.80489e-15)
(-3.89265 -8.29352 -5.8796e-15)
(-3.39686 -7.76212 -7.65252e-15)
(-2.91994 -7.1387 -1.01429e-14)
(-2.46546 -6.45745 -1.3082e-14)
(-2.03244 -5.7438 -1.71182e-14)
(-1.62209 -5.01949 -2.12223e-14)
(-1.2316 -4.29669 -2.55243e-14)
(-0.844162 -3.55588 -2.92285e-14)
(26.6305 2.25543 2.20553e-15)
(26.081 2.29133 2.2056e-15)
(25.5537 2.42961 2.20503e-15)
(25.093 2.6532 2.20503e-15)
(24.6173 2.96252 2.20559e-15)
(24.117 3.38045 2.20534e-15)
(23.6085 3.92887 2.20376e-15)
(23.1067 4.61691 2.19998e-15)
(22.6252 5.44407 2.19346e-15)
(22.1791 6.40811 2.18589e-15)
(21.7865 7.51031 2.17786e-15)
(21.4665 8.75604 2.1681e-15)
(21.2337 10.1484 2.15692e-15)
(21.0832 11.6712 2.14159e-15)
(20.972 13.269 2.11398e-15)
(20.814 14.8369 2.07005e-15)
(20.4911 16.2303 2.01599e-15)
(19.8847 17.2931 1.96813e-15)
(18.9086 17.8964 1.92992e-15)
(17.5393 17.9662 1.93611e-15)
(15.7086 17.4137 1.55809e-15)
(13.5049 16.2477 -2.04894e-16)
(10.8416 14.4341 -5.24043e-15)
(7.82327 12.1436 -1.42611e-14)
(4.73163 9.75695 -2.52418e-14)
(1.88223 7.73049 -3.08337e-14)
(-0.0279602 6.50467 -2.76472e-14)
(-1.24043 5.70547 -2.05176e-14)
(-1.96336 4.9366 -1.68327e-14)
(-2.52678 3.9209 -1.46711e-14)
(-2.93444 2.67304 -1.28642e-14)
(-3.20251 1.22901 -1.04522e-14)
(-3.4306 -0.296843 -9.4e-15)
(-3.68704 -1.81751 -1.24437e-14)
(-4.00842 -3.44385 -1.45769e-14)
(-4.24001 -5.29166 -1.48258e-14)
(-4.20168 -6.9997 -1.51893e-14)
(-3.89834 -8.26281 -1.24494e-14)
(-3.58405 -9.03192 -1.05953e-14)
(-3.3016 -9.37748 -7.4422e-15)
(-3.04014 -9.38717 -6.99499e-15)
(-2.78422 -9.13905 -5.96946e-15)
(-2.52428 -8.70211 -5.77974e-15)
(-2.2585 -8.13394 -7.54328e-15)
(-1.98744 -7.48084 -9.79264e-15)
(-1.71242 -6.77877 -1.24601e-14)
(-1.42986 -6.05361 -1.61295e-14)
(-1.14347 -5.32586 -2.0342e-14)
(-0.851829 -4.61344 -2.50056e-14)
(-0.537757 -3.89469 -2.97829e-14)
(19.4492 2.93027 2.19972e-15)
(19.0462 2.82863 2.20011e-15)
(18.6565 2.87529 2.19979e-15)
(18.3547 3.03553 2.19986e-15)
(18.054 3.30897 2.20054e-15)
(17.7493 3.70969 2.20075e-15)
(17.4502 4.24215 2.20035e-15)
(17.1619 4.90287 2.19807e-15)
(16.8893 5.68923 2.19302e-15)
(16.6418 6.60145 2.18648e-15)
(16.4334 7.64297 2.17938e-15)
(16.2822 8.82017 2.17083e-15)
(16.2079 10.1402 2.16131e-15)
(16.2225 11.6024 2.14953e-15)
(16.3153 13.18 2.13058e-15)
(16.4396 14.8024 2.10078e-15)
(16.5138 16.3502 2.06127e-15)
(16.4411 17.6716 2.02313e-15)
(16.1357 18.6175 1.99763e-15)
(15.5464 19.0739 2.00291e-15)
(14.6157 18.9436 1.84607e-15)
(13.3501 18.1844 8.61913e-16)
(11.7008 16.7665 -2.25369e-15)
(9.69867 14.7784 -8.51094e-15)
(7.47158 12.4532 -1.74725e-14)
(5.20073 10.1409 -2.50225e-14)
(3.29394 8.24584 -2.68444e-14)
(1.88954 6.81729 -2.27527e-14)
(1.00759 5.66683 -1.83237e-14)
(0.43554 4.48664 -1.53188e-14)
(0.0673534 3.0375 -1.35536e-14)
(-0.0201933 1.40901 -1.31725e-14)
(0.0466493 -0.300153 -1.72096e-14)
(-0.085178 -1.72329 -1.79676e-14)
(-0.331845 -3.42915 -1.7256e-14)
(-0.895503 -5.44557 -1.63661e-14)
(-1.16122 -7.20165 -1.43483e-14)
(-1.10507 -8.49258 -1.14829e-14)
(-1.02025 -9.27548 -8.69595e-15)
(-0.987579 -9.61854 -4.55484e-15)
(-0.99578 -9.61281 -4.86963e-15)
(-1.01578 -9.34303 -3.03722e-15)
(-1.02515 -8.88379 -2.53944e-15)
(-1.01173 -8.29735 -3.75974e-15)
(-0.969122 -7.63361 -5.86779e-15)
(-0.894408 -6.93076 -8.33804e-15)
(-0.780533 -6.21607 -1.15888e-14)
(-0.632181 -5.50822 -1.52922e-14)
(-0.450889 -4.83126 -1.91927e-14)
(-0.213774 -4.15366 -2.35036e-14)
(12.022 3.51255 2.19464e-15)
(11.8135 3.21306 2.19526e-15)
(11.6165 3.16375 2.19504e-15)
(11.5346 3.24773 2.19521e-15)
(11.4627 3.46513 2.19597e-15)
(11.3897 3.82905 2.19623e-15)
(11.3097 4.33578 2.19647e-15)
(11.2233 4.97369 2.19553e-15)
(11.1398 5.73529 2.19312e-15)
(11.0739 6.61849 2.18869e-15)
(11.0428 7.62489 2.18268e-15)
(11.066 8.75869 2.17525e-15)
(11.1656 10.0254 2.16656e-15)
(11.3589 11.4288 2.15578e-15)
(11.6481 12.9565 2.1401e-15)
(12.0086 14.5627 2.11664e-15)
(12.3866 16.1552 2.08584e-15)
(12.7128 17.6012 2.05491e-15)
(12.9178 18.7517 2.03674e-15)
(12.9464 19.473 2.046e-15)
(12.7429 19.6537 1.98839e-15)
(12.2794 19.2251 1.42793e-15)
(11.5105 18.15 -5.48814e-16)
(10.4329 16.4749 -4.87351e-15)
(9.09746 14.3508 -1.17219e-14)
(7.59794 12.0329 -1.89345e-14)
(6.1555 9.85262 -2.326e-14)
(4.93793 7.98926 -2.29779e-14)
(4.06822 6.43186 -2.02502e-14)
(3.52436 5.01602 -1.73061e-14)
(3.23659 3.54392 -1.51427e-14)
(3.17064 1.99406 -1.38736e-14)
(3.19665 0.461544 -1.4626e-14)
(3.1515 -1.28191 -1.55011e-14)
(2.95864 -3.41839 -1.66217e-14)
(2.48804 -5.47845 -1.63596e-14)
(2.07261 -7.15801 -1.4538e-14)
(1.82702 -8.38921 -1.18069e-14)
(1.63367 -9.16411 -8.73372e-15)
(1.40053 -9.52013 -5.87729e-15)
(1.11984 -9.52783 -2.84822e-15)
(0.821236 -9.26784 -8.20491e-16)
(0.536612 -8.81694 1.17915e-15)
(0.288876 -8.24122 5.01526e-16)
(0.0928356 -7.59384 -1.341e-15)
(-0.0428055 -6.91495 -3.27967e-15)
(-0.107733 -6.23336 -5.8144e-15)
(-0.106372 -5.56814 -8.68449e-15)
(-0.0401517 -4.94471 -1.16351e-14)
(0.10753 -4.34061 -1.48351e-14)
(4.98203 4.13473 2.20285e-15)
(5.17185 3.44775 2.19935e-15)
(5.16901 3.30057 2.19609e-15)
(5.25299 3.32655 2.19414e-15)
(5.35782 3.49229 2.19347e-15)
(5.45594 3.80487 2.19274e-15)
(5.52375 4.26599 2.19241e-15)
(5.56161 4.87018 2.1913e-15)
(5.59111 5.60586 2.18899e-15)
(5.63966 6.46448 2.18588e-15)
(5.73363 7.44063 2.18095e-15)
(5.89673 8.53435 2.17419e-15)
(6.15245 9.74872 2.16605e-15)
(6.51725 11.0862 2.15622e-15)
(6.99375 12.5423 2.14226e-15)
(7.56659 14.0875 2.12262e-15)
(8.20052 15.6539 2.09721e-15)
(8.84883 17.1326 2.07157e-15)
(9.46055 18.3842 2.05869e-15)
(9.98694 19.2679 2.07237e-15)
(10.3763 19.6628 2.06354e-15)
(10.5871 19.4843 1.73901e-15)
(10.5723 18.6863 4.49937e-16)
(10.3097 17.2905 -2.56637e-15)
(9.80846 15.4016 -7.67582e-15)
(9.10788 13.2138 -1.37772e-14)
(8.32029 10.9903 -1.87522e-14)
(7.56517 8.92717 -2.09036e-14)
(6.95846 7.09307 -2.0663e-14)
(6.55068 5.4268 -1.93267e-14)
(6.32969 3.80542 -1.79684e-14)
(6.25116 2.14342 -1.7117e-14)
(6.20438 0.392914 -1.72191e-14)
(6.12177 -1.5396 -1.75564e-14)
(5.91793 -3.55357 -1.73199e-14)
(5.52848 -5.40593 -1.60511e-14)
(5.07654 -6.91827 -1.3812e-14)
(4.63411 -8.03809 -1.10587e-14)
(4.185 -8.76116 -8.16387e-15)
(3.69265 -9.11009 -5.37219e-15)
(3.15468 -9.13506 -2.91387e-15)
(2.59826 -8.90374 -9.74894e-16)
(2.05859 -8.48745 6.19216e-16)
(1.56599 -7.95108 1.81028e-15)
(1.14279 -7.34816 2.72044e-15)
(0.803553 -6.71997 1.63794e-15)
(0.562495 -6.09674 -5.10664e-16)
(0.416037 -5.49856 -2.9127e-15)
(0.362956 -4.95308 -5.19706e-15)
(0.422115 -4.43284 -7.83023e-15)
(-0.614095 3.49682 2.17445e-15)
(-0.522402 3.15574 2.18274e-15)
(-0.454824 3.21963 2.19894e-15)
(-0.345145 3.33052 2.21081e-15)
(-0.212635 3.52333 2.20872e-15)
(-0.103985 3.82784 2.20102e-15)
(-0.0250919 4.26203 2.19176e-15)
(0.0412254 4.82634 2.18028e-15)
(0.124847 5.50958 2.17048e-15)
(0.253931 6.30431 2.16837e-15)
(0.453884 7.20514 2.16732e-15)
(0.748526 8.22865 2.16409e-15)
(1.15581 9.37273 2.15808e-15)
(1.69098 10.6209 2.14919e-15)
(2.35106 11.9725 2.13557e-15)
(3.12694 13.4125 2.11867e-15)
(3.99885 14.8955 2.09677e-15)
(4.93507 16.3333 2.075e-15)
(5.89444 17.5992 2.06841e-15)
(6.83658 18.5555 2.08677e-15)
(7.71681 19.0781 2.09822e-15)
(8.4913 19.0714 1.91784e-15)
(9.11382 18.4816 1.05806e-15)
(9.55338 17.3156 -1.10875e-15)
(9.7958 15.6515 -4.89053e-15)
(9.84528 13.6435 -9.72662e-15)
(9.74865 11.5043 -1.43565e-14)
(9.57248 9.4163 -1.74229e-14)
(9.39383 7.47318 -1.8761e-14)
(9.26594 5.66709 -1.89347e-14)
(9.20323 3.92657 -1.86161e-14)
(9.18352 2.17621 -1.82533e-14)
(9.14837 0.360348 -1.81108e-14)
(9.04136 -1.52131 -1.7708e-14)
(8.77138 -3.36672 -1.66169e-14)
(8.31601 -5.02611 -1.47174e-14)
(7.7496 -6.39339 -1.22154e-14)
(7.12979 -7.41815 -9.46345e-15)
(6.46947 -8.09053 -6.72149e-15)
(5.75953 -8.42863 -4.15925e-15)
(5.00461 -8.47365 -1.94369e-15)
(4.23047 -8.28297 -1.70769e-16)
(3.47296 -7.91991 1.11929e-15)
(2.76693 -7.44468 2.09877e-15)
(2.14096 -6.90879 2.52744e-15)
(1.61568 -6.35317 2.24881e-15)
(1.21038 -5.80859 1.59943e-15)
(0.922448 -5.29669 3.97556e-16)
(0.752759 -4.84779 -7.15016e-16)
(0.72567 -4.42623 -2.6598e-15)
(-7.86075 3.19041 1.99812e-15)
(-7.3383 3.14267 2.04541e-15)
(-7.09188 3.20539 2.08422e-15)
(-6.83585 3.34178 2.10264e-15)
(-6.60445 3.55032 2.10299e-15)
(-6.40323 3.84907 2.09117e-15)
(-6.21508 4.25196 2.07968e-15)
(-6.01489 4.76398 2.07376e-15)
(-5.77814 5.38202 2.07284e-15)
(-5.48228 6.10182 2.07822e-15)
(-5.10776 6.92073 2.08398e-15)
(-4.63379 7.8414 2.08637e-15)
(-4.04094 8.86021 2.08519e-15)
(-3.31031 9.97268 2.08029e-15)
(-2.44558 11.1761 2.07147e-15)
(-1.44632 12.4667 2.06018e-15)
(-0.317152 13.8206 2.04455e-15)
(0.974221 15.2337 2.03022e-15)
(2.29502 16.4796 2.03333e-15)
(3.60796 17.4347 2.05793e-15)
(4.90819 18.0068 2.07731e-15)
(6.15682 18.0974 1.97552e-15)
(7.31472 17.6485 1.32619e-15)
(8.35021 16.6581 -2.54579e-16)
(9.23637 15.1885 -3.06311e-15)
(9.95364 13.369 -6.82001e-15)
(10.506 11.3763 -1.06787e-14)
(10.915 9.37182 -1.36945e-14)
(11.2159 7.45182 -1.55539e-14)
(11.4413 5.63451 -1.64681e-14)
(11.6074 3.88434 -1.67793e-14)
(11.7084 2.15309 -1.67367e-14)
(11.7207 0.41098 -1.64769e-14)
(11.5818 -1.32273 -1.575e-14)
(11.2269 -2.97542 -1.43957e-14)
(10.6695 -4.45011 -1.24591e-14)
(9.9826 -5.67161 -1.01374e-14)
(9.22213 -6.59604 -7.74135e-15)
(8.40742 -7.21234 -5.42888e-15)
(7.53827 -7.53564 -3.33269e-15)
(6.62161 -7.60075 -1.51642e-15)
(5.68112 -7.45618 -3.72583e-17)
(4.75188 -7.15669 1.07449e-15)
(3.87136 -6.75604 1.94512e-15)
(3.07321 -6.30201 2.45537e-15)
(2.38414 -5.83399 2.37846e-15)
(1.82922 -5.3827 1.89684e-15)
(1.4066 -4.9718 8.50861e-16)
(1.12261 -4.63407 -3.5938e-16)
(1.01213 -4.32012 -2.96581e-15)
(-15.6816 2.83781 1.6899e-15)
(-14.9555 2.86631 1.73114e-15)
(-14.5257 2.93773 1.75379e-15)
(-14.1024 3.07459 1.75923e-15)
(-13.7079 3.2826 1.75502e-15)
(-13.3277 3.57281 1.75157e-15)
(-12.9424 3.95306 1.7536e-15)
(-12.5299 4.4256 1.76267e-15)
(-12.0705 4.98829 1.77438e-15)
(-11.5459 5.63784 1.78497e-15)
(-10.9392 6.37192 1.79104e-15)
(-10.2338 7.19008 1.79389e-15)
(-9.41233 8.09112 1.79142e-15)
(-8.45731 9.07561 1.78484e-15)
(-7.36188 10.1434 1.77352e-15)
(-6.11867 11.2925 1.75804e-15)
(-4.72502 12.507 1.74048e-15)
(-3.16162 13.7632 1.72603e-15)
(-1.4883 14.9233 1.72574e-15)
(0.257866 15.8758 1.74376e-15)
(2.06192 16.5021 1.76564e-15)
(3.71696 16.6457 1.68598e-15)
(5.32214 16.2912 1.20719e-15)
(6.85758 15.4282 1.65219e-17)
(8.29059 14.1162 -2.0863e-15)
(9.58594 12.4746 -4.93592e-15)
(10.7161 10.6593 -8.00948e-15)
(11.6637 8.8119 -1.05765e-14)
(12.4252 7.02067 -1.22768e-14)
(13.0063 5.31183 -1.31683e-14)
(13.4142 3.66873 -1.35686e-14)
(13.6495 2.0632 -1.3577e-14)
(13.7059 0.483259 -1.31985e-14)
(13.5396 -1.05039 -1.24181e-14)
(13.1208 -2.4881 -1.11451e-14)
(12.4892 -3.76625 -9.49609e-15)
(11.7232 -4.82977 -7.6859e-15)
(10.8791 -5.6434 -5.91081e-15)
(9.97552 -6.19631 -4.27984e-15)
(9.01236 -6.49952 -2.84822e-15)
(7.99444 -6.5812 -1.65568e-15)
(6.94214 -6.4816 -7.20321e-16)
(5.88894 -6.24723 -1.12756e-16)
(4.87387 -5.92513 2.36786e-16)
(3.93485 -5.55858 2.86764e-16)
(3.1045 -5.18484 -4.78192e-17)
(2.41374 -4.83438 -7.496e-16)
(1.86099 -4.53363 -1.73334e-15)
(1.46396 -4.31594 -2.89393e-15)
(1.27446 -4.1108 -5.35282e-15)
(-23.4019 2.35346 2.25647e-15)
(-22.6136 2.40602 2.23839e-15)
(-22.0534 2.49534 2.19492e-15)
(-21.4872 2.6347 2.13638e-15)
(-20.9304 2.83492 2.07295e-15)
(-20.3701 3.10453 2.01179e-15)
(-19.7908 3.4492 1.95554e-15)
(-19.175 3.87058 1.90661e-15)
(-18.5046 4.36752 1.86322e-15)
(-17.7624 4.93764 1.82551e-15)
(-16.932 5.57884 1.78901e-15)
(-15.9966 6.29045 1.75447e-15)
(-14.9389 7.07263 1.71868e-15)
(-13.7425 7.92647 1.68016e-15)
(-12.3942 8.85261 1.63811e-15)
(-10.8818 9.84843 1.59314e-15)
(-9.1974 10.9009 1.55023e-15)
(-7.34081 11.9781 1.51342e-15)
(-5.33622 12.9955 1.48913e-15)
(-3.22201 13.8571 1.48219e-15)
(-1.00993 14.4807 1.48859e-15)
(1.24403 14.7233 1.44634e-15)
(3.28567 14.4638 1.08236e-15)
(5.21965 13.714 1.83166e-16)
(7.10562 12.5325 -1.38983e-15)
(8.89509 11.0546 -3.52615e-15)
(10.5308 9.43403 -5.88341e-15)
(11.9569 7.79843 -7.93194e-15)
(13.1314 6.22205 -9.29221e-15)
(14.0328 4.72461 -9.89726e-15)
(14.6567 3.29197 -1.00326e-14)
(15.0083 1.90297 -9.91142e-15)
(15.0974 0.552005 -9.3976e-15)
(14.9143 -0.744873 -8.61979e-15)
(14.4623 -1.95613 -7.67755e-15)
(13.7993 -3.03606 -6.56139e-15)
(13.0061 -3.93963 -5.415e-15)
(12.1363 -4.63714 -4.46125e-15)
(11.2044 -5.11864 -3.6709e-15)
(10.2062 -5.39228 -3.05448e-15)
(9.14174 -5.48071 -2.62531e-15)
(8.02696 -5.41704 -2.39862e-15)
(6.89297 -5.24035 -2.41674e-15)
(5.7795 -4.99126 -2.65465e-15)
(4.72789 -4.70845 -3.01032e-15)
(3.77614 -4.42683 -3.5118e-15)
(2.96011 -4.17668 -4.0348e-15)
(2.27824 -3.98806 -4.26582e-15)
(1.76975 -3.88981 -4.36317e-15)
(1.5081 -3.78291 -6.19736e-15)
(-30.3648 1.68815 1.70656e-15)
(-29.6077 1.74458 1.71737e-15)
(-29.0166 1.8435 1.72913e-15)
(-28.402 1.98552 1.74043e-15)
(-27.7717 2.17719 1.75089e-15)
(-27.1137 2.42401 1.75951e-15)
(-26.4149 2.72958 1.76453e-15)
(-25.6599 3.09533 1.76551e-15)
(-24.833 3.52084 1.76212e-15)
(-23.9182 4.00465 1.75524e-15)
(-22.8997 4.54548 1.7452e-15)
(-21.7613 5.14275 1.73225e-15)
(-20.487 5.79658 1.71525e-15)
(-19.0606 6.50751 1.69505e-15)
(-17.4668 7.27527 1.67243e-15)
(-15.6912 8.0963 1.64899e-15)
(-13.7226 8.95972 1.62851e-15)
(-11.5568 9.83915 1.61329e-15)
(-9.2077 10.6791 1.60629e-15)
(-6.71128 11.408 1.60875e-15)
(-4.10634 11.9659 1.61614e-15)
(-1.45045 12.262 1.60202e-15)
(1.24637 12.1613 1.34887e-15)
(3.60171 11.548 6.78168e-16)
(5.83195 10.5043 -4.36555e-16)
(8.0336 9.18833 -1.95839e-15)
(10.1109 7.77949 -3.73914e-15)
(11.9615 6.40088 -5.43814e-15)
(13.5001 5.10781 -6.62276e-15)
(14.6763 3.90149 -7.11308e-15)
(15.4768 2.75532 -7.11776e-15)
(15.9155 1.64166 -6.9472e-15)
(16.0235 0.550659 -6.52041e-15)
(15.8278 -0.500608 -6.00355e-15)
(15.3614 -1.48022 -5.46927e-15)
(14.6975 -2.35334 -4.99398e-15)
(13.9168 -3.08362 -4.5374e-15)
(13.0662 -3.6482 -4.27916e-15)
(12.1531 -4.04026 -4.22219e-15)
(11.1662 -4.26671 -4.27056e-15)
(10.0991 -4.34547 -4.41408e-15)
(8.96187 -4.30282 -4.63148e-15)
(7.78249 -4.17052 -4.92386e-15)
(6.60053 -3.98268 -5.21155e-15)
(5.4599 -3.7731 -5.38471e-15)
(4.40291 -3.57391 -5.39095e-15)
(3.46831 -3.4151 -5.06089e-15)
(2.65599 -3.32996 -4.16243e-15)
(2.04175 -3.33398 -3.18493e-15)
(1.71499 -3.30206 -4.52334e-15)
(-36.4731 1.18502 6.92569e-16)
(-35.7849 1.2363 7.60639e-16)
(-35.2255 1.32281 8.35874e-16)
(-34.6309 1.44412 9.137e-16)
(-33.9998 1.60416 9.91661e-16)
(-33.319 1.80618 1.06761e-15)
(-32.5742 2.05225 1.13883e-15)
(-31.7501 2.34306 1.20415e-15)
(-30.8309 2.67795 1.26392e-15)
(-29.8009 3.05569 1.31881e-15)
(-28.6441 3.47503 1.37078e-15)
(-27.345 3.93481 1.42038e-15)
(-25.8877 4.4345 1.46724e-15)
(-24.2564 4.97399 1.51204e-15)
(-22.4352 5.55241 1.55563e-15)
(-20.4097 6.16642 1.59859e-15)
(-18.1678 6.80772 1.64169e-15)
(-15.704 7.45815 1.68379e-15)
(-13.026 8.08358 1.72485e-15)
(-10.1605 8.63729 1.76229e-15)
(-7.15281 9.07206 1.78899e-15)
(-4.08804 9.33707 1.78502e-15)
(-1.03172 9.3782 1.64236e-15)
(2.1808 8.94118 1.12365e-15)
(4.65823 8.07669 3.73597e-16)
(7.16929 6.94633 -6.16778e-16)
(9.62049 5.79125 -1.85942e-15)
(11.8465 4.73138 -3.25933e-15)
(13.7047 3.79902 -4.48053e-15)
(15.1096 2.96934 -5.20186e-15)
(16.0397 2.1945 -5.47113e-15)
(16.5244 1.43367 -5.62736e-15)
(16.6231 0.670672 -5.64415e-15)
(16.4026 -0.0885774 -5.52549e-15)
(15.9304 -0.825718 -5.43352e-15)
(15.2912 -1.50271 -5.41378e-15)
(14.557 -2.08125 -5.4117e-15)
(13.7613 -2.53702 -5.52859e-15)
(12.9005 -2.86094 -5.76013e-15)
(11.9552 -3.05603 -5.99402e-15)
(10.9129 -3.13496 -6.23068e-15)
(9.77904 -3.1178 -6.41689e-15)
(8.57854 -3.0299 -6.51778e-15)
(7.35051 -2.89949 -6.51865e-15)
(6.14038 -2.75568 -6.21181e-15)
(4.99293 -2.62749 -5.78452e-15)
(3.94645 -2.54408 -5.05687e-15)
(3.00609 -2.53964 -3.67667e-15)
(2.29732 -2.60852 -2.23184e-15)
(1.89735 -2.62934 -2.85403e-15)
(-41.6632 0.565087 1.42305e-16)
(-41.0798 0.591279 2.25888e-16)
(-40.5803 0.641756 3.08882e-16)
(-40.0358 0.715366 3.90635e-16)
(-39.4403 0.814173 4.71584e-16)
(-38.7787 0.939908 5.51327e-16)
(-38.0345 1.09378 6.29201e-16)
(-37.1908 1.27607 7.05317e-16)
(-36.2304 1.48641 7.79495e-16)
(-35.136 1.7239 8.51097e-16)
(-33.8909 1.98743 9.21172e-16)
(-32.4788 2.27595 9.89916e-16)
(-30.8834 2.58881 1.0565e-15)
(-29.0886 2.92557 1.12107e-15)
(-27.0788 3.28545 1.18305e-15)
(-24.8396 3.66646 1.24208e-15)
(-22.3592 4.06394 1.29767e-15)
(-19.6316 4.46818 1.34894e-15)
(-16.662 4.862 1.39342e-15)
(-13.4722 5.22216 1.42729e-15)
(-10.1047 5.52451 1.44385e-15)
(-6.63089 5.74474 1.42662e-15)
(-3.16345 5.87502 1.32057e-15)
(0.543425 5.80344 9.93291e-16)
(3.75289 5.14354 4.49342e-16)
(6.47152 4.22392 -1.22493e-16)
(9.23136 3.34845 -8.79482e-16)
(11.7909 2.62301 -1.87645e-15)
(13.9368 2.05887 -3.00503e-15)
(15.5354 1.61095 -3.93427e-15)
(16.5557 1.2154 -4.56008e-15)
(17.0482 0.818487 -5.08992e-15)