/*--------------------------------*- C++ -*----------------------------------*\
  =========                 |
  \\      /  F ield         | OpenFOAM: The Open Source CFD Toolbox
   \\    /   O peration     | Website:  https://openfoam.org
    \\  /    A nd           | Version:  8
     \\/     M anipulation  |
\*---------------------------------------------------------------------------*/
FoamFile
{
    version     2.0;
    format      ascii;
    class       volScalarField;
    location    "300";
    object      alphat;
}
// * * * * * * * * * * * * * * * * * * * * * * * * * * * * * * * * * * * * * //

dimensions      [1 -1 -1 0 0 0 0];

internalField   nonuniform List<scalar> 
8400
(
0.0511566
0.0504316
0.0498235
0.0491083
0.0482626
0.0472778
0.0461658
0.0449642
0.0437455
0.0426268
0.0418019
0.04137
0.0412043
0.0410693
0.0408032
0.0403931
0.0399473
0.0395258
0.0391167
0.038719
0.0383359
0.0379863
0.0376885
0.0374126
0.0370917
0.0366793
0.0362145
0.0357604
0.0353802
0.035159
0.035187
0.0355301
0.0362085
0.0371131
0.0380162
0.0389192
0.0397878
0.0405399
0.041131
0.0415404
0.0417666
0.0418249
0.0417256
0.0414687
0.0411227
0.0407663
0.0404055
0.0400345
0.0396538
0.0392659
0.0570294
0.0525273
0.0527825
0.0525829
0.0519174
0.050794
0.0491398
0.0468843
0.0439528
0.0401718
0.0374199
0.0354492
0.0340028
0.0339032
0.03477
0.0352428
0.0352259
0.0349695
0.0346641
0.0343971
0.0342332
0.0342506
0.0341476
0.0340789
0.0344499
0.0353644
0.0356912
0.0350927
0.0334757
0.030961
0.0279265
0.0248694
0.0222852
0.0209406
0.0203649
0.020231
0.0204265
0.0207128
0.0209719
0.0211806
0.0213326
0.0214373
0.0215015
0.0215693
0.0216172
0.0215674
0.0214518
0.0213015
0.0211374
0.0209771
0.0621741
0.0603475
0.0583532
0.0579034
0.0582996
0.058513
0.0585842
0.0584357
0.0577009
0.0416262
0.0380969
0.0420651
0.0431748
0.0436992
0.0436449
0.0440578
0.044601
0.0451105
0.0455845
0.0460258
0.046406
0.0466119
0.04661
0.0467243
0.0472489
0.0488002
0.0494549
0.0489915
0.0473607
0.044403
0.0402547
0.0355028
0.0291544
0.0247054
0.0218789
0.0194987
0.0184159
0.0183799
0.0184592
0.018579
0.0186859
0.0187706
0.018836
0.0189215
0.0189839
0.0190197
0.019039
0.019052
0.019065
0.0190801
0.0611493
0.0610021
0.0609096
0.0607987
0.0606959
0.0605913
0.0604824
0.0603689
0.0602399
0.0601016
0.059667
0.0592919
0.0589822
0.0582702
0.0573838
0.0565378
0.0557646
0.0550407
0.0543915
0.0538866
0.053743
0.0534412
0.0527596
0.0535186
0.0555049
0.0566635
0.057231
0.0573323
0.0568766
0.0554925
0.0528049
0.0498109
0.0400484
0.0341977
0.0309898
0.0253581
0.0190753
0.0183787
0.0179789
0.0181069
0.0182181
0.0183103
0.0183864
0.0184584
0.0185219
0.0185777
0.0186264
0.0186704
0.0187129
0.0187575
0.0611785
0.0611146
0.0610494
0.0609834
0.0609157
0.0608472
0.0607774
0.0607051
0.0606309
0.0605454
0.0604455
0.0603354
0.0602097
0.0600455
0.0598275
0.0595533
0.0592285
0.0588612
0.0584697
0.0580879
0.0577557
0.057441
0.0570223
0.0568524
0.056857
0.0568701
0.056881
0.0568948
0.0568717
0.0568298
0.0571118
0.0658747
0.0512773
0.0456282
0.0457735
0.0456241
0.0218335
0.0211989
0.0176615
0.017714
0.0177945
0.01787
0.0179366
0.0180009
0.0180565
0.0181016
0.0181393
0.01817
0.0181964
0.0182236
0.0611635
0.0610838
0.0610015
0.0609169
0.0608303
0.0607403
0.0606485
0.0605571
0.060468
0.0603808
0.0602949
0.06021
0.060124
0.0600328
0.0599306
0.0598114
0.0596694
0.0595008
0.0593083
0.0591012
0.0588902
0.058679
0.0584743
0.058328
0.0582363
0.0581727
0.0581172
0.0580463
0.0579728
0.057881
0.0578206
0.0578589
0.0565086
0.0564193
0.0603087
0.0937187
0.0229898
0.0370596
0.0177538
0.0175577
0.0175936
0.0176597
0.017726
0.0177839
0.0178343
0.017877
0.0179146
0.0179489
0.0179773
0.018004
0.0611545
0.0610622
0.0609681
0.0608723
0.060774
0.0606735
0.0605707
0.0604667
0.0603622
0.0602589
0.0601569
0.0600572
0.05996
0.0598669
0.0597763
0.0596844
0.059588
0.0594838
0.0593683
0.0592418
0.0591057
0.0589626
0.0588178
0.0586806
0.0585507
0.0584256
0.0582998
0.0581654
0.0580195
0.0578655
0.0577112
0.0575087
0.057085
0.0567939
0.0574585
0.0555114
0.0556057
0.0928623
0.0187563
0.0176154
0.017697
0.017779
0.0178624
0.0179453
0.0180273
0.0181087
0.0181901
0.0182729
0.0183508
0.0184268
0.0611398
0.061029
0.0609171
0.0608036
0.0606871
0.0605694
0.0604507
0.0603297
0.0602078
0.0600888
0.059972
0.0598574
0.0597484
0.0596451
0.0595483
0.0594554
0.0593643
0.0592737
0.0591816
0.0590855
0.0589842
0.0588757
0.0587585
0.0586362
0.0585086
0.0583745
0.0582328
0.0580855
0.0579294
0.0577611
0.0575779
0.057357
0.0570541
0.056765
0.0567596
0.0559557
0.0555428
0.0558745
0.0485007
0.0810756
0.0183596
0.0178776
0.0180271
0.0181795
0.0183303
0.0184808
0.0186237
0.0187655
0.0189042
0.0190391
0.0611198
0.0609818
0.0608422
0.0607029
0.0605611
0.060418
0.0602751
0.0601327
0.0599912
0.0598515
0.0597158
0.0595858
0.059462
0.0593447
0.0592357
0.0591365
0.0590457
0.0589616
0.0588795
0.0587971
0.0587113
0.0586205
0.0585219
0.0584147
0.0582989
0.058174
0.0580396
0.0578946
0.0577408
0.0575776
0.0573953
0.0571786
0.0569105
0.0566311
0.056442
0.0559294
0.0554565
0.0548069
0.0521602
0.0526817
0.0488396
0.0266888
0.0180298
0.0182387
0.0184641
0.0186799
0.0188708
0.0190449
0.0192104
0.0193619
0.0610847
0.0608996
0.0607174
0.0605372
0.0603585
0.0601797
0.0600019
0.0598263
0.0596557
0.059493
0.0593363
0.0591906
0.0590554
0.0589312
0.0588184
0.0587167
0.0586242
0.0585448
0.0584749
0.0584055
0.0583342
0.058261
0.0581809
0.05809
0.0579892
0.0578791
0.05776
0.0576295
0.0574857
0.0573314
0.0571589
0.0569534
0.0567031
0.0564336
0.0561798
0.0557585
0.0552813
0.0545341
0.0529777
0.0515479
0.0481901
0.0393466
0.0270031
0.0189442
0.0183813
0.0186392
0.0188631
0.0190444
0.0192051
0.0193395
0.0610213
0.0607408
0.0604826
0.0602335
0.0599946
0.0597615
0.0595394
0.0593269
0.0591276
0.0589355
0.0587612
0.0586078
0.0584693
0.0583475
0.0582438
0.0581581
0.0580854
0.0580223
0.0579686
0.0579208
0.0578757
0.057826
0.0577674
0.0577008
0.0576211
0.0575258
0.0574198
0.057307
0.0571793
0.0570366
0.0568753
0.056681
0.0564451
0.0561805
0.0558996
0.0555088
0.0550263
0.0542731
0.0530191
0.0512888
0.0481744
0.042345
0.0339436
0.0252181
0.020575
0.0190347
0.0187782
0.0188631
0.018987
0.019116
0.0608582
0.0602905
0.0599325
0.0596208
0.0593049
0.0590124
0.0587534
0.058504
0.0582979
0.0581179
0.0579505
0.0578252
0.057721
0.0576244
0.057542
0.0574787
0.0574397
0.0574149
0.0573982
0.0573842
0.0573702
0.0573485
0.0573143
0.0572682
0.0572109
0.0571324
0.0570423
0.0569442
0.0568301
0.0566996
0.0565493
0.0563596
0.0561307
0.0558734
0.0555816
0.0551934
0.0546934
0.0539345
0.0527637
0.0509965
0.0481161
0.0435542
0.0374717
0.0307877
0.0252977
0.0218261
0.020066
0.0193183
0.0190414
0.0189751
0.0599254
0.0593087
0.0588765
0.0584804
0.0581064
0.0577744
0.0574989
0.0572718
0.0570912
0.0569607
0.0568684
0.0568067
0.0567536
0.0567315
0.0567359
0.0567486
0.0567692
0.0567963
0.0568196
0.0568436
0.05686
0.0568613
0.0568555
0.0568204
0.0567725
0.0567012
0.0566266
0.0565437
0.0564409
0.0563199
0.056171
0.0559868
0.0557617
0.0555068
0.0552072
0.0548081
0.0542816
0.0534981
0.0523352
0.0505858
0.0479351
0.0441657
0.0394809
0.0344325
0.029768
0.0260078
0.0233136
0.0215505
0.0204587
0.0198125
0.0582014
0.0575827
0.0570913
0.0566673
0.0563173
0.0560503
0.0558693
0.0557579
0.0557046
0.0557004
0.0557256
0.0557763
0.0558396
0.0559136
0.0559954
0.0560764
0.0561505
0.0562185
0.0562766
0.0563239
0.0563549
0.0563679
0.0563687
0.0563468
0.0563073
0.0562493
0.0561859
0.056104
0.0559979
0.0558821
0.0557375
0.0555691
0.05533
0.0550689
0.0547553
0.0543393
0.0537802
0.0529586
0.0517781
0.0500694
0.0476461
0.0444708
0.040755
0.036861
0.033165
0.0299198
0.0272345
0.025109
0.0234784
0.0222575
0.056144
0.05568
0.0553273
0.0550675
0.0548968
0.0548046
0.0547756
0.0547956
0.0548505
0.0549285
0.0550214
0.0551231
0.0552291
0.0553354
0.0554382
0.0555359
0.0556229
0.0557013
0.0557665
0.055816
0.0558489
0.0558632
0.0558605
0.0558425
0.0558069
0.0557474
0.0556779
0.0555935
0.0554873
0.0553617
0.0552113
0.0550331
0.0547951
0.0545349
0.05427
0.0537608
0.0531619
0.0523018
0.0511031
0.0494545
0.0472688
0.0445936
0.0416168
0.0385807
0.0356967
0.0330861
0.0307969
0.0288315
0.027165
0.0257607
0.0546534
0.0544368
0.0542983
0.0542227
0.0541992
0.0542148
0.0542587
0.0543227
0.0543988
0.0544843
0.0545755
0.0546706
0.0547637
0.0548551
0.054943
0.0550256
0.0550974
0.0551593
0.0552107
0.0552491
0.055271
0.0552759
0.0552657
0.0552388
0.0551963
0.0551313
0.0550532
0.0549588
0.0548446
0.0547088
0.0545461
0.0543475
0.0541048
0.0538358
0.0535428
0.0531878
0.0523886
0.0515031
0.0503072
0.0487502
0.0468178
0.044591
0.042222
0.0398654
0.037638
0.0356007
0.033772
0.0321457
0.0307018
0.0294155
0.053829
0.0537638
0.0537314
0.0537254
0.0537397
0.0537696
0.0538105
0.0538594
0.0539145
0.0539757
0.0540396
0.0541062
0.0541737
0.0542392
0.0543008
0.0543581
0.0544082
0.0544497
0.0544802
0.0544993
0.0545072
0.0545004
0.0544772
0.0544379
0.0543845
0.0543134
0.0542244
0.054118
0.0539912
0.0538382
0.0536608
0.0534468
0.0531897
0.0528933
0.0525603
0.0521942
0.0516727
0.0505252
0.0493703
0.0479509
0.0462945
0.0444879
0.0426411
0.0408459
0.0391624
0.03762
0.0362223
0.0349585
0.0338131
0.0327683
0.0531221
0.0530888
0.0530643
0.0530494
0.0530433
0.0530463
0.0530572
0.0530754
0.0531003
0.0531308
0.0531663
0.0532039
0.0532425
0.0532818
0.0533194
0.0533531
0.05338
0.0533996
0.0534119
0.0534148
0.0534051
0.0533831
0.0533471
0.053297
0.0532293
0.0531453
0.0530451
0.0529248
0.0527831
0.0526154
0.0524211
0.0521925
0.0519233
0.0516076
0.0512498
0.0508453
0.050428
0.04953
0.0482792
0.047033
0.0456759
0.0442697
0.0428833
0.0415651
0.0403431
0.0392257
0.0382086
0.0372837
0.0364413
0.0356659
0.0519688
0.0519144
0.0518621
0.0518149
0.0517746
0.0517417
0.0517175
0.0517014
0.0516926
0.0516902
0.051693
0.0517009
0.0517117
0.0517224
0.0517316
0.0517393
0.0517436
0.0517419
0.0517326
0.0517155
0.0516892
0.0516505
0.0515975
0.0515314
0.051452
0.0513557
0.0512415
0.0511101
0.0509593
0.0507852
0.0505839
0.0503506
0.0500853
0.0497816
0.0494411
0.049066
0.0486311
0.0483004
0.0469069
0.0458933
0.0448615
0.0438437
0.042874
0.0419723
0.0411442
0.0403884
0.0397017
0.0390805
0.0385172
0.0379977
0.0644911
0.0640814
0.06367
0.0632427
0.062795
0.0623255
0.0618343
0.0613247
0.0607997
0.0602642
0.059722
0.0591768
0.0586333
0.0580952
0.0575647
0.0570435
0.0565338
0.0560359
0.0555493
0.0550715
0.0546028
0.0541421
0.0536874
0.0532346
0.0527824
0.0523308
0.0518773
0.0514206
0.0509579
0.0504877
0.0500072
0.0495077
0.048986
0.0484411
0.0478781
0.0473102
0.0467291
0.0465654
0.0451353
0.0446599
0.0442676
0.0439455
0.0436948
0.043514
0.0433984
0.0433459
0.043354
0.0434162
0.0435206
0.0436518
0.00545339
0.00542718
0.00540127
0.005378
0.0053563
0.00533484
0.00531332
0.00529178
0.00527034
0.00524905
0.00522791
0.00520687
0.00518591
0.00516498
0.00514411
0.00512337
0.00510286
0.00508265
0.00506275
0.00504297
0.00500179
0.00497892
0.00495419
0.00492928
0.00490865
0.00488826
0.00486738
0.00484606
0.00482463
0.00480343
0.00478274
0.00476271
0.00474338
0.00472475
0.00470679
0.00468949
0.00467281
0.00465672
0.00464118
0.00462612
0.00461142
0.00459668
0.0045817
0.00456648
0.00455117
0.00453606
0.00452132
0.00450654
0.00449006
0.004469
0.00538406
0.00526246
0.00514542
0.00503354
0.00492722
0.00482652
0.00473074
0.00463937
0.00455214
0.00446886
0.00438934
0.00431335
0.00424065
0.00417112
0.0041047
0.00404142
0.0039812
0.00392387
0.00386915
0.0038159
0.00373275
0.00365778
0.0036086
0.00357727
0.0154537
0.0156538
0.0157636
0.0158206
0.0158475
0.0158568
0.0158551
0.0158458
0.0158302
0.0158093
0.0157834
0.0157531
0.0157185
0.0156796
0.0156359
0.0155869
0.0155319
0.0154723
0.0154087
0.0153415
0.0152709
0.0151981
0.0151278
0.0150722
0.0150478
0.0150526
0.00538256
0.00525804
0.00513965
0.00502644
0.00491809
0.00481442
0.00471513
0.00461988
0.0045284
0.00444045
0.00435578
0.0042742
0.00419554
0.00411972
0.00404675
0.00397661
0.00390924
0.00384446
0.00378217
0.0158767
0.0157566
0.0156329
0.0155105
0.0153901
0.0152785
0.015171
0.0150658
0.0149622
0.0148606
0.0147612
0.0146641
0.0145693
0.0144768
0.0143863
0.0142979
0.0142111
0.0141258
0.0140416
0.0139586
0.0138761
0.0137936
0.0137105
0.0136272
0.0135441
0.0134607
0.0133735
0.0132765
0.0131683
0.0130679
0.0130275
0.00538342
0.00525924
0.0051414
0.00502903
0.00492148
0.00481842
0.00471959
0.00462472
0.00453356
0.00444583
0.00436128
0.00427971
0.00420099
0.00412507
0.00405193
0.00398154
0.00391379
0.00384847
0.00378546
0.0158929
0.0157652
0.0156385
0.015513
0.0153888
0.0152658
0.0151436
0.015022
0.0149011
0.0147813
0.014663
0.0145463
0.0144316
0.0143188
0.014208
0.0140992
0.0139924
0.0138874
0.0137842
0.0136825
0.0135818
0.0134814
0.0133809
0.0132807
0.0131821
0.0130876
0.0129989
0.0129118
0.0128134
0.0126951
0.012604
0.0053839
0.00526004
0.00514186
0.00502909
0.00492122
0.0048179
0.00471884
0.00462378
0.00453246
0.00444461
0.00435999
0.00427841
0.00419978
0.00412402
0.00405109
0.0039809
0.00391328
0.00384799
0.00378494
0.0158882
0.015761
0.015635
0.0155102
0.0153864
0.015263
0.0151398
0.0150166
0.0148938
0.0147718
0.0146512
0.0145324
0.0144155
0.0143005
0.0141874
0.0140762
0.0139667
0.0138589
0.0137525
0.0136474
0.0135431
0.0134393
0.0133354
0.013231
0.0131256
0.0130202
0.0129189
0.0128268
0.0127392
0.0126355
0.0125358
0.00538386
0.00526028
0.00514216
0.00502941
0.00492169
0.00481861
0.00471982
0.00462501
0.00453388
0.00444619
0.0043617
0.00428028
0.0042018
0.00412621
0.00405341
0.00398328
0.00391562
0.00385023
0.00378707
0.0159058
0.0157784
0.0156523
0.015527
0.0154018
0.0152759
0.0151493
0.0150222
0.0148954
0.0147699
0.0146464
0.0145251
0.0144063
0.0142898
0.0141757
0.0140637
0.0139536
0.0138453
0.0137384
0.0136326
0.0135276
0.0134232
0.0133197
0.0132171
0.0131147
0.0130108
0.0129052
0.0128036
0.0127118
0.0126159
0.0125184
0.00538369
0.00526
0.00514189
0.00502917
0.0049215
0.00481849
0.00471977
0.00462499
0.00453385
0.00444611
0.00436159
0.00428013
0.00420163
0.00412599
0.00405311
0.00398285
0.00391505
0.00384954
0.00378632
0.0159012
0.0157743
0.015649
0.0155248
0.0154011
0.0152776
0.0151539
0.0150304
0.0149075
0.0147858
0.0146653
0.0145463
0.0144287
0.0143125
0.0141978
0.0140845
0.0139726
0.013862
0.0137525
0.013644
0.013536
0.0134285
0.0133215
0.013216
0.0131126
0.0130105
0.012907
0.0128024
0.0127043
0.0126082
0.0125119
0.00538358
0.00525968
0.00514156
0.00502896
0.00492145
0.0048186
0.00472002
0.00462535
0.00453431
0.00444665
0.0043622
0.0042808
0.00420231
0.00412664
0.00405369
0.00398335
0.0039155
0.00385
0.00378686
0.0159066
0.0157799
0.0156546
0.0155302
0.0154064
0.0152829
0.0151597
0.0150371
0.0149153
0.0147947
0.0146751
0.0145565
0.0144389
0.0143225
0.0142074
0.0140936
0.0139809
0.0138693
0.0137586
0.0136488
0.0135398
0.0134316
0.0133236
0.0132161
0.0131101
0.0130067
0.0129047
0.0128014
0.0127009
0.0126033
0.012507
0.00538353
0.00525953
0.00514145
0.00502897
0.00492157
0.00481879
0.00472024
0.00462557
0.00453451
0.00444684
0.00436235
0.00428087
0.00420227
0.00412647
0.00405341
0.00398301
0.00391516
0.00384972
0.00378666
0.0159055
0.0157791
0.0156538
0.0155294
0.0154055
0.0152822
0.0151594
0.0150374
0.0149162
0.0147958
0.0146762
0.0145574
0.0144396
0.0143232
0.0142081
0.0140943
0.0139814
0.0138693
0.0137579
0.0136472
0.0135377
0.0134293
0.0133218
0.0132145
0.0131075
0.0130022
0.0128994
0.0127973
0.0126966
0.0125983
0.012502
0.00538352
0.00525959
0.00514161
0.00502919
0.00492183
0.00481905
0.00472046
0.00462575
0.00453465
0.00444694
0.00436239
0.00428085
0.00420219
0.00412636
0.00405332
0.00398301
0.00391528
0.00384995
0.00378696
0.0159072
0.0157806
0.0156549
0.0155302
0.0154064
0.0152832
0.0151607
0.0150387
0.0149173
0.0147964
0.0146762
0.0145569
0.0144389
0.0143223
0.0142073
0.0140935
0.0139805
0.0138679
0.013756
0.0136448
0.0135348
0.0134262
0.0133189
0.0132122
0.0131054
0.0129992
0.0128953
0.0127932
0.0126929
0.0125946
0.0124982
0.00538354
0.00525975
0.00514187
0.00502947
0.00492206
0.00481919
0.00472052
0.00462572
0.00453456
0.00444679
0.00436219
0.00428061
0.00420196
0.00412621
0.00405331
0.00398315
0.00391553
0.00385024
0.0037872
0.0159077
0.0157806
0.0156548
0.0155301
0.0154064
0.0152834
0.0151608
0.0150384
0.0149163
0.0147945
0.0146735
0.0145537
0.0144353
0.0143186
0.0142032
0.0140887
0.013975
0.0138617
0.0137494
0.0136382
0.0135284
0.01342
0.0133127
0.0132063
0.0131001
0.0129943
0.0128902
0.0127883
0.0126886
0.0125908
0.0124947
0.00538359
0.00525994
0.00514208
0.00502964
0.00492213
0.00481915
0.00472038
0.0046255
0.00453427
0.00444645
0.00436184
0.00428031
0.00420177
0.00412619
0.00405346
0.00398341
0.00391581
0.00385043
0.00378722
0.0159066
0.0157792
0.0156534
0.0155289
0.0154054
0.0152826
0.0151599
0.0150373
0.014915
0.0147933
0.0146725
0.0145529
0.0144346
0.0143176
0.0142015
0.0140861
0.0139712
0.013857
0.0137439
0.0136325
0.0135227
0.0134142
0.0133066
0.0131998
0.0130937
0.0129883
0.0128845
0.012783
0.0126838
0.0125865
0.0124905
0.00538364
0.00526004
0.00514214
0.00502961
0.00492201
0.00481896
0.00472012
0.00462521
0.00453396
0.00444616
0.00436163
0.00428025
0.00420192
0.00412655
0.00405397
0.00398397
0.0039163
0.00385077
0.0037874
0.0159076
0.0157799
0.015654
0.0155296
0.0154061
0.015283
0.0151601
0.0150376
0.0149155
0.0147942
0.0146739
0.0145545
0.0144359
0.014318
0.0142008
0.0140843
0.0139684
0.0138535
0.0137399
0.013628
0.0135177
0.0134088
0.0133007
0.0131933
0.013087
0.0129821
0.0128789
0.012778
0.0126791
0.0125819
0.0124859
0.00538368
0.00526002
0.00514203
0.00502941
0.00492173
0.00481862
0.00471973
0.00462476
0.00453347
0.00444567
0.00436119
0.00427991
0.0042017
0.00412638
0.00405377
0.00398363
0.00391577
0.00385005
0.00378654
0.0159012
0.0157739
0.0156484
0.0155242
0.015401
0.0152782
0.0151558
0.015034
0.0149128
0.0147924
0.0146726
0.0145533
0.0144343
0.0143158
0.0141979
0.0140808
0.0139648
0.01385
0.0137363
0.013624
0.0135131
0.0134034
0.0132948
0.0131873
0.0130813
0.0129768
0.0128744
0.0127739
0.0126754
0.0125783
0.0124822
0.00538367
0.0052599
0.00514181
0.00502916
0.00492151
0.00481846
0.00471963
0.00462474
0.00453355
0.00444588
0.00436157
0.00428045
0.00420234
0.00412705
0.00405437
0.00398413
0.00391616
0.00385038
0.00378686
0.0159042
0.0157764
0.0156504
0.0155258
0.0154022
0.0152793
0.0151571
0.0150357
0.014915
0.0147949
0.0146752
0.0145558
0.0144366
0.0143181
0.0142005
0.014084
0.0139686
0.0138541
0.0137404
0.0136276
0.0135158
0.0134053
0.0132962
0.0131887
0.0130828
0.0129788
0.0128766
0.0127765
0.0126782
0.0125814
0.0124858
0.00538363
0.00525969
0.00514144
0.00502865
0.00492086
0.00481764
0.00471864
0.00462357
0.00453223
0.00444445
0.00436003
0.00427878
0.00420049
0.00412499
0.00405212
0.00398174
0.00391371
0.00384794
0.00378446
0.0158856
0.0157589
0.0156337
0.01551
0.0153874
0.0152657
0.0151448
0.0150248
0.0149055
0.014787
0.014669
0.0145516
0.0144349
0.0143191
0.0142045
0.0140908
0.0139777
0.0138648
0.0137521
0.0136398
0.0135285
0.0134185
0.0133102
0.0132035
0.0130987
0.0129957
0.0128947
0.012796
0.0126995
0.0126051
0.0125125
0.00538358
0.00525957
0.0051414
0.00502882
0.00492128
0.0048183
0.0047195
0.00462461
0.00453342
0.00444572
0.0043613
0.00427996
0.00420152
0.00412586
0.00405287
0.00398244
0.00391442
0.00384865
0.00378514
0.0158907
0.0157633
0.0156377
0.0155137
0.0153909
0.0152691
0.0151481
0.0150281
0.0149093
0.0147915
0.0146751
0.0145599
0.0144462
0.0143339
0.014223
0.0141131
0.0140037
0.0138946
0.0137858
0.0136779
0.0135714
0.0134668
0.0133643
0.0132639
0.0131657
0.0130699
0.0129772
0.0128877
0.0128018
0.0127194
0.0126405
0.00538355
0.00525867
0.00513952
0.00502602
0.00491765
0.004814
0.00471471
0.00461951
0.00452813
0.00444034
0.00435588
0.00427456
0.00419624
0.00412084
0.00404826
0.00397835
0.00391089
0.0038457
0.00378279
0.0158776
0.0157574
0.0156397
0.0155227
0.0154066
0.0152899
0.0151777
0.0150701
0.0149665
0.0148664
0.0147693
0.0146748
0.0145827
0.0144929
0.0144051
0.0143187
0.0142333
0.0141486
0.0140646
0.0139818
0.0139006
0.0138213
0.0137438
0.0136684
0.0135954
0.0135256
0.0134597
0.0133985
0.0133423
0.0132916
0.0132473
0.0053839
0.00526012
0.0051428
0.00503132
0.00492517
0.00482461
0.00472915
0.0046384
0.00455198
0.00446955
0.00439078
0.00431543
0.00424338
0.00417451
0.00410868
0.00404568
0.00398521
0.00392706
0.00387115
0.00381785
0.0164104
0.0163445
0.0162931
0.0162335
0.0161034
0.0160111
0.0159529
0.0159186
0.0158984
0.0158849
0.0158737
0.0158623
0.0158492
0.0158337
0.0158153
0.0157935
0.0157681
0.0157393
0.0157075
0.0156733
0.015637
0.0155988
0.0155594
0.0155197
0.0154813
0.0154454
0.0154132
0.0153854
0.0153636
0.0153509
0.00545293
0.0054281
0.0054044
0.00538172
0.0053599
0.00533813
0.00531634
0.00529452
0.00527266
0.00525078
0.00522895
0.00520727
0.00518584
0.0051647
0.00514382
0.0051231
0.00510247
0.00508197
0.00506168
0.00504168
0.00502536
0.00498861
0.00495866
0.00493253
0.00491757
0.00489683
0.00487399
0.00485092
0.00482842
0.00480667
0.00478562
0.00476518
0.00474524
0.00472572
0.00470652
0.00468761
0.004669
0.00465071
0.00463275
0.00461509
0.00459768
0.00458052
0.00456366
0.00454717
0.00453111
0.00451543
0.00449998
0.00448456
0.00446898
0.00445304
0.0164378
0.00803489
0.00757753
0.00688975
0.00583149
0.00479894
0.00401948
0.0157387
0.0140973
0.0128151
0.0117952
0.0134535
0.0153136
0.00396881
0.00439726
0.00485409
0.00530474
0.00574918
0.00642417
0.0140692
0.0162501
0.00799435
0.00758345
0.00688938
0.0058226
0.00478516
0.00400716
0.0156566
0.0140363
0.0127249
0.0109211
0.0132961
0.0152622
0.00395852
0.00439183
0.00485376
0.0053059
0.00574889
0.00643705
0.0142958
0.0160615
0.00795788
0.00759003
0.00688958
0.00581485
0.00477299
0.00399638
0.0155911
0.0139878
0.012665
0.0121903
0.0133132
0.0151944
0.00394341
0.00437806
0.00484235
0.00529538
0.00573806
0.00644014
0.0144927
0.0158757
0.00792361
0.00759696
0.00689019
0.00580829
0.00476259
0.0039875
0.0155342
0.0139415
0.0125685
0.0119806
0.0132641
0.0151315
0.00392931
0.00436521
0.00483164
0.00528536
0.00572763
0.00644421
0.014691
0.0156901
0.00789262
0.00760438
0.00689147
0.00580326
0.00475448
0.00398146
0.0154902
0.0139116
0.0125076
0.0118984
0.0131868
0.0150706
0.00391609
0.00435322
0.0048216
0.00527584
0.00571761
0.00644927
0.0148907
0.0155051
0.0078652
0.00761236
0.00689355
0.00579986
0.00474864
0.00397791
0.0154567
0.013894
0.0124756
0.0118918
0.013107
0.0150115
0.00390364
0.00434199
0.00481216
0.00526676
0.00570795
0.00645529
0.0150917
0.0153209
0.00784144
0.00762102
0.00689664
0.00579839
0.00474542
0.00397714
0.015434
0.0138879
0.0124664
0.0118386
0.0130332
0.0149551
0.00389185
0.00433142
0.00480324
0.00525805
0.00569857
0.00646219
0.0152938
0.0151379
0.00782124
0.00763036
0.00690082
0.00579892
0.00474485
0.00397908
0.0154216
0.0138924
0.0124775
0.0117526
0.0129733
0.0149017
0.00388063
0.00432139
0.00479471
0.00524958
0.00568936
0.00646989
0.0154967
0.0149561
0.00780445
0.00764038
0.00690612
0.00580146
0.00474682
0.00398344
0.0154179
0.013905
0.0125034
0.0117408
0.0129298
0.0148517
0.00386994
0.0043118
0.00478645
0.00524123
0.0056802
0.00647829
0.0157003
0.0147756
0.00779079
0.00765104
0.00691253
0.00580594
0.00475117
0.00398983
0.0154209
0.0139226
0.0125341
0.0117738
0.0128951
0.0148037
0.00385956
0.00430252
0.00477832
0.00523287
0.005671
0.0064873
0.0159042
0.0145964
0.00777988
0.00766223
0.00691996
0.00581224
0.00475765
0.00399786
0.0154287
0.0139425
0.0125614
0.0118117
0.0128551
0.0147565
0.0038493
0.0042934
0.00477021
0.00522442
0.00566169
0.0064969
0.0161083
0.0144185
0.00777135
0.00767382
0.0069283
0.00582019
0.00476595
0.00400713
0.0154396
0.0139629
0.0125811
0.0117616
0.0128071
0.0147088
0.00383904
0.00428437
0.00476207
0.00521585
0.00565226
0.00650708
0.0163126
0.0142418
0.00776487
0.00768569
0.00693746
0.00582964
0.00477581
0.00401729
0.0154525
0.0139833
0.0125958
0.0117805
0.0127504
0.0146602
0.00382874
0.00427537
0.00475386
0.00520716
0.00564275
0.00651789
0.016517
0.0140661
0.00776021
0.00769777
0.00694775
0.00584036
0.00478699
0.00402709
0.0154664
0.0140032
0.0126062
0.0117475
0.0126841
0.0146111
0.00381849
0.00426647
0.00474564
0.00519842
0.00563322
0.00652943
0.0167216
0.0138915
0.00775723
0.00771004
0.00695998
0.00585191
0.00479798
0.00403637
0.0154812
0.0140235
0.0126177
0.0116779
0.0126106
0.0145623
0.00380843
0.00425773
0.00473747
0.00518971
0.00562378
0.00654182
0.0169268
0.0137178
0.00775587
0.00772286
0.00697309
0.00586423
0.00480924
0.00404563
0.0154971
0.0140452
0.012635
0.0115532
0.0125354
0.0145147
0.00379864
0.00424921
0.00472945
0.00518115
0.00561458
0.00655523
0.0171327
0.0135453
0.00775606
0.0077364
0.00698668
0.00587725
0.00482081
0.00405493
0.0155141
0.0140689
0.0126619
0.0114096
0.0124695
0.014469
0.00378925
0.00424099
0.00472167
0.00517285
0.00560571
0.00656978
0.0173397
0.0133739
0.00775773
0.00775046
0.00700097
0.00589088
0.00483266
0.0040642
0.0155326
0.0140949
0.0127004
0.0113363
0.0124185
0.0144262
0.00378038
0.00423315
0.00471422
0.0051649
0.00559726
0.00658556
0.0175479
0.0132037
0.0077608
0.00776506
0.00701594
0.00590507
0.00484473
0.0040735
0.0155518
0.0141228
0.012748
0.0113272
0.012382
0.0143866
0.00377199
0.00422573
0.00470716
0.00515732
0.00558923
0.00660227
0.0177576
0.0130348
0.00776522
0.00778023
0.00703158
0.00591976
0.00485699
0.00408285
0.0155713
0.0141518
0.0128006
0.011342
0.01236
0.0143517
0.00376412
0.00421877
0.00470049
0.00515012
0.00558161
0.00661866
0.0179694
0.0128672
0.00777095
0.00779599
0.00704788
0.00593491
0.00486938
0.00409217
0.0155907
0.0141812
0.0128547
0.0114168
0.0123504
0.0143223
0.00375677
0.0042123
0.00469421
0.00514326
0.00557437
0.00664081
0.0181811
0.0127009
0.00777799
0.00781237
0.00706483
0.00595048
0.00488188
0.0041014
0.0156091
0.0142105
0.0129057
0.0115349
0.0123441
0.0142977
0.00374982
0.0042063
0.00468831
0.00513669
0.00556745
0.00666902
0.0183924
0.0125361
0.0077859
0.00782938
0.00708241
0.00596647
0.00489449
0.00411055
0.0156252
0.0142406
0.0129494
0.0115796
0.012335
0.0142764
0.00374309
0.00420072
0.00468273
0.00513038
0.00556078
0.00670351
0.0186033
0.012373
0.00779447
0.00784701
0.00710064
0.0059829
0.00490726
0.00411966
0.015641
0.0142681
0.0129882
0.011556
0.0123203
0.0142579
0.00373644
0.00419554
0.00467748
0.00512425
0.00555401
0.00674472
0.0188137
0.0122115
0.00780366
0.00786524
0.00711952
0.00599984
0.00492031
0.00412884
0.0156572
0.014294
0.0130223
0.0115066
0.0122988
0.0142437
0.00372986
0.00419046
0.00467259
0.00511856
0.00554817
0.00679203
0.0190236
0.0120515
0.00781338
0.00788406
0.00713911
0.00601742
0.00493383
0.00413828
0.0156742
0.0143229
0.0130473
0.0115138
0.0122755
0.0142327
0.00372304
0.00418689
0.0046683
0.0051133
0.00554312
0.00684591
0.019233
0.011893
0.00782356
0.00790346
0.00715948
0.00603578
0.00494801
0.00414818
0.0156927
0.0143569
0.0130827
0.011542
0.0122669
0.0142283
0.00371774
0.00418425
0.00466452
0.00510838
0.00553908
0.00690701
0.0194419
0.0117358
0.00783412
0.00792344
0.00718069
0.00605504
0.00496301
0.00415872
0.0157127
0.0143972
0.0131324
0.01159
0.0122815
0.0142329
0.00371436
0.00418274
0.0046614
0.00510392
0.00553634
0.00697594
0.0196502
0.01158
0.00784501
0.00794401
0.00720283
0.00607534
0.00497899
0.00417004
0.0157336
0.0144449
0.013199
0.0116689
0.0123253
0.0142486
0.00371313
0.0041825
0.00465905
0.00510001
0.00553514
0.0070532
0.0198578
0.0114254
0.00785619
0.00796519
0.00722598
0.0060968
0.00499609
0.00418225
0.0157535
0.0144999
0.0132831
0.0117839
0.0124014
0.0142766
0.00371424
0.00418362
0.00465757
0.00509674
0.00553574
0.00713906
0.0200647
0.0112721
0.00786765
0.00798704
0.00725021
0.00611952
0.0050144
0.00419544
0.0157686
0.0145617
0.0133832
0.0119369
0.01251
0.0143178
0.00371774
0.00418614
0.00465697
0.00509414
0.00553837
0.00723355
0.0202707
0.01112
0.0078794
0.00800958
0.00727556
0.00614355
0.00503397
0.00420961
0.00373834
0.0146291
0.0134961
0.0121242
0.0126481
0.0143723
0.00372359
0.00419001
0.00465723
0.00509222
0.00554318
0.00733642
0.0204757
0.0109692
0.00789145
0.00803284
0.00730209
0.00616896
0.00505488
0.00422625
0.00375901
0.014699
0.0136174
0.0123365
0.0128099
0.0144395
0.00373164
0.00419511
0.00465829
0.00509095
0.00555029
0.00744708
0.0206794
0.0108197
0.0079038
0.00805683
0.00732981
0.00619576
0.00507712
0.00424273
0.00377145
0.0147745
0.0137421
0.0125617
0.0129873
0.0145181
0.00374162
0.00420128
0.00466002
0.00509029
0.00555978
0.00756479
0.0208817
0.0106714
0.00791645
0.00808158
0.00735876
0.006224
0.00510071
0.00426024
0.00378433
0.0148512
0.0138662
0.0127858
0.0131721
0.0146064
0.00375323
0.00420834
0.00466232
0.00509019
0.0055717
0.00768873
0.0210824
0.0105243
0.00792938
0.00810708
0.00738898
0.00625377
0.00512579
0.00427896
0.00379776
0.014929
0.0139879
0.0129985
0.0133582
0.0147028
0.00376616
0.00421609
0.00466508
0.00509064
0.00558609
0.00781814
0.0212815
0.0103785
0.00794258
0.0081334
0.00742055
0.00628518
0.00515249
0.00429898
0.00381188
0.015008
0.0141075
0.0131968
0.0135422
0.0148063
0.00378015
0.00422441
0.00466825
0.00509163
0.005603
0.00795229
0.0214788
0.0102339
0.00795608
0.00816056
0.00745357
0.00631836
0.00518097
0.00432045
0.00382682
0.0150886
0.0142269
0.0133844
0.0137235
0.0149159
0.003795
0.00423321
0.00467177
0.00509317
0.00562248
0.00809061
0.0216742
0.0100905
0.00796985
0.00818861
0.00748813
0.00635346
0.00521138
0.00434352
0.00384273
0.0151712
0.0143479
0.0135665
0.0139025
0.0150312
0.00381058
0.00424242
0.00467562
0.00509528
0.00564461
0.00823273
0.0218676
0.00994846
0.00798387
0.00821757
0.00752433
0.00639063
0.00524387
0.00436834
0.00385971
0.0152559
0.0144716
0.0137469
0.0140804
0.0151519
0.00382681
0.004252
0.00467978
0.00509801
0.00566952
0.00837848
0.0220589
0.00980764
0.00799808
0.00824749
0.00756228
0.00643002
0.00527862
0.00439504
0.00387787
0.0153422
0.0145981
0.0139288
0.0142587
0.015278
0.00384362
0.00426193
0.00468426
0.00510144
0.00569739
0.00852777
0.0222478
0.00966804
0.00801243
0.00827838
0.00760209
0.00647178
0.00531579
0.00442377
0.00389733
0.0154298
0.0147268
0.0141155
0.0144379
0.0154092
0.00386098
0.0042722
0.00468909
0.00510563
0.00572841
0.00868061
0.0224344
0.00952965
0.00802688
0.00831029
0.00764386
0.00651608
0.00535557
0.00445471
0.00391826
0.0155183
0.0148556
0.0143072
0.0146174
0.0155453
0.00387884
0.00428282
0.00469429
0.00511067
0.00576285
0.00883717
0.0226183
0.00939244
0.00804134