/*--------------------------------*- C++ -*----------------------------------*\
  =========                 |
  \\      /  F ield         | OpenFOAM: The Open Source CFD Toolbox
   \\    /   O peration     | Website:  https://openfoam.org
    \\  /    A nd           | Version:  8
     \\/     M anipulation  |
\*---------------------------------------------------------------------------*/
FoamFile
{
    version     2.0;
    format      ascii;
    class       volScalarField;
    location    "300";
    object      epsilon;
}
// * * * * * * * * * * * * * * * * * * * * * * * * * * * * * * * * * * * * * //

dimensions      [0 2 -3 0 0 0 0];

internalField   nonuniform List<scalar> 
8400
(
0.00631647
0.00620418
0.00609735
0.00598573
0.00585226
0.00568679
0.00548498
0.00524952
0.00498807
0.00471256
0.00443945
0.00419341
0.00398927
0.00382772
0.00369794
0.00358359
0.00347301
0.00336365
0.00325708
0.00315313
0.00305132
0.00295396
0.0028635
0.00278581
0.00272655
0.00268363
0.00265493
0.00264291
0.0026568
0.00270994
0.00281565
0.00297877
0.00318252
0.00339481
0.00360553
0.0038082
0.00398819
0.00413
0.00422723
0.00427778
0.00428336
0.00424981
0.00418597
0.00410318
0.0040201
0.00393554
0.00384835
0.00375979
0.00367033
0.00357991
0.00725195
0.00719515
0.00735765
0.00752661
0.0076003
0.00755204
0.00736463
0.00703444
0.00656103
0.00594788
0.00518566
0.00449931
0.00394007
0.00348996
0.00319045
0.00304098
0.00297308
0.0029304
0.002888
0.00283986
0.0027863
0.00269492
0.00250323
0.00222222
0.00194167
0.00172966
0.00153569
0.00133474
0.00111892
0.000902808
0.000713541
0.000575603
0.000506045
0.000487706
0.000490636
0.00050775
0.000531491
0.000553337
0.000571118
0.000584238
0.00059274
0.00059705
0.000598122
0.000596075
0.000586269
0.000571734
0.000555406
0.000539195
0.000524417
0.000512245
0.0124944
0.0111453
0.0109455
0.0113955
0.0116156
0.011751
0.0117884
0.0117512
0.0116402
0.011378
0.00874607
0.00695789
0.00643847
0.00617162
0.00605647
0.00599411
0.00600333
0.00607811
0.00618424
0.00627477
0.00629861
0.00626495
0.00602105
0.00560371
0.00510994
0.00468681
0.0042556
0.00373505
0.00309136
0.00236532
0.00165084
0.00103478
0.000652854
0.000494983
0.000394926
0.000346412
0.000344296
0.00034991
0.000357105
0.000363747
0.000369385
0.000374365
0.000378792
0.000382203
0.000384246
0.000385585
0.00038681
0.000388219
0.000389961
0.000392129
0.0131109
0.01304
0.0129664
0.0128984
0.0128295
0.0127611
0.0126918
0.0126197
0.0125435
0.0124608
0.012369
0.0122615
0.0121121
0.0119367
0.0116997
0.0113811
0.0109894
0.0105489
0.0101073
0.00973994
0.00959682
0.00945048
0.00913686
0.00870904
0.00913427
0.00899903
0.00867524
0.00811735
0.00725294
0.00604904
0.00456683
0.00282161
0.00149534
0.00108444
0.000678906
0.000385657
0.00033676
0.000325612
0.000328243
0.000334142
0.000339698
0.00034473
0.000349304
0.000353564
0.000357436
0.000361135
0.000364812
0.000368499
0.000372183
0.000375854
0.013133
0.0130909
0.0130481
0.0130046
0.0129601
0.0129145
0.0128679
0.0128203
0.0127719
0.0127227
0.0126703
0.0126131
0.0125498
0.0124782
0.0123931
0.0122875
0.0121542
0.0119896
0.0117997
0.0116053
0.0114294
0.0112686
0.0111342
0.0111028
0.0110785
0.0110364
0.0109736
0.010884
0.010758
0.0105719
0.0101775
0.00762225
0.00336372
0.00324914
0.00205218
0.000622546
0.000422609
0.000341251
0.000313338
0.000317677
0.000322082
0.000326267
0.000330326
0.000333874
0.00033701
0.000339911
0.000342617
0.000345144
0.00034753
0.000349815
0.0131239
0.0130714
0.013018
0.0129636
0.012908
0.0128517
0.0127944
0.0127364
0.012678
0.0126203
0.0125636
0.0125083
0.012454
0.0123998
0.012344
0.0122841
0.0122164
0.0121376
0.0120464
0.0119452
0.0118392
0.0117339
0.0116362
0.0115532
0.0114754
0.0113933
0.0113011
0.0111934
0.0110618
0.0108918
0.0106318
0.010136
0.00989159
0.00955704
0.00808886
0.00147779
0.000918788
0.000544353
0.000312528
0.000314308
0.000317675
0.000322024
0.000326063
0.000329672
0.000333019
0.000336182
0.000339168
0.000341984
0.000344644
0.000347154
0.0131181
0.0130584
0.0129975
0.0129354
0.0128719
0.0128071
0.0127412
0.0126744
0.0126072
0.0125402
0.0124741
0.0124097
0.0123475
0.0122878
0.0122307
0.0121754
0.0121204
0.0120631
0.0120012
0.0119333
0.0118595
0.0117811
0.0116992
0.0116155
0.0115286
0.0114356
0.0113334
0.0112197
0.0110907
0.0109374
0.0107408
0.0104703
0.01019
0.00983618
0.00901812
0.00752923
0.00683054
0.00185215
0.000340796
0.000339255
0.000330788
0.000337207
0.000343654
0.000350204
0.000356965
0.000363896
0.000370899
0.000377886
0.000384779
0.000391467
0.0131087
0.0130377
0.0129654
0.0128919
0.0128172
0.0127408
0.0126634
0.0125855
0.0125075
0.01243
0.0123541
0.0122808
0.0122105
0.0121438
0.0120812
0.012023
0.0119686
0.0119166
0.0118644
0.0118099
0.0117508
0.0116866
0.0116169
0.0115414
0.0114597
0.0113713
0.0112744
0.011166
0.0110438
0.0109031
0.0107337
0.010521
0.0102704
0.00994791
0.00937542
0.00847869
0.0074935
0.00542473
0.00383188
0.000873334
0.000345866
0.000355168
0.000367122
0.000379349
0.000391887
0.000404648
0.000417449
0.000430121
0.000442526
0.000454469
0.0130955
0.0130076
0.0129188
0.0128291
0.0127384
0.0126465
0.0125533
0.0124598
0.0123667
0.0122752
0.0121867
0.0121024
0.0120232
0.0119501
0.0118838
0.0118237
0.0117693
0.0117194
0.0116721
0.0116256
0.011577
0.0115241
0.0114657
0.0114008
0.0113287
0.0112488
0.0111603
0.0110612
0.0109489
0.0108189
0.0106653
0.0104781
0.0102513
0.00995821
0.0094965
0.00880547
0.00789347
0.00643228
0.00482462
0.00273037
0.00108269
0.000364005
0.000379979
0.000398287
0.000416232
0.000433526
0.000449974
0.000465362
0.000479541
0.000492335
0.0130749
0.0129584
0.0128432
0.0127283
0.0126128
0.012497
0.0123812
0.0122663
0.0121534
0.0120443
0.0119409
0.0118444
0.0117564
0.0116781
0.0116103
0.011553
0.0115055
0.0114642
0.0114266
0.0113914
0.0113555
0.0113157
0.0112703
0.011218
0.011158
0.0110893
0.0110108
0.0109211
0.0108183
0.0106981
0.0105558
0.0103837
0.010174
0.00990218
0.00949976
0.00891007
0.00808863
0.00688401
0.00541049
0.00362595
0.00196393
0.000858745
0.000461739
0.000399969
0.000421633
0.000441509
0.000459151
0.000474297
0.000486612
0.000495864
0.0130371
0.0128628
0.0126997
0.0125442
0.0123906
0.0122389
0.0120899
0.0119445
0.0118057
0.0116766
0.0115595
0.0114565
0.0113697
0.0112997
0.0112443
0.011201
0.0111698
0.0111485
0.0111314
0.0111154
0.0110973
0.0110744
0.0110448
0.0110062
0.010959
0.0109026
0.010835
0.0107546
0.0106603
0.0105484
0.0104143
0.0102523
0.010054
0.00979749
0.00942994
0.00889852
0.00814969
0.00709368
0.00576154
0.00418773
0.00264192
0.00144755
0.000782869
0.000515895
0.000443076
0.000437001
0.000448822
0.000462241
0.000473181
0.000480251
0.0129338
0.0125986
0.0123629
0.012152
0.0119451
0.0117442
0.0115544
0.0113771
0.0112195
0.0110874
0.0109814
0.0109009
0.0108441
0.0108086
0.0107925
0.0107907
0.010794
0.0108029
0.0108128
0.010821
0.0108235
0.0108186
0.0108046
0.0107791
0.0107424
0.0106958
0.0106376
0.0105653
0.0104781
0.0103721
0.0102434
0.0100888
0.0098988
0.00965214
0.00930492
0.00881024
0.00811656
0.00716331
0.00596025
0.00456321
0.00316535
0.00200295
0.00122038
0.000785522
0.00057898
0.000492905
0.000463189
0.000457241
0.000460077
0.000464907
0.0123701
0.0119904
0.0116963
0.0114186
0.0111606
0.0109311
0.0107361
0.0105788
0.0104617
0.0103828
0.0103367
0.0103185
0.0103223
0.0103404
0.0103679
0.0104039
0.0104412
0.0104777
0.0105104
0.010538
0.0105558
0.0105625
0.0105569
0.0105414
0.0105136
0.0104749
0.0104219
0.010354
0.0102707
0.0101682
0.0100439
0.00989396
0.00970824
0.00946697
0.00913176
0.00866124
0.00801045
0.00713834
0.00605359
0.0048172
0.00357597
0.00250029
0.00169691
0.00116753
0.000849152
0.000668594
0.000570086
0.000518056
0.0004917
0.000479081
0.0114229
0.0110531
0.0107454
0.0104798
0.0102619
0.0100944
0.00997508
0.00989942
0.0098614
0.00985366
0.00986872
0.00990037
0.00994345
0.00999313
0.0100455
0.010099
0.010151
0.0101988
0.0102395
0.0102723
0.0102947
0.0103055
0.0103034
0.0102902
0.0102652
0.0102291
0.0101776
0.0101128
0.0100332
0.00993449
0.00981481
0.00966862
0.00947882
0.00923976
0.00891068
0.00845662
0.00784186
0.00704119
0.00606873
0.00498478
0.00390242
0.00294171
0.00217687
0.00161791
0.0012324
0.000975145
0.000806053
0.000695366
0.000622828
0.000575106
0.0103791
0.010118
0.00990908
0.00975085
0.00964027
0.00957151
0.00953716
0.00953
0.00954332
0.00957143
0.00960992
0.00965543
0.00970524
0.00975712
0.00980913
0.00985927
0.00990625
0.00994788
0.00998215
0.0100081
0.0100243
0.0100302
0.010025
0.0100086
0.00998106
0.00994268
0.00989
0.00982426
0.00974439
0.00964761
0.00953066
0.00938763
0.00920592
0.00897834
0.00864103
0.00819496
0.00761456
0.00688394
0.00602327
0.00508812
0.00416402
0.00333311
0.00264385
0.00210494
0.00169901
0.00139898
0.00117847
0.00101594
0.000895282
0.000804825
0.00961546
0.0094923
0.00940241
0.00934449
0.00931344
0.00930352
0.00930959
0.00932736
0.00935331
0.00938478
0.00942005
0.0094579
0.00949711
0.00953643
0.00957462
0.00961016
0.00964228
0.00966951
0.00969038
0.00970409
0.0097098
0.00970662
0.00969391
0.00967093
0.00963753
0.0095938
0.00953779
0.00946919
0.00938667
0.00928835
0.00917006
0.00902738
0.00885151
0.0086314
0.00832062
0.00789437
0.00732847
0.00667153
0.00592582
0.00513889
0.00437221
0.00367877
0.00308778
0.00260432
0.00221808
0.00191254
0.00167087
0.0014785
0.00132382
0.00119794
0.00916333
0.00912388
0.00909805
0.00908472
0.00908139
0.00908568
0.00909579
0.00911029
0.00912807
0.00914817
0.00916985
0.00919243
0.00921528
0.00923781
0.00925924
0.00927841
0.00929461
0.00930669
0.00931344
0.00931404
0.00930775
0.00929378
0.00927177
0.00924095
0.00920072
0.00915064
0.00908964
0.00901677
0.00893046
0.00882886
0.00870809
0.0085647
0.00839151
0.00817771
0.00789758
0.00753133
0.00700087
0.00640474
0.00577915
0.00514089
0.00452978
0.00397667
0.0034971
0.00309266
0.00275646
0.00247809
0.00224678
0.00205288
0.00188831
0.00174657
0.0087894
0.00877471
0.00876315
0.00875459
0.00874886
0.00874575
0.00874507
0.00874658
0.00874995
0.00875484
0.00876099
0.00876804
0.00877546
0.00878259
0.00878866
0.00879285
0.00879452
0.00879254
0.00878591
0.00877411
0.00875668
0.00873279
0.00870175
0.00866291
0.00861589
0.00855998
0.00849403
0.00841679
0.0083271
0.00822325
0.00810217
0.00796113
0.00779498
0.00759646
0.00735246
0.00705133
0.00663747
0.0060691
0.00557474
0.00508604
0.00462694
0.0042129
0.00385018
0.003538
0.0032714
0.00304374
0.00284814
0.00267826
0.00252855
0.00239426
0.00822504
0.00820736
0.00818928
0.00817146
0.00815457
0.00813896
0.00812484
0.00811234
0.0081016
0.00809249
0.00808462
0.00807742
0.0080705
0.00806359
0.00805593
0.00804657
0.00803497
0.00802056
0.00800257
0.00798021
0.00795286
0.00792022
0.00788198
0.00783712
0.00778491
0.00772514
0.0076572
0.00757968
0.00749178
0.00739235
0.00727952
0.00715166
0.00700598
0.00683888
0.00664438
0.00641476
0.00613192
0.00566284
0.00528641
0.00494515
0.0046322
0.00435187
0.00410492
0.00388941
0.00370192
0.00353836
0.00339458
0.00326668
0.00315098
0.00304411
0.0149647
0.0146705
0.014384
0.0140962
0.0138048
0.0135082
0.0132062
0.0128997
0.0125898
0.012278
0.0119666
0.0116573
0.0113516
0.0110511
0.0107572
0.0104706
0.0101919
0.00992127
0.00965874
0.00940432
0.00915735
0.00891685
0.00868232
0.008453
0.00822771
0.00800564
0.00778644
0.00756904
0.0073524
0.00713536
0.00691657
0.00669531
0.0064713
0.00624509
0.00601749
0.0057875
0.00554652
0.00522587
0.00501882
0.00490523
0.0048246
0.00477087
0.00474126
0.00473354
0.00474536
0.00477416
0.00481716
0.00487138
0.00493336
0.00499861
9.32896e-06
9.20515e-06
9.0877e-06
8.97609e-06
8.86853e-06
8.76161e-06
8.65489e-06
8.54832e-06
8.44214e-06
8.33667e-06
8.23226e-06
8.12921e-06
8.02775e-06
7.92804e-06
7.83017e-06
7.73414e-06
7.63987e-06
7.54729e-06
7.45629e-06
7.36677e-06
7.27678e-06
7.16254e-06
7.05542e-06
6.95354e-06
6.84929e-06
6.74664e-06
6.64736e-06
6.55215e-06
6.46121e-06
6.37447e-06
6.29175e-06
6.21277e-06
6.13725e-06
6.06487e-06
5.99533e-06
5.92839e-06
5.86379e-06
5.80131e-06
5.74075e-06
5.68197e-06
5.6249e-06
5.56914e-06
5.51429e-06
5.46036e-06
5.40738e-06
5.35529e-06
5.30393e-06
5.25291e-06
5.20135e-06
5.14754e-06
8.97905e-06
8.37872e-06
7.83173e-06
7.33153e-06
6.87466e-06
6.45894e-06
6.08001e-06
5.73406e-06
5.41767e-06
5.12775e-06
4.86155e-06
4.61659e-06
4.39068e-06
4.18183e-06
3.98827e-06
3.80843e-06
3.64092e-06
3.48459e-06
3.33854e-06
3.20189e-06
3.16013e-06
3.14269e-06
3.12155e-06
3.0969e-06
7.30983e-07
7.29667e-07
7.2909e-07
7.28895e-07
7.28823e-07
7.28706e-07
7.28441e-07
7.2797e-07
7.27263e-07
7.26307e-07
7.25103e-07
7.23652e-07
7.2196e-07
7.2003e-07
7.17851e-07
7.15438e-07
7.12812e-07
7.10047e-07
7.0722e-07
7.04351e-07
7.01454e-07
6.98528e-07
6.95564e-07
6.92533e-07
6.89387e-07
6.86041e-07
8.97771e-06
8.37365e-06
7.82081e-06
7.3146e-06
6.85036e-06
6.42422e-06
6.03264e-06
5.67243e-06
5.34067e-06
5.03475e-06
4.75227e-06
4.49106e-06
4.24914e-06
4.02472e-06
3.81614e-06
3.62195e-06
3.44081e-06
3.27158e-06
3.11358e-06
7.30438e-07
7.24791e-07
7.1928e-07
7.13772e-07
7.08276e-07
7.02897e-07
6.97678e-07
6.92638e-07
6.87784e-07
6.8311e-07
6.78604e-07
6.74248e-07
6.70021e-07
6.65901e-07
6.61867e-07
6.57899e-07
6.53974e-07
6.50069e-07
6.46168e-07
6.42277e-07
6.38392e-07
6.34516e-07
6.30655e-07
6.26822e-07
6.23028e-07
6.19282e-07
6.15593e-07
6.1196e-07
6.08374e-07
6.04819e-07
6.01267e-07
8.97751e-06
8.37745e-06
7.82922e-06
7.32735e-06
6.86683e-06
6.44343e-06
6.05362e-06
5.69427e-06
5.36263e-06
5.0562e-06
4.77272e-06
4.51016e-06
4.26662e-06
4.04039e-06
3.8299e-06
3.63374e-06
3.45064e-06
3.27947e-06
3.11959e-06
7.31047e-07
7.25137e-07
7.19258e-07
7.13411e-07
7.07601e-07
7.01836e-07
6.96131e-07
6.90501e-07
6.84961e-07
6.79521e-07
6.74187e-07
6.68959e-07
6.63831e-07
6.58797e-07
6.53846e-07
6.48966e-07
6.44144e-07
6.39365e-07
6.34616e-07
6.29888e-07
6.2518e-07
6.20499e-07
6.15853e-07
6.11254e-07
6.06713e-07
6.02245e-07
5.97861e-07
5.93569e-07
5.89371e-07
5.85259e-07
5.81219e-07
8.9774e-06
8.37719e-06
7.82852e-06
7.32594e-06
6.8647e-06
6.44072e-06
6.05047e-06
5.69086e-06
5.3591e-06
5.05268e-06
4.76931e-06
4.50691e-06
4.26357e-06
4.03755e-06
3.82729e-06
3.63135e-06
3.44847e-06
3.27753e-06
3.11789e-06
7.30818e-07
7.24932e-07
7.19056e-07
7.13191e-07
7.07349e-07
7.01543e-07
6.95791e-07
6.9011e-07
6.84514e-07
6.79014e-07
6.73613e-07
6.6831e-07
6.63101e-07
6.57977e-07
6.52929e-07
6.47943e-07
6.43002e-07
6.38093e-07
6.33203e-07
6.28326e-07
6.23465e-07
6.18625e-07
6.13817e-07
6.0905e-07
6.04339e-07
5.99695e-07
5.95131e-07
5.90655e-07
5.86272e-07
5.81977e-07
5.77759e-07
8.9774e-06
8.37748e-06
7.82932e-06
7.32739e-06
6.86686e-06
6.44363e-06
6.05411e-06
5.69516e-06
5.36397e-06
5.05801e-06
4.77499e-06
4.51281e-06
4.2696e-06
4.04362e-06
3.83332e-06
3.6373e-06
3.45431e-06
3.28323e-06
3.12341e-06
7.31619e-07
7.25611e-07
7.19557e-07
7.13474e-07
7.07395e-07
7.01359e-07
6.95404e-07
6.8956e-07
6.83844e-07
6.78265e-07
6.7282e-07
6.67502e-07
6.62297e-07
6.57189e-07
6.52159e-07
6.47188e-07
6.42257e-07
6.37349e-07
6.32455e-07
6.27571e-07
6.22699e-07
6.17848e-07
6.13027e-07
6.08249e-07
6.03526e-07
5.98871e-07
5.94292e-07
5.89798e-07
5.85391e-07
5.81066e-07
5.76812e-07
8.97745e-06
8.37766e-06
7.82965e-06
7.3278e-06
6.86724e-06
6.44391e-06
6.05424e-06
5.6951e-06
5.36372e-06
5.05756e-06
4.77435e-06
4.512e-06
4.26863e-06
4.04252e-06
3.83213e-06
3.63604e-06
3.45302e-06
3.28195e-06
3.12218e-06
7.3149e-07
7.25601e-07
7.19728e-07
7.13871e-07
7.08036e-07
7.02235e-07
6.96479e-07
6.90781e-07
6.85151e-07
6.79599e-07
6.74127e-07
6.68737e-07
6.63425e-07
6.58185e-07
6.53008e-07
6.47882e-07
6.42795e-07
6.37738e-07
6.32707e-07
6.27702e-07
6.22727e-07
6.17789e-07
6.12898e-07
6.08065e-07
6.033e-07
5.98612e-07
5.94009e-07
5.89494e-07
5.85065e-07
5.80717e-07
5.76436e-07
8.97747e-06
8.37775e-06
7.8299e-06
7.32819e-06
6.86782e-06
6.44465e-06
6.05516e-06
5.69619e-06
5.36495e-06
5.05892e-06
4.77581e-06
4.51354e-06
4.27022e-06
4.04416e-06
3.83379e-06
3.63773e-06
3.45473e-06
3.28368e-06
3.12392e-06
7.31756e-07
7.2587e-07
7.20011e-07
7.14181e-07
7.08384e-07
7.02625e-07
6.96909e-07
6.91244e-07
6.85636e-07
6.80091e-07
6.74612e-07
6.69198e-07
6.63849e-07
6.58559e-07
6.53323e-07
6.48132e-07
6.42978e-07
6.37856e-07
6.32766e-07
6.27708e-07
6.22688e-07
6.17716e-07
6.12799e-07
6.07948e-07
6.03171e-07
5.98476e-07
5.93868e-07
5.89347e-07
5.84909e-07
5.80545e-07
5.76241e-07
8.97746e-06
8.37774e-06
7.82991e-06
7.32826e-06
6.86794e-06
6.44483e-06
6.05537e-06
5.69641e-06
5.36516e-06
5.05908e-06
4.7759e-06
4.51355e-06
4.27014e-06
4.04398e-06
3.83353e-06
3.63739e-06
3.45433e-06
3.28323e-06
3.12344e-06
7.31689e-07
7.25814e-07
7.19968e-07
7.14154e-07
7.08374e-07
7.02631e-07
6.9693e-07
6.91276e-07
6.85676e-07
6.80132e-07
6.74648e-07
6.69224e-07
6.63858e-07
6.58547e-07
6.53286e-07
6.48069e-07
6.42888e-07
6.37742e-07
6.32629e-07
6.27553e-07
6.22522e-07
6.17543e-07
6.12626e-07
6.0778e-07
6.03012e-07
5.98327e-07
5.93728e-07
5.89211e-07
5.8477e-07
5.80395e-07
5.76069e-07
8.97744e-06
8.3777e-06
7.82985e-06
7.32823e-06
6.86796e-06
6.44492e-06
6.05554e-06
5.69665e-06
5.36545e-06
5.05942e-06
4.77627e-06
4.51394e-06
4.27055e-06
4.04438e-06
3.83391e-06
3.63775e-06
3.45467e-06
3.28356e-06
3.12377e-06
7.31739e-07
7.25864e-07
7.2002e-07
7.14207e-07
7.08426e-07
7.0268e-07
6.96972e-07
6.91309e-07
6.85697e-07
6.80141e-07
6.74642e-07
6.69202e-07
6.6382e-07
6.58495e-07
6.5322e-07
6.47989e-07
6.42797e-07
6.37641e-07
6.3252e-07
6.27441e-07
6.2241e-07
6.17435e-07
6.12526e-07
6.07689e-07
6.02931e-07
5.98255e-07
5.9366e-07
5.89141e-07
5.84689e-07
5.80291e-07
5.75933e-07
8.97742e-06
8.37766e-06
7.82981e-06
7.32822e-06
6.868e-06
6.44503e-06
6.05571e-06
5.69688e-06
5.36573e-06
5.05973e-06
4.77658e-06
4.51424e-06
4.2708e-06
4.04458e-06
3.83405e-06
3.63784e-06
3.4547e-06
3.28355e-06
3.12375e-06
7.31735e-07
7.2586e-07
7.20012e-07
7.1419e-07
7.08391e-07
7.02618e-07
6.96877e-07
6.91176e-07
6.85524e-07
6.79928e-07
6.74395e-07
6.68927e-07
6.63525e-07
6.58186e-07
6.52904e-07
6.47672e-07
6.42484e-07
6.37336e-07
6.32231e-07
6.27172e-07
6.22165e-07
6.17218e-07
6.12338e-07
6.0753e-07
6.028e-07
5.98148e-07
5.9357e-07
5.89058e-07
5.84601e-07
5.80185e-07
5.75799e-07
8.97742e-06
8.37764e-06
7.82981e-06
7.32824e-06
6.86808e-06
6.44516e-06
6.05589e-06
5.6971e-06
5.36595e-06
5.05993e-06
4.77674e-06
4.51433e-06
4.27081e-06
4.04451e-06
3.83389e-06
3.63759e-06
3.4544e-06
3.28321e-06
3.12338e-06
7.31684e-07
7.25815e-07
7.19975e-07
7.14158e-07
7.08362e-07
7.0259e-07
6.96846e-07
6.91137e-07
6.85472e-07
6.79858e-07
6.74303e-07
6.6881e-07
6.6338e-07
6.58011e-07
6.52698e-07
6.47436e-07
6.42222e-07
6.37056e-07
6.3194e-07
6.26879e-07
6.21877e-07
6.16941e-07
6.12079e-07
6.07294e-07
6.02588e-07
5.97959e-07
5.93399e-07
5.88897e-07
5.84439e-07
5.80013e-07
5.75605e-07
8.97742e-06
8.37763e-06
7.8298e-06
7.32824e-06
6.86811e-06
6.44525e-06
6.05604e-06
5.69729e-06
5.36619e-06
5.0602e-06
4.77704e-06
4.51464e-06
4.27114e-06
4.04484e-06
3.83424e-06
3.63796e-06
3.45479e-06
3.28363e-06
3.12384e-06
7.31753e-07
7.25884e-07
7.20042e-07
7.14225e-07
7.08429e-07
7.02655e-07
6.96906e-07
6.91188e-07
6.8551e-07
6.79877e-07
6.74297e-07
6.68774e-07
6.63309e-07
6.579e-07
6.52545e-07
6.47244e-07
6.41995e-07
6.36801e-07
6.31665e-07
6.2659e-07
6.21583e-07
6.16651e-07
6.118e-07
6.07033e-07
6.02349e-07
5.97741e-07
5.93199e-07
5.88707e-07
5.84251e-07
5.79817e-07
5.75391e-07
8.97741e-06
8.37759e-06
7.82967e-06
7.32803e-06
6.8678e-06
6.44483e-06
6.05547e-06
5.69657e-06
5.36529e-06
5.05913e-06
4.7758e-06
4.51326e-06
4.26963e-06
4.04322e-06
3.83254e-06
3.6362e-06
3.453e-06
3.28185e-06
3.12209e-06
7.31498e-07
7.25649e-07
7.19829e-07
7.14032e-07
7.08255e-07
7.02498e-07
6.96763e-07
6.91056e-07
6.85383e-07
6.7975e-07
6.74163e-07
6.68626e-07
6.63141e-07
6.57708e-07
6.52329e-07
6.47004e-07
6.41735e-07
6.36525e-07
6.31377e-07
6.26297e-07
6.21294e-07
6.16375e-07
6.11544e-07
6.06802e-07
6.02145e-07
5.97563e-07
5.93044e-07
5.88569e-07
5.84121e-07
5.79686e-07
5.75252e-07
8.9774e-06
8.37749e-06
7.82946e-06
7.32776e-06
6.86756e-06
6.44468e-06
6.05547e-06
5.69673e-06
5.36564e-06
5.05966e-06
4.7765e-06
4.51411e-06
4.2706e-06
4.04429e-06
3.83367e-06
3.63739e-06
3.45423e-06
3.28309e-06
3.12334e-06
7.31673e-07
7.25806e-07
7.19971e-07
7.14165e-07
7.08384e-07
7.02629e-07
6.96901e-07
6.91205e-07
6.85545e-07
6.79924e-07
6.74345e-07
6.68811e-07
6.63324e-07
6.57885e-07
6.52495e-07
6.47155e-07
6.41869e-07
6.36641e-07
6.31477e-07
6.26387e-07
6.21381e-07
6.16466e-07
6.11645e-07
6.06918e-07
6.02277e-07
5.97713e-07
5.9321e-07
5.88748e-07
5.84312e-07
5.79885e-07
5.75457e-07
8.9774e-06
8.37715e-06
7.8285e-06
7.32605e-06
6.86504e-06
6.44137e-06
6.05143e-06
5.69207e-06
5.36048e-06
5.05412e-06
4.77069e-06
4.50811e-06
4.2645e-06
4.03815e-06
3.82756e-06
3.63135e-06
3.44831e-06
3.27734e-06
3.11779e-06
7.30849e-07
7.25034e-07
7.19257e-07
7.13519e-07
7.07823e-07
7.02169e-07
6.96559e-07
6.90993e-07
6.85467e-07
6.79981e-07
6.74531e-07
6.69115e-07
6.63729e-07
6.58373e-07
6.53047e-07
6.47753e-07
6.42497e-07
6.37287e-07
6.32135e-07
6.27057e-07
6.22065e-07
6.17167e-07
6.12368e-07
6.07669e-07
6.03065e-07
5.98545e-07
5.94095e-07
5.89698e-07
5.85338e-07
5.81007e-07
5.76698e-07
8.97739e-06
8.37703e-06
7.82859e-06
7.32671e-06
6.86643e-06
6.44345e-06
6.05412e-06
5.69522e-06
5.36395e-06
5.05776e-06
4.77437e-06
4.51171e-06
4.26791e-06
4.04133e-06
3.83047e-06
3.63398e-06
3.45066e-06
3.27941e-06
3.11958e-06
7.31087e-07
7.25235e-07
7.19431e-07
7.13676e-07
7.07973e-07
7.02325e-07
6.96735e-07
6.912e-07
6.85721e-07
6.80296e-07
6.74924e-07
6.69602e-07
6.64325e-07
6.5909e-07
6.53894e-07
6.48741e-07
6.43637e-07
6.38593e-07
6.33624e-07
6.28745e-07
6.23971e-07
6.19312e-07
6.14776e-07
6.10366e-07
6.06081e-07
6.01913e-07
5.97851e-07
5.93884e-07
5.90004e-07
5.86214e-07
5.82526e-07
8.97737e-06
8.37282e-06
7.81984e-06
7.31407e-06
6.85074e-06
6.4257e-06
6.0352e-06
5.67587e-06
5.34473e-06
5.03911e-06
4.75659e-06
4.49503e-06
4.25252e-06
4.02736e-06
3.81802e-06
3.62313e-06
3.44144e-06
3.27184e-06
3.11368e-06
7.30469e-07
7.24786e-07
7.19244e-07
7.13726e-07
7.08265e-07
7.03078e-07
6.98062e-07
6.93181e-07
6.88419e-07
6.83782e-07
6.7927e-07
6.74877e-07
6.70589e-07
6.66387e-07
6.62257e-07
6.58187e-07
6.54175e-07
6.50227e-07
6.46353e-07
6.4257e-07
6.38896e-07
6.35348e-07
6.31941e-07
6.28684e-07
6.25582e-07
6.22634e-07
6.19835e-07
6.17183e-07
6.14684e-07
6.12364e-07
6.10278e-07
8.97911e-06
8.37947e-06
7.83424e-06
7.33658e-06
6.88244e-06
6.46917e-06
6.09205e-06
5.7471e-06
5.43088e-06
5.14038e-06
4.87297e-06
4.62634e-06
4.39848e-06
4.1876e-06
3.99212e-06
3.81061e-06
3.6418e-06
3.4846e-06
3.33813e-06
3.20113e-06
7.3189e-07
7.29671e-07
7.25818e-07
7.213e-07
7.22628e-07
7.24378e-07
7.25905e-07
7.27025e-07
7.27756e-07
7.28165e-07
7.28306e-07
7.28207e-07
7.27875e-07
7.27311e-07
7.26514e-07
7.25496e-07
7.24277e-07
7.2289e-07
7.21378e-07
7.19788e-07
7.18163e-07
7.16544e-07
7.14963e-07
7.13443e-07
7.11998e-07
7.10635e-07
7.09364e-07
7.08215e-07
7.07258e-07
7.06657e-07
9.32881e-06
9.2044e-06
9.08554e-06
8.97197e-06
8.8624e-06
8.75384e-06
8.64626e-06
8.53969e-06
8.43422e-06
8.32994e-06
8.22696e-06
8.1254e-06
8.02536e-06
7.92688e-06
7.83001e-06
7.73475e-06
7.64111e-06
7.54906e-06
7.45859e-06
7.36958e-06
7.27455e-06
7.17665e-06
7.07793e-06
6.97978e-06
6.86215e-06
6.75419e-06
6.65306e-06
6.55694e-06
6.46472e-06
6.3758e-06
6.2899e-06
6.2069e-06
6.12674e-06
6.04938e-06
5.97477e-06
5.90282e-06
5.83342e-06
5.76646e-06
5.70175e-06
5.63911e-06
5.5783e-06
5.51906e-06
5.4611e-06
5.40413e-06
5.34781e-06
5.29183e-06
5.23589e-06
5.17971e-06
5.12297e-06
5.06536e-06
0.000261514
3.09014e-05
2.59878e-05
1.96751e-05
1.19857e-05
6.67075e-06
3.89405e-06
7.21679e-07
6.46242e-07
5.87497e-07
5.82704e-07
6.32185e-07
7.04705e-07
3.71006e-06
5.08648e-06
6.84039e-06
8.86654e-06
1.11933e-05
1.55424e-05
0.000164433
0.000252607
3.04263e-05
2.60361e-05
1.96664e-05
1.19283e-05
6.61399e-06
3.85709e-06
7.19237e-07
6.43811e-07
5.83434e-07
6.01511e-07
6.34432e-07
7.03655e-07
3.69361e-06
5.08332e-06
6.84931e-06
8.87486e-06
1.11913e-05
1.56341e-05
0.000172214
0.000243924
2.99966e-05
2.60908e-05
1.96627e-05
1.18789e-05
6.56436e-06
3.82602e-06
7.16253e-07
6.41262e-07
5.78226e-07
5.35922e-07
6.25839e-07
7.0033e-07
3.65216e-06
5.03807e-06
6.80186e-06
8.821e-06
1.11269e-05
1.56561e-05
0.000179313
0.000235463
2.96112e-05
2.6151e-05
1.96635e-05
1.18366e-05
6.52097e-06
3.79991e-06
7.13669e-07
6.39584e-07
5.7706e-07
5.46645e-07
6.19571e-07
6.97173e-07
3.61336e-06
4.99544e-06
6.75659e-06
8.76895e-06
1.10643e-05
1.56841e-05
0.000186641
0.000227224
2.92667e-05
2.6216e-05
1.96682e-05
1.18005e-05
6.48296e-06
3.77763e-06
7.11255e-07
6.37801e-07
5.74465e-07
5.49446e-07
6.14524e-07
6.9415e-07
3.57673e-06
4.95509e-06
6.71325e-06
8.71853e-06
1.10034e-05
1.57183e-05
0.000194206
0.000219207
2.89592e-05
2.62853e-05
1.96769e-05
1.17705e-05
6.45052e-06
3.7598e-06
7.09252e-07
6.36436e-07
5.72144e-07
5.43212e-07
6.09819e-07
6.9123e-07
3.54187e-06
4.9166e-06
6.67147e-06
8.66949e-06
1.09439e-05
1.57585e-05
0.000202014
0.000211409
2.86851e-05
2.63584e-05
1.96892e-05
1.17461e-05
6.4233e-06
3.74609e-06
7.07606e-07
6.35481e-07
5.70587e-07
5.37583e-07
6.05673e-07
6.88419e-07
3.5086e-06
4.87972e-06
6.63104e-06
8.62162e-06
1.08859e-05
1.58048e-05
0.000210068
0.000203829
2.84417e-05
2.64352e-05
1.97056e-05
1.17277e-05
6.40157e-06
3.73664e-06
7.06305e-07
6.3488e-07
5.69642e-07
5.36376e-07
6.02102e-07
6.85738e-07
3.47684e-06
4.84436e-06
6.59182e-06
8.57484e-06
1.0829e-05
1.58574e-05
0.000218375
0.000196466
2.8227e-05
2.65155e-05
1.9726e-05
1.17156e-05
6.38566e-06
3.73168e-06
7.05364e-07
6.34625e-07
5.69172e-07
5.33786e-07
5.98611e-07
6.83149e-07
3.44639e-06
4.81032e-06
6.55369e-06
8.52904e-06
1.07734e-05
1.59163e-05
0.000226938
0.000189315
2.80393e-05
2.65993e-05
1.9751e-05
1.171e-05
6.37585e-06
3.73133e-06
7.0478e-07
6.34712e-07
5.69239e-07
5.30407e-07
5.95049e-07
6.80657e-07
3.41716e-06
4.77749e-06
6.51653e-06
8.48415e-06
1.0719e-05
1.59817e-05
0.000235761
0.000182377
2.78773e-05
2.66866e-05
1.97808e-05
1.17113e-05
6.37237e-06
3.73556e-06
7.04531e-07
6.35103e-07
5.69811e-07
5.2746e-07
5.91874e-07
6.78269e-07
3.38908e-06
4.74573e-06
6.48023e-06
8.44011e-06
1.06657e-05
1.60537e-05
0.000244849
0.000175646
2.77398e-05
2.67773e-05
1.98159e-05
1.17199e-05
6.37537e-06
3.74427e-06
7.04581e-07
6.3575e-07
5.70807e-07
5.32477e-07
5.89233e-07
6.75995e-07
3.36205e-06
4.71494e-06
6.44468e-06
8.39685e-06
1.06136e-05
1.61324e-05
0.000254206
0.000169122
2.76256e-05
2.68715e-05
1.98564e-05
1.17359e-05
6.38488e-06
3.75721e-06
7.04885e-07
6.36588e-07
5.71897e-07
5.32069e-07
5.86763e-07
6.73815e-07
3.33594e-06
4.68499e-06
6.40982e-06
8.35433e-06
1.05625e-05
1.62181e-05
0.000263838
0.0001628
2.75338e-05
2.69691e-05
1.99029e-05
1.17596e-05
6.40077e-06
3.77399e-06
7.05395e-07
6.37583e-07
5.73203e-07
5.30657e-07
5.84273e-07
6.71691e-07
3.31058e-06
4.65575e-06
6.37559e-06
8.31257e-06
1.05125e-05
1.63111e-05
0.000273751
0.000156676
2.74632e-05
2.70703e-05
1.9957e-05
1.17908e-05
6.42268e-06
3.79289e-06
7.06053e-07
6.3867e-07
5.7461e-07
5.27041e-07
5.81736e-07
6.69598e-07
3.28584e-06
4.62713e-06
6.34195e-06
8.27158e-06
1.04638e-05
1.64115e-05
0.000283953
0.000150748
2.7413e-05
2.71753e-05
2.00216e-05
1.1829e-05
6.44878e-06
3.8131e-06
7.06815e-07
6.39812e-07
5.76096e-07
5.24795e-07
5.79317e-07
6.67527e-07
3.26169e-06
4.59917e-06
6.309e-06
8.23142e-06
1.04162e-05
1.65197e-05
0.000294452
0.000145011
2.73824e-05
2.72855e-05
2.00956e-05
1.18737e-05
6.47846e-06
3.8345e-06
7.07636e-07
6.40981e-07
5.77598e-07
5.25647e-07
5.76837e-07
6.65448e-07
3.23813e-06
4.57198e-06
6.27688e-06
8.19225e-06
1.037e-05
1.66362e-05
0.000305261
0.000139463
2.73706e-05
2.74023e-05
2.01778e-05
1.19247e-05
6.51145e-06
3.85707e-06
7.08481e-07
6.42167e-07
5.79063e-07
5.25197e-07
5.74181e-07
6.63373e-07
3.21519e-06
4.54571e-06
6.24575e-06
8.1542e-06
1.03252e-05
1.67614e-05
0.000316389
0.000134099
2.73768e-05
2.75259e-05
2.0268e-05
1.19818e-05
6.54754e-06
3.88074e-06
7.09335e-07
6.43382e-07
5.80614e-07
5.23684e-07
5.71603e-07
6.61388e-07
3.19312e-06
4.52065e-06
6.21581e-06
8.11739e-06
1.0282e-05
1.68973e-05
0.000327845
0.000128916
2.74001e-05
2.76564e-05
2.03663e-05
1.20449e-05
6.58661e-06
3.90545e-06
7.10184e-07
6.44625e-07
5.82313e-07
5.24864e-07
5.69233e-07
6.5955e-07
3.17208e-06
4.49705e-06
6.18731e-06
8.08198e-06
1.02403e-05
1.70644e-05
0.000339587
0.000123909
2.74395e-05
2.77939e-05
2.04727e-05
1.21139e-05
6.6286e-06
3.93119e-06
7.11023e-07
6.45899e-07
5.84098e-07
5.25542e-07
5.66965e-07
6.57883e-07
3.15212e-06
4.47511e-06
6.16043e-06
8.04812e-06
1.02005e-05
1.72704e-05
0.000351605
0.000119075
2.74941e-05
2.79384e-05
2.05873e-05
1.2189e-05
6.67357e-06
3.95802e-06
7.11856e-07
6.47244e-07
5.86093e-07
5.23553e-07
5.64982e-07
6.56412e-07
3.1333e-06
4.45499e-06
6.13537e-06
8.01597e-06
1.01625e-05
1.75208e-05
0.000363899
0.00011441
2.75614e-05
2.80902e-05
2.07104e-05
1.22702e-05
6.72164e-06
3.98606e-06
7.12726e-07
6.48622e-07
5.88498e-07
5.25816e-07
5.63348e-07
6.55182e-07
3.11575e-06
4.43699e-06
6.11238e-06
7.9857e-06
1.01266e-05
1.78214e-05
0.000376466
0.000109921
2.76341e-05
2.82494e-05
2.08424e-05
1.2358e-05
6.77307e-06
4.01545e-06
7.1366e-07
6.5003e-07
5.9113e-07
5.32056e-07
5.62063e-07
6.54268e-07
3.09966e-06
4.42144e-06
6.09176e-06
7.95762e-06
1.00943e-05
1.81762e-05
0.000389303
0.000105601
2.77122e-05
2.84165e-05
2.09837e-05
1.24527e-05
6.82814e-06
4.04642e-06
7.14679e-07
6.51579e-07
5.93737e-07
5.3899e-07
5.61049e-07
6.53733e-07
3.08527e-06
4.40937e-06
6.07383e-06
7.93289e-06
1.00668e-05
1.85879e-05
0.000402404
0.000101444
2.77955e-05
2.85919e-05
2.11349e-05
1.25547e-05
6.88719e-06
4.07919e-06
7.158e-07
6.53295e-07
5.96586e-07
5.45841e-07
5.61105e-07
6.53588e-07
3.07458e-06
4.40097e-06
6.05836e-06
7.91025e-06
1.00447e-05
1.90611e-05
0.000415765
9.74435e-05
2.78841e-05
2.8776e-05
2.12965e-05
1.26647e-05
6.95058e-06
4.11401e-06
7.17035e-07
6.55204e-07
5.99805e-07
5.5274e-07
5.62405e-07
6.53933e-07
3.06841e-06
4.39593e-06
6.04547e-06
7.88975e-06
1.00286e-05
1.96e-05
0.000429377
9.35941e-05
2.79777e-05
2.8969e-05
2.14691e-05
1.2783e-05
7.01871e-06
4.15117e-06
7.18397e-07
6.57318e-07
6.03322e-07
5.59501e-07
5.65036e-07
6.54802e-07
3.06693e-06
4.39431e-06
6.03517e-06
7.87138e-06
1.0019e-05
2.02081e-05
0.000443232
8.98895e-05
2.80763e-05
2.91711e-05
2.16529e-05
1.291e-05
7.09192e-06