/*--------------------------------*- C++ -*----------------------------------*\
  =========                 |
  \\      /  F ield         | OpenFOAM: The Open Source CFD Toolbox
   \\    /   O peration     | Website:  https://openfoam.org
    \\  /    A nd           | Version:  8
     \\/     M anipulation  |
\*---------------------------------------------------------------------------*/
FoamFile
{
    version     2.0;
    format      ascii;
    class       volScalarField;
    location    "300";
    object      k;
}
// * * * * * * * * * * * * * * * * * * * * * * * * * * * * * * * * * * * * * //

dimensions      [0 2 -2 0 0 0 0];

internalField   nonuniform List<scalar> 
8400
(
0.00189775
0.00186743
0.0018401
0.00181007
0.00177432
0.00173114
0.00168005
0.00162208
0.00155961
0.00149641
0.00143828
0.0013906
0.00135358
0.0013237
0.00129682
0.00127017
0.0012435
0.00121729
0.00119164
0.00116649
0.00114182
0.00111831
0.00109672
0.00107776
0.00106163
0.00104736
0.00103511
0.00102625
0.00102344
0.00103037
0.00105067
0.00108592
0.00113308
0.00118477
0.00123573
0.00128497
0.00132956
0.00136571
0.00139172
0.00140695
0.00141169
0.00140713
0.00139486
0.00137674
0.00135704
0.00133686
0.00131611
0.00129489
0.00127329
0.00125135
0.00214761
0.002053
0.00208112
0.00210094
0.00209784
0.00206845
0.00200911
0.00191798
0.00179347
0.0016325
0.00147116
0.00133374
0.00122235
0.00114869
0.00111222
0.0010932
0.00108067
0.00106897
0.00105657
0.00104369
0.00103134
0.00101454
0.000976311
0.000918937
0.000863615
0.000825837
0.000781727
0.000722639
0.000646206
0.000558216
0.000471307
0.000399456
0.000354542
0.000337387
0.00033371
0.000338356
0.000347839
0.00035739
0.000365347
0.000371353
0.000375383
0.000377669
0.000378574
0.000378521
0.000375813
0.000370699
0.000364388
0.000357772
0.000351475
0.000346054
0.00294419
0.00273948
0.00266961
0.00271345
0.00274889
0.00276993
0.00277603
0.00276813
0.00273766
0.00229891
0.00192816
0.00180705
0.00176102
0.00173454
0.00171718
0.00171637
0.00172824
0.00174889
0.00177336
0.00179493
0.00180576
0.00180491
0.00176938
0.00170901
0.00164107
0.00159721
0.00153211
0.00142858
0.00127782
0.00108224
0.000860834
0.00064003
0.000460673
0.000369245
0.000310375
0.000274415
0.000265868
0.000267761
0.000271081
0.000274476
0.00027739
0.000279886
0.000282027
0.000283938
0.000285166
0.000285934
0.000286536
0.000287157
0.000287901
0.000288817
0.00299106
0.00297937
0.00296869
0.0029582
0.00294779
0.00293739
0.00292676
0.0029157
0.00290378
0.00289087
0.00286977
0.00284827
0.00282346
0.00278596
0.0027371
0.00267959
0.00261498
0.00254534
0.00247674
0.00241998
0.00239894
0.00237389
0.00231923
0.0022805
0.00237843
0.00238524
0.0023536
0.00227864
0.00214527
0.0019351
0.00164009
0.00125202
0.000817236
0.000643101
0.000484377
0.000330232
0.000267639
0.00025832
0.000256523
0.000259738
0.000262691
0.0002653
0.00026761
0.000269766
0.000271707
0.000273523
0.000275275
0.000276991
0.000278692
0.000280399
0.00299429
0.00298792
0.00298145
0.00297486
0.00296812
0.00296123
0.00295418
0.00294696
0.0029396
0.00293185
0.00292339
0.00291413
0.00290379
0.00289154
0.00287643
0.00285758
0.00283427
0.00280626
0.00277467
0.00274272
0.00271405
0.00268754
0.0026617
0.00265398
0.00265118
0.00264645
0.00263915
0.00262866
0.00261287
0.0025892
0.0025467
0.00236681
0.00138708
0.00128596
0.0010236
0.000562836
0.000320794
0.000284044
0.000248434
0.000250519
0.000252823
0.000255001
0.000257061
0.000258903
0.00026052
0.000261968
0.000263285
0.00026448
0.000265588
0.000266661
0.00299288
0.00298494
0.00297683
0.00296855
0.00296008
0.00295142
0.00294261
0.00293371
0.00292483
0.00291606
0.00290744
0.00289899
0.00289062
0.00288213
0.0028732
0.00286336
0.00285206
0.00283883
0.00282357
0.00280677
0.00278929
0.00277187
0.00275549
0.0027422
0.00273081
0.00271953
0.0027072
0.00269263
0.00267505
0.0026523
0.00261907
0.00255809
0.00249739
0.00245283
0.00233296
0.00124293
0.000485399
0.000474364
0.000248776
0.000248103
0.000249684
0.00025186
0.000253912
0.000255731
0.000257393
0.000258924
0.000260346
0.000261678
0.000262903
0.000264056
0.002992
0.00298294
0.00297368
0.00296423
0.00295456
0.00294468
0.0029346
0.00292438
0.0029141
0.00290386
0.00289374
0.00288387
0.00287431
0.00286513
0.00285629
0.00284764
0.0028389
0.0028297
0.00281969
0.00280871
0.00279679
0.00278415
0.00277105
0.0027579
0.00274452
0.00273049
0.00271533
0.00269856
0.00267962
0.00265751
0.00262999
0.00259209
0.00254771
0.00249666
0.00240448
0.00215944
0.00205852
0.00138516
0.000267029
0.000258195
0.000255543
0.000258609
0.000261683
0.000264779
0.000267935
0.000271136
0.000274348
0.000277552
0.00028067
0.000283685
0.00299057
0.00297976
0.00296876
0.00295757
0.00294616
0.00293452
0.00292273
0.00291081
0.00289884
0.00288698
0.00287536
0.00286408
0.00285327
0.002843
0.00283336
0.00282432
0.00281577
0.0028075
0.00279917
0.00279046
0.00278109
0.00277092
0.0027599
0.00274805
0.00273532
0.00272162
0.0027067
0.00269024
0.00267188
0.00265094
0.00262609
0.00259494
0.00255705
0.00251018
0.00243672
0.00230074
0.00215491
0.00183889
0.0014399
0.000888756
0.000266155
0.000266147
0.00027172
0.000277375
0.00028309
0.000288843
0.000294509
0.000300083
0.000305504
0.000310702
0.00298858
0.00297517
0.00296159
0.00294791
0.00293405
0.00291998
0.00290577
0.0028915
0.00287729
0.00286328
0.00284971
0.00283674
0.0028245
0.00281313
0.00280273
0.0027933
0.00278472
0.00277683
0.0027693
0.00276184
0.00275405
0.00274562
0.00273635
0.00272609
0.00271476
0.00270227
0.00268851
0.0026732
0.00265605
0.00263649
0.00261356
0.00258562
0.00255146
0.00250852
0.00244554
0.00234413
0.00220996
0.00198319
0.00167555
0.00126675
0.000768048
0.00032921
0.000276461
0.00028468
0.000292816
0.00030058
0.000307791
0.00031445
0.000320589
0.000326116
0.00298537
0.00296753
0.00294988
0.00293231
0.00291465
0.00289694
0.00287923
0.00286164
0.00284437
0.00282772
0.00281184
0.00279702
0.00278342
0.00277122
0.00276051
0.00275132
0.0027435
0.00273671
0.00273058
0.00272476
0.0027188
0.00271233
0.00270501
0.00269662
0.00268707
0.00267623
0.002664
0.00265012
0.00263432
0.00261613
0.00259474
0.00256887
0.00253719
0.00249709
0.00244028
0.00235441
0.00223359
0.00204655
0.00178823
0.00144401
0.00102753
0.00061396
0.000372961
0.000290746
0.00029405
0.000303005
0.00031085
0.00031745
0.0003229
0.000327093
0.0029795
0.00295271
0.00292768
0.00290371
0.00288015
0.00285689
0.00283417
0.00281205
0.00279095
0.00277114
0.00275314
0.00273725
0.00272365
0.00271242
0.00270336
0.00269617
0.00269073
0.00268669
0.00268339
0.00268035
0.00267713
0.00267322
0.00266828
0.00266208
0.00265454
0.0026455
0.00263485
0.00262247
0.00260804
0.00259107
0.0025709
0.00254644
0.00251643
0.00247827
0.00242522
0.0023476
0.00223683
0.00207251
0.00184606
0.00154794
0.00119157
0.000826937
0.000544479
0.000380977
0.000318914
0.000304635
0.000306642
0.000311895
0.000316599
0.000320037
0.0029637
0.00291137
0.00287544
0.00284339
0.00281159
0.00278096
0.00275235
0.00272534
0.00270163
0.00268153
0.00266483
0.00265217
0.00264287
0.00263633
0.00263248
0.00263081
0.00263033
0.00263084
0.00263167
0.00263234
0.00263233
0.00263123
0.00262874
0.00262458
0.00261879
0.00261131
0.00260214
0.00259105
0.00257775
0.00256172
0.0025424
0.00251889
0.00248997
0.00245308
0.00240222
0.00232928
0.00222551
0.00207615
0.0018731
0.00161124
0.0013035
0.000986516
0.000714259
0.000519431
0.000404236
0.000346446
0.000322015
0.000313924
0.000312631
0.000313721
0.0028761
0.002817
0.00277209
0.00272976
0.00269009
0.00265468
0.00262462
0.00260016
0.00258165
0.00256896
0.00256117
0.00255753
0.00255681
0.00255854
0.00256205
0.00256678
0.00257184
0.00257695
0.00258149
0.00258543
0.00258799
0.00258883
0.00258801
0.00258531
0.00258082
0.00257444
0.00256622
0.00255597
0.00254334
0.00252791
0.00250908
0.00248618
0.00245775
0.00242144
0.00237172
0.00230141
0.00220257
0.00206412
0.00188003
0.0016488
0.00138286
0.00110992
0.00086453
0.000669696
0.000531042
0.00044045
0.00038507
0.000352926
0.000335009
0.000325418
0.00272375
0.00266503
0.00261643
0.00257427
0.00253949
0.0025127
0.00249378
0.00248182
0.00247587
0.0024748
0.00247725
0.00248235
0.00248916
0.00249702
0.00250539
0.00251386
0.00252199
0.00252945
0.00253581
0.00254093
0.00254439
0.00254602
0.00254578
0.00254365
0.00253967
0.00253389
0.00252608
0.00251619
0.00250389
0.00248895
0.0024707
0.00244851
0.00241911
0.00238274
0.00233322
0.00226431
0.00216917
0.00203966
0.00187233
0.00166865
0.00144024
0.00120807
0.000994864
0.00081568
0.00067527
0.000570527
0.000494887
0.000441353
0.00040391
0.000377903
0.00255002
0.00250731
0.00247343
0.00244783
0.00243014
0.00241942
0.00241444
0.00241397
0.00241686
0.00242214
0.00242906
0.00243705
0.00244568
0.00245456
0.00246338
0.00247185
0.00247967
0.00248662
0.00249236
0.0024967
0.00249946
0.00250052
0.0024998
0.00249735
0.00249312
0.00248699
0.00247884
0.00246871
0.00245629
0.00244129
0.00242314
0.00240098
0.00237246
0.00233736
0.00228742
0.00221709
0.00212517
0.0020042
0.0018531
0.00167548
0.00148184
0.00128771
0.00110792
0.000951838
0.000822569
0.000718605
0.00063632
0.000571654
0.000520896
0.000480947
0.00242162
0.00240129
0.00238685
0.00237783
0.00237336
0.00237243
0.00237417
0.00237783
0.00238281
0.00238869
0.00239517
0.00240207
0.00240909
0.00241609
0.00242286
0.00242918
0.00243482
0.00243962
0.00244339
0.00244596
0.00244717
0.00244687
0.00244504
0.00244154
0.00243638
0.00242941
0.00242059
0.00240979
0.00239676
0.00238121
0.00236246
0.00233972
0.00231162
0.00227699
0.0022295
0.0021644
0.00206963
0.00195791
0.00182368
0.00167178
0.00151117
0.00135279
0.00120601
0.00107623
0.000965075
0.000871558
0.000793436
0.000728175
0.000673382
0.000627008
0.00234609
0.00233962
0.0023356
0.00233376
0.00233364
0.00233484
0.00233702
0.00233995
0.00234342
0.00234733
0.0023515
0.00235585
0.00236024
0.00236455
0.00236864
0.00237234
0.0023755
0.00237795
0.00237947
0.00237996
0.00237933
0.00237739
0.00237406
0.00236926
0.00236293
0.00235494
0.00234514
0.00233342
0.00231949
0.00230298
0.00228339
0.00225997
0.0022316
0.00219682
0.00215204
0.00209419
0.00200896
0.00190005
0.00178412
0.00165834
0.00152953
0.00140487
0.00128981
0.00118713
0.00109741
0.00101983
0.00095286
0.000894788
0.000844001
0.00079907
0.00228255
0.00227992
0.00227789
0.00227646
0.00227558
0.00227524
0.00227538
0.00227596
0.00227693
0.00227822
0.00227978
0.00228151
0.0022833
0.00228507
0.00228666
0.00228793
0.00228872
0.00228888
0.00228828
0.0022868
0.00228432
0.00228073
0.0022759
0.00226974
0.00226213
0.00225298
0.00224216
0.00222941
0.00221452
0.00219715
0.00217688
0.00215312
0.00212502
0.00209139
0.00205037
0.00199998
0.00193241
0.00183128
0.0017328
0.0016336
0.00153549
0.00144244
0.00135719
0.00128085
0.00121341
0.00115411
0.00110184
0.00105547
0.0010139
0.000976056
0.00218387
0.00218037
0.00217687
0.0021735
0.00217041
0.00216764
0.00216524
0.00216324
0.00216162
0.00216035
0.00215936
0.00215856
0.00215787
0.00215717
0.00215633
0.00215524
0.00215378
0.00215181
0.0021492
0.00214584
0.00214161
0.00213641
0.00213015
0.00212271
0.002114
0.00210389
0.00209228
0.00207899
0.00206384
0.00204659
0.00202687
0.00200435
0.00197859
0.00194891
0.00191441
0.00187388
0.00182396
0.00174683
0.00166324
0.00159118
0.0015226
0.00145897
0.00140121
0.00134951
0.00130354
0.00126266
0.00122618
0.00119341
0.00116361
0.00113597
0.0032813
0.00323854
0.00319643
0.00315366
0.00310981
0.00306469
0.00301828
0.00297072
0.00292223
0.00287308
0.00282362
0.00277414
0.00272493
0.00267627
0.00262835
0.00258134
0.00253535
0.00249043
0.00244657
0.00240373
0.00236184
0.00232077
0.00228041
0.00224059
0.00220112
0.0021619
0.00212284
0.00208376
0.00204446
0.00200475
0.00196436
0.001923
0.00188057
0.0018371
0.00179281
0.00174775
0.00170044
0.00164766
0.00158969
0.0015633
0.00154357
0.00152935
0.00152024
0.00151586
0.00151573
0.0015194
0.00152637
0.00153604
0.00154764
0.0015602
2.3838e-05
2.36223e-05
2.3415e-05
2.32205e-05
2.30344e-05
2.28492e-05
2.26637e-05
2.2478e-05
2.22927e-05
2.21082e-05
2.1925e-05
2.17434e-05
2.15638e-05
2.13862e-05
2.12107e-05
2.10377e-05
2.08672e-05
2.06992e-05
2.05338e-05
2.03702e-05
2.01626e-05
1.99579e-05
1.97588e-05
1.95662e-05
1.93783e-05
1.91926e-05
1.90101e-05
1.88321e-05
1.86595e-05
1.84931e-05
1.83331e-05
1.81794e-05
1.80319e-05
1.789e-05
1.77533e-05
1.76214e-05
1.7494e-05
1.73705e-05
1.72508e-05
1.71343e-05
1.7021e-05
1.69093e-05
1.67984e-05
1.66882e-05
1.65792e-05
1.64717e-05
1.63659e-05
1.62603e-05
1.61507e-05
1.60292e-05
2.32375e-05
2.21923e-05
2.12158e-05
2.03027e-05
1.94512e-05
1.86602e-05
1.79241e-05
1.72377e-05
1.65971e-05
1.59986e-05
1.54385e-05
1.49138e-05
1.44212e-05
1.39582e-05
1.35224e-05
1.31117e-05
1.27242e-05
1.23581e-05
1.20117e-05
1.16821e-05
1.14785e-05
1.13313e-05
1.12169e-05
1.11239e-05
1.12328e-05
1.12951e-05
1.13302e-05
1.13491e-05
1.13582e-05
1.13606e-05
1.1358e-05
1.13509e-05
1.13398e-05
1.13249e-05
1.13062e-05
1.12841e-05
1.12585e-05
1.12295e-05
1.11969e-05
1.11605e-05
1.11203e-05
1.10774e-05
1.10326e-05
1.09862e-05
1.09383e-05
1.08894e-05
1.08411e-05
1.07976e-05
1.07643e-05
1.07398e-05
2.32325e-05
2.21763e-05
2.11891e-05
2.02649e-05
1.93988e-05
1.85867e-05
1.78246e-05
1.71088e-05
1.64358e-05
1.58023e-05
1.52056e-05
1.46427e-05
1.41112e-05
1.36088e-05
1.31336e-05
1.26837e-05
1.22573e-05
1.18527e-05
1.14688e-05
1.13813e-05
1.12942e-05
1.1207e-05
1.11202e-05
1.10342e-05
1.09523e-05
1.08731e-05
1.07961e-05
1.07212e-05
1.06484e-05
1.05776e-05
1.05089e-05
1.0442e-05
1.03767e-05
1.03129e-05
1.02502e-05
1.01886e-05
1.01276e-05
1.0067e-05
1.00069e-05
9.94711e-06
9.88732e-06
9.82748e-06
9.76776e-06
9.70841e-06
9.64933e-06
9.58932e-06
9.52625e-06
9.45951e-06
9.39581e-06
9.35368e-06
2.32341e-05
2.21838e-05
2.12041e-05
2.02878e-05
1.94288e-05
1.86222e-05
1.7864e-05
1.71507e-05
1.64789e-05
1.58456e-05
1.52479e-05
1.46833e-05
1.41494e-05
1.36441e-05
1.31657e-05
1.27122e-05
1.2282e-05
1.18731e-05
1.14849e-05
1.13918e-05
1.13e-05
1.12088e-05
1.11183e-05
1.10285e-05
1.09395e-05
1.08512e-05
1.07638e-05
1.06773e-05
1.0592e-05
1.0508e-05
1.04255e-05
1.03444e-05
1.02647e-05
1.01865e-05
1.01094e-05
1.00336e-05
9.95875e-06
9.88476e-06
9.81146e-06
9.73868e-06
9.66623e-06
9.59403e-06
9.52227e-06
9.45156e-06
9.38288e-06
9.31692e-06
9.25228e-06
9.1843e-06
9.10984e-06
9.04574e-06
2.3235e-05
2.21852e-05
2.12041e-05
2.0286e-05
1.94253e-05
1.86172e-05
1.7858e-05
1.71438e-05
1.64715e-05
1.58379e-05
1.52402e-05
1.46757e-05
1.41423e-05
1.36376e-05
1.31598e-05
1.2707e-05
1.22773e-05
1.18689e-05
1.1481e-05
1.13884e-05
1.12969e-05
1.1206e-05
1.11155e-05
1.10257e-05
1.09362e-05
1.08472e-05
1.07588e-05
1.06712e-05
1.05846e-05
1.04993e-05
1.04154e-05
1.03329e-05
1.02518e-05
1.0172e-05
1.00932e-05
1.00155e-05
9.93861e-06
9.86239e-06
9.78672e-06
9.71148e-06
9.63655e-06
9.56186e-06
9.48729e-06
9.41279e-06
9.33885e-06
9.267e-06
9.1991e-06
9.13356e-06
9.06293e-06
8.99434e-06
2.32349e-05
2.21861e-05
2.12058e-05
2.02886e-05
1.94292e-05
1.86228e-05
1.78652e-05
1.71526e-05
1.64815e-05
1.58491e-05
1.52522e-05
1.46886e-05
1.41557e-05
1.36515e-05
1.3174e-05
1.27212e-05
1.22914e-05
1.18827e-05
1.14944e-05
1.14009e-05
1.13084e-05
1.12161e-05
1.11238e-05
1.10315e-05
1.09394e-05
1.08476e-05
1.07565e-05
1.06666e-05
1.05781e-05
1.04914e-05
1.04065e-05
1.03234e-05
1.02418e-05
1.01617e-05
1.00829e-05
1.0005e-05
9.92793e-06
9.85149e-06
9.77552e-06
9.69993e-06
9.62473e-06
9.55007e-06
9.47608e-06
9.40258e-06
9.32905e-06
9.25555e-06
9.18412e-06
9.11688e-06
9.0488e-06
8.98072e-06
2.32346e-05
2.21857e-05
2.12057e-05
2.02887e-05
1.94294e-05
1.8623e-05
1.78653e-05
1.71524e-05
1.64811e-05
1.58482e-05
1.5251e-05
1.4687e-05
1.41538e-05
1.36493e-05
1.31714e-05
1.27184e-05
1.22882e-05
1.18793e-05
1.1491e-05
1.13982e-05
1.13069e-05
1.12162e-05
1.11261e-05
1.10363e-05
1.09468e-05
1.08576e-05
1.0769e-05
1.06811e-05
1.05942e-05
1.05084e-05
1.04237e-05
1.03402e-05
1.02577e-05
1.01763e-05
1.00957e-05
1.0016e-05
9.93695e-06
9.85853e-06
9.78063e-06
9.70318e-06
9.62616e-06
9.54972e-06
9.47424e-06
9.40006e-06
9.32694e-06
9.25396e-06
9.18132e-06
9.11166e-06
9.04333e-06
8.97547e-06
2.32344e-05
2.21852e-05
2.12053e-05
2.02888e-05
1.94301e-05
1.86243e-05
1.78671e-05
1.71547e-05
1.64838e-05
1.58513e-05
1.52544e-05
1.46906e-05
1.41576e-05
1.36531e-05
1.31752e-05
1.27221e-05
1.22919e-05
1.18831e-05
1.1495e-05
1.14023e-05
1.1311e-05
1.12204e-05
1.11304e-05
1.10409e-05
1.09518e-05
1.08631e-05
1.0775e-05
1.06877e-05
1.06012e-05
1.05157e-05
1.0431e-05
1.03472e-05
1.02642e-05
1.01822e-05
1.01009e-05
1.00204e-05
9.94048e-06
9.86114e-06
9.78239e-06
9.70424e-06
9.62669e-06
9.54968e-06
9.47335e-06
9.39815e-06
9.32453e-06
9.25205e-06
9.17982e-06
9.10922e-06
9.04022e-06
8.9722e-06
2.32343e-05
2.21848e-05
2.12051e-05
2.02889e-05
1.94305e-05
1.86249e-05
1.78678e-05
1.71555e-05
1.64845e-05
1.58519e-05
1.52548e-05
1.46908e-05
1.41574e-05
1.36525e-05
1.31743e-05
1.2721e-05
1.22907e-05
1.18819e-05
1.14938e-05
1.14013e-05
1.13103e-05
1.12198e-05
1.11299e-05
1.10405e-05
1.09516e-05
1.08631e-05
1.07754e-05
1.06883e-05
1.06019e-05
1.05163e-05
1.04315e-05
1.03475e-05
1.02644e-05
1.01821e-05
1.01007e-05
1.00199e-05
9.93962e-06
9.85984e-06
9.78063e-06
9.70216e-06
9.62454e-06
9.5477e-06
9.47149e-06
9.39598e-06
9.32174e-06
9.24908e-06
9.17727e-06
9.1066e-06
9.03728e-06
8.96904e-06
2.32343e-05
2.21849e-05
2.12054e-05
2.02893e-05
1.94311e-05
1.86255e-05
1.78685e-05
1.71562e-05
1.64852e-05
1.58526e-05
1.52555e-05
1.46914e-05
1.41579e-05
1.3653e-05
1.31749e-05
1.27216e-05
1.22915e-05
1.18828e-05
1.14949e-05
1.14024e-05
1.13112e-05
1.12206e-05
1.11307e-05
1.10412e-05
1.09523e-05
1.08639e-05
1.07761e-05
1.06888e-05
1.06022e-05
1.05163e-05
1.04311e-05
1.03469e-05
1.02637e-05
1.01813e-05
1.00998e-05
1.00188e-05
9.93833e-06
9.85831e-06
9.7789e-06
9.70028e-06
9.62259e-06
9.54587e-06
9.46993e-06
9.3946e-06
9.32011e-06
9.24707e-06
9.17527e-06
9.10462e-06
9.03514e-06
8.96664e-06
2.32343e-05
2.21852e-05
2.12058e-05
2.02899e-05
1.94316e-05
1.8626e-05
1.78689e-05
1.71565e-05
1.64855e-05
1.58528e-05
1.52556e-05
1.46914e-05
1.4158e-05
1.36531e-05
1.31751e-05
1.2722e-05
1.22919e-05
1.18833e-05
1.14952e-05
1.14025e-05
1.13112e-05
1.12205e-05
1.11305e-05
1.1041e-05
1.09519e-05
1.08632e-05
1.07749e-05
1.06871e-05
1.05999e-05
1.05134e-05
1.04279e-05
1.03434e-05
1.02599e-05
1.01774e-05
1.00956e-05
1.00144e-05
9.93373e-06
9.85368e-06
9.77442e-06
9.69606e-06
9.61866e-06
9.54219e-06
9.46659e-06
9.39169e-06
9.31751e-06
9.24453e-06
9.17286e-06
9.10239e-06
9.03296e-06
8.96433e-06
2.32344e-05
2.21856e-05
2.12063e-05
2.02903e-05
1.94318e-05
1.86261e-05
1.78689e-05
1.71564e-05
1.64853e-05
1.58525e-05
1.52553e-05
1.46911e-05
1.41576e-05
1.3653e-05
1.3175e-05
1.2722e-05
1.22918e-05
1.18829e-05
1.14946e-05
1.14017e-05
1.13103e-05
1.12197e-05
1.11298e-05
1.10404e-05
1.09514e-05
1.08626e-05
1.07742e-05
1.06863e-05
1.05989e-05
1.05123e-05
1.04267e-05
1.0342e-05
1.02582e-05
1.01752e-05
1.00928e-05
1.0011e-05
9.92985e-06
9.84947e-06
9.77009e-06
9.69177e-06
9.61443e-06
9.53799e-06
9.46242e-06
9.38772e-06
9.31389e-06
9.24118e-06
9.16973e-06
9.09944e-06
9.03007e-06
8.96132e-06
2.32345e-05
2.21858e-05
2.12064e-05
2.02902e-05
1.94316e-05
1.86258e-05
1.78686e-05
1.71561e-05
1.64851e-05
1.58524e-05
1.52554e-05
1.46915e-05
1.41584e-05
1.36541e-05
1.31765e-05
1.27235e-05
1.22933e-05
1.18842e-05
1.14957e-05
1.14026e-05
1.13111e-05
1.12205e-05
1.11306e-05
1.10411e-05
1.0952e-05
1.08632e-05
1.07747e-05
1.06867e-05
1.05994e-05
1.05128e-05
1.04269e-05
1.03419e-05
1.02575e-05
1.01738e-05
1.00907e-05
1.00083e-05
9.9266e-06
9.84587e-06
9.76622e-06
9.68769e-06
9.61022e-06
9.53368e-06
9.45807e-06
9.38349e-06
9.30997e-06
9.23761e-06
9.16643e-06
9.09627e-06
9.02689e-06
8.95798e-06
2.32346e-05
2.21857e-05
2.1206e-05
2.02895e-05
1.94306e-05
1.86246e-05
1.7867e-05
1.71542e-05
1.64828e-05
1.58499e-05
1.52527e-05
1.46887e-05
1.41556e-05
1.36511e-05
1.31732e-05
1.27199e-05
1.22893e-05
1.18799e-05
1.14912e-05
1.13983e-05
1.13071e-05
1.12168e-05
1.11271e-05
1.10379e-05
1.09491e-05
1.08605e-05
1.07724e-05
1.06848e-05
1.05977e-05
1.05113e-05
1.04254e-05
1.034e-05
1.02552e-05
1.0171e-05
1.00876e-05
1.0005e-05
9.9232e-06
9.84236e-06
9.76253e-06
9.68378e-06
9.60615e-06
9.5296e-06
9.45413e-06
9.37982e-06
9.3067e-06
9.23476e-06
9.1639e-06
9.09392e-06
9.02458e-06
8.9556e-06
2.32345e-05
2.21853e-05
2.12053e-05
2.02886e-05
1.94299e-05
1.8624e-05
1.78668e-05
1.71544e-05
1.64835e-05
1.58511e-05
1.52544e-05
1.4691e-05
1.41582e-05
1.3654e-05
1.31762e-05
1.27227e-05
1.22921e-05
1.18826e-05
1.14939e-05
1.14007e-05
1.13093e-05
1.12186e-05
1.11287e-05
1.10394e-05
1.09505e-05
1.08621e-05
1.07742e-05
1.06868e-05
1.06e-05
1.05136e-05
1.04277e-05
1.03423e-05
1.02574e-05
1.01733e-05
1.00899e-05
1.00074e-05
9.92558e-06
9.8446e-06
9.7645e-06
9.68542e-06
9.60752e-06
9.53088e-06
9.45551e-06
9.38141e-06
9.30855e-06
9.23687e-06
9.16621e-06
9.09641e-06
9.02724e-06
8.95847e-06
2.32344e-05
2.21844e-05
2.12032e-05
2.02852e-05
1.9425e-05
1.86177e-05
1.7859e-05
1.71452e-05
1.64732e-05
1.58398e-05
1.52424e-05
1.46783e-05
1.4145e-05
1.36402e-05
1.3162e-05
1.27084e-05
1.22777e-05
1.18685e-05
1.14801e-05
1.13877e-05
1.12969e-05
1.12071e-05
1.1118e-05
1.10297e-05
1.0942e-05
1.0855e-05
1.07686e-05
1.06828e-05
1.05976e-05
1.05129e-05
1.04286e-05
1.03448e-05
1.02616e-05
1.0179e-05
1.0097e-05
1.00155e-05
9.93445e-06
9.85393e-06
9.77412e-06
9.6953e-06
9.61772e-06
9.54151e-06
9.46669e-06
9.39323e-06
9.32109e-06
9.25025e-06
9.18061e-06
9.11207e-06
9.04448e-06
8.9777e-06
2.32343e-05
2.2184e-05
2.12032e-05
2.02865e-05
1.94278e-05
1.8622e-05
1.78646e-05
1.71519e-05
1.64807e-05
1.58478e-05
1.52506e-05
1.46862e-05
1.41524e-05
1.3647e-05
1.31682e-05
1.27141e-05
1.2283e-05
1.18733e-05
1.14844e-05
1.13914e-05
1.13001e-05
1.12099e-05
1.11206e-05
1.10321e-05
1.09445e-05
1.08576e-05
1.07714e-05
1.06861e-05
1.06017e-05
1.05181e-05
1.04354e-05
1.03535e-05
1.02724e-05
1.01922e-05
1.01127e-05
1.00337e-05
9.9553e-06
9.87761e-06
9.80091e-06
9.72554e-06
9.65176e-06
9.57968e-06
9.50934e-06
9.44074e-06
9.37395e-06
9.30905e-06
9.24609e-06
9.18507e-06
9.126e-06
9.06898e-06
2.32342e-05
2.21765e-05
2.11875e-05
2.02633e-05
1.93984e-05
1.8588e-05
1.78276e-05
1.71133e-05
1.64415e-05
1.5809e-05
1.52127e-05
1.46498e-05
1.4118e-05
1.36151e-05
1.31393e-05
1.26886e-05
1.2261e-05
1.1855e-05
1.147e-05
1.13818e-05
1.12945e-05
1.12091e-05
1.11242e-05
1.104e-05
1.09578e-05
1.08785e-05
1.08019e-05
1.07277e-05
1.06557e-05
1.05857e-05
1.05176e-05
1.04512e-05
1.03863e-05
1.03226e-05
1.026e-05
1.01981e-05
1.0137e-05
1.00767e-05
1.00175e-05
9.95982e-06
9.90373e-06
9.84943e-06
9.79703e-06
9.7467e-06
9.6987e-06
9.65328e-06
9.61067e-06
9.57106e-06
9.53482e-06
9.50268e-06
2.32372e-05
2.21884e-05
2.12138e-05
2.03052e-05
1.94581e-05
1.86713e-05
1.79388e-05
1.72555e-05
1.66171e-05
1.60195e-05
1.54592e-05
1.49331e-05
1.44386e-05
1.39735e-05
1.35354e-05
1.31224e-05
1.27322e-05
1.23632e-05
1.20141e-05
1.16837e-05
1.15825e-05
1.15417e-05
1.1493e-05
1.14362e-05
1.14008e-05
1.13818e-05
1.13731e-05
1.13696e-05
1.13681e-05
1.13665e-05
1.13636e-05
1.13587e-05
1.13514e-05
1.13415e-05
1.13287e-05
1.13129e-05
1.12943e-05
1.12732e-05
1.125e-05
1.12254e-05
1.11997e-05
1.11734e-05
1.11469e-05
1.11209e-05
1.10958e-05
1.10723e-05
1.10509e-05
1.1032e-05
1.10167e-05
1.10075e-05
2.38368e-05
2.36233e-05
2.3419e-05
2.32232e-05
2.30341e-05
2.28461e-05
2.26589e-05
2.24725e-05
2.22871e-05
2.21029e-05
2.19201e-05
2.17392e-05
2.15604e-05
2.1384e-05
2.12099e-05
2.1038e-05
2.08681e-05
2.07003e-05
2.05348e-05
2.03715e-05
2.02069e-05
1.99969e-05
1.97992e-05
1.96096e-05
1.94141e-05
1.92201e-05
1.90311e-05
1.88484e-05
1.86719e-05
1.85012e-05
1.83359e-05
1.81756e-05
1.802e-05
1.7869e-05
1.77223e-05
1.75799e-05
1.74415e-05
1.73071e-05
1.71764e-05
1.70492e-05
1.6925e-05
1.68035e-05
1.66842e-05
1.65669e-05
1.64512e-05
1.63366e-05
1.62222e-05
1.61072e-05
1.59909e-05
1.58723e-05
0.000219043
5.26195e-05
4.68433e-05
3.8857e-05
2.78994e-05
1.88809e-05
1.32022e-05
1.12465e-05
1.00722e-05
9.15636e-06
8.74855e-06
9.73192e-06
1.09623e-05
1.2805e-05
1.57819e-05
1.92288e-05
2.28859e-05
2.67694e-05
3.33445e-05
0.000160503
0.000214048
5.20813e-05
4.69048e-05
3.88472e-05
2.78112e-05
1.87734e-05
1.31192e-05
1.11981e-05
1.00315e-05
9.09247e-06
8.55292e-06
9.69202e-06
1.09358e-05
1.276e-05
1.57672e-05
1.92407e-05
2.28991e-05
2.67663e-05
3.34762e-05
0.000165573
0.000209112
5.15938e-05
4.69742e-05
3.8844e-05
2.77351e-05
1.8679e-05
1.30487e-05
1.11514e-05
9.99426e-06
9.03049e-06
8.52938e-06
9.63234e-06
1.08856e-05
1.2664e-05
1.56723e-05
1.91514e-05
2.28068e-05
2.66641e-05
3.35078e-05
0.000170111
0.000204261
5.11505e-05
4.70496e-05
3.88463e-05
2.767e-05
1.85969e-05
1.29896e-05
1.1111e-05
9.96465e-06
8.98691e-06
8.53986e-06
9.56631e-06
1.08385e-05
1.2574e-05
1.55829e-05
1.90664e-05
2.27179e-05
2.65648e-05
3.35484e-05
0.000174736
0.000199479
5.07523e-05
4.71308e-05
3.88545e-05
2.76157e-05
1.85268e-05
1.29417e-05
1.10764e-05
9.94007e-06
8.94496e-06
8.53228e-06
9.49946e-06
1.07932e-05
1.2489e-05
1.54985e-05
1.89854e-05
2.26321e-05
2.64684e-05
3.3598e-05
0.000179449
0.000194769
5.03969e-05
4.72176e-05
3.88688e-05
2.75724e-05
1.8469e-05
1.29053e-05
1.10489e-05
9.92316e-06
8.91544e-06
8.48138e-06
9.43435e-06
1.07494e-05
1.24083e-05
1.54183e-05
1.89077e-05
2.25489e-05
2.63744e-05
3.36566e-05
0.000184251
0.000190134
5.00816e-05
4.73098e-05
3.88896e-05
2.75404e-05
1.84237e-05
1.28805e-05
1.10279e-05
9.91353e-06
8.90001e-06
8.41846e-06
9.37573e-06
1.07073e-05
1.23312e-05
1.53416e-05
1.88328e-05
2.2468e-05
2.62827e-05
3.37241e-05
0.000189142
0.000185575
4.98042e-05
4.74075e-05
3.89174e-05
2.752e-05
1.83914e-05
1.28674e-05
1.10134e-05
9.91042e-06
8.89657e-06
8.37838e-06
9.32651e-06
1.06674e-05
1.22575e-05
1.52682e-05
1.87604e-05
2.23888e-05
2.61928e-05
3.38002e-05
0.000194121
0.000181094
4.95622e-05
4.75104e-05
3.89525e-05
2.75118e-05
1.83724e-05
1.28659e-05
1.10047e-05
9.91294e-06
8.90213e-06
8.35393e-06
9.28384e-06
1.06293e-05
1.21869e-05
1.51976e-05
1.86899e-05
2.23112e-05
2.61045e-05
3.38849e-05
0.000199185
0.000176692
4.93536e-05
4.76184e-05
3.89951e-05
2.75158e-05
1.83667e-05
1.28756e-05
1.10012e-05
9.91988e-06
8.91358e-06
8.33916e-06
9.24375e-06
1.05928e-05
1.21188e-05
1.51293e-05
1.8621e-05
2.22346e-05
2.60173e-05
3.3978e-05
0.000204335
0.000172368
4.9176e-05
4.77311e-05
3.90455e-05
2.75323e-05
1.83742e-05
1.28959e-05
1.1002e-05
9.93002e-06
8.92778e-06
8.32933e-06
9.20476e-06
1.05573e-05
1.20529e-05
1.5063e-05
1.85533e-05
2.21589e-05
2.59313e-05
3.40797e-05
0.000209568
0.000168123
4.90274e-05
4.78481e-05
3.91035e-05
2.75612e-05
1.83945e-05
1.29259e-05
1.10063e-05
9.94236e-06
8.94259e-06
8.35108e-06
9.16703e-06
1.05225e-05
1.19887e-05
1.49982e-05
1.84865e-05
2.20839e-05
2.58462e-05
3.41899e-05
0.000214884
0.000163956
4.89058e-05
4.7969e-05
3.91693e-05
2.76024e-05
1.84272e-05
1.29646e-05
1.10133e-05
9.95616e-06
8.95632e-06
8.35458e-06
9.1275e-06
1.04882e-05
1.1926e-05
1.49348e-05
1.84205e-05
2.20096e-05
2.57622e-05
3.4309e-05
0.000220285
0.000159867
4.88094e-05
4.80937e-05
3.9244e-05
2.76556e-05
1.84717e-05
1.30093e-05
1.10222e-05
9.97103e-06
8.97025e-06
8.3318e-06
9.08443e-06
1.04541e-05
1.18647e-05
1.48726e-05
1.83554e-05
2.1936e-05
2.56795e-05
3.44376e-05
0.000225771
0.000155854
4.87371e-05
4.8222e-05
3.93319e-05
2.77196e-05
1.85246e-05
1.30569e-05
1.10326e-05
9.98676e-06
8.98537e-06
8.27874e-06
9.03837e-06
1.04203e-05
1.18047e-05
1.48116e-05
1.82911e-05
2.18635e-05
2.55984e-05
3.45762e-05
0.000231345
0.000151918
4.8688e-05
4.83553e-05
3.94325e-05
2.77936e-05
1.85839e-05
1.31066e-05
1.10442e-05
1.00034e-05
9.00315e-06
8.21685e-06
8.99263e-06
1.03872e-05
1.17461e-05
1.4752e-05
1.82281e-05
2.17924e-05
2.55192e-05
3.47256e-05
0.000237012
0.000148059
4.86611e-05
4.84955e-05
3.95437e-05
2.7877e-05
1.8649e-05
1.31584e-05
1.10567e-05
1.0021e-05
9.02446e-06
8.17224e-06
8.94973e-06
1.03547e-05
1.16891e-05
1.46941e-05
1.81667e-05
2.17231e-05
2.54425e-05
3.48864e-05
0.000242776
0.000144277
4.86555e-05
4.86431e-05
3.96649e-05
2.79691e-05
1.87194e-05
1.32122e-05
1.10699e-05
1.00395e-05
9.04962e-06
8.14245e-06
8.91084e-06
1.03232e-05
1.1634e-05
1.46383e-05
1.81072e-05
2.16559e-05
2.53683e-05
3.50595e-05
0.000248641
0.000140571
4.86704e-05
4.87984e-05
3.97959e-05
2.80698e-05
1.87947e-05
1.32678e-05
1.10834e-05
1.00589e-05
9.07869e-06
8.12745e-06
8.87772e-06
1.02936e-05
1.15811e-05
1.4585e-05
1.80503e-05
2.15911e-05
2.5297e-05
3.5246e-05
0.000254611
0.000136943
4.87046e-05
4.89615e-05
3.99367e-05
2.81786e-05
1.88745e-05
1.33253e-05
1.1097e-05
1.0079e-05
9.1107e-06
8.14191e-06
8.85141e-06
1.02668e-05
1.15309e-05
1.45349e-05
1.79961e-05
2.15289e-05
2.52285e-05
3.54637e-05
0.000260671
0.000133391
4.87573e-05
4.91326e-05
4.00872e-05
2.82953e-05
1.89587e-05
1.33843e-05
1.11105e-05
1.00994e-05
9.14394e-06
8.174e-06
8.83036e-06
1.02433e-05
1.14833e-05
1.44883e-05
1.79449e-05
2.14694e-05
2.5163e-05
3.57368e-05
0.000266801
0.000129914
4.88276e-05
4.93117e-05
4.02474e-05
2.842e-05
1.90473e-05
1.34451e-05
1.11235e-05
1.01204e-05
9.1777e-06
8.20061e-06
8.81266e-06
1.0223e-05
1.14384e-05
1.44454e-05
1.78971e-05
2.14128e-05
2.51005e-05
3.60713e-05
0.000272998
0.000126515
4.89119e-05
4.94991e-05
4.04177e-05
2.85529e-05
1.91404e-05
1.35077e-05
1.11361e-05
1.01419e-05
9.21203e-06
8.23423e-06
8.79666e-06
1.02058e-05
1.1396e-05
1.44066e-05
1.78529e-05
2.13592e-05
2.50411e-05
3.64734e-05
0.000279259
0.000123198
4.9003e-05
4.96948e-05
4.05984e-05
2.86942e-05
1.92385e-05
1.35724e-05
1.1149e-05
1.01627e-05
9.24644e-06
8.27449e-06
8.78137e-06
1.01921e-05
1.13565e-05
1.43725e-05
1.78128e-05
2.13089e-05
2.49859e-05
3.69477e-05
0.000285582
0.000119962
4.91008e-05
4.98993e-05
4.07899e-05
2.88447e-05
1.93423e-05
1.36398e-05
1.11627e-05
1.0184e-05
9.27897e-06
8.31041e-06
8.7658e-06
1.01829e-05
1.13201e-05
1.43442e-05
1.77773e-05
2.12639e-05
2.49387e-05
3.74946e-05
0.000291963
0.000116804
4.92049e-05
5.01127e-05
4.09928e-05
2.9005e-05
1.94524e-05
1.37105e-05
1.11775e-05
1.02077e-05
9.31012e-06
8.36569e-06
8.75791e-06
1.01778e-05
1.12901e-05
1.43244e-05
1.77464e-05
2.12226e-05
2.48999e-05
3.81192e-05
0.000298399
0.000113722
4.9315e-05
5.03354e-05
4.12078e-05
2.91761e-05
1.95697e-05
1.37854e-05
1.11938e-05
1.02347e-05
9.34787e-06
8.4287e-06
8.76498e-06
1.01789e-05
1.12708e-05
1.43117e-05