/*--------------------------------*- C++ -*----------------------------------*\
  =========                 |
  \\      /  F ield         | OpenFOAM: The Open Source CFD Toolbox
   \\    /   O peration     | Website:  https://openfoam.org
    \\  /    A nd           | Version:  8
     \\/     M anipulation  |
\*---------------------------------------------------------------------------*/
FoamFile
{
    version     2.0;
    format      ascii;
    class       surfaceScalarField;
    location    "300";
    object      phi;
}
// * * * * * * * * * * * * * * * * * * * * * * * * * * * * * * * * * * * * * //

dimensions      [1 0 -1 0 0 0 0];

internalField   nonuniform List<scalar> 
16360
(
-1.48274
-0.0606287
-1.4551
-0.0276316
-1.43237
-0.0227327
-1.40071
-0.0316665
-1.35643
-0.0442746
-1.29982
-0.0566137
-1.23304
-0.0667681
-1.15901
-0.0740297
-1.08033
-0.0786955
-0.999629
-0.0806887
-0.928757
-0.070844
-0.879161
-0.0496031
-0.849819
-0.029358
-0.835213
-0.0146157
-0.831282
-0.00392405
-0.834471
0.00319554
-0.841647
0.00718628
-0.850215
0.00857436
-0.857445
0.00723007
-0.860096
0.00265758
-0.854849
-0.00524369
-0.839032
-0.0158141
-0.813915
-0.0251217
-0.785624
-0.0282863
-0.757258
-0.0283589
-0.723428
-0.0338343
-0.681743
-0.0416811
-0.632102
-0.0496368
-0.576551
-0.0555518
-0.518539
-0.0580248
-0.461923
-0.0566286
-0.410602
-0.0513221
-0.367348
-0.0432483
-0.331987
-0.0353685
-0.302684
-0.0292999
-0.278892
-0.0237855
-0.260428
-0.0184618
-0.246626
-0.0138077
-0.236774
-0.00984389
-0.230198
-0.00657534
-0.226241
-0.00395431
-0.224331
-0.00192146
-0.223921
-0.00041074
-0.22457
0.000658875
-0.225939
0.00137521
-0.227753
0.00180219
-0.229762
0.00199382
-0.231757
0.00199805
-0.233561
0.00182664
0.00136645
-0.234905
-0.843815
-0.182105
-0.870721
-0.000738532
-0.880696
-0.0127665
-0.873683
-0.0387185
-0.856757
-0.0611628
-0.833897
-0.0795001
-0.809284
-0.0913965
-0.786127
-0.0971906
-0.7645
-0.100289
-0.733003
-0.112229
-0.692327
-0.111575
-0.666137
-0.0758037
-0.664645
-0.0308304
-0.67635
-0.00291057
-0.691314
0.0110283
-0.705675
0.0175475
-0.720082
0.0215984
-0.734492
0.0229934
-0.747095
0.0198059
-0.754976
0.0105343
-0.75503
-0.00517811
-0.743351
-0.0274888
-0.720083
-0.0483958
-0.696032
-0.0523425
-0.678715
-0.045693
-0.653137
-0.0594093
-0.618251
-0.0765559
-0.575376
-0.0925097
-0.52753
-0.103385
-0.478222
-0.107316
-0.429753
-0.105092
-0.384523
-0.0965434
-0.346861
-0.0809041
-0.317493
-0.0647479
-0.292044
-0.0547421
-0.270621
-0.0451989
-0.254445
-0.0346498
-0.242686
-0.0255891
-0.234548
-0.0179767
-0.229345
-0.011776
-0.226439
-0.00686356
-0.225286
-0.00308991
-0.225415
-0.000276818
-0.226488
0.00173366
-0.228217
0.00309939
-0.230346
0.00393278
-0.232663
0.00433033
-0.235026
0.00435747
-0.237305
0.00405078
0.00339924
-0.239403
0.0645749
-0.141143
0.05799
0.00585469
0.0724263
-0.0270016
0.0905487
-0.0569159
0.100575
-0.0712258
0.0997527
-0.0786915
0.0868527
-0.078473
0.0600878
-0.0704444
0.0136177
-0.0538125
-0.0791747
-0.0194209
-0.202661
0.0119717
-0.290558
0.0120688
-0.335473
0.0140996
-0.365308
0.0269233
-0.392425
0.0381399
-0.420343
0.0454593
-0.448568
0.0498136
-0.476856
0.0512774
-0.503997
0.0469474
-0.526491
0.0330502
-0.535088
0.00343059
-0.528526
-0.0340601
-0.514372
-0.0625424
-0.492912
-0.0737732
-0.488194
-0.0504059
-0.474968
-0.072641
-0.454228
-0.0973007
-0.428975
-0.117771
-0.401977
-0.130403
-0.376089
-0.133224
-0.350612
-0.130568
-0.322752
-0.124411
-0.298234
-0.105424
-0.282021
-0.0809421
-0.262967
-0.0737951
-0.243453
-0.0647243
-0.229856
-0.048246
-0.22034
-0.0351265
-0.213956
-0.0243615
-0.210195
-0.0155235
-0.208468
-0.00858629
-0.208254
-0.00330952
-0.209104
0.000583401
-0.21071
0.00334525
-0.212817
0.00518923
-0.215195
0.00630514
-0.217679
0.00683165
-0.220163
0.00686785
-0.222582
0.00648215
0.00570325
-0.22491
1.19452
-0.0335067
1.20036
-7.49683e-05
1.18401
-0.0106653
1.15479
-0.0276669
1.12337
-0.0397841
1.08971
-0.0450301
1.05317
-0.0419081
1.01276
-0.0300591
0.969182
-0.0102564
0.935154
0.0146141
0.910486
0.0366151
0.870821
0.0517325
0.818671
0.0662672
0.762684
0.0829096
0.70129
0.099545
0.633313
0.113439
0.560254
0.122863
0.485058
0.126478
0.409606
0.122389
0.33394
0.108689
0.245113
0.0922183
0.132061
0.0789987
-0.000671299
0.070207
-0.089551
0.0150611
-0.101377
-0.038592
-0.107567
-0.0664391
-0.116107
-0.0887743
-0.128836
-0.10504
-0.145569
-0.113662
-0.166105
-0.112677
-0.188048
-0.108593
-0.207418
-0.105039
-0.216914
-0.0959445
-0.225468
-0.0723793
-0.219009
-0.0802495
-0.203577
-0.0801702
-0.196336
-0.0554743
-0.191051
-0.0403923
-0.187379
-0.0280457
-0.186005
-0.0169069
-0.18624
-0.00836633
-0.187586
-0.00195477
-0.189721
0.00273117
-0.192405
0.00602174
-0.195401
0.00816917
-0.198531
0.00941693
-0.201672
0.00995981
-0.204738
0.00993533
-0.207662
0.00943755
0.00853858
-0.210494
2.05661
0.0446841
2.02284
0.033689
1.98576
0.0264202
1.94498
0.0131084
1.90262
0.00259076
1.85992
-0.00233457
1.81888
-0.000877114
1.78119
0.00764252
1.74749
0.0234463
1.71665
0.0454582
1.68364
0.0696152
1.64284
0.0925444
1.5941
0.114995
1.53927
0.137727
1.4793
0.159514
1.41464
0.178105
1.34628
0.191225
1.2759
0.196859
1.20485
0.19346
1.13232
0.181227
1.06082
0.163726
0.997622
0.142199
0.956054
0.111766
0.900651
0.0704708
0.826076
0.0359905
0.745464
0.0141753
0.655596
0.00107764
0.554832
-0.00430476
0.442644
-0.00147559
0.318957
0.0109997
0.174315
0.0360328
0.0204155
0.0488675
-0.0849104
0.00937052
-0.120994
-0.0362901
-0.140114
-0.0611315
-0.144192
-0.0760958
-0.153631
-0.0460318
-0.154103
-0.0399216
-0.153295
-0.0288454
-0.154894
-0.0153124
-0.157301
-0.0059639
-0.160384
0.00114228
-0.163956
0.00630699
-0.167725
0.00979596
-0.171518
0.0119624
-0.175213
0.013118
-0.178765
0.0135021
-0.182144
0.0133064
-0.185336
0.0126477
0.0116017
-0.188399
1.62809
0.0851343
1.58853
0.0732354
1.55436
0.0605873
1.51881
0.0486553
1.48322
0.0381658
1.44916
0.0317346
1.41737
0.0309178
1.38904
0.035973
1.36616
0.0463204
1.35052
0.0610918
1.34123
0.0789259
1.33516
0.0986136
1.33019
0.119964
1.32518
0.142732
1.31887
0.16583
1.30957
0.1874
1.29559
0.205194
1.27553
0.216922
1.24825
0.220746
1.21333
0.216133
1.17289
0.204168
1.12938
0.18571
1.08043
0.160718
1.01896
0.131941
0.947831
0.107116
0.871586
0.0904156
0.791086
0.0815998
0.706843
0.0799552
0.620136
0.0852313
0.535113
0.0960242
0.464692
0.106443
0.408952
0.104608
0.327991
0.0903358
0.211107
0.0806006
0.0662463
0.083713
-0.0545234
0.044652
-0.10047
-5.81154e-05
-0.106088
-0.0343098
-0.112488
-0.0224603
-0.118411
-0.00936644
-0.123256
-0.00110651
-0.128479
0.00635277
-0.133818
0.0116314
-0.138955
0.0149327
-0.143772
0.0167832
-0.148231
0.0175869
-0.152348
0.0176313
-0.156181
0.0171243
-0.159759
0.0162114
0.0149985
-0.163153
1.42033
0.130231
1.38156
0.112018
1.3459
0.0962465
1.31171
0.0828472
1.27812
0.0717624
1.24563
0.0642331
1.21524
0.061315
1.18795
0.0632593
1.16455
0.0697268
1.14556
0.0800687
1.13106
0.0934209
1.12062
0.109049
1.11397
0.126622
1.11089
0.145818
1.11074
0.165986
1.11216
0.185979
1.11317
0.204189
1.11137
0.218723
1.10435
0.227764
1.0903
0.23019
1.06849
0.225973
1.03841
0.215783
0.998454
0.200682
0.947241
0.183151
0.887062
0.167298
0.821435
0.156044
0.75283
0.150207
0.683146
0.149644
0.614607
0.153778
0.549886
0.160754
0.490425
0.165904
0.431543
0.163485
0.367147
0.154723
0.301594
0.146146
0.247812
0.1375
0.177041
0.115447
0.0757717
0.101208
-0.0203903
0.0618504
-0.0695031
0.0266447
-0.0786049
-0.000263868
-0.0855262
0.00582598
-0.0932618
0.014097
-0.100658
0.0190217
-0.10727
0.0215469
-0.113101
0.0226231
-0.11825
0.0227437
-0.122825
0.0222165
-0.126971
0.0212492
-0.130784
0.0200018
0.0185767
-0.134359
1.1666
0.167965
1.1316
0.147013
1.10005
0.127797
1.07044
0.112456
1.04227
0.0999273
1.01579
0.090723
0.991469
0.0856177
0.969874
0.0848477
0.951441
0.0881744
0.936393
0.0951185
0.924708
0.1051
0.916195
0.117566
0.910722
0.132091
0.908245
0.148295
0.908552
0.165668
0.911051
0.183473
0.91457
0.200674
0.917337
0.215959
0.9172
0.22791
0.912003
0.23539
0.900082
0.2379
0.880251
0.235613
0.851615
0.22933
0.814013
0.220761
0.768922
0.212391
0.718664
0.206299
0.665391
0.203482
0.611013
0.204035
0.557423
0.207366
0.506276
0.211891
0.457661
0.214519
0.409113
0.212033
0.358847
0.204987
0.30878
0.19622
0.261681
0.184596
0.21093
0.166217
0.16497
0.147173
0.108086
0.118728
0.0404633
0.0942695
-0.016786
0.0569913
-0.044041
0.0330537
-0.0557236
0.0257714
-0.0657546
0.0290538
-0.0739044
0.0297092
-0.0807058
0.0294374
-0.086485
0.0284993
-0.0914696
0.0271824
-0.0958768
0.0256474
-0.0998846
0.0240072
0.0223381
-0.103639
0.913572
0.206189
0.881623
0.17895
0.853462
0.155971
0.828094
0.137811
0.805079
0.122931
0.784179
0.111621
0.765369
0.104425
0.748827
0.101378
0.734797
0.102196
0.72345
0.106467
0.714823
0.113725
0.708839
0.123537
0.705412
0.13551
0.70444
0.149268
0.705721
0.164386
0.708851
0.180338
0.713088
0.196435
0.717244
0.211789
0.719775
0.225381
0.718939
0.236215
0.713217
0.24362
0.701452
0.247378
0.682933
0.247851
0.6576
0.246091
0.626329
0.243657
0.590626
0.241996
0.552125
0.241969
0.512408
0.243756
0.472891
0.246882
0.434615
0.250155
0.39759
0.251532
0.36061
0.249021
0.322971
0.242635
0.285587
0.233603
0.249212
0.220952
0.211838
0.203589
0.175447
0.183573
0.13559
0.158584
0.0970169
0.132842
0.0510161
0.10299
0.00914311
0.0749322
-0.0175038
0.0524241
-0.0310714
0.0426219
-0.0402623
0.0389098
-0.0477443
0.0369362
-0.0538563
0.0345909
-0.0589731
0.0322751
-0.0633838
0.0300644
-0.0673392
0.0279716
0.0260341
-0.0710363
0.645349
0.24315
0.618934
0.205374
0.596503
0.178409
0.577155
0.157157
0.560566
0.139524
0.54607
0.126119
0.533334
0.117163
0.522393
0.112326
0.513415
0.111185
0.506537
0.113334
0.501834
0.118431
0.499253
0.126118
0.498711
0.136061
0.500067
0.147925
0.503115
0.161349
0.507522
0.175928
0.512771
0.191179
0.518081
0.206473
0.522427
0.221024
0.524621
0.234008
0.523537
0.244706
0.518237
0.252673
0.50814
0.257942
0.493163
0.261077
0.473793
0.263028
0.450993
0.264789
0.425905
0.267042
0.399672
0.269983
0.373302
0.273266
0.347469
0.275996
0.322242
0.276759
0.297065
0.2742
0.271586
0.268119
0.246159
0.259029
0.22084
0.246276
0.19484
0.229581
0.168668
0.209743
0.141077
0.186173
0.113212
0.160695
0.0830951
0.133117
0.0526028
0.105414
0.0249954
0.0800129
0.00531012
0.0623159
-0.00710882
0.0513235
-0.0151103
0.0449385
-0.0210695
0.0405448
-0.0258593
0.0370468
-0.0298691
0.0340832
-0.033367
0.0314854
0.0292621
-0.0366059
0.36196
0.281759
0.344945
0.222392
0.329984
0.193377
0.318755
0.168376
0.310174
0.148105
0.302978
0.133333
0.29682
0.123316
0.291876
0.117266
0.288368
0.114673
0.2865
0.115214
0.286341
0.118606
0.28784
0.124624
0.290893
0.133012
0.295323
0.143483
0.300913
0.155748
0.307398
0.169455
0.314408
0.184177
0.321442
0.199428
0.327882
0.21459
0.332987
0.228914
0.336015
0.241676
0.336341
0.252346
0.333547
0.260739
0.327523
0.267096
0.318525
0.272008
0.307143
0.276167
0.294116
0.280085
0.280189
0.283908
0.266062
0.287391
0.252205
0.28986
0.238682
0.290287
0.225178
0.287707
0.211414
0.281877
0.197429
0.273014
0.183075
0.260644
0.167962
0.244691
0.152147
0.225542
0.13516
0.203163
0.117253
0.178606
0.0979691
0.152403
0.0776113
0.125769
0.0571664
0.100448
0.0398297
0.0796571
0.0268212
0.0643239
0.0178454
0.0539087
0.011663
0.0467325
0.00717106
0.0415384
0.00366697
0.0375922
0.000742629
0.0344127
0.0318434
-0.00185593
0.062423
0.288755
0.0608026
0.224031
0.059802
0.194387
0.0591244
0.169016
0.0583443
0.148907
0.0579439
0.133754
0.0583814
0.122854
0.0599951
0.115677
0.0628383
0.111836
0.066902
0.111133
0.0721504
0.113373
0.078416
0.118341
0.0855928
0.125805
0.0935576
0.135527
0.102129
0.147195
0.111101
0.160483
0.120284
0.175006
0.129427
0.190294
0.138249
0.205778
0.146375
0.220792
0.153409
0.234644
0.158976
0.246775
0.162794
0.256917
0.164754
0.265139
0.164953
0.271805
0.163742
0.27739
0.161556
0.282272
0.158881
0.286574
0.15619
0.290074
0.153795
0.292265
0.151668
0.292419
0.149511
0.289873
0.147027
0.284364
0.144035
0.275991
0.140322
0.264358
0.135617
0.249393
0.129834
0.231321
0.122713
0.210291
0.114242
0.187072
0.104283
0.162362
0.0929054
0.137151
0.0804348
0.11291
0.0683932
0.0916972
0.0580958
0.0746183
0.0502304
0.0617646
0.0446105
0.0523615
0.0406852
0.0454777
0.0378934
0.0403736
0.0357788
0.0365196
0.0335999
0.0340231
-0.221544
0.250776
-0.208759
0.211239
-0.19762
0.18324
-0.188952
0.160338
-0.181783
0.141729
-0.175084
0.127064
-0.168337
0.116109
-0.161298
0.108623
-0.153846
0.1044
-0.145957
0.103253
-0.13757
0.104978
-0.128654
0.109393
-0.119124
0.116291
-0.108985
0.125408
-0.0982353
0.136462
-0.0869056
0.149155
-0.0750498
0.163142
-0.0627783
0.178002
-0.0502128
0.193216
-0.0376066
0.208173
-0.0252352
0.222256
-0.013388
0.234939
-0.00236212
0.245902
0.00764833
0.255134
0.0165459
0.262897
0.0245127
0.269425
0.0319881
0.274799
0.0394695
0.279082
0.0473594
0.282182
0.0558206
0.283802
0.0646715
0.283577
0.0734035
0.281136
0.0817376
0.276039
0.0892843
0.268447
0.0957294
0.257903
0.100859
0.244259
0.104549
0.22763
0.10662
0.20824
0.106963
0.186732
0.105484
0.163837
0.102179
0.140459
0.0972157
0.117866
0.0913875
0.097522
0.085627
0.0803792
0.0806763
0.0667139
0.0768364
0.0562002
0.074056
0.0482537
0.0721135
0.0423025
0.0707539
0.037882
0.0346383
0.0697246
-0.482516
0.209261
-0.457574
0.186319
-0.439076
0.164736
-0.424637
0.145889
-0.412592
0.129678
-0.401911
0.116396
-0.391948
0.106136
-0.382238
0.0989058
-0.372458
0.0946339
-0.362419
0.0931987
-0.351923
0.0944837
-0.34085
0.0983259
-0.329095
0.104538
-0.31659
0.112896
-0.303274
0.123138
-0.289095
0.134971
-0.274004
0.148052
-0.258
0.161992
-0.241101
0.176318
-0.223422
0.190497
-0.205158
0.203998
-0.186571
0.216356
-0.167933
0.227262
-0.149439
0.236641
-0.131142
0.244613
-0.113011
0.251296
-0.0949463
0.256724
-0.0767793
0.260903
-0.0583434
0.263763
-0.0396139
0.265067
-0.0205683
0.264524
-0.00118966
0.261761
0.0179123
0.256935
0.0355698
0.250793
0.0516189
0.241859
0.0659264
0.229944
0.0783912
0.215154
0.0889037
0.197748
0.097331
0.178319
0.103563
0.157591
0.107576
0.136438
0.109486
0.11595
0.109765
0.0972433
0.109068
0.0810867
0.108007
0.0677768
0.107005
0.0571899
0.106268
0.0489786
0.105832
0.0427378
0.105632
0.0380887
0.0347163
0.105554
-0.707342
0.171373
-0.678903
0.157885
-0.656779
0.142605
-0.638833
0.127953
-0.623823
0.114678
-0.61081
0.103378
-0.599041
0.0943737
-0.587942
0.0878134
-0.577047
0.083731
-0.565968
0.0821106
-0.554377
0.0828849
-0.542011
0.0859593
-0.528647
0.0911788
-0.514117
0.098367
-0.498286
0.107308
-0.481048
0.117735
-0.462307
0.129331
-0.442047
0.141734
-0.420273
0.154538
-0.397071
0.167298
-0.372625
0.179559
-0.347184
0.190921
-0.321016
0.201111
-0.294355
0.209985
-0.267325
0.217566
-0.239935
0.223901
-0.212198
0.228996
-0.184119
0.232828
-0.155715
0.235356
-0.127097
0.236447
-0.0984793
0.2359
-0.0702437
0.233528
-0.0427889
0.229483
-0.0159633
0.223955
0.00954016
0.216359
0.0324284
0.207071
0.0529106
0.194671
0.0710477
0.179615
0.0867447
0.162624
0.0998982
0.144424
0.110477
0.125853
0.118572
0.107856
0.124507
0.0913159
0.12877
0.0768377
0.131861
0.0646807
0.134214
0.0548213
0.136138
0.0470498
0.1378
0.0410784
0.139269
0.0366189
0.0334247
0.140556
-0.900105
0.136536
-0.870963
0.128755
-0.846789
0.118432
-0.826454
0.107624
-0.809133
0.0973516
-0.794048
0.0882951
-0.780511
0.0808482
-0.767929
0.0752285
-0.755757
0.0715556
-0.743526
0.0698768
-0.7308
0.0701726
-0.717231
0.072382
-0.702475
0.0764236
-0.686257
0.0821576
-0.668356
0.089406
-0.648595
0.0979533
-0.626823
0.10755
-0.602976
0.117888
-0.577049
0.128619
-0.549127
0.139376
-0.519379
0.149808
-0.488029
0.159582
-0.455366
0.168438
-0.421624
0.176239
-0.387006
0.182937
-0.351635
0.188544
-0.315667
0.193039
-0.279243
0.196411
-0.2425
0.198621
-0.205632
0.199566
-0.168872
0.199123
-0.132547
0.197217
-0.0970277
0.193982
-0.062593
0.189508
-0.0296625
0.183413
0.00116811
0.17625
0.0291271
0.166712
0.0540855
0.154648
0.0762112
0.140498
0.0954667
0.125162
0.111833
0.109485
0.125389
0.0943093
0.136374
0.080338
0.145178
0.0680346
0.152245
0.0576079
0.157996
0.0490632
0.162774
0.0422678
0.166825
0.0370258
0.170307
0.0331377
0.0304226
0.173312
-1.06707
0.103558
-1.03744
0.0991289
-1.01144
0.0924396
-0.988734
0.0849202
-0.968843
0.0774599
-0.951212
0.0706598
-0.935272
0.0649035
-0.920472
0.0604273
-0.906274
0.0573724
-0.892197
0.0557961
-0.877759
0.0557326
-0.862528
0.0571511
-0.846102
0.0599932
-0.828123
0.0641765
-0.808285
0.0695717
-0.786333
0.0760106
-0.76207
0.0832965
-0.735388
0.0911959
-0.706236
0.0994581
-0.674654
0.107808
-0.640801
0.115955
-0.604884
0.123658
-0.567161
0.130711
-0.527893
0.136982
-0.487337
0.142391
-0.445725
0.146931
-0.403286
0.150606
-0.360259
0.153385
-0.31688
0.155234
-0.273385
0.156076
-0.230065
0.155801
-0.187231
0.154375
-0.14514
0.151897
-0.104059
0.148436
-0.0646237
0.143973
-0.0270152
0.138631
0.0074989
0.132192
0.0386307
0.123509
0.0663831
0.112744
0.0909237
0.100618
0.112305
0.0881055
0.130585
0.076041
0.145949
0.0649792
0.158738
0.0552444
0.169367
0.0469759
0.178251
0.0401723
0.185764
0.0347488
0.192208
0.0305853
0.197798
0.0275547
0.0255457
0.202675
-1.21131
0.0703634
-1.18023
0.0680433
-1.15184
0.0640549
-1.12625
0.0593167
-1.10324
0.0544555
-1.08247
0.0499007
-1.06351
0.045952
-1.04588
0.0427998
-1.02908
0.0405627
-1.0126
0.0393162
-0.995957
0.0390832
-0.978681
0.0398659
-0.960308
0.0416334
-0.940436
0.0443214
-0.918703
0.0478463
-0.894796
0.052103
-0.868468
0.0569639
-0.839549
0.0622757
-0.807951
0.0678636
-0.773685
0.0735419
-0.736848
0.0791275
-0.697626
0.0844421
-0.656254
0.0893476
-0.613019
0.0937369
-0.568178
0.097556
-0.522008
0.100776
-0.474806
0.103395
-0.42684
0.105413
-0.378404
0.106796
-0.329806
0.10748
-0.281375
0.107376
-0.233434
0.106436
-0.186252
0.104709
-0.14011
0.102288
-0.095469
0.0993288
-0.0528167
0.0959766
-0.0123617
0.0917458
0.0250738
0.0860783
0.0575931
0.0802252
0.0865405
0.0716682
0.112159
0.0624848
0.134416
0.0537897
0.15345
0.0459516
0.16958
0.0391167
0.183218
0.0333304
0.194802
0.0285786
0.204743
0.0248103
0.213389
0.0219532
0.221005
0.0199413
0.0187534
0.227784
-1.32944
0.0360602
-1.29634
0.0349461
-1.26533
0.0330455
-1.23675
0.030741
-1.21062
0.0283277
-1.18675
0.0260298
-1.1648
0.0240009
-1.14436
0.0223592
-1.12496
0.0211682
-1.10611
0.0204676
-1.0873
0.02028
-1.06804
0.0206059
-1.04784
0.0214328
-1.02626
0.0227354
-1.00289
0.024474
-0.977369
0.0265912
-0.949422
0.0290243
-0.918841
0.0316963
-0.885494
0.0345218
-0.849353
0.0374009
-0.810482
0.0402492
-0.769023
0.0429797
-0.725192
0.0455199
-0.679257
0.0478035
-0.631496
0.0497881
-0.58219
0.051467
-0.531644
0.0528474
-0.480162
0.0539349
-0.428067
0.0547084
-0.375723
0.055131
-0.323505
0.0551517
-0.271766
0.0547085
-0.220834
0.0537797
-0.170984
0.0524274
-0.122496
0.0508363
-0.075675
0.0491641
-0.0299726
0.0460587
0.013041
0.0430743
0.0498206
0.0434487
0.0825939
0.0388932
0.111815
0.0332601
0.137277
0.0283329
0.159147
0.0240861
0.177799
0.0204576
0.193701
0.0174176
0.207339
0.0149426
0.219166
0.0129996
0.229576
0.0115531
0.238902
0.0106044
0.0102446
0.247396
-1.41474
-1.3798
-1.34675
-1.31601
-1.28768
-1.26166
-1.23765
-1.21529
-1.19412
-1.17364
-1.15336
-1.13275
-1.11132
-1.08859
-1.06412
-1.03753
-1.0085
-0.976804
-0.942296
-0.904897
-0.864651
-0.821663
-0.776139
-0.728343
-0.678559
-0.627084
-0.574233
-0.520308
-0.4656
-0.41046
-0.355311
-0.300604
-0.246823
-0.194395
-0.143555
-0.0943807
-0.0483132
-0.00524104
0.0381969
0.0770856
0.110347
0.138685
0.162768
0.183218
0.200637
0.215592
0.228598
0.240144
0.250738
0.26098
0.00812372
-0.000165637
0.00817797
-5.1145e-05
0.00821649
-3.38958e-05
0.00823139
-1.25546e-05
0.00823132
1.04438e-06
0.00822401
8.13822e-06
0.00821315
1.20932e-05
0.00820017
1.45377e-05
0.00818571
1.60558e-05
0.00817019
1.69531e-05
0.00815394
1.74511e-05
0.00813723
1.77116e-05
0.00812032
1.78449e-05
0.00810338
1.79398e-05
0.00808652
1.80493e-05
0.00806971
1.81843e-05
0.00805282
1.83104e-05
0.00803571
1.84193e-05
0.00801806
1.86832e-05
0.00800015
1.86788e-05
0.00798259
1.81431e-05
0.00796548
1.76439e-05
0.00794876
1.72881e-05
0.00793238
1.69716e-05
0.00791627
1.6644e-05
0.00790046
1.62428e-05
0.00788506
1.57582e-05
0.00787016
1.52201e-05
0.00785579
1.46511e-05
0.00784193
1.4036e-05
0.00782862
1.33479e-05
0.00781597
1.25764e-05
0.00780416
1.17411e-05
0.00779337
1.08562e-05
0.00778372
9.91556e-06
0.0077753
8.8893e-06
0.00776818
7.73857e-06
0.00776242
6.42805e-06
0.00775816
4.89938e-06
0.0077556
3.07947e-06
0.00775509
9.01913e-07
0.00775716
-1.66253e-06
0.00776247
-4.62821e-06
0.00777165
-8.13255e-06
0.00778531
-1.25062e-05
0.00780398
-1.79483e-05
0.00782806
-2.36912e-05
0.00785822
-2.74542e-05
0.00789795
-2.78339e-05
-3.31746e-05
0.0079597
0.00788144
-8.80641e-05
0.00786864
-3.92069e-05
0.00784561
-9.25029e-06
0.00783594
1.21327e-07
0.00783319
6.91256e-06
0.00783331
1.08107e-05
0.0078354
1.25705e-05
0.007839
1.34407e-05
0.00784348
1.3992e-05
0.00784827
1.43636e-05
0.0078531
1.4597e-05
0.00785791
1.47639e-05
0.00786277
1.49401e-05
0.00786773
1.51719e-05
0.00787278
1.54388e-05
0.00787778
1.56535e-05
0.00788263
1.568e-05
0.00788747
1.53404e-05
0.00789284
1.46276e-05
0.00789773
1.48046e-05
0.00790241
1.43996e-05
0.00790679
1.42654e-05
0.00791094
1.41765e-05
0.00791485
1.40148e-05
0.00791858
1.3703e-05
0.0079222
1.32469e-05
0.00792578
1.2677e-05
0.00792937
1.20231e-05
0.00793298
1.13039e-05
0.00793657
1.05258e-05
0.00794021
9.68881e-06
0.00794403
8.79088e-06
0.0079482
7.82177e-06
0.00795287
6.73903e-06
0.00795816
5.46946e-06
0.00796413
3.94007e-06
0.00797086
2.0876e-06
0.00797846
-1.40846e-07
0.00798705
-2.80251e-06
0.00799686
-5.96444e-06
0.00800825
-9.68437e-06
0.00802172
-1.39916e-05
0.00803773
-1.8924e-05
0.00805674
-2.46744e-05
0.00807946
-3.1907e-05
0.0081073
-4.21761e-05
0.008142
-5.78534e-05
0.008183
-8.03009e-05
0.00822286
-0.000106118
-0.00012715
0.00824568
0.00789093
-1.75147e-05
0.00787057
-1.66174e-05
0.00786898
-6.4057e-06
0.00787249
-1.74722e-06
0.00788048
1.08673e-06
0.00789009
3.64009e-06
0.00789963
5.5159e-06
0.00790865
6.81268e-06
0.00791703
7.82625e-06
0.00792471
8.697e-06
0.00793171
9.47172e-06
0.00793813
1.01823e-05
0.00794416
1.08764e-05
0.00794991
1.15575e-05
0.00795537
1.21798e-05
0.00796041
1.26431e-05
0.00796491
1.28515e-05
0.00796873
1.27591e-05
0.00797157
1.27147e-05
0.0079745
1.27084e-05
0.00797706
1.27473e-05
0.00797974
1.26305e-05
0.00798254
1.24085e-05
0.00798535
1.20831e-05
0.00798808
1.15973e-05
0.00799081
1.09358e-05
0.00799366
1.01396e-05
0.00799668
9.25119e-06
0.00799988
8.29542e-06
0.00800327
7.27881e-06
0.00800689
6.19566e-06
0.00801086
5.02592e-06
0.00801532
3.72286e-06
0.00802038
2.20961e-06
0.00802613
3.92287e-07
0.00803264
-1.81245e-06
0.00803996
-4.46547e-06
0.00804814
-7.62146e-06
0.00805727
-1.13392e-05
0.00806755
-1.57003e-05
0.00807939
-2.0815e-05
0.00809327
-2.68262e-05
0.00810952
-3.38816e-05
0.00812811
-4.20117e-05
0.00814884
-5.10483e-05
0.00817226
-6.10856e-05
0.00820105
-7.38728e-05
0.00823946
-9.39102e-05
0.00828513
-0.000125334
-0.000163047
0.00830887
0.00795136
-9.33048e-06
0.00795018
-1.26941e-05
0.00795366
-8.03135e-06
0.00795707
-3.47633e-06
0.00796038
-2.34539e-07
0.00796381
2.52464e-06
0.00796707
4.74142e-06
0.00797002
6.30976e-06
0.00797273
7.40818e-06
0.00797529
8.24883e-06
0.0079778
8.97107e-06
0.00798036
9.6499e-06
0.00798302
1.03067e-05
0.0079858
1.09199e-05
0.00798857
1.14182e-05
0.00799119
1.17224e-05
0.00799354
1.17897e-05
0.00799559
1.16667e-05
0.0079974
1.17333e-05
0.00799898
1.20577e-05
0.00800097
1.18712e-05
0.00800319
1.16223e-05
0.00800545
1.12176e-05
0.00800768
1.06266e-05
0.00800988
9.83451e-06
0.00801221
8.86091e-06
0.0080148
7.77331e-06
0.00801769
6.6287e-06
0.00802086
5.44135e-06
0.00802427
4.19154e-06
0.00802795
2.84275e-06
0.00803198
1.34387e-06
0.00803648
-3.74265e-07
0.00804154
-2.39261e-06
0.00804724
-4.79719e-06
0.00805366
-7.66858e-06
0.00806087
-1.10739e-05
0.00806888
-1.50795e-05
0.0080778
-1.97538e-05
0.0080878
-2.51724e-05
0.00809926
-3.14473e-05
0.00811264
-3.8813e-05
0.00812836
-4.7716e-05
0.00814659
-5.87325e-05
0.00816685
-7.21367e-05
0.00818801
-8.73725e-05
0.00820995
-0.000103566
0.00823724
-0.000122181
0.00827684
-0.000149026
-0.000186991
0.00830444
0.0079523
-3.12923e-06
0.00794622
-4.5245e-06
0.00794291
-2.62403e-06
0.00794165
-1.91579e-07
0.00794217
1.42439e-06
0.00794446
2.64077e-06
0.00794803
3.68641e-06
0.0079523
4.51967e-06
0.00795689
5.16175e-06
0.00796163
5.72205e-06
0.00796646
6.28441e-06
0.00797135
6.88391e-06
0.00797627
7.49851e-06
0.00798114
8.06339e-06
0.00798581
8.50544e-06
0.00799017
8.766e-06
0.00799418
8.83291e-06
0.007998
8.73707e-06
0.00800204
8.66039e-06
0.00800607
9.18719e-06
0.00800998
9.27272e-06
0.00801377
9.09652e-06
0.0080173
8.64989e-06
0.00802055
7.93729e-06
0.00802365
6.99997e-06
0.00802677
5.91687e-06
0.00803006
4.76144e-06
0.00803355
3.56389e-06
0.00803718
2.29993e-06
0.00804094
9.15628e-07
0.00804483
-6.46215e-07
0.00804895
-2.43964e-06
0.00805339
-4.52244e-06
0.00805826
-6.96193e-06
0.00806365
-9.83679e-06
0.00806965
-1.32302e-05
0.00807632
-1.72242e-05
0.00808371
-2.1905e-05
0.00809189
-2.73604e-05
0.00810103
-3.36765e-05
0.00811134
-4.09362e-05
0.00812309
-4.92586e-05
0.00813657
-5.89248e-05
0.00815226
-7.05689e-05
0.00817052
-8.51703e-05
0.00819053
-0.000103374
0.00820987
-0.000124416
0.00822876
-0.000146885
0.00825712
-0.000172946
-0.000207916
0.00828273
0.00795677
-1.30111e-06
0.00795611
-2.09578e-06
0.00795737
-1.69745e-06
0.0079602
-7.04576e-07
0.00796391
1.42243e-07
0.00796818
8.60494e-07
0.00797277
1.59576e-06
0.00797737
2.33354e-06
0.0079818
3.04411e-06
0.00798599
3.73329e-06
0.00798998
4.42792e-06
0.00799383
5.11798e-06
0.00799755
5.7662e-06
0.00800112
6.32294e-06
0.00800443
6.74498e-06
0.00800743
7.02295e-06
0.00801014
7.18478e-06
0.00801264
7.29439e-06
0.0080149
7.60703e-06
0.00801709
8.36357e-06
0.00801943
8.28924e-06
0.0080218
7.87373e-06
0.00802406
7.1302e-06
0.00802624
6.12519e-06
0.00802847
4.96103e-06
0.00803091
3.72892e-06
0.00803365
2.46809e-06
0.00803664
1.15418e-06
0.00803981
-2.79509e-07
0.00804309
-1.90111e-06
0.00804652
-3.75855e-06
0.00805016
-5.88405e-06
0.0080541
-8.31532e-06
0.00805844
-1.11149e-05
0.00806325
-1.43728e-05
0.00806863
-1.81914e-05
0.00807463
-2.26691e-05
0.00808128
-2.78956e-05
0.00808867
-3.39714e-05
0.00809695
-4.10368e-05
0.0081063
-4.92821e-05
0.00811682
-5.88963e-05
0.00812845
-6.99985e-05
0.00814132
-8.27457e-05
0.00815612
-9.77262e-05
0.00817346
-0.00011613
0.00819154
-0.000138709
0.00820706
-0.000164319
0.0082268
-0.000192176
-0.000225691
0.00824722
0.00795771
-4.35867e-08
0.00795777
-1.25408e-07
0.00795843
-5.95463e-10
0.00795981
3.7418e-07
0.00796175
7.12532e-07
0.00796414
9.42043e-07
0.00796695
1.17517e-06
0.00797008
1.47963e-06
0.00797343
1.8636e-06
0.00797693
2.31679e-06
0.00798055
2.81629e-06
0.00798427
3.32939e-06
0.00798808
3.8162e-06
0.00799187
4.24493e-06
0.00799555
4.60112e-06
0.00799907
4.88423e-06
0.00800244
5.0977e-06
0.00800583
5.22677e-06
0.00800949
5.35123e-06
0.00801326
5.99369e-06
0.00801688
5.89124e-06
0.0080203
5.36259e-06
0.00802345
4.51202e-06
0.00802641
3.45594e-06
0.00802935
2.29781e-06
0.0080324
1.09457e-06
0.00803562
-1.66677e-07
0.00803893
-1.55144e-06
0.00804228
-3.13164e-06
0.00804565
-4.95034e-06
0.00804908
-7.01855e-06
0.00805266
-9.34155e-06
0.00805643
-1.19571e-05
0.00806048
-1.49493e-05
0.00806488
-1.84401e-05
0.00806972
-2.2556e-05
0.00807506
-2.73977e-05
0.00808093
-3.30341e-05
0.00808736
-3.95294e-05
0.00809448
-4.70087e-05
0.00810245
-5.57287e-05
0.00811146
-6.6061e-05
0.0081214
-7.83223e-05
0.00813199
-9.25726e-05
0.00814331
-0.00010878
0.00815642
-0.00012749
0.00817143
-0.000149943
0.00818468
-0.000176403
0.0081988
-0.000205676
-0.000238967
0.00821367
0.00795835
8.11531e-07
0.00795948
1.20471e-06
0.00796093
1.10443e-06
0.00796294
8.742e-07
0.00796553
5.5012e-07
0.00796861
1.97195e-07
0.00797206
-7.11245e-08
0.0079758
-1.56089e-07
0.0079797
-3.67814e-08
0.00798368
2.55253e-07
0.00798769
6.65356e-07
0.00799171
1.13801e-06
0.00799571
1.63327e-06
0.00799963
2.12588e-06
0.00800337
2.59751e-06
0.00800689
3.02428e-06
0.00801019
3.37017e-06
0.00801332
3.59922e-06
0.00801625
3.84361e-06
0.00801901
4.48169e-06
0.00802169
4.20247e-06
0.00802423
3.52809e-06
0.00802661
2.5866e-06
0.00802892
1.49871e-06
0.0080313
3.343e-07
0.00803382
-9.02019e-07
0.00803647
-2.26067e-06
0.00803919
-3.80619e-06
0.00804196
-5.57628e-06
0.00804478
-7.56922e-06
0.0080477
-9.76985e-06
0.00805077
-1.21925e-05
0.008054
-1.49077e-05
0.00805742
-1.80384e-05
0.00806109
-2.17283e-05
0.00806512
-2.61045e-05
0.0080696
-3.12547e-05
0.00807457
-3.72366e-05
0.00808
-4.41083e-05
0.00808586
-5.19738e-05
0.00809222
-6.1044e-05
0.0080993
-7.16877e-05
0.00810728
-8.43724e-05
0.00811596
-9.94106e-05
0.00812485
-0.000116735
0.00813431
-0.000136255
0.00814543
-0.000158666
0.00815601
-0.000184892
0.0081663
-0.00021449
-0.00024768
0.00817662
0.00795871
1.43127e-06
0.00796038
2.22249e-06
0.0079621
1.99911e-06
0.00796401
1.36093e-06
0.00796627
5.43258e-07
0.00796886
-2.62803e-07
0.00797174
-9.06474e-07
0.00797483
-1.29784e-06
0.00797808
-1.41702e-06
0.00798145
-1.2981e-06
0.00798491
-9.98681e-07
0.00798847
-5.73179e-07
0.00799213
-6.33193e-08
0.00799582
4.89869e-07
0.00799942
1.03228e-06
0.00800287
1.49214e-06
0.00800615
1.79375e-06
0.00800935
1.87805e-06
0.0080126
1.8534e-06
0.00801584
2.27904e-06
0.00801896
1.90377e-06
0.00802193
1.19771e-06
0.00802474
2.88598e-07
0.00802744
-7.4211e-07
0.00803012
-1.87842e-06
0.00803283
-3.14725e-06
0.00803556
-4.58999e-06
0.00803829
-6.22927e-06
0.00804102
-8.05766e-06
0.0080438
-1.00547e-05
0.00804664
-1.2226e-05
0.00804955
-1.46329e-05
0.00805247
-1.73915e-05
0.00805543
-2.06417e-05
0.0080585
-2.45069e-05
0.00806182
-2.90687e-05
0.00806553
-3.43783e-05
0.00806966
-4.04936e-05
0.00807413
-4.75213e-05
0.00807881
-5.56273e-05
0.00808361
-6.50159e-05
0.00808866
-7.59399e-05
0.00809429
-8.87551e-05
0.00810069
-0.000103875
0.0081074
-0.000121505
0.00811399
-0.000141514
0.00812135
-0.000164048
0.00812862
-0.000189895
0.00813541
-0.000219224
-0.000252123
0.0081418
0.00795897
1.84114e-06
0.00796092
2.87825e-06
0.00796285
2.53659e-06
0.00796485
1.56398e-06
0.00796714
3.22973e-07
0.00796975
-8.89225e-07
0.00797267
-1.87985e-06
0.00797583