/*--------------------------------*- C++ -*----------------------------------*\
  =========                 |
  \\      /  F ield         | OpenFOAM: The Open Source CFD Toolbox
   \\    /   O peration     | Website:  https://openfoam.org
    \\  /    A nd           | Version:  8
     \\/     M anipulation  |
\*---------------------------------------------------------------------------*/
FoamFile
{
    version     2.0;
    format      ascii;
    class       volScalarField;
    location    "300";
    object      T;
}
// * * * * * * * * * * * * * * * * * * * * * * * * * * * * * * * * * * * * * //

dimensions      [0 0 0 1 0 0 0];

internalField   nonuniform List<scalar> 
8400
(
296.015
296.019
296.064
296.141
296.232
296.322
296.4
296.459
296.492
296.491
296.453
296.374
296.267
296.155
296.06
295.997
295.971
295.973
295.985
295.995
295.994
295.967
295.903
295.806
295.696
295.593
295.497
295.402
295.299
295.185
295.058
294.925
294.797
294.683
294.58
294.489
294.411
294.347
294.297
294.26
294.235
294.22
294.214
294.213
294.214
294.217
294.222
294.229
294.238
294.248
297.958
297.946
298.031
298.161
298.288
298.396
298.474
298.518
298.525
298.487
298.39
298.238
298.052
297.866
297.723
297.652
297.64
297.663
297.702
297.738
297.752
297.733
297.653
297.514
297.358
297.228
297.114
296.999
296.87
296.722
296.559
296.388
296.227
296.089
295.966
295.853
295.755
295.678
295.621
295.583
295.562
295.556
295.563
295.578
295.598
295.623
295.651
295.681
295.713
295.744
299.854
299.722
299.769
299.845
299.882
299.9
299.908
299.91
299.909
299.905
299.677
299.369
299.165
299.007
298.905
298.851
298.85
298.894
298.962
299.023
299.049
299.043
298.973
298.834
298.645
298.495
298.367
298.233
298.071
297.877
297.666
297.451
297.266
297.133
297.016
296.903
296.809
296.741
296.694
296.67
296.666
296.679
296.705
296.739
296.782
296.83
296.882
296.936
296.99
297.043
300.001
300
300
299.999
299.999
299.997
299.996
299.994
299.993
299.991
299.989
299.986
299.98
299.969
299.95
299.917
299.87
299.813
299.754
299.712
299.718
299.729
299.738
299.703
299.64
299.547
299.451
299.331
299.163
298.932
298.647
298.314
298.063
297.941
297.815
297.687
297.597
297.541
297.502
297.489
297.498
297.525
297.564
297.612
297.668
297.729
297.793
297.857
297.92
297.981
300.003
300.003
300.003
300.004
300.004
300.005
300.005
300.005
300.005
300.006
300.006
300.007
300.007
300.007
300.006
300.003
299.997
299.986
299.971
299.955
299.942
299.931
299.925
299.925
299.922
299.915
299.904
299.889
299.868
299.829
299.714
299.245
298.725
298.697
298.503
298.273
298.204
298.167
298.132
298.127
298.144
298.178
298.219
298.272
298.333
298.396
298.461
298.524
298.585
298.641
300.001
300.001
300.001
300.001
300.001
300.001
300.001
300.001
300.001
300.001
300.001
300.002
300.002
300.003
300.004
300.004
300.003
300.002
299.998
299.993
299.987
299.981
299.975
299.969
299.963
299.956
299.947
299.935
299.92
299.896
299.849
299.781
299.76
299.693
299.403
298.69
298.655
298.617
298.579
298.587
298.61
298.642
298.685
298.738
298.795
298.853
298.91
298.964
299.013
299.058
300.001
300.001
300.001
300.001
300.001
300.002
300.002
300.001
300.001
300.001
300.001
300.002
300.002
300.002
300.003
300.003
300.003
300.003
300.002
300
299.997
299.993
299.989
299.984
299.978
299.971
299.962
299.951
299.938
299.922
299.897
299.864
299.825
299.749
299.591
299.425
299.317
298.939
298.844
298.868
298.89
298.923
298.968
299.018
299.069
299.117
299.161
299.201
299.235
299.264
300
300
300.001
300.001
300.001
300.001
300.001
300.001
300.001
300.001
300.001
300.002
300.002
300.002
300.002
300.002
300.002
300.002
300.002
300.001
300
299.997
299.994
299.99
299.985
299.978
299.97
299.961
299.95
299.936
299.917
299.891
299.852
299.782
299.667
299.532
299.386
299.207
299.092
299.011
299.023
299.065
299.113
299.159
299.202
299.238
299.268
299.293
299.312
299.327
300
300
300
300
300.001
300.001
300.001
300.001
300.001
300.001
300.001
300.001
300.001
300.002
300.002
300.002
300.002
300.002
300.002
300.001
300
299.999
299.996
299.993
299.988
299.982
299.975
299.967
299.956
299.943
299.926
299.901
299.862
299.798
299.699
299.574
299.431
299.277
299.148
299.063
299.052
299.122
299.176
299.221
299.256
299.283
299.302
299.315
299.323
299.326
300
300
300
300
300
300
300.001
300.001
300.001
300.001
300.001
300.001
300.001
300.001
300.002
300.002
300.002
300.002
300.002
300.001
300.001
299.999
299.997
299.994
299.99
299.984
299.978
299.97
299.96
299.947
299.929
299.904
299.863
299.8
299.707
299.589
299.452
299.309
299.183
299.096
299.072
299.111
299.179
299.241
299.275
299.298
299.312
299.319
299.321
299.321
300
300
300
300
300
300
300
300.001
300.001
300.001
300.001
300.001
300.001
300.001
300.001
300.001
300.002
300.002
300.001
300.001
300
299.999
299.997
299.994
299.99
299.985
299.979
299.971
299.961
299.947
299.928
299.9
299.856
299.791
299.7
299.585
299.455
299.321
299.204
299.122
299.092
299.113
299.166
299.224
299.267
299.295
299.311
299.319
299.321
299.32
300
300
300
300
300
300
300
300.001
300.001
300.001
300.001
300.001
300.001
300.001
300.001
300.001
300.001
300.001
300.001
300.001
300
299.999
299.996
299.993
299.989
299.984
299.978
299.97
299.959
299.944
299.922
299.89
299.842
299.773
299.68
299.568
299.443
299.32
299.214
299.141
299.111
299.121
299.158
299.206
299.248
299.28
299.301
299.313
299.319
299.321
300
300
300
300
300.001
300.001
300.001
300.001
300.001
300.001
300.001
300.001
300.001
300.001
300.001
300.001
300.001
300.001
300.001
300
299.999
299.997
299.995
299.992
299.988
299.982
299.975
299.966
299.954
299.937
299.911
299.874
299.819
299.745
299.65
299.539
299.421
299.309
299.216
299.153
299.126
299.13
299.157
299.193
299.23
299.261
299.285
299.302
299.314
299.321
300.001
300.001
300.001
300.001
300.001
300.001
300.001
300.001
300.001
300.001
300.001
300.001
300.001
300
300
300
299.999
299.999
299.998
299.997
299.995
299.993
299.99
299.986
299.981
299.975
299.967
299.956
299.941
299.921
299.892
299.849
299.787
299.706
299.609
299.501
299.391
299.292
299.212
299.159
299.136
299.138
299.158
299.186
299.216
299.244
299.269
299.29
299.306
299.32
300.002
300.001
300.001
300.001
300.001
300
300
300
300
299.999
299.999
299.998
299.998
299.997
299.996
299.996
299.994
299.993
299.991
299.989
299.986
299.983
299.978
299.973
299.965
299.956
299.944
299.929
299.909
299.882
299.847
299.799
299.736
299.658
299.559
299.455
299.356
299.269
299.203
299.161
299.142
299.143
299.158
299.179
299.204
299.23
299.254
299.277
299.297
299.316
299.998
299.997
299.996
299.995
299.994
299.993
299.992
299.991
299.989
299.988
299.987
299.986
299.985
299.983
299.981
299.979
299.977
299.974
299.971
299.966
299.961
299.955
299.947
299.937
299.925
299.91
299.892
299.87
299.843
299.809
299.768
299.717
299.656
299.585
299.5
299.406
299.317
299.244
299.191
299.158
299.144
299.144
299.155
299.172
299.193
299.215
299.238
299.262
299.285
299.307
299.969
299.965
299.962
299.958
299.955
299.951
299.948
299.945
299.942
299.939
299.937
299.934
299.932
299.929
299.927
299.923
299.919
299.915
299.909
299.901
299.893
299.882
299.869
299.854
299.836
299.816
299.791
299.763
299.731
299.694
299.652
299.604
299.551
299.491
299.425
299.354
299.278
299.218
299.177
299.152
299.141
299.141
299.148
299.162
299.178
299.197
299.218
299.24
299.263
299.287
299.86
299.851
299.842
299.833
299.824
299.817
299.81
299.804
299.799
299.795
299.791
299.789
299.786
299.784
299.781
299.778
299.774
299.769
299.762
299.754
299.744
299.731
299.716
299.699
299.679
299.656
299.631
299.603
299.573
299.54
299.505
299.468
299.428
299.386
299.341
299.294
299.243
299.193
299.161
299.142
299.133
299.132
299.136
299.145
299.156
299.171
299.187
299.206
299.226
299.248
299.607
299.589
299.573
299.558
299.545
299.533
299.523
299.515
299.51
299.506
299.504
299.503
299.503
299.504
299.506
299.507
299.507
299.507
299.505
299.502
299.497
299.489
299.48
299.468
299.455
299.439
299.422
299.404
299.384
299.364
299.343
299.322
299.301
299.278
299.256
299.232
299.205
299.169
299.145
299.129
299.12
299.115
299.115
299.117
299.123
299.131
299.141
299.154
299.169
299.187
299.229
299.206
299.185
299.167
299.151
299.138
299.128
299.121
299.117
299.116
299.117
299.12
299.125
299.132
299.14
299.148
299.157
299.166
299.173
299.18
299.186
299.191
299.194
299.195
299.195
299.194
299.192
299.19
299.187
299.184
299.18
299.177
299.174
299.171
299.167
299.162
299.156
299.141
299.12
299.104
299.091
299.08
299.072
299.066
299.062
299.062
299.065
299.072
299.083
299.098
303.147
303.142
303.137
303.132
303.127
303.123
303.118
303.113
303.109
303.104
303.1
303.095
303.091
303.086
303.082
303.077
303.073
303.069
303.064
303.06
303.056
303.053
303.049
303.045
303.042
303.038
303.035
303.031
303.028
303.025
303.022
303.018
303.015
303.012
303.009
303.006
303.003
303
302.997
302.994
302.991
302.989
302.986
302.983
302.981
302.978
302.976
302.974
302.972
302.971
303.15
303.15
303.15
303.15
303.15
303.149
303.149
303.149
303.148
303.148
303.148
303.147
303.147
303.146
303.146
303.145
303.145
303.144
303.143
303.143
303.142
303.141
303.14
303.139
303.138
303.136
303.135
303.134
303.133
303.131
303.13
303.129
303.128
303.126
303.125
303.124
303.123
303.121
303.12
303.119
303.118
303.117
303.116
303.115
303.114
303.113
303.112
303.111
303.11
303.109
303.15
303.15
303.15
303.15
303.15
303.15
303.15
303.15
303.15
303.15
303.15
303.15
303.15
303.15
303.15
303.15
303.15
303.15
303.15
303.15
303.149
303.149
303.149
303.149
303.149
303.149
303.148
303.148
303.148
303.148
303.147
303.147
303.147
303.146
303.146
303.146
303.145
303.145
303.145
303.144
303.144
303.143
303.143
303.143
303.142
303.142
303.142
303.141
303.141
303.141
303.15
303.15
303.15
303.15
303.15
303.15
303.15
303.15
303.15
303.15
303.15
303.15
303.15
303.15
303.15
303.15
303.15
303.15
303.15
303.15
303.15
303.15
303.15
303.15
303.15
303.15
303.15
303.15
303.15
303.15
303.15
303.15
303.15
303.15
303.149
303.149
303.149
303.149
303.149
303.149
303.149
303.149
303.149
303.149
303.149
303.149
303.149
303.149
303.148
303.148
303.15
303.15
303.15
303.15
303.15
303.15
303.15
303.15
303.15
303.15
303.15
303.15
303.15
303.15
303.15
303.15
303.15
303.15
303.15
303.15
303.15
303.15
303.15
303.15
303.15
303.15
303.15
303.15
303.15
303.15
303.15
303.15
303.15
303.15
303.15
303.15
303.15
303.15
303.15
303.15
303.15
303.15
303.15
303.15
303.15
303.15
303.15
303.15
303.15
303.15
303.15
303.15
303.15
303.15
303.15
303.15
303.15
303.15
303.15
303.15
303.15
303.15
303.15
303.15
303.15
303.15
303.15
303.15
303.15
303.15
303.15
303.15
303.15
303.15
303.15
303.15
303.15
303.15
303.15
303.15
303.15
303.15
303.15
303.15
303.15
303.15
303.15
303.15
303.15
303.15
303.15
303.15
303.15
303.15
303.15
303.15
303.15
303.15
303.15
303.15
303.15
303.15
303.15
303.15
303.15
303.15
303.15
303.15
303.15
303.15
303.15
303.15
303.15
303.15
303.15
303.15
303.15
303.15
303.15
303.15
303.15
303.15
303.15
303.15
303.15
303.15
303.15
303.15
303.15
303.15
303.15
303.15
303.15
303.15
303.15
303.15
303.15
303.15
303.15
303.15
303.15
303.15
303.15
303.15
303.15
303.15
303.15
303.15
303.15
303.15
303.15
303.15
303.15
303.15
303.15
303.15
303.15
303.15
303.15
303.15
303.15
303.15
303.15
303.15
303.15
303.15
303.15
303.15
303.15
303.15
303.15
303.15
303.15
303.15
303.15
303.15
303.15
303.15
303.15
303.15
303.15
303.15
303.15
303.15
303.15
303.15
303.15
303.15
303.15
303.15
303.15
303.15
303.15
303.15
303.15
303.15
303.15
303.15
303.15
303.15
303.15
303.15
303.15
303.15
303.15
303.15
303.15
303.15
303.15
303.15
303.15
303.15
303.15
303.15
303.15
303.15
303.15
303.15
303.15
303.15
303.15
303.15
303.15
303.15
303.15
303.15
303.15
303.15
303.15
303.15
303.15
303.15
303.15
303.15
303.15
303.15
303.15
303.15
303.15
303.15
303.15
303.15
303.15
303.15
303.15
303.15
303.15
303.15
303.15
303.15
303.15
303.15
303.15
303.15
303.15
303.15
303.15
303.15
303.15
303.15
303.15
303.15
303.15
303.15
303.15
303.15
303.15
303.15
303.15
303.15
303.15
303.15
303.15
303.15
303.15
303.15
303.15
303.15
303.15
303.15
303.15
303.15
303.15
303.15
303.15
303.15
303.15
303.15
303.15
303.15
303.15
303.15
303.15
303.15
303.15
303.15
303.15
303.15
303.15
303.15
303.15
303.15
303.15
303.15
303.15
303.15
303.15
303.15
303.15
303.15
303.15
303.15
303.15
303.15
303.15
303.15
303.15
303.15
303.15
303.15
303.15
303.15
303.15
303.15
303.15
303.15
303.15
303.15
303.15
303.15
303.15
303.15
303.15
303.15
303.15
303.15
303.15
303.15
303.15
303.15
303.15
303.15
303.15
303.15
303.15
303.15
303.15
303.15
303.15
303.15
303.15
303.15
303.15
303.15
303.15
303.15
303.15
303.15
303.15
303.15
303.15
303.15
303.15
303.15
303.15
303.15
303.15
303.15
303.15
303.15
303.15
303.15
303.15
303.15
303.15
303.15
303.15
303.15
303.15
303.15
303.15
303.15
303.15
303.15
303.15
303.15
303.15
303.15
303.15
303.15
303.15
303.15
303.15
303.15
303.15
303.15
303.15
303.15
303.15
303.15
303.15
303.15
303.15
303.15
303.15
303.15
303.15
303.15
303.15
303.15
303.15
303.15
303.15
303.15
303.15
303.15
303.15
303.15
303.15
303.15
303.15
303.15
303.15
303.15
303.15
303.15
303.15
303.15
303.15
303.15
303.15
303.15
303.15
303.15
303.15
303.15
303.15
303.15
303.15
303.15
303.15
303.15
303.15
303.15
303.15
303.15
303.15
303.15
303.15
303.15
303.15
303.15
303.15
303.15
303.15
303.15
303.15
303.15
303.15
303.15
303.15
303.15
303.15
303.15
303.15
303.15
303.15
303.15
303.15
303.15
303.15
303.15
303.15
303.15
303.15
303.15
303.15
303.15
303.15
303.15
303.15
303.15
303.15
303.15
303.15
303.15
303.15
303.15
303.15
303.15
303.15
303.15
303.15
303.15
303.15
303.15
303.15
303.15
303.15
303.15
303.15
303.15
303.15
303.15
303.15
303.15
303.15
303.15
303.15
303.15
303.15
303.15
303.15
303.15
303.15
303.15
303.15
303.15
303.15
303.15
303.15
303.15
303.15
303.15
303.15
303.15
303.15
303.15
303.15
303.15
303.15
303.15
303.15
303.15
303.15
303.15
303.15
303.15
303.15
303.15
303.15
303.15
303.15
303.15
303.15
303.15
303.15
303.15
303.15
303.15
303.15
303.15
303.15
303.15
303.15
303.15
303.15
303.15
303.15
303.15
303.15
303.15
303.15
303.15
303.15
303.15
303.15
303.15
303.15
303.15
303.15
303.15
303.15
303.15
303.15
303.15
303.15
303.15
303.15
303.15
303.15
303.15
303.15
303.15
303.15
303.15
303.15
303.15
303.15
303.15
303.15
303.15
303.15
303.15
303.15
303.15
303.15
303.15
303.15
303.149
303.15
303.15
303.15
303.15
303.15
303.15
303.15
303.15
303.15
303.15
303.15
303.15
303.15
303.15
303.15
303.15
303.15
303.15
303.15
303.15
303.15
303.15
303.15
303.15
303.15
303.15
303.15
303.15
303.15
303.15
303.15
303.15
303.15
303.15
303.149
303.149
303.149
303.149
303.149
303.149
303.149
303.149
303.149
303.148
303.148
303.148
303.148
303.148
303.147
303.147
303.15
303.15
303.15
303.15
303.15
303.15
303.15
303.15
303.15
303.15
303.15
303.15
303.15
303.15
303.15
303.15
303.15
303.15
303.15
303.15
303.149
303.149
303.149
303.149
303.149
303.149
303.148
303.148
303.148
303.147
303.147
303.147
303.146
303.146
303.146
303.145
303.145
303.144
303.144
303.143
303.143
303.142
303.142
303.141
303.141
303.14
303.139
303.138
303.137
303.136
303.15
303.15
303.15
303.15
303.15
303.149
303.149
303.149
303.148
303.148
303.148
303.147
303.147
303.146
303.146
303.145
303.145
303.144
303.143
303.143
303.142
303.141
303.14
303.139
303.138
303.136
303.135
303.134
303.133
303.131
303.13
303.129
303.127
303.126
303.125
303.123
303.122
303.12
303.119
303.118
303.116
303.114
303.113
303.111
303.11
303.108
303.106
303.104
303.102
303.1
303.147
303.142
303.137
303.132
303.127
303.123
303.118
303.113
303.109
303.104
303.1
303.095
303.091
303.086
303.082
303.077
303.073
303.069
303.064
303.06
303.056
303.052
303.049
303.045
303.042
303.038
303.035
303.031
303.028
303.025
303.022
303.019
303.015
303.012
303.009
303.006
303.003
303
302.997
302.994
302.991
302.988
302.985
302.983
302.98
302.977
302.974
302.971
302.969
302.966
300.73
297.795
295.223
293.849
293.304
293.149
293.111
293.097
293.092
293.092
293.094
293.106
293.113
293.11
293.102
293.094
293.088
293.078
293.064
293
300.719
297.759
295.187
293.825
293.293
293.145
293.109
293.096
293.091
293.091
293.094
293.105
293.112
293.108
293.097
293.088
293.08
293.07
293.057
292.994
300.707
297.723
295.151
293.802
293.283
293.141
293.108
293.095
293.09
293.091
293.093
293.105
293.111
293.106
293.095
293.084
293.076
293.066
293.053
292.99
300.693
297.685
295.117
293.781
293.274
293.138
293.106
293.094
293.089
293.091
293.093
293.104
293.11
293.104
293.092
293.081
293.071
293.061
293.049
292.987
300.678
297.647
295.084
293.762
293.266
293.135
293.105
293.092
293.088
293.09
293.093
293.104
293.109
293.103
293.09
293.077
293.067
293.057
293.045
292.984
300.662
297.609
295.052
293.743
293.259
293.133
293.104
293.091
293.087
293.09
293.092
293.103
293.108
293.101
293.087
293.074
293.063
293.053
293.042
292.981
300.645
297.57
295.02
293.726
293.252
293.131
293.102
293.09
293.087
293.09
293.092
293.103
293.108
293.1
293.085
293.071
293.059
293.049
293.039
292.978
300.626
297.531
294.99
293.71
293.246
293.129
293.101
293.089
293.086
293.09
293.092
293.103
293.107
293.098
293.082
293.068
293.055
293.045
293.036
292.975
300.607
297.491
294.96
293.694
293.241
293.127
293.1
293.088
293.085
293.09
293.092
293.102
293.106
293.097
293.08
293.064
293.052
293.042
293.034
292.973
300.586
297.452
294.93
293.679
293.235
293.125
293.099
293.087
293.085
293.09
293.092
293.102
293.105
293.096
293.078
293.061
293.048
293.039
293.031
292.971
300.565
297.411
294.901
293.664
293.231
293.123
293.098
293.086
293.084
293.09
293.092
293.102
293.105
293.094
293.076
293.058
293.045
293.036
293.029
292.968
300.543
297.37
294.872
293.65
293.226
293.122
293.097
293.085
293.084
293.09
293.092
293.101
293.104
293.093
293.074
293.056
293.042
293.033
293.028
292.966
300.52
297.329
294.843
293.637
293.222
293.12
293.096
293.084
293.083
293.09
293.092
293.101
293.104
293.092
293.072
293.053
293.039
293.03
293.026
292.965
300.496
297.287
294.815
293.623
293.218
293.119
293.095
293.084
293.083
293.09
293.093
293.101
293.103
293.09
293.07
293.05
293.036
293.028
293.024
292.963
300.471
297.245
294.787
293.611
293.214
293.117
293.093
293.083
293.082
293.09
293.093
293.101
293.102
293.089
293.068
293.048
293.033
293.026
293.023
292.961
300.445
297.202
294.759
293.599
293.21
293.116
293.092
293.082
293.082
293.09
293.093
293.1
293.102
293.088
293.066
293.045
293.031
293.024
293.022
292.96
300.418
297.158
294.732
293.587
293.207
293.115
293.091
293.081
293.081
293.09
293.093
293.1
293.101
293.087
293.064
293.043
293.028
293.022
293.021
292.958
300.391
297.115
294.705
293.576
293.203
293.113
293.09
293.08
293.081
293.09
293.094
293.1
293.101
293.086
293.062
293.04
293.026
293.021
293.02
292.957
300.363
297.072
294.678
293.565
293.2
293.112
293.089
293.079
293.081
293.09
293.095
293.1
293.1
293.085
293.06
293.038
293.024
293.019
293.02
292.956
300.334
297.03
294.652
293.554
293.196
293.111
293.088
293.079
293.08
293.091
293.095
293.1
293.1
293.084
293.058
293.036
293.022
293.018
293.019
292.955
300.305
296.989
294.626
293.543
293.193
293.109
293.087
293.078
293.08
293.091
293.096
293.1
293.099
293.083
293.057
293.034
293.02
293.017
293.019
292.954
300.275
296.948
294.6
293.533
293.19
293.108
293.086
293.077
293.08
293.091
293.097
293.1
293.099
293.081
293.055
293.032
293.019
293.016
293.018
292.953
300.244
296.908
294.575
293.522
293.187
293.107
293.085
293.076
293.079
293.091
293.098
293.1
293.098
293.08
293.053
293.03
293.017
293.015
293.018
292.953
300.214
296.869
294.551
293.513
293.184
293.106
293.084
293.075
293.079
293.091
293.098
293.1
293.098
293.079
293.051
293.028
293.016
293.014
293.018
292.952
300.184
296.831
294.527
293.503
293.181
293.104
293.083
293.075
293.079
293.091
293.098
293.1
293.098
293.078
293.05
293.026
293.014
293.014
293.018
292.951
300.155
296.793
294.504
293.494
293.178
293.103
293.082
293.074
293.078
293.09
293.098
293.1
293.097
293.077
293.048
293.025
293.013
293.013
293.019
292.951
300.127
296.757
294.482
293.486
293.175
293.102
293.081
293.073
293.078
293.09
293.098
293.1
293.096
293.075
293.046
293.023
293.012
293.013
293.019
292.95
300.099
296.722
294.461
293.477
293.173
293.101
293.08
293.072
293.077
293.09
293.098
293.1
293.095
293.074
293.044
293.021
293.011
293.013
293.019
292.95
300.072
296.688
294.441
293.47
293.17
293.1
293.079
293.071
293.077
293.089
293.098
293.1
293.094
293.072
293.043
293.02
293.01
293.013
293.02
292.95
300.046
296.656
294.422
293.462
293.168
293.099
293.078
293.071
293.076
293.089
293.097
293.099
293.093
293.071
293.041
293.019
293.01
293.013
293.02
292.95
300.021
296.625
294.404
293.456
293.166
293.097
293.077
293.07
293.075
293.088
293.097
293.099
293.092
293.069
293.039
293.017
293.009
293.013
293.021
292.949
299.997
296.596
294.388
293.449
293.164
293.096
293.077
293.069
293.074
293.088
293.096
293.098
293.091
293.068
293.038
293.016
293.009
293.013
293.021
292.949
299.975
296.568
294.372
293.443
293.162
293.095
293.076
293.068
293.073
293.087
293.095
293.097
293.089
293.066
293.036
293.015
293.008
293.014
293.022
292.949
299.954
296.543
294.358
293.438
293.16
293.094
293.075
293.067
293.073
293.086
293.094
293.096
293.088
293.064
293.035
293.014
293.008
293.014
293.023
292.949
299.934
296.52
294.345
293.433
293.159
293.093
293.074
293.066
293.072
293.085
293.093
293.095
293.086
293.063
293.033
293.013
293.008
293.015
293.024
292.949
299.916
296.498
294.333
293.429
293.157
293.093
293.073
293.065
293.07
293.084
293.092
293.093
293.085
293.061
293.032
293.013
293.008
293.016
293.025
292.949
299.9
296.478
294.323
293.425
293.156
293.092
293.072
293.064
293.069
293.083
293.091
293.092
293.083
293.06
293.031
293.012
293.008
293.016
293.026
292.95
299.885
296.461
294.314
293.422
293.154
293.091
293.071
293.064
293.068
293.081
293.09
293.091
293.082
293.058
293.03
293.012
293.008
293.017
293.027
292.95
299.872
296.446
294.306
293.419
293.153
293.09
293.071
293.063
293.067
293.08
293.089
293.09
293.08
293.057
293.029
293.011
293.009
293.018
293.028
292.95
299.861
296.432
294.299
293.417
293.152
293.089
293.07
293.062
293.066
293.079
293.087
293.088
293.079
293.055
293.028
293.011
293.009
293.019
293.029
292.95
299.851
296.421
294.294
293.415
293.152
293.088
293.069
293.061
293.064
293.077
293.086
293.087
293.077
293.054
293.027
293.011
293.01
293.02
293.03
292.95
299.844
296.412
294.289
293.414
293.151
293.088
293.068
293.06
293.063
293.075
293.085
293.085
293.075
293.053
293.026
293.011
293.01
293.021
293.031
292.95
299.838
296.404
294.287
293.413
293.15
293.087
293.068
293.059
293.062
293.073
293.083
293.084
293.074
293.051
293.025
293.01
293.011
293.023
293.033
292.951
299.833
296.399
294.285
293.412
293.15
293.087
293.067
293.058
293.06
293.072
293.081
293.082
293.072
293.05
293.025
293.011
293.012
293.024
293.034
292.951
299.831
296.397
294.285
293.412
293.149
293.086
293.066
293.057
293.059
293.07
293.079
293.08
293.07
293.049
293.024
293.011
293.012
293.025
293.035
292.951
299.83
296.396
294.286
293.413
293.149
293.085
293.066
293.056
293.057
293.067
293.077
293.078
293.069
293.047
293.023
293.011
293.013
293.027
293.036
292.951
299.832
296.398
294.288
293.414
293.149
293.085
293.065
293.055
293.056
293.065
293.075
293.076
293.067
293.046
293.023
293.011
293.014
293.028
293.037
292.951
299.835
296.402
294.292
293.416
293.149
293.085
293.065
293.055
293.054
293.063
293.072
293.074
293.064
293.044
293.022
293.012
293.016
293.03
293.039
292.952
299.841
296.408
294.297
293.418
293.15
293.084
293.064
293.054
293.052
293.06
293.069
293.071
293.062
293.042
293.022
293.012
293.017
293.031
293.04
292.952
299.849
296.418
294.305
293.421
293.15
293.084
293.064
293.053
293.051
293.057
293.066
293.068
293.059
293.041
293.021
293.013
293.018
293.033
293.041
292.952
299.859
296.43
294.314
293.425
293.151
293.084
293.063
293.053
293.049
293.055
293.063
293.065
293.056
293.039
293.021
293.014
293.02
293.035
293.042
292.952
299.872
296.445
294.325
293.43
293.152
293.084
293.063
293.052
293.048
293.052
293.059
293.061
293.053
293.037
293.021
293.015
293.021
293.036
293.043
292.952
299.888
296.465
294.338
293.436
293.154
293.084
293.063
293.052
293.047
293.049
293.055
293.058
293.05
293.035
293.021
293.016
293.023
293.038
293.043
292.952
299.907
296.488
294.354
293.443
293.156
293.084
293.063
293.051
293.045
293.047
293.052
293.054
293.047
293.034
293.021
293.017
293.025
293.04
293.044
292.952
299.93
296.516
294.373
293.451
293.158
293.085
293.063
293.051
293.044
293.044
293.048
293.05
293.044
293.032
293.021
293.019
293.027
293.042
293.044
292.952
299.958
296.549
294.396
293.462
293.161
293.085
293.064
293.051
293.044
293.042
293.045
293.046
293.041
293.031
293.021
293.02
293.029
293.043
293.045
292.951
299.99
296.588
294.423
293.474
293.165
293.086
293.064
293.052
293.043
293.04
293.042
293.042
293.038
293.03
293.022
293.022
293.032
293.045
293.045
292.951
300.027
296.634
294.455
293.488
293.169
293.087
293.065
293.052
293.043
293.039
293.039
293.039
293.036
293.029
293.023
293.024
293.034
293.047
293.045
292.951
300.07
296.689
294.492
293.505
293.175
293.089
293.066
293.053
293.044
293.038
293.037
293.037
293.034
293.029
293.025
293.027
293.036
293.049
293.044
292.95
300.121
296.752
294.537
293.526
293.181
293.091
293.067
293.054
293.044
293.038
293.036
293.035
293.033
293.029
293.026
293.029
293.039
293.05
293.044
292.95
300.179
296.827
294.589
293.55
293.189
293.093
293.068
293.055
293.045
293.039
293.035
293.034
293.032
293.029
293.028
293.032
293.042
293.051
293.043
292.949
300.246
296.914
294.651
293.58
293.199
293.095
293.069
293.057
293.047
293.04
293.035
293.034
293.033
293.031
293.031
293.035
293.044
293.053
293.042
292.948
300.322
297.015
294.725
293.616
293.212
293.099
293.071
293.059
293.049
293.041
293.036
293.034
293.033
293.032
293.033
293.038
293.047
293.054
293.04
292.948
300.41
297.134
294.812
293.66
293.228
293.103
293.072
293.061
293.051
293.043
293.038
293.036
293.035
293.035
293.036
293.042
293.049
293.054
293.039
292.947
300.51
297.273
294.917
293.714
293.247
293.109
293.075
293.063
293.054
293.046
293.041
293.038
293.037
293.038
293.04
293.045
293.052
293.055
293.037
292.945
300.624
297.435
295.042
293.78
293.273
293.116
293.077
293.065
293.056
293.049
293.044
293.041
293.04
293.041
293.043
293.048
293.054
293.054
293.034
292.944
300.753
297.624
295.193
293.863
293.306
293.126
293.08
293.067
293.059
293.053
293.047
293.044
293.044
293.044
293.047
293.051
293.055
293.054
293.031
292.943
300.899
297.845
295.375
293.966
293.349
293.139
293.083
293.069
293.062
293.056
293.051
293.048
293.048
293.048
293.05
293.054
293.057
293.053
293.028
292.941
301.061
298.103
295.595
294.097
293.406
293.157
293.088
293.072
293.065
293.06
293.055
293.052
293.052
293.052
293.054
293.056
293.057
293.051
293.024
292.939
301.242
298.403
295.864
294.265
293.484
293.184
293.095
293.074
293.068
293.063
293.059
293.057
293.056
293.056
293.057
293.058
293.057
293.048
293.019
292.936
301.439
298.749
296.191
294.48
293.59
293.223
293.105
293.077
293.07
293.066
293.063
293.06
293.059
293.059
293.059
293.059
293.056
293.045
293.014
292.934
301.653
299.148
296.59
294.76
293.738
293.283
293.123
293.08
293.071
293.068
293.066
293.064
293.062
293.062
293.061
293.059
293.054
293.041
293.008
292.931
301.877
299.601
297.074
295.124
293.947
293.374
293.152
293.086
293.072
293.069
293.067
293.066
293.064
293.063
293.061
293.058
293.051
293.035
293.002
292.927
302.106
300.105
297.659
295.6
294.243
293.519
293.205
293.099
293.073
293.069
293.068
293.066
293.065
293.063
293.06
293.055
293.046
293.028
292.994
292.923
302.33
300.65
298.352
296.217
294.666
293.748
293.302
293.128
293.077
293.067
293.066
293.065
293.063
293.061
293.057
293.051
293.04
293.02
292.985
292.918
302.537
301.215
299.151
297.004
295.266
294.114
293.48
293.193
293.091
293.065
293.061
293.061
293.059
293.057
293.052
293.044
293.031
293.01
292.975
292.911
302.711
301.765
300.031
297.979
296.101
294.692
293.806
293.338
293.137
293.07
293.056
293.054
293.053
293.049
293.044
293.035
293.021
292.999
292.964
292.902
302.844
302.251
300.932
299.122
297.219
295.581
294.39
293.653
293.268
293.105
293.054
293.044
293.042
293.039
293.033
293.023
293.007
292.985
292.95
292.89
302.932
302.635
301.759
300.347
298.612
296.872
295.392
294.306
293.617
293.247
293.088
293.038
293.029
293.025
293.018
293.008
292.992
292.969
292.935
292.875
302.978
302.893
302.411
301.491
300.151
298.563
296.96
295.552
294.462
293.723
293.295
293.094
293.025
293.013
293.008
293.002
292.996
292.996
293.013
293.065
302.993
303.034
302.832
302.36
301.556
300.42
299.05
297.597
296.219
295.046
294.155
293.57
293.265
293.182
293.278
293.498
294.007
295.208
297.902
301.182
302.99
303.093
303.042
302.866
302.52
301.958
301.164
300.163
299.017
297.813
296.654
295.641
294.883
294.478
294.501
295.159
296.57
299.123
302.1
302.534
302.979
303.109
303.119
303.077
302.978
302.803
302.537
302.174
301.724
301.211
300.668
300.157
299.755
299.562
299.707
300.294
301.548
302.614
302.743
302.716
302.966
303.109
303.137
303.136
303.118
303.085
303.035
302.969
302.897
302.83
302.778
302.754
302.759
302.788
302.83
302.871
302.898
302.892
302.837
302.752
302.953
303.104
303.139
303.146
303.145
303.141
303.133
303.123
303.11
303.096
303.082
303.069
303.057
303.044
303.027
303.005
302.972
302.924
302.856
302.762
302.941
303.098
303.137
303.147
303.149
303.148
303.146
303.144
303.139
303.133
303.125
303.114
303.101
303.084
303.063
303.034
302.995
302.941
302.869
302.769
302.929
303.092
303.135
303.147
303.149
303.149
303.149
303.147
303.145
303.142
303.137
303.129
303.118
303.103
303.083
303.054
303.014
302.958
302.881
302.775
302.918
303.087
303.133
303.146
303.149
303.15
303.149
303.149
303.148
303.146
303.143
303.137
303.129
303.117
303.099
303.071
303.032
302.974
302.894
302.78
302.908
303.082
303.13
303.146
303.149
303.15
303.15
303.15
303.149
303.148
303.146
303.142
303.136
303.126
303.111
303.086
303.048
302.99
302.905
302.784
302.899
303.077
303.128
303.145
303.149
303.15
303.15
303.15
303.15
303.149
303.148
303.145
303.141
303.133
303.12
303.098
303.061
303.004
302.916
302.789
302.892
303.072
303.126
303.144
303.149
303.15
303.15
303.15
303.15
303.149
303.149
303.147
303.144
303.138
303.127
303.107
303.073