/*--------------------------------*- C++ -*----------------------------------*\
  =========                 |
  \\      /  F ield         | OpenFOAM: The Open Source CFD Toolbox
   \\    /   O peration     | Website:  https://openfoam.org
    \\  /    A nd           | Version:  8
     \\/     M anipulation  |
\*---------------------------------------------------------------------------*/
FoamFile
{
    version     2.0;
    format      ascii;
    class       volVectorField;
    location    "300";
    object      U;
}
// * * * * * * * * * * * * * * * * * * * * * * * * * * * * * * * * * * * * * //

dimensions      [0 1 -1 0 0 0 0];

internalField   nonuniform List<vector> 
8400
(
(-14.9933 -0.189925 7.71502e-17)
(-14.7263 -0.186158 7.44548e-17)
(-14.4998 -0.231864 7.17776e-17)
(-14.2042 -0.30434 6.90927e-17)
(-13.809 -0.381493 6.75241e-17)
(-13.3051 -0.45085 6.73966e-17)
(-12.7027 -0.504228 6.79497e-17)
(-12.0261 -0.537052 6.93977e-17)
(-11.305 -0.547377 7.16349e-17)
(-10.5704 -0.532544 7.41055e-17)
(-9.87117 -0.476949 7.756e-17)
(-9.27201 -0.379846 8.18857e-17)
(-8.83623 -0.271155 8.54731e-17)
(-8.56332 -0.177031 8.82134e-17)
(-8.42173 -0.106104 8.99947e-17)
(-8.37679 -0.0573256 9.04635e-17)
(-8.39327 -0.0248901 9.08157e-17)
(-8.44455 -0.00350088 9.14975e-17)
(-8.51246 0.00780174 9.17706e-17)
(-8.5713 0.00470989 9.20696e-17)
(-8.58212 -0.019225 9.24545e-17)
(-8.50902 -0.0651473 9.31034e-17)
(-8.3336 -0.117082 9.40617e-17)
(-8.07393 -0.156627 9.51298e-17)
(-7.758 -0.192013 9.59688e-17)
(-7.38949 -0.240887 9.646e-17)
(-6.95826 -0.293947 9.70187e-17)
(-6.46017 -0.342849 9.71863e-17)
(-5.90474 -0.376131 9.65897e-17)
(-5.32236 -0.382768 9.5757e-17)
(-4.75666 -0.358573 9.43084e-17)
(-4.24596 -0.311572 9.20532e-17)
(-3.80676 -0.261453 8.9397e-17)
(-3.43628 -0.222858 8.63508e-17)
(-3.12605 -0.192346 8.27117e-17)
(-2.87123 -0.163803 7.91365e-17)
(-2.66924 -0.137422 7.58794e-17)
(-2.51524 -0.115267 7.3173e-17)
(-2.40269 -0.0974992 7.11511e-17)
(-2.32514 -0.0838298 7.01529e-17)
(-2.27616 -0.0738257 7.02437e-17)
(-2.24964 -0.067027 7.16044e-17)
(-2.24016 -0.0628997 7.34384e-17)
(-2.24309 -0.0610004 7.53304e-17)
(-2.25464 -0.0613414 7.75974e-17)
(-2.27183 -0.0636154 7.96559e-17)
(-2.29207 -0.0675389 8.21047e-17)
(-2.31306 -0.0730265 8.50463e-17)
(-2.33243 -0.0803504 8.63087e-17)
(-2.34783 -0.0905342 8.6296e-17)
(-8.52058 -0.614813 3.37343e-17)
(-8.78366 -0.290253 2.95535e-17)
(-8.85777 -0.304114 2.55614e-17)
(-8.76084 -0.416789 2.14861e-17)
(-8.59969 -0.549461 1.88701e-17)
(-8.39867 -0.668538 1.76766e-17)
(-8.189 -0.754566 1.72151e-17)
(-7.99952 -0.800669 1.78249e-17)
(-7.84465 -0.809195 1.95285e-17)
(-7.70945 -0.783559 2.23317e-17)
(-7.58868 -0.707363 2.78498e-17)
(-7.18295 -0.595476 3.63983e-17)
(-6.90839 -0.43235 4.51047e-17)
(-6.87997 -0.248779 5.28854e-17)
(-6.95157 -0.0781501 5.84966e-17)
(-7.03129 0.0599584 6.15139e-17)
(-7.12183 0.159881 6.37186e-17)
(-7.23184 0.221048 6.56378e-17)
(-7.35488 0.23566 6.69837e-17)
(-7.47515 0.18503 6.83253e-17)
(-7.54801 0.0584668 6.99016e-17)
(-7.51979 -0.119282 7.21655e-17)
(-7.39793 -0.274905 7.62357e-17)
(-7.20769 -0.36093 8.21059e-17)
(-6.9583 -0.435503 8.82347e-17)
(-6.65894 -0.565984 9.32772e-17)
(-6.28789 -0.697681 9.83924e-17)
(-5.85368 -0.814697 1.03534e-16)
(-5.3661 -0.894405 1.08881e-16)
(-4.85495 -0.911557 1.1511e-16)
(-4.37006 -0.852929 1.21742e-16)
(-3.95297 -0.731678 1.28318e-16)
(-3.59381 -0.598572 1.34759e-16)
(-3.27666 -0.499415 1.39985e-16)
(-3.00404 -0.418478 1.45314e-16)
(-2.7764 -0.330784 1.5199e-16)
(-2.59801 -0.24286 1.59706e-16)
(-2.46597 -0.166285 1.67662e-16)
(-2.37256 -0.100928 1.75089e-16)
(-2.31087 -0.0471482 1.81077e-16)
(-2.27445 -0.00450511 1.85199e-16)
(-2.25731 0.028088 1.87634e-16)
(-2.25421 0.0521231 1.88381e-16)
(-2.26165 0.0696495 1.88786e-16)
(-2.27703 0.0825572 1.89788e-16)
(-2.29746 0.0917016 1.91005e-16)
(-2.32056 0.097773 1.92585e-16)
(-2.34462 0.101129 1.94595e-16)
(-2.36835 0.101663 1.9533e-16)
(-2.39064 0.0981851 1.95464e-16)
(2.76331 -3.95028 3.79827e-17)
(0.628909 -1.03184 4.59254e-17)
(1.42657 -0.124505 5.0492e-17)
(2.05853 -0.252439 3.88407e-17)
(1.92807 -0.508491 2.95682e-17)
(1.64761 -0.712354 2.29596e-17)
(1.26835 -0.811733 1.82627e-17)
(0.792767 -0.808707 1.46459e-17)
(0.145088 -0.719411 1.01921e-17)
(-0.913948 -0.558142 4.97049e-18)
(-4.69118 -0.218531 -2.33603e-19)
(-5.01525 -0.0704337 4.59232e-18)
(-4.23087 0.0471125 8.89091e-18)
(-3.95127 0.146772 1.23346e-17)
(-3.91356 0.200426 1.5153e-17)
(-4.06755 0.215652 1.77241e-17)
(-4.28519 0.206115 2.01158e-17)
(-4.529 0.15578 2.20609e-17)
(-4.8053 0.032575 2.25631e-17)
(-5.08993 -0.174795 2.24616e-17)
(-5.28622 -0.426543 2.27898e-17)
(-5.21071 -0.623865 2.32654e-17)
(-5.29727 -0.775218 2.60702e-17)
(-5.41511 -0.868234 3.18011e-17)
(-4.99027 -0.852004 3.82851e-17)
(-4.77641 -0.97688 4.38177e-17)
(-4.50337 -1.11942 5.01038e-17)
(-4.23277 -1.25045 5.71953e-17)
(-3.94781 -1.33602 6.50614e-17)
(-3.64476 -1.33946 7.43428e-17)
(-3.38307 -1.24939 8.56956e-17)
(-3.25085 -1.0897 9.43599e-17)
(-3.11498 -0.917821 9.78049e-17)
(-2.88543 -0.795661 9.53356e-17)
(-2.67646 -0.703913 9.04975e-17)
(-2.4905 -0.577383 8.28317e-17)
(-2.3384 -0.441813 7.36087e-17)
(-2.23069 -0.334235 6.66438e-17)
(-2.15744 -0.244605 6.20363e-17)
(-2.11244 -0.172453 5.98196e-17)
(-2.08957 -0.115905 5.8943e-17)
(-2.083 -0.0724057 5.92154e-17)
(-2.08801 -0.0394707 6.00383e-17)
(-2.10208 -0.0163822 5.98149e-17)
(-2.12204 -0.00188915 5.89151e-17)
(-2.14545 0.00590506 5.75194e-17)
(-2.17041 0.008466 5.5705e-17)
(-2.19563 0.0068672 5.33321e-17)
(-2.22044 0.00189555 5.04652e-17)
(-2.24485 -0.00613493 4.71536e-17)
(12.6574 -1.47621 9.3897e-18)
(12.2077 -1.12453 9.02045e-18)
(12.0391 -1.04291 8.05515e-18)
(11.8124 -1.0737 6.39818e-18)
(11.5221 -1.13484 4.15094e-18)
(11.1836 -1.17628 2.24211e-18)
(10.8036 -1.16088 5.68353e-19)
(10.383 -1.07028 -1.01901e-18)
(9.91498 -0.903663 -3.07763e-18)
(9.40212 -0.672918 -4.87071e-18)
(8.95805 -0.399587 -6.0153e-18)
(8.58892 -0.108705 -6.97757e-18)
(8.19333 0.172301 -6.45012e-18)
(7.7964 0.430371 -7.80195e-18)
(7.32106 0.645521 -9.5946e-18)
(6.73324 0.807893 -1.04479e-17)
(6.05571 0.918528 -1.09209e-17)
(5.32745 0.977889 -1.13999e-17)
(4.57434 0.967265 -1.0909e-17)
(3.79116 0.85696 -1.06623e-17)
(3.21608 0.653621 -1.18159e-17)
(2.27819 0.317543 -1.17704e-17)
(0.445898 -0.124148 -1.06265e-17)
(-3.54661 -1.1064 -6.64761e-20)
(-0.918772 -0.947429 1.07622e-18)
(-0.641875 -1.05906 3.4271e-18)
(-0.567759 -1.21735 8.59594e-18)
(-0.706197 -1.35632 1.59371e-17)
(-0.918515 -1.42036 2.46516e-17)
(-1.08898 -1.36819 3.77719e-17)
(-1.27011 -1.23225 5.66037e-17)
(-1.85737 -1.11934 8.22468e-17)
(-2.38286 -1.06552 1.07244e-16)
(-2.202 -0.936864 1.17007e-16)
(-2.11876 -0.852832 1.26823e-16)
(-2.07902 -0.704914 1.32873e-16)
(-1.97971 -0.510818 1.26399e-16)
(-1.91596 -0.368345 1.16743e-16)
(-1.87662 -0.240301 1.06172e-16)
(-1.85859 -0.135967 9.67873e-17)
(-1.85804 -0.0558378 8.98631e-17)
(-1.86905 0.00371131 8.58173e-17)
(-1.88807 0.0465936 8.35728e-17)
(-1.91427 0.0768763 8.16997e-17)
(-1.9441 0.097207 8.06419e-17)
(-1.97563 0.109626 7.95935e-17)
(-2.00746 0.115656 7.84788e-17)
(-2.0387 0.116364 7.73569e-17)
(-2.06902 0.11245 7.61949e-17)
(-2.0986 0.104285 7.54799e-17)
(21.1458 0.803576 6.05191e-18)
(20.6091 0.814252 6.06996e-18)
(20.1562 0.683251 5.89887e-18)
(19.7496 0.475694 5.76392e-18)
(19.3341 0.273209 5.86252e-18)
(18.8971 0.123987 5.90708e-18)
(18.4625 0.0577374 5.93279e-18)
(18.0524 0.0865224 5.96094e-18)
(17.6787 0.208103 5.60713e-18)
(17.3406 0.408737 5.59598e-18)
(16.9885 0.651397 5.88445e-18)
(16.5983 0.901409 5.63743e-18)
(16.1682 1.14422 5.63493e-18)
(15.6884 1.36929 5.20547e-18)
(15.1481 1.5656 2.75816e-18)
(14.5436 1.72219 -1.69183e-18)
(13.8836 1.82662 -4.03158e-18)
(13.1869 1.86272 -3.76228e-18)
(12.4762 1.81266 -3.88071e-18)
(11.7664 1.67311 -4.99156e-18)
(11.053 1.47354 -5.93867e-18)
(10.3147 1.24031 -6.26942e-18)
(9.60713 0.973912 -6.45099e-18)
(9.22288 0.706269 -5.87971e-18)
(8.70214 0.42663 -5.11407e-18)
(8.01497 0.18002 -4.14953e-18)
(7.21333 -0.0430684 -3.1709e-18)
(6.28465 -0.239322 -2.69353e-18)
(5.23869 -0.386808 -2.3816e-18)
(4.15951 -0.449961 -2.86251e-18)
(3.20753 -0.413093 -3.10132e-18)
(1.21639 -0.555409 1.85339e-17)
(-1.47043 -1.05128 7.18731e-17)
(-0.828293 -0.867665 7.32828e-17)
(-0.966588 -0.774976 9.96552e-17)
(-1.50875 -0.749101 1.45503e-16)
(-1.50723 -0.567061 1.60563e-16)
(-1.50803 -0.43827 1.66611e-16)
(-1.52013 -0.298056 1.68631e-16)
(-1.53245 -0.180182 1.66057e-16)
(-1.55732 -0.0896789 1.62469e-16)
(-1.58656 -0.0198255 1.58401e-16)
(-1.62366 0.0310441 1.54568e-16)
(-1.66262 0.0651483 1.52761e-16)
(-1.70182 0.0862942 1.52717e-16)
(-1.74 0.0975788 1.53804e-16)
(-1.7765 0.101329 1.55246e-16)
(-1.81108 0.0992914 1.56747e-16)
(-1.84403 0.0927091 1.58536e-16)
(-1.876 0.0824826 1.60153e-16)
(16.6619 0.382082 7.02808e-18)
(16.2388 0.182557 6.99669e-18)
(15.7963 -0.000421536 6.55057e-18)
(15.4091 -0.173532 6.53768e-18)
(15.05 -0.298025 6.99498e-18)
(14.7099 -0.346998 6.99823e-18)
(14.3826 -0.313761 7.02713e-18)
(14.0712 -0.200436 7.05968e-18)
(13.7914 -0.0136668 6.62306e-18)
(13.5763 0.235706 6.60661e-18)
(13.4355 0.528375 7.05544e-18)
(13.3579 0.841031 6.96951e-18)
(13.3205 1.15696 6.93048e-18)
(13.2994 1.46307 6.8843e-18)
(13.2712 1.74505 6.09894e-18)
(13.2135 1.9861 5.32028e-18)
(13.1071 2.16672 4.72855e-18)
(12.9386 2.26582 1.90712e-18)
(12.6985 2.26568 -3.56148e-18)
(12.3811 2.16373 -6.10285e-18)
(11.9901 1.9837 -7.06846e-18)
(11.5421 1.75354 -8.16551e-18)
(11.0532 1.47972 -9.23596e-18)
(10.5217 1.17193 -1.0039e-17)
(9.90388 0.897119 -1.05381e-17)
(9.20316 0.694396 -1.0767e-17)
(8.43861 0.563442 -1.1507e-17)
(7.62288 0.513705 -1.37655e-17)
(6.77496 0.555829 -1.59913e-17)
(5.92866 0.66924 -1.86795e-17)
(5.1228 0.762102 -2.11426e-17)
(4.3514 0.732588 -2.24853e-17)
(3.73939 0.620902 -2.93329e-17)
(3.00215 0.419537 -3.74165e-17)
(2.12041 0.199274 -3.16205e-17)
(-0.658517 -0.540456 8.62989e-17)
(-0.845203 -0.500649 1.08089e-16)
(-0.943717 -0.377733 1.288e-16)
(-1.10038 -0.251878 1.41657e-16)
(-1.14418 -0.124287 1.40001e-16)
(-1.19941 -0.0264554 1.38474e-16)
(-1.25515 0.0475859 1.3761e-16)
(-1.31348 0.0989519 1.36643e-16)
(-1.3685 0.132402 1.36174e-16)
(-1.41954 0.152358 1.36171e-16)
(-1.46641 0.162278 1.35895e-16)
(-1.50934 0.164709 1.34945e-16)
(-1.54881 0.161515 1.33168e-16)
(-1.58573 0.153987 1.31365e-16)
(-1.621 0.143096 1.29899e-16)
(14.5921 1.18748 8.15111e-18)
(14.1293 1.0116 8.18027e-18)
(13.6815 0.86779 7.70602e-18)
(13.3145 0.757472 7.58391e-18)
(12.9889 0.680651 8.02542e-18)
(12.6716 0.642829 8.07167e-18)
(12.3594 0.647105 8.1638e-18)
(12.0621 0.693579 8.24088e-18)
(11.7918 0.780447 8.03086e-18)
(11.5609 0.903604 7.78628e-18)
(11.379 1.05622 7.86e-18)
(11.2501 1.23099 7.91394e-18)
(11.1723 1.42207 8.00941e-18)
(11.1394 1.62335 8.09198e-18)
(11.1413 1.82632 7.91623e-18)
(11.1629 2.01873 7.54132e-18)
(11.1851 2.18413 7.15375e-18)
(11.1856 2.30293 6.42994e-18)
(11.1412 2.35701 4.91052e-18)
(11.0321 2.33831 9.31324e-19)
(10.8462 2.25401 -2.773e-18)
(10.578 2.11573 -5.91906e-18)
(10.2213 1.93186 -1.03101e-17)
(9.76994 1.72225 -1.26152e-17)
(9.22696 1.52765 -1.42216e-17)
(8.6126 1.37796 -1.56287e-17)
(7.95195 1.28434 -1.83194e-17)
(7.26667 1.25166 -2.21272e-17)
(6.57837 1.2774 -2.51001e-17)
(5.9126 1.34 -2.9967e-17)
(5.28399 1.37997 -3.70761e-17)
(4.6681 1.32922 -4.4581e-17)
(4.04933 1.22992 -5.26914e-17)
(3.44134 1.15743 -6.00545e-17)
(2.84 1.06158 -6.12404e-17)
(2.10653 0.858676 -5.30975e-17)
(1.70198 0.66292 -5.78117e-17)
(0.113606 -0.0358177 7.53689e-17)
(-0.623439 -0.2137 1.45134e-16)
(-0.69811 -0.0815809 1.39586e-16)
(-0.79985 0.0255512 1.28746e-16)
(-0.890172 0.102915 1.20116e-16)
(-0.97266 0.151987 1.12508e-16)
(-1.04521 0.180351 1.07555e-16)
(-1.10824 0.194492 1.02768e-16)
(-1.16314 0.198716 9.84145e-17)
(-1.21139 0.195987 9.50014e-17)
(-1.2544 0.18835 9.31546e-17)
(-1.29372 0.177266 8.95992e-17)
(-1.33071 0.163869 8.67813e-17)
(12.0016 1.45541 1.05805e-17)
(11.5777 1.23902 1.05494e-17)
(11.1824 1.05385 9.81711e-18)
(10.8704 0.904682 9.61427e-18)
(10.5998 0.783 1.01752e-17)
(10.3386 0.692182 1.021e-17)
(10.0839 0.640149 1.02706e-17)
(9.84438 0.633585 1.03035e-17)
(9.63003 0.676189 9.70881e-18)
(9.44943 0.767238 9.42953e-18)
(9.30782 0.901005 9.69778e-18)
(9.20621 1.06832 9.60223e-18)
(9.14236 1.25898 9.5504e-18)
(9.11262 1.4631 9.48703e-18)
(9.11245 1.67131 8.80435e-18)
(9.13544 1.87397 8.71351e-18)
(9.17157 2.05997 9.02209e-18)
(9.20599 2.21599 8.5331e-18)
(9.2195 2.3282 7.83917e-18)
(9.19144 2.38656 6.45157e-18)
(9.10347 2.38833 5.04295e-18)
(8.94164 2.337 4.72816e-18)
(8.69687 2.24258 4.48431e-18)
(8.36679 2.12514 3.23854e-18)
(7.95851 2.01242 3.34966e-18)
(7.48826 1.92612 3.76052e-18)
(6.97562 1.87595 3.71796e-18)
(6.43986 1.86285 -3.9659e-19)
(5.90089 1.88087 -8.13042e-18)
(5.37897 1.91331 -1.8902e-17)
(4.88278 1.92578 -3.17261e-17)
(4.39421 1.88503 -4.64599e-17)
(3.89544 1.80925 -6.33529e-17)
(3.40564 1.72746 -7.88726e-17)
(2.91952 1.60133 -8.80356e-17)
(2.403 1.40441 -9.10351e-17)
(1.9771 1.20284 -9.04421e-17)
(1.37921 0.919648 -5.45813e-17)
(0.963541 0.669809 -1.11023e-17)
(0.098686 0.185861 1.92657e-16)
(-0.349335 0.135965 2.25546e-16)
(-0.500443 0.200217 2.11998e-16)
(-0.613548 0.23735 1.98652e-16)
(-0.705071 0.253876 1.83476e-16)
(-0.779739 0.258374 1.79943e-16)
(-0.84194 0.254906 1.82762e-16)
(-0.894809 0.246355 1.94357e-16)
(-0.940792 0.234556 2.05203e-16)
(-0.982156 0.220722 2.2029e-16)
(-1.02064 0.205767 2.4178e-16)
(9.46498 1.88447 1.13045e-17)
(9.02867 1.62501 1.13076e-17)
(8.67173 1.40946 1.0831e-17)
(8.41159 1.24172 1.07599e-17)
(8.19259 1.10652 1.11296e-17)
(7.98428 1.00404 1.11718e-17)
(7.78436 0.940773 1.12525e-17)
(7.59972 0.921331 1.13314e-17)
(7.43773 0.94664 1.07246e-17)
(7.30416 1.01369 1.04832e-17)
(7.20196 1.11601 1.08328e-17)
(7.13096 1.24533 1.07523e-17)
(7.08894 1.39355 1.07428e-17)
(7.07294 1.55386 1.0664e-17)
(7.07972 1.72069 1.0281e-17)
(7.10529 1.88884 9.94928e-18)
(7.14369 2.05195 9.79772e-18)
(7.18559 2.20152 9.5593e-18)
(7.21787 2.32737 9.16514e-18)
(7.22479 2.41988 8.42115e-18)
(7.1906 2.47288 7.18117e-18)
(7.10204 2.48567 8.02913e-18)
(6.95017 2.46419 1.68366e-17)
(6.73187 2.42106 2.46789e-17)
(6.45121 2.37298 3.31844e-17)
(6.11898 2.33468 4.19522e-17)
(5.74976 2.31489 4.55335e-17)
(5.35957 2.31607 4.78826e-17)
(4.96477 2.33448 4.11733e-17)
(4.58 2.35776 2.64836e-17)
(4.21035 2.36271 2.32667e-18)
(3.84477 2.32769 -2.60183e-17)
(3.47207 2.25711 -5.51937e-17)
(3.10325 2.16461 -8.51021e-17)
(2.73434 2.03167 -1.1138e-16)
(2.35377 1.85475 -1.30658e-16)
(1.99981 1.65146 -1.4063e-16)
(1.59658 1.38942 -1.29343e-16)
(1.24629 1.11503 -1.00473e-16)
(0.816053 0.796768 -1.37496e-17)
(0.356225 0.505834 9.18164e-17)
(-0.108553 0.330681 2.19032e-16)
(-0.254813 0.336324 2.48195e-16)
(-0.363322 0.334673 2.77538e-16)
(-0.446332 0.325049 2.60193e-16)
(-0.512881 0.310417 2.80698e-16)
(-0.567515 0.293654 3.06288e-16)
(-0.613802 0.276043 3.28261e-16)
(-0.654662 0.258291 3.68993e-16)
(-0.6921 0.241026 4.15054e-16)
(6.76519 2.24749 1.15913e-17)
(6.33412 1.91972 1.15702e-17)
(6.04601 1.66518 1.13981e-17)
(5.86182 1.46885 1.12302e-17)
(5.70932 1.30783 1.12547e-17)
(5.56392 1.1821 1.13276e-17)
(5.42658 1.09767 1.14846e-17)
(5.30327 1.05769 1.16738e-17)
(5.1993 1.06153 1.14588e-17)
(5.11814 1.10521 1.11746e-17)
(5.061 1.18227 1.12773e-17)
(5.02705 1.28535 1.13317e-17)
(5.01433 1.40769 1.14337e-17)
(5.02056 1.54388 1.14614e-17)
(5.04336 1.68967 1.0714e-17)
(5.07988 1.84133 1.05171e-17)
(5.126 1.99466 1.07231e-17)
(5.17572 2.14401 1.03633e-17)
(5.22085 2.28204 9.96865e-18)
(5.25115 2.40077 9.34618e-18)
(5.25544 2.49349 8.16215e-18)
(5.22338 2.55663 6.96825e-18)
(5.14708 2.59139 1.20589e-17)
(5.02283 2.6042 3.09587e-17)
(4.85228 2.60538 5.77213e-17)
(4.64238 2.60566 8.13492e-17)
(4.40377 2.61277 1.02217e-16)
(4.14866 2.6298 1.16325e-16)
(3.88909 2.65407 1.18142e-16)
(3.63475 2.67586 1.0775e-16)
(3.38854 2.67845 8.04216e-17)
(3.14401 2.64664 3.94086e-17)
(2.89456 2.57991 -8.36322e-18)
(2.64574 2.4846 -5.88243e-17)
(2.3936 2.35149 -1.07399e-16)
(2.13196 2.18094 -1.50817e-16)
(1.87427 1.97898 -1.84952e-16)
(1.5946 1.73572 -2.01039e-16)
(1.32948 1.47052 -1.94585e-16)
(1.03773 1.17848 -1.48436e-16)
(0.72806 0.885925 -7.61958e-17)
(0.386341 0.632526 1.18122e-17)
(0.14459 0.486887 1.49079e-16)
(-0.0277936 0.420735 2.14856e-16)
(-0.116415 0.391775 1.8919e-16)
(-0.183075 0.364266 1.94635e-16)
(-0.234851 0.33868 2.05849e-16)
(-0.277164 0.31531 2.47469e-16)
(-0.313419 0.294136 3.10202e-16)
(-0.34562 0.275311 3.7938e-16)
(3.9373 2.60219 1.17594e-17)
(3.48987 2.17224 1.17305e-17)
(3.3119 1.88263 1.12742e-17)
(3.23332 1.65759 1.12896e-17)
(3.16351 1.47063 1.16527e-17)
(3.0917 1.32437 1.15034e-17)
(3.02452 1.22276 1.15599e-17)
(2.96796 1.16573 1.17682e-17)
(2.9261 1.15022 1.12783e-17)
(2.9011 1.17107 1.10459e-17)
(2.89326 1.22224 1.15103e-17)
(2.9016 1.29803 1.15499e-17)
(2.92456 1.3938 1.16854e-17)
(2.96033 1.50607 1.17378e-17)
(3.00691 1.6321 1.10168e-17)
(3.06225 1.76917 1.08635e-17)
(3.12378 1.91411 1.11086e-17)
(3.188 2.06278 1.07625e-17)
(3.25018 2.20929 1.03685e-17)
(3.30434 2.34634 9.72737e-18)
(3.34351 2.46663 8.50108e-18)
(3.36054 2.56455 6.69654e-18)
(3.34932 2.63817 7.02765e-18)
(3.30642 2.69018 1.93277e-17)
(3.23229 2.72715 5.11762e-17)
(3.13128 2.75719 9.75733e-17)
(3.01072 2.78657 1.44799e-16)
(2.87933 2.81781 1.75325e-16)
(2.74532 2.84863 1.93785e-16)
(2.61475 2.87136 1.91564e-16)
(2.48887 2.87378 1.68776e-16)
(2.36293 2.84478 1.33707e-16)
(2.23222 2.78214 8.6706e-17)
(2.09928 2.68832 3.21915e-17)
(1.96037 2.55779 -2.71522e-17)
(1.81151 2.39177 -8.78494e-17)
(1.65681 2.19443 -1.42129e-16)
(1.4852 1.96406 -1.82164e-16)
(1.3118 1.71078 -2.00716e-16)
(1.12397 1.43723 -1.80461e-16)
(0.919304 1.15779 -1.18554e-16)
(0.691816 0.896391 -3.71945e-17)
(0.491375 0.692221 -1.68502e-16)
(0.327959 0.555191 2.61383e-17)
(0.220415 0.474041 1.32952e-16)
(0.148365 0.421481 1.75735e-16)
(0.0985719 0.382841 1.79142e-16)
(0.0622063 0.351836 1.80166e-16)
(0.0330921 0.325255 2.08992e-16)
(0.00714981 0.302925 2.69782e-16)
(0.758888 3.12813 1.18266e-17)
(0.442212 2.27519 1.19015e-17)
(0.534945 1.96792 1.14488e-17)
(0.600527 1.72776 1.13238e-17)
(0.612794 1.52445 1.16126e-17)
(0.612948 1.36963 1.14054e-17)
(0.619196 1.26397 1.1563e-17)
(0.636909 1.20241 1.19798e-17)
(0.666768 1.17799 1.15814e-17)
(0.706985 1.18403 1.12585e-17)
(0.755477 1.21528 1.15753e-17)
(0.810603 1.26874 1.16725e-17)
(0.871308 1.34268 1.20255e-17)
(0.937163 1.43577 1.22467e-17)
(1.00788 1.5465 1.12346e-17)
(1.08287 1.67293 1.06736e-17)
(1.16119 1.81215 1.08716e-17)
(1.24197 1.96031 1.06684e-17)
(1.32366 2.11204 1.03288e-17)
(1.40351 2.26013 9.61593e-18)
(1.47761 2.39678 8.2186e-18)
(1.54122 2.51538 6.10185e-18)
(1.58977 2.61252 5.04287e-18)
(1.62036 2.68909 1.23978e-17)
(1.6329 2.74957 3.80727e-17)
(1.63014 2.80007 8.63928e-17)
(1.61691 2.84536 1.4502e-16)
(1.59923 2.88719 1.96784e-16)
(1.58242 2.9235 2.40467e-16)
(1.56964 2.94804 2.50258e-16)
(1.56024 2.95155 2.31061e-16)
(1.54929 2.92555 1.90423e-16)
(1.53242 2.8676 1.39387e-16)
(1.51034 2.77863 8.98561e-17)
(1.47955 2.6544 4.02496e-17)
(1.43738 2.49579 -1.2017e-17)
(1.38425 2.30602 -6.394e-17)
(1.31405 2.08688 -1.11705e-16)
(1.23308 1.84614 -1.48604e-16)
(1.1373 1.58904 -1.63481e-16)
(1.0235 1.32584 -1.40988e-16)
(0.89048 1.07478 -1.71743e-17)
(0.757992 0.85923 -5.81604e-17)
(0.638026 0.691056 2.28695e-17)
(0.545004 0.570553 1.23678e-16)
(0.477969 0.486709 2.01238e-16)
(0.4314 0.427643 2.39926e-16)
(0.399183 0.384595 2.55655e-16)
(0.376112 0.3517 2.5833e-16)
(0.357166 0.326175 2.54747e-16)
(-2.41691 2.69057 1.15431e-17)
(-2.28955 2.19093 1.14833e-17)
(-2.04561 1.91899 1.12668e-17)
(-1.93045 1.67772 1.10193e-17)
(-1.84855 1.48182 1.1186e-17)
(-1.77477 1.33434 1.14172e-17)
(-1.70135 1.2299 1.17433e-17)
(-1.62607 1.16182 1.1919e-17)
(-1.54846 1.1246 1.16672e-17)
(-1.46861 1.11472 1.12299e-17)
(-1.38638 1.13026 1.12824e-17)
(-1.30133 1.17025 1.16169e-17)
(-1.21308 1.23372 1.17857e-17)
(-1.12137 1.31925 1.15511e-17)
(-1.02578 1.42489 1.07212e-17)
(-0.925696 1.54843 1.01442e-17)
(-0.820787 1.68692 1.02873e-17)
(-0.710746 1.83617 1.02118e-17)
(-0.595451 1.9907 9.75429e-18)
(-0.475955 2.14356 8.75416e-18)
(-0.3547 2.28719 7.1295e-18)
(-0.235148 2.415 5.2293e-18)
(-0.121048 2.52317 5.21021e-18)
(-0.0149826 2.61181 1.36043e-17)
(0.0826824 2.68534 3.98831e-17)
(0.172128 2.74798 8.88214e-17)
(0.257385 2.80217 1.46312e-16)
(0.344847 2.84942 1.97329e-16)
(0.437961 2.88785 2.40572e-16)
(0.537181 2.91238 2.52955e-16)
(0.639506 2.91638 2.35438e-16)
(0.738514 2.89341 1.88411e-16)
(0.830006 2.84122 1.26144e-16)
(0.913453 2.76013 6.75464e-17)
(0.984813 2.64597 1.40298e-17)
(1.04227 2.49881 -3.58982e-17)
(1.08505 2.32091 -7.90542e-17)
(1.10921 2.1153 -1.18489e-16)
(1.11693 1.889 -1.47091e-16)
(1.10647 1.64858 -1.56565e-16)
(1.07532 1.40322 -1.37331e-16)
(1.02377 1.16765 -5.46389e-17)
(0.96107 0.958011 -3.10012e-17)
(0.896513 0.784055 2.27079e-17)
(0.83966 0.647988 9.98894e-17)
(0.794597 0.545392 1.78715e-16)
(0.76143 0.469379 2.41805e-16)
(0.738199 0.413368 2.83978e-16)
(0.72226 0.372049 3.07063e-16)
(0.710462 0.341697 3.15338e-16)
(-5.13303 2.29978 8.19476e-18)
(-4.74447 2.0294 8.01205e-18)
(-4.49865 1.78158 7.92636e-18)
(-4.33242 1.56511 7.63209e-18)
(-4.19666 1.3848 7.58259e-18)
(-4.07974 1.23996 8.00059e-18)
(-3.97362 1.12847 8.22745e-18)
(-3.87301 1.04864 8.3102e-18)
(-3.77412 0.999421 8.28483e-18)
(-3.67429 0.980003 7.9511e-18)
(-3.57157 0.989401 7.93717e-18)
(-3.46451 1.02615 8.3935e-18)
(-3.35215 1.08831 8.63941e-18)
(-3.23378 1.17352 8.71952e-18)
(-3.10866 1.27909 8.60531e-18)
(-2.97594 1.40207 8.31244e-18)
(-2.83475 1.53912 8.52465e-18)
(-2.68437 1.686 8.79069e-18)
(-2.52421 1.83746 8.6505e-18)
(-2.35456 1.98738 8.41944e-18)
(-2.17692 2.12944 8.67937e-18)
(-1.99385 2.25818 1.11365e-17)
(-1.8083 2.37032 1.89143e-17)
(-1.6225 2.46567 3.7025e-17)
(-1.43693 2.54652 7.06678e-17)
(-1.25097 2.61528 1.19566e-16)
(-1.06277 2.67306 1.72406e-16)
(-0.869238 2.72026 2.1792e-16)
(-0.668854 2.75564 2.53452e-16)
(-0.462784 2.77595 2.60836e-16)
(-0.255311 2.77728 2.40234e-16)
(-0.0510623 2.75507 1.84924e-16)
(0.151455 2.70699 1.08296e-16)
(0.33469 2.63767 3.99037e-17)
(0.50141 2.53814 -2.34165e-17)
(0.650694 2.40643 -8.04329e-17)
(0.781736 2.24468 -1.28109e-16)
(0.891871 2.05645 -1.68485e-16)
(0.981504 1.84827 -1.97386e-16)
(1.0493 1.62727 -2.08427e-16)
(1.09342 1.40233 -1.96136e-16)
(1.11447 1.18573 -1.42238e-16)
(1.11764 0.989703 -9.87272e-17)
(1.10959 0.822135 -4.82222e-17)
(1.09714 0.685489 2.01987e-17)
(1.08498 0.57779 9.88424e-17)
(1.07552 0.494877 1.72206e-16)
(1.06942 0.432156 2.39421e-16)
(1.06626 0.385493 2.97169e-16)
(1.06476 0.351535 3.42479e-16)
(-7.37848 1.91346 3.07478e-18)
(-6.95477 1.7539 2.78705e-18)
(-6.70766 1.56892 2.53082e-18)
(-6.50436 1.39582 1.81172e-18)
(-6.33696 1.24139 1.5023e-18)
(-6.19486 1.11114 1.87181e-18)
(-6.06951 1.00781 1.98213e-18)
(-5.95412 0.932647 2.17742e-18)
(-5.84336 0.885775 2.40437e-18)
(-5.73297 0.866631 2.26775e-18)
(-5.61944 0.874182 2.72304e-18)
(-5.49996 0.907007 3.83768e-18)
(-5.37221 0.96331 4.72503e-18)
(-5.2343 1.04102 5.50993e-18)
(-5.08463 1.1377 6.23464e-18)
(-4.92177 1.2505 6.62607e-18)
(-4.74457 1.37614 7.74015e-18)
(-4.55225 1.5107 1.0615e-17)
(-4.3444 1.64958 1.36702e-17)
(-4.12132 1.78765 1.76421e-17)
(-3.88431 1.91968 2.39642e-17)
(-3.63555 2.04122 3.47811e-17)
(-3.37756 2.14942 5.33061e-17)
(-3.11251 2.24339 8.18252e-17)
(-2.84165 2.32421 1.20643e-16)
(-2.56497 2.3931 1.67251e-16)
(-2.2817 2.4503 2.12671e-16)
(-1.99117 2.49518 2.48774e-16)
(-1.69349 2.52652 2.69887e-16)
(-1.39076 2.54217 2.65393e-16)
(-1.08746 2.53962 2.34547e-16)
(-0.787864 2.51714 1.73328e-16)
(-0.494587 2.47638 9.37854e-17)
(-0.222286 2.4213 1.8557e-17)
(0.0452691 2.33668 -5.74811e-17)
(0.280576 2.22488 -1.22894e-16)
(0.491259 2.08378 -1.78056e-16)
(0.678242 1.91658 -2.2546e-16)
(0.841322 1.73039 -2.62454e-16)
(0.97928 1.53246 -2.84506e-16)
(1.09078 1.33136 -2.88729e-16)
(1.1764 1.13746 -2.67428e-16)
(1.23948 0.960359 -2.41921e-16)
(1.28488 0.806388 -2.10327e-16)
(1.31786 0.677904 -1.67724e-16)
(1.34282 0.574103 -1.1428e-16)
(1.36296 0.492374 -5.32973e-17)
(1.3802 0.429466 1.27391e-17)
(1.39553 0.382218 7.77975e-17)
(1.40893 0.347914 1.39799e-16)
(-9.29468 1.54212 2.76014e-19)
(-8.88343 1.44761 2.51286e-19)
(-8.62632 1.32478 2.31569e-19)
(-8.40089 1.19885 -9.53292e-20)
(-8.21079 1.08069 1.79914e-19)
(-8.04724 0.977896 9.96963e-19)
(-7.90303 0.894598 1.63309e-18)
(-7.77165 0.832786 2.40846e-18)
(-7.64738 0.793166 3.30283e-18)
(-7.52513 0.775753 4.05271e-18)
(-7.40044 0.780098 5.43901e-18)
(-7.2694 0.805457 7.56063e-18)
(-7.1286 0.850759 9.67362e-18)
(-6.97503 0.914543 1.2096e-17)
(-6.80608 0.994909 1.45598e-17)
(-6.61952 1.08947 1.72258e-17)
(-6.41357 1.19542 2.16798e-17)
(-6.18707 1.30945 2.75265e-17)
(-5.93953 1.42781 3.49725e-17)
(-5.67126 1.5464 4.51084e-17)
(-5.38348 1.6611 5.90713e-17)
(-5.07807 1.76825 7.80428e-17)
(-4.75728 1.86524 1.04042e-16)
(-4.42324 1.95084 1.37856e-16)
(-4.07763 2.02505 1.77355e-16)
(-3.7218 2.08834 2.17341e-16)
(-3.35697 2.14053 2.51376e-16)
(-2.98439 2.18057 2.74346e-16)
(-2.60547 2.20701 2.79996e-16)
(-2.22236 2.21803 2.62372e-16)
(-1.83835 2.21233 2.20157e-16)
(-1.45651 2.19065 1.53868e-16)
(-1.08118 2.15649 7.48212e-17)
(-0.723717 2.11201 -9.16624e-19)
(-0.383534 2.04972 -7.76418e-17)
(-0.0673503 1.9653 -1.49838e-16)
(0.225922 1.84558 -2.13488e-16)
(0.479738 1.70333 -2.66217e-16)
(0.707104 1.54255 -3.10911e-16)
(0.906524 1.37112 -3.45359e-16)
(1.07702 1.19728 -3.669e-16)
(1.21909 1.02977 -3.73654e-16)
(1.33505 0.876148 -3.74161e-16)
(1.42862 0.741348 -3.72912e-16)
(1.50412 0.627406 -3.64148e-16)
(1.56568 0.534084 -3.46413e-16)
(1.61675 0.459741 -3.22075e-16)
(1.65994 0.402119 -2.91788e-16)
(1.69708 0.358901 -2.5589e-16)
(1.72895 0.328022 -2.16746e-16)
(-10.9632 1.19931 2.89169e-18)
(-10.5581 1.14371 3.82983e-18)
(-10.2876 1.06288 4.97341e-18)
(-10.0414 0.973646 5.70156e-18)
(-9.82675 0.886167 7.27741e-18)
(-9.63777 0.807279 9.70219e-18)
(-9.469 0.741167 1.18609e-17)
(-9.3148 0.690241 1.42754e-17)
(-9.16969 0.655825 1.68741e-17)
(-9.02846 0.638568 1.93773e-17)
(-8.88622 0.638701 2.25859e-17)
(-8.73843 0.656038 2.66009e-17)
(-8.58098 0.690029 3.08888e-17)
(-8.4101 0.739627 3.56163e-17)
(-8.22245 0.803244 4.10393e-17)
(-8.01506 0.878814 4.69356e-17)
(-7.78547 0.963907 5.45178e-17)
(-7.53197 1.05579 6.42433e-17)
(-7.25368 1.1515 7.61485e-17)
(-6.9506 1.24791 9.11846e-17)
(-6.62367 1.34183 1.10291e-16)
(-6.27449 1.43038 1.33404e-16)
(-5.90496 1.51125 1.60897e-16)
(-5.51704 1.5832 1.93234e-16)
(-5.11276 1.64598 2.27251e-16)
(-4.69457 1.69992 2.57674e-16)
(-4.26535 1.74506 2.78981e-16)
(-3.82809 1.7805 2.86781e-16)
(-3.38528 1.80442 2.77021e-16)
(-2.93888 1.81453 2.48124e-16)
(-2.4906 1.80941 1.98094e-16)
(-2.04224 1.79019 1.30034e-16)
(-1.598 1.76075 5.3788e-17)
(-1.16754 1.72479 -1.91718e-17)
(-0.759399 1.68153 -9.1155e-17)
(-0.385668 1.62892 -1.59637e-16)
(-0.016533 1.54135 -2.27195e-16)
(0.304021 1.4256 -2.81588e-16)
(0.586033 1.29308 -3.27847e-16)
(0.837966 1.15068 -3.66971e-16)
(1.059 1.00648 -3.97817e-16)
(1.24938 0.868014 -4.2053e-16)
(1.41075 0.74104 -4.40569e-16)
(1.54609 0.629183 -4.59204e-16)
(1.65918 0.534008 -4.74573e-16)
(1.75402 0.45549 -4.86637e-16)
(1.83425 0.392614 -4.93607e-16)
(1.90293 0.34391 -4.95476e-16)
(1.96248 0.307851 -4.94553e-16)
(2.01424 0.28309 -4.89409e-16)
(-12.4178 0.880281 1.86037e-17)
(-12.0001 0.848689 2.14565e-17)
(-11.7087 0.797419 2.46642e-17)
(-11.4358 0.73764 2.76382e-17)
(-11.1909 0.676919 3.15136e-17)
(-10.9706 0.620472 3.62846e-17)
(-10.7712 0.571753 4.07769e-17)
(-10.588 0.532938 4.54489e-17)
(-10.416 0.505403 5.0249e-17)
(-10.25 0.490027 5.51672e-17)
(-10.0847 0.487367 6.07015e-17)
(-9.91538 0.497616 6.67727e-17)
(-9.73757 0.520561 7.31973e-17)
(-9.54713 0.5555 8.00861e-17)
(-9.34031 0.601191 8.76814e-17)
(-9.11359 0.655982 9.59748e-17)
(-8.8639 0.717978 1.05629e-16)
(-8.5889 0.785165 1.17102e-16)
(-8.28716 0.855437 1.30639e-16)
(-7.95831 0.926557 1.46892e-16)
(-7.60297 0.996183 1.66098e-16)
(-7.22239 1.06206 1.88091e-16)
(-6.81809 1.12229 2.11564e-16)
(-6.39166 1.17569 2.3618e-16)
(-5.94497 1.22218 2.59718e-16)
(-5.4809 1.26249 2.78137e-16)
(-5.00357 1.29735 2.86416e-16)
(-4.51757 1.32642 2.80818e-16)
(-4.02665 1.34778 2.5912e-16)
(-3.53285 1.35832 2.21892e-16)
(-3.03645 1.35545 1.69208e-16)
(-2.53729 1.33902 1.03704e-16)
(-2.03796 1.31238 3.33929e-17)
(-1.54749 1.28113 -3.46466e-17)
(-1.08094 1.25089 -9.98649e-17)
(-0.654757 1.22268 -1.59597e-16)
(-0.256821 1.17855 -2.17616e-16)
(0.161733 1.09174 -2.73528e-16)
(0.482961 0.993642 -3.12136e-16)
(0.7771 0.884022 -3.46417e-16)
(1.03973 0.773262 -3.75236e-16)
(1.27015 0.668036 -4.00448e-16)
(1.46913 0.57225 -4.22485e-16)
(1.63914 0.488075 -4.44261e-16)
(1.78376 0.416407 -4.6568e-16)
(1.90698 0.35719 -4.84615e-16)
(2.01273 0.309789 -5.00643e-16)
(2.10449 0.273337 -5.149e-16)
(2.18519 0.247003 -5.27422e-16)
(2.25677 0.230214 -5.3733e-16)
(-13.6152 0.529948 6.34497e-17)
(-13.1765 0.513234 6.85908e-17)
(-12.8606 0.484472 7.40598e-17)
(-12.5591 0.449624 7.93652e-17)
(-12.2834 0.413165 8.52892e-17)
(-12.0319 0.378323 9.18172e-17)
(-11.8022 0.347343 9.7943e-17)
(-11.5904 0.321734 1.03989e-16)
(-11.3916 0.302512 1.09993e-16)
(-11.2007 0.290452 1.16097e-16)
(-11.0126 0.286109 1.22446e-16)
(-10.8222 0.289766 1.28966e-16)
(-10.6248 0.30136 1.35597e-16)
(-10.4162 0.32046 1.42465e-16)
(-10.1924 0.34629 1.49738e-16)
(-9.94951 0.377794 1.56916e-16)
(-9.68384 0.413792 1.65405e-16)
(-9.39254 0.453118 1.75619e-16)
(-9.07375 0.494596 1.86501e-16)
(-8.7268 0.536912 1.9887e-16)
(-8.35207 0.578594 2.12862e-16)
(-7.95049 0.618102 2.27815e-16)
(-7.52316 0.65418 2.41992e-16)
(-7.07101 0.686139 2.54757e-16)
(-6.59531 0.714191 2.64943e-16)
(-6.09886 0.739385 2.69996e-16)
(-5.58662 0.762802 2.66517e-16)
(-5.06488 0.784353 2.51138e-16)
(-4.53907 0.802065 2.22205e-16)
(-4.01175 0.81255 1.81855e-16)
(-3.48194 0.812616 1.31909e-16)
(-2.94685 0.801342 7.42244e-17)
(-2.40623 0.781673 1.3722e-17)
(-1.86767 0.76043 -4.61732e-17)
(-1.34963 0.74664 -1.02767e-16)