/*--------------------------------*- C++ -*----------------------------------*\
  =========                 |
  \\      /  F ield         | OpenFOAM: The Open Source CFD Toolbox
   \\    /   O peration     | Website:  https://openfoam.org
    \\  /    A nd           | Version:  8
     \\/     M anipulation  |
\*---------------------------------------------------------------------------*/
FoamFile
{
    version     2.0;
    format      ascii;
    class       volScalarField;
    location    "900";
    object      epsilon;
}
// * * * * * * * * * * * * * * * * * * * * * * * * * * * * * * * * * * * * * //

dimensions      [0 2 -3 0 0 0 0];

internalField   nonuniform List<scalar> 
1200
(
72.1359
55.7203
44.1261
35.6946
29.4066
24.6139
20.8916
17.9529
15.5991
13.6899
12.1243
10.826
9.73867
8.81965
8.03673
7.36541
6.78689
6.28594
5.84843
5.46308
5.12155
4.8174
4.54553
4.30158
4.08232
3.8859
3.71042
3.5522
3.40783
3.27519
3.15328
3.04144
2.93893
2.84508
2.75886
2.67888
2.60327
2.53017
2.45878
2.39048
2.32789
2.27297
2.22567
2.18371
2.14742
2.13173
2.16584
2.25527
2.35313
2.41607
2.39812
2.2913
2.13123
1.96651
1.82725
1.71939
1.63577
1.56687
1.50568
1.44807
92.9316
58.8545
39.2631
27.3348
19.7174
14.6429
11.145
8.66443
6.86248
5.52565
4.51216
3.73102
3.11887
2.63192
2.2396
1.92005
1.65701
1.43846
1.25635
1.10384
0.975313
0.866323
0.773326
0.693457
0.624478
0.564616
0.512405
0.466643
0.426355
0.390748
0.359173
0.331086
0.306023
0.283596
0.26347
0.245348
0.228964
0.214086
0.200526
0.188174
0.176977
0.16694
0.158543
0.155509
0.172575
0.236174
0.357794
0.514062
0.656275
0.735393
0.737962
0.673498
0.564487
0.440064
0.325993
0.237058
0.175674
0.137167
0.113777
0.104526
92.8694
58.5641
38.8895
26.9335
19.315
14.2619
10.7935
8.34304
6.5685
5.25533
4.26487
3.50489
2.91269
2.44485
2.07063
1.76794
1.52075
1.31711
1.148
1.00648
0.887153
0.785866
0.699353
0.625043
0.560876
0.505207
0.456667
0.414142
0.376738
0.343716
0.314476
0.288511
0.26539
0.244742
0.226252
0.209645
0.194687
0.181183
0.168965
0.157898
0.147862
0.138751
0.130466
0.123014
0.11725
0.116477
0.126591
0.15383
0.195433
0.236449
0.26024
0.259135
0.236485
0.202451
0.167324
0.137293
0.114046
0.0968352
0.0841358
0.0745698
92.8693
58.6382
38.9829
27.0245
19.3939
14.3274
10.8477
8.38737
6.60409
5.28365
4.28746
3.52307
2.92749
2.45702
2.08071
1.77635
1.52776
1.32296
1.15289
1.01058
0.890624
0.788828
0.701912
0.627273
0.562834
0.506922
0.458172
0.415482
0.377953
0.344836
0.315507
0.289442
0.266208
0.245455
0.226866
0.210168
0.195127
0.181545
0.169257
0.15813
0.148047
0.138898
0.130576
0.122983
0.116054
0.109942
0.105403
0.104213
0.1084
0.11752
0.127455
0.133021
0.131523
0.123853
0.112787
0.100917
0.0897571
0.079954
0.07162
0.0647277
92.8693
58.6381
38.9725
27.009
19.3769
14.311
10.8332
8.37501
6.59406
5.27576
4.28124
3.51811
2.92347
2.45368
2.07792
1.774
1.52581
1.32135
1.15156
1.0095
0.889749
0.788133
0.701375
0.626884
0.562576
0.506777
0.458136
0.415564
0.37816
0.345169
0.315958
0.290002
0.266864
0.246178
0.227631
0.210956
0.195929
0.182368
0.170133
0.159114
0.149187
0.140205
0.132018
0.124492
0.117532
0.111099
0.10515
0.0997803
0.0953068
0.0922918
0.0910541
0.0909747
0.0906995
0.0892004
0.0863124
0.0824246
0.0780197
0.0734733
0.0690168
0.0648522
92.8693
58.6385
38.972
27.008
19.3755
14.3094
10.8317
8.37383
6.59322
5.27522
4.28088
3.51785
2.92324
2.45348
2.07774
1.77389
1.52577
1.32139
1.15167
1.00966
0.889958
0.788389
0.701677
0.627229
0.562968
0.507223
0.458653
0.416173
0.378882
0.346019
0.316949
0.291146
0.268172
0.247661
0.2293
0.212828
0.198042
0.184824
0.173145
0.162972
0.154131
0.146314
0.139221
0.132585
0.126221
0.120058
0.114102
0.108316
0.102689
0.0975327
0.0929165
0.0889311
0.0855333
0.0825051
0.0796228
0.07677
0.0739307
0.0711228
0.0683827
0.0657472
92.8693
58.6415
38.9844
27.0254
19.3942
14.3273
10.8482
8.38835
6.60532
5.28489
4.28848
3.52382
2.92802
2.45734
2.08085
1.77634
1.52764
1.32277
1.15267
1.01038
0.890473
0.788761
0.70196
0.627473
0.56322
0.507528
0.459059
0.416733
0.379647
0.34704
0.318278
0.292843
0.270308
0.250327
0.232611
0.216915
0.203054
0.19098
0.180968
0.173408
0.167994
0.163735
0.159732
0.155417
0.150562
0.14524
0.13964
0.133858
0.12776
0.121031
0.114373
0.108102
0.102338
0.0971587
0.0925668
0.0884925
0.084865
0.0816013
0.0786714
0.0760113
92.8694
58.5684
38.8916
26.9334
19.3128
14.2589
10.7916
8.3424
6.56869
5.25607
4.26584
3.50588
2.9136
2.44564
2.07134
1.76869
1.52156
1.31798
1.14889
1.00735
0.888055
0.78683
0.700416
0.626228
0.562193
0.506647
0.458253
0.415926
0.378761
0.346002
0.317019
0.291298
0.268415
0.248001
0.229818
0.213717
0.199797
0.189203
0.185365
0.190951
0.202551
0.213832
0.221132
0.224652
0.225078
0.223579
0.221463
0.219317
0.216441
0.210437
0.198637
0.182069
0.166059
0.152367
0.140909
0.131376
0.123421
0.116724
0.111117
0.1062
92.9315
58.8388
39.2329
27.2973
19.6749
14.6061
11.1162
8.63932
6.83691
5.49788
4.48489
3.70562
3.09617
2.61228
2.22306
1.90656
1.64687
1.43179
1.25166
1.09961
0.971188
0.862365
0.769541
0.689896
0.621249
0.562196
0.5108
0.466127
0.428261
0.395882
0.367648
0.342498
0.319037
0.297663
0.278128
0.261784
0.25544
0.278744
0.35944
0.491409
0.625085
0.711299
0.735203
0.718041
0.693008
0.679967
0.678439
0.675171
0.655422
0.610221
0.538647
0.448923
0.356907
0.281054
0.227223
0.189673
0.162824
0.142132
0.125869
0.112439
72.1319
55.7261
44.132
35.7006
29.4122
24.62
20.8999
17.9637
15.6118
13.7033
12.1367
10.8371
9.74865
8.829
8.04622
7.37654
6.80225
6.30952
5.88515
5.51487
5.18573
4.88837
4.61701
4.36887
4.14412
3.94234
3.76263
3.60167
3.45836
3.33181
3.22075
3.12393
3.03983
2.9665
2.90182
2.8447
2.80063
2.79665
2.88706
3.08191
3.28931
3.4101
3.41004
3.30466
3.12325
2.89012
2.62218
2.33311
2.03749
1.75131
1.49083
1.26959
1.09534
0.968808
0.885745
0.836919
0.807069
0.778067
0.739604
0.686639
72.1362
55.7282
44.1292
35.6934
29.4015
24.6062
20.8852
17.9508
15.6013
13.6938
12.1267
10.8265
9.73742
8.81739
8.03436
7.3636
6.78593
6.28571
5.84802
5.46227
5.12042
4.81618
4.54438
4.30081
4.08222
3.88591
3.71044
3.55281
3.40922
3.27652
3.15402
3.04171
2.93904
2.8452
2.75908
2.67928
2.60395
2.53125
2.46023
2.39199
2.32904
2.27348
2.22551
2.18309
2.14584
2.12674
2.15363
2.23906
2.33763
2.40839
2.40329
2.30798
2.15332
1.9879
1.84489
1.73303
1.64643
1.57569
1.5136
1.45552
92.9316
58.8537
39.2512
27.3173
19.6998
14.6329
11.1417
8.66316
6.86014
5.52014
4.50475
3.72327
3.11247
2.62743
2.23656
1.91771
1.65492
1.43653
1.25506
1.10313
0.974986
0.866192
0.773265
0.693427
0.624444
0.564533
0.51228
0.466514
0.426246
0.390668
0.359115
0.33104
0.305984
0.283561
0.263437
0.245318
0.228939
0.214066
0.200511
0.188155
0.176942
0.166868
0.158305
0.154334
0.167961
0.224653
0.338928
0.491271
0.638028
0.72711
0.740305
0.684062
0.579401
0.455427
0.339074
0.246736
0.182107
0.141118
0.116133
0.106019
92.8694
58.5737
38.8963
26.9363
19.314
14.2578
10.7888
8.34024
6.56783
5.25583
4.26534
3.50493
2.91235
2.44426
2.07
1.76747
1.52048
1.31702
1.14801
1.00653
0.887215
0.785929
0.699423
0.625119
0.560938
0.505214
0.456624
0.414088
0.376703
0.343706
0.314479
0.288509
0.265374
0.244714
0.226214
0.209603
0.194643
0.181137
0.168919
0.157852
0.147816
0.138703
0.130417
0.122938
0.116926
0.115344
0.123697
0.148506
0.188728
0.230811
0.257619
0.259884
0.239598
0.206452
0.171071
0.140266
0.116193
0.0983145
0.0851313
0.0752649
92.8693
58.6448
38.9873
27.0263
19.3935
14.3252
10.845
8.38592
6.60436
5.28487
4.28857
3.52365
2.92757
2.45674
2.08028
1.77597
1.52753
1.32287
1.15289
1.01062
0.890674
0.78888
0.701966
0.62733
0.56288
0.50694
0.458173
0.415488
0.377976
0.344876
0.315553
0.289489
0.266251
0.245481
0.22687
0.210152
0.195098
0.181507
0.169214
0.158087
0.148006
0.138856
0.130532
0.122937
0.116003
0.109837
0.105089
0.103394
0.106877
0.115581
0.125788
0.132195
0.131641
0.124636
0.113863
0.10202
0.0907546
0.0807998
0.0723076
0.0652672
92.8693
58.6438
38.9779
27.0125
19.3784
14.3105
10.8313
8.37379
6.59421
5.2767
4.28214
3.51857
2.92349
2.45341
2.07754
1.77369
1.52563
1.32129
1.15157
1.00954
0.889793
0.788178
0.701422
0.626931
0.562619
0.50681
0.458166
0.4156
0.378206
0.345221
0.316011
0.290055
0.266916
0.246228
0.227679
0.211002
0.195973
0.182414
0.170188
0.159182
0.149269
0.140296
0.132113
0.124587
0.117608
0.111134
0.105146
0.0997223
0.0951452
0.0919659
0.0905824
0.0904929
0.0903623
0.0890722
0.086366
0.0825979
0.078258
0.0737389
0.0692851
0.0651037
92.8693
58.6427
38.9768
27.0112
19.3773
14.3097
10.8305
8.37301
6.59347
5.27607
4.28168
3.51824
2.92326
2.45326
2.07745
1.77366
1.52564
1.32135
1.15168
1.00969
0.89
0.788432
0.70172
0.627274
0.563013
0.507267
0.458699
0.416228
0.378946
0.34609
0.317025
0.291226
0.268256
0.247749
0.229392
0.212924
0.198149
0.184957
0.173326
0.163213
0.154424
0.146639
0.139556
0.132904
0.12651
0.120316
0.114335
0.108546
0.102897
0.0976213
0.0928777
0.088802
0.0853633
0.0823363
0.0794776
0.0766532
0.073839
0.0710512
0.068327
0.0656998
92.8693
58.6453
38.9902
27.0302
19.3979
14.3297
10.8485
8.38826
6.60587
5.28593
4.28947
3.5244
2.92814
2.45712
2.08049
1.77603
1.52747
1.32271
1.15268
1.01041
0.890514
0.788803
0.702004
0.627521
0.563272
0.507584
0.459125
0.416815
0.379747
0.347159
0.318419
0.293009
0.270504
0.250559
0.232886
0.217243
0.203446
0.191469
0.181618
0.174248
0.168966
0.164746
0.160712
0.156314
0.151361
0.145953
0.140288
0.134457
0.128339
0.121576
0.114871
0.108367
0.102352
0.0969982
0.0923085
0.0881896
0.0845455
0.0812786
0.0783481
0.075689
92.8694
58.5683
38.8933
26.9351
19.3145
14.2601
10.7915
8.3421
6.569
5.25679
4.2665
3.50621
2.91363
2.44549
2.07116
1.76855
1.52149
1.31797
1.14891
1.00738
0.888091
0.786869
0.700457
0.626274
0.562242
0.506699
0.458312
0.415995
0.378843
0.346095
0.317124
0.291407
0.268517
0.248104
0.229947
0.2139
0.200083
0.189727
0.186256
0.192048
0.203538
0.214458
0.221196
0.224336
0.224579
0.223106
0.221106
0.219092
0.216394
0.210767
0.199394
0.18306
0.166863
0.152975
0.141343
0.131662
0.123583
0.116779
0.111076
0.106089
92.9315
58.8438
39.2462
27.3143
19.6915
14.617
11.1193
8.6393
6.83835
5.50145
4.48866
3.70761
3.09636
2.61155
2.22218
1.90591
1.64646
1.43143
1.25118
1.0991
0.970926
0.862194
0.769407
0.689785
0.621096
0.561528
0.509631
0.464712
0.426837
0.394498
0.366264
0.341051
0.317935
0.296965
0.278179
0.262486
0.255539
0.274636
0.347556
0.474045
0.609352
0.702537
0.7337
0.720624
0.696084
0.68187
0.679461
0.676472
0.658069
0.614737
0.54488
0.456101
0.363699
0.286246
0.230667
0.192015
0.164505
0.143431
0.126905
0.113246
72.1331
55.7288
44.1387
35.7074
29.4185
24.625
20.9022
17.9649
15.6137
13.7058
12.1389
10.8383
9.74859
8.82802
8.04497
7.37552
6.80173
6.30947
5.88542
5.51504
5.18515
4.88719
4.61524
4.36624
4.14
3.93612
3.75643
3.59825
3.45682
3.33107
3.22024
3.1234
3.03921
2.96583
2.90117
2.84394
2.79849
2.78866
2.86721
3.0538
3.26564
3.3994
3.41303
3.31813
3.14357
2.91455
2.64873
2.36021
2.06369
1.77532
1.51167
1.28683
1.10905
0.979466
0.893865
0.843068
0.812207
0.783082
0.745054
0.692655
)
;

boundaryField
{
    wall
    {
        type            epsilonWallFunction;
        value           nonuniform List<scalar> 
1200
(
72.1359
92.9316
92.8694
92.8693
92.8693
92.8693
92.8693
92.8694
92.9315
72.1319
55.7203
58.8545
58.5641
58.6382
58.6381
58.6385
58.6415
58.5684
58.8388
55.7261
44.1261
39.2631
38.8895
38.9829
38.9725
38.972
38.9844
38.8916
39.2329
44.132
35.6946
27.3348
26.9335
27.0245
27.009
27.008
27.0254
26.9334
27.2973
35.7006
29.4066
19.7174
19.315
19.3939
19.3769
19.3755
19.3942
19.3128
19.6749
29.4122
24.6139
14.6429
14.2619
14.3274
14.311
14.3094
14.3273
14.2589
14.6061
24.62
20.8916
11.145
10.7935
10.8477
10.8332
10.8317
10.8482
10.7916
11.1162
20.8999
17.9529
8.66443
8.34304
8.38737
8.37501
8.37383
8.38835
8.3424
8.63932
17.9637
15.5991
6.86248
6.5685
6.60409
6.59406
6.59322
6.60532
6.56869
6.83691
15.6118
13.6899
5.52565
5.25533
5.28365
5.27576
5.27522
5.28489
5.25607
5.49788
13.7033
12.1243
4.51216
4.26487
4.28746
4.28124
4.28088
4.28848
4.26584
4.48489
12.1367
10.826
3.73102
3.50489
3.52307
3.51811
3.51785
3.52382
3.50588
3.70562
10.8371
9.73867
3.11887
2.91269
2.92749
2.92347
2.92324
2.92802
2.9136
3.09617
9.74865
8.81965
2.63192
2.44485
2.45702
2.45368
2.45348
2.45734
2.44564
2.61228
8.829
8.03673
2.2396
2.07063
2.08071
2.07792
2.07774
2.08085
2.07134
2.22306
8.04622
7.36541
1.92005
1.76794
1.77635
1.774
1.77389
1.77634
1.76869
1.90656
7.37654
6.78689
1.65701
1.52075
1.52776
1.52581
1.52577
1.52764
1.52156
1.64687
6.80225
6.28594
1.43846
1.31711
1.32296
1.32135
1.32139
1.32277
1.31798
1.43179
6.30952
5.84843
1.25635
1.148
1.15289
1.15156
1.15167
1.15267
1.14889
1.25166
5.88515
5.46308
1.10384
1.00648
1.01058
1.0095
1.00966
1.01038
1.00735
1.09961
5.51487
5.12155
0.975313
0.887153
0.890624
0.889749
0.889958
0.890473
0.888055
0.971188
5.18573
4.8174
0.866323
0.785866
0.788828
0.788133
0.788389
0.788761
0.78683
0.862365
4.88837
4.54553
0.773326
0.699353
0.701912
0.701375
0.701677
0.70196
0.700416
0.769541
4.61701
4.30158
0.693457
0.625043
0.627273
0.626884
0.627229
0.627473
0.626228
0.689896
4.36887
4.08232
0.624478
0.560876
0.562834
0.562576
0.562968
0.56322
0.562193
0.621249
4.14412
3.8859
0.564616
0.505207
0.506922
0.506777
0.507223
0.507528
0.506647
0.562196
3.94234
3.71042
0.512405
0.456667
0.458172
0.458136
0.458653
0.459059
0.458253
0.5108
3.76263
3.5522
0.466643
0.414142
0.415482
0.415564
0.416173
0.416733
0.415926
0.466127
3.60167
3.40783
0.426355
0.376738
0.377953
0.37816
0.378882
0.379647
0.378761
0.428261
3.45836
3.27519
0.390748
0.343716
0.344836
0.345169
0.346019
0.34704
0.346002
0.395882
3.33181
3.15328
0.359173
0.314476
0.315507
0.315958
0.316949
0.318278
0.317019
0.367648
3.22075
3.04144
0.331086
0.288511
0.289442
0.290002
0.291146
0.292843
0.291298
0.342498
3.12393
2.93893
0.306023
0.26539
0.266208
0.266864
0.268172
0.270308
0.268415
0.319037
3.03983
2.84508
0.283596
0.244742
0.245455
0.246178
0.247661
0.250327
0.248001
0.297663
2.9665
2.75886
0.26347
0.226252
0.226866
0.227631
0.2293
0.232611
0.229818
0.278128
2.90182
2.67888
0.245348
0.209645
0.210168
0.210956
0.212828
0.216915
0.213717
0.261784
2.8447
2.60327
0.228964
0.194687
0.195127
0.195929
0.198042
0.203054
0.199797
0.25544
2.80063
2.53017
0.214086
0.181183
0.181545
0.182368
0.184824
0.19098
0.189203
0.278744
2.79665
2.45878
0.200526
0.168965
0.169257
0.170133
0.173145
0.180968
0.185365
0.35944
2.88706
2.39048
0.188174
0.157898
0.15813
0.159114
0.162972
0.173408
0.190951
0.491409
3.08191
2.32789
0.176977
0.147862
0.148047
0.149187
0.154131
0.167994
0.202551
0.625085
3.28931
2.27297
0.16694
0.138751
0.138898
0.140205
0.146314
0.163735
0.213832
0.711299
3.4101
2.22567
0.158543
0.130466
0.130576
0.132018
0.139221
0.159732
0.221132
0.735203
3.41004
2.18371
0.155509
0.123014
0.122983
0.124492
0.132585
0.155417
0.224652
0.718041
3.30466
2.14742
0.172575
0.11725
0.116054
0.117532
0.126221
0.150562
0.225078
0.693008
3.12325
2.13173
0.236174
0.116477
0.109942
0.111099
0.120058
0.14524
0.223579
0.679967
2.89012
2.16584
0.357794
0.126591
0.105403
0.10515
0.114102
0.13964
0.221463
0.678439
2.62218
2.25527
0.514062
0.15383
0.104213
0.0997803
0.108316
0.133858
0.219317
0.675171
2.33311
2.35313
0.656275
0.195433
0.1084
0.0953068
0.102689
0.12776
0.216441
0.655422
2.03749
2.41607
0.735393
0.236449
0.11752
0.0922918
0.0975327
0.121031
0.210437
0.610221
1.75131
2.39812
0.737962
0.26024
0.127455
0.0910541
0.0929165
0.114373
0.198637
0.538647
1.49083
2.2913
0.673498
0.259135
0.133021
0.0909747
0.0889311
0.108102
0.182069
0.448923
1.26959
2.13123
0.564487
0.236485
0.131523
0.0906995
0.0855333
0.102338
0.166059
0.356907
1.09534
1.96651
0.440064
0.202451
0.123853
0.0892004
0.0825051
0.0971587
0.152367
0.281054
0.968808
1.82725
0.325993
0.167324
0.112787
0.0863124
0.0796228
0.0925668
0.140909
0.227223
0.885745
1.71939
0.237058
0.137293
0.100917
0.0824246
0.07677
0.0884925
0.131376
0.189673
0.836919
1.63577
0.175674
0.114046
0.0897571
0.0780197
0.0739307
0.084865
0.123421
0.162824
0.807069
1.56687
0.137167
0.0968352
0.079954
0.0734733
0.0711228
0.0816013
0.116724
0.142132
0.778067
1.50568
0.113777
0.0841358
0.07162
0.0690168
0.0683827
0.0786714
0.111117
0.125869
0.739604
1.44807
0.104526
0.0745698
0.0647277
0.0648522
0.0657472
0.0760113
0.1062
0.112439
0.686639
72.1362
92.9316
92.8694
92.8693
92.8693
92.8693
92.8693
92.8694
92.9315
72.1331
55.7282
58.8537
58.5737
58.6448
58.6438
58.6427
58.6453
58.5683
58.8438
55.7288
44.1292
39.2512
38.8963
38.9873
38.9779
38.9768
38.9902
38.8933
39.2462
44.1387
35.6934
27.3173
26.9363
27.0263
27.0125
27.0112
27.0302
26.9351
27.3143
35.7074
29.4015
19.6998
19.314
19.3935
19.3784
19.3773
19.3979
19.3145
19.6915
29.4185
24.6062
14.6329
14.2578
14.3252
14.3105
14.3097
14.3297
14.2601
14.617
24.625
20.8852
11.1417
10.7888
10.845
10.8313
10.8305
10.8485
10.7915
11.1193
20.9022
17.9508
8.66316
8.34024
8.38592
8.37379
8.37301
8.38826
8.3421
8.6393
17.9649
15.6013
6.86014
6.56783
6.60436
6.59421
6.59347
6.60587
6.569
6.83835
15.6137
13.6938
5.52014
5.25583
5.28487
5.2767
5.27607
5.28593
5.25679
5.50145
13.7058
12.1267
4.50475
4.26534
4.28857
4.28214
4.28168
4.28947
4.2665
4.48866
12.1389
10.8265
3.72327
3.50493
3.52365
3.51857
3.51824
3.5244
3.50621
3.70761
10.8383
9.73742
3.11247
2.91235
2.92757
2.92349
2.92326
2.92814
2.91363
3.09636
9.74859
8.81739
2.62743
2.44426
2.45674
2.45341
2.45326
2.45712
2.44549
2.61155
8.82802
8.03436
2.23656
2.07
2.08028
2.07754
2.07745
2.08049
2.07116
2.22218
8.04497
7.3636
1.91771
1.76747
1.77597
1.77369
1.77366
1.77603
1.76855
1.90591
7.37552
6.78593
1.65492
1.52048
1.52753
1.52563
1.52564
1.52747
1.52149
1.64646
6.80173
6.28571
1.43653
1.31702
1.32287
1.32129
1.32135
1.32271
1.31797
1.43143
6.30947
5.84802
1.25506
1.14801
1.15289
1.15157
1.15168
1.15268
1.14891
1.25118
5.88542
5.46227
1.10313
1.00653
1.01062
1.00954
1.00969
1.01041
1.00738
1.0991
5.51504
5.12042
0.974986
0.887215
0.890674
0.889793
0.89
0.890514
0.888091
0.970926
5.18515
4.81618
0.866192
0.785929
0.78888
0.788178
0.788432
0.788803
0.786869
0.862194
4.88719
4.54438
0.773265
0.699423
0.701966
0.701422
0.70172
0.702004
0.700457
0.769407
4.61524
4.30081
0.693427
0.625119
0.62733
0.626931
0.627274
0.627521
0.626274
0.689785
4.36624
4.08222
0.624444
0.560938
0.56288
0.562619
0.563013
0.563272
0.562242
0.621096
4.14
3.88591
0.564533
0.505214
0.50694
0.50681
0.507267
0.507584
0.506699
0.561528
3.93612
3.71044
0.51228
0.456624
0.458173
0.458166
0.458699
0.459125
0.458312
0.509631
3.75643
3.55281
0.466514
0.414088
0.415488
0.4156
0.416228
0.416815
0.415995
0.464712
3.59825
3.40922
0.426246
0.376703
0.377976
0.378206
0.378946
0.379747
0.378843
0.426837
3.45682
3.27652
0.390668
0.343706
0.344876
0.345221
0.34609
0.347159
0.346095
0.394498
3.33107
3.15402
0.359115
0.314479
0.315553
0.316011
0.317025
0.318419
0.317124
0.366264
3.22024
3.04171
0.33104
0.288509
0.289489
0.290055
0.291226
0.293009
0.291407
0.341051
3.1234
2.93904
0.305984
0.265374
0.266251
0.266916
0.268256
0.270504
0.268517
0.317935
3.03921
2.8452
0.283561
0.244714
0.245481
0.246228
0.247749
0.250559
0.248104
0.296965
2.96583
2.75908
0.263437
0.226214
0.22687
0.227679
0.229392
0.232886
0.229947
0.278179
2.90117
2.67928
0.245318
0.209603
0.210152
0.211002
0.212924
0.217243
0.2139
0.262486
2.84394
2.60395
0.228939
0.194643
0.195098
0.195973
0.198149
0.203446
0.200083
0.255539
2.79849
2.53125
0.214066
0.181137
0.181507
0.182414
0.184957
0.191469
0.189727
0.274636
2.78866
2.46023
0.200511
0.168919
0.169214
0.170188
0.173326
0.181618
0.186256
0.347556
2.86721
2.39199
0.188155
0.157852
0.158087
0.159182
0.163213
0.174248
0.192048
0.474045
3.0538
2.32904
0.176942
0.147816
0.148006
0.149269
0.154424
0.168966
0.203538
0.609352
3.26564
2.27348
0.166868
0.138703
0.138856
0.140296
0.146639
0.164746
0.214458
0.702537
3.3994
2.22551
0.158305
0.130417
0.130532
0.132113
0.139556
0.160712
0.221196
0.7337
3.41303
2.18309
0.154334
0.122938
0.122937
0.124587
0.132904
0.156314
0.224336
0.720624
3.31813
2.14584
0.167961
0.116926
0.116003
0.117608
0.12651
0.151361
0.224579
0.696084
3.14357
2.12674
0.224653
0.115344
0.109837
0.111134
0.120316
0.145953
0.223106
0.68187
2.91455
2.15363
0.338928
0.123697
0.105089
0.105146
0.114335
0.140288
0.221106
0.679461
2.64873
2.23906
0.491271
0.148506
0.103394
0.0997223
0.108546
0.134457
0.219092
0.676472
2.36021
2.33763
0.638028
0.188728
0.106877
0.0951452
0.102897
0.128339
0.216394
0.658069
2.06369
2.40839
0.72711
0.230811
0.115581
0.0919659
0.0976213
0.121576
0.210767
0.614737
1.77532
2.40329
0.740305
0.257619
0.125788
0.0905824
0.0928777
0.114871
0.199394
0.54488
1.51167
2.30798
0.684062
0.259884
0.132195
0.0904929
0.088802
0.108367
0.18306
0.456101
1.28683
2.15332
0.579401
0.239598
0.131641
0.0903623
0.0853633
0.102352
0.166863
0.363699
1.10905
1.9879
0.455427
0.206452
0.124636
0.0890722
0.0823363
0.0969982
0.152975
0.286246
0.979466
1.84489
0.339074
0.171071
0.113863
0.086366
0.0794776
0.0923085
0.141343
0.230667
0.893865
1.73303
0.246736
0.140266
0.10202
0.0825979
0.0766532
0.0881896
0.131662
0.192015
0.843068
1.64643
0.182107
0.116193
0.0907546
0.078258
0.073839
0.0845455
0.123583
0.164505
0.812207
1.57569
0.141118
0.0983145
0.0807998
0.0737389
0.0710512
0.0812786
0.116779
0.143431
0.783082
1.5136
0.116133
0.0851313
0.0723076
0.0692851
0.068327
0.0783481
0.111076
0.126905
0.745054
1.45552
0.106019
0.0752649
0.0652672
0.0651037
0.0656998
0.075689
0.106089
0.113246
0.692655
)
;
    }
    inlet
    {
        type            turbulentMixingLengthDissipationRateInlet;
        mixingLength    0.071;
        phi             phi;
        k               k;
        value           uniform 2.17686;
    }
    outlet
    {
        type            inletOutlet;
        inletValue      uniform 0.0001;
        value           nonuniform List<scalar> 
20
(
1.44807
0.104526
0.0745698
0.0647277
0.0648522
0.0657472
0.0760113
0.1062
0.112439
0.686639
1.45552
0.106019
0.0752649
0.0652672
0.0651037
0.0656998
0.075689
0.106089
0.113246
0.692655
)
;
    }
    heatWall
    {
        type            epsilonWallFunction;
        value           nonuniform List<scalar> 
240
(
72.1319
72.1331
55.7261
55.7288
44.132
44.1387
35.7006
35.7074
29.4122
29.4185
24.62
24.625
20.8999
20.9022
17.9637
17.9649
15.6118
15.6137
13.7033
13.7058
12.1367
12.1389
10.8371
10.8383
9.74865
9.74859
8.829
8.82802
8.04622
8.04497
7.37654
7.37552
6.80225
6.80173
6.30952
6.30947
5.88515
5.88542
5.51487
5.51504
5.18573
5.18515
4.88837
4.88719
4.61701
4.61524
4.36887
4.36624
4.14412
4.14
3.94234
3.93612
3.76263
3.75643
3.60167
3.59825
3.45836
3.45682
3.33181
3.33107
3.22075
3.22024
3.12393
3.1234
3.03983
3.03921
2.9665
2.96583
2.90182
2.90117
2.8447
2.84394
2.80063
2.79849
2.79665
2.78866
2.88706
2.86721
3.08191
3.0538
3.28931
3.26564
3.4101
3.3994
3.41004
3.41303
3.30466
3.31813
3.12325
3.14357
2.89012
2.91455
2.62218
2.64873
2.33311
2.36021
2.03749
2.06369
1.75131
1.77532
1.49083
1.51167
1.26959
1.28683
1.09534
1.10905
0.968808
0.979466
0.885745
0.893865
0.836919
0.843068
0.807069
0.812207
0.778067
0.783082
0.739604
0.745054
0.686639
0.692655
72.1359
72.1362
55.7203
55.7282
44.1261
44.1292
35.6946
35.6934
29.4066
29.4015
24.6139
24.6062
20.8916
20.8852
17.9529
17.9508
15.5991
15.6013
13.6899
13.6938
12.1243
12.1267
10.826
10.8265
9.73867
9.73742
8.81965
8.81739
8.03673
8.03436
7.36541
7.3636
6.78689
6.78593
6.28594
6.28571
5.84843
5.84802
5.46308
5.46227
5.12155
5.12042
4.8174
4.81618
4.54553
4.54438
4.30158
4.30081
4.08232
4.08222
3.8859
3.88591
3.71042
3.71044
3.5522
3.55281
3.40783
3.40922
3.27519
3.27652
3.15328
3.15402
3.04144
3.04171
2.93893
2.93904
2.84508
2.8452
2.75886
2.75908
2.67888
2.67928
2.60327
2.60395
2.53017
2.53125
2.45878
2.46023
2.39048
2.39199
2.32789
2.32904
2.27297
2.27348
2.22567
2.22551
2.18371
2.18309
2.14742
2.14584
2.13173
2.12674
2.16584
2.15363
2.25527
2.23906
2.35313
2.33763
2.41607
2.40839
2.39812
2.40329
2.2913
2.30798
2.13123
2.15332
1.96651
1.9879
1.82725
1.84489
1.71939
1.73303
1.63577
1.64643
1.56687
1.57569
1.50568
1.5136
1.44807
1.45552
)
;
    }
}


// ************************************************************************* //
