/*--------------------------------*- C++ -*----------------------------------*\
  =========                 |
  \\      /  F ield         | OpenFOAM: The Open Source CFD Toolbox
   \\    /   O peration     | Website:  https://openfoam.org
    \\  /    A nd           | Version:  8
     \\/     M anipulation  |
\*---------------------------------------------------------------------------*/
FoamFile
{
    version     2.0;
    format      ascii;
    class       volScalarField;
    location    "900";
    object      p;
}
// * * * * * * * * * * * * * * * * * * * * * * * * * * * * * * * * * * * * * //

dimensions      [1 -1 -2 0 0 0 0];

internalField   nonuniform List<scalar> 
1200
(
88198.5
85069.6
83609.5
83088.4
82738
82450.2
82239.5
82224.5
82328.6
82267.3
81995
81706
81489
81264.1
80993.9
80702.5
80442.8
80286.8
80306.2
80416.5
80465.2
80485.3
80513.8
80386.3
79860.5
79009.3
78236.1
77687.9
77369.2
77011
76442.5
75692.2
74805.7
73798.5
72700.9
71548.6
70308.5
68992.4
67566.4
65914.2
63969.7
61821.8
59546.6
57173.3
54711.9
51829.6
47984.4
43794.7
39875
35841.2
31273.3
26147.6
20710.9
15187.3
10329.9
6248.93
3646.28
1004.56
789.829
-3198.01
80941
81370.3
81492.1
81631.4
81685.8
81589.2
81486.8
81574.6
81791.6
81824.1
81595.7
81355
81155.1
80936.5
80672.1
80383
80119.8
79955.7
79966.9
80076.9
80131
80158.8
80201.8
80104.5
79629.8
78799.3
78009.7
77470.6
77184.7
76879.7
76364.8
75653.2
74798.2
73816.2
72740.5
71605
70376.1
69066.8
67649
66002.5
64064.2
61946.4
59750.5
57542.4
55386.3
52773.9
48873.5
44283.4
40182.2
36216.1
31869.9
26931.4
21594.8
16103.4
11235
7116.37
4441.62
1704.24
1356.26
-2903.17
81900.9
82972.5
83117.7
82866.8
82567.2
82291.8
82086.3
82009.7
82057.3
81981.3
81717.1
81420.9
81184.1
80934.2
80631.2
80291.4
79966.8
79741.6
79707.9
79797.3
79853.3
79893.3
79958.5
79900.8
79466.5
78651.7
77849.6
77302.1
77006.5
76679
76142.2
75403.8
74520.1
73503.2
72402.6
71256.3
70038.4
68760.1
67386.1
65757.7
63786.8
61597
59291.6
56889.5
54470
51725.1
48379.1
44774.6
40865
36359
31141.8
25297
19273.7
13489.9
8727.05
4998.34
2785.71
460.377
511.418
-4183.92
81703.7
82128.3
82019.8
81745.6
81543.3
81369.5
81185.5
81187.4
81365.8
81420.2
81240.8
80989.4
80777.5
80550.2
80267.5
79942.5
79622.9
79393.7
79353.1
79440.9
79500.3
79542.1
79612.3
79580.4
79194.1
78421
77622.6
77064.6
76758.1
76433.1
75913.4
75212.2
74372.9
73389.9
72310.9
71180.9
69985.3
68742.6
67414.6
65783.8
63746.4
61491.3
59174.3
56803.7
54396.7
51610.8
48104.5
44320.1
40474.4
36126.5
31084.3
25444.4
19774.9
14426.5
9961.39
6267.11
3810.93
1153.77
749.849
-4141.61
81553.9
81928.4
82021.3
81892.6
81752.2
81597.6
81393
81320.4
81403.7
81403.1
81212
80950.8
80717.9
80469.5
80163.1
79800.8
79425.7
79133.2
79040.5
79099.1
79150.8
79191.1
79264.4
79260.9
78940
78242.5
77476.3
76906.5
76559.9
76194.1
75656.5
74955
74119.2
73130
72055.2
70941.2
69787
68621.3
67407.4
65829
63728.3
61348.8
58876.3
56317
53759.4
51056
48003.9
44516
40614.7
36032.6
30565.2
24474.1
18516.8
13104.2
8759.95
5305.71
3076.53
700.362
325.792
-3782.05
81342
81706.6
81818.2
81703.3
81576.1
81436.5
81228.5
81129.4
81188.1
81192.5
81025.7
80773.6
80528.1
80261.8
79932.6
79533.5
79102.8
78747.3
78600.9
78628.1
78666.4
78698.4
78768.2
78787
78540.4
77950.5
77255.5
76707.1
76340.5
75939.9
75381.4
74678.9
73851.7
72876.8
71816.7
70715.4
69585.7
68456.4
67300.5
65704.9
63455
60903.1
58312.8
55616.1
52904.5
50084
46932.8
43404.5
39447.5
34644.8
29179.3
23181.9
17693.7
12954.7
9142.02
5919.09
3610.78
1066.48
326.989
-3187.06
81064.6
81444.1
81382.9
81135
80959.5
80827.5
80631.7
80554.9
80663.1
80741.6
80649.7
80445.6
80220.3
79968.9
79656.4
79269.6
78841.6
78481.5
78335.8
78373.9
78431
78476.9
78551.9
78585.5
78394.2
77899.5
77266.2
76727
76318.4
75848.4
75228.2
74487.5
73619.9
72609.4
71544.9
70467.5
69393
68334.4
67318
65848.9
63543.7
60857.9
58169.9
55544.6
52935.3
50190.7
47081.8
43516.4
39435.5
34585.1
28898.8
22904.3
17386.4
12777.3
9243.71
6276.73
4141.64
1691.74
914.758
-2334.65
80863.2
81851.7
82023.3
81835.9
81626.5
81423.4
81151.5
80956.1
80909.5
80868.2
80713.9
80472.1
80205
79909.7
79548.7
79100.2
78595.1
78160.2
77963.1
77987.8
78058.5
78135.4
78256.1
78358.5
78278.1
77925.8
77388.5
76908.3
76512.4
76014.9
75363.1
74608.3
73734.6
72672.2
71555.8
70441.1
69369.5
68368.9
67481.4
65963.2
63301.1
60265.5
57391.6
54061
50876.8
47925.4
44917.8
41555.9
37577.4
32514.1
26609.5
20327.7
15469
11614.6
8664.21
5948.1
3865.81
1285.6
514.247
-2826.51
79436.3
79860.9
80069.4
80221.3
80304.6
80330.5
80208.3
80137.3
80217.9
80295.8
80240.4
80066.8
79839.8
79576.4
79250.9
78844.5
78389.9
78013.7
77886.1
77982.5
78120.2
78255.7
78425.8
78569.7
78535.7
78241.4
77688.4
77170.3
76734.1
76189.3
75497.5
74721
73829.3
72837.2
71813
70827.9
69973.2
69345.6
68924.1
67486.6
64388.6
60957.1
57993.9
55398.2
52803.6
50028.7
46934.9
43376.3
39173.2
34012.6
28026
21630.7
16149.2
12385.4
9847.55
7420.04
5513.32
2670.97
1907.03
-2439.28
86397.3
83056
81727.9
81288.2
81022.3
80820.2
80563.2
80386
80360.9
80354.8
80247.7
80043.4
79794.2
79516.3
79182.2
78770
78311.1
77941
77831.6
77960.4
78136.7
78310.2
78513.9
78683.5
78661.3
78358.7
77784.9
77195.4
76662.9
76010.1
75225.4
74377.9
73419.8
72336.6
71245.1
70202.6
69324.6
68751
68617.8
67297.6
63806.7
59890.6
56561.6
53513.9
50669.8
47869.9
44876.5
41444
37351.7
32289.4
26435.9
20211.8
15014.9
11184.4
8490.87
5971.79
4088.11
1284.11
647.347
-3325.76
88202.6
84846.3
83509
83116.5
82901
82784.8
82610
82318
81999.4
81839
81841.1
81822.4
81732.8
81618.8
81498.8
81352.6
81164.3
80937.2
80649.6
80341.8
80102.4
79846
79511.4
79106.9
78755.6
78507.5
78197.5
77692.6
77003.3
76359.7
75752
75057.2
74249.6
73345.9
72370.6
71347.4
70297.7
69132
67727
65956.1
63787.1
61365.2
58923.1
56500.6
53996.4
51017.5
47072.4
42839.5
38907.7
34831.2
30322.2
25417.8
20314.9
15189.5
10620.2
6803
4291.6
1737.86
1425.27
-2763.81
80940.5
81251.6
81442.7
81665.5
81815.2
81858.4
81812.1
81677.5
81503
81430
81452.9
81466.9
81396
81306.2
81231.4
81148.4
81031.2
80868.8
80620.9
80321.8
80067.9
79780.7
79400.9
78945.5
78544.5
78281.4
77961.6
77458.6
76794.1
76177
75592.9
74901.4
74084.3
73167.9
72180.3
71147.5
70089.9
68918.7
67508.7
65725.7
63533.3
61092.7
58667
56322.6
53959.8
51004.5
46777.7
42082.3
37995.6
34027
29726.9
24947.3
19877.6
14755.2
10196.6
6410.03
3915.45
1386.09
1029.91
-3188.13
81910.9
82812.2
82989.2
82848
82682
82595.9
82527.1
82235.8
81832.6
81585.6
81537.2
81507.6
81421.6
81321.2
81223.1
81097.8
80925.7
80708.1
80417.6
80093.8
79833
79554.6
79197.2
78771.5
78387.8
78119.5
77797.9
77309.2
76663.4
76044.4
75442.8
74728.6
73891.4
72954.4
71947.8
70906.7
69852.8
68700.1
67318.3
65543.6
63316.6
60812.2
58306.4
55832.1
53308.2
50339.8
46718.8
42973.5
39086.9
34655.4
29617.7
24067.6
18404.3
13011.7
8499.24
4980.28
2780.31
546.138
385.616
-4044.64
81734.2
82055.9
81988
81787.6
81653.6
81583.6
81503.3
81348.1
81155.8
81067.1
81076
81067.8
80999.4
80922.7
80855.8
80775.3
80659
80494.3
80239.2
79927.3
79662.1
79373
79004.8
78569.5
78168.6
77871.6
77535
77060.5
76448.3
75848.2
75245.6
74548.4
73746.2
72840.6
71852.1
70826.4
69791.3
68671.7
67328.8
65541
63228.8
60630.5
58090.7
55644.4
53168.1
50264
46647
42804.2
38902.6
34433.9
29334.6
23803.1
18378.8
13382.6
9194.9
5792.24
3445.05
1015.8
443.994
-3964.84
81610.2
81905.8
81997
81914.1
81826.8
81774.7
81739.3
81575.6
81294.7
81103.5
81040.5
81008.1
80942.1
80875.7
80816.1
80736.8
80616.9
80443.1
80176.3
79851.3
79578
79286.5
78919.4
78483.8
78069.5
77751.2
77405.9
76932
76319.4
75703.8
75078.9
74366.3
73564.6
72658.1
71677.4
70671.5
69676.6
68639.1
67419.8
65692.6
63318.2
60595.2
57914.5
55292.4
52657.3
49797.9
46599.4
43099.2
39243.4
34621.9
29185.1
23227.4
17496.5
12391.7
8237.47
4958.4
2700.73
474.744
-177.081
-3614.39
81424.1
81740.3
81830.5
81752.9
81664.5
81595.1
81571.3
81427.9
81155.1
80952.3
80865.2
80819
80753.9
80687.5
80621.4
80533.7
80405.6
80220.8
79937.6
79593.1
79304.1
79006.8
78647.8
78232
77834.5
77521.6
77186.4
76732.3
76150.6
75556.2
74941.8
74239.6
73454.4
72551.9
71563.4
70545
69548.1
68533.3
67367.3
65623.8
63105
60211.6
57409.6
54589.8
51756.2
48786.7
45543.6
42063
38216.1
33392.9
27943.1
22101.3
16775.9
12259.7
8591.34
5550.54
3239.38
907.145
-112.748
-2823.53
81166.9
81511.1
81386.1
81149.3
80987.1
80888
80872.2
80798.4
80637.6
80524.7
80484.9
80467.3
80434.3
80399.9
80369.8
80331
80266.2
80144.7
79911.7
79594.6
79319.4
79025.1
78660
78229.6
77801.6
77445.4
77070.2
76574.4
75966.2
75349.5
74720.7
74013.2
73231.8
72334.5
71366.2
70382.6
69437
68497.7
67510
65966.7
63470.9
60484.7
57566.7
54786.4
52089.5
49254.9
46061.4
42455
38340.9
33386.8
27617.6
21666.2
16341
11987.1
8583.34
5751.3
3539.86
1276.23
177.071
-2123.03
81002.3
82045.2
82160.6
81972.2
81747.1
81534.6
81466.9
81318.5
81010.5
80739.6
80582.9
80500.4
80437
80375.1
80304.6
80207.6
80064.7
79853
79531.7
79145.8
78825.9
78514.1
78160.6
77770.1
77395.8
77082.9
76751.4
76291.7
75726.8
75139.5
74534.7
73848.6
73110.8
72221.3
71214.2
70176.1
69197.7
68292.7
67449.4
65901.3
63085.6
59779.3
56764.8
53397.6
50177.3
47113
43974.1
40532.2
36485.4
31307.9
25374
19259.2
14571
10970.4
8169.61
5635.14
3492.42
1147.26
-20.7855
-2273.6
79520.1
79946.4
80104.5
80272
80346.5
80358.3
80426.7
80423.7
80297.1
80177.5
80115.9
80090.8
80072.8
80052.1
80031.3
80006.5
79963.2
79859.4
79630.4
79298.6
79002
78686.3
78303.8
77861.2
77419.7
77039
76654.2
76126.5
75523
74925
74327.5
73651.1
72890.3
72020.4
71065
70145.4
69392.6
68873.2
68492.9
67027.4
63809.6
60157.1
57044.8
54094.1
51156.5
48109.9
44839
41213.5
36984.7
31772.8
25865.4
19730
14565.5
11104.1
8703.18
6446.69
4442.14
1948.08
760.42
-2204.08
86602
83225
81801.7
81365.7
81069.6
80826.4
80758
80645.8
80403.5
80186.4
80057.8
79990.6
79942.3
79883.7
79805.1
79696.6
79541.4
79312.4
78968.9
78562.5
78234.1
77923.6
77585.7
77227.7
76896.8
76616.4
76328.4
75874.6
75324.4
74735.4
74107.3
73383.9
72587.2
71692.9
70748
69870.6
69203.1
68781.7
68561.9
66977.7
63234.3
59149.5
55852.2
52900.3
50094.2
47256.8
44173.7
40666.6
36506.5
31348.2
25474.8
19370.7
14395.4
10872.2
8314.04
5942.25
3872.57
1320
91.0176
-2574.77
)
;

boundaryField
{
    wall
    {
        type            calculated;
        value           nonuniform List<scalar> 
1200
(
88195.7
80940.9
81895.6
81688.1
81525.4
81300.7
81013.2
80793.4
79394.3
86294.9
85182.6
81430.4
83053.5
82164.9
81939.8
81689.6
81410.2
81754.2
79817.7
82970.6
83660.7
81517.4
83182.9
82036
82033.7
81812
81381.2
81954.1
80051.6
81690.6
83075.2
81615
82877.2
81724.9
81882.2
81678.5
81127.8
81767
80195.5
81248.8
82657.1
81621.5
82510.7
81488.6
81715.4
81532.2
80945.9
81565.7
80283.4
80998.2
82282.3
81454.2
82140.1
81262.5
81509.7
81357.8
80798
81368.3
80317.2
80817.7
82052.6
81322.8
81864.8
81025.5
81219.2
81056.5
80511.2
80993.6
80099.1
80465.9
82176.6
81521.9
81895.4
81105.6
81191.4
80978.7
80431.9
80773.5
79993.3
80255.4
82493.8
81936.5
82170
81470.8
81457.9
81203.8
80675.1
80857.8
80177.5
80338.9
82483.1
82022.7
82180.7
81597.8
81553.5
81312.8
80850
80931.9
80354.6
80438.9
82073.2
81668.3
81808.2
81324.1
81298.5
81106.3
80732.5
80779.3
80302.8
80343
81648.4
81299.7
81378.2
80950.6
80922.6
80751.2
80435.1
80457.9
80055.2
80070.4
81367.3
81035.2
81066
80667.1
80606.2
80415.6
80113.5
80089
79723.6
79720.7
81086.9
80752.1
80741.3
80364.4
80266.9
80049.1
79753.3
79676.8
79338.6
79333
80741.3
80392.8
80335.7
79973.5
79836.7
79587.8
79299.1
79169.9
78860.4
78870.8
80377.2
80000.6
79888.4
79525.9
79332.2
79032
78737.3
78544.7
78262.4
78306.3
80081.9
79664.5
79487.6
79104.2
78828.7
78448.8
78126
77856.9
77601
77694.6
79961.6
79499.7
79258.6
78842.4
78475.9
78006.4
77644.8
77308.7
77087.5
77253.4
80135.4
79641.5
79354
78909.5
78470.1
77927.8
77541.9
77173.2
77010.8
77262
80455.5
79957.2
79651.3
79198.2
78721.3
78141
77757.6
77403.9
77322.9
77660.4
80647.9
80165.4
79865.7
79419.9
78935.3
78342.2
77979.9
77669.5
77678.7
78090.3
80805.5
80350.1
80064.5
79626.8
79140.9
78537.7
78194.3
77940
78040.3
78506.3
81015.5
80604.8
80341.4
79916.6
79434.6
78821.1
78488.2
78297.1
78487.9
78981.5
81027.5
80688
80469.2
80088
79648.7
79057.7
78753.5
78646.1
78926.6
79415.9
80414.9
80176.9
80010.2
79709.9
79375.8
78887.2
78680.5
78712.9
79098.3
79548.7
79260.6
79060.1
78920.2
78697.5
78488.1
78158
78115.5
78340.7
78848.4
79234.6
78254
78033.1
77875.5
77666.4
77509.9
77281.7
77351.8
77699.9
78211.5
78516
77683
77474.8
77297.4
77065.5
76891.4
76685.2
76790.1
77209.4
77700
77857.6
77550.6
77379.6
77178
76912.6
76678.3
76426.7
76481.5
76898.3
77348.7
77334.2
77336.4
77231.6
76997
76725.7
76437.9
76123.5
76084.8
76445.3
76830.5
76649.5
76788.1
76752
76492.6
76247.7
75944.1
75593.2
75468.6
75769.1
76090.2
75786
76010.1
76030.4
75742.4
75544.7
75248.4
74891.1
74711.1
74979
75262.7
74876.1
75084
75156.3
74835.5
74687.2
74395.8
74044
73800.1
74034.8
74304.3
73835.6
74024.8
74141.3
73778.8
73665.6
73365.4
73034.1
72733.3
72885.7
73250.2
72657.6
72865.8
73021.5
72631.2
72541.4
72243.7
71939.3
71621.3
71715.7
72192
71491
71648.9
71834.6
71432.4
71359.4
71075.8
70797.6
70497.8
70564.6
71174.9
70363.9
70313
70519.6
70132.1
70083.2
69841.9
69601.7
69359.9
69448.2
70269.3
69382.1
68921
69140.8
68790.5
68778.8
68611.8
68415.2
68242.5
68399.1
69585.8
68744.5
67483.9
67718.6
67420
67458.5
67400.8
67264.4
67213.3
67488.3
69139.8
68668
65891
66140.3
65864.4
65906.3
65896.9
65742.9
65782.8
65987.3
67713.6
67474.1
64058.8
64329.6
64021.4
64006.6
63933.2
63627.4
63573.9
63405.9
64675.5
64090.6
62048.6
62374.3
61989
61923.9
61726.1
61247.1
61039.7
60508.6
61356.7
60248.5
59857.3
60295.4
59784.1
59718.5
59357.5
58763.1
58467.6
57706.1
58469.9
56904.6
57509.1
58161.5
57419.4
57384.5
56828.5
56127.1
55919.5
54394.6
56050.6
53812.6
55069
56118
55055.3
55010.1
54308.9
53477
53353.9
51228.2
53627.5
50952.7
52233.8
53677.6
52426.2
52281.3
51683.7
50731.9
50653.4
48331.9
50987.7
48173.7
48440.9
49931.1
49218.2
48835.5
48705
47628
47586.1
45386.8
47981.9
45227
44281.5
45388.4
45674
45087.3
45222.6
44076.2
44040.1
42061.9
44456.4
41832.7
40370.5
41277.7
41740
41270.6
41299
40064.4
39974.1
38115.9
40265.3
37773.8
36350.8
37310.2
37188.4
36979.8
36735.4
35273.1
35177.3
33111.2
35128
32759.6
31743.4
32938.2
31880
31960.7
31250.8
29802.2
29535
27226.2
29097.5
26916.7
26502.5
27918.3
25892.2
26261.8
25092.6
23726.7
23523.2
20865.4
22569.6
20634.8
20900.1
22446.2
19695.6
20465.3
19023.2
18154.9
17910.8
15918.1
16940.4
15326.2
15180.8
16768
13723.4
14938.1
13459.4
13301.2
13175.1
11934.5
13028.7
11341.9
10182.2
11742.6
8841.51
10333.2
9022.99
9414.06
9577.41
8908.7
10422
8582.26
5972.02
7457.7
5012.6
6494.11
5483.04
6099.22
6543.56
6102.29
7907.88
5990.81
3323.12
4691.43
2793.94
3983.44
3267.48
3792.24
4446.98
4051.68
6048.66
4201.49
642.528
1855.74
426.59
1217.2
817.439
1143.95
1904.25
1355.76
3031.02
1272.36
466.128
1503.58
569.821
889.908
574.802
543.285
1287.54
785.186
2480.19
933.329
-3399.11
-2753.64
-4238.87
-4220.91
-3857.11
-3366.73
-2435.59
-3103.94
-2551.78
-3698.94
88205.3
80940.6
81916.1
81749.8
81638.7
81465.5
81218.3
81072.1
79562.1
86704.4
84733.2
81191.5
82731.2
82019.3
81894.3
81757.3
81544.9
82142.8
79989.6
83310.4
83457.8
81417.4
82924
81971.7
81984.6
81836.6
81387.8
82229.9
80122.2
81839
83129.6
81681.9
82837.6
81808.3
81924.6
81777.7
81156.5
82041.1
80297.8
81405
82982
81879.5
82738.5
81708.3
81863.6
81708.4
81000.7
81807.8
80367.7
81093.6
82952.8
81993.4
82747.6
81690.7
81862.7
81673.7
80917.5
81589.5
80371.5
80828.7
82797
81976.1
82748.8
81663.4
81913.1
81743.3
80992.7
81624.7
80535.8
80855.2
82366.1
81730.2
82350.4
81429.9
81704.6
81578.6
80921.4
81500.9
80567.7
80776.2
81834.2
81358.1
81719.9
81050.8
81240.4
81139.3
80625.6
81061.8
80337.4
80425.3
81623.2
81231.4
81386.3
80889.4
80952.9
80831.9
80416.1
80675.4
80118.5
80102.1
81762.9
81380.3
81446.2
80992.7
80954
80784.4
80402.1
80517.1
80053.3
79962.3
81880.1
81522.3
81550.4
81106.6
81036.3
80841.3
80477.8
80514.1
80102.3
79963.5
81854.6
81515.9
81539.8
81109.9
81053.8
80866.3
80541
80552.6
80188.9
80015.7
81796.1
81490.7
81514.2
81108.5
81078.4
80900.2
80615.4
80607.6
80289.7
80067
81751.6
81510.9
81519
81150
81142.7
80966.2
80727
80683
80421.6
80116.5
81678.3
81531.2
81501.3
81192.1
81205.6
81035
80863.2
80762.5
80588.4
80160.3
81525.5
81487.1
81405.7
81178
81214.1
81059.4
80981.3
80801.9
80751.7
80157.9
81262.7
81325.5
81192
81045.8
81100.3
80960.9
80980.3
80702.9
80784.9
79999.7
80820.8
80947
80772.3
80682.7
80746
80609
80703.4
80319
80504.3
79538
80303.1
80442.5
80240.7
80169.7
80227.9
80077.5
80207.5
79726.1
79956.2
78861.7
79920.4
80035
79821.8
79742.4
79792.1
79624.7
79766
79210.6
79441.6
78280.2
79526.5
79591.1
79384.9
79288.3
79335
79163.2
79302
78704.7
78900.2
77727.9
79010.3
78999.7
78815.8
78700.5
78747.2
78589.7
78716.7
78114
78240.8
77119.1
78466.1
78363.7
78204.7
78062
78094
77955.1
78053.2
77476.3
77504
76497
78201.2
77999.1
77845.7
77653.2
77631.7
77481
77505.5
76954
76857.8
76011.4
78256.2
78021.8
77852.5
77595.8
77504.1
77307.2
77218.5
76660.6
76433.8
75742.6
78179.7
77939
77773.2
77492
77371
77152.8
76972.6
76432.2
76133.8
75598.6
77697.5
77455.1
77315
77060.3
76945.6
76746.1
76498.2
75982.3
75600.2
75212.5
76821.9
76599.8
76493
76294.3
76199.3
76055.7
75788.9
75332
74912.5
74653.2
76034.3
75825.2
75727
75555.8
75458.2
75363.5
75098.4
74700
74288.6
74096
75406.3
75205.8
75092.5
74911.4
74789.5
74721.1
74465.7
74119.2
73739.7
73546.8
74739.4
74524.3
74390.1
74215.9
74071.2
74018.6
73775.3
73468.1
73113.6
72885.8
73971.4
73726.2
73576
73432
73286.4
73253.8
73037.6
72800.3
72418.2
72171.4
73119.6
72842.9
72678.8
72564.9
72421.2
72386.9
72196.9
71996.4
71607.9
71371.9
72205.7
71899.3
71719.2
71621.6
71487.5
71433.9
71276.5
71042.2
70686
70502.1
71247.1
70918
70730.7
70647.9
70535.7
70456.9
70339.6
70040.7
69798.4
69709.3
70293.2
69946.4
69759.1
69693.3
69620.5
69527.1
69458.7
69108.8
69096.5
69145.6
69203.4
68844.7
68669.8
68635.5
68647.4
68570
68580.7
68255.7
68632.7
68788.1
67809.5
67439.1
67284.4
67285
67424.8
67398.9
67609.4
67440.6
68275.6
68511.4
65979.3
65587.9
65436.8
65418.5
65622.7
65581.4
66030.6
65880
66797.1
66800.9
63697.9
63267.9
63082.1
62968.6
63111.2
62928.7
63439.3
62985.8
63519.2
62950.1
61138.3
60664.7
60420.2
60197.9
60216.3
59864.4
60300.6
59540.6
59755.1
58791.5
58612.3
58122
57813.9
57546.5
57432.5
56956.8
57265.4
56452.7
56567.6
55509.2
56164.6
55703.3
55302.1
55063.6
54781
54077.2
54406.8
53063.4
53441.1
52601.7
53638.8
53227.9
52722.8
52554.6
52108.2
51182.6
51665.1
49824.6
50332.3
49811.3
50612.5
50100.4
49638.7
49593.5
49170.2
48137.9
48785.3
46705.6
47150.7
46953
46615.1
45719.7
45879.6
45915.9
45898.3
44848
45549.5
43504.6
43792.1
43823.3
42352.4
40977.1
42074
42036.9
42392.6
41391.6
41923.3
40026.2
40133.7
40277.9
38412.1
36900
38211.8
38106.3
38559.1
37600.4
37794.3
35947.3
35893
36084.5
34321.4
32932.9
33825.8
33580.5
33919.1
32764.6
32787
30711.5
30658
30878.1
29852
28658.6
28879.5
28458.2
28499.4
27320.2
26976.9
24758
24794.6
24994.2
25062.8
23960.4
23472.6
22985.6
22608.9
21556.6
21047.3
18721.9
18791.9
18947.9
20125.7
19026.3
17982.6
17688.5
16990.1
16314.7
15816.6
14122.1
13774.9
14084.2
15196
14090.7
12778.4
12871.2
12036.5
11913.2
11589.3
10650.7
10461.3
10714.7
10768
9689.21
8385.02
8823.21
7974.47
8319.3
8249.64
7925.2
8129.04
8222.71
7079.92
6068.86
4966.24
5565.4
4781.12
5370.41
5484.47
5481
5959.11
5923.24
4614.78
3665.84
2772.28
3272.7
2509.84
3057.92
3234.52
3306.61
3907.04
3759.15
2099.9
1234.81
580.088
952.528
357.743
829.678
1063.72
1077.16
1588.24
1331.71
1749
882.854
327.368
304.102
-426.001
-329.036
-195.704
-291.607
187.416
-195.002
-2562.72
-3337.47
-3989.56
-3885.4
-3539.24
-2643.85
-2022.09
-1996.1
-2091.51
-2201.58
)
;
    }
    inlet
    {
        type            calculated;
        value           nonuniform List<scalar> 
20
(
88198.5
80941
81900.9
81703.7
81553.9
81342
81064.6
80863.2
79436.3
86397.3
88202.6
80940.5
81910.9
81734.2
81610.2
81424.1
81166.9
81002.3
79520.1
86602
)
;
    }
    outlet
    {
        type            calculated;
        value           nonuniform List<scalar> 
20
(
-97.7529
-292.921
-488.026
-683.158
-878.311
-1073.52
-1269
-1465.08
-1661.65
-1858.49
-97.7528
-292.921
-488.027
-683.158
-878.311
-1073.52
-1269.01
-1465.06
-1661.63
-1858.49
)
;
    }
    heatWall
    {
        type            calculated;
        value           nonuniform List<scalar> 
240
(
86299.8
86504.4
82958.4
83127.4
81630.3
81704.2
81190.6
81268.1
80924.7
80972
80722.6
80728.8
80465.7
80660.4
80288.5
80548.2
80263.3
80305.9
80257.2
80088.8
80150.1
79960.2
79945.8
79893
79696.6
79844.7
79418.8
79786.1
79084.6
79707.5
78672.4
79599
78213.5
79443.8
77843.4
79214.8
77734.1
78871.3
77862.8
78464.9
78039.2
78136.5
78212.6
77826
78416.3
77488.1
78586
77130.1
78563.7
76799.2
78261.1
76518.8
77687.3
76230.8
77097.8
75777
76565.3
75226.8
75912.5
74637.8
75127.8
74009.7
74280.3
73286.4
73322.2
72489.6
72239
71595.3
71147.5
70650.4
70105
69773
69227
69105.5
68653.4
68684.1
68520.1
68464.2
67199.9
66880
63709
63136.6
59792.9
59051.8
56463.9
55754.5
53416.2
52802.5
50572
49996.4
47772.1
47159
44778.7
44075.9
41346.2
40568.7
37253.9
36408.7
32191.6
31250.4
26338.1
25377
20114
19272.9
14917.1
14297.5
11086.6
10774.3
8393.05
8216.22
5873.97
5844.43
3990.29
3774.75
1186.29
1222.18
549.53
-6.79969
-3423.58
-2672.59
88296
88300.2
85167.2
84943.9
83707.1
83606.6
83185.9
83214
82835.6
82998.6
82547.8
82882.4
82337.1
82707.6
82322.1
82415.6
82426.1
82097
82364.9
81936.6
82092.6
81938.7
81803.6
81920
81586.6
81830.4
81361.7
81716.4
81091.5
81596.4
80800.1
81450.2
80540.4
81261.8
80384.4
81034.7
80403.8
80747.2
80514.1
80439.4
80562.8
80200
80582.9
79943.6
80611.4
79609
80483.9
79204.5
79958.1
78853.2
79106.9
78605.1
78333.7
78295.1
77785.4
77790.2
77466.7
77100.9
77108.6
76457.3
76540.1
75849.5
75789.8
75154.8
74903.3
74347.2
73896.1
73443.4
72798.5
72468.2
71646.2
71445
70406.1
70395.3
69090
69229.6
67664
67824.6
66011.8
66053.7
64067.3
63884.7
61919.4
61462.8
59644.2
59020.7
57270.9
56598.2
54809.4
54094
51927.2
51115.1
48082
47170
43892.3
42937.1
39972.7
39005.4
35938.9
34928.8
31371
30419.9
26245.3
25515.6
20808.6
20412.6
15285.1
15287.2
10427.7
10718
6346.68
6900.74
3744.03
4389.34
1102.31
1835.61
887.58
1523.03
-3100.25
-2666.06
)
;
    }
}


// ************************************************************************* //
