/*--------------------------------*- C++ -*----------------------------------*\
  =========                 |
  \\      /  F ield         | OpenFOAM: The Open Source CFD Toolbox
   \\    /   O peration     | Website:  https://openfoam.org
    \\  /    A nd           | Version:  8
     \\/     M anipulation  |
\*---------------------------------------------------------------------------*/
FoamFile
{
    version     2.0;
    format      ascii;
    class       volScalarField;
    location    "900";
    object      T;
}
// * * * * * * * * * * * * * * * * * * * * * * * * * * * * * * * * * * * * * //

dimensions      [0 0 0 1 0 0 0];

internalField   nonuniform List<scalar> 
1200
(
303.15
303.15
303.151
303.146
303.141
303.137
303.133
303.129
303.125
303.122
303.119
303.115
303.112
303.109
303.106
303.103
303.1
303.098
303.095
303.093
303.09
303.088
303.085
303.083
303.081
303.079
303.076
303.074
303.072
303.07
303.068
303.066
303.064
303.063
303.061
303.06
303.059
303.058
303.056
303.055
303.054
303.05
303.04
303.007
302.911
302.683
302.226
301.486
300.581
299.752
299.141
298.727
298.432
298.197
298.003
297.847
297.725
297.633
297.565
297.506
303.15
303.15
303.15
303.15
303.15
303.15
303.15
303.149
303.149
303.149
303.149
303.149
303.149
303.149
303.148
303.148
303.148
303.148
303.148
303.148
303.148
303.148
303.148
303.148
303.148
303.148
303.148
303.148
303.148
303.147
303.147
303.147
303.147
303.147
303.147
303.147
303.147
303.147
303.146
303.146
303.143
303.13
303.071
302.877
302.463
301.927
301.49
301.24
301.121
301.07
301.056
301.069
301.102
301.146
301.193
301.234
301.268
301.295
301.319
301.31
303.15
303.15
303.15
303.15
303.15
303.15
303.15
303.15
303.15
303.15
303.15
303.15
303.15
303.15
303.15
303.15
303.15
303.15
303.15
303.15
303.15
303.15
303.15
303.15
303.15
303.15
303.15
303.15
303.15
303.15
303.15
303.15
303.15
303.15
303.15
303.15
303.15
303.15
303.15
303.15
303.149
303.149
303.148
303.138
303.09
302.956
302.716
302.421
302.165
302.002
301.93
301.923
301.96
302.026
302.111
302.204
302.297
302.38
302.449
302.499
303.15
303.15
303.15
303.15
303.15
303.15
303.15
303.15
303.15
303.15
303.15
303.15
303.15
303.15
303.15
303.15
303.15
303.15
303.15
303.15
303.15
303.15
303.15
303.15
303.15
303.15
303.15
303.15
303.15
303.15
303.15
303.15
303.15
303.15
303.15
303.15
303.15
303.149
303.149
303.147
303.145
303.143
303.14
303.139
303.136
303.124
303.081
302.992
302.862
302.729
302.633
302.588
302.592
302.632
302.694
302.759
302.817
302.859
302.882
302.881
303.15
303.15
303.15
303.15
303.15
303.15
303.15
303.15
303.15
303.15
303.15
303.15
303.15
303.15
303.15
303.15
303.15
303.15
303.15
303.15
303.15
303.15
303.15
303.15
303.15
303.15
303.15
303.15
303.15
303.15
303.149
303.149
303.148
303.147
303.146
303.144
303.141
303.136
303.127
303.113
303.095
303.075
303.057
303.042
303.032
303.028
303.029
303.031
303.027
303.009
302.979
302.947
302.927
302.924
302.935
302.955
302.977
302.997
303.011
303.012
303.15
303.15
303.15
303.15
303.15
303.15
303.15
303.15
303.15
303.15
303.15
303.15
303.15
303.15
303.15
303.15
303.15
303.15
303.15
303.15
303.15
303.15
303.15
303.15
303.15
303.149
303.148
303.147
303.144
303.14
303.134
303.126
303.115
303.1
303.081
303.056
303.022
302.972
302.902
302.818
302.731
302.655
302.593
302.547
302.518
302.502
302.494
302.495
302.505
302.526
302.561
302.606
302.657
302.708
302.757
302.804
302.847
302.885
302.917
302.937
303.15
303.15
303.15
303.15
303.15
303.15
303.15
303.15
303.15
303.15
303.15
303.15
303.15
303.15
303.15
303.15
303.15
303.15
303.15
303.15
303.15
303.15
303.15
303.149
303.147
303.144
303.136
303.123
303.101
303.068
303.023
302.966
302.895
302.81
302.709
302.593
302.462
302.324
302.187
302.062
301.951
301.858
301.783
301.724
301.678
301.644
301.619
301.601
301.593
301.605
301.633
301.681
301.744
301.814
301.884
301.949
302.009
302.062
302.111
302.148
303.15
303.15
303.15
303.15
303.15
303.15
303.15
303.15
303.15
303.15
303.15
303.15
303.15
303.15
303.15
303.15
303.149
303.149
303.15
303.15
303.15
303.15
303.15
303.149
303.146
303.14
303.128
303.109
303.08
303.04
302.987
302.922
302.844
302.751
302.645
302.532
302.424
302.338
302.277
302.219
302.148
302.067
301.98
301.857
301.703
301.529
301.336
301.127
300.914
300.727
300.612
300.575
300.57
300.572
300.568
300.552
300.518
300.463
300.371
300.258
303.15
303.15
303.15
303.15
303.15
303.15
303.15
303.15
303.15
303.149
303.149
303.149
303.149
303.149
303.149
303.149
303.148
303.148
303.148
303.148
303.149
303.149
303.149
303.149
303.149
303.149
303.148
303.147
303.145
303.144
303.142
303.141
303.141
303.14
303.139
303.136
303.127
303.074
302.88
302.486
301.967
301.397
300.793
300.168
299.57
299.055
298.655
298.383
298.24
298.224
298.324
298.51
298.727
298.896
298.981
298.988
298.907
298.715
298.354
297.817
303.15
303.15
303.151
303.151
303.146
303.142
303.138
303.134
303.13
303.127
303.123
303.12
303.117
303.114
303.111
303.108
303.105
303.102
303.1
303.097
303.095
303.093
303.091
303.088
303.086
303.084
303.082
303.079
303.077
303.075
303.073
303.071
303.068
303.061
303.03
302.916
302.585
301.824
300.55
299.137
298.036
297.311
296.817
296.425
296.076
295.761
295.496
295.3
295.184
295.138
295.143
295.171
295.2
295.215
295.214
295.209
295.225
295.266
295.33
295.396
303.15
303.15
303.151
303.146
303.141
303.137
303.133
303.129
303.125
303.122
303.119
303.115
303.112
303.109
303.106
303.103
303.1
303.098
303.095
303.093
303.09
303.088
303.085
303.083
303.081
303.078
303.076
303.074
303.072
303.07
303.068
303.066
303.064
303.063
303.061
303.06
303.059
303.057
303.056
303.055
303.054
303.051
303.042
303.014
302.93
302.726
302.31
301.615
300.726
299.874
299.223
298.778
298.464
298.221
298.022
297.862
297.737
297.642
297.572
297.512
303.15
303.15
303.15
303.15
303.15
303.15
303.15
303.149
303.149
303.149
303.149
303.149
303.149
303.149
303.148
303.148
303.148
303.148
303.148
303.148
303.148
303.148
303.148
303.148
303.148
303.148
303.148
303.148
303.148
303.147
303.147
303.147
303.147
303.147
303.147
303.147
303.147
303.147
303.146
303.146
303.144
303.133
303.083
302.912
302.527
301.997
301.54
301.266
301.132
301.071
301.051
301.058
301.087
301.131
301.179
301.223
301.26
301.289
301.314
301.307
303.15
303.15
303.15
303.15
303.15
303.15
303.15
303.15
303.15
303.15
303.15
303.15
303.15
303.15
303.15
303.15
303.15
303.15
303.15
303.15
303.15
303.15
303.15
303.15
303.15
303.15
303.15
303.15
303.15
303.15
303.15
303.15
303.15
303.15
303.15
303.15
303.15
303.15
303.15
303.15
303.15
303.149
303.148
303.14
303.1
302.98
302.754
302.461
302.195
302.018
301.933
301.918
301.95
302.013
302.097
302.191
302.285
302.37
302.441
302.493
303.15
303.15
303.15
303.15
303.15
303.15
303.15
303.15
303.15
303.15
303.15
303.15
303.15
303.15
303.15
303.15
303.15
303.15
303.15
303.15
303.15
303.15
303.15
303.15
303.15
303.15
303.15
303.15
303.15
303.15
303.15
303.15
303.15
303.15
303.15
303.15
303.15
303.149
303.149
303.147
303.146
303.143
303.141
303.139
303.136
303.126
303.089
303.006
302.88
302.745
302.641
302.588
302.586
302.623
302.683
302.749
302.809
302.853
302.878
302.88
303.15
303.15
303.15
303.15
303.15
303.15
303.15
303.15
303.15
303.15
303.15
303.15
303.15
303.15
303.15
303.15
303.15
303.15
303.15
303.15
303.15
303.15
303.15
303.15
303.15
303.15
303.15
303.15
303.15
303.15
303.149
303.149
303.148
303.147
303.145
303.143
303.14
303.135
303.125
303.111
303.092
303.073
303.055
303.04
303.031
303.026
303.027
303.03
303.027
303.011
302.982
302.949
302.927
302.921
302.931
302.95
302.972
302.993
303.008
303.011
303.15
303.15
303.15
303.15
303.15
303.15
303.15
303.15
303.15
303.15
303.15
303.15
303.15
303.15
303.15
303.15
303.15
303.15
303.15
303.15
303.15
303.15
303.15
303.15
303.15
303.149
303.148
303.147
303.144
303.14
303.133
303.124
303.112
303.097
303.077
303.051
303.016
302.963
302.891
302.805
302.719
302.644
302.585
302.542
302.517
302.503
302.497
302.497
302.505
302.522
302.552
302.595
302.644
302.695
302.745
302.792
302.836
302.875
302.909
302.931
303.15
303.15
303.15
303.15
303.15
303.15
303.15
303.15
303.15
303.15
303.15
303.15
303.15
303.15
303.15
303.15
303.15
303.15
303.15
303.15
303.15
303.15
303.15
303.149
303.147
303.143
303.135
303.12
303.097
303.062
303.015
302.956
302.882
302.794
302.69
302.571
302.438
302.298
302.161
302.036
301.926
301.835
301.763
301.706
301.664
301.633
301.611
301.596
301.589
301.602
301.627
301.673
301.735
301.803
301.872
301.936
301.995
302.048
302.097
302.134
303.15
303.15
303.15
303.15
303.15
303.15
303.15
303.15
303.15
303.15
303.15
303.15
303.15
303.15
303.15
303.15
303.149
303.149
303.15
303.15
303.15
303.15
303.15
303.148
303.145
303.139
303.126
303.105
303.074
303.03
302.973
302.904
302.82
302.721
302.61
302.493
302.384
302.3
302.242
302.187
302.118
302.04
301.962
301.86
301.725
301.559
301.369
301.16
300.945
300.754
300.631
300.589
300.583
300.585
300.582
300.567
300.536
300.484
300.396
300.288
303.15
303.15
303.15
303.15
303.15
303.15
303.15
303.15
303.15
303.149
303.149
303.149
303.149
303.149
303.149
303.149
303.148
303.148
303.148
303.148
303.149
303.149
303.149
303.149
303.149
303.149
303.148
303.147
303.145
303.143
303.142
303.14
303.139
303.138
303.138
303.136
303.129
303.085
302.914
302.546
302.038
301.47
300.866
300.237
299.628
299.099
298.684
298.398
298.243
298.217
298.308
298.488
298.706
298.883
298.975
298.988
298.913
298.73
298.383
297.861
303.15
303.15
303.151
303.151
303.146
303.142
303.138
303.134
303.13
303.127
303.123
303.12
303.117
303.114
303.111
303.108
303.105
303.102
303.1
303.097
303.095
303.093
303.091
303.089
303.086
303.084
303.082
303.079
303.077
303.075
303.073
303.071
303.068
303.062
303.035
302.935
302.64
301.944
300.727
299.305
298.151
297.38
296.86
296.457
296.103
295.785
295.515
295.314
295.192
295.142
295.143
295.17
295.199
295.214
295.214
295.21
295.224
295.265
295.328
295.393
)
;

boundaryField
{
    wall
    {
        type            zeroGradient;
    }
    inlet
    {
        type            fixedValue;
        value           uniform 303.15;
    }
    outlet
    {
        type            inletOutlet;
        inletValue      uniform 300;
        value           nonuniform List<scalar> 
20
(
297.504
301.311
302.501
302.881
303.012
302.939
302.152
300.247
297.802
295.397
297.51
301.308
302.495
302.88
303.011
302.933
302.139
300.278
297.847
295.394
)
;
    }
    heatWall
    {
        type            fixedGradient;
        gradient        uniform -500;
    }
}


// ************************************************************************* //
