/*--------------------------------*- C++ -*----------------------------------*\
  =========                 |
  \\      /  F ield         | OpenFOAM: The Open Source CFD Toolbox
   \\    /   O peration     | Website:  https://openfoam.org
    \\  /    A nd           | Version:  8
     \\/     M anipulation  |
\*---------------------------------------------------------------------------*/
FoamFile
{
    version     2.0;
    format      ascii;
    class       volVectorField;
    location    "900";
    object      U;
}
// * * * * * * * * * * * * * * * * * * * * * * * * * * * * * * * * * * * * * //

dimensions      [0 1 -1 0 0 0 0];

internalField   nonuniform List<vector> 
1200
(
(16.0196 -1.1818 0.000277484)
(16.1211 -0.900696 0.141482)
(16.1427 -0.744089 0.205179)
(16.1314 -0.64047 0.188504)
(16.1142 -0.570374 0.0874498)
(16.0931 -0.518276 -0.122194)
(16.067 -0.475226 -0.356063)
(16.0388 -0.438834 -0.416545)
(16.0142 -0.410482 -0.209937)
(15.9988 -0.388198 0.0604761)
(15.9898 -0.368558 0.158609)
(15.9789 -0.353856 0.0862429)
(15.9656 -0.342186 -0.0667304)
(15.9519 -0.332134 -0.289711)
(15.9377 -0.322693 -0.607469)
(15.9229 -0.312659 -1.01662)
(15.9086 -0.30156 -1.47021)
(15.8962 -0.289724 -1.87822)
(15.8872 -0.277837 -2.09078)
(15.8813 -0.266691 -2.03744)
(15.8767 -0.256639 -1.8026)
(15.8719 -0.247945 -1.39505)
(15.8688 -0.241579 -0.759698)
(15.874 -0.238857 0.0503409)
(15.9015 -0.234009 0.750737)
(15.936 -0.228132 1.06808)
(15.9609 -0.221055 1.09056)
(15.9729 -0.214896 1.0832)
(15.981 -0.209412 1.30836)
(15.9988 -0.204583 1.71277)
(16.0305 -0.200253 2.14095)
(16.0738 -0.19555 2.53288)
(16.1266 -0.190273 2.87366)
(16.1871 -0.184445 3.14792)
(16.253 -0.178445 3.34409)
(16.3242 -0.172549 3.45882)
(16.4024 -0.16723 3.45408)
(16.4902 -0.162839 3.35487)
(16.594 -0.159376 3.24115)
(16.718 -0.155843 3.19842)
(16.8579 -0.151673 3.28948)
(17.0049 -0.148718 3.54253)
(17.1545 -0.152486 3.89415)
(17.3114 -0.173488 4.28391)
(17.5056 -0.219639 4.72668)
(17.77 -0.264754 5.26719)
(18.0631 -0.259362 5.92164)
(18.35 -0.153632 6.75252)
(18.6201 0.0185635 7.89799)
(18.727 0.206648 9.25088)
(18.4857 0.370207 10.5408)
(17.8407 0.489021 11.5504)
(16.9166 0.553311 12.1909)
(15.9258 0.565838 12.4326)
(15.0561 0.544418 12.3622)
(14.3961 0.510921 12.0284)
(13.9679 0.481347 11.5724)
(13.6833 0.461676 11.0668)
(13.5798 0.449191 10.5754)
(13.3647 0.463513 10.379)
(16.0282 0.414726 -0.00455415)
(16.0117 0.535317 0.0692886)
(16.0042 0.53183 0.101177)
(15.9986 0.508097 0.081353)
(16 0.481514 0.00151079)
(16.0044 0.455982 -0.166179)
(16.0033 0.430672 -0.369758)
(15.997 0.408635 -0.434148)
(15.9935 0.391427 -0.251525)
(16.0004 0.377625 -0.00207373)
(16.0152 0.363911 0.0895713)
(16.0284 0.351361 0.0207406)
(16.0393 0.340484 -0.128723)
(16.0485 0.331177 -0.358349)
(16.0548 0.322512 -0.706154)
(16.0575 0.313257 -1.18241)
(16.059 0.302518 -1.74918)
(16.0629 0.290098 -2.31567)
(16.0727 0.276882 -2.71682)
(16.0877 0.264141 -2.85792)
(16.1054 0.252594 -2.80468)
(16.1249 0.242895 -2.55558)
(16.1481 0.235254 -2.04466)
(16.1775 0.228692 -1.31264)
(16.2164 0.221381 -0.629771)
(16.2607 0.213822 -0.303537)
(16.2951 0.209458 -0.271174)
(16.3167 0.205668 -0.263133)
(16.335 0.199168 -0.021999)
(16.3618 0.190298 0.413827)
(16.4021 0.179053 0.894451)
(16.4543 0.16682 1.36452)
(16.5163 0.154249 1.81283)
(16.5865 0.142309 2.22223)
(16.6625 0.130359 2.57904)
(16.7446 0.117373 2.87448)
(16.8339 0.10167 3.0657)
(16.9325 0.0816124 3.17086)
(17.0467 0.056997 3.26652)
(17.1812 0.0326882 3.43948)
(17.3305 0.0145997 3.76278)
(17.4838 0.00525482 4.28672)
(17.635 0.00568884 4.99448)
(17.8096 0.0181774 5.96945)
(18.123 0.0396088 7.52422)
(18.6609 0.0621913 9.82311)
(19.2495 0.0873144 12.4017)
(19.6512 0.157042 14.5482)
(19.8001 0.259245 16.0047)
(19.7312 0.364985 16.9686)
(19.4897 0.44741 17.6436)
(19.1316 0.47941 18.1359)
(18.7267 0.433987 18.4676)
(18.3354 0.308858 18.5926)
(17.9959 0.135446 18.5189)
(17.7112 -0.0413579 18.2177)
(17.4842 -0.186049 17.7577)
(17.2646 -0.281295 17.1701)
(17.1166 -0.335714 16.5084)
(16.8454 -0.297247 15.9487)
(15.9556 -0.0791631 -0.00522678)
(15.9184 -0.167544 0.0980833)
(15.9225 -0.237307 0.180945)
(15.9399 -0.274366 0.194387)
(15.9576 -0.291465 0.123485)
(15.971 -0.302292 -0.0675469)
(15.9766 -0.306398 -0.347112)
(15.9799 -0.304749 -0.492142)
(15.9862 -0.301143 -0.351143)
(15.9988 -0.298768 -0.100623)
(16.0167 -0.299914 0.0143051)
(16.0329 -0.300505 -0.0387962)
(16.0456 -0.300333 -0.186707)
(16.0565 -0.299682 -0.428267)
(16.0648 -0.298315 -0.797773)
(16.0707 -0.296011 -1.30063)
(16.0762 -0.292899 -1.89749)
(16.0839 -0.289327 -2.49785)
(16.0965 -0.285405 -2.93563)
(16.1131 -0.280912 -3.11245)
(16.1313 -0.27585 -3.0911)
(16.1508 -0.270311 -2.87304)
(16.1736 -0.265015 -2.39405)
(16.2024 -0.261349 -1.68806)
(16.2395 -0.259753 -1.0163)
(16.2796 -0.258898 -0.687186)
(16.3102 -0.255616 -0.657844)
(16.3315 -0.250864 -0.6665)
(16.353 -0.246234 -0.460062)
(16.3813 -0.240599 -0.0753758)
(16.4223 -0.234462 0.349617)
(16.475 -0.229166 0.760517)
(16.5372 -0.225085 1.14357)
(16.6068 -0.220971 1.47866)
(16.6812 -0.216791 1.75724)
(16.7599 -0.213484 1.97253)
(16.8437 -0.213371 2.08755)
(16.9347 -0.219032 2.12288)
(17.0404 -0.230703 2.15573)
(17.168 -0.240145 2.26746)
(17.3136 -0.23814 2.52385)
(17.4683 -0.222042 2.96142)
(17.627 -0.191361 3.51794)
(17.7892 -0.137464 4.13552)
(17.9786 -0.0511432 4.88325)
(18.2417 0.0382419 5.91174)
(18.6199 0.0757434 7.30513)
(19.1346 0.10857 8.95607)
(19.7089 0.216835 10.6059)
(20.1869 0.396069 12.0339)
(20.4532 0.588546 13.1038)
(20.4714 0.734644 13.7735)
(20.2606 0.791202 14.0518)
(19.8601 0.752674 13.9625)
(19.321 0.651626 13.6197)
(18.6954 0.532866 13.1017)
(18.0571 0.432176 12.5583)
(17.4191 0.363309 12.0028)
(16.9128 0.320182 11.5464)
(16.2738 0.33419 11.0351)
(15.991 -0.00538957 -0.0186036)
(15.9812 0.0438151 0.0269638)
(15.9929 0.0958737 0.0473366)
(16.0073 0.137987 0.021574)
(16.0181 0.167625 -0.0467)
(16.0272 0.188743 -0.180262)
(16.0307 0.211747 -0.379986)
(16.0274 0.233783 -0.482088)
(16.0249 0.250728 -0.350644)
(16.0306 0.261572 -0.128354)
(16.0442 0.26751 -0.024218)
(16.058 0.271062 -0.0727674)
(16.069 0.274574 -0.210896)
(16.0785 0.277799 -0.443003)
(16.0855 0.279876 -0.810161)
(16.0894 0.279444 -1.3307)
(16.092 0.274925 -1.97968)
(16.0971 0.265611 -2.67117)
(16.1083 0.252645 -3.23005)
(16.1249 0.238356 -3.53903)
(16.1439 0.224331 -3.64644)
(16.1649 0.211628 -3.55014)
(16.1897 0.200469 -3.18304)
(16.2199 0.190033 -2.56552)
(16.255 0.179349 -1.93966)
(16.29 0.168531 -1.61137)
(16.3184 0.160643 -1.57124)
(16.3433 0.156009 -1.58507)
(16.372 0.152933 -1.41199)
(16.4078 0.150632 -1.07122)
(16.4513 0.148637 -0.681163)
(16.5014 0.145128 -0.294799)
(16.5588 0.138919 0.0676601)
(16.6245 0.130466 0.380721)
(16.6951 0.119694 0.636083)
(16.7697 0.105617 0.824909)
(16.8482 0.0851528 0.91108)
(16.9321 0.0537904 0.912831)
(17.0309 0.00898429 0.906835)
(17.154 -0.0375377 0.976122)
(17.2971 -0.0705544 1.19589)
(17.4491 -0.0849203 1.61525)
(17.6042 -0.0808519 2.1744)
(17.762 -0.0563587 2.80214)
(17.94 -0.0111612 3.51091)
(18.1637 0.0333792 4.3393)
(18.434 0.0676093 5.30058)
(18.7759 0.112705 6.4261)
(19.2423 0.179019 7.71858)
(19.8086 0.270295 9.10417)
(20.3516 0.379045 10.3896)
(20.7304 0.46772 11.3892)
(20.8641 0.487993 12.0193)
(20.7431 0.424434 12.2744)
(20.4121 0.302097 12.261)
(19.932 0.161071 12.0382)
(19.3821 0.0345923 11.7301)
(18.7814 -0.0700123 11.3079)
(18.259 -0.14328 10.9337)
(17.5809 -0.230806 10.3643)
(15.99 -0.00239607 -0.0330865)
(15.9757 -0.0008748 -0.0186758)
(15.9771 -0.0163346 -0.00297543)
(15.9856 -0.0439648 -0.0160892)
(15.9944 -0.0771771 -0.0624128)
(16.004 -0.112496 -0.173027)
(16.01 -0.146113 -0.391225)
(16.0113 -0.174337 -0.553326)
(16.0143 -0.195113 -0.485714)
(16.0236 -0.210742 -0.297231)
(16.0383 -0.225683 -0.188934)
(16.0524 -0.24012 -0.224387)
(16.0636 -0.252109 -0.364365)
(16.0728 -0.261928 -0.618115)
(16.0796 -0.270319 -1.02651)
(16.0841 -0.277157 -1.61286)
(16.0881 -0.282223 -2.36117)
(16.095 -0.285618 -3.18845)
(16.1082 -0.287194 -3.91215)
(16.1265 -0.286598 -4.39961)
(16.1468 -0.284151 -4.68858)
(16.1694 -0.280434 -4.77625)
(16.1963 -0.276492 -4.59352)
(16.2283 -0.273796 -4.14155)
(16.2627 -0.273293 -3.62924)
(16.2959 -0.274495 -3.35235)
(16.3271 -0.274936 -3.33875)
(16.3611 -0.273859 -3.38808)
(16.4012 -0.271981 -3.27579)
(16.447 -0.269343 -3.01178)
(16.498 -0.266305 -2.69612)
(16.554 -0.263577 -2.37553)
(16.6155 -0.261964 -2.07813)
(16.6819 -0.260528 -1.83366)
(16.7504 -0.259583 -1.64917)
(16.8194 -0.259927 -1.5338)
(16.8893 -0.264463 -1.52128)
(16.9653 -0.277801 -1.59989)
(17.0656 -0.303648 -1.69888)
(17.2057 -0.328423 -1.73293)
(17.376 -0.333942 -1.61716)
(17.5533 -0.31677 -1.30017)
(17.7251 -0.280888 -0.855265)
(17.8884 -0.222589 -0.359454)
(18.0487 -0.142755 0.201535)
(18.2241 -0.0613064 0.874776)
(18.422 -0.00190681 1.67375)
(18.6519 0.0506538 2.52806)
(18.9389 0.125829 3.43031)
(19.3156 0.243224 4.45436)
(19.7766 0.392395 5.55556)
(20.2487 0.551405 6.61844)
(20.6361 0.666763 7.50554)
(20.8755 0.70942 8.11733)
(20.9594 0.690012 8.49966)
(20.9102 0.636596 8.67864)
(20.7778 0.576653 8.77437)
(20.5656 0.515285 8.72909)
(20.3662 0.470351 8.74395)
(20.0145 0.352449 8.40497)
(15.9901 0.00661131 -0.0477612)
(15.9754 0.0126907 -0.0690277)
(15.9758 0.0305936 -0.0765636)
(15.9835 0.0577463 -0.107487)
(15.9915 0.0879811 -0.162484)
(16.0007 0.117961 -0.261164)
(16.0075 0.149446 -0.476766)
(16.0101 0.18096 -0.665887)
(16.0143 0.207129 -0.646325)
(16.024 0.225202 -0.495477)
(16.0381 0.236044 -0.394308)
(16.0517 0.243436 -0.422309)
(16.0627 0.250387 -0.563176)
(16.0717 0.256719 -0.829288)
(16.0791 0.261354 -1.2607)
(16.085 0.263235 -1.88888)
(16.0908 0.260968 -2.71099)
(16.0996 0.253667 -3.64891)
(16.1147 0.242339 -4.51265)
(16.1346 0.229367 -5.15465)
(16.1562 0.216295 -5.60449)
(16.1799 0.203839 -5.86319)
(16.2075 0.191759 -5.86724)
(16.2396 0.179109 -5.60655)
(16.2735 0.165507 -5.25273)
(16.3071 0.151975 -5.07391)
(16.3422 0.141227 -5.12561)
(16.3834 0.134434 -5.24452)
(16.4319 0.130147 -5.23423)
(16.4861 0.127403 -5.10364)
(16.5451 0.124926 -4.93584)
(16.6092 0.121176 -4.76376)
(16.6793 0.114966 -4.6117)
(16.7548 0.106864 -4.4972)
(16.8322 0.0959346 -4.4197)
(16.9086 0.0803893 -4.38739)
(16.9845 0.0557069 -4.43508)
(17.0714 0.0131079 -4.55896)
(17.1986 -0.0580724 -4.68786)
(17.3843 -0.137905 -4.73389)
(17.6067 -0.192886 -4.61848)
(17.8297 -0.21487 -4.29724)
(18.0409 -0.211376 -3.84692)
(18.2424 -0.191762 -3.32208)
(18.4384 -0.162809 -2.72559)
(18.6378 -0.132546 -2.04575)
(18.8431 -0.102257 -1.31581)
(19.0552 -0.0655632 -0.600139)
(19.2906 -0.0114276 0.0898808)
(19.5737 0.0654745 0.838854)
(19.9034 0.162865 1.65633)
(20.2509 0.255692 2.48048)
(20.5691 0.313579 3.27181)
(20.8242 0.308811 3.93922)
(21.0053 0.243353 4.47683)
(21.1163 0.143636 4.85391)
(21.19 0.0373725 5.16608)
(21.2201 -0.063366 5.32499)
(21.2722 -0.143656 5.56746)
(21.213 -0.277411 5.37907)
(15.9919 0.00779184 -0.0595732)
(15.9821 -0.0356275 -0.102819)
(15.9922 -0.0838723 -0.106076)
(16.0057 -0.126357 -0.116345)
(16.0153 -0.161942 -0.134763)
(16.0247 -0.191513 -0.1732)
(16.0313 -0.215641 -0.325176)
(16.0307 -0.233225 -0.480187)
(16.0288 -0.244301 -0.466438)
(16.0325 -0.251752 -0.33194)
(16.0426 -0.259028 -0.229801)
(16.0549 -0.266388 -0.244631)
(16.0658 -0.271851 -0.379978)
(16.0744 -0.275546 -0.65142)
(16.0799 -0.278047 -1.10056)
(16.0823 -0.279252 -1.77017)
(16.0835 -0.278889 -2.67327)
(16.0879 -0.276759 -3.73735)
(16.1002 -0.272473 -4.76179)
(16.1189 -0.265708 -5.57867)
(16.1406 -0.2569 -6.20494)
(16.1654 -0.247118 -6.6398)
(16.1951 -0.237977 -6.82159)
(16.2304 -0.231474 -6.73026)
(16.2684 -0.228872 -6.50146)
(16.3079 -0.22917 -6.36976)
(16.3522 -0.22999 -6.41287)
(16.4049 -0.23036 -6.49715)
(16.4656 -0.231496 -6.4639)
(16.5313 -0.233405 -6.33839)
(16.601 -0.236563 -6.20061)
(16.6753 -0.242013 -6.07342)
(16.7555 -0.251279 -5.98838)
(16.8407 -0.260216 -5.96071)
(16.9268 -0.267226 -5.97732)
(17.0111 -0.27335 -6.02732)
(17.0939 -0.285131 -6.11137)
(17.1864 -0.317299 -6.19194)
(17.3211 -0.381471 -6.19002)
(17.5216 -0.443153 -6.06396)
(17.7631 -0.460896 -5.7956)
(18.0034 -0.438602 -5.35847)
(18.2259 -0.398338 -4.81294)
(18.4348 -0.319409 -4.21937)
(18.6408 -0.216664 -3.62207)
(18.8557 -0.115422 -3.01511)
(19.0845 -0.030518 -2.39232)
(19.3291 0.0462771 -1.77648)
(19.5986 0.132426 -1.18454)
(19.8943 0.243351 -0.573786)
(20.1991 0.383645 0.103285)
(20.5116 0.534653 0.774984)
(20.7981 0.635146 1.37221)
(21.0409 0.672354 1.85537)
(21.243 0.653601 2.26941)
(21.4067 0.605666 2.60121)
(21.5531 0.547308 2.9458)
(21.6626 0.493441 3.18257)
(21.7869 0.440859 3.54782)
(21.8379 0.383458 3.45382)
(15.9567 0.0852219 -0.0783129)
(15.9202 0.176538 -0.199965)
(15.9214 0.245815 -0.286768)
(15.9348 0.283015 -0.373594)
(15.9488 0.299873 -0.45055)
(15.9631 0.305503 -0.520507)
(15.9749 0.306039 -0.719756)
(15.9832 0.30491 -0.949945)
(15.9927 0.303238 -1.0156)
(16.0056 0.300541 -0.936029)
(16.0201 0.296116 -0.854235)
(16.0334 0.290808 -0.872121)
(16.0439 0.286059 -1.01774)
(16.0524 0.281643 -1.31013)
(16.0601 0.276902 -1.786)
(16.0679 0.271369 -2.48524)
(16.0767 0.264485 -3.41842)
(16.0891 0.256091 -4.50385)
(16.108 0.247201 -5.52601)
(16.1313 0.239565 -6.30244)
(16.1555 0.233935 -6.84578)
(16.1809 0.230305 -7.1589)
(16.2093 0.228039 -7.18779)
(16.2409 0.225783 -6.91627)
(16.274 0.222515 -6.46342)
(16.3084 0.21835 -6.03639)
(16.3464 0.215405 -5.74015)
(16.3903 0.214281 -5.45917)
(16.4399 0.212593 -5.07264)
(16.4933 0.209275 -4.62836)
(16.5496 0.202718 -4.21193)
(16.6091 0.192434 -3.83703)
(16.675 0.179505 -3.54965)
(16.7484 0.163466 -3.37002)
(16.824 0.143409 -3.24798)
(16.8968 0.112798 -3.14466)
(16.9614 0.0568655 -3.04004)
(17.0182 -0.0463227 -2.88977)
(17.1008 -0.201304 -2.61283)
(17.2516 -0.345105 -2.17314)
(17.4518 -0.417123 -1.57292)
(17.6498 -0.43243 -0.814061)
(17.8432 -0.429869 0.0053056)
(18.0532 -0.423567 0.825314)
(18.2571 -0.413207 1.64572)
(18.4609 -0.398376 2.49947)
(18.6795 -0.384075 3.39204)
(18.9274 -0.3691 4.28394)
(19.2248 -0.343303 5.13168)
(19.5753 -0.289704 5.85419)
(19.955 -0.200622 6.27109)
(20.3138 -0.0709813 6.29921)
(20.6037 0.0408997 6.16814)
(20.8278 0.0768138 5.96693)
(21.0105 0.0367499 5.77341)
(21.1643 -0.0415512 5.57356)
(21.311 -0.13669 5.47074)
(21.4202 -0.212039 5.326)
(21.5234 -0.294899 5.45796)
(21.5377 -0.32449 5.11574)
(16.0272 -0.416544 -0.0525777)
(16.0077 -0.529575 -0.109334)
(15.9973 -0.525778 -0.133349)
(15.9909 -0.502392 -0.16693)
(15.9886 -0.475091 -0.19456)
(15.9918 -0.448155 -0.212063)
(15.9962 -0.421439 -0.349212)
(15.9956 -0.395328 -0.529874)
(15.994 -0.372288 -0.580791)
(15.9972 -0.35409 -0.507368)
(16.0059 -0.340615 -0.429599)
(16.0168 -0.33002 -0.444637)
(16.0267 -0.32013 -0.590634)
(16.0339 -0.310234 -0.888919)
(16.0383 -0.300071 -1.37883)
(16.04 -0.289286 -2.10978)
(16.0408 -0.277746 -3.10283)
(16.0451 -0.265468 -4.27406)
(16.0581 -0.252425 -5.38772)
(16.0781 -0.238638 -6.23179)
(16.101 -0.224243 -6.79812)
(16.1269 -0.209807 -7.07455)
(16.1569 -0.196707 -6.99629)
(16.1908 -0.186679 -6.54165)
(16.2257 -0.181307 -5.82363)
(16.2611 -0.179988 -5.04627)
(16.2987 -0.181146 -4.37212)
(16.3385 -0.182294 -3.69092)
(16.3799 -0.184026 -2.90708)
(16.423 -0.18502 -2.09562)
(16.4683 -0.184623 -1.34951)
(16.5176 -0.182884 -0.671655)
(16.5747 -0.178757 -0.0808527)
(16.6375 -0.173511 0.441677)
(16.7005 -0.170853 0.9318)
(16.7571 -0.175917 1.39983)
(16.7985 -0.201074 1.84355)
(16.8277 -0.271358 2.31261)
(16.9224 -0.404846 2.96152)
(17.17 -0.518782 3.91223)
(17.5012 -0.525723 5.13212)
(17.8036 -0.439814 6.55194)
(18.0649 -0.309933 8.09645)
(18.326 -0.200678 9.86872)
(18.5913 -0.129057 11.7537)
(18.819 -0.0968648 13.5275)
(18.9633 -0.101149 15.014)
(19.003 -0.12792 16.1313)
(18.9434 -0.155389 16.8911)
(18.8067 -0.160898 17.3487)
(18.6311 -0.115154 17.4782)
(18.4527 -0.0140072 17.2511)
(18.3051 0.105477 16.7114)
(18.1612 0.188993 16.0565)
(17.9813 0.219675 15.505)
(17.749 0.21972 15.0472)
(17.4639 0.207475 14.8077)
(17.1088 0.217605 14.4815)
(16.7666 0.221727 14.5796)
(16.4044 0.261726 14.1607)
(16.024 1.17479 -0.113829)
(16.1275 0.903636 -0.219043)
(16.144 0.752789 -0.265475)
(16.1301 0.648356 -0.314784)
(16.1113 0.571455 -0.345291)
(16.0925 0.513025 -0.34898)
(16.0727 0.46537 -0.470755)
(16.0494 0.425413 -0.634096)
(16.0266 0.393443 -0.661568)
(16.0076 0.368888 -0.556179)
(15.9929 0.349694 -0.43668)
(15.9801 0.333997 -0.402912)
(15.9671 0.320732 -0.495395)
(15.9533 0.308911 -0.72603)
(15.9396 0.297572 -1.11796)
(15.9267 0.286038 -1.70217)
(15.9152 0.273979 -2.48009)
(15.9075 0.261491 -3.35013)
(15.9058 0.24918 -4.07259)
(15.9076 0.237529 -4.45179)
(15.9094 0.22631 -4.50652)
(15.9103 0.215611 -4.25244)
(15.911 0.205479 -3.65551)
(15.9123 0.196048 -2.72685)
(15.9155 0.1874 -1.60654)
(15.9263 0.180905 -0.505879)
(15.9481 0.173919 0.413944)
(15.9706 0.165846 1.25362)
(15.9975 0.158193 2.11289)
(16.0347 0.151998 2.94188)
(16.0802 0.146784 3.68138)
(16.1332 0.141404 4.35137)
(16.195 0.136731 4.92053)
(16.2593 0.136023 5.36867)
(16.3144 0.137628 5.71181)
(16.3501 0.138456 5.94491)
(16.3694 0.12518 6.1324)
(16.4528 0.0637226 6.60834)
(16.8004 -0.0632799 7.96808)
(17.3998 -0.172326 10.2649)
(17.8974 -0.202073 12.7026)
(18.0832 -0.187381 14.6356)
(18.0112 -0.183591 15.8814)
(17.7779 -0.206133 16.576)
(17.4197 -0.256907 16.947)
(16.9427 -0.321836 17.1821)
(16.3456 -0.383824 17.4029)
(15.6299 -0.430612 17.63)
(14.8053 -0.458663 17.8356)
(13.8933 -0.469844 18.0102)
(12.9538 -0.463951 18.097)
(12.0968 -0.428974 18.0287)
(11.4547 -0.3543 17.7991)
(11.0837 -0.272718 17.447)
(10.9313 -0.229386 17.2241)
(10.8812 -0.22406 17.1454)
(10.8991 -0.243365 17.4734)
(10.8901 -0.263143 17.654)
(10.9416 -0.287485 18.3694)
(10.8517 -0.307593 17.6207)
(16.0241 -1.18162 -0.00794254)
(16.1258 -0.910716 0.131576)
(16.14 -0.7596 0.195496)
(16.1235 -0.656925 0.179511)
(16.1014 -0.583162 0.0789899)
(16.0796 -0.520699 -0.129695)
(16.0638 -0.466146 -0.361921)
(16.0518 -0.423875 -0.421044)
(16.0356 -0.396033 -0.213919)
(16.0109 -0.378804 0.0566054)
(15.9855 -0.364265 0.15519)
(15.9654 -0.351071 0.0830961)
(15.9488 -0.337545 -0.0695623)
(15.9344 -0.323596 -0.291825)
(15.9219 -0.309825 -0.608666)
(15.9122 -0.296584 -1.01698)
(15.9054 -0.283988 -1.46994)
(15.9015 -0.271901 -1.87756)
(15.8996 -0.260227 -2.08977)
(15.896 -0.249265 -2.03598)
(15.8906 -0.23913 -1.80094)
(15.8878 -0.230212 -1.39365)
(15.8888 -0.223491 -0.759065)
(15.8899 -0.220687 0.0492978)
(15.893 -0.224076 0.748691)
(15.9103 -0.225722 1.06549)
(15.9363 -0.223437 1.08774)
(15.9632 -0.219669 1.08094)
(15.9843 -0.216804 1.30702)
(16.0023 -0.214507 1.71197)
(16.0288 -0.212092 2.14031)
(16.0685 -0.208456 2.53224)
(16.1198 -0.203537 2.87308)
(16.1796 -0.197744 3.14756)
(16.2451 -0.191603 3.34413)
(16.3157 -0.185538 3.45934)
(16.3933 -0.179951 3.45531)
(16.4817 -0.175206 3.35713)
(16.5869 -0.171339 3.24468)
(16.7127 -0.167507 3.20334)
(16.854 -0.163082 3.29579)
(17.0012 -0.159633 3.54993)
(17.1495 -0.162286 3.90192)
(17.3048 -0.180881 4.29031)
(17.4949 -0.223884 4.7293)
(17.7545 -0.26933 5.26493)
(18.0473 -0.271701 5.90912)
(18.3324 -0.180759 6.69888)
(18.6064 -0.0198915 7.7932)
(18.7407 0.165397 9.12255)
(18.5486 0.333033 10.4254)
(17.9526 0.459356 11.4659)
(17.0561 0.531981 12.137)
(16.0655 0.551507 12.4022)
(15.1753 0.534294 12.3476)
(14.4861 0.502204 12.0228)
(14.0304 0.472362 11.5715)
(13.724 0.451657 11.0646)
(13.6079 0.438859 10.5764)
(13.3833 0.450956 10.3686)
(16.0308 0.414357 0.00321564)
(16.0149 0.531051 0.0804114)
(16.0027 0.530336 0.113296)
(15.9925 0.510089 0.0935547)
(15.9881 0.486609 0.013867)
(15.9897 0.46212 -0.154989)
(15.9965 0.430981 -0.360766)
(16.0063 0.401425 -0.42721)
(16.0134 0.379596 -0.245765)
(16.0145 0.36492 0.00330133)
(16.0135 0.354992 0.0944581)
(16.0158 0.345691 0.0253714)
(16.0213 0.336339 -0.12451)
(16.0271 0.326336 -0.354804)
(16.0328 0.315106 -0.703391)
(16.0399 0.302688 -1.18028)
(16.0495 0.289309 -1.74737)
(16.0632 0.275366 -2.31383)
(16.0812 0.261627 -2.71445)
(16.0993 0.249207 -2.85454)
(16.117 0.238569 -2.8004)
(16.1384 0.229788 -2.55088)
(16.1646 0.2229 -2.03988)
(16.1912 0.217677 -1.3079)
(16.2116 0.214932 -0.625191)
(16.2299 0.213856 -0.298944)
(16.2559 0.213901 -0.266531)
(16.2925 0.212787 -0.258446)
(16.3316 0.208197 -0.0176199)
(16.3669 0.199248 0.415528)
(16.4046 0.187435 0.892598)
(16.4526 0.174899 1.35949)
(16.5116 0.162324 1.80549)
(16.5798 0.150301 2.21337)
(16.6548 0.138514 2.56917)
(16.7356 0.125811 2.86384)
(16.8239 0.110752 3.05462)
(16.9231 0.0916088 3.15972)
(17.039 0.0678708 3.25558)
(17.1753 0.0436361 3.4285)
(17.3264 0.0246874 3.75087)
(17.4805 0.0138504 4.27152)
(17.6313 0.0121392 4.96833)
(17.801 0.0219794 5.90842)
(18.0956 0.0411573 7.39344)
(18.6128 0.0628003 9.62993)
(19.2047 0.0843042 12.2156)
(19.6286 0.14726 14.4282)
(19.8011 0.246006 15.9482)
(19.7532 0.353471 16.9518)
(19.5281 0.44144 17.646)
(19.1792 0.482133 18.1455)
(18.7752 0.446968 18.4805)
(18.3787 0.330406 18.6107)
(18.0315 0.161054 18.5457)
(17.7397 -0.0167252 18.2554)
(17.508 -0.165504 17.807)
(17.2855 -0.266501 17.2267)
(17.1375 -0.325221 16.5754)
(16.8612 -0.293065 16.0085)
(15.9594 -0.0809443 -0.00850346)
(15.9248 -0.171771 0.0920603)
(15.9238 -0.241689 0.173623)
(15.9348 -0.278356 0.18653)
(15.9449 -0.29334 0.115191)
(15.9514 -0.29978 -0.076104)
(15.964 -0.303571 -0.354391)
(15.986 -0.305836 -0.497794)
(16.0059 -0.306898 -0.356018)
(16.0147 -0.306845 -0.105614)
(16.0172 -0.305877 0.00918066)
(16.0214 -0.303443 -0.0437469)
(16.0281 -0.30137 -0.190906)
(16.0353 -0.300449 -0.431133)
(16.0433 -0.299987 -0.798993)
(16.0538 -0.299314 -1.30035)
(16.0672 -0.298217 -1.8962)
(16.0842 -0.296415 -2.49607)
(16.1046 -0.293542 -2.93345)
(16.1241 -0.289239 -3.10961)
(16.1422 -0.283746 -3.08773)
(16.1632 -0.277893 -2.86953)
(16.1885 -0.272759 -2.39062)
(16.2145 -0.268986 -1.68466)
(16.2355 -0.265124 -1.0128)
(16.255 -0.258847 -0.683127)
(16.2817 -0.251582 -0.653238)
(16.3183 -0.246648 -0.661761)
(16.3583 -0.245618 -0.45581)
(16.396 -0.24563 -0.0725524)
(16.434 -0.242421 0.349795)
(16.4799 -0.236907 0.758064)
(16.536 -0.231583 1.13897)
(16.6014 -0.226547 1.47245)
(16.6734 -0.221499 1.74987)
(16.7502 -0.217431 1.96429)
(16.8328 -0.216255 2.07882)
(16.9249 -0.220586 2.11419)
(17.0334 -0.230841 2.14757)
(17.1639 -0.239629 2.26008)
(17.3117 -0.237885 2.5172)
(17.4661 -0.222756 2.95511)
(17.6225 -0.194362 3.51104)
(17.7832 -0.145204 4.12487)
(17.9702 -0.0654003 4.85866)
(18.2259 0.0220336 5.86268)
(18.5885 0.061855 7.2241)
(19.0855 0.0901042 8.85483)
(19.6564 0.18985 10.5154)
(20.1502 0.366072 11.9793)
(20.4426 0.56341 13.0915)
(20.4882 0.719864 13.7982)
(20.3018 0.788578 14.1052)
(19.9218 0.760098 14.0361)
(19.3985 0.664597 13.7042)
(18.7824 0.546691 13.1874)
(18.1467 0.444286 12.6384)
(17.5053 0.371946 12.0727)
(16.9919 0.328056 11.6122)
(16.3444 0.336567 11.094)
(15.9935 -0.00800226 -0.0181561)
(15.985 0.0331074 0.0282958)
(15.9932 0.0809177 0.0495779)
(16.0039 0.12341 0.0245633)
(16.0107 0.158716 -0.0431412)
(16.016 0.190136 -0.176526)
(16.0238 0.218581 -0.376719)
(16.0346 0.237481 -0.479524)
(16.0427 0.247424 -0.3486)
(16.0447 0.253266 -0.126631)
(16.0447 0.260257 -0.0225343)
(16.0476 0.267375 -0.0711446)
(16.0528 0.272892 -0.209474)
(16.0582 0.275865 -0.441901)
(16.0639 0.275817 -0.809466)
(16.0712 0.271976 -1.33045)
(16.0813 0.263749 -1.97994)
(16.0958 0.251705 -2.67202)
(16.115 0.237461 -3.23125)
(16.1346 0.223165 -3.54007)
(16.1536 0.209849 -3.64729)
(16.1758 0.197621 -3.55108)
(16.2024 0.186211 -3.18416)
(16.2301 0.17571 -2.56648)
(16.2536 0.167777 -1.9399)
(16.2756 0.163833 -1.61044)
(16.3037 0.161797 -1.56952)
(16.3406 0.158695 -1.5834)
(16.3811 0.153105 -1.41098)
(16.4206 0.147352 -1.07128)
(16.4624 0.143575 -0.6825)
(16.5096 0.139827 -0.29773)
(16.5625 0.133603 0.0625777)
(16.6222 0.125856 0.374681)
(16.6879 0.116211 0.629948)
(16.7581 0.103215 0.819052)
(16.8337 0.0841201 0.90571)
(16.9188 0.0540149 0.908056)
(17.0228 0.0102549 0.902697)
(17.153 -0.0357113 0.9726)
(17.3021 -0.0684684 1.19268)
(17.4544 -0.0831149 1.61109)
(17.6046 -0.0809866 2.16704)
(17.758 -0.0599274 2.78938)
(17.9331 -0.0186623 3.49125)
(18.1531 0.0232742 4.31257)
(18.4184 0.0537813 5.26381)
(18.7488 0.0948685 6.36929)
(19.1993 0.159271 7.64577)
(19.7578 0.251514 9.03583)
(20.3087 0.364336 10.3466)
(20.7091 0.461279 11.3804)
(20.8708 0.492286 12.0424)
(20.7781 0.438122 12.3213)
(20.4708 0.321122 12.3223)
(20.0076 0.180879 12.1059)
(19.4674 0.0527591 11.8004)
(18.8711 -0.0552378 11.3781)
(18.3478 -0.129083 11.008)
(17.6674 -0.223875 10.4344)
(15.9922 -0.00532618 -0.0330926)
(15.9798 -0.0100954 -0.018966)
(15.9796 -0.0269813 -0.00367366)
(15.9852 -0.0533967 -0.0171559)
(15.9901 -0.083426 -0.0636975)
(15.9938 -0.113458 -0.174319)
(16.001 -0.147622 -0.392411)
(16.0153 -0.182361 -0.55441)
(16.0297 -0.210365 -0.48691)
(16.0373 -0.229029 -0.298704)
(16.0404 -0.24033 -0.190485)
(16.0439 -0.248989 -0.225809)
(16.0488 -0.258043 -0.365537)
(16.0538 -0.267795 -0.618964)
(16.0593 -0.277322 -1.02708)
(16.0669 -0.285848 -1.61343)
(16.0777 -0.292867 -2.36225)
(16.0931 -0.297665 -3.19062)
(16.1136 -0.299674 -3.91547)
(16.1345 -0.298627 -4.40364)
(16.1547 -0.295338 -4.69325)
(16.1781 -0.291153 -4.78177)
(16.2063 -0.28744 -4.59977)
(16.2363 -0.284829 -4.1478)
(16.2635 -0.282097 -3.63462)
(16.2895 -0.278135 -3.35674)
(16.3216 -0.274427 -3.34281)
(16.363 -0.272302 -3.39252)
(16.4092 -0.272254 -3.28069)
(16.4556 -0.272295 -3.01708)
(16.5045 -0.2711 -2.7018)
(16.5585 -0.269261 -2.38151)
(16.6181 -0.268527 -2.08436)
(16.6828 -0.267622 -1.84001)
(16.7498 -0.266534 -1.6555)
(16.817 -0.266304 -1.54006)
(16.8857 -0.269813 -1.5277)
(16.9646 -0.282835 -1.60734)
(17.0722 -0.308981 -1.70787)
(17.2216 -0.333342 -1.74252)
(17.4001 -0.337578 -1.62594)
(17.5812 -0.319231 -1.30739)
(17.7519 -0.283674 -0.861137)
(17.9141 -0.225006 -0.364412)
(18.0745 -0.144658 0.196525)
(18.2424 -0.0632581 0.867478)
(18.4279 -0.00604789 1.65576)
(18.6453 0.0404399 2.50038)
(18.9221 0.10748 3.39199)
(19.2883 0.220061 4.40746)
(19.7412 0.368231 5.50791)
(20.2139 0.53021 6.58114)
(20.6114 0.652984 7.48669)
(20.8667 0.703931 8.11835)
(20.9673 0.690869 8.51721)
(20.9324 0.640897 8.70804)
(20.8106 0.582903 8.81245)
(20.6074 0.521835 8.77327)
(20.4125 0.479267 8.79576)
(20.0671 0.357637 8.45954)
(15.9917 0.00400896 -0.0477858)
(15.9789 0.00501995 -0.069364)
(15.9786 0.0227196 -0.0773223)
(15.9841 0.0520449 -0.108629)
(15.9896 0.086714 -0.16387)
(15.9933 0.124323 -0.262538)
(15.9995 0.159844 -0.478043)
(16.013 0.188399 -0.667166)
(16.0277 0.207718 -0.647679)
(16.0365 0.220948 -0.49688)
(16.0408 0.232386 -0.395568)
(16.0448 0.242655 -0.423324)
(16.0497 0.250276 -0.56399)
(16.0548 0.255287 -0.829984)
(16.0609 0.257881 -1.26148)
(16.0691 0.257184 -1.89016)
(16.0806 0.252073 -2.71347)
(16.0972 0.242774 -3.65342)
(16.1191 0.230854 -4.51943)
(16.1416 0.218475 -5.16333)
(16.1631 0.206491 -5.61512)
(16.1872 0.194878 -5.87613)
(16.2157 0.18308 -5.88251)
(16.2465 0.170816 -5.6235)
(16.2755 0.159563 -5.27049)
(16.3046 0.150975 -5.09245)
(16.3406 0.144454 -5.14549)
(16.3866 0.139576 -5.26598)
(16.4387 0.134586 -5.2566)
(16.4929 0.12991 -5.12616)
(16.5507 0.125545 -4.95801)
(16.6138 0.120424 -4.78513)
(16.6832 0.112697 -4.63172)
(16.7583 0.103514 -4.51532)
(16.8352 0.0920971 -4.43559)
(16.9106 0.0762522 -4.4011)
(16.9859 0.0511208 -4.4474)
(17.0755 0.00644413 -4.57099)
(17.2096 -0.0677987 -4.69949)
(17.4029 -0.148536 -4.74427)
(17.6298 -0.202401 -4.62719)
(17.8531 -0.222688 -4.30412)
(18.062 -0.216985 -3.85209)
(18.2618 -0.193933 -3.32608)
(18.4581 -0.163574 -2.72867)
(18.6587 -0.135922 -2.048)
(18.8628 -0.112378 -1.31744)
(19.0708 -0.0847747 -0.604671)
(19.301 -0.0429426 0.0757064)
(19.5721 0.0342724 0.815655)
(19.8855 0.140914 1.62408)
(20.2212 0.244588 2.44135)
(20.5372 0.312309 3.23233)
(20.799 0.316755 3.90654)
(20.9912 0.258421 4.45458)
(21.1128 0.162303 4.8416)
(21.1925 0.0571237 5.16166)
(21.2266 -0.0453266 5.32598)
(21.2757 -0.125996 5.57423)
(21.2199 -0.265665 5.38864)
(15.9936 0.00465408 -0.0591016)
(15.9863 -0.0476451 -0.101506)
(15.9972 -0.100676 -0.103959)
(16.0094 -0.144531 -0.113718)
(16.0174 -0.177709 -0.13185)
(16.0213 -0.200154 -0.170047)
(16.0246 -0.219527 -0.32219)
(16.0322 -0.23856 -0.477802)
(16.0405 -0.254513 -0.464857)
(16.0449 -0.264886 -0.331174)
(16.0467 -0.269979 -0.229524)
(16.0486 -0.272595 -0.244545)
(16.0514 -0.275551 -0.380054)
(16.0544 -0.278882 -0.651833)
(16.0578 -0.281804 -1.10156)
(16.0627 -0.283829 -1.7721)
(16.0704 -0.284418 -2.67678)
(16.0837 -0.282584 -3.74327)
(16.1036 -0.2776 -4.77043)
(16.1254 -0.269368 -5.58974)
(16.1471 -0.258938 -6.21861)
(16.1722 -0.247846 -6.65665)
(16.2028 -0.237804 -6.842)
(16.2373 -0.230333 -6.75395)
(16.2721 -0.225505 -6.52785)
(16.3085 -0.221899 -6.39888)
(16.3535 -0.219921 -6.44493)
(16.4099 -0.21906 -6.53185)
(16.473 -0.220991 -6.50014)
(16.5384 -0.224888 -6.37505)
(16.6072 -0.230182 -6.23683)
(16.6809 -0.237341 -6.10886)
(16.7606 -0.248712 -6.02301)
(16.8457 -0.25961 -5.99426)
(16.9318 -0.267423 -6.00924)
(17.0157 -0.273661 -6.0561)
(17.0985 -0.285755 -6.13435)
(17.1939 -0.320371 -6.20632)
(17.336 -0.387586 -6.19634)
(17.5448 -0.448914 -6.06737)
(17.7916 -0.464314 -5.80083)
(18.0333 -0.440404 -5.36675)
(18.2551 -0.400305 -4.82435)
(18.4636 -0.322691 -4.23447)
(18.6703 -0.222725 -3.64059)
(18.8875 -0.125891 -3.03598)
(19.1184 -0.0459892 -2.41408)
(19.3647 0.0279972 -1.79829)
(19.6377 0.114706 -1.20736)
(19.937 0.22498 -0.598609)
(20.2348 0.360063 0.0789282)
(20.5167 0.511031 0.760871)
(20.7738 0.615866 1.36913)
(21.0006 0.658348 1.86036)
(21.1987 0.644861 2.27898)
(21.3661 0.600761 2.61235)
(21.5167 0.546223 2.95661)
(21.6331 0.49391 3.19189)
(21.7566 0.445578 3.55627)
(21.8109 0.383834 3.46096)
(15.9565 0.0863269 -0.0815096)
(15.9209 0.176225 -0.205568)
(15.9239 0.243725 -0.293354)
(15.9375 0.279393 -0.380216)
(15.9518 0.296455 -0.456648)
(15.9614 0.305038 -0.525792)
(15.9692 0.307158 -0.724156)
(15.9842 0.303822 -0.953594)
(16.0025 0.297956 -1.01867)
(16.0159 0.292827 -0.938676)
(16.0236 0.289601 -0.856523)
(16.0287 0.287098 -0.874168)
(16.0334 0.283493 -1.01965)
(16.0386 0.278883 -1.31203)