/*--------------------------------*- C++ -*----------------------------------*\
  =========                 |
  \\      /  F ield         | OpenFOAM: The Open Source CFD Toolbox
   \\    /   O peration     | Website:  https://openfoam.org
    \\  /    A nd           | Version:  8
     \\/     M anipulation  |
\*---------------------------------------------------------------------------*/
FoamFile
{
    version     2.0;
    format      ascii;
    class       volScalarField;
    location    "600";
    object      k;
}
// * * * * * * * * * * * * * * * * * * * * * * * * * * * * * * * * * * * * * //

dimensions      [0 2 -2 0 0 0 0];

internalField   nonuniform List<scalar> 
8400
(
0.00323701
0.00317065
0.00311567
0.0030531
0.0029838
0.00291122
0.00283704
0.00276076
0.00268
0.00259387
0.00250711
0.0024227
0.00234236
0.00226644
0.00219479
0.00212709
0.00206291
0.0020019
0.00194381
0.00188867
0.00183767
0.00179111
0.00174815
0.00170593
0.00166484
0.00162624
0.00159021
0.00155687
0.00152636
0.00149887
0.00147469
0.00145415
0.00143761
0.00142545
0.00141804
0.00141571
0.00141618
0.00141535
0.00140892
0.00139337
0.00136632
0.00132686
0.00127614
0.00121835
0.00116137
0.00111555
0.00108883
0.0010821
0.00109399
0.0011274
0.00190843
0.00178983
0.00167407
0.00157811
0.00148993
0.00140553
0.00132737
0.00125648
0.00119369
0.00113867
0.00108612
0.00103552
0.0009882
0.000945967
0.00090952
0.000879239
0.000855616
0.000839242
0.000830773
0.000830836
0.000837407
0.000849665
0.000867586
0.000893724
0.000926109
0.000960349
0.000996858
0.00103708
0.00108268
0.00113534
0.00119665
0.00126817
0.00135108
0.0014456
0.00155021
0.00165265
0.00173955
0.00180444
0.0018448
0.00185906
0.00184475
0.00179793
0.00171337
0.00158671
0.00141972
0.00122869
0.0010452
0.000889324
0.000753288
0.000622848
0.00257093
0.00241941
0.00230029
0.00217144
0.00205918
0.00195264
0.00184542
0.00173904
0.00163944
0.0015468
0.00146231
0.0013869
0.00132056
0.00126389
0.00121869
0.00118577
0.00116486
0.00115503
0.00115529
0.00116442
0.00117345
0.00117337
0.00116835
0.00117368
0.00119663
0.00123356
0.00128356
0.00134727
0.00142577
0.00152018
0.00163123
0.00175802
0.001896
0.00203402
0.00214817
0.00223199
0.00229733
0.00234913
0.00238805
0.00241454
0.00242773
0.0024249
0.00239926
0.00233848
0.00222386
0.00203987
0.00180594
0.00156777
0.00133656
0.00104734
0.00299447
0.00298838
0.00298167
0.00297186
0.00295532
0.00293207
0.00289778
0.00285332
0.00280054
0.00274005
0.00267527
0.0026125
0.00255486
0.00250211
0.00245254
0.00240574
0.00236309
0.0023273
0.00230601
0.00228553
0.00201094
0.00172848
0.00157691
0.00152766
0.00151452
0.00153115
0.00156934
0.00162462
0.00169526
0.00178156
0.00188442
0.00200239
0.00211568
0.00220144
0.00226913
0.00232995
0.00238608
0.00243909
0.00248152
0.00251508
0.00254198
0.00256351
0.00257945
0.00258889
0.0025892
0.00257364
0.00253219
0.00243166
0.00224309
0.00168602
0.00299729
0.00299442
0.0029914
0.00298816
0.00298446
0.00298008
0.00297463
0.00296783
0.00295956
0.00294982
0.00293888
0.00292718
0.00291485
0.00290169
0.00288729
0.0028712
0.00285297
0.00283219
0.0028086
0.00278141
0.00274637
0.00269356
0.00262737
0.00255789
0.00248493
0.00241224
0.00234421
0.0022843
0.0022355
0.00219989
0.00217859
0.00216223
0.00217828
0.002224
0.00228657
0.00235269
0.00241473
0.00246931
0.00251536
0.0025529
0.00258248
0.00260484
0.00262067
0.00263044
0.00263413
0.00263105
0.00261993
0.00260334
0.00258233
0.00255249
0.0029961
0.00299201
0.002988
0.00298406
0.00298016
0.00297628
0.00297235
0.00296828
0.00296401
0.00295949
0.00295471
0.00294967
0.00294435
0.00293865
0.00293243
0.00292546
0.00291749
0.00290813
0.00289698
0.00288356
0.00286709
0.00284626
0.00282012
0.00278912
0.00275368
0.00271496
0.00267496
0.00263615
0.00260121
0.00257279
0.00255351
0.00254468
0.0025435
0.00255126
0.00256636
0.00258628
0.00260823
0.00262979
0.00264923
0.00266554
0.0026783
0.00268744
0.00269312
0.00269554
0.00269477
0.00269073
0.00268427
0.00267508
0.00266314
0.00264813
0.0029957
0.0029911
0.00298647
0.00298185
0.00297727
0.00297271
0.00296821
0.00296372
0.00295923
0.00295473
0.00295021
0.00294566
0.0029411
0.00293652
0.00293189
0.00292715
0.00292218
0.0029168
0.00291075
0.00290374
0.00289538
0.00288526
0.00287294
0.00285816
0.00284094
0.00282164
0.00280103
0.0027803
0.00276094
0.00274457
0.00273276
0.00272685
0.00272426
0.00272449
0.00272695
0.0027308
0.00273513
0.00273913
0.00274222
0.00274407
0.00274456
0.00274375
0.00274178
0.00273876
0.00273473
0.00272971
0.00272312
0.00271392
0.00270217
0.00268764
0.00299482
0.00298923
0.00298362
0.00297805
0.00297255
0.00296711
0.00296176
0.00295647
0.00295125
0.0029461
0.00294099
0.00293594
0.00293095
0.00292607
0.00292133
0.00291674
0.00291229
0.00290792
0.00290352
0.00289889
0.00289382
0.00288805
0.00288132
0.00287344
0.00286431
0.00285403
0.00284289
0.00283143
0.00282034
0.00281041
0.00280236
0.00279672
0.00279255
0.00278905
0.00278594
0.0027829
0.00277965
0.00277595
0.00277168
0.00276686
0.00276161
0.00275615
0.0027507
0.00274541
0.00274022
0.00273422
0.00272736
0.00271924
0.00270926
0.00269671
0.00299364
0.0029867
0.00297973
0.00297283
0.00296601
0.00295935
0.00295282
0.00294642
0.00294014
0.00293399
0.00292797
0.00292206
0.0029163
0.00291074
0.00290543
0.00290043
0.00289575
0.00289142
0.00288738
0.00288353
0.00287971
0.00287573
0.00287139
0.00286652
0.00286099
0.00285477
0.00284795
0.00284074
0.00283341
0.00282628
0.00281963
0.00281362
0.00280811
0.00280243
0.00279638
0.00278985
0.00278278
0.00277521
0.00276722
0.002759
0.00275088
0.00274322
0.00273629
0.00273026
0.00272379
0.00271828
0.00271333
0.00270803
0.00270119
0.00269168
0.00299159
0.00298216
0.00297285
0.00296376
0.00295496
0.00294645
0.00293826
0.00293035
0.00292275
0.00291537
0.00290818
0.00290124
0.00289456
0.00288821
0.00288225
0.0028768
0.00287188
0.00286748
0.0028636
0.00286018
0.00285708
0.00285409
0.00285103
0.00284769
0.00284394
0.00283968
0.00283486
0.00282952
0.00282376
0.00281768
0.00281136
0.00280479
0.00279788
0.00279071
0.00278277
0.00277403
0.00276456
0.00275449
0.00274408
0.00273372
0.00272385
0.00271497
0.00270746
0.0026998
0.00269439
0.00269148
0.00269002
0.00268866
0.00268571
0.00267964
0.00298763
0.00297296
0.00295917
0.0029462
0.00293413
0.00292287
0.00291239
0.00290258
0.0028933
0.00288453
0.00287615
0.00286815
0.00286064
0.00285368
0.00284733
0.00284175
0.00283704
0.00283317
0.00283005
0.00282759
0.00282558
0.00282377
0.00282195
0.0028199
0.00281743
0.00281439
0.00281071
0.00280635
0.0028013
0.00279555
0.00278905
0.00278178
0.00277367
0.00276463
0.00275509
0.00274442
0.00273276
0.00272034
0.00270759
0.00269517
0.00268386
0.0026742
0.00266427
0.00265789
0.00265608
0.00265803
0.00266195
0.00266561
0.00266692
0.00266415
0.00297891
0.00295283
0.00293016
0.00291026
0.00289322
0.00287847
0.00286582
0.00285459
0.00284453
0.00283521
0.00282662
0.00281861
0.00281114
0.00280452
0.00279893
0.00279456
0.00279142
0.00278931
0.00278805
0.00278743
0.00278721
0.00278705
0.0027867
0.00278596
0.00278463
0.00278254
0.0027796
0.00277572
0.00277085
0.00276491
0.00275785
0.00274959
0.00274002
0.00272897
0.00271665
0.00270359
0.00268867
0.00267283
0.00265671
0.00264144
0.00262809
0.00261296
0.00260454
0.00260456
0.00261137
0.00262204
0.0026334
0.00264264
0.00264777
0.00264738
0.00292804
0.00289053
0.00285895
0.00283528
0.00281648
0.00280291
0.00279409
0.00278608
0.00277905
0.00277283
0.00276685
0.00276057
0.00275468
0.00274998
0.00274673
0.00274466
0.00274376
0.0027439
0.00274471
0.00274603
0.00274761
0.00274893
0.00274979
0.00275003
0.00274936
0.00274761
0.00274478
0.00274077
0.0027354
0.00272856
0.00272008
0.00270987
0.00269769
0.00268314
0.00266579
0.00264535
0.00262389
0.00260018
0.00257302
0.00254172
0.00250901
0.00250392
0.00252243
0.00254856
0.00257296
0.00259467
0.00261151
0.00262351
0.00262999
0.00262997
0.00271927
0.00270022
0.00269243
0.00268895
0.00268693
0.00268649
0.00268703
0.00268761
0.00268812
0.00268835
0.0026882
0.00268795
0.00268833
0.00268956
0.0026914
0.00269378
0.00269674
0.00269993
0.00270317
0.00270631
0.00270911
0.0027113
0.00271278
0.00271331
0.00271262
0.0027104
0.00270663
0.002701
0.00269336
0.0026837
0.00267148
0.00265603
0.00263611
0.00260985
0.00257363
0.00251779
0.00241759
0.0023922
0.0024185
0.00244861
0.00247548
0.00249958
0.00252344
0.00254674
0.00256771
0.00258562
0.00259913
0.00260799
0.00261177
0.00260964
0.00247705
0.00248653
0.00249935
0.00251344
0.00252774
0.00254166
0.00255492
0.00256721
0.00257849
0.00258879
0.00259831
0.00260731
0.00261595
0.00262422
0.00263201
0.0026392
0.00264573
0.00265163
0.00265687
0.00266123
0.00266462
0.00266697
0.0026681
0.00266769
0.00266542
0.00266085
0.00265378
0.00264391
0.00263063
0.00261319
0.00259095
0.00256445
0.00253567
0.00250789
0.00248503
0.0024699
0.0024647
0.0024706
0.00248248
0.0024978
0.00251412
0.00252998
0.00254505
0.00255898
0.0025711
0.00258085
0.00258743
0.00259037
0.00258913
0.00258299
0.00242092
0.00242881
0.00243736
0.00244657
0.00245653
0.00246718
0.00247841
0.00249001
0.0025018
0.00251357
0.00252521
0.00253658
0.00254754
0.00255792
0.00256759
0.00257639
0.00258423
0.00259103
0.00259672
0.00260116
0.00260424
0.00260583
0.00260572
0.00260368
0.0025995
0.00259303
0.00258431
0.00257346
0.0025607
0.00254657
0.00253202
0.0025185
0.00250756
0.00250043
0.00249773
0.00249919
0.00250401
0.00251122
0.00251967
0.00252855
0.0025373
0.00254541
0.00255266
0.00255865
0.00256305
0.00256546
0.00256545
0.00256255
0.00255623
0.00254587
0.00241475
0.00242004
0.0024256
0.00243155
0.00243785
0.0024445
0.00245145
0.00245864
0.00246605
0.00247364
0.00248137
0.00248917
0.00249693
0.00250453
0.00251182
0.00251867
0.00252495
0.0025305
0.00253522
0.00253899
0.00254171
0.00254329
0.00254363
0.0025427
0.00254056
0.00253734
0.00253327
0.00252869
0.002524
0.0025197
0.00251624
0.00251404
0.00251335
0.00251419
0.00251632
0.00251932
0.00252272
0.0025262
0.00252945
0.00253232
0.00253467
0.00253629
0.00253709
0.00253676
0.00253507
0.0025317
0.00252637
0.00251865
0.00250809
0.00249425
0.00238552
0.00239092
0.00239656
0.00240238
0.0024084
0.00241468
0.00242131
0.00242825
0.00243536
0.00244244
0.00244943
0.00245623
0.00246283
0.00246918
0.00247525
0.002481
0.00248638
0.00249133
0.0024958
0.00249973
0.0025031
0.00250588
0.00250807
0.00250967
0.00251072
0.0025113
0.00251153
0.00251151
0.00251134
0.00251113
0.00251092
0.00251074
0.00251058
0.00251036
0.00250994
0.0025092
0.00250812
0.00250666
0.00250477
0.00250243
0.00249964
0.00249625
0.00249212
0.00248703
0.00248085
0.0024733
0.00246411
0.00245296
0.00243956
0.00242354
0.00243244
0.00243959
0.00244198
0.0024392
0.00243196
0.00242174
0.00241032
0.00239954
0.0023912
0.00238694
0.00238802
0.0023923
0.0023986
0.00240577
0.0024132
0.00242054
0.00242755
0.00243415
0.00244027
0.00244587
0.00245093
0.00245541
0.00245929
0.00246253
0.00246514
0.00246711
0.00246844
0.00246912
0.00246914
0.0024685
0.00246722
0.00246529
0.00246273
0.00245955
0.00245579
0.00245148
0.00244668
0.00244143
0.00243577
0.00242972
0.00242321
0.00241618
0.00240855
0.00240018
0.00239094
0.00238065
0.00236908
0.00235607
0.00234141
0.00232492
0.00613971
0.00601622
0.00588952
0.00576084
0.00563124
0.00550127
0.00537116
0.00524099
0.00511076
0.00498041
0.00484986
0.00472203
0.00459872
0.00448144
0.00437086
0.00426726
0.00417056
0.00408048
0.00399664
0.00391863
0.00384599
0.00377828
0.00371503
0.00365578
0.00360009
0.00354749
0.00349749
0.00344962
0.00340342
0.00335839
0.00331409
0.00327008
0.00322592
0.00318126
0.00313578
0.00308928
0.00304166
0.00299293
0.00294319
0.00289271
0.00284177
0.00279067
0.00273971
0.00268915
0.00263917
0.00258989
0.00254137
0.00249356
0.00244639
0.00239976
2.38392e-05
2.36687e-05
2.34976e-05
2.33176e-05
2.31305e-05
2.29348e-05
2.27315e-05
2.25223e-05
2.23099e-05
2.20972e-05
2.1887e-05
2.16815e-05
2.14825e-05
2.12911e-05
2.1108e-05
2.09331e-05
2.07665e-05
2.06078e-05
2.04567e-05
2.03124e-05
2.01603e-05
2.00051e-05
1.98483e-05
1.96501e-05
1.94656e-05
1.92892e-05
1.91154e-05
1.89408e-05
1.87642e-05
1.85861e-05
1.8408e-05
1.82309e-05
1.8059e-05
1.78965e-05
1.77467e-05
1.76094e-05
1.74842e-05
1.73699e-05
1.72643e-05
1.71643e-05
1.70666e-05
1.69678e-05
1.68652e-05
1.67558e-05
1.66372e-05
1.65115e-05
1.63816e-05
1.62501e-05
1.6118e-05
1.59831e-05
2.32649e-05
2.22797e-05
2.13413e-05
2.04437e-05
1.95901e-05
1.87806e-05
1.80139e-05
1.729e-05
1.66089e-05
1.59704e-05
1.53739e-05
1.48181e-05
1.43012e-05
1.38213e-05
1.33761e-05
1.29638e-05
1.25824e-05
1.22301e-05
1.19051e-05
1.16048e-05
1.1356e-05
1.13536e-05
1.13253e-05
1.13761e-05
1.14199e-05
1.1442e-05
1.14387e-05
1.14122e-05
1.13674e-05
1.13099e-05
1.12466e-05
1.11859e-05
1.11334e-05
1.10934e-05
1.10679e-05
1.10586e-05
1.10633e-05
1.10776e-05
1.10958e-05
1.1112e-05
1.11206e-05
1.11166e-05
1.10972e-05
1.10626e-05
1.10151e-05
1.09558e-05
1.0887e-05
1.0812e-05
1.07351e-05
1.06602e-05
2.32575e-05
2.22565e-05
2.12989e-05
2.03831e-05
1.95102e-05
1.86794e-05
1.78902e-05
1.71424e-05
1.64357e-05
1.57698e-05
1.51437e-05
1.45564e-05
1.4006e-05
1.3491e-05
1.30093e-05
1.2559e-05
1.21384e-05
1.17454e-05
1.13786e-05
1.12522e-05
1.11669e-05
1.1106e-05
1.10542e-05
1.10054e-05
1.09522e-05
1.08909e-05
1.08196e-05
1.07385e-05
1.06494e-05
1.0555e-05
1.0459e-05
1.03656e-05
1.02787e-05
1.02016e-05
1.01358e-05
1.00816e-05
1.00377e-05
1.00015e-05
9.9699e-06
9.93911e-06
9.90577e-06
9.86746e-06
9.82193e-06
9.76798e-06
9.70564e-06
9.63588e-06
9.56026e-06
9.48058e-06
9.3989e-06
9.31833e-06
2.32571e-05
2.22619e-05
2.13105e-05
2.04002e-05
1.95322e-05
1.87056e-05
1.792e-05
1.71753e-05
1.64713e-05
1.58077e-05
1.51833e-05
1.45969e-05
1.40466e-05
1.35306e-05
1.30469e-05
1.25935e-05
1.21688e-05
1.17709e-05
1.13985e-05
1.12663e-05
1.11736e-05
1.11052e-05
1.10466e-05
1.09889e-05
1.09265e-05
1.08561e-05
1.07763e-05
1.06872e-05
1.05905e-05
1.04887e-05
1.03853e-05
1.02838e-05
1.01879e-05
1.01002e-05
1.00223e-05
9.95441e-06
9.89531e-06
9.84284e-06
9.79416e-06
9.7463e-06
9.6963e-06
9.64159e-06
9.5804e-06
9.51194e-06
9.43652e-06
9.35554e-06
9.27112e-06
9.18543e-06
9.1001e-06
9.01687e-06
2.3257e-05
2.22613e-05
2.13083e-05
2.03952e-05
1.95241e-05
1.86949e-05
1.79078e-05
1.71629e-05
1.646e-05
1.57985e-05
1.51771e-05
1.45939e-05
1.40468e-05
1.35333e-05
1.30513e-05
1.25985e-05
1.21734e-05
1.17741e-05
1.13996e-05
1.1265e-05
1.11697e-05
1.10987e-05
1.10378e-05
1.09782e-05
1.09145e-05
1.08436e-05
1.0764e-05
1.06759e-05
1.05807e-05
1.04809e-05
1.03795e-05
1.02799e-05
1.01852e-05
1.00981e-05
1.00198e-05
9.95049e-06
9.88901e-06
9.83332e-06
9.78085e-06
9.72878e-06
9.67429e-06
9.61505e-06
9.54945e-06
9.47679e-06
9.39734e-06
9.31229e-06
9.22378e-06
9.1344e-06
9.04627e-06
8.96117e-06
2.3257e-05
2.2261e-05
2.13074e-05
2.03937e-05
1.95224e-05
1.86937e-05
1.79081e-05
1.71657e-05
1.64664e-05
1.5809e-05
1.51921e-05
1.46132e-05
1.40696e-05
1.35587e-05
1.3078e-05
1.26252e-05
1.21985e-05
1.17966e-05
1.14186e-05
1.12813e-05
1.11834e-05
1.11091e-05
1.10443e-05
1.09812e-05
1.09148e-05
1.08423e-05
1.07624e-05
1.06751e-05
1.05817e-05
1.04843e-05
1.03857e-05
1.02889e-05
1.01966e-05
1.01112e-05
1.00338e-05
9.96442e-06
9.90198e-06
9.84465e-06
9.79003e-06
9.73544e-06
9.67833e-06
9.61661e-06
9.5489e-06
9.47469e-06
9.39427e-06
9.30872e-06
9.21975e-06
9.12974e-06
9.04092e-06
8.95519e-06
2.32568e-05
2.22597e-05
2.13042e-05
2.03883e-05
1.95151e-05
1.86852e-05
1.78996e-05
1.71585e-05
1.64616e-05
1.58077e-05
1.51946e-05
1.46195e-05
1.40791e-05
1.35704e-05
1.30904e-05
1.26369e-05
1.22081e-05
1.18029e-05
1.14213e-05
1.13361e-05
1.12551e-05
1.11768e-05
1.11001e-05
1.10235e-05
1.09451e-05
1.08632e-05
1.07769e-05
1.0686e-05
1.05912e-05
1.04939e-05
1.03963e-05
1.03009e-05
1.02098e-05
1.0125e-05
1.00473e-05
9.9769e-06
9.91269e-06
9.85304e-06
9.79577e-06
9.73847e-06
9.6788e-06
9.61488e-06
9.54548e-06
9.47017e-06
9.38932e-06
9.30394e-06
9.2156e-06
9.1263e-06
9.03813e-06
8.9529e-06
2.32565e-05
2.22576e-05
2.12998e-05
2.03817e-05
1.95069e-05
1.86766e-05
1.78919e-05
1.71533e-05
1.64602e-05
1.58109e-05
1.52028e-05
1.46324e-05
1.40959e-05
1.35896e-05
1.31106e-05
1.26563e-05
1.22252e-05
1.18164e-05
1.14304e-05
1.13419e-05
1.12577e-05
1.11762e-05
1.10968e-05
1.10182e-05
1.09391e-05
1.08578e-05
1.07732e-05
1.06851e-05
1.05936e-05
1.04999e-05
1.04058e-05
1.03131e-05
1.02239e-05
1.01397e-05
1.00616e-05
9.98953e-06
9.92285e-06
9.86014e-06
9.79956e-06
9.73904e-06
9.67659e-06
9.61057e-06
9.53984e-06
9.46395e-06
9.38317e-06
9.29842e-06
9.21109e-06
9.12293e-06
9.03581e-06
8.95138e-06
2.3256e-05
2.22548e-05
2.12942e-05
2.03737e-05
1.94972e-05
1.86664e-05
1.78828e-05
1.71468e-05
1.64575e-05
1.58128e-05
1.52095e-05
1.46435e-05
1.41103e-05
1.3606e-05
1.31271e-05
1.26713e-05
1.22371e-05
1.1824e-05
1.14331e-05
1.134e-05
1.12514e-05
1.11663e-05
1.10843e-05
1.10048e-05
1.0926e-05
1.08466e-05
1.07652e-05
1.0681e-05
1.05939e-05
1.05045e-05
1.04142e-05
1.03244e-05
1.02369e-05
1.01531e-05
1.00739e-05
9.99969e-06
9.92997e-06
9.86373e-06
9.79948e-06
9.73557e-06
9.67032e-06
9.60237e-06
9.53072e-06
9.45486e-06
9.37491e-06
9.29153e-06
9.20587e-06
9.1194e-06
9.03376e-06
8.95043e-06
2.32552e-05
2.22511e-05
2.12875e-05
2.03645e-05
1.94865e-05
1.86557e-05
1.78736e-05
1.71406e-05
1.64556e-05
1.5816e-05
1.52177e-05
1.46561e-05
1.41263e-05
1.36237e-05
1.31447e-05
1.26871e-05
1.22496e-05
1.18322e-05
1.14363e-05
1.13385e-05
1.12456e-05
1.11571e-05
1.10731e-05
1.09929e-05
1.09151e-05
1.0838e-05
1.076e-05
1.068e-05
1.05973e-05
1.05121e-05
1.04252e-05
1.03378e-05
1.02513e-05
1.0167e-05
1.0086e-05
1.00089e-05
9.93539e-06
9.86503e-06
9.79676e-06
9.72926e-06
9.66128e-06
9.59161e-06
9.51939e-06
9.44407e-06
9.36554e-06
9.28417e-06
9.20074e-06
9.11646e-06
9.03264e-06
8.9506e-06
2.32542e-05
2.22466e-05
2.12799e-05
2.03545e-05
1.94752e-05
1.86446e-05
1.78644e-05
1.71348e-05
1.64543e-05
1.58196e-05
1.52262e-05
1.46687e-05
1.41417e-05
1.36403e-05
1.31608e-05
1.27009e-05
1.22598e-05
1.18378e-05
1.14372e-05
1.1335e-05
1.12383e-05
1.1147e-05
1.10616e-05
1.09815e-05
1.09053e-05
1.08311e-05
1.07569e-05
1.06811e-05
1.06028e-05
1.05215e-05
1.04376e-05
1.03519e-05
1.02657e-05
1.01802e-05
1.00967e-05
1.00159e-05
9.93816e-06
9.8633e-06
9.79079e-06
9.71975e-06
9.64921e-06
9.57819e-06
9.50583e-06
9.43157e-06
9.35502e-06
9.27625e-06
9.19563e-06
9.11394e-06
9.03222e-06
8.95151e-06
2.3253e-05
2.22414e-05
2.12713e-05
2.03437e-05
1.94635e-05
1.86335e-05
1.78556e-05
1.71295e-05
1.64534e-05
1.58236e-05
1.52346e-05
1.46807e-05
1.41559e-05
1.36551e-05
1.31744e-05
1.27119e-05
1.22671e-05
1.18407e-05
1.14355e-05
1.13295e-05
1.12298e-05
1.11366e-05
1.10506e-05
1.09714e-05
1.08973e-05
1.08264e-05
1.07564e-05
1.06851e-05
1.06111e-05
1.05334e-05
1.04521e-05
1.03676e-05
1.0281e-05
1.01937e-05
1.0107e-05
1.0022e-05
9.93955e-06
9.85989e-06
9.78292e-06
9.7083e-06
9.63531e-06
9.56316e-06
9.49105e-06
9.41819e-06
9.34405e-06
9.26824e-06
9.19076e-06
9.112e-06
9.03257e-06
8.95332e-06
2.32515e-05
2.22356e-05
2.12622e-05
2.03325e-05
1.94518e-05
1.86229e-05
1.78475e-05
1.71253e-05
1.64537e-05
1.58285e-05
1.52437e-05
1.4693e-05
1.41699e-05
1.36693e-05
1.31874e-05
1.27222e-05
1.22738e-05
1.18435e-05
1.14344e-05
1.13251e-05
1.12231e-05
1.11286e-05
1.10428e-05
1.09651e-05
1.0894e-05
1.0827e-05
1.07616e-05
1.06951e-05
1.06254e-05
1.05514e-05
1.04724e-05
1.03888e-05
1.03014e-05
1.02118e-05
1.01214e-05
1.00318e-05
9.94419e-06
9.85938e-06
9.77779e-06
9.69941e-06
9.62387e-06
9.55057e-06
9.47867e-06
9.40731e-06
9.33561e-06
9.26286e-06
9.18857e-06
9.11266e-06
9.03542e-06
8.95744e-06
2.32499e-05
2.22294e-05
2.12526e-05
2.03211e-05
1.94401e-05
1.86125e-05
1.78396e-05
1.71207e-05
1.6453e-05
1.58314e-05
1.52498e-05
1.4701e-05
1.41787e-05
1.36773e-05
1.31933e-05
1.27252e-05
1.22732e-05
1.18391e-05
1.14268e-05
1.13154e-05
1.12121e-05
1.11174e-05
1.10324e-05
1.09566e-05
1.08882e-05
1.08246e-05
1.07629e-05
1.07002e-05
1.0634e-05
1.05626e-05
1.04852e-05
1.0402e-05
1.03139e-05
1.02223e-05
1.01289e-05
1.00355e-05
9.94384e-06
9.85511e-06
9.77012e-06
9.68926e-06
9.61235e-06
9.53894e-06
9.46818e-06
9.39903e-06
9.33034e-06
9.26098e-06
9.1901e-06
9.11718e-06
9.04214e-06
8.96535e-06
2.32481e-05
2.22229e-05
2.1243e-05
2.03104e-05
1.94298e-05
1.86042e-05
1.78345e-05
1.71196e-05
1.64561e-05
1.58384e-05
1.52597e-05
1.47128e-05
1.4191e-05
1.36889e-05
1.32032e-05
1.27325e-05
1.22775e-05
1.18406e-05
1.14258e-05
1.13124e-05
1.1208e-05
1.1113e-05
1.10285e-05
1.09539e-05
1.08873e-05
1.08258e-05
1.07662e-05
1.07053e-05
1.06404e-05
1.05697e-05
1.04921e-05
1.04077e-05
1.03174e-05
1.02228e-05
1.01258e-05
1.00286e-05
9.93312e-06
9.84101e-06
9.75343e-06
9.671e-06
9.59379e-06
9.52137e-06
9.45285e-06
9.38701e-06
9.32236e-06
9.25741e-06
9.19081e-06
9.12167e-06
9.04964e-06
8.97489e-06
2.32463e-05
2.22162e-05
2.12328e-05
2.02981e-05
1.94168e-05
1.85916e-05
1.78232e-05
1.71102e-05
1.64486e-05
1.58326e-05
1.52549e-05
1.47081e-05
1.41854e-05
1.36816e-05
1.31935e-05
1.27202e-05
1.22627e-05
1.18238e-05
1.14078e-05
1.12944e-05
1.11909e-05
1.10974e-05
1.10151e-05
1.09433e-05
1.08798e-05
1.08217e-05
1.07655e-05
1.07076e-05
1.06452e-05
1.05762e-05
1.04994e-05
1.0415e-05
1.03237e-05
1.02274e-05
1.01281e-05
1.00282e-05
9.93017e-06
9.83586e-06
9.74677e-06
9.66374e-06
9.58703e-06
9.51628e-06
9.45057e-06
9.38845e-06
9.32818e-06
9.26795e-06
9.20609e-06
9.14136e-06
9.07321e-06
9.0018e-06
2.32445e-05
2.22104e-05
2.12254e-05
2.02916e-05
1.9413e-05
1.85913e-05
1.7827e-05
1.71178e-05
1.64593e-05
1.58455e-05
1.52687e-05
1.47217e-05
1.41978e-05
1.3692e-05
1.32014e-05
1.27254e-05
1.22656e-05
1.18248e-05
1.14076e-05
1.12936e-05
1.119e-05
1.10972e-05
1.10159e-05
1.09455e-05
1.08838e-05
1.08274e-05
1.0773e-05
1.07168e-05
1.06558e-05
1.05878e-05
1.05117e-05
1.04276e-05
1.03365e-05
1.02401e-05
1.01407e-05
1.0041e-05
9.94344e-06
9.85021e-06
9.763e-06
9.68282e-06
9.61006e-06
9.54436e-06
9.48478e-06
9.4298e-06
9.37747e-06
9.32573e-06
9.27276e-06
9.21721e-06
9.15852e-06
9.09701e-06
2.32428e-05
2.21983e-05
2.12037e-05
2.02625e-05
1.93789e-05
1.85546e-05
1.77896e-05
1.70809e-05
1.64236e-05
1.58109e-05
1.52353e-05
1.46891e-05
1.41659e-05
1.36608e-05
1.31713e-05
1.2697e-05
1.22394e-05
1.18016e-05
1.13882e-05
1.12791e-05
1.11791e-05
1.10879e-05
1.10091e-05
1.09426e-05
1.08863e-05
1.08368e-05
1.07932e-05
1.07504e-05
1.07035e-05
1.06499e-05
1.05881e-05
1.05182e-05
1.04413e-05
1.03591e-05
1.02741e-05
1.01888e-05
1.01059e-05
1.00276e-05
9.95563e-06
9.89123e-06
9.83491e-06
9.7865e-06
9.74513e-06
9.70927e-06
9.67695e-06
9.64606e-06
9.61461e-06
9.58134e-06
9.54587e-06
9.50909e-06
2.32445e-05
2.22064e-05
2.12254e-05
2.03006e-05
1.9438e-05
1.86399e-05
1.79043e-05
1.72275e-05
1.66041e-05
1.60271e-05
1.54885e-05
1.49805e-05
1.44957e-05
1.40286e-05
1.35756e-05
1.31358e-05
1.27102e-05
1.23022e-05
1.19165e-05
1.15569e-05
1.14298e-05
1.12953e-05
1.11826e-05
1.10988e-05
1.10438e-05
1.10127e-05
1.10901e-05
1.11806e-05
1.12621e-05
1.13237e-05
1.13617e-05
1.13763e-05
1.13702e-05
1.13472e-05
1.13117e-05
1.12684e-05
1.12217e-05
1.11757e-05
1.11335e-05
1.10977e-05
1.10695e-05
1.10492e-05
1.1036e-05
1.10282e-05
1.10234e-05
1.10189e-05
1.10124e-05
1.10025e-05
1.09895e-05
1.09758e-05
2.38432e-05
2.36323e-05
2.34235e-05
2.32212e-05
2.3026e-05
2.28372e-05
2.26556e-05
2.24809e-05
2.23111e-05
2.21437e-05
2.19755e-05
2.18035e-05
2.16259e-05
2.14418e-05
2.12519e-05
2.10585e-05
2.0865e-05
2.06752e-05
2.0493e-05
2.03215e-05
2.01621e-05
2.00001e-05
1.98384e-05
1.96814e-05
1.95282e-05
1.93774e-05
1.91878e-05
1.90102e-05
1.88376e-05
1.86654e-05
1.84909e-05
1.83137e-05
1.81347e-05
1.79561e-05
1.77808e-05
1.76121e-05
1.74524e-05
1.73038e-05
1.71674e-05
1.70428e-05
1.69286e-05
1.68225e-05
1.67211e-05
1.66209e-05
1.65185e-05
1.64109e-05
1.62965e-05
1.61744e-05
1.6045e-05
1.59098e-05
6.55885e-06
5.48219e-06
6.84068e-06
8.48937e-06
9.29016e-06
8.93858e-06
7.65596e-06
6.01533e-06
4.79524e-06
4.43057e-06
4.49842e-06
4.31467e-06
4.30996e-06
4.70756e-06
5.36375e-06
6.17679e-06
7.06732e-06
8.0099e-06
1.07713e-05
4.45896e-05
6.56866e-06
5.45401e-06
6.80851e-06
8.45482e-06
9.24481e-06
8.87159e-06
7.57412e-06
5.95603e-06
4.78196e-06
4.44197e-06
4.52557e-06
4.3181e-06
4.29045e-06
4.67409e-06
5.32626e-06
6.17155e-06
7.10393e-06
8.08496e-06
1.11501e-05
4.9446e-05
6.5803e-06
5.42747e-06
6.77111e-06
8.40985e-06
9.19227e-06
8.81217e-06
7.52593e-06
5.94335e-06
4.79935e-06
4.46258e-06
4.5452e-06
4.33406e-06
4.22795e-06
4.63272e-06
5.29026e-06
6.15538e-06
7.10771e-06
8.10134e-06
1.12159e-05
5.22696e-05
6.59144e-06
5.40202e-06
6.72618e-06
8.3543e-06
9.13802e-06
8.76917e-06
7.50921e-06
5.96279e-06
4.8325e-06
4.48313e-06
4.57131e-06
4.40264e-06
4.2037e-06
4.6072e-06
5.28098e-06
6.16464e-06
7.13035e-06
8.13874e-06
1.14298e-05
5.50808e-05
6.60386e-06
5.37335e-06
6.6719e-06
8.2911e-06
9.08584e-06
8.7423e-06
7.51982e-06
6.00931e-06
4.87923e-06
4.4996e-06
4.60025e-06
4.48941e-06
4.24398e-06
4.61974e-06
5.30181e-06
6.19928e-06
7.16851e-06
8.2037e-06
1.17967e-05
5.78613e-05
6.61871e-06
5.34062e-06
6.60931e-06
8.22191e-06
9.03636e-06
8.73e-06
7.55419e-06
6.08074e-06
4.94179e-06
4.51415e-06
4.62441e-06
4.59924e-06
4.33768e-06
4.67583e-06
5.35865e-06
6.25602e-06
7.22006e-06
8.29995e-06
1.23067e-05
6.05926e-05
6.6363e-06
5.30508e-06
6.54036e-06
8.1482e-06
8.98925e-06
8.72918e-06
7.6069e-06
6.17234e-06
5.02023e-06
4.52853e-06
4.63384e-06
4.7225e-06
4.48367e-06
4.7792e-06
5.44846e-06
6.33157e-06
7.28485e-06
8.42957e-06
1.29375e-05
6.32551e-05
6.65708e-06
5.26824e-06
6.46701e-06
8.07086e-06
8.94315e-06
8.73563e-06
7.67158e-06
6.27825e-06
5.11386e-06
4.5469e-06
4.62101e-06
4.84244e-06
4.67942e-06
4.92635e-06
5.56427e-06
6.42148e-06
7.362e-06
8.5911e-06
1.36569e-05
6.5827e-05
6.6814e-06
5.23113e-06
6.39033e-06
7.98936e-06
8.8949e-06
8.74362e-06
7.74081e-06
6.39152e-06
5.22053e-06
4.57549e-06
4.58463e-06
4.93735e-06
4.91392e-06
5.10355e-06
5.69576e-06
6.51972e-06
7.44865e-06
8.77799e-06
1.44245e-05
6.82845e-05
6.70894e-06
5.19369e-06
6.31019e-06
7.90203e-06
8.84072e-06
8.74748e-06
7.80768e-06
6.50503e-06
5.336e-06
4.62013e-06
4.53027e-06
4.97898e-06
5.16182e-06
5.28789e-06
5.8302e-06
6.61889e-06
7.53957e-06
8.97866e-06
1.51944e-05
7.06057e-05
6.73843e-06
5.15499e-06
6.22583e-06
7.80743e-06
8.77819e-06
8.74373e-06
7.86764e-06
6.61306e-06
5.45446e-06
4.68336e-06
4.47091e-06
4.93864e-06
5.36944e-06
5.4531e-06
5.95504e-06
6.71146e-06
7.62822e-06
9.17849e-06
1.59211e-05
7.27733e-05
6.76809e-06
5.1142e-06
6.1373e-06
7.70597e-06
8.70763e-06
8.7321e-06
7.91943e-06
6.71261e-06
5.57017e-06
4.76292e-06
4.42512e-06
4.80791e-06
5.46848e-06
5.57932e-06
6.061e-06
6.79149e-06
7.70833e-06
9.36284e-06
1.65661e-05
7.47767e-05
6.79666e-06
5.07186e-06
6.04642e-06
7.60061e-06
8.63235e-06
8.71517e-06
7.96424e-06
6.80305e-06
5.67897e-06
4.85245e-06
4.4098e-06
4.61913e-06
5.41881e-06
5.66158e-06
6.14412e-06
6.85605e-06
7.77556e-06
9.51995e-06
1.71029e-05
7.66095e-05
6.8243e-06
5.03009e-06
5.9567e-06
7.49602e-06
8.5569e-06
8.69635e-06
8.00408e-06
6.88495e-06
5.77867e-06
4.94432e-06
4.43099e-06
4.44069e-06
5.28695e-06
5.7105e-06
6.20538e-06
6.90505e-06
7.8278e-06
9.64235e-06
1.75176e-05
7.82673e-05
6.85268e-06
4.99171e-06
5.87176e-06
7.39623e-06
8.48463e-06
8.67759e-06
8.03974e-06
6.9586e-06
5.86841e-06
5.03225e-06
4.48102e-06
4.33188e-06
5.18965e-06
5.74188e-06
6.24806e-06
6.93985e-06
7.86462e-06
9.72657e-06
1.78066e-05
7.97454e-05
6.88391e-06
4.95865e-06
5.79349e-06
7.30257e-06
8.41569e-06
8.65809e-06
8.07023e-06
7.02336e-06
5.94777e-06
5.11259e-06
4.54497e-06
4.30382e-06
5.16483e-06
5.7632e-06
6.27482e-06
6.96157e-06
7.88618e-06
9.77218e-06
1.79722e-05
8.10396e-05
6.9191e-06
4.93075e-06
5.72114e-06
7.21327e-06
8.34754e-06
8.63517e-06
8.09358e-06
7.07844e-06
6.01675e-06
5.18391e-06
4.60984e-06
4.3257e-06
5.17143e-06
5.77001e-06
6.28594e-06
6.97036e-06
7.89284e-06
9.78114e-06
1.80212e-05
8.21476e-05
6.95741e-06
4.90579e-06
5.65204e-06
7.125e-06
8.27679e-06
8.60631e-06
8.10868e-06
7.12409e-06
6.07635e-06
5.24652e-06
4.66856e-06
4.35911e-06
5.14756e-06
5.75296e-06
6.28011e-06
6.96611e-06
7.88566e-06
9.758e-06
1.79662e-05
8.30711e-05
6.9965e-06
4.88098e-06
5.58327e-06
7.03491e-06
8.20148e-06
8.57104e-06
8.11659e-06
7.16249e-06
6.12915e-06
5.3026e-06
4.72011e-06
4.38546e-06
5.06047e-06
5.7076e-06
6.25745e-06
6.94992e-06
7.86707e-06
9.71032e-06
1.78272e-05
8.38148e-05
7.03406e-06
4.85461e-06
5.51353e-06
6.94256e-06
8.12254e-06
8.53161e-06
8.12057e-06
7.19742e-06
6.17907e-06
5.35618e-06
4.7686e-06
4.40699e-06
4.93045e-06
5.64019e-06
6.22126e-06
6.92484e-06
7.84098e-06
9.64763e-06
1.76338e-05
8.43841e-05
7.06928e-06
4.82712e-06
5.44372e-06
6.8499e-06
8.04292e-06
8.49162e-06
8.12452e-06
7.23298e-06
6.23041e-06
5.41218e-06
4.82157e-06
4.43562e-06
4.80413e-06
5.56416e-06
6.17753e-06
6.89523e-06
7.81183e-06
9.57954e-06
1.74197e-05
8.47828e-05
7.10345e-06
4.80055e-06
5.37604e-06
6.75966e-06
7.96555e-06
8.4539e-06
8.13115e-06
7.272e-06
6.28634e-06
5.47469e-06
4.88661e-06
4.48545e-06
4.71387e-06
5.49286e-06
6.13276e-06
6.86531e-06
7.78341e-06
9.51433e-06
1.7215e-05
8.50126e-05
7.13903e-06
4.7771e-06
5.31233e-06
6.6734e-06
7.89143e-06
8.41896e-06
8.1409e-06
7.31522e-06
6.34799e-06
5.54529e-06
4.96678e-06
4.56743e-06
4.67714e-06
5.43575e-06
6.09165e-06
6.83787e-06
7.75794e-06
9.4578e-06
1.70423e-05
8.50751e-05
7.17813e-06
4.75766e-06
5.25285e-06
6.59062e-06
7.81933e-06
8.38527e-06
8.15242e-06
7.36169e-06
6.41448e-06
5.6225e-06
5.05842e-06
4.67808e-06
4.70145e-06
5.39554e-06
6.05608e-06
6.81403e-06
7.73635e-06
9.41377e-06
1.69158e-05
8.49744e-05
7.22134e-06
4.74147e-06
5.19633e-06
6.50935e-06
7.74686e-06
8.35046e-06
8.1638e-06
7.40988e-06
6.48416e-06
5.7033e-06
5.15369e-06
4.79848e-06
4.77717e-06
5.36834e-06
6.02637e-06
6.79421e-06
7.71924e-06
9.38518e-06
1.6844e-05
8.47195e-05
7.26764e-06
4.72681e-06
5.14097e-06
6.42756e-06
7.67205e-06
8.31299e-06
8.17396e-06
7.45893e-06
6.55589e-06
5.78539e-06
5.24629e-06
4.9096e-06
4.87539e-06
5.35012e-06
6.00364e-06
6.77944e-06
7.70789e-06
9.37505e-06
1.68328e-05
8.43221e-05
7.31538e-06
4.71227e-06
5.08558e-06
6.34432e-06
7.59442e-06
8.27286e-06
8.18317e-06
7.50909e-06
6.62965e-06
5.86839e-06
5.33489e-06
5.00536e-06
4.96211e-06
5.34249e-06
5.99085e-06
6.77193e-06
7.70458e-06
9.38676e-06
1.68868e-05
8.37936e-05
7.36361e-06
4.69763e-06
5.03027e-06
6.26018e-06
7.51496e-06
8.23121e-06
8.19249e-06
7.5612e-06