/*--------------------------------*- C++ -*----------------------------------*\
  =========                 |
  \\      /  F ield         | OpenFOAM: The Open Source CFD Toolbox
   \\    /   O peration     | Website:  https://openfoam.org
    \\  /    A nd           | Version:  8
     \\/     M anipulation  |
\*---------------------------------------------------------------------------*/
FoamFile
{
    version     2.0;
    format      ascii;
    class       volScalarField;
    location    "600";
    object      nut;
}
// * * * * * * * * * * * * * * * * * * * * * * * * * * * * * * * * * * * * * //

dimensions      [0 2 -1 0 0 0 0];

internalField   nonuniform List<scalar> 
8400
(
6.22942e-05
6.14371e-05
6.08524e-05
6.03131e-05
5.97807e-05
5.91822e-05
5.84751e-05
5.76246e-05
5.66304e-05
5.55553e-05
5.45908e-05
5.37738e-05
5.30267e-05
5.23204e-05
5.16335e-05
5.09601e-05
5.0301e-05
4.96572e-05
4.90285e-05
4.84228e-05
4.79096e-05
4.74944e-05
4.71258e-05
4.66781e-05
4.62485e-05
4.58652e-05
4.55372e-05
4.52724e-05
4.50781e-05
4.4966e-05
4.49482e-05
4.50377e-05
4.52478e-05
4.55882e-05
4.60647e-05
4.66776e-05
4.72497e-05
4.75735e-05
4.75412e-05
4.71318e-05
4.63661e-05
4.52829e-05
4.39411e-05
4.24438e-05
4.0967e-05
3.97591e-05
3.90456e-05
3.88856e-05
3.92293e-05
4.01278e-05
4.31788e-05
4.20954e-05
4.0189e-05
3.82991e-05
3.65108e-05
3.50424e-05
3.40518e-05
3.34978e-05
3.30667e-05
3.26243e-05
3.20633e-05
3.14519e-05
3.09812e-05
3.06748e-05
3.0549e-05
3.0615e-05
3.08944e-05
3.14214e-05
3.22388e-05
3.33808e-05
3.46371e-05
3.58977e-05
3.72121e-05
3.87764e-05
4.02957e-05
4.16339e-05
4.29541e-05
4.43521e-05
4.58818e-05
4.75745e-05
4.94468e-05
5.14944e-05
5.36748e-05
5.58852e-05
5.79461e-05
5.90276e-05
5.89824e-05
5.8452e-05
5.77363e-05
5.69149e-05
5.59487e-05
5.47293e-05
5.30895e-05
5.08159e-05
4.7698e-05
4.37163e-05
3.93483e-05
3.53229e-05
3.18071e-05
2.8017e-05
4.8994e-05
4.79071e-05
4.57422e-05
4.34859e-05
4.23936e-05
4.09101e-05
3.93491e-05
3.80264e-05
3.68836e-05
3.60097e-05
3.53615e-05
3.48983e-05
3.46501e-05
3.47453e-05
3.51578e-05
3.58312e-05
3.67182e-05
3.77922e-05
3.90211e-05
4.03487e-05
4.11946e-05
4.09709e-05
4.04086e-05
4.08322e-05
4.21833e-05
4.36596e-05
4.53961e-05
4.73962e-05
4.96372e-05
5.20777e-05
5.46286e-05
5.71138e-05
5.92288e-05
6.0506e-05
6.01654e-05
5.9147e-05
5.86939e-05
5.85022e-05
5.84006e-05
5.83571e-05
5.84005e-05
5.84726e-05
5.84933e-05
5.82845e-05
5.74515e-05
5.53527e-05
5.16629e-05
4.73327e-05
4.2904e-05
3.5086e-05
6.14384e-05
6.13769e-05
6.13411e-05
6.12588e-05
6.10353e-05
6.06743e-05
6.00342e-05
5.90841e-05
5.79147e-05
5.6637e-05
5.5275e-05
5.38993e-05
5.27036e-05
5.17735e-05
5.11073e-05
5.06879e-05
5.05356e-05
5.07595e-05
5.17068e-05
5.27293e-05
4.2165e-05
3.41513e-05
3.93105e-05
4.19015e-05
4.2933e-05
4.44361e-05
4.58458e-05
4.73463e-05
4.90429e-05
5.09697e-05
5.3081e-05
5.51768e-05
5.61924e-05
5.56293e-05
5.50832e-05
5.5323e-05
5.57468e-05
5.62754e-05
5.65604e-05
5.66092e-05
5.68157e-05
5.69958e-05
5.71375e-05
5.72605e-05
5.74456e-05
5.79234e-05
5.87433e-05
6.15115e-05
6.10452e-05
4.2394e-05
6.14722e-05
6.14421e-05
6.14118e-05
6.13775e-05
6.13354e-05
6.12784e-05
6.1195e-05
6.10745e-05
6.09101e-05
6.0706e-05
6.04732e-05
6.02294e-05
5.99915e-05
5.97648e-05
5.95504e-05
5.93485e-05
5.91597e-05
5.89874e-05
5.88421e-05
5.87065e-05
5.83988e-05
5.75443e-05
5.68815e-05
5.63446e-05
5.56859e-05
5.50314e-05
5.44337e-05
5.39345e-05
5.35938e-05
5.34613e-05
5.35251e-05
5.32419e-05
5.40953e-05
5.49656e-05
5.55959e-05
5.60331e-05
5.63999e-05
5.67364e-05
5.70315e-05
5.72701e-05
5.74486e-05
5.75715e-05
5.76446e-05
5.76718e-05
5.76542e-05
5.75832e-05
5.74389e-05
5.73496e-05
5.73163e-05
5.73483e-05
6.14617e-05
6.14192e-05
6.13783e-05
6.13397e-05
6.13013e-05
6.12636e-05
6.12225e-05
6.11779e-05
6.11275e-05
6.10702e-05
6.10044e-05
6.09313e-05
6.08521e-05
6.07668e-05
6.06758e-05
6.05782e-05
6.0474e-05
6.03615e-05
6.02393e-05
6.01041e-05
5.9939e-05
5.97052e-05
5.94226e-05
5.91029e-05
5.87302e-05
5.83244e-05
5.79126e-05
5.75277e-05
5.72086e-05
5.69945e-05
5.69186e-05
5.69458e-05
5.69038e-05
5.69573e-05
5.70779e-05
5.72446e-05
5.74342e-05
5.76233e-05
5.77941e-05
5.79353e-05
5.80416e-05
5.81124e-05
5.81503e-05
5.81578e-05
5.81362e-05
5.80829e-05
5.80261e-05
5.78908e-05
5.77115e-05
5.75105e-05
6.14562e-05
6.14106e-05
6.13622e-05
6.1316e-05
6.12693e-05
6.12254e-05
6.11812e-05
6.1138e-05
6.10958e-05
6.10517e-05
6.10067e-05
6.09598e-05
6.09103e-05
6.08584e-05
6.08036e-05
6.07455e-05
6.0683e-05
6.06159e-05
6.05424e-05
6.04602e-05
6.03648e-05
6.0249e-05
6.01085e-05
5.99416e-05
5.97459e-05
5.95268e-05
5.92953e-05
5.90686e-05
5.88685e-05
5.87171e-05
5.86332e-05
5.86272e-05
5.85568e-05
5.85326e-05
5.85347e-05
5.8556e-05
5.85867e-05
5.8617e-05
5.86401e-05
5.86514e-05
5.8649e-05
5.86334e-05
5.86078e-05
5.85741e-05
5.85327e-05
5.84852e-05
5.84127e-05
5.83213e-05
5.821e-05
5.80849e-05
6.14477e-05
6.13933e-05
6.13368e-05
6.12808e-05
6.12263e-05
6.11734e-05
6.11223e-05
6.10723e-05
6.10242e-05
6.09757e-05
6.09277e-05
6.08804e-05
6.08312e-05
6.07819e-05
6.07324e-05
6.06815e-05
6.06297e-05
6.05777e-05
6.05254e-05
6.04703e-05
6.04111e-05
6.03439e-05
6.02647e-05
6.0172e-05
6.00645e-05
5.99427e-05
5.98112e-05
5.96786e-05
5.95554e-05
5.94523e-05
5.93779e-05
5.93362e-05
5.92813e-05
5.92259e-05
5.91775e-05
5.91322e-05
5.90863e-05
5.90358e-05
5.89791e-05
5.8916e-05
5.8848e-05
5.87778e-05
5.87097e-05
5.86475e-05
5.85961e-05
5.85426e-05
5.8487e-05
5.84246e-05
5.83537e-05
5.82702e-05
6.1437e-05
6.13654e-05
6.12995e-05
6.12316e-05
6.11659e-05
6.11004e-05
6.10394e-05
6.09821e-05
6.09241e-05
6.08676e-05
6.08133e-05
6.07582e-05
6.07031e-05
6.06474e-05
6.05919e-05
6.05386e-05
6.04869e-05
6.04366e-05
6.03894e-05
6.03439e-05
6.02988e-05
6.02525e-05
6.02021e-05
6.01454e-05
6.00801e-05
6.00059e-05
5.99246e-05
5.98394e-05
5.97548e-05
5.96755e-05
5.96054e-05
5.95451e-05
5.9488e-05
5.94142e-05
5.93342e-05
5.92488e-05
5.91576e-05
5.90597e-05
5.89548e-05
5.88453e-05
5.87369e-05
5.86347e-05
5.85446e-05
5.84789e-05
5.84053e-05
5.83463e-05
5.83065e-05
5.82788e-05
5.82537e-05
5.82194e-05
6.14206e-05
6.13318e-05
6.12435e-05
6.11503e-05
6.10701e-05
6.09878e-05
6.09139e-05
6.08443e-05
6.07768e-05
6.07136e-05
6.06525e-05
6.05904e-05
6.05278e-05
6.04652e-05
6.04012e-05
6.03389e-05
6.0281e-05
6.02269e-05
6.01773e-05
6.01325e-05
6.00924e-05
6.00556e-05
6.00193e-05
5.99809e-05
5.99381e-05
5.98891e-05
5.98331e-05
5.97704e-05
5.97029e-05
5.96323e-05
5.95594e-05
5.94841e-05
5.94032e-05
5.93225e-05
5.92152e-05
5.9099e-05
5.89726e-05
5.88373e-05
5.86954e-05
5.85522e-05
5.8415e-05
5.8292e-05
5.82012e-05
5.80973e-05
5.80151e-05
5.79789e-05
5.79796e-05
5.80033e-05
5.80333e-05
5.80536e-05
6.13829e-05
6.12609e-05
6.11381e-05
6.10177e-05
6.09076e-05
6.08073e-05
6.07181e-05
6.06351e-05
6.05588e-05
6.04941e-05
6.04277e-05
6.03571e-05
6.02886e-05
6.02193e-05
6.01465e-05
6.00718e-05
6.00025e-05
5.99401e-05
5.98866e-05
5.98432e-05
5.98077e-05
5.97773e-05
5.97503e-05
5.97236e-05
5.96933e-05
5.96565e-05
5.96113e-05
5.95576e-05
5.94966e-05
5.94277e-05
5.93486e-05
5.92574e-05
5.91522e-05
5.90339e-05
5.89237e-05
5.87711e-05
5.86077e-05
5.84305e-05
5.82441e-05
5.80611e-05
5.7897e-05
5.77818e-05
5.76245e-05
5.75045e-05
5.74633e-05
5.74892e-05
5.7568e-05
5.76708e-05
5.77697e-05
5.78448e-05
6.13438e-05
6.11554e-05
6.09643e-05
6.08026e-05
6.06395e-05
6.05142e-05
6.04073e-05
6.03122e-05
6.02445e-05
6.01801e-05
6.01141e-05
6.0048e-05
5.9972e-05
5.9886e-05
5.97979e-05
5.97075e-05
5.96238e-05
5.95534e-05
5.94972e-05
5.94565e-05
5.94308e-05
5.94136e-05
5.94003e-05
5.93865e-05
5.93678e-05
5.934e-05
5.93018e-05
5.92532e-05
5.91925e-05
5.91165e-05
5.90237e-05
5.89119e-05
5.87775e-05
5.86175e-05
5.84447e-05
5.82844e-05
5.80506e-05
5.77841e-05
5.75154e-05
5.72897e-05
5.71394e-05
5.6845e-05
5.66549e-05
5.66358e-05
5.67577e-05
5.69451e-05
5.71548e-05
5.7352e-05
5.75172e-05
5.7636e-05
6.13359e-05
6.10101e-05
6.07071e-05
6.03605e-05
6.01582e-05
6.00015e-05
5.98914e-05
5.98275e-05
5.97782e-05
5.969e-05
5.96192e-05
5.95719e-05
5.9502e-05
5.93965e-05
5.92881e-05
5.91907e-05
5.91123e-05
5.90607e-05
5.90226e-05
5.89992e-05
5.89964e-05
5.89966e-05
5.89952e-05
5.8992e-05
5.89823e-05
5.89616e-05
5.89259e-05
5.88706e-05
5.87965e-05
5.87026e-05
5.85812e-05
5.84286e-05
5.82387e-05
5.80017e-05
5.7704e-05
5.73355e-05
5.69863e-05
5.6596e-05
5.60751e-05
5.53183e-05
5.43648e-05
5.43421e-05
5.50305e-05
5.57434e-05
5.62479e-05
5.66311e-05
5.69062e-05
5.71357e-05
5.73245e-05
5.74503e-05
6.1182e-05
6.08284e-05
6.0522e-05
6.02078e-05
5.9933e-05
5.97183e-05
5.95622e-05
5.94349e-05
5.93178e-05
5.92074e-05
5.91159e-05
5.90228e-05
5.89214e-05
5.88235e-05
5.87365e-05
5.86684e-05
5.86232e-05
5.85944e-05
5.85775e-05
5.85707e-05
5.8578e-05
5.85902e-05
5.85984e-05
5.85934e-05
5.85662e-05
5.8517e-05
5.84676e-05
5.83868e-05
5.82671e-05
5.81105e-05
5.78981e-05
5.76111e-05
5.72163e-05
5.66535e-05
5.5785e-05
5.42146e-05
5.09051e-05
5.09243e-05
5.32407e-05
5.47047e-05
5.51863e-05
5.54327e-05
5.57505e-05
5.60785e-05
5.6367e-05
5.66234e-05
5.68308e-05
5.70065e-05
5.71474e-05
5.72343e-05
5.74547e-05
5.76092e-05
5.77856e-05
5.79473e-05
5.80814e-05
5.81814e-05
5.82502e-05
5.82883e-05
5.83005e-05
5.82964e-05
5.82862e-05
5.82712e-05
5.82528e-05
5.82341e-05
5.82203e-05
5.82128e-05
5.82094e-05
5.82118e-05
5.82189e-05
5.8222e-05
5.82203e-05
5.82096e-05
5.81814e-05
5.81332e-05
5.80632e-05
5.79625e-05
5.78266e-05
5.76318e-05
5.73601e-05
5.69971e-05
5.65334e-05
5.59949e-05
5.54451e-05
5.49674e-05
5.46403e-05
5.44983e-05
5.45842e-05
5.49335e-05
5.53103e-05
5.55941e-05
5.58282e-05
5.60058e-05
5.61676e-05
5.63302e-05
5.64876e-05
5.66334e-05
5.67585e-05
5.68584e-05
5.69278e-05
5.69578e-05
5.55483e-05
5.56773e-05
5.58265e-05
5.60001e-05
5.61874e-05
5.63827e-05
5.65787e-05
5.67655e-05
5.6937e-05
5.70912e-05
5.72271e-05
5.73435e-05
5.74411e-05
5.75211e-05
5.75853e-05
5.7634e-05
5.76675e-05
5.76894e-05
5.76993e-05
5.76934e-05
5.76711e-05
5.76297e-05
5.75635e-05
5.74683e-05
5.73417e-05
5.71808e-05
5.69862e-05
5.6757e-05
5.64956e-05
5.62143e-05
5.59348e-05
5.56901e-05
5.55117e-05
5.54182e-05
5.54117e-05
5.54716e-05
5.55812e-05
5.57222e-05
5.58661e-05
5.59936e-05
5.61003e-05
5.61926e-05
5.62727e-05
5.63504e-05
5.64243e-05
5.64873e-05
5.65391e-05
5.65708e-05
5.65762e-05
5.6547e-05
5.52817e-05
5.53565e-05
5.54408e-05
5.55318e-05
5.56276e-05
5.57296e-05
5.5835e-05
5.59403e-05
5.60487e-05
5.61618e-05
5.62765e-05
5.63885e-05
5.64941e-05
5.659e-05
5.66738e-05
5.67437e-05
5.67976e-05
5.68344e-05
5.68536e-05
5.68542e-05
5.68358e-05
5.6797e-05
5.67371e-05
5.66567e-05
5.65575e-05
5.64424e-05
5.63167e-05
5.6187e-05
5.60616e-05
5.59493e-05
5.58581e-05
5.57977e-05
5.57714e-05
5.57759e-05
5.58034e-05
5.58434e-05
5.58876e-05
5.59311e-05
5.59696e-05
5.60031e-05
5.60293e-05
5.60537e-05
5.60725e-05
5.60868e-05
5.6097e-05
5.60993e-05
5.60909e-05
5.60648e-05
5.60151e-05
5.59335e-05
5.50017e-05
5.50888e-05
5.51721e-05
5.52521e-05
5.53351e-05
5.54226e-05
5.55144e-05
5.56077e-05
5.56971e-05
5.57756e-05
5.58461e-05
5.59126e-05
5.5975e-05
5.60339e-05
5.60876e-05
5.61347e-05
5.61741e-05
5.62042e-05
5.62252e-05
5.62369e-05
5.62385e-05
5.62288e-05
5.62083e-05
5.61782e-05
5.61404e-05
5.60973e-05
5.60514e-05
5.60044e-05
5.59588e-05
5.5917e-05
5.588e-05
5.58479e-05
5.58201e-05
5.57941e-05
5.57673e-05
5.5738e-05
5.57063e-05
5.56717e-05
5.5637e-05
5.56046e-05
5.5572e-05
5.55399e-05
5.55054e-05
5.54707e-05
5.54329e-05
5.53888e-05
5.5334e-05
5.5264e-05
5.51721e-05
5.50569e-05
5.61585e-05
5.60654e-05
5.58569e-05
5.55777e-05
5.52833e-05
5.50156e-05
5.48063e-05
5.46825e-05
5.46667e-05
5.47764e-05
5.50183e-05
5.52491e-05
5.54054e-05
5.55209e-05
5.56064e-05
5.56726e-05
5.57258e-05
5.57688e-05
5.58025e-05
5.5827e-05
5.58421e-05
5.5848e-05
5.58444e-05
5.58315e-05
5.581e-05
5.57797e-05
5.57409e-05
5.56939e-05
5.56394e-05
5.55774e-05
5.55083e-05
5.54328e-05
5.53518e-05
5.5265e-05
5.51732e-05
5.50782e-05
5.49829e-05
5.4889e-05
5.47976e-05
5.47087e-05
5.46231e-05
5.45428e-05
5.44638e-05
5.43881e-05
5.43123e-05
5.42323e-05
5.41448e-05
5.40479e-05
5.39387e-05
5.3813e-05
8.8888e-05
8.77161e-05
8.65711e-05
8.54499e-05
8.4335e-05
8.32151e-05
8.2084e-05
8.09375e-05
7.97725e-05
7.85862e-05
7.73751e-05
7.62341e-05
7.52083e-05
7.42767e-05
7.34278e-05
7.26486e-05
7.19288e-05
7.12609e-05
7.06392e-05
7.00586e-05
6.95149e-05
6.9004e-05
6.85223e-05
6.8066e-05
6.76317e-05
6.7215e-05
6.68116e-05
6.64174e-05
6.60277e-05
6.5638e-05
6.52434e-05
6.48389e-05
6.44192e-05
6.39803e-05
6.3518e-05
6.30315e-05
6.25192e-05
6.19814e-05
6.14231e-05
6.08483e-05
6.02617e-05
5.96722e-05
5.90835e-05
5.85013e-05
5.79293e-05
5.7369e-05
5.68233e-05
5.62907e-05
5.57674e-05
5.52466e-05
5.48243e-06
5.47216e-06
5.4578e-06
5.43795e-06
5.41478e-06
5.38932e-06
5.36219e-06
5.33395e-06
5.30518e-06
5.27633e-06
5.24775e-06
5.21962e-06
5.19198e-06
5.16478e-06
5.13801e-06
5.11175e-06
5.08633e-06
5.06228e-06
5.04037e-06
5.02143e-06
5.01684e-06
5.01157e-06
5.00616e-06
4.97965e-06
4.96047e-06
4.94508e-06
4.93058e-06
4.91372e-06
4.89212e-06
4.86463e-06
4.83166e-06
4.79389e-06
4.75416e-06
4.7157e-06
4.68141e-06
4.65265e-06
4.63041e-06
4.61506e-06
4.606e-06
4.60195e-06
4.60095e-06
4.60102e-06
4.6001e-06
4.59589e-06
4.58657e-06
4.57292e-06
4.55632e-06
4.53833e-06
4.52031e-06
4.50293e-06
5.4217e-06
5.31821e-06
5.20987e-06
5.09945e-06
4.99046e-06
4.88329e-06
4.7786e-06
4.67696e-06
4.57886e-06
4.48455e-06
4.39408e-06
4.30731e-06
4.22409e-06
4.14438e-06
4.06841e-06
3.99676e-06
3.93041e-06
3.87051e-06
3.81817e-06
3.77601e-06
3.70851e-06
1.59136e-05
1.60088e-05
1.60435e-05
1.61466e-05
1.62452e-05
1.62964e-05
1.62852e-05
1.62137e-05
1.60936e-05
1.59405e-05
1.57772e-05
1.56206e-05
1.5487e-05
1.5389e-05
1.53374e-05
1.5333e-05
1.5368e-05
1.54297e-05
1.55022e-05
1.5569e-05
1.56137e-05
1.56268e-05
1.56078e-05
1.55635e-05
1.5496e-05
1.54105e-05
1.53128e-05
1.52068e-05
1.50945e-05
5.42023e-06
5.31453e-06
5.2036e-06
5.09048e-06
4.97815e-06
4.8677e-06
4.75982e-06
4.65506e-06
4.5538e-06
4.45619e-06
4.36222e-06
4.27174e-06
4.18463e-06
4.10087e-06
4.02062e-06
3.94432e-06
3.87263e-06
3.80635e-06
3.74699e-06
1.58635e-05
1.56396e-05
1.55269e-05
1.54699e-05
1.54399e-05
1.54117e-05
1.53697e-05
1.53023e-05
1.52036e-05
1.50733e-05
1.49161e-05
1.47409e-05
1.45592e-05
1.43847e-05
1.4229e-05
1.41006e-05
1.4004e-05
1.39391e-05
1.39015e-05
1.38835e-05
1.38753e-05
1.38669e-05
1.38507e-05
1.38192e-05
1.37686e-05
1.36985e-05
1.36121e-05
1.35145e-05
1.34112e-05
1.33056e-05
1.31967e-05
5.42008e-06
5.31555e-06
5.20591e-06
5.09361e-06
4.98167e-06
4.87129e-06
4.76334e-06
4.65857e-06
4.55742e-06
4.46016e-06
4.36677e-06
4.27706e-06
4.19083e-06
4.1079e-06
4.02833e-06
3.95239e-06
3.88067e-06
3.81392e-06
3.75367e-06
1.58952e-05
1.56599e-05
1.55317e-05
1.54595e-05
1.54108e-05
1.53641e-05
1.53039e-05
1.52202e-05
1.5108e-05
1.4967e-05
1.48014e-05
1.46195e-05
1.44317e-05
1.42502e-05
1.40856e-05
1.39457e-05
1.38346e-05
1.37519e-05
1.36934e-05
1.36522e-05
1.36197e-05
1.35867e-05
1.35447e-05
1.34878e-05
1.34129e-05
1.33204e-05
1.32133e-05
1.3097e-05
1.29776e-05
1.28603e-05
1.27462e-05
5.42019e-06
5.31626e-06
5.20705e-06
5.09456e-06
4.98186e-06
4.87038e-06
4.76129e-06
4.65561e-06
4.55401e-06
4.45684e-06
4.36411e-06
4.27554e-06
4.19075e-06
4.10935e-06
4.03114e-06
3.95623e-06
3.88502e-06
3.81818e-06
3.75724e-06
1.59004e-05
1.56587e-05
1.55231e-05
1.54433e-05
1.53877e-05
1.53351e-05
1.5271e-05
1.51857e-05
1.50744e-05
1.49365e-05
1.47761e-05
1.46006e-05
1.44198e-05
1.42448e-05
1.40855e-05
1.39493e-05
1.38396e-05
1.37561e-05
1.36947e-05
1.36487e-05
1.36098e-05
1.35688e-05
1.35179e-05
1.34514e-05
1.33672e-05
1.32659e-05
1.31511e-05
1.30274e-05
1.29002e-05
1.2775e-05
1.26547e-05
5.42049e-06
5.31727e-06
5.20857e-06
5.09607e-06
4.98285e-06
4.87058e-06
4.76073e-06
4.65454e-06
4.55291e-06
4.45629e-06
4.36466e-06
4.27765e-06
4.19464e-06
4.11501e-06
4.03832e-06
3.96441e-06
3.89356e-06
3.82631e-06
3.76425e-06
1.59302e-05
1.56847e-05
1.55416e-05
1.54517e-05
1.5386e-05
1.53249e-05
1.5255e-05
1.51671e-05
1.50564e-05
1.49224e-05
1.47682e-05
1.46005e-05
1.44283e-05
1.42615e-05
1.41092e-05
1.39782e-05
1.38716e-05
1.37889e-05
1.37263e-05
1.36773e-05
1.36337e-05
1.35868e-05
1.35293e-05
1.3456e-05
1.33651e-05
1.32579e-05
1.31381e-05
1.30108e-05
1.28808e-05
1.27529e-05
1.26301e-05
5.42082e-06
5.31822e-06
5.2098e-06
5.09699e-06
4.98294e-06
4.86954e-06
4.75863e-06
4.65173e-06
4.54996e-06
4.45388e-06
4.36345e-06
4.27813e-06
4.19707e-06
4.11934e-06
4.04416e-06
3.97115e-06
3.90039e-06
3.83237e-06
3.76817e-06
1.58252e-05
1.57191e-05
1.56238e-05
1.5538e-05
1.54576e-05
1.53765e-05
1.52881e-05
1.51865e-05
1.50678e-05
1.49311e-05
1.47786e-05
1.46154e-05
1.4449e-05
1.42881e-05
1.41407e-05
1.40127e-05
1.39068e-05
1.38228e-05
1.37568e-05
1.37028e-05
1.36531e-05
1.35995e-05
1.35352e-05
1.34556e-05
1.33592e-05
1.3247e-05
1.31231e-05
1.29928e-05
1.2861e-05
1.27321e-05
1.26087e-05
5.42111e-06
5.31899e-06
5.21075e-06
5.09754e-06
4.98263e-06
4.8682e-06
4.75639e-06
4.64905e-06
4.54748e-06
4.45232e-06
4.36347e-06
4.28018e-06
4.20132e-06
4.12561e-06
4.05198e-06
3.97978e-06
3.90891e-06
3.83984e-06
3.77377e-06
1.58386e-05
1.57231e-05
1.5618e-05
1.5523e-05
1.54349e-05
1.5349e-05
1.52593e-05
1.51601e-05
1.50474e-05
1.49194e-05
1.47772e-05
1.4625e-05
1.44689e-05
1.43164e-05
1.41748e-05
1.40496e-05
1.39435e-05
1.38565e-05
1.37855e-05
1.37248e-05
1.36675e-05
1.36061e-05
1.35347e-05
1.34491e-05
1.33478e-05
1.32321e-05
1.31056e-05
1.29734e-05
1.28405e-05
1.27112e-05
1.2588e-05
5.42132e-06
5.31944e-06
5.21121e-06
5.09756e-06
4.98177e-06
4.86636e-06
4.75377e-06
4.64614e-06
4.54496e-06
4.45091e-06
4.36378e-06
4.28261e-06
4.20594e-06
4.13217e-06
4.05988e-06
3.98819e-06
3.91684e-06
3.8463e-06
3.7779e-06
1.58409e-05
1.57127e-05
1.55958e-05
1.54909e-05
1.53962e-05
1.53076e-05
1.52193e-05
1.51256e-05
1.50217e-05
1.4905e-05
1.47753e-05
1.46354e-05
1.44901e-05
1.43459e-05
1.42093e-05
1.40855e-05
1.39776e-05
1.3886e-05
1.38082e-05
1.37395e-05
1.36736e-05
1.36042e-05
1.35257e-05
1.34346e-05
1.33295e-05
1.32117e-05
1.30843e-05
1.29519e-05
1.28194e-05
1.26909e-05
1.25686e-05
5.42143e-06
5.31951e-06
5.21114e-06
5.09698e-06
4.98039e-06
4.86416e-06
4.75103e-06
4.64339e-06
4.54288e-06
4.45018e-06
4.36495e-06
4.28598e-06
4.21148e-06
4.13951e-06
4.06836e-06
3.99688e-06
3.92474e-06
3.85245e-06
3.78148e-06
1.58416e-05
1.57008e-05
1.55724e-05
1.54585e-05
1.53585e-05
1.52685e-05
1.51832e-05
1.50965e-05
1.50026e-05
1.48979e-05
1.4781e-05
1.4653e-05
1.45176e-05
1.43802e-05
1.42467e-05
1.41223e-05
1.40104e-05
1.3912e-05
1.38256e-05
1.37474e-05
1.36722e-05
1.35946e-05
1.35095e-05
1.34137e-05
1.33061e-05
1.31875e-05
1.30608e-05
1.293e-05
1.27993e-05
1.26726e-05
1.2552e-05
5.42143e-06
5.31914e-06
5.21046e-06
5.09578e-06
4.9785e-06
4.86164e-06
4.74824e-06
4.64088e-06
4.5413e-06
4.45013e-06
4.36687e-06
4.29004e-06
4.21755e-06
4.14712e-06
4.07675e-06
4.00512e-06
3.93184e-06
3.85752e-06
3.7838e-06
1.58369e-05
1.56843e-05
1.55458e-05
1.54248e-05
1.53212e-05
1.52318e-05
1.51512e-05
1.50726e-05
1.49898e-05
1.48975e-05
1.4793e-05
1.46762e-05
1.45493e-05
1.4417e-05
1.42847e-05
1.41575e-05
1.40395e-05
1.39325e-05
1.3836e-05
1.37474e-05
1.36625e-05
1.35767e-05
1.34857e-05
1.33865e-05
1.32777e-05
1.316e-05
1.30357e-05
1.29079e-05
1.27805e-05
1.26567e-05
1.25384e-05
5.42131e-06
5.31834e-06
5.20917e-06
5.09397e-06
4.97615e-06
4.85892e-06
4.74553e-06
4.63873e-06
4.54029e-06
4.45076e-06
4.36945e-06
4.29461e-06
4.22385e-06
4.1546e-06
4.08462e-06
4.01248e-06
3.93776e-06
3.8612e-06
3.78473e-06
1.58268e-05
1.5664e-05
1.55173e-05
1.53911e-05
1.52861e-05
1.51991e-05
1.51246e-05
1.50554e-05
1.49841e-05
1.49044e-05
1.48118e-05
1.47051e-05
1.45854e-05
1.44564e-05
1.43235e-05
1.41918e-05
1.4066e-05
1.3949e-05
1.38414e-05
1.37416e-05
1.36468e-05
1.35532e-05
1.34569e-05
1.33552e-05
1.32465e-05
1.31311e-05
1.30104e-05
1.2887e-05
1.27641e-05
1.26441e-05
1.25287e-05
5.42105e-06
5.31709e-06
5.20727e-06
5.09158e-06
4.97339e-06
4.85607e-06
4.74303e-06
4.63708e-06
4.53999e-06
4.45218e-06
4.37275e-06
4.29971e-06
4.23037e-06
4.16192e-06
4.09196e-06
4.01898e-06
3.94262e-06
3.86379e-06
3.78471e-06
1.58158e-05
1.56444e-05
1.54914e-05
1.53618e-05
1.52569e-05
1.51737e-05
1.51065e-05
1.50473e-05
1.49878e-05
1.49203e-05
1.48393e-05
1.47418e-05
1.46282e-05
1.45013e-05
1.43664e-05
1.4229e-05
1.40944e-05
1.39665e-05
1.38472e-05
1.37362e-05
1.36316e-05
1.35304e-05
1.34293e-05
1.33258e-05
1.3218e-05
1.31057e-05
1.29897e-05
1.28716e-05
1.27535e-05
1.26377e-05
1.25253e-05
5.42066e-06
5.31542e-06
5.20482e-06
5.0887e-06
4.97032e-06
4.85316e-06
4.7407e-06
4.63578e-06
4.54008e-06
4.45389e-06
4.3761e-06
4.30447e-06
4.23608e-06
4.16793e-06
4.09753e-06
4.02336e-06
3.94516e-06
3.86408e-06
3.78261e-06
1.57952e-05
1.5618e-05
1.54614e-05
1.5331e-05
1.52282e-05
1.515e-05
1.50901e-05
1.50401e-05
1.49908e-05
1.49334e-05
1.4861e-05
1.47701e-05
1.466e-05
1.45335e-05
1.43953e-05
1.42516e-05
1.41085e-05
1.39706e-05
1.3841e-05
1.37206e-05
1.36083e-05
1.35017e-05
1.33982e-05
1.32951e-05
1.31903e-05
1.30829e-05
1.2973e-05
1.28614e-05
1.27494e-05
1.26383e-05
1.25292e-05
5.42015e-06
5.31343e-06
5.20197e-06
5.0855e-06
4.96719e-06
4.85053e-06
4.73901e-06
4.6354e-06
4.54127e-06
4.45671e-06
4.3804e-06
4.30988e-06
4.24209e-06
4.1739e-06
4.10279e-06
4.0273e-06
3.94733e-06
3.86425e-06
3.78083e-06
1.57828e-05
1.56012e-05
1.54424e-05
1.53122e-05
1.52119e-05
1.51385e-05
1.50849e-05
1.50423e-05
1.50004e-05
1.49496e-05
1.48824e-05
1.47943e-05
1.46843e-05
1.45549e-05
1.44112e-05
1.42597e-05
1.41071e-05
1.39592e-05
1.38199e-05
1.3691e-05
1.35722e-05
1.3462e-05
1.33577e-05
1.32567e-05
1.31567e-05
1.30562e-05
1.29542e-05
1.28507e-05
1.27462e-05
1.26413e-05
1.25368e-05
5.41954e-06
5.3112e-06
5.19877e-06
5.08192e-06
4.96365e-06
4.84745e-06
4.73676e-06
4.63427e-06
4.54138e-06
4.45803e-06
4.38269e-06
4.31273e-06
4.24495e-06
4.17621e-06
4.10401e-06
4.02699e-06
3.94528e-06
3.86047e-06
3.77556e-06
1.57487e-05
1.55665e-05
1.54088e-05
1.52815e-05
1.5186e-05
1.51186e-05
1.50723e-05
1.50374e-05
1.50032e-05
1.49592e-05
1.48973e-05
1.48125e-05
1.47036e-05
1.45728e-05
1.44253e-05
1.42683e-05
1.41087e-05
1.39534e-05
1.38071e-05
1.36723e-05
1.35495e-05
1.34375e-05
1.33342e-05
1.32369e-05
1.3143e-05
1.30502e-05
1.2957e-05
1.28626e-05
1.27666e-05
1.26693e-05
1.25711e-05
5.41888e-06
5.30894e-06
5.1958e-06
5.07896e-06
4.96132e-06
4.8462e-06
4.73692e-06
4.63597e-06
4.54455e-06
4.46237e-06
4.38776e-06
4.318e-06
4.24988e-06
4.18026e-06
4.10677e-06
4.02824e-06
3.945e-06
3.85883e-06
3.77288e-06
1.57386e-05
1.55558e-05
1.5399e-05
1.52741e-05
1.51821e-05
1.51193e-05
1.50781e-05
1.50486e-05
1.50194e-05
1.49798e-05
1.4921e-05
1.48381e-05
1.47296e-05
1.45981e-05
1.4449e-05
1.42895e-05
1.41276e-05
1.39701e-05
1.38224e-05
1.36877e-05
1.35668e-05
1.34589e-05
1.33622e-05
1.32738e-05
1.3191e-05
1.3111e-05
1.30318e-05
1.29519e-05
1.28707e-05
1.27881e-05
1.2705e-05
5.41821e-06
5.30606e-06
5.19125e-06
5.07342e-06
4.95537e-06
4.84044e-06
4.73181e-06
4.63177e-06
4.54129e-06
4.4599e-06
4.38574e-06
4.31604e-06
4.24758e-06
4.17732e-06
4.10304e-06
4.02372e-06
3.93982e-06
3.85329e-06
3.76734e-06
1.57105e-05
1.55339e-05
1.53785e-05
1.52541e-05
1.51646e-05
1.51075e-05
1.50752e-05
1.50621e-05
1.5057e-05
1.50434e-05
1.50103e-05
1.49513e-05
1.4865e-05
1.47542e-05
1.46248e-05
1.44844e-05
1.43413e-05
1.42031e-05
1.40752e-05
1.39612e-05
1.38621e-05
1.37775e-05
1.37053e-05
1.36431e-05
1.35877e-05
1.35365e-05
1.3487e-05
1.34375e-05
1.33875e-05
1.33372e-05
1.32881e-05
5.41793e-06
5.30568e-06
5.19196e-06
5.07619e-06
4.96171e-06
4.85111e-06
4.74727e-06
4.65239e-06
4.56753e-06
4.49235e-06
4.42514e-06
4.36311e-06
4.30283e-06
4.24088e-06
4.17442e-06
4.10184e-06
4.02306e-06
3.93982e-06
3.85538e-06
3.77426e-06
1.61237e-05
1.59489e-05
1.57473e-05
1.5581e-05
1.54773e-05
1.54354e-05
1.5443e-05
1.5581e-05
1.57541e-05
1.59092e-05
1.60206e-05
1.60787e-05
1.60852e-05
1.60488e-05
1.59816e-05
1.58969e-05
1.58069e-05
1.57214e-05
1.56469e-05
1.55865e-05
1.55405e-05
1.55072e-05
1.54836e-05
1.54659e-05
1.54504e-05
1.54341e-05
1.54151e-05
1.53928e-05
1.5369e-05
1.53474e-05
5.48689e-06
5.46673e-06
5.44318e-06
5.4174e-06
5.39051e-06
5.36464e-06
5.34123e-06
5.321e-06
5.30381e-06
5.28872e-06
5.27415e-06
5.25824e-06
5.23919e-06
5.2157e-06
5.18722e-06
5.15415e-06
5.11786e-06
5.08041e-06
5.04423e-06
5.01162e-06
4.98572e-06
4.97728e-06
4.97005e-06
4.96497e-06
4.96092e-06
4.95678e-06
4.9307e-06
4.90907e-06
4.88853e-06
4.86656e-06
4.84178e-06
4.81392e-06
4.78354e-06
4.75187e-06
4.72038e-06
4.69046e-06
4.66314e-06
4.63894e-06
4.61792e-06
4.59968e-06
4.58351e-06
4.56858e-06
4.5541e-06
4.53936e-06
4.52387e-06
4.50744e-06
4.49007e-06
4.4719e-06
4.45307e-06
4.43374e-06
9.20277e-06
7.6036e-06
9.44687e-06
1.17262e-05
1.28302e-05
1.23097e-05
1.0504e-05
8.28492e-06
6.6974e-06
6.22505e-06
6.29294e-06
6.02667e-06
5.97358e-06
6.56927e-06
7.51498e-06
8.62822e-06
9.83982e-06
1.11403e-05
1.47663e-05
6.72023e-06
9.21917e-06
7.56911e-06
9.40277e-06
1.16727e-05
1.27584e-05
1.22156e-05
1.04113e-05
8.25322e-06
6.72538e-06
6.24951e-06
6.31905e-06
6.04401e-06
5.96841e-06
6.56016e-06
7.48248e-06
8.62059e-06
9.89013e-06
1.1268e-05
1.54881e-05
7.11593e-06
9.24043e-06
7.53654e-06
9.35015e-06
1.16024e-05
1.26757e-05
1.21368e-05
1.03781e-05
8.27928e-06
6.77407e-06
6.27777e-06
6.33947e-06
6.06559e-06
5.87905e-06
6.51265e-06
7.42652e-06
8.58667e-06
9.88873e-06
1.12889e-05
3.67156e-06
7.36188e-06
9.25979e-06
7.50383e-06
9.283e-06
1.15164e-05
1.25968e-05
1.20886e-05
1.03835e-05
8.33802e-06
6.83879e-06
6.30841e-06
6.37218e-06
6.15848e-06
5.86285e-06
6.47077e-06
7.39419e-06
8.57692e-06
9.91023e-06
1.13281e-05
3.67932e-06
7.6045e-06
9.28135e-06
7.46228e-06
9.20089e-06
1.1421e-05
1.25231e-05
1.20637e-05
1.04237e-05
8.42976e-06
6.92202e-06
6.33527e-06
6.39739e-06
6.24832e-06
5.91972e-06
6.45607e-06
7.38456e-06
8.60135e-06
9.95429e-06
1.14017e-05
3.71032e-06
7.84351e-06
9.30574e-06
7.41395e-06
9.10693e-06
1.13184e-05
1.24552e-05
1.20599e-05
1.04949e-05
8.55326e-06
7.02921e-06
6.3666e-06
6.41739e-06
6.35834e-06
5.99738e-06
6.47908e-06
7.41957e-06
8.65692e-06
1.00164e-05
1.15171e-05
3.76711e-06
8.07873e-06
9.33338e-06
7.36206e-06
9.00563e-06
1.12122e-05
1.2393e-05
1.20723e-05
1.05888e-05
8.70062e-06
7.15818e-06
6.40559e-06
6.42764e-06
6.49424e-06
6.12188e-06
6.56508e-06
7.50554e-06
8.74382e-06
1.0099e-05
1.16813e-05
3.84962e-06
8.3098e-06
9.36576e-06
7.31034e-06
8.90138e-06
1.11043e-05
1.23342e-05
1.20939e-05
1.0695e-05
8.86239e-06
7.30555e-06
6.45761e-06
6.42571e-06
6.65691e-06
6.35044e-06
6.73264e-06
7.64166e-06
8.85973e-06
1.02035e-05
1.18972e-05
3.95522e-06
8.53564e-06
9.40448e-06
7.26106e-06
8.79576e-06
1.09927e-05
1.22716e-05
1.21134e-05
1.08008e-05
9.02666e-06
7.46468e-06
6.52654e-06
6.4096e-06
6.82253e-06
6.708e-06
6.97466e-06
7.81718e-06
8.9973e-06
1.03274e-05
1.21598e-05
4.0783e-06
8.7546e-06
9.44942e-06
7.21347e-06
8.68687e-06
1.08722e-05
1.21965e-05
1.212e-05
1.08945e-05
9.18219e-06
7.62661e-06
6.61268e-06
6.37696e-06
6.9302e-06
7.15584e-06
7.25312e-06
8.01144e-06
9.14417e-06
1.04631e-05
1.24547e-05
4.21089e-06
8.96504e-06
9.49757e-06
7.16385e-06
8.57085e-06
1.07375e-05
1.21031e-05
1.21077e-05
1.09704e-05
9.32218e-06
7.78285e-06
6.71222e-06
6.3312e-06
6.90338e-06
7.55459e-06
7.51109e-06
8.19986e-06
9.28602e-06
1.05999e-05
1.27611e-05
4.34461e-06
9.16593e-06
9.54454e-06
7.10892e-06
8.44565e-06
1.05884e-05
1.19927e-05
1.20789e-05
1.10303e-05
9.44616e-06
7.9287e-06
6.82046e-06
6.28844e-06
6.71141e-06
7.70505e-06
7.70035e-06
8.363e-06
9.41158e-06
1.07278e-05
1.30575e-05
4.47282e-06
9.35707e-06
9.58686e-06
7.04882e-06
8.31444e-06
1.04312e-05
1.18741e-05
1.20424e-05
1.10809e-05
9.55842e-06
8.06403e-06
6.93331e-06
6.27136e-06
6.4237e-06
7.49065e-06
7.80957e-06
8.49355e-06
9.51638e-06
1.08409e-05
1.33264e-05
4.5919e-06
9.53841e-06
9.62497e-06
6.9881e-06
8.18466e-06
1.02769e-05
1.1759e-05
1.20081e-05
1.11297e-05
9.66372e-06
8.19055e-06
7.04785e-06
6.295e-06
6.18288e-06
7.10821e-06
7.86875e-06
8.59563e-06
9.60209e-06
1.09369e-05
1.35561e-05
4.70052e-06
9.7096e-06
9.66333e-06
6.93354e-06
8.06451e-06
1.01347e-05
1.16555e-05
1.1981e-05
1.11792e-05
9.76335e-06
8.30876e-06
7.16073e-06
6.35669e-06
6.08178e-06
6.87498e-06
7.92075e-06
8.67782e-06
9.67222e-06
1.10148e-05
1.37385e-05
4.7978e-06
9.86971e-06
9.70751e-06
6.88976e-06
7.95817e-06
1.00069e-05
1.15629e-05
1.19582e-05
1.12254e-05
9.85405e-06
8.41618e-06
7.26705e-06
6.43942e-06
6.10222e-06
6.87913e-06
7.98352e-06
8.74513e-06
9.72773e-06
1.10726e-05
1.38678e-05
4.88173e-06
1.00176e-05
9.76032e-06
6.85611e-06
7.86328e-06
9.88846e-06
1.14736e-05
1.19314e-05
1.12613e-05
9.93078e-06
8.50917e-06
7.36142e-06
6.52343e-06
6.16898e-06
7.00935e-06
8.04034e-06
8.79444e-06
9.76555e-06
1.11072e-05
1.39396e-05
4.94918e-06
1.01529e-05
9.81943e-06
6.82696e-06
7.77293e-06
9.77043e-06
1.13782e-05
1.18927e-05
1.12817e-05
9.99099e-06
8.5865e-06
7.44108e-06
6.59493e-06
6.21372e-06
7.10608e-06
8.05998e-06
8.81752e-06
9.78133e-06
1.11166e-05
1.39541e-05
4.99734e-06
1.0276e-05
9.87863e-06
6.79534e-06
7.6801e-06
9.64579e-06
1.12714e-05
1.18398e-05
1.12876e-05
1.00377e-05
8.6517e-06
7.50873e-06
6.65079e-06
6.2117e-06
7.06206e-06
8.0237e-06
8.80921e-06
9.77425e-06
1.11033e-05
1.39189e-05
5.02579e-06
1.03881e-05
9.93194e-06
6.75756e-06
7.58232e-06
9.51425e-06
1.11561e-05
1.17782e-05
1.1286e-05
1.00786e-05
8.71258e-06
7.57259e-06
6.70118e-06
6.18593e-06
6.89197e-06
7.94191e-06
8.77476e-06
9.75004e-06
1.10744e-05
1.38495e-05
5.03654e-06
1.049e-05
9.97767e-06
6.71555e-06
7.48288e-06
9.38169e-06
1.10402e-05
1.17169e-05
1.1286e-05
1.01224e-05
8.77813e-06
7.64367e-06
6.76577e-06
6.18545e-06
6.70676e-06
7.84679e-06
8.72763e-06
9.71811e-06
1.10393e-05
1.37641e-05
5.03437e-06
1.05819e-05
1.00196e-05
6.67526e-06
7.38816e-06
9.25579e-06
1.09316e-05
1.1663e-05
1.12935e-05
1.0175e-05
8.85465e-06
7.73072e-06
6.86154e-06
6.25824e-06
6.6037e-06
7.7703e-06
8.68242e-06
9.68691e-06
1.1005e-05
1.3677e-05
5.02548e-06
1.06627e-05
1.00644e-05
6.64259e-06
7.3032e-06
9.14077e-06
1.08329e-05
1.16175e-05
1.13089e-05
1.02365e-05
8.94305e-06
7.83548e-06
6.99263e-06
6.42073e-06
6.62082e-06
7.73086e-06
8.64616e-06
9.66001e-06
1.09745e-05
1.35977e-05
5.01376e-06
1.07312e-05
1.01173e-05
6.61957e-06
7.22847e-06
9.03519e-06
1.07408e-05