/*--------------------------------*- C++ -*----------------------------------*\
  =========                 |
  \\      /  F ield         | OpenFOAM: The Open Source CFD Toolbox
   \\    /   O peration     | Website:  https://openfoam.org
    \\  /    A nd           | Version:  8
     \\/     M anipulation  |
\*---------------------------------------------------------------------------*/
FoamFile
{
    version     2.0;
    format      ascii;
    class       volVectorField;
    location    "600";
    object      U;
}
// * * * * * * * * * * * * * * * * * * * * * * * * * * * * * * * * * * * * * //

dimensions      [0 1 -1 0 0 0 0];

internalField   nonuniform List<vector> 
8400
(
(-25.7367 -0.632543 1.94524e-16)
(-24.3487 -0.512442 2.06793e-16)
(-23.4417 -0.282357 2.18322e-16)
(-22.7915 -0.144905 2.28901e-16)
(-22.3226 -0.0813638 2.40293e-16)
(-21.9713 -0.045069 2.52442e-16)
(-21.712 -0.00881572 2.63835e-16)
(-21.5485 0.0401546 2.75003e-16)
(-21.4857 0.0878124 2.8627e-16)
(-21.5075 0.115206 2.98152e-16)
(-21.5843 0.119141 3.11018e-16)
(-21.6837 0.0997603 3.24638e-16)
(-21.7819 0.066095 3.38362e-16)
(-21.8654 0.027697 3.51808e-16)
(-21.9316 -0.00766244 3.64562e-16)
(-21.9831 -0.0371475 3.76889e-16)
(-22.0211 -0.0627556 3.88953e-16)
(-22.0428 -0.0867707 4.0032e-16)
(-22.0448 -0.106483 4.10873e-16)
(-22.0257 -0.120659 4.20511e-16)
(-21.9853 -0.127435 4.29143e-16)
(-21.9341 -0.120392 4.36673e-16)
(-21.9025 -0.0918504 4.42885e-16)
(-21.936 -0.0413173 4.47774e-16)
(-22.0736 0.0212318 4.51446e-16)
(-22.3367 0.0839992 4.54038e-16)
(-22.7232 0.140863 4.5635e-16)
(-23.2177 0.189063 4.57474e-16)
(-23.7961 0.224444 4.57235e-16)
(-24.4268 0.243607 4.56322e-16)
(-25.0725 0.244918 4.5425e-16)
(-25.6891 0.2247 4.51174e-16)
(-26.2218 0.174 4.47418e-16)
(-26.6004 0.0810684 4.42021e-16)
(-26.7453 -0.0602854 4.3468e-16)
(-26.5798 -0.246259 4.25909e-16)
(-26.0373 -0.464691 4.15275e-16)
(-25.1306 -0.692964 4.04984e-16)
(-23.8917 -0.904599 3.97219e-16)
(-22.3688 -1.07915 3.93783e-16)
(-20.6228 -1.20186 3.95578e-16)
(-18.7235 -1.26288 4.03908e-16)
(-16.7513 -1.25612 4.17663e-16)
(-14.8006 -1.18196 4.34946e-16)
(-12.9776 -1.05193 4.53648e-16)
(-11.38 -0.892909 4.67997e-16)
(-10.0475 -0.74458 4.74096e-16)
(-8.92925 -0.63815 4.70751e-16)
(-7.9329 -0.569504 4.57482e-16)
(-7.0091 -0.514204 4.3336e-16)
(-19.2994 -0.815347 1.78494e-16)
(-18.5849 -0.920982 2.23888e-16)
(-18.0485 -0.85766 2.64429e-16)
(-17.9411 -0.747756 2.93722e-16)
(-17.9251 -0.662154 3.19908e-16)
(-17.9879 -0.590696 3.47126e-16)
(-18.1458 -0.498724 3.74057e-16)
(-18.4026 -0.354103 4.00475e-16)
(-18.7208 -0.179868 4.23977e-16)
(-19.0739 -0.0200319 4.44922e-16)
(-19.4572 0.100951 4.6552e-16)
(-19.8259 0.161569 4.84966e-16)
(-20.1494 0.175793 5.01644e-16)
(-20.4111 0.184285 5.13949e-16)
(-20.6158 0.201921 5.2259e-16)
(-20.7769 0.223351 5.29296e-16)
(-20.9006 0.237049 5.34585e-16)
(-20.9794 0.239668 5.39815e-16)
(-21.0066 0.233228 5.44372e-16)
(-20.9815 0.214313 5.48458e-16)
(-20.8988 0.186676 5.51245e-16)
(-20.7629 0.173523 5.51129e-16)
(-20.6247 0.218805 5.52486e-16)
(-20.5559 0.33011 5.55192e-16)
(-20.5944 0.471139 5.52255e-16)
(-20.7489 0.603421 5.42562e-16)
(-21.0175 0.711429 5.28881e-16)
(-21.38 0.791459 5.10013e-16)
(-21.8093 0.840787 4.87303e-16)
(-22.2655 0.860206 4.63741e-16)
(-22.7027 0.843465 4.36845e-16)
(-23.0746 0.771373 4.04837e-16)
(-23.3231 0.6112 3.69104e-16)
(-23.3638 0.329338 3.29743e-16)
(-23.0916 -0.0875964 2.86752e-16)
(-22.4076 -0.616043 2.42669e-16)
(-21.3644 -1.19255 2.03831e-16)
(-20.1274 -1.73662 1.73971e-16)
(-18.7765 -2.19196 1.54811e-16)
(-17.353 -2.53553 1.45617e-16)
(-15.8844 -2.75761 1.47685e-16)
(-14.3971 -2.85449 1.63102e-16)
(-12.925 -2.82004 1.91626e-16)
(-11.5178 -2.65097 2.37653e-16)
(-10.242 -2.35779 3.05315e-16)
(-9.16959 -1.98472 3.89031e-16)
(-8.33311 -1.62164 4.74809e-16)
(-7.66712 -1.37152 5.50427e-16)
(-7.04681 -1.24118 6.15842e-16)
(-6.40994 -1.11901 6.68475e-16)
(-7.92519 1.49627 -7.12287e-17)
(-13.2834 1.62069 -7.79652e-17)
(-10.7817 0.812869 -4.83375e-17)
(-10.6724 0.592076 2.51647e-18)
(-11.111 0.456572 8.78847e-17)
(-11.073 0.429093 1.80113e-16)
(-11.4387 0.48023 2.37471e-16)
(-11.996 0.530281 2.80232e-16)
(-12.4721 0.559654 2.9702e-16)
(-13.1788 0.556421 2.95489e-16)
(-13.9698 0.509441 2.81101e-16)
(-14.7585 0.411227 2.53097e-16)
(-15.53 0.291072 2.15948e-16)
(-16.2206 0.177872 1.70842e-16)
(-16.8216 0.0751333 1.22583e-16)
(-17.3352 -0.0311232 7.18156e-17)
(-17.7427 -0.144673 2.47489e-17)
(-18.0202 -0.251759 -1.54635e-17)
(-18.16 -0.340749 -4.50831e-17)
(-18.1593 -0.401235 -6.32161e-17)
(-17.996 -0.414143 -7.15012e-17)
(-17.6477 -0.343517 -7.01282e-17)
(-17.2834 -0.16965 -7.42673e-17)
(-17.1337 0.120674 -7.9701e-17)
(-17.1564 0.439954 -6.55462e-17)
(-17.1664 0.719812 -4.38785e-17)
(-17.2345 0.952017 -2.76165e-17)
(-17.3313 1.12081 -1.51066e-17)
(-17.4085 1.22009 -3.71803e-18)
(-17.4119 1.25226 9.76693e-18)
(-17.2929 1.19541 1.48937e-17)
(-17.0002 1.00345 8.41929e-18)
(-16.4594 0.617727 -1.24979e-17)
(-15.5554 -0.00579118 -3.83061e-17)
(-14.1559 -0.840261 -5.3896e-17)
(-12.576 -1.75169 -5.06232e-17)
(-11.2747 -2.59089 -4.00173e-17)
(-10.1724 -3.28299 -3.86268e-17)
(-9.19142 -3.79703 -4.13212e-17)
(-8.31634 -4.12586 -4.98462e-17)
(-7.53318 -4.27481 -6.15744e-17)
(-6.81909 -4.27508 -6.90654e-17)
(-6.17395 -4.12558 -7.75258e-17)
(-5.60581 -3.81584 -8.33877e-17)
(-5.12863 -3.32979 -6.6346e-17)
(-4.76879 -2.68553 -6.68379e-18)
(-4.61346 -2.00713 9.8537e-17)
(-4.72386 -1.58833 2.34403e-16)
(-4.85868 -1.60312 3.88306e-16)
(-4.7919 -1.61243 5.43587e-16)
(22.1095 -1.34117 7.00404e-19)
(20.9061 -0.552992 -1.49249e-18)
(20.0249 0.0153236 -3.88288e-18)
(19.3487 0.469513 -1.32323e-17)
(18.5668 0.852103 -2.87078e-17)
(17.5989 1.18344 -3.96464e-17)
(16.5595 1.4823 -3.7962e-17)
(15.5561 1.72617 -3.90066e-17)
(14.6057 1.892 -2.41976e-17)
(13.6071 1.97066 -8.09426e-18)
(12.6322 1.95075 1.25941e-17)
(11.7533 1.84759 2.72711e-17)
(10.8697 1.69831 2.648e-17)
(9.95097 1.5334 1.43767e-17)
(8.96626 1.3694 7.37913e-18)
(7.89156 1.20547 8.99355e-18)
(6.70948 1.0332 4.12695e-17)
(5.40984 0.849988 1.25025e-16)
(3.97614 0.636176 2.50224e-16)
(2.37531 0.348545 4.15279e-16)
(0.624203 -0.101895 6.58181e-16)
(-2.68423 -0.964615 1.02949e-15)
(-6.87412 -0.835591 4.68195e-16)
(-7.87412 -0.328709 -4.36325e-17)
(-8.43203 0.0806508 -3.89099e-16)
(-9.05658 0.309882 -6.03378e-16)
(-9.36895 0.445864 -6.57098e-16)
(-9.4017 0.512665 -6.81734e-16)
(-9.12715 0.52002 -6.53047e-16)
(-8.50262 0.462746 -5.3286e-16)
(-7.49161 0.289412 -4.25143e-16)
(-6.02906 -0.0824983 -3.18332e-16)
(-3.99678 -0.706706 -2.2084e-16)
(-1.83161 -1.56108 -9.45518e-17)
(-0.414883 -2.48952 -2.13234e-17)
(0.20617 -3.35714 5.66815e-17)
(0.745953 -4.15226 8.92832e-17)
(1.34627 -4.78826 9.8018e-17)
(1.90239 -5.23889 7.53704e-17)
(2.32577 -5.47246 5.4782e-17)
(2.51062 -5.47522 1.9134e-17)
(2.51237 -5.29173 5.36934e-18)
(2.3537 -4.9377 -2.31505e-17)
(2.06096 -4.42396 -6.78922e-17)
(1.6881 -3.73308 -1.3923e-16)
(1.40717 -2.83596 -2.25313e-16)
(1.31064 -1.69618 -3.02137e-16)
(0.471291 -0.61252 -2.66551e-16)
(-0.939494 -0.93698 -5.91619e-17)
(-1.89605 -1.26334 2.25648e-16)
(46.7082 0.373721 5.09483e-18)
(45.9404 0.787637 5.05893e-18)
(45.2269 1.18983 4.31528e-18)
(44.588 1.55144 3.93577e-18)
(43.9413 1.85718 3.74532e-18)
(43.262 2.11294 2.55313e-18)
(42.568 2.32886 1.40888e-18)
(41.8989 2.50187 2.9646e-19)
(41.2641 2.62854 -6.92361e-19)
(40.6285 2.71393 -1.09246e-18)
(39.953 2.7653 -4.45769e-18)
(39.1961 2.80091 -3.97493e-18)
(38.3178 2.84509 -1.79716e-19)
(37.3054 2.90522 -7.98167e-19)
(36.15 2.97573 -7.75363e-18)
(34.8399 3.04686 -1.26006e-17)
(33.3663 3.11204 -1.35816e-17)
(31.7315 3.16674 8.60117e-18)
(29.9471 3.20212 4.92319e-17)
(28.0302 3.20857 1.0344e-16)
(26.0088 3.17427 1.79112e-16)
(23.8204 3.05903 2.58789e-16)
(21.5491 2.93582 2.89932e-16)
(19.4244 2.79408 2.89654e-16)
(17.436 2.62829 3.02677e-16)
(15.5359 2.41169 2.59784e-16)
(13.7735 2.12776 2.61146e-16)
(12.1925 1.76668 1.66986e-16)
(10.8446 1.33444 1.2321e-16)
(9.7958 0.838768 9.85018e-17)
(9.10985 0.270356 1.6319e-16)
(8.84739 -0.415595 1.77381e-16)
(8.70083 -1.25592 1.88218e-16)
(9.07879 -2.1622 2.53891e-16)
(9.6901 -3.10638 2.71944e-16)
(10.2389 -4.01108 2.8038e-16)
(10.5912 -4.79932 2.7441e-16)
(10.7554 -5.40892 2.73461e-16)
(10.7611 -5.80871 2.48945e-16)
(10.6266 -5.97481 2.23061e-16)
(10.3554 -5.89797 1.86444e-16)
(9.9452 -5.57998 1.44212e-16)
(9.39793 -5.02937 9.78652e-17)
(8.7376 -4.26121 4.15515e-17)
(8.02372 -3.30543 -1.85476e-17)
(7.38922 -2.22433 -7.47088e-17)
(6.81949 -1.22434 -1.26118e-16)
(6.00044 -0.574383 -2.00811e-16)
(4.73983 -0.304295 -2.80966e-16)
(3.11731 -0.263504 -3.64116e-16)
(31.8371 0.139389 4.20014e-18)
(31.5826 0.550519 4.22136e-18)
(31.5772 1.05167 3.85278e-18)
(31.7868 1.51375 3.83026e-18)
(32.0659 1.89633 4.18717e-18)
(32.3362 2.20441 4.11242e-18)
(32.5735 2.45039 3.9931e-18)
(32.7684 2.63908 3.83499e-18)
(32.9159 2.77865 3.30226e-18)
(33.0173 2.88675 3.10424e-18)
(33.0758 2.98424 3.02308e-18)
(33.0947 3.09483 2.64779e-18)
(33.0763 3.23855 2.65173e-18)
(33.0168 3.41748 2.6464e-18)
(32.9026 3.6201 1.61793e-18)
(32.7116 3.83106 5.62564e-19)
(32.4197 4.03773 -1.80622e-19)
(32.0071 4.22912 1.20534e-18)
(31.4619 4.39358 7.40045e-18)
(30.7812 4.52116 1.95968e-17)
(29.9735 4.60344 4.0737e-17)
(29.0515 4.62436 6.88515e-17)
(28.0324 4.57473 9.575e-17)
(26.9604 4.44643 1.14115e-16)
(25.8703 4.23855 1.24395e-16)
(24.7839 3.94941 1.24793e-16)
(23.7362 3.57641 1.21035e-16)
(22.7638 3.11931 1.11777e-16)
(21.9095 2.58406 1.07878e-16)
(21.2202 1.96891 1.04753e-16)
(20.7363 1.26093 1.03992e-16)
(20.4796 0.443548 1.10607e-16)
(20.3991 -0.50026 1.18836e-16)
(20.2882 -1.54301 1.25819e-16)
(20.0795 -2.6258 1.32949e-16)
(19.751 -3.65772 1.38588e-16)
(19.31 -4.54182 1.42666e-16)
(18.7787 -5.2007 1.43608e-16)
(18.1784 -5.5869 1.48187e-16)
(17.5245 -5.68268 1.52348e-16)
(16.8269 -5.4915 1.4622e-16)
(16.094 -5.03104 1.44609e-16)
(15.3371 -4.32852 1.31741e-16)
(14.5756 -3.42302 1.08617e-16)
(13.8374 -2.37911 7.5836e-17)
(13.1458 -1.30927 4.69184e-17)
(12.4702 -0.416268 1.8742e-17)
(11.7681 0.200698 3.48225e-19)
(10.9457 0.602837 -2.57795e-17)
(10.0168 0.909899 -5.49932e-17)
(28.7177 1.24918 5.35501e-18)
(28.2568 1.38712 5.35878e-18)
(27.8438 1.59788 4.88653e-18)
(27.6082 1.81682 4.83478e-18)
(27.4906 2.02007 5.21683e-18)
(27.4436 2.20421 5.12347e-18)
(27.4419 2.36736 5.07454e-18)
(27.4641 2.50371 5.03003e-18)
(27.4905 2.60979 4.50148e-18)
(27.5097 2.69003 4.4703e-18)
(27.5199 2.75712 4.82219e-18)
(27.5278 2.83097 4.63283e-18)
(27.546 2.93345 4.51923e-18)
(27.5865 3.07977 4.46234e-18)
(27.6542 3.27471 3.88214e-18)
(27.7433 3.51374 3.62231e-18)
(27.8382 3.78584 3.68352e-18)
(27.9183 4.07499 3.5544e-18)
(27.9623 4.36122 4.37261e-18)
(27.9518 4.62326 6.9911e-18)
(27.875 4.84011 1.25269e-17)
(27.7264 4.99005 2.17367e-17)
(27.5065 5.05508 3.38161e-17)
(27.2232 5.01886 4.66716e-17)
(26.8895 4.87318 5.90768e-17)
(26.521 4.61461 6.97457e-17)
(26.137 4.24082 7.75256e-17)
(25.7585 3.75185 8.24244e-17)
(25.4076 3.1498 8.6482e-17)
(25.1046 2.43339 8.93133e-17)
(24.8604 1.59761 9.14915e-17)
(24.6664 0.640971 9.31434e-17)
(24.4912 -0.423827 9.43035e-17)
(24.1773 -1.5271 9.72407e-17)
(23.6977 -2.5894 1.02066e-16)
(23.0676 -3.5219 1.03437e-16)
(22.3193 -4.25056 1.03952e-16)
(21.4876 -4.72995 1.03789e-16)
(20.6037 -4.9399 1.03582e-16)
(19.6928 -4.88152 1.02716e-16)
(18.7749 -4.57047 1.0462e-16)
(17.8662 -4.0326 1.05631e-16)
(16.9811 -3.3018 1.02083e-16)
(16.1343 -2.4223 9.26915e-17)
(15.3386 -1.45187 8.25499e-17)
(14.5878 -0.458473 6.03631e-17)
(13.8178 0.485734 2.8038e-17)
(12.9786 1.29196 -5.05991e-18)
(12.0685 1.96903 -3.4817e-17)
(11.0508 2.50315 -4.96411e-17)
(23.3005 1.29405 7.74268e-18)
(23.013 1.31811 7.68446e-18)
(22.7034 1.43579 7.02566e-18)
(22.5397 1.607 6.8904e-18)
(22.4752 1.79971 7.33479e-18)
(22.4676 1.99639 7.21907e-18)
(22.4935 2.18421 7.12877e-18)
(22.5346 2.35246 7.04249e-18)
(22.5755 2.49564 6.35575e-18)
(22.6071 2.61541 6.28376e-18)
(22.6288 2.72009 6.70807e-18)
(22.6464 2.82256 6.53646e-18)
(22.6705 2.93753 6.39598e-18)
(22.714 3.07784 6.2868e-18)
(22.789 3.25185 5.44696e-18)
(22.9033 3.46248 5.27209e-18)
(23.0586 3.70731 5.74271e-18)
(23.2498 3.97825 5.49006e-18)
(23.4666 4.26105 5.45601e-18)
(23.6946 4.53628 5.87709e-18)
(23.9189 4.78118 7.23918e-18)
(24.1251 4.97132 1.00362e-17)
(24.3017 5.08351 1.4536e-17)
(24.4403 5.09722 2.05108e-17)
(24.5367 4.99767 2.7182e-17)
(24.5909 4.77573 3.47948e-17)
(24.6053 4.42631 4.17583e-17)
(24.5834 3.94802 4.76903e-17)
(24.5281 3.34281 5.34099e-17)
(24.4394 2.61466 5.82588e-17)
(24.3097 1.77065 6.20951e-17)
(24.1194 0.827175 6.5239e-17)
(23.8377 -0.179638 6.62019e-17)
(23.4334 -1.18336 6.59178e-17)
(22.8665 -2.10655 6.6989e-17)
(22.1572 -2.88495 7.14817e-17)
(21.3381 -3.46687 7.44274e-17)
(20.4438 -3.82756 7.58766e-17)
(19.5064 -3.95887 7.74916e-17)
(18.5535 -3.86478 7.95102e-17)
(17.6078 -3.55827 8.40146e-17)
(16.6877 -3.05962 9.10932e-17)
(15.8084 -2.39507 9.78944e-17)
(14.9823 -1.59529 1.07927e-16)
(14.1926 -0.685339 1.12692e-16)
(13.3648 0.309127 1.1505e-16)
(12.573 1.28391 1.1168e-16)
(11.8024 2.17534 9.13779e-17)
(11.0036 2.92581 5.36979e-17)
(10.148 3.50631 9.21543e-18)
(18.5146 2.03306 8.27551e-18)
(18.2648 1.91217 8.27609e-18)
(17.9766 1.89817 7.82738e-18)
(17.8309 1.96684 7.7329e-18)
(17.7763 2.08149 8.08226e-18)
(17.774 2.21674 8.03745e-18)
(17.8032 2.3539 8.01178e-18)
(17.8479 2.47906 7.96661e-18)
(17.8957 2.58523 7.43428e-18)
(17.9401 2.67314 7.31154e-18)
(17.9805 2.74948 7.65177e-18)
(18.021 2.82402 7.56361e-18)
(18.0686 2.90786 7.5135e-18)
(18.132 3.01151 7.46178e-18)
(18.2204 3.14329 6.83953e-18)
(18.342 3.30807 6.59684e-18)
(18.5032 3.50668 6.86393e-18)
(18.7069 3.73504 6.70706e-18)
(18.9522 3.98322 6.5923e-18)
(19.2341 4.23536 6.5999e-18)
(19.5433 4.47074 6.85652e-18)
(19.8677 4.66556 7.61091e-18)
(20.1938 4.79563 9.14866e-18)
(20.5073 4.83859 1.17176e-17)
(20.7956 4.77642 1.48441e-17)
(21.0476 4.59659 1.91352e-17)
(21.2538 4.29185 2.28605e-17)
(21.4052 3.86009 2.66373e-17)
(21.4925 3.30452 3.09413e-17)
(21.5047 2.63357 3.49094e-17)
(21.4273 1.86229 3.84225e-17)
(21.2426 1.01603 4.1665e-17)
(20.9313 0.134572 4.3172e-17)
(20.5047 -0.728102 4.30636e-17)
(19.9567 -1.50833 4.19967e-17)
(19.2848 -2.15734 4.03013e-17)
(18.515 -2.63528 3.93209e-17)
(17.6776 -2.92282 4.12259e-17)
(16.8021 -3.01378 4.62882e-17)
(15.914 -2.90987 5.04477e-17)
(15.0354 -2.61795 5.71055e-17)
(14.1849 -2.14917 6.5229e-17)
(13.3803 -1.51725 7.65087e-17)
(12.6053 -0.726588 8.94683e-17)
(11.789 0.210535 9.93394e-17)
(11.0637 1.19396 1.06925e-16)
(10.4157 2.1659 1.13121e-16)
(9.80557 3.05746 1.09869e-16)
(9.19046 3.81644 9.23532e-17)
(8.55357 4.41728 5.56885e-17)
(13.2847 2.32971 8.49056e-18)
(13.1691 2.03327 8.49356e-18)
(12.9931 1.89987 7.978e-18)
(12.9528 1.88732 7.9804e-18)
(12.9821 1.94856 8.44487e-18)
(13.0455 2.05192 8.38417e-18)
(13.1271 2.1733 8.37936e-18)
(13.2149 2.29498 8.38288e-18)
(13.3013 2.40682 7.76067e-18)
(13.3838 2.50621 7.60268e-18)
(13.4632 2.59617 8.11763e-18)
(13.5423 2.68309 8.08475e-18)
(13.6256 2.77472 8.08418e-18)
(13.7196 2.87824 8.097e-18)
(13.831 2.99951 7.58293e-18)
(13.967 3.1429 7.41814e-18)
(14.1336 3.31066 7.68535e-18)
(14.3358 3.50169 7.5373e-18)
(14.5764 3.71032 7.42201e-18)
(14.8556 3.92545 7.39288e-18)
(15.1699 4.13094 7.45813e-18)
(15.512 4.30676 7.64545e-18)
(15.8708 4.43106 8.13852e-18)
(16.2323 4.48255 9.0867e-18)
(16.5815 4.44289 1.06294e-17)
(16.9028 4.29847 1.30659e-17)
(17.1807 4.04116 1.53052e-17)
(17.4002 3.66872 1.74134e-17)
(17.5464 3.18527 2.01896e-17)
(17.6044 2.60157 2.2908e-17)
(17.5596 1.9358 2.54616e-17)
(17.3983 1.21466 2.81625e-17)
(17.1105 0.47342 2.98233e-17)
(16.6896 -0.244913 3.0246e-17)
(16.2132 -0.900874 3.02086e-17)
(15.6229 -1.4458 2.89951e-17)
(14.9489 -1.85456 2.6683e-17)
(14.2129 -2.10031 2.32588e-17)
(13.4394 -2.17535 1.88926e-17)
(12.6538 -2.07719 1.47277e-17)
(11.8778 -1.80668 1.60729e-17)
(11.1313 -1.36477 2.22769e-17)
(10.3973 -0.744386 3.10283e-17)
(9.61557 0.053024 4.36148e-17)
(8.95221 0.94826 5.79123e-17)
(8.39659 1.89767 7.22947e-17)
(7.91967 2.84234 8.58741e-17)
(7.48831 3.72053 9.52443e-17)
(7.06979 4.48145 8.85365e-17)
(6.65143 5.09328 6.35134e-17)
(7.89353 2.77966 8.60772e-18)
(8.03231 2.19359 8.63101e-18)
(8.0738 1.92978 8.20827e-18)
(8.21103 1.84695 8.22776e-18)
(8.375 1.86618 8.57459e-18)
(8.53915 1.94666 8.45827e-18)
(8.69527 2.0593 8.43445e-18)
(8.83825 2.18341 8.46667e-18)
(8.96699 2.3054 7.9962e-18)
(9.08411 2.41764 7.84833e-18)
(9.19357 2.51801 8.23094e-18)
(9.29908 2.60956 8.25063e-18)
(9.40403 2.699 8.26759e-18)
(9.51258 2.7931 8.33693e-18)
(9.63096 2.89709 7.91772e-18)
(9.76678 3.01492 7.74845e-18)
(9.92701 3.14925 7.9113e-18)
(10.117 3.30065 7.72665e-18)
(10.3405 3.46649 7.56552e-18)
(10.5997 3.63952 7.43148e-18)
(10.8941 3.80766 7.45238e-18)
(11.2194 3.95471 7.64388e-18)
(11.5672 4.06189 7.89481e-18)
(11.925 4.11019 8.32344e-18)
(12.278 4.08258 9.07438e-18)
(12.6099 3.96595 1.05389e-17)
(12.9038 3.75232 1.20129e-17)
(13.1427 3.43959 1.33761e-17)
(13.3104 3.03208 1.53678e-17)
(13.392 2.54075 1.74359e-17)
(13.3743 1.98318 1.97137e-17)
(13.2467 1.38313 2.243e-17)
(13.0023 0.769452 2.42494e-17)
(12.6399 0.173456 2.49041e-17)
(12.1598 -0.36975 2.52228e-17)
(11.6777 -0.836913 2.4886e-17)
(11.1056 -1.18898 2.33195e-17)
(10.4759 -1.40814 2.09339e-17)
(9.81878 -1.47634 1.7458e-17)
(9.14973 -1.38412 1.30405e-17)
(8.48171 -1.12386 9.96249e-18)
(7.78786 -0.681162 9.31951e-18)
(7.04505 -0.054314 1.15691e-17)
(6.43152 0.697395 1.75683e-17)
(5.94376 1.54323 2.62297e-17)
(5.56006 2.4411 3.77871e-17)
(5.25623 3.34094 5.38307e-17)
(5.00729 4.18676 7.22068e-17)
(4.78837 4.92876 8.27172e-17)
(4.5884 5.53085 7.21268e-17)
(3.46325 3.156 8.58335e-18)
(3.79906 2.22658 8.68137e-18)
(3.97527 1.84598 8.29111e-18)
(4.19597 1.70815 8.31177e-18)
(4.41805 1.6903 8.59669e-18)
(4.62698 1.74294 8.43152e-18)
(4.81513 1.83792 8.39949e-18)
(4.97706 1.95669 8.42887e-18)
(5.11304 2.08525 7.78952e-18)
(5.22856 2.21225 7.74341e-18)
(5.33033 2.32968 8.22717e-18)
(5.42407 2.43465 8.13582e-18)
(5.5133 2.53052 8.1175e-18)
(5.60018 2.62437 8.16554e-18)
(5.69023 2.72253 7.53769e-18)
(5.79271 2.82876 7.49724e-18)
(5.91708 2.94493 7.8308e-18)
(6.07063 3.07178 7.73206e-18)
(6.25833 3.20864 7.6327e-18)
(6.48286 3.35141 7.54728e-18)
(6.74452 3.49136 7.52135e-18)
(7.03998 3.61537 7.61791e-18)
(7.36167 3.70763 7.83314e-18)
(7.69816 3.75177 8.17065e-18)
(8.03515 3.73298 8.43289e-18)
(8.35649 3.63971 9.1889e-18)
(8.64528 3.46477 9.4241e-18)
(8.88494 3.20647 9.42129e-18)
(9.05999 2.86883 1.00333e-17)
(9.15656 2.46179 1.07523e-17)
(9.16287 2.00073 1.15542e-17)
(9.06984 1.50564 1.27855e-17)
(8.87197 1.00003 1.37046e-17)
(8.56814 0.509314 1.40935e-17)
(8.16148 0.0583791 1.3506e-17)
(7.65604 -0.323656 1.20054e-17)
(7.16146 -0.620675 1.01653e-17)
(6.64924 -0.809958 6.97763e-18)
(6.0915 -0.86549 3.67247e-18)
(5.47035 -0.762025 1.19982e-19)
(4.77377 -0.480706 -1.69193e-18)
(4.07388 -0.0270192 8.88611e-20)
(3.51477 0.558495 3.63134e-18)
(3.09365 1.25293 9.46432e-18)
(2.79254 2.02968 1.49594e-17)
(2.59166 2.85464 2.41534e-17)
(2.47274 3.68535 3.68776e-17)
(2.41948 4.47262 5.69227e-17)
(2.41289 5.16952 7.38352e-17)
(2.44213 5.73988 7.54524e-17)
(-0.0727921 2.50929 8.51482e-18)
(0.568189 1.72248 8.47529e-18)
(0.747212 1.57017 8.68807e-18)
(0.889994 1.5615 9.62575e-18)
(1.03901 1.59925 9.18054e-18)
(1.19082 1.67297 9.47247e-18)
(1.32589 1.77553 1.00543e-17)
(1.43353 1.89947 9.97525e-18)
(1.52268 2.02958 7.92154e-18)
(1.60442 2.15076 7.75387e-18)
(1.68381 2.25734 7.99425e-18)
(1.75154 2.34404 7.71851e-18)
(1.80604 2.41675 7.59045e-18)
(1.85057 2.48691 7.48033e-18)
(1.89264 2.56299 6.74226e-18)
(1.94432 2.64773 6.75802e-18)
(2.01831 2.74042 6.97992e-18)
(2.12412 2.84162 6.80593e-18)
(2.26899 2.95185 6.75538e-18)
(2.45572 3.06854 6.87512e-18)
(2.68413 3.18455 6.8975e-18)
(2.95051 3.28853 7.0551e-18)
(3.24698 3.36701 7.52203e-18)
(3.56201 3.40627 8.00936e-18)
(3.88136 3.39434 8.3382e-18)
(4.18904 3.32201 9.30631e-18)
(4.46852 3.1823 9.37665e-18)
(4.70416 2.97282 9.57624e-18)
(4.88145 2.69719 1.00077e-17)
(4.98791 2.36399 1.035e-17)
(5.01288 1.98644 1.09646e-17)
(4.94788 1.58166 1.20493e-17)
(4.78737 1.16961 1.31194e-17)
(4.52877 0.772032 1.56911e-17)
(4.17193 0.410785 1.84239e-17)
(3.71821 0.106503 1.84385e-17)
(3.17497 -0.116784 1.86792e-17)
(2.54946 -0.235544 1.88489e-17)
(1.87037 -0.234968 1.82489e-17)
(1.19001 -0.101944 1.76538e-17)
(0.575151 0.172345 1.77001e-17)
(0.0913204 0.5807 2.10864e-17)
(-0.225819 1.10625 2.24597e-17)
(-0.39363 1.72759 2.35943e-17)
(-0.464351 2.41972 2.51007e-17)
(-0.46137 3.15091 3.24122e-17)
(-0.381453 3.88656 4.42677e-17)
(-0.222931 4.5862 6.37201e-17)
(0.000553947 5.20903 8.08843e-17)
(0.275596 5.72336 8.34312e-17)
(-5.53638 1.57219 1.26045e-17)
(-4.56703 1.42141 1.30437e-17)
(-3.99247 1.43273 1.33315e-17)
(-3.48946 1.50956 1.2701e-17)
(-3.08327 1.61284 1.18371e-17)
(-2.78123 1.7287 1.18778e-17)
(-2.57576 1.84541 1.11763e-17)
(-2.44602 1.95404 1.00026e-17)
(-2.36719 2.04949 8.81274e-18)
(-2.31864 2.12914 8.21679e-18)
(-2.28286 2.19331 7.43014e-18)
(-2.25393 2.24581 6.8535e-18)
(-2.22986 2.29451 6.36813e-18)
(-2.20795 2.34703 5.85997e-18)
(-2.18001 2.40787 5.53699e-18)
(-2.13555 2.47677 5.28615e-18)
(-2.06443 2.55289 4.36546e-18)
(-1.95962 2.63625 4.52787e-18)
(-1.81588 2.72632 5.00127e-18)
(-1.63143 2.8203 5.45131e-18)
(-1.40718 2.91155 6.06604e-18)
(-1.14753 2.99026 7.18666e-18)
(-0.860181 3.04523 6.81538e-18)
(-0.555526 3.06525 8.37936e-18)
(-0.245988 3.04083 9.8393e-18)
(0.0624305 2.96428 1.07378e-17)
(0.340938 2.83235 1.07725e-17)
(0.565438 2.65128 1.05234e-17)
(0.735491 2.41824 1.08376e-17)
(0.839189 2.13915 1.08075e-17)
(0.865091 1.82374 1.08748e-17)
(0.802736 1.4858 1.40874e-17)
(0.643072 1.14172 2.12716e-17)
(0.377645 0.809349 3.41793e-17)
(-0.00417445 0.507784 5.251e-17)
(-0.517225 0.256734 6.51081e-17)
(-1.18004 0.0802848 6.6446e-17)
(-2.00596 0.0133103 6.50216e-17)
(-2.90854 0.116176 7.34595e-17)
(-3.3473 0.55473 6.28947e-17)
(-3.39355 0.919852 5.3059e-17)
(-3.44679 1.31594 4.64167e-17)
(-3.47286 1.74121 4.19204e-17)
(-3.46171 2.22095 4.07419e-17)
(-3.40119 2.75619 4.32411e-17)
(-3.26236 3.33097 5.15671e-17)
(-3.025 3.91899 6.41166e-17)
(-2.68676 4.48831 8.02478e-17)
(-2.26293 5.00585 9.11395e-17)
(-1.77311 5.4458 8.97367e-17)
(-13.7249 0.837955 2.36402e-17)
(-12.8833 0.811156 2.28042e-17)
(-12.1706 0.840835 2.13846e-17)
(-11.4247 0.93016 1.90638e-17)
(-10.6827 1.0651 1.70186e-17)
(-9.97638 1.22741 1.56383e-17)
(-9.33392 1.39945 1.38361e-17)
(-8.77299 1.56702 1.21766e-17)
(-8.29828 1.71935 1.06813e-17)
(-7.90463 1.85013 9.07342e-18)
(-7.58002 1.95847 7.86301e-18)
(-7.3122 2.04835 7.2661e-18)
(-7.08924 2.12617 6.50129e-18)
(-6.89908 2.19822 5.77564e-18)
(-6.72812 2.26881 5.13794e-18)
(-6.56309 2.34005 4.15114e-18)
(-6.39213 2.4131 3.42248e-18)
(-6.20642 2.48786 3.87972e-18)
(-5.99895 2.56331 4.43208e-18)
(-5.7658 2.63657 4.98164e-18)
(-5.50629 2.70213 5.80126e-18)
(-5.2234 2.75246 6.85878e-18)
(-4.92372 2.77906 7.7465e-18)
(-4.61686 2.77377 9.42399e-18)
(-4.31407 2.73056 1.08628e-17)
(-4.02825 2.64556 1.22519e-17)
(-3.77729 2.51923 1.41489e-17)
(-3.57277 2.35663 1.52084e-17)
(-3.42514 2.15767 1.72149e-17)
(-3.35287 1.92772 1.95532e-17)
(-3.37236 1.67715 2.48161e-17)
(-3.4943 1.42263 3.88061e-17)
(-3.71847 1.18539 6.21382e-17)
(-4.02787 0.987668 8.99235e-17)
(-4.39009 0.847605 1.10127e-16)
(-4.7672 0.774703 1.09563e-16)
(-5.12663 0.771353 9.16884e-17)
(-5.44099 0.838792 7.30817e-17)
(-5.6772 0.980512 6.62405e-17)
(-5.81865 1.19605 6.89283e-17)
(-5.88547 1.43411 6.88558e-17)
(-5.9421 1.70543 6.67646e-17)
(-5.97666 2.01284 6.7207e-17)
(-5.96246 2.36731 7.02052e-17)
(-5.86329 2.77084 7.59004e-17)
(-5.64854 3.21364 8.32338e-17)
(-5.30271 3.67443 9.25885e-17)
(-4.82915 4.12691 1.01436e-16)
(-4.24673 4.54602 1.02457e-16)
(-3.58342 4.91387 9.05103e-17)
(-20.2579 0.29079 4.83571e-17)
(-19.7748 0.240417 4.7692e-17)
(-19.3429 0.225203 4.64043e-17)
(-18.8492 0.257146 4.45854e-17)
(-18.2768 0.33973 4.24101e-17)
(-17.6313 0.469286 3.99205e-17)
(-16.9374 0.637116 3.72369e-17)
(-16.2293 0.829338 3.44696e-17)
(-15.5253 1.03125 3.16724e-17)
(-14.851 1.2284 2.86761e-17)
(-14.218 1.41177 2.63545e-17)
(-13.6334 1.57686 2.46978e-17)
(-13.0982 1.72343 2.28869e-17)
(-12.6091 1.8538 2.13188e-17)
(-12.1599 1.9706 1.98358e-17)
(-11.7428 2.07601 1.80236e-17)
(-11.3492 2.17134 1.72015e-17)
(-10.9713 2.25743 1.73185e-17)
(-10.6021 2.33447 1.72587e-17)
(-10.2362 2.40148 1.74672e-17)
(-9.87077 2.45613 1.80216e-17)
(-9.50604 2.49482 1.88889e-17)
(-9.14506 2.51328 1.99395e-17)
(-8.79347 2.50753 2.12655e-17)
(-8.45869 2.47496 2.25618e-17)
(-8.14938 2.41531 2.40197e-17)
(-7.87446 2.32995 2.64797e-17)
(-7.64189 2.22106 3.04681e-17)
(-7.46064 2.09144 3.51263e-17)
(-7.33929 1.94697 3.94101e-17)
(-7.28175 1.79558 4.94283e-17)
(-7.28582 1.64608 6.16613e-17)
(-7.34321 1.5063 7.75526e-17)
(-7.44084 1.38153 9.21427e-17)
(-7.56433 1.27477 1.0001e-16)
(-7.70119 1.18878 9.89392e-17)
(-7.84129 1.12884 9.05938e-17)
(-7.97444 1.10408 8.15734e-17)
(-8.08673 1.12604 7.96209e-17)
(-8.16879 1.20242 8.62849e-17)
(-8.22296 1.33444 9.55727e-17)
(-8.24465 1.52461 1.02477e-16)
(-8.22307 1.77021 1.07437e-16)
(-8.13316 2.06893 1.11819e-16)
(-7.94573 2.41226 1.16388e-16)
(-7.63597 2.78475 1.19917e-16)
(-7.19024 3.16501 1.22069e-16)
(-6.60943 3.53087 1.20072e-16)
(-5.9099 3.86672 1.06183e-16)
(-5.12755 4.16718 7.26927e-17)
(-24.1427 0.0203878 4.66174e-17)
(-23.9371 -0.0331773 4.77587e-17)
(-23.773 -0.0731225 4.88308e-17)
(-23.5764 -0.0869911 4.9126e-17)
(-23.346 -0.0680232 4.97879e-17)
(-23.0637 -0.0117578 5.05915e-17)
(-22.7123 0.0825243 5.04286e-17)
(-22.2811 0.211645 4.98115e-17)
(-21.786 0.367701 4.87597e-17)
(-21.2453 0.540607 4.73837e-17)
(-20.6746 0.720186 4.60362e-17)
(-20.0852 0.898516 4.47325e-17)
(-19.4879 1.0701 4.3331e-17)
(-18.8912 1.23176 4.19357e-17)
(-18.3008 1.38201 4.05971e-17)
(-17.7209 1.52006 3.899e-17)
(-17.1535 1.64539 3.79746e-17)
(-16.5998 1.75787 3.76518e-17)
(-16.0595 1.85751 3.72018e-17)
(-15.5324 1.94416 3.69519e-17)
(-15.0185 2.01723 3.69824e-17)
(-14.5186 2.07562 3.71617e-17)
(-14.035 2.11777 3.76128e-17)
(-13.5709 2.14194 3.84253e-17)
(-13.1305 2.14668 3.96452e-17)
(-12.7185 2.13111 4.13807e-17)
(-12.3395 2.09492 4.38428e-17)
(-11.9975 2.03842 4.60343e-17)
(-11.6962 1.96268 4.67985e-17)
(-11.4383 1.87005 4.77939e-17)
(-11.2239 1.76363 5.04226e-17)
(-11.0516 1.64695 5.55917e-17)
(-10.9178 1.52381 6.86311e-17)
(-10.818 1.39858 7.97087e-17)
(-10.7466 1.27669 8.9633e-17)
(-10.6973 1.16528 9.59598e-17)
(-10.6626 1.07325 9.82837e-17)
(-10.6341 1.01063 9.95524e-17)
(-10.602 0.987461 1.04954e-16)
(-10.556 1.01207 1.15931e-16)
(-10.4866 1.08911 1.28158e-16)
(-10.3827 1.22094 1.39215e-16)
(-10.23 1.40641 1.4178e-16)
(-10.009 1.64148 1.43107e-16)
(-9.69777 1.91667 1.42487e-16)
(-9.27696 2.21653 1.38353e-16)
(-8.73372 2.52113 1.29663e-16)
(-8.06422 2.8101 1.14196e-16)
(-7.27658 3.07001 8.54179e-17)
(-6.40761 3.29949 3.66614e-17)
(-26.6084 -0.0313619 6.41088e-17)
(-26.5406 -0.0750789 6.53198e-17)
(-26.5116 -0.11543 6.62643e-17)
(-26.4823 -0.141913 6.64365e-17)
(-26.4469 -0.148145 6.68008e-17)
(-26.3921 -0.130899 6.73462e-17)
(-26.3053 -0.0894945 6.71663e-17)
(-26.175 -0.0247039 6.66646e-17)
(-25.9906 0.0615849 6.57913e-17)
(-25.7419 0.166658 6.47295e-17)
(-25.4335 0.285928 6.36362e-17)
(-25.0746 0.413793 6.24704e-17)
(-24.6679 0.546045 6.12454e-17)
(-24.2192 0.679024 5.99945e-17)
(-23.7339 0.809957 5.87817e-17)
(-23.2174 0.936704 5.71832e-17)
(-22.6756 1.05758 5.61132e-17)
(-22.1137 1.17122 5.57249e-17)
(-21.5367 1.27655 5.51577e-17)
(-20.9492 1.37261 5.48452e-17)
(-20.3556 1.45837 5.47134e-17)
(-19.7602 1.53268 5.4967e-17)
(-19.1677 1.59416 5.56174e-17)
(-18.5827 1.64125 5.67121e-17)
(-18.0101 1.67233 5.82875e-17)
(-17.4548 1.68599 6.02936e-17)
(-16.9211 1.68117 6.30469e-17)
(-16.4131 1.65737 6.56054e-17)
(-15.9342 1.61501 6.75279e-17)
(-15.487 1.55556 7.03607e-17)
(-15.0735 1.48155 7.39216e-17)
(-14.6952 1.39637 7.86379e-17)
(-14.3526 1.304 8.57256e-17)
(-14.0454 1.2089 9.37652e-17)
(-13.7714 1.11594 1.01671e-16)
(-13.5265 1.03038 1.0867e-16)
(-13.3044 0.957934 1.12937e-16)
(-13.0971 0.904598 1.15389e-16)
(-12.8953 0.876517 1.19204e-16)
(-12.6883 0.879453 1.26914e-16)
(-12.4648 0.917861 1.35541e-16)
(-12.2123 0.994953 1.43167e-16)
(-11.9159 1.11181 1.41852e-16)
(-11.5591 1.26694 1.3681e-16)
(-11.1249 1.45498 1.28514e-16)
(-10.5989 1.66554 1.1522e-16)
(-9.97043 1.88302 9.6091e-17)
(-9.23248 2.08885 6.95341e-17)
(-8.38361 2.26738 3.31952e-17)
(-7.45139 2.41208 -1.24631e-17)
(-28.2669 -0.0708225 7.97839e-17)
(-28.2636 -0.0984205 8.05919e-17)
(-28.303 -0.126366 8.11288e-17)
(-28.3511 -0.147268 8.09237e-17)
(-28.4057 -0.157239 8.09297e-17)
(-28.4568 -0.154291 8.11719e-17)
(-28.4945 -0.137886 8.07126e-17)
(-28.5091 -0.108245 8.00468e-17)
(-28.4915 -0.0662161 7.92089e-17)
(-28.4333 -0.0130125 7.7765e-17)
(-28.3274 0.0499283 7.67342e-17)
(-28.1678 0.121016 7.61868e-17)
(-27.9569 0.197814 7.5211e-17)
(-27.6933 0.278289 7.42776e-17)
(-27.3778 0.36053 7.34139e-17)
(-27.0116 0.442974 7.21454e-17)
(-26.5968 0.524386 7.14502e-17)
(-26.1365 0.60368 7.14344e-17)
(-25.6342 0.67986 7.11662e-17)
(-25.0942 0.751919 7.10722e-17)
(-24.5211 0.818807 7.12154e-17)
(-23.9202 0.879394 7.1622e-17)
(-23.297 0.932454 7.22954e-17)
(-22.6578 0.976666 7.32537e-17)
(-22.0089 1.01064 7.45167e-17)
(-21.3569 1.033 7.60174e-17)
(-20.7081 1.04262 7.82622e-17)
(-20.0686 1.03887 7.99603e-17)
(-19.4439 1.02184 8.11281e-17)
(-18.839 0.992507 8.29292e-17)
(-18.2589 0.952649 8.47881e-17)
(-17.7081 0.904669 8.66421e-17)
(-17.1905 0.851292 8.94235e-17)
(-16.7087 0.795416 9.20423e-17)
(-16.2632 0.739917 9.42789e-17)
(-15.8517 0.687738 9.63252e-17)
(-15.4694 0.642044 9.65121e-17)
(-15.1089 0.606241 9.52054e-17)
(-14.7609 0.583957 9.47847e-17)
(-14.415 0.578878 9.64583e-17)
(-14.0596 0.59411 9.77999e-17)
(-13.6818 0.632124 9.86049e-17)
(-13.2669 0.694375 9.20942e-17)
(-12.7999 0.780896 8.1274e-17)
(-12.2665 0.889398 6.84547e-17)
(-11.6562 1.01394 5.22238e-17)
(-10.9615 1.1433 3.25362e-17)
(-10.1748 1.26157 1.09654e-17)