/*--------------------------------*- C++ -*----------------------------------*\
  =========                 |
  \\      /  F ield         | OpenFOAM: The Open Source CFD Toolbox
   \\    /   O peration     | Website:  https://openfoam.org
    \\  /    A nd           | Version:  8
     \\/     M anipulation  |
\*---------------------------------------------------------------------------*/
FoamFile
{
    version     2.0;
    format      ascii;
    class       volScalarField;
    location    "500";
    object      epsilon;
}
// * * * * * * * * * * * * * * * * * * * * * * * * * * * * * * * * * * * * * //

dimensions      [0 2 -3 0 0 0 0];

internalField   nonuniform List<scalar> 
1200
(
5.3583e-06
5.27191e-06
5.18152e-06
5.08486e-06
4.97889e-06
4.86127e-06
4.71611e-06
4.43418e-06
4.17342e-06
4.47359e-06
4.96179e-06
5.47493e-06
6.11284e-06
6.86426e-06
7.72456e-06
8.42107e-06
8.75414e-06
9.22336e-06
1.01638e-05
1.13961e-05
1.19462e-05
1.19376e-05
3.06566e-05
3.09714e-05
3.23173e-05
3.40975e-05
3.58544e-05
3.71675e-05
3.80243e-05
3.96427e-05
4.37478e-05
5.14205e-05
5.51748e-05
5.64143e-05
5.86715e-05
6.665e-05
8.44128e-05
0.000102494
0.000116927
0.000129839
0.000142399
0.000155088
0.000167716
0.000180825
0.000195521
0.000220907
0.000329718
0.000507041
0.000603385
0.00065988
0.000720382
0.0007792
0.000831992
0.000872458
0.000890688
0.000909945
0.00174543
0.00271311
0.00369146
0.00870265
5.381e-06
4.66206e-06
4.05334e-06
3.53913e-06
3.11253e-06
2.77368e-06
2.48547e-06
2.14003e-06
2.30491e-06
4.02549e-06
5.24234e-06
4.77707e-06
4.11251e-06
3.86787e-06
3.70158e-06
3.65496e-06
3.80696e-06
4.11804e-06
4.70766e-06
5.38505e-06
5.895e-06
6.37119e-06
7.08097e-06
8.05447e-06
9.01944e-06
1.00834e-05
1.11343e-05
5.02959e-05
5.42789e-05
1.10204e-05
5.79794e-05
0.000116126
0.000131906
8.09473e-05
8.56643e-05
0.000175344
0.000244872
0.000251931
0.000243714
0.00030634
0.000438457
0.000547385
0.000589368
0.00063221
0.000747774
0.00102143
0.00135023
0.00153614
0.00131238
0.000700688
0.00127759
0.00210419
0.00275455
0.00354137
0.00440441
0.00547522
0.00751554
0.00865449
0.0077436
0.00973525
5.37227e-06
4.62747e-06
3.9877e-06
3.43498e-06
2.95969e-06
2.55648e-06
2.2079e-06
2.20374e-06
3.02427e-06
3.92033e-06
3.56424e-06
1.62931e-06
1.21015e-06
2.32473e-06
3.43617e-06
3.88277e-06
3.97137e-06
3.98305e-06
3.95552e-06
5.07612e-06
6.98008e-06
9.29891e-06
1.0932e-05
5.00658e-05
6.43395e-05
8.36408e-05
0.000106435
0.000135095
0.00017257
0.000218124
0.000272718
0.000339108
0.000413585
0.000493582
0.000579452
0.000708512
0.000851636
0.00100316
0.0011763
0.0013584
0.00156043
0.00177037
0.00197256
0.00218236
0.00243505
0.00273558
0.00303257
0.0032938
0.00358184
0.00390495
0.00428465
0.00488035
0.00558029
0.00653266
0.00774418
0.00929417
0.0111834
0.0135083
0.0161164
0.0195743
5.37054e-06
4.62924e-06
3.99124e-06
3.4377e-06
2.96012e-06
2.55005e-06
2.19255e-06
2.04415e-06
2.79932e-06
3.51164e-06
3.12047e-06
2.45108e-06
2.36876e-06
3.01973e-06
3.9467e-06
4.62138e-06
4.90227e-06
5.0442e-06
5.09921e-06
4.94176e-06
6.95488e-06
9.31017e-06
1.07325e-05
1.15559e-05
6.21523e-05
8.26833e-05
0.000107515
0.000137949
0.00017548
0.000221567
0.000277133
0.000343215
0.000420391
0.000508825
0.000609613
0.00072661
0.000859715
0.0010107
0.0011803
0.00136996
0.00157992
0.00180654
0.00204394
0.00228665
0.00253382
0.0027892
0.00306147
0.0033595
0.00371439
0.00411428
0.00452443
0.00505426
0.00575419
0.00669433
0.00792039
0.00949962
0.0115184
0.014181
0.0173986
0.0212664
5.36915e-06
4.62865e-06
3.99046e-06
3.43693e-06
2.96222e-06
2.55471e-06
2.19941e-06
1.95649e-06
2.27257e-06
2.85474e-06
2.76841e-06
2.40251e-06
2.15867e-06
2.25736e-06
3.41111e-06
4.73824e-06
5.06946e-06
5.32346e-06
5.67927e-06
6.03923e-06
6.70098e-06
8.06943e-06
9.39617e-06
1.05206e-05
1.16438e-05
5.06823e-05
6.96916e-05
9.16337e-05
0.000116539
0.000144015
0.000175885
0.000214304
0.000269374
0.000341841
0.000416284
0.000490361
0.000575608
0.000684136
0.000816513
0.000964855
0.00112152
0.00129119
0.00147526
0.00165949
0.00182688
0.00197521
0.00212865
0.0023272
0.00256035
0.00283737
0.00318371
0.00361249
0.00422281
0.00499204
0.00599432
0.00746172
0.00966914
0.0127453
0.0165095
0.0209092
5.36895e-06
4.62852e-06
3.99103e-06
3.43869e-06
2.96619e-06
2.5617e-06
2.20848e-06
1.92819e-06
1.93833e-06
2.24908e-06
2.28715e-06
2.1544e-06
1.982e-06
1.87919e-06
1.9948e-06
1.80761e-06
2.22316e-06
3.46181e-06
4.66199e-06
5.24217e-06
5.60874e-06
6.34384e-06
7.43476e-06
8.7565e-06
9.79339e-06
1.04075e-05
1.15884e-05
5.16505e-05
5.80358e-05
7.43107e-05
9.61291e-05
0.000102432
0.000139657
0.000196201
0.000238632
0.000268265
0.000302869
0.000362865
0.000449531
0.000553109
0.00065503
0.000765378
0.000886338
0.000997306
0.0010802
0.00114161
0.00121081
0.00130931
0.00139401
0.00149671
0.00163471
0.00184327
0.001998
0.00209152
0.00251942
0.00354422
0.00578108
0.00869948
0.0133869
0.0189435
5.36933e-06
4.6283e-06
3.99228e-06
3.44202e-06
2.97197e-06
2.56908e-06
2.21819e-06
1.92771e-06
1.77885e-06
1.83383e-06
1.8357e-06
1.77193e-06
1.68364e-06
1.60152e-06
1.55069e-06
1.43613e-06
1.34117e-06
1.23661e-06
1.17692e-06
1.81258e-06
3.26567e-06
4.34064e-06
5.09229e-06
6.2231e-06
7.38184e-06
8.19406e-06
8.86045e-06
9.40974e-06
1.00696e-05
1.12725e-05
5.00454e-05
5.74315e-05
7.58278e-05
0.000103964
0.000126489
0.000138695
0.000147722
0.000160225
0.00019642
0.000255039
0.000314074
0.000376005
0.000451119
0.000525145
0.000568991
0.00057228
0.000567322
0.000634075
0.000754418
0.000981407
0.00102883
0.000926803
0.000943586
0.00080093
0.000626614
0.00100964
0.00126017
0.00197999
0.00769596
0.012508
5.36886e-06
4.62542e-06
3.98937e-06
3.44021e-06
2.97205e-06
2.57125e-06
2.22503e-06
1.93712e-06
1.72823e-06
1.62918e-06
1.5534e-06
1.47777e-06
1.4035e-06
1.33657e-06
1.27128e-06
1.18491e-06
1.09884e-06
1.01358e-06
9.46077e-07
1.05415e-06
1.65293e-06
2.466e-06
3.10615e-06
3.82977e-06
4.64293e-06
5.35493e-06
5.93203e-06
6.47969e-06
7.16352e-06
8.08491e-06
8.99752e-06
1.01058e-05
1.15344e-05
5.35657e-05
5.82436e-05
6.05365e-05
6.35185e-05
7.05386e-05
8.32409e-05
0.000103484
0.000130348
0.00016388
0.000206524
0.000239882
0.000252475
0.000246088
0.000233322
0.000230423
0.000263851
0.000376312
0.000499525
0.000546798
0.000537903
0.000497438
0.000439335
0.00041419
0.000418117
0.000773162
0.0026779
0.00564477
5.37526e-06
4.65587e-06
4.0439e-06
3.50981e-06
3.05711e-06
2.67052e-06
2.33148e-06
2.04163e-06
1.80722e-06
1.63726e-06
1.51156e-06
1.40936e-06
1.32357e-06
1.25052e-06
1.1852e-06
1.12582e-06
1.07632e-06
1.03482e-06
9.95353e-07
9.78908e-07
1.11385e-06
1.43287e-06
1.77965e-06
2.16463e-06
2.58052e-06
2.97259e-06
3.31169e-06
3.62263e-06
4.00552e-06
4.54171e-06
5.22014e-06
6.08951e-06
7.03117e-06
7.73683e-06
8.21174e-06
8.59947e-06
9.08675e-06
9.80844e-06
1.08201e-05
1.1645e-05
5.61716e-05
6.50049e-05
7.51146e-05
8.322e-05
8.69298e-05
8.62572e-05
8.41356e-05
8.39761e-05
9.21196e-05
0.000117196
0.000150802
0.000179263
0.000199098
0.000209363
0.00020265
0.000192573
0.000192176
0.0002552
0.000730101
0.00159946
5.35032e-06
5.27179e-06
5.19594e-06
5.10667e-06
5.00486e-06
4.873e-06
4.6726e-06
4.40282e-06
4.10921e-06
3.88027e-06
3.82936e-06
3.8935e-06
4.02213e-06
4.17966e-06
4.39463e-06
4.69806e-06
4.98715e-06
5.29081e-06
5.5642e-06
5.61016e-06
5.41758e-06
5.18466e-06
5.14452e-06
5.21632e-06
5.3566e-06
5.60288e-06
5.98424e-06
6.48895e-06
7.07408e-06
7.73361e-06
8.47506e-06
9.2978e-06
1.02202e-05
1.12818e-05
3.12926e-05
3.44062e-05
3.81364e-05
4.24129e-05
4.71654e-05
5.24167e-05
5.81101e-05
6.44127e-05
7.16813e-05
8.02263e-05
9.00713e-05
0.000101187
0.000113351
0.000125967
0.000138445
0.000152796
0.000171831
0.000196071
0.000226806
0.000266741
0.000317783
0.000378111
0.000445858
0.000514466
0.000610048
0.000796721
5.3579e-06
5.27158e-06
5.18327e-06
5.08634e-06
4.98016e-06
4.86663e-06
4.72013e-06
4.44654e-06
4.17989e-06
4.47334e-06
4.96117e-06
5.47393e-06
6.10424e-06
6.84537e-06
7.71041e-06
8.42814e-06
8.77133e-06
9.22622e-06
1.0147e-05
1.13698e-05
3.06963e-05
3.07742e-05
1.19326e-05
3.09618e-05
3.22971e-05
3.40851e-05
3.5889e-05
3.72836e-05
3.81398e-05
3.95705e-05
4.3032e-05
5.12046e-05
5.65751e-05
5.80998e-05
6.00947e-05
6.70225e-05
8.24038e-05
9.92653e-05
0.000113603
0.000127257
0.000140948
0.000151674
0.00016239
0.000175311
0.000189957
0.000212041
0.000284935
0.000448688
0.000556119
0.000621007
0.000681383
0.000756576
0.000811045
0.000854572
0.000879474
0.000904436
0.00172735
0.00267967
0.00358306
0.00832826
5.37907e-06
4.66228e-06
4.05445e-06
3.53983e-06
3.12154e-06
2.79204e-06
2.51282e-06
2.14274e-06
2.28913e-06
3.99078e-06
5.22304e-06
4.76246e-06
4.09807e-06
3.846e-06
3.68251e-06
3.63798e-06
3.79011e-06
4.10045e-06
4.68781e-06
5.36614e-06
5.8832e-06
6.36946e-06
7.084e-06
8.05619e-06
9.03896e-06
1.01522e-05
1.14068e-05
5.34924e-05
5.31568e-05
1.07176e-05
1.15849e-05
0.000102123
0.000139779
0.000108191
8.26788e-05
0.000154621
0.000232259
0.000257045
0.000252398
0.000297705
0.00041169
0.000517813
0.000554754
0.000589076
0.000688247
0.000941476
0.00126046
0.00147989
0.00135186
0.000713325
0.00107283
0.00200793
0.00262436
0.00333567
0.00410021
0.00508966
0.00733265
0.00876904
0.00776341
0.009319
5.36967e-06
4.62805e-06
3.98811e-06
3.43412e-06
2.96194e-06
2.56061e-06
2.21246e-06
2.18475e-06
2.99216e-06
3.896e-06
3.57556e-06
1.6535e-06
1.24684e-06
2.35506e-06
3.45449e-06
3.89504e-06
3.98259e-06
3.98972e-06
3.94341e-06
5.05308e-06
6.99946e-06
9.33961e-06
1.09493e-05
5.11575e-05
6.39067e-05
8.30467e-05
0.000106265
0.000136012
0.000173458
0.00021869
0.000270793
0.000339137
0.000412646
0.000491992
0.000580837
0.000707567
0.000849844
0.00100027
0.00116886
0.00134625
0.00153848
0.00172727
0.0019038
0.00209197
0.00233457
0.00263725
0.00294715
0.00322151
0.0035033
0.00381351
0.00414256
0.00473731
0.00541567
0.00633608
0.00754268
0.00913964
0.0110573
0.0134036
0.0160136
0.01941
5.3694e-06
4.62989e-06
3.99126e-06
3.43722e-06
2.96199e-06
2.55313e-06
2.19348e-06
2.0329e-06
2.77021e-06
3.49192e-06
3.12159e-06
2.46193e-06
2.38217e-06
3.03282e-06
3.95855e-06
4.6326e-06
4.91498e-06
5.05798e-06
5.11364e-06
4.99266e-06
6.89644e-06
9.23113e-06
1.05854e-05
1.13276e-05
6.21123e-05
8.28179e-05
0.00010788
0.000138792
0.000176628
0.000222884
0.00027841
0.000344353
0.000420572
0.000509597
0.000609915
0.000726261
0.000858782
0.00100859
0.00117649
0.00136354
0.00156905
0.00178867
0.00201605
0.0022476
0.00248669
0.00273837
0.00300651
0.00329436
0.00363045
0.00402822
0.00443912
0.00497199
0.00567497
0.00661623
0.00784154
0.00941734
0.0113933
0.014042
0.0173
0.0212089
5.36992e-06
4.62848e-06
3.9898e-06
3.43762e-06
2.96357e-06
2.55782e-06
2.19916e-06
1.95153e-06
2.25375e-06
2.8381e-06
2.76292e-06
2.39946e-06
2.16691e-06
2.26767e-06
3.43006e-06
4.74918e-06
5.09149e-06
5.35103e-06
5.70391e-06
6.0589e-06
6.71497e-06
8.05408e-06
9.37088e-06
1.05073e-05
1.15632e-05
5.02297e-05
6.45723e-05
8.82968e-05
0.000114988
0.000145437
0.000179019
0.000215108
0.000267258
0.000339688
0.000417329
0.000492577
0.00057611
0.000681308
0.000811945
0.000960571
0.00111862
0.00128947
0.00147351
0.00165583
0.00181838
0.00195658
0.00208966
0.00226195
0.00247704
0.00276859
0.00314191
0.00360716
0.00424653
0.00503042
0.00601496
0.00742205
0.00956065
0.012571
0.0164161
0.020868
5.36967e-06
4.62753e-06
3.99061e-06
3.4402e-06
2.96723e-06
2.56076e-06
2.206e-06
1.92509e-06
1.92819e-06
2.23751e-06
2.28094e-06
2.15159e-06
1.97995e-06
1.8799e-06
1.98667e-06
1.79373e-06
2.2468e-06
3.50166e-06
4.69701e-06
5.26535e-06
5.61561e-06
6.32611e-06
7.40407e-06
8.74093e-06
9.77384e-06
1.03916e-05
1.14984e-05
1.16348e-05
5.75279e-05
7.31e-05
0.000101702
0.000104321
0.000123751
0.000192765
0.000240722
0.00027185
0.000304577
0.000360541
0.000446077
0.000551121
0.000655889
0.000769305
0.000893924
0.00100869
0.00109187
0.00114343
0.00118528
0.00123954
0.00130936
0.00140606
0.00159556
0.00181794
0.00193351
0.00197385
0.0024298
0.00347606
0.00567698
0.00849099
0.0131986
0.0189116
5.36819e-06
4.62757e-06
3.99296e-06
3.44419e-06
2.97351e-06
2.56832e-06
2.21782e-06
1.9263e-06
1.77431e-06
1.82786e-06
1.83207e-06
1.77251e-06
1.6845e-06
1.60121e-06
1.54791e-06
1.43123e-06
1.34431e-06
1.23734e-06
1.18501e-06
1.86514e-06
3.31123e-06
4.34727e-06
5.07443e-06
6.20786e-06
7.37414e-06
8.1847e-06
8.83934e-06
9.39276e-06
1.00379e-05
1.12709e-05
5.05883e-05
5.83862e-05
7.65068e-05
0.000105631
0.00012979
0.000140808
0.000149749
0.000164459
0.000196518
0.000256026
0.000318303
0.000383009
0.000461661
0.000539568
0.000585594
0.00058681
0.000568751
0.000603431
0.000687791
0.000905217
0.000993695
0.000930633
0.000889417
0.000710241
0.00056347
0.0010015
0.00130105
0.0021398
0.00725726
0.0123882
5.36647e-06
4.6261e-06
3.9911e-06
3.44226e-06
2.97387e-06
2.5705e-06
2.22431e-06
1.9376e-06
1.72825e-06
1.62804e-06
1.5532e-06
1.48075e-06
1.40946e-06
1.3424e-06
1.27542e-06
1.18429e-06
1.09493e-06
1.0097e-06
9.48922e-07
1.07358e-06
1.68441e-06
2.48519e-06
3.10824e-06
3.82624e-06
4.64183e-06
5.35184e-06
5.92825e-06
6.48377e-06
7.18135e-06
8.13612e-06
9.07297e-06
1.01924e-05
1.15835e-05
5.35395e-05
5.76443e-05
5.94164e-05
6.31858e-05
7.14375e-05
8.44383e-05
0.000106016
0.00013569
0.000172963
0.00021698
0.000256182
0.000274229
0.000268523
0.00025161
0.000240102
0.000257465
0.000347789
0.000462588
0.000521591
0.000522066
0.000476544
0.000423685
0.000396787
0.000427907
0.000856517
0.00283642
0.00551487
5.37416e-06
4.65818e-06
4.0442e-06
3.50926e-06
3.05889e-06
2.67081e-06
2.33081e-06
2.0417e-06
1.80743e-06
1.6373e-06
1.51213e-06
1.41075e-06
1.32526e-06
1.25207e-06
1.18628e-06
1.12702e-06
1.07935e-06
1.03978e-06
9.99736e-07
9.85755e-07
1.12607e-06
1.44757e-06
1.79189e-06
2.17611e-06
2.5948e-06
2.98626e-06
3.32123e-06
3.63188e-06
4.0261e-06
4.59959e-06
5.30766e-06
6.18613e-06
7.09983e-06
7.76106e-06
8.19104e-06
8.57459e-06
9.12368e-06
9.90586e-06
1.09463e-05
5.01664e-05
5.74248e-05
6.58632e-05
7.47095e-05
8.20748e-05
8.60036e-05
8.6156e-05
8.52968e-05
8.68002e-05
9.68791e-05
0.000122491
0.000155546
0.000185142
0.000206441
0.000209703
0.00019716
0.000191217
0.00019681
0.000276595
0.000817733
0.00169534
5.35728e-06
5.27465e-06
5.19054e-06
5.10327e-06
5.00297e-06
4.87059e-06
4.6798e-06
4.41113e-06
4.10863e-06
3.87475e-06
3.8248e-06
3.89661e-06
4.02846e-06
4.18315e-06
4.39493e-06
4.69958e-06
5.00194e-06
5.327e-06
5.60328e-06
5.60965e-06
5.39402e-06
5.14895e-06
5.08594e-06
5.09923e-06
5.18752e-06
5.43637e-06
5.8473e-06
6.35833e-06
6.92787e-06
7.55387e-06
8.28182e-06
9.11955e-06
1.00602e-05
1.11379e-05
3.09768e-05
3.41489e-05
3.79252e-05
4.22385e-05
4.70526e-05
5.22587e-05
5.78616e-05
6.42185e-05
7.16838e-05
8.03756e-05
9.02097e-05
0.000101127
0.000112981
0.000125401
0.000138281
0.000153943
0.00017457
0.000200493
0.000233226
0.000275422
0.00032792
0.000387977
0.000455436
0.000524256
0.000626889
0.000823737
)
;

boundaryField
{
    wall
    {
        type            epsilonWallFunction;
        value           nonuniform List<scalar> 
1200
(
5.3583e-06
5.381e-06
5.37227e-06
5.37054e-06
5.36915e-06
5.36895e-06
5.36933e-06
5.36886e-06
5.37526e-06
5.35032e-06
5.27191e-06
4.66206e-06
4.62747e-06
4.62924e-06
4.62865e-06
4.62852e-06
4.6283e-06
4.62542e-06
4.65587e-06
5.27179e-06
5.18152e-06
4.05334e-06
3.9877e-06
3.99124e-06
3.99046e-06
3.99103e-06
3.99228e-06
3.98937e-06
4.0439e-06
5.19594e-06
5.08486e-06
3.53913e-06
3.43498e-06
3.4377e-06
3.43693e-06
3.43869e-06
3.44202e-06
3.44021e-06
3.50981e-06
5.10667e-06
4.97889e-06
3.11253e-06
2.95969e-06
2.96012e-06
2.96222e-06
2.96619e-06
2.97197e-06
2.97205e-06
3.05711e-06
5.00486e-06
4.86127e-06
2.77368e-06
2.55648e-06
2.55005e-06
2.55471e-06
2.5617e-06
2.56908e-06
2.57125e-06
2.67052e-06
4.873e-06
4.71611e-06
2.48547e-06
2.2079e-06
2.19255e-06
2.19941e-06
2.20848e-06
2.21819e-06
2.22503e-06
2.33148e-06
4.6726e-06
4.43418e-06
2.14003e-06
2.20374e-06
2.04415e-06
1.95649e-06
1.92819e-06
1.92771e-06
1.93712e-06
2.04163e-06
4.40282e-06
4.17342e-06
2.30491e-06
3.02427e-06
2.79932e-06
2.27257e-06
1.93833e-06
1.77885e-06
1.72823e-06
1.80722e-06
4.10921e-06
4.47359e-06
4.02549e-06
3.92033e-06
3.51164e-06
2.85474e-06
2.24908e-06
1.83383e-06
1.62918e-06
1.63726e-06
3.88027e-06
4.96179e-06
5.24234e-06
3.56424e-06
3.12047e-06
2.76841e-06
2.28715e-06
1.8357e-06
1.5534e-06
1.51156e-06
3.82936e-06
5.47493e-06
4.77707e-06
1.62931e-06
2.45108e-06
2.40251e-06
2.1544e-06
1.77193e-06
1.47777e-06
1.40936e-06
3.8935e-06
6.11284e-06
4.11251e-06
1.21015e-06
2.36876e-06
2.15867e-06
1.982e-06
1.68364e-06
1.4035e-06
1.32357e-06
4.02213e-06
6.86426e-06
3.86787e-06
2.32473e-06
3.01973e-06
2.25736e-06
1.87919e-06
1.60152e-06
1.33657e-06
1.25052e-06
4.17966e-06
7.72456e-06
3.70158e-06
3.43617e-06
3.9467e-06
3.41111e-06
1.9948e-06
1.55069e-06
1.27128e-06
1.1852e-06
4.39463e-06
8.42107e-06
3.65496e-06
3.88277e-06
4.62138e-06
4.73824e-06
1.80761e-06
1.43613e-06
1.18491e-06
1.12582e-06
4.69806e-06
8.75414e-06
3.80696e-06
3.97137e-06
4.90227e-06
5.06946e-06
2.22316e-06
1.34117e-06
1.09884e-06
1.07632e-06
4.98715e-06
9.22336e-06
4.11804e-06
3.98305e-06
5.0442e-06
5.32346e-06
3.46181e-06
1.23661e-06
1.01358e-06
1.03482e-06
5.29081e-06
1.01638e-05
4.70766e-06
3.95552e-06
5.09921e-06
5.67927e-06
4.66199e-06
1.17692e-06
9.46077e-07
9.95353e-07
5.5642e-06
1.13961e-05
5.38505e-06
5.07612e-06
4.94176e-06
6.03923e-06
5.24217e-06
1.81258e-06
1.05415e-06
9.78908e-07
5.61016e-06
1.19462e-05
5.895e-06
6.98008e-06
6.95488e-06
6.70098e-06
5.60874e-06
3.26567e-06
1.65293e-06
1.11385e-06
5.41758e-06
1.19376e-05
6.37119e-06
9.29891e-06
9.31017e-06
8.06943e-06
6.34384e-06
4.34064e-06
2.466e-06
1.43287e-06
5.18466e-06
3.06566e-05
7.08097e-06
1.0932e-05
1.07325e-05
9.39617e-06
7.43476e-06
5.09229e-06
3.10615e-06
1.77965e-06
5.14452e-06
3.09714e-05
8.05447e-06
5.00658e-05
1.15559e-05
1.05206e-05
8.7565e-06
6.2231e-06
3.82977e-06
2.16463e-06
5.21632e-06
3.23173e-05
9.01944e-06
6.43395e-05
6.21523e-05
1.16438e-05
9.79339e-06
7.38184e-06
4.64293e-06
2.58052e-06
5.3566e-06
3.40975e-05
1.00834e-05
8.36408e-05
8.26833e-05
5.06823e-05
1.04075e-05
8.19406e-06
5.35493e-06
2.97259e-06
5.60288e-06
3.58544e-05
1.11343e-05
0.000106435
0.000107515
6.96916e-05
1.15884e-05
8.86045e-06
5.93203e-06
3.31169e-06
5.98424e-06
3.71675e-05
5.02959e-05
0.000135095
0.000137949
9.16337e-05
5.16505e-05
9.40974e-06
6.47969e-06
3.62263e-06
6.48895e-06
3.80243e-05
5.42789e-05
0.00017257
0.00017548
0.000116539
5.80358e-05
1.00696e-05
7.16352e-06
4.00552e-06
7.07408e-06
3.96427e-05
1.10204e-05
0.000218124
0.000221567
0.000144015
7.43107e-05
1.12725e-05
8.08491e-06
4.54171e-06
7.73361e-06
4.37478e-05
5.79794e-05
0.000272718
0.000277133
0.000175885
9.61291e-05
5.00454e-05
8.99752e-06
5.22014e-06
8.47506e-06
5.14205e-05
0.000116126
0.000339108
0.000343215
0.000214304
0.000102432
5.74315e-05
1.01058e-05
6.08951e-06
9.2978e-06
5.51748e-05
0.000131906
0.000413585
0.000420391
0.000269374
0.000139657
7.58278e-05
1.15344e-05
7.03117e-06
1.02202e-05
5.64143e-05
8.09473e-05
0.000493582
0.000508825
0.000341841
0.000196201
0.000103964
5.35657e-05
7.73683e-06
1.12818e-05
5.86715e-05
8.56643e-05
0.000579452
0.000609613
0.000416284
0.000238632
0.000126489
5.82436e-05
8.21174e-06
3.12926e-05
6.665e-05
0.000175344
0.000708512
0.00072661
0.000490361
0.000268265
0.000138695
6.05365e-05
8.59947e-06
3.44062e-05
8.44128e-05
0.000244872
0.000851636
0.000859715
0.000575608
0.000302869
0.000147722
6.35185e-05
9.08675e-06
3.81364e-05
0.000102494
0.000251931
0.00100316
0.0010107
0.000684136
0.000362865
0.000160225
7.05386e-05
9.80844e-06
4.24129e-05
0.000116927
0.000243714
0.0011763
0.0011803
0.000816513
0.000449531
0.00019642
8.32409e-05
1.08201e-05
4.71654e-05
0.000129839
0.00030634
0.0013584
0.00136996
0.000964855
0.000553109
0.000255039
0.000103484
1.1645e-05
5.24167e-05
0.000142399
0.000438457
0.00156043
0.00157992
0.00112152
0.00065503
0.000314074
0.000130348
5.61716e-05
5.81101e-05
0.000155088
0.000547385
0.00177037
0.00180654
0.00129119
0.000765378
0.000376005
0.00016388
6.50049e-05
6.44127e-05
0.000167716
0.000589368
0.00197256
0.00204394
0.00147526
0.000886338
0.000451119
0.000206524
7.51146e-05
7.16813e-05
0.000180825
0.00063221
0.00218236
0.00228665
0.00165949
0.000997306
0.000525145
0.000239882
8.322e-05
8.02263e-05
0.000195521
0.000747774
0.00243505
0.00253382
0.00182688
0.0010802
0.000568991
0.000252475
8.69298e-05
9.00713e-05
0.000220907
0.00102143
0.00273558
0.0027892
0.00197521
0.00114161
0.00057228
0.000246088
8.62572e-05
0.000101187
0.000329718
0.00135023
0.00303257
0.00306147
0.00212865
0.00121081
0.000567322
0.000233322
8.41356e-05
0.000113351
0.000507041
0.00153614
0.0032938
0.0033595
0.0023272
0.00130931
0.000634075
0.000230423
8.39761e-05
0.000125967
0.000603385
0.00131238
0.00358184
0.00371439
0.00256035
0.00139401
0.000754418
0.000263851
9.21196e-05
0.000138445
0.00065988
0.000700688
0.00390495
0.00411428
0.00283737
0.00149671
0.000981407
0.000376312
0.000117196
0.000152796
0.000720382
0.00127759
0.00428465
0.00452443
0.00318371
0.00163471
0.00102883
0.000499525
0.000150802
0.000171831
0.0007792
0.00210419
0.00488035
0.00505426
0.00361249
0.00184327
0.000926803
0.000546798
0.000179263
0.000196071
0.000831992
0.00275455
0.00558029
0.00575419
0.00422281
0.001998
0.000943586
0.000537903
0.000199098
0.000226806
0.000872458
0.00354137
0.00653266
0.00669433
0.00499204
0.00209152
0.00080093
0.000497438
0.000209363
0.000266741
0.000890688
0.00440441
0.00774418
0.00792039
0.00599432
0.00251942
0.000626614
0.000439335
0.00020265
0.000317783
0.000909945
0.00547522
0.00929417
0.00949962
0.00746172
0.00354422
0.00100964
0.00041419
0.000192573
0.000378111
0.00174543
0.00751554
0.0111834
0.0115184
0.00966914
0.00578108
0.00126017
0.000418117
0.000192176
0.000445858
0.00271311
0.00865449
0.0135083
0.014181
0.0127453
0.00869948
0.00197999
0.000773162
0.0002552
0.000514466
0.00369146
0.0077436
0.0161164
0.0173986
0.0165095
0.0133869
0.00769596
0.0026779
0.000730101
0.000610048
0.00870265
0.00973525
0.0195743
0.0212664
0.0209092
0.0189435
0.012508
0.00564477
0.00159946
0.000796721
5.3579e-06
5.37907e-06
5.36967e-06
5.3694e-06
5.36992e-06
5.36967e-06
5.36819e-06
5.36647e-06
5.37416e-06
5.35728e-06
5.27158e-06
4.66228e-06
4.62805e-06
4.62989e-06
4.62848e-06
4.62753e-06
4.62757e-06
4.6261e-06
4.65818e-06
5.27465e-06
5.18327e-06
4.05445e-06
3.98811e-06
3.99126e-06
3.9898e-06
3.99061e-06
3.99296e-06
3.9911e-06
4.0442e-06
5.19054e-06
5.08634e-06
3.53983e-06
3.43412e-06
3.43722e-06
3.43762e-06
3.4402e-06
3.44419e-06
3.44226e-06
3.50926e-06
5.10327e-06
4.98016e-06
3.12154e-06
2.96194e-06
2.96199e-06
2.96357e-06
2.96723e-06
2.97351e-06
2.97387e-06
3.05889e-06
5.00297e-06
4.86663e-06
2.79204e-06
2.56061e-06
2.55313e-06
2.55782e-06
2.56076e-06
2.56832e-06
2.5705e-06
2.67081e-06
4.87059e-06
4.72013e-06
2.51282e-06
2.21246e-06
2.19348e-06
2.19916e-06
2.206e-06
2.21782e-06
2.22431e-06
2.33081e-06
4.6798e-06
4.44654e-06
2.14274e-06
2.18475e-06
2.0329e-06
1.95153e-06
1.92509e-06
1.9263e-06
1.9376e-06
2.0417e-06
4.41113e-06
4.17989e-06
2.28913e-06
2.99216e-06
2.77021e-06
2.25375e-06
1.92819e-06
1.77431e-06
1.72825e-06
1.80743e-06
4.10863e-06
4.47334e-06
3.99078e-06
3.896e-06
3.49192e-06
2.8381e-06
2.23751e-06
1.82786e-06
1.62804e-06
1.6373e-06
3.87475e-06
4.96117e-06
5.22304e-06
3.57556e-06
3.12159e-06
2.76292e-06
2.28094e-06
1.83207e-06
1.5532e-06
1.51213e-06
3.8248e-06
5.47393e-06
4.76246e-06
1.6535e-06
2.46193e-06
2.39946e-06
2.15159e-06
1.77251e-06
1.48075e-06
1.41075e-06
3.89661e-06
6.10424e-06
4.09807e-06
1.24684e-06
2.38217e-06
2.16691e-06
1.97995e-06
1.6845e-06
1.40946e-06
1.32526e-06
4.02846e-06
6.84537e-06
3.846e-06
2.35506e-06
3.03282e-06
2.26767e-06
1.8799e-06
1.60121e-06
1.3424e-06
1.25207e-06
4.18315e-06
7.71041e-06
3.68251e-06
3.45449e-06
3.95855e-06
3.43006e-06
1.98667e-06
1.54791e-06
1.27542e-06
1.18628e-06
4.39493e-06
8.42814e-06
3.63798e-06
3.89504e-06
4.6326e-06
4.74918e-06
1.79373e-06
1.43123e-06
1.18429e-06
1.12702e-06
4.69958e-06
8.77133e-06
3.79011e-06
3.98259e-06
4.91498e-06
5.09149e-06
2.2468e-06
1.34431e-06
1.09493e-06
1.07935e-06
5.00194e-06
9.22622e-06
4.10045e-06
3.98972e-06
5.05798e-06
5.35103e-06
3.50166e-06
1.23734e-06
1.0097e-06
1.03978e-06
5.327e-06
1.0147e-05
4.68781e-06
3.94341e-06
5.11364e-06
5.70391e-06
4.69701e-06
1.18501e-06
9.48922e-07
9.99736e-07
5.60328e-06
1.13698e-05
5.36614e-06
5.05308e-06
4.99266e-06
6.0589e-06
5.26535e-06
1.86514e-06
1.07358e-06
9.85755e-07
5.60965e-06
3.06963e-05
5.8832e-06
6.99946e-06
6.89644e-06
6.71497e-06
5.61561e-06
3.31123e-06
1.68441e-06
1.12607e-06
5.39402e-06
3.07742e-05
6.36946e-06
9.33961e-06
9.23113e-06
8.05408e-06
6.32611e-06
4.34727e-06
2.48519e-06
1.44757e-06
5.14895e-06
1.19326e-05
7.084e-06
1.09493e-05
1.05854e-05
9.37088e-06
7.40407e-06
5.07443e-06
3.10824e-06
1.79189e-06
5.08594e-06
3.09618e-05
8.05619e-06
5.11575e-05
1.13276e-05
1.05073e-05
8.74093e-06
6.20786e-06
3.82624e-06
2.17611e-06
5.09923e-06
3.22971e-05
9.03896e-06
6.39067e-05
6.21123e-05
1.15632e-05
9.77384e-06
7.37414e-06
4.64183e-06
2.5948e-06
5.18752e-06
3.40851e-05
1.01522e-05
8.30467e-05
8.28179e-05
5.02297e-05
1.03916e-05
8.1847e-06
5.35184e-06
2.98626e-06
5.43637e-06
3.5889e-05
1.14068e-05
0.000106265
0.00010788
6.45723e-05
1.14984e-05
8.83934e-06
5.92825e-06
3.32123e-06
5.8473e-06
3.72836e-05
5.34924e-05
0.000136012
0.000138792
8.82968e-05
1.16348e-05
9.39276e-06
6.48377e-06
3.63188e-06
6.35833e-06
3.81398e-05
5.31568e-05
0.000173458
0.000176628
0.000114988
5.75279e-05
1.00379e-05
7.18135e-06
4.0261e-06
6.92787e-06
3.95705e-05
1.07176e-05
0.00021869
0.000222884
0.000145437
7.31e-05
1.12709e-05
8.13612e-06
4.59959e-06
7.55387e-06
4.3032e-05
1.15849e-05
0.000270793
0.00027841
0.000179019
0.000101702
5.05883e-05
9.07297e-06
5.30766e-06
8.28182e-06
5.12046e-05
0.000102123
0.000339137
0.000344353
0.000215108
0.000104321
5.83862e-05
1.01924e-05
6.18613e-06
9.11955e-06
5.65751e-05
0.000139779
0.000412646
0.000420572
0.000267258
0.000123751
7.65068e-05
1.15835e-05
7.09983e-06
1.00602e-05
5.80998e-05
0.000108191
0.000491992
0.000509597
0.000339688
0.000192765
0.000105631
5.35395e-05
7.76106e-06
1.11379e-05
6.00947e-05
8.26788e-05
0.000580837
0.000609915
0.000417329
0.000240722
0.00012979
5.76443e-05
8.19104e-06
3.09768e-05
6.70225e-05
0.000154621
0.000707567
0.000726261
0.000492577
0.00027185
0.000140808
5.94164e-05
8.57459e-06
3.41489e-05
8.24038e-05
0.000232259
0.000849844
0.000858782
0.00057611
0.000304577
0.000149749
6.31858e-05
9.12368e-06
3.79252e-05
9.92653e-05
0.000257045
0.00100027
0.00100859
0.000681308
0.000360541
0.000164459
7.14375e-05
9.90586e-06
4.22385e-05
0.000113603
0.000252398
0.00116886
0.00117649
0.000811945
0.000446077
0.000196518
8.44383e-05
1.09463e-05
4.70526e-05
0.000127257
0.000297705
0.00134625
0.00136354
0.000960571
0.000551121
0.000256026
0.000106016
5.01664e-05
5.22587e-05
0.000140948
0.00041169
0.00153848
0.00156905
0.00111862
0.000655889
0.000318303
0.00013569
5.74248e-05
5.78616e-05
0.000151674
0.000517813
0.00172727
0.00178867
0.00128947
0.000769305
0.000383009
0.000172963
6.58632e-05
6.42185e-05
0.00016239
0.000554754
0.0019038
0.00201605
0.00147351
0.000893924
0.000461661
0.00021698
7.47095e-05
7.16838e-05
0.000175311
0.000589076
0.00209197
0.0022476
0.00165583
0.00100869
0.000539568
0.000256182
8.20748e-05
8.03756e-05
0.000189957
0.000688247
0.00233457
0.00248669
0.00181838
0.00109187
0.000585594
0.000274229
8.60036e-05
9.02097e-05
0.000212041
0.000941476
0.00263725
0.00273837
0.00195658
0.00114343
0.00058681
0.000268523
8.6156e-05
0.000101127
0.000284935
0.00126046
0.00294715
0.00300651
0.00208966
0.00118528
0.000568751
0.00025161
8.52968e-05
0.000112981
0.000448688
0.00147989
0.00322151
0.00329436
0.00226195
0.00123954
0.000603431
0.000240102
8.68002e-05
0.000125401
0.000556119
0.00135186
0.0035033
0.00363045
0.00247704
0.00130936
0.000687791
0.000257465
9.68791e-05
0.000138281
0.000621007
0.000713325
0.00381351
0.00402822
0.00276859
0.00140606
0.000905217
0.000347789
0.000122491
0.000153943
0.000681383
0.00107283
0.00414256
0.00443912
0.00314191
0.00159556
0.000993695
0.000462588
0.000155546
0.00017457
0.000756576
0.00200793
0.00473731
0.00497199
0.00360716
0.00181794
0.000930633
0.000521591
0.000185142
0.000200493
0.000811045
0.00262436
0.00541567
0.00567497
0.00424653
0.00193351
0.000889417
0.000522066
0.000206441
0.000233226
0.000854572
0.00333567
0.00633608
0.00661623
0.00503042
0.00197385
0.000710241
0.000476544
0.000209703
0.000275422
0.000879474
0.00410021
0.00754268
0.00784154
0.00601496
0.0024298
0.00056347
0.000423685
0.00019716
0.00032792
0.000904436
0.00508966
0.00913964
0.00941734
0.00742205
0.00347606
0.0010015
0.000396787
0.000191217
0.000387977
0.00172735
0.00733265
0.0110573
0.0113933
0.00956065
0.00567698
0.00130105
0.000427907
0.00019681
0.000455436
0.00267967
0.00876904
0.0134036
0.014042
0.012571
0.00849099
0.0021398
0.000856517
0.000276595
0.000524256
0.00358306
0.00776341
0.0160136
0.0173
0.0164161
0.0131986
0.00725726
0.00283642
0.000817733
0.000626889
0.00832826
0.009319
0.01941
0.0212089
0.020868
0.0189116
0.0123882
0.00551487
0.00169534
0.000823737
)
;
    }
    inlet
    {
        type            turbulentMixingLengthDissipationRateInlet;
        mixingLength    0.071;
        phi             phi;
        k               k;
        value           uniform 2.72107e-07;
    }
    outlet
    {
        type            inletOutlet;
        inletValue      uniform 0.0001;
        value           nonuniform List<scalar> 
20
(
0.00870265
0.00973525
0.0001
0.0001
0.0001
0.0001
0.012508
0.00564477
0.00159946
0.000796721
0.00832826
0.009319
0.0001
0.0001
0.0001
0.0001
0.0123882
0.00551487
0.00169534
0.000823737
)
;
    }
    heatWall
    {
        type            epsilonWallFunction;
        value           nonuniform List<scalar> 
240
(
5.35032e-06
5.35728e-06
5.27179e-06
5.27465e-06
5.19594e-06
5.19054e-06
5.10667e-06
5.10327e-06
5.00486e-06
5.00297e-06
4.873e-06
4.87059e-06
4.6726e-06
4.6798e-06
4.40282e-06
4.41113e-06
4.10921e-06
4.10863e-06
3.88027e-06
3.87475e-06
3.82936e-06
3.8248e-06
3.8935e-06
3.89661e-06
4.02213e-06
4.02846e-06
4.17966e-06
4.18315e-06
4.39463e-06
4.39493e-06
4.69806e-06
4.69958e-06
4.98715e-06
5.00194e-06
5.29081e-06
5.327e-06
5.5642e-06
5.60328e-06
5.61016e-06