/*--------------------------------*- C++ -*----------------------------------*\
  =========                 |
  \\      /  F ield         | OpenFOAM: The Open Source CFD Toolbox
   \\    /   O peration     | Website:  https://openfoam.org
    \\  /    A nd           | Version:  8
     \\/     M anipulation  |
\*---------------------------------------------------------------------------*/
FoamFile
{
    version     2.0;
    format      ascii;
    class       volScalarField;
    location    "500";
    object      nut;
}
// * * * * * * * * * * * * * * * * * * * * * * * * * * * * * * * * * * * * * //

dimensions      [0 2 -1 0 0 0 0];

internalField   nonuniform List<scalar> 
1200
(
9.44977e-06
9.3538e-06
9.24325e-06
9.12688e-06
9.00479e-06
8.86711e-06
8.68851e-06
8.362e-06
8.03153e-06
8.40221e-06
8.99218e-06
9.58284e-06
1.02758e-05
1.1048e-05
1.1904e-05
1.25783e-05
1.28901e-05
1.32921e-05
1.4083e-05
1.50772e-05
1.55468e-05
1.55823e-05
6.04739e-06
6.07291e-06
6.15852e-06
6.27019e-06
6.37941e-06
6.46232e-06
6.51866e-06
6.58843e-06
6.7534e-06
7.19174e-06
7.49346e-06
7.55737e-06
7.62923e-06
7.84859e-06
8.33993e-06
8.88801e-06
9.34188e-06
9.79686e-06
1.03595e-05
1.06886e-05
1.09376e-05
1.10662e-05
1.11311e-05
1.10322e-05
1.05867e-05
1.36152e-05
1.53509e-05
1.62406e-05
1.68568e-05
1.76963e-05
1.82198e-05
1.86962e-05
1.90465e-05
1.93475e-05
2.18547e-05
2.62437e-05
2.93197e-05
3.87672e-05
7.37062e-06
6.38332e-06
5.53193e-06
4.82399e-06
4.25717e-06
3.80121e-06
3.41614e-06
2.92423e-06
3.13548e-06
5.48263e-06
7.17719e-06
6.54135e-06
5.62507e-06
5.28832e-06
5.06329e-06
5.00182e-06
5.21104e-06
5.63787e-06
6.44546e-06
7.37758e-06
8.08609e-06
8.75092e-06
9.72629e-06
1.10503e-05
1.23841e-05
1.38791e-05
1.54661e-05
3.86881e-06
3.78447e-06
1.60781e-05
3.4967e-06
4.70727e-06
5.41317e-06
5.2941e-06
4.38746e-06
5.39299e-06
6.28596e-06
6.60087e-06
6.57024e-06
6.83173e-06
7.58688e-06
8.2157e-06
8.40518e-06
8.55787e-06
8.99116e-06
9.98552e-06
1.09999e-05
1.17543e-05
1.145e-05
8.95653e-06
1.01159e-05
1.29093e-05
1.41297e-05
1.52694e-05
1.62687e-05
1.72791e-05
1.99043e-05
2.13253e-05
2.03666e-05
2.15405e-05
7.35923e-06
6.33616e-06
5.44499e-06
4.68617e-06
4.04848e-06
3.49875e-06
3.01934e-06
2.99261e-06
4.11125e-06
5.35526e-06
4.90701e-06
2.24092e-06
1.6659e-06
3.15202e-06
4.69899e-06
5.32072e-06
5.44324e-06
5.46204e-06
5.42117e-06
6.94762e-06
9.60465e-06
1.27911e-05
1.4972e-05
3.77902e-06
4.13439e-06
4.50932e-06
4.89916e-06
5.32808e-06
5.77737e-06
6.23714e-06
6.68601e-06
7.21145e-06
7.6907e-06
8.14728e-06
8.61472e-06
9.19503e-06
9.7869e-06
1.0333e-05
1.08766e-05
1.14021e-05
1.19067e-05
1.23545e-05
1.27339e-05
1.31168e-05
1.3602e-05
1.41882e-05
1.47553e-05
1.51828e-05
1.56142e-05
1.60611e-05
1.64598e-05
1.7228e-05
1.80153e-05
1.89817e-05
2.01386e-05
2.15236e-05
2.2958e-05
2.44988e-05
2.60029e-05
2.77227e-05
7.3591e-06
6.33581e-06
5.44968e-06
4.69354e-06
4.04959e-06
3.48708e-06
2.99575e-06
2.78158e-06
3.80496e-06
4.79931e-06
4.28718e-06
3.3538e-06
3.23852e-06
4.13267e-06
5.40831e-06
6.33703e-06
6.72104e-06
6.91345e-06
6.98394e-06
6.63372e-06
9.48198e-06
1.27143e-05
1.48964e-05
1.69201e-05
4.1081e-06
4.51556e-06
4.93082e-06
5.36337e-06
5.81144e-06
6.27775e-06
6.75886e-06
7.25367e-06
7.75448e-06
8.25869e-06
8.76531e-06
9.28902e-06
9.82159e-06
1.03596e-05
1.09024e-05
1.14488e-05
1.19924e-05
1.25205e-05
1.30201e-05
1.34897e-05
1.3945e-05
1.43987e-05
1.48518e-05
1.53041e-05
1.58013e-05
1.63667e-05
1.69012e-05
1.75654e-05
1.83706e-05
1.93462e-05
2.04808e-05
2.17769e-05
2.31906e-05
2.48701e-05
2.66836e-05
2.85733e-05
7.35524e-06
6.32866e-06
5.44742e-06
4.69658e-06
4.05076e-06
3.4912e-06
3.00519e-06
2.66787e-06
3.08999e-06
3.89682e-06
3.79379e-06
3.29454e-06
2.95523e-06
3.08779e-06
4.66285e-06
6.49734e-06
6.94144e-06
7.28395e-06
7.77532e-06
8.27134e-06
9.17122e-06
1.1063e-05
1.28597e-05
1.44891e-05
1.58338e-05
3.54949e-06
4.15072e-06
4.5987e-06
5.02399e-06
5.4507e-06
5.85894e-06
6.22383e-06
6.65723e-06
7.21418e-06
7.73417e-06
8.17533e-06
8.60361e-06
9.08643e-06
9.62886e-06
1.01823e-05
1.07131e-05
1.12329e-05
1.17429e-05
1.22048e-05
1.25823e-05
1.28765e-05
1.31382e-05
1.34752e-05
1.3881e-05
1.44144e-05
1.50939e-05
1.5834e-05
1.67285e-05
1.77064e-05
1.8784e-05
2.01138e-05
2.18658e-05
2.39485e-05
2.62178e-05
2.84286e-05
7.34639e-06
6.31994e-06
5.44662e-06
4.70166e-06
4.05524e-06
3.49462e-06
3.01767e-06
2.63225e-06
2.63908e-06
3.06704e-06
3.12778e-06
2.9518e-06
2.71954e-06
2.58058e-06
2.74532e-06
2.49698e-06
3.02566e-06
4.71025e-06
6.36877e-06
7.184e-06
7.69636e-06
8.72977e-06
1.02355e-05
1.20215e-05
1.34319e-05
1.4187e-05
1.58976e-05
3.73457e-06
4.00929e-06
4.39803e-06
4.95028e-06
4.98902e-06
5.06012e-06
5.96152e-06
6.44647e-06
6.71876e-06
6.95651e-06
7.33583e-06
7.87478e-06
8.45611e-06
8.96839e-06
9.46166e-06
9.95199e-06
1.03665e-05
1.06411e-05
1.07808e-05
1.08599e-05
1.09527e-05
1.11337e-05
1.14761e-05
1.21493e-05
1.2795e-05
1.32131e-05
1.3574e-05
1.43307e-05
1.58799e-05
1.814e-05
2.08948e-05
2.43373e-05
2.75099e-05
7.33447e-06
6.31023e-06
5.44586e-06
4.70873e-06
4.06428e-06
3.50393e-06
3.03042e-06
2.63333e-06
2.42582e-06
2.50069e-06
2.50722e-06
2.42581e-06
2.3077e-06
2.19752e-06
2.13264e-06
1.97616e-06
1.83487e-06
1.69362e-06
1.60382e-06
2.42459e-06
4.43603e-06
5.95805e-06
7.02103e-06
8.56851e-06
1.01484e-05
1.12625e-05
1.21918e-05
1.2907e-05
1.38578e-05
1.55463e-05
3.83033e-06
3.9698e-06
4.28696e-06
4.84055e-06
5.17255e-06
5.33468e-06
5.41175e-06
5.37209e-06
5.77371e-06
6.45941e-06
7.03315e-06
7.50309e-06
7.99331e-06
8.42842e-06
8.66829e-06
8.66781e-06
8.52472e-06
8.58423e-06
8.90464e-06
9.81875e-06
1.02443e-05
1.01937e-05
1.04531e-05
1.00549e-05
9.15117e-06
1.02883e-05
1.11658e-05
1.24538e-05
1.95011e-05
2.38361e-05
7.32421e-06
6.29818e-06
5.43802e-06
4.70618e-06
4.06419e-06
3.50676e-06
3.03863e-06
2.6454e-06
2.35852e-06
2.2228e-06
2.12118e-06
2.0233e-06
1.92581e-06
1.83641e-06
1.74897e-06
1.62568e-06
1.51047e-06
1.39259e-06
1.29275e-06
1.42299e-06
2.23492e-06
3.36698e-06
4.27188e-06
5.27748e-06
6.39811e-06
7.38705e-06
8.17986e-06
8.91905e-06
9.84403e-06
1.10809e-05
1.22721e-05
1.37522e-05
1.57604e-05
3.91291e-06
4.03739e-06
4.09722e-06
4.14031e-06
4.24097e-06
4.47295e-06
4.81968e-06
5.15801e-06
5.47964e-06
6.03534e-06
6.52067e-06
6.75354e-06
6.74097e-06
6.58471e-06
6.41106e-06
6.42087e-06
7.01519e-06
7.78916e-06
8.20848e-06
8.36218e-06
8.26087e-06
7.94115e-06
7.74586e-06
7.64973e-06
8.912e-06
1.35682e-05
1.7586e-05
7.32812e-06
6.33349e-06
5.50598e-06
4.80737e-06
4.18512e-06
3.63889e-06
3.18096e-06
2.78821e-06
2.46755e-06
2.23437e-06
2.06375e-06
1.92592e-06
1.8089e-06
1.70903e-06
1.61894e-06
1.53706e-06
1.46856e-06
1.41041e-06
1.35614e-06
1.33036e-06
1.50998e-06
1.94844e-06
2.43471e-06
2.97271e-06
3.55114e-06
4.1054e-06
4.57675e-06
5.00455e-06
5.52781e-06
6.22545e-06
7.08887e-06
8.24804e-06
9.59336e-06
1.06169e-05
1.1301e-05
1.18256e-05
1.2431e-05
1.33436e-05
1.47006e-05
1.61128e-05
3.92898e-06
4.12627e-06
4.40915e-06
4.67857e-06
4.82393e-06
4.8219e-06
4.728e-06
4.62076e-06
4.60402e-06
4.84564e-06
5.28121e-06
5.66879e-06
5.92967e-06
6.08571e-06
6.15377e-06
6.04975e-06
5.93262e-06
6.23722e-06
8.57269e-06
1.12879e-05
9.42397e-06
9.30797e-06
9.22359e-06
9.1738e-06
9.05742e-06
8.85883e-06
8.62936e-06
8.3119e-06
7.94459e-06
7.64363e-06
7.57408e-06
7.65229e-06
7.81345e-06
8.01778e-06
8.28932e-06
8.68693e-06
9.08967e-06
9.49409e-06
9.73353e-06
9.67711e-06
9.43194e-06
9.16747e-06
9.12608e-06
9.26963e-06
9.55566e-06
9.86842e-06
1.0272e-05
1.07941e-05
1.13918e-05
1.20899e-05
1.28563e-05
1.3603e-05
1.43413e-05
1.51723e-05
6.15145e-06
6.34044e-06
6.55002e-06
6.7756e-06
7.00776e-06
7.2579e-06
7.52103e-06
7.78497e-06
8.0588e-06
8.36092e-06
8.69105e-06
9.04342e-06
9.40681e-06
9.7574e-06
1.00574e-05
1.033e-05
1.06636e-05
1.10769e-05
1.15658e-05
1.2164e-05
1.28889e-05
1.37135e-05
1.45461e-05
1.53071e-05
1.61227e-05
1.75144e-05
9.47289e-06
9.36478e-06
9.23965e-06
9.12241e-06
9.01779e-06
8.90364e-06
8.70526e-06
8.37659e-06
8.03902e-06
8.40094e-06
8.98957e-06
9.58225e-06
1.02706e-05
1.10378e-05
1.18936e-05
1.25851e-05
1.29073e-05
1.33005e-05
1.40763e-05
1.50649e-05
5.99031e-06
6.02249e-06
1.56551e-05
6.07485e-06
6.158e-06
6.26951e-06
6.38217e-06
6.47267e-06
6.54105e-06
6.60046e-06
6.73831e-06
7.13532e-06
7.57071e-06
7.67111e-06
7.75412e-06
7.97011e-06
8.48873e-06
9.05588e-06
9.51939e-06
1.00243e-05
1.07186e-05
1.12477e-05
1.11686e-05
1.107e-05
1.10803e-05
1.11789e-05
1.17021e-05
1.32865e-05
1.46475e-05
1.55051e-05
1.60455e-05
1.72217e-05
1.78025e-05
1.83509e-05
1.88513e-05
1.90007e-05
2.13663e-05
2.56516e-05
2.89156e-05
3.81246e-05
7.37241e-06
6.37738e-06
5.53148e-06
4.83251e-06
4.27104e-06
3.82377e-06
3.44858e-06
2.92911e-06
3.11434e-06
5.43512e-06
7.15059e-06
6.52097e-06
5.60403e-06
5.25886e-06
5.03727e-06
4.97863e-06
5.18768e-06
5.61356e-06
6.41841e-06
7.35167e-06
8.06926e-06
8.74866e-06
9.72877e-06
1.10455e-05
1.24009e-05
1.39577e-05
1.57548e-05
3.96849e-06
4.19405e-06
1.58714e-05
1.56993e-05
4.32567e-06
5.41804e-06
5.74596e-06
4.81576e-06
5.15139e-06
6.29452e-06
6.90613e-06
7.14176e-06
7.36904e-06
7.82246e-06
8.16912e-06
8.29421e-06
8.40122e-06
8.77553e-06
9.72394e-06
1.07463e-05
1.15714e-05
1.14306e-05
9.06368e-06
8.88034e-06
1.24685e-05
1.39321e-05
1.49945e-05
1.58548e-05
1.66636e-05
1.956e-05
2.12789e-05
2.03689e-05
2.12538e-05
7.35839e-06
6.32649e-06
5.44366e-06
4.69111e-06
4.05042e-06
3.50075e-06
3.02539e-06
2.96746e-06
4.06717e-06
5.32145e-06
4.92283e-06
2.28198e-06
1.64784e-06
3.20042e-06
4.72543e-06
5.33776e-06
5.45839e-06
5.47136e-06
5.40423e-06
6.9153e-06
9.63212e-06
1.28426e-05
1.49618e-05
3.68136e-06
4.1254e-06
4.50054e-06
4.897e-06
5.33229e-06
5.77857e-06
6.22517e-06
6.64477e-06
7.20278e-06
7.67953e-06
8.14859e-06
8.65172e-06
9.22433e-06
9.77642e-06
1.03181e-05
1.08559e-05
1.13794e-05
1.188e-05
1.23487e-05
1.26941e-05
1.30313e-05
1.34966e-05
1.40806e-05
1.46376e-05
1.50691e-05
1.54929e-05
1.59051e-05
1.61836e-05
1.70549e-05
1.78759e-05
1.88285e-05
1.99735e-05
2.13485e-05
2.28597e-05
2.44175e-05
2.59316e-05
2.76385e-05
7.35035e-06
6.32331e-06
5.44834e-06
4.69772e-06
4.05038e-06
3.48522e-06
2.99677e-06
2.76688e-06
3.76512e-06
4.77182e-06
4.28864e-06
3.36881e-06
3.25639e-06
4.15064e-06
5.42479e-06
6.35244e-06
6.73862e-06
6.93273e-06
7.00381e-06
6.74806e-06
9.41584e-06
1.26724e-05
1.50789e-05
1.77577e-05
4.11184e-06
4.51229e-06
4.93243e-06
5.3684e-06
5.81752e-06
6.28215e-06
6.76037e-06
7.25254e-06
7.74023e-06
8.25207e-06
8.7668e-06
9.2853e-06
9.81285e-06
1.03419e-05
1.08688e-05
1.14274e-05
1.19634e-05
1.24801e-05
1.29642e-05
1.34172e-05
1.38615e-05
1.43105e-05
1.47581e-05
1.52031e-05
1.56853e-05
1.62543e-05
1.67875e-05
1.74665e-05
1.82822e-05
1.92615e-05
2.03984e-05
2.16921e-05
2.31118e-05
2.47719e-05
2.66016e-05
2.85224e-05
7.3379e-06
6.31577e-06
5.44688e-06
4.69801e-06
4.04981e-06
3.48448e-06
3.00383e-06
2.6615e-06
3.06436e-06
3.8737e-06
3.78607e-06
3.29116e-06
2.96532e-06
3.10115e-06
4.68935e-06
6.51253e-06
6.97234e-06
7.32279e-06
7.80953e-06
8.29891e-06
9.19258e-06
1.10499e-05
1.28438e-05
1.44473e-05
1.58424e-05
3.46566e-06
3.99617e-06
4.52215e-06
4.98464e-06
5.45793e-06
5.89927e-06
6.23944e-06
6.61595e-06
7.15153e-06
7.68933e-06
8.13443e-06
8.54491e-06
9.00364e-06
9.54402e-06
1.00678e-05
1.06092e-05
1.11394e-05
1.16593e-05
1.21275e-05
1.25051e-05
1.27927e-05
1.30375e-05
1.33412e-05
1.37383e-05
1.43119e-05
1.50399e-05
1.5772e-05
1.66365e-05
1.76216e-05
1.87255e-05
2.00773e-05
2.18052e-05
2.3835e-05
2.61412e-05
2.83828e-05
7.32572e-06
6.30821e-06
5.44639e-06
4.70176e-06
4.05441e-06
3.49434e-06
3.01382e-06
2.62791e-06
2.62524e-06
3.05092e-06
3.11904e-06
2.94841e-06
2.72059e-06
2.57921e-06
2.73499e-06
2.47783e-06
3.05687e-06
4.76592e-06
6.41764e-06
7.21634e-06
7.70714e-06
8.7071e-06
1.01945e-05
1.19995e-05
1.34077e-05
1.4198e-05
1.57939e-05
1.64887e-05
4.00667e-06
4.38775e-06
5.01149e-06
5.11012e-06
4.66866e-06
5.67702e-06
6.38082e-06
6.65817e-06
6.85513e-06
7.18207e-06
7.69807e-06
8.28938e-06
8.82987e-06
9.34049e-06
9.85473e-06
1.02954e-05
1.05858e-05
1.07193e-05
1.07545e-05
1.07559e-05
1.08963e-05
1.1274e-05
1.21316e-05
1.27146e-05
1.31261e-05
1.33978e-05
1.41956e-05
1.58144e-05
1.74999e-05
2.06435e-05
2.41236e-05
2.74213e-05
7.31689e-06
6.29971e-06
5.44503e-06
4.70857e-06
4.06334e-06
3.50418e-06
3.02803e-06
2.62963e-06
2.41916e-06
2.49191e-06
2.50188e-06
2.42694e-06
2.31061e-06
2.20076e-06
2.12767e-06
1.96956e-06
1.84248e-06
1.69691e-06
1.61429e-06
2.49568e-06
4.50373e-06
5.97002e-06
6.99664e-06
8.54616e-06
1.0134e-05
1.124e-05
1.21477e-05
1.28875e-05
1.37947e-05
1.54816e-05
3.8318e-06
3.99018e-06
4.29654e-06
4.81706e-06
5.11439e-06
5.29573e-06
5.39639e-06
5.25867e-06
5.43027e-06
6.08175e-06
6.79597e-06
7.3379e-06
7.8702e-06
8.35367e-06
8.63368e-06
8.6513e-06
8.48952e-06
8.45048e-06
8.62235e-06
9.4914e-06
1.01072e-05
1.02423e-05
1.03092e-05
9.84224e-06
8.92343e-06
1.02772e-05
1.11523e-05
1.27314e-05
1.88406e-05
2.35749e-05
7.3126e-06
6.29019e-06
5.43798e-06
4.70674e-06
4.06278e-06
3.50726e-06
3.03772e-06
2.64575e-06
2.35804e-06
2.21939e-06
2.12057e-06
2.02677e-06
1.93237e-06
1.84463e-06
1.75345e-06
1.629e-06
1.50911e-06
1.38846e-06
1.29621e-06
1.45082e-06
2.28136e-06
3.39727e-06
4.27486e-06
5.27014e-06
6.39095e-06
7.36695e-06
8.15636e-06
8.90653e-06
9.84404e-06
1.11226e-05
1.23721e-05
1.38833e-05
1.58352e-05
3.9101e-06
4.02987e-06
4.08572e-06
4.13601e-06
4.25909e-06
4.48526e-06
4.81273e-06
5.14978e-06
5.40045e-06
5.8741e-06
6.38789e-06
6.70068e-06
6.74967e-06
6.62003e-06
6.44005e-06
6.37063e-06
6.81199e-06
7.5523e-06
8.0633e-06
8.27277e-06
8.16691e-06
7.84627e-06
7.68486e-06
7.6322e-06
9.20677e-06
1.39196e-05
1.75306e-05
7.32156e-06
6.3287e-06
5.50586e-06
4.80613e-06
4.17979e-06
3.63917e-06
3.18181e-06
2.78869e-06
2.46807e-06
2.23529e-06
2.06472e-06
1.92663e-06
1.80995e-06
1.71031e-06
1.62057e-06
1.53895e-06
1.47169e-06
1.41521e-06
1.36088e-06
1.33919e-06
1.5269e-06
1.96936e-06
2.45018e-06
2.98414e-06
3.56314e-06
4.10674e-06
4.57125e-06
4.9982e-06
5.52698e-06
6.27657e-06
7.20741e-06
8.39247e-06
9.68879e-06
1.06558e-05
1.12919e-05
1.18055e-05
1.24798e-05
1.34787e-05
1.48662e-05
3.7704e-06
3.9489e-06
4.16416e-06
4.41936e-06
4.64478e-06
4.75917e-06
4.73839e-06
4.6428e-06
4.55769e-06
4.5916e-06
4.87358e-06
5.30633e-06
5.70288e-06
5.99681e-06
6.16478e-06
6.14237e-06
5.98372e-06
5.91585e-06
6.37486e-06
8.96044e-06
1.16521e-05
9.43895e-06
9.34185e-06
9.25307e-06
9.16022e-06
9.03299e-06
8.87075e-06
8.64576e-06
8.32533e-06
7.95016e-06
7.64432e-06
7.57126e-06
7.65526e-06
7.82321e-06
8.02313e-06
8.28897e-06
8.66508e-06
9.02843e-06
9.4118e-06
9.7038e-06
9.63428e-06
9.35858e-06
9.09949e-06
9.07971e-06
9.22332e-06
9.42593e-06
9.68688e-06
1.00895e-05
1.06233e-05
1.1228e-05
1.18924e-05
1.261e-05
1.33576e-05
1.41372e-05
1.49967e-05
6.09867e-06
6.29466e-06
6.51104e-06
6.7424e-06
6.98451e-06
7.23834e-06
7.49656e-06
7.75846e-06
8.03862e-06
8.34845e-06
8.68336e-06
9.03519e-06
9.39029e-06
9.72518e-06
1.00156e-05
1.03072e-05
1.06752e-05
1.11213e-05
1.16486e-05
1.22895e-05
1.30528e-05
1.38715e-05
1.46746e-05
1.54142e-05
1.62729e-05
1.77359e-05
)
;

boundaryField
{
    wall
    {
        type            nutkWallFunction;
        Cmu             0.09;
        kappa           0.41;
        E               9.8;
        value           nonuniform List<scalar> 
1200
(
0
0
0
0
0
0
0
0
0
0
0
0
0
0
0
0
0
0
0
0
0
0
0
0
0
0
0
0
0
0
0
0
0
0
0
0
0
0
0
0
0
0
0
0
0
0
0
0
0
0
0
0
0
0
0
0
0
0
0
0
0
0
0
0
0
0
0
0
0
0
0
0
0
0
0
0
0
0
0
0
0
0
0
0
0
0
0
0
0
0
0
0
0
0
0
0
0
0
0
0
0
0
0
0
0
0
0
0
0
0
0
0
0
0
0
0
0
0
0
0
0
0
0
0
0
0
0
0
0
0
0
0
0
0
0
0
0
0
0
0
0
0
0
0
0
0
0
0
0
0
0
0
0
0
0
0
0
0
0
0
0
0
0
0
0
0
0
0
0
0
0
0
0
0
0
0
0
0
0
0
0
0
0
0
0
0
0
0
0
0
0
0
0
0
0
0
0
0
0
0
9.52627e-11
0
0
0
0
0
0
0
0
0
4.81833e-10
0
0
0
0
0
0
0
0
0
5.06228e-11
0
0
0
0
0
0
0
0
0
2.37702e-09
0
2.21723e-09
7.42556e-09
0
0
0
0
0
0
1.13735e-08
0
5.81769e-08
5.12173e-08
0
0
0
0
0
0
2.28775e-08
0
1.19875e-07
1.18008e-07
0
0
0
0
0
0
3.38606e-08
0
1.81348e-07
1.84591e-07
7.256e-08
0
0
0
0
0
4.18839e-08
7.01051e-09
2.46874e-07
2.52666e-07
1.4043e-07
5.31441e-09
0
0
0
0
4.70455e-08
1.56336e-08
3.17816e-07
3.22919e-07
2.04366e-07
3.57312e-08
0
0
0
0
5.57761e-08
0
3.90256e-07
3.95602e-07
2.65262e-07
9.40112e-08
0
0
0
0
7.68571e-08
1.3366e-08
4.63053e-07
4.69968e-07
3.25284e-07
1.6355e-07
4.44485e-09
0
0
0
1.16795e-07
1.90734e-07
5.40733e-07
5.45624e-07
3.85491e-07
1.77379e-07
3.24491e-08
0
0
0
1.37384e-07
2.45235e-07
6.14573e-07
6.21693e-07
4.58787e-07
2.42996e-07
9.31085e-08
0
0
0
1.43144e-07
1.43685e-07
6.84043e-07
6.97472e-07
5.43029e-07
3.54428e-07
1.74422e-07
1.89328e-08
0
0
1.52326e-07
1.19293e-07
7.51261e-07
7.73081e-07
6.18083e-07
4.20237e-07
2.27009e-07
3.77611e-08
0
5.13523e-09
1.82384e-07
3.05988e-07
8.38461e-07
8.50434e-07
6.83099e-07
4.60082e-07
2.52681e-07
4.66317e-08
0
2.53186e-08
2.4254e-07
4.20411e-07
9.23717e-07
9.28337e-07
7.48733e-07
5.00686e-07
2.6919e-07
5.64827e-08
0
4.77702e-08
2.97942e-07
4.39679e-07
1.00304e-06
1.00679e-06
8.22741e-07
5.64101e-07
2.85203e-07
7.86335e-08
0
7.1685e-08
3.38851e-07
4.30203e-07
1.08324e-06
1.08548e-06
9.03099e-07
6.45837e-07
3.47257e-07
1.17692e-07
0
9.62775e-08
3.74427e-07
4.98916e-07
1.15927e-06
1.16438e-06
9.83187e-07
7.30686e-07
4.37308e-07
1.72795e-07
1.34279e-09
1.21746e-07
4.10169e-07
6.27573e-07
1.23464e-06
1.24293e-06
1.05891e-06
8.03991e-07
5.13262e-07
2.32737e-07
2.74256e-08
1.47622e-07
4.39107e-07
7.1842e-07
1.30478e-06
1.31953e-06
1.13278e-06
8.74515e-07
5.80366e-07
2.94583e-07
5.99845e-08
1.74022e-07
4.64836e-07
7.48826e-07
1.36625e-06
1.39247e-06
1.2053e-06
9.43974e-07
6.51307e-07
3.6943e-07
9.6734e-08
2.02005e-07
4.87365e-07
7.77107e-07
1.42603e-06
1.46096e-06
1.27142e-06
1.00206e-06
7.13479e-07
4.24433e-07
1.26064e-07
2.3248e-07
5.09523e-07
8.49119e-07
1.49477e-06
1.52595e-06
1.32664e-06
1.04196e-06
7.47439e-07
4.46036e-07
1.39852e-07
2.65016e-07
5.40012e-07
9.97034e-07
1.572e-06
1.58898e-06
1.37188e-06
1.06818e-06
7.49251e-07
4.39108e-07
1.38304e-07
2.99e-07
6.41867e-07
1.14231e-06
1.64359e-06
1.65178e-06
1.41525e-06
1.09393e-06
7.41216e-07
4.19979e-07
1.29986e-07
3.33398e-07
8.58239e-07
1.22262e-06
1.7011e-06
1.71565e-06
1.46875e-06
1.12825e-06
7.79049e-07
4.10312e-07
1.25371e-07
3.66386e-07
9.6176e-07
1.14704e-06
1.76037e-06
1.78638e-06
1.52877e-06
1.1601e-06
8.48828e-07
4.44377e-07
1.41893e-07
3.96168e-07
1.01561e-06
8.25935e-07
1.8226e-06
1.86198e-06
1.59808e-06
1.20174e-06
9.76072e-07
5.6181e-07
1.9845e-07
4.26909e-07
1.06312e-06
1.0872e-06
1.88794e-06
1.93398e-06
1.68031e-06
1.263e-06
1.00924e-06
6.74065e-07
2.68536e-07
4.64584e-07
1.11277e-06
1.40188e-06
1.98903e-06
2.0211e-06
1.77246e-06
1.33804e-06
9.68844e-07
7.17818e-07
3.22263e-07
5.09006e-07
1.15067e-06
1.57341e-06
2.09583e-06
2.12659e-06
1.88887e-06
1.38881e-06
9.84639e-07
7.18485e-07
3.56729e-07
5.60286e-07
1.18054e-06
1.74238e-06
2.22665e-06
2.2545e-06
2.01849e-06
1.4222e-06
9.11548e-07
6.90627e-07
3.74679e-07
6.20573e-07
1.19672e-06
1.89693e-06
2.37662e-06
2.40311e-06
2.16575e-06
1.53645e-06
7.96043e-07
6.41542e-07
3.69586e-07
6.89875e-07
1.21214e-06
2.05906e-06
2.54817e-06
2.57202e-06
2.35098e-06
1.76375e-06
1.00382e-06
6.17064e-07
3.53605e-07
7.6365e-07
1.56351e-06
2.3488e-06
2.72977e-06
2.7595e-06
2.58758e-06
2.12168e-06
1.12068e-06
6.16186e-07
3.48575e-07
8.37195e-07
1.89339e-06
2.49164e-06
2.92492e-06
2.97557e-06
2.86157e-06
2.48106e-06
1.35794e-06
8.57473e-07
4.28793e-07
9.03923e-07
2.14121e-06
2.38414e-06
3.11645e-06
3.20264e-06
3.14346e-06
2.91258e-06
2.35096e-06
1.53954e-06
8.2508e-07
9.83826e-07
2.9402e-06
2.58174e-06
3.33776e-06
3.43865e-06
3.41882e-06
3.30227e-06
2.84337e-06
2.08814e-06
1.22261e-06
1.11756e-06
0
0
0
0
0
0
0
0
0
0
0
0
0
0
0
0
0
0
0
0
0
0
0
0
0
0
0
0
0
0
0
0
0
0
0
0
0
0
0
0
0
0
0
0
0
0
0
0
0
0
0
0
0
0
0
0
0
0
0
0
0
0
0
0
0
0
0
0
0
0
0
0
0
0
0
0
0
0
0
0
0
0
0
0
0
0
0
0
0
0
0
0
0
0
0
0
0
0
0
0
0
0
0
0
0
0
0
0
0
0
0
0
0
0
0
0
0
0
0
0
0
0
0
0
0
0
0
0
0
0
0
0
0
0
0
0
0
0
0
0
0
0
0
0
0
0
0
0
0
0
0
0
0
0
0
0
0
0
0
0
0
0
0
0
0
0
0
0
0
0
0
0
0
0
0
0
0
0
0
0
0
0
0
0
0
0
0
0
0
0
0
0
0
0
0
0
0
0
0
0
0
0
0
0
0
0
0
0
0
0
0
0
0
0
0
0
0
0
0
0
1.24407e-09
0
0
0
0
0
0
0
0
0
2.37411e-09
0
1.48611e-09
1.19627e-08
0
0
0
0
0
0
1.12567e-08
0
5.66577e-08
5.12611e-08
0
0
0
0
0
0
2.27986e-08
0
1.18212e-07
1.18172e-07
0
0
0
0
0
0
3.40913e-08
0
1.80946e-07
1.85322e-07
5.29978e-08
0
0
0
0
0
4.26762e-08
2.09869e-08
2.48463e-07
2.54153e-07
1.30374e-07
4.4502e-09
0
0
0
0
4.81363e-08
2.89279e-08
3.19019e-07
3.24633e-07
2.00096e-07
3.41734e-08
0
0
0
0
5.57858e-08
0
3.90417e-07
3.97207e-07
2.67653e-07
9.06821e-08
0
0
0
0
7.36066e-08
0
4.59655e-07
4.71211e-07
3.30864e-07
1.76867e-07
6.22346e-09
0
0
0
1.14585e-07
1.49423e-07
5.40428e-07
5.46489e-07
3.8699e-07
1.85679e-07
3.60191e-08
0
0
0
1.44e-07
2.57669e-07
6.13496e-07
6.21283e-07
4.55187e-07
2.01687e-07
9.50926e-08
0
0
0
1.5153e-07
2.1659e-07
6.83112e-07
6.97691e-07
5.38921e-07
3.39011e-07
1.76576e-07
1.8749e-08
0
0
1.60005e-07
1.29924e-07
7.53386e-07
7.73295e-07
6.17126e-07
4.19861e-07
2.29991e-07
3.57512e-08
0
2.16486e-09
1.8652e-07
2.68431e-07
8.39083e-07
8.50134e-07
6.82944e-07
4.6116e-07
2.54335e-07
4.30445e-08
0
2.29174e-08
2.41222e-07
4.0774e-07
9.22588e-07
9.27633e-07
7.46836e-07
4.98292e-07
2.71515e-07
5.54191e-08
0
4.58398e-08
2.95023e-07
4.56213e-07
1.00143e-06
1.00538e-06
8.18312e-07
5.56447e-07
2.8624e-07
8.15951e-08
0
7.01266e-08
3.36563e-07
4.60116e-07
1.08002e-06
1.08302e-06
8.98033e-07
6.36877e-07
3.33252e-07
1.20813e-07
0
9.52629e-08
3.75111e-07
5.11424e-07
1.15482e-06
1.16171e-06
9.77393e-07
7.23325e-07
4.23243e-07
1.77227e-07
2.61991e-09
1.20702e-07
4.16026e-07
6.18153e-07
1.22772e-06
1.23898e-06
1.05418e-06
7.99299e-07
5.07681e-07
2.40762e-07
3.18826e-08
1.46203e-07
4.4635e-07
6.99496e-07
1.29382e-06
1.31373e-06
1.1289e-06
8.71837e-07
5.79294e-07
3.03297e-07
6.37977e-08
1.72776e-07
4.61924e-07
7.25566e-07
1.34892e-06
1.38425e-06
1.20184e-06
9.43506e-07
6.53557e-07
3.74711e-07
9.61913e-08
2.01513e-07
4.79381e-07
7.48528e-07
1.40349e-06
1.45033e-06
1.26774e-06
1.00373e-06
7.19129e-07
4.35686e-07
1.22185e-07
2.32558e-07
5.0065e-07
8.13166e-07
1.471e-06
1.51395e-06
1.32186e-06
1.04407e-06
7.55318e-07
4.65084e-07
1.35323e-07
2.65157e-07
5.32462e-07
9.57403e-07
1.5502e-06
1.57676e-06
1.36466e-06
1.06659e-06
7.5663e-07
4.61559e-07
1.34818e-07
2.98666e-07
6.28446e-07
1.1056e-06
1.62497e-06
1.63928e-06
1.4032e-06
1.08179e-06
7.40703e-07
4.40124e-07
1.29147e-07
3.32248e-07
8.08978e-07
1.2005e-06
1.6856e-06
1.70188e-06
1.45065e-06
1.09936e-06
7.58046e-07
4.21558e-07
1.28931e-07
3.64544e-07
9.15707e-07
1.15834e-06
1.74435e-06
1.77005e-06
1.50776e-06
1.1262e-06
8.07101e-07
4.3624e-07
1.50886e-07
3.9487e-07
9.75919e-07
8.35918e-07
1.80427e-06
1.84637e-06
1.58227e-06
1.1687e-06
9.34531e-07
5.32122e-07
2.08478e-07
4.28216e-07
1.02312e-06
9.71936e-07
1.85953e-06
1.91922e-06
1.67161e-06
1.25202e-06
9.91316e-07
6.41954e-07
2.76231e-07
4.68924e-07
1.09047e-06
1.36481e-06
1.96577e-06
2.00805e-06
1.76955e-06
1.3291e-06
9.72085e-07
6.97729e-07
3.3095e-07
5.16023e-07
1.13109e-06
1.54264e-06
2.07294e-06
2.1151e-06
1.88892e-06
1.37092e-06
9.5796e-07
7.05896e-07
3.67872e-07
5.70032e-07
1.16444e-06
1.7012e-06
2.20209e-06
2.24414e-06
2.02019e-06
1.38959e-06
8.62379e-07
6.74136e-07
3.78134e-07
6.32895e-07
1.18723e-06
1.84241e-06
2.3535e-06
2.39363e-06
2.16595e-06
1.51427e-06
7.53562e-07
6.27387e-07
3.62675e-07
7.0337e-07
1.20207e-06
1.99412e-06
2.53057e-06
2.56305e-06
2.34623e-06
1.75113e-06
1.00041e-06
6.02435e-07
3.49409e-07
7.7564e-07
1.54727e-06
2.32096e-06
2.7181e-06
2.74871e-06
2.57752e-06
2.08861e-06
1.13294e-06
6.22231e-07
3.53455e-07
8.47346e-07
1.87355e-06
2.49928e-06
2.91615e-06
2.96452e-06
2.84722e-06
2.45596e-06
1.40318e-06
9.04163e-07
4.54563e-07
9.13013e-07
2.11429e-06
2.38593e-06
3.10885e-06
3.19519e-06
3.13625e-06
2.89452e-06
2.28965e-06
1.58049e-06
8.78625e-07
9.97319e-07
2.89235e-06
2.54115e-06
3.32766e-06
3.4346e-06
3.4156e-06
3.29799e-06
2.82746e-06
2.07212e-06
1.26075e-06
1.13588e-06
)
;
    }
    inlet
    {
        type            calculated;
        value           uniform 0.000190513;
    }
    outlet
    {
        type            calculated;
        value           nonuniform List<scalar> 
20
(
3.87672e-05
2.15405e-05
0.0081
0.0081
0.0081
0.0081
2.38361e-05
1.7586e-05
1.12879e-05
1.75144e-05
3.81246e-05
2.12538e-05
0.0081
0.0081
0.0081
0.0081
2.35749e-05
1.75306e-05
1.16521e-05
1.77359e-05
)
;
    }
    heatWall
    {
        type            nutkWallFunction;
        Cmu             0.09;
        kappa           0.41;
        E               9.8;
        value           nonuniform List<scalar> 
240
(
1.08694e-06
1.08807e-06
1.07636e-06
1.07798e-06
1.06723e-06
1.06806e-06
1.05847e-06
1.05764e-06
1.04587e-06
1.0447e-06
1.02732e-06
1.02764e-06
1.00175e-06
1.00303e-06
9.66051e-07
9.67326e-07
9.24947e-07
9.25146e-07
8.91194e-07
8.9073e-07
8.83438e-07
8.82896e-07
8.92788e-07
8.93201e-07
9.11496e-07
9.12491e-07
9.34309e-07
9.34847e-07
9.64423e-07
9.64432e-07
1.00629e-06
1.00547e-06
1.04592e-06
1.04447e-06
1.08553e-06
1.08479e-06
1.11514e-06
1.1167e-06
1.11611e-06
1.11432e-06
1.09227e-06
1.08752e-06
1.06421e-06
1.05869e-06
1.05955e-06
1.0532e-06
1.07097e-06
1.06029e-06
1.09319e-06
1.07537e-06
1.12371e-06
1.10441e-06
1.16641e-06
1.14976e-06
1.22039e-06
1.20524e-06
1.28008e-06
1.26486e-06
1.34534e-06
1.32759e-06
1.41476e-06
1.3953e-06
1.48467e-06
1.46685e-06
1.55604e-06
1.54129e-06
1.63366e-06
1.62125e-06
1.69416e-06
1.68439e-06
1.76034e-06
1.75244e-06
1.83404e-06
1.82769e-06
1.91261e-06
1.90747e-06
1.99347e-06
1.99011e-06
2.07727e-06
2.07382e-06
2.16249e-06
2.15779e-06
2.24951e-06
2.24538e-06
2.34184e-06
2.3402e-06
2.44249e-06
2.44274e-06
2.55004e-06
2.5505e-06
2.66249e-06
2.66139e-06
2.77642e-06
2.77261e-06
2.88577e-06
2.87967e-06
2.98459e-06
2.9803e-06
3.08667e-06
3.09103e-06
3.21186e-06
3.2263e-06
3.35958e-06
3.38293e-06
3.53025e-06
3.56271e-06
3.73109e-06
3.77216e-06
3.96221e-06
4.00724e-06
4.20854e-06
4.24859e-06
4.45437e-06
4.48832e-06
4.6777e-06
4.70813e-06
4.94547e-06
4.99071e-06
5.39425e-06
5.45578e-06
1.08859e-06
1.08952e-06
1.07828e-06
1.07871e-06
1.06698e-06
1.06696e-06
1.05486e-06
1.05478e-06
1.04167e-06
1.04231e-06
1.02676e-06
1.02873e-06
1.00775e-06
1.00879e-06
9.70841e-07
9.72495e-07
9.34454e-07
9.35338e-07
9.76121e-07
9.76041e-07
1.04019e-06
1.04003e-06
1.10293e-06
1.10284e-06
1.17526e-06
1.17448e-06
1.25401e-06
1.25244e-06
1.33793e-06
1.33673e-06
1.40184e-06
1.40247e-06
1.43115e-06
1.43268e-06
1.47012e-06
1.47056e-06
1.5447e-06
1.54366e-06
1.63592e-06
1.63433e-06
1.67595e-06
1.67078e-06
1.67684e-06
1.67495e-06
1.67517e-06
1.6791e-06
1.68267e-06
1.68267e-06
1.71219e-06
1.71182e-06
1.75007e-06
1.74982e-06
1.78632e-06
1.78708e-06
1.81289e-06
1.81548e-06
1.83011e-06
1.83368e-06
1.85906e-06
1.85906e-06
1.92864e-06
1.91793e-06
2.06031e-06
2.05305e-06
2.1282e-06
2.15003e-06
2.14718e-06
2.17483e-06
2.17752e-06
2.20283e-06
2.27685e-06
2.29046e-06
2.47576e-06
2.47134e-06
2.65917e-06
2.64946e-06
2.79471e-06
2.7871e-06
2.91266e-06
2.91492e-06
3.03125e-06
3.05068e-06
3.12733e-06
3.15137e-06
3.21281e-06
3.20312e-06
3.2877e-06
3.26116e-06
3.3614e-06
3.33189e-06
3.46288e-06
3.43775e-06
3.80229e-06
3.75751e-06
4.52517e-06
4.36037e-06
4.87185e-06
4.71756e-06
5.05238e-06
4.9193e-06
5.21176e-06
5.07757e-06
5.3784e-06
5.30354e-06
5.50568e-06
5.43994e-06
5.60603e-06
5.55195e-06
5.66042e-06
5.62852e-06
5.71223e-06
5.67841e-06
6.89588e-06
6.84109e-06
8.01078e-06
7.94366e-06
8.85029e-06
8.75902e-06
1.15667e-05
1.14036e-05
)
;
    }
}


// ************************************************************************* //
