/*--------------------------------*- C++ -*----------------------------------*\
  =========                 |
  \\      /  F ield         | OpenFOAM: The Open Source CFD Toolbox
   \\    /   O peration     | Website:  https://openfoam.org
    \\  /    A nd           | Version:  8
     \\/     M anipulation  |
\*---------------------------------------------------------------------------*/
FoamFile
{
    version     2.0;
    format      ascii;
    class       volScalarField;
    location    "600";
    object      p;
}
// * * * * * * * * * * * * * * * * * * * * * * * * * * * * * * * * * * * * * //

dimensions      [1 -1 -2 0 0 0 0];

internalField   nonuniform List<scalar> 
8400
(
11664
11682.6
11698.3
11713.6
11728.6
11743.6
11758.8
11774.3
11790.1
11806.3
11823.2
11840.7
11859
11878.3
11898.6
11920.3
11943.5
11968.5
11995.5
12024.9
12057
12092.3
12131.4
12174.7
12223.2
12277.5
12338.4
12406.7
12483.8
12571.1
12670.1
12782.6
12910.9
13057.4
13225
13416.9
13637
13889.7
14180.4
14515.1
14901.1
15346.7
15862.8
16463.2
17164.3
17980.3
18926.3
20063
21557.1
23502.8
11555.4
11569.2
11582.8
11596.9
11611
11625.2
11639.6
11654.1
11669.1
11684.4
11700.2
11716.6
11733.7
11751.7
11770.7
11790.9
11812.5
11835.6
11860.6
11887.9
11917.6
11950.3
11986.4
12026.4
12071
12120.8
12176.8
12240
12311.3
12392.1
12484
12588.5
12707.7
12843.8
12999.6
13178.1
13382.7
13617.6
13887.3
14197.5
14554
14964.2
15436.5
15981.4
16610
17330.8
18151
19101.4
20265.3
21693.6
11488.9
11507.1
11523.2
11538.5
11553.6
11568.8
11584.3
11600.1
11616.3
11633
11650.3
11668.3
11687.1
11706.8
11727.7
11749.9
11773.5
11798.9
11826.3
11856
11888.4
11923.9
11963
12006.1
12053.8
12106.9
12166.2
12232.7
12307.6
12392.1
12487.6
12596
12719.1
12859.3
13019.1
13201.6
13410.3
13649.2
13922.9
14236.6
14596.3
15008.9
15482.1
16025.1
16647
17354.7
18154.2
19060.3
20103.6
21279.4
11354.1
11358.5
11368.4
11380.4
11393.1
11406.1
11419.3
11432.8
11446.6
11460.8
11475.3
11490.4
11506
11522.3
11539.5
11557.7
11577
11597.7
11619.9
11643.9
11670
11698.7
11730.3
11765.3
11804.3
11847.9
11896.8
11951.8
12013.9
12084.3
12164.2
12255.1
12358.8
12477.3
12612.8
12768.2
12946.2
13150.6
13385.3
13654.8
13964.2
14319.4
14726.9
15193.9
15727.7
16334.5
17019.7
17792.4
18667.4
19641
11309
11330.6
11347.6
11362.6
11377.3
11392.2
11407.2
11422.6
11438.3
11454.5
11471.2
11488.5
11506.4
11525.2
11544.9
11565.7
11587.7
11611.1
11636.2
11663.2
11692.2
11723.7
11758
11795.6
11837
11882.7
11933.6
11990.2
12053.6
12124.7
12204.7
12294.9
12397
12512.7
12644
12793.2
12963.1
13156.5
13376.9
13628
13913.8
14239
14608.2
15026.3
15498
16026.4
16613
17259.8
17973.1
18751.6
11150.6
11151
11159
11169.9
11181.7
11193.9
11206.4
11219.1
11232.1
11245.4
11259
11273
11287.5
11302.6
11318.3
11334.8
11352.2
11370.7
11390.5
11411.7
11434.7
11459.7
11486.9
11516.8
11549.9
11586.4
11627.2
11672.7
11723.9
11781.5
11846.6
11920.3
12004
12099.3
12208
12332
12473.7
12635.8
12821
13032.9
13274.8
13550.6
13864.4
14220
14621.2
15070.2
15567.1
16111.1
16704.1
17346.8
11121.1
11145
11162.2
11176.7
11190.6
11204.5
11218.5
11232.7
11247.1
11261.9
11277
11292.4
11308.4
11324.8
11341.9
11359.6
11378
11397.4
11417.8
11439.4
11462.5
11487.1
11513.7
11542.4
11573.7
11607.9
11645.4
11686.8
11732.7
11783.8
11840.9
11904.9
11976.8
12057.9
12149.5
12253.3
12370.9
12504.5
12656.2
12828.5
13024.2
13246
13496.9
13779.8
14097.2
14450.9
14840.4
15264.4
15724.6
16223.3
10950.9
10949.4
10956.5
10966.8
10978.2
10989.9
11001.9
11014.1
11026.5
11039.1
11052
11065.2
11078.7
11092.6
11107
11122
11137.6
11153.8
11171
11189
11208.2
11228.6
11250.5
11274.1
11299.6
11327.4
11357.8
11391.2
11428.1
11469
11514.5
11565.4
11622.4
11686.5
11758.7
11840.3
11932.6
12037.2
12155.8
12290.2
12442.5
12614.7
12809.1
13027.6
13272.2
13543.8
13842.1
14165.9
14516.7
14897.6
10928.1
10952.4
10969.1
10982.8
10995.7
11008.4
11021.1
11033.8
11046.7
11059.7
11072.8
11086.1
11099.5
11113.1
11126.9
11140.9
11155.3
11170.1
11185.3
11200.9
11217.2
11234.1
11251.9
11270.6
11290.4
11311.4
11334
11358.3
11384.6
11413.2
11444.6
11479.2
11517.5
11560.1
11607.6
11660.9
11720.9
11788.5
11864.8
11951.2
12049.1
12159.8
12284.8
12425.9
12584.2
12761
12956.1
13169.5
13402.9
13660.1
10754.6
10752.3
10758.9
10768.7
10779.6
10790.8
10802.1
10813.7
10825.3
10837
10848.9
10860.9
10873.1
10885.4
10897.9
10910.6
10923.5
10936.6
10950
10963.8
10977.9
10992.3
11007.3
11022.7
11038.7
11055.4
11072.8
11091
11110.2
11130.6
11152.1
11175.2
11199.8
11226.3
11255
11286.2
11320.2
11357.5
11398.7
11444.1
11494.6
11550.9
11613.9
11684.4
11763.5
11852.2
11951.1
12061.1
12184.6
12326.2
10732
10755.6
10771.5
10784.4
10796.3
10808
10819.7
10831.2
10842.8
10854.3
10865.7
10877.1
10888.4
10899.6
10910.6
10921.6
10932.4
10943
10953.4
10963.6
10973.6
10983.4
10992.8
11001.9
11010.6
11019
11026.8
11034.2
11041
11047.1
11052.6
11057.3
11061.1
11063.9
11065.7
11066.4
11065.8
11064
11060.8
11056.3
11050.4
11043.3
11035.4
11027
11018.9
11012.1
11008
11008.5
11017.2
11039.3
10560.6
10558.2
10564.3
10573.4
10583.5
10593.8
10604.2
10614.7
10625.1
10635.5
10645.8
10656
10666.1
10676
10685.8
10695.3
10704.6
10713.6
10722.3
10730.5
10738.3
10745.5
10752
10757.8
10762.6
10766.4
10769
10770.2
10769.7
10767.2
10762.6
10755.3
10745.1
10731.5
10713.8
10691.7
10664.3
10631.1
10591.3
10544
10488.6
10424.4
10350.7
10267.4
10174.7
10073.2
9964.87
9852.51
9740.71
9636.7
10533.5
10555.7
10570.8
10583
10594.3
10605.4
10616.4
10627.3
10638
10648.5
10658.9
10669
10678.8
10688.3
10697.4
10706
10714.1
10721.5
10728.2
10734.1
10739
10742.7
10745.2
10746.1
10745.3
10742.4
10737.3
10729.4
10718.4
10703.9
10685.2
10661.8
10632.9
10597.7
10555.4
10504.8
10444.8
10374.2
10291.6
10195.6
10084.6
9957.23
9812.26
9648.79
9466.5
9265.99
9049.28
8820.51
8586.23
8355.61
10369
10367.1
10372.8
10381.2
10390.3
10399.6
10408.9
10418.1
10427.1
10435.8
10444.3
10452.4
10460.1
10467.3
10473.9
10479.9
10485.2
10489.6
10493
10495.3
10496.2
10495.5
10493.1
10488.6
10481.8
10472.2
10459.4
10443
10422.4
10396.8
10365.7
10328.1
10283
10229.3
10165.7
10090.7
10002.7
9899.8
9779.91
9640.77
9479.95
9294.9
9083.15
8842.47
8571.23
8268.68
7935.76
7576.29
7198.17
6815.54
10331.6
10351.6
10365.6
10377.2
10388.2
10398.9
10409.5
10419.9
10430
10440
10449.6
10458.8
10467.5
10475.8
10483.4
10490.2
10496.3
10501.3
10505.1
10507.6
10508.5
10507.5
10504.4
10498.8
10490.3
10478.5
10462.7
10442.4
10416.9
10385.2
10346.5
10299.6
10243.1
10175.7
10095.6
10000.7
9888.92
9757.64
9603.98
9424.76
9216.5
8975.47
8697.86
8380.14
8019.48
7614.07
7163.79
6672.39
6151.08
5620.27
10180.7
10180.5
10186.4
10194.5
10203.1
10211.7
10220.2
10228.4
10236.2
10243.6
10250.6
10256.9
10262.6
10267.6
10271.6
10274.6
10276.4
10276.9
10275.7
10272.8
10267.7
10260.2
10250
10236.5
10219.3
10197.7
10171.3
10139.1
10100.3
10054
9998.79
9933.48
9856.45
9765.92
9659.79
9535.7
9390.91
9222.31
9026.34
8799.04
8535.96
8232.17
7882.35
7481.19
7023.82
6505.89
5922.96
5272.9
4564.57
3828.98
10124
10141.2
10153.9
10165.1
10175.6
10185.9
10196
10205.8
10215.3
10224.4
10233.2
10241.4
10249
10255.9
10262
10267.1
10271.1
10273.8
10275
10274.4
10271.7
10266.6
10258.7
10247.6
10232.6
10213.3
10188.9
10158.6
10121.4
10076.2
10021.8
9956.64
9878.99
9786.85
9677.9
9549.42
9398.26
9220.76
9012.68
8769.12
8484.43
8152.05
7764.44
7313.34
6790.52
6187.57
5493.57
4696.82
3803.85
2865.27
9993.93
9998.32
10006.1
10014.9
10023.7
10032.3
10040.7
10048.6
10056.1
10063.1
10069.4
10075.1
10079.9
10083.8
10086.6
10088.1
10088.2
10086.5
10083
10077.1
10068.7
10057.3
10042.3
10023.4
9999.84
9970.9
9935.75
9893.41
9842.75
9782.47
9711.04
9626.68
9527.33
9410.6
9273.69
9113.33
8925.7
8706.35
8450.04
8150.66
7801.07
7392.87
6916.04
6359.11
5710.28
4958.16
4087.34
3072.53
1900.73
635.93
9907.54
9926.29
9938.34
9949.07
9959.16
9968.88
9978.25
9987.27
9995.87
10004
10011.6
10018.6
10024.8
10030.1
10034.5
10037.7
10039.5
10039.7
10038.1
10034.4
10028.2
10019.1
10006.8
9990.52
9969.81
9943.91
9912
9873.13
9826.18
9769.87
9702.69
9622.9
9528.49
9417.09
9285.95
9131.88
8951.12
8739.25
8491.09
8200.55
7860.43
7462.16
6995.1
6446.17
5801.33
5047.82
4166.26
3102.75
1771.37
197.375
9807.85
9817.38
9827.07
9836.78
9846.24
9855.37
9864.15
9872.51
9880.42
9887.79
9894.54
9900.59
9905.81
9910.07
9913.22
9915.08
9915.45
9914.1
9910.74
9905.06
9896.7
9885.22
9870.15
9850.9
9826.82
9797.14
9760.98
9717.31
9664.92
9602.43
9528.21
9440.38
9336.73
9214.69
9071.23
8902.8
8705.2
8473.44
8201.57
7882.42
7507.35
7065.66
6543.46
5922.44
5180.68
4295.49
3231.27
1883.97
44.2164
-2332.57
19429.5
11267.2
7234.14
5715.8
4881.42
4272.57
3848.88
3564.55
3364.36
3213.25
3093.53
2995.32
2912.08
2839.33
2774
2713.98
2657.71
2604.02
2551.97
2500.76
2449.72
2398.19
2345.57
2291.22
2234.48
2174.65
2110.95
2042.48
1968.25
1887.1
1797.69
1698.52
1587.83
1463.64
1323.46
1164.34
982.855
774.998
535.948
259.766
-60.7
-434.064
-870.997
-1384.99
-1993.55
-2720.12
-3597.66
-4675.42
-6033.81
-7809.5
-6203.16
-1614
-112.296
453.997
888.303
1213.89
1438.26
1598.34
1717.18
1806
1872.05
1920.78
1956.08
1980.68
1996.53
2005.06
2007.32
2004.1
1995.93
1983.19
1966.11
1944.78
1919.17
1889.14
1854.43
1814.67
1769.37
1717.88
1659.41
1592.92
1517.19
1430.83
1332.13
1219.06
1089.38
940.394
768.836
570.79
341.667
76.0351
-232.776
-592.94
-1014.44
-1509.61
-2093.89
-2786.85
-3613.43
-4605.14
-5799.52
-7230.45
1028.69
3198.72
4381.84
4484.51
4327.87
4156.23
3969.91
3778.7
3600.31
3441.17
3300.37
3175.43
3063.94
2963.69
2872.67
2789.13
2711.58
2638.76
2569.58
2503.11
2438.47
2374.9
2311.64
2247.96
2183.11
2116.32
2046.8
1973.68
1896.04
1812.78
1722.66
1624.17
1515.56
1394.76
1259.47
1107.06
934.431
737.877
513.009
254.671
-43.2003
-387.858
-787.974
-1253.92
-1798.11
-2435.23
-3182.29
-4057.84
-5079.11
-6254.36
1279.72
1688.79
1880.26
1808.61
1706.39
1663.01
1651.38
1649.13
1653.39
1663.25
1675.86
1688.62
1700
1709.15
1715.56
1718.93
1719.08
1715.95
1709.48
1699.62
1686.32
1669.47
1648.92
1624.47
1595.79
1562.48
1524.06
1479.91
1429.34
1371.6
1305.75
1230.57
1144.65
1046.37
933.712
804.313
655.402
483.724
285.456
56.1386
-209.432
-517.355
-874.729
-1289.72
-1771.54
-2330.23
-2975.95
-3717.41
-4558.47
-5492.32
1721.16
1970.24
2286.87
2518.54
2658.43
2747.7
2800.01
2818.94
2812.57
2789.59
2755.84
2714.91
2669.28
2620.73
2570.44
2519.16
2467.34
2415.22
2362.86
2310.23
2257.2
2203.56
2149.06
2093.39
2036.18
1976.97
1915.19
1850.13
1781
1706.93
1626.9
1539.81
1444.33
1338.95
1221.82
1090.85
943.583
777.189
588.381
373.37
127.806
-153.271
-475.444
-844.855
-1268.02
-1751.42
-2300.69
-2919.15
-3605.45
-4350.81
1827.28
1912.91
2021.02
2083.06
2085.71
2057.59
2019.17
1976.89
1933.75
1892.48
1854.54
1820.11
1788.84
1760.18
1733.56
1708.43
1684.24
1660.52
1636.81
1612.73
1587.88
1561.9
1534.42
1505.05
1473.42
1439.16
1401.78
1360.76
1315.52
1265.32
1209.33
1146.63
1076.12
996.528
906.359
803.885
687.107
553.72
401.08
226.177
25.6181
-204.364
-467.862
-769.163
-1112.49
-1501.57
-1938.84
-2424.38
-2954.14
-3518.6
1842.83
1887.21
1958.93
2031.15
2086.5
2127.4
2158.99
2181.98
2196.03
2201.86
2200.64
2193.39
2180.92
2163.96
2143.17
2119.11
2092.22
2062.89
2031.39
1997.92
1962.65
1925.61
1886.81
1846.14
1803.46
1758.56
1711.19
1661.03
1607.66
1550.57
1489.13
1422.63
1350.23
1270.93
1183.58
1086.84
979.149
858.747
723.615
571.492
399.875
206.051
-12.8255
-259.588
-536.818
-846.455
-1189.24
-1563.93
-1966.39
-2389.28
1803.75
1825.95
1863.73
1903.72
1931.87
1944.76
1944.91
1934.95
1916.9
1892.81
1864.66
1834.01
1802.01
1769.4
1736.73
1704.28
1672.23
1640.6
1609.35
1578.38
1547.56
1516.69
1485.57
1453.98
1421.66
1388.31
1353.61
1317.22
1278.75
1237.73
1193.68
1146
1094.06
1037.1
974.275
904.607
826.99
740.178
642.78
533.261
409.965
271.153
115.081
-59.8716
-255.005
-471.007
-707.559
-962.836
-1232.88
-1511.55
1737.59
1751.19
1776.25
1806.88
1834.37
1854.65
1867.85
1875
1876.85
1874
1867.15
1856.9
1843.76
1828.13
1810.31
1790.59
1769.17
1746.23
1721.92
1696.36
1669.61
1641.75
1612.8
1582.77
1551.63
1519.33
1485.77
1450.84
1414.38
1376.2
1336.04
1293.63
1248.61
1200.59
1149.1
1093.59
1033.45
967.996
896.468
818.041
731.848
637.02
532.737
418.327
293.394
158.002
12.9021
-140.205
-298.409
-457.852
1654.13
1664.22
1683.4
1707.95
1730.86
1747.55
1756.81
1759.01
1754.84
1745.12
1730.81
1712.86
1692.16
1669.41
1645.17
1619.91
1593.95
1567.54
1540.86
1514.02
1487.1
1460.14
1433.14
1406.11
1379.01
1351.82
1324.47
1296.91
1269.06
1240.86
1212.19
1182.96
1153.05
1122.34
1090.67
1057.9
1023.86
988.378
951.284
912.416
871.636
828.861
784.085
737.436
689.232
640.063
590.882
543.111
498.758
460.354
1557.73
1567.84
1587.07
1611.69
1634.72
1651.56
1661
1663.44
1659.56
1650.18
1636.28
1618.84
1598.73
1576.68
1553.27
1528.98
1504.16
1479.1
1453.98
1428.97
1404.18
1379.7
1355.59
1331.92
1308.73
1286.07
1264.01
1242.6
1221.9
1202.01
1183.01
1165.04
1148.23
1132.75
1118.8
1106.63
1096.52
1088.82
1083.93
1082.33
1084.57
1091.31
1103.27
1121.28
1146.26
1179.19
1221.05
1272.83
1335.4
1409.49
1448.36
1462.02
1487.22
1518.09
1545.91
1566.63
1580.38
1588.21
1590.87
1589.01
1583.31
1574.44
1562.92
1549.18
1533.6
1516.48
1498.12
1478.76
1458.65
1438
1417.01
1395.9
1374.85
1354.08
1333.77
1314.15
1295.44
1277.88
1261.75
1247.33
1234.96
1225.01
1217.93
1214.19
1214.37
1219.13
1229.2
1245.46
1268.87
1300.56
1341.76
1393.85
1458.28
1536.57
1630.24
1740.63
1868.83
2015.38
2180.12
2362.23
1321.6
1343.9
1381.91
1422.28
1450.99
1464.59
1465.66
1456.83
1440.16
1417.73
1391.56
1363.26
1334.02
1304.69
1275.84
1247.9
1221.12
1195.68
1171.67
1149.17
1128.23
1108.91
1091.26
1075.38
1061.37
1049.39
1039.63
1032.32
1027.78
1026.35
1028.48
1034.68
1045.57
1061.89
1084.47
1114.32
1152.57
1200.56
1259.8
1331.98
1419.02
1523
1646.13
1790.69
1958.87
2152.56
2373.11
2620.89
2894.92
3193.2
1167.6
1212.13
1284.17
1356.91
1413.01
1454.9
1487.72
1512.22
1528.09
1536.11
1537.51
1533.35
1524.53
1511.88
1496.16
1478.04
1458.13
1436.96
1415.01
1392.72
1370.49
1348.7
1327.72
1307.94
1289.72
1273.47
1259.62
1248.65
1241.1
1237.55
1238.71
1245.33
1258.34
1278.75
1307.77
1346.77
1397.32
1461.24
1540.57
1637.65
1755.06
1895.64
2062.41
2258.5
2486.93
2750.35
3050.56
3387.99
3760.8
4165.05
958.8
1044.6
1153.11
1215.79
1219.37
1192.49
1155.64
1115.28
1074.48
1036.02
1001.43
970.966
944.359
921.189
901.021
883.44
868.096
854.717
843.117
833.19
824.906
818.306
813.501
810.669
810.055
811.977
816.828
825.084
837.313
854.189
876.503
905.18
941.304
986.132
1041.13
1107.98
1188.65
1285.38
1400.74
1537.65
1699.4
1889.64
2112.31
2371.61
2671.73
3016.55
3409.05
3850.59
4339.66
4872.19
659.17
908.459
1225.55
1457.99
1598.98
1689.69
1743.82
1764.92
1761.18
1741.41
1711.48
1675.1
1634.84
1592.62
1549.79
1507.26
1465.7
1425.59
1387.31
1351.15
1317.39
1286.28
1258.1
1233.14
1211.75
1194.32
1181.33
1173.31
1170.92
1174.92
1186.2
1205.83
1235.03
1275.25
1328.17
1395.75
1480.27
1584.34
1711.01
1863.74
2046.49
2263.69
2520.29
2821.63
3173.34
3580.89
4049.05
4580.74
5175.11
5826.73
23.9402
433.234
625.21
554.408
453.4
411.636
402.034
402.287
409.593
423.104
440.051
457.943
475.374
491.644
506.415
519.586
531.231
541.546
550.813
559.369
567.598
575.925
584.812
594.764
606.334
620.136
636.849
657.239
682.167
712.615
749.702
794.713
849.125
914.64
993.223
1087.14
1199.03
1331.91
1489.28
1675.19
1894.25
2151.79
2453.81
2807.08
3219.04
3697.6
4250.59
4884.67
5603.01
6404.06
-421.201
1749.08
2932.76
3036.35
2881.02
2711.07
2526.89
2338.45
2163.4
2008.25
1872.18
1752.83
1647.95
1555.49
1473.61
1400.78
1335.79
1277.68
1225.72
1179.37
1138.29
1102.25
1071.17
1045.09
1024.2
1008.76
999.198
996.057
1000.03
1011.96
1032.88
1064.03
1106.86
1163.1
1234.8
1324.33
1434.48
1568.51
1730.23
1924.09
2155.25
2429.75
2754.62
3138
3589.32
4119.35
4739.97
5463.47
6299.95
7254.68
-7847.52
-3258.11
-1755.82
-1188.55
-752.883
-425.554
-198.922
-36.0369
86.2144
179.131
250.062
304.579
346.723
379.382
404.698
424.336
439.624
451.654
461.348
469.512
476.881
484.142
491.965
501.023
512.014
525.677
542.817
564.32
591.175
624.504
665.58
715.864
777.036
851.034
940.104
1046.85
1174.29
1325.94
1505.92
1719.01
1970.86
2268.09
2618.57
3031.69
3518.76
4093.55
4772.94
5577.48
6530.81
7659.07
17590.2
9428.2
5395.74
3878.39
3045.45
2438.56
2017.3
1735.9
1539.25
1392.41
1277.78
1185.58
1109.44
1045.04
989.533
941.024
898.252
860.363
826.801
797.23
771.484
749.54
731.498
717.571
708.08
703.463
704.272
711.191
725.046
746.824
777.699
819.053
872.511
939.981
1023.7
1126.28
1250.78
1400.8
1580.53
1794.94
2049.88
2352.3
2710.57
3134.88
3637.88
4235.82
4950.39
5812.36
6868.66
8201.43
-20201.2
-15586.5
-14015.8
-10058.2
-8091.48
-4673.96
-2572.43
482.742
2587.73
5396.49
7427.39
10071
11969.7
14517.3
16224.9
18748.1
20180.2
22763.9
23764.7
26398.1
-20227.4
-15625.7
-14065
-10109.4
-8149.64
-4730.7
-2634.91
422.418
2522.99
5333.89
7361.28
10007.4
11903.5
14454.9
16161.3
18691.5
20126.4
22725
23739.6
26411.7
-20261.8
-15662.9
-14111.8
-10157.4
-8204.45
-4784.56
-2694
365.064
2461.55
5274.6
7298.85
9947.74
11841.8
14397.1
16103.4
18639.7
20078.3
22687.5
23711.9
26401.3
-20300.7
-15700.8
-14157.5
-10203.4
-8256.86
-4835.96
-2750.45
310.318
2402.84
5218.08
7239.36
9891.05
11783.3
14342.4
16048.6
18590.1
20031.6
22648
23677.3
26374.5
-20341.6
-15739.2
-14202.6
-10248.1
-8307.48
-4885.39
-2804.76
257.771
2346.41
5163.87
7182.2
9836.65
11727.1
14289.6
15995.4
18541.2
19984.3
22605.3
23636.5
26338.1
-20383.6
-15778.1
-14247.2
-10291.7
-8356.73
-4933.22
-2857.33
207.022
2291.82
5111.47
7126.85
9783.92
11672.3
14237.9
15943
18492.1
19935.5
22559.7
23590.9
26295.5
-20426
-15817.1
-14291.4
-10334.6
-8404.9
-4979.79
-2908.52
157.715
2238.69
5060.49
7072.85
9732.34
11618.6
14186.7
15890.7
18442.4
19885
22511.5
23541.7
26248.6
-20468.5
-15855.9
-14335.2
-10376.8
-8452.22
-5025.35
-2958.61
109.544
2186.7
5010.57
7019.82
9681.54
11565.4
14135.8
15838.1
18391.8
19833.1
22461.3
23489.8
26198.7
-20510.9
-15894.6
-14378.6
-10418.5
-8498.82
-5070.09
-3007.82
62.2558
2135.58
4961.42
6967.48
9631.22
11512.4
14084.8
15785.1
18340.4
19779.8
22409.3
23435.7
26146.6
-20553.1
-15933
-14421.6
-10459.7
-8544.84
-5114.19
-3056.35
15.6468
2085.11
4912.84
6915.61
9581.17
11459.6
14033.6
15731.6
18288.3
19725.4
22356
23380
26092.7
-20595
-15971.1
-14464.3
-10500.4
-8590.38
-5157.76
-3104.33
-30.4457
2035.12
4864.64
6864.03
9531.25
11406.8
13982.3
15677.6
18235.5
19670
22301.5
23323
26037.4
-20636.7
-16008.9
-14506.7
-10540.8
-8635.51
-5200.91
-3151.89
-76.1503
1985.5
4816.71
6812.65
9481.38
11353.9
13930.6
15623.2
18182.1
19613.9
22246.1
23265
25981.1
-20678.1
-16046.4
-14548.7
-10580.9
-8680.32
-5243.72
-3199.13
-121.567
1936.13
4768.95
6761.36
9431.48
11300.9
13878.7
15568.4
18128.2
19557.1
22189.9
23206.1
25923.9
-20719.3
-16083.7
-14590.6
-10620.6
-8724.86
-5286.27
-3246.1
-166.773
1886.94
4721.28
6710.13
9381.52
11247.7
13826.5
15513.2
18073.8
19499.7
22133.1
23146.5
25866
-20760.2
-16120.6
-14632.1
-10660.2
-8769.17
-5328.6
-3292.88
-211.828
1837.88
4673.66
6658.91
9331.46
11194.4
13774.1
15457.7
18019
19441.9
22075.8
23086.4
25807.6
-20800.9
-16157.4
-14673.6
-10699.5
-8813.29
-5370.77
-3339.51
-256.776
1788.91
4626.06
6607.67
9281.31
11140.9
13721.4
15401.9
17963.8
19383.6
22018
23025.9
25748.7
-20841.5
-16194
-14714.8
-10738.7
-8857.27
-5412.81
-3386.02
-301.652
1740
4578.44
6556.41
9231.05
11087.3
13668.5
15345.8
17908.3
19325
21959.9
22964.9
25689.4
-20881.9
-16230.5
-14755.9
-10777.7
-8901.13
-5454.74
-3432.44
-346.482
1691.12
4530.81
6505.11
9180.68
11033.6
13615.5
15289.6
17852.6
19266.2
21901.5
22903.6
25629.9
-20922.2
-16266.7
-14796.9
-10816.6
-8944.89
-5496.6
-3478.78
-391.283
1642.28
4483.14
6453.78
9130.22
10979.7
13562.3
15233.2
17796.7
19207.1
21842.8
22842.1
25570.1
-20962.4
-16302.9
-14837.8
-10855.4
-8988.57
-5538.39
-3525.07
-436.068
1593.45
4435.43
6402.41
9079.66
10925.8
13508.9
15176.6
17740.6
19147.8
21784
22780.3
25510
-21002.5
-16339
-14878.6
-10894.1
-9032.18
-5580.14
-3571.32
-480.847
1544.63
4387.68
6351.01
9029.02
10871.8
13455.5
15119.9
17684.3
19088.4
21724.9
22718.4
25449.8
-21042.5
-16374.9
-14919.4
-10932.8
-9075.73
-5621.85
-3617.52
-525.625
1495.83
4339.9
6299.59
8978.3
10817.7
13401.9
15063.1
17628
19028.8
21665.8
22656.3
25389.5
-21082.5
-16410.8
-14960.1
-10971.4
-9119.24
-5663.53
-3663.7
-570.404
1447.04
4292.08
6248.16
8927.52
10763.6
13348.2
15006.2
17571.5
18969.2
21606.5
22594.2
25329.1
-21122.5
-16446.7
-15000.8
-11010
-9162.71
-5705.18
-3709.83
-615.187
1398.26
4244.23
6196.72
8876.69
10709.4
13294.5
14949.3
17514.9
18909.5
21547.2
22531.9
25268.7
-21162.3
-16482.4
-15041.4
-11048.5
-9206.13
-5746.82
-3755.94
-659.972
1349.51
4196.35
6145.29
8825.81
10655.3
13240.7
14892.4
17458.3
18849.7
21487.8
22469.6
25208.1
-21202.2
-16518.1
-15082
-11087
-9249.52
-5788.43
-3802.01
-704.758
1300.78
4148.46
6093.86
8774.9
10601.1
13186.9
14835.4
17401.6
18789.9
21428.3
22407.2
25147.6
-21242
-16553.8
-15122.6
-11125.4
-9292.87
-5830.02
-3848.05
-749.542
1252.08
4100.55
6042.46
8723.96
10546.9
13133
14778.4
17344.9
18730.1
21368.9
22344.8
25087
-21281.8
-16589.4
-15163.1
-11163.8
-9336.19
-5871.59
-3894.04
-794.319
1203.41
4052.63
5991.08
8673.01
10492.8
13079.2
14721.4
17288.2
18670.2
21309.4
22282.5
25026.5
-21321.6
-16625
-15203.6
-11202.2
-9379.47
-5913.14
-3940
-839.087
1154.8
4004.72
5939.75
8622.06
10438.7
13025.3
14664.5
17231.5
18610.4
21250
22220.1
24966
-21361.3
-16660.5
-15244.1
-11240.5
-9422.7
-5954.66
-3985.9
-883.839
1106.23
3956.81
5888.47
8571.11
10384.6
12971.4
14607.6
17174.9
18550.7
21190.6
22157.7
24905.6
-21401
-16695.9
-15284.5
-11278.8
-9465.89
-5996.15
-4031.75
-928.571
1057.72
3908.92
5837.24
8520.17
10330.6
12917.6
14550.7
17118.2
18491
21131.2
22095.5
24845.2
-21440.7
-16731.3
-15324.9
-11317
-9509.03
-6037.61
-4077.53
-973.276
1009.28
3861.05
5786.09
8469.26
10276.7
12863.8
14493.9
17061.6
18431.3
21071.9
22033.2
24784.8
-21480.4
-16766.7
-15365.3
-11355.2
-9552.11
-6079.03
-4123.25
-1017.95
960.917
3813.21
5735.01
8418.38
10222.8
12810
14437.2
17005.1
18371.7
21012.7
21971
24724.6
-21520
-16802
-15405.6
-11393.3
-9595.13
-6120.41
-4168.9
-1062.59
912.634
3765.41
5684.02
8367.54
10169.1
12756.3
14380.6
16948.6
18312.2
20953.5
21909
24664.5
-21559.6
-16837.2
-15445.8
-11431.4
-9638.08
-6161.74
-4214.46
-1107.18
864.444
3717.65
5633.13
8316.75
10115.4
12702.6
14324
16892.2
18252.8
20894.4
21847
24604.4
-21599.1
-16872.4
-15486.1
-11469.5
-9680.96
-6203.01
-4259.94
-1151.72
816.353
3669.94
5582.34
8266.02
10061.8
12649
14267.6
16835.8
18193.5
20835.5
21785.1
24544.5
-21638.6
-16907.5
-15526.2
-11507.4
-9723.75
-6244.22
-4305.32
-1196.2
768.371
3622.29
5531.67
8215.36
10008.4
12595.5
14211.3
16779.6
18134.3
20776.6
21723.3
24484.7
-21678
-16942.5
-15566.3
-11545.3
-9766.47
-6285.37
-4350.59
-1240.62
720.506
3574.71
5481.13
8164.77
9955.06
12542.1
14155.2
16723.5
18075.3
20717.9
21661.7
24425.1
-21717.3
-16977.4
-15606.3
-11583.1
-9809.08
-6326.44
-4395.75
-1284.97
672.767
3527.2
5430.72
8114.26
9901.88
12488.7
14099.1
16667.5
18016.4
20659.4
21600.2
24365.6
-21756.6
-17012.3
-15646.2
-11620.9
-9851.6
-6367.44
-4440.79
-1329.24
625.162
3479.78
5380.45
8063.85
9848.86
12435.5
14043.2
16611.6
17957.6
20600.9
21538.8
24306.3
-21795.8
-17047
-15686.1
-11658.5
-9894
-6408.35
-4485.71
-1373.43
577.7
3432.44
5330.34
8013.53
9795.99
12382.4
13987.5
16555.8
17899
20542.6
21477.6
24247.2
-21835
-17081.7
-15725.8
-11696
-9936.29
-6449.17
-4530.48
-1417.52
530.39
3385.2
5280.39
7963.32
9743.29
12329.4
13932
16500.2
17840.6
20484.5
21416.6
24188.2
-21874
-17116.2
-15765.5
-11733.5
-9978.46
-6489.89
-4575.11
-1461.52
483.241
3338.06
5230.61
7913.23
9690.77
12276.6
13876.6
16444.8
17782.4
20426.6
21355.7
24129.5
-21913
-17150.6
-15805
-11770.8
-10020.5
-6530.51
-4619.59
-1505.41
436.262
3291.04
5181.01
7863.26
9638.43
12223.8
13821.4
16389.5
17724.3
20368.8
21295.1
24070.9
-21951.9
-17184.9
-15844.4
-11808
-10062.4
-6571.02
-4663.91
-1549.19
389.46
3244.13
5131.6
7813.41
9586.29
12171.3
13766.4
16334.4
17666.4
20311.3
21234.6
24012.6
-21990.6
-17219.1
-15883.7
-11845.1
-10104.1
-6611.41
-4708.06
-1592.86
342.846
3197.35
5082.39
7763.71
9534.36
12118.9
13711.6
16279.4
17608.8
20253.9
21174.3
23954.5
-22029.2
-17253.2
-15922.9
-11882.1
-10145.7
-6651.68
-4752.03
-1636.39
296.427
3150.7
5033.39
7714.16
9482.64
12066.6
13657.1
16224.7
17551.3
20196.8
21114.3
23896.6
-22067.8
-17287.1
-15961.9
-11919
-10187.2
-6691.81
-4795.81
-1679.8
250.213
3104.19
4984.6
7664.75
9431.14
12014.6
13602.8
16170.1
17494.1
20139.8
21054.4
23838.9
-22106.1
-17320.8
-16000.8
-11955.7
-10228.4
-6731.81
-4839.4
-1723.07
204.213
3057.82
4936.04
7615.51
9379.88
11962.7
13548.7
16115.8
17437.1
20083.1
20994.9
23781.5
-22144.4
-17354.5
-16039.6
-11992.2
-10269.5
-6771.66
-4882.78
-1766.19
158.435
3011.61
4887.71
7566.44
9328.85
11911
13494.8
16061.6
17380.4
20026.7
20935.5
23724.4
-22182.5
-17387.9
-16078.1
-12028.6
-10310.4
-6811.36
-4925.95
-1809.15
112.888
2965.56
4839.63
7517.54
9278.08
11859.5
13441.2
16007.7
17323.9
19970.5
20876.4
23667.5
-22220.5
-17421.2
-16116.6
-12064.9
-10351.1
-6850.91
-4968.9
-1851.96
67.5818
2919.68
4791.81
7468.82
9227.57
11808.2
13387.9
15954
17267.7
19914.5
20817.6
23611
-22258.3
-17454.3
-16154.8
-12100.9
-10391.6
-6890.29
-5011.62
-1894.61
22.5239
2873.98
4744.24
7420.3
9177.33
11757.1
13334.8
15900.5
17211.8
19858.8
20759
23554.7
-22295.9
-17487.2
-16192.9
-12136.8
-10431.8
-6929.5
-5054.1
-1937.08
-22.2764
2828.45
4696.94
7371.97
9127.36
11706.2
13282
15847.3
17156.1
19803.4
20700.7
23498.7
-22333.4
-17519.9
-16230.7
-12172.5
-10471.9
-6968.54
-5096.34
-1979.37
-66.8104
2783.12
4649.93
7323.85
9077.68
11655.6
13229.5
15794.4
17100.7
19748.3
20642.7
23443
-22370.6
-17552.5
-16268.4
-12208.1
-10511.7
-7007.39
-5138.32
-2021.47
-111.069
2737.98
4603.2
7275.95
9028.29
11605.2
13177.3
15741.7
17045.7
19693.4
20585
23387.6
-22407.7
-17584.8
-16305.9
-12243.4
-10551.3
-7046.05
-5180.03
-2063.39
-155.044
2693.04
4556.77
7228.26
8979.21
11555
13125.4
15689.3
16990.9
19638.9
20527.6
23332.5
-22444.6
-17617
-16343.1
-12278.5
-10590.6
-7084.51
-5221.48
-2105.1
-198.726
2648.31
4510.64
7180.8
8930.45
11505.1
13073.8
15637.1
16936.4
19584.7
20470.5
23277.8
-22481.3
-17648.9
-16380.1
-12313.5
-10629.7
-7122.78
-5262.64
-2146.61
-242.107
2603.8
4464.83
7133.58
8882
11455.5
13022.6
15585.3
16882.3
19530.7
20413.8
23223.4
-22517.8
-17680.6
-16416.9
-12348.2
-10668.6
-7160.83
-5303.52
-2187.91
-285.178
2559.51
4419.34
7086.59
8833.88
11406.1
12971.6
15533.7
16828.5
19477.1
20357.3
23169.4
-22554.1
-17712
-16453.5
-12382.7
-10707.1
-7198.67
-5344.09
-2228.99
-327.93
2515.45
4374.19
7039.86
8786.11
11357
12921
15482.5
16775
19423.9
20301.2
23115.7
-22590.2
-17743.3
-16489.8
-12416.9
-10745.4
-7236.3
-5384.36
-2269.85
-370.354
2471.62
4329.37
6993.38
8738.68
11308.1
12870.8
15431.5
16721.9
19371
20245.5
23062.4
-22626
-17774.3
-16525.9
-12451
-10783.4
-7273.69
-5424.31
-2310.47
-412.442
2428.04
4284.91
6947.16
8691.61
11259.6
12820.9
15380.9
16669.2
19318.4
20190.1
23009.5
-22661.6
-17805
-16561.7
-12484.8
-10821.1
-7310.85
-5463.94
-2350.86
-454.185
2384.71
4240.8
6901.21
8644.9
11211.4
12771.4
15330.6
16616.8
19266.2
20135.1
22956.9
-22696.9
-17835.5
-16597.3
-12518.4
-10858.5
-7347.77
-5503.24
-2391.01
-495.575
2341.63
4197.07
6855.54
8598.56
11163.4
12722.3
15280.6
16564.8
19214.3
20080.4
22904.7
-22732
-17865.7
-16632.5
-12551.7
-10895.6
-7384.45
-5542.2
-2430.91
-536.602
2298.81
4153.7
6810.15
8552.61
11115.8
12673.5
15231
16513.2
19162.8
20026.1
22853
-22766.9
-17895.7
-16667.5
-12584.7
-10932.3
-7420.88
-5580.81
-2470.56
-577.259
2256.26
4110.72
6765.06
8507.05
11068.5
12625.2
15181.7
16461.9
19111.7
19972.3
22801.6
-22801.4
-17925.3
-16702.2
-12617.5
-10968.8
-7457.05
-5619.06
-2509.94
-617.537
2213.99
4068.14
6720.26
8461.88
11021.5
12577.2
15132.8
16411.1
19061
19918.8
22750.7
-22835.7
-17954.8
-16736.6
-12650
-11004.9
-7492.96
-5656.94
-2549.06
-657.426
2172
4025.95
6675.76
8417.13
10974.8
12529.7
15084.2
16360.7
19010.7
19865.7
22700.2
-22869.7
-17983.9
-16770.7
-12682.3
-11040.6
-7528.6
-5694.45
-2587.91
-696.919
2130.29
3984.17
6631.57
8372.78
10928.5
12482.6
15036
16310.7
18960.8
19813
22650.1
-22903.5
-18012.7
-16804.5
-12714.3
-11076
-7563.97
-5731.57
-2626.47
-736.008
2088.88
3942.81
6587.7
8328.87
10882.6
12435.8
14988.2
16261.1
18911.3
19760.8
22600.4
-22936.9
-18041.2
-16837.9
-12746
-11111.1
-7599.06
-5768.31
-2664.76
-774.683
2047.76
3901.88
6544.15
8285.38
10836.9
12389.6
14940.8
16211.9
18862.2
19709
22551.2
-22970
-18069.4
-16871.1
-12777.4
-11145.8
-7633.86
-5804.64
-2702.76
-812.936
2006.95
3861.38
6500.93
8242.33
10791.7
12343.7
14893.8
16163.2
18813.6
19657.6
22502.5
-23002.8
-18097.3
-16903.9
-12808.5
-11180.1
-7668.38
-5840.56
-2740.46
-850.758
1966.45
3821.33
6458.05
8199.73
10746.8
12298.4
14847.1
16115
18765.4
19606.7
22454.2
-23035.3
-18124.9
-16936.3
-12839.3
-11214
-7702.61
-5876.07
-2777.86
-888.142
1926.27
3781.72
6415.52
8157.59
10702.3
12253.4
14800.9
16067.2
18717.6
19556.2
22406.4
-23067.5
-18152.2
-16968.4
-12869.8
-11247.5
-7736.53
-5911.15
-2814.96
-925.079
1886.41
3742.58
6373.33
8115.91
10658.2
12209
14755.1
16019.8
18670.3
19506.2
22359.1
-23099.3
-18179.2
-17000.2
-12899.9
-11280.6
-7770.15
-5945.79
-2851.74
-961.56
1846.88
3703.9
6331.49
8074.71
10614.4
12165
14709.7
15973
18623.5
19456.6
22312.2
-23130.9
-18205.8
-17031.5
-12929.8
-11313.3
-7803.46
-5980
-2888.21
-997.578
1807.68
3665.69
6290.02
8033.98
10571.1
12121.5
14664.8
15926.6
18577.1
19407.5
22265.9
-23162
-18232
-17062.5
-12959.4
-11345.6
-7836.46
-6013.75
-2924.36
-1033.12
1768.83
3627.97
6248.92
7993.74
10528.1
12078.5
14620.3
15880.7
18531.2
19359
22220
-23192.8
-18257.9
-17093.2
-12988.6
-11377.5
-7869.14
-6047.04
-2960.19
-1068.19
1730.32
3590.74
6208.19
7954
10485.6
12035.9
14576.2
15835.3
18485.7
19310.9
22174.7
-23223.3
-18283.5
-17123.4
-13017.5
-11408.9
-7901.49
-6079.86
-2995.68
-1102.77
1692.16
3554.01
6167.84
7914.76
10443.5
11993.9
14532.6
15790.4
18440.8
19263.3
22129.9
-23253.4
-18308.7
-17153.2
-13046
-11439.9
-7933.52
-6112.21
-3030.83
-1136.85
1654.36
3517.79
6127.88
7876.03
10401.8
11952.4
14489.4
15746
18396.3
19216.2
22085.6
-23283.1