/*--------------------------------*- C++ -*----------------------------------*\
  =========                 |
  \\      /  F ield         | OpenFOAM: The Open Source CFD Toolbox
   \\    /   O peration     | Website:  https://openfoam.org
    \\  /    A nd           | Version:  8
     \\/     M anipulation  |
\*---------------------------------------------------------------------------*/
FoamFile
{
    version     2.0;
    format      ascii;
    class       surfaceScalarField;
    location    "600";
    object      phi;
}
// * * * * * * * * * * * * * * * * * * * * * * * * * * * * * * * * * * * * * //

dimensions      [1 0 -1 0 0 0 0];

internalField   nonuniform List<scalar> 
16360
(
-1.36722
0.000233981
-1.36748
0.000264081
-1.36776
0.000275378
-1.36804
0.000279807
-1.36832
0.000281228
-1.3686
0.000281035
-1.36888
0.000279777
-1.36916
0.000277679
-1.36943
0.000274823
-1.3697
0.000271222
-1.36997
0.000266841
-1.37023
0.000261617
-1.37049
0.000255458
-1.37073
0.000248246
-1.37097
0.000239838
-1.3712
0.000230062
-1.37142
0.000218719
-1.37163
0.000205571
-1.37182
0.000190339
-1.37199
0.000172687
-1.37214
0.000152212
-1.37227
0.000128477
-1.37237
0.000101001
-1.37244
6.91032e-05
-1.37247
3.18918e-05
-1.37246
-1.22212e-05
-1.3724
-6.5492e-05
-1.37227
-0.000129025
-1.37206
-0.00020325
-1.37177
-0.000289454
-1.37138
-0.000389357
-1.37088
-0.00050506
-1.37024
-0.000639053
-1.36945
-0.000794268
-1.36847
-0.00097415
-1.36729
-0.00118277
-1.36586
-0.00142495
-1.36416
-0.00170648
-1.36212
-0.00203433
-1.35971
-0.00241707
-1.35684
-0.00286544
-1.35345
-0.00339307
-1.34943
-0.00401757
-1.34467
-0.00476263
-1.339
-0.00566317
-1.33223
-0.00677318
-1.32407
-0.0081642
-1.31416
-0.00990254
-1.30207
-0.0120976
-0.0153424
-1.28672
-1.565
0.00050567
-1.56524
0.000505455
-1.56547
0.000505914
-1.5657
0.000508428
-1.56593
0.000509426
-1.56616
0.000508659
-1.56638
0.000506275
-1.56661
0.000502423
-1.56683
0.00049717
-1.56705
0.000490505
-1.56727
0.000482353
-1.56748
0.000472583
-1.56768
0.000461019
-1.56788
0.000447432
-1.56807
0.000431546
-1.56826
0.000413029
-1.56843
0.000391497
-1.56859
0.000366497
-1.56874
0.000337491
-1.56887
0.000303833
-1.56898
0.000264741
-1.56907
0.00021936
-1.56914
0.000166949
-1.56917
0.000106204
-1.56918
3.55532e-05
-1.56914
-4.68588e-05
-1.56907
-0.000142758
-1.56894
-0.000253931
-1.56876
-0.000382812
-1.56852
-0.00053209
-1.5682
-0.000704896
-1.5678
-0.000904882
-1.56731
-0.00113631
-1.5667
-0.00140414
-1.56596
-0.00171419
-1.56507
-0.00207323
-1.564
-0.00248924
-1.56274
-0.00297166
-1.56124
-0.00353169
-1.55947
-0.00418288
-1.5574
-0.00494171
-1.55496
-0.00582858
-1.55211
-0.006869
-1.54878
-0.00809622
-1.54488
-0.00955666
-1.54034
-0.0113159
-1.53505
-0.0134562
-1.52888
-0.0160753
-1.5216
-0.0193695
-0.0237985
-1.51315
-1.60398
0.00033269
-1.60387
0.00039575
-1.60379
0.000420271
-1.60371
0.000428563
-1.60363
0.000430285
-1.60355
0.000428483
-1.60347
0.000424239
-1.60338
0.000417936
-1.60329
0.000409677
-1.6032
0.000399425
-1.60311
0.00038705
-1.60301
0.000372352
-1.6029
0.000355067
-1.60279
0.000334863
-1.60267
0.000311336
-1.60254
0.000284006
-1.6024
0.000252315
-1.60225
0.000215619
-1.60208
0.000173144
-1.6019
0.00012397
-1.60171
6.69635e-05
-1.60149
8.66457e-07
-1.60125
-7.62171e-05
-1.60097
-0.000166074
-1.60067
-0.00027029
-1.60032
-0.000390856
-1.59994
-0.000530248
-1.5995
-0.000691522
-1.599
-0.000878155
-1.59844
-0.00109409
-1.5978
-0.0013439
-1.59707
-0.00163286
-1.59624
-0.00196714
-1.59529
-0.00235388
-1.59421
-0.00280142
-1.59296
-0.00331949
-1.59153
-0.00391946
-1.58989
-0.0046147
-1.588
-0.00542099
-1.58582
-0.00635712
-1.58332
-0.0074456
-1.58043
-0.00871361
-1.57711
-0.0101943
-1.57328
-0.0119292
-1.56886
-0.0139725
-1.56378
-0.0163934
-1.55797
-0.0192736
-1.55133
-0.0227126
-1.54381
-0.0268861
-0.0321485
-1.53546
-1.64889
0.000491706
-1.64893
0.000428521
-1.64892
0.000407687
-1.64889
0.000402063
-1.64886
0.00039901
-1.64882
0.00039513
-1.64879
0.000389442
-1.64875
0.000381651
-1.64871
0.00037161
-1.64867
0.000359161
-1.64863
0.000344096
-1.64859
0.00032614
-1.64854
0.000304947
-1.64848
0.000280091
-1.64842
0.000251057
-1.64835
0.00021723
-1.64828
0.000177891
-1.6482
0.00013226
-1.6481
7.93574e-05
-1.648
1.80192e-05
-1.64788
-5.29496e-05
-1.64774
-0.000135019
-1.64759
-0.000229925
-1.64741
-0.00033954
-1.64722
-0.000466381
-1.64699
-0.000613133
-1.64674
-0.000782914
-1.64645
-0.000979394
-1.64613
-0.00120679
-1.64575
-0.00146994
-1.64532
-0.00177444
-1.64483
-0.00212676
-1.64426
-0.00253438
-1.64361
-0.00300601
-1.64286
-0.00355172
-1.64199
-0.00418324
-1.641
-0.00491424
-1.63985
-0.00576065
-1.63853
-0.00674114
-1.63701
-0.00787769
-1.63526
-0.00919625
-1.63325
-0.0107277
-1.63093
-0.0125088
-1.62828
-0.0145844
-1.62524
-0.0170101
-1.62178
-0.0198527
-1.61786
-0.0231888
-1.61347
-0.0271113
-1.60859
-0.0317583
-0.037325
-1.60342
-1.63384
0.000166524
-1.63366
0.000250821
-1.63353
0.000280878
-1.63342
0.000288597
-1.63331
0.00028831
-1.6332
0.000283994
-1.63309
0.000276819
-1.63297
0.000267062
-1.63285
0.000254693
-1.63273
0.000239543
-1.63261
0.000221354
-1.63249
0.000199788
-1.63235
0.000174427
-1.63222
0.000144769
-1.63208
0.000110197
-1.63193
6.99821e-05
-1.63178
2.32587e-05
-1.63161
-3.09909e-05
-1.63144
-9.39814e-05
-1.63126
-0.000166996
-1.63106
-0.000251535
-1.63084
-0.000349491
-1.63061
-0.0004629
-1.63035
-0.000594093
-1.63008
-0.00074586
-1.62977
-0.000921404
-1.62943
-0.00112444
-1.62905
-0.00135929
-1.62862
-0.00163092
-1.62815
-0.0019451
-1.62761
-0.00230845
-1.62701
-0.00272865
-1.62633
-0.00321457
-1.62556
-0.00377648
-1.62469
-0.00442625
-1.62369
-0.00517763
-1.62256
-0.00604655
-1.62127
-0.00705148
-1.61979
-0.00821386
-1.61811
-0.00955863
-1.6162
-0.0111148
-1.61401
-0.0129164
-1.61151
-0.0150029
-1.60868
-0.0174213
-1.60546
-0.0202269
-1.60183
-0.0234841
-1.59775
-0.0272656
-1.59321
-0.0316555
-1.58821
-0.0367584
-0.0427068
-1.58282
-1.64882
0.0003805
-1.64886
0.000285951
-1.64883
0.000252065
-1.64878
0.000240276
-1.64872
0.00023334
-1.64867
0.000226272
-1.64861
0.000217441
-1.64855
0.000206228
-1.64848
0.000192289
-1.64842
0.000175319
-1.64835
0.000154972
-1.64828
0.000130841
-1.64821
0.000102442
-1.64814
6.92044e-05
-1.64806
3.04044e-05
-1.64797
-1.4747e-05
-1.64788
-6.71535e-05
-1.64778
-0.000127929
-1.64768
-0.000198334
-1.64757
-0.000279856
-1.64744
-0.000374268
-1.64731
-0.000483602
-1.64716
-0.000610169
-1.647
-0.000756649
-1.64682
-0.000926159
-1.64662
-0.0011223
-1.64639
-0.00134925
-1.64614
-0.00161182
-1.64586
-0.0019156
-1.64553
-0.00226702
-1.64517
-0.00267352
-1.64475
-0.00314368
-1.64428
-0.0036874
-1.64374
-0.00431615
-1.64313
-0.00504311
-1.64242
-0.00588355
-1.64161
-0.00685502
-1.64068
-0.00797778
-1.63962
-0.00927516
-1.63841
-0.010774
-1.63702
-0.0125052
-1.63543
-0.014504
-1.63362
-0.0168111
-1.63157
-0.0194727
-1.62926
-0.0225416
-1.62666
-0.0260764
-1.62379
-0.0301412
-1.62064
-0.0348053
-1.61725
-0.0401454
-0.0462439
-1.61371
-1.64016
-4.86122e-07
-1.63997
9.97658e-05
-1.63985
0.000133562
-1.63975
0.000140669
-1.63966
0.000138581
-1.63957
0.000132074
-1.63947
0.000122464
-1.63937
0.000109985
-1.63928
9.45153e-05
-1.63918
7.57838e-05
-1.63908
5.34171e-05
-1.63897
2.69755e-05
-1.63886
-4.08629e-06
-1.63875
-4.04453e-05
-1.63864
-8.28562e-05
-1.63852
-0.000132186
-1.6384
-0.000189494
-1.63827
-0.000256032
-1.63814
-0.000333171
-1.638
-0.000422539
-1.63784
-0.000526047
-1.63768
-0.0006459
-1.63751
-0.000784637
-1.63732
-0.000945198
-1.63711
-0.00113099
-1.63689
-0.00134596
-1.63665
-0.00159467
-1.63637
-0.00188239
-1.63608
-0.00221524
-1.63574
-0.00260024
-1.63537
-0.00304553
-1.63495
-0.0035605
-1.63448
-0.00415598
-1.63396
-0.00484446
-1.63336
-0.00564034
-1.63268
-0.00656019
-1.63191
-0.00762305
-1.63104
-0.00885081
-1.63005
-0.0102685
-1.62892
-0.0119048
-1.62763
-0.0137924
-1.62617
-0.0159681
-1.6245
-0.0184737
-1.62262
-0.0213559
-1.6205
-0.0246662
-1.61811
-0.0284606
-1.61545
-0.0327982
-1.61252
-0.0377386
-1.60933
-0.0433405
-0.049663
-1.60591
-1.64621
0.000247777
-1.64625
0.00014069
-1.64622
0.000101251
-1.64617
8.63408e-05
-1.64611
7.69627e-05
-1.64604
6.76031e-05
-1.64598
5.64195e-05
-1.64591
4.26758e-05
-1.64584
2.59327e-05
-1.64577
5.79861e-06
-1.6457
-1.81435e-05
-1.64563
-4.63914e-05
-1.64555
-7.9544e-05
-1.64547
-0.000118294
-1.64539
-0.000163421
-1.64531
-0.000215892
-1.64522
-0.000276822
-1.64513
-0.000347504
-1.64503
-0.000429427
-1.64493
-0.000524328
-1.64482
-0.000634225
-1.64471
-0.000761454
-1.64458
-0.000908716
-1.64445
-0.00107913
-1.6443
-0.00127633
-1.64415
-0.00150448
-1.64397
-0.00176842
-1.64378
-0.00207376
-1.64357
-0.00242696
-1.64333
-0.00283548
-1.64307
-0.00330795
-1.64278
-0.00385431
-1.64245
-0.00448603
-1.64208
-0.00521631
-1.64166
-0.00606038
-1.64118
-0.0070357
-1.64064
-0.0081623
-1.64003
-0.00946314
-1.63933
-0.0109644
-1.63854
-0.0126957
-1.63764
-0.0146908
-1.63662
-0.0169874
-1.63547
-0.0196275
-1.63417
-0.0226574
-1.63271
-0.0261274
-1.63108
-0.0300905
-1.62927
-0.0346013
-1.6273
-0.039712
-1.62517
-0.0454704
-0.0519217
-1.62291
-1.64244
-0.000148743
-1.64226
-4.29331e-05
-1.64215
-8.11212e-06
-1.64206
-1.66915e-06
-1.64198
-4.98496e-06
-1.6419
-1.29378e-05
-1.64182
-2.41191e-05
-1.64174
-3.82954e-05
-1.64166
-5.56247e-05
-1.64157
-7.64285e-05
-1.64149
-0.000101131
-1.64141
-0.000130265
-1.64132
-0.000164445
-1.64124
-0.000204389
-1.64115
-0.000250936
-1.64106
-0.000305079
-1.64097
-0.000367976
-1.64087
-0.000440965
-1.64078
-0.000525598
-1.64068
-0.000623679
-1.64058
-0.0007373
-1.64047
-0.000868884
-1.64036
-0.00102123
-1.64024
-0.0011976
-1.64011
-0.00140173
-1.63998
-0.00163799
-1.63984
-0.00191139
-1.63968
-0.00222775
-1.63951
-0.0025938
-1.63933
-0.0030173
-1.63913
-0.00350722
-1.63891
-0.00407389
-1.63867
-0.00472926
-1.6384
-0.00548706
-1.6381
-0.00636311
-1.63776
-0.00737556
-1.63737
-0.00854525
-1.63694
-0.00989595
-1.63645
-0.0114548
-1.63589
-0.0132524
-1.63526
-0.0153236
-1.63454
-0.0177068
-1.63372
-0.0204451
-1.6328
-0.0235851
-1.63175
-0.0271769
-1.63057
-0.0312731
-1.62924
-0.0359262
-1.62777
-0.0411855
-1.62614
-0.0470937
-0.0536898
-1.62438
-1.64368
0.000106727
-1.64372
-1.75664e-06
-1.64369
-4.22816e-05
-1.64363
-5.83498e-05
-1.64357
-6.89328e-05
-1.6435
-7.95184e-05
-1.64343
-9.19394e-05
-1.64336
-0.000106942
-1.64329
-0.000124988
-1.64322
-0.000146503
-1.64315
-0.000171952
-1.64308
-0.00020188
-1.64301
-0.000236918
-1.64294
-0.000277805
-1.64286
-0.000325402
-1.64279
-0.000380718
-1.64271
-0.000444928
-1.64263
-0.000519393
-1.64255
-0.000605692
-1.64247
-0.000705656
-1.64238
-0.00082141
-1.6423
-0.000955412
-1.64221
-0.00111051
-1.64212
-0.00128999
-1.64202
-0.00149768
-1.64192
-0.00173797
-1.64182
-0.00201599
-1.64171
-0.00233763
-1.64159
-0.00270971
-1.64147
-0.00314012
-1.64134
-0.00363798
-1.6412
-0.00421379
-1.64105
-0.00487971
-1.64088
-0.00564972
-1.64071
-0.00653993
-1.64051
-0.00756885
-1.6403
-0.00875773
-1.64007
-0.0101309
-1.6398
-0.011716
-1.63951
-0.0135445
-1.63918
-0.0156519
-1.63881
-0.0180778
-1.63839
-0.0208661
-1.63791
-0.0240648
-1.63736
-0.0277252
-1.63674
-0.031901
-1.63602
-0.0366462
-1.63519
-0.042011
-1.63425
-0.0480387
-0.0547651
-1.63317
-1.64369
-0.000278747
-1.64352
-0.000174962
-1.64342
-0.000141472
-1.64334
-0.000135996
-1.64327
-0.000140143
-1.6432
-0.000148825
-1.64314
-0.000160636
-1.64307
-0.000175348
-1.643
-0.00019313
-1.64293
-0.000214322
-1.64286
-0.000239366
-1.6428
-0.000268798
-1.64273
-0.000303247
-1.64266
-0.000343448
-1.6426
-0.000390261
-1.64254
-0.000444687
-1.64247
-0.000507887
-1.64241
-0.000581213
-1.64235
-0.000666231
-1.64229
-0.000764755
-1.64223
-0.00087889
-1.64218
-0.00101107
-1.64212
-0.00116413
-1.64207
-0.00134132
-1.64202
-0.00154644
-1.64198
-0.00178387
-1.64194
-0.00205866
-1.6419
-0.0023767
-1.64186
-0.00274475
-1.64183
-0.00317067
-1.64181
-0.00366352
-1.64179
-0.00423378
-1.64177
-0.00489356
-1.64176
-0.00565682
-1.64176
-0.00653965
-1.64177
-0.0075606
-1.64179
-0.00874097
-1.64182
-0.0101052
-1.64185
-0.0116811
-1.64189
-0.0135006
-1.64195
-0.0155995
-1.64201
-0.0180184
-1.64207
-0.0208021
-1.64213
-0.0240001
-1.64219
-0.0276656
-1.64224
-0.0318548
-1.64226
-0.0366248
-1.64224
-0.0420296
-1.64217
-0.0481164
-0.0549261
-1.642
-1.64059
-3.62285e-05
-1.64063
-0.000139267
-1.64059
-0.000178197
-1.64053
-0.000194216
-1.64047
-0.00020509
-1.6404
-0.000215931
-1.64033
-0.000228445
-1.64027
-0.000243335
-1.6402
-0.000261054
-1.64013
-0.000282023
-1.64006
-0.000306708
-1.64
-0.000335646
-1.63993
-0.000369459
-1.63987
-0.000408871
-1.6398
-0.000454724
-1.63974
-0.000507998
-1.63968
-0.000569827
-1.63962
-0.00064153
-1.63956
-0.000724633
-1.6395
-0.000820907
-1.63945
-0.000932403
-1.6394
-0.0010615
-1.63935
-0.00121094
-1.63931
-0.00138391
-1.63927
-0.00158411
-1.63924
-0.00181581
-1.63921
-0.00208394
-1.6392
-0.00239423
-1.63919
-0.00275331
-1.63919
-0.00316883
-1.6392
-0.00364969
-1.63923
-0.00420613
-1.63927
-0.00485002
-1.63934
-0.00559511
-1.63942
-0.00645724
-1.63952
-0.00745473
-1.63966
-0.00860871
-1.63982
-0.00994351
-1.64001
-0.0114871
-1.64024
-0.0132715
-1.64051
-0.0153333
-1.64081
-0.0177141
-1.64115
-0.0204606
-1.64153
-0.0236252
-1.64193
-0.0272652
-1.64234
-0.0314424
-1.64274
-0.0362216
-1.64311
-0.0416677
-1.64338
-0.0478406
-0.0547849
-1.64352
-1.64478
-0.000388693
-1.64463
-0.000293984
-1.64454
-0.000264329
-1.64448
-0.000260366
-1.64442
-0.000265144
-1.64436
-0.00027395
-1.6443
-0.000285488
-1.64425
-0.000299562
-1.64419
-0.000316348
-1.64414
-0.000336177
-1.64408
-0.000359477
-1.64403
-0.000386753
-1.64398
-0.000418597
-1.64394
-0.000455697
-1.64389
-0.00049885
-1.64385
-0.00054898
-1.64381
-0.00060716
-1.64378
-0.000674634
-1.64375
-0.000752841
-1.64373
-0.000843452
-1.64372
-0.000948399
-1.64371
-0.00106992
-1.64371
-0.00121062
-1.64372
-0.00137349
-1.64374
-0.00156202
-1.64378
-0.00178023
-1.64383
-0.00203281
-1.6439
-0.00232515
-1.64399
-0.00266351
-1.6441
-0.00305516
-1.64424
-0.00350851
-1.64441
-0.00403329
-1.64462
-0.00464079
-1.64487
-0.00534409
-1.64517
-0.00615836
-1.64553
-0.00710117
-1.64594
-0.00819287
-1.64643
-0.00945704
-1.64699
-0.010921
-1.64765
-0.0126162
-1.6484
-0.014579
-1.64927
-0.0168513
-1.65025
-0.0194809
-1.65135
-0.0225223
-1.65258
-0.0260365
-1.65393
-0.0300909
-1.65539
-0.0347581
-1.65695
-0.0401152
-1.65855
-0.0462371
-0.0531901
-1.66014
-1.63563
-0.000181918
-1.63565
-0.000273316
-1.63561
-0.00030856
-1.63554
-0.000323842
-1.63547
-0.000334426
-1.6354
-0.000344746
-1.63533
-0.000356313
-1.63526
-0.000369781
-1.63519
-0.000385586
-1.63512
-0.000404127
-1.63506
-0.000425839
-1.63499
-0.000451211
-1.63493
-0.000480801
-1.63487
-0.000515258
-1.63482
-0.000555325
-1.63476
-0.000601867
-1.63471
-0.000655884
-1.63467
-0.000718534
-1.63463
-0.00079116
-1.6346
-0.000875315
-1.63457
-0.000972801
-1.63456
-0.0010857
-1.63455
-0.00121644
-1.63456
-0.00136782
-1.63458
-0.00154308
-1.63461
-0.00174599
-1.63466
-0.00198089
-1.63474
-0.00225286
-1.63483
-0.00256774
-1.63495
-0.00293233
-1.63511
-0.00335452
-1.6353
-0.00384346
-1.63553
-0.00440978
-1.63581
-0.00506583
-1.63614
-0.005826
-1.63653
-0.00670698
-1.637
-0.00772829
-1.63754
-0.00891262
-1.63818
-0.0102865
-1.63891
-0.011881
-1.63976
-0.0137322
-1.64073
-0.0158824
-1.64183
-0.0183814
-1.64306
-0.0212869
-1.64443
-0.024666
-1.64593
-0.028595
-1.64753
-0.0331605
-1.64918
-0.0384626
-1.65081
-0.0446115
-0.0516964
-1.6523
-1.64636
-0.000467823
-1.64624
-0.000392695
-1.64617
-0.000371126
-1.64613
-0.000369971
-1.64609
-0.000375428
-1.64605
-0.000383765
-1.64601
-0.000394044
-1.64597
-0.000406197
-1.64594
-0.000420436
-1.64591
-0.000437082
-1.64588
-0.000456517
-1.64585
-0.00047918
-1.64582
-0.000505576
-1.6458
-0.000536281
-1.64578
-0.000571959
-1.64577
-0.000613379
-1.64577
-0.000661426
-1.64577
-0.000717129
-1.64578
-0.000781676
-1.6458
-0.000856442
-1.64583
-0.000943021
-1.64587
-0.00104326
-1.64593
-0.0011593
-1.646
-0.00129361
-1.6461
-0.00144907
-1.64621
-0.00162901
-1.64636
-0.00183728
-1.64653
-0.00207835
-1.64674
-0.00235741
-1.64699
-0.00268049
-1.64729
-0.00305457
-1.64765
-0.00348779
-1.64807
-0.00398962
-1.64856
-0.00457107
-1.64914
-0.005245
-1.64982
-0.00602645
-1.65062
-0.00693303
-1.65155
-0.00798543
-1.65263
-0.00920802
-1.65388
-0.0106296
-1.65532
-0.0122844
-1.65699
-0.0142131
-1.65891
-0.0164644
-1.6611
-0.0190971
-1.66358
-0.0221821
-1.66638
-0.0258023
-1.66948
-0.0300551
-1.67288
-0.0350607
-1.67653
-0.0409676
-0.0479294
-1.6803
-1.62381
-0.000327779
-1.62379
-0.000404501
-1.62373
-0.0004349
-1.62365
-0.000449205
-1.62357
-0.000459057
-1.62348
-0.000468117
-1.6234
-0.000477742
-1.62332
-0.000488571
-1.62324
-0.000501025
-1.62316
-0.000515467
-1.62308
-0.000532266
-1.62301
-0.00055182
-1.62294
-0.000574574
-1.62288
-0.000601032
-1.62282
-0.000631775
-1.62276
-0.00066747
-1.62271
-0.000708888
-1.62267
-0.00075692
-1.62264
-0.000812597
-1.62262
-0.000877116
-1.62261
-0.000951861
-1.62262
-0.00103843
-1.62264
-0.0011387
-1.62268
-0.00125481
-1.62274
-0.00138926
-1.62282
-0.00154495
-1.62293
-0.00172525
-1.62308
-0.00193405
-1.62326
-0.0021759
-1.62348
-0.00245607
-1.62376
-0.00278068
-1.62409
-0.00315689
-1.62449
-0.00359304
-1.62496
-0.0040989
-1.62552
-0.00468589
-1.62618
-0.00536748
-1.62695
-0.00615953
-1.62785
-0.00708086
-1.62891
-0.0081539
-1.63013
-0.00940557
-1.63155
-0.0108683
-1.63318
-0.0125817
-1.63505
-0.014594
-1.63718
-0.0169659
-1.63959
-0.0197737
-1.64228
-0.0231102
-1.64525
-0.0270865
-1.64846
-0.03185
-1.65181
-0.0376217
-0.0446572
-1.65508
-1.64191
-0.000471479
-1.64188
-0.00043288
-1.64189
-0.000424802
-1.64192
-0.000427391
-1.64194
-0.000432859
-1.64197
-0.000439473
-1.642
-0.000446981
-1.64203
-0.000455533
-1.64207
-0.000465373
-1.64211
-0.000476776
-1.64215
-0.000490035
-1.6422
-0.000505471
-1.64225
-0.000523438
-1.6423
-0.000544339
-1.64237
-0.000568634
-1.64244
-0.000596852
-1.64252
-0.000629601
-1.64261
-0.000667585
-1.64271
-0.00071162
-1.64282
-0.000762647
-1.64295
-0.000821758
-1.6431
-0.000890219
-1.64327
-0.000969494
-1.64346
-0.00106128
-1.64369
-0.00116756
-1.64394
-0.0012906
-1.64423
-0.00143306
-1.64457
-0.00159801
-1.64495
-0.00178904
-1.6454
-0.00201031
-1.64591
-0.00226666
-1.64651
-0.00256375
-1.64719
-0.00290818
-1.64798
-0.00330771
-1.6489
-0.00377143
-1.64996
-0.00431008
-1.65118
-0.00493641
-1.65259
-0.0056656
-1.65423
-0.0065159
-1.65613
-0.00750944
-1.65832
-0.00867332
-1.66086
-0.010041
-1.6638
-0.0116543
-1.6672
-0.0135674
-1.67112
-0.015852
-1.67563
-0.0186004
-1.68079
-0.0219252
-1.68667
-0.0259793
-1.69324
-0.0310431
-0.0375806
-1.70032
-1.56413
-0.000383657
-1.5641
-0.000455402
-1.56405
-0.00047777
-1.56399
-0.000488456
-1.56393
-0.000495499
-1.56386
-0.00050166
-1.5638
-0.000507922
-1.56374
-0.000514739
-1.56369
-0.0005224
-1.56363
-0.000531138
-1.56358
-0.000541178
-1.56353
-0.000552757
-1.56349
-0.000566133
-1.56345
-0.000581595
-1.56342
-0.000599474
-1.5634
-0.000620148
-1.56339
-0.000644055
-1.56338
-0.000671698
-1.56339
-0.000703661
-1.56341
-0.000740619
-1.56345
-0.000783356
-1.56351
-0.000832779
-1.56359
-0.000889937
-1.56369
-0.000956052
-1.56383
-0.00103253
-1.564
-0.00112103
-1.56421
-0.00122343
-1.56446
-0.00134197
-1.56477
-0.00147919
-1.56514
-0.00163812
-1.56559
-0.00182222
-1.56612
-0.00203558
-1.56674
-0.00228297
-1.56748
-0.00257
-1.56835
-0.00290326
-1.56937
-0.00329059
-1.57056
-0.00374131
-1.57196
-0.00426662
-1.5736
-0.00488015
-1.57551
-0.00559862
-1.57774
-0.00644296
-1.58034
-0.00743966
-1.58337
-0.00862288
-1.5869
-0.0100386
-1.591
-0.0117524
-1.59574
-0.0138581
-1.60119
-0.0164755
-1.60741
-0.0197604
-1.61441
-0.0240431
-0.0300713
-1.62192
-1.52358
-9.48106e-05
-1.52399
-4.45777e-05
-1.52443
-3.50502e-05
-1.52488
-3.33272e-05
-1.52535
-3.38831e-05
-1.52581
-3.5119e-05
-1.52628
-3.67167e-05
-1.52676
-3.86798e-05
-1.52724
-4.1093e-05
-1.52773
-4.40602e-05
-1.52822
-4.76937e-05
-1.52872
-5.21146e-05
-1.52923
-5.74565e-05
-1.52975
-6.38698e-05
-1.53028
-7.15255e-05
-1.53082
-8.06201e-05
-1.53137
-9.13799e-05
-1.53194
-0.000104067
-1.53252
-0.000118983
-1.53313
-0.000136479
-1.53375
-0.000156961
-1.5344
-0.000180901
-1.53508
-0.000208844
-1.5358
-0.000241425
-1.53655
-0.000279377
-1.53735
-0.000323557
-1.5382
-0.000374956
-1.53911
-0.000434728
-1.54008
-0.000504219
-1.54113
-0.000584995
-1.54228
-0.000678888
-1.54352
-0.000788043
-1.54489
-0.000914978
-1.5464
-0.00106266
-1.54807
-0.00123462
-1.54992
-0.00143504
-1.552
-0.00166897
-1.55432
-0.00194254
-1.55694
-0.00226328
-1.5599
-0.00264064
-1.56325
-0.00308671
-1.56707
-0.00361717
-1.57144
-0.00425289
-1.57646
-0.00502286
-1.58224
-0.00597092
-1.58893
-0.00716501
-1.59671
-0.008696
-1.60581
-0.0106596
-1.61662
-0.0132406
-0.0172496
-1.62944
-1.22762
-1.22767
-1.2277
-1.22773
-1.22777
-1.2278
-1.22784
-1.22788
-1.22792
-1.22796
-1.22801
-1.22806
-1.22812
-1.22818
-1.22826
-1.22834
-1.22843
-1.22853
-1.22865
-1.22879
-1.22894
-1.22913
-1.22933
-1.22958
-1.22985
-1.23018
-1.23055
-1.23099
-1.23149
-1.23208
-1.23276
-1.23354
-1.23446
-1.23552
-1.23676
-1.23819
-1.23986
-1.2418
-1.24407
-1.24671
-1.24979
-1.25341
-1.25766
-1.26269
-1.26866
-1.27582
-1.28452
-1.29518
-1.30842
-1.32567
1.62587
-0.0342492
1.638
-0.0121345
1.64684
-0.00883958
1.65127
-0.0044262
1.65284
-0.0015746
1.65294
-9.9119e-05
1.65225
0.0006927
1.65109
0.00116128
1.64964
0.00144749
1.64802
0.00161977
1.6463
0.00172103
1.64452
0.0017783
1.64271
0.00180765
1.64089
0.00181856
1.63908
0.00181687
1.63727
0.0018063
1.63548
0.00178923
1.63371
0.00176722
1.63197
0.00174123
1.63026
0.00171185
1.62858
0.00167938
1.62694
0.00164393
1.62533
0.00160541
1.62377
0.0015636
1.62225
0.00151815
1.62078
0.00146859
1.61937
0.00141427
1.61801
0.00135437
1.61673
0.00128792
1.61551
0.00121387
1.61438
0.00113102
1.61334
0.0010379
1.61241
0.000932905
1.6116
0.000812743
1.61092
0.000674965
1.61041
0.000516437
1.61007
0.000333471
1.60995
0.000121917
1.61007
-0.000123897
1.61049
-0.000412173
1.61124
-0.00075313
1.6124
-0.00115955
1.61405
-0.00164869
1.61629
-0.00224505
1.61928
-0.00298536
1.62321
-0.00392846
1.62838
-0.00517627
1.6353
-0.0069212
1.64487
-0.00956262
-0.0139726
1.65884
1.57532
-0.0179533
1.5719
-0.00871241
1.5662
-0.00314169
1.56319
-0.00141544
1.56174
-0.000121416
1.56096
0.000679824
1.56059
0.0010569
1.56052
0.00123069
1.56066
0.00131365
1.56093
0.00134735
1.5613
0.00135276
1.56173
0.0013428
1.56222
0.00132479
1.56273
0.00130238
1.56327
0.00127732
1.56383
0.0012504
1.5644
0.00122187
1.56497
0.00119163
1.56555
0.00115939
1.56614
0.00112469
1.56673
0.00108695
1.56733
0.00104548
1.56794
0.000999456
1.56855
0.000947932
1.56918
0.000889819
1.56983
0.000823876
1.57049
0.000748611
1.57118
0.0006621
1.57191
0.000562018
1.57268
0.000446273
1.5735
0.000312482
1.57438
0.000157054
1.57533
-2.42036e-05
1.57638
-0.000235752
1.57754
-0.000482693
1.57883
-0.000771376
1.58027
-0.00110951
1.5819
-0.00150644
1.58375
-0.00197438
1.58587
-0.00252828
1.5883
-0.00318623
1.59111
-0.00397208
1.59438
-0.00491743
1.5982
-0.00606553
1.60269
-0.00747758
1.60801
-0.00924359
1.61433
-0.011501
1.62188
-0.0144664
1.63081
-0.0184888
-0.0241166
1.64095
1.57763
-0.00396682
1.573
-0.00408398
1.57217
-0.00230619
1.57223
-0.00147691
1.57309
-0.000985548
1.57428
-0.000504722
1.57545
-0.000120032
1.57653
0.000155477
1.57749
0.000357111
1.57833
0.000507394
1.57906
0.00061809
1.57971
0.000698103
1.58028
0.000754593
1.58078
0.000792816
1.58125
0.000816472
1.58167
0.00082815
1.58206
0.000829631
1.58243
0.000822069
1.58278
0.000806119
1.58313
0.000782031
1.58346
0.000749714
1.5838
0.000708766
1.58414
0.000658488
1.58449
0.000597887
1.58485
0.000525758
1.58524
0.000440668
1.58565
0.00034086
1.58608
0.000223684
1.58656
8.597e-05
1.58708
-7.55976e-05
1.58766
-0.000264999
1.5883
-0.000486966
1.58903
-0.000747143
1.58984
-0.00105109
1.59077
-0.00140696
1.59182
-0.00182409
1.59302
-0.00231368
1.59441
-0.00288935
1.596
-0.00356788
1.59784
-0.00436977
1.59997
-0.00532031
1.60245
-0.00645162
1.60534
-0.00780523
1.60871
-0.0094358
1.61265
-0.0114169
1.61726
-0.0138495
1.62263
-0.0168747
1.62886
-0.0206904
1.63594
-0.0255712
-0.0318751
1.6437
1.59001
-0.00235602
1.58927
-0.00334322
1.58952
-0.00256422
1.58974
-0.00169077
1.5898
-0.00104492
1.58979
-0.000496828
1.58972
-4.87358e-05
1.58959
0.000280379
1.58944
0.000509263
1.58928
0.000665794
1.58913
0.000769676
1.58899
0.000834588
1.58888
0.000870783
1.58879
0.000885767
1.58872
0.000884761
1.58867
0.000871265
1.58866
0.000847531
1.58866
0.000814897
1.5887
0.000773997
1.58875
0.000724924
1.58883
0.000667324
1.58894
0.000600443
1.58908
0.000523127
1.58924
0.000433716
1.58944
0.000330465
1.58967
0.000211445
1.58993
7.38759e-05
1.59024
-8.5305e-05
1.5906
-0.000269576
1.59101
-0.000483545
1.59147
-0.000732825
1.59201
-0.00102338
1.59263
-0.00136227
1.59333
-0.00175763
1.59414
-0.00221956
1.59508
-0.00275998
1.59616
-0.00339308
1.59741
-0.00413589
1.59885
-0.00500899
1.60052
-0.00603734
1.60245
-0.00725147
1.60468
-0.00868914
1.60728
-0.0103976
1.61028
-0.0124368
1.61374
-0.0148834
1.61773
-0.0178361
1.62228
-0.0214219
1.62739
-0.0258022
1.63299
-0.0311735
-0.0377526
1.63887
1.59022
-0.000962853
1.58845
-0.00156458
1.58719
-0.00131312
1.58635
-0.000846868
1.58579
-0.000487184
1.5855
-0.000208196
1.58543
2.10783e-05
1.58552
0.000197376
1.5857
0.000323846
1.58596
0.000412094
1.58625
0.000472099
1.58658
0.000510404
1.58692
0.000531638
1.58726
0.000539225
1.58761
0.000535544
1.58796
0.000522102
1.58831
0.000499733
1.58866
0.000468743
1.589
0.00042901
1.58935
0.000380045
1.58969
0.000321061
1.59004
0.000250932
1.5904
0.000168269
1.59076
7.08537e-05
1.59113
-4.35336e-05
1.59152
-0.000177661
1.59193
-0.000334827
1.59236
-0.000518515
1.59283
-0.000732853
1.59333
-0.000983275
1.59387
-0.00127605
1.59447
-0.00161836
1.59512
-0.00201863
1.59585
-0.00248677
1.59667
-0.00303452
1.59758
-0.00367586
1.59862
-0.00442731
1.59979
-0.00530854
1.60112
-0.00634305
1.60264
-0.00755899
1.60438
-0.00899023
1.60637
-0.0106777
1.60865
-0.0126714
1.61124
-0.015032
1.61419
-0.0178342
1.61752
-0.0211687
1.62125
-0.0251447
1.62534
-0.0298907
1.62971
-0.0355494
-0.0422647
1.63422
1.59117
-0.000510647
1.59055
-0.000953353
1.59023
-0.000991402
1.5902
-0.000809771
1.5903
-0.000594948
1.59049
-0.000390752
1.5907
-0.000198391
1.59093
-2.86507e-05
1.59114
0.000109966
1.59134
0.000217348
1.59151
0.000297195
1.59167
0.000353345
1.59181
0.000389186
1.59195
0.000407681
1.59207
0.000411244
1.59219
0.000401663
1.59231
0.000380111
1.59243
0.000347205
1.59256
0.000303065
1.59269
0.000247331
1.59283
0.000179383
1.59298
9.80652e-05
1.59315
1.8405e-06
1.59333
-0.000111127
1.59353
-0.000243428
1.59375
-0.000398331
1.594
-0.00057935
1.59427
-0.000790598
1.59457
-0.00103699
1.59492
-0.00132449
1.5953
-0.0016601
1.59573
-0.00205198
1.59622
-0.00250969
1.59678
-0.00304442
1.59742
-0.00366937
1.59814
-0.00440012
1.59897
-0.005255
1.59992
-0.00625565
1.601
-0.00742763
1.60224
-0.00880119
1.60366
-0.0104121
1.60529
-0.0123027
1.60714
-0.0145234
1.60924
-0.0171333
1.61161
-0.0202022
1.61425
-0.0238112
1.61716
-0.0280522
1.6203
-0.0330259
1.62358
-0.0388348
-0.0455712
1.62689
1.59137
-0.000263416
1.59094
-0.000521053
1.59052
-0.000578374
1.5902
-0.000484867
1.58995
-0.00034085
1.58975
-0.000197217
1.58962
-6.68398e-05
1.58955
4.38198e-05
1.58953
0.000130262
1.58955
0.000192427
1.58962
0.000233192
1.58971
0.0002559
1.58984
0.000263409
1.58999
0.000258008
1.59016
0.000241411
1.59035
0.000214746
1.59055
0.000178586
1.59076
0.000132959
1.59099
7.74887e-05
1.59122
1.13633e-05
1.59147
-6.66497e-05
1.59173
-0.000158132
1.59199
-0.000265172
1.59227
-0.000389884
1.59256
-0.000535251
1.59287
-0.000704785
1.59319
-0.000902507
1.59354
-0.00113312
1.5939
-0.00140214
1.59429
-0.0017161
1.59472
-0.00208265
1.59517
-0.00251072
1.59567
-0.00301073
1.59623
-0.0035949
1.59683
-0.0042775
1.59751
-0.0050753
1.59826
-0.00600791
1.5991
-0.0070983
1.60005
-0.00837334
1.60111
-0.00986445
1.60231
-0.0116083
1.60365
-0.0136474
1.60516
-0.0160312
1.60684
-0.0188164
1.60871
-0.0220674
1.61075
-0.025856
1.61296
-0.0302602
1.6153
-0.0353609
1.6177
-0.0412367
-0.0479567
1.62009
1.59149
-0.000139563
1.59126
-0.000289952
1.59103
-0.000348086
1.59087
-0.000323267
1.59079
-0.00025926
1.59078
-0.00018737
1.59083
-0.000118753
1.59093
-5.76869e-05
1.59107
-7.44058e-06
1.59123
3.04357e-05
1.59141
5.61379e-05
1.59159
7.05391e-05
1.59178
7.44859e-05
1.59197
6.863e-05
1.59216
5.33943e-05
1.59235
2.89329e-05
1.59253
-4.89308e-06
1.59271
-4.85155e-05
1.59289
-0.000102679
1.59307
-0.000168397
1.59325
-0.000247155
1.59343
-0.000340709
1.59362
-0.000451178
1.59381
-0.000581042
1.59401
-0.000733364
1.59422
-0.000911787
1.59443
-0.00112057
1.59467
-0.00136469
1.59491
-0.00164999
1.59518
-0.00198334
1.59547
-0.00237277
1.59579
-0.0028277
1.59614
-0.00335911
1.59652
-0.00397982
1.59695
-0.00470483
1.59743
-0.00555161
1.59796
-0.00654055
1.59856
-0.00769537
1.59923
-0.00904361
1.59998
-0.0106171
1.60082
-0.0124527
1.60177
-0.0145925
1.60282
-0.0170843
1.60399
-0.019982
1.60526
-0.0233451
1.60665
-0.0272379
1.60811
-0.0317276
1.60963
-0.0368807
1.61115
-0.0427581
-0.0494083
1.61261
1.59154
-6.24859e-05
1.59138
-0.000133374
1.5912
-0.000166794
1.59104
-0.00016258
1.59092
-0.000136941
1.59084
-0.000104918
1.59079
-7.38765e-05
1.59078
-4.71697e-05
1.5908
-2.71201e-05
1.59085
-1.50995e-05
1.59091
-1.1452e-05
1.591
-1.59708e-05
1.5911
-2.83471e-05
1.59122
-4.83609e-05
1.59135
-7.59546e-05
1.59149
-0.000111288
1.59164
-0.000154775
1.5918
-0.000207057
1.59197
-0.000269091
1.59214
-0.000342127
1.59232
-0.000427766
1.59251
-0.000527938
1.5927
-0.000644946
1.5929
-0.000781513
1.59311
-0.000940875
1.59332
-0.00112685
1.59355
-0.00134391
1.59378
-0.00159726
1.59402
-0.001893
1.59428
-0.00223827
1.59455
-0.00264138
1.59483
-0.00311206
1.59513
-0.00366162
1.59546
-0.00430327
1.5958
-0.00505236
1.59618
-0.00592676
1.59659
-0.00694719
1.59703
-0.00813767
1.59751
-0.00952592
1.59804
-0.0111438
1.59861
-0.0130277
1.59924
-0.0152189
1.59992
-0.0177637
1.60065
-0.0207135
1.60143
-0.0241239
1.60224
-0.0280537
1.60308
-0.0325632
1.60391
-0.0377104
1.6047
-0.0435471
-0.0501166
1.60541
1.59156
-5.03077e-06
1.59144
-1.25249e-05
1.59129
-2.03028e-05
1.59116
-2.85742e-05
1.59106
-3.75476e-05