/*--------------------------------*- C++ -*----------------------------------*\
  =========                 |
  \\      /  F ield         | OpenFOAM: The Open Source CFD Toolbox
   \\    /   O peration     | Website:  https://openfoam.org
    \\  /    A nd           | Version:  8
     \\/     M anipulation  |
\*---------------------------------------------------------------------------*/
FoamFile
{
    version     2.0;
    format      ascii;
    class       volScalarField;
    location    "700";
    object      epsilon;
}
// * * * * * * * * * * * * * * * * * * * * * * * * * * * * * * * * * * * * * //

dimensions      [0 2 -3 0 0 0 0];

internalField   nonuniform List<scalar> 
1200
(
5.35777e-06
5.27321e-06
5.18914e-06
5.09559e-06
4.99038e-06
4.88501e-06
4.78192e-06
4.69679e-06
4.61065e-06
4.5197e-06
4.72525e-06
5.05583e-06
5.30446e-06
5.5531e-06
5.77885e-06
6.22759e-06
7.12223e-06
8.12001e-06
9.48256e-06
1.04202e-05
1.15972e-05
1.19479e-05
3.11044e-05
3.17916e-05
3.31936e-05
3.53302e-05
3.76879e-05
3.98583e-05
4.20176e-05
4.54454e-05
5.01148e-05
5.4882e-05
6.00486e-05
6.53563e-05
7.03384e-05
7.52192e-05
8.0285e-05
8.58067e-05
9.0495e-05
9.14047e-05
9.4232e-05
0.000104706
0.000118641
0.000133123
0.000142661
0.00015178
0.000163215
0.000176845
0.000192117
0.000207973
0.000224837
0.00024
0.000248376
0.000265912
0.000293852
0.000322234
0.000356983
0.000400803
0.000635858
0.00130941
5.37555e-06
4.66141e-06
4.05939e-06
3.53787e-06
3.08357e-06
2.70922e-06
2.40833e-06
2.1946e-06
1.96446e-06
2.14626e-06
3.4894e-06
3.71418e-06
3.22216e-06
2.45424e-06
2.26081e-06
2.40999e-06
2.66224e-06
2.89442e-06
3.44924e-06
4.07601e-06
5.08114e-06
6.15323e-06
7.23458e-06
8.18119e-06
9.09103e-06
1.02072e-05
1.11107e-05
1.12295e-05
1.09456e-05
5.46384e-05
6.6566e-05
6.23319e-05
5.59773e-05
5.49194e-05
5.66304e-05
5.76639e-05
5.79934e-05
5.31298e-05
1.16411e-05
5.20071e-05
5.86626e-05
6.59617e-05
5.55274e-05
7.1916e-05
7.61128e-05
7.01658e-05
6.39953e-05
5.80906e-05
0.00010109
0.000104981
8.70136e-05
6.85365e-05
0.000134869
0.000104364
0.000121648
0.000286266
0.0011827
0.002654
0.00430891
0.0112869
5.36724e-06
4.62713e-06
3.99491e-06
3.44128e-06
2.95674e-06
2.54495e-06
2.20162e-06
1.91994e-06
1.68658e-06
1.94187e-06
2.83493e-06
2.59865e-06
1.50523e-06
1.41591e-06
2.3813e-06
2.91509e-06
2.79071e-06
3.20182e-06
4.35339e-06
4.79177e-06
6.67928e-06
8.16475e-06
9.76515e-06
1.1558e-05
5.36251e-05
7.00361e-05
8.66417e-05
0.000103543
0.000119999
0.000135064
0.000147033
0.000154415
0.000160003
0.000167458
0.000174702
0.000183717
0.000196075
0.000212017
0.000232348
0.000257046
0.000285512
0.000317046
0.000351433
0.000389562
0.000432073
0.000488258
0.000562771
0.000631549
0.000674201
0.000683512
0.000675599
0.000933295
0.00143863
0.00222634
0.00313542
0.00416263
0.00622557
0.00928249
0.0134431
0.0194103
5.36699e-06
4.62861e-06
3.99815e-06
3.44596e-06
2.96062e-06
2.54613e-06
2.19595e-06
1.894e-06
1.64092e-06
1.81169e-06
2.40387e-06
2.33791e-06
1.86003e-06
1.6335e-06
2.62174e-06
3.73366e-06
4.07859e-06
5.95152e-06
9.25772e-06
1.03165e-05
1.11224e-05
4.9527e-05
6.1865e-05
7.6276e-05
9.31693e-05
0.000111745
0.000131057
0.000150712
0.000171046
0.000192563
0.000213634
0.000234409
0.000253736
0.000271009
0.00028743
0.000302836
0.000316558
0.00032735
0.000332416
0.0003297
0.000321052
0.000314488
0.00032785
0.000371073
0.000435966
0.000519833
0.000626927
0.000771127
0.000964028
0.00121814
0.00153583
0.00195786
0.00261422
0.00352226
0.00467368
0.00613405
0.00820648
0.0110648
0.0149196
0.0201579
5.367e-06
4.62801e-06
3.99654e-06
3.4438e-06
2.95995e-06
2.54666e-06
2.19912e-06
1.89724e-06
1.63946e-06
1.61893e-06
1.9464e-06
2.02029e-06
1.84986e-06
1.63071e-06
1.72584e-06
3.39777e-06
4.03673e-06
4.35276e-06
5.46463e-06
7.49073e-06
9.88793e-06
1.09346e-05
4.92972e-05
5.68104e-05
6.8634e-05
8.05695e-05
9.28809e-05
0.000105991
0.000119513
0.000132339
0.000144818
0.000156486
0.00016596
0.000171631
0.000173496
0.000172142
0.000168304
0.000162199
0.000159038
0.000168488
0.000186056
0.000208375
0.000237817
0.000273875
0.000319097
0.000380499
0.000472445
0.000618932
0.000838845
0.00114043
0.00152409
0.00200055
0.00261932
0.0034352
0.00450846
0.0059306
0.00783387
0.0104432
0.014153
0.0195818
5.36715e-06
4.62783e-06
3.99572e-06
3.44337e-06
2.96151e-06
2.55114e-06
2.20548e-06
1.90655e-06
1.64793e-06
1.50795e-06
1.5983e-06
1.64643e-06
1.57649e-06
1.4678e-06
1.42249e-06
1.76199e-06
2.23442e-06
2.58863e-06
3.28892e-06
4.74766e-06
7.02925e-06
8.90869e-06
1.05219e-05
1.16455e-05
1.16576e-05
5.01679e-05
5.49984e-05
6.01135e-05
6.5912e-05
7.15119e-05
8.1251e-05
9.15741e-05
9.81948e-05
0.000102124
0.000104153
0.00010516
0.000105937
0.000104862
0.000100444
9.24844e-05
8.399e-05
7.8603e-05
8.27487e-05
8.653e-05
9.18642e-05
0.000142579
0.000163231
0.000233076
0.000376354
0.000608414
0.000923105
0.00131536
0.00180468
0.00244742
0.00338584
0.00470526
0.00638781
0.00859482
0.011802
0.0178679
5.36744e-06
4.62818e-06
3.99598e-06
3.44427e-06
2.96402e-06
2.55608e-06
2.21303e-06
1.91696e-06
1.662e-06
1.46784e-06
1.40001e-06
1.36435e-06
1.2961e-06
1.22708e-06
1.18012e-06
1.24731e-06
1.40133e-06
1.62137e-06
1.93666e-06
2.71562e-06
4.06348e-06
5.74621e-06
7.49792e-06
8.93189e-06
9.65156e-06
1.00407e-05
1.04662e-05
1.09099e-05
1.13651e-05
1.14902e-05
1.15973e-05
4.99137e-05
1.16714e-05
5.21882e-05
5.58237e-05
5.66395e-05
5.53953e-05
5.40816e-05
5.57558e-05
5.92113e-05
5.9076e-05
5.53801e-05
5.32858e-05
5.23957e-05
4.99109e-05
4.94926e-05
1.13308e-05
1.10218e-05
1.10595e-05
7.79768e-05
0.000275923
0.000507275
0.00058196
0.000511453
0.00101128
0.00179897
0.00263558
0.00346094
0.00551738
0.0127173
5.36802e-06
4.62653e-06
3.99161e-06
3.43848e-06
2.95953e-06
2.55433e-06
2.21222e-06
1.91685e-06
1.66464e-06
1.45987e-06
1.32204e-06
1.22355e-06
1.13378e-06
1.06238e-06
1.01005e-06
9.9389e-07
1.02273e-06
1.10656e-06
1.23491e-06
1.5689e-06
2.161e-06
3.08134e-06
4.32849e-06
5.52032e-06
6.39839e-06
6.99737e-06
7.45515e-06
7.8922e-06
8.39482e-06
8.92742e-06
9.40445e-06
9.81448e-06
1.01778e-05
1.05518e-05
1.08788e-05
1.10534e-05
1.10947e-05
1.11159e-05
1.12285e-05
1.14063e-05
1.15103e-05
1.14768e-05
1.14013e-05
1.13333e-05
1.11567e-05
1.0916e-05
1.06472e-05
1.04277e-05
1.02514e-05
1.00511e-05
5.00914e-05
9.62626e-05
0.000149799
0.000139144
0.000146307
0.000299674
0.000606374
0.000803273
0.00109679
0.00243362
5.37658e-06
4.65977e-06
4.05141e-06
3.52124e-06
3.05625e-06
2.66433e-06
2.33249e-06
2.04112e-06
1.78664e-06
1.56937e-06
1.39943e-06
1.27191e-06
1.1714e-06
1.08669e-06
1.01431e-06
9.58203e-07
9.25112e-07
9.20319e-07
9.42165e-07
1.03862e-06
1.22989e-06
1.56827e-06
2.12504e-06
2.77152e-06
3.36088e-06
3.83111e-06
4.21261e-06
4.57872e-06
4.98826e-06
5.45917e-06
5.93984e-06
6.39072e-06
6.8281e-06
7.24512e-06
7.58754e-06
7.84494e-06
8.07382e-06
8.33084e-06
8.62056e-06
8.88821e-06
9.07466e-06
9.17297e-06
9.20422e-06
9.16297e-06
9.21585e-06
9.48556e-06
9.7206e-06
9.72568e-06
9.71612e-06
9.84229e-06
1.0109e-05
1.12955e-05
5.34137e-05
5.15475e-05
5.01988e-05
6.28256e-05
9.79731e-05
0.000135955
0.000189538
0.000320793
5.35417e-06
5.2733e-06
5.1917e-06
5.09644e-06
4.99531e-06
4.89698e-06
4.78695e-06
4.62139e-06
4.3963e-06
4.1069e-06
3.87505e-06
3.79778e-06
3.86548e-06
3.95491e-06
4.00874e-06
3.98721e-06
3.89426e-06
3.78151e-06
3.71616e-06
3.63498e-06
3.639e-06
3.71408e-06
3.85728e-06
4.10423e-06
4.45465e-06
4.90186e-06
5.44659e-06
6.09533e-06
6.86382e-06
7.76091e-06
8.78318e-06
9.93269e-06
1.12044e-05
3.14012e-05
3.46535e-05
3.83394e-05
4.26148e-05
4.74468e-05
5.2665e-05
5.82208e-05
6.43266e-05
7.12077e-05
7.9166e-05
8.89457e-05
0.000100255
0.000111538
0.000123084
0.000135206
0.00014783
0.000160441
0.000169774
0.000175927
0.000189825
0.000213212
0.00023302
0.000246587
0.000264167
0.000290849
0.00032004
0.00035459
5.35292e-06
5.27524e-06
5.19738e-06
5.09817e-06
4.97842e-06
4.87416e-06
4.7766e-06
4.6949e-06
4.60742e-06
4.5296e-06
4.72891e-06
5.05818e-06
5.29906e-06
5.53307e-06
5.75875e-06
6.19467e-06
7.06149e-06
8.02507e-06
9.39322e-06
1.03781e-05
1.15725e-05
1.19493e-05
3.11319e-05
3.18162e-05
3.321e-05
3.53446e-05
3.77284e-05
3.99578e-05
4.20189e-05
4.50648e-05
4.96815e-05
5.45006e-05
5.97223e-05
6.52735e-05
7.06654e-05
7.57683e-05
8.08904e-05
8.64514e-05
9.12008e-05
9.29822e-05
9.70812e-05
0.000108862
0.000123436
0.000134058
0.00014147
0.000150791
0.00016332
0.000177776
0.000193076
0.000209035
0.000227099
0.000241899
0.000250207
0.000270058
0.000296686
0.000322012
0.000352372
0.000394714
0.000589536
0.00121209
5.37576e-06
4.66296e-06
4.05965e-06
3.53646e-06
3.08655e-06
2.71504e-06
2.41542e-06
2.19809e-06
1.97222e-06
2.1361e-06
3.46945e-06
3.70433e-06
3.2171e-06
2.43676e-06
2.2458e-06
2.39579e-06
2.64673e-06
2.88297e-06
3.43941e-06
4.06539e-06
5.06785e-06
6.13543e-06
7.21519e-06
8.17524e-06
9.07608e-06
1.01879e-05
1.1124e-05
1.14016e-05
1.09421e-05
5.12178e-05
6.49707e-05
6.32755e-05
5.71203e-05
5.46479e-05
5.44916e-05
5.49639e-05
5.46496e-05
1.14605e-05
1.1369e-05
4.93537e-05
5.16937e-05
5.25233e-05
5.16916e-05
7.83245e-05
7.78547e-05
7.00299e-05
6.38132e-05
5.836e-05
0.000103359
0.000104944
8.78971e-05
7.08983e-05
0.000123771
0.00011817
0.00013599
0.000299929
0.0011407
0.00259265
0.00416489
0.0120585
5.36768e-06
4.62886e-06
3.99466e-06
3.43915e-06
2.95692e-06
2.54733e-06
2.20326e-06
1.92036e-06
1.68663e-06
1.92764e-06
2.81814e-06
2.59911e-06
1.51757e-06
1.43857e-06
2.39443e-06
2.92286e-06
2.79086e-06
3.16949e-06
4.42434e-06
4.8154e-06
6.67349e-06
8.14416e-06
9.68183e-06
1.15176e-05
5.29836e-05
6.92968e-05
8.57363e-05
0.000102367
0.000118425
0.000132987
0.000144764
0.000152148
0.000157377
0.000163823
0.000170548
0.000178366
0.000189484
0.000204417
0.000224619
0.000251314
0.000279016
0.00030922
0.000342742
0.000380076
0.000421441
0.000476971
0.000549006
0.000612771
0.000650956
0.000653492
0.000662269
0.000923826
0.00147848
0.00230268
0.00326004
0.00432042
0.00641261
0.00943021
0.0135843
0.0194694
5.36765e-06
4.63051e-06
3.99826e-06
3.44373e-06
2.96002e-06
2.5478e-06
2.19735e-06
1.89447e-06
1.6404e-06
1.7989e-06
2.38959e-06
2.33405e-06
1.85981e-06
1.65574e-06
2.64201e-06
3.74645e-06
4.07695e-06
5.87436e-06
9.27662e-06
1.0327e-05
1.11246e-05
4.94506e-05
6.17917e-05
7.60557e-05
9.28477e-05
0.000111279
0.000130397
0.000149791
0.000169734
0.000190981
0.000211816
0.000231896
0.000250682
0.000267276
0.000282406
0.000296368
0.000308547
0.000317767
0.00032162
0.000318361
0.000310196
0.000306591
0.000324857
0.000370938
0.000434774
0.000516425
0.000622624
0.000764865
0.00095742
0.00121217
0.00153735
0.00196839
0.00262306
0.00353193
0.00469353
0.00617804
0.00826847
0.0111259
0.0149795
0.0201818
5.36782e-06
4.62975e-06
3.99583e-06
3.44113e-06
2.95976e-06
2.5501e-06
2.20261e-06
1.89911e-06
1.63969e-06
1.6116e-06
1.93565e-06
2.01423e-06
1.84656e-06
1.62899e-06
1.74599e-06
3.42334e-06
4.04751e-06
4.35003e-06
5.45302e-06
7.46728e-06
9.89904e-06
1.0913e-05
1.15688e-05
5.67253e-05
6.84753e-05
8.02895e-05
9.24301e-05
0.00010538
0.000118772
0.000131097
0.000142617
0.00015365
0.000162523
0.000168201
0.000170421
0.000169837
0.000167384
0.000164155
0.000165111
0.000174468
0.000188604
0.00020806
0.000238018
0.000273877
0.000316901
0.000372815
0.000462346
0.000610259
0.000830159
0.00113082
0.00151538
0.00199388
0.00261258
0.00342933
0.00450667
0.00593617
0.0078455
0.010455
0.01416
0.0195767
5.36819e-06
4.6295e-06
3.99507e-06
3.4409e-06
2.96084e-06
2.5541e-06
2.21013e-06
1.90973e-06
1.64971e-06
1.50484e-06
1.59189e-06
1.64163e-06
1.57361e-06
1.46719e-06
1.42312e-06
1.76619e-06
2.24605e-06
2.58454e-06
3.29401e-06
4.74549e-06
7.02545e-06
8.91405e-06
1.0519e-05
1.16355e-05
1.15424e-05
5.00243e-05
5.48347e-05
6.0052e-05
6.61434e-05
7.14701e-05
7.99739e-05
8.95516e-05
9.60779e-05
0.000100272
0.000102636
0.00010383
0.000104362
0.000102596
9.74547e-05
8.98581e-05
8.31804e-05
7.99551e-05
8.54471e-05
9.01693e-05
9.82062e-05
0.000121603
0.000151196
0.000228358
0.00036826
0.000598639
0.000913535
0.0013012
0.00178626
0.0024291
0.0033752
0.004712
0.0064245
0.0086625
0.0117839
0.0174819
5.3688e-06
4.62982e-06
3.99523e-06
3.44175e-06
2.96302e-06
2.55798e-06
2.215e-06
1.91673e-06
1.66008e-06
1.46661e-06
1.39714e-06
1.3619e-06
1.29501e-06
1.22875e-06
1.18328e-06
1.25219e-06
1.40513e-06
1.621e-06
1.94181e-06
2.71713e-06
4.05953e-06
5.74026e-06
7.48212e-06
8.90374e-06
9.62258e-06
1.00126e-05
1.04355e-05
1.08738e-05
1.13389e-05
1.16594e-05
1.16716e-05
5.03394e-05
4.93506e-05
5.15513e-05
5.52934e-05
5.66004e-05
5.58481e-05
5.4287e-05
5.45753e-05
5.72691e-05
5.7715e-05
5.46117e-05
5.29828e-05
5.2389e-05
5.03474e-05
4.9848e-05
1.13146e-05
1.09992e-05
1.06328e-05
7.36657e-05
0.000270962
0.000500221
0.000566107
0.00049508
0.0010054
0.001794
0.00263003
0.00346822
0.00573299
0.0128829
5.36955e-06
4.62773e-06
3.99069e-06
3.4365e-06
2.95903e-06
2.55556e-06
2.21209e-06
1.91464e-06
1.66244e-06
1.45859e-06
1.32059e-06
1.22288e-06
1.13416e-06
1.06446e-06
1.01422e-06
1.00046e-06
1.02791e-06
1.10803e-06
1.2377e-06
1.57115e-06
2.16186e-06
3.07872e-06
4.3179e-06
5.49454e-06
6.36626e-06
6.96692e-06
7.43079e-06
7.87955e-06
8.40182e-06
8.95259e-06
9.43449e-06
9.85209e-06
1.02304e-05
1.06109e-05
1.09283e-05
1.1085e-05
1.1118e-05
1.11502e-05
1.12836e-05
1.14672e-05
1.15601e-05
1.15126e-05
1.14197e-05
1.13484e-05
1.1202e-05
1.09616e-05
1.06724e-05
1.0447e-05
1.02434e-05
1.00448e-05
1.15688e-05
9.29735e-05
0.000146372
0.00013405
0.000140964
0.000298119
0.000607475
0.000812615
0.00113324
0.00251764
5.37815e-06
4.66088e-06
4.0499e-06
3.51774e-06
3.05498e-06
2.66573e-06
2.33304e-06
2.03979e-06
1.78555e-06
1.56927e-06
1.39981e-06
1.27276e-06
1.17248e-06
1.08761e-06
1.01476e-06
9.58611e-07
9.26213e-07
9.21203e-07
9.43473e-07
1.03995e-06
1.23168e-06
1.5691e-06
2.12334e-06
2.7605e-06
3.34245e-06
3.80963e-06
4.19438e-06
4.5687e-06
4.99104e-06
5.47459e-06
5.96043e-06
6.41235e-06
6.85446e-06
7.27419e-06
7.60836e-06
7.86054e-06
8.09629e-06
8.36788e-06
8.66668e-06
8.92732e-06
9.09376e-06
9.17199e-06
9.19407e-06
9.15551e-06
9.26172e-06
9.48488e-06
9.63056e-06
9.61198e-06
9.66551e-06
9.88283e-06
1.01869e-05
1.13871e-05
5.2261e-05
5.02065e-05
4.94859e-05
6.26025e-05
9.86215e-05
0.000139078
0.000196974
0.000338462
5.35779e-06
5.27435e-06
5.18699e-06
5.09518e-06
5.00511e-06
4.90935e-06
4.7916e-06
4.62531e-06
4.40132e-06
4.10923e-06
3.87572e-06
3.79987e-06
3.87173e-06
3.96651e-06
4.02078e-06
3.98778e-06
3.88464e-06
3.77018e-06
3.70353e-06
3.62788e-06
3.63491e-06
3.70935e-06
3.84812e-06
4.09268e-06
4.4412e-06
4.88851e-06
5.43585e-06
6.09106e-06
6.86817e-06
7.76784e-06
8.78641e-06
9.93156e-06
1.11908e-05
3.12929e-05
3.4528e-05
3.82603e-05
4.25988e-05
4.74377e-05
5.26174e-05
5.81922e-05
6.44392e-05
7.15286e-05
7.96606e-05
8.95162e-05
0.000100342
0.000111282
0.000122676
0.000134771
0.000147303
0.000159699
0.000169273
0.000177037
0.00019349
0.000216366
0.000233502
0.000245574
0.000263141
0.000289691
0.000318147
0.000353204
)
;

boundaryField
{
    wall
    {
        type            epsilonWallFunction;
        value           nonuniform List<scalar> 
1200
(
5.35777e-06
5.37555e-06
5.36724e-06
5.36699e-06
5.367e-06
5.36715e-06
5.36744e-06
5.36802e-06
5.37658e-06
5.35417e-06
5.27321e-06
4.66141e-06
4.62713e-06
4.62861e-06
4.62801e-06
4.62783e-06
4.62818e-06
4.62653e-06
4.65977e-06
5.2733e-06
5.18914e-06
4.05939e-06
3.99491e-06
3.99815e-06
3.99654e-06
3.99572e-06
3.99598e-06
3.99161e-06
4.05141e-06
5.1917e-06
5.09559e-06
3.53787e-06
3.44128e-06
3.44596e-06
3.4438e-06
3.44337e-06
3.44427e-06
3.43848e-06
3.52124e-06
5.09644e-06
4.99038e-06
3.08357e-06
2.95674e-06
2.96062e-06
2.95995e-06
2.96151e-06
2.96402e-06
2.95953e-06
3.05625e-06
4.99531e-06
4.88501e-06
2.70922e-06
2.54495e-06
2.54613e-06
2.54666e-06
2.55114e-06
2.55608e-06
2.55433e-06
2.66433e-06
4.89698e-06
4.78192e-06
2.40833e-06
2.20162e-06
2.19595e-06
2.19912e-06
2.20548e-06
2.21303e-06
2.21222e-06
2.33249e-06
4.78695e-06
4.69679e-06
2.1946e-06
1.91994e-06
1.894e-06
1.89724e-06
1.90655e-06
1.91696e-06
1.91685e-06
2.04112e-06
4.62139e-06
4.61065e-06
1.96446e-06
1.68658e-06
1.64092e-06
1.63946e-06
1.64793e-06
1.662e-06
1.66464e-06
1.78664e-06
4.3963e-06
4.5197e-06
2.14626e-06
1.94187e-06
1.81169e-06
1.61893e-06
1.50795e-06
1.46784e-06
1.45987e-06
1.56937e-06
4.1069e-06
4.72525e-06
3.4894e-06
2.83493e-06
2.40387e-06
1.9464e-06
1.5983e-06
1.40001e-06
1.32204e-06
1.39943e-06
3.87505e-06
5.05583e-06
3.71418e-06
2.59865e-06
2.33791e-06
2.02029e-06
1.64643e-06
1.36435e-06
1.22355e-06
1.27191e-06
3.79778e-06
5.30446e-06
3.22216e-06
1.50523e-06
1.86003e-06
1.84986e-06
1.57649e-06
1.2961e-06
1.13378e-06
1.1714e-06
3.86548e-06
5.5531e-06
2.45424e-06
1.41591e-06
1.6335e-06
1.63071e-06
1.4678e-06
1.22708e-06
1.06238e-06
1.08669e-06
3.95491e-06
5.77885e-06
2.26081e-06
2.3813e-06
2.62174e-06
1.72584e-06
1.42249e-06
1.18012e-06
1.01005e-06
1.01431e-06
4.00874e-06
6.22759e-06
2.40999e-06
2.91509e-06
3.73366e-06
3.39777e-06
1.76199e-06
1.24731e-06
9.9389e-07
9.58203e-07
3.98721e-06
7.12223e-06
2.66224e-06
2.79071e-06
4.07859e-06
4.03673e-06
2.23442e-06
1.40133e-06
1.02273e-06
9.25112e-07
3.89426e-06
8.12001e-06
2.89442e-06
3.20182e-06
5.95152e-06
4.35276e-06
2.58863e-06
1.62137e-06
1.10656e-06
9.20319e-07
3.78151e-06
9.48256e-06
3.44924e-06
4.35339e-06
9.25772e-06
5.46463e-06
3.28892e-06
1.93666e-06
1.23491e-06
9.42165e-07
3.71616e-06
1.04202e-05
4.07601e-06
4.79177e-06
1.03165e-05
7.49073e-06
4.74766e-06
2.71562e-06
1.5689e-06
1.03862e-06
3.63498e-06
1.15972e-05
5.08114e-06
6.67928e-06
1.11224e-05
9.88793e-06
7.02925e-06
4.06348e-06
2.161e-06
1.22989e-06
3.639e-06
1.19479e-05
6.15323e-06
8.16475e-06
4.9527e-05
1.09346e-05
8.90869e-06
5.74621e-06
3.08134e-06
1.56827e-06
3.71408e-06
3.11044e-05
7.23458e-06
9.76515e-06
6.1865e-05
4.92972e-05
1.05219e-05
7.49792e-06
4.32849e-06
2.12504e-06
3.85728e-06
3.17916e-05
8.18119e-06
1.1558e-05
7.6276e-05
5.68104e-05
1.16455e-05
8.93189e-06
5.52032e-06
2.77152e-06
4.10423e-06
3.31936e-05
9.09103e-06
5.36251e-05
9.31693e-05
6.8634e-05
1.16576e-05
9.65156e-06
6.39839e-06
3.36088e-06
4.45465e-06
3.53302e-05
1.02072e-05
7.00361e-05
0.000111745
8.05695e-05
5.01679e-05
1.00407e-05
6.99737e-06
3.83111e-06
4.90186e-06
3.76879e-05
1.11107e-05
8.66417e-05
0.000131057
9.28809e-05
5.49984e-05
1.04662e-05
7.45515e-06
4.21261e-06
5.44659e-06
3.98583e-05
1.12295e-05
0.000103543
0.000150712
0.000105991
6.01135e-05
1.09099e-05
7.8922e-06
4.57872e-06
6.09533e-06
4.20176e-05
1.09456e-05
0.000119999
0.000171046
0.000119513
6.5912e-05
1.13651e-05
8.39482e-06
4.98826e-06
6.86382e-06
4.54454e-05
5.46384e-05
0.000135064
0.000192563
0.000132339
7.15119e-05
1.14902e-05
8.92742e-06
5.45917e-06
7.76091e-06
5.01148e-05
6.6566e-05
0.000147033
0.000213634
0.000144818
8.1251e-05
1.15973e-05
9.40445e-06
5.93984e-06
8.78318e-06
5.4882e-05
6.23319e-05
0.000154415
0.000234409
0.000156486
9.15741e-05
4.99137e-05
9.81448e-06
6.39072e-06
9.93269e-06
6.00486e-05
5.59773e-05
0.000160003
0.000253736
0.00016596
9.81948e-05
1.16714e-05
1.01778e-05
6.8281e-06
1.12044e-05
6.53563e-05
5.49194e-05
0.000167458
0.000271009
0.000171631
0.000102124
5.21882e-05
1.05518e-05
7.24512e-06
3.14012e-05
7.03384e-05
5.66304e-05
0.000174702
0.00028743
0.000173496
0.000104153
5.58237e-05
1.08788e-05
7.58754e-06
3.46535e-05
7.52192e-05
5.76639e-05
0.000183717
0.000302836
0.000172142
0.00010516
5.66395e-05
1.10534e-05
7.84494e-06
3.83394e-05
8.0285e-05
5.79934e-05
0.000196075
0.000316558
0.000168304
0.000105937
5.53953e-05
1.10947e-05
8.07382e-06
4.26148e-05
8.58067e-05
5.31298e-05
0.000212017
0.00032735
0.000162199
0.000104862
5.40816e-05
1.11159e-05
8.33084e-06
4.74468e-05
9.0495e-05
1.16411e-05
0.000232348
0.000332416
0.000159038
0.000100444
5.57558e-05
1.12285e-05
8.62056e-06
5.2665e-05
9.14047e-05
5.20071e-05
0.000257046
0.0003297
0.000168488
9.24844e-05
5.92113e-05
1.14063e-05
8.88821e-06
5.82208e-05
9.4232e-05
5.86626e-05
0.000285512
0.000321052
0.000186056
8.399e-05
5.9076e-05
1.15103e-05
9.07466e-06
6.43266e-05
0.000104706
6.59617e-05
0.000317046
0.000314488
0.000208375
7.8603e-05
5.53801e-05
1.14768e-05
9.17297e-06
7.12077e-05
0.000118641
5.55274e-05
0.000351433
0.00032785
0.000237817
8.27487e-05
5.32858e-05
1.14013e-05
9.20422e-06
7.9166e-05
0.000133123
7.1916e-05
0.000389562
0.000371073
0.000273875
8.653e-05
5.23957e-05
1.13333e-05
9.16297e-06
8.89457e-05
0.000142661
7.61128e-05
0.000432073
0.000435966
0.000319097
9.18642e-05
4.99109e-05
1.11567e-05
9.21585e-06
0.000100255
0.00015178
7.01658e-05
0.000488258
0.000519833
0.000380499
0.000142579
4.94926e-05
1.0916e-05
9.48556e-06
0.000111538
0.000163215
6.39953e-05
0.000562771
0.000626927
0.000472445
0.000163231
1.13308e-05
1.06472e-05
9.7206e-06
0.000123084
0.000176845
5.80906e-05
0.000631549
0.000771127
0.000618932
0.000233076
1.10218e-05
1.04277e-05
9.72568e-06
0.000135206
0.000192117
0.00010109
0.000674201
0.000964028
0.000838845
0.000376354
1.10595e-05
1.02514e-05
9.71612e-06
0.00014783
0.000207973
0.000104981
0.000683512
0.00121814
0.00114043
0.000608414
7.79768e-05
1.00511e-05
9.84229e-06
0.000160441
0.000224837
8.70136e-05
0.000675599
0.00153583
0.00152409
0.000923105
0.000275923
5.00914e-05
1.0109e-05
0.000169774
0.00024
6.85365e-05
0.000933295
0.00195786
0.00200055
0.00131536
0.000507275
9.62626e-05
1.12955e-05
0.000175927
0.000248376
0.000134869
0.00143863
0.00261422
0.00261932
0.00180468
0.00058196
0.000149799
5.34137e-05
0.000189825
0.000265912
0.000104364
0.00222634
0.00352226
0.0034352
0.00244742
0.000511453
0.000139144
5.15475e-05
0.000213212
0.000293852
0.000121648
0.00313542
0.00467368
0.00450846
0.00338584
0.00101128
0.000146307
5.01988e-05
0.00023302
0.000322234
0.000286266
0.00416263
0.00613405
0.0059306
0.00470526
0.00179897
0.000299674
6.28256e-05
0.000246587
0.000356983
0.0011827
0.00622557
0.00820648
0.00783387
0.00638781
0.00263558
0.000606374
9.79731e-05
0.000264167
0.000400803
0.002654
0.00928249
0.0110648
0.0104432
0.00859482
0.00346094
0.000803273
0.000135955
0.000290849
0.000635858
0.00430891
0.0134431
0.0149196
0.014153
0.011802
0.00551738
0.00109679
0.000189538
0.00032004
0.00130941
0.0112869
0.0194103
0.0201579
0.0195818
0.0178679
0.0127173
0.00243362
0.000320793
0.00035459
5.35292e-06
5.37576e-06
5.36768e-06
5.36765e-06
5.36782e-06
5.36819e-06
5.3688e-06
5.36955e-06
5.37815e-06
5.35779e-06
5.27524e-06
4.66296e-06
4.62886e-06
4.63051e-06
4.62975e-06
4.6295e-06
4.62982e-06
4.62773e-06
4.66088e-06
5.27435e-06
5.19738e-06
4.05965e-06
3.99466e-06
3.99826e-06
3.99583e-06
3.99507e-06
3.99523e-06
3.99069e-06
4.0499e-06
5.18699e-06
5.09817e-06
3.53646e-06
3.43915e-06
3.44373e-06
3.44113e-06
3.4409e-06
3.44175e-06
3.4365e-06
3.51774e-06
5.09518e-06
4.97842e-06
3.08655e-06
2.95692e-06
2.96002e-06
2.95976e-06
2.96084e-06
2.96302e-06
2.95903e-06
3.05498e-06
5.00511e-06
4.87416e-06
2.71504e-06
2.54733e-06
2.5478e-06
2.5501e-06
2.5541e-06
2.55798e-06
2.55556e-06
2.66573e-06
4.90935e-06
4.7766e-06
2.41542e-06
2.20326e-06
2.19735e-06
2.20261e-06
2.21013e-06
2.215e-06
2.21209e-06
2.33304e-06
4.7916e-06
4.6949e-06
2.19809e-06
1.92036e-06
1.89447e-06
1.89911e-06
1.90973e-06
1.91673e-06
1.91464e-06
2.03979e-06
4.62531e-06
4.60742e-06
1.97222e-06
1.68663e-06
1.6404e-06
1.63969e-06
1.64971e-06
1.66008e-06
1.66244e-06
1.78555e-06
4.40132e-06
4.5296e-06
2.1361e-06
1.92764e-06
1.7989e-06
1.6116e-06
1.50484e-06
1.46661e-06
1.45859e-06
1.56927e-06
4.10923e-06
4.72891e-06
3.46945e-06
2.81814e-06
2.38959e-06
1.93565e-06
1.59189e-06
1.39714e-06
1.32059e-06
1.39981e-06
3.87572e-06
5.05818e-06
3.70433e-06
2.59911e-06
2.33405e-06
2.01423e-06
1.64163e-06
1.3619e-06
1.22288e-06
1.27276e-06
3.79987e-06
5.29906e-06
3.2171e-06
1.51757e-06
1.85981e-06
1.84656e-06
1.57361e-06
1.29501e-06
1.13416e-06
1.17248e-06
3.87173e-06
5.53307e-06
2.43676e-06
1.43857e-06
1.65574e-06
1.62899e-06
1.46719e-06
1.22875e-06
1.06446e-06
1.08761e-06
3.96651e-06
5.75875e-06
2.2458e-06
2.39443e-06
2.64201e-06
1.74599e-06
1.42312e-06
1.18328e-06
1.01422e-06
1.01476e-06
4.02078e-06
6.19467e-06
2.39579e-06
2.92286e-06
3.74645e-06
3.42334e-06
1.76619e-06
1.25219e-06
1.00046e-06
9.58611e-07
3.98778e-06
7.06149e-06
2.64673e-06
2.79086e-06
4.07695e-06
4.04751e-06
2.24605e-06
1.40513e-06
1.02791e-06
9.26213e-07
3.88464e-06
8.02507e-06
2.88297e-06
3.16949e-06
5.87436e-06
4.35003e-06
2.58454e-06
1.621e-06
1.10803e-06
9.21203e-07
3.77018e-06
9.39322e-06
3.43941e-06
4.42434e-06
9.27662e-06
5.45302e-06
3.29401e-06
1.94181e-06
1.2377e-06
9.43473e-07
3.70353e-06
1.03781e-05
4.06539e-06
4.8154e-06
1.0327e-05
7.46728e-06
4.74549e-06
2.71713e-06
1.57115e-06
1.03995e-06
3.62788e-06
1.15725e-05
5.06785e-06
6.67349e-06
1.11246e-05
9.89904e-06
7.02545e-06
4.05953e-06
2.16186e-06
1.23168e-06
3.63491e-06
1.19493e-05
6.13543e-06
8.14416e-06
4.94506e-05
1.0913e-05
8.91405e-06
5.74026e-06
3.07872e-06
1.5691e-06
3.70935e-06
3.11319e-05
7.21519e-06
9.68183e-06
6.17917e-05
1.15688e-05
1.0519e-05
7.48212e-06
4.3179e-06
2.12334e-06
3.84812e-06
3.18162e-05
8.17524e-06
1.15176e-05
7.60557e-05
5.67253e-05
1.16355e-05
8.90374e-06
5.49454e-06
2.7605e-06
4.09268e-06
3.321e-05
9.07608e-06
5.29836e-05
9.28477e-05
6.84753e-05
1.15424e-05
9.62258e-06
6.36626e-06
3.34245e-06
4.4412e-06
3.53446e-05
1.01879e-05
6.92968e-05
0.000111279
8.02895e-05
5.00243e-05
1.00126e-05
6.96692e-06
3.80963e-06
4.88851e-06
3.77284e-05
1.1124e-05
8.57363e-05
0.000130397
9.24301e-05
5.48347e-05
1.04355e-05
7.43079e-06
4.19438e-06
5.43585e-06
3.99578e-05
1.14016e-05
0.000102367
0.000149791
0.00010538
6.0052e-05
1.08738e-05
7.87955e-06
4.5687e-06
6.09106e-06
4.20189e-05
1.09421e-05
0.000118425
0.000169734
0.000118772
6.61434e-05
1.13389e-05
8.40182e-06
4.99104e-06
6.86817e-06
4.50648e-05
5.12178e-05
0.000132987
0.000190981
0.000131097
7.14701e-05
1.16594e-05
8.95259e-06
5.47459e-06
7.76784e-06
4.96815e-05
6.49707e-05
0.000144764
0.000211816
0.000142617
7.99739e-05
1.16716e-05
9.43449e-06
5.96043e-06
8.78641e-06
5.45006e-05
6.32755e-05
0.000152148
0.000231896
0.00015365
8.95516e-05
5.03394e-05
9.85209e-06
6.41235e-06
9.93156e-06
5.97223e-05
5.71203e-05
0.000157377
0.000250682
0.000162523
9.60779e-05
4.93506e-05
1.02304e-05
6.85446e-06
1.11908e-05
6.52735e-05
5.46479e-05
0.000163823
0.000267276
0.000168201
0.000100272
5.15513e-05
1.06109e-05
7.27419e-06
3.12929e-05
7.06654e-05
5.44916e-05
0.000170548
0.000282406
0.000170421
0.000102636
5.52934e-05
1.09283e-05
7.60836e-06
3.4528e-05
7.57683e-05
5.49639e-05
0.000178366
0.000296368
0.000169837
0.00010383
5.66004e-05
1.1085e-05
7.86054e-06
3.82603e-05
8.08904e-05
5.46496e-05
0.000189484
0.000308547
0.000167384
0.000104362
5.58481e-05
1.1118e-05
8.09629e-06
4.25988e-05
8.64514e-05
1.14605e-05
0.000204417
0.000317767
0.000164155
0.000102596
5.4287e-05
1.11502e-05
8.36788e-06
4.74377e-05
9.12008e-05
1.1369e-05
0.000224619
0.00032162
0.000165111
9.74547e-05
5.45753e-05
1.12836e-05
8.66668e-06
5.26174e-05
9.29822e-05
4.93537e-05
0.000251314
0.000318361
0.000174468
8.98581e-05
5.72691e-05
1.14672e-05
8.92732e-06
5.81922e-05
9.70812e-05
5.16937e-05
0.000279016
0.000310196
0.000188604
8.31804e-05
5.7715e-05
1.15601e-05
9.09376e-06
6.44392e-05
0.000108862
5.25233e-05
0.00030922
0.000306591
0.00020806
7.99551e-05
5.46117e-05
1.15126e-05
9.17199e-06
7.15286e-05
0.000123436
5.16916e-05
0.000342742
0.000324857
0.000238018
8.54471e-05
5.29828e-05
1.14197e-05
9.19407e-06
7.96606e-05
0.000134058
7.83245e-05
0.000380076
0.000370938
0.000273877
9.01693e-05
5.2389e-05
1.13484e-05
9.15551e-06
8.95162e-05
0.00014147
7.78547e-05
0.000421441
0.000434774
0.000316901
9.82062e-05
5.03474e-05
1.1202e-05
9.26172e-06
0.000100342
0.000150791
7.00299e-05
0.000476971
0.000516425
0.000372815
0.000121603
4.9848e-05
1.09616e-05
9.48488e-06
0.000111282
0.00016332
6.38132e-05
0.000549006
0.000622624
0.000462346
0.000151196
1.13146e-05
1.06724e-05
9.63056e-06
0.000122676
0.000177776
5.836e-05
0.000612771
0.000764865
0.000610259
0.000228358
1.09992e-05
1.0447e-05
9.61198e-06
0.000134771
0.000193076
0.000103359
0.000650956
0.00095742
0.000830159
0.00036826
1.06328e-05
1.02434e-05
9.66551e-06
0.000147303
0.000209035
0.000104944
0.000653492
0.00121217
0.00113082
0.000598639
7.36657e-05
1.00448e-05
9.88283e-06
0.000159699
0.000227099
8.78971e-05
0.000662269
0.00153735
0.00151538
0.000913535
0.000270962
1.15688e-05
1.01869e-05
0.000169273
0.000241899
7.08983e-05
0.000923826
0.00196839
0.00199388
0.0013012
0.000500221
9.29735e-05
1.13871e-05
0.000177037
0.000250207
0.000123771
0.00147848
0.00262306
0.00261258
0.00178626
0.000566107
0.000146372
5.2261e-05
0.00019349
0.000270058
0.00011817
0.00230268
0.00353193
0.00342933
0.0024291
0.00049508
0.00013405
5.02065e-05
0.000216366
0.000296686
0.00013599
0.00326004
0.00469353
0.00450667
0.0033752
0.0010054
0.000140964
4.94859e-05
0.000233502
0.000322012
0.000299929
0.00432042
0.00617804
0.00593617
0.004712
0.001794
0.000298119
6.26025e-05
0.000245574
0.000352372
0.0011407
0.00641261
0.00826847
0.0078455
0.0064245
0.00263003
0.000607475
9.86215e-05
0.000263141
0.000394714
0.00259265
0.00943021
0.0111259
0.010455
0.0086625
0.00346822
0.000812615
0.000139078
0.000289691
0.000589536
0.00416489
0.0135843
0.0149795
0.01416
0.0117839
0.00573299
0.00113324
0.000196974
0.000318147
0.00121209
0.0120585
0.0194694
0.0201818
0.0195767
0.0174819
0.0128829
0.00251764
0.000338462
0.000353204
)
;
    }
    inlet
    {
        type            turbulentMixingLengthDissipationRateInlet;
        mixingLength    0.071;
        phi             phi;
        k               k;
        value           uniform 2.72107e-07;
    }
    outlet
    {
        type            inletOutlet;
        inletValue      uniform 0.0001;
        value           nonuniform List<scalar> 
20
(
0.00130941
0.0001
0.0001
0.0001
0.0001
0.0001
0.0001
0.00243362
0.000320793
0.00035459
0.00121209
0.0001
0.0001
0.0001
0.0001
0.0001
0.0001
0.00251764
0.000338462
0.000353204
)
;
    }
    heatWall
    {
        type            epsilonWallFunction;
        value           nonuniform List<scalar> 
240
(
5.35417e-06
5.35779e-06
5.2733e-06
5.27435e-06
5.1917e-06
5.18699e-06
5.09644e-06
5.09518e-06
4.99531e-06
5.00511e-06
4.89698e-06
4.90935e-06
4.78695e-06
4.7916e-06
4.62139e-06
4.62531e-06
4.3963e-06
4.40132e-06
4.1069e-06
4.10923e-06
3.87505e-06
3.87572e-06