/*--------------------------------*- C++ -*----------------------------------*\
  =========                 |
  \\      /  F ield         | OpenFOAM: The Open Source CFD Toolbox
   \\    /   O peration     | Website:  https://openfoam.org
    \\  /    A nd           | Version:  8
     \\/     M anipulation  |
\*---------------------------------------------------------------------------*/
FoamFile
{
    version     2.0;
    format      ascii;
    class       volScalarField;
    location    "700";
    object      k;
}
// * * * * * * * * * * * * * * * * * * * * * * * * * * * * * * * * * * * * * //

dimensions      [0 2 -2 0 0 0 0];

internalField   nonuniform List<scalar> 
1200
(
2.37117e-05
2.33985e-05
2.30925e-05
2.27564e-05
2.23698e-05
2.19742e-05
2.15858e-05
2.12705e-05
2.09455e-05
2.06202e-05
2.13872e-05
2.26153e-05
2.35183e-05
2.44057e-05
2.52108e-05
2.67902e-05
2.98552e-05
3.31728e-05
3.7623e-05
4.06564e-05
4.43149e-05
4.5499e-05
4.58612e-05
4.65317e-05
4.78864e-05
4.99182e-05
5.21214e-05
5.41181e-05
5.6023e-05
5.89025e-05
6.28738e-05
6.68309e-05
7.09952e-05
7.52208e-05
7.91464e-05
8.28445e-05
8.65591e-05
9.05677e-05
9.43357e-05
9.56565e-05
9.60445e-05
0.000101041
0.00010986
0.000119828
0.000126535
0.000132066
0.000138389
0.000145722
0.000153977
0.000162461
0.00017091
0.000179054
0.000182208
0.000192108
0.000204721
0.000217748
0.000233019
0.000247699
0.000341106
0.000548101
2.09274e-05
1.81424e-05
1.58054e-05
1.37924e-05
1.20287e-05
1.05569e-05
9.38922e-06
8.55332e-06
7.66304e-06
8.35259e-06
1.3592e-05
1.44918e-05
1.25763e-05
9.56055e-06
8.80587e-06
9.39182e-06
1.03761e-05
1.12903e-05
1.34594e-05
1.59079e-05
1.98276e-05
2.40009e-05
2.82143e-05
3.19214e-05
3.5449e-05
3.97851e-05
4.33394e-05
4.40422e-05
4.25797e-05
4.793e-05
5.53394e-05
5.34944e-05
4.98079e-05
4.88363e-05
4.94015e-05
4.9843e-05
4.97562e-05
4.54353e-05
4.59104e-05
4.55785e-05
4.56517e-05
4.97678e-05
4.58791e-05
5.63722e-05
6.02793e-05
5.77033e-05
5.43511e-05
5.08545e-05
7.26234e-05
7.49827e-05
6.631e-05
5.87135e-05
8.7927e-05
8.94615e-05
0.000115601
0.000155419
0.000375894
0.000646005
0.000898231
0.00181487
2.08958e-05
1.80095e-05
1.5554e-05
1.34108e-05
1.15261e-05
9.91096e-06
8.57221e-06
7.47834e-06
6.57065e-06
7.55054e-06
1.10421e-05
1.01514e-05
5.89802e-06
5.49105e-06
9.28202e-06
1.1377e-05
1.09039e-05
1.25634e-05
1.70512e-05
1.87499e-05
2.60622e-05
3.18068e-05
3.79378e-05
4.50087e-05
4.80298e-05
5.74079e-05
6.61574e-05
7.44801e-05
8.21378e-05
8.88144e-05
9.39803e-05
9.71063e-05
9.93819e-05
0.000102316
0.000105205
0.000108662
0.000113406
0.000119555
0.0001274
0.00013641
0.00014636
0.000156784
0.000167973
0.000179846
0.000192412
0.000208678
0.000229214
0.000247164
0.000257717
0.000258773
0.000257526
0.000309426
0.00042613
0.000583719
0.000736646
0.000898955
0.00115261
0.0015038
0.00192781
0.00245357
2.08967e-05
1.80185e-05
1.55681e-05
1.34291e-05
1.15409e-05
9.91355e-06
8.54831e-06
7.37683e-06
6.39176e-06
7.04451e-06
9.36172e-06
9.1252e-06
7.26533e-06
6.33728e-06
1.02097e-05
1.45674e-05
1.59383e-05
2.33734e-05
3.61373e-05
4.02491e-05
4.33765e-05
4.56792e-05
5.29889e-05
6.08972e-05
6.95703e-05
7.85156e-05
8.72943e-05
9.57857e-05
0.000104181
0.000112738
0.000120811
0.000128451
0.000135351
0.000141345
0.000146857
0.000151916
0.000156333
0.000159727
0.000161232
0.000160204
0.000157313
0.000155459
0.000160614
0.000175194
0.000195365
0.00021986
0.000248898
0.00028578
0.00033182
0.000386778
0.00044916
0.000529186
0.00064249
0.000785599
0.000949348
0.00113854
0.00138073
0.00168577
0.00205771
0.00251366
2.09001e-05
1.80216e-05
1.55668e-05
1.34221e-05
1.15359e-05
9.9103e-06
8.5551e-06
7.38891e-06
6.38674e-06
6.29875e-06
7.57715e-06
7.87757e-06
7.2181e-06
6.36421e-06
6.70583e-06
1.32327e-05
1.57542e-05
1.70103e-05
2.13652e-05
2.92726e-05
3.85324e-05
4.26119e-05
4.53015e-05
5.00643e-05
5.67784e-05
6.31647e-05
6.94216e-05
7.5785e-05
8.2079e-05
8.77632e-05
9.30468e-05
9.78958e-05
0.000101754
0.000104067
0.000104858
0.000104377
0.000102908
0.000100654
9.98499e-05
0.000103698
0.000110556
0.00011941
0.000130252
0.000143228
0.000159082
0.000179522
0.000207144
0.000247685
0.000303046
0.000371192
0.000449605
0.000538697
0.00064465
0.000772321
0.000925661
0.00111127
0.00133776
0.00162017
0.00198383
0.00246326
2.09049e-05
1.80272e-05
1.55689e-05
1.34217e-05
1.15394e-05
9.92198e-06
8.56845e-06
7.4218e-06
6.42329e-06
5.87109e-06
6.22165e-06
6.41516e-06
6.14682e-06
5.72738e-06
5.55206e-06
6.87549e-06
8.70816e-06
1.01185e-05
1.28412e-05
1.85499e-05
2.74475e-05
3.47436e-05
4.1015e-05
4.54062e-05
4.59003e-05
4.60727e-05
4.89847e-05
5.19966e-05
5.53343e-05
5.83575e-05
6.32918e-05
6.84299e-05
7.17028e-05
7.36682e-05
7.47136e-05
7.52302e-05
7.55541e-05
7.49242e-05
7.26839e-05
6.87579e-05
6.45803e-05
6.21186e-05
6.44204e-05
6.6857e-05
7.39853e-05
9.82194e-05
0.000104875
0.000129733
0.000178561
0.00024517
0.000323212
0.000408862
0.000504433
0.000617342
0.000765779
0.000953245
0.00116935
0.00142636
0.00177228
0.00234947
2.09104e-05
1.8035e-05
1.55763e-05
1.34284e-05
1.1548e-05
9.93857e-06
8.59455e-06
7.46179e-06
6.48983e-06
5.72306e-06
5.45186e-06
5.31463e-06
5.05146e-06
4.78745e-06
4.60729e-06
4.86933e-06
5.46417e-06
6.32972e-06
7.5543e-06
1.06034e-05
1.58749e-05
2.24417e-05
2.92881e-05
3.48886e-05
3.77147e-05
3.92013e-05
4.08601e-05
4.2598e-05
4.43841e-05
4.54839e-05
4.6222e-05
4.55471e-05
4.77915e-05
4.72129e-05
4.92932e-05
4.991e-05
4.92941e-05
4.84675e-05
4.91601e-05
5.10048e-05
5.10451e-05
4.90238e-05
4.78693e-05
4.73959e-05
4.60281e-05
4.57871e-05
4.41737e-05
4.29453e-05
4.72562e-05
6.55766e-05
0.00014672
0.000217934
0.000238867
0.000219438
0.000342566
0.000502507
0.000649085
0.000779608
0.00107959
0.00185808
2.09163e-05
1.80347e-05
1.55652e-05
1.34081e-05
1.1529e-05
9.93366e-06
8.60169e-06
7.47023e-06
6.50011e-06
5.69717e-06
5.15463e-06
4.76961e-06
4.42011e-06
4.14391e-06
3.9428e-06
3.88018e-06
3.98866e-06
4.31645e-06
4.81392e-06
6.11925e-06
8.43492e-06
1.20339e-05
1.69155e-05
2.15896e-05
2.50232e-05
2.7356e-05
2.91304e-05
3.08139e-05
3.27421e-05
3.48018e-05
3.66506e-05
3.82168e-05
3.96529e-05
4.10467e-05
4.23269e-05
4.30471e-05
4.32396e-05
4.33084e-05
4.36909e-05
4.4326e-05
4.46964e-05
4.45459e-05
4.42449e-05
4.41282e-05
4.35583e-05
4.25985e-05
4.15048e-05
4.06307e-05
3.97556e-05
3.88536e-05
5.10952e-05
8.10802e-05
9.99027e-05
9.24725e-05
9.5841e-05
0.000153898
0.00024526
0.000295644
0.000364399
0.000611136
2.09525e-05
1.81669e-05
1.58035e-05
1.37392e-05
1.19068e-05
1.03561e-05
9.06524e-06
7.95289e-06
6.97035e-06
6.11889e-06
5.45202e-06
4.95438e-06
4.56202e-06
4.23156e-06
3.9505e-06
3.73358e-06
3.60442e-06
3.58606e-06
3.67059e-06
4.04743e-06
4.79492e-06
6.11865e-06
8.29725e-06
1.08352e-05
1.31456e-05
1.49847e-05
1.64676e-05
1.78818e-05
1.94601e-05
2.12777e-05
2.31417e-05
2.48944e-05
2.65936e-05
2.82239e-05
2.95738e-05
3.05856e-05
3.14688e-05
3.24492e-05
3.35619e-05
3.46042e-05
3.53491e-05
3.57673e-05
3.59181e-05
3.57746e-05
3.59164e-05
3.70382e-05
3.80574e-05
3.80855e-05
3.81612e-05
3.85144e-05
3.93426e-05
4.3497e-05
4.73355e-05
4.66589e-05
4.6034e-05
5.3773e-05
7.28843e-05
9.0817e-05
0.000112716
0.00015884
2.37097e-05
2.34257e-05
2.31359e-05
2.27867e-05
2.23874e-05
2.19704e-05
2.15499e-05
2.09843e-05
2.01696e-05
1.90563e-05
1.81429e-05
1.78322e-05
1.80871e-05
1.84195e-05
1.86229e-05
1.85629e-05
1.82225e-05
1.77861e-05
1.75326e-05
1.72009e-05
1.72066e-05
1.74984e-05
1.8069e-05
1.90386e-05
2.03899e-05
2.20742e-05
2.4073e-05
2.63892e-05
2.90574e-05
3.20945e-05
3.54723e-05
3.91716e-05
4.31522e-05
4.61774e-05
4.9316e-05
5.27399e-05
5.65668e-05
6.07529e-05
6.51387e-05
6.96609e-05
7.44458e-05
7.96054e-05
8.53499e-05
9.2189e-05
9.99402e-05
0.000107448
0.000114796
0.000122208
0.000129688
0.000137007
0.000142794
0.000146748
0.000153775
0.000165662
0.000175737
0.000182268
0.000190499
0.000203009
0.000216459
0.00023216
2.36819e-05
2.3394e-05
2.31208e-05
2.27768e-05
2.23411e-05
2.19341e-05
2.1559e-05
2.12568e-05
2.09256e-05
2.06618e-05
2.14057e-05
2.26335e-05
2.35033e-05
2.43481e-05
2.51463e-05
2.66777e-05
2.96518e-05
3.28621e-05
3.73393e-05
4.05231e-05
4.42384e-05
4.56332e-05
4.58971e-05
4.65563e-05
4.79021e-05
4.99315e-05
5.21583e-05
5.42159e-05
5.60628e-05
5.85955e-05
6.24999e-05
6.65045e-05
7.06962e-05
7.50666e-05
7.92757e-05
8.32525e-05
8.70925e-05
9.10697e-05
9.45704e-05
9.59781e-05
9.77471e-05
0.000103796
0.000113593
0.000121315
0.000126269
0.000131587
0.000138408
0.000146235
0.000154584
0.000162997
0.000172218
0.000179856
0.000183531
0.000192925
0.00020583
0.000217872
0.000231556
0.000247638
0.000349475
0.000538381
2.09281e-05
1.81507e-05
1.58118e-05
1.37886e-05
1.20359e-05
1.05736e-05
9.41561e-06
8.57465e-06
7.69865e-06
8.31348e-06
1.35143e-05
1.44535e-05
1.25584e-05
9.49237e-06
8.74711e-06
9.33609e-06
1.03158e-05
1.12461e-05
1.34211e-05
1.58665e-05
1.97757e-05
2.39301e-05
2.81369e-05
3.18959e-05
3.53904e-05
3.97153e-05
4.34059e-05
4.47954e-05
4.29943e-05
4.59521e-05
5.43637e-05
5.39963e-05
5.0595e-05
4.89925e-05
4.84681e-05
4.81961e-05
4.76192e-05
4.53743e-05
4.44838e-05
4.42454e-05
4.50958e-05
4.46244e-05
4.50187e-05
5.99608e-05
6.15113e-05
5.76892e-05
5.41732e-05
5.08815e-05
7.38078e-05
7.50826e-05
6.67991e-05
5.8502e-05
8.36341e-05
7.93595e-05
8.86423e-05
0.000151532
0.00037031
0.000638653
0.00088909
0.00179051
2.08997e-05
1.80216e-05
1.55605e-05
1.34049e-05
1.15228e-05
9.9132e-06
8.57393e-06
7.47988e-06
6.57183e-06
7.49568e-06
1.0977e-05
1.01539e-05
5.94953e-06
5.58384e-06
9.33421e-06
1.1408e-05
1.09046e-05
1.24388e-05
1.7337e-05
1.88434e-05
2.60404e-05
3.1732e-05
3.76223e-05
4.48365e-05
4.76396e-05
5.69976e-05
6.56895e-05
7.39111e-05
8.1417e-05
8.79019e-05
9.30079e-05
9.61813e-05
9.837e-05
0.000100929
0.00010361
0.000106805
0.000111257
0.000117303
0.00012512
0.000134771
0.000144545
0.000154414
0.000165525
0.000177026
0.000189243
0.000205327
0.000225202
0.000241924
0.000251238
0.000250597
0.000254473
0.000315937
0.000433146
0.000589768
0.000742219
0.00089686
0.00116349
0.00150823
0.00192927
0.00245209
2.09038e-05
1.80329e-05
1.55769e-05
1.34238e-05
1.1535e-05
9.91199e-06
8.5474e-06
7.37729e-06
6.39016e-06
6.99508e-06
9.3062e-06
9.11016e-06
7.26404e-06
6.4294e-06
1.02889e-05
1.46175e-05
1.59306e-05
2.30711e-05
3.6211e-05
4.029e-05
4.3384e-05
4.56353e-05
5.29457e-05
6.07803e-05
6.94115e-05
7.83019e-05
8.70107e-05
9.54154e-05
0.000103667
0.000112116
0.000120113
0.000127501
0.000134217
0.000140075
0.000145264
0.000149896
0.000153863
0.000156804
0.000157907
0.000156637
0.000153847
0.000152994
0.000159828
0.000175199
0.000194881
0.000218495
0.00024748
0.000283949
0.000329784
0.000385698
0.000450468
0.00053157
0.000643976
0.000785856
0.000949616
0.00113988
0.00138384
0.00168721
0.0020581
0.00251187
2.09094e-05
1.80363e-05
1.55712e-05
1.34128e-05
1.15306e-05
9.91158e-06
8.55765e-06
7.39331e-06
6.38876e-06
6.27074e-06
7.53565e-06
7.85421e-06
7.20513e-06
6.3567e-06
6.7851e-06
1.33336e-05
1.57964e-05
1.6998e-05
2.13196e-05
2.91829e-05
3.85762e-05
4.25914e-05
4.55917e-05
5.00088e-05
5.66848e-05
6.30068e-05
6.91775e-05
7.54599e-05
8.17037e-05
8.7201e-05
9.20977e-05
9.6698e-05
0.000100308
0.000102512
0.000103375
0.0001031
0.000102042
0.00010072
0.000101253
0.000105206
0.000111345
0.000119347
0.000130228
0.000142969
0.000157868
0.000176569
0.00020379
0.000244574
0.000300069
0.000368543
0.000447799
0.000537366
0.00064331
0.000771046
0.000924778
0.00111089
0.00133768
0.00161994
0.00198316
0.00246146
2.09153e-05
1.80418e-05
1.55722e-05
1.34123e-05
1.15331e-05
9.93032e-06
8.58192e-06
7.43522e-06
6.436e-06
5.8607e-06
6.19721e-06
6.397e-06
6.13607e-06
5.72554e-06
5.55512e-06
6.88702e-06
8.75204e-06
1.01018e-05
1.28604e-05
1.85416e-05
2.74339e-05
3.47665e-05
4.10335e-05
4.54069e-05
4.62806e-05
4.59696e-05
4.88538e-05
5.18919e-05
5.53781e-05
5.83055e-05
6.26211e-05
6.73663e-05
7.05682e-05
7.26145e-05
7.37929e-05
7.43934e-05
7.46354e-05
7.37397e-05
7.11919e-05
6.73348e-05
6.38652e-05
6.2524e-05
6.55525e-05
6.92149e-05
7.7647e-05
8.78793e-05
9.78445e-05
0.000127362
0.000175135
0.000241657
0.000319793
0.000405005
0.000500266
0.000613534
0.00076312
0.000952187
0.00116961
0.00142631
0.00175638
0.0023041
2.09214e-05
1.80493e-05
1.55785e-05
1.34178e-05
1.15398e-05
9.94427e-06
8.608e-06
7.47274e-06
6.49196e-06
5.72441e-06
5.44245e-06
5.30619e-06
5.04827e-06
4.79538e-06
4.62122e-06
4.88786e-06
5.47762e-06
6.32732e-06
7.57368e-06
1.06097e-05
1.58606e-05
2.24207e-05
2.92306e-05
3.4784e-05
3.75999e-05
3.90965e-05
4.07471e-05
4.24652e-05
4.42749e-05
4.55597e-05
4.58778e-05
4.58658e-05
4.52125e-05
4.62534e-05
4.85829e-05
4.95148e-05
4.92197e-05
4.83381e-05
4.83229e-05
4.97351e-05
5.01029e-05
4.84656e-05
4.76257e-05
4.74954e-05
4.66281e-05
4.59029e-05
4.41107e-05
4.28563e-05
4.19358e-05
5.98406e-05
0.000142193
0.000214198
0.000233572
0.000213809
0.000340515
0.000500758
0.000646535
0.00077723
0.00109026
0.00191442
2.09272e-05
1.80459e-05
1.55634e-05
1.33966e-05
1.15228e-05
9.94185e-06
8.61048e-06
7.46552e-06
6.48578e-06
5.68738e-06
5.1461e-06
4.76728e-06
4.42248e-06
4.15287e-06
3.96e-06
3.90662e-06
4.01014e-06
4.32273e-06
4.82504e-06
6.12855e-06
8.43887e-06
1.20251e-05
1.68767e-05
2.1492e-05
2.49009e-05
2.72392e-05
2.90368e-05
3.07648e-05
3.2766e-05
3.48909e-05
3.67598e-05
3.83686e-05
3.9806e-05
4.12629e-05
4.25159e-05
4.3168e-05
4.33199e-05
4.34242e-05
4.38884e-05
4.45654e-05
4.49239e-05
4.47477e-05
4.43409e-05
4.42006e-05
4.37834e-05
4.27875e-05
4.15875e-05
4.06831e-05
3.97524e-05
3.87755e-05
5.05259e-05
7.31395e-05
9.53844e-05
8.96564e-05
9.26783e-05
0.000151606
0.000243181
0.000294713
0.000366395
0.000621692
2.09621e-05
1.81771e-05
1.58009e-05
1.37225e-05
1.18951e-05
1.03632e-05
9.07728e-06
7.95169e-06
6.96206e-06
6.11481e-06
5.45231e-06
4.95679e-06
4.56583e-06
4.23554e-06
3.95295e-06
3.73532e-06
3.60874e-06
3.58994e-06
3.67639e-06
4.05331e-06
4.80208e-06
6.12222e-06
8.29178e-06
1.07947e-05
1.30774e-05
1.49047e-05
1.63999e-05
1.78454e-05
1.94711e-05
2.13378e-05
2.32253e-05
2.49849e-05
2.66998e-05
2.83354e-05
2.96542e-05
3.06446e-05
3.15493e-05
3.25849e-05
3.37395e-05
3.47695e-05
3.54484e-05
3.57854e-05
3.58892e-05
3.57402e-05
3.60839e-05
3.70405e-05
3.77188e-05
3.76376e-05
3.77607e-05
3.84384e-05
3.96019e-05
4.41587e-05
4.7358e-05
4.62329e-05
4.57296e-05
5.34395e-05
7.23304e-05
9.06981e-05
0.000113841
0.000162899
2.37173e-05
2.34178e-05
2.30987e-05
2.2755e-05
2.24121e-05
2.20458e-05
2.16138e-05
2.10093e-05
2.01714e-05
1.90529e-05
1.81417e-05
1.78359e-05
1.81079e-05
1.84652e-05
1.86746e-05
1.85653e-05
1.81807e-05
1.77335e-05
1.7472e-05
1.7168e-05
1.71934e-05
1.74875e-05
1.80389e-05
1.89964e-05
2.03374e-05
2.20186e-05
2.40238e-05
2.63607e-05
2.90606e-05
3.21114e-05
3.54783e-05
3.91604e-05
4.31089e-05
4.60832e-05
4.92055e-05
5.26624e-05
5.65421e-05
6.07391e-05
6.50904e-05
6.96025e-05
7.44649e-05
7.97794e-05
8.56836e-05
9.26272e-05
0.000100106
0.00010734
0.000114569
0.000121964
0.000129421
0.000136624
0.000142003
0.000146075
0.000154434
0.000166561
0.000175791
0.000181965
0.000190422
0.000202992
0.000216215
0.000231759
)
;

boundaryField
{
    wall
    {
        type            kqRWallFunction;
        value           nonuniform List<scalar> 
1200
(
2.37117e-05
2.09274e-05
2.08958e-05
2.08967e-05
2.09001e-05
2.09049e-05
2.09104e-05
2.09163e-05
2.09525e-05
2.37097e-05
2.33985e-05
1.81424e-05
1.80095e-05
1.80185e-05
1.80216e-05
1.80272e-05
1.8035e-05
1.80347e-05
1.81669e-05
2.34257e-05
2.30925e-05
1.58054e-05
1.5554e-05
1.55681e-05
1.55668e-05
1.55689e-05
1.55763e-05
1.55652e-05
1.58035e-05
2.31359e-05
2.27564e-05
1.37924e-05
1.34108e-05
1.34291e-05
1.34221e-05
1.34217e-05
1.34284e-05
1.34081e-05
1.37392e-05
2.27867e-05
2.23698e-05
1.20287e-05
1.15261e-05
1.15409e-05
1.15359e-05
1.15394e-05
1.1548e-05
1.1529e-05
1.19068e-05
2.23874e-05
2.19742e-05
1.05569e-05
9.91096e-06
9.91355e-06
9.9103e-06
9.92198e-06
9.93857e-06
9.93366e-06
1.03561e-05
2.19704e-05
2.15858e-05
9.38922e-06
8.57221e-06
8.54831e-06
8.5551e-06
8.56845e-06
8.59455e-06
8.60169e-06
9.06524e-06
2.15499e-05
2.12705e-05
8.55332e-06
7.47834e-06
7.37683e-06
7.38891e-06
7.4218e-06
7.46179e-06
7.47023e-06
7.95289e-06
2.09843e-05
2.09455e-05
7.66304e-06
6.57065e-06
6.39176e-06
6.38674e-06
6.42329e-06
6.48983e-06
6.50011e-06
6.97035e-06
2.01696e-05
2.06202e-05
8.35259e-06
7.55054e-06
7.04451e-06
6.29875e-06
5.87109e-06
5.72306e-06
5.69717e-06
6.11889e-06
1.90563e-05
2.13872e-05
1.3592e-05
1.10421e-05
9.36172e-06
7.57715e-06
6.22165e-06
5.45186e-06
5.15463e-06
5.45202e-06
1.81429e-05
2.26153e-05
1.44918e-05
1.01514e-05
9.1252e-06
7.87757e-06
6.41516e-06
5.31463e-06
4.76961e-06
4.95438e-06
1.78322e-05
2.35183e-05
1.25763e-05
5.89802e-06
7.26533e-06
7.2181e-06
6.14682e-06
5.05146e-06
4.42011e-06
4.56202e-06
1.80871e-05
2.44057e-05
9.56055e-06
5.49105e-06
6.33728e-06
6.36421e-06
5.72738e-06
4.78745e-06
4.14391e-06
4.23156e-06
1.84195e-05
2.52108e-05
8.80587e-06
9.28202e-06
1.02097e-05
6.70583e-06
5.55206e-06
4.60729e-06
3.9428e-06
3.9505e-06
1.86229e-05
2.67902e-05
9.39182e-06
1.1377e-05
1.45674e-05
1.32327e-05
6.87549e-06
4.86933e-06
3.88018e-06
3.73358e-06
1.85629e-05
2.98552e-05
1.03761e-05
1.09039e-05
1.59383e-05
1.57542e-05
8.70816e-06
5.46417e-06
3.98866e-06
3.60442e-06
1.82225e-05
3.31728e-05
1.12903e-05
1.25634e-05
2.33734e-05
1.70103e-05
1.01185e-05
6.32972e-06
4.31645e-06
3.58606e-06
1.77861e-05
3.7623e-05
1.34594e-05
1.70512e-05
3.61373e-05
2.13652e-05
1.28412e-05
7.5543e-06
4.81392e-06
3.67059e-06
1.75326e-05
4.06564e-05
1.59079e-05
1.87499e-05
4.02491e-05
2.92726e-05
1.85499e-05
1.06034e-05
6.11925e-06
4.04743e-06
1.72009e-05
4.43149e-05
1.98276e-05
2.60622e-05
4.33765e-05
3.85324e-05
2.74475e-05
1.58749e-05
8.43492e-06
4.79492e-06
1.72066e-05
4.5499e-05
2.40009e-05
3.18068e-05
4.56792e-05
4.26119e-05
3.47436e-05
2.24417e-05
1.20339e-05
6.11865e-06
1.74984e-05
4.58612e-05
2.82143e-05
3.79378e-05
5.29889e-05
4.53015e-05
4.1015e-05
2.92881e-05
1.69155e-05
8.29725e-06
1.8069e-05
4.65317e-05
3.19214e-05
4.50087e-05
6.08972e-05
5.00643e-05
4.54062e-05
3.48886e-05
2.15896e-05
1.08352e-05
1.90386e-05
4.78864e-05
3.5449e-05
4.80298e-05
6.95703e-05
5.67784e-05
4.59003e-05
3.77147e-05
2.50232e-05
1.31456e-05
2.03899e-05
4.99182e-05
3.97851e-05
5.74079e-05
7.85156e-05
6.31647e-05
4.60727e-05
3.92013e-05
2.7356e-05
1.49847e-05
2.20742e-05
5.21214e-05
4.33394e-05
6.61574e-05
8.72943e-05
6.94216e-05
4.89847e-05
4.08601e-05
2.91304e-05
1.64676e-05
2.4073e-05
5.41181e-05
4.40422e-05
7.44801e-05
9.57857e-05
7.5785e-05
5.19966e-05
4.2598e-05
3.08139e-05
1.78818e-05
2.63892e-05
5.6023e-05
4.25797e-05
8.21378e-05
0.000104181
8.2079e-05
5.53343e-05
4.43841e-05
3.27421e-05
1.94601e-05
2.90574e-05
5.89025e-05
4.793e-05
8.88144e-05
0.000112738
8.77632e-05
5.83575e-05
4.54839e-05
3.48018e-05
2.12777e-05
3.20945e-05
6.28738e-05
5.53394e-05
9.39803e-05
0.000120811
9.30468e-05
6.32918e-05
4.6222e-05
3.66506e-05
2.31417e-05
3.54723e-05
6.68309e-05
5.34944e-05
9.71063e-05
0.000128451
9.78958e-05
6.84299e-05
4.55471e-05
3.82168e-05
2.48944e-05
3.91716e-05
7.09952e-05
4.98079e-05
9.93819e-05
0.000135351
0.000101754
7.17028e-05
4.77915e-05
3.96529e-05
2.65936e-05
4.31522e-05
7.52208e-05
4.88363e-05
0.000102316
0.000141345
0.000104067
7.36682e-05
4.72129e-05
4.10467e-05
2.82239e-05
4.61774e-05
7.91464e-05
4.94015e-05
0.000105205
0.000146857
0.000104858
7.47136e-05
4.92932e-05
4.23269e-05
2.95738e-05
4.9316e-05
8.28445e-05
4.9843e-05
0.000108662
0.000151916
0.000104377
7.52302e-05
4.991e-05
4.30471e-05
3.05856e-05
5.27399e-05
8.65591e-05
4.97562e-05
0.000113406
0.000156333
0.000102908
7.55541e-05
4.92941e-05
4.32396e-05
3.14688e-05
5.65668e-05
9.05677e-05
4.54353e-05
0.000119555
0.000159727
0.000100654
7.49242e-05
4.84675e-05
4.33084e-05
3.24492e-05
6.07529e-05
9.43357e-05
4.59104e-05
0.0001274
0.000161232
9.98499e-05
7.26839e-05
4.91601e-05
4.36909e-05
3.35619e-05
6.51387e-05
9.56565e-05
4.55785e-05
0.00013641
0.000160204
0.000103698
6.87579e-05
5.10048e-05
4.4326e-05
3.46042e-05
6.96609e-05
9.60445e-05
4.56517e-05
0.00014636
0.000157313
0.000110556
6.45803e-05
5.10451e-05
4.46964e-05
3.53491e-05
7.44458e-05
0.000101041
4.97678e-05
0.000156784
0.000155459
0.00011941
6.21186e-05
4.90238e-05
4.45459e-05
3.57673e-05
7.96054e-05
0.00010986
4.58791e-05
0.000167973
0.000160614
0.000130252
6.44204e-05
4.78693e-05
4.42449e-05
3.59181e-05
8.53499e-05
0.000119828
5.63722e-05
0.000179846
0.000175194
0.000143228
6.6857e-05
4.73959e-05
4.41282e-05
3.57746e-05
9.2189e-05
0.000126535
6.02793e-05
0.000192412
0.000195365
0.000159082
7.39853e-05
4.60281e-05
4.35583e-05
3.59164e-05
9.99402e-05
0.000132066
5.77033e-05
0.000208678
0.00021986
0.000179522
9.82194e-05
4.57871e-05
4.25985e-05
3.70382e-05
0.000107448
0.000138389
5.43511e-05
0.000229214
0.000248898
0.000207144
0.000104875
4.41737e-05
4.15048e-05
3.80574e-05
0.000114796
0.000145722
5.08545e-05
0.000247164
0.00028578
0.000247685
0.000129733
4.29453e-05
4.06307e-05
3.80855e-05
0.000122208
0.000153977
7.26234e-05
0.000257717
0.00033182
0.000303046
0.000178561
4.72562e-05
3.97556e-05
3.81612e-05
0.000129688
0.000162461
7.49827e-05
0.000258773
0.000386778
0.000371192
0.00024517
6.55766e-05
3.88536e-05
3.85144e-05
0.000137007
0.00017091
6.631e-05
0.000257526
0.00044916
0.000449605
0.000323212
0.00014672
5.10952e-05
3.93426e-05
0.000142794
0.000179054
5.87135e-05
0.000309426
0.000529186
0.000538697
0.000408862
0.000217934
8.10802e-05
4.3497e-05
0.000146748
0.000182208
8.7927e-05
0.00042613
0.00064249
0.00064465
0.000504433
0.000238867
9.99027e-05
4.73355e-05
0.000153775
0.000192108
8.94615e-05
0.000583719
0.000785599
0.000772321
0.000617342
0.000219438
9.24725e-05
4.66589e-05
0.000165662
0.000204721
0.000115601
0.000736646
0.000949348
0.000925661
0.000765779
0.000342566
9.5841e-05
4.6034e-05
0.000175737
0.000217748
0.000155419
0.000898955
0.00113854
0.00111127
0.000953245
0.000502507
0.000153898
5.3773e-05
0.000182268
0.000233019
0.000375894
0.00115261
0.00138073
0.00133776
0.00116935
0.000649085
0.00024526
7.28843e-05
0.000190499
0.000247699
0.000646005
0.0015038
0.00168577
0.00162017
0.00142636
0.000779608
0.000295644
9.0817e-05
0.000203009
0.000341106
0.000898231
0.00192781
0.00205771
0.00198383
0.00177228
0.00107959
0.000364399
0.000112716
0.000216459
0.000548101
0.00181487
0.00245357
0.00251366
0.00246326
0.00234947
0.00185808
0.000611136
0.00015884
0.00023216
2.36819e-05
2.09281e-05
2.08997e-05
2.09038e-05
2.09094e-05
2.09153e-05
2.09214e-05
2.09272e-05
2.09621e-05
2.37173e-05
2.3394e-05
1.81507e-05
1.80216e-05
1.80329e-05
1.80363e-05
1.80418e-05
1.80493e-05
1.80459e-05
1.81771e-05
2.34178e-05
2.31208e-05
1.58118e-05
1.55605e-05
1.55769e-05
1.55712e-05
1.55722e-05
1.55785e-05
1.55634e-05
1.58009e-05
2.30987e-05
2.27768e-05
1.37886e-05
1.34049e-05
1.34238e-05
1.34128e-05
1.34123e-05
1.34178e-05
1.33966e-05
1.37225e-05
2.2755e-05
2.23411e-05
1.20359e-05
1.15228e-05
1.1535e-05
1.15306e-05
1.15331e-05
1.15398e-05
1.15228e-05
1.18951e-05
2.24121e-05
2.19341e-05
1.05736e-05
9.9132e-06
9.91199e-06
9.91158e-06
9.93032e-06
9.94427e-06
9.94185e-06
1.03632e-05
2.20458e-05
2.1559e-05
9.41561e-06
8.57393e-06
8.5474e-06
8.55765e-06
8.58192e-06
8.608e-06
8.61048e-06
9.07728e-06
2.16138e-05
2.12568e-05
8.57465e-06
7.47988e-06
7.37729e-06
7.39331e-06
7.43522e-06
7.47274e-06
7.46552e-06
7.95169e-06
2.10093e-05
2.09256e-05
7.69865e-06
6.57183e-06
6.39016e-06
6.38876e-06
6.436e-06
6.49196e-06
6.48578e-06
6.96206e-06
2.01714e-05
2.06618e-05
8.31348e-06
7.49568e-06
6.99508e-06
6.27074e-06
5.8607e-06
5.72441e-06
5.68738e-06
6.11481e-06
1.90529e-05
2.14057e-05
1.35143e-05
1.0977e-05
9.3062e-06
7.53565e-06
6.19721e-06
5.44245e-06
5.1461e-06
5.45231e-06
1.81417e-05
2.26335e-05
1.44535e-05
1.01539e-05
9.11016e-06
7.85421e-06
6.397e-06
5.30619e-06
4.76728e-06
4.95679e-06
1.78359e-05
2.35033e-05
1.25584e-05
5.94953e-06
7.26404e-06
7.20513e-06
6.13607e-06
5.04827e-06
4.42248e-06
4.56583e-06
1.81079e-05
2.43481e-05
9.49237e-06
5.58384e-06
6.4294e-06
6.3567e-06
5.72554e-06
4.79538e-06
4.15287e-06
4.23554e-06
1.84652e-05
2.51463e-05
8.74711e-06
9.33421e-06
1.02889e-05
6.7851e-06
5.55512e-06
4.62122e-06
3.96e-06
3.95295e-06
1.86746e-05
2.66777e-05
9.33609e-06
1.1408e-05
1.46175e-05
1.33336e-05
6.88702e-06
4.88786e-06
3.90662e-06
3.73532e-06
1.85653e-05
2.96518e-05
1.03158e-05
1.09046e-05
1.59306e-05
1.57964e-05
8.75204e-06
5.47762e-06
4.01014e-06
3.60874e-06
1.81807e-05
3.28621e-05
1.12461e-05
1.24388e-05
2.30711e-05
1.6998e-05
1.01018e-05
6.32732e-06
4.32273e-06
3.58994e-06
1.77335e-05
3.73393e-05
1.34211e-05
1.7337e-05
3.6211e-05
2.13196e-05
1.28604e-05
7.57368e-06
4.82504e-06
3.67639e-06
1.7472e-05
4.05231e-05
1.58665e-05
1.88434e-05
4.029e-05
2.91829e-05
1.85416e-05
1.06097e-05
6.12855e-06
4.05331e-06
1.7168e-05
4.42384e-05
1.97757e-05
2.60404e-05
4.3384e-05
3.85762e-05
2.74339e-05
1.58606e-05
8.43887e-06
4.80208e-06
1.71934e-05
4.56332e-05
2.39301e-05
3.1732e-05
4.56353e-05
4.25914e-05
3.47665e-05
2.24207e-05
1.20251e-05
6.12222e-06
1.74875e-05
4.58971e-05
2.81369e-05
3.76223e-05
5.29457e-05
4.55917e-05
4.10335e-05
2.92306e-05
1.68767e-05
8.29178e-06
1.80389e-05
4.65563e-05
3.18959e-05
4.48365e-05
6.07803e-05
5.00088e-05
4.54069e-05
3.4784e-05
2.1492e-05
1.07947e-05
1.89964e-05
4.79021e-05
3.53904e-05
4.76396e-05
6.94115e-05
5.66848e-05
4.62806e-05
3.75999e-05
2.49009e-05
1.30774e-05
2.03374e-05
4.99315e-05
3.97153e-05
5.69976e-05
7.83019e-05
6.30068e-05
4.59696e-05
3.90965e-05
2.72392e-05
1.49047e-05
2.20186e-05
5.21583e-05
4.34059e-05
6.56895e-05
8.70107e-05
6.91775e-05
4.88538e-05
4.07471e-05
2.90368e-05
1.63999e-05
2.40238e-05
5.42159e-05
4.47954e-05
7.39111e-05
9.54154e-05
7.54599e-05
5.18919e-05
4.24652e-05
3.07648e-05
1.78454e-05
2.63607e-05
5.60628e-05
4.29943e-05
8.1417e-05
0.000103667
8.17037e-05
5.53781e-05
4.42749e-05
3.2766e-05
1.94711e-05
2.90606e-05
5.85955e-05
4.59521e-05
8.79019e-05
0.000112116
8.7201e-05
5.83055e-05
4.55597e-05
3.48909e-05
2.13378e-05
3.21114e-05
6.24999e-05
5.43637e-05
9.30079e-05
0.000120113
9.20977e-05
6.26211e-05
4.58778e-05
3.67598e-05
2.32253e-05
3.54783e-05
6.65045e-05
5.39963e-05
9.61813e-05
0.000127501
9.6698e-05
6.73663e-05
4.58658e-05
3.83686e-05
2.49849e-05
3.91604e-05
7.06962e-05
5.0595e-05
9.837e-05
0.000134217
0.000100308
7.05682e-05
4.52125e-05
3.9806e-05
2.66998e-05
4.31089e-05
7.50666e-05
4.89925e-05
0.000100929
0.000140075
0.000102512
7.26145e-05
4.62534e-05
4.12629e-05
2.83354e-05
4.60832e-05
7.92757e-05
4.84681e-05
0.00010361
0.000145264
0.000103375
7.37929e-05
4.85829e-05
4.25159e-05
2.96542e-05
4.92055e-05
8.32525e-05
4.81961e-05
0.000106805
0.000149896
0.0001031
7.43934e-05
4.95148e-05
4.3168e-05
3.06446e-05
5.26624e-05
8.70925e-05
4.76192e-05
0.000111257
0.000153863
0.000102042
7.46354e-05
4.92197e-05
4.33199e-05
3.15493e-05
5.65421e-05
9.10697e-05
4.53743e-05
0.000117303
0.000156804
0.00010072
7.37397e-05
4.83381e-05
4.34242e-05
3.25849e-05
6.07391e-05
9.45704e-05
4.44838e-05
0.00012512
0.000157907
0.000101253
7.11919e-05
4.83229e-05
4.38884e-05
3.37395e-05
6.50904e-05
9.59781e-05
4.42454e-05
0.000134771
0.000156637
0.000105206
6.73348e-05
4.97351e-05
4.45654e-05
3.47695e-05
6.96025e-05
9.77471e-05
4.50958e-05
0.000144545
0.000153847
0.000111345
6.38652e-05
5.01029e-05
4.49239e-05
3.54484e-05
7.44649e-05
0.000103796
4.46244e-05
0.000154414
0.000152994
0.000119347
6.2524e-05
4.84656e-05
4.47477e-05
3.57854e-05
7.97794e-05
0.000113593
4.50187e-05
0.000165525
0.000159828
0.000130228
6.55525e-05
4.76257e-05
4.43409e-05
3.58892e-05
8.56836e-05
0.000121315
5.99608e-05
0.000177026
0.000175199
0.000142969
6.92149e-05
4.74954e-05
4.42006e-05
3.57402e-05
9.26272e-05
0.000126269
6.15113e-05
0.000189243
0.000194881
0.000157868
7.7647e-05
4.66281e-05
4.37834e-05
3.60839e-05
0.000100106
0.000131587
5.76892e-05
0.000205327
0.000218495
0.000176569
8.78793e-05
4.59029e-05
4.27875e-05
3.70405e-05
0.00010734
0.000138408
5.41732e-05
0.000225202
0.00024748
0.00020379
9.78445e-05
4.41107e-05
4.15875e-05
3.77188e-05
0.000114569
0.000146235
5.08815e-05
0.000241924
0.000283949
0.000244574
0.000127362
4.28563e-05
4.06831e-05
3.76376e-05
0.000121964
0.000154584
7.38078e-05
0.000251238
0.000329784
0.000300069
0.000175135
4.19358e-05
3.97524e-05
3.77607e-05
0.000129421
0.000162997
7.50826e-05
0.000250597
0.000385698
0.000368543
0.000241657
5.98406e-05
3.87755e-05
3.84384e-05
0.000136624
0.000172218
6.67991e-05
0.000254473
0.000450468
0.000447799
0.000319793
0.000142193
5.05259e-05
3.96019e-05
0.000142003
0.000179856
5.8502e-05
0.000315937
0.00053157
0.000537366
0.000405005
0.000214198
7.31395e-05
4.41587e-05
0.000146075
0.000183531
8.36341e-05
0.000433146
0.000643976
0.00064331
0.000500266
0.000233572
9.53844e-05
4.7358e-05
0.000154434
0.000192925
7.93595e-05
0.000589768
0.000785856
0.000771046
0.000613534
0.000213809
8.96564e-05
4.62329e-05
0.000166561
0.00020583
8.86423e-05
0.000742219
0.000949616
0.000924778
0.00076312
0.000340515
9.26783e-05
4.57296e-05
0.000175791
0.000217872
0.000151532
0.00089686
0.00113988
0.00111089
0.000952187
0.000500758
0.000151606
5.34395e-05
0.000181965
0.000231556
0.00037031
0.00116349
0.00138384
0.00133768
0.00116961
0.000646535
0.000243181
7.23304e-05
0.000190422
0.000247638
0.000638653
0.00150823
0.00168721
0.00161994
0.00142631
0.00077723
0.000294713
9.06981e-05
0.000202992
0.000349475
0.00088909
0.00192927
0.0020581
0.00198316
0.00175638
0.00109026
0.000366395
0.000113841
0.000216215
0.000538381
0.00179051
0.00245209
0.00251187
0.00246146
0.0023041
0.00191442
0.000621692
0.000162899
0.000231759
)
;
    }
    inlet
    {
        type            turbulentIntensityKineticEnergyInlet;
        intensity       0.05;
        value           uniform 2.4e-05;
    }
    outlet
    {
        type            inletOutlet;
        inletValue      uniform 0.003;
        value           nonuniform List<scalar> 
20
(
0.000548101
0.003
0.003
0.003
0.003
0.003
0.003
0.000611136
0.00015884
0.00023216
0.000538381
0.003
0.003
0.003
0.003
0.003
0.003
0.000621692
0.000162899
0.000231759
)
;
    }
    heatWall
    {
        type            kqRWallFunction;
        value           nonuniform List<scalar> 
240
(
2.37097e-05
2.37173e-05
2.34257e-05
2.34178e-05
2.31359e-05
2.30987e-05
2.27867e-05
2.2755e-05
2.23874e-05