/*--------------------------------*- C++ -*----------------------------------*\
  =========                 |
  \\      /  F ield         | OpenFOAM: The Open Source CFD Toolbox
   \\    /   O peration     | Website:  https://openfoam.org
    \\  /    A nd           | Version:  8
     \\/     M anipulation  |
\*---------------------------------------------------------------------------*/
FoamFile
{
    version     2.0;
    format      ascii;
    class       surfaceScalarField;
    location    "700";
    object      phi;
}
// * * * * * * * * * * * * * * * * * * * * * * * * * * * * * * * * * * * * * //

dimensions      [1 0 -1 0 0 0 0];

internalField   nonuniform List<scalar> 
2860
(
0.00800657
3.09063e-06
-0.00032954
0.00797735
6.6771e-05
-0.00131214
0.00791853
6.9785e-05
-0.00272202
0.0078453
7.62976e-05
-0.00310319
0.00779396
7.74039e-05
-0.000798903
0.00771629
0.000105956
0.00405926
0.00754209
0.000184598
0.00990378
0.00723434
0.000316427
0.0234326
0.00692883
0.000380609
0.0341294
0.00773078
-0.000247187
0.0657911
0.00914471
-0.000747685
0.0972341
0.00986947
-0.000260998
0.0894561
0.00915141
0.000990478
0.0598652
0.00937057
-0.000177774
0.0650517
0.0107209
-0.00103203
0.0970762
0.0125153
-0.0014946
0.118955
0.0140406
-0.00125346
0.1209
0.0158782
-0.00187633
0.126745
0.0177964
-0.00166531
0.156404
0.0203986
-0.00242383
0.200534
0.0229485
-0.0023957
0.235961
0.0253722
-0.00208497
0.277511
0.028789
-0.00314888
0.318421
0.0332496
-0.00442701
0.322287
0.0378839
-0.00466285
0.312219
0.0420138
-0.00423289
0.294543
0.0448435
-0.00324171
0.252661
0.0460355
-0.00170993
0.193935
0.0491296
-0.00257026
0.152649
0.0571105
-0.00661091
0.139286
0.0664696
-0.00853638
0.143815
0.0730284
-0.00663837
0.146745
0.0757103
-0.0034795
0.138589
0.0757133
-0.00109594
0.119909
0.0746759
0.000162492
0.0958228
0.0733227
0.000834764
0.0681646
0.0720703
0.00118781
0.0401958
0.0721631
-5.17553e-05
0.00809341
0.0712852
-0.000148928
-0.0228856
0.071359
-0.00279906
-0.0465165
0.0776423
-0.00847098
-0.0576904
0.0874997
-0.00891152
-0.0719407
0.0939972
-0.00715853
-0.0992209
0.0947497
-0.00158317
-0.132115
0.0926965
0.00121842
-0.151678
0.0883258
0.00355206
-0.152159
0.084322
0.00333177
-0.141468
0.0817068
0.00215077
-0.143035
0.0803051
0.00143348
-0.194158
0.0806492
-7.88519e-05
-0.226497
0.0819217
-0.0021023
-0.228808
0.0788383
0.00291395
-0.205185
0.0857031
-0.00748097
-0.198028
0.0873007
-0.000153122
-0.204695
0.0778647
0.0113223
-0.203844
0.0499603
0.0286882
-0.252124
0.0442768
0.0158221
-0.22466
0.062979
0.00633687
-0.0351614
0.114333
-0.00367706
0.275506
-0.0123678
0.250552
0.00798212
-3.67526e-05
-0.000187693
0.0079696
2.92824e-05
-0.00107393
0.00792222
4.69071e-05
-0.00260057
0.00787161
7.19185e-05
-0.00345023
0.0078551
0.000100278
-0.00146025
0.00779201
0.000198133
0.00389526
0.00759373
0.000400977
0.0124743
0.0071007
0.000862537
0.0373657
0.00669216
0.00123446
0.0926889
0.00559676
0.00160973
0.294631
0.00202739
0.00287238
0.496836
-0.000911248
0.00208742
0.473456
-0.00122038
0.00131445
0.322088
0.00139474
-0.0022633
0.261837
0.00503393
-0.00327944
0.0923454
0.00659149
-0.00216696
0.128736
0.00678855
-0.000996072
0.237464
0.00769176
-0.00212767
0.294063
0.00946315
-0.00263882
0.445031
0.0112924
-0.00397193
0.575287
0.0127975
-0.00429148
0.619988
0.0141891
-0.00427434
0.568315
0.0156337
-0.00535655
0.463389
0.0173085
-0.00638912
0.343709
0.0190653
-0.00644696
0.266836
0.0206005
-0.00579024
0.221346
0.0219837
-0.00524198
0.154657
0.0213823
-0.00371685
0.0726782
0.0196055
-1.37383e-05
0.0357704
0.0195011
-0.00183883
0.110855
0.020022
-0.00768533
0.185515
0.021685
-0.00941145
0.218237
0.0238632
-0.00684633
0.227456
0.0253021
-0.00311979
0.211281
0.0251403
0.00050094
0.168311
0.0242259
0.00289203
0.118461
0.0242236
0.00403847
0.0724444
0.0265381
0.00293171
0.00967954
0.0280861
-0.00155584
-0.0344275
0.0277337
-0.00261112
-0.0446973
0.0318593
-0.00094271
-0.0326302
0.0393229
0.00214183
0.000687343
0.0382293
0.00163114
-0.0328621
0.0332675
0.00258959
-0.145483
0.0279212
0.00794006
-0.241714
0.0216635
0.00997865
-0.266254
0.0161091
0.00808891
-0.230248
0.0122289
0.00438239
-0.215144
0.0120489
-0.000433033
-0.33642
0.0142441
-0.0020852
-0.443595
0.00987667
0.00473187
-0.462598
0.0044208
0.0213813
-0.0900545
-0.0129002
0.0211706
0.199633
-0.0788188
0.0062504
-0.0598987
-0.0546256
-0.00281111
-0.075366
-0.00971412
-0.00156131
-0.476271
9.97408e-05
0.0194877
0.88892
-0.0017941
0.0110809
1.47857
-0.0259138
0.00288236
0.934741
-0.0220439
-0.507994
0.0079393
3.33737e-05
-0.000276364
0.0079335
6.68148e-05
-0.00201123
0.00790528
7.08204e-05
-0.00474698
0.0078823
8.51044e-05
-0.00646472
0.00788086
0.000142936
-0.00467211
0.00786713
0.000286682
0.000970469
0.00777351
0.000535737
0.00881994
0.00757899
0.00113029
0.0275686
0.0074385
0.00188511
0.0697221
0.00677298
0.00335418
0.228372
0.00470876
0.00513372
0.384838
0.00143528
0.00434165
0.375709
-2.44295e-05
0.00117224
0.152703
0.00226388
-0.00199469
-0.0454726
0.00388847
-0.00468846
-0.260316
0.00486538
-0.00376556
-0.287419
0.00524823
-0.00219264
-0.184427
0.00624659
-0.00332938
-0.0803543
0.00655633
-0.00282385
0.0417048
0.00627867
-0.0027993
0.277265
0.00626176
-0.00393704
0.301368
0.00552781
-0.00369738
0.204646
-0.000157783
-0.000535294
0.179103
-0.00960906
0.00226563
0.165502
-0.019266
0.00248957
0.186419
-0.0281164
0.00230117
0.209057
-0.0359587
0.00177384
0.23464
-0.042349
0.00212897
0.273369
-0.0465035
0.00377423
0.323806
-0.0498039
0.00160083
0.362294
-0.0535923
-0.00352908
0.380849
-0.0573266
-0.00520568
0.376429
-0.0608785
-0.00261643
0.360601
-0.0637819
0.0012227
0.344049
-0.0658367
0.00461311
0.323051
-0.067528
0.00740445
0.299062
-0.0692076
0.00929171
0.276603
-0.0715405
0.00924939
0.250337
-0.0749263
0.00674351
0.233231
-0.0791558
0.00352926
0.27916
-0.0822774
0.00258918
0.34143
-0.0835439
0.00391615
0.381736
-0.0847898
0.00440842
0.408595
-0.0863136
0.00610137
0.438941
-0.0871393
0.0113158
0.477315
-0.0874211
0.0135266
0.502643
-0.0854337
0.0100647
0.510756
-0.0795294
0.00359792
0.466628
-0.0710592
-0.000698071
0.376044
-0.0614406
0.00058721
0.265883
-0.0601397
0.0100558
0.0951873
-0.070989
0.0203317
-0.0661697
-0.0734218
0.0238732
-0.250223
-0.0853243
0.013851
-0.453255
-0.0977813
0.00650231
-0.529181
-0.115277
0.0156448
-0.572556
-0.119612
0.0296446
-0.563846
-0.131113
0.0212525
-0.717955
-0.141837
0.0122895
-0.858758
-0.00464547
-0.866165
0.00797203
4.17074e-05
-0.000257741
0.00797163
5.48254e-05
-0.0015811
0.0079403
5.88413e-05
-0.00337377
0.00790807
8.26406e-05
-0.00419326
0.0079201
0.000152091
-0.00233646
0.00793181
0.000329914
0.00231807
0.00785783
0.000643015
0.00781446
0.00770255
0.00135192
0.0216188
0.00768485
0.00236382
0.054988
0.00787449
0.00428624
0.200621
0.00739483
0.0057437
0.322792
0.00578578
0.00500511
0.308034
0.00364277
0.00210528
0.207733
0.00334161
0.00352952
-0.0422643
0.00170587
-0.00170926
-0.342762
-0.000816809
-0.00165316
-0.463068
-0.00327087
0.000240473
-0.418993
-0.00771423
0.00313606
-0.18409
-0.0145678
0.00180352
0.10467
-0.0207057
0.0020349
0.164183
-0.0266842
0.0011501
0.178761
-0.032439
0.0012218
0.179766
-0.0380926
0.0045798
0.194363
-0.044586
0.00829394
0.21869
-0.0519809
0.00913187
0.254888
-0.0593065
0.00868649
0.289798
-0.0661473
0.00759595
0.321857
-0.0723297
0.00723054
0.354382
-0.0779451
0.00834572
0.388382
-0.0833673
0.00599365
0.424071
-0.0890836
0.0012186
0.455143
-0.09457
-0.000432053
0.478314
-0.0989437
0.0012474
0.492259
-0.10224
0.00427662
0.501567
-0.104719
0.00747258
0.507641
-0.106305
0.0102441
0.510202
-0.107011
0.0123701
0.509741
-0.106913
0.0130579
0.503241
-0.10583
0.0113705
0.481898
-0.103007
0.00777752
0.441708
-0.0977308
0.00590236
0.377754
-0.0917653
0.00642162
0.279076
-0.0904359
0.00616707
0.177439
-0.0940865
0.00530935
0.114442
-0.0956013
0.009398
0.0720466
-0.0971066
0.0193808
-0.0132145
-0.0971551
0.0135857
-0.122902
-0.0979713
0.00408094
-0.217352
-0.1019
0.000726057
-0.283171
-0.105695
0.00293956
-0.339377
-0.106654
0.0107558
-0.4209
-0.110393
0.0201249
-0.547922
-0.117574
0.0252013
-0.740461
-0.126385
0.0172895
-0.928211
-0.135148
0.0112981
-1.06109
-0.142813
0.0220928
-1.14884
-0.148201
0.0359637
-1.18807
-0.159381
0.0337598
-1.20529
-0.171031
0.0283615
-1.13822
0.0124903
-0.944902
0.00796843
5.19456e-05
-0.000275574
0.00796132
5.48933e-05
-0.00173959
0.00793319
5.29752e-05
-0.00394694
0.00791689
7.65205e-05
-0.00530469
0.00794
0.000162163
-0.00418667
0.00800407
0.000347742
-0.000209338
0.0080171
0.000670782
0.00377432
0.00806068
0.00135122
0.0111926
0.00831365
0.00234576
0.0271116
0.0090027
0.00438425
0.114463
0.00948286
0.00556224
0.214475
0.00935959
0.00462468
0.236064
0.00820884
0.00250703
0.197055
0.00719513
0.00360233
0.102692
0.00482225
0.00435631
-0.113556
0.000790116
0.00326375
-0.406215
-0.00132719
0.00228874
-0.416446
-0.00165837
0.00428651
-0.366964
-0.00236286
0.00280551
-0.346232
-0.00471602
0.00531024
-0.272066
-0.0102731
0.00674833
-0.0362505
-0.0170079
0.00687557
0.074912
-0.0226498
0.00892586
0.132344
-0.0278099
0.0121099
0.162852
-0.032925
0.0131032
0.184772
-0.0380898
0.0127109
0.204866
-0.0432303
0.0114957
0.223979
-0.0481661
0.0108454
0.246584
-0.0526122
0.0112906
0.268377
-0.0569402
0.00931892
0.295965
-0.0616405
0.00578471
0.325467
-0.0661919
0.0042969
0.348017
-0.0696099
0.00509425
0.360637
-0.0715779
0.00698666
0.364771
-0.0721998
0.00935015
0.353054
-0.0713697
0.011067
0.323918
-0.0690779
0.0117939
0.278682
-0.0664571
0.0107937
0.214661
-0.0668286
0.00797785
0.144681
-0.0707463
0.00555276
0.0858734
-0.0751748
0.0047491
0.0248128
-0.0767201
0.00498507
-0.0408481
-0.0784918
0.00554756
-0.097292
-0.0803826
0.00513284
-0.151726
-0.0794301
0.00718517
-0.2061
-0.0802787
0.019399
-0.274162
-0.0819616
0.0112861
-0.355263
-0.0848627
0.000684781
-0.441791
-0.0911083
0.00079754
-0.525593
-0.0981006
0.00325428
-0.611065
-0.10383
0.0108888
-0.731609
-0.10991
0.0217933
-0.874993
-0.116931
0.0275939
-1.04759
-0.123582
0.0187832
-1.2084
-0.129177
0.0116718
-1.33071
-0.133254
0.0216213
-1.41222
-0.136012
0.0352205
-1.45891
-0.140398
0.0360501
-1.5158
-0.146571
0.0359084
-1.52449
0.0239008
-1.47617
0.00796906
5.54355e-05
-0.000238166
0.00796311
4.73473e-05
-0.00159738
0.00793816
4.08244e-05
-0.00360913
0.00793221
6.33085e-05
-0.00490745
0.00797345
0.000149534
-0.00471091
0.00807077
0.00032426
-0.00216958
0.00815725
0.000627022
0.000127593
0.00829789
0.00123859
0.00326066
0.00864909
0.00210261
0.00914428
0.00966232
0.00384233
0.0538054
0.0107995
0.00474111
0.122158
0.0112654
0.00399696
0.152638
0.0109262
0.00253867
0.15198
0.0106998
0.00348358
0.138483
0.0102928
0.00455637
0.045657
0.00921694
0.00478898
-0.0943522
0.00777842
0.00431288
-0.218855
0.00651784
0.00532833
-0.304268
0.00496838
0.00415638
-0.437864
0.00384329
0.00641585
-0.525722
0.00238604
0.00784641
-0.343662
-0.000388886
0.00945144
-0.194367
-0.00317275
0.0120497
-0.0457429
-0.00586848
0.0138017
0.0373835
-0.00775381
0.0141398
0.0647205
-0.00922259
0.0133792
0.0865405
-0.0105657
0.0119687
0.0980058
-0.0118165
0.0110153
0.110089
-0.0126675
0.0100585
0.103112
-0.0145684
0.00922087
0.119737
-0.0187018
0.00929181
0.165193
-0.0229634
0.00883926
0.207017
-0.0259901
0.0082037
0.228009
-0.0281618
0.00884666
0.244567
-0.0297146
0.0102463
0.248681
-0.0302486
0.0107766
0.242499
-0.0296271
0.0106999
0.241876
-0.0284075
0.00974532
0.243171
-0.0276875
0.00796263
0.246426
-0.0279843
0.00731149
0.237563
-0.0287349
0.00812241
0.218943
-0.0291179
0.0087673
0.188529
-0.0302797
0.0100161
0.145887
-0.0323359
0.0108849
0.110457
-0.0329421
0.0114533
0.0540547
-0.0402725
0.00676465
-0.0697792
-0.0423788
0.000209577
-0.145383
-0.0443925
-0.00326556
-0.254891
-0.0531841
0.00278838
-0.395196
-0.0615213
0.00516488
-0.48568
-0.0689169
0.0127121
-0.601309
-0.0767849
0.0243487
-0.731902
-0.0850816
0.0302334
-0.846812
-0.0920565
0.0196337
-0.906519
-0.0974586
0.0108142
-0.915602
-0.100974
0.0167805
-0.888776
-0.1047
0.0258627
-0.775412
-0.108941
0.0196153
-0.672591
-0.112468
0.00774993
-0.521841
0.0062278
-0.284856
0.00797224
4.66016e-05
-0.00015203
0.00797344
1.76581e-05
-0.00122366
0.00795243
1.00983e-05
-0.00259199
0.00795454
3.35091e-05
-0.00330002
0.00800857
0.000111464
-0.00347829
0.00812484
0.000253309
-0.00217084
0.00826848
0.000494892
-0.00117241
0.00852583
0.00096461
-0.000991837
0.00898042
0.00167023
-0.000969215
0.0100409
0.00298707
0.0132506
0.0113375
0.0036589
0.0450976
0.0122508
0.00305003
0.0671229
0.0125051
0.00206231
0.0719169
0.0125907
0.00283238
0.0691454
0.0130338
0.00373404
0.0542502
0.0134969
0.00412869
0.00537929
0.0137938
0.00441824
-0.052097
0.0138859
0.00531129
-0.118616
0.0131022
0.00505022
-0.193319
0.0122918
0.0068107
-0.299926
0.0120851
0.0074684
-0.344931
0.0122851
0.0089152
-0.331737
0.012905
0.0115934
-0.274524
0.0141012
0.0133785
-0.217625
0.0157524
0.0136687
-0.173396
0.0175935
0.0128539
-0.130363
0.0192222
0.011476
-0.103496
0.0209495
0.010371
-0.0842828
0.0224679
0.00968901
-0.0973199
0.022563
0.00969389
-0.115385
0.0212143
0.00995586
-0.0866574
0.0191438
0.0096375
-0.0544225
0.0165669
0.00918941
-0.0181183
0.0152921
0.00980556
0.0370481
0.0143764
0.0102083
0.0776929
0.0142458
0.00934727
0.0867985
0.0145681
0.00795396
0.0928149
0.0149871
0.00686032
0.100219
0.0150527
0.0067492
0.113271
0.0150021
0.00706579
0.136495
0.0159114
0.00662504
0.177468
0.0177804
0.00610346
0.209254
0.018862
0.00908278
0.232793
0.0191924
0.012425
0.280808
0.0191593
0.0135692
0.334003
0.0166342
0.00726031
0.332158
0.0120821
0.000695232
0.304134
-0.000260648
0.00274948
0.287017
-0.0143209
-0.00480738
-0.0684261
-0.0113567
-0.00227523
-0.182729
-0.0152301
0.00824482
-0.31845
-0.0194476
0.020491
-0.510534
-0.0187498
0.0225635
-0.722151
-0.0187841
0.0149094
-1.10562
-0.025054
0.0130633
-1.39551
-0.0312276
0.019021
-1.37931
-0.0330397
0.0250525
-1.25737
-0.0337932
0.0188426
-1.29629
-0.0286636
0.0117468
-0.603654
0.00819274
0.330835
0.00794172
8.81982e-05
-8.24914e-05
0.00793995
2.75303e-05
-0.00126121
0.00792447
1.4005e-05
-0.00292569
0.00794297
2.42795e-05
-0.00402133
0.0080157
8.31442e-05
-0.00530288
0.0081417
0.000194696
-0.00551352
0.00830866
0.000363404
-0.00580856
0.00859704
0.000672741
-0.00734631
0.00910889
0.00114708
-0.00936941
0.0101719
0.00199025
-0.00921445
0.0115482
0.0024105
-0.000576458
0.012536
0.00201182
0.00678518
0.0130393
0.00133237
0.00795161
0.0137904
0.00151033
0.00944481
0.0147368
0.00208092
0.0103818
0.0156156
0.00270259
0.00425806
0.0167073
0.00345004
-0.0094134
0.0179684
0.00429665
-0.0379974
0.0188156
0.00447127
-0.0829866
0.0197951
0.00582457
-0.146099
0.0207891
0.0062471
-0.200964
0.0222323
0.00713101
-0.244818
0.0247053
0.00883268
-0.27408
0.0280246
0.0100876
-0.288632
0.0316637
0.0103962
-0.296443
0.0352067
0.00986609
-0.295476
0.0382844
0.00890464
-0.293658
0.0407745
0.00820114
-0.287961
0.0426124
0.00782379
-0.287587
0.0440948
0.00772294
-0.29017
0.0455728
0.00770107
-0.273798
0.0469963
0.00754205
-0.256617
0.0481142
0.00745539
-0.237825
0.0494285
0.00780859
-0.206732
0.0515033
0.00786447
-0.176634
0.0538885
0.00711328
-0.166174
0.0558231
0.00623483
-0.164408
0.0565365
0.00571955
-0.162137
0.0559143
0.00584178
-0.151332
0.0543143
0.00635005
-0.121542
0.0519818
0.00677145
-0.08277
0.0497457
0.00761147
-0.0464343
0.0527867
0.00749047
-0.00413083
0.0593813
0.00453998
0.0406245
0.0646759
0.000135783
0.0709076
0.0658428
-0.00462052
0.0661236
0.062335
-0.00666282
0.0398299
0.0575184
-0.00433034
0.0255922
0.0440584
-0.00324991
0.00135264
0.0324574
-0.000793949
0.000525467
0.0268432
0.00181679
-0.00612618
0.0296513
0.00436039
-0.0975532
0.0363065
0.00877745
-0.25384
0.0370064
0.00595916
-0.400607
0.0369936
0.00631173
-0.590032
0.0397345
0.0129374
-0.908452
0.0446866
0.0177518
-1.07148
0.0461074
0.0154488
-1.29797
0.0434144
0.0100381
-1.13994
0.00493717
-1.06909
0.00798262
1.60233e-05
5.91769e-06
0.0079732
-4.59826e-05
-0.000574555
0.00794646
-4.74323e-05
-0.00120477
0.0079611
-3.62831e-05
-0.00143322
0.00803672
9.27076e-06
-0.00243293
0.00817428
7.72945e-05
-0.00317533
0.00835635
0.000168046
-0.00453397
0.00865763
0.000329152
-0.00840856
0.0092026
0.000572465
-0.0140644
0.0102211
0.000989669
-0.0214023
0.011479
0.00119619
-0.0265958
0.0125114
0.00101219
-0.0322551
0.0131975
0.000709035
-0.040686
0.0140053
0.000832214
-0.0490593
0.0150848
0.00111965
-0.0526879
0.0163545
0.00138004
-0.0487677
0.017968
0.00179426
-0.0393186
0.0199807
0.00230897
-0.0335718
0.0219816
0.00255689
-0.0379557
0.0244686
0.00340784
-0.0557084
0.0270244
0.00368694
-0.0855272
0.0299227
0.00415601
-0.120784
0.033661
0.00495208
-0.160107
0.0380638
0.00546555
-0.196385
0.0426435
0.00560417
-0.228221
0.046943
0.00539962
-0.253097
0.0506957
0.00502257
-0.272947
0.0539697
0.0047837
-0.286704
0.0569939
0.00458098
-0.299942
0.0601207
0.00426386
-0.316003
0.0634564
0.00389294
-0.323181
0.0668134
0.00360435
-0.330196
0.0701384
0.00341719
-0.333898
0.07365
0.00345268
-0.32731
0.077153
0.00367921
-0.319066
0.0800424
0.00367025
-0.31711
0.0821586
0.00345308
-0.317254
0.0838178
0.00308815
-0.317457
0.0855696
0.00288747
-0.314526
0.0877485
0.00303376
-0.302652
0.0903823
0.00344451
-0.28914
0.0937316
0.00415804
-0.278033
0.0974252
0.00432
-0.269213
0.099872
0.00291735
-0.262844
0.0998633
0.000433044
-0.260384
0.0971476
-0.00213702
-0.258745
0.0935196
-0.00323694
-0.261788
0.0914437
-0.0022823
-0.273056
0.0892639
-0.00224067
-0.285579
0.0878993
-0.0010882
-0.278759
0.0867293
0.00026326
-0.249162
0.0866678
0.00240146
-0.227147
0.0890289
0.00405268
-0.248758
0.0895539
0.00186896
-0.33723
0.0904497
0.00266379
-0.482324
0.0946032
0.00657587
-0.672935
0.101407
0.00916981
-0.802442
0.107341
0.00832157
-0.988181
0.110258
0.006031
-1.0101
0.0028766
-1.06215
0.00800971
9.93069e-05
0.00798356
-0.000572442
0.00794488
-0.00109468
0.00793317
-0.00099772
0.0079781
-0.00165752
0.0080887
-0.00194948
0.00825807
-0.0025018
0.00855786
-0.00503365
0.00910205
-0.00892102
0.0101015
-0.0158377
0.0113329
-0.0229368
0.0123806
-0.0288309
0.0131208
-0.0343839
0.0139878
-0.0385534
0.0151221
-0.0411307
0.0164951
-0.0388197
0.0182799
-0.0305655
0.0206039
-0.0217324
0.0231641
-0.0171624
0.0265889
-0.0162861
0.0302555
-0.0196995
0.0344047
-0.0269136
0.039475
-0.0391741
0.0450689
-0.0553773
0.0507788
-0.0732298
0.056193
-0.088634
0.0611104
-0.0999267
0.0656302
-0.105847
0.06976
-0.110953
0.0736001
-0.11903
0.0772694
-0.123808
0.0807842
-0.13096
0.0842303
-0.139888
0.0879104
-0.149536
0.0918307
-0.159683
0.0955548
-0.170154
0.0988438
-0.178872
0.101716
-0.187706
0.104449
-0.197249
0.107344
-0.201801
0.110538
-0.203117
0.114326
-0.201985
0.11818
-0.199676
0.120515
-0.1957
0.120503
-0.193079
0.118084
-0.193342
0.114571
-0.194229
0.112017
-0.19756
0.109584
-0.204194
0.108516
-0.200517
0.108925
-0.193525
0.111628
-0.19438
0.115263
-0.216511
0.116184
-0.272684
0.11825
-0.355289
0.124479
-0.472647
0.133491
-0.551605
0.142243
-0.668725
0.148739
-0.66968
-0.830566
0.0080043
3.13102e-06
0.00797869
6.18919e-05
0.00792903
6.70437e-05
0.00786275
7.97541e-05
0.00779993
9.15181e-05
0.00770358
0.000119163
0.00750252
0.000203853
0.00713519
0.000363763
0.00664717
0.000496844
0.00743574
-3.00567e-05
0.00907397
-0.000478986
0.0100964
-3.48757e-07
0.00918816
0.0011209
0.00949203
-0.000170904
0.0107487
-0.000877361
0.0125152
-0.00142334
0.0140021
-0.00123909
0.0159701
-0.00198574
0.0178689
-0.00169324
0.0205613
-0.00241286
0.023148
-0.00243154
0.0255596
-0.00206325
0.02893
-0.00311554
0.0334446
-0.00447529
0.0381759
-0.0047923
0.0425302
-0.00441109
0.0457354
-0.00328821
0.0464967
-0.00111884
0.0485452
-0.00208569
0.056176
-0.00665969
0.0657156
-0.00890098
0.0728705
-0.007378
0.076433
-0.0044424
0.0773079
-0.00202188
0.0769135
-0.000683815
0.0756565
0.000191533
0.0737523
0.000796591
0.0731545
-0.00023853
0.0734647
0.00071657
0.0769006
-0.00219951
0.0848702
-0.00633265
0.0940671
-0.00888541
0.0985525
-0.00290843
0.0971777
0.00172697
0.0935403
0.00353092
0.0889973
0.00422454
0.085555
0.00304821
0.0840777
0.00145715
0.0845673
0.000192908
0.0861543
-0.000715309
0.0878942
-0.000372527
0.0880842
0.00239399
0.0966147
-0.00707855
0.102664
-0.00437926
0.101684
0.003692
0.0889878
0.0151792
0.0795422
0.0122068
0.0692838
0.00545953
0.0701819
-0.0220155
-0.00904719
0.00797945
-3.72923e-05
0.00796697
2.36112e-05
0.00793022
4.21175e-05
0.0078959
7.24578e-05
0.00787781
0.000107132
0.0078088
0.000202858
0.00760013
0.000418449
0.00708969
0.000906706
0.00663858
0.00135242
0.00556852
0.00175815
0.00206498
0.00307446
-0.00083106
0.00232275
-0.00120335
0.00154472
0.0014766
-0.00255498
0.00510345
-0.00336339
0.00666632
-0.00217547
0.00685319
-0.00098581
0.00783992
-0.00236972
0.00954527
-0.0027031
0.0114004
-0.00397887
0.0129333
-0.00436075
0.0143543
-0.00423573
0.0158063
-0.00527454
0.0175403
-0.00658418
0.0193653
-0.00683456
0.021072
-0.00641013
0.0226866
-0.00626389
0.0218712
-0.00529235
0.0202105
-0.000825465
0.020921
-0.000919496
0.0208201
-0.00705601
0.0218086
-0.010278
0.0238965
-0.00886205
0.0260488
-0.00542469
0.0268676
-0.00129658
0.0264865
0.00137521
0.0266222
0.00264674
0.0300841
0.00217086
0.0346792
0.00192988
0.0379324
0.000175078
0.0389666
0.000782922
0.0450232
0.0037232
0.0416917
0.00313043
0.0341643
0.00516533
0.0282025
0.00904419
0.0223173
0.010129
0.0175956
0.00788169
0.0145253
0.00448881
0.0154861
0.000354042
0.0180348
-0.000657494
0.0189911
0.00631092
0.0116396
0.0167783
0.0167296
0.0245168
0.0113651
0.00492544
0.00762675
0.00314942
-0.00191229
0.0115747
-0.00898873
0.0188516
-0.0137058
0.0128026
-0.0202367
0.000137366
-0.0209035
0.00793391
3.19009e-05
0.00792945
5.73716e-05
0.0079145
6.07371e-05
0.00790946
8.16287e-05
0.00791198
0.00013471
0.00788957
0.000266718
0.00778862
0.000528894
0.00758058
0.00113806
0.0074085
0.00193546
0.00676385
0.00341473
0.00474096
0.00524785
0.00150273
0.00450886
7.94883e-05
0.00131205
0.00215649
-0.00237107
0.003839
-0.00489368
0.00481779
-0.00386228
0.00525118
-0.00220552
0.00605634
-0.00338343
0.00647142
-0.00335389
0.00633233
-0.0028727
0.00630255
-0.0039673
0.00580003
-0.00409363
0.000379083
-0.00088099
-0.00891222
0.00223251
-0.0185977
0.00227167
-0.027468
0.0018715
-0.035319
0.00102623
-0.0421334
0.00080718
-0.0464518
0.00287393
-0.0493077
0.00187424
-0.0528676
-0.00336019
-0.0566711
-0.00627123
-0.0602292
-0.00478772
-0.0630075
-0.00140001
-0.064775
0.00184279
-0.066072
0.00488683
-0.0676522
0.00735319
-0.0701593
0.00822493
-0.0738473
0.00701015
-0.0783015
0.00450194
-0.0809474
0.00441868
-0.081989
0.00544531
-0.0836861
0.00457219
-0.0853131
0.00687681
-0.0859476
0.0115609
-0.0865265
0.0122598
-0.0848818
0.00842018
-0.0795854
0.00236001
-0.0729971
-0.00157783
-0.0667409
8.33606e-05
-0.0603394
0.00994667
-0.0653082
0.016159
-0.0698355
0.0209911
-0.0819065
0.0134856
-0.0900014
0.0109125
-0.100071
0.0234906
-0.105598
0.0341429
-0.116046
0.0314607
-0.130314
0.0200599
-0.00541756
0.00796816
3.99816e-05
0.00797033
4.60616e-05
0.00795062
4.88811e-05
0.00793331
7.68538e-05
0.00794247
0.000133452
0.00794895
0.00028697
0.00788081
0.000604166
0.00772448
0.00131485
0.00767624
0.00235214
0.0078634
0.00430314
0.00740289
0.00583727
0.00580885
0.0051707
0.00368464
0.00230142
0.00312271
0.0031391
0.00164053
-0.00196027
-0.000855584
-0.00178958
-0.00323968
0.000122749
-0.00778212
0.00296839
-0.0147642
0.00201191
-0.0208328
0.00206653
-0.0268208
0.00113411
-0.0325497
0.000966518
-0.0381604
0.00414922
-0.0445506
0.00794501
-0.0519422
0.0087405
-0.0592817
0.00811159
-0.0661494
0.00670739
-0.0724606
0.00604006
-0.0780976
0.00771779
-0.0833591
0.00638677
-0.0889096
0.00131048
-0.0943032
-0.00154098
-0.0986696
-0.00110917
-0.10182
0.00116454
-0.104
0.00417703
-0.105294
0.00731215
-0.105752
0.0102518
-0.105452
0.0120695
-0.104179
0.011874
-0.101188
0.00971975
-0.0962305
0.00849096
-0.0915802
0.00862492
-0.0918223
0.00812437
-0.0953723
0.00676329
-0.095289
0.00894231
-0.0956651
0.0136005
-0.0947269
0.00627783
-0.0948814
-0.00194815
-0.0978567
-0.00585367
-0.101996
-0.00510392
-0.104669
0.00212764
-0.108682
0.0137556
-0.115155
0.0211272
-0.12295
0.0155967
-0.129737
0.0133344
-0.135083
0.0265111
-0.139949
0.040999
-0.149121
0.0438853
-0.162241
0.0362955
0.00940903
0.00796404
5.17932e-05
0.00795934
4.93271e-05
0.00794322
4.75469e-05
0.00794049
7.40906e-05
0.00796643
0.00013564
0.00801725
0.00028223
0.00803778
0.000594274
0.00808118
0.00126395
0.00830327
0.00227229
0.00898514
0.00435693
0.00947227
0.00562854
0.00934855
0.00479531
0.00814867
0.00275952
0.00714174
0.00408453
0.00466518
0.00439734
0.000708518
0.00305435
-0.0013781
0.00219084
-0.00177876
0.00416043
-0.00244767
0.00285744
-0.00484981
0.00547831
-0.0103563
0.00712347
-0.0169839
0.00713697
-0.0226943
0.00896533
-0.0278384
0.0121398
-0.0329422
0.0129005
-0.0381116
0.0123842
-0.043295
0.0110164
-0.0483564
0.0101791
-0.052763
0.0110975
-0.0568231
0.00972233
-0.0613005
0.00579574
-0.0657699
0.00338476
-0.0691944
0.00336286
-0.0712116
0.00452205
-0.0718573
0.00655301
-0.0711708
0.00836333
-0.0695042
0.00926056
-0.0683399
0.00808614
-0.0698161
0.00472526
-0.0725241
0.00315879
-0.0740727
0.00442797
-0.0739009
0.00594167
-0.0762003
0.00698367
-0.0790393
0.00716801
-0.0791102
0.00852653
-0.0791223
0.0131699
-0.0801279
0.00339683
-0.0829625
-0.004741
-0.0886196
-0.00619863
-0.0954478
-0.0048556
-0.101677
0.00180525
-0.107809
0.014043
-0.114171
0.0222503
-0.119699
0.0154633
-0.123531
0.0113241
-0.125752
0.023249
-0.127631
0.0373564
-0.131671
0.0421051
-0.139841
0.0394423
0.0182765
0.00796493
5.71206e-05
0.00796189
4.66703e-05
0.00794824
4.20651e-05
0.00795162
6.60817e-05
0.00799467
0.000125853
0.00807418
0.000258686
0.00816545
0.000535416
0.00831721
0.001107
0.00865123
0.00196776
0.00964983
0.00376755
0.0107821
0.00478008
0.0112523
0.00413905
0.0108756
0.00276707
0.0107195
0.0039716
0.01031
0.00500781
0.00917669
0.00490267
0.007754
0.00426082
0.00643882
0.00517176
0.00488966
0.00419018
0.00372325
0.00657856
0.00227225
0.00811678
-0.000419204
0.00979662
-0.00342881
0.0125494
-0.00585151
0.0139626
-0.00767895
0.0140922
-0.00918535
0.0133344
-0.0106822
0.0119367
-0.0122396
0.0109333
-0.0131463
0.0100513
-0.0146428
0.00933487
-0.018324
0.00954667
-0.0225812
0.00887063
-0.0259213
0.00810931
-0.0282792
0.00806831
-0.0298849
0.00880883
-0.0303872
0.00942622
-0.029573
0.00978498
-0.0280288
0.00900218
-0.0273601
0.00641115
-0.0283559
0.00482544
-0.0302706
0.00560069
-0.0315993
0.00694653
-0.0338487
0.00973144
-0.0363852
0.0140804
-0.0320505
0.0168189
-0.0364708
0.00644926
-0.0389258
-0.00102012
-0.0425074
-0.00382953
-0.0503669
-0.00238878
-0.0585938
-0.00135139
-0.0660904
0.00459259
-0.0736023
0.0165892
-0.0807918
0.0245287
-0.0858162
0.0157812
-0.0884247
0.00913661
-0.0882321
0.01664
-0.0873537
0.0256871
-0.0885224
0.0223066
-0.0952928
0.0139537
-0.00284113
0.0079688
4.8617e-05
0.00797378
1.97725e-05
0.00796256
1.5806e-05
0.00796922
3.98067e-05
0.00802416
9.29988e-05
0.00812272
0.000198024
0.00825393
0.000415498
0.00849785
0.000854834
0.00894609
0.00156191
0.0100377
0.00287563
0.0113319
0.0036552
0.0122378
0.00312153
0.0124622
0.00219085
0.0125978
0.00308908
0.0130872
0.00408821
0.0135534
0.00444358
0.0138108
0.00462134
0.013828
0.00538291
0.0130356
0.00513005
0.0121702
0.00690995
0.0119854
0.00764437
0.0122245
0.00917095
0.0129082
0.0119843
0.014147
0.0137056
0.0158308
0.0139449
0.0176952
0.0130893
0.0194282
0.0117074
0.0211643
0.0105706
0.0223492
0.00980685
0.0220994
0.00995786
0.0208025
0.0105452
0.0190801
0.010339
0.0163179
0.00972341
0.0146462
0.00998521
0.0136503
0.0102353
0.0133396
0.00919753
0.0137666
0.00769257
0.014579
0.00668515
0.0147556
0.00687235
0.0141065
0.00753195
0.0140958
0.00732252
0.0156898
0.00678839
0.0168131
0.00975367
0.0171609
0.0155738
0.0183146
0.0197818
0.0159199
0.0107959
0.0103914
0.00219367
0.00279554
0.00372226
-0.00594818
-0.00440828
-0.00673671
-0.00262698
-0.0110975
0.00656969
-0.0147948
0.0167172
-0.0133436
0.019126
-0.0127328
0.0114839
-0.0175846
0.00948775
-0.0214221
0.0154403
-0.0212297
0.020152
-0.0182626
0.0113922
-0.0332937
0.0044364
0.00697918
0.00793745
9.02183e-05
0.0079395
3.00441e-05
0.00793412
1.97497e-05
0.00795427
3.01648e-05
0.0080261
6.96982e-05
0.00813319
0.00015138
0.00828358
0.000300572
0.00856187
0.000592108
0.00908018
0.00106803
0.0101244
0.00193105
0.0115173
0.0023713
0.0125203
0.00202125
0.0129835
0.00135605
0.0137797
0.00156124
0.0147683
0.00215279
0.0156629
0.00287519
0.0167452
0.00365055
0.0179129
0.00439895
0.0187693
0.00459452
0.0196901
0.00591028
0.0206919
0.00634136
0.0221549
0.00725989
0.0246542
0.00908401
0.0279899
0.0103577
0.0316244
0.0106876
0.035145
0.0101415
0.0381983
0.00918485
0.040598
0.0084506
0.0423
0.0080062
0.0437725
0.00798971
0.0453542
0.00810306
0.0469003
0.00793758
0.0481875
0.00776183
0.0496486
0.00804064
0.0518186
0.00803864
0.0542107
0.00723499
0.0558681
0.00629171
0.0563008
0.00603268
0.0559082
0.00679235
0.055241
0.00777169
0.0543519
0.00804928
0.0521511
0.00823933
0.0519433
0.00794419
0.0546367
0.00495744
0.0585292
0.000858087
0.0594144
-0.00363034
0.0561859
-0.00530651
0.0527667
-0.0028494
0.0410353
-0.00226572
0.0323307
0.000347428
0.0342152
0.00310607
0.0437602
0.00944345
0.0487517
0.0113567
0.0500825
0.00549752
0.0499998
0.00540038
0.0521504
0.0114325
0.0566933
0.0147138
0.0566165
0.00984344
0.0530741
0.00440326
0.00507325
0.00797985
1.6891e-05
0.0079741
-4.35464e-05
0.00795362
-4.47597e-05
0.00796574
-3.28331e-05
0.00804189
3.70518e-06
0.00816186
5.69243e-05
0.0083249
0.000138587
0.0086221
0.000293087
0.0091797
0.000537457
0.0101983
0.000961632
0.0114561
0.00118702
0.0124997
0.00102889
0.013204
0.000721792
0.0139757
0.000837893
0.0150222
0.00111991
0.0163305
0.00145069
0.0179824
0.00190298
0.0199659
0.00240992
0.0219919
0.00265596
0.024403
0.00343635
0.0269586
0.00370534
0.0298633
0.00418956
0.03359
0.00507042
0.0379774
0.00561861
0.0425237
0.00580099
0.0467833
0.00561405
0.0505035
0.00525205
0.0537283
0.00498295
0.0567288
0.00467914
0.0599274
0.00437655
0.0633823
0.00411406
0.0668558
0.00383748
0.0702998
0.003502
0.073874
0.00346771
0.0773172
0.00372037
0.0800605
0.00377268
0.0820264
0.00354698
0.0837215
0.00330725
0.0858328
0.0034208
0.0886256
0.0038144
0.0918887
0.00411126
0.0954617
0.00436396
0.0988251