/*--------------------------------*- C++ -*----------------------------------*\
  =========                 |
  \\      /  F ield         | OpenFOAM: The Open Source CFD Toolbox
   \\    /   O peration     | Website:  https://openfoam.org
    \\  /    A nd           | Version:  8
     \\/     M anipulation  |
\*---------------------------------------------------------------------------*/
FoamFile
{
    version     2.0;
    format      ascii;
    class       volScalarField;
    location    "400";
    object      epsilon;
}
// * * * * * * * * * * * * * * * * * * * * * * * * * * * * * * * * * * * * * //

dimensions      [0 2 -3 0 0 0 0];

internalField   nonuniform List<scalar> 
1200
(
72.12
55.7021
44.121
35.7018
29.437
24.6752
20.9838
18.0745
15.7491
13.8583
12.2944
11.036
10.1049
9.52788
9.37673
8.98581
8.08527
6.9579
5.87566
4.94198
4.17272
3.55961
3.09045
2.72531
2.44267
2.23049
2.07173
1.94979
1.85135
1.76934
1.7023
1.65195
1.62095
1.60846
1.60329
1.58632
1.53731
1.45792
1.35921
1.25259
1.14423
1.03329
0.925019
0.826682
0.741228
0.674043
0.625518
0.593615
0.575883
0.570375
0.574731
0.582208
0.576758
0.537941
0.468749
0.388754
0.3164
0.260082
0.217236
0.187437
92.9313
58.8223
39.2325
27.3164
19.7208
14.6615
11.1744
8.6881
6.86792
5.52422
4.5142
3.74578
3.18883
3.22318
3.83294
4.32209
4.31489
3.91758
3.35163
2.76668
2.25522
1.86489
1.56497
1.3274
1.13546
0.981813
0.858898
0.759483
0.676744
0.606219
0.545341
0.492552
0.446957
0.408594
0.379368
0.364442
0.368216
0.380766
0.390163
0.389916
0.378553
0.356464
0.324011
0.285452
0.250195
0.220719
0.195926
0.175015
0.157456
0.142681
0.130375
0.121129
0.117668
0.124222
0.133626
0.136276
0.129138
0.115164
0.100775
0.0881642
92.8696
58.5437
38.8708
26.9175
19.3068
14.2669
10.8142
8.37635
6.60998
5.30622
4.32753
3.58286
3.00807
2.5866
2.38072
2.31612
2.24379
2.10542
1.91731
1.712
1.51835
1.34881
1.20158
1.0716
0.955546
0.855008
0.769519
0.696441
0.632918
0.576892
0.526969
0.482269
0.442284
0.406635
0.374894
0.346588
0.321342
0.299016
0.279353
0.26189
0.246212
0.231926
0.218377
0.205587
0.19336
0.181535
0.169915
0.158395
0.14708
0.136104
0.125575
0.115662
0.106746
0.099452
0.0942633
0.0905471
0.0871439
0.0837555
0.0801407
0.0762964
92.8698
58.628
38.9766
27.0212
19.394
14.3342
10.8652
8.4148
6.63972
5.32782
4.34229
3.59411
3.01927
2.56891
2.22331
1.97204
1.7788
1.61028
1.45137
1.30083
1.16577
1.04867
0.946573
0.85698
0.778013
0.708095
0.645743
0.589955
0.540127
0.495533
0.455463
0.419362
0.386782
0.35737
0.330817
0.306848
0.285149
0.265434
0.247574
0.231417
0.216758
0.203411
0.191276
0.180221
0.170116
0.160834
0.152243
0.144249
0.136852
0.13006
0.123765
0.117685
0.111533
0.105233
0.0989328
0.0928787
0.0872559
0.0822088
0.0776055
0.0733437
92.8699
58.6338
38.9702
27.0098
19.3816
14.3213
10.8526
8.40312
6.62921
5.31845
4.33276
3.58714
3.01728
2.57072
2.21485
1.93157
1.70464
1.51905
1.36277
1.22741
1.10919
1.0058
0.914253
0.832286
0.758452
0.691924
0.631865
0.577484
0.528231
0.483621
0.443211
0.406655
0.373654
0.343915
0.317207
0.293311
0.271978
0.253009
0.236244
0.221464
0.208354
0.196485
0.185528
0.175345
0.165844
0.156933
0.14849
0.140491
0.13322
0.126753
0.121017
0.115679
0.110611
0.105633
0.100639
0.0956041
0.0905315
0.0853858
0.0799651
0.0745026
92.8695
58.6377
38.9731
27.0111
19.3808
14.319
10.8484
8.39753
6.62382
5.31344
4.32948
3.59608
3.04422
2.61167
2.26096
1.97779
1.74794
1.55973
1.40255
1.26779
1.14967
1.04398
0.948219
0.860928
0.781425
0.709255
0.643801
0.584521
0.531182
0.48329
0.440194
0.40139
0.36644
0.334994
0.306788
0.281562
0.258925
0.238514
0.220187
0.203881
0.189504
0.176816
0.165497
0.155313
0.146062
0.137579
0.129811
0.122772
0.116421
0.11089
0.106392
0.102761
0.0996442
0.096613
0.0933474
0.0895883
0.0851099
0.0797804
0.0734133
0.0665927
92.8692
58.6458
38.9933
27.0391
19.4106
14.3461
10.8715
8.41522
6.63547
5.3186
4.34331
3.67347
3.18435
2.77565
2.4173
2.11574
1.86982
1.66782
1.49813
1.35016
1.21685
1.09468
0.982553
0.880374
0.788283
0.706061
0.63299
0.568111
0.511021
0.460727
0.415881
0.375576
0.339543
0.307631
0.279572
0.254915
0.233135
0.213836
0.196892
0.182117
0.169219
0.157976
0.14807
0.139155
0.130904
0.122981
0.115428
0.108353
0.101781
0.0957488
0.0905326
0.0865078
0.0836165
0.0812728
0.078689
0.075203
0.0703872
0.0642953
0.0569766
0.0496798
92.8695
58.5696
38.8904
26.9334
19.3155
14.267
10.8064
8.36232
6.5938
5.28787
4.45597
4.12994
3.83917
3.40856
2.91682
2.514
2.17792
1.88457
1.61895
1.37914
1.16889
0.991116
0.845458
0.728228
0.634309
0.556978
0.491952
0.437502
0.392595
0.355663
0.325676
0.30234
0.284354
0.269165
0.254421
0.239248
0.224655
0.211656
0.200362
0.190096
0.18004
0.169373
0.157898
0.146049
0.134293
0.123352
0.113916
0.105559
0.0973397
0.0887683
0.0813541
0.0762081
0.0724588
0.0689527
0.0649223
0.0600972
0.0544222
0.0482297
0.0416449
0.0356121
92.9323
58.849
39.2457
27.3094
19.6678
14.5892
11.0983
8.62795
6.85719
5.56956
5.80674
6.77465
6.93492
6.27476
5.30713
4.33807
3.59665
3.0421
2.60466
2.24113
1.93933
1.68885
1.47968
1.30198
1.14723
1.01352
0.89894
0.801851
0.720815
0.660072
0.616362
0.583756
0.553437
0.519516
0.480785
0.438985
0.398368
0.360268
0.323451
0.287187
0.251715
0.215056
0.177726
0.142974
0.113735
0.0933496
0.0951713
0.115055
0.125465
0.118503
0.102362
0.0865835
0.0734627
0.0628468
0.0540053
0.0464068
0.0395917
0.0335754
0.0282393
0.0239852
72.1467
55.737
44.1368
35.7072
29.4239
24.6365
20.9248
17.9926
15.6425
13.7041
12.6595
13.1768
12.6268
11.1001
9.37135
7.80332
6.46634
5.40077
4.57266
3.94213
3.46448
3.09603
2.80324
2.56512
2.36798
2.20302
2.06566
1.95492
1.86462
1.76524
1.62664
1.42637
1.17356
0.915797
0.701985
0.549834
0.450178
0.389138
0.3529
0.33178
0.31931
0.311294
0.307073
0.307359
0.316248
0.343101
0.36112
0.323483
0.247371
0.173844
0.121651
0.0900895
0.0736465
0.0655457
0.061227
0.0584614
0.0561596
0.053756
0.0513584
0.0511262
72.1411
55.766
44.1645
35.7296
29.4486
24.6748
20.978
18.07
15.749
13.8498
12.2801
11.0156
10.0741
9.47064
9.305
8.97889
8.14705
7.05167
5.97229
5.02861
4.24756
3.61891
3.13476
2.75753
2.46595
2.24776
2.08497
1.96037
1.86017
1.77644
1.70747
1.65511
1.62195
1.60765
1.60248
1.58882
1.54589
1.47237
1.37838
1.27479
1.16775
1.05661
0.946662
0.845703
0.757199
0.685843
0.63341
0.598538
0.578796
0.57198
0.575685
0.583568
0.580388
0.545412
0.479064
0.400004
0.326942
0.26922
0.224801
0.19347
92.9319
58.8451
39.2134
27.2576
19.6401
14.5976
11.1282
8.66167
6.85442
5.51845
4.51121
3.74333
3.17437
3.13393
3.70585
4.23268
4.28818
3.93546
3.39073
2.81087
2.29192
1.89176
1.58457
1.34166
1.14584
0.989477
0.864701
0.764027
0.680396
0.609175
0.547739
0.4945
0.448488
0.409556
0.379216
0.361904
0.362552
0.373651
0.383492
0.385065
0.37624
0.356911
0.3269
0.289485
0.253668
0.223524
0.19812
0.176701
0.158743
0.143653
0.131073
0.121473
0.117297
0.122813
0.132161
0.135599
0.129471
0.116149
0.101991
0.0894038
92.8698
58.5888
38.9037
26.9381
19.3163
14.269
10.8109
8.37157
6.60948
5.30744
4.32835
3.58307
3.00821
2.57783
2.35291
2.28161
2.21765
2.09144
1.91302
1.71422
1.52253
1.35411
1.20758
1.07828
0.962152
0.860424
0.773556
0.699582
0.635528
0.579028
0.528678
0.483641
0.443392
0.407531
0.375641
0.347231
0.321892
0.299385
0.279509
0.261845
0.246002
0.231627
0.218133
0.205459
0.193406
0.181783
0.170378
0.159056
0.147892
0.137004
0.126498
0.116534
0.107475
0.099921
0.0943982
0.0904317
0.0869401
0.0835724
0.0800426
0.0763028
92.8695
58.6528
38.9953
27.0347
19.4036
14.3413
10.8665
8.4141
6.64111
5.33071
4.34477
3.59551
3.02015
2.56904
2.2207
1.96709
1.7743
1.60737
1.4494
1.29937
1.16493
1.04828
0.946381
0.856771
0.777637
0.707495
0.645041
0.589364
0.539714
0.495216
0.455155
0.419021
0.386395
0.356949
0.330384
0.306419
0.284726
0.265045
0.247277
0.231226
0.216661
0.203388
0.191304
0.180276
0.170181
0.16091
0.15234
0.144357
0.136927
0.130069
0.123738
0.117711
0.11169
0.105536
0.0993428
0.0933318
0.0876894
0.0825855
0.0779318
0.0736451
92.8691
58.6452
38.9795
27.0158
19.3854
14.3256
10.8532
8.40217
6.62984
5.32018
4.33457
3.58859
3.01848
2.57116
2.21476
1.93143
1.70532
1.52093
1.3653
1.22982
1.11119
1.00741
0.915519
0.833209
0.759012
0.69212
0.631778
0.577214
0.527829
0.483105
0.442608
0.406003
0.372995
0.343293
0.316668
0.29289
0.271706
0.25292
0.236361
0.221781
0.208843
0.1971
0.186218
0.176064
0.166552
0.157599
0.14907
0.140944
0.133431
0.126727
0.120863
0.115468
0.110411
0.105503
0.100615
0.0957034
0.0907627
0.0857569
0.0804887
0.0751476
92.8691
58.6427
38.9758
27.0102
19.3797
14.3203
10.848
8.39693
6.62446
5.31449
4.33113
3.59937
3.04835
2.6158
2.26503
1.98187
1.75212
1.5638
1.40627
1.27095
1.15211
1.04567
0.949218
0.861306
0.781279
0.708696
0.64295
0.58349
0.530057
0.482113
0.438989
0.400179
0.365243
0.333829
0.30567
0.280502
0.257938
0.237634
0.219471
0.203384
0.189259
0.176816
0.165687
0.155619
0.14641
0.137907
0.130017
0.122786
0.116263
0.110586
0.105953
0.102237
0.0991012
0.0961235
0.0929813
0.0894087
0.0851763
0.0801273
0.0740479
0.0674561
92.8698
58.6485
38.9969
27.0388
19.4107
14.3489
10.8715
8.4147
6.63577
5.31928
4.34746
3.68238
3.1936
2.78264
2.42214
2.11997
1.87387
1.67152
1.50117
1.3522
1.21779
1.09461
0.981675
0.878908
0.786402
0.703937
0.630743
0.56579
0.508677
0.45838
0.413491
0.373195
0.3373
0.305582
0.277718
0.253249
0.231674
0.212613
0.195927
0.18138
0.168645
0.157496
0.147652
0.138807
0.130748
0.12309
0.115723
0.108696
0.102088
0.0959842
0.090671
0.0864948
0.0834475
0.0810425
0.0785419
0.0752667
0.0707341
0.0649095
0.057786
0.0505535
92.8704
58.5606
38.8872
26.9294
19.3136
14.2681
10.8064
8.3617
6.59351
5.28796
4.45947
4.13146
3.84118
3.4067
2.91497
2.51252
2.1757
1.88074
1.61342
1.37265
1.16236
0.985227
0.840595
0.724478
0.631366
0.554369
0.489585
0.435394
0.39079
0.354226
0.324776
0.30205
0.284418
0.269284
0.254438
0.239153
0.224519
0.211568
0.200413
0.190336
0.180575
0.170288
0.158959
0.146993
0.134985
0.123772
0.114227
0.105969
0.0978775
0.0893402
0.0817395
0.0763652
0.072503
0.0690278
0.0651269
0.0604656
0.0549382
0.0488368
0.0422795
0.0362167
92.9324
58.8416
39.2344
27.276
19.6279
14.5368
11.0372
8.56171
6.77787
5.46423
5.59382
6.60848
6.86593
6.27681
5.34171
4.37323
3.62379
3.06248
2.60416
2.23201
1.92928
1.68019
1.47233
1.29476
1.13934
1.00553
0.891184
0.794562
0.714176
0.65436
0.612165
0.582117
0.554632
0.522711
0.485102
0.443725
0.40268
0.364696
0.328468
0.293007
0.258164
0.221745
0.18402
0.148237
0.117554
0.095434
0.0949516
0.11363
0.124715
0.118778
0.103095
0.0873192
0.0741382
0.0634743
0.0546107
0.0469953
0.0401478
0.034071
0.0286484
0.0243061
72.1277
55.7095
44.1288
35.7012
29.4213
24.6409
20.9197
17.9824
15.638
13.7028
12.5199
13.0317
12.623
11.1773
9.46873
7.89775
6.54932
5.47172
4.632
3.99146
3.50597
3.13148
2.83382
2.59158
2.39063
2.22222
2.08213
1.96898
1.8771
1.77844
1.64404
1.45068
1.20363
0.946363
0.727955
0.569301
0.463861
0.398344
0.359109
0.336066
0.322429
0.313611
0.308796
0.308576
0.316673
0.342403
0.361724
0.327656
0.253437
0.179331
0.125532
0.0924677
0.0750471
0.0664535
0.0619044
0.0590452
0.0567239
0.0543296
0.0519143
0.0516019
)
;

boundaryField
{
    wall
    {
        type            epsilonWallFunction;
        value           nonuniform List<scalar> 
1200
(
72.12
92.9313
92.8696
92.8698
92.8699
92.8695
92.8692
92.8695
92.9323
72.1467
55.7021
58.8223
58.5437
58.628
58.6338
58.6377
58.6458
58.5696
58.849
55.737
44.121
39.2325
38.8708
38.9766
38.9702
38.9731
38.9933
38.8904
39.2457
44.1368
35.7018
27.3164
26.9175
27.0212
27.0098
27.0111
27.0391
26.9334
27.3094
35.7072
29.437
19.7208
19.3068
19.394
19.3816
19.3808
19.4106
19.3155
19.6678
29.4239
24.6752
14.6615
14.2669
14.3342
14.3213
14.319
14.3461
14.267
14.5892
24.6365
20.9838
11.1744
10.8142
10.8652
10.8526
10.8484
10.8715
10.8064
11.0983
20.9248
18.0745
8.6881
8.37635
8.4148
8.40312
8.39753
8.41522
8.36232
8.62795
17.9926
15.7491
6.86792
6.60998
6.63972
6.62921
6.62382
6.63547
6.5938
6.85719
15.6425
13.8583
5.52422
5.30622
5.32782
5.31845
5.31344
5.3186
5.28787
5.56956
13.7041
12.2944
4.5142
4.32753
4.34229
4.33276
4.32948
4.34331
4.45597
5.80674
12.6595
11.036
3.74578
3.58286
3.59411
3.58714
3.59608
3.67347
4.12994
6.77465
13.1768
10.1049
3.18883
3.00807
3.01927
3.01728
3.04422
3.18435
3.83917
6.93492
12.6268
9.52788
3.22318
2.5866
2.56891
2.57072
2.61167
2.77565
3.40856
6.27476
11.1001
9.37673
3.83294
2.38072
2.22331
2.21485
2.26096
2.4173
2.91682
5.30713
9.37135
8.98581
4.32209
2.31612
1.97204
1.93157
1.97779
2.11574
2.514
4.33807
7.80332
8.08527
4.31489
2.24379
1.7788
1.70464
1.74794
1.86982
2.17792
3.59665
6.46634
6.9579
3.91758
2.10542
1.61028
1.51905
1.55973
1.66782
1.88457
3.0421
5.40077
5.87566
3.35163
1.91731
1.45137
1.36277
1.40255
1.49813
1.61895
2.60466
4.57266
4.94198
2.76668
1.712
1.30083
1.22741
1.26779
1.35016
1.37914
2.24113
3.94213
4.17272
2.25522
1.51835
1.16577
1.10919
1.14967
1.21685
1.16889
1.93933
3.46448
3.55961
1.86489
1.34881
1.04867
1.0058
1.04398
1.09468
0.991116
1.68885
3.09603
3.09045
1.56497
1.20158
0.946573
0.914253
0.948219
0.982553
0.845458
1.47968
2.80324
2.72531
1.3274
1.0716
0.85698
0.832286
0.860928
0.880374
0.728228
1.30198
2.56512
2.44267
1.13546
0.955546
0.778013
0.758452
0.781425
0.788283
0.634309
1.14723
2.36798
2.23049
0.981813
0.855008
0.708095
0.691924
0.709255
0.706061
0.556978
1.01352
2.20302
2.07173
0.858898
0.769519
0.645743
0.631865
0.643801
0.63299
0.491952
0.89894
2.06566
1.94979
0.759483
0.696441
0.589955
0.577484
0.584521
0.568111
0.437502
0.801851
1.95492
1.85135
0.676744
0.632918
0.540127
0.528231
0.531182
0.511021
0.392595
0.720815
1.86462
1.76934
0.606219
0.576892
0.495533
0.483621
0.48329
0.460727
0.355663
0.660072
1.76524
1.7023
0.545341
0.526969
0.455463
0.443211
0.440194
0.415881
0.325676
0.616362
1.62664
1.65195
0.492552
0.482269
0.419362
0.406655
0.40139
0.375576
0.30234
0.583756
1.42637
1.62095
0.446957
0.442284
0.386782
0.373654
0.36644
0.339543
0.284354
0.553437
1.17356
1.60846
0.408594
0.406635
0.35737
0.343915
0.334994
0.307631
0.269165
0.519516
0.915797
1.60329
0.379368
0.374894
0.330817
0.317207
0.306788
0.279572
0.254421
0.480785
0.701985
1.58632
0.364442
0.346588
0.306848
0.293311
0.281562
0.254915
0.239248
0.438985
0.549834
1.53731
0.368216
0.321342
0.285149
0.271978
0.258925
0.233135
0.224655
0.398368
0.450178
1.45792
0.380766
0.299016
0.265434
0.253009
0.238514
0.213836
0.211656
0.360268
0.389138
1.35921
0.390163
0.279353
0.247574
0.236244
0.220187
0.196892
0.200362
0.323451
0.3529
1.25259
0.389916
0.26189
0.231417
0.221464
0.203881
0.182117
0.190096
0.287187
0.33178
1.14423
0.378553
0.246212
0.216758
0.208354
0.189504
0.169219
0.18004
0.251715
0.31931
1.03329
0.356464
0.231926
0.203411
0.196485
0.176816
0.157976
0.169373
0.215056
0.311294
0.925019
0.324011
0.218377
0.191276
0.185528
0.165497
0.14807
0.157898
0.177726
0.307073
0.826682
0.285452
0.205587
0.180221
0.175345
0.155313
0.139155
0.146049
0.142974
0.307359
0.741228
0.250195
0.19336
0.170116
0.165844
0.146062
0.130904
0.134293
0.113735
0.316248
0.674043
0.220719
0.181535
0.160834
0.156933
0.137579
0.122981
0.123352
0.0933496
0.343101
0.625518
0.195926
0.169915
0.152243
0.14849
0.129811
0.115428
0.113916
0.0951713
0.36112
0.593615
0.175015
0.158395
0.144249
0.140491
0.122772
0.108353
0.105559
0.115055
0.323483
0.575883
0.157456
0.14708
0.136852
0.13322
0.116421
0.101781
0.0973397
0.125465
0.247371
0.570375
0.142681
0.136104
0.13006
0.126753
0.11089
0.0957488
0.0887683
0.118503
0.173844
0.574731
0.130375
0.125575
0.123765
0.121017
0.106392
0.0905326
0.0813541
0.102362
0.121651
0.582208
0.121129
0.115662
0.117685
0.115679
0.102761
0.0865078
0.0762081
0.0865835
0.0900895
0.576758
0.117668
0.106746
0.111533
0.110611
0.0996442
0.0836165
0.0724588
0.0734627
0.0736465
0.537941
0.124222
0.099452
0.105233
0.105633
0.096613
0.0812728
0.0689527
0.0628468
0.0655457
0.468749
0.133626
0.0942633
0.0989328
0.100639
0.0933474
0.078689
0.0649223
0.0540053
0.061227
0.388754
0.136276
0.0905471
0.0928787
0.0956041
0.0895883
0.075203
0.0600972
0.0464068
0.0584614
0.3164
0.129138
0.0871439
0.0872559
0.0905315
0.0851099
0.0703872
0.0544222
0.0395917
0.0561596
0.260082
0.115164
0.0837555
0.0822088
0.0853858
0.0797804
0.0642953
0.0482297
0.0335754
0.053756
0.217236
0.100775
0.0801407
0.0776055
0.0799651
0.0734133
0.0569766
0.0416449
0.0282393
0.0513584
0.187437
0.0881642
0.0762964
0.0733437
0.0745026
0.0665927
0.0496798
0.0356121
0.0239852
0.0511262
72.1411
92.9319
92.8698
92.8695
92.8691
92.8691
92.8698
92.8704
92.9324
72.1277
55.766
58.8451
58.5888
58.6528
58.6452
58.6427
58.6485
58.5606
58.8416
55.7095
44.1645
39.2134
38.9037
38.9953
38.9795
38.9758
38.9969
38.8872
39.2344
44.1288
35.7296
27.2576
26.9381
27.0347
27.0158
27.0102
27.0388
26.9294
27.276
35.7012
29.4486
19.6401
19.3163
19.4036
19.3854
19.3797
19.4107
19.3136
19.6279
29.4213
24.6748
14.5976
14.269
14.3413
14.3256
14.3203
14.3489
14.2681
14.5368
24.6409
20.978
11.1282
10.8109
10.8665
10.8532
10.848
10.8715
10.8064
11.0372
20.9197
18.07
8.66167
8.37157
8.4141
8.40217
8.39693
8.4147
8.3617
8.56171
17.9824
15.749
6.85442
6.60948
6.64111
6.62984
6.62446
6.63577
6.59351
6.77787
15.638
13.8498
5.51845
5.30744
5.33071
5.32018
5.31449
5.31928
5.28796
5.46423
13.7028
12.2801
4.51121
4.32835
4.34477
4.33457
4.33113
4.34746
4.45947
5.59382
12.5199
11.0156
3.74333
3.58307
3.59551
3.58859
3.59937
3.68238
4.13146
6.60848
13.0317
10.0741
3.17437
3.00821
3.02015
3.01848
3.04835
3.1936
3.84118
6.86593
12.623
9.47064
3.13393
2.57783
2.56904
2.57116
2.6158
2.78264
3.4067
6.27681
11.1773
9.305
3.70585
2.35291
2.2207
2.21476
2.26503
2.42214
2.91497
5.34171
9.46873
8.97889
4.23268
2.28161
1.96709
1.93143
1.98187
2.11997
2.51252
4.37323
7.89775
8.14705
4.28818
2.21765
1.7743
1.70532
1.75212
1.87387
2.1757
3.62379
6.54932
7.05167
3.93546
2.09144
1.60737
1.52093
1.5638
1.67152
1.88074
3.06248
5.47172
5.97229
3.39073
1.91302
1.4494
1.3653
1.40627
1.50117
1.61342
2.60416
4.632
5.02861
2.81087
1.71422
1.29937
1.22982
1.27095
1.3522
1.37265
2.23201
3.99146
4.24756
2.29192
1.52253
1.16493
1.11119
1.15211
1.21779
1.16236
1.92928
3.50597
3.61891
1.89176
1.35411
1.04828
1.00741
1.04567
1.09461
0.985227
1.68019
3.13148
3.13476
1.58457
1.20758
0.946381
0.915519
0.949218
0.981675
0.840595
1.47233
2.83382
2.75753
1.34166
1.07828
0.856771
0.833209
0.861306
0.878908
0.724478
1.29476
2.59158
2.46595
1.14584
0.962152
0.777637
0.759012
0.781279
0.786402
0.631366
1.13934
2.39063
2.24776
0.989477
0.860424
0.707495
0.69212
0.708696
0.703937
0.554369
1.00553
2.22222
2.08497
0.864701
0.773556
0.645041
0.631778
0.64295
0.630743
0.489585
0.891184
2.08213
1.96037
0.764027
0.699582
0.589364
0.577214
0.58349
0.56579
0.435394
0.794562
1.96898
1.86017
0.680396
0.635528
0.539714
0.527829
0.530057
0.508677
0.39079
0.714176
1.8771
1.77644
0.609175
0.579028
0.495216
0.483105
0.482113
0.45838
0.354226
0.65436
1.77844
1.70747
0.547739
0.528678
0.455155
0.442608
0.438989
0.413491
0.324776
0.612165
1.64404
1.65511
0.4945
0.483641
0.419021
0.406003
0.400179
0.373195
0.30205
0.582117
1.45068
1.62195
0.448488
0.443392
0.386395
0.372995
0.365243
0.3373
0.284418
0.554632
1.20363
1.60765
0.409556
0.407531
0.356949
0.343293
0.333829
0.305582
0.269284
0.522711
0.946363
1.60248
0.379216
0.375641
0.330384
0.316668
0.30567
0.277718
0.254438
0.485102
0.727955
1.58882
0.361904
0.347231
0.306419
0.29289
0.280502
0.253249
0.239153
0.443725
0.569301
1.54589
0.362552
0.321892
0.284726
0.271706
0.257938
0.231674
0.224519
0.40268
0.463861
1.47237
0.373651
0.299385
0.265045
0.25292
0.237634
0.212613
0.211568
0.364696
0.398344
1.37838
0.383492
0.279509
0.247277
0.236361
0.219471
0.195927
0.200413
0.328468
0.359109
1.27479
0.385065
0.261845
0.231226
0.221781
0.203384
0.18138
0.190336
0.293007
0.336066
1.16775
0.37624
0.246002
0.216661
0.208843
0.189259
0.168645
0.180575
0.258164
0.322429
1.05661
0.356911
0.231627
0.203388
0.1971
0.176816
0.157496
0.170288
0.221745
0.313611
0.946662
0.3269
0.218133
0.191304
0.186218
0.165687
0.147652
0.158959
0.18402
0.308796
0.845703
0.289485
0.205459
0.180276
0.176064
0.155619
0.138807
0.146993
0.148237
0.308576
0.757199
0.253668
0.193406
0.170181
0.166552
0.14641
0.130748
0.134985
0.117554
0.316673
0.685843
0.223524
0.181783
0.16091
0.157599
0.137907
0.12309
0.123772
0.095434
0.342403
0.63341
0.19812
0.170378
0.15234
0.14907
0.130017
0.115723
0.114227
0.0949516
0.361724
0.598538
0.176701
0.159056
0.144357
0.140944
0.122786
0.108696
0.105969
0.11363
0.327656
0.578796
0.158743
0.147892
0.136927
0.133431
0.116263
0.102088
0.0978775
0.124715
0.253437
0.57198
0.143653
0.137004
0.130069
0.126727
0.110586
0.0959842
0.0893402
0.118778
0.179331
0.575685
0.131073
0.126498
0.123738
0.120863
0.105953
0.090671
0.0817395
0.103095
0.125532
0.583568
0.121473
0.116534
0.117711
0.115468
0.102237
0.0864948
0.0763652
0.0873192
0.0924677
0.580388
0.117297
0.107475
0.11169
0.110411
0.0991012
0.0834475
0.072503
0.0741382
0.0750471
0.545412
0.122813
0.099921
0.105536
0.105503
0.0961235
0.0810425
0.0690278
0.0634743
0.0664535
0.479064
0.132161
0.0943982
0.0993428
0.100615
0.0929813
0.0785419
0.0651269
0.0546107
0.0619044
0.400004
0.135599
0.0904317
0.0933318
0.0957034
0.0894087
0.0752667
0.0604656
0.0469953
0.0590452
0.326942
0.129471
0.0869401
0.0876894
0.0907627
0.0851763
0.0707341
0.0549382
0.0401478
0.0567239
0.26922
0.116149
0.0835724
0.0825855
0.0857569
0.0801273
0.0649095
0.0488368
0.034071
0.0543296
0.224801
0.101991
0.0800426
0.0779318
0.0804887
0.0740479
0.057786
0.0422795
0.0286484
0.0519143
0.19347
0.0894038
0.0763028
0.0736451
0.0751476
0.0674561
0.0505535
0.0362167
0.0243061
0.0516019
)
;
    }
    inlet
    {
        type            turbulentMixingLengthDissipationRateInlet;
        mixingLength    0.071;
        phi             phi;
        k               k;
        value           uniform 2.17686;
    }
    outlet
    {
        type            inletOutlet;
        inletValue      uniform 0.0001;
        value           nonuniform List<scalar> 
20
(
0.187437
0.0881642
0.0762964
0.0733437
0.0745026
0.0665927
0.0496798
0.0356121
0.0239852
0.0511262
0.19347
0.0894038
0.0763028
0.0736451
0.0751476
0.0674561
0.0505535
0.0362167
0.0243061
0.0516019
)
;
    }
    heatWall
    {
        type            epsilonWallFunction;
        value           nonuniform List<scalar> 
240
(
72.1467
72.1277
55.737
55.7095
44.1368
44.1288
35.7072
35.7012
29.4239
29.4213
24.6365
24.6409
20.9248
20.9197
17.9926
17.9824
15.6425
15.638
13.7041
13.7028
12.6595
12.5199
13.1768
13.0317
12.6268
12.623
11.1001
11.1773
9.37135
9.46873
7.80332
7.89775
6.46634
6.54932
5.40077
5.47172
4.57266
4.632
3.94213
3.99146
3.46448
3.50597
3.09603
3.13148
2.80324
2.83382
2.56512
2.59158
2.36798
2.39063
2.20302
2.22222
2.06566
2.08213
1.95492
1.96898
1.86462
1.8771
1.76524
1.77844
1.62664
1.64404
1.42637
1.45068
1.17356
1.20363
0.915797
0.946363
0.701985
0.727955
0.549834
0.569301
0.450178
0.463861
0.389138
0.398344
0.3529
0.359109
0.33178
0.336066
0.31931
0.322429
0.311294
0.313611
0.307073
0.308796
0.307359
0.308576
0.316248
0.316673
0.343101
0.342403
0.36112
0.361724
0.323483
0.327656
0.247371
0.253437
0.173844
0.179331
0.121651
0.125532
0.0900895
0.0924677
0.0736465
0.0750471
0.0655457
0.0664535
0.061227
0.0619044
0.0584614
0.0590452
0.0561596
0.0567239
0.053756
0.0543296
0.0513584
0.0519143
0.0511262
0.0516019
72.12
72.1411
55.7021
55.766
44.121
44.1645
35.7018
35.7296
29.437
29.4486
24.6752
24.6748
20.9838
20.978
18.0745
18.07
15.7491
15.749
13.8583
13.8498
12.2944
12.2801
11.036
11.0156
10.1049
10.0741
9.52788
9.47064
9.37673
9.305
8.98581
8.97889
8.08527
8.14705
6.9579
7.05167
5.87566
5.97229
4.94198
5.02861
4.17272
4.24756
3.55961
3.61891
3.09045
3.13476
2.72531
2.75753
2.44267
2.46595
2.23049
2.24776
2.07173
2.08497
1.94979
1.96037
1.85135
1.86017
1.76934
1.77644
1.7023
1.70747
1.65195
1.65511
1.62095
1.62195
1.60846
1.60765
1.60329
1.60248
1.58632
1.58882
1.53731
1.54589
1.45792
1.47237
1.35921
1.37838
1.25259
1.27479
1.14423
1.16775
1.03329
1.05661
0.925019
0.946662
0.826682
0.845703
0.741228
0.757199
0.674043
0.685843
0.625518
0.63341
0.593615
0.598538
0.575883
0.578796
0.570375
0.57198
0.574731
0.575685
0.582208
0.583568
0.576758
0.580388
0.537941
0.545412
0.468749
0.479064
0.388754
0.400004
0.3164
0.326942
0.260082
0.26922
0.217236
0.224801
0.187437
0.19347
)
;
    }
}


// ************************************************************************* //
