/*--------------------------------*- C++ -*----------------------------------*\
  =========                 |
  \\      /  F ield         | OpenFOAM: The Open Source CFD Toolbox
   \\    /   O peration     | Website:  https://openfoam.org
    \\  /    A nd           | Version:  8
     \\/     M anipulation  |
\*---------------------------------------------------------------------------*/
FoamFile
{
    version     2.0;
    format      ascii;
    class       volScalarField;
    location    "400";
    object      p_rgh;
}
// * * * * * * * * * * * * * * * * * * * * * * * * * * * * * * * * * * * * * //

dimensions      [1 -1 -2 0 0 0 0];

internalField   nonuniform List<scalar> 
1200
(
339431
336694
335097
334684
334238
333219
332137
331085
330394
328872
325908
321317
314959
310449
307174
292048
273888
259070
248831
241261
234519
228986
224424
219892
213883
205891
198725
192584
188268
185172
182507
179823
177127
174535
171752
169010
165833
162405
158640
154819
150912
146603
140723
133604
126247
119478
113743
108603
103748
99193.2
94275.4
88532.6
81684.3
73436.1
64049.3
53054.7
41191.6
28662.6
16920.6
4792.22
332145
333130
333055
333225
333272
332741
331890
330983
330324
328870
326062
321468
314998
309644
305090
291757
275044
260735
250397
242450
235462
229733
224891
220226
214185
206235
199078
192910
188565
185456
182779
180098
177428
174883
172163
169505
166401
162974
159239
155404
151403
146944
140930
133725
126319
119514
113769
108653
103828
99329.4
94495.7
88851.6
82110.5
74007.5
64770.1
53917.6
42127.7
29654.5
17850.2
5429.32
333544
334963
335073
334838
334455
333641
332456
331397
330781
329361
326564
321610
314424
307906
301107
288345
273248
260395
250944
243246
236422
230254
225029
220214
213998
205836
198503
192298
187942
184879
182304
179691
176993
174372
171626
168926
165903
162694
159130
155384
151430
147003
141059
133898
126422
119541
113821
108730
103865
99256.6
94296.3
88529.9
81623.5
73514.2
64500
53955.5
42581.7
30423.6
18638.5
6002.77
333549
334142
333955
333613
333351
332906
331986
331071
330566
329350
326893
321615
313499
305714
297825
286539
273779
262643
254165
246610
238996
231784
225480
219767
213338
205848
198977
192924
188293
184886
182109
179478
176825
174162
171375
168606
165648
162510
159072
155402
151486
147083
141211
133984
126363
119361
113613
108608
103725
98896.5
93717.6
87963.6
81314.3
73506.5
64809.9
54644.3
43609.8
31517.7
19682.6
6043.37
333630
334073
334127
333927
333700
333353
332450
331472
330947
329848
328044
322413
312873
303595
294624
284187
273177
263318
255676
248475
240783
233211
226217
219719
213004
205712
198869
192802
188039
184383
181429
178835
176328
173748
171008
168212
165308
162257
159000
155497
151754
147608
141973
134759
127002
119707
113616
108374
103315
98197.8
92772.9
87054.2
80547.2
72966.4
64653.2
54937
44394.7
32613.9
20859.2
6288.11
333617
333992
334051
333855
333634
333379
332572
331633
331176
330114
328980
322926
311625
301378
292097
282720
273314
264534
257631
250514
242465
234310
226664
219588
212686
205680
199044
193021
188064
184110
180908
178270
175894
173448
170819
168100
165388
162524
159398
155915
152160
148151
142607
135256
127242
119604
113295
108094
103109
97795
91839.2
85712.9
79254.9
72117.1
64478.3
55419
45446.4
33731.9
21827.5
6409.08
333531
333858
333705
333295
332968
332823
332138
331307
330994
330063
330074
324017
310544
299001
288726
279922
271921
264678
259893
253827
245733
236985
228473
220492
212944
205719
198957
192878
187827
183788
180533
177961
175740
173380
170714
167891
165218
162478
159483
156107
152476
148836
143428
135826
127538
119719
113090
107489
101962
95923.1
89638.1
83896.1
78140.2
71589
64439.7
55731.5
46104.8
34482
22600
7074.65
333546
334485
334662
334313
333935
333701
332986
332200
332007
331241
331943
325657
308885
296510
286211
277824
270909
265520
263630
258270
249215
239134
229464
220628
212794
205742
199073
192988
187782
183553
180127
177521
175397
173123
170496
167714
165209
162629
159697
156278
152606
149129
143810
135902
127186
119191
112894
107975
102977
96999.3
89670.8
82900
76876.6
70553.9
63818.7
55475.5
46213.5
34712.9
22832.3
7175.75
332361
332510
332873
332844
332745
332914
332411
331868
332031
331865
336576
330389
308703
294276
283750
276790
270978
265797
266225
262469
253206
241974
231061
221383
213116
205785
198932
192827
187657
183570
180393
178096
176195
173754
170632
167419
165113
163039
160608
157522
153917
150736
145500
137815
129577
121859
114968
108337
101699
94736.8
87671.8
81829.5
76552.8
70569.4
63952.7
55673.4
46594.2
35205.5
23384.7
7437.69
339563
335985
334798
334187
333735
333630
333008
332469
332692
332444
342915
335391
308237
291603
280893
274039
268924
265005
265496
261541
252536
241785
231294
221763
213637
206507
199658
193651
188397
183952
180516
178153
176190
173797
170809
167546
164813
162548
159913
156623
152831
149458
144164
136626
128567
121037
114483
108215
101830
95187.2
88003.3
81700.3
76147.8
70126.7
63564
55370
46441.5
35121
23342.8
7900.3
340118
335764
334571
333935
333448
333325
332928
331896
329998
327726
324911
320734
314513
309800
306179
291359
274208
260260
250059
241890
235081
229549
224397
218524
211715
205124
199321
194022
189069
185004
181756
178965
176446
174085
171670
168921
166000
162800
159229
155326
151076
146132
140096
133063
125756
118850
112688
107328
102635
98056.5
93143.7
87560.3
80971.3
73137.4
64016.7
53395.3
41837.1
29628.2
17636.3
5529.76
332375
332590
332778
332775
332731
332766
332548
331661
329863
327687
325002
320801
314429
309023
304506
291500
275376
261639
251218
242604
235563
229884
224518
218538
211654
205017
199204
193845
188780
184791
181678
178926
176408
174052
171619
168964
166184
163071
159499
155558
151222
146149
139957
132843
125507
118581
112398
107056
102368
97793.6
92915.2
87385.1
80915.1
73288.4
64364.1
53911.3
42421.4
30253.2
18158.3
5995.04
333850
334493
334673
334457
334133
333622
333082
332113
330471
328443
325892
321444
314434
308105
301730
289480
274854
262321
252481
243864
236864
230703
224958
218826
211779
204888
198896
193422
188284
184447
181502
178769
176180
173735
171212
168537
165855
162967
159471
155585
151301
146273
140102
133025
125610
118591
112412
107167
102521
97893.2
92954.1
87351.5
80779.8
73139
64334.2
54066.8
42858.7
30939.6
18761.6
6607.7
333725
333936
333842
333625
333391
332888
332477
331727
330381
328599
326386
321604
313616
305995
298487
287703
275447
264757
255991
247480
239643
232402
225647
218697
211392
204886
199282
193899
188552
184598
181561
178762
176147
173642
171015
168303
165691
162883
159434
155620
151414
146451
140340
133226
125686
118556
112323
107109
102397
97480.1
92252.9
86584.5
80246.7
72929.6
64450.1
54584.4
43708.5
31882.4
19530.2
6699.14
333782
334056
334145
334044
333810
333206
332801
332169
330995
329306
327624
322416
312987
303864
295234
285256
274691
265352
257491
249306
241340
233698
226364
218854
211290
204652
198879
193333
187878
183947
181011
178340
175854
173418
170789
168042
165419
162674
159370
155724
151699
146964
141045
133935
126245
118842
112356
106974
102095
96893.9
91424.2
85762.6
79561.1
72464.5
64305.8
54831.8
44345.8
32800.7
20401.8
6958.97
333779
334112
334228
334162
333990
333375
333009
332493
331567
329986
328903
323184
312086
302096
293145
284175
275153
266773
259383
251016
242528
234264
226463
218775
211258
204620
198754
193003
187364
183350
180432
177828
175470
173158
170600
167902
165362
162740
159541
155949
151987
147383
141559
134330
126379
118661
112089
106808
101936
96450.5
90424
84334.3
78167.3
71524.7
64005.9
55141.9
45114.2
33649.7
20998.9
7052.12
333706
334053
333848
333559
333296
332752
332515
332166
331646
330466
330620
324823
311549
300159
290047
281551
273988
267374
262317
254984
246200
237036
228159
219596
211412
204177
197882
191922
186404
182618
179971
177606
175446
173216
170605
167777
165176
162618
159579
156168
152444
148166
142465
134952
126634
118718
112018
106595
101282
95044.2
88507
82586.7
76981.6
70913.3
63874.1
55331.4
45507.8
34081.5
21385.7
7485.1
333730
334950
334970
334818
334540
333704
333407
333029
332631
331593
332582
327092
311085
299460
289607
281414
274718
269505
266450
259269
249235
238618
228625
219517
211295
204082
197703
191571
185946
182051
179381
177075
175045
172919
170373
167593
165106
162664
159714
156292
152580
148363
142748
135009
126289
118121
111642
106854
102046
95856.8
88408.2
81535.3
75664.7
69848.7
63234.2
55033.4
45422.1
34036.5
21267.5
7507.39
332426
332826
332867
333048
333063
332634
332553
332309
332202
331675
336212
330261
309314
295265
285034
278397
273334
269051
269296
264430
254346
242532
231142
221083
212178
204242
197422
191124
185589
181918
179587
177623
175797
173487
170441
167189
164822
162851
160428
157362
153792
149683
144049
136515
128282
120414
113574
107461
101293
94161.7
86683.7
80430.6
75152.9
69693.1
63255
55130
45560.7
34177.6
21425.8
7397.02
339521
336605
334786
334369
334038
333228
333010
332686
332553
331902
341857
333617
306945
291453
281577
275300
270802
267439
267344
262196
252528
241330
230466
220742
212177
204573
197945
191824
186242
182225
179641
177635
175780
173523
170649
167450
164730
162539
159892
156606
152943
148730
143101
135735
127660
119845
113193
107347
101435
94720
87298.2
80644.5
75058.7
69562
63186.3
55127.8
45608.7
34194.2
21439.9
7748.95
)
;

boundaryField
{
    wall
    {
        type            fixedFluxPressure;
        gradient        nonuniform List<scalar> 
1200
(
-138919
-46402
-61635.8
-35354.9
-30438.2
-32465.1
-35163.7
-37012.3
-12952
8942.2
186813
108772
94428.4
41260.4
3202.22
-24030.7
-38972.9
-93345.6
-63482.8
-124542
105643
55675.3
80315.8
22673.8
-3625.07
-35755.3
-28996.6
-61767.5
1397.57
3078.66
151564
91024.1
76653
-2659.7
-23623.4
-62036.1
-53450.1
-101860
-41062.7
-35996.3
160772
110003
64748.6
-8169.84
-22408
-72372.2
-66993.4
-122598
-63946.5
-60389.5
-20097.6
-3809.78
4454.79
4042.81
29754.8
182.131
13122.7
-1647.73
56533.4
81536
-158187
-131427
-125281
-98238.1
-70095.9
-88348.5
-76880.9
-85886.7
-28338.2
621.939
-162973
-136195
-143823
-131496
-139902
-173516
-174705
-168684
-88205.2
-42121.8
79631.3
92698.3
62239.2
37236.7
-9723.99
-79700.1
-134710
-128400
-33892
29610.8
230469
238184
184319
150901
108308
23510.7
-87741.2
-76777.8
38347.4
111783
201094
213835
135315
102134
84610.2
13685.6
-116169
-145083
73177.1
224713
118250
135231
33168.4
2287.54
-411.979
-54473.8
-166708
-293946
33911.4
355187
92650.8
116741
-2125.26
-23616.5
-23078.7
-95884.3
-203834
-440820
-119581
243175
141075
130096
-40916.9
-56915.1
-53880.6
-146489
-233056
-598643
-195410
20607.9
207237
121918
-126484
-133615
-121475
-210309
-266017
-706679
-252690
-137749
132147
52344.3
-227886
-233403
-213188
-288677
-323651
-756077
-319989
-249335
-76194.8
-69678.2
-321502
-333232
-302042
-363940
-409873
-795543
-472493
-371139
-246422
-184751
-385370
-421592
-407172
-444813
-537825
-811653
-653386
-483464
-249102
-167667
-307349
-364161
-364744
-348785
-485356
-559237
-613895
-370889
-126034
-33755.5
-122929
-173925
-168232
-99376.8
-231436
-184548
-399055
-132383
-111886
-21779.1
-88534.1
-131398
-113980
-12455
-91560
15539.6
-232758
773.481
-112029
-31516.2
-90791.2
-126954
-99911.1
8188.19
-5714.8
124556
-117228
90446.7
6135.11
74198.8
12773.5
-36479.1
-32398
38164.6
68357.6
188282
-24569
165305
275154
338963
277289
213704
170397
159495
185413
239767
49619.8
203599
436220
508704
446260
391519
341230
282199
312407
314218
176968
291800
154506
244121
192072
194774
210582
208933
314338
344155
299620
387534
-118919
-25994.9
-77941
-60043
-3882.65
55421.8
220359
284446
295578
342761
-288612
-188929
-226052
-196109
-108699
965.788
195734
292315
336444
366178
-161213
-43969.2
-69066.4
-53358.3
29996.4
138461
288839
375249
411767
432413
33332.6
133510
86470.4
56629
84863.6
150799
237383
307010
330119
345506
150751
221389
161531
109722
80894.8
94287
114736
154031
160831
173154
172400
235315
186250
143988
96127
88127.4
72733
92982.1
93382.8
100769
136882
204626
164412
136355
91883.5
85249.5
60768.4
73687.6
76579.6
78912.4
90554
166462
128863
104702
62961.8
59144.1
34900.9
43751.7
50857.4
52075.1
16288.7
108420
83759.3
72384.4
40717.7
45535.8
24207.6
27342.4
37256.8
28845.1
18163.7
107751
78239.3
61103.5
31142.9
42103.3
24773.3
26462.6
46429.2
16456.4
-32686.3
42428.4
9436.27
-8746.01
-25410.9
8248.1
10076.2
22614.7
59071.3
15094.1
-78336.1
-20500.9
-55324.9
-75073.1
-86741.6
-40091.3
-27001.2
-5498.83
38199.7
1233.95
-117615
-53361.3
-69294.6
-72890.4
-76751.2
-25792.5
-18840.3
-1807.66
36032.8
4716.57
-101520
-31870.8
-41014.3
-44045.1
-46920
-4397.74
-12688.5
-1191.51
30864.2
4589.77
-33089.8
35423.1
25239.3
13885
10704.3
36073.5
4649.86
5788.84
22520.7
-22038.5
94550.3
158763
146078
126038
130032
154630
131853
153168
208279
146176
125781
194387
191423
173902
187527
210325
190692
212957
287886
213560
108294
175630
174273
151058
166584
185082
172672
181950
256998
178902
98257.3
161486
161723
134686
152958
172206
178737
184392
255803
182571
125495
185782
189177
159842
174138
187719
200084
218942
286282
241379
210952
273839
280733
256737
253047
240647
213905
253557
276884
260962
254984
319516
311491
298791
280953
257034
178073
224173
173079
173829
222440
292282
267236
265072
243885
233823
135452
184232
78605.5
76217
227204
307872
270937
283614
260026
268156
175994
225962
114266
90252.8
226543
317148
266694
293807
268288
282670
227167
250462
198096
139363
195013
294357
234173
276833
256504
276111
262532
272490
280076
211076
143540
239835
168064
214003
195561
218127
231850
242967
279992
218315
60556
143658
75156.7
115206
99198.6
118860
134796
141520
174808
113154
6680.02
80278.6
33569.4
71518.5
69113.8
94985.3
112957
117138
138938
75604.8
-68580.8
-316.254
-21944.5
11320.3
21171.7
55809
79965.2
88356.8
108059
48446.4
-129966
-60634.8
-55721.5
-20634.9
9938.43
66497
119338
158330
206666
167184
-193774
-121517
-104210
-73959.8
-37817.1
15811.8
79392
135162
205757
186377
-143678
-63223.2
-25644
30060.3
91273.9
166018
242986
314478
393531
382960
-147169
-114217
-122924
-132435
-136183
-130146
-83730.4
-67974.8
8754.09
30991.3
138918
46401.3
61635.7
35354.8
30438.2
32465.1
35163.7
37012.3
12951.9
-8942.23
-186952
-108791
-94447.4
-41262.6
-3201.65
24030.2
38969.7
93342
63483.9
124557
-105695
-55681.3
-80324.4
-22675.1
3625.49
35751.2
28979.8
61715.3
-1411.25
-3035.43
-151577
-91019
-76651.7
2661.39
23619.5
62002.1
53398.4
101729
41038.6
36027.2
-160759
-109993
-64742.8
8172.23
22382.9
72221.6
66823.2
122266
63924.9
60506.4
20146.9
3830.43
-4445.23
-4043.23
-29834.2
-587.54
-13564.7
864.886
-56621.1
-81357.9
158269
131462
125296
98237.9
70028
87805.9
76282.3
84901
28292
-392.724
163088
136246
143844
131521
139811
172744
173728
167325
88213.1
42493.9
-79489.5
-92635
-62214.3
-37216
9540.43
78425.2
132749
126153
33867.7
-29019.1
-230375
-238150
-184307
-150887
-108524
-25137.2
84397.9
73430.8
-38366.6
-111116
-201052
-213829
-135313
-102112
-84694.1
-15707.4
110676
140394
-75297.6
-225751
-118238
-135245
-33173.7
-2277.95
266.856
51674.5
160996
295545
-47314.4
-357903
-92686.9
-116778
2114.89
23612.8
23046.6
92817.6
199443
446134
108532
-245274
-141549
-130239
40908.3
56918
54363.8
143496
227800
592858
192868
-21120.4
-208483
-122297
126504
133731
123307
208929
260975
675793
252613
138025
-133379
-52847.2
227936
234059
215201
290025
323541
710106
318498
249905
75684.2
69317.6
321571
334760
303792
366449
412253
749950
470773
371741
246511
184624
385447
423626
408187
447493
541047
777999
652425
483998
249427
167721
307419
365441
364475
350846
487869
544590
613546
370693
126378
33930
122976
173171
166362
100489
232894
187028
380170
132130
112192
22026.6
88549.8
129191
111159
13128.8
93391.7
-2041.2
217216
-949.393
112410
31779.8
90813.8
124787
96784.5
-7787.31
9000.28
-105968
105745
-90646.4
-5721.99
-73919.2
-12754.7
34665.9
29240.6
-38361.7
-63617.9
-168655
13189.4
-165538
-274745
-338643
-277281
-215181
-173561
-160939
-179627
-221240
-62017.5
-203854
-435851
-508378
-446267
-392269
-344056
-284674
-306256
-297724
-190621
-291992
-154183
-243832
-192098
-194427
-212524
-211615
-308275
-330334
-312164
-387608
119194
26227.6
77919.7
60760.6
2417.52
-58003
-214568
-272672
-304918
-342736
288854
189126
226053
196373
107001
-3583.82
-190519
-282162
-342388
-366088
161433
44149.1
69065.6
52640.2
-32405.1
-141028
-284254
-366223
-414676
-432285
-33129.2
-133332
-86474.2
-57649.2
-87439.2
-152333
-233035
-298701
-330559
-345354
-150564
-221207
-161529
-110658
-83622.8
-94799.3
-110782
-146686
-160086
-172997
-172231
-235137
-186245
-144738
-99135.4
-88027
-69253.4
-86850.2
-92623.5
-100636
-136742
-204474
-164411
-136826
-94978.2
-84595.6
-57555
-68477.6
-76446.4
-78804.8
-90454.2
-166355
-128869
-104889
-65956.6
-57896.1
-31676
-39367.2
-50697
-51967.3
-16222.1
-108352
-83769
-72337.3
-43604.7
-43771
-20973.5
-23744.1
-37105.4
-28721.3
-18123.7
-107708
-78250.4
-60879.3
-33924.3
-39852.6
-21611.3
-23542.2
-46322.4
-16324.8
32717.5
-42388.3
-9446.27
9116.25
22775.4
-5540.57
-7021.13
-20167.3
-59021.8
-14978.3
78366.9
20548.9
55316
75398.4
84220.5
43113.7
29952.1
7767.88
-38206.5
-1147.88
117653
53410.3
69288.1
73188.9
74496.6
28793.5
21435.5
4182.07
-36058.3
-4653.54
101565
31917.5
41008.2
44643
45429
7055.24
14516
3437.19
-30899.5
-4540.48
33135.5
-35379.7
-25244.7
-13120
-11154
-34115.6
-4164.97
-4164.38
-22548.3
22088.2
-94513
-158721
-146083
-125273
-129565
-153636
-133200
-152838
-208304
-146129
-125752
-194334
-191427
-173344
-186496
-210308
-193429
-213310
-287903
-213517
-108271
-175557
-174275
-150578
-165305
-185826
-176018
-182141
-256992
-178859
-98213.3
-161377
-161718
-134268
-151631
-173418
-181540
-184417
-255777
-182555
-125401
-185625
-189162
-159550
-172881
-188972
-200294
-218940
-286284
-241488
-210801
-273617
-280706
-256663
-251957
-241331
-213956
-253668
-277081
-261254
-254782
-319220
-311448
-298828
-280091
-256777
-178043
-224343
-173458
-174094
-222206
-291931
-267182
-265127
-243629
-233609
-135451
-184337
-78651.9
-76168.4
-226981
-307526
-270886
-283675
-260000
-268039
-176032
-226008
-113929
-89934.6
-226384
-316867
-266653
-293854
-268288
-282640
-227188
-250490
-197816
-138987
-194957
-294170
-234130
-276866
-256516
-276118
-262558
-272499
-279876
-210752
-143594
-239739
-168028
-214039
-195584
-218146
-231895
-242973
-279800
-218045
-60655.1
-143610
-75160.3
-115250
-99231.3
-118897
-134856
-141533
-174626
-112927
-6740.6
-80234.2
-33613.9
-71571
-69160.9
-95045.4
-113037
-117160
-138764
-75412.1
68618.5
381.169
21878.1
-11379
-21234
-55890.7
-80061.6
-88379.2
-107883
-48280.6
130103
60728.9
55621.9
20573.9
-10014.4
-66595.5
-119443
-158346
-206487
-167050
193960
121609
104069
73806.9
37735.9
-15912.2
-79491.2
-135168
-205586
-186285
143923
63331.1
25467.9
-30356.8
-91408.3
-166124
-243090
-314491
-393404
-382932
147449
114362
122785
132136
136044
130064
83652
67984.9
-8667.38
-30978.5
)
;
        value           nonuniform List<scalar> 
1200
(
339079
332028
333388
333460
333554
333535
333443
333453
332329
339587
337163
333404
335200
334245
334080
333932
333760
334251
332351
335672
335363
333195
335275
334012
334118
333960
333631
334507
332877
334808
335068
333455
335031
333606
333867
333698
333160
334056
332741
334098
334648
333552
334618
333330
333643
333450
332797
333625
332584
333584
333172
332735
333654
332918
333428
333379
332854
333696
333057
333837
331742
331561
332143
331740
332276
332350
331943
332769
332340
333012
330675
330641
331035
330741
331121
331197
330864
331774
331647
332366
330594
330557
330937
330660
330923
330976
330650
331682
331947
332770
329452
329470
329824
329729
330119
330170
329832
331040
331963
332733
326415
326602
326905
327150
328258
329015
329780
331547
336758
343521
321617
321812
321693
321621
322413
322789
323602
324899
330439
336288
315204
315300
314419
313439
312815
311383
310040
307756
308391
308808
310838
309987
307801
305569
303459
301012
298431
294998
293790
291633
307716
305409
300786
297487
294316
291575
288073
284447
283128
280547
292361
291890
287773
285952
283649
282002
279120
275953
275996
273424
273665
274861
272444
272943
272419
272409
270901
268952
269797
268004
258432
260263
259431
261587
262296
263423
263332
263541
264160
263802
248198
249970
250177
253254
254760
256758
258679
262286
264685
264568
240944
242360
242943
246179
248055
250265
253254
257848
261495
261205
234240
235405
236203
238671
240500
242433
245511
249278
252642
252530
228706
229652
230026
231467
232964
234328
236977
239458
241686
242005
224440
225076
225059
225389
226137
226755
228648
229939
231001
231704
220584
221076
220909
220307
220146
219983
220957
221224
221510
222269
214981
215462
215123
214326
213860
213389
213725
213573
213566
214364
206280
206845
206323
206340
206240
206201
206504
206598
206545
207476
198428
199010
198308
198826
198858
199183
199507
199781
199680
200513
191858
192433
191728
192429
192528
193023
193365
193716
193675
194566
187862
188452
187766
188157
188114
188414
188548
188718
188691
189480
185254
185790
185095
185029
184595
184489
184379
184316
184398
184814
182886
183334
182710
182386
181631
181143
180816
180506
180793
180942
180256
180687
180160
179841
179075
178490
178138
177748
178326
178396
177471
177940
177407
177168
176558
176108
175889
175577
176381
176378
174763
175299
174696
174425
173905
173596
173464
173228
173878
173918
171792
172433
171836
171557
171109
170933
170772
170561
170725
170871
169056
169773
169122
168759
168290
168207
167948
167777
167537
167579
165753
166504
165926
165624
165244
165410
165238
165263
165262
164847
162211
162920
162554
162319
162038
162424
162403
162612
163134
162550
158347
159102
158954
158887
158808
159332
159428
159689
160696
159927
154565
155321
155279
155289
155381
155903
156067
156272
157594
156638
150828
151489
151492
151517
151782
152248
152480
152616
153965
152776
146840
147340
147368
147395
147936
148537
149163
149511
151249
149825
141039
141415
141537
141643
142445
143134
143906
144348
146212
144701
133875
134161
134332
134359
135178
135720
136260
136368
138448
137075
126493
126720
126824
126696
127386
127676
127986
127660
130208
129027
119791
119976
120010
119756
120143
120075
120219
119750
122569
121650
114271
114452
114518
114253
114249
113899
113625
113534
115657
115145
109240
109452
109504
109356
109077
108738
107933
108533
108765
108651
104304
104560
104528
104390
103924
103693
102299
103431
101889
102011
99760.9
100101
99928.8
99609.8
98846
98465.5
96364.3
97557.6
95020.7
95402
94842.6
95291.6
94958.4
94456.5
93440.9
92546.6
90209.3
90292.7
88168.2
88345.5
89022.3
89590.5
89111.8
88659.5
87692.8
86405.3
84555.3
83581.2
82529.8
82226.7
82046.5
82712.2
82042.5
81851.2
81034.2
79802.5
78721.3
77486.5
77252.3
76694
73590.4
74366
73702.9
73794.4
73213.5
72415.7
71926
70909.3
71004.5
70409.1
64066.6
64967.6
64585.8
64987.8
64826.8
64717.5
64722.5
64112.2
64297.6
63752.2
52881.5
53911.8
53902.1
54671.2
54991.7
55559.8
55931.9
55696
55940.9
55490.4
40863.1
41970.5
42441.6
43555.9
44420.7
45612.9
46403.4
46609.3
47109.8
46860.9
28175.1
29345.6
30160.2
31330.3
32518.3
33769.7
34678.8
35050.6
35719.6
35590.1
16558.6
17687.3
18571.4
19756.9
21087
22244
23208.6
23623.3
24373.3
24308
4423.7
5139.98
5689.52
5708.2
5941.82
6079.74
6861.02
7001.03
7461.05
7979.87
340470
332492
334005
333814
333858
333860
333794
333823
332458
339497
335293
332316
334255
333832
334048
334172
334150
335184
332986
336918
334306
332638
334472
333785
334154
334318
333921
335125
332863
334777
333551
332544
334264
333632
334104
334319
333695
335074
333151
334458
333037
332450
333970
333412
333867
334173
333467
334850
333224
334189
333372
332772
333609
332877
333130
333374
332720
333707
332490
333021
333324
332876
333396
332723
332976
333230
332708
333621
332623
333006
332306
332004
332474
332057
332519
332927
332606
333452
332530
332789
329799
329630
330315
330288
331019
331764
331985
332950
332285
332477
327146
327087
327981
328220
329034
329926
330689
331787
331577
331615
324404
324462
325551
326129
327410
328863
330899
332967
336020
341248
320433
320457
321361
321598
322416
323314
325224
327858
330175
332713
314268
314127
314440
313675
313045
312320
312043
312227
309600
306369
309410
308679
308211
306139
304001
302454
300716
300954
295746
291422
305634
304185
302051
298824
295546
293665
290689
291288
285656
281923
291042
291366
290052
288291
285798
284897
282352
283169
279187
275916
274431
275559
275659
276287
275453
276065
275015
276563
274510
271724
260899
262111
263284
265818
266376
267891
268728
271403
270686
268644
250692
251645
253248
256904
258406
260261
263537
267760
270835
268272
242208
242694
244167
247909
249721
251266
255560
259697
265374
262532
235361
235620
237083
239963
241616
242561
246426
249207
254886
252533
229830
229965
230930
232714
233938
234247
237051
238339
242797
241110
224382
224334
224928
225734
226437
226371
227995
228198
231174
230056
217833
217689
218131
218154
218419
218377
219144
218966
220925
220236
210617
210378
210654
210403
210426
210548
210646
210556
211693
211449
204735
204407
204401
204395
204119
204092
203406
203260
203451
203604
199618
199272
199091
199434
198886
198609
197347
197024
196651
197090
194748
194324
193992
194394
193603
192994
191447
190868
190262
190909
189477
188894
188459
188686
187796
187009
185694
185031
184548
185160
184922
184457
184231
184454
183728
182968
182038
181308
181091
181364
181378
181123
181096
181282
180803
180195
179698
179020
179189
179216
178532
178337
178300
178397
178092
177609
177437
176863
177395
177392
176102
175896
175766
175803
175617
175259
175305
174878
175611
175592
173857
173636
173411
173378
173254
173013
173140
172824
173364
173402
171630
171350
171002
170834
170680
170490
170556
170316
170348
170587
168874
168697
168341
168150
167957
167802
167727
167537
167071
167418
166080
166081
165833
165715
165478
165347
165164
165058
164673
164696
162994
163126
163107
163073
162887
162848
162700
162687
162756
162537
159523
159636
159647
159620
159558
159614
159640
159728
160340
159878
155581
155641
155689
155735
155837
155968
156211
156304
157289
156591
151160
151135
151239
151385
151670
151903
152439
152573
153744
152997
145895
145753
145908
146142
146638
146998
147833
147982
149170
148363
139781
139472
139624
139909
140576
141031
141977
142210
143337
142564
132792
132407
132591
132852
133520
133864
134509
134543
135881
135285
125510
125107
125209
125353
125865
125943
126179
125816
127652
127200
118537
118120
118122
118161
118411
118186
118218
117562
119704
119232
112161
111716
111715
111684
111726
111483
111483
111002
112885
112530
106691
106258
106392
106362
106273
106164
106151
106295
107032
106911
102080
101638
101858
101732
101487
101352
100944
101591
101103
101253
97489.3
97022.7
97221.1
96766.7
96245.7
95780.4
94602.9
95298.3
93878.6
94505.9
92576.8
92120
92292.1
91513.8
90756.2
89716.7
87935.8
87786.4
86188
86956.8
87070.8
86646.6
86769.7
85888.5
85123.9
83641.9
81927.4
80854
79730.8
80118.9
80609
80313.6
80360.9
79709.7
79074
77619.6
76400.4
75054.8
74453.9
74513.2
72982.9
72930
72950.3
72641.7
72217.4
71226
70576.2
69493.2
69258.4
69280.2
63999.3
64166.7
64248.3
64272.1
64132
63766.5
63591.1
62940.6
62910.5
62998.5
53568.6
53917.3
54120
54557.4
54777
55000.9
55130.7
54812.7
54862.9
55007.8
42165.9
42578.8
42998.6
43762.2
44319.6
44947.6
45209
45026.2
45045.5
45189.6
30116.1
30562.3
31202.7
32069.4
32896.1
33611.7
33884.5
33698.8
33663.9
33725.3
17998.9
18321.5
18828.3
19455.1
20173.7
20582.2
20776.9
20476.5
20437.5
20474.7
5898.95
6284.75
6920.62
7033.59
7304.92
7381.28
7698.55
7682.15
7373.85
7669.41
)
;
    }
    inlet
    {
        type            fixedFluxPressure;
        gradient        nonuniform List<scalar> 
20
(
-1.4353e-05
-0.0004783
0.000650503
1.9604e-05
0.000210082
0.000249169
-3.00589e-05
0.00176556
-0.00269025
-0.000754732
1.44026e-05
-0.000450889
0.000638939
2.57034e-07
0.000187828
0.000223196
-0.000137277
0.00152707
-0.00296082
-0.00141248
)
;
        value           nonuniform List<scalar> 
20
(
339431
332145
333544
333549
333630
333617
333531
333546
332361
339563
340118
332375
333850
333725
333782
333779
333706
333730
332426
339521
)
;
    }
    outlet
    {
        type            fixedValue;
        value           uniform 0;
    }
    heatWall
    {
        type            fixedFluxPressure;
        gradient        nonuniform List<scalar> 
240
(
295.606
295.606
295.606
295.606
295.606
295.606
295.606
295.606
295.606
295.606
295.606
295.606
295.606
295.606
295.606
295.606
295.606
295.606
295.606
295.606
295.606
295.606
295.606
295.606
295.606
295.606
295.606
295.606
295.606
295.606
295.606
295.606
295.606
295.606
295.606
295.606
295.606
295.606
295.606
295.606
295.606
295.606
295.606
295.606
295.606
295.606
295.606
295.606
295.606
295.606
295.606
295.606
295.606
295.606
295.606
295.606
295.606
295.606
295.606
295.606
295.606
295.606
295.606
295.606
295.606
295.606
295.606
295.606
295.606
295.606
295.606
295.606
295.606
295.606
295.606
295.606
295.606
295.606
295.606
295.606
295.606
295.606
295.606
295.606
295.606
295.606
295.606
295.606
295.606
295.606
295.606
295.606
295.606
295.606
295.606
295.606
295.606
295.606
295.606
295.606
295.606
295.606
295.606
295.606
295.606
295.606
295.606
295.606
295.606
295.606
295.606
295.606
295.606
295.606
295.606
295.606
295.606
295.606
295.606
295.606
0
0
0
0
0
0
0
0
0
0
0
0
0
0
0
0
0
0
0
0
0
0
0
0
0
0
0
0
0
0
0
0
0
0
0
0
0
0
0
0
0
0
0
0
0
0
0
0
0
0
0
0
0
0
0
0
0
0
0
0
0
0
0
0
0
0
0
0
0
0
0
0
0
0
0
0
0
0
0
0
0
0
0
0
0
0
0
0
0
0
0
0
0
0
0
0
0
0
0
0
0
0
0
0
0
0
0
0
0
0
0
0
0
0
0
0
0
0
0
0
)
;
        value           nonuniform List<scalar> 
240
(
339565
339524
335988
336607
334801
334789
334190
334372
333738
334041
333632
333231
333011
333013
332472
332689
332695
332556
332447
331905
342918
341860
335394
333620
308240
306948
291606
291456
280895
281580
274042
275303
268927
270805
265008
267442
265499
267347
261544
262199
252539
252531
241788
241333
231297
230469
221766
220745
213640
212180
206510
204576
199661
197948
193654
191827
188400
186245
183955
182228
180519
179644
178156
177638
176192
175783
173800
173526
170812
170652
167549
167453
164816