/*--------------------------------*- C++ -*----------------------------------*\
  =========                 |
  \\      /  F ield         | OpenFOAM: The Open Source CFD Toolbox
   \\    /   O peration     | Website:  https://openfoam.org
    \\  /    A nd           | Version:  8
     \\/     M anipulation  |
\*---------------------------------------------------------------------------*/
FoamFile
{
    version     2.0;
    format      ascii;
    class       volScalarField;
    location    "400";
    object      T;
}
// * * * * * * * * * * * * * * * * * * * * * * * * * * * * * * * * * * * * * //

dimensions      [0 0 0 1 0 0 0];

internalField   nonuniform List<scalar> 
1200
(
303.15
303.15
303.151
303.146
303.141
303.137
303.133
303.129
303.125
303.122
303.118
303.11
303.012
302.227
300.322
298.623
297.737
297.421
297.397
297.52
297.719
297.939
298.137
298.312
298.462
298.574
298.635
298.656
298.649
298.612
298.535
298.406
298.219
297.985
297.74
297.52
297.349
297.212
297.095
296.988
296.879
296.757
296.615
296.462
296.319
296.178
296.037
295.891
295.71
295.454
295.127
294.815
294.651
294.696
294.862
295.047
295.198
295.299
295.355
295.391
303.15
303.15
303.15
303.15
303.15
303.15
303.149
303.149
303.149
303.149
303.148
303.147
303.123
302.89
302.152
301.268
300.699
300.499
300.549
300.735
300.959
301.148
301.302
301.434
301.55
301.646
301.72
301.777
301.822
301.859
301.886
301.894
301.862
301.763
301.575
301.294
300.966
300.67
300.458
300.343
300.319
300.372
300.486
300.629
300.741
300.808
300.835
300.821
300.744
300.551
300.156
299.465
298.477
297.372
296.408
295.691
295.202
294.917
294.765
294.683
303.15
303.15
303.15
303.15
303.15
303.15
303.15
303.15
303.15
303.149
303.149
303.149
303.149
303.126
302.983
302.708
302.439
302.262
302.18
302.169
302.192
302.223
302.258
302.299
302.352
302.406
302.451
302.485
302.512
302.537
302.563
302.587
302.61
302.63
302.646
302.659
302.665
302.656
302.629
302.592
302.548
302.505
302.477
302.465
302.468
302.479
302.494
302.503
302.494
302.452
302.359
302.181
301.856
301.294
300.466
299.506
298.59
297.78
297.076
296.493
303.15
303.15
303.15
303.15
303.15
303.15
303.15
303.15
303.15
303.149
303.149
303.149
303.149
303.148
303.132
303.08
303.008
302.943
302.909
302.909
302.927
302.948
302.967
302.982
302.991
302.996
302.997
302.994
302.986
302.973
302.955
302.933
302.907
302.879
302.853
302.832
302.815
302.8
302.784
302.767
302.749
302.728
302.704
302.676
302.645
302.612
302.581
302.547
302.503
302.452
302.395
302.302
302.117
301.797
301.315
300.69
299.959
299.162
298.321
297.56
303.15
303.15
303.15
303.15
303.15
303.15
303.15
303.15
303.15
303.149
303.149
303.147
303.145
303.145
303.143
303.136
303.122
303.108
303.102
303.105
303.111
303.113
303.107
303.09
303.061
303.021
302.966
302.894
302.809
302.713
302.604
302.484
302.358
302.232
302.115
302.017
301.937
301.876
301.834
301.806
301.781
301.748
301.701
301.645
301.582
301.519
301.459
301.41
301.367
301.324
301.258
301.133
300.922
300.587
300.09
299.431
298.648
297.84
297.012
296.314
303.15
303.15
303.15
303.15
303.15
303.15
303.15
303.15
303.15
303.149
303.146
303.135
303.12
303.112
303.114
303.116
303.118
303.12
303.123
303.123
303.113
303.08
303.009
302.893
302.735
302.545
302.323
302.077
301.834
301.601
301.374
301.151
300.935
300.73
300.546
300.391
300.263
300.162
300.092
300.059
300.063
300.077
300.078
300.065
300.037
299.996
299.969
299.988
300.027
300.072
300.113
300.07
299.869
299.457
298.807
297.961
297.005
296.085
295.293
294.781
303.15
303.15
303.15
303.15
303.15
303.15
303.15
303.15
303.15
303.148
303.134
303.077
303.005
302.959
302.954
302.972
302.989
303
302.989
302.921
302.754
302.464
302.054
301.567
301.069
300.605
300.19
299.833
299.549
299.323
299.123
298.93
298.737
298.547
298.369
298.209
298.063
297.93
297.821
297.752
297.729
297.728
297.715
297.681
297.641
297.655
297.713
297.789
297.85
297.881
297.868
297.74
297.437
296.95
296.312
295.621
294.972
294.475
294.192
294.18
303.15
303.15
303.15
303.15
303.15
303.15
303.15
303.15
303.15
303.146
303.095
302.868
302.617
302.474
302.276
301.729
300.887
299.958
299.097
298.378
297.812
297.381
297.063
296.828
296.658
296.53
296.434
296.371
296.341
296.336
296.356
296.403
296.469
296.53
296.572
296.593
296.6
296.598
296.581
296.546
296.496
296.42
296.32
296.22
296.141
296.106
296.127
296.134
296.003
295.699
295.346
295.081
294.85
294.613
294.373
294.167
294.036
294.034
294.249
294.7
303.15
303.15
303.15
303.15
303.15
303.15
303.15
303.15
303.15
303.149
302.957
302.035
301.244
300.9
300.862
300.95
300.967
300.907
300.809
300.722
300.669
300.646
300.614
300.511
300.297
300.01
299.699
299.416
299.21
299.069
298.955
298.833
298.642
298.399
298.13
297.847
297.506
297.086
296.628
296.214
295.914
295.733
295.677
295.689
295.668
295.489
295.145
294.878
294.754
294.661
294.557
294.46
294.376
294.315
294.297
294.338
294.469
294.731
295.225
295.913
303.15
303.15
303.151
303.151
303.146
303.142
303.138
303.134
303.131
303.124
301.947
299.226
297.621
296.796
296.337
296.115
296.115
296.274
296.519
296.772
296.994
297.175
297.313
297.405
297.441
297.418
297.34
297.206
296.986
296.632
296.134
295.576
295.086
294.748
294.556
294.463
294.435
294.415
294.385
294.346
294.309
294.27
294.223
294.164
294.098
294.108
294.369
294.812
295.196
295.416
295.477
295.455
295.47
295.549
295.682
295.855
296.094
296.409
296.861
297.359
303.15
303.15
303.151
303.146
303.141
303.137
303.133
303.129
303.125
303.122
303.118
303.111
303.037
302.387
300.581
298.812
297.832
297.458
297.403
297.51
297.699
297.919
298.121
298.301
298.456
298.571
298.638
298.663
298.66
298.628
298.558
298.436
298.256
298.027
297.783
297.557
297.377
297.235
297.116
297.008
296.9
296.779
296.638
296.486
296.343
296.206
296.069
295.926
295.75
295.5
295.176
294.856
294.672
294.694
294.848
295.03
295.183
295.288
295.348
295.384
303.15
303.15
303.15
303.15
303.15
303.15
303.149
303.149
303.149
303.149
303.148
303.147
303.13
302.942
302.266
301.373
300.753
300.506
300.525
300.696
300.921
301.116
301.277
301.414
301.534
301.633
301.71
301.769
301.815
301.854
301.884
301.895
301.871
301.783
301.61
301.346
301.025
300.723
300.497
300.363
300.319
300.356
300.459
300.601
300.722
300.798
300.835
300.829
300.762
300.585
300.213
299.555
298.596
297.499
296.518
295.777
295.266
294.962
294.797
294.707
303.15
303.15
303.15
303.15
303.15
303.15
303.15
303.15
303.15
303.15
303.149
303.149
303.149
303.133
303.012
302.752
302.477
302.285
302.188
302.166
302.184
302.213
302.246
302.286
302.337
302.391
302.437
302.471
302.499
302.525
302.551
302.577
302.601
302.622
302.639
302.653
302.661
302.658
302.638
302.605
302.565
302.522
302.491
302.473
302.47
302.478
302.491
302.501
302.496
302.461
302.378
302.216
301.915
301.393
300.606
299.67
298.758
297.941
297.224
296.626
303.15
303.15
303.15
303.15
303.15
303.15
303.15
303.15
303.15
303.15
303.149
303.149
303.149
303.148
303.135
303.086
303.012
302.946
302.912
302.914
302.933
302.954
302.972
302.986
302.994
302.997
302.997
302.993
302.984
302.97
302.951
302.926
302.899
302.871
302.845
302.823
302.807
302.792
302.777
302.76
302.743
302.725
302.703
302.678
302.649
302.619
302.588
302.553
302.512
302.465
302.414
302.332
302.17
301.882
301.437
300.848
300.144
299.364
298.526
297.756
303.15
303.15
303.15
303.15
303.15
303.15
303.15
303.15
303.15
303.15
303.149
303.147
303.145
303.145
303.143
303.136
303.121
303.108
303.103
303.107
303.112
303.113
303.106
303.086
303.054
303.01
302.952
302.877
302.788
302.687
302.574
302.45
302.322
302.195
302.081
301.986
301.913
301.86
301.827
301.807
301.787
301.755
301.707
301.649
301.583
301.516
301.454
301.401
301.357
301.324
301.283
301.187
301.011
300.719
300.27
299.656
298.903
298.101
297.26
296.529
303.15
303.15
303.15
303.15
303.15
303.15
303.15
303.15
303.15
303.149
303.145
303.133
303.119
303.112
303.114
303.116
303.118
303.12
303.123
303.123
303.111
303.073
302.995
302.869
302.701
302.501
302.271
302.019
301.773
301.539
301.311
301.09
300.875
300.673
300.493
300.344
300.225
300.136
300.083
300.071
300.096
300.129
300.146
300.144
300.12
300.076
300.016
299.985
299.991
300.032
300.091
300.084
299.933
299.581
298.992
298.193
297.253
296.315
295.474
294.905
303.15
303.15
303.15
303.15
303.15
303.15
303.15
303.15
303.15
303.148
303.13
303.07
302.999
302.957
302.955
302.974
302.991
303.001
302.987
302.91
302.729
302.419
301.99
301.488
300.98
300.514
300.102
299.751
299.474
299.254
299.059
298.867
298.676
298.487
298.31
298.151
298.009
297.884
297.79
297.742
297.745
297.769
297.774
297.747
297.691
297.66
297.676
297.73
297.79
297.838
297.861
297.78
297.528
297.085
296.475
295.786
295.115
294.579
294.247
294.19
303.15
303.15
303.15
303.15
303.15
303.15
303.15
303.15
303.15
303.145
303.087
302.859
302.61
302.467
302.239
301.65
300.785
299.859
299.013
298.31
297.758
297.338
297.027
296.8
296.634
296.508
296.413
296.353
296.324
296.321
296.344
296.394
296.46
296.521
296.563
296.583
296.592
296.592
296.579
296.547
296.503
296.439
296.349
296.25
296.162
296.111
296.115
296.123
296.016
295.74
295.393
295.129
294.901
294.668
294.426
294.21
294.063
294.04
294.228
294.651
303.15
303.15
303.15
303.15
303.15
303.15
303.15
303.15
303.15
303.149
303.008
302.139
301.309
300.913
300.845
300.929
300.95
300.891
300.799
300.721
300.677
300.656
300.616
300.488
300.24
299.924
299.593
299.3
299.091
298.953
298.845
298.739
298.602
298.423
298.21
297.974
297.682
297.299
296.851
296.408
296.054
295.809
295.702
295.691
295.671
295.509
295.176
294.9
294.766
294.672
294.568
294.471
294.386
294.323
294.3
294.334
294.456
294.707
295.183
295.855
303.15
303.15
303.151
303.151
303.146
303.142
303.138
303.134
303.131
303.125
302.196
299.456
297.73
296.848
296.366
296.13
296.122
296.274
296.515
296.766
296.988
297.17
297.31
297.406
297.448
297.43
297.358
297.228
297.014
296.672
296.188
295.637
295.14
294.785
294.577
294.474
294.44
294.423
294.394
294.355
294.317
294.278
294.231
294.172
294.106
294.108
294.354
294.788
295.175
295.404
295.473
295.455
295.466
295.539
295.669
295.838
296.074
296.385
296.834
297.33
)
;

boundaryField
{
    wall
    {
        type            zeroGradient;
    }
    inlet
    {
        type            fixedValue;
        value           uniform 303.15;
    }
    outlet
    {
        type            inletOutlet;
        inletValue      uniform 300;
        value           nonuniform List<scalar> 
20
(
295.393
294.675
296.45
297.496
296.246
294.743
294.179
294.717
295.932
297.369
295.387
294.699
296.581
297.689
296.456
294.863
294.187
294.667
295.875
297.34
)
;
    }
    heatWall
    {
        type            fixedGradient;
        gradient        uniform -500;
    }
}


// ************************************************************************* //
