/*--------------------------------*- C++ -*----------------------------------*\
  =========                 |
  \\      /  F ield         | OpenFOAM: The Open Source CFD Toolbox
   \\    /   O peration     | Website:  https://openfoam.org
    \\  /    A nd           | Version:  8
     \\/     M anipulation  |
\*---------------------------------------------------------------------------*/
FoamFile
{
    version     2.0;
    format      ascii;
    class       volScalarField;
    location    "500";
    object      p;
}
// * * * * * * * * * * * * * * * * * * * * * * * * * * * * * * * * * * * * * //

dimensions      [1 -1 -2 0 0 0 0];

internalField   nonuniform List<scalar> 
8400
(
11664.1
11682.9
11698.7
11714.1
11729.2
11744.3
11759.6
11775.1
11791
11807.3
11824.2
11841.7
11860.1
11879.4
11899.8
11921.5
11944.8
11969.8
11996.8
12026.2
12058.3
12093.7
12132.8
12176.1
12224.6
12279
12339.8
12408.2
12485.3
12572.5
12671.5
12784.1
12912.4
13059
13226.5
13418.4
13638.5
13891.3
14182
14516.7
14902.6
15348.3
15864.4
16464.8
17165.9
17981.9
18927.9
20064.6
21558.7
23504.5
11555.5
11569.5
11583.2
11597.4
11611.6
11625.9
11640.3
11655
11670
11685.3
11701.2
11717.7
11734.8
11752.9
11771.9
11792.1
11813.7
11836.9
11861.9
11889.2
11918.9
11951.6
11987.8
12027.8
12072.4
12122.2
12178.2
12241.4
12312.8
12393.6
12485.4
12590
12709.2
12845.3
13001.1
13179.6
13384.2
13619.1
13888.9
14199
14555.6
14965.8
15438.1
15983
16611.6
17332.4
18152.6
19103
20267
21695.3
11489
11507.4
11523.6
11539
11554.2
11569.5
11585.1
11600.9
11617.2
11634
11651.3
11669.3
11688.2
11708
11728.9
11751.1
11774.8
11800.2
11827.6
11857.3
11889.7
11925.3
11964.4
12007.5
12055.2
12108.3
12167.6
12234.2
12309
12393.5
12489.1
12597.5
12720.6
12860.8
13020.6
13203.1
13411.9
13650.8
13924.4
14238.1
14597.9
15010.5
15483.7
16026.7
16648.6
17356.3
18155.8
19061.9
20105.3
21281.1
11354.3
11358.8
11368.8
11380.9
11393.7
11406.8
11420.1
11433.7
11447.5
11461.7
11476.3
11491.4
11507.1
11523.5
11540.7
11558.9
11578.2
11598.9
11621.1
11645.2
11671.3
11700
11731.6
11766.7
11805.7
11849.3
11898.2
11953.2
12015.4
12085.8
12165.7
12256.6
12360.3
12478.8
12614.4
12769.7
12947.8
13152.2
13386.9
13656.3
13965.8
14321
14728.5
15195.5
15729.3
16336.1
17021.3
17794
18669
19642.7
11309.1
11330.9
11348
11363.1
11377.9
11392.8
11408
11423.4
11439.2
11455.5
11472.2
11489.6
11507.6
11526.4
11546.1
11566.9
11589
11612.4
11637.5
11664.5
11693.6
11725.1
11759.4
11797
11838.4
11884.2
11935
11991.7
12055
12126.1
12206.2
12296.4
12398.5
12514.2
12645.5
12794.8
12964.6
13158.1
13378.5
13629.5
13915.4
14240.6
14609.8
15027.9
15499.6
16028
16614.6
17261.5
17974.8
18753.3
11150.7
11151.2
11159.4
11170.4
11182.3
11194.6
11207.1
11219.9
11233
11246.3
11260
11274.1
11288.6
11303.7
11319.5
11336
11353.4
11372
11391.8
11413.1
11436.1
11461
11488.3
11518.3
11551.3
11587.9
11628.6
11674.2
11725.4
11783
11848.1
11921.8
12005.6
12100.9
12209.5
12333.6
12475.3
12637.3
12822.6
13034.4
13276.4
13552.2
13866
14221.6
14622.8
15071.8
15568.8
16112.7
16705.7
17348.4
11121.2
11145.2
11162.6
11177.2
11191.2
11205.1
11219.2
11233.5
11248
11262.8
11278
11293.5
11309.5
11326
11343
11360.8
11379.3
11398.7
11419.1
11440.8
11463.8
11488.5
11515.1
11543.8
11575.1
11609.3
11646.8
11688.3
11734.2
11785.3
11842.4
11906.4
11978.3
12059.4
12151.1
12254.8
12372.5
12506
12657.8
12830.1
13025.8
13247.6
13498.5
13781.4
14098.9
14452.5
14842
15266.1
15726.2
16225
10951
10949.6
10956.9
10967.3
10978.7
10990.6
11002.6
11014.9
11027.4
11040.1
11053
11066.2
11079.8
11093.8
11108.2
11123.2
11138.8
11155.1
11172.3
11190.4
11209.5
11230
11251.9
11275.5
11301
11328.8
11359.3
11392.7
11429.6
11470.5
11516
11566.9
11623.9
11688
11760.3
11841.9
11934.2
12038.8
12157.4
12291.8
12444.1
12616.3
12810.7
13029.3
13273.8
13545.4
13843.7
14167.5
14518.3
14899.3
10928.2
10952.6
10969.5
10983.2
10996.2
11009
11021.8
11034.6
11047.6
11060.6
11073.8
11087.1
11100.5
11114.2
11128
11142.1
11156.5
11171.3
11186.5
11202.2
11218.5
11235.5
11253.3
11272
11291.8
11312.8
11335.4
11359.7
11386.1
11414.7
11446.2
11480.8
11519
11561.6
11609.2
11662.5
11722.4
11790
11866.4
11952.8
12050.7
12161.4
12286.5
12427.5
12585.9
12762.6
12957.8
13171.2
13404.5
13661.8
10754.6
10752.6
10759.3
10769.2
10780.1
10791.4
10802.9
10814.5
10826.2
10838
10849.9
10862
10874.2
10886.6
10899.1
10911.8
10924.7
10937.9
10951.4
10965.1
10979.2
10993.7
11008.7
11024.1
11040.1
11056.8
11074.2
11092.5
11111.7
11132.1
11153.7
11176.7
11201.3
11227.9
11256.6
11287.8
11321.8
11359.1
11400.2
11445.7
11496.2
11552.5
11615.5
11686
11765.1
11853.8
11952.8
12062.8
12186.3
12327.9
10732
10755.7
10771.8
10784.7
10796.8
10808.6
10820.3
10832
10843.6
10855.2
10866.7
10878.1
10889.4
10900.7
10911.8
10922.7
10933.6
10944.2
10954.7
10964.9
10975
10984.7
10994.2
11003.3
11012.1
11020.4
11028.3
11035.7
11042.5
11048.6
11054.1
11058.8
11062.6
11065.5
11067.3
11068
11067.4
11065.6
11062.4
11057.9
11052
11045
11037
11028.6
11020.5
11013.7
11009.6
11010.2
11018.9
11041
10560.6
10558.4
10564.6
10573.9
10584
10594.4
10605
10615.5
10626
10636.4
10646.8
10657.1
10667.2
10677.2
10687
10696.6
10705.9
10714.9
10723.6
10731.9
10739.7
10746.9
10753.4
10759.2
10764.1
10767.9
10770.5
10771.6
10771.1
10768.7
10764.1
10756.9
10746.6
10733
10715.4
10693.2
10665.9
10632.7
10592.8
10545.6
10490.2
10425.9
10352.3
10269
10176.3
10074.9
9966.51
9854.15
9742.35
9638.35
10533.4
10555.8
10571
10583.3
10594.8
10606
10617
10628
10638.8
10649.4
10659.8
10670
10679.9
10689.4
10698.5
10707.2
10715.3
10722.8
10729.5
10735.4
10740.3
10744.1
10746.5
10747.5
10746.7
10743.9
10738.7
10730.9
10719.9
10705.4
10686.8
10663.3
10634.5
10599.3
10557
10506.4
10446.4
10375.8
10293.2
10197.2
10086.2
9958.86
9813.91
9650.44
9468.16
9267.65
9050.95
8822.19
8587.91
8357.3
10369
10367.3
10373.1
10381.6
10390.9
10400.3
10409.7
10418.9
10427.9
10436.7
10445.3
10453.4
10461.2
10468.4
10475.1
10481.2
10486.5
10490.9
10494.3
10496.6
10497.5
10496.9
10494.5
10490
10483.2
10473.6
10460.9
10444.5
10423.8
10398.3
10367.2
10329.6
10284.5
10230.8
10167.2
10092.3
10004.3
9901.37
9781.49
9642.36
9481.55
9296.51
9084.76
8844.09
8572.85
8270.32
7937.4
7577.94
7199.83
6817.21
10331.5
10351.7
10365.8
10377.6
10388.6
10399.5
10410.1
10420.6
10430.8
10440.8
10450.5
10459.7
10468.6
10476.9
10484.5
10491.4
10497.5
10502.5
10506.4
10508.9
10509.8
10508.9
10505.8
10500.2
10491.8
10479.9
10464.2
10443.9
10418.4
10386.8
10348
10301.1
10244.7
10177.3
10097.1
10002.3
9890.54
9759.26
9605.61
9426.4
9218.15
8977.12
8699.52
8381.81
8021.15
7615.74
7165.46
6674.07
6152.76
5621.97
10180.6
10180.6
10186.7
10194.9
10203.6
10212.3
10220.9
10229.1
10237
10244.5
10251.5
10258
10263.7
10268.7
10272.8
10275.8
10277.7
10278.1
10277
10274.1
10269.1
10261.6
10251.4
10237.9
10220.7
10199.2
10172.8
10140.6
10101.8
10055.5
10000.3
9935.01
9858
9767.47
9661.36
9537.27
9392.49
9223.89
9027.94
8800.65
8537.57
8233.79
7883.98
7482.82
7025.47
6507.54
5924.62
5274.57
4566.25
3830.67
10123.9
10141.3
10154.1
10165.4
10176
10186.4
10196.6
10206.5
10216.1
10225.3
10234.1
10242.4
10250
10257
10263.1
10268.3
10272.4
10275.1
10276.3
10275.7
10273.1
10268
10260.1
10249
10234.1
10214.8
10190.4
10160.1
10122.9
10077.8
10023.4
9958.22
9880.58
9788.46
9679.52
9551.04
9399.89
9222.4
9014.33
8770.77
8486.09
8153.71
7766.11
7315.02
6792.2
6189.26
5495.26
4698.52
3805.56
2866.98
9993.85
9998.44
10006.3
10015.2
10024.2
10032.9
10041.3
10049.3
10056.9
10063.9
10070.3
10076.1
10080.9
10084.9
10087.7
10089.3
10089.4
10087.8
10084.2
10078.4
10070
10058.6
10043.7
10024.8
10001.3
9972.35
9937.22
9894.9
9844.26
9783.99
9712.57
9628.22
9528.89
9412.17
9275.27
9114.92
8927.3
8707.96
8451.66
8152.29
7802.71
7394.51
6917.7
6360.78
5711.96
4959.85
4089.03
3074.24
1902.45
637.663
9907.42
9926.38
9938.56
9949.4
9959.6
9969.41
9978.88
9987.98
9996.66
10004.9
10012.5
10019.6
10025.8
10031.2
10035.6
10038.9
10040.7
10041
10039.5
10035.8
10029.6
10020.6
10008.2
9991.98
9971.29
9945.42
9913.53
9874.68
9827.74
9771.44
9704.27
9624.5
9530.1
9418.71
9287.58
9133.52
8952.76
8740.9
8492.75
8202.22
7862.11
7463.84
6996.79
6447.87
5803.03
5049.53
4167.98
3104.48
1773.11
199.128
9807.81
9817.5
9827.3
9837.12
9846.68
9855.91
9864.77
9873.22
9881.2
9888.64
9895.46
9901.57
9906.84
9911.16
9914.36
9916.27
9916.68
9915.36
9912.04
9906.39
9898.06
9886.61
9871.56
9852.33
9828.28
9798.62
9762.48
9718.82
9666.45
9603.97
9529.77
9441.95
9338.31
9216.28
9072.83
8904.41
8706.82
8475.07
8203.21
7884.07
7509.01
7067.32
6545.14
5924.12
5182.37
4297.2
3233
1885.71
45.9747
-2330.78
19431.3
11269
7235.99
5717.64
4883.27
4274.42
3850.72
3566.4
3366.21
3215.1
3095.38
2997.17
2913.93
2841.17
2775.85
2715.82
2659.56
2605.87
2553.81
2502.61
2451.56
2400.04
2347.41
2293.06
2236.33
2176.5
2112.79
2044.33
1970.1
1888.94
1799.54
1700.36
1589.68
1465.49
1325.31
1166.19
984.702
776.845
537.794
261.613
-58.8532
-432.217
-869.15
-1383.15
-1991.71
-2718.28
-3595.82
-4673.58
-6031.97
-7807.65
-6201.31
-1612.15
-110.449
455.845
890.15
1215.74
1440.1
1600.19
1719.03
1807.85
1873.9
1922.62
1957.93
1982.53
1998.38
2006.91
2009.17
2005.94
1997.78
1985.04
1967.96
1946.63
1921.01
1890.98
1856.28
1816.52
1771.21
1719.73
1661.26
1594.77
1519.04
1432.68
1333.98
1220.9
1091.23
942.241
770.683
572.637
343.514
77.882
-230.929
-591.093
-1012.59
-1507.76
-2092.05
-2785
-3611.58
-4603.3
-5797.68
-7228.6
1030.54
3200.56
4383.69
4486.35
4329.71
4158.07
3971.76
3780.54
3602.15
3443.02
3302.22
3177.27
3065.79
2965.54
2874.52
2790.98
2713.43
2640.61
2571.43
2504.95
2440.32
2376.75
2313.49
2249.8
2184.96
2118.17
2048.64
1975.53
1897.88
1814.62
1724.5
1626.01
1517.41
1396.61
1261.32
1108.91
936.278
739.724
514.856
256.518
-41.3535
-386.011
-786.127
-1252.08
-1796.26
-2433.38
-3180.44
-4056
-5077.26
-6252.51
1281.57
1690.64
1882.11
1810.46
1708.24
1664.86
1653.23
1650.98
1655.23
1665.1
1677.71
1690.47
1701.85
1711
1717.41
1720.78
1720.93
1717.8
1711.32
1701.47
1688.16
1671.31
1650.77
1626.32
1597.64
1564.33
1525.91
1481.76
1431.18
1373.44
1307.59
1232.42
1146.5
1048.22
935.559
806.16
657.249
485.571
287.303
57.9855
-207.585
-515.508
-872.882
-1287.87
-1769.69
-2328.38
-2974.1
-3715.56
-4556.63
-5490.47
1723.01
1972.09
2288.72
2520.39
2660.28
2749.54
2801.86
2820.79
2814.41
2791.44
2757.69
2716.76
2671.13
2622.57
2572.29
2521.01
2469.19
2417.07
2364.71
2312.08
2259.05
2205.41
2150.91
2095.24
2038.02
1978.82
1917.04
1851.98
1782.85
1708.78
1628.75
1541.65
1446.18
1340.79
1223.67
1092.7
945.43
779.036
590.228
375.217
129.653
-151.425
-473.597
-843.009
-1266.18
-1749.58
-2298.84
-2917.3
-3603.61
-4348.96
1829.13
1914.75
2022.87
2084.91
2087.55
2059.44
2021.02
1978.74
1935.6
1894.33
1856.39
1821.96
1790.69
1762.02
1735.41
1710.28
1686.09
1662.37
1638.66
1614.58
1589.73
1563.74
1536.27
1506.89
1475.27
1441.01
1403.62
1362.61
1317.37
1267.17
1211.18
1148.48
1077.97
998.375
908.206
805.732
688.954
555.567
402.927
228.024
27.465
-202.517
-466.015
-767.317
-1110.65
-1499.72
-1937
-2422.53
-2952.29
-3516.76
1844.67
1889.06
1960.78
2033
2088.34
2129.24
2160.84
2183.83
2197.88
2203.71
2202.49
2195.24
2182.77
2165.81
2145.02
2120.95
2094.07
2064.74
2033.23
1999.77
1964.49
1927.46
1888.66
1847.99
1805.31
1760.41
1713.04
1662.88
1609.51
1552.42
1490.98
1424.48
1352.07
1272.78
1185.43
1088.68
980.996
860.594
725.462
573.339
401.722
207.897
-10.9787
-257.741
-534.971
-844.608
-1187.39
-1562.09
-1964.54
-2387.44
1805.6
1827.8
1865.58
1905.57
1933.72
1946.61
1946.76
1936.8
1918.75
1894.66
1866.5
1835.86
1803.85
1771.25
1738.57
1706.13
1674.08
1642.45
1611.2
1580.23
1549.41
1518.54
1487.42
1455.83
1423.51
1390.15
1355.46
1319.07
1280.59
1239.58
1195.52
1147.85
1095.91
1038.95
976.122
906.454
828.837
742.025
644.627
535.108
411.812
273
116.928
-58.0248
-253.158
-469.16
-705.712
-960.989
-1231.04
-1509.7
1739.44
1753.04
1778.1
1808.73
1836.22
1856.5
1869.69
1876.85
1878.69
1875.85
1868.99
1858.75
1845.61
1829.97
1812.16
1792.43
1771.01
1748.08
1723.77
1698.21
1671.46
1643.6
1614.65
1584.62
1553.48
1521.18
1487.62
1452.69
1416.23
1378.05
1337.89
1295.48
1250.46
1202.44
1150.94
1095.43
1035.3
969.843
898.315
819.887
733.695
638.867
534.584
420.174
295.241
159.849
14.7489
-138.358
-296.562
-456.005
1655.98
1666.07
1685.25
1709.8
1732.71
1749.4
1758.66
1760.86
1756.69
1746.97
1732.65
1714.71
1694.01
1671.25
1647.02
1621.76
1595.79
1569.39
1542.71
1515.87
1488.95
1461.98
1434.99
1407.96
1380.86
1353.66
1326.32
1298.75
1270.91
1242.7
1214.04
1184.81
1154.9
1124.18
1092.52
1059.75
1025.71
990.225
953.131
914.262
873.483
830.707
785.932
739.283
691.079
641.91
592.729
544.958
500.605
462.201
1559.58
1569.69
1588.92
1613.54
1636.57
1653.41
1662.85
1665.29
1661.4
1652.03
1638.13
1620.69
1600.58
1578.52
1555.12
1530.83
1506.01
1480.94
1455.83
1430.82
1406.03
1381.54
1357.44
1333.76
1310.57
1287.92
1265.86
1244.44
1223.75
1203.85
1184.86
1166.89
1150.07
1134.59
1120.64
1108.47
1098.37
1090.67
1085.78
1084.18
1086.42
1093.15
1105.11
1123.13
1148.11
1181.04
1222.9
1274.68
1337.24
1411.34
1450.21
1463.87
1489.07
1519.94
1547.76
1568.48
1582.23
1590.06
1592.72
1590.86
1585.16
1576.29
1564.77
1551.03
1535.44
1518.33
1499.96
1480.61
1460.5
1439.84
1418.86
1397.75
1376.7
1355.92
1335.62
1316
1297.29
1279.73
1263.6
1249.18
1236.8
1226.86
1219.77
1216.04
1216.22
1220.97
1231.05
1247.3
1270.72
1302.41
1343.61
1395.69
1460.12
1538.42
1632.08
1742.48
1870.67
2017.23
2181.96
2364.07
1323.44
1345.75
1383.76
1424.13
1452.83
1466.44
1467.5
1458.68
1442.01
1419.58
1393.4
1365.11
1335.87
1306.53
1277.69
1249.75
1222.97
1197.53
1173.52
1151.02
1130.08
1110.75
1093.11
1077.22
1063.22
1051.24
1041.47
1034.17
1029.62
1028.2
1030.32
1036.53
1047.42
1063.74
1086.32
1116.17
1154.42
1202.41
1261.65
1333.83
1420.87
1524.84
1647.98
1792.54
1960.71
2154.41
2374.96
2622.74
2896.77
3195.05
1169.45
1213.98
1286.02
1358.76
1414.86
1456.75
1489.57
1514.07
1529.94
1537.96
1539.35
1535.2
1526.38
1513.73
1498
1479.89
1459.97
1438.8
1416.86
1394.56
1372.33
1350.55
1329.57
1309.78
1291.56
1275.31
1261.47
1250.5
1242.94
1239.4
1240.55
1247.18
1260.19
1280.6
1309.62
1348.61
1399.17
1463.08
1542.42
1639.5
1756.91
1897.49
2064.26
2260.35
2488.78
2752.19
3052.41
3389.84
3762.65
4166.89
960.648
1046.45
1154.95
1217.64
1221.22
1194.34
1157.48
1117.13
1076.33
1037.87
1003.27
972.813
946.206
923.037
902.869
885.288
869.944
856.565
844.965
835.037
826.753
820.153
815.348
812.516
811.902
813.825
818.675
826.931
839.161
856.036
878.35
907.028
943.151
987.979
1042.97
1109.83
1190.5
1287.22
1402.59
1539.5
1701.25
1891.48
2114.16
2373.46
2673.58
3018.39
3410.9
3852.44
4341.51
4874.03
661.017
910.307
1227.4
1459.84
1600.83
1691.54
1745.67
1766.77
1763.03
1743.25
1713.33
1676.94
1636.69
1594.47
1551.63
1509.11
1467.55
1427.44
1389.16
1353
1319.24
1288.13
1259.94
1234.99
1213.6
1196.17
1183.17
1175.15
1172.76
1176.76
1188.05
1207.67
1236.88
1277.1
1330.02
1397.6
1482.11
1586.19
1712.86
1865.59
2048.33
2265.54
2522.13
2823.48
3175.18
3582.74
4050.9
4582.59
5176.95
5828.57
25.788
435.082
627.058
556.256
455.248
413.484
403.882
404.135
411.44
424.952
441.899
459.791
477.221
493.491
508.263
521.434
533.079
543.394
552.66
561.216
569.446
577.773
586.659
596.611
608.182
621.983
638.696
659.086
684.014
714.462
751.549
796.56
850.972
916.487
995.07
1088.99
1200.88
1333.76
1491.13
1677.03
1896.1
2153.63
2455.65
2808.92
3220.89
3699.45
4252.44
4886.52
5604.86
6405.9
-419.353
1750.92
2934.6
3038.2
2882.87
2712.92
2528.73
2340.29
2165.25
2010.09
1874.02
1754.68
1649.8
1557.33
1475.45
1402.63
1337.64
1279.53
1227.56
1181.22
1140.14
1104.09
1073.01
1046.94
1026.04
1010.61
1001.05
997.905
1001.87
1013.81
1034.73
1065.87
1108.71
1164.95
1236.65
1326.17
1436.32
1570.36
1732.08
1925.94
2157.1
2431.6
2756.46
3139.84
3591.17
4121.19
4741.82
5465.32
6301.8
7256.53
-7845.67
-3256.26
-1753.97
-1186.71
-751.035
-423.707
-197.074
-34.1891
88.0622
180.979
251.909
306.426
348.571
381.23
406.546
426.183
441.472
453.502
463.195
471.36
478.728
485.989
493.812
502.87
513.861
527.525
544.665
566.167
593.022
626.351
667.427
717.711
778.883
852.882
941.951
1048.69
1176.13
1327.79
1507.76
1720.86
1972.7
2269.94
2620.42
3033.53
3520.6
4095.4
4774.79
5579.33
6532.66
7660.91
17592.1
9430.05
5397.59
3880.23
3047.29
2440.4
2019.14
1737.75
1541.1
1394.26
1279.62
1187.43
1111.29
1046.89
991.381
942.872
900.099
862.211
828.649
799.077
773.331
751.388
733.346
719.418
709.928
705.31
706.119
713.038
726.893
748.672
779.546
820.9
874.358
941.828
1025.55
1128.12
1252.63
1402.64
1582.38
1796.79
2051.73
2354.15
2712.42
3136.72
3639.73
4237.67
4952.24
5814.21
6870.51
8203.27
-20199.4
-15584.7
-14014
-10056.4
-8089.66
-4672.15
-2570.62
484.555
2589.55
5398.31
7429.2
10072.8
11971.5
14519.1
16226.7
18749.9
20182
22765.7
23766.5
26399.9
-20225.6
-15623.9
-14063.2
-10107.6
-8147.83
-4728.88
-2633.09
424.232
2524.8
5335.7
7363.1
10009.2
11905.3
14456.8
16163.1
18693.3
20128.2
22726.8
23741.4
26413.5
-20260
-15661.1
-14110
-10155.6
-8202.64
-4782.74
-2692.18
366.878
2463.37
5276.41
7300.67
9949.56
11843.6
14398.9
16105.2
18641.5
20080.1
22689.4
23713.7
26403.2
-20298.9
-15699
-14155.7
-10201.6
-8255.04
-4834.15
-2748.64
312.132
2404.66
5219.9
7241.17
9892.87
11785.1
14344.2
16050.4
18591.9
20033.4
22649.8
23679.2
26376.3
-20339.8
-15737.4
-14200.8
-10246.3
-8305.66
-4883.57
-2802.94
259.585
2348.22
5165.68
7184.02
9838.47
11728.9
14291.4
15997.3
18543
19986.1
22607.1
23638.4
26339.9
-20381.8
-15776.3
-14245.4
-10289.9
-8354.91
-4931.41
-2855.52
208.837
2293.63
5113.29
7128.67
9785.73
11674.2
14239.7
15944.8
18493.9
19937.3
22561.5
23592.8
26297.3
-20424.2
-15815.2
-14289.6
-10332.8
-8403.09
-4977.98
-2906.71
159.53
2240.51
5062.3
7074.67
9734.15
11620.4
14188.5
15892.5
18444.2
19886.8
22513.4
23543.5
26250.5
-20466.7
-15854.1
-14333.4
-10375
-8450.4
-5023.53
-2956.79
111.359
2188.52
5012.38
7021.64
9683.35
11567.2
14137.6
15839.9
18393.6
19834.9
22463.1
23491.6
26200.6
-20509.1
-15892.8
-14376.8
-10416.7
-8497
-5068.28
-3006.01
64.0718
2137.39
4963.24
6969.3
9633.03
11514.3
14086.6
15786.9
18342.3
19781.6
22411.2
23437.5
26148.4
-20551.3
-15931.2
-14419.8
-10457.9
-8543.02
-5112.37
-3054.53
17.4632
2086.92
4914.66
6917.42
9582.99
11461.4
14035.4
15733.4
18290.2
19727.2
22357.8
23381.8
26094.5
-20593.2
-15969.3
-14462.5
-10498.6
-8588.56
-5155.94
-3102.51
-28.629
2036.94
4866.46
6865.85
9533.07
11408.6
13984.1
15679.4
18237.4
19671.9
22303.3
23324.8
26039.2
-20634.9
-16007.1
-14504.9
-10539
-8633.7
-5199.09
-3150.08
-74.3332
1987.32
4818.53
6814.46
9483.2
11355.7
13932.4
15625
18183.9
19615.7
22247.9
23266.8
25982.9
-20676.3
-16044.6
-14546.9
-10579
-8678.5
-5241.9
-3197.31
-119.749
1937.95
4770.76
6763.18
9433.3
11302.7
13880.5
15570.2
18130
19558.9
22191.7
23207.9
25925.7
-20717.4
-16081.8
-14588.7
-10618.8
-8723.04
-5284.45
-3244.29
-164.955
1888.76
4723.1
6711.95
9383.34
11249.5
13828.3
15515
18075.6
19501.5
22134.9
23148.4
25867.8
-20758.4
-16118.8
-14630.3
-10658.3
-8767.35
-5326.78
-3291.06
-210.009
1839.7
4675.48
6660.73
9333.28
11196.2
13775.9
15459.5
18020.8
19443.7
22077.6
23088.2
25809.4
-20799.1
-16155.6
-14671.7
-10697.7
-8811.48
-5368.95
-3337.69
-254.957
1790.73
4627.88
6609.49
9283.13
11142.7
13723.2
15403.7
17965.6
19385.4
22019.9
23027.7
25750.5
-20839.7
-16192.2
-14713
-10736.8
-8855.45
-5410.99
-3384.2
-299.833
1741.82
4580.26
6558.23
9232.87
11089.1
13670.4
15347.7
17910.2
19326.9
21961.7
22966.7
25691.2
-20880.1
-16228.6
-14754.1
-10775.9
-8899.31
-5452.92
-3430.62
-344.662
1692.94
4532.63
6506.93
9182.5
11035.4
13617.3
15291.4
17854.4
19268
21903.3
22905.4
25631.7
-20920.4
-16264.9
-14795.1
-10814.8
-8943.07
-5494.78
-3476.96
-389.463
1644.1
4484.96
6455.6
9132.04
10981.5
13564.1
15235
17798.5
19208.9
21844.7
22843.9
25571.9
-20960.6
-16301.1
-14836
-10853.6
-8986.75
-5536.57
-3523.25
-434.248
1595.27
4437.25
6404.23
9081.48
10927.6
13510.8
15178.4
17742.4
19149.6
21785.8
22782.1
25511.8
-21000.7
-16337.1
-14876.8
-10892.3
-9030.36
-5578.32
-3569.5
-479.026
1546.45
4389.5
6352.83
9030.84
10873.6
13457.3
15121.7
17686.2
19090.2
21726.8
22720.2
25451.7
-21040.7
-16373.1
-14917.6
-10931
-9073.91
-5620.03
-3615.7
-523.804
1497.65
4341.72
6301.42
8980.13
10819.5
13403.7
15064.9
17629.8
19030.7
21667.6
22658.1
25391.4
-21080.7
-16409
-14958.3
-10969.6
-9117.42
-5661.71
-3661.87
-568.583
1448.86
4293.9
6249.98
8929.34
10765.4
13350.1
15008.1
17573.3
18971
21608.3
22596
25330.9
-21120.6
-16444.8
-14999
-11008.1
-9160.88
-5703.36
-3708.01
-613.366
1400.08
4246.05
6198.54
8878.51
10711.3
13296.3
14951.1
17516.7
18911.3
21549
22533.7
25270.5
-21160.5
-16480.6
-15039.6
-11046.7
-9204.31
-5745
-3754.12
-658.15
1351.33
4198.17
6147.11
8827.63
10657.1
13242.5
14894.2
17460.1
18851.5
21489.6
22471.4
25210
-21200.4
-16516.3
-15080.2
-11085.1
-9247.7
-5786.61
-3800.19
-702.936
1302.6
4150.28
6095.68
8776.72
10602.9
13188.7
14837.2
17403.4
18791.7
21430.1
22409
25149.4
-21240.2
-16552
-15120.7
-11123.6
-9291.05
-5828.2
-3846.23
-747.719
1253.9
4102.37
6044.28
8725.78
10548.8
13134.9
14780.2
17346.8
18731.9
21370.7
22346.7
25088.9
-21280
-16587.6
-15161.3
-11162
-9334.37
-5869.77
-3892.22
-792.497
1205.24
4054.46
5992.9
8674.83
10494.6
13081
14723.2
17290.1
18672.1
21311.2
22284.3
25028.3
-21319.8
-16623.1
-15201.8
-11200.3
-9377.64
-5911.32
-3938.17
-837.264
1156.62
4006.54
5941.57
8623.88
10440.5
13027.1
14666.3
17233.4
18612.3
21251.8
22221.9
24967.8
-21359.5
-16658.6
-15242.3
-11238.7
-9420.88
-5952.84
-3984.08
-882.016
1108.05
3958.64
5890.29
8572.93
10386.4
12973.2
14609.4
17176.7
18552.5
21192.4
22159.6
24907.4
-21399.2
-16694.1
-15282.7
-11276.9
-9464.07
-5994.33
-4029.92
-926.747
1059.55
3910.74
5839.06
8522
10332.4
12919.4
14552.5
17120
18492.8
21133
22097.3
24847
-21438.9
-16729.5
-15323.1
-11315.2
-9507.2
-6035.79
-4075.71
-971.452
1011.11
3862.87
5787.91
8471.08
10278.5
12865.6
14495.7
17063.4
18433.1
21073.7
22035
24786.7
-21478.5
-16764.9
-15363.4
-11353.4
-9550.28
-6077.21
-4121.43
-1016.13
962.74
3815.03
5736.83
8420.2
10224.6
12811.8
14439
17006.9
18373.5
21014.5
21972.9
24726.4
-21518.2
-16800.2
-15403.8
-11391.5
-9593.3
-6118.58
-4167.07
-1060.76
914.459
3767.23
5685.84
8369.37
10170.9
12758.1
14382.4
16950.4
18314
20955.3
21910.8
24666.3
-21557.7
-16835.4
-15444
-11429.6
-9636.25
-6159.91
-4212.64
-1105.35
866.268
3719.47
5634.95
8318.58
10117.2
12704.4
14325.9
16894
18254.6
20896.3
21848.8
24606.2
-21597.3
-16870.6
-15484.2
-11467.6
-9679.13
-6201.18
-4258.11
-1149.89
818.178
3671.77
5584.17
8267.85
10063.6
12650.8
14269.5
16837.7
18195.3
20837.3
21786.9
24546.3
-21636.7
-16905.6
-15524.4
-11505.6
-9721.93
-6242.4
-4303.49
-1194.38
770.196
3624.12
5533.5
8217.18
10010.2
12597.3
14213.2
16781.4
18136.2
20778.5
21725.1
24486.6
-21676.2
-16940.7
-15564.5
-11543.5
-9764.64
-6283.54
-4348.76
-1238.79
722.331
3576.54
5482.95
8166.59
9956.88
12543.9
14157
16725.3
18077.1
20719.8
21663.5
24426.9
-21715.5
-16975.6
-15604.5
-11581.3
-9807.26
-6324.62
-4393.93
-1283.14
674.592
3529.03
5432.54
8116.09
9903.71
12490.6
14100.9
16669.3
18018.2
20661.2
21602
24367.5
-21754.8
-17010.4
-15644.4
-11619
-9849.77
-6365.61
-4438.97
-1327.41
626.987
3481.6
5382.28
8065.67
9850.68
12437.3
14045.1
16613.4
17959.5
20602.7
21540.6
24308.1
-21794
-17045.2
-15684.2
-11656.7
-9892.18
-6406.53
-4483.88
-1371.6
579.526
3434.27
5332.16
8015.36
9797.82
12384.2
13989.3
16557.7
17900.9
20544.5
21479.4
24249
-21833.2
-17079.8
-15724
-11694.2
-9934.47
-6447.35
-4528.66
-1415.7
532.216
3387.03
5282.21
7965.15
9745.12
12331.2
13933.8
16502.1
17842.4
20486.4
21418.4
24190.1
-21872.2
-17114.4
-15763.6
-11731.7
-9976.63
-6488.07
-4573.29
-1459.69
485.068
3339.89
5232.44
7915.05
9692.59
12278.4
13878.4
16446.6
17784.2
20428.4
21357.6
24131.3
-21911.2
-17148.8
-15803.2
-11769
-10018.7
-6528.69
-4617.77
-1503.59
438.088
3292.87
5182.84
7865.08
9640.26
12225.7
13823.2
16391.3
17726.1
20370.7
21296.9
24072.7
-21950
-17183.1
-15842.6
-11806.2
-10060.6
-6569.19
-4662.08
-1547.37
391.287
3245.96
5133.43
7815.24
9588.12
12173.1
13768.3
16336.2
17668.3
20313.1
21236.4
24014.4
-21988.8
-17217.3
-15881.9
-11843.3
-10102.3
-6609.58
-4706.23
-1591.03
344.673
3199.17
5084.22
7765.54
9536.19
12120.7
13713.5
16281.3
17610.6
20255.7
21176.1
23956.3
-22027.4
-17251.3
-15921.1
-11880.3
-10143.9
-6649.85
-4750.2
-1634.57
298.254
3152.52
5035.21
7715.98
9484.47
12068.5
13658.9
16226.5
17553.2
20198.6
21116.1
23898.4
-22065.9
-17285.3
-15960.1
-11917.1
-10185.3
-6689.98
-4793.98
-1677.97
252.041
3106.01
4986.43
7666.58
9432.97
12016.4
13604.6
16171.9
17495.9
20141.7
21056.3
23840.8
-22104.3
-17319
-15999
-11953.8
-10226.6
-6729.98
-4837.57
-1721.24
206.041
3059.65
4937.87
7617.34
9381.7
11964.5
13550.5
16117.6
17439
20085
20996.7
23783.4
-22142.6
-17352.6
-16037.7
-11990.4
-10267.7
-6769.83
-4880.95
-1764.36
160.263
3013.44
4889.54
7568.26
9330.68
11912.8
13496.6
16063.4
17382.2
20028.5
20937.3
23726.2
-22180.7
-17386.1
-16076.3
-12026.8
-10308.5
-6809.53
-4924.12
-1807.32
114.717
2967.39
4841.46
7519.37
9279.91
11861.3
13443
16009.5
17325.8
19972.3
20878.2
23669.4
-22218.6
-17419.4
-16114.7
-12063
-10349.2
-6849.08
-4967.07
-1850.13
69.4108
2921.51
4793.63
7470.65
9229.4
11810
13389.7
15955.8
17269.5
19916.4
20819.4
23612.8
-22256.4
-17452.5
-16153
-12099.1
-10389.7
-6888.46
-5009.79
-1892.78
24.3532
2875.81
4746.07
7422.13
9179.15
11758.9
13336.6
15902.4
17213.6
19860.7
20760.8
23556.5
-22294.1
-17485.4
-16191
-12135
-10430
-6927.67
-5052.27
-1935.25
-20.4468
2830.28
4698.77
7373.8
9129.19
11708
13283.8
15849.2
17157.9
19805.3
20702.5
23500.5
-22331.5
-17518.1
-16228.9
-12170.7
-10470.1
-6966.71
-5094.51
-1977.54
-64.9805
2784.95
4651.76
7325.68
9079.51
11657.4
13231.3
15796.2
17102.6
19750.1
20644.5
23444.8
-22368.8
-17550.7
-16266.6
-12206.2
-10509.9
-7005.56
-5136.49
-2019.64
-109.239
2739.81
4605.03
7277.78
9030.12
11607
13179.1
15743.5
17047.5
19695.3
20586.8
23389.4
-22405.9
-17583
-16304
-12241.6
-10549.5
-7044.22
-5178.2
-2061.56
-153.214
2694.87
4558.6
7230.09
8981.04
11556.8
13127.2
15691.1
16992.7
19640.7
20529.4
23334.4
-22442.8
-17615.1
-16341.3
-12276.7
-10588.8
-7082.68
-5219.65
-2103.27
-196.896
2650.14
4512.47
7182.63
8932.28
11506.9
13075.6
15639
16938.3
19586.5
20472.4
23279.6
-22479.5
-17647
-16378.3
-12311.6
-10627.9
-7120.95
-5260.81
-2144.78
-240.276
2605.63
4466.66
7135.41
8883.83
11457.3
13024.4
15587.1
16884.1
19532.6
20415.6
23225.3
-22516
-17678.7
-16415.1
-12346.3
-10666.7
-7159
-5301.68
-2186.08
-283.346
2561.34
4421.17
7088.42
8835.72
11407.9
12973.5
15535.5
16830.3
19479
20359.2
23171.2
-22552.3
-17710.2
-16451.7
-12380.8
-10705.3
-7196.84
-5342.26
-2227.16
-326.098
2517.28
4376.02
7041.69
8787.94
11358.8
12922.9
15484.3
16776.9
19425.7
20303.1
23117.5
-22588.3
-17741.4
-16488
-12415.1
-10743.6
-7234.46
-5382.53
-2268.01
-368.522
2473.46
4331.21
6995.21
8740.51
11310
12872.6
15433.3
16723.8
19372.8
20247.3
23064.2
-22624.2
-17772.4
-16524.1
-12449.2
-10781.6
-7271.86
-5422.48
-2308.64
-410.61
2429.87
4286.74
6948.99
8693.44
11261.4
12822.8
15382.7
16671
19320.2
20191.9
23011.3
-22659.8
-17803.2
-16559.9
-12483
-10819.3
-7309.02
-5462.11
-2349.03
-452.352
2386.54
4242.64
6903.05
8646.73
11213.2
12773.3
15332.4
16618.6
19268
20136.9
22958.7
-22695.1
-17833.6
-16595.4
-12516.5
-10856.7
-7345.94
-5501.41
-2389.18
-493.742
2343.46
4198.9
6857.38
8600.4
11165.3
12724.1
15282.4
16566.6
19216.1
20082.2
22906.6
-22730.2
-17863.9
-16630.7
-12549.8
-10893.7
-7382.62
-5540.37
-2429.08
-534.769
2300.65
4155.54
6811.99
8554.44
11117.6
12675.4
15232.8
16515
19164.7
20028
22854.8
-22765
-17893.8
-16665.7
-12582.9
-10930.5
-7419.04
-5578.97
-2468.72
-575.425
2258.1
4112.56
6766.89
8508.88
11070.3
12627
15183.5
16463.8
19113.6
19974.1
22803.4
-22799.6
-17923.5
-16700.4
-12615.7
-10966.9
-7455.21
-5617.22
-2508.11
-615.703
2215.82
4069.97
6722.09
8463.72
11023.3
12579.1
15134.6
16412.9
19062.9
19920.6
22752.5
-22833.9
-17952.9
-16734.8
-12648.2
-11003
-7491.12
-5655.11
-2547.23
-655.592
2173.83
4027.78
6677.59
8418.96
10976.7
12531.5
15086
16362.5
19012.6
19867.5
22702
-22867.9
-17982
-16768.9
-12680.5
-11038.8
-7526.76
-5692.61
-2586.07
-695.085
2132.12
3986.01
6633.41
8374.62
10930.4
12484.4
15037.9
16312.5
18962.6
19814.9
22651.9
-22901.6
-18010.9
-16802.7
-12712.4
-11074.2
-7562.13
-5729.74
-2624.64
-734.172
2090.71
3944.65
6589.53
8330.7
10884.4
12437.7
14990
16262.9
18913.2
19762.6
22602.3
-22935
-18039.4
-16836.1
-12744.1
-11109.3
-7597.22
-5766.47
-2662.92
-772.847
2049.6
3903.72
6545.99
8287.22
10838.8
12391.4
14942.6
16213.8
18864.1
19710.8
22553.1
-22968.2
-18067.6
-16869.2
-12775.5
-11143.9
-7632.03
-5802.8
-2700.92
-811.1
2008.79
3863.22
6502.77
8244.17
10793.5
12345.6
14895.6
16165.1
18815.4
19659.4
22504.3
-23001
-18095.5
-16902
-12806.6
-11178.2
-7666.55
-5838.73
-2738.62
-848.922
1968.29
3823.16
6459.89
8201.57
10748.6
12300.2
14849
16116.8
18767.2
19608.5
22456
-23033.5
-18123.1
-16934.5
-12837.4
-11212.1
-7700.77
-5874.23
-2776.02
-886.305
1928.11
3783.56
6417.35
8159.43
10704.1
12255.3
14802.8
16069
18719.5
19558
22408.2
-23065.7
-18150.4
-16966.6
-12867.9
-11245.7
-7734.69
-5909.31
-2813.12
-923.242
1888.25
3744.41
6375.16
8117.75
10660
12210.8
14756.9
16021.7
18672.2
19508
22360.9
-23097.5
-18177.3
-16998.3
-12898.1
-11278.8
-7768.31
-5943.96
-2849.91
-959.723
1848.72
3705.73
6333.33
8076.55
10616.3
12166.8
14711.6
15974.8
18625.3
19458.5
22314.1
-23129
-18203.9
-17029.7
-12928
-11311.5
-7801.62
-5978.16
-2886.38
-995.74
1809.52
3667.53
6291.86
8035.82
10572.9
12123.3
14666.6
15928.4
18578.9
19409.4
22267.7
-23160.2
-18230.2
-17060.7
-12957.5
-11343.8
-7834.62
-6011.91
-2922.53
-1031.29
1770.67
3629.81
6250.76
7995.58
10530
12080.3
14622.1
15882.5
18533
19360.8
22221.9
-23191
-18256.1
-17091.3
-12986.8
-11375.6
-7867.3
-6045.2
-2958.35
-1066.35
1732.16
3592.58
6210.03
7955.84
10487.4
12037.8
14578
15837.1
18487.6
19312.7
22176.5
-23221.4
-18281.7
-17121.6
-13015.6
-11407.1
-7899.65
-6078.03
-2993.84
-1100.93
1694
3555.85
6169.68
7916.6
10445.3
11995.8
14534.4
15792.2
18442.6
19265.1
22131.7
-23251.5
-18306.9
-17151.4
-13044.2
-11438
-7931.68
-6110.37
-3028.99
-1135.01
1656.2
3519.63
6129.72
7877.87
10403.6
11954.3
14491.2
15747.8
18398.2
19218
22087.4
-23281.2