/*--------------------------------*- C++ -*----------------------------------*\
  =========                 |
  \\      /  F ield         | OpenFOAM: The Open Source CFD Toolbox
   \\    /   O peration     | Website:  https://openfoam.org
    \\  /    A nd           | Version:  8
     \\/     M anipulation  |
\*---------------------------------------------------------------------------*/
FoamFile
{
    version     2.0;
    format      ascii;
    class       volScalarField;
    location    "500";
    object      p_rgh;
}
// * * * * * * * * * * * * * * * * * * * * * * * * * * * * * * * * * * * * * //

dimensions      [1 -1 -2 0 0 0 0];

internalField   nonuniform List<scalar> 
8400
(
0.035045
18.9204
34.8011
50.2007
65.3779
80.5489
95.8539
111.406
127.308
143.662
160.574
178.159
196.546
215.877
236.318
258.054
281.3
306.301
333.342
362.756
394.927
430.293
469.363
512.768
561.263
615.602
676.481
744.849
821.961
909.216
1008.22
1120.81
1249.13
1395.64
1563.19
1755.1
1975.21
2227.98
2518.67
2853.39
3239.34
3685.04
4201.13
4801.53
5502.66
6318.63
7264.61
8401.34
9895.43
11841.2
-9.52755
4.52168
18.2928
32.5037
46.7737
61.1147
75.5931
90.2906
105.293
120.691
136.581
153.069
170.273
188.326
207.379
227.607
249.208
272.41
297.476
324.718
354.498
387.223
423.345
463.398
507.991
557.842
613.86
677.024
748.393
829.248
921.076
1025.6
1144.8
1280.98
1436.78
1615.24
1819.88
2054.77
2324.57
2634.69
2991.3
3401.5
3873.81
4418.66
5047.31
5768.12
6588.27
7538.69
8702.65
10131
22.1891
40.6682
56.9222
72.3116
87.5757
102.948
118.546
134.455
150.759
167.547
184.915
202.972
221.84
241.654
262.575
284.781
308.48
333.904
361.326
391.065
423.503
459.054
498.14
541.25
588.991
642.079
701.408
767.966
842.849
927.337
1022.91
1131.28
1254.41
1394.59
1554.44
1736.98
1945.7
2184.59
2458.26
2771.98
3131.72
3544.3
4017.58
4560.57
5182.43
5890.19
6689.66
7595.78
8639.12
9814.93
-14.7994
-10.2256
-0.162675
11.9678
24.7995
37.9489
51.3232
64.9287
78.8083
93.0232
107.647
122.763
138.468
154.873
172.105
190.315
209.671
230.361
252.607
276.66
302.83
331.504
363.143
398.221
437.243
480.839
529.738
584.776
646.922
717.297
797.205
888.148
991.865
1110.36
1245.94
1401.26
1579.36
1783.75
2018.42
2287.92
2597.37
2952.56
3360.04
3827.08
4360.92
4967.71
5652.91
6425.62
7300.61
8274.27
37.6564
59.4984
76.6167
91.8278
106.693
121.637
136.81
152.285
168.125
184.394
201.166
218.524
236.565
255.398
275.15
295.974
318.039
341.524
366.631
393.598
422.674
454.175
488.5
526.111
567.514
613.297
664.137
720.803
784.182
855.293
935.312
1025.59
1127.68
1243.37
1374.68
1523.95
1693.81
1887.25
2107.64
2358.72
2644.59
2969.74
3338.94
3757.13
4228.81
4757.19
5343.8
5990.64
6703.98
7482.44
-23.1071
-22.5425
-14.3479
-3.34005
8.61124
20.9673
33.5753
46.4088
59.4865
72.8481
86.5453
100.64
115.204
130.323
146.092
162.63
180.081
198.621
218.439
239.739
262.757
287.75
315.034
344.977
378.006
414.615
455.378
500.955
552.11
609.725
674.817
748.563
832.314
927.626
1036.28
1160.31
1302.04
1464.09
1649.39
1861.22
2103.13
2378.97
2692.74
3048.42
3449.6
3898.57
4395.53
4939.48
5532.49
6175.21
44.892
69.0171
86.3996
101.075
115.118
129.102
143.216
157.53
172.088
186.932
202.106
217.663
233.662
250.167
267.254
285.004
303.517
322.919
343.365
365.025
388.092
412.786
439.364
468.122
499.401
533.594
571.153
612.6
658.536
709.652
766.747
830.739
902.681
983.782
1075.42
1179.18
1296.84
1430.4
1582.11
1754.46
1950.11
2171.93
2422.86
2705.77
3023.23
3376.85
3766.38
4190.43
4650.6
5149.32
-27.6847
-28.9771
-21.6624
-11.2109
0.255189
12.1306
24.2395
36.5407
49.0374
61.7506
74.714
87.9686
101.566
115.564
130.027
145.028
160.644
176.97
194.117
212.212
231.403
251.859
273.775
297.379
322.936
350.748
381.165
414.591
451.49
492.4
537.936
588.808
645.83
709.936
782.191
863.805
956.148
1060.75
1179.33
1313.76
1466.04
1638.29
1832.66
2051.2
2295.75
2567.36
2865.66
3189.48
3540.25
3921.23
47.0698
71.5806
88.4756
102.299
115.307
128.126
140.948
153.835
166.81
179.885
193.073
206.392
219.863
233.517
247.389
261.518
275.95
290.741
305.955
321.668
337.964
354.944
372.724
391.44
411.249
432.335
454.91
479.22
505.552
534.236
565.658
600.262
638.563
681.151
728.71
782.02
841.971
909.571
985.952
1072.37
1170.2
1280.9
1406
1547.02
1705.4
1882.13
2077.33
2290.7
2524.08
2781.35
-28.8499
-30.8538
-24.0784
-14.1222
-3.16838
8.15504
19.6578
31.2844
43.0215
54.8693
66.8329
78.9207
91.1445
103.519
116.063
128.797
141.742
154.927
168.383
182.145
196.255
210.758
225.708
241.164
257.195
273.88
291.309
309.583
328.821
349.157
370.747
393.77
418.433
444.976
473.678
504.861
538.899
576.226
617.344
662.832
713.351
769.654
832.585
903.094
982.212
1070.91
1169.88
1279.87
1403.39
1545.02
46.0736
69.8981
85.9965
98.9807
111.086
122.923
134.668
146.365
158.015
169.611
181.139
192.587
203.941
215.189
226.316
237.306
248.145
258.812
269.289
279.552
289.579
299.34
308.805
317.939
326.705
335.059
342.954
350.336
357.148
363.323
368.792
373.476
377.294
380.158
381.978
382.662
382.124
380.291
377.109
372.566
366.704
359.659
351.704
343.31
335.208
328.427
324.327
324.889
333.579
355.67
-27.6962
-29.8255
-23.559
-14.2811
-4.0994
6.36633
16.9137
27.4679
37.9917
48.4597
58.8486
69.1353
79.2953
89.3015
99.1239
108.728
118.075
127.118
135.807
144.08
151.866
159.084
165.637
171.417
176.293
180.116
182.714
183.887
183.402
180.994
176.354
169.13
158.92
145.267
127.652
105.499
78.1643
44.9508
5.1128
-42.1215
-97.5153
-161.764
-235.402
-318.683
-411.43
-512.842
-621.2
-733.552
-845.351
-949.353
42.6603
65.1258
80.3642
92.7138
104.232
115.466
126.559
137.528
148.356
159.011
169.456
179.649
189.546
199.094
208.235
216.905
225.026
232.512
239.264
245.167
250.087
253.873
256.348
257.308
256.518
253.708
248.566
240.73
229.788
215.263
196.608
173.2
144.324
109.169
66.8185
16.2407
-43.7122
-114.303
-196.899
-292.945
-403.92
-531.26
-676.218
-839.684
-1021.96
-1222.47
-1439.17
-1667.93
-1902.21
-2132.82
-24.1414
-25.7869
-19.9125
-11.3784
-2.09147
7.36316
16.7754
26.0508
35.1293
43.9595
52.4903
60.6665
68.4272
75.7039
82.4189
88.4833
93.7954
98.238
101.676
103.955
104.895
104.29
101.9
97.4499
90.6218
81.0482
68.3048
51.9022
31.2761
5.77571
-25.3479
-62.9562
-108.038
-161.727
-225.316
-300.277
-388.275
-491.176
-611.056
-750.184
-910.997
-1096.03
-1307.78
-1548.45
-1819.68
-2122.22
-2455.13
-2814.59
-3192.7
-3575.32
35.9369
56.1789
70.3496
82.1527
93.2683
104.119
114.797
125.294
135.572
145.583
155.271
164.571
173.414
181.718
189.388
196.319
202.385
207.443
211.327
213.845
214.773
213.853
210.785
205.222
196.76
184.933
169.198
148.929
123.399
91.7647
53.054
6.14089
-50.274
-117.688
-197.823
-292.653
-404.429
-535.705
-689.353
-868.559
-1076.81
-1317.83
-1595.43
-1913.15
-2273.8
-2679.21
-3129.48
-3620.87
-4142.18
-4672.98
-17.3601
-17.2868
-11.1376
-2.9192
5.81787
14.5726
23.1489
31.4453
39.3873
46.9048
53.924
60.3634
66.1308
71.1214
75.2154
78.275
80.1423
80.6352
79.5442
76.6275
71.6065
64.1594
53.915
40.4446
23.2532
1.76909
-24.6682
-56.8215
-95.5721
-141.937
-197.093
-262.394
-339.405
-429.929
-536.04
-660.119
-804.899
-973.496
-1169.45
-1396.74
-1659.81
-1963.59
-2313.4
-2714.56
-3171.91
-3689.83
-4272.75
-4922.8
-5631.11
-6366.69
23.4587
40.9096
53.8016
65.0635
75.7757
86.2037
96.3916
106.316
115.931
125.179
133.99
142.288
149.982
156.968
163.125
168.314
172.375
175.12
176.332
175.762
173.119
168.064
160.208
149.097
134.204
114.921
90.5403
60.2402
23.0687
-22.0794
-76.4869
-141.643
-219.278
-311.399
-420.34
-548.811
-699.961
-877.45
-1085.52
-1329.07
-1613.75
-1946.12
-2333.73
-2784.81
-3307.62
-3910.57
-4604.56
-5401.3
-6294.26
-7232.83
-9.19364
-4.54821
3.39258
12.3121
21.2929
30.0637
38.5126
46.5677
54.1621
61.2226
67.6655
73.3949
78.2997
82.2523
85.1051
86.688
86.8049
85.2289
81.6986
75.9114
67.518
56.114
41.2321
22.331
-1.21552
-30.1332
-65.2627
-107.579
-158.212
-218.476
-289.893
-374.235
-473.564
-590.279
-727.178
-887.525
-1075.13
-1294.47
-1550.77
-1850.14
-2199.71
-2607.91
-3084.72
-3641.63
-4290.45
-5042.55
-5913.36
-6928.14
-8099.92
-9364.7
1.44914
20.4708
32.6938
43.5742
53.8171
63.6673
73.1675
82.2984
91.0143
99.2533
106.94
113.984
120.281
125.709
130.127
133.37
135.249
135.544
133.999
130.322
124.169
115.146
102.795
86.5859
65.9035
40.0357
8.15681
-30.6908
-77.6179
-133.914
-201.076
-280.844
-375.241
-486.625
-617.743
-771.801
-952.555
-1164.41
-1412.55
-1703.09
-2043.19
-2441.45
-2908.5
-3457.41
-4102.24
-4855.73
-5737.28
-6800.77
-8132.13
-9706.1
-1.60619
8.13582
17.9836
27.8472
37.4471
46.7173
55.6158
64.0982
72.109
79.58
86.4291
92.5597
97.8585
102.194
105.414
107.341
107.772
106.47
103.162
97.5301
89.2092
77.7749
62.7358
43.5226
19.4757
-10.1702
-46.3027
-89.9522
-142.316
-204.786
-278.982
-366.792
-470.421
-592.446
-735.889
-904.305
-1101.89
-1333.63
-1605.49
-1924.62
-2299.68
-2741.36
-3263.54
-3884.54
-4626.29
-5511.46
-6575.66
-7922.94
-9762.66
-12139.4
29239.1
21076.8
17043.8
15525.5
14691.1
14082.2
13658.6
13374.3
13174.1
13023
12903.3
12805.1
12721.8
12649.1
12583.8
12523.8
12467.5
12413.8
12361.8
12310.6
12259.5
12208
12155.4
12101.1
12044.3
11984.5
11920.8
11852.4
11778.1
11697
11607.6
11508.4
11397.7
11273.6
11133.4
10974.3
10792.8
10585
10345.9
10069.7
9749.27
9375.92
8938.99
8425
7816.45
7089.88
6212.35
5134.59
3776.21
2000.53
3704.07
8293.22
9794.93
10361.2
10795.5
11121.1
11345.5
11505.6
11624.4
11713.2
11779.3
11828
11863.3
11887.9
11903.8
11912.3
11914.6
11911.3
11903.2
11890.4
11873.3
11852
11826.4
11796.4
11761.7
11721.9
11676.6
11625.1
11566.7
11500.2
11424.4
11338.1
11239.4
11126.3
10996.6
10847.6
10676.1
10478
10248.9
9983.29
9674.48
9314.32
8892.82
8397.65
7813.37
7120.41
6293.83
5302.12
4107.74
2676.82
11033.5
13203.5
14386.6
14489.3
14332.7
14161
13974.7
13783.5
13605.1
13446
13305.2
13180.2
13068.7
12968.5
12877.5
12793.9
12716.4
12643.6
12574.4
12507.9
12443.3
12379.7
12316.4
12252.8
12187.9
12121.1
12051.6
11978.5
11900.8
11817.6
11727.5
11629
11520.4
11399.6
11264.3
11111.9
10939.2
10742.7
10517.8
10259.5
9961.61
9616.95
9216.84
8750.89
8206.7
7569.58
6822.52
5946.97
4925.71
3750.45
11382.1
11791.2
11982.7
11911
11808.8
11765.4
11753.8
11751.5
11755.8
11765.6
11778.3
11791
11802.4
11811.5
11818
11821.3
11821.5
11818.3
11811.9
11802
11788.7
11771.9
11751.3
11726.9
11698.2
11664.9
11626.5
11582.3
11531.7
11474
11408.1
11333
11247
11148.8
11036.1
10906.7
10757.8
10586.1
10387.8
10158.5
9892.96
9585.04
9227.66
8812.67
8330.85
7772.17
7126.44
6384.98
5543.92
4610.07
11921.1
12170.2
12486.9
12718.5
12858.4
12947.7
13000
13018.9
13012.5
12989.6
12955.8
12914.9
12869.3
12820.7
12770.4
12719.1
12667.3
12615.2
12562.8
12510.2
12457.2
12403.5
12349
12293.4
12236.2
12177
12115.2
12050.1
11981
11906.9
11826.9
11739.8
11644.3
11538.9
11421.8
11290.8
11143.6
10977.2
10788.4
10573.3
10327.8
10046.7
9724.54
9355.12
8931.96
8448.56
7899.29
7280.83
6594.53
5849.17
12124.9
12210.5
12318.6
12380.6
12383.3
12355.2
12316.7
12274.5
12231.3
12190
12152.1
12117.7
12086.4
12057.7
12031.1
12006
11981.8
11958.1
11934.4
11910.3
11885.4
11859.5
11832
11802.6
11771
11736.7
11699.3
11658.3
11613.1
11562.9
11506.9
11444.2
11373.7
11294.1
11203.9
11101.5
10984.7
10851.3
10698.6
10523.7
10323.2
10093.2
9829.7
9528.4
9185.07
8796
8358.72
7873.19
7343.43
6778.96
12238
12282.4
12354.1
12426.3
12481.6
12522.5
12554.1
12577.1
12591.2
12597
12595.8
12588.5
12576.1
12559.1
12538.3
12514.3
12487.4
12458
12426.5
12393.1
12357.8
12320.8
12282
12241.3
12198.6
12153.7
12106.3
12056.2
12002.8
11945.7
11884.3
11817.8
11745.4
11666.1
11578.7
11482
11374.3
11253.9
11118.8
10966.6
10795
10601.2
10382.3
10135.6
9858.33
9548.7
9205.91
8831.22
8428.77
8005.87
12296.5
12318.7
12356.5
12396.5
12424.6
12437.5
12437.6
12427.7
12409.6
12385.5
12357.4
12326.8
12294.7
12262.1
12229.5
12197
12165
12133.3
12102.1
12071.1
12040.3
12009.4
11978.3
11946.7
11914.4
11881
11846.3
11810
11771.5
11730.5
11686.4
11638.7
11586.8
11529.8
11467
11397.3
11319.7
11232.9
11135.5
11026
10902.7
10763.9
10607.8
10432.9
10237.7
10021.7
9785.18
9529.9
9259.85
8981.19
12327.9
12341.5
12366.6
12397.2
12424.7
12445
12458.2
12465.3
12467.2
12464.3
12457.5
12447.2
12434.1
12418.4
12400.6
12380.9
12359.5
12336.6
12312.2
12286.7
12259.9
12232.1
12203.1
12173.1
12142
12109.7
12076.1
12041.2
12004.7
11966.5
11926.4
11884
11838.9
11790.9
11739.4
11683.9
11623.8
11558.3
11486.8
11408.4
11322.2
11227.3
11123.1
11008.6
10883.7
10748.3
10603.2
10450.1
10291.9
10132.5
12342
12352.1
12371.3
12395.9
12418.8
12435.5
12444.7
12446.9
12442.8
12433
12418.7
12400.8
12380.1
12357.3
12333.1
12307.8
12281.9
12255.4
12228.8
12201.9
12175
12148
12121.1
12094
12066.9
12039.7
12012.4
11984.8
11957
11928.8
11900.1
11870.9
11841
11810.2
11778.6
11745.8
11711.8
11676.3
11639.2
11600.3
11559.5
11516.8
11472
11425.3
11377.1
11328
11278.8
11231
11186.7
11148.3
12343.2
12353.3
12372.6
12397.2
12420.2
12437.1
12446.5
12448.9
12445.1
12435.7
12421.8
12404.3
12384.2
12362.2
12338.8
12314.5
12289.7
12264.6
12239.5
12214.5
12189.7
12165.2
12141.1
12117.4
12094.2
12071.6
12049.5
12028.1
12007.4
11987.5
11968.5
11950.5
11933.7
11918.2
11904.3
11892.1
11882
11874.3
11869.4
11867.8
11870.1
11876.8
11888.8
11906.8
11931.8
11964.7
12006.5
12058.3
12120.9
12195
12331.4
12345.1
12370.3
12401.2
12429
12449.7
12463.5
12471.3
12474
12472.1
12466.4
12457.5
12446
12432.3
12416.7
12399.6
12381.2
12361.8
12341.7
12321.1
12300.1
12279
12257.9
12237.2
12216.9
12197.2
12178.5
12161
12144.8
12130.4
12118
12108.1
12101
12097.3
12097.5
12102.2
12112.3
12128.5
12152
12183.6
12224.8
12276.9
12341.4
12419.7
12513.3
12623.7
12751.9
12898.5
13063.2
13245.3
12302.3
12324.6
12362.6
12403
12431.7
12445.3
12446.3
12437.5
12420.8
12398.4
12372.2
12343.9
12314.7
12285.4
12256.5
12228.6
12201.8
12176.3
12152.3
12129.8
12108.9
12089.6
12071.9
12056
12042
12030.1
12020.3
12013
12008.4
12007
12009.1
12015.3
12026.2
12042.6
12065.1
12095
12133.2
12181.2
12240.5
12312.6
12399.7
12503.7
12626.8
12771.4
12939.5
13133.2
13353.8
13601.6
13875.6
14173.9
12245.9
12290.4
12362.4
12435.2
12491.3
12533.2
12566
12590.5
12606.3
12614.4
12615.8
12611.6
12602.8
12590.1
12574.4
12556.3
12536.4
12515.2
12493.3
12471
12448.7
12427
12406
12386.2
12368
12351.7
12337.9
12326.9
12319.4
12315.8
12317
12323.6
12336.6
12357
12386
12425
12475.6
12539.5
12618.8
12715.9
12833.3
12973.9
13140.7
13336.8
13565.2
13828.6
14128.8
14466.2
14839.1
15243.3
12134.6
12220.4
12328.9
12391.6
12395.2
12368.3
12331.5
12291.1
12250.3
12211.9
12177.3
12146.8
12120.2
12097
12076.9
12059.3
12043.9
12030.6
12019
12009
12000.7
11994.1
11989.3
11986.5
11985.9
11987.8
11992.7
12000.9
12013.2
12030
12052.3
12081
12117.1
12162
12217
12283.8
12364.5
12461.2
12576.6
12713.5
12875.2
13065.5
13288.2
13547.5
13847.6
14192.4
14584.9
15026.4
15515.5
16048
11932.6
12181.9
12499
12731.4
12872.4
12963.1
13017.2
13038.3
13034.6
13014.8
12984.9
12948.5
12908.3
12866.1
12823.2
12780.7
12739.1
12699
12660.7
12624.6
12590.8
12559.7
12531.5
12506.6
12485.2
12467.7
12454.8
12446.7
12444.3
12448.3
12459.6
12479.3
12508.5
12548.7
12601.6
12669.2
12753.7
12857.8
12984.4
13137.2
13319.9
13537.1
13793.7
14095.1
14446.8
14854.3
15322.5
15854.2
16448.5
17100.2
11395
11804.2
11996.2
11925.4
11824.4
11782.6
11773
11773.3
11780.6
11794.1
11811.1
11829
11846.4
11862.7
11877.4
11890.6
11902.2
11912.6
11921.8
11930.4
11938.6
11946.9
11955.8
11965.8
11977.3
11991.1
12007.9
12028.3
12053.2
12083.6
12120.7
12165.7
12220.1
12285.7
12364.2
12458.2
12570
12702.9
12860.3
13046.2
13265.3
13522.8
13824.8
14178.1
14590.1
15068.6
15621.6
16255.7
16974
17775.1
11047.4
13217.7
14401.4
14504.9
14349.6
14179.7
13995.5
13807
13632
13476.8
13340.8
13221.4
13116.6
13024.1
12942.2
12869.4
12804.4
12746.3
12694.3
12648
12606.9
12570.8
12539.8
12513.7
12492.8
12477.4
12467.8
12464.7
12468.6
12480.6
12501.5
12532.6
12575.5
12631.7
12703.4
12792.9
12903.1
13037.1
13198.8
13392.7
13623.9
13898.4
14223.2
14606.6
15057.9
15587.9
16208.6
16932.1
17768.6
18723.3
3718.66
8308.08
9810.37
10377.6
10813.3
11140.6
11367.3
11530.2
11652.4
11745.3
11816.3
11870.8
11912.9
11945.6
11970.9
11990.5
12005.8
12017.9
12027.5
12035.7
12043.1
12050.3
12058.2
12067.2
12078.2
12091.9
12109
12130.5
12157.4
12190.7
12231.8
12282.1
12343.3
12417.3
12506.3
12613.1
12740.5
12892.2
13072.1
13285.2
13537.1
13834.3
14184.8
14597.9
15085
15659.8
16339.2
17143.7
18097.1
19225.3
29254
21092
17059.5
15542.2
14709.3
14102.4
13681.1
13399.7
13203.1
13056.3
12941.7
12849.5
12773.3
12709
12653.5
12605
12562.2
12524.3
12490.8
12461.2
12435.5
12413.5
12395.5
12381.6
12372.1
12367.5
12368.3
12375.2
12389.1
12410.9
12441.8
12483.1
12536.6
12604.1
12687.8
12790.4
12914.9
13064.9
13244.7
13459.1
13714.1
14016.5
14374.8
14799.1
15302.1
15900
16614.6
17476.6
18532.9
19865.7
-20150.9
-15535.7
-13964.5
-10006.4
-8039.21
-4621.22
-2519.2
536.447
2641.92
5451.16
7482.54
10126.6
12025.8
14573.9
16281.9
18805.6
20238.2
22822.4
23823.7
26457.6
-20080.8
-15477.7
-13915.5
-9958.49
-7997.27
-4576.88
-2479.65
579.118
2681.13
5493.47
7522.31
10169.9
12067.4
14620.3
16328.1
18859.7
20296.1
22896.1
23912.2
26585.7
-20018.9
-15417.7
-13864.1
-9907.35
-7951.98
-4529.68
-2436.72
624.744
2723.63
5539.08
7565.74
10217
12113.5
14671.2
16379.9
18918.6
20359.6
22971.2
23998
26689.9
-19961.5
-15358.3
-13811.7
-9854.23
-7904.31
-4480.05
-2391.18
672.954
2768.84
5587.44
7612.08
10267.1
12162.8
14725.2
16434.8
18979.7
20424.5
23044.2
24077
26777.5
-19906.3
-15299.6
-13758.7
-9799.8
-7854.88
-4428.47
-2343.52
723.328
2816.29
5638.07
7660.73
10319.5
12214.2
14781.1
16491.3
19041.4
20488.8
23114.1
24149.7
26855.6
-19852.1
-15241.3
-13705.2
-9744.43
-7804.14
-4375.35
-2294.18
775.457
2865.54
5690.47
7711.14
10373.5
12267.2
14838
16548.4
19102.8
20551.4
23180.9
24217.5
26927.4
-19798.4
-15183.2
-13651.4
-9688.33
-7752.37
-4321.02
-2243.51
828.972
2916.19
5744.23
7762.83
10428.6
12321
14895.4
16605.6
19163.5
20612.5
23245.2
24281.7
26994.9
-19744.8
-15125.1
-13597.2
-9631.63
-7699.8
-4265.73
-2191.79
883.559
2967.92
5798.98
7815.44
10484.4
12375.4
14953
16662.5
19223.4
20671.9
23307.3
24343
27059.3
-19691.2
-15066.8
-13542.7
-9574.45
-7646.6
-4209.71
-2139.28
938.956
3020.44
5854.44
7868.66
10540.6
12429.9
15010.4
16718.9
19282.4
20729.9
23367.6
24402.2
27121.3
-19637.5
-15008.4
-13487.9
-9516.85
-7592.89
-4153.12
-2086.16
994.948
3073.52
5910.37
7922.26
10596.9
12484.5
15067.6
16774.7
19340.6
20786.7
23426.5
24459.6
27181.5
-19583.6
-14949.7
-13432.9
-9458.92
-7538.79
-4096.1
-2032.6
1051.36
3127.01
5966.6
7976.06
10653.4
12539
15124.5
16830
19397.9
20842.5
23484.1
24515.7
27240.2
-19529.6
-14890.8
-13377.6
-9400.71
-7484.39
-4038.75
-1978.71
1108.06
3180.74
6022.98
8029.94
10709.7
12593.2
15181
16884.6
19454.6
20897.4
23540.6
24570.5
27297.8
-19475.4
-14831.8
-13322.2
-9342.29
-7429.77
-3981.19
-1924.61
1164.93
3234.61
6079.41
8083.82
10765.9
12647.3
15237.1
16938.8
19510.6
20951.4
23596.3
24624.5
27354.4
-19421
-14772.6
-13266.6
-9283.71
-7375
-3923.48
-1870.38
1221.89
3288.54
6135.82
8137.61
10821.9
12701
15292.8
16992.4
19565.9
21004.8
23651.2
24677.6
27410.1
-19366.6
-14713.3
-13210.9
-9225.02
-7320.14
-3865.69
-1816.08
1278.87
3342.47
6192.14
8191.28
10877.7
12754.5
15348.1
17045.6
19620.8
21057.6
23705.4
24730
27465.2
-19312.1
-14653.9
-13155.2
-9166.27
-7265.23
-3807.87
-1761.77
1335.81
3396.34
6248.33
8244.78
10933.3
12807.7
15403
17098.4
19675.1
21109.8
23759.1
24781.8
27519.6
-19257.6
-14594.4
-13099.4
-9107.5
-7210.33
-3750.07
-1707.49
1392.67
3450.11
6304.35
8298.11
10988.5
12860.6
15457.6
17150.7
19729
21161.5
23812.2
24833
27573.5
-19203
-14535
-13043.7
-9048.75
-7155.46
-3692.33
-1653.28
1449.41
3503.76
6360.18
8351.23
11043.5
12913.1
15511.8
17202.7
19782.4
21212.7
23864.8
24883.7
27626.9
-19148.5
-14475.5
-12988
-8990.05
-7100.66
-3634.68
-1599.18
1506.01
3557.26
6415.81
8404.13
11098.3
12965.4
15565.7
17254.3
19835.5
21263.6
23917
24934
27679.9
-19094.1
-14416.1
-12932.4
-8931.42
-7045.95
-3577.15
-1545.19
1562.45
3610.59
6471.21
8456.82
11152.7
13017.5
15619.3
17305.5
19888.2
21314
23968.8
24983.9
27732.4
-19039.8
-14356.8
-12877
-8872.9
-6991.37
-3519.75
-1491.36
1618.69
3663.75
6526.37
8509.28
11206.9
13069.2
15672.5
17356.5
19940.5
21364.1
24020.3
25033.4
27784.6
-18985.6
-14297.6
-12821.6
-8814.51
-6936.92
-3462.52
-1437.68
1674.74
3716.71
6581.3
8561.51
11260.7
13120.6
15725.4
17407.1
19992.5
21413.9
24071.3
25082.5
27836.4
-18931.5
-14238.5
-12766.4
-8756.27
-6882.64
-3405.47
-1384.18
1730.57
3769.47
6635.97
8613.51
11314.3
13171.8
15778
17457.4
20044.1
21463.3
24122.1
25131.3
27887.9
-18877.6
-14179.6
-12711.4
-8698.18
-6828.53
-3348.61
-1330.86
1786.18
3822.02
6690.38
8665.27
11367.6
13222.8
15830.2
17507.4
20095.4
21512.4
24172.5
25179.7
27939.1
-18823.9
-14120.8
-12656.5
-8640.28
-6774.6
-3291.95
-1277.75
1841.55
3874.36
6744.54
8716.8
11420.7
13273.4
15882.2
17557.2
20146.5
21561.2
24222.6
25227.8
27990
-18770.4
-14062.2
-12601.9
-8582.57
-6720.87
-3235.51
-1224.83
1896.69
3926.48
6798.43
8768.1
11473.4
13323.9
15933.9
17606.7
20197.2
21609.7
24272.4
25275.7
28040.6
-18717
-14003.8
-12547.4
-8525.06
-6667.35
-3179.3
-1172.13
1951.57
3978.38
6852.05
8819.15
11525.9
13374
15985.3
17655.9
20247.6
21657.9
24322
25323.2
28090.9
-18663.9
-13945.5
-12493.2
-8467.77
-6614.04
-3123.32
-1119.65
2006.2
4030.06
6905.4
8869.97
11578
13423.9
16036.4
17704.8
20297.8
21705.9
24371.2
25370.4
28140.9
-18611
-13887.5
-12439.2
-8410.69
-6560.96
-3067.58
-1067.39
2060.57
4081.5
6958.48
8920.56
11629.9
13473.6
16087.2
17753.5
20347.6
21753.6
24420.2
25417.4
28190.7
-18558.3
-13829.7
-12385.4
-8353.85
-6508.1
-3012.09
-1015.35
2114.68
4132.72
7011.28
8970.91
11681.5
13523
16137.8
17801.9
20397.2
21801
24468.9
25464.1
28240.2
-18505.9
-13772.1
-12331.9
-8297.25
-6455.48
-2956.85
-963.553
2168.52
4183.71
7063.8
9021.01
11732.8
13572.2
16188
17850.1
20446.5
21848.1
24517.3
25510.5
28289.4
-18453.8
-13714.8
-12278.6
-8240.89
-6403.1
-2901.88
-911.986
2222.09
4234.46
7116.04
9070.89
11783.9
13621.1
16238
17898
20495.5
21895
24565.4
25556.6
28338.4
-18401.8
-13657.6
-12225.6
-8184.78
-6350.97
-2847.16
-860.655
2275.38
4284.97
7167.99
9120.52
11834.6
13669.8
16287.7
17945.6
20544.2
21941.6
24613.3
25602.5
28387.1
-18350.2
-13600.8
-12172.8
-8128.92
-6299.07
-2792.71
-809.565
2328.39
4335.25
7219.66
9169.92
11885.1
13718.2
16337.1
17993
20592.7
21988
24660.9
25648.1
28435.6
-18298.8
-13544.1
-12120.3
-8073.33
-6247.43
-2738.54
-758.717
2381.12
4385.29
7271.04
9219.07
11935.2
13766.4
16386.2
18040.2
20640.9
22034.1
24708.3
25693.5
28483.8
-18247.7
-13487.7
-12068
-8018
-6196.04
-2684.64
-708.113
2433.56
4435.09
7322.14
9267.99
11985.1
13814.4
16435
18087.1
20688.8
22079.9
24755.4
25738.5
28531.7
-18196.8
-13431.6
-12016.1
-7962.93
-6144.91
-2631.02
-657.754
2485.72
4484.65
7372.93
9316.67
12034.7
13862.1
16483.6
18133.8
20736.4
22125.5
24802.2
25783.3
28579.4
-18146.2
-13375.7
-11964.4
-7908.13
-6094.04
-2577.68
-607.642
2537.59
4533.97
7423.44
9365.11
12084
13909.6
16531.8
18180.2
20783.8
22170.8
24848.8
25827.9
28626.9
-18096
-13320.1
-11912.9
-7853.61
-6043.42
-2524.63
-557.778
2589.16
4583.05
7473.64
9413.31
12133
13956.8
16579.8
18226.3
20830.9
22215.9
24895.1
25872.2
28674.1
-18045.9
-13264.8
-11861.8
-7799.37
-5993.07
-2471.86
-508.164
2640.44
4631.89
7523.55
9461.27
12181.7
14003.8
16627.5
18272.3
20877.7
22260.7
24941.1
25916.2
28721.1
-17996.2
-13209.7
-11810.9
-7745.4
-5942.98
-2419.38
-458.801
2691.42
4680.48
7573.16
9508.99
12230.1
14050.5
16674.9
18317.9
20924.2
22305.3
24986.9
25959.9
28767.8
-17946.8
-13154.9
-11760.3
-7691.71
-5893.15
-2367.2
-409.689
2742.1
4728.83
7622.47
9556.48
12278.2
14097
16722
18363.4
20970.4
22349.6
25032.4
26003.4
28814.2
-17897.6
-13100.4
-11710
-7638.31
-5843.59
-2315.31
-360.829
2792.47
4776.94
7671.47
9603.72
12326
14143.3
16768.8
18408.5
21016.4
22393.7
25077.7
26046.6
28860.5
-17848.7
-13046.1
-11659.9
-7585.2
-5794.29
-2263.72
-312.222
2842.54
4824.8
7720.16
9650.71
12373.5
14189.3
16815.3
18453.5
21062.1
22437.5
25122.7
26089.6
28906.4
-17800.2
-12992.1
-11610.2
-7532.37
-5745.26
-2212.43
-263.869
2892.31
4872.42
7768.55
9697.47
12420.7
14235.1
16861.5
18498.1
21107.5
22481
25167.4
26132.3
28952.1
-17751.9
-12938.4
-11560.7
-7479.84
-5696.5
-2161.45
-215.769
2941.76
4919.79
7816.62
9743.99
12467.6
14280.6
16907.5
18542.6
21152.7
22524.3
25211.8
26174.7
28997.6
-17703.9
-12884.9
-11511.6
-7427.6
-5648.01
-2110.76
-167.924
2990.9
4966.92
7864.38
9790.26
12514.2
14325.9
16953.1
18586.7
21197.5
22567.4
25256
26216.9
29042.8
-17656.2
-12831.8
-11462.7
-7375.65
-5599.79
-2060.39
-120.334
3039.73
5013.8
7911.83
9836.3
12560.5
14371
16998.4
18630.7
21242.1
22610.2
25300
26258.8
29087.7
-17608.8
-12778.9
-11414.1
-7324
-5551.84
-2010.32
-72.9989
3088.25
5060.44
7958.96
9882.09
12606.5
14415.8
17043.5
18674.4
21286.4
22652.7
25343.6
26300.4
29132.4
-17561.7
-12726.3
-11365.8
-7272.65
-5504.16
-1960.56
-25.9191
3136.44
5106.83
8005.77
9927.64
12652.1
14460.3
17088.2
18717.8
21330.4
22694.9
25387
26341.7
29176.8
-17514.9
-12674
-11317.7
-7221.6
-5456.75
-1911.12
20.9052
3184.32
5152.98
8052.27
9972.95
12697.5
14504.6
17132.6
18761
21374.1
22736.9
25430.1
26382.8
29221
-17468.4
-12622
-11270
-7170.85
-5409.61
-1861.99
67.4738
3231.87
5198.88
8098.44
10018
12742.5
14548.7
17176.8
18803.9
21417.5
22778.7
25473
26423.6
29264.9
-17422.2
-12570.3
-11222.6
-7120.41
-5362.74
-1813.18
113.787
3279.1
5244.53
8144.28
10062.8
12787.2
14592.5
17220.6
18846.6
21460.6
22820.2
25515.6
26464.2
29308.6
-17376.3
-12518.8
-11175.4
-7070.27
-5316.15
-1764.69
159.844
3326.01
5289.94
8189.8
10107.4
12831.6
14636.1
17264.1
18889
21503.5
22861.4
25557.9
26504.5
29352
-17330.7
-12467.7
-11128.6
-7020.44
-5269.83
-1716.52
205.645
3372.58
5335.1
8234.99
10151.8
12875.7
14679.5
17307.3
18931.2
21546.1
22902.4
25599.9
26544.5
29395.1
-17285.4
-12416.8
-11082
-6970.92
-5223.78
-1668.67
251.191
3418.83
5380.02
8279.86
10195.9
12919.4
14722.5
17350.2
18973.1
21588.3
22943.1
25641.7
26584.2
29438
-17240.4
-12366.3
-11035.8
-6921.71
-5178
-1621.14
296.481
3464.74
5424.69
8324.39
10239.7
12962.8
14765.4
17392.8
19014.8
21630.3
22983.5
25683.2
26623.6
29480.6
-17195.7
-12316
-10989.8
-6872.81
-5132.5
-1573.95
341.516
3510.32
5469.12
8368.58
10283.3
13005.9
14808
17435.1
19056.2
21672
23023.7
25724.4
26662.8
29523
-17151.4
-12266
-10944.1
-6824.23
-5087.27
-1527.08
386.295
3555.56
5513.3
8412.45
10326.7
13048.7
14850.4
17477.1
19097.4
21713.3
23063.6
25765.3
26701.7
29565.1
-17107.3
-12216.3
-10898.8
-6775.97
-5042.31
-1480.54
430.82
3600.47
5557.24
8455.97
10369.8
13091.1
14892.5
17518.7
19138.3
21754.4
23103.3
25806
26740.4
29607
-17063.5
-12166.9
-10853.7
-6728.02
-4997.62
-1434.33
475.091
3645.03
5600.94
8499.16
10412.7
13133.3
14934.3
17560
19179
21795.2
23142.6
25846.4
26778.7
29648.5
-17020
-12117.9
-10808.9
-6680.39
-4953.2
-1388.46
519.107
3689.26
5644.39
8542
10455.4
13175
14976
17601.1
19219.4
21835.7
23181.8
25886.5
26816.8
29689.8
-16976.9
-12069.1
-10764.4
-6633.08
-4909.06
-1342.93
562.869
3733.14
5687.59
8584.5
10497.8
13216.5
15017.3
17641.8
19259.5
21875.9
23220.6
25926.3
26854.6
29730.9
-16934
-12020.6
-10720.2
-6586.1
-4865.19
-1297.74
606.379
3776.67
5730.56
8626.66
10540
13257.6
15058.5
17682.2
19299.4
21915.8
23259.2
25965.8
26892.1
29771.7
-16891.5
-11972.4
-10676.3
-6539.44
-4821.58
-1252.88
649.635
3819.85
5773.28
8668.47
10581.9
13298.4
15099.4
17722.2
19339.1
21955.4
23297.6
26005.1
26929.3
29812.2
-16849.3
-11924.6
-10632.7
-6493.11
-4778.25
-1208.37
692.64
3862.69
5815.76
8709.93
10623.6
13338.8
15140
17762
19378.5
21994.7
23335.6
26044.1
26966.3
29852.4
-16807.3
-11877
-10589.4
-6447.1
-4735.19
-1164.2
735.393
3905.17
5858
8751.05
10665
13378.9
15180.4
17801.4
19417.6
22033.6
23373.4
26082.8
27003
29892.4
-16765.7
-11829.7
-10546.4
-6401.42
-4692.4
-1120.38
777.895
3947.3
5899.99
8791.81
10706.2
13418.7
15220.6
17840.5
19456.5
22072.3
23410.9
26121.2
27039.4
29932.1
-16724.4
-11782.8
-10503.7
-6356.08
-4649.88
-1076.91
820.147
3989.07
5941.75
8832.22
10747.2
13458.1
15260.5
17879.2
19495.1
22110.7
23448.2
26159.3
27075.5
29971.5
-16683.4
-11736.1
-10461.3
-6311.07
-4607.63
-1033.79
862.15
4030.49
5983.27
8872.27
10787.9
13497.1
15300.1
17917.7
19533.5
22148.8
23485.2
26197.2
27111.3
30010.7
-16642.7
-11689.8
-10419.1
-6266.4
-4565.64
-991.026
903.904
4071.54
6024.54
8911.96
10828.4
13535.9
15339.6
17955.8
19571.6
22186.5
23521.9
26234.7
27146.9
30049.6
-16602.3
-11643.8
-10377.3
-6222.06
-4523.92
-948.613
945.411
4112.23
6065.58
8951.3
10868.7
13574.2
15378.7
17993.6
19609.5
22224
23558.4
26272
27182.2
30088.2
-16562.2
-11598
-10335.8
-6178.06
-4482.47
-906.558
986.671
4152.56
6106.39
8990.28
10908.7
13612.3
15417.7
18031
19647.1
22261.1
23594.6
26309
27217.2
30126.6
-16522.4
-11552.6
-10294.5
-6134.4
-4441.28
-864.863
1027.69
4192.52
6146.95
9028.89
10948.5
13650
15456.4
18068.2
19684.4
22298
23630.5
26345.7
27251.9
30164.7
-16483
-11507.5
-10253.6
-6091.08
-4400.35
-823.529
1068.46
4232.11
6187.28
9067.14
10988
13687.3
15494.8
18105
19721.5
22334.5
23666.2
26382.1
27286.3
30202.5
-16443.8
-11462.8
-10212.9
-6048.11
-4359.69
-782.558
1108.98
4271.34
6227.37
9105.02
11027.4
13724.3
15533
18141.4
19758.4
22370.7
23701.6
26418.3
27320.4
30240
-16404.9
-11418.3
-10172.6
-6005.48
-4319.29
-741.953
1149.27
4310.19
6267.23
9142.54
11066.4
13760.9
15571
18177.5
19795
22406.6
23736.7
26454.1
27354.3
30277.3
-16366.4
-11374.2
-10132.5
-5963.2
-4279.15
-701.716
1189.31
4348.66
6306.86
9179.69
11105.3
13797.2
15608.7
18213.3
19831.3
22442.2
23771.5
26489.6
27387.8
30314.3
-16328.2
-11330.3
-10092.7
-5921.28
-4239.27
-661.85
1229.12
4386.76
6346.26
9216.47
11143.9
13833.1
15646.2
18248.8
19867.4
22477.5
23806.1
26524.9
27421.1
30351
-16290.2
-11286.8
-10053.2
-5879.7
-4199.64
-622.356
1268.68
4424.48
6385.42
9252.87
11182.2
13868.6
15683.4
18283.9
19903.2
22512.4
23840.4
26559.9
27454.1
30387.5
-16252.6
-11243.6
-10014
-5838.48
-4160.27
-583.237
1308.01
4461.82
6424.36
9288.91
11220.4
13903.8
15720.4
18318.7
19938.8
22547.1
23874.5
26594.5
27486.8
30423.6
-16215.3
-11200.8
-9975.08
-5797.61
-4121.16
-544.496
1347.1
4498.78
6463.06
9324.56
11258.3
13938.7
15757.1
18353.1
19974.1
22581.4
23908.3
26628.9
27519.2
30459.5
-16178.3