/*--------------------------------*- C++ -*----------------------------------*\
  =========                 |
  \\      /  F ield         | OpenFOAM: The Open Source CFD Toolbox
   \\    /   O peration     | Website:  https://openfoam.org
    \\  /    A nd           | Version:  8
     \\/     M anipulation  |
\*---------------------------------------------------------------------------*/
FoamFile
{
    version     2.0;
    format      ascii;
    class       surfaceScalarField;
    location    "500";
    object      phi;
}
// * * * * * * * * * * * * * * * * * * * * * * * * * * * * * * * * * * * * * //

dimensions      [1 0 -1 0 0 0 0];

internalField   nonuniform List<scalar> 
16360
(
-1.36737
0.000232859
-1.36763
0.00026233
-1.3679
0.000273235
-1.36818
0.00027733
-1.36846
0.000278452
-1.36874
0.000277985
-1.36901
0.000276475
-1.36929
0.000274149
-1.36956
0.000271091
-1.36983
0.000267313
-1.37009
0.000262782
-1.37035
0.000257433
-1.3706
0.000251175
-1.37084
0.00024389
-1.37108
0.000235432
-1.3713
0.000225631
-1.37152
0.000214286
-1.37172
0.000201158
-1.3719
0.000185964
-1.37207
0.000168363
-1.37222
0.000147958
-1.37234
0.000124315
-1.37244
9.69353e-05
-1.37251
6.51351e-05
-1.37253
2.79942e-05
-1.37252
-1.61675e-05
-1.37245
-6.94488e-05
-1.37232
-0.000132869
-1.37211
-0.000206937
-1.37182
-0.000292962
-1.37142
-0.000392676
-1.37091
-0.000508185
-1.37027
-0.000641985
-1.36948
-0.000797008
-1.3685
-0.000976702
-1.36731
-0.00118514
-1.36589
-0.00142715
-1.36418
-0.0017085
-1.36214
-0.00203619
-1.35972
-0.00241878
-1.35686
-0.002867
-1.35346
-0.0033945
-1.34944
-0.00401887
-1.34468
-0.00476381
-1.33901
-0.00566425
-1.33224
-0.00677415
-1.32408
-0.00816507
-1.31417
-0.00990333
-1.30207
-0.0120983
-0.0153431
-1.28673
-1.56512
0.000504024
-1.56537
0.000503159
-1.56559
0.000502875
-1.56582
0.000504662
-1.56605
0.000504965
-1.56627
0.000503549
-1.5665
0.000500563
-1.56672
0.000496164
-1.56694
0.000490422
-1.56716
0.000483326
-1.56737
0.000474804
-1.56757
0.000464725
-1.56778
0.00045291
-1.56797
0.000439131
-1.56816
0.000423109
-1.56834
0.000404512
-1.56851
0.000382952
-1.56866
0.000357974
-1.56881
0.000329032
-1.56893
0.00029547
-1.56904
0.000256503
-1.56913
0.000211323
-1.56919
0.000159123
-1.56923
9.85898e-05
-1.56923
2.81524e-05
-1.56919
-5.40324e-05
-1.56911
-0.000149666
-1.56898
-0.000260556
-1.5688
-0.000389135
-1.56855
-0.000538099
-1.56823
-0.000710583
-1.56783
-0.000910244
-1.56733
-0.00114135
-1.56672
-0.00140886
-1.56598
-0.00171859
-1.56509
-0.00207733
-1.56402
-0.00249305
-1.56275
-0.00297519
-1.56126
-0.00353495
-1.55949
-0.00418588
-1.55741
-0.00494447
-1.55497
-0.00583111
-1.55212
-0.00687132
-1.54879
-0.00809834
-1.54489
-0.00955859
-1.54035
-0.0113177
-1.53506
-0.0134578
-1.52888
-0.0160767
-1.52161
-0.0193708
-0.0237997
-1.51315
-1.60411
0.000329323
-1.60399
0.000391448
-1.60391
0.000415004
-1.60382
0.000422361
-1.60374
0.000423194
-1.60366
0.00042056
-1.60357
0.000415548
-1.60349
0.000408548
-1.6034
0.000399668
-1.6033
0.000388873
-1.6032
0.000376034
-1.6031
0.000360953
-1.60299
0.000343363
-1.60287
0.000322931
-1.60275
0.000299248
-1.60262
0.000271833
-1.60247
0.000240129
-1.60232
0.000203491
-1.60215
0.000161122
-1.60197
0.000112104
-1.60177
5.52646e-05
-1.60154
-1.0663e-05
-1.6013
-8.75442e-05
-1.60102
-0.000177102
-1.60071
-0.000280965
-1.60037
-0.000401121
-1.59998
-0.000540099
-1.59953
-0.000700949
-1.59904
-0.000887144
-1.59847
-0.00110263
-1.59783
-0.00135198
-1.5971
-0.00164049
-1.59627
-0.00197431
-1.59532
-0.00236061
-1.59423
-0.00280771
-1.59298
-0.00332535
-1.59155
-0.00392491
-1.5899
-0.00461975
-1.58801
-0.00542567
-1.58584
-0.00636143
-1.58333
-0.00744957
-1.58044
-0.00871725
-1.57712
-0.0101976
-1.57328
-0.0119323
-1.56887
-0.0139753
-1.56379
-0.0163959
-1.55797
-0.0192759
-1.55133
-0.0227147
-1.54382
-0.026888
-0.0321502
-1.53547
-1.64899
0.00048581
-1.64902
0.000421574
-1.64901
0.000399638
-1.64898
0.000392943
-1.64894
0.000388877
-1.64891
0.000384058
-1.64887
0.000377516
-1.64883
0.00036896
-1.64879
0.000358247
-1.64874
0.000345225
-1.6487
0.000329684
-1.64865
0.000311351
-1.6486
0.000289876
-1.64854
0.00026483
-1.64847
0.000235691
-1.6484
0.000201836
-1.64833
0.000162558
-1.64824
0.000117089
-1.64814
6.43831e-05
-1.64803
3.30485e-06
-1.64791
-6.73134e-05
-1.64777
-0.000148969
-1.64762
-0.000243418
-1.64744
-0.00035258
-1.64724
-0.000478946
-1.64702
-0.000625195
-1.64677
-0.000794462
-1.64648
-0.00099042
-1.64615
-0.00121729
-1.64577
-0.0014799
-1.64534
-0.00178387
-1.64484
-0.00213565
-1.64427
-0.00254274
-1.64362
-0.00301385
-1.64287
-0.00355906
-1.642
-0.00419009
-1.64101
-0.00492062
-1.63986
-0.00576657
-1.63854
-0.00674663
-1.63702
-0.00788275
-1.63527
-0.00920093
-1.63325
-0.010732
-1.63094
-0.0125127
-1.62828
-0.0145881
-1.62524
-0.0170134
-1.62178
-0.0198557
-1.61787
-0.0231916
-1.61347
-0.0271138
-1.6086
-0.0317605
-0.0373271
-1.60342
-1.63394
0.000157821
-1.63376
0.00024077
-1.63363
0.000269619
-1.63351
0.00027622
-1.6334
0.000274905
-1.63328
0.000269652
-1.63317
0.000261635
-1.63305
0.000251136
-1.63293
0.000238127
-1.63281
0.000222441
-1.63268
0.000203822
-1.63255
0.000181931
-1.63242
0.00015635
-1.63228
0.000126562
-1.63214
9.19509e-05
-1.63199
5.17649e-05
-1.63183
5.17587e-06
-1.63166
-4.89074e-05
-1.63149
-0.000111661
-1.6313
-0.000184336
-1.6311
-0.000268469
-1.63088
-0.000365996
-1.63065
-0.000478905
-1.63039
-0.000609558
-1.63011
-0.000760752
-1.6298
-0.000935698
-1.62945
-0.00113812
-1.62907
-0.00137234
-1.62865
-0.00164334
-1.62817
-0.00195687
-1.62763
-0.00231959
-1.62703
-0.00273916
-1.62635
-0.00322445
-1.62558
-0.00378575
-1.6247
-0.00443492
-1.6237
-0.00518573
-1.62257
-0.00605409
-1.62128
-0.00705849
-1.6198
-0.00822035
-1.61812
-0.00956463
-1.6162
-0.0111204
-1.61401
-0.0129215
-1.61152
-0.0150076
-1.60868
-0.0174256
-1.60546
-0.0202309
-1.60183
-0.0234877
-1.59775
-0.0272689
-1.59321
-0.0316585
-1.58821
-0.0367611
-0.0427093
-1.58283
-1.6489
0.000369422
-1.64893
0.000273513
-1.6489
0.000238365
-1.64885
0.000225399
-1.64879
0.00021738
-1.64873
0.000209332
-1.64867
0.000199628
-1.64861
0.000187655
-1.64854
0.000173068
-1.64847
0.000155562
-1.64841
0.000134797
-1.64833
0.000110366
-1.64826
8.17908e-05
-1.64818
4.84576e-05
-1.6481
9.66893e-06
-1.64801
-3.53455e-05
-1.64792
-8.753e-05
-1.64782
-0.00014802
-1.64771
-0.000218038
-1.6476
-0.000299131
-1.64747
-0.00039306
-1.64734
-0.000501865
-1.64719
-0.000627857
-1.64703
-0.000773724
-1.64684
-0.000942591
-1.64664
-0.00113807
-1.64642
-0.00136433
-1.64616
-0.00162621
-1.64588
-0.00192929
-1.64555
-0.00228001
-1.64519
-0.00268581
-1.64477
-0.00315528
-1.6443
-0.00369832
-1.64376
-0.0043264
-1.64314
-0.00505272
-1.64243
-0.00589252
-1.64162
-0.00686338
-1.64069
-0.00798556
-1.63963
-0.00928238
-1.63842
-0.0107807
-1.63703
-0.0125114
-1.63544
-0.0145097
-1.63363
-0.0168163
-1.63158
-0.0194775
-1.62926
-0.022546
-1.62667
-0.0260804
-1.62379
-0.0301449
-1.62064
-0.0348087
-1.61725
-0.0401484
-0.0462467
-1.61372
-1.64023
-1.33999e-05
-1.64005
8.53677e-05
-1.63992
0.000117842
-1.63982
0.00012374
-1.63973
0.000120552
-1.63963
0.000113056
-1.63953
0.000102571
-1.63943
8.93337e-05
-1.63933
7.32223e-05
-1.63923
5.39598e-05
-1.63913
3.1192e-05
-1.63902
4.46552e-06
-1.63891
-2.67938e-05
-1.6388
-6.32387e-05
-1.63869
-0.000105612
-1.63857
-0.000154803
-1.63844
-0.00021191
-1.63831
-0.000278143
-1.63818
-0.000354886
-1.63803
-0.000443791
-1.63788
-0.000546776
-1.63771
-0.000666051
-1.63754
-0.000804162
-1.63735
-0.000964056
-1.63714
-0.00114915
-1.63692
-0.00136339
-1.63667
-0.00161136
-1.6364
-0.00189833
-1.6361
-0.0022304
-1.63576
-0.00261464
-1.63539
-0.00305917
-1.63497
-0.00357338
-1.6345
-0.00416812
-1.63397
-0.00485587
-1.63337
-0.00565104
-1.63269
-0.0065702
-1.63193
-0.0076324
-1.63105
-0.00885951
-1.63006
-0.0102766
-1.62893
-0.0119123
-1.62764
-0.0137993
-1.62617
-0.0159745
-1.62451
-0.0184796
-1.62263
-0.0213613
-1.6205
-0.0246712
-1.61812
-0.0284652
-1.61546
-0.0328024
-1.61252
-0.0377424
-1.60933
-0.0433439
-0.0496661
-1.60591
-1.64627
0.000233359
-1.64631
0.000124852
-1.64628
8.4072e-05
-1.64622
6.79204e-05
-1.64616
5.7409e-05
-1.64609
4.70302e-05
-1.64602
3.49452e-05
-1.64595
2.04213e-05
-1.64588
3.02307e-06
-1.64581
-1.76302e-05
-1.64574
-4.19666e-05
-1.64566
-7.04992e-05
-1.64559
-0.000103823
-1.64551
-0.000142606
-1.64543
-0.000187673
-1.64534
-0.000239987
-1.64525
-0.000300671
-1.64516
-0.000371016
-1.64506
-0.000452519
-1.64496
-0.000546929
-1.64485
-0.000656272
-1.64473
-0.000782891
-1.64461
-0.000929494
-1.64447
-0.00109921
-1.64433
-0.00129567
-1.64417
-0.00152306
-1.64399
-0.00178623
-1.6438
-0.00209078
-1.64359
-0.00244318
-1.64335
-0.0028509
-1.64309
-0.00332257
-1.64279
-0.00386813
-1.64246
-0.00449907
-1.64209
-0.00522859
-1.64167
-0.00607191
-1.64119
-0.0070465
-1.64065
-0.00817241
-1.64004
-0.00947257
-1.63934
-0.0109731
-1.63855
-0.0127039
-1.63765
-0.0146984
-1.63663
-0.0169944
-1.63548
-0.019634
-1.63417
-0.0226634
-1.63271
-0.0261328
-1.63108
-0.0300955
-1.62928
-0.0346059
-1.6273
-0.0397162
-1.62517
-0.0454742
-0.0519252
-1.62292
-1.64249
-0.000163811
-1.64231
-5.95587e-05
-1.64219
-2.61333e-05
-1.64211
-2.09626e-05
-1.64202
-2.54342e-05
-1.64194
-3.44257e-05
-1.64186
-4.65254e-05
-1.64178
-6.1497e-05
-1.6417
-7.94967e-05
-1.64161
-0.000100846
-1.64153
-0.000125985
-1.64144
-0.000155432
-1.64136
-0.000189801
-1.64127
-0.000229811
-1.64118
-0.000276318
-1.64109
-0.00033032
-1.641
-0.000392978
-1.6409
-0.000465637
-1.64081
-0.000549856
-1.64071
-0.000647447
-1.6406
-0.000760511
-1.64049
-0.000891479
-1.64038
-0.00104316
-1.64026
-0.00121881
-1.64013
-0.0014222
-1.64
-0.00165768
-1.63986
-0.00193028
-1.6397
-0.00224583
-1.63953
-0.00261106
-1.63935
-0.00303373
-1.63915
-0.00352281
-1.63893
-0.00408867
-1.63868
-0.00474322
-1.63841
-0.00550022
-1.63811
-0.00637549
-1.63777
-0.00738719
-1.63739
-0.00855614
-1.63695
-0.00990613
-1.63646
-0.0114643
-1.6359
-0.0132613
-1.63527
-0.0153318
-1.63455
-0.0177145
-1.63373
-0.0204522
-1.6328
-0.0235916
-1.63175
-0.0271829
-1.63057
-0.0312786
-1.62924
-0.0359312
-1.62777
-0.0411901
-1.62615
-0.047098
-0.0536936
-1.62438
-1.64371
9.10474e-05
-1.64375
-1.87966e-05
-1.64372
-6.06507e-05
-1.64366
-7.7979e-05
-1.6436
-8.97261e-05
-1.64353
-0.000101368
-1.64346
-0.00011473
-1.64339
-0.000130555
-1.64332
-0.000149299
-1.64325
-0.000171389
-1.64318
-0.000197292
-1.64311
-0.000227551
-1.64304
-0.0002628
-1.64296
-0.000303779
-1.64289
-0.000351358
-1.64281
-0.000406553
-1.64273
-0.000470543
-1.64265
-0.000544696
-1.64257
-0.000630598
-1.64249
-0.000730089
-1.64241
-0.0008453
-1.64232
-0.000978697
-1.64223
-0.00113314
-1.64213
-0.00131192
-1.64204
-0.00151886
-1.64194
-0.00175838
-1.64183
-0.0020356
-1.64172
-0.00235642
-1.6416
-0.00272767
-1.64148
-0.00315725
-1.64135
-0.00365427
-1.64121
-0.00422926
-1.64106
-0.00489435
-1.64089
-0.00566355
-1.64072
-0.00655296
-1.64052
-0.00758111
-1.64031
-0.00876924
-1.64007
-0.0101417
-1.63981
-0.0117261
-1.63952
-0.0135539
-1.63919
-0.0156606
-1.63882
-0.0180859
-1.6384
-0.0208737
-1.63792
-0.0240718
-1.63737
-0.0277317
-1.63674
-0.031907
-1.63602
-0.0366516
-1.6352
-0.0420159
-1.63425
-0.0480432
-0.0547693
-1.63317
-1.64371
-0.000294187
-1.64353
-0.000191983
-1.64344
-0.000159889
-1.64336
-0.000155681
-1.64329
-0.000160987
-1.64322
-0.000170719
-1.64315
-0.000183468
-1.64308
-0.000199002
-1.64301
-0.000217488
-1.64294
-0.000239264
-1.64288
-0.000264773
-1.64281
-0.000294549
-1.64274
-0.000329223
-1.64268
-0.000369536
-1.64261
-0.000416351
-1.64255
-0.000470674
-1.64248
-0.000533674
-1.64242
-0.000606708
-1.64236
-0.000691348
-1.6423
-0.000789418
-1.64224
-0.000903029
-1.64219
-0.00103463
-1.64214
-0.00118704
-1.64208
-0.00136355
-1.64203
-0.00156794
-1.64199
-0.0018046
-1.64195
-0.00207861
-1.64191
-0.00239584
-1.64187
-0.00276307
-1.64184
-0.00318816
-1.64181
-0.00368018
-1.64179
-0.00424962
-1.64178
-0.00490858
-1.64177
-0.00567103
-1.64177
-0.00655307
-1.64178
-0.00757324
-1.6418
-0.00875285
-1.64182
-0.0101163
-1.64186
-0.0116915
-1.6419
-0.0135103
-1.64195
-0.0156086
-1.64201
-0.0180268
-1.64207
-0.0208099
-1.64214
-0.0240073
-1.6422
-0.0276723
-1.64224
-0.031861
-1.64226
-0.0366305
-1.64225
-0.0420349
-1.64217
-0.0481212
-0.0549305
-1.64201
-1.6406
-5.15214e-05
-1.64064
-0.000155795
-1.6406
-0.000195992
-1.64054
-0.00021324
-1.64048
-0.000225266
-1.64041
-0.000237168
-1.64034
-0.000250641
-1.64028
-0.000266383
-1.64021
-0.000284841
-1.64014
-0.000306434
-1.64008
-0.000331629
-1.64001
-0.000360959
-1.63994
-0.000395049
-1.63988
-0.000434626
-1.63981
-0.000480537
-1.63975
-0.000533763
-1.63969
-0.000595448
-1.63963
-0.000666913
-1.63957
-0.000749693
-1.63951
-0.000845565
-1.63946
-0.000956586
-1.63941
-0.00108514
-1.63936
-0.00123399
-1.63932
-0.00140632
-1.63928
-0.00160583
-1.63925
-0.0018368
-1.63922
-0.00210417
-1.63921
-0.00241369
-1.6392
-0.00277197
-1.6392
-0.00318669
-1.63921
-0.00366674
-1.63924
-0.00422236
-1.63928
-0.00486545
-1.63934
-0.00560973
-1.63943
-0.00647108
-1.63953
-0.00746779
-1.63966
-0.00862102
-1.63983
-0.00995507
-1.64002
-0.0114979
-1.64025
-0.0132816
-1.64051
-0.0153428
-1.64082
-0.0177229
-1.64116
-0.0204688
-1.64153
-0.0236329
-1.64193
-0.0272723
-1.64234
-0.031449
-1.64275
-0.0362276
-1.64311
-0.0416733
-1.64338
-0.0478457
-0.0547895
-1.64353
-1.64476
-0.000403199
-1.64461
-0.000309985
-1.64452
-0.000281622
-1.64446
-0.000278841
-1.6444
-0.00028471
-1.64434
-0.000294516
-1.64428
-0.00030696
-1.64423
-0.000321841
-1.64417
-0.00033933
-1.64412
-0.000359756
-1.64407
-0.000383543
-1.64402
-0.000411198
-1.64397
-0.000443312
-1.64392
-0.000480577
-1.64388
-0.000523791
-1.64384
-0.000573885
-1.6438
-0.000631937
-1.64377
-0.000699193
-1.64374
-0.000777102
-1.64372
-0.000867337
-1.64371
-0.000971841
-1.6437
-0.00109286
-1.6437
-0.001233
-1.64371
-0.00139526
-1.64373
-0.00158314
-1.64377
-0.00180067
-1.64382
-0.00205253
-1.64389
-0.00234413
-1.64398
-0.00268174
-1.6441
-0.00307263
-1.64424
-0.0035252
-1.64441
-0.0040492
-1.64462
-0.00465593
-1.64487
-0.00535847
-1.64517
-0.00617198
-1.64552
-0.00711405
-1.64594
-0.00820502
-1.64643
-0.00946848
-1.64699
-0.0109317
-1.64765
-0.0126262
-1.6484
-0.0145884
-1.64927
-0.0168601
-1.65025
-0.0194891
-1.65135
-0.0225299
-1.65258
-0.0260437
-1.65393
-0.0300975
-1.65539
-0.0347642
-1.65694
-0.0401209
-1.65855
-0.0462423
-0.0531949
-1.66014
-1.63561
-0.00019542
-1.63563
-0.000287845
-1.63559
-0.000324215
-1.63553
-0.000340619
-1.63546
-0.00035228
-1.63539
-0.000363611
-1.63532
-0.000376112
-1.63525
-0.000390429
-1.63519
-0.000406989
-1.63512
-0.00042619
-1.63506
-0.00044846
-1.63499
-0.000474287
-1.63493
-0.00050423
-1.63487
-0.000538938
-1.63482
-0.000579157
-1.63477
-0.000625755
-1.63472
-0.000679735
-1.63467
-0.000742261
-1.63464
-0.000814679
-1.63461
-0.000898549
-1.63458
-0.00099568
-1.63457
-0.00110816
-1.63456
-0.00123842
-1.63457
-0.00138927
-1.63459
-0.00156395
-1.63462
-0.00176624
-1.63467
-0.0020005
-1.63475
-0.00227179
-1.63484
-0.00258597
-1.63496
-0.00294984
-1.63512
-0.0033713
-1.63531
-0.00385951
-1.63554
-0.00442509
-1.63582
-0.00508041
-1.63615
-0.00583983
-1.63654
-0.0067201
-1.63701
-0.00774069
-1.63755
-0.00892433
-1.63818
-0.0102975
-1.63892
-0.0118913
-1.63977
-0.0137419
-1.64073
-0.0158915
-1.64183
-0.0183899
-1.64307
-0.0212948
-1.64444
-0.0246734
-1.64594
-0.0286018
-1.64753
-0.0331668
-1.64919
-0.0384684
-1.65081
-0.0446168
-0.0517014
-1.6523
-1.64629
-0.000480307
-1.64617
-0.000406419
-1.64611
-0.000385919
-1.64606
-0.000385756
-1.64602
-0.000392147
-1.64599
-0.000401358
-1.64595
-0.000412443
-1.64591
-0.000425328
-1.64588
-0.000440219
-1.64585
-0.000457431
-1.64582
-0.000477344
-1.64579
-0.000500395
-1.64577
-0.000527087
-1.64575
-0.000557999
-1.64574
-0.000593797
-1.64573
-0.000635251
-1.64573
-0.000683251
-1.64573
-0.000738829
-1.64574
-0.000803178
-1.64576
-0.000877679
-1.64579
-0.000963931
-1.64584
-0.00106379
-1.6459
-0.00117939
-1.64597
-0.00131322
-1.64607
-0.00146816
-1.64619
-0.00164754
-1.64633
-0.00185522
-1.64651
-0.00209568
-1.64672
-0.00237411
-1.64697
-0.00269654
-1.64727
-0.00306997
-1.64763
-0.00350253
-1.64805
-0.00400369
-1.64855
-0.00458448
-1.64913
-0.00525775
-1.64981
-0.00603855
-1.65061
-0.00694449
-1.65154
-0.00799626
-1.65262
-0.00921824
-1.65387
-0.0106392
-1.65532
-0.0122935
-1.65699
-0.0142216
-1.6589
-0.0164723
-1.66109
-0.0191045
-1.66358
-0.022189
-1.66637
-0.0258087
-1.66948
-0.0300611
-1.67288
-0.0350663
-1.67652
-0.0409728
-0.0479342
-1.68029
-1.62376
-0.000338539
-1.62375
-0.000415987
-1.62369
-0.000447257
-1.62361
-0.00046246
-1.62353
-0.000473203
-1.62345
-0.000483123
-1.62337
-0.000493565
-1.62329
-0.000505155
-1.62321
-0.000518306
-1.62313
-0.000533376
-1.62306
-0.000550727
-1.62299
-0.000570752
-1.62292
-0.000593896
-1.62286
-0.000620663
-1.6228
-0.000651633
-1.62275
-0.000687474
-1.62271
-0.00072896
-1.62267
-0.000776985
-1.62264
-0.000832583
-1.62262
-0.000896954
-1.62261
-0.000971488
-1.62262
-0.00105779
-1.62264
-0.00115773
-1.62268
-0.00127346
-1.62274
-0.0014075
-1.62282
-0.00156273
-1.62294
-0.00174254
-1.62308
-0.00195082
-1.62326
-0.00219212
-1.62349
-0.00247171
-1.62376
-0.00279574
-1.62409
-0.00317135
-1.62449
-0.0036069
-1.62496
-0.00411215
-1.62552
-0.00469853
-1.62618
-0.0053795
-1.62695
-0.00617095
-1.62786
-0.00709168
-1.62891
-0.00816414
-1.63014
-0.00941523
-1.63155
-0.0108774
-1.63318
-0.0125902
-1.63505
-0.014602
-1.63719
-0.0169734
-1.63959
-0.0197807
-1.64229
-0.0231167
-1.64525
-0.0270925
-1.64847
-0.0318556
-1.65181
-0.0376269
-0.044662
-1.65508
-1.64176
-0.000481152
-1.64173
-0.000443339
-1.64174
-0.000435936
-1.64177
-0.000439171
-1.64179
-0.000445261
-1.64183
-0.000452469
-1.64186
-0.000460534
-1.64189
-0.000469597
-1.64193
-0.000479897
-1.64197
-0.000491704
-1.64202
-0.000505306
-1.64207
-0.000521024
-1.64212
-0.00053921
-1.64218
-0.000560269
-1.64225
-0.000584661
-1.64233
-0.000612916
-1.64241
-0.000645645
-1.6425
-0.000683555
-1.64261
-0.000727463
-1.64273
-0.000778316
-1.64286
-0.000837208
-1.64301
-0.000905409
-1.64319
-0.000984387
-1.64338
-0.00107584
-1.64361
-0.00118176
-1.64387
-0.00130441
-1.64416
-0.00144646
-1.6445
-0.00161099
-1.64489
-0.00180157
-1.64534
-0.00202238
-1.64586
-0.00227826
-1.64646
-0.00257488
-1.64715
-0.00291884
-1.64794
-0.00331789
-1.64886
-0.00378113
-1.64992
-0.00431931
-1.65114
-0.00494518
-1.65256
-0.00567391
-1.6542
-0.00652375
-1.6561
-0.00751685
-1.6583
-0.0086803
-1.66084
-0.0100475
-1.66378
-0.0116605
-1.66718
-0.0135732
-1.6711
-0.0158574
-1.67562
-0.0186055
-1.68078
-0.0219298
-1.68665
-0.0259836
-1.69323
-0.0310471
-0.0375843
-1.70031
-1.564
-0.000391081
-1.56398
-0.000463284
-1.56393
-0.00048608
-1.56387
-0.000497215
-1.56381
-0.000504714
-1.56375
-0.000511323
-1.56369
-0.000518013
-1.56364
-0.00052523
-1.56358
-0.000533256
-1.56353
-0.00054232
-1.56348
-0.000552645
-1.56344
-0.000564465
-1.5634
-0.000578036
-1.56337
-0.000593649
-1.56334
-0.000611633
-1.56332
-0.000632368
-1.56331
-0.000656293
-1.56331
-0.000683913
-1.56332
-0.000715813
-1.56335
-0.000752672
-1.56339
-0.000795274
-1.56345
-0.00084453
-1.56353
-0.000901491
-1.56364
-0.000967381
-1.56378
-0.00104362
-1.56395
-0.00113184
-1.56417
-0.00123395
-1.56443
-0.00135218
-1.56474
-0.00148908
-1.56511
-0.00164767
-1.56556
-0.00183143
-1.56609
-0.00204444
-1.56672
-0.00229148
-1.56746
-0.00257814
-1.56833
-0.00291105
-1.56935
-0.00329801
-1.57054
-0.00374838
-1.57195
-0.00427334
-1.57358
-0.00488651
-1.57549
-0.00560464
-1.57773
-0.00644864
-1.58033
-0.00744502
-1.58336
-0.00862792
-1.58689
-0.0100433
-1.59099
-0.0117569
-1.59574
-0.0138623
-1.60119
-0.0164793
-1.60741
-0.019764
-1.61441
-0.0240464
-0.0300744
-1.62192
-1.52329
-9.83412e-05
-1.52371
-4.79165e-05
-1.52415
-3.85324e-05
-1.52461
-3.6998e-05
-1.52508
-3.77538e-05
-1.52555
-3.91813e-05
-1.52603
-4.09551e-05
-1.52651
-4.30758e-05
-1.527
-4.56258e-05
-1.52749
-4.87091e-05
-1.52799
-5.24378e-05
-1.5285
-5.69327e-05
-1.52902
-6.2328e-05
-1.52954
-6.87751e-05
-1.53008
-7.64459e-05
-1.53062
-8.55375e-05
-1.53118
-9.62771e-05
-1.53176
-0.000108928
-1.53235
-0.000123793
-1.53296
-0.000141225
-1.5336
-0.00016163
-1.53425
-0.000185482
-1.53494
-0.000213327
-1.53566
-0.0002458
-1.53642
-0.000283638
-1.53723
-0.000327696
-1.53808
-0.000378967
-1.539
-0.000438607
-1.53998
-0.000507961
-1.54104
-0.000588597
-1.54219
-0.000682349
-1.54344
-0.000791361
-1.54481
-0.000918153
-1.54633
-0.0010657
-1.548
-0.00123751
-1.54986
-0.00143779
-1.55194
-0.00167158
-1.55426
-0.00194501
-1.55689
-0.00226562
-1.55985
-0.00264285
-1.56321
-0.00308879
-1.56703
-0.00361913
-1.57141
-0.00425473
-1.57642
-0.00502458
-1.58221
-0.00597252
-1.5889
-0.0071665
-1.59669
-0.00869739
-1.60579
-0.0106609
-1.61659
-0.0132418
-0.0172506
-1.62942
-1.22744
-1.22749
-1.22752
-1.22756
-1.2276
-1.22764
-1.22768
-1.22772
-1.22777
-1.22782
-1.22787
-1.22793
-1.22799
-1.22806
-1.22813
-1.22822
-1.22832
-1.22842
-1.22855
-1.22869
-1.22885
-1.22904
-1.22925
-1.2295
-1.22978
-1.23011
-1.23049
-1.23092
-1.23143
-1.23202
-1.2327
-1.2335
-1.23441
-1.23548
-1.23672
-1.23815
-1.23983
-1.24177
-1.24404
-1.24668
-1.24977
-1.25339
-1.25764
-1.26267
-1.26864
-1.27581
-1.2845
-1.29516
-1.30841
-1.32566
1.62587
-0.0342492
1.638
-0.0121345
1.64684
-0.00883958
1.65127
-0.0044262
1.65284
-0.0015746
1.65294
-9.9119e-05
1.65225
0.0006927
1.65109
0.00116128
1.64964
0.00144749
1.64802
0.00161977
1.6463
0.00172103
1.64452
0.0017783
1.64271
0.00180765
1.64089
0.00181856
1.63908
0.00181687
1.63727
0.0018063
1.63548
0.00178923
1.63371
0.00176722
1.63197
0.00174123
1.63026
0.00171185
1.62858
0.00167938
1.62694
0.00164393
1.62533
0.00160541
1.62377
0.0015636
1.62225
0.00151815
1.62078
0.00146859
1.61937
0.00141427
1.61801
0.00135437
1.61673
0.00128792
1.61551
0.00121387
1.61438
0.00113102
1.61334
0.0010379
1.61241
0.000932905
1.6116
0.000812743
1.61092
0.000674965
1.61041
0.000516437
1.61007
0.000333471
1.60995
0.000121917
1.61007
-0.000123897
1.61049
-0.000412173
1.61124
-0.00075313
1.6124
-0.00115955
1.61405
-0.00164869
1.61629
-0.00224505
1.61928
-0.00298536
1.62321
-0.00392846
1.62838
-0.00517627
1.6353
-0.0069212
1.64487
-0.00956262
-0.0139726
1.65884
1.57532
-0.0179533
1.5719
-0.00871241
1.5662
-0.00314169
1.56319
-0.00141544
1.56174
-0.000121416
1.56096
0.000679824
1.56059
0.0010569
1.56052
0.00123069
1.56066
0.00131365
1.56093
0.00134735
1.5613
0.00135276
1.56173
0.0013428
1.56222
0.00132479
1.56273
0.00130238
1.56327
0.00127732
1.56383
0.0012504
1.5644
0.00122187
1.56497
0.00119163
1.56555
0.00115939
1.56614
0.00112469
1.56673
0.00108695
1.56733
0.00104548
1.56794
0.000999456
1.56855
0.000947932
1.56918
0.000889819
1.56983
0.000823876
1.57049
0.000748611
1.57118
0.0006621
1.57191
0.000562019
1.57268
0.000446273
1.5735
0.000312482
1.57438
0.000157054
1.57533
-2.42035e-05
1.57638
-0.000235752
1.57754
-0.000482693
1.57883
-0.000771376
1.58027
-0.00110951
1.5819
-0.00150644
1.58375
-0.00197438
1.58587
-0.00252828
1.5883
-0.00318623
1.59111
-0.00397208
1.59438
-0.00491743
1.5982
-0.00606553
1.60269
-0.00747758
1.60801
-0.00924359
1.61433
-0.011501
1.62188
-0.0144664
1.63081
-0.0184888
-0.0241166
1.64095
1.57763
-0.00396682
1.573
-0.00408398
1.57217
-0.00230619
1.57223
-0.00147691
1.57309
-0.000985548
1.57428
-0.000504722
1.57545
-0.000120033
1.57653
0.000155477
1.57749
0.000357111
1.57833
0.000507393
1.57906
0.00061809
1.57971
0.000698103
1.58028
0.000754593
1.58078
0.000792816
1.58125
0.000816472
1.58167
0.00082815
1.58206
0.000829631
1.58243
0.000822069
1.58278
0.000806119
1.58313
0.000782031
1.58346
0.000749714
1.5838
0.000708766
1.58414
0.000658488
1.58449
0.000597887
1.58485
0.000525758
1.58524
0.000440668
1.58565
0.00034086
1.58608
0.000223684
1.58656
8.59701e-05
1.58708
-7.55975e-05
1.58766
-0.000264999
1.5883
-0.000486965
1.58903
-0.000747143
1.58984
-0.00105109
1.59077
-0.00140696
1.59182
-0.00182409
1.59302
-0.00231368
1.59441
-0.00288935
1.596
-0.00356788
1.59784
-0.00436977
1.59997
-0.00532031
1.60245
-0.00645162
1.60534
-0.00780523
1.60871
-0.0094358
1.61265
-0.0114169
1.61726
-0.0138495
1.62263
-0.0168747
1.62886
-0.0206904
1.63594
-0.0255712
-0.0318751
1.6437
1.59001
-0.00235602
1.58927
-0.00334322
1.58952
-0.00256422
1.58974
-0.00169077
1.5898
-0.00104492
1.58979
-0.000496828
1.58972
-4.87359e-05
1.58959
0.000280379
1.58944
0.000509263
1.58928
0.000665794
1.58913
0.000769676
1.58899
0.000834588
1.58888
0.000870783
1.58879
0.000885767
1.58872
0.000884761
1.58867
0.000871265
1.58866
0.000847531
1.58866
0.000814896
1.5887
0.000773997
1.58875
0.000724924
1.58883
0.000667324
1.58894
0.000600443
1.58908
0.000523127
1.58924
0.000433716
1.58944
0.000330465
1.58967
0.000211445
1.58993
7.3876e-05
1.59024
-8.53049e-05
1.5906
-0.000269576
1.59101
-0.000483545
1.59147
-0.000732825
1.59201
-0.00102338
1.59263
-0.00136227
1.59333
-0.00175763
1.59414
-0.00221956
1.59508
-0.00275998
1.59616
-0.00339308
1.59741
-0.00413589
1.59885
-0.00500899
1.60052
-0.00603734
1.60245
-0.00725147
1.60468
-0.00868914
1.60728
-0.0103976
1.61028
-0.0124368
1.61374
-0.0148834
1.61773
-0.0178361
1.62228
-0.0214219
1.62739
-0.0258022
1.63299
-0.0311735
-0.0377526
1.63887
1.59022
-0.000962853
1.58845
-0.00156458
1.58719
-0.00131312
1.58635
-0.000846868
1.58579
-0.000487184
1.5855
-0.000208196
1.58543
2.10782e-05
1.58552
0.000197376
1.5857
0.000323846
1.58596
0.000412094
1.58625
0.000472099
1.58658
0.000510404
1.58692
0.000531638
1.58726
0.000539225
1.58761
0.000535544
1.58796
0.000522102
1.58831
0.000499733
1.58866
0.000468743
1.589
0.00042901
1.58935
0.000380045
1.58969
0.000321061
1.59004
0.000250932
1.5904
0.00016827
1.59076
7.08538e-05
1.59113
-4.35335e-05
1.59152
-0.000177661
1.59193
-0.000334827
1.59236
-0.000518515
1.59283
-0.000732853
1.59333
-0.000983275
1.59387
-0.00127605
1.59447
-0.00161836
1.59512
-0.00201863
1.59585
-0.00248677
1.59667
-0.00303452
1.59758
-0.00367586
1.59862
-0.00442731
1.59979
-0.00530854
1.60112
-0.00634305
1.60264
-0.00755899
1.60438
-0.00899023
1.60637
-0.0106777
1.60865
-0.0126714
1.61124
-0.015032
1.61419
-0.0178342
1.61752
-0.0211687
1.62125
-0.0251447
1.62534
-0.0298907
1.62971
-0.0355494
-0.0422647
1.63422
1.59117
-0.000510647
1.59055
-0.000953353
1.59023
-0.000991402
1.5902
-0.000809771
1.5903
-0.000594948
1.59049
-0.000390752
1.5907
-0.000198391
1.59093
-2.86508e-05
1.59114
0.000109966
1.59134
0.000217348
1.59151
0.000297195
1.59167
0.000353345
1.59181
0.000389186
1.59195
0.000407681
1.59207
0.000411244
1.59219
0.000401663
1.59231
0.000380111
1.59243
0.000347205
1.59256
0.000303065
1.59269
0.000247331
1.59283
0.000179383
1.59298
9.80653e-05
1.59315
1.84066e-06
1.59333
-0.000111127
1.59353
-0.000243428
1.59375
-0.000398331
1.594
-0.00057935
1.59427
-0.000790598
1.59457
-0.00103699
1.59492
-0.00132449
1.5953
-0.0016601
1.59573
-0.00205198
1.59622
-0.00250969
1.59678
-0.00304442
1.59742
-0.00366937
1.59814
-0.00440012
1.59897
-0.005255
1.59992
-0.00625565
1.601
-0.00742763
1.60224
-0.00880119
1.60366
-0.0104121
1.60529
-0.0123027
1.60714
-0.0145233
1.60924
-0.0171333
1.61161
-0.0202022
1.61425
-0.0238112
1.61716
-0.0280522
1.6203
-0.0330259
1.62358
-0.0388348
-0.0455712
1.62689
1.59137
-0.000263416
1.59094
-0.000521053
1.59052
-0.000578374
1.5902
-0.000484867
1.58995
-0.00034085
1.58975
-0.000197217
1.58962
-6.68399e-05
1.58955
4.38197e-05
1.58953
0.000130262
1.58955
0.000192427
1.58962
0.000233192
1.58971
0.0002559
1.58984
0.000263409
1.58999
0.000258008
1.59016
0.000241411
1.59035
0.000214746
1.59055
0.000178586
1.59076
0.000132959
1.59099
7.74886e-05
1.59122
1.13633e-05
1.59147
-6.66496e-05
1.59173
-0.000158132
1.59199
-0.000265171
1.59227
-0.000389884
1.59256
-0.000535251
1.59287
-0.000704785
1.59319
-0.000902507
1.59354
-0.00113312
1.5939
-0.00140214
1.59429
-0.0017161
1.59472
-0.00208265
1.59517
-0.00251072
1.59567
-0.00301073
1.59623
-0.0035949
1.59683
-0.0042775
1.59751
-0.0050753
1.59826
-0.00600791
1.5991
-0.0070983
1.60005
-0.00837334
1.60111
-0.00986445
1.60231
-0.0116083
1.60365
-0.0136474
1.60516
-0.0160312
1.60684
-0.0188164
1.60871
-0.0220674
1.61075
-0.025856
1.61296
-0.0302602
1.6153
-0.0353609
1.6177
-0.0412367
-0.0479567
1.62009
1.59149
-0.000139563
1.59126
-0.000289952
1.59103
-0.000348086
1.59087
-0.000323267
1.59079
-0.00025926
1.59078
-0.00018737
1.59083
-0.000118753
1.59093
-5.7687e-05
1.59107
-7.44067e-06
1.59123
3.04357e-05
1.59141
5.61378e-05
1.59159
7.0539e-05
1.59178
7.44859e-05
1.59197
6.86299e-05
1.59216
5.33942e-05
1.59235
2.89328e-05
1.59253
-4.89318e-06
1.59271
-4.85156e-05
1.59289
-0.000102679
1.59307
-0.000168397
1.59325
-0.000247155
1.59343
-0.000340709
1.59362
-0.000451178
1.59381
-0.000581042
1.59401
-0.000733364
1.59422
-0.000911787
1.59443
-0.00112057
1.59467
-0.00136469
1.59491
-0.00164999
1.59518
-0.00198334
1.59547
-0.00237277
1.59579
-0.0028277
1.59614
-0.00335911
1.59652
-0.00397982
1.59695
-0.00470483
1.59743
-0.00555161
1.59796
-0.00654055
1.59856
-0.00769537
1.59923
-0.00904361
1.59998
-0.0106171
1.60082
-0.0124527
1.60177
-0.0145925
1.60282
-0.0170843
1.60399
-0.019982
1.60526
-0.0233451
1.60665
-0.0272379
1.60811
-0.0317276
1.60963
-0.0368807
1.61115
-0.0427581
-0.0494083
1.61261
1.59154
-6.24859e-05
1.59138
-0.000133374
1.5912
-0.000166794
1.59104
-0.00016258
1.59092
-0.000136941
1.59084
-0.000104918
1.59079
-7.38767e-05
1.59078
-4.71698e-05
1.5908
-2.71202e-05
1.59085
-1.50995e-05
1.59091
-1.1452e-05
1.591
-1.59708e-05
1.5911
-2.83471e-05
1.59122
-4.83609e-05
1.59135
-7.59547e-05
1.59149
-0.000111288
1.59164
-0.000154775
1.5918
-0.000207057
1.59197
-0.000269091
1.59214
-0.000342127
1.59232
-0.000427766
1.59251
-0.000527938
1.5927
-0.000644946
1.5929
-0.000781513
1.59311
-0.000940875
1.59332
-0.00112685
1.59355
-0.00134391
1.59378
-0.00159726
1.59402
-0.001893
1.59428
-0.00223827
1.59455
-0.00264138
1.59483
-0.00311206
1.59513
-0.00366162
1.59546
-0.00430327
1.5958
-0.00505236
1.59618
-0.00592676
1.59659
-0.00694719
1.59703
-0.00813767
1.59751
-0.00952592
1.59804
-0.0111438
1.59861
-0.0130277
1.59924
-0.0152189
1.59992
-0.0177637
1.60065
-0.0207135
1.60143
-0.0241239
1.60224
-0.0280537
1.60308
-0.0325632
1.60391
-0.0377104
1.6047
-0.0435471
-0.0501166
1.60541
1.59156
-5.03077e-06
1.59144
-1.25249e-05
1.59129
-2.03028e-05