/*--------------------------------*- C++ -*----------------------------------*\
  =========                 |
  \\      /  F ield         | OpenFOAM: The Open Source CFD Toolbox
   \\    /   O peration     | Website:  https://openfoam.org
    \\  /    A nd           | Version:  8
     \\/     M anipulation  |
\*---------------------------------------------------------------------------*/
FoamFile
{
    version     2.0;
    format      ascii;
    class       volScalarField;
    location    "400";
    object      alphat;
}
// * * * * * * * * * * * * * * * * * * * * * * * * * * * * * * * * * * * * * //

dimensions      [1 -1 -1 0 0 0 0];

internalField   nonuniform List<scalar> 
8400
(
0.347562
0.347236
0.346907
0.346576
0.346243
0.345906
0.345567
0.345225
0.34488
0.344531
0.344178
0.343821
0.34346
0.343095
0.342725
0.34235
0.34197
0.341585
0.341195
0.3408
0.340398
0.339991
0.339579
0.339161
0.338736
0.338307
0.337872
0.337438
0.337004
0.336572
0.336145
0.335722
0.335306
0.3349
0.334506
0.334127
0.333767
0.333428
0.333117
0.332839
0.3326
0.332408
0.332273
0.332207
0.332223
0.332342
0.332588
0.332995
0.333607
0.334484
0.147557
0.14762
0.147675
0.147727
0.147776
0.147824
0.14787
0.147914
0.147957
0.147999
0.14804
0.14808
0.148119
0.148157
0.148195
0.148233
0.148272
0.148311
0.148352
0.148395
0.148441
0.14849
0.148543
0.148601
0.148665
0.148737
0.148817
0.1489
0.148986
0.149077
0.149173
0.149275
0.149384
0.1495
0.149625
0.14976
0.149906
0.150066
0.150241
0.150434
0.150647
0.150883
0.151147
0.151442
0.151775
0.152152
0.152582
0.153078
0.153654
0.154331
0.0929707
0.0931451
0.0933191
0.0934925
0.0936651
0.093837
0.0940081
0.0941784
0.0943481
0.0945171
0.0946855
0.0948533
0.0950207
0.0951877
0.0953545
0.0955212
0.0956878
0.0958547
0.096022
0.0961899
0.0963586
0.0965284
0.0966997
0.096873
0.0970489
0.0972277
0.0974082
0.0975891
0.0977705
0.0979525
0.0981353
0.0983189
0.0985036
0.0986896
0.0988771
0.0990665
0.0992579
0.0994517
0.0996484
0.0998484
0.100052
0.100261
0.100474
0.100694
0.100922
0.101157
0.101404
0.101663
0.101937
0.102229
0.0874021
0.0875667
0.0877316
0.0878968
0.0880623
0.0882281
0.0883944
0.088561
0.0887281
0.0888955
0.0890634
0.0892318
0.0894006
0.08957
0.0897398
0.0899102
0.0900812
0.0902528
0.090425
0.0905979
0.0907715
0.0909459
0.091121
0.0912968
0.0914732
0.0916502
0.0918278
0.092006
0.0921849
0.0923645
0.0925447
0.0927256
0.0929072
0.0930896
0.0932726
0.0934565
0.0936411
0.0938265
0.0940128
0.0941999
0.0943879
0.0945769
0.0947669
0.0949579
0.0951502
0.0953437
0.0955387
0.0957352
0.0959337
0.0961345
0.0875258
0.0876869
0.0878487
0.0880109
0.0881738
0.0883371
0.0885011
0.0886656
0.0888307
0.0889965
0.0891629
0.08933
0.0894977
0.0896661
0.0898352
0.0900051
0.0901757
0.090347
0.0905191
0.0906919
0.0908654
0.0910396
0.0912146
0.0913902
0.0915666
0.0917436
0.0919213
0.0920997
0.0922787
0.0924583
0.0926385
0.0928192
0.0930003
0.0931819
0.0933638
0.093546
0.0937283
0.0939107
0.094093
0.094275
0.0944565
0.0946374
0.0948174
0.094996
0.0951731
0.095348
0.0955203
0.0956892
0.0958541
0.0960138
0.0890354
0.089203
0.0893714
0.0895402
0.0897095
0.0898794
0.0900498
0.0902207
0.0903922
0.0905643
0.090737
0.0909104
0.0910843
0.0912589
0.0914342
0.0916101
0.0917867
0.0919639
0.0921419
0.0923205
0.0924998
0.0926799
0.0928607
0.0930422
0.0932244
0.0934074
0.093591
0.0937754
0.0939605
0.0941462
0.0943326
0.0945197
0.0947073
0.0948956
0.0950843
0.0952735
0.0954631
0.095653
0.0958432
0.0960335
0.0962238
0.096414
0.0966039
0.0967933
0.0969821
0.0971699
0.0973565
0.0975417
0.0977251
0.0979063
0.0900338
0.0902052
0.0903773
0.0905498
0.0907228
0.0908964
0.0910705
0.0912452
0.0914206
0.0915965
0.0917731
0.0919503
0.0921283
0.0923069
0.0924862
0.0926661
0.0928468
0.0930282
0.0932103
0.0933932
0.0935767
0.0937611
0.0939461
0.0941319
0.0943184
0.0945057
0.0946936
0.0948822
0.0950715
0.0952613
0.0954518
0.0956428
0.0958343
0.0960261
0.0962183
0.0964107
0.0966033
0.0967958
0.0969881
0.0971801
0.0973716
0.0975622
0.0977517
0.0979397
0.0981259
0.0983098
0.0984909
0.0986685
0.098842
0.0990105
0.0913885
0.0915659
0.0917441
0.0919228
0.092102
0.0922818
0.0924621
0.0926429
0.0928244
0.0930064
0.0931891
0.0933724
0.0935564
0.0937409
0.0939262
0.0941121
0.0942988
0.0944862
0.0946743
0.0948631
0.0950527
0.095243
0.095434
0.0956258
0.0958183
0.0960116
0.0962056
0.0964002
0.0965956
0.0967916
0.0969883
0.0971855
0.0973833
0.0975816
0.0977803
0.0979793
0.0981785
0.0983779
0.0985773
0.0987765
0.0989754
0.0991738
0.0993714
0.0995679
0.0997631
0.0999566
0.100148
0.100337
0.100523
0.100705
0.0925079
0.0926904
0.0928736
0.0930573
0.0932415
0.0934262
0.0936115
0.0937973
0.0939838
0.0941708
0.0943585
0.0945468
0.0947357
0.0949254
0.0951157
0.0953067
0.0954985
0.0956909
0.0958841
0.0960781
0.0962728
0.0964683
0.0966645
0.0968614
0.0970592
0.0972576
0.0974568
0.0976566
0.0978571
0.0980583
0.0982601
0.0984624
0.0986652
0.0988684
0.099072
0.0992758
0.0994798
0.0996837
0.0998875
0.100091
0.100294
0.100496
0.100696
0.100896
0.101093
0.101289
0.101481
0.10167
0.101856
0.102036
0.0937519
0.0939403
0.0941294
0.0943189
0.094509
0.0946995
0.0948906
0.0950823
0.0952745
0.0954674
0.0956608
0.095855
0.0960497
0.0962452
0.0964413
0.0966382
0.0968357
0.0970341
0.0972331
0.0974329
0.0976335
0.0978348
0.0980369
0.0982397
0.0984433
0.0986477
0.0988528
0.0990586
0.0992651
0.0994722
0.0996799
0.0998883
0.100097
0.100306
0.100516
0.100726
0.100936
0.101146
0.101356
0.101565
0.101774
0.101982
0.102189
0.102394
0.102598
0.102799
0.102997
0.103192
0.103382
0.103568
0.0949611
0.0951556
0.0953508
0.0955465
0.0957427
0.0959394
0.0961367
0.0963345
0.0965328
0.0967318
0.0969314
0.0971316
0.0973325
0.0975341
0.0977363
0.0979393
0.098143
0.0983474
0.0985526
0.0987585
0.0989652
0.0991727
0.099381
0.09959
0.0997998
0.10001
0.100222
0.100434
0.100647
0.10086
0.101074
0.101289
0.101504
0.10172
0.101936
0.102152
0.102369
0.102586
0.102802
0.103019
0.103235
0.10345
0.103664
0.103877
0.104088
0.104297
0.104504
0.104708
0.104908
0.105104
0.0961148
0.0963152
0.0965162
0.0967176
0.0969194
0.0971218
0.0973247
0.0975281
0.097732
0.0979366
0.0981418
0.0983476
0.0985541
0.0987612
0.0989691
0.0991776
0.0993869
0.0995969
0.0998077
0.100019
0.100231
0.100445
0.100658
0.100873
0.101088
0.101305
0.101522
0.101739
0.101958
0.102177
0.102396
0.102616
0.102837
0.103058
0.10328
0.103502
0.103723
0.103945
0.104167
0.104388
0.104608
0.104827
0.105045
0.105261
0.105475
0.105686
0.105894
0.106097
0.106295
0.106487
0.0974167
0.0976243
0.0978325
0.0980412
0.0982504
0.0984601
0.0986702
0.0988809
0.0990921
0.0993039
0.0995163
0.0997293
0.099943
0.100157
0.100372
0.100588
0.100805
0.101022
0.10124
0.101458
0.101678
0.101898
0.102119
0.102341
0.102564
0.102787
0.103011
0.103236
0.103462
0.103689
0.103916
0.104144
0.104373
0.104602
0.104832
0.105062
0.105292
0.105523
0.105754
0.105985
0.106215
0.106445
0.106674
0.106903
0.10713
0.107355
0.107579
0.1078
0.108018
0.108233
0.0984739
0.0986877
0.0989021
0.0991167
0.0993318
0.0995473
0.0997632
0.0999797
0.100197
0.100414
0.100632
0.100851
0.10107
0.10129
0.10151
0.101732
0.101953
0.102176
0.102399
0.102623
0.102848
0.103074
0.1033
0.103527
0.103755
0.103984
0.104213
0.104444
0.104674
0.104906
0.105138
0.105371
0.105604
0.105837
0.106071
0.106305
0.106539
0.106773
0.107007
0.10724
0.107472
0.107703
0.107932
0.108159
0.108383
0.108604
0.108822
0.109034
0.10924
0.109438
0.100097
0.10032
0.100543
0.100767
0.100992
0.101216
0.101441
0.101667
0.101893
0.102119
0.102346
0.102573
0.102801
0.103029
0.103258
0.103488
0.103718
0.103949
0.104181
0.104413
0.104646
0.104879
0.105114
0.105349
0.105585
0.105821
0.106058
0.106296
0.106535
0.106774
0.107014
0.107254
0.107495
0.107737
0.107978
0.10822
0.108462
0.108704
0.108946
0.109187
0.109428
0.109668
0.109907
0.110145
0.110381
0.110615
0.110847
0.111076
0.111303
0.111527
0.101958
0.102196
0.102434
0.102672
0.102909
0.103146
0.103383
0.10362
0.103857
0.104094
0.10433
0.104567
0.104804
0.105041
0.105278
0.105515
0.105753
0.105991
0.106229
0.106467
0.106706
0.106944
0.107183
0.107423
0.107662
0.107902
0.108142
0.108381
0.108621
0.10886
0.1091
0.109338
0.109576
0.109812
0.110048
0.110281
0.110513
0.110742
0.110967
0.111189
0.111406
0.111618
0.111823
0.112021
0.11221
0.112388
0.112555
0.112708
0.112846
0.112967
0.109006
0.109284
0.109561
0.109837
0.110111
0.110383
0.110654
0.110923
0.111191
0.111457
0.111722
0.111986
0.112249
0.11251
0.11277
0.113029
0.113287
0.113545
0.113801
0.114056
0.114311
0.114564
0.114816
0.115068
0.115318
0.115566
0.115813
0.116059
0.116302
0.116542
0.11678
0.117014
0.117244
0.11747
0.117689
0.117902
0.118107
0.118303
0.118488
0.11866
0.118818
0.118959
0.119079
0.119177
0.119247
0.119287
0.11929
0.119252
0.119166
0.119025
0.131424
0.131827
0.132222
0.132611
0.132995
0.133374
0.133749
0.134118
0.134483
0.134844
0.1352
0.135552
0.1359
0.136245
0.136585
0.136922
0.137255
0.137585
0.137911
0.138234
0.138553
0.138869
0.13918
0.139488
0.139791
0.140089
0.140381
0.140667
0.140947
0.141218
0.14148
0.141731
0.14197
0.142195
0.142402
0.14259
0.142755
0.142892
0.142998
0.143067
0.143092
0.143065
0.142978
0.142817
0.142571
0.14222
0.141743
0.141108
0.140281
0.139207
0.197715
0.198251
0.198796
0.199344
0.199891
0.200439
0.200987
0.201535
0.202083
0.202632
0.203181
0.20373
0.204279
0.20483
0.20538
0.205931
0.206483
0.207036
0.207589
0.208142
0.208695
0.209248
0.2098
0.210351
0.2109
0.211447
0.21199
0.212529
0.213062
0.213587
0.214103
0.214608
0.215098
0.215571
0.216023
0.21645
0.216847
0.217208
0.217526
0.217792
0.217996
0.218125
0.218166
0.218097
0.217894
0.217526
0.216946
0.216092
0.214883
0.213202
0.37728
0.377705
0.378136
0.37857
0.379009
0.379453
0.379902
0.380356
0.380816
0.381282
0.381754
0.382232
0.382717
0.383208
0.383706
0.384211
0.384722
0.38524
0.385765
0.386298
0.386837
0.387383
0.387936
0.388496
0.389064
0.389638
0.39022
0.390809
0.391404
0.392007
0.392616
0.393231
0.393853
0.39448
0.395113
0.395751
0.396394
0.397039
0.397688
0.398338
0.398989
0.399638
0.400285
0.400926
0.401559
0.402181
0.402787
0.403374
0.403934
0.404456
1.08355
1.06874
1.05457
1.04098
1.0279
1.01527
1.00302
0.991133
0.979587
0.968366
0.957457
0.946848
0.936527
0.926484
0.916709
0.907192
0.897925
0.888899
0.880106
0.871537
0.863186
0.855045
0.847108
0.839367
0.831816
0.824451
0.817263
0.81025
0.803404
0.796721
0.790196
0.783826
0.777605
0.77153
0.765597
0.759802
0.754143
0.748616
0.743208
0.737903
0.732695
0.727577
0.722541
0.717578
0.712677
0.707823
0.702992
0.698148
0.693223
0.688086
1.07683
1.05216
1.02859
1.00603
0.984429
0.963764
0.944006
0.9251
0.906993
0.889635
0.872981
0.85699
0.841621
0.826839
0.812612
0.798907
0.785697
0.772956
0.760658
0.74878
0.737301
0.726201
0.715461
0.705063
0.694992
0.68523
0.675764
0.66658
0.657664
0.649003
0.640587
0.632403
0.62444
0.616687
0.609132
0.601765
0.594575
0.587552
0.580698
0.574021
0.567513
0.561168
0.554979
0.54894
0.543044
0.537284
0.531653
0.526143
0.52074
0.51543
1.0768
1.05207
1.02836
1.00568
0.983955
0.963152
0.943214
0.924088
0.905725
0.88808
0.871111
0.854779
0.839049
0.823888
0.809265
0.795152
0.781522
0.768352
0.755619
0.743301
0.731379
0.719833
0.708647
0.697805
0.687289
0.677088
0.667185
0.65757
0.648229
0.639151
0.630326
0.621743
0.613393
0.605267
0.597357
0.589656
0.582155
0.574848
0.567728
0.560788
0.554024
0.547429
0.540999
0.534729
0.528616
0.522654
0.516841
0.511173
0.505648
0.500263
1.0768
1.05225
1.02876
1.00628
0.984746
0.964102
0.944292
0.925267
0.906979
0.889389
0.872456
0.856145
0.840423
0.825259
0.810625
0.796494
0.782841
0.769641
0.756875
0.74452
0.732559
0.720972
0.709742
0.698854
0.688293
0.678044
0.668095
0.658432
0.649043
0.639918
0.631046
0.622417
0.614021
0.60585
0.597895
0.590148
0.582602
0.57525
0.568085
0.561101
0.554293
0.547654
0.54118
0.534867
0.52871
0.522704
0.516847
0.511135
0.505564
0.500131
1.0768
1.05225
1.02875
1.00625
0.984678
0.963996
0.944148
0.925089
0.906775
0.889164
0.872218
0.8559
0.840176
0.825016
0.810389
0.796268
0.782628
0.769444
0.756694
0.744357
0.732415
0.720847
0.709637
0.698768
0.688227
0.677997
0.668066
0.658421
0.649051
0.639943
0.631087
0.622473
0.614093
0.605936
0.597994
0.59026
0.582725
0.575384
0.568229
0.561253
0.554452
0.54782
0.541351
0.535041
0.528884
0.522878
0.517018
0.511299
0.505718
0.500271
1.0768
1.05226
1.02879
1.00633
0.984802
0.964168
0.944369
0.925358
0.907088
0.889517
0.872607
0.85632
0.840623
0.825485
0.810876
0.79677
0.783141
0.769965
0.757221
0.744888
0.732947
0.721378
0.710166
0.699295
0.688749
0.678514
0.668577
0.658925
0.649546
0.64043
0.631565
0.622942
0.614551
0.606383
0.59843
0.590684
0.583137
0.575783
0.568614
0.561625
0.554809
0.54816
0.541674
0.535345
0.529169
0.523141
0.517256
0.511511
0.505901
0.500422
1.0768
1.05227
1.0288
1.00634
0.984815
0.964177
0.944371
0.925349
0.907066
0.889482
0.872558
0.856258
0.840548
0.825399
0.81078
0.796665
0.783029
0.769847
0.757099
0.744762
0.732818
0.721249
0.710037
0.699166
0.688621
0.678388
0.668453
0.658804
0.649428
0.640315
0.631454
0.622834
0.614447
0.606282
0.598333
0.59059
0.583047
0.575695
0.568528
0.56154
0.554725
0.548077
0.54159
0.535259
0.529079
0.523046
0.517155
0.511401
0.50578
0.500287
1.0768
1.05227
1.02881
1.00635
0.984836
0.964207
0.944411
0.925401
0.907131
0.889559
0.872648
0.856361
0.840664
0.825526
0.810918
0.796814
0.783186
0.770013
0.757272
0.744942
0.733003
0.721438
0.710229
0.699361
0.688817
0.678585
0.66865
0.659
0.649623
0.640508
0.631643
0.62302
0.614628
0.606459
0.598504
0.590755
0.583204
0.575845
0.568669
0.561671
0.554845
0.548185
0.541685
0.535339
0.529144
0.523093
0.517182
0.511406
0.505761
0.500242
1.0768
1.05227
1.02881
1.00636
0.984842
0.964215
0.94442
0.925409
0.907137
0.889563
0.872648
0.856357
0.840655
0.825512
0.8109
0.79679
0.783158
0.76998
0.757234
0.744899
0.732957
0.721388
0.710176
0.699304
0.688758
0.678524
0.668587
0.658935
0.649556
0.640439
0.631574
0.622949
0.614556
0.606385
0.598428
0.590677
0.583125
0.575762
0.568584
0.561583
0.554752
0.548087
0.541581
0.535228
0.529024
0.522964
0.517042
0.511254
0.505595
0.500059
1.0768
1.05227
1.02881
1.00636
0.984846
0.96422
0.944427
0.925418
0.907148
0.889576
0.872664
0.856375
0.840676
0.825536
0.810926
0.796819
0.78319
0.770014
0.757271
0.744938
0.732998
0.72143
0.71022
0.699349
0.688804
0.678569
0.668632
0.65898
0.6496
0.640482
0.631615
0.622988
0.614593
0.606419
0.598459
0.590704
0.583146
0.575779
0.568594
0.561586
0.554748
0.548074
0.541558
0.535194
0.528977
0.522903
0.516965
0.511159
0.505481
0.499925
1.0768
1.05227
1.02881
1.00636
0.984846
0.96422
0.944426
0.925417
0.907148
0.889576
0.872664
0.856374
0.840675
0.825535
0.810925
0.796818
0.783188
0.770012
0.757268
0.744935
0.732994
0.721426
0.710215
0.699343
0.688797
0.678562
0.668623
0.65897
0.649589
0.640469
0.6316
0.622971
0.614573
0.606396
0.598433
0.590674
0.583112
0.575739
0.568549
0.561535
0.55469
0.548007
0.541482
0.535108
0.52888
0.522792
0.51684
0.511019
0.505323
0.499747
1.0768
1.05227
1.02881
1.00636
0.984842
0.964215
0.944419
0.925408
0.907136
0.889562
0.872647
0.856355
0.840653
0.82551
0.810896
0.796786
0.783153
0.769974
0.757227
0.744891
0.732947
0.721377
0.710163
0.69929
0.688741
0.678504
0.668564
0.658908
0.649525
0.640404
0.631533
0.622902
0.614502
0.606323
0.598357
0.590595
0.583031
0.575655
0.568461
0.561442
0.554591
0.547903
0.54137
0.534988
0.528751
0.522653
0.516689
0.510853
0.505142
0.49955
1.0768
1.05227
1.02881
1.00635
0.984836
0.964206
0.944411
0.9254
0.90713
0.889558
0.872646
0.856358
0.84066
0.825521
0.810913
0.796807
0.783178
0.770003
0.75726
0.744928
0.732987
0.721419
0.710207
0.699334
0.688787
0.678549
0.668609
0.658952
0.649568
0.640445
0.631571
0.622937
0.614534
0.606351
0.59838
0.590613
0.583042
0.575659
0.568458
0.56143
0.55457
0.547871
0.541327
0.534932
0.52868
0.522566
0.516585
0.51073
0.504999
0.499384
1.0768
1.05227
1.0288
1.00634
0.984815
0.964176
0.94437
0.925347
0.907065
0.88948
0.872555
0.856254
0.840544
0.825393
0.810773
0.796656
0.783018
0.769835
0.757084
0.744745
0.732798
0.721225
0.710008
0.699133
0.688582
0.678343
0.668401
0.658743
0.649358
0.640235
0.631361
0.622727
0.614324
0.606141
0.598171
0.590404
0.582833
0.57545
0.568247
0.561219
0.554357
0.547656
0.541108
0.534709
0.528452
0.522332
0.516342
0.510479
0.504736
0.499108
1.0768
1.05226
1.02879
1.00633
0.984802
0.964167
0.944368
0.925357
0.907086
0.889515
0.872603
0.856315
0.840617
0.825477
0.810866
0.796758
0.783127
0.769948
0.757201
0.744864
0.732918
0.721345
0.710127
0.699249
0.688696
0.678452
0.668506
0.658843
0.649452
0.640322
0.631441
0.622799
0.614388
0.606196
0.598217
0.59044
0.582859
0.575465
0.568251
0.56121
0.554335
0.547619
0.541057
0.534641
0.528367
0.522227
0.516217
0.510331
0.504563
0.498908
1.0768
1.05225
1.02875
1.00625
0.984678
0.963995
0.944147
0.925088
0.906773
0.889161
0.872214
0.855895
0.84017
0.825007
0.810378
0.796255
0.782612
0.769425
0.756672
0.744331
0.732384
0.72081
0.709594
0.698719
0.688169
0.67793
0.667989
0.658332
0.648947
0.639823
0.630949
0.622314
0.613909
0.605724
0.597751
0.589981
0.582406
0.575017
0.567808
0.560772
0.553901
0.547188
0.540628
0.534214
0.527939
0.521799
0.515786
0.509896
0.504123
0.498461
1.0768
1.05225
1.02876
1.00628
0.984745
0.964101
0.944291
0.925265
0.906977
0.889385
0.872451
0.856138
0.840415
0.825249
0.810612
0.796478
0.782822
0.769619
0.756848
0.744489
0.732521
0.720928
0.709691
0.698794
0.688224
0.677964
0.668002
0.658324
0.64892
0.639776
0.630883
0.62223
0.613808
0.605606
0.597616
0.58983
0.582239
0.574835
0.567612
0.560562
0.553677
0.546953
0.540381
0.533957
0.527674
0.521526
0.515508
0.509617
0.503847
0.498195
1.0768
1.05207
1.02836
1.00567
0.983955
0.963151
0.943212
0.924086
0.905722
0.888076
0.871106
0.854773
0.839041
0.823878
0.809252
0.795137
0.781505
0.768331
0.755595
0.743273
0.731346
0.719795
0.708604
0.697755
0.687233
0.677024
0.667113
0.657489
0.648139
0.639051
0.630214
0.621619
0.613256
0.605115
0.597188
0.589467
0.581945
0.574612
0.567465
0.560494
0.553696
0.547064
0.540594
0.534282
0.528124
0.522119
0.516267
0.51057
0.505036
0.499683
1.07683
1.05216
1.02859
1.00602
0.984428
0.963763
0.944005
0.925099
0.906992
0.889635
0.872982
0.856991
0.841623
0.826842
0.812616
0.798914
0.785707
0.772969
0.760675
0.748802
0.737331
0.726239
0.71551
0.705125
0.695069
0.685328
0.675886
0.66673
0.65785
0.649233
0.640868
0.632747
0.62486
0.617199
0.609756
0.602525
0.5955
0.588676
0.582047
0.575612
0.569367
0.563312
0.557447
0.551775
0.546301
0.541034
0.535992
0.531206
0.526733
0.522687
1.08355
1.06874
1.05457
1.04098
1.0279
1.01527
1.00302
0.991132
0.979584
0.968362
0.957452
0.94684
0.936517
0.926471
0.916693
0.907172
0.897901
0.888869
0.880069
0.871493
0.863134
0.854983
0.847033
0.839279
0.831713
0.824329
0.817121
0.810082
0.803208
0.796493
0.78993
0.783516
0.777245
0.771111
0.76511
0.759237
0.753487
0.747855
0.742337
0.736927
0.73162
0.726412
0.721297
0.71627
0.711323
0.706451
0.701647
0.6969
0.6922
0.68753
0.463754
0.251416
0.194343
0.186906
0.183042
0.181782
0.179048
0.177365
0.17502
0.173053
0.171034
0.168829
0.167126
0.164658
0.163282
0.160455
0.160173
0.163109
0.207953
0.388773
0.464326
0.252023
0.195036
0.18762
0.183766
0.182497
0.179765
0.178073
0.175728
0.173754
0.171733
0.169522
0.167816
0.165344
0.163962
0.161132
0.160844
0.163781
0.208625
0.389324
0.464903
0.25261
0.195731
0.18834
0.184497
0.183217
0.180487
0.178787
0.176442
0.174461
0.172439
0.170222
0.168512
0.166036
0.164649
0.161816
0.161521
0.164458
0.209291
0.389825
0.465485
0.253192
0.19643
0.189066
0.185233
0.183944
0.181216
0.179507
0.177162
0.175174
0.17315
0.170928
0.169214
0.166734
0.165342
0.162506
0.162205
0.165138
0.209912
0.390333
0.466072
0.253773
0.197133
0.189797
0.185975
0.184676
0.181951
0.180234
0.177888
0.175894
0.173868
0.17164
0.169923
0.167439
0.166041
0.163203
0.162894
0.165817
0.210517
0.390848
0.466664
0.254357
0.197842
0.190534
0.186724
0.185415
0.182692
0.180966
0.17862
0.176619
0.174591
0.172359
0.170638
0.16815
0.166747
0.163906
0.163589
0.166499
0.211115
0.39137
0.46726
0.254945
0.198557
0.191278
0.187478
0.186159
0.183439
0.181705
0.179359
0.177351
0.175322
0.173084
0.171359
0.168868
0.167458
0.164616
0.16429
0.167184
0.211712
0.391898
0.467862
0.255537
0.199278
0.192027
0.18824
0.18691
0.184193
0.18245
0.180104
0.17809
0.176058
0.173815
0.172087
0.169592
0.168177
0.165332
0.164997
0.167873
0.212309
0.392432
0.468469
0.256135
0.200005
0.192783
0.189007
0.187668
0.184953
0.183201
0.180856
0.178835
0.176801
0.174553
0.172821
0.170323
0.168902
0.166055
0.165711
0.168567
0.21291
0.392973
0.469081
0.256739
0.200739
0.193546
0.189781
0.188432
0.18572
0.183959
0.181615
0.179586
0.177551
0.175298
0.173562
0.17106
0.169634
0.166785
0.166431
0.169267
0.213514
0.393521
0.469699
0.257348
0.201479
0.194315
0.190562
0.189202
0.186493
0.184724
0.182379
0.180344
0.178307
0.176049
0.174309
0.171805
0.170372
0.167521
0.167158
0.169973
0.214123
0.394075
0.470321
0.257963
0.202226
0.19509
0.191349
0.189979
0.187273
0.185495
0.183151
0.181109
0.17907
0.176807
0.175063
0.172556
0.171118
0.168263
0.167891
0.170685
0.214736
0.394636
0.470949
0.258584
0.20298
0.195872
0.192144
0.190763
0.18806
0.186273
0.18393
0.181881
0.17984
0.177572
0.175824
0.173314
0.17187
0.169013
0.168631
0.171403
0.215355
0.395203
0.471582
0.259211
0.203741
0.196661
0.192945
0.191553
0.188853
0.187057
0.184715
0.182659
0.180617
0.178344
0.176592
0.174078
0.172629
0.16977
0.169378
0.172128
0.215981
0.395777
0.47222
0.259843
0.204509
0.197457
0.193752
0.19235
0.189654
0.187849
0.185507
0.183445
0.181401
0.179122
0.177367
0.17485
0.173395
0.170533
0.170132
0.17286
0.216612
0.396358
0.472864
0.260482
0.205284
0.198259
0.194567
0.193154
0.190461
0.188648
0.186306
0.184237
0.182191
0.179908
0.178149
0.175629
0.174168
0.171304
0.170893
0.173599
0.217249
0.396945
0.473514
0.261127
0.206067
0.199069
0.195389
0.193966
0.191276
0.189453
0.187113
0.185037
0.182989
0.180701
0.178939
0.176415
0.174948
0.172082
0.171661
0.174345
0.217893
0.39754
0.474169
0.261777
0.206856
0.199885
0.196219
0.194784
0.192098
0.190266
0.187926
0.185844
0.183794
0.181502
0.179735
0.177209
0.175735
0.172867
0.172436
0.175098
0.218544
0.398141
0.47483
0.262434
0.207653
0.200709
0.197055
0.195609
0.192927
0.191086
0.188747
0.186658
0.184607
0.182309
0.180539
0.178009
0.17653
0.17366
0.173218
0.175858
0.219202
0.39875
0.475496
0.263097
0.208456
0.201539
0.197899
0.196442
0.193764
0.191914
0.189576
0.187479
0.185427
0.183124
0.18135
0.178818
0.177332
0.17446
0.174008
0.176626
0.219867
0.399365
0.476168
0.263766
0.209268
0.202378
0.19875
0.197282
0.194608
0.192749
0.190411
0.188308
0.186254
0.183947
0.182169
0.179633
0.178142
0.175268
0.174806
0.177402
0.220539
0.399988
0.476846
0.264441
0.210087
0.203223
0.199609
0.198129
0.195459
0.193591
0.191255
0.189145
0.187089
0.184777
0.182995
0.180457
0.178959
0.176083
0.175611
0.178185
0.221218
0.400618
0.47753
0.265123
0.210913
0.204076
0.200475
0.198984
0.196318
0.194441
0.192106
0.189989
0.187931
0.185615
0.183829
0.181288
0.179784
0.176906
0.176423
0.178976
0.221905
0.401256
0.47822
0.265811
0.211747
0.204936
0.201349
0.199847
0.197185
0.195299
0.192964
0.190841
0.188782
0.186461
0.184671
0.182127
0.180617
0.177737
0.177244
0.179774
0.222599
0.401901
0.478915
0.266505
0.212589
0.205804
0.202231
0.200718
0.19806
0.196164
0.193831
0.191701
0.18964
0.187315
0.185521
0.182974
0.181458
0.178576
0.178072
0.180581
0.223301
0.402554
0.479617
0.267205
0.213438
0.20668
0.20312
0.201596
0.198942
0.197038
0.194705
0.192569
0.190506
0.188176
0.186379
0.183829
0.182307
0.179423
0.178909
0.181396
0.224011
0.403215
0.480325
0.267912
0.214296
0.207564
0.204018
0.202482
0.199833
0.197919
0.195588
0.193445
0.19138
0.189046
0.187244
0.184692
0.183164
0.180279
0.179754
0.18222
0.224729
0.403884
0.481039
0.268626
0.215161
0.208456
0.204924
0.203376
0.200731
0.198809
0.196479
0.194329
0.192263
0.189925
0.188119
0.185564
0.184029
0.181142
0.180607
0.183051
0.225455
0.40456
0.481759
0.269346
0.216034
0.209355
0.205838
0.204279
0.201638
0.199706
0.197378
0.195221
0.193154
0.190811
0.189001
0.186444
0.184903
0.182015
0.181468
0.183892
0.226189
0.405245
0.482485
0.270073
0.216916
0.210263
0.20676
0.205189
0.202554
0.200613
0.198285
0.196122
0.194053
0.191706
0.189892
0.187332
0.185785
0.182895
0.182338
0.18474
0.226932
0.405937
0.483218
0.270806
0.217806
0.211179
0.20769
0.206108
0.203477
0.201527
0.199201
0.197031
0.194961
0.19261
0.190792
0.18823
0.186676
0.183785
0.183216
0.185598
0.227682
0.406638
0.483957
0.271547
0.218704
0.212104
0.20863
0.207035
0.20441
0.20245
0.200126
0.197949
0.195877
0.193522
0.1917
0.189135
0.187575
0.184683
0.184103
0.186465
0.228442
0.407348
0.484702
0.272294
0.219611
0.213036
0.209577
0.207971
0.205351
0.203382
0.201059
0.198876
0.196802
0.194443
0.192617
0.19005
0.188483
0.18559
0.185
0.18734
0.22921
0.408066
0.485454
0.273048
0.220527
0.213978
0.210534
0.208916
0.2063
0.204323
0.202001
0.199812
0.197736
0.195373
0.193543
0.190974
0.189401
0.186506
0.185905
0.188225
0.229987
0.408792
0.486212
0.27381
0.221451
0.214928
0.211499
0.20987
0.207259
0.205272
0.202952
0.200756
0.19868
0.196313
0.194478
0.191907
0.190327
0.187432
0.186819
0.189119
0.230773
0.409528
0.486977
0.274578
0.222384
0.215887
0.212473
0.210832
0.208227
0.206231
0.203912
0.20171
0.199632
0.197261
0.195422
0.192849
0.191263
0.188366
0.187742
0.190022
0.231568
0.410272
0.487749
0.275354
0.223325
0.216855
0.213457
0.211804
0.209203
0.207199
0.204881
0.202673
0.200593
0.198219
0.196376
0.193801
0.192208
0.189311
0.188675
0.190935
0.232372
0.411025
0.488527
0.276137
0.224276
0.217832
0.214449
0.212784
0.21019
0.208176
0.20586
0.203645
0.201564
0.199186
0.197339
0.194762
0.193162
0.190265
0.189618
0.191858
0.233186
0.411788
0.489313
0.276928
0.225236
0.218818
0.215451
0.213774
0.211185
0.209162
0.206848
0.204627
0.202545
0.200163
0.198312
0.195733
0.194126
0.191228
0.19057
0.192791
0.234009
0.41256
0.490105
0.277726
0.226206
0.219814
0.216462
0.214774
0.21219
0.210158
0.207846
0.205619
0.203535
0.201149
0.199294
0.196714
0.1951
0.192202
0.191532
0.193733
0.234842
0.413341
0.490904
0.278531
0.227185
0.220818
0.217483
0.215783
0.213205
0.211164
0.208854
0.206621
0.204535
0.202146
0.200286
0.197704
0.196084
0.193185
0.192504
0.194686
0.235685
0.414132
0.49171
0.279345
0.228173
0.221833
0.218514
0.216802
0.214229
0.212179
0.209871
0.207632
0.205545
0.203153
0.201289
0.198705
0.197078
0.194179
0.193486
0.195649
0.236537
0.414932
0.492523
0.280166
0.229171
0.222857
0.219555
0.21783
0.215264
0.213205
0.210898
0.208653
0.206565
0.204169
0.202301
0.199716
0.198083
0.195183
0.194479
0.196623
0.2374
0.415743
0.493343
0.280996
0.230179
0.223891
0.220605
0.218869
0.216308
0.214241
0.211936
0.209685
0.207596
0.205197
0.203324
0.200738
0.199098
0.196198
0.195482
0.197607
0.238273
0.416563
0.494171
0.281833
0.231197
0.224935
0.221666
0.219918
0.217363
0.215287
0.212984
0.210727
0.208636
0.206234
0.204358
0.20177
0.200123
0.197223
0.196496
0.198602
0.239157
0.417394
0.495006
0.282679
0.232225
0.225989
0.222737
0.220977
0.218428
0.216343
0.214042
0.21178
0.209688
0.207282
0.205402
0.202813
0.201159
0.19826
0.19752
0.199609
0.240051
0.418235
0.495848
0.283533
0.233263
0.227054
0.223818
0.222046
0.219504
0.21741
0.215112
0.212843
0.21075
0.208342
0.206457
0.203867
0.202206
0.199307
0.198555
0.200626
0.240956
0.419086
0.496698
0.284395
0.234312
0.228129
0.22491
0.223126
0.22059
0.218488
0.216191
0.213918
0.211823
0.209412
0.207523
0.204932
0.203264
0.200365
0.199602
0.201654
0.241872
0.419948
0.497555
0.285267
0.235371
0.229214
0.226013
0.224217
0.221687
0.219577
0.217282
0.215003
0.212907
0.210493
0.2086
0.206008
0.204333
0.201435
0.20066
0.202695
0.242799
0.420821
0.49842
0.286146
0.23644
0.23031
0.227126
0.225319
0.222796
0.220676
0.218384
0.2161
0.214002
0.211586
0.209689
0.207096
0.205414
0.202516
0.201729
0.203746
0.243738
0.421705
0.499293
0.287035
0.237521
0.231417
0.228251
0.226432
0.223915
0.221787
0.219498
0.217208
0.215109
0.21269
0.210789
0.208195
0.206507
0.20361
0.20281
0.20481
0.244688
0.422601
0.500173
0.287933
0.238613
0.232535
0.229387
0.227556
0.225046
0.22291
0.220622
0.218327
0.216227
0.213806
0.2119
0.209306
0.207611
0.204715
0.203903
0.205886
0.24565
0.423507
0.501062
0.288839
0.239716
0.233665
0.230534
0.228692
0.226188
0.224044
0.221759
0.219459
0.217358
0.214934
0.213024
0.210429
0.208727
0.205832
0.205008
0.206974
0.246624
0.424425
0.501958
0.289755
0.24083
0.234806
0.231693
0.229839
0.227342
0.22519
0.222907
0.220602
0.2185
0.216073
0.21416
0.211565
0.209856
0.206961
0.206126
0.208075
0.24761
0.425355
0.502862
0.290681
0.241955
0.235958
0.232863
0.230998
0.228508
0.226347
0.224067
0.221757
0.219654
0.217226
0.215308
0.212712
0.210996
0.208103
0.207256
0.209188
0.248608
0.426297
0.503775
0.291616
0.243093
0.237122
0.234045
0.232168
0.229685
0.227517
0.225239
0.222925
0.22082
0.21839
0.216468
0.213873
0.21215
0.209258
0.208398
0.210315
0.249619
0.427251
0.504696
0.29256
0.244242
0.238298
0.23524
0.233351
0.230875
0.2287
0.226424
0.224105
0.222
0.219567
0.217641
0.215046
0.213316
0.210426
0.209554
0.211454
0.250643
0.428218
0.505625
0.293515
0.245403
0.239486
0.236446
0.234547
0.232078
0.229894
0.227622
0.225298
0.223191
0.220757
0.218827
0.216232
0.214495
0.211607
0.210722
0.212607
0.25168
0.429196
0.506563
0.294479
0.246576
0.240686
0.237665
0.235755
0.233293
0.231102
0.228832
0.226503
0.224396
0.22196
0.220026
0.217432
0.215688
0.212801
0.211904
0.213773
0.25273
0.430188
0.50751
0.295454
0.247762
0.241899
0.238897
0.236975
0.234521
0.232322
0.230055
0.227722
0.225614
0.223177
0.221239
0.218644
0.216894
0.214009
0.2131
0.214954
0.253793
0.431193
0.508465
0.296439
0.248961
0.243125
0.240142
0.238208
0.235761
0.233556
0.231291
0.228954
0.226846
0.224407
0.222465
0.219871
0.218113
0.21523
0.214309
0.216148
0.25487
0.432211
0.509428
0.297435
0.250172
0.244363
0.241399
0.239455
0.237015
0.234803
0.232541
0.2302
0.22809
0.225651
0.223705
0.221111
0.219347
0.216466
0.215532
0.217357
0.255962
0.433242
0.510401
0.298441
0.251396
0.245614
0.24267
0.240715
0.238283
0.236063
0.233804
0.23146
0.229349
0.226908
0.224958
0.222366
0.220595
0.217716
0.21677
0.21858
0.257067