/*--------------------------------*- C++ -*----------------------------------*\
  =========                 |
  \\      /  F ield         | OpenFOAM: The Open Source CFD Toolbox
   \\    /   O peration     | Website:  https://openfoam.org
    \\  /    A nd           | Version:  8
     \\/     M anipulation  |
\*---------------------------------------------------------------------------*/
FoamFile
{
    version     2.0;
    format      ascii;
    class       volScalarField;
    location    "400";
    object      p_rgh;
}
// * * * * * * * * * * * * * * * * * * * * * * * * * * * * * * * * * * * * * //

dimensions      [1 -1 -2 0 0 0 0];

internalField   nonuniform List<scalar> 
8400
(
-1.95163
18.9231
36.452
53.5861
70.5606
87.5923
104.819
122.351
140.286
158.725
177.769
197.531
218.135
239.719
262.444
286.493
312.074
339.43
368.841
400.634
435.19
472.941
514.39
560.157
610.997
667.692
730.926
801.613
881.011
970.516
1071.73
1186.49
1316.94
1465.53
1635.11
1828.99
2051
2305.63
2598.1
2934.55
3322.15
3769.43
4287.03
4888.86
5591.34
6408.58
7355.78
8493.66
9988.74
11935.2
-12.4261
3.71528
19.123
35.0718
51.1447
67.3528
83.7595
100.443
117.486
134.977
153.006
171.677
191.104
211.416
232.76
255.308
279.252
304.815
332.258
361.887
394.06
429.181
467.697
510.138
557.112
609.318
667.668
733.149
806.809
889.921
983.97
1090.67
1212.01
1350.28
1508.11
1688.55
1895.12
2131.86
2403.47
2715.32
3073.59
3485.39
3959.23
4505.53
5135.55
5857.67
6679.07
7630.69
8795.74
10225
18.7989
39.3598
57.2232
74.3419
91.4046
108.642
126.166
144.061
162.405
181.284
200.791
221.029
242.118
264.191
287.401
311.925
337.963
365.746
395.542
427.663
462.489
500.431
541.91
587.409
637.531
692.98
754.641
823.51
900.678
987.418
1085.21
1195.75
1321.02
1463.28
1625.17
1809.69
2020.33
2261.08
2536.56
2852.02
3213.44
3627.63
4102.45
4646.91
5270.16
5979.25
6780
7687.34
8731.83
9908.73
-18.1754
-11.3985
0.309323
14.1868
28.8293
43.8537
59.1642
74.7634
90.6921
107.006
123.776
141.081
159.015
177.684
197.213
217.746
239.449
262.505
287.132
313.577
342.144
373.213
407.244
444.71
486.111
532.068
583.31
640.668
705.107
777.743
859.876
953.005
1058.86
1179.45
1317.07
1474.38
1654.42
1860.69
2097.17
2368.42
2679.55
3036.36
3445.39
3913.9
4449.16
5057.28
5743.76
6517.7
7393.84
8368.6
34.0886
58.0549
76.7881
93.7325
110.399
127.211
144.313
161.776
179.659
198.022
216.935
236.478
256.743
277.836
299.882
323.026
347.435
373.284
400.768
430.125
461.598
495.498
532.218
572.217
615.998
664.143
717.324
776.31
841.982
915.356
997.603
1090.07
1194.31
1312.1
1445.47
1596.74
1768.56
1963.9
2186.13
2438.98
2726.57
3053.37
3424.16
3843.88
4317.02
4846.8
5434.76
6082.89
6797.46
7577.14
-26.4415
-23.6591
-13.8118
-1.05371
12.7099
26.9408
41.4842
56.3104
71.4344
86.8921
102.732
119.012
135.8
153.177
171.236
190.091
209.884
230.785
252.978
276.664
302.075
329.463
359.14
391.471
426.877
465.848
508.953
556.851
610.3
670.177
737.498
813.434
899.335
996.751
1107.46
1233.5
1377.18
1541.13
1728.27
1941.87
2185.5
2463
2778.35
3135.56
3538.19
3988.57
4486.86
5032.1
5626.35
6270.3
41.32
67.5595
86.5568
102.968
118.816
134.671
150.717
167.023
183.627
200.567
217.885
235.63
253.856
272.623
292.005
312.076
332.933
354.7
377.526
401.578
427.044
454.14
483.118
514.271
547.935
584.499
624.412
668.191
716.433
769.828
829.169
895.37
969.482
1052.71
1146.44
1252.23
1371.87
1507.36
1660.96
1835.12
2032.54
2256.06
2508.63
2793.12
3112.11
3467.19
3858.12
4283.53
4745
5245.01
-30.9649
-30.0417
-21.0725
-8.87076
4.40672
18.1553
32.197
46.4874
61.0253
75.8294
90.93
106.364
122.181
138.433
155.18
172.492
190.443
209.122
228.638
249.113
270.691
293.535
317.839
343.826
371.756
401.927
434.686
470.433
509.63
552.808
600.58
653.653
712.84
779.069
853.403
937.049
1031.38
1137.92
1258.37
1394.62
1548.68
1722.64
1918.66
2138.8
2384.89
2657.97
2957.7
3282.89
3635
4017.3
43.5165
70.1363
88.6491
104.212
119.029
133.722
148.48
163.359
178.38
193.55
208.881
224.385
240.082
255.997
272.162
288.612
305.39
322.547
340.142
358.248
376.945
396.331
416.516
437.633
459.835
483.301
508.239
534.893
563.545
594.523
628.207
665.04
705.533
750.275
799.944
855.32
917.29
986.859
1065.16
1153.44
1253.08
1365.54
1492.34
1635.01
1794.96
1973.22
2169.89
2384.69
2619.44
2878.07
-32.0993
-31.8914
-23.4605
-11.7522
1.01357
14.2105
27.6456
41.2597
55.036
68.9716
83.0672
97.3286
111.764
126.385
141.205
156.242
171.514
187.044
202.861
218.996
235.486
252.373
269.706
287.541
305.944
324.989
344.763
365.364
386.906
409.521
433.363
458.606
485.456
514.15
544.963
578.216
614.282
653.591
696.644
744.018
796.375
854.463
919.128
991.317
1072.06
1162.33
1262.81
1374.29
1499.24
1642.28
42.548
68.4864
86.2087
100.937
114.853
128.565
142.244
155.931
169.625
183.312
196.978
210.606
224.18
237.682
251.096
264.402
277.579
290.606
303.459
316.112
328.537
340.7
352.569
364.104
375.264
386
396.263
405.996
415.137
423.616
431.362
438.293
444.324
449.365
453.322
456.104
457.622
457.8
456.584
453.959
449.966
444.741
438.554
431.876
425.435
420.259
417.712
419.781
429.942
453.474
-30.9625
-30.8695
-22.9395
-11.9047
0.0912275
12.4301
24.9069
37.4439
50.0011
62.5498
75.0633
87.5154
99.8785
112.122
124.212
136.111
147.776
159.158
170.201
180.841
191.003
200.602
209.538
217.698
224.949
231.138
236.089
239.6
241.434
241.322
238.955
233.977
225.984
214.515
199.05
179.01
153.752
122.575
84.7337
39.4528
-14.0308
-76.4135
-148.231
-229.738
-320.761
-420.5
-527.233
-638.002
-748.25
-850.73
39.1445
63.7513
80.6315
94.7365
108.073
121.184
134.21
147.166
160.031
172.771
185.345
197.708
209.813
221.604
233.019
243.99
254.438
264.27
273.385
281.664
288.97
295.147
300.015
303.366
304.962
304.529
301.75
296.263
287.651
275.434
259.064
237.912
211.264
178.306
138.118
89.6678
31.806
-36.7321
-117.314
-211.386
-320.43
-445.879
-588.99
-750.653
-931.176
-1129.97
-1345.02
-1572.16
-1804.85
-2033.91
-27.4531
-26.841
-19.288
-8.99109
2.10995
13.4332
24.7676
36.0167
47.1185
58.0181
68.6621
78.9923
88.9445
98.4473
107.42
115.77
123.392
130.166
135.953
140.595
143.909
145.685
145.68
143.616
139.17
131.972
121.595
107.547
89.2591
66.0792
37.255
1.92249
-40.9093
-92.3753
-153.771
-226.571
-312.441
-413.248
-531.07
-668.176
-827.004
-1010.09
-1219.93
-1458.73
-1728.13
-2028.89
-2360.05
-2717.8
-3094.23
-3475.21
32.4894
54.9107
70.7497
84.3234
97.2653
109.997
122.607
135.087
147.396
159.483
171.288
182.746
193.782
204.312
214.239
223.453
231.825
239.21
245.437
250.31
253.604
255.056
254.362
251.172
245.079
235.614
222.231
204.299
181.09
151.759
115.33
70.675
16.493
-48.7155
-126.674
-219.356
-329.016
-458.208
-609.802
-786.987
-993.249
-1232.31
-1507.99
-1823.8
-2182.6
-2586.17
-3034.65
-3524.28
-4043.84
-4572.93
-20.6799
-18.304
-10.4644
-0.485199
10.0577
20.6696
31.1542
41.4089
51.3574
60.9279
70.0437
78.6205
86.5634
93.7646
100.102
105.433
109.599
112.412
113.662
113.102
110.45
105.382
97.5238
86.442
71.639
52.5403
28.4822
-1.30143
-37.6943
-81.7163
-134.545
-197.54
-272.266
-360.528
-464.401
-586.271
-728.868
-895.311
-1089.14
-1314.33
-1575.34
-1877.09
-2224.89
-2624.07
-3079.47
-3595.48
-4176.51
-4824.69
-5531.15
-6264.91
20.3891
39.932
54.4882
67.5181
80.0548
92.3607
104.476
116.376
128.011
139.322
150.237
160.675
170.544
179.737
188.13
195.58
201.925
206.973
210.506
212.269
211.968
209.263
203.761
195.003
182.461
165.523
143.479
115.503
80.6423
37.7889
-14.3426
-77.244
-152.646
-242.559
-349.318
-475.632
-624.654
-800.039
-1006.03
-1247.53
-1530.19
-1860.56
-2246.18
-2695.3
-3216.16
-3817.16
-4509.22
-5304.02
-6195.01
-7131.65
-12.0528
-5.26656
4.3342
14.9912
25.7597
36.3706
46.7104
56.7058
66.2877
75.381
83.8999
91.7453
98.8039
104.946
110.02
113.854
116.248
116.974
115.765
112.318
106.278
97.2394
84.7313
68.2091
47.0432
20.5053
-12.248
-52.1944
-100.467
-158.382
-227.463
-309.487
-406.514
-520.947
-655.584
-813.69
-999.081
-1216.22
-1470.34
-1767.56
-2115
-2521.07
-2995.78
-3550.59
-4197.32
-4947.33
-5816.06
-6828.73
-7998.38
-9261.04
-0.689181
20.2385
34.1128
46.7396
58.7869
70.494
81.9001
92.9835
103.696
113.974
123.739
132.899
141.347
148.957
155.587
161.068
165.209
167.787
168.543
167.181
163.356
156.669
146.661
132.796
114.458
90.9325
61.3899
24.87
-19.7407
-73.7336
-138.608
-216.107
-308.255
-417.411
-546.322
-698.198
-876.794
-1086.52
-1332.55
-1620.99
-1959.03
-2355.24
-2820.25
-3367.14
-4009.94
-4761.41
-5640.92
-6702.33
-8031.49
-9603.15
-3.10383
8.58254
20.1002
31.6989
43.0847
54.192
64.9778
75.3953
85.3873
94.8832
103.799
112.035
119.476
125.987
131.415
135.579
138.271
139.254
138.25
134.94
128.955
119.868
107.183
90.329
68.6432
41.3575
7.58161
-33.7177
-83.741
-143.882
-215.762
-301.273
-402.619
-522.38
-663.579
-829.77
-1025.15
-1254.71
-1524.4
-1841.39
-2214.31
-2653.86
-3173.91
-3792.79
-4532.37
-5415.34
-6477.29
-7822.19
-9659.2
-12032.9
29355.6
21193.7
17160.8
15642.5
14808.1
14199.2
13775.5
13491.2
13291
13140
13020.3
12922.1
12838.9
12766.2
12700.9
12640.9
12584.6
12531
12478.9
12427.7
12376.7
12325.2
12272.6
12218.3
12161.6
12101.8
12038.1
11969.6
11895.4
11814.3
11724.9
11625.8
11515.1
11390.9
11250.8
11091.7
10910.2
10702.4
10463.3
10187.2
9866.75
9493.41
9056.5
8542.53
7934
7207.46
6329.94
5252.21
3893.83
2118.14
3820.82
8410.09
9911.87
10478.2
10912.5
11238.1
11462.5
11622.6
11741.4
11830.3
11896.4
11945.1
11980.4
12005.1
12020.9
12029.5
12031.8
12028.6
12020.4
12007.7
11990.6
11969.3
11943.7
11913.7
11879
11839.3
11794
11742.6
11684.1
11617.6
11541.9
11455.6
11356.9
11243.8
11114.2
10965.2
10793.7
10595.7
10366.6
10100.9
9792.16
9432.02
9010.54
8515.39
7931.14
7238.21
6411.65
5419.95
4225.59
2794.68
11150.4
13320.4
14503.6
14606.3
14449.7
14278
14091.7
13900.5
13722.2
13563.1
13422.3
13297.4
13185.9
13085.7
12994.7
12911.2
12833.6
12760.8
12691.7
12625.2
12560.6
12497.1
12433.8
12370.2
12305.3
12238.6
12169
12096
12018.3
11935.1
11845
11746.5
11637.9
11517.1
11381.9
11229.5
11056.9
10860.3
10635.5
10377.2
10079.3
9734.68
9334.59
8868.66
8324.5
7687.4
6940.36
6064.82
5043.58
3868.34
11499
11908.1
12099.6
12028
11925.8
11882.4
11870.8
11868.6
11872.8
11882.7
11895.4
11908.1
11919.5
11928.7
11935.1
11938.5
11938.7
11935.6
11929.1
11919.3
11906
11889.2
11868.7
11844.2
11815.6
11782.3
11743.9
11699.7
11649.2
11591.5
11525.6
11450.5
11364.6
11266.3
11153.7
11024.3
10875.4
10703.7
10505.5
10276.2
10010.7
9702.75
9345.4
8930.43
8448.63
7889.96
7244.26
6502.82
5661.77
4727.94
12038.1
12287.2
12603.8
12835.5
12975.4
13064.7
13117
13136
13129.6
13106.7
13072.9
13032
12986.4
12937.9
12887.6
12836.4
12784.6
12732.5
12680.1
12627.5
12574.5
12520.9
12466.4
12410.8
12353.6
12294.4
12232.6
12167.6
12098.5
12024.4
11944.4
11857.3
11761.9
11656.5
11539.4
11408.4
11261.2
11094.8
10906
10691
10445.5
10164.4
9842.27
9472.88
9049.73
8566.35
8017.11
7398.66
6712.37
5967.03
12241.8
12327.4
12435.6
12497.6
12500.3
12472.2
12433.8
12391.5
12348.4
12307.1
12269.2
12234.8
12203.6
12174.9
12148.3
12123.2
12099
12075.3
12051.6
12027.6
12002.8
11976.8
11949.3
11920
11888.4
11854.1
11816.8
11775.8
11730.5
11680.4
11624.4
11561.7
11491.2
11411.6
11321.5
11219
11102.3
10968.9
10816.3
10641.4
10440.9
10210.9
9947.42
9646.14
9302.83
8913.77
8476.52
7991
7461.26
6896.81
12355
12399.3
12471.1
12543.3
12598.7
12639.6
12671.2
12694.2
12708.3
12714.1
12712.9
12705.7
12693.2
12676.3
12655.5
12631.5
12604.6
12575.3
12543.8
12510.4
12475.1
12438.1
12399.3
12358.7
12316
12271.1
12223.8
12173.6
12120.3
12063.2
12001.8
11935.3
11862.9
11783.6
11696.3
11599.6
11491.9
11371.5
11236.4
11084.3
10912.7
10718.9
10500
10253.3
9976.09
9666.47
9323.7
8949.03
8546.59
8123.71
12413.5
12435.7
12473.5
12513.5
12541.6
12554.5
12554.7
12544.7
12526.7
12502.6
12474.5
12443.9
12411.9
12379.3
12346.7
12314.2
12282.2
12250.6
12219.4
12188.4
12157.6
12126.8
12095.7
12064.1
12031.8
11998.4
11963.8
11927.4
11888.9
11847.9
11803.9
11756.3
11704.3
11647.4
11584.6
11514.9
11437.3
11350.5
11253.1
11143.6
11020.4
10881.6
10725.5
10550.6
10355.5
10139.5
9902.95
9647.7
9377.66
9099.01
12444.9
12458.5
12483.6
12514.2
12541.7
12562
12575.2
12582.4
12584.2
12581.4
12574.6
12564.4
12551.2
12535.6
12517.8
12498.1
12476.7
12453.8
12429.5
12404
12377.3
12349.4
12320.5
12290.5
12259.3
12227.1
12193.5
12158.6
12122.2
12084
12043.9
12001.5
11956.5
11908.5
11857
11801.5
11741.4
11675.9
11604.4
11526
11439.8
11345
11240.8
11126.4
11001.5
10866.1
10721
10567.9
10409.7
10250.3
12459
12469.1
12488.3
12512.9
12535.8
12552.5
12561.8
12564
12559.8
12550.1
12535.8
12517.9
12497.2
12474.5
12450.3
12425
12399.1
12372.7
12346
12319.2
12292.3
12265.4
12238.4
12211.4
12184.3
12157.1
12129.8
12102.3
12074.4
12046.2
12017.6
11988.4
11958.5
11927.8
11896.1
11863.4
11829.4
11793.9
11756.8
11718
11677.2
11634.4
11589.7
11543.1
11494.9
11445.7
11396.6
11348.8
11304.5
11266.1
12460.2
12470.3
12489.6
12514.2
12537.2
12554.1
12563.5
12566
12562.1
12552.8
12538.9
12521.5
12501.4
12479.3
12456
12431.7
12406.9
12381.8
12356.7
12331.8
12307
12282.5
12258.4
12234.8
12211.6
12189
12166.9
12145.5
12124.9
12105
12086
12068
12051.2
12035.8
12021.8
12009.7
11999.6
11991.9
11987
11985.5
11987.7
11994.5
12006.4
12024.5
12049.5
12082.4
12124.3
12176.1
12238.7
12312.8
12448.4
12462.1
12487.3
12518.2
12546
12566.7
12580.5
12588.4
12591
12589.2
12583.5
12574.7
12563.2
12549.4
12533.9
12516.8
12498.4
12479.1
12459
12438.4
12417.4
12396.3
12375.3
12354.5
12334.2
12314.6
12295.9
12278.4
12262.3
12247.9
12235.5
12225.6
12218.5
12214.8
12215
12219.8
12229.9
12246.1
12269.6
12301.3
12342.5
12394.6
12459
12537.3
12631
12741.4
12869.7
13016.2
13181
13363.1
12419.3
12441.6
12479.6
12520
12548.7
12562.3
12563.4
12554.6
12537.9
12515.5
12489.3
12461.1
12431.8
12402.5
12373.7
12345.8
12319
12293.6
12269.6
12247.1
12226.2
12206.9
12189.3
12173.4
12159.4
12147.5
12137.7
12130.4
12125.9
12124.5
12126.6
12132.8
12143.8
12160.1
12182.7
12212.5
12250.8
12298.8
12358.1
12430.3
12517.3
12621.3
12744.5
12889
13057.2
13250.9
13471.5
13719.3
13993.3
14291.6
12362.8
12407.4
12479.4
12552.2
12608.3
12650.2
12683
12707.5
12723.4
12731.5
12732.9
12728.7
12719.9
12707.3
12691.6
12673.5
12653.6
12632.5
12610.5
12588.3
12566.1
12544.3
12523.3
12503.6
12485.4
12469.1
12455.3
12444.3
12436.8
12433.3
12434.4
12441.1
12454.1
12474.5
12503.6
12542.6
12593.2
12657.1
12736.4
12833.5
12951
13091.5
13258.3
13454.4
13682.9
13946.3
14246.5
14584
14956.8
15361.1
12251.6
12337.4
12445.9
12508.6
12512.2
12485.3
12448.5
12408.2
12367.4
12328.9
12294.4
12263.9
12237.3
12214.2
12194
12176.5
12161.2
12147.8
12136.2
12126.3
12118
12111.5
12106.7
12103.9
12103.3
12105.2
12110.1
12118.4
12130.6
12147.5
12169.8
12198.5
12234.6
12279.5
12334.5
12401.4
12482.1
12578.8
12694.2
12831.1
12992.9
13183.1
13405.8
13665.1
13965.2
14310.1
14702.6
15144.2
15633.2
16165.8
12049.5
12298.8
12615.9
12848.4
12989.4
13080.1
13134.3
13155.4
13151.7
13131.9
13102
13065.7
13025.4
12983.2
12940.4
12897.9
12856.4
12816.3
12778
12741.9
12708.1
12677
12648.9
12623.9
12602.6
12585.2
12572.2
12564.2
12561.8
12565.8
12577.1
12596.8
12626
12666.2
12719.1
12786.7
12871.3
12975.4
13102
13254.8
13437.5
13654.8
13911.4
14212.7
14564.4
14972
15440.2
15971.9
16566.3
17217.9
11511.9
11921.2
12113.2
12042.4
11941.4
11899.6
11890.1
11890.3
11897.7
11911.2
11928.2
11946.1
11963.5
11979.8
11994.6
12007.8
12019.5
12029.8
12039.1
12047.7
12055.9
12064.3
12073.2
12083.1
12094.7
12108.5
12125.3
12145.7
12170.6
12201.1
12238.2
12283.2
12337.6
12403.2
12481.8
12575.7
12687.6
12820.5
12977.9
13163.8
13382.9
13640.4
13942.4
14295.7
14707.7
15186.3
15739.3
16373.4
17091.7
17892.8
11164.3
13334.6
14518.3
14621.9
14466.6
14296.7
14112.5
13924.1
13749.1
13593.9
13457.9
13338.6
13233.7
13141.3
13059.4
12986.6
12921.6
12863.5
12811.6
12765.3
12724.2
12688.2
12657.1
12631.1
12610.2
12594.8
12585.2
12582.1
12586.1
12598
12619
12650.1
12693
12749.2
12820.9
12910.5
13020.6
13154.7
13316.4
13510.3
13741.5
14016
14340.9
14724.2
15175.6
15705.6
16326.3
17049.8
17886.3
18841
3835.42
8424.95
9927.31
10494.6
10930.3
11257.6
11484.2
11647.2
11769.4
11862.4
11933.3
11987.9
12030
12062.7
12088.1
12107.7
12123
12135.1
12144.8
12153
12160.4
12167.6
12175.5
12184.6
12195.6
12209.3
12226.4
12247.9
12274.8
12308.2
12349.2
12399.5
12460.7
12534.7
12623.8
12730.6
12858
13009.7
13189.7
13402.8
13654.7
13951.9
14302.4
14715.5
15202.6
15777.4
16456.8
17261.4
18214.7
19343
29370.5
21208.8
17176.5
15659.2
14826.2
14219.3
13798
13516.7
13320.1
13173.3
13058.7
12966.5
12890.4
12826
12770.5
12722
12679.3
12641.4
12607.9
12578.3
12552.6
12530.7
12512.7
12498.8
12489.3
12484.7
12485.5
12492.5
12506.3
12528.1
12559
12600.4
12653.9
12721.4
12805.1
12907.7
13032.2
13182.2
13362
13576.4
13831.4
14133.8
14492.1
14916.4
15419.4
16017.4
16732
17593.9
18650.3
19983.1
-20031.6
-15415.6
-13844.9
-9886.44
-7919.58
-4501.39
-2399.63
656.14
2761.42
5570.75
7601.95
10246.1
12145.1
14693.3
16401.2
18925
20357.4
22941.8
23942.7
26577.2
-19961.5
-15357.5
-13795.8
-9838.51
-7877.64
-4457.06
-2360.08
698.805
2800.62
5613.05
7641.71
10289.4
12186.7
14739.7
16447.3
18979.1
20415.2
23015.5
24031.2
26705.3
-19899.7
-15297.5
-13744.5
-9787.38
-7832.36
-4409.87
-2317.16
744.425
2843.12
5658.65
7685.14
10336.5
12232.8
14790.6
16499.1
19038
20478.7
23090.6
24117
26809.5
-19842.3
-15238.2
-13692.1
-9734.27
-7784.7
-4360.25
-2271.62
792.628
2888.32
5707.01
7731.47
10386.6
12282.1
14844.6
16554
19099
20543.6
23163.6
24196
26897.1
-19787.1
-15179.5
-13639
-9679.84
-7735.28
-4308.68
-2223.98
842.997
2935.76
5757.63
7780.12
10439
12333.5
14900.5
16610.5
19160.7
20607.8
23233.4
24268.7
26975.2
-19732.9
-15121.2
-13585.6
-9624.47
-7684.54
-4255.56
-2174.64
895.12
2985
5810.03
7830.52
10492.9
12386.5
14957.4
16667.6
19222.2
20670.5
23300.3
24336.5
27047
-19679.2
-15063.1
-13531.7
-9568.38
-7632.78
-4201.23
-2123.97
948.629
3035.65
5863.78
7882.21
10548
12440.3
15014.8
16724.8
19282.9
20731.5
23364.6
24400.6
27114.5
-19625.6
-15005
-13477.6
-9511.69
-7580.22
-4145.96
-2072.27
1003.21
3087.37
5918.53
7934.81
10603.8
12494.7
15072.4
16781.7
19342.8
20791
23426.7
24462
27178.8
-19572.1
-14946.8
-13423.1
-9454.52
-7527.02
-4089.94
-2019.76
1058.6
3139.88
5973.98
7988.03
10660
12549.2
15129.8
16838.1
19401.7
20849
23487
24521.1
27240.8
-19518.4
-14888.3
-13368.3
-9396.93
-7473.32
-4033.35
-1966.65
1114.59
3192.97
6029.91
8041.62
10716.4
12603.8
15187
16893.9
19459.9
20905.8
23545.8
24578.6
27301
-19464.5
-14829.7
-13313.3
-9339
-7419.23
-3976.34
-1913.09
1170.99
3246.44
6086.13
8095.41
10772.8
12658.2
15243.9
16949.1
19517.3
20961.6
23603.4
24634.6
27359.8
-19410.4
-14770.8
-13258
-9280.8
-7364.83
-3919
-1859.21
1227.69
3300.17
6142.5
8149.29
10829.1
12712.5
15300.3
17003.8
19573.9
21016.4
23659.9
24689.5
27417.3
-19356.2
-14711.7
-13202.6
-9222.39
-7310.22
-3861.44
-1805.12
1284.55
3354.03
6198.93
8203.16
10885.3
12766.5
15356.4
17057.9
19629.9
21070.5
23715.6
24743.4
27473.9
-19301.9
-14652.5
-13147
-9163.81
-7255.46
-3803.74
-1750.89
1341.5
3407.96
6255.33
8256.94
10941.4
12820.3
15412.1
17111.6
19685.2
21123.9
23770.5
24796.5
27529.6
-19247.5
-14593.2
-13091.3
-9105.13
-7200.61
-3745.96
-1696.6
1398.47
3461.88
6311.64
8310.6
10997.1
12873.8
15467.4
17164.8
19740.1
21176.6
23824.7
24848.9
27584.6
-19193
-14533.8
-13035.6
-9046.39
-7145.71
-3688.14
-1642.29
1455.41
3515.74
6367.82
8364.1
11052.7
12926.9
15522.4
17217.5
19794.4
21228.8
23878.3
24900.7
27639
-19138.5
-14474.4
-12979.9
-8987.63
-7090.81
-3630.35
-1588.02
1512.26
3569.51
6423.84
8417.42
11107.9
12979.8
15577
17269.8
19848.3
21280.5
23931.4
24951.9
27692.9
-19084
-14415
-12924.2
-8928.88
-7035.94
-3572.62
-1533.83
1569
3623.15
6479.67
8470.53
11162.9
13032.4
15631.2
17321.8
19901.7
21331.8
23984.1
25002.6
27746.3
-19029.5
-14355.5
-12868.5
-8870.19
-6981.15
-3514.98
-1479.73
1625.59
3676.64
6535.28
8523.43
11217.7
13084.7
15685
17373.4
19954.8
21382.6
24036.3
25052.9
27799.2
-18975.1
-14296.2
-12812.9
-8811.57
-6926.45
-3457.45
-1425.75
1682.02
3729.97
6590.68
8576.11
11272.1
13136.7
15738.6
17424.6
20007.4
21433
24088.1
25102.8
27851.8
-18920.8
-14236.9
-12757.5
-8753.06
-6871.88
-3400.07
-1371.92
1738.26
3783.11
6645.84
8628.57
11326.2
13188.4
15791.8
17475.6
20059.7
21483.1
24139.5
25152.2
27903.9
-18866.6
-14177.7
-12702.1
-8694.68
-6817.44
-3342.84
-1318.25
1794.29
3836.07
6700.75
8680.79
11380.1
13239.8
15844.7
17526.2
20111.7
21532.9
24190.6
25201.3
27955.7
-18812.5
-14118.6
-12646.9
-8636.44
-6763.16
-3285.8
-1264.76
1850.12
3888.82
6755.42
8732.78
11433.7
13291
15897.3
17576.5
20163.4
21582.3
24241.3
25250.1
28007.2
-18758.6
-14059.7
-12591.9
-8578.36
-6709.06
-3228.94
-1211.45
1905.72
3941.37
6809.82
8784.54
11487
13342
15949.5
17626.5
20214.7
21631.4
24291.7
25298.5
28058.4
-18704.9
-14000.9
-12537.1
-8520.47
-6655.14
-3172.3
-1158.34
1961.09
3993.7
6863.97
8836.06
11540
13392.6
16001.5
17676.3
20265.7
21680.2
24341.8
25346.7
28109.3
-18651.4
-13942.3
-12482.4
-8462.76
-6601.42
-3115.86
-1105.43
2016.21
4045.81
6917.86
8887.35
11592.7
13443
16053.2
17725.7
20316.4
21728.7
24391.6
25394.5
28159.8
-18598.1
-13883.9
-12428
-8405.26
-6547.9
-3059.66
-1052.74
2071.09
4097.71
6971.47
8938.4
11645.2
13493.2
16104.6
17774.9
20366.8
21776.9
24441.2
25442
28210.1
-18545
-13825.6
-12373.7
-8347.98
-6494.61
-3003.69
-1000.27
2125.71
4149.37
7024.81
8989.21
11697.4
13543.1
16155.7
17823.9
20417
21824.8
24490.4
25489.3
28260.1
-18492.1
-13767.6
-12319.7
-8290.91
-6441.53
-2947.96
-948.012
2180.08
4200.81
7077.88
9039.79
11749.2
13592.7
16206.5
17872.5
20466.8
21872.5
24539.3
25536.2
28309.9
-18439.4
-13709.8
-12266
-8234.08
-6388.68
-2892.47
-895.987
2234.18
4252.02
7130.68
9090.13
11800.8
13642.2
16257
17921
20516.4
21919.9
24588
25582.9
28359.4
-18387
-13652.3
-12212.5
-8177.48
-6336.07
-2837.24
-844.193
2288.01
4303
7183.19
9140.23
11852.1
13691.3
16307.3
17969.1
20565.7
21967
24636.4
25629.3
28408.6
-18334.9
-13594.9
-12159.2
-8121.13
-6283.7
-2782.27
-792.633
2341.57
4353.74
7235.42
9190.1
11903.2
13740.2
16357.2
18017
20614.7
22013.9
24684.6
25675.4
28457.6
-18283
-13537.8
-12106.2
-8065.03
-6231.57
-2727.57
-741.31
2394.85
4404.25
7287.37
9239.72
11953.9
13788.9
16406.9
18064.7
20663.4
22060.5
24732.5
25721.3
28506.3
-18231.3
-13480.9
-12053.4
-8009.18
-6179.68
-2673.13
-690.227
2447.86
4454.52
7339.03
9289.11
12004.4
13837.3
16456.3
18112.1
20711.9
22106.9
24780.1
25766.9
28554.7
-18179.9
-13424.3
-12000.9
-7953.6
-6128.05
-2618.96
-639.387
2500.58
4504.55
7390.4
9338.26
12054.5
13885.5
16505.4
18159.2
20760
22153
24827.4
25812.2
28602.9
-18128.8
-13367.9
-11948.7
-7898.27
-6076.67
-2565.07
-588.79
2553.01
4554.35
7441.49
9387.17
12104.4
13933.5
16554.2
18206.1
20807.9
22198.8
24874.5
25857.3
28650.9
-18078
-13311.8
-11896.7
-7843.21
-6025.55
-2511.45
-538.439
2605.16
4603.9
7492.28
9435.85
12154
13981.2
16602.8
18252.8
20855.6
22244.4
24921.3
25902.1
28698.6
-18027.4
-13255.9
-11845
-7788.43
-5974.68
-2458.12
-488.335
2657.02
4653.21
7542.77
9484.28
12203.3
14028.6
16651
18299.2
20902.9
22289.7
24967.9
25946.6
28746
-17977.1
-13200.3
-11793.6
-7733.91
-5924.07
-2405.08
-438.479
2708.59
4702.28
7592.97
9532.47
12252.3
14075.9
16699
18345.3
20950
22334.8
25014.2
25990.9
28793.2
-17927.1
-13145
-11742.4
-7679.68
-5873.72
-2352.32
-388.873
2759.86
4751.11
7642.87
9580.43
12301
14122.8
16746.7
18391.2
20996.8
22379.6
25060.2
26034.9
28840.1
-17877.4
-13089.9
-11691.5
-7625.72
-5823.64
-2299.85
-339.518
2810.83
4799.7
7692.47
9628.14
12349.4
14169.6
16794
18436.9
21043.3
22424.2
25106
26078.6
28886.8
-17828
-13035.1
-11641
-7572.04
-5773.82
-2247.68
-290.413
2861.5
4848.04
7741.77
9675.61
12397.5
14216.1
16841.1
18482.3
21089.6
22468.5
25151.5
26122.1
28933.3
-17778.8
-12980.6
-11590.6
-7518.65
-5724.27
-2195.8
-241.561
2911.87
4896.14
7790.76
9722.84
12445.3
14262.3
16887.9
18527.5
21135.5
22512.5
25196.7
26165.3
28979.5
-17730
-12926.3
-11540.6
-7465.54
-5674.98
-2144.22
-192.963
2961.93
4943.99
7839.45
9769.84
12492.8
14308.3
16934.4
18572.4
21181.2
22556.3
25241.7
26208.3
29025.4
-17681.4
-12872.4
-11490.9
-7412.73
-5625.96
-2092.94
-144.617
3011.69
4991.6
7887.83
9816.59
12539.9
14354.1
16980.7
18617.1
21226.6
22599.9
25286.5
26250.9
29071.1
-17633.1
-12818.6
-11441.4
-7360.2
-5577.21
-2041.96
-96.5262
3061.13
5038.97
7935.89
9863.1
12586.8
14399.6
17026.6
18661.5
21271.8
22643.2
25330.9
26293.4
29116.5
-17585.2
-12765.2
-11392.3
-7307.97
-5528.73
-1991.28
-48.6896
3110.27
5086.09
7983.65
9909.36
12633.4
14444.9
17072.2
18705.7
21316.6
22686.2
25375.1
26335.5
29161.7
-17537.5
-12712.1
-11343.4
-7256.03
-5480.51
-1940.92
-1.10778
3159.09
5132.96
8031.09
9955.39
12679.7
14490
17117.5
18749.6
21361.2
22729
25419
26377.4
29206.7
-17490.1
-12659.2
-11294.8
-7204.39
-5432.57
-1890.86
46.2189
3207.59
5179.59
8078.21
10001.2
12725.6
14534.8
17162.6
18793.3
21405.4
22771.5
25462.7
26419
29251.3
-17443
-12606.6
-11246.5
-7153.05
-5384.9
-1841.11
93.2902
3255.78
5225.98
8125.01
10046.7
12771.3
14579.3
17207.3
18836.7
21449.4
22813.7
25506
26460.3
29295.8
-17396.2
-12554.3
-11198.5
-7102.01
-5337.5
-1791.68
140.106
3303.65
5272.11
8171.5
10092
12816.6
14623.6
17251.7
18879.9
21493.1
22855.7
25549.2
26501.4
29339.9
-17349.7
-12502.3
-11150.8
-7051.27
-5290.37
-1742.56
186.666
3351.19
5318.01
8217.66
10137.1
12861.6
14667.7
17295.8
18922.8
21536.6
22897.5
25592
26542.2
29383.8
-17303.6
-12450.6
-11103.3
-7000.84
-5243.51
-1693.75
232.97
3398.41
5363.65
8263.5
10181.9
12906.3
14711.5
17339.7
18965.5
21579.7
22939
25634.6
26582.8
29427.5
-17257.7
-12399.2
-11056.2
-6950.71
-5196.93
-1645.27
279.019
3445.31
5409.05
8309.01
10226.5
12950.7
14755.1
17383.2
19007.9
21622.5
22980.2
25676.9
26623
29470.9
-17212.1
-12348
-11009.4
-6900.89
-5150.61
-1597.11
324.811
3491.87
5454.21
8354.19
10270.8
12994.8
14798.4
17426.4
19050.1
21665.1
23021.1
25718.9
26663
29514
-17166.8
-12297.2
-10962.8
-6851.38
-5104.57
-1549.27
370.348
3538.11
5499.12
8399.05
10314.9
13038.5
14841.5
17469.3
19092
21707.3
23061.8
25760.7
26702.7
29556.9
-17121.8
-12246.6
-10916.6
-6802.18
-5058.81
-1501.75
415.63
3584.01
5543.78
8443.57
10358.7
13081.9
14884.3
17511.9
19133.6
21749.3
23102.3
25802.1
26742.2
29599.5
-17077.1
-12196.4
-10870.6
-6753.29
-5013.31
-1454.56
460.657
3629.59
5588.2
8487.76
10402.4
13125
14926.9
17554.1
19175.1
21791
23142.4
25843.4
26781.4
29641.8
-17032.8
-12146.4
-10824.9
-6704.72
-4968.09
-1407.71
505.428
3674.82
5632.38
8531.61
10445.7
13167.8
14969.3
17596.1
19216.2
21832.3
23182.3
25884.3
26820.3
29683.9
-16988.7
-12096.7
-10779.6
-6656.46
-4923.13
-1361.18
549.944
3719.72
5676.31
8575.12
10488.8
13210.2
15011.4
17637.7
19257.1
21873.4
23222
25924.9
26858.9
29725.7
-16944.9
-12047.4
-10734.5
-6608.52
-4878.46
-1314.98
594.206
3764.27
5719.99
8618.3
10531.7
13252.3
15053.3
17679.1
19297.8
21914.2
23261.4
25965.3
26897.2
29767.3
-16901.5
-11998.3
-10689.7
-6560.9
-4834.05
-1269.12
638.214
3808.49
5763.43
8661.14
10574.4
13294.1
15094.9
17720.1
19338.2
21954.7
23300.5
26005.4
26935.3
29808.6
-16858.3
-11949.5
-10645.3
-6513.61
-4789.91
-1223.6
681.968
3852.36
5806.63
8703.63
10616.8
13335.5
15136.2
17760.8
19378.3
21994.9
23339.3
26045.2
26973.1
29849.6
-16815.5
-11901.1
-10601.1
-6466.63
-4746.05
-1178.41
725.469
3895.88
5849.59
8745.78
10658.9
13376.6
15177.4
17801.1
19418.2
22034.7
23377.9
26084.8
27010.6
29890.4
-16773
-11852.9
-10557.2
-6419.98
-4702.46
-1133.57
768.717
3939.06
5892.3
8787.58
10700.9
13417.4
15218.2
17841.2
19457.9
22074.3
23416.2
26124
27047.8
29930.9
-16730.7
-11805
-10513.6
-6373.66
-4659.14
-1089.06
811.712
3981.88
5934.77
8829.03
10742.5
13457.8
15258.9
17880.9
19497.3
22113.6
23454.3
26163
27084.8
29971.1
-16688.8
-11757.5
-10470.3
-6327.66
-4616.08
-1044.91
854.457
4024.35
5977
8870.14
10784
13497.9
15299.3
17920.3
19536.4
22152.6
23492.1
26201.7
27121.4
30011.1
-16647.2
-11710.2
-10427.3
-6282
-4573.3
-1001.1
896.951
4066.47
6018.99
8910.89
10825.2
13537.7
15339.4
17959.4
19575.3
22191.2
23529.6
26240.1
27157.8
30050.8
-16605.9
-11663.3
-10384.6
-6236.66
-4530.79
-957.636
939.195
4108.24
6060.74
8951.29
10866.1
13577.1
15379.3
17998.2
19613.9
22229.6
23566.9
26278.2
27193.9
30090.2
-16564.9
-11616.6
-10342.2
-6191.66
-4488.54
-914.525
981.189
4149.64
6102.25
8991.33
10906.9
13616.1
15419
18036.6
19652.2
22267.7
23603.9
26316
27229.8
30129.3
-16524.2
-11570.3
-10300.1
-6147
-4446.57
-871.768
1022.93
4190.69
6143.52
9031.02
10947.3
13654.8
15458.4
18074.7
19690.4
22305.4
23640.6
26353.6
27265.3
30168.2
-16483.8
-11524.3
-10258.2
-6102.67
-4404.86
-829.366
1064.43
4231.37
6184.55
9070.34
10987.6
13693.2
15497.6
18112.5
19728.2
22342.9
23677
26390.9
27300.6
30206.9
-16443.8
-11478.6
-10216.7
-6058.68
-4363.41
-787.322
1105.68
4271.68
6225.34
9109.31
11027.6
13731.2
15536.5
18149.9
19765.8
22380
23713.2
26427.8
27335.6
30245.2
-16404
-11433.2
-10175.5
-6015.04
-4322.23
-745.637
1146.69
4311.63
6265.9
9147.92
11067.4
13768.9
15575.2
18187.1
19803.2
22416.8
23749.1
26464.5
27370.3
30283.3
-16364.5
-11388.1
-10134.5
-5971.73
-4281.32
-704.314
1187.45
4351.22
6306.22
9186.16
11106.9
13806.2
15613.6
18223.8
19840.3
22453.3
23784.8
26500.9
27404.7
30321.1
-16325.4
-11343.4
-10093.9
-5928.77
-4240.67
-663.355
1227.97
4390.43
6346.3
9224.03
11146.2
13843.2
15651.8
18260.3
19877.1
22489.5
23820.2
26537.1
27438.8
30358.6
-16286.5
-11298.9
-10053.5
-5886.15
-4200.28
-622.761
1268.24
4429.27
6386.15
9261.54
11185.3
13879.8
15689.7
18296.4
19913.7
22525.4
23855.3
26572.9
27472.7
30395.9
-16248
-11254.8
-10013.5
-5843.89
-4160.15
-582.536
1308.27
4467.73
6425.77
9298.67
11224.1
13916.1
15727.5
18332.2
19950
22561
23890.1
26608.4
27506.2
30432.8
-16209.8
-11211
-9973.71
-5801.97
-4120.27
-542.681
1348.07
4505.82
6465.16
9335.44
11262.7
13952
15764.9
18367.6
19986.1
22596.3
23924.7
26643.7
27539.5
30469.5
-16171.9
-11167.5
-9934.22
-5760.41
-4080.66
-503.199
1387.62
4543.53
6504.31
9371.84
11301.1
13987.5
15802.1
18402.8
20021.9
22631.2
23959
26678.6
27572.5
30506
-16134.2
-11124.3
-9895.03
-5719.2
-4041.31
-464.092
1426.94
4580.86
6543.24
9407.86
11339.2
14022.7
15839.1
18437.5
20057.5
22665.9
23993
26713.3
27605.2
30542.1
-16096.9
-11081.4
-9856.12
-5678.35
-4002.2
-425.363
1466.03
4617.8
6581.93
9443.5
11377.1
14057.5
15875.9
18472
20092.8
22700.2
24026.8
26747.7
27637.6
30578
-16059.9
-11038.9