/*--------------------------------*- C++ -*----------------------------------*\
  =========                 |
  \\      /  F ield         | OpenFOAM: The Open Source CFD Toolbox
   \\    /   O peration     | Website:  https://openfoam.org
    \\  /    A nd           | Version:  8
     \\/     M anipulation  |
\*---------------------------------------------------------------------------*/
FoamFile
{
    version     2.0;
    format      ascii;
    class       surfaceScalarField;
    location    "400";
    object      phi;
}
// * * * * * * * * * * * * * * * * * * * * * * * * * * * * * * * * * * * * * //

dimensions      [1 0 -1 0 0 0 0];

internalField   nonuniform List<scalar> 
16360
(
-1.367
0.000235039
-1.36726
0.000264295
-1.36754
0.000275599
-1.36782
0.000279936
-1.3681
0.000281255
-1.36838
0.000280965
-1.36866
0.000279627
-1.36894
0.00027746
-1.36921
0.000274555
-1.36948
0.000270917
-1.36975
0.000266524
-1.37001
0.00026131
-1.37027
0.000255188
-1.37051
0.000248023
-1.37075
0.0002397
-1.37098
0.00023003
-1.3712
0.000218811
-1.37141
0.000205819
-1.3716
0.000190772
-1.37177
0.000173329
-1.37193
0.000153098
-1.37206
0.000129641
-1.37216
0.000102462
-1.37223
7.08743e-05
-1.37226
3.40141e-05
-1.37225
-9.62853e-06
-1.37219
-6.23735e-05
-1.37207
-0.0001254
-1.37187
-0.000199101
-1.37158
-0.000284754
-1.3712
-0.000384088
-1.3707
-0.000499207
-1.37007
-0.000632609
-1.36928
-0.000787231
-1.36831
-0.000966522
-1.36714
-0.00117456
-1.36572
-0.00141616
-1.36402
-0.00169713
-1.362
-0.00202444
-1.35959
-0.00240668
-1.35674
-0.00285457
-1.35336
-0.00338177
-1.34935
-0.00400587
-1.3446
-0.00475057
-1.33895
-0.00565081
-1.33219
-0.00676057
-1.32404
-0.00815138
-1.31415
-0.00988961
-1.30206
-0.0120847
-0.0153296
-1.28673
-1.56493
0.000507692
-1.56517
0.000507251
-1.56541
0.000507447
-1.56564
0.000509574
-1.56586
0.000510163
-1.56609
0.000508992
-1.56632
0.00050623
-1.56654
0.000502031
-1.56677
0.000496463
-1.56698
0.000489534
-1.5672
0.000481166
-1.56741
0.000471222
-1.56761
0.000459545
-1.56781
0.000445895
-1.568
0.000430001
-1.56818
0.000411538
-1.56835
0.000390122
-1.56851
0.000365301
-1.56866
0.000336543
-1.56879
0.000303199
-1.5689
0.000264486
-1.56899
0.000219579
-1.56906
0.000167703
-1.56909
0.000107546
-1.5691
3.75413e-05
-1.56906
-4.41776e-05
-1.56898
-0.000139339
-1.56886
-0.000249707
-1.56868
-0.000377728
-1.56844
-0.000526097
-1.56813
-0.000697952
-1.56773
-0.000896955
-1.56723
-0.00112738
-1.56663
-0.00139422
-1.56589
-0.00170327
-1.565
-0.00206133
-1.56394
-0.00247637
-1.56268
-0.00295785
-1.56119
-0.00351701
-1.55943
-0.00416736
-1.55736
-0.00492543
-1.55493
-0.0058116
-1.55208
-0.00685141
-1.54876
-0.0080781
-1.54487
-0.00953813
-1.54033
-0.0112971
-1.53505
-0.0134372
-1.52888
-0.0160563
-1.52161
-0.0193507
-0.0237801
-1.51316
-1.60428
0.000335442
-1.60417
0.000397261
-1.60408
0.000420834
-1.604
0.000428225
-1.60392
0.000429076
-1.60383
0.000426441
-1.60375
0.000421402
-1.60366
0.000414354
-1.60357
0.000405409
-1.60348
0.000394527
-1.60338
0.000381593
-1.60327
0.000366413
-1.60316
0.000348713
-1.60304
0.00032818
-1.60292
0.000304404
-1.60278
0.000276907
-1.60264
0.000245145
-1.60248
0.000208482
-1.60231
0.000166123
-1.60212
0.000117169
-1.60192
6.04584e-05
-1.6017
-5.24379e-06
-1.60145
-8.18329e-05
-1.60117
-0.000171067
-1.60086
-0.000274564
-1.60051
-0.000394336
-1.60011
-0.00053285
-1.59967
-0.000693153
-1.59917
-0.000878722
-1.5986
-0.00109351
-1.59796
-0.00134209
-1.59722
-0.00162979
-1.59639
-0.00196275
-1.59543
-0.00234817
-1.59434
-0.00279439
-1.59309
-0.00331113
-1.59166
-0.00390978
-1.59001
-0.00460373
-1.58812
-0.0054088
-1.58595
-0.00634377
-1.58344
-0.00743117
-1.58055
-0.00869819
-1.57723
-0.010178
-1.57339
-0.0119122
-1.56898
-0.0139548
-1.5639
-0.0163752
-1.55808
-0.0192552
-1.55144
-0.0226941
-1.54392
-0.0268677
-0.0321305
-1.53557
-1.64922
0.000492083
-1.64925
0.000427752
-1.64923
0.000405613
-1.6492
0.000398666
-1.64917
0.000394314
-1.64913
0.000389186
-1.64909
0.000382315
-1.64905
0.000373404
-1.64901
0.000362332
-1.64896
0.000348942
-1.64891
0.000333019
-1.64886
0.000314312
-1.6488
0.000292478
-1.64874
0.000267081
-1.64868
0.000237619
-1.6486
0.000203478
-1.64852
0.000163955
-1.64843
0.000118305
-1.64833
6.54851e-05
-1.64822
4.37726e-06
-1.64809
-6.61761e-05
-1.64795
-0.00014768
-1.64779
-0.000241901
-1.64761
-0.000350738
-1.64741
-0.000476705
-1.64718
-0.000622493
-1.64692
-0.000791207
-1.64663
-0.000986506
-1.64629
-0.00121261
-1.64591
-0.00147437
-1.64548
-0.00177738
-1.64498
-0.00212814
-1.64441
-0.00253418
-1.64375
-0.00300419
-1.643
-0.00354829
-1.64213
-0.0041782
-1.64113
-0.00490761
-1.63998
-0.00575247
-1.63866
-0.00673147
-1.63714
-0.00786662
-1.63539
-0.0091839
-1.63337
-0.0107141
-1.63105
-0.0124942
-1.6284
-0.014569
-1.62536
-0.0169939
-1.6219
-0.019836
-1.61798
-0.0231718
-1.61358
-0.0270942
-1.60871
-0.0317414
-0.0373085
-1.60353
-1.63419
0.000165716
-1.63401
0.000247924
-1.63389
0.00027614
-1.63377
0.000282145
-1.63365
0.000280236
-1.63354
0.000274377
-1.63342
0.000265745
-1.6333
0.000254626
-1.63318
0.000240979
-1.63306
0.000224666
-1.63293
0.000205421
-1.6328
0.000182919
-1.63266
0.000156748
-1.63252
0.0001264
-1.63238
9.12676e-05
-1.63222
5.06e-05
-1.63206
3.59857e-06
-1.63189
-5.08333e-05
-1.63172
-0.000113847
-1.63152
-0.00018668
-1.63132
-0.000270862
-1.6311
-0.000368319
-1.63086
-0.000481053
-1.6306
-0.000611432
-1.63031
-0.000762264
-1.63
-0.000936749
-1.62965
-0.0011386
-1.62927
-0.00137214
-1.62884
-0.00164234
-1.62836
-0.00195495
-1.62782
-0.00231662
-1.62721
-0.00273507
-1.62652
-0.00321919
-1.62575
-0.00377927
-1.62487
-0.00442719
-1.62387
-0.00517673
-1.62274
-0.00604383
-1.62144
-0.00704698
-1.61997
-0.00820764
-1.61828
-0.0095508
-1.61636
-0.0111055
-1.61417
-0.0129057
-1.61167
-0.014991
-1.60883
-0.0174083
-1.60561
-0.020213
-1.60198
-0.0234696
-1.5979
-0.0272507
-1.59335
-0.0316403
-1.58835
-0.0367433
-0.042692
-1.58297
-1.64914
0.000376587
-1.64917
0.000279994
-1.64914
0.000243997
-1.64909
0.000230132
-1.64903
0.000221206
-1.64897
0.000212248
-1.64891
0.000201624
-1.64884
0.000188742
-1.64877
0.000173251
-1.6487
0.000154847
-1.64863
0.000133206
-1.64855
0.000107929
-1.64848
7.8552e-05
-1.64839
4.44597e-05
-1.64831
4.97373e-06
-1.64822
-4.0666e-05
-1.64812
-9.33903e-05
-1.64802
-0.000154331
-1.64791
-0.000224684
-1.64779
-0.000305985
-1.64766
-0.00039999
-1.64752
-0.000508732
-1.64736
-0.000634528
-1.64719
-0.000780079
-1.64701
-0.000948516
-1.6468
-0.00114345
-1.64657
-0.00136905
-1.64631
-0.00163013
-1.64602
-0.00193227
-1.6457
-0.00228191
-1.64533
-0.00268651
-1.64491
-0.00315468
-1.64443
-0.00369636
-1.64389
-0.00432303
-1.64327
-0.00504792
-1.64256
-0.00588627
-1.64174
-0.00685568
-1.64081
-0.00797643
-1.63975
-0.00927188
-1.63853
-0.0107689
-1.63714
-0.0124984
-1.63555
-0.0144957
-1.63374
-0.0168014
-1.63169
-0.0194618
-1.62937
-0.0225296
-1.62677
-0.0260637
-1.6239
-0.030128
-1.62075
-0.0347919
-1.61736
-0.0401319
-0.0462306
-1.61382
-1.64047
-5.93586e-06
-1.64029
9.13874e-05
-1.64016
0.000122544
-1.64006
0.000127191
-1.63996
0.000122779
-1.63986
0.000114083
-1.63976
0.00010242
-1.63966
8.8014e-05
-1.63956
7.07634e-05
-1.63946
5.03802e-05
-1.63935
2.6541e-05
-1.63924
-1.21916e-06
-1.63913
-3.34629e-05
-1.63901
-7.08251e-05
-1.6389
-0.000114039
-1.63877
-0.000163978
-1.63864
-0.000221746
-1.63851
-0.000288519
-1.63837
-0.000365669
-1.63822
-0.000454837
-1.63806
-0.000557925
-1.63789
-0.000677148
-1.63771
-0.000815055
-1.63752
-0.000974606
-1.63731
-0.00115923
-1.63708
-0.00137287
-1.63683
-0.0016201
-1.63655
-0.00190618
-1.63625
-0.00223721
-1.63591
-0.00262025
-1.63553
-0.00306345
-1.63511
-0.00357624
-1.63464
-0.00416946
-1.6341
-0.00485566
-1.6335
-0.00564925
-1.63282
-0.0065668
-1.63205
-0.0076274
-1.63117
-0.00885294
-1.63018
-0.0102685
-1.62904
-0.0119028
-1.62775
-0.0137885
-1.62629
-0.0159625
-1.62462
-0.0184666
-1.62274
-0.0213474
-1.62061
-0.0246565
-1.61822
-0.0284501
-1.61556
-0.032787
-1.61263
-0.037727
-1.60943
-0.0433287
-0.0496513
-1.60601
-1.64651
0.000239183
-1.64654
0.000129199
-1.64651
8.68611e-05
-1.64645
6.91438e-05
-1.64639
5.70939e-05
-1.64632
4.52018e-05
-1.64625
3.16413e-05
-1.64617
1.56781e-05
-1.6461
-3.11884e-06
-1.64602
-2.51143e-05
-1.64595
-5.07403e-05
-1.64587
-8.04885e-05
-1.64579
-0.000114959
-1.6457
-0.000154791
-1.64562
-0.000200815
-1.64553
-0.000253978
-1.64543
-0.000315389
-1.64533
-0.000386322
-1.64523
-0.000468263
-1.64512
-0.000562938
-1.64501
-0.000672363
-1.64489
-0.000798886
-1.64476
-0.000945225
-1.64462
-0.00111452
-1.64447
-0.0013104
-1.6443
-0.00153707
-1.64412
-0.00179937
-1.64393
-0.00210288
-1.64371
-0.00245408
-1.64347
-0.00286044
-1.6432
-0.00333061
-1.6429
-0.00387457
-1.64257
-0.00450381
-1.64219
-0.0052316
-1.64177
-0.00607314
-1.64129
-0.00704595
-1.64075
-0.00817008
-1.64013
-0.0094685
-1.63943
-0.0109674
-1.63864
-0.0126965
-1.63774
-0.0146896
-1.63672
-0.0169843
-1.63556
-0.0196227
-1.63426
-0.0226511
-1.63279
-0.0261197
-1.63116
-0.0300818
-1.62936
-0.0345918
-1.62738
-0.039702
-1.62525
-0.0454601
-0.0519113
-1.62299
-1.64273
-0.000158743
-1.64254
-5.67697e-05
-1.64243
-2.54574e-05
-1.64234
-2.22876e-05
-1.64225
-2.8683e-05
-1.64216
-3.95319e-05
-1.64208
-5.3426e-05
-1.64199
-7.01269e-05
-1.64191
-8.97852e-05
-1.64182
-0.000112724
-1.64173
-0.000139375
-1.64164
-0.000170243
-1.64155
-0.000205926
-1.64146
-0.000247142
-1.64136
-0.000294723
-1.64127
-0.000349666
-1.64117
-0.000413121
-1.64107
-0.000486413
-1.64097
-0.000571085
-1.64086
-0.000668933
-1.64075
-0.000782053
-1.64064
-0.000912876
-1.64052
-0.00106422
-1.64039
-0.00123935
-1.64026
-0.00144204
-1.64012
-0.00167666
-1.63997
-0.00194824
-1.63981
-0.0022626
-1.63964
-0.00262645
-1.63946
-0.00304757
-1.63925
-0.00353497
-1.63903
-0.00409903
-1.63878
-0.0047517
-1.6385
-0.00550677
-1.6382
-0.00638007
-1.63785
-0.00738979
-1.63747
-0.00855678
-1.63703
-0.00990485
-1.63654
-0.0114611
-1.63598
-0.0132564
-1.63534
-0.0153253
-1.63462
-0.0177065
-1.6338
-0.0204429
-1.63287
-0.0235812
-1.63182
-0.0271716
-1.63063
-0.0312665
-1.6293
-0.0359186
-1.62783
-0.0411773
-1.6262
-0.0470851
-0.0536809
-1.62443
-1.64394
9.39625e-05
-1.64398
-1.8303e-05
-1.64394
-6.2587e-05
-1.64388
-8.2277e-05
-1.64381
-9.63023e-05
-1.64374
-0.000110133
-1.64367
-0.000125598
-1.6436
-0.000143432
-1.64352
-0.000164098
-1.64345
-0.000188007
-1.64337
-0.000215623
-1.6433
-0.000247481
-1.64322
-0.000284193
-1.64314
-0.000326496
-1.64306
-0.000375253
-1.64298
-0.000431461
-1.64289
-0.00049629
-1.64281
-0.000571097
-1.64272
-0.000657449
-1.64263
-0.000757174
-1.64254
-0.000872397
-1.64245
-0.00100558
-1.64235
-0.00115958
-1.64226
-0.00133773
-1.64215
-0.00154386
-1.64205
-0.00178238
-1.64194
-0.00205842
-1.64182
-0.00237788
-1.6417
-0.00274759
-1.64157
-0.00317546
-1.64144
-0.00367061
-1.64129
-0.00424362
-1.64114
-0.00490665
-1.64097
-0.00567374
-1.64079
-0.00656101
-1.64059
-0.00758702
-1.64038
-0.00877302
-1.64014
-0.0101434
-1.63987
-0.0117258
-1.63958
-0.0135517
-1.63925
-0.0156567
-1.63887
-0.0180804
-1.63845
-0.0208667
-1.63797
-0.0240635
-1.63742
-0.0277223
-1.63679
-0.0318968
-1.63606
-0.0366408
-1.63524
-0.0420047
-1.63429
-0.0480318
-0.0547578
-1.63321
-1.64391
-0.000292532
-1.64373
-0.000193533
-1.64363
-0.000164383
-1.64355
-0.00016294
-1.64348
-0.00017087
-1.6434
-0.000183099
-1.64333
-0.000198229
-1.64326
-0.000216028
-1.64319
-0.000236663
-1.64311
-0.000260463
-1.64304
-0.000287865
-1.64297
-0.000319388
-1.6429
-0.000355658
-1.64283
-0.000397396
-1.64276
-0.000445458
-1.64269
-0.000500844
-1.64262
-0.00056471
-1.64255
-0.000638397
-1.64249
-0.000723466
-1.64242
-0.000821726
-1.64236
-0.000935281
-1.6423
-0.00106658
-1.64224
-0.00121847
-1.64218
-0.00139422
-1.64213
-0.00159766
-1.64208
-0.00183318
-1.64203
-0.00210585
-1.64199
-0.00242155
-1.64195
-0.00278708
-1.64191
-0.00321029
-1.64188
-0.00370028
-1.64186
-0.00426758
-1.64184
-0.00492431
-1.64183
-0.00568449
-1.64183
-0.00656425
-1.64183
-0.00758214
-1.64185
-0.00875949
-1.64187
-0.0101208
-1.6419
-0.0116939
-1.64194
-0.0135107
-1.64199
-0.0156071
-1.64205
-0.0180236
-1.64211
-0.0208052
-1.64217
-0.0240012
-1.64223
-0.027665
-1.64227
-0.0318527
-1.64229
-0.0366214
-1.64227
-0.0420253
-1.64219
-0.0481113
-0.0549205
-1.64203
-1.64083
-5.12491e-05
-1.64086
-0.000158983
-1.64082
-0.00020252
-1.64076
-0.000222962
-1.6407
-0.000238028
-1.64063
-0.000252832
-1.64056
-0.000269059
-1.64049
-0.000287423
-1.64041
-0.000308353
-1.64034
-0.000332267
-1.64027
-0.000359619
-1.6402
-0.000390938
-1.64013
-0.000426833
-1.64006
-0.000468016
-1.63999
-0.000515327
-1.63992
-0.000569743
-1.63985
-0.000632388
-1.63978
-0.000704574
-1.63972
-0.000787824
-1.63966
-0.000883905
-1.6396
-0.000994868
-1.63954
-0.0011231
-1.63949
-0.00127136
-1.63944
-0.00144287
-1.6394
-0.00164134
-1.63936
-0.00187106
-1.63933
-0.00213698
-1.6393
-0.00244485
-1.63929
-0.00280129
-1.63929
-0.003214
-1.63929
-0.00369187
-1.63932
-0.00424522
-1.63936
-0.00488595
-1.63941
-0.00562783
-1.63949
-0.00648675
-1.63959
-0.00748105
-1.63972
-0.0086319
-1.63987
-0.00996363
-1.64006
-0.0115043
-1.64029
-0.0132859
-1.64055
-0.015345
-1.64085
-0.0177233
-1.64119
-0.0204676
-1.64156
-0.0236301
-1.64196
-0.0272683
-1.64237
-0.0314439
-1.64277
-0.0362216
-1.64312
-0.0416666
-1.6434
-0.0478386
-0.0547821
-1.64354
-1.64494
-0.000403781
-1.64478
-0.000314695
-1.64469
-0.000290091
-1.64463
-0.000290826
-1.64456
-0.000300015
-1.6445
-0.000312971
-1.64444
-0.000328407
-1.64439
-0.000346111
-1.64433
-0.000366263
-1.64427
-0.000389178
-1.64421
-0.000415272
-1.64416
-0.000445036
-1.64411
-0.000479053
-1.64406
-0.000518009
-1.64401
-0.000562688
-1.64397
-0.000614008
-1.64393
-0.000673039
-1.64389
-0.000741019
-1.64386
-0.000819387
-1.64383
-0.000909807
-1.64381
-0.00101421
-1.6438
-0.00113486
-1.6438
-0.00127436
-1.64381
-0.00143573
-1.64382
-0.0016225
-1.64386
-0.0018387
-1.6439
-0.00208903
-1.64397
-0.0023789
-1.64406
-0.00271459
-1.64417
-0.0031034
-1.64431
-0.00355375
-1.64448
-0.00407542
-1.64468
-0.00467975
-1.64493
-0.00537985
-1.64523
-0.00619092
-1.64558
-0.00713055
-1.64599
-0.00821912
-1.64647
-0.00948024
-1.64704
-0.0109412
-1.64769
-0.0126336
-1.64844
-0.0145938
-1.6493
-0.0168637
-1.65028
-0.019491
-1.65137
-0.0225303
-1.6526
-0.0260427
-1.65395
-0.0300954
-1.65541
-0.0347611
-1.65696
-0.0401169
-1.65856
-0.0462377
-0.0531898
-1.66015
-1.63585
-0.000195392
-1.63587
-0.000292164
-1.63583
-0.000332746
-1.63577
-0.000353184
-1.6357
-0.000368718
-1.63563
-0.000383748
-1.63556
-0.000399774
-1.63548
-0.000417443
-1.63541
-0.000437161
-1.63534
-0.00045932
-1.63527
-0.000484345
-1.63521
-0.000512705
-1.63514
-0.000544946
-1.63508
-0.000581702
-1.63502
-0.000623712
-1.63496
-0.000671827
-1.6349
-0.000727047
-1.63486
-0.000790526
-1.63481
-0.000863598
-1.63477
-0.000947815
-1.63474
-0.00104499
-1.63472
-0.00115721
-1.63471
-0.00128691
-1.63471
-0.00143691
-1.63472
-0.0016105
-1.63475
-0.00181145
-1.63479
-0.00204415
-1.63486
-0.00231367
-1.63494
-0.00262589
-1.63506
-0.00298761
-1.63521
-0.00340677
-1.63539
-0.00389256
-1.63561
-0.00445564
-1.63589
-0.00510842
-1.63621
-0.00586529
-1.6366
-0.00674301
-1.63706
-0.00776108
-1.63759
-0.00894226
-1.63822
-0.0103131
-1.63895
-0.0119046
-1.63979
-0.0137531
-1.64076
-0.0159008
-1.64185
-0.0183973
-1.64308
-0.0213005
-1.64444
-0.0246776
-1.64593
-0.0286047
-1.64753
-0.0331685
-1.64918
-0.0384691
-1.6508
-0.0446167
-0.0517004
-1.65229
-1.6464
-0.000481404
-1.64628
-0.000412258
-1.64622
-0.000396142
-1.64617
-0.000400125
-1.64613
-0.000410474
-1.64609
-0.000423465
-1.64605
-0.000438146
-1.64602
-0.000454431
-1.64598
-0.000472522
-1.64595
-0.000492729
-1.64592
-0.000515412
-1.64589
-0.000540996
-1.64586
-0.000569976
-1.64584
-0.000602915
-1.64582
-0.00064047
-1.64581
-0.000683405
-1.64581
-0.000732603
-1.64581
-0.000789085
-1.64582
-0.000854037
-1.64584
-0.000928841
-1.64587
-0.00101509
-1.64591
-0.00111465
-1.64597
-0.00122966
-1.64604
-0.00136264
-1.64613
-0.00151647
-1.64625
-0.00169452
-1.6464
-0.00190066
-1.64657
-0.00213938
-1.64678
-0.0024159
-1.64703
-0.00273626
-1.64733
-0.00310748
-1.64769
-0.00353774
-1.6481
-0.00403653
-1.6486
-0.00461492
-1.64918
-0.00528578
-1.64986
-0.00606419
-1.65065
-0.00696778
-1.65157
-0.00801726
-1.65265
-0.00923705
-1.6539
-0.010656
-1.65534
-0.0123082
-1.65701
-0.0142345
-1.65892
-0.0164835
-1.66111
-0.0191142
-1.66359
-0.0221973
-1.66638
-0.0258157
-1.66948
-0.0300669
-1.67288
-0.035071
-1.67652
-0.0409765
-0.047937
-1.68028
-1.62398
-0.000335626
-1.62397
-0.000417169
-1.62391
-0.000453142
-1.62384
-0.000473042
-1.62376
-0.000488399
-1.62368
-0.000502788
-1.6236
-0.00051754
-1.62353
-0.000533255
-1.62345
-0.000550333
-1.62337
-0.000569106
-1.6233
-0.000589918
-1.62322
-0.000613157
-1.62316
-0.000639246
-1.62309
-0.000668672
-1.62303
-0.000702004
-1.62297
-0.000739901
-1.62292
-0.000783124
-1.62288
-0.00083256
-1.62284
-0.00088924
-1.62282
-0.000954355
-1.6228
-0.00102929
-1.6228
-0.00111566
-1.62282
-0.00121534
-1.62285
-0.00133051
-1.6229
-0.00146369
-1.62298
-0.00161781
-1.62308
-0.00179625
-1.62322
-0.00200295
-1.62339
-0.00224245
-1.62361
-0.00252007
-1.62387
-0.00284196
-1.6242
-0.00321531
-1.62458
-0.0036485
-1.62505
-0.00415133
-1.6256
-0.00473528
-1.62625
-0.00541381
-1.62701
-0.00620283
-1.62791
-0.00712118
-1.62896
-0.00819132
-1.63017
-0.00944019
-1.63158
-0.0109003
-1.6332
-0.012611
-1.63506
-0.0146209
-1.63719
-0.0169906
-1.63959
-0.0197962
-1.64227
-0.0231307
-1.64524
-0.027105
-1.64844
-0.0318668
-1.65178
-0.0376367
-0.0446706
-1.65505
-1.64164
-0.000484707
-1.64161
-0.000451109
-1.64161
-0.000447926
-1.64163
-0.000455202
-1.64165
-0.000465168
-1.64168
-0.000476086
-1.64171
-0.000487675
-1.64174
-0.000500071
-1.64178
-0.000513498
-1.64182
-0.000528214
-1.64186
-0.000544502
-1.64191
-0.000562663
-1.64197
-0.000583043
-1.64203
-0.000606039
-1.6421
-0.000632105
-1.64218
-0.000661767
-1.64227
-0.000695632
-1.64237
-0.000734403
-1.64248
-0.000778896
-1.6426
-0.000830055
-1.64274
-0.000888984
-1.6429
-0.000956961
-1.64308
-0.00103547
-1.64329
-0.00112622
-1.64352
-0.00123121
-1.64378
-0.00135276
-1.64409
-0.00149353
-1.64443
-0.00165662
-1.64483
-0.00184564
-1.64528
-0.00206477
-1.64581
-0.00231887
-1.64641
-0.00261363
-1.6471
-0.0029557
-1.6479
-0.00335284
-1.64882
-0.00381417
-1.64988
-0.00435047
-1.65111
-0.00497448
-1.65253
-0.00570142
-1.65417
-0.00654954
-1.65607
-0.00754101
-1.65827
-0.00870291
-1.66081
-0.0100687
-1.66375
-0.0116803
-1.66715
-0.0135917
-1.67107
-0.0158747
-1.67558
-0.0186217
-1.68074
-0.021945
-1.68661
-0.0259978
-1.69319
-0.0310603
-0.0375964
-1.70026
-1.56382
-0.000391749
-1.56381
-0.000466923
-1.56376
-0.000493475
-1.56371
-0.000508281
-1.56366
-0.000519352
-1.5636
-0.000529411
-1.56355
-0.000539417
-1.5635
-0.000549799
-1.56345
-0.000560822
-1.56341
-0.000572704
-1.56337
-0.000585659
-1.56333
-0.000599906
-1.5633
-0.000615695
-1.56327
-0.000633308
-1.56325
-0.000653069
-1.56324
-0.000675348
-1.56323
-0.000700579
-1.56324
-0.000729269
-1.56325
-0.000761998
-1.56328
-0.000799446
-1.56333
-0.000842404
-1.5634
-0.000891784
-1.56348
-0.000948646
-1.56359
-0.00101423
-1.56374
-0.00108997
-1.56391
-0.00117752
-1.56413
-0.00127882
-1.56439
-0.00139607
-1.5647
-0.00153188
-1.56508
-0.00168925
-1.56552
-0.0018717
-1.56605
-0.00208332
-1.56668
-0.00232892
-1.56742
-0.00261411
-1.56829
-0.00294552
-1.56931
-0.00333098
-1.5705
-0.00377985
-1.5719
-0.00430334
-1.57353
-0.00491507
-1.57544
-0.0056318
-1.57767
-0.00647446
-1.58027
-0.00746953
-1.5833
-0.00865117
-1.58683
-0.0100653
-1.59092
-0.0117777
-1.59566
-0.0138819
-1.60111
-0.0164978
-1.60733
-0.0197812
-1.61433
-0.0240622
-0.0300886
-1.62183
-1.52226
-0.000106952
-1.52267
-5.79172e-05
-1.52311
-5.00835e-05
-1.52357
-4.98465e-05
-1.52404
-5.17837e-05
-1.52451
-5.43001e-05
-1.525
-5.70817e-05
-1.52549
-6.0126e-05
-1.52598
-6.35151e-05
-1.52649
-6.73546e-05
-1.527
-7.1753e-05
-1.52753
-7.68284e-05
-1.52806
-8.27193e-05
-1.5286
-8.9579e-05
-1.52916
-9.75755e-05
-1.52973
-0.000106907
-1.53031
-0.000117807
-1.53091
-0.000130537
-1.53152
-0.000145404
-1.53216
-0.000162766
-1.53282
-0.00018303
-1.5335
-0.00020667
-1.53422
-0.000234246
-1.53497
-0.000266397
-1.53575
-0.000303868
-1.53658
-0.000347521
-1.53746
-0.000398356
-1.5384
-0.000457537
-1.53941
-0.000526403
-1.54049
-0.000606534
-1.54166
-0.000699766
-1.54294
-0.000808255
-1.54433
-0.000934526
-1.54586
-0.00108155
-1.54756
-0.00125285
-1.54944
-0.00145264
-1.55153
-0.00168595
-1.55387
-0.00195892
-1.55651
-0.00227908
-1.55949
-0.00265589
-1.56286
-0.00310142
-1.5667
-0.00363137
-1.57108
-0.00426658
-1.57611
-0.00503604
-1.5819
-0.00598359
-1.58861
-0.00717714
-1.5964
-0.0087075
-1.60551
-0.0106704
-1.61632
-0.0132506
-0.0172585
-1.62915
-1.22631
-1.22637
-1.22642
-1.22647
-1.22652
-1.22658
-1.22664
-1.2267
-1.22676
-1.22683
-1.2269
-1.22698
-1.22706
-1.22715
-1.22725
-1.22735
-1.22747
-1.2276
-1.22775
-1.22791
-1.22809
-1.2283
-1.22853
-1.2288
-1.2291
-1.22945
-1.22985
-1.23031
-1.23083
-1.23144
-1.23214
-1.23295
-1.23388
-1.23496
-1.23622
-1.23767
-1.23935
-1.24131
-1.24359
-1.24625
-1.24935
-1.25298
-1.25725
-1.26228
-1.26827
-1.27544
-1.28415
-1.29482
-1.30807
-1.32533
1.62587
-0.0342503
1.638
-0.0121355
1.64684
-0.00884029
1.65127
-0.00442687
1.65285
-0.00157532
1.65295
-9.99137e-05
1.65225
0.000691757
1.65109
0.0011602
1.64965
0.00144637
1.64803
0.00161865
1.64631
0.00171991
1.64453
0.00177719
1.64272
0.00180655
1.64091
0.00181747
1.63909
0.0018158
1.63729
0.00180524
1.6355
0.00178819
1.63373
0.00176619
1.63199
0.00174022
1.63028
0.00171085
1.6286
0.0016784
1.62696
0.00164296
1.62536
0.00160445
1.62379
0.00156266
1.62228
0.00151723
1.62081
0.00146768
1.61939
0.00141337
1.61804
0.00135349
1.61675
0.00128705
1.61554
0.00121302
1.61441
0.00113019
1.61337
0.00103708
1.61244
0.000932104
1.61163
0.000811958
1.61096
0.000674198
1.61044
0.000515689
1.61011
0.000332746
1.60999
0.000121219
1.61011
-0.000124564
1.61052
-0.000412808
1.61128
-0.000753728
1.61244
-0.00116011
1.61409
-0.0016492
1.61633
-0.0022455
1.61932
-0.00298575
1.62325
-0.00392877
1.62842
-0.00517649
1.63534
-0.00692132
1.64491
-0.00956264
-0.0139725
1.65888
1.57532
-0.0179538
1.5719
-0.00871311
1.5662
-0.00314235
1.56319
-0.00141607
1.56174
-0.000122083
1.56096
0.000679088
1.56059
0.00105609
1.56052
0.00122979
1.56066
0.00131269
1.56093
0.00134637
1.5613
0.00135176
1.56173
0.0013418
1.56222
0.00132378
1.56273
0.00130138
1.56327
0.00127632
1.56383
0.00124941
1.56439
0.00122088
1.56497
0.00119065
1.56555
0.00115841
1.56614
0.00112372
1.56673
0.00108599
1.56733
0.00104452
1.56794
0.000998512
1.56855
0.000946997
1.56918
0.000888894
1.56982
0.000822962
1.57049
0.000747707
1.57118
0.000661206
1.57191
0.000561135
1.57268
0.000445405
1.57349
0.000311628
1.57438
0.000156215
1.57533
-2.50274e-05
1.57638
-0.000236557
1.57754
-0.000483476
1.57883
-0.000772135
1.58027
-0.00111025
1.5819
-0.00150715
1.58375
-0.00197506
1.58586
-0.00252892
1.5883
-0.00318683
1.59111
-0.00397263
1.59438
-0.00491793
1.5982
-0.00606597
1.60269
-0.00747795
1.60801
-0.00924388
1.61433
-0.0115012
1.62188
-0.0144665
1.6308
-0.0184888
-0.0241166
1.64095
1.57763
-0.00396706
1.573
-0.00408444
1.57217
-0.0023067
1.57223
-0.00147744
1.57309
-0.000986115
1.57428
-0.000505356
1.57545
-0.000120733
1.57653
0.000154715
1.57748
0.000356299
1.57832
0.000506552
1.57906
0.000617231
1.5797
0.000697234
1.58027
0.000753718
1.58078
0.000791939
1.58124
0.000815595
1.58167
0.000827276
1.58206
0.000828761
1.58243
0.000821203
1.58278
0.000805259
1.58312
0.000781177
1.58346
0.000748867
1.5838
0.000707926
1.58414
0.000657657
1.58449
0.000597064
1.58485
0.000524946
1.58523
0.000439866
1.58564
0.000340071
1.58608
0.000222905
1.58656
8.52019e-05
1.58708
-7.63537e-05
1.58766
-0.000265742
1.5883
-0.000487694
1.58902
-0.000747851
1.58984
-0.00105177
1.59076
-0.00140762
1.59181
-0.00182473
1.59302
-0.0023143
1.5944
-0.00288994
1.59599
-0.00356843
1.59784
-0.00437028
1.59997
-0.00532078
1.60245
-0.00645206
1.60534
-0.00780561
1.60871
-0.00943612
1.61265
-0.0114171
1.61725
-0.0138497
1.62263
-0.0168748
1.62885
-0.0206904
1.63593
-0.0255712
-0.031875
1.64369
1.59001
-0.00235616
1.58927
-0.00334352
1.58952
-0.00256461
1.58974
-0.00169121
1.5898
-0.0010454
1.58979
-0.000497366
1.58972
-4.93328e-05
1.58959
0.000279733
1.58944
0.000508579
1.58928
0.000665083
1.58913
0.000768948
1.58899
0.00083385
1.58888
0.000870038
1.58878
0.00088502
1.58872
0.000884014
1.58867
0.000870519
1.58865
0.000846789
1.58866
0.000814158
1.58869
0.000773264
1.58875
0.000724196
1.58883
0.000666603
1.58894
0.000599729
1.58908
0.00052242
1.58924
0.000433016
1.58943
0.000329775
1.58966
0.000210765
1.58993
7.32071e-05
1.59024
-8.5961e-05
1.59059
-0.000270217
1.591
-0.000484174
1.59147
-0.00073344
1.59201
-0.00102398
1.59262
-0.00136284
1.59333
-0.00175819
1.59414
-0.0022201
1.59508
-0.00276049
1.59616
-0.00339356
1.5974
-0.00413634
1.59884
-0.00500941
1.60051
-0.00603773
1.60244
-0.00725182
1.60468
-0.00868944
1.60727
-0.0103979
1.61027
-0.0124371
1.61374
-0.0148836
1.61773
-0.0178362
1.62227
-0.0214219
1.62738
-0.0258022
1.63299
-0.0311734
-0.0377524
1.63886
1.59022
-0.000962948
1.58845
-0.00156479
1.58719
-0.00131341
1.58635
-0.000847213
1.58579
-0.000487575
1.5855
-0.000208633
1.58543
2.06002e-05
1.58552
0.000196859
1.5857
0.000323297
1.58596
0.000411521
1.58625
0.000471509
1.58658
0.000509803
1.58692
0.000531029
1.58726
0.000538612
1.58761
0.00053493
1.58796
0.000521489
1.58831
0.000499121
1.58865
0.000468135
1.589
0.000428405
1.58934
0.000379445
1.58969
0.000320466
1.59004
0.000250344
1.59039
0.000167689
1.59076
7.02794e-05
1.59113
-4.41003e-05
1.59152
-0.000178219
1.59193
-0.000335376
1.59236
-0.000519051
1.59282
-0.000733376
1.59332
-0.000983784
1.59387
-0.00127655
1.59446
-0.00161884
1.59512
-0.00201909
1.59585
-0.0024872
1.59666
-0.00303494
1.59758
-0.00367625
1.59861
-0.00442767
1.59978
-0.00530888
1.60112
-0.00634335
1.60264
-0.00755926
1.60438
-0.00899046
1.60637
-0.0106779
1.60864
-0.0126715
1.61124
-0.0150321
1.61419
-0.0178342
1.61752
-0.0211686
1.62124
-0.0251447
1.62533
-0.0298906
1.62971
-0.0355492
-0.0422645
1.63422
1.59117
-0.000510711
1.59055
-0.000953501
1.59023
-0.000991616
1.59019
-0.000810035
1.5903
-0.000595252
1.59048
-0.000391095
1.5907
-0.000198769
1.59093
-2.90594e-05
1.59114
0.000109532
1.59134
0.000216894
1.59151
0.000296727
1.59167
0.000352868
1.59181
0.000388703
1.59194
0.000407194
1.59207
0.000410756
1.59219
0.000401175
1.59231
0.000379625
1.59243
0.000346721
1.59256
0.000302584
1.59269
0.000246854
1.59283
0.000178912
1.59298
9.76003e-05
1.59315
1.38274e-06
1.59333
-0.000111576
1.59353
-0.00024387
1.59375
-0.000398764
1.594
-0.000579773
1.59427
-0.00079101
1.59457
-0.00103739
1.59491
-0.00132487
1.5953
-0.00166047
1.59573
-0.00205233
1.59622
-0.00251002
1.59678
-0.00304473
1.59741
-0.00366966
1.59814
-0.00440038
1.59896
-0.00525524
1.59991
-0.00625586
1.601
-0.00742781
1.60224
-0.00880133
1.60366
-0.0104122
1.60528
-0.0123028
1.60714
-0.0145234
1.60924
-0.0171332
1.61161
-0.0202022
1.61425
-0.0238111
1.61716
-0.0280521
1.62029
-0.0330257
1.62358
-0.0388346
-0.0455709
1.62688
1.59137
-0.000263459
1.59094
-0.000521155
1.59052
-0.000578525
1.5902
-0.000485057
1.58995
-0.000341073
1.58975
-0.000197469
1.58962
-6.71171e-05
1.58955
4.35207e-05
1.58953
0.000129944
1.58955
0.000192095
1.58962
0.000232849
1.58971
0.000255549
1.58984
0.000263054
1.58999
0.00025765
1.59016
0.000241052
1.59034
0.000214387
1.59055
0.000178229
1.59076
0.000132604
1.59099
7.71363e-05
1.59122
1.10143e-05
1.59147
-6.69947e-05
1.59172
-0.000158472
1.59199
-0.000265506
1.59227
-0.000390211
1.59256
-0.000535571
1.59287
-0.000705097
1.59319
-0.000902809
1.59353
-0.00113341
1.5939
-0.00140242
1.59429
-0.00171637
1.59471
-0.0020829
1.59517
-0.00251095
1.59567
-0.00301095
1.59622
-0.00359509
1.59683
-0.00427767
1.5975
-0.00507544
1.59826
-0.00600803
1.5991
-0.00709839
1.60005
-0.0083734
1.60111
-0.00986448
1.6023
-0.0116083
1.60365
-0.0136474
1.60516
-0.0160311
1.60684
-0.0188163
1.60871
-0.0220672
1.61075
-0.0258557
1.61296
-0.0302599
1.61529
-0.0353606
1.61769
-0.0412364
-0.0479563
1.62008
1.59149
-0.000139589
1.59126
-0.000290016
1.59103
-0.000348183
1.59087
-0.00032339
1.59079
-0.000259406
1.59078
-0.000187535
1.59083
-0.000118935
1.59093
-5.78831e-05
1.59107
-7.64909e-06
1.59123
3.02176e-05
1.59141
5.59128e-05
1.59159
7.03091e-05
1.59178
7.42529e-05
1.59197
6.83953e-05
1.59216
5.31592e-05
1.59235
2.86985e-05
1.59253
-5.12605e-06
1.59271
-4.87464e-05
1.59289
-0.000102908
1.59307
-0.000168622
1.59325
-0.000247376
1.59343
-0.000340926
1.59362
-0.00045139
1.59381
-0.000581247
1.59401
-0.000733561
1.59421
-0.000911977
1.59443
-0.00112075
1.59466
-0.00136486
1.59491
-0.00165015
1.59518
-0.00198348
1.59547
-0.0023729
1.59579
-0.00282781
1.59613
-0.0033592
1.59652
-0.0039799
1.59695
-0.00470488
1.59742
-0.00555164
1.59795
-0.00654055
1.59855
-0.00769534
1.59922
-0.00904355
1.59997
-0.0106171
1.60082
-0.0124526
1.60176
-0.0145923
1.60282
-0.0170841
1.60398
-0.0199818
1.60526
-0.0233448
1.60664
-0.0272376
1.60811
-0.0317272
1.60963
-0.0368803
1.61115
-0.0427577
-0.0494078
1.6126
1.59154
-6.24988e-05
1.59138
-0.000133405
1.5912
-0.000166841
1.59104
-0.00016264
1.59092
-0.000137012
1.59084
-0.000104998
1.59079
-7.39645e-05
1.59078
-4.72646e-05
1.5908
-2.72206e-05
1.59085
-1.52041e-05
1.59091
-1.15595e-05
1.591
-1.60801e-05
1.5911
-2.84573e-05
1.59122
-4.84712e-05
1.59135
-7.60645e-05
1.59149
-0.000111397
1.59164
-0.000154882
1.5918
-0.000207163
1.59196
-0.000269194
1.59214
-0.000342227
1.59232
-0.000427863
1.5925
-0.000528031
1.5927
-0.000645034
1.5929
-0.000781596
1.59311
-0.000940952
1.59332
-0.00112692
1.59354
-0.00134397
1.59378
-0.00159731
1.59402
-0.00189304
1.59427
-0.00223829
1.59454
-0.00264139
1.59483
-0.00311205
1.59513
-0.0036616
1.59545
-0.00430323
1.5958
-0.0050523
1.59617
-0.00592667
1.59658
-0.00694708
1.59702
-0.00813753
1.59751
-0.00952575
1.59803
-0.0111436
1.59861
-0.0130274
1.59923
-0.0152186
1.59991
-0.0177634
1.60064
-0.0207131
1.60142
-0.0241235
1.60224
-0.0280533
1.60307
-0.0325627
1.6039
-0.0377098
1.60469
-0.0435466
-0.050116
1.6054
1.59156
-5.03059e-06
1.59144
-1.25244e-05
1.59129
-2.03019e-05
1.59116