/*--------------------------------*- C++ -*----------------------------------*\
  =========                 |
  \\      /  F ield         | OpenFOAM: The Open Source CFD Toolbox
   \\    /   O peration     | Website:  https://openfoam.org
    \\  /    A nd           | Version:  8
     \\/     M anipulation  |
\*---------------------------------------------------------------------------*/
FoamFile
{
    version     2.0;
    format      ascii;
    class       volScalarField;
    location    "400";
    object      T;
}
// * * * * * * * * * * * * * * * * * * * * * * * * * * * * * * * * * * * * * //

dimensions      [0 0 0 1 0 0 0];

internalField   nonuniform List<scalar> 
8400
(
294.898
294.993
295.092
295.193
295.298
295.405
295.515
295.628
295.743
295.86
295.981
296.103
296.228
296.355
296.484
296.615
296.748
296.882
297.018
297.155
297.293
297.432
297.573
297.713
297.855
297.996
298.138
298.28
298.421
298.562
298.703
298.843
298.981
299.119
299.256
299.391
299.524
299.656
299.786
299.914
300.039
300.163
300.283
300.402
300.517
300.63
300.74
300.847
300.951
301.052
295.045
295.141
295.24
295.342
295.447
295.555
295.666
295.779
295.895
296.013
296.134
296.257
296.383
296.51
296.64
296.771
296.904
297.039
297.175
297.312
297.45
297.59
297.73
297.871
298.012
298.154
298.296
298.437
298.579
298.72
298.86
298.999
299.138
299.275
299.411
299.546
299.679
299.81
299.94
300.067
300.192
300.315
300.435
300.553
300.669
300.781
300.891
300.997
301.101
301.202
295.123
295.22
295.32
295.423
295.529
295.638
295.749
295.863
295.98
296.099
296.22
296.344
296.47
296.598
296.728
296.86
296.993
297.128
297.264
297.402
297.541
297.68
297.821
297.961
298.103
298.244
298.386
298.527
298.668
298.809
298.949
299.088
299.226
299.363
299.499
299.633
299.765
299.896
300.025
300.152
300.276
300.398
300.518
300.636
300.75
300.862
300.972
301.078
301.182
301.282
295.151
295.249
295.35
295.453
295.56
295.669
295.781
295.895
296.012
296.132
296.254
296.378
296.504
296.632
296.763
296.895
297.028
297.164
297.3
297.438
297.577
297.716
297.857
297.997
298.139
298.28
298.422
298.563
298.704
298.844
298.984
299.123
299.261
299.398
299.533
299.667
299.8
299.93
300.059
300.185
300.309
300.431
300.551
300.668
300.783
300.894
301.003
301.11
301.213
301.314
295.159
295.257
295.358
295.461
295.568
295.677
295.789
295.904
296.021
296.141
296.263
296.387
296.513
296.642
296.772
296.904
297.038
297.173
297.31
297.447
297.586
297.726
297.866
298.007
298.148
298.29
298.431
298.573
298.714
298.854
298.994
299.133
299.271
299.407
299.543
299.677
299.809
299.939
300.068
300.194
300.319
300.441
300.56
300.677
300.792
300.904
301.013
301.119
301.223
301.323
295.165
295.263
295.364
295.468
295.575
295.684
295.796
295.911
296.028
296.148
296.27
296.394
296.521
296.649
296.779
296.912
297.045
297.181
297.317
297.455
297.594
297.733
297.874
298.015
298.156
298.297
298.439
298.58
298.721
298.862
299.001
299.14
299.278
299.415
299.55
299.684
299.816
299.947
300.075
300.201
300.326
300.448
300.567
300.684
300.799
300.91
301.02
301.126
301.229
301.33
295.167
295.265
295.366
295.47
295.576
295.686
295.798
295.913
296.03
296.15
296.272
296.396
296.522
296.651
296.781
296.913
297.047
297.182
297.319
297.457
297.596
297.735
297.876
298.017
298.158
298.299
298.441
298.582
298.723
298.864
299.003
299.142
299.28
299.417
299.552
299.686
299.818
299.948
300.077
300.203
300.328
300.45
300.569
300.686
300.801
300.913
301.022
301.128
301.232
301.333
295.169
295.268
295.369
295.473
295.58
295.689
295.801
295.916
296.033
296.153
296.275
296.399
296.526
296.654
296.785
296.917
297.051
297.186
297.323
297.46
297.599
297.739
297.879
298.02
298.162
298.303
298.445
298.586
298.727
298.867
299.007
299.146
299.284
299.42
299.556
299.69
299.822
299.952
300.081
300.207
300.331
300.453
300.573
300.69
300.804
300.916
301.025
301.132
301.236
301.336
295.17
295.268
295.37
295.474
295.58
295.69
295.802
295.917
296.034
296.154
296.276
296.4
296.527
296.655
296.786
296.918
297.052
297.187
297.324
297.462
297.601
297.74
297.881
298.022
298.163
298.304
298.446
298.587
298.728
298.869
299.008
299.147
299.285
299.422
299.557
299.691
299.823
299.954
300.082
300.209
300.333
300.455
300.574
300.692
300.806
300.918
301.027
301.134
301.238
301.339
295.17
295.268
295.369
295.473
295.58
295.689
295.801
295.916
296.033
296.153
296.275
296.4
296.526
296.655
296.785
296.917
297.051
297.186
297.323
297.461
297.6
297.74
297.88
298.021
298.162
298.304
298.445
298.587
298.728
298.868
299.008
299.147
299.285
299.422
299.557
299.691
299.823
299.954
300.082
300.209
300.333
300.455
300.575
300.692
300.807
300.919
301.028
301.135
301.238
301.339
295.166
295.264
295.365
295.469
295.576
295.685
295.798
295.912
296.029
296.149
296.271
296.396
296.522
296.651
296.781
296.913
297.047
297.182
297.319
297.457
297.596
297.735
297.876
298.017
298.158
298.3
298.441
298.583
298.724
298.865
299.004
299.143
299.281
299.418
299.554
299.688
299.82
299.951
300.079
300.206
300.33
300.452
300.572
300.69
300.804
300.917
301.026
301.133
301.237
301.338
295.161
295.259
295.36
295.463
295.57
295.679
295.791
295.906
296.023
296.143
296.265
296.389
296.515
296.644
296.774
296.906
297.04
297.175
297.312
297.45
297.589
297.728
297.869
298.01
298.151
298.293
298.434
298.576
298.717
298.858
298.998
299.137
299.275
299.412
299.547
299.682
299.814
299.945
300.073
300.2
300.325
300.447
300.567
300.684
300.799
300.912
301.021
301.128
301.232
301.333
295.156
295.253
295.354
295.458
295.564
295.673
295.785
295.9
296.017
296.136
296.258
296.383
296.509
296.637
296.768
296.9
297.033
297.169
297.305
297.443
297.582
297.722
297.862
298.003
298.145
298.287
298.428
298.57
298.711
298.852
298.992
299.131
299.269
299.406
299.542
299.676
299.809
299.939
300.068
300.195
300.32
300.442
300.562
300.68
300.795
300.907
301.017
301.124
301.228
301.329
295.149
295.246
295.347
295.45
295.557
295.666
295.777
295.892
296.009
296.128
296.25
296.374
296.5
296.628
296.759
296.891
297.024
297.16
297.296
297.434
297.573
297.713
297.853
297.994
298.136
298.277
298.419
298.561
298.702
298.843
298.983
299.122
299.261
299.398
299.533
299.668
299.8
299.931
300.06
300.187
300.312
300.435
300.555
300.672
300.788
300.9
301.01
301.117
301.221
301.323
295.143
295.241
295.341
295.444
295.551
295.659
295.771
295.885
296.002
296.122
296.243
296.367
296.493
296.622
296.752
296.884
297.017
297.153
297.289
297.427
297.566
297.706
297.846
297.987
298.129
298.271
298.413
298.554
298.696
298.836
298.977
299.116
299.254
299.392
299.527
299.662
299.795
299.926
300.055
300.182
300.307
300.429
300.549
300.667
300.782
300.895
301.005
301.112
301.216
301.318
295.131
295.228
295.328
295.431
295.537
295.646
295.757
295.871
295.988
296.107
296.229
296.352
296.478
296.606
296.736
296.868
297.002
297.137
297.273
297.411
297.55
297.69
297.83
297.971
298.113
298.255
298.397
298.538
298.68
298.821
298.961
299.101
299.239
299.376
299.512
299.647
299.78
299.911
300.041
300.168
300.293
300.416
300.536
300.654
300.77
300.883
300.993
301.1
301.205
301.307
295.116
295.213
295.313
295.415
295.521
295.629
295.74
295.854
295.97
296.089
296.211
296.334
296.46
296.588
296.718
296.849
296.983
297.118
297.254
297.392
297.53
297.67
297.811
297.952
298.093
298.235
298.377
298.519
298.66
298.801
298.942
299.081
299.22
299.358
299.494
299.629
299.762
299.893
300.023
300.15
300.276
300.399
300.519
300.638
300.753
300.867
300.977
301.085
301.19
301.292
295.076
295.172
295.271
295.373
295.477
295.585
295.695
295.809
295.924
296.042
296.163
296.286
296.411
296.539
296.668
296.799
296.932
297.067
297.203
297.34
297.479
297.618
297.759
297.9
298.041
298.183
298.325
298.467
298.609
298.75
298.891
299.03
299.169
299.307
299.444
299.579
299.713
299.845
299.975
300.103
300.229
300.353
300.474
300.593
300.709
300.823
300.934
301.043
301.148
301.252
295.009
295.105
295.203
295.305
295.409
295.516
295.626
295.738
295.853
295.971
296.091
296.214
296.338
296.465
296.594
296.725
296.858
296.992
297.128
297.265
297.404
297.543
297.683
297.824
297.966
298.108
298.25
298.392
298.533
298.675
298.816
298.956
299.095
299.233
299.37
299.505
299.639
299.772
299.902
300.03
300.157
300.281
300.402
300.521
300.638
300.752
300.863
300.972
301.078
301.181
294.893
294.988
295.086
295.188
295.292
295.399
295.509
295.622
295.738
295.856
295.976
296.099
296.224
296.351
296.481
296.612
296.745
296.88
297.016
297.154
297.293
297.432
297.573
297.715
297.856
297.999
298.141
298.284
298.426
298.568
298.709
298.849
298.989
299.128
299.265
299.401
299.535
299.667
299.798
299.927
300.053
300.177
300.299
300.418
300.534
300.648
300.759
300.867
300.972
301.074
303.15
303.15
303.151
303.151
303.151
303.151
303.151
303.15
303.149
303.148
303.147
303.146
303.145
303.144
303.143
303.142
303.141
303.14
303.139
303.138
303.137
303.136
303.135
303.134
303.133
303.132
303.131
303.13
303.129
303.128
303.128
303.127
303.126
303.125
303.124
303.123
303.122
303.122
303.121
303.12
303.119
303.119
303.118
303.117
303.116
303.116
303.115
303.114
303.114
303.113
303.15
303.15
303.149
303.149
303.149
303.149
303.149
303.149
303.149
303.149
303.149
303.149
303.149
303.149
303.149
303.149
303.149
303.149
303.149
303.149
303.149
303.148
303.148
303.148
303.148
303.148
303.148
303.148
303.148
303.148
303.148
303.147
303.147
303.147
303.147
303.147
303.147
303.147
303.147
303.147
303.147
303.146
303.146
303.146
303.146
303.146
303.146
303.146
303.146
303.146
303.15
303.15
303.15
303.15
303.15
303.15
303.15
303.15
303.15
303.15
303.15
303.15
303.15
303.15
303.15
303.15
303.15
303.15
303.15
303.15
303.15
303.15
303.15
303.15
303.15
303.15
303.15
303.15
303.15
303.15
303.15
303.15
303.15
303.15
303.15
303.15
303.15
303.15
303.15
303.15
303.15
303.15
303.15
303.15
303.15
303.15
303.15
303.15
303.15
303.15
303.15
303.15
303.15
303.15
303.15
303.15
303.15
303.15
303.15
303.15
303.15
303.15
303.15
303.15
303.15
303.15
303.15
303.15
303.15
303.15
303.15
303.15
303.15
303.15
303.15
303.15
303.15
303.15
303.15
303.15
303.15
303.15
303.15
303.15
303.15
303.15
303.15
303.15
303.15
303.15
303.15
303.15
303.15
303.15
303.15
303.15
303.15
303.15
303.15
303.15
303.15
303.15
303.15
303.15
303.15
303.15
303.15
303.15
303.15
303.15
303.15
303.15
303.15
303.15
303.15
303.15
303.15
303.15
303.15
303.15
303.15
303.15
303.15
303.15
303.15
303.15
303.15
303.15
303.15
303.15
303.15
303.15
303.15
303.15
303.15
303.15
303.15
303.15
303.15
303.15
303.15
303.15
303.15
303.15
303.15
303.15
303.15
303.15
303.15
303.15
303.15
303.15
303.15
303.15
303.15
303.15
303.15
303.15
303.15
303.15
303.15
303.15
303.15
303.15
303.15
303.15
303.15
303.15
303.15
303.15
303.15
303.15
303.15
303.15
303.15
303.15
303.15
303.15
303.15
303.15
303.15
303.15
303.15
303.15
303.15
303.15
303.15
303.15
303.15
303.15
303.15
303.15
303.15
303.15
303.15
303.15
303.15
303.15
303.15
303.15
303.15
303.15
303.15
303.15
303.15
303.15
303.15
303.15
303.15
303.15
303.15
303.15
303.15
303.15
303.15
303.15
303.15
303.15
303.15
303.15
303.15
303.15
303.15
303.15
303.15
303.15
303.15
303.15
303.15
303.15
303.15
303.15
303.15
303.15
303.15
303.15
303.15
303.15
303.15
303.15
303.15
303.15
303.15
303.15
303.15
303.15
303.15
303.15
303.15
303.15
303.15
303.15
303.15
303.15
303.15
303.15
303.15
303.15
303.15
303.15
303.15
303.15
303.15
303.15
303.15
303.15
303.15
303.15
303.15
303.15
303.15
303.15
303.15
303.15
303.15
303.15
303.15
303.15
303.15
303.15
303.15
303.15
303.15
303.15
303.15
303.15
303.15
303.15
303.15
303.15
303.15
303.15
303.15
303.15
303.15
303.15
303.15
303.15
303.15
303.15
303.15
303.15
303.15
303.15
303.15
303.15
303.15
303.15
303.15
303.15
303.15
303.15
303.15
303.15
303.15
303.15
303.15
303.15
303.15
303.15
303.15
303.15
303.15
303.15
303.15
303.15
303.15
303.15
303.15
303.15
303.15
303.15
303.15
303.15
303.15
303.15
303.15
303.15
303.15
303.15
303.15
303.15
303.15
303.15
303.15
303.15
303.15
303.15
303.15
303.15
303.15
303.15
303.15
303.15
303.15
303.15
303.15
303.15
303.15
303.15
303.15
303.15
303.15
303.15
303.15
303.15
303.15
303.15
303.15
303.15
303.15
303.15
303.15
303.15
303.15
303.15
303.15
303.15
303.15
303.15
303.15
303.15
303.15
303.15
303.15
303.15
303.15
303.15
303.15
303.15
303.15
303.15
303.15
303.15
303.15
303.15
303.15
303.15
303.15
303.15
303.15
303.15
303.15
303.15
303.15
303.15
303.15
303.15
303.15
303.15
303.15
303.15
303.15
303.15
303.15
303.15
303.15
303.15
303.15
303.15
303.15
303.15
303.15
303.15
303.15
303.15
303.15
303.15
303.15
303.15
303.15
303.15
303.15
303.15
303.15
303.15
303.15
303.15
303.15
303.15
303.15
303.15
303.15
303.15
303.15
303.15
303.15
303.15
303.15
303.15
303.15
303.15
303.15
303.15
303.15
303.15
303.15
303.15
303.15
303.15
303.15
303.15
303.15
303.15
303.15
303.15
303.15
303.15
303.15
303.15
303.15
303.15
303.15
303.15
303.15
303.15
303.15
303.15
303.15
303.15
303.15
303.15
303.15
303.15
303.15
303.15
303.15
303.15
303.15
303.15
303.15
303.15
303.15
303.15
303.15
303.15
303.15
303.15
303.15
303.15
303.15
303.15
303.15
303.15
303.15
303.15
303.15
303.15
303.15
303.15
303.15
303.15
303.15
303.15
303.15
303.15
303.15
303.15
303.15
303.15
303.15
303.15
303.15
303.15
303.15
303.15
303.15
303.15
303.15
303.15
303.15
303.15
303.15
303.15
303.15
303.15
303.15
303.15
303.15
303.15
303.15
303.15
303.15
303.15
303.15
303.15
303.15
303.15
303.15
303.15
303.15
303.15
303.15
303.15
303.15
303.15
303.15
303.15
303.15
303.15
303.15
303.15
303.15
303.15
303.15
303.15
303.15
303.15
303.15
303.15
303.15
303.15
303.15
303.15
303.15
303.15
303.15
303.15
303.15
303.15
303.15
303.15
303.15
303.15
303.15
303.15
303.15
303.15
303.15
303.15
303.15
303.15
303.15
303.15
303.15
303.15
303.15
303.15
303.15
303.15
303.15
303.15
303.15
303.15
303.15
303.15
303.15
303.15
303.15
303.15
303.15
303.15
303.15
303.15
303.15
303.15
303.15
303.15
303.15
303.15
303.15
303.15
303.15
303.15
303.15
303.15
303.15
303.15
303.15
303.15
303.15
303.15
303.15
303.15
303.15
303.15
303.15
303.15
303.15
303.15
303.15
303.15
303.15
303.15
303.15
303.15
303.15
303.15
303.15
303.15
303.15
303.15
303.15
303.15
303.15
303.15
303.15
303.15
303.15
303.15
303.15
303.15
303.15
303.15
303.15
303.15
303.15
303.15
303.15
303.15
303.15
303.15
303.15
303.15
303.15
303.15
303.15
303.15
303.15
303.15
303.15
303.15
303.15
303.15
303.15
303.15
303.15
303.15
303.15
303.15
303.15
303.15
303.15
303.15
303.15
303.15
303.15
303.15
303.15
303.15
303.15
303.15
303.15
303.15
303.15
303.15
303.15
303.15
303.15
303.15
303.15
303.15
303.15
303.15
303.15
303.15
303.15
303.15
303.15
303.15
303.15
303.15
303.15
303.15
303.15
303.15
303.15
303.15
303.15
303.15
303.15
303.15
303.15
303.15
303.15
303.15
303.15
303.15
303.15
303.15
303.15
303.15
303.15
303.15
303.15
303.15
303.15
303.15
303.15
303.15
303.15
303.15
303.15
303.15
303.15
303.15
303.15
303.15
303.15
303.15
303.15
303.15
303.15
303.15
303.15
303.15
303.15
303.15
303.15
303.15
303.15
303.15
303.15
303.15
303.15
303.15
303.15
303.15
303.15
303.15
303.15
303.15
303.15
303.15
303.15
303.15
303.15
303.15
303.15
303.15
303.15
303.15
303.15
303.15
303.15
303.15
303.15
303.149
303.149
303.149
303.15
303.15
303.149
303.149
303.149
303.149
303.149
303.149
303.149
303.149
303.149
303.149
303.149
303.149
303.149
303.149
303.149
303.149
303.149
303.149
303.149
303.149
303.148
303.148
303.148
303.148
303.148
303.148
303.148
303.148
303.148
303.147
303.147
303.147
303.147
303.147
303.147
303.147
303.147
303.146
303.146
303.146
303.146
303.146
303.145
303.145
303.145
303.145
303.144
303.144
303.15
303.15
303.151
303.151
303.151
303.151
303.151
303.15
303.149
303.148
303.147
303.146
303.145
303.144
303.143
303.142
303.14
303.139
303.139
303.138
303.137
303.136
303.135
303.134
303.133
303.132
303.131
303.13
303.129
303.128
303.127
303.127
303.126
303.125
303.124
303.123
303.122
303.122
303.121
303.12
303.119
303.118
303.118
303.117
303.116
303.115
303.115
303.114
303.113
303.112
303.038
303.119
303.147
303.149
303.151
303.15
303.151
303.15
303.151
303.15
303.151
303.15
303.15
303.151
303.15
303.151
303.149
303.143
303.109
303.013
303.038
303.12
303.147
303.149
303.151
303.15
303.151
303.15
303.151
303.15
303.151
303.15
303.15
303.151
303.15
303.151
303.149
303.143
303.109
303.014
303.039
303.12
303.147
303.149
303.151
303.15
303.151
303.15
303.151
303.15
303.151
303.15
303.15
303.151
303.15
303.151
303.149
303.143
303.11
303.014
303.039
303.12
303.147
303.149
303.151
303.15
303.151
303.15
303.151
303.15
303.151
303.15
303.15
303.151
303.15
303.151
303.149
303.143
303.11
303.015
303.039
303.12
303.147
303.149
303.151
303.15
303.151
303.15
303.151
303.15
303.151
303.15
303.15
303.151
303.15
303.151
303.149
303.143
303.11
303.015
303.04
303.12
303.147
303.149
303.151
303.15
303.151
303.15
303.151
303.15
303.15
303.15
303.15
303.151
303.15
303.151
303.149
303.143
303.11
303.016
303.04
303.12
303.147
303.149
303.151
303.15
303.151
303.15
303.151
303.15
303.15
303.15
303.15
303.151
303.15
303.151
303.149
303.143
303.11
303.016
303.041
303.121
303.147
303.149
303.151
303.15
303.151
303.15
303.151
303.15
303.15
303.15
303.15
303.151
303.15
303.151
303.149
303.143
303.111
303.017
303.041
303.121
303.147
303.149
303.151
303.15
303.151
303.15
303.151
303.15
303.15
303.15
303.15
303.151
303.15
303.151
303.149
303.143
303.111
303.017
303.042
303.121
303.147
303.149
303.151
303.15
303.151
303.15
303.151
303.15
303.15
303.15
303.15
303.151
303.15
303.151
303.149
303.143
303.111
303.018
303.042
303.121
303.147
303.149
303.151
303.15
303.151
303.15
303.151
303.15
303.15
303.15
303.15
303.151
303.15
303.151
303.149
303.143
303.111
303.018
303.042
303.121
303.147
303.149
303.151
303.15
303.151
303.15
303.151
303.15
303.15
303.15
303.15
303.151
303.15
303.151
303.149
303.143
303.111
303.019
303.043
303.121
303.147
303.149
303.151
303.15
303.151
303.15
303.151
303.15
303.15
303.15
303.15
303.151
303.15
303.151
303.149
303.143
303.112
303.019
303.043
303.122
303.147
303.149
303.151
303.15
303.151
303.15
303.151
303.15
303.15
303.15
303.15
303.151
303.15
303.151
303.149
303.143
303.112
303.02
303.044
303.122
303.147
303.149
303.151
303.15
303.151
303.15
303.151
303.15
303.15
303.15
303.15
303.151
303.15
303.151
303.149
303.143
303.112
303.02
303.044
303.122
303.147
303.149
303.151
303.15
303.151
303.15
303.151
303.15
303.15
303.15
303.15
303.151
303.15
303.151
303.149
303.143
303.112
303.021
303.044
303.122
303.147
303.149
303.151
303.15
303.151
303.15
303.151
303.15
303.15
303.15
303.15
303.151
303.15
303.151
303.149
303.143
303.112
303.021
303.045
303.122
303.147
303.149
303.151
303.15
303.151
303.15
303.151
303.15
303.15
303.15
303.15
303.151
303.15
303.151
303.149
303.143
303.113
303.022
303.045
303.123
303.147
303.149
303.151
303.15
303.151
303.15
303.151
303.15
303.15
303.15
303.15
303.151
303.15
303.151
303.149
303.144
303.113
303.022
303.046
303.123
303.147
303.149
303.151
303.15
303.151
303.15
303.151
303.15
303.15
303.15
303.15
303.151
303.15
303.151
303.149
303.144
303.113
303.023
303.046
303.123
303.147
303.149
303.151
303.15
303.151
303.15
303.151
303.15
303.15
303.15
303.15
303.151
303.15
303.151
303.149
303.144
303.113
303.023
303.046
303.123
303.148
303.149
303.151
303.15
303.151
303.15
303.151
303.15
303.15
303.15
303.15
303.151
303.15
303.151
303.149
303.144
303.114
303.024
303.047
303.123
303.148
303.149
303.151
303.15
303.151
303.15
303.151
303.15
303.15
303.15
303.15
303.151
303.15
303.15
303.149
303.144
303.114
303.024
303.047
303.123
303.148
303.149
303.151
303.15
303.151
303.15
303.151
303.15
303.15
303.15
303.15
303.151
303.15
303.15
303.149
303.144
303.114
303.025
303.048
303.124
303.148
303.149
303.151
303.15
303.151
303.15
303.151
303.15
303.15
303.15
303.15
303.151
303.15
303.15
303.149
303.144
303.114
303.025
303.048
303.124
303.148
303.149
303.151
303.15
303.151
303.15
303.151
303.15
303.15
303.15
303.15
303.151
303.15
303.15
303.149
303.144
303.114
303.026
303.049
303.124
303.148
303.149
303.151
303.15
303.151
303.15
303.151
303.15
303.15
303.15
303.15
303.151
303.15
303.15
303.149
303.144
303.115
303.026
303.049
303.124
303.148
303.149
303.151
303.15
303.151
303.15
303.151
303.15
303.15
303.15
303.15
303.151
303.15
303.15
303.149
303.144
303.115
303.027
303.049
303.124
303.148
303.149
303.151
303.15
303.151
303.15
303.151
303.15
303.15
303.15
303.15
303.151
303.15
303.15
303.149
303.144
303.115
303.027
303.05
303.124
303.148
303.149
303.151
303.15
303.151
303.15
303.151
303.15
303.15
303.15
303.15
303.151
303.15
303.15
303.149
303.144
303.115
303.028
303.05
303.125
303.148
303.149
303.151
303.15
303.151
303.15
303.151
303.15
303.15
303.15
303.15
303.151
303.15
303.15
303.149
303.144
303.115
303.028
303.051
303.125
303.148
303.149
303.151
303.15
303.151
303.15
303.151
303.15
303.15
303.15
303.15
303.151
303.15
303.15
303.149
303.144
303.116
303.029
303.051
303.125
303.148
303.149
303.151
303.15
303.151
303.15
303.151
303.15
303.15
303.15
303.15
303.151
303.15
303.15
303.149
303.144
303.116
303.029
303.052
303.125
303.148
303.149
303.151
303.15
303.151
303.15
303.151
303.15
303.15
303.15
303.15
303.151
303.15
303.15
303.149
303.144
303.116
303.03
303.052
303.125
303.148
303.149
303.151
303.15
303.151
303.15
303.151
303.15
303.15
303.15
303.15
303.151
303.15
303.15
303.149
303.144
303.116
303.03
303.052
303.125
303.148
303.149
303.151
303.15
303.151
303.15
303.151
303.15
303.15
303.15
303.15
303.15
303.15
303.15
303.149
303.144
303.117
303.031
303.053
303.126
303.148
303.149
303.151
303.15
303.151
303.15
303.151
303.15
303.15
303.15
303.15
303.15
303.15
303.15
303.149
303.144
303.117
303.031
303.053
303.126
303.148
303.149
303.151
303.15
303.151
303.15
303.151
303.15
303.15
303.15
303.15
303.15
303.15
303.15
303.149
303.144
303.117
303.032
303.054
303.126
303.148
303.149
303.151
303.15
303.151
303.15
303.151
303.15
303.15
303.15
303.15
303.15
303.15
303.15
303.149
303.144
303.117
303.032
303.054
303.126
303.148
303.149
303.151
303.15
303.151
303.15
303.151
303.15
303.15
303.15
303.15
303.15
303.15
303.15
303.149
303.145
303.117
303.033
303.055
303.126
303.148
303.149
303.151
303.15
303.151
303.15
303.151
303.15
303.15
303.15
303.15
303.15
303.15
303.15
303.149
303.145
303.118
303.033
303.055
303.126
303.148
303.149
303.151
303.15
303.151
303.15
303.151
303.15
303.15
303.15
303.15
303.15
303.15
303.15
303.149
303.145
303.118
303.034
303.055
303.127
303.148
303.149
303.151
303.15
303.151
303.15
303.151
303.15
303.15
303.15
303.15
303.15
303.15
303.15
303.149
303.145
303.118
303.034
303.056
303.127
303.148
303.149
303.151
303.15
303.151
303.15
303.15
303.15
303.15
303.15
303.15
303.15
303.15
303.15
303.149
303.145
303.118
303.035
303.056
303.127
303.148
303.149
303.151
303.15
303.151
303.15
303.15
303.15
303.15
303.15
303.15
303.15
303.15
303.15
303.149
303.145
303.118
303.035
303.057
303.127
303.148
303.149
303.151
303.15
303.151
303.15
303.15
303.15
303.15
303.15
303.15
303.15
303.15
303.15
303.149
303.145
303.119
303.036
303.057
303.127
303.148
303.149
303.151
303.15
303.151
303.15
303.15
303.15
303.15
303.15
303.15
303.15
303.15
303.15
303.149
303.145
303.119
303.036
303.058
303.128
303.148
303.149
303.151
303.15
303.151
303.15
303.15
303.15
303.15
303.15
303.15
303.15
303.15
303.15
303.149
303.145
303.119
303.037
303.058
303.128
303.148
303.149
303.151
303.15
303.151
303.15
303.15
303.15
303.15
303.15
303.15
303.15
303.15
303.15
303.149
303.145
303.119
303.037
303.058
303.128
303.148
303.149
303.151
303.15
303.151
303.15
303.15
303.15
303.15
303.15
303.15
303.15
303.15
303.15
303.149
303.145
303.119
303.038
303.059
303.128
303.148
303.149
303.151
303.15
303.151
303.15
303.15
303.15
303.15
303.15
303.15
303.15
303.15
303.15
303.149
303.145
303.12
303.038
303.059
303.128
303.148
303.149
303.151
303.15
303.151
303.15
303.15
303.15
303.15
303.15
303.15
303.15
303.15
303.15
303.149
303.145
303.12
303.039
303.06
303.128
303.148
303.149
303.151
303.15
303.151
303.15
303.15
303.15
303.15
303.15
303.15
303.15
303.15
303.15
303.149
303.145
303.12
303.039
303.06
303.129
303.148
303.149
303.151
303.15
303.151
303.15
303.15
303.15
303.15
303.15
303.15
303.15
303.15
303.15
303.149
303.145
303.12
303.04
303.061
303.129
303.148
303.149
303.151
303.15
303.151
303.15
303.15
303.15
303.15
303.15
303.15
303.15
303.15
303.15
303.149
303.145
303.121
303.041
303.061
303.129
303.148
303.149
303.151
303.15
303.151
303.15
303.15
303.15
303.15
303.15
303.15
303.15
303.15
303.15
303.149
303.145
303.121
303.041
303.061
303.129
303.148
303.149
303.151
303.15
303.151
303.15
303.15
303.15
303.15
303.15
303.15
303.15
303.15
303.15
303.149
303.145
303.121
303.042
303.062
303.129
303.149
303.149
303.151
303.15
303.151
303.15
303.15
303.15
303.15
303.15
303.15
303.15
303.15
303.15
303.149
303.145
303.121
303.042
303.062
303.129
303.149
303.149
303.151
303.15
303.151
303.15
303.15
303.15
303.15
303.15
303.15
303.15
303.15
303.15
303.149
303.145
303.121
303.043
303.063
303.13
303.149
303.149
303.151
303.15
303.151
303.15
303.15
303.15
303.15
303.15
303.15
303.15
303.15
303.15
303.149
303.145
303.122
303.043
303.063
303.13
303.149
303.149
303.151
303.15
303.151
303.15
303.15
303.15
303.15
303.15
303.15
303.15
303.15
303.15
303.149
303.145
303.122
303.044
303.064
303.13
303.149
303.149
303.151
303.15
303.151
303.15
303.15
303.15
303.15
303.15
303.15
303.15
303.15
303.15
303.149
303.145
303.122
303.044
303.064
303.13
303.149
303.149
303.151
303.15
303.151
303.15
303.15
303.15
303.15
303.15
303.15
303.15
303.15
303.15
303.149
303.146
303.122
303.045
303.065
303.13
303.149
303.149
303.151
303.15
303.151
303.15
303.15
303.15
303.15
303.15
303.15
303.15
303.15
303.15
303.149
303.146
303.122
303.045
303.065
303.13
303.149
303.149
303.151
303.15
303.151
303.15
303.15
303.15
303.15
303.15
303.15
303.15
303.15
303.15
303.149
303.146
303.123
303.046
303.065
303.131
303.149
303.149
303.151
303.15
303.151
303.15
303.15
303.15
303.15
303.15
303.15
303.15
303.15
303.15
303.149
303.146
303.123
303.047
303.066
303.131
303.149
303.149
303.151
303.15
303.151
303.15
303.15
303.15
303.15
303.15
303.15
303.15
303.15
303.15
303.149
303.146
303.123
303.047
303.066
303.131
303.149
303.149
303.151
303.15
303.151
303.15
303.15
303.15
303.15
303.15
303.15
303.15
303.15
303.15
303.149
303.146
303.123
303.048
303.067
303.131
303.149
303.149
303.151
303.15
303.151
303.15
303.15
303.15
303.15
303.15
303.15
303.15
303.15
303.15
303.149
303.146
303.124
303.048
303.067
303.131
303.149
303.149
303.151
303.15
303.151
303.15
303.15
303.15
303.15
303.15
303.15
303.15
303.15
303.15
303.149
303.146
303.124
303.049
303.068
303.132
303.149
303.149
303.151
303.15
303.15
303.15
303.15
303.15
303.15
303.15
303.15
303.15
303.15
303.15
303.149
303.146
303.124
303.049
303.068
303.132
303.149
303.149
303.151
303.15
303.15
303.15
303.15
303.15
303.15
303.15
303.15
303.15
303.15
303.15
303.149
303.146
303.124
303.05
303.069
303.132
303.149
303.149
303.151
303.15
303.15
303.15
303.15
303.15
303.15
303.15
303.15
303.15
303.15
303.15
303.149
303.146
303.124
303.05
303.069
303.132
303.149
303.149
303.151
303.15
303.15
303.15
303.15
303.15
303.15
303.15
303.15
303.15
303.15
303.15
303.149
303.146
303.125
303.051
303.07
303.132
303.149
303.149
303.151
303.15
303.15
303.15
303.15
303.15
303.15
303.15
303.15
303.15
303.15
303.15
303.149
303.146
303.125
303.052
303.07
303.132
303.149
303.149
303.151
303.15
303.15
303.15
303.15
303.15
303.15
303.15
303.15
303.15
303.15
303.15
303.149
303.146
303.125
303.052
303.07
303.133
303.149
303.15
303.151
303.15
303.15
303.15
303.15
303.15
303.15
303.15
303.15
303.15
303.15
303.15
303.149
303.146
303.125
303.053
303.071
303.133
303.149
303.15
303.151
303.15
303.15
303.15
303.15
303.15
303.15
303.15
303.15
303.15
303.15
303.15
303.149
303.146
303.125
303.053
303.071
303.133
303.149
303.15
303.151
303.15
303.15
303.15
303.15
303.15
303.15
303.15
303.15
303.15
303.15
303.15
303.149
303.146
303.126
303.054
303.072
303.133
303.149
303.15
303.151
303.15
303.15
303.15
303.15
303.15
303.15
303.15
303.15
303.15
303.15
303.15
303.149
303.146
303.126
303.055
303.072
303.133
303.149
303.15
303.151
303.15
303.15
303.15
303.15
303.15
303.15
303.15
303.15
303.15
303.15
303.15
303.149
303.146
303.126
303.055
303.073
303.134
303.149
303.15
303.151
303.15
303.15
303.15
303.15
303.15
303.15
303.15
303.15
303.15
303.15
303.15
303.149
303.146
303.126
303.056
303.073
303.134
303.149
303.15
303.151
303.15
303.15
303.15
303.15
303.15
303.15
303.15
303.15
303.15
303.15
303.15
303.149
303.146
303.127
303.056
303.074
303.134
303.149
303.15
303.151
303.15
303.15
303.15
303.15
303.15
303.15
303.15
303.15
303.15
303.15
303.15
303.149
303.146
303.127
303.057
303.074
303.134
303.149
303.15
303.151
303.15
303.15
303.15
303.15
303.15
303.15
303.15
303.15
303.15
303.15
303.15
303.149
303.146
303.127
303.057
303.075
303.134
303.149
303.15
303.151
303.15
303.15
303.15
303.15
303.15
303.15
303.15
303.15
303.15
303.15
303.15
303.149
303.146
303.127
303.058
303.075
303.134
303.149
303.15
303.151
303.15
303.15
303.15
303.15
303.15
303.15
303.15
303.15
303.15
303.15
303.15
303.149
303.146
303.127
303.059
303.076
303.135
303.149
303.15
303.151
303.15
303.15
303.15
303.15
303.15
303.15
303.15
303.15
303.15
303.15
303.15
303.149
303.146
303.128
303.059
303.076
303.135
303.149
303.15
303.151
303.15
303.15
303.15
303.15
303.15
303.15
303.15
303.15
303.15
303.15
303.15
303.149
303.147
303.128
303.06
303.077
303.135
303.149
303.15
303.151
303.15
303.15
303.15
303.15
303.15
303.15
303.15
303.15
303.15
303.15
303.15
303.149
303.147
303.128
303.06
303.077
303.135
303.149
303.15
303.151
303.15
303.15
303.15
303.15
303.15
303.15
303.15
303.15
303.15
303.15
303.15
303.149
303.147
303.128
303.061
303.077
303.135
303.149
303.15
303.15
303.15
303.15
303.15
303.15
303.15
303.15
303.15
303.15
303.15
303.15
303.15
303.149
303.147
303.128
303.062
303.078
303.135
303.149
303.15
303.15
303.15
303.15
303.15
303.15
303.15
303.15
303.15
303.15
303.15
303.15
303.15
303.149
303.147
303.129
303.062
303.078
303.136
303.149
303.15
303.15
303.15
303.15
303.15
303.15
303.15
303.15
303.15
303.15
303.15
303.15
303.15
303.149
303.147
303.129
303.063
303.079
303.136
303.149
303.15
303.15
303.15
303.15
303.15
303.15
303.15
303.15
303.15
303.15
303.15
303.15
303.15
303.149