/*--------------------------------*- C++ -*----------------------------------*\
  =========                 |
  \\      /  F ield         | OpenFOAM: The Open Source CFD Toolbox
   \\    /   O peration     | Website:  https://openfoam.org
    \\  /    A nd           | Version:  8
     \\/     M anipulation  |
\*---------------------------------------------------------------------------*/
FoamFile
{
    version     2.0;
    format      ascii;
    class       volVectorField;
    location    "400";
    object      U;
}
// * * * * * * * * * * * * * * * * * * * * * * * * * * * * * * * * * * * * * //

dimensions      [0 1 -1 0 0 0 0];

internalField   nonuniform List<vector> 
8400
(
(-13.7053 -0.0751516 -5.89196e-16)
(-13.7092 -0.0758991 -5.91469e-16)
(-13.7122 -0.0768395 -5.93513e-16)
(-13.7154 -0.0778628 -5.99421e-16)
(-13.7187 -0.0789339 -6.0279e-16)
(-13.7219 -0.0800428 -6.01573e-16)
(-13.7252 -0.0811865 -6.02563e-16)
(-13.7285 -0.0823653 -6.03746e-16)
(-13.7317 -0.0835801 -6.05349e-16)
(-13.7349 -0.0848329 -6.10425e-16)
(-13.7381 -0.0861259 -6.12495e-16)
(-13.7413 -0.0874618 -6.1058e-16)
(-13.7444 -0.0888434 -6.11075e-16)
(-13.7474 -0.0902742 -6.11825e-16)
(-13.7504 -0.0917579 -6.14461e-16)
(-13.7533 -0.0932986 -6.19938e-16)
(-13.7561 -0.094901 -6.18372e-16)
(-13.7588 -0.0965704 -6.1725e-16)
(-13.7614 -0.0983127 -6.1781e-16)
(-13.7638 -0.100135 -6.18653e-16)
(-13.766 -0.102043 -6.19778e-16)
(-13.768 -0.104048 -6.20953e-16)
(-13.7697 -0.106157 -6.22158e-16)
(-13.7712 -0.108381 -6.23295e-16)
(-13.7723 -0.110737 -6.24279e-16)
(-13.7731 -0.113243 -6.25514e-16)
(-13.7733 -0.115925 -6.25399e-16)
(-13.773 -0.118804 -6.25858e-16)
(-13.772 -0.121894 -6.28508e-16)
(-13.7702 -0.125217 -6.30869e-16)
(-13.7675 -0.128802 -6.33056e-16)
(-13.7637 -0.132679 -6.35365e-16)
(-13.7586 -0.136886 -6.336e-16)
(-13.7521 -0.141467 -6.34215e-16)
(-13.744 -0.146472 -6.39522e-16)
(-13.7339 -0.151963 -6.42767e-16)
(-13.7215 -0.158009 -6.459e-16)
(-13.7066 -0.164698 -6.49063e-16)
(-13.6885 -0.172133 -6.52311e-16)
(-13.667 -0.180441 -6.54585e-16)
(-13.6413 -0.189782 -6.57837e-16)
(-13.6108 -0.20036 -6.58974e-16)
(-13.5745 -0.212437 -6.62482e-16)
(-13.5313 -0.226369 -6.70892e-16)
(-13.48 -0.242656 -6.7776e-16)
(-13.4188 -0.262016 -6.84126e-16)
(-13.3463 -0.285423 -6.87828e-16)
(-13.2587 -0.314213 -6.95302e-16)
(-13.1466 -0.350943 -7.11946e-16)
(-12.9982 -0.401521 -7.28663e-16)
(-15.6907 0.0786485 -5.71362e-17)
(-15.6947 0.0796621 -5.67797e-17)
(-15.6974 0.0806739 -5.65259e-17)
(-15.7002 0.0817021 -5.95736e-17)
(-15.703 0.0827353 -6.14264e-17)
(-15.7058 0.0837767 -5.98851e-17)
(-15.7086 0.0848302 -5.84711e-17)
(-15.7114 0.0858986 -5.67447e-17)
(-15.7142 0.0869843 -5.77474e-17)
(-15.717 0.0880887 -6.18797e-17)
(-15.7197 0.089213 -6.29145e-17)
(-15.7224 0.0903581 -6.02164e-17)
(-15.7251 0.0915245 -5.70154e-17)
(-15.7277 0.0927127 -5.19829e-17)
(-15.7303 0.0939228 -5.49687e-17)
(-15.7328 0.0951548 -7.09866e-17)
(-15.7352 0.0964085 -7.21046e-17)
(-15.7375 0.0976834 -6.84323e-17)
(-15.7397 0.0989785 -6.55463e-17)
(-15.7417 0.100293 -6.28204e-17)
(-15.7436 0.101624 -6.01406e-17)
(-15.7453 0.10297 -5.7452e-17)
(-15.7467 0.104329 -5.47086e-17)
(-15.7479 0.105695 -5.18998e-17)
(-15.7488 0.107057 -4.90761e-17)
(-15.7493 0.108402 -4.667e-17)
(-15.7495 0.109719 -4.13687e-17)
(-15.7492 0.11101 -3.66263e-17)
(-15.7483 0.112269 -3.45668e-17)
(-15.7469 0.113487 -3.17272e-17)
(-15.7448 0.114652 -2.85007e-17)
(-15.742 0.115747 -2.5077e-17)
(-15.7382 0.116753 -1.91071e-17)
(-15.7333 0.117646 -1.37662e-17)
(-15.7273 0.118397 -1.09167e-17)
(-15.7199 0.118974 -7.17606e-18)
(-15.7108 0.119334 -3.01322e-18)
(-15.6998 0.119429 1.35591e-18)
(-15.6867 0.119195 8.23854e-18)
(-15.6711 0.118555 1.3578e-17)
(-15.6526 0.117406 1.68171e-17)
(-15.6307 0.115614 2.45719e-17)
(-15.605 0.112998 3.18246e-17)
(-15.5747 0.109294 3.66047e-17)
(-15.5392 0.104093 4.47771e-17)
(-15.4977 0.0967663 5.16745e-17)
(-15.4496 0.0864748 5.92625e-17)
(-15.3937 0.0720949 6.88588e-17)
(-15.326 0.0510267 7.57509e-17)
(-15.2419 0.0162188 8.20681e-17)
(-16.0888 -0.066051 -4.04634e-16)
(-16.0877 -0.0664752 -4.04826e-16)
(-16.0873 -0.0671936 -4.04961e-16)
(-16.0869 -0.0680305 -4.06855e-16)
(-16.0866 -0.0689354 -4.07939e-16)
(-16.0863 -0.0698882 -4.0664e-16)
(-16.086 -0.0708812 -4.05689e-16)
(-16.0857 -0.0719114 -4.04965e-16)
(-16.0854 -0.0729786 -4.04398e-16)
(-16.085 -0.0740835 -4.05503e-16)
(-16.0846 -0.075228 -4.05734e-16)
(-16.0842 -0.0764148 -4.03532e-16)
(-16.0837 -0.0776469 -4.01399e-16)
(-16.0832 -0.0789284 -3.98989e-16)
(-16.0826 -0.0802637 -3.96563e-16)
(-16.082 -0.0816582 -3.96896e-16)
(-16.0812 -0.0831178 -3.96557e-16)
(-16.0804 -0.0846493 -3.94604e-16)
(-16.0794 -0.0862609 -3.92678e-16)
(-16.0783 -0.0879618 -3.90844e-16)
(-16.077 -0.0897629 -3.8905e-16)
(-16.0755 -0.091677 -3.87238e-16)
(-16.0738 -0.0937179 -3.85366e-16)
(-16.0719 -0.0959063 -3.83442e-16)
(-16.0696 -0.0982581 -3.81457e-16)
(-16.067 -0.100793 -3.79516e-16)
(-16.064 -0.103537 -3.75572e-16)
(-16.0605 -0.106526 -3.72134e-16)
(-16.0564 -0.109795 -3.71025e-16)
(-16.0518 -0.113381 -3.69516e-16)
(-16.0464 -0.11733 -3.67766e-16)
(-16.0402 -0.12169 -3.65982e-16)
(-16.0331 -0.126521 -3.622e-16)
(-16.0248 -0.13189 -3.58909e-16)
(-16.0152 -0.137874 -3.58017e-16)
(-16.0042 -0.144563 -3.56845e-16)
(-15.9914 -0.152061 -3.55561e-16)
(-15.9767 -0.160489 -3.54275e-16)
(-15.9597 -0.169987 -3.53057e-16)
(-15.94 -0.180721 -3.51049e-16)
(-15.9172 -0.192888 -3.49921e-16)
(-15.8909 -0.206721 -3.48452e-16)
(-15.8604 -0.222499 -3.47635e-16)
(-15.8252 -0.240574 -3.49628e-16)
(-15.7845 -0.261401 -3.51755e-16)
(-15.7375 -0.285577 -3.53484e-16)
(-15.6837 -0.313782 -3.54449e-16)
(-15.622 -0.346765 -3.57826e-16)
(-15.5506 -0.385995 -3.66398e-16)
(-15.4679 -0.435195 -3.76333e-16)
(-16.5376 0.069405 8.47442e-17)
(-16.5395 0.0700192 8.51039e-17)
(-16.5399 0.0707438 8.54456e-17)
(-16.5402 0.0714994 8.40647e-17)
(-16.5404 0.072253 8.32414e-17)
(-16.5406 0.0729977 8.46047e-17)
(-16.5407 0.0737324 8.56254e-17)
(-16.5409 0.074457 8.63759e-17)
(-16.5411 0.0751714 8.69466e-17)
(-16.5412 0.0758746 8.5983e-17)
(-16.5414 0.0765649 8.58051e-17)
(-16.5415 0.0772398 8.78568e-17)
(-16.5416 0.0778961 8.97689e-17)
(-16.5416 0.07853 9.12046e-17)
(-16.5416 0.0791364 9.18828e-17)
(-16.5416 0.0797096 9.1902e-17)
(-16.5415 0.0802428 9.23547e-17)
(-16.5413 0.080728 9.46219e-17)
(-16.541 0.0811557 9.68695e-17)
(-16.5406 0.0815139 9.89389e-17)
(-16.5401 0.0817883 1.00912e-16)
(-16.5395 0.0819663 1.02829e-16)
(-16.5387 0.0820278 1.04721e-16)
(-16.5377 0.0819587 1.06617e-16)
(-16.5365 0.0817379 1.0852e-16)
(-16.535 0.0813416 1.10325e-16)
(-16.5333 0.0807428 1.13951e-16)
(-16.5313 0.0799084 1.17119e-16)
(-16.5288 0.0787989 1.1807e-16)
(-16.526 0.0773685 1.19315e-16)
(-16.5226 0.0755643 1.20787e-16)
(-16.5186 0.0733246 1.22282e-16)
(-16.514 0.0705774 1.25676e-16)
(-16.5085 0.067239 1.28616e-16)
(-16.5022 0.0632115 1.29301e-16)
(-16.4948 0.0583804 1.30229e-16)
(-16.4861 0.0526111 1.31285e-16)
(-16.476 0.0457447 1.32192e-16)
(-16.4644 0.0375932 1.34778e-16)
(-16.4508 0.0279324 1.35775e-16)
(-16.435 0.0164938 1.34569e-16)
(-16.4168 0.00295384 1.36436e-16)
(-16.3958 -0.0130797 1.37573e-16)
(-16.3715 -0.032091 1.35823e-16)
(-16.3435 -0.0546876 1.35533e-16)
(-16.3115 -0.0816172 1.33066e-16)
(-16.2752 -0.113744 1.29811e-16)
(-16.234 -0.152066 1.26867e-16)
(-16.1874 -0.19798 1.20235e-16)
(-16.135 -0.253635 1.128e-16)
(-16.39 -0.0552334 3.78128e-16)
(-16.3875 -0.0556645 3.79352e-16)
(-16.3866 -0.056214 3.80552e-16)
(-16.3859 -0.0568201 3.79964e-16)
(-16.3852 -0.0574612 3.79873e-16)
(-16.3846 -0.0581301 3.81947e-16)
(-16.384 -0.0588242 3.83647e-16)
(-16.3834 -0.0595424 3.85001e-16)
(-16.3828 -0.0602848 3.8619e-16)
(-16.3821 -0.0610522 3.85574e-16)
(-16.3815 -0.0618458 3.85474e-16)
(-16.3808 -0.0626677 3.8767e-16)
(-16.3801 -0.0635205 3.89743e-16)
(-16.3793 -0.0644078 3.9176e-16)
(-16.3785 -0.0653335 3.93829e-16)
(-16.3777 -0.0663028 3.93796e-16)
(-16.3768 -0.0673216 3.93955e-16)
(-16.3758 -0.0683965 3.9655e-16)
(-16.3747 -0.0695381 3.98723e-16)
(-16.3735 -0.0707553 4.0068e-16)
(-16.3722 -0.0720582 4.02521e-16)
(-16.3708 -0.0734649 4.04316e-16)
(-16.3692 -0.0749934 4.06116e-16)
(-16.3674 -0.0766655 4.07948e-16)
(-16.3654 -0.0785068 4.09836e-16)
(-16.3631 -0.0805454 4.11687e-16)
(-16.3605 -0.0828135 4.15454e-16)
(-16.3575 -0.0853486 4.18838e-16)
(-16.3541 -0.0881939 4.20077e-16)
(-16.3503 -0.0913992 4.21742e-16)
(-16.3459 -0.0950226 4.23772e-16)
(-16.3408 -0.0991309 4.25984e-16)
(-16.3351 -0.103802 4.30264e-16)
(-16.3284 -0.109126 4.34321e-16)
(-16.3208 -0.115207 4.36346e-16)
(-16.3121 -0.122167 4.38873e-16)
(-16.3021 -0.130147 4.41861e-16)
(-16.2906 -0.139312 4.45249e-16)
(-16.2774 -0.149854 4.49105e-16)
(-16.2622 -0.162001 4.54378e-16)
(-16.2448 -0.176019 4.59441e-16)
(-16.2249 -0.192226 4.65652e-16)
(-16.202 -0.211 4.72258e-16)
(-16.1759 -0.232803 4.77206e-16)
(-16.1461 -0.258198 4.83372e-16)
(-16.1123 -0.287871 4.91563e-16)
(-16.0742 -0.32263 5.02472e-16)
(-16.0315 -0.363463 5.13509e-16)
(-15.9837 -0.411688 5.22194e-16)
(-15.9304 -0.469055 5.33248e-16)
(-16.5366 0.0534271 2.56588e-17)
(-16.5389 0.0537439 2.59056e-17)
(-16.5392 0.0541368 2.61888e-17)
(-16.5393 0.0545415 2.4679e-17)
(-16.5392 0.0549327 2.36618e-17)
(-16.5392 0.0553012 2.48681e-17)
(-16.5391 0.0556426 2.57485e-17)
(-16.539 0.0559539 2.63358e-17)
(-16.5389 0.0562319 2.68456e-17)
(-16.5388 0.0564727 2.48689e-17)
(-16.5387 0.0566721 2.3718e-17)
(-16.5386 0.0568246 2.5386e-17)
(-16.5385 0.0569239 2.65055e-17)
(-16.5383 0.0569625 2.74841e-17)
(-16.5381 0.0569315 2.86253e-17)
(-16.5379 0.0568203 2.76334e-17)
(-16.5376 0.0566187 2.72167e-17)
(-16.5373 0.0563126 2.88539e-17)
(-16.5369 0.0558896 3.01272e-17)
(-16.5364 0.0553334 3.11816e-17)
(-16.5359 0.054625 3.20853e-17)
(-16.5352 0.0537437 3.29188e-17)
(-16.5344 0.0526662 3.36967e-17)
(-16.5335 0.0513647 3.44599e-17)
(-16.5325 0.0498068 3.5202e-17)
(-16.5312 0.0479549 3.58439e-17)
(-16.5297 0.0457662 3.82779e-17)
(-16.528 0.0431912 4.02033e-17)
(-16.526 0.0401729 3.98856e-17)
(-16.5236 0.0366459 3.98978e-17)
(-16.5208 0.032535 4.01266e-17)
(-16.5176 0.0277536 4.03956e-17)
(-16.5138 0.0222023 4.25672e-17)
(-16.5094 0.0157668 4.43302e-17)
(-16.5042 0.00831628 4.3823e-17)
(-16.4983 -0.000300045 4.35799e-17)
(-16.4913 -0.0102551 4.34808e-17)
(-16.4833 -0.0217477 4.32939e-17)
(-16.474 -0.035006 4.48542e-17)
(-16.4632 -0.0502917 4.48414e-17)
(-16.4508 -0.0679045 4.26749e-17)
(-16.4364 -0.0881871 4.37672e-17)
(-16.42 -0.111531 4.42006e-17)
(-16.4013 -0.138384 4.18283e-17)
(-16.3799 -0.169256 4.10673e-17)
(-16.3558 -0.204715 3.80982e-17)
(-16.3289 -0.245376 3.46111e-17)
(-16.2991 -0.291909 3.16215e-17)
(-16.2666 -0.345085 2.5177e-17)
(-16.2311 -0.405817 1.62103e-17)
(-16.4533 -0.0401734 1.7708e-16)
(-16.4504 -0.0404472 1.77417e-16)
(-16.4495 -0.040772 1.77775e-16)
(-16.449 -0.0411213 1.76304e-16)
(-16.4485 -0.0414865 1.7518e-16)
(-16.448 -0.0418659 1.76258e-16)
(-16.4476 -0.0422591 1.77046e-16)
(-16.4472 -0.0426666 1.77587e-16)
(-16.4467 -0.0430892 1.78013e-16)
(-16.4463 -0.0435283 1.7634e-16)
(-16.4458 -0.0439856 1.74941e-16)
(-16.4453 -0.0444635 1.75793e-16)
(-16.4449 -0.0449649 1.76538e-16)
(-16.4444 -0.045495 1.7713e-16)
(-16.4438 -0.0460583 1.77589e-16)
(-16.4433 -0.0466604 1.76377e-16)
(-16.4427 -0.0473107 1.75514e-16)
(-16.442 -0.0480191 1.76829e-16)
(-16.4413 -0.0487976 1.77857e-16)
(-16.4406 -0.0496603 1.78648e-16)
(-16.4397 -0.0506241 1.79322e-16)
(-16.4388 -0.0517087 1.79927e-16)
(-16.4377 -0.0529365 1.8052e-16)
(-16.4365 -0.054334 1.81121e-16)
(-16.4352 -0.0559316 1.81761e-16)
(-16.4337 -0.057765 1.8235e-16)
(-16.432 -0.0598758 1.84823e-16)
(-16.4301 -0.0623123 1.86866e-16)
(-16.4279 -0.0651312 1.86771e-16)
(-16.4254 -0.0683983 1.87137e-16)
(-16.4225 -0.0721904 1.87893e-16)
(-16.4192 -0.0765969 1.88876e-16)
(-16.4154 -0.0817216 1.92025e-16)
(-16.4111 -0.087685 1.94999e-16)
(-16.4061 -0.0946266 1.96002e-16)
(-16.4003 -0.102708 1.97657e-16)
(-16.3937 -0.112118 1.99918e-16)
(-16.3861 -0.123073 2.0272e-16)
(-16.3774 -0.135823 2.06167e-16)
(-16.3674 -0.150657 2.10346e-16)
(-16.3559 -0.167909 2.15907e-16)
(-16.3427 -0.187958 2.2363e-16)
(-16.3276 -0.211241 2.30783e-16)
(-16.3104 -0.238252 2.37712e-16)
(-16.2909 -0.269546 2.45957e-16)
(-16.2688 -0.305737 2.54668e-16)
(-16.244 -0.347484 2.67392e-16)
(-16.2165 -0.395469 2.82416e-16)
(-16.1861 -0.45039 2.97011e-16)
(-16.1526 -0.512978 3.14369e-16)
(-16.51 0.0339567 -2.14349e-16)
(-16.5125 0.0340646 -2.14289e-16)
(-16.5129 0.0341897 -2.14127e-16)
(-16.5129 0.0343032 -2.15887e-16)
(-16.5128 0.0343927 -2.17296e-16)
(-16.5126 0.0344526 -2.16438e-16)
(-16.5125 0.0344785 -2.15815e-16)
(-16.5123 0.0344668 -2.15399e-16)
(-16.5122 0.0344131 -2.15105e-16)
(-16.512 0.0343127 -2.16862e-16)
(-16.5119 0.0341606 -2.18488e-16)
(-16.5117 0.0339504 -2.17821e-16)
(-16.5115 0.0336744 -2.17424e-16)
(-16.5113 0.0333255 -2.1764e-16)
(-16.5111 0.0328941 -2.17646e-16)
(-16.5109 0.0323694 -2.1944e-16)
(-16.5106 0.0317394 -2.20868e-16)
(-16.5103 0.0309907 -2.20124e-16)
(-16.51 0.0301075 -2.19815e-16)
(-16.5096 0.0290712 -2.19818e-16)
(-16.5092 0.0278607 -2.20053e-16)
(-16.5087 0.0264512 -2.20457e-16)
(-16.5082 0.0248144 -2.21004e-16)
(-16.5075 0.0229177 -2.21669e-16)
(-16.5068 0.0207237 -2.22448e-16)
(-16.5059 0.0181896 -2.23439e-16)
(-16.5049 0.0152664 -2.22728e-16)
(-16.5037 0.0118977 -2.22642e-16)
(-16.5024 0.00801924 -2.24915e-16)
(-16.5008 0.00355675 -2.26998e-16)
(-16.4989 -0.00157485 -2.28975e-16)
(-16.4968 -0.00747327 -2.31067e-16)
(-16.4943 -0.0142505 -2.31393e-16)
(-16.4915 -0.0220348 -2.32351e-16)
(-16.4881 -0.0309729 -2.35761e-16)
(-16.4843 -0.0412328 -2.39101e-16)
(-16.4799 -0.0530065 -2.42513e-16)
(-16.4747 -0.0665129 -2.46162e-16)
(-16.4688 -0.0820017 -2.50257e-16)
(-16.462 -0.0997557 -2.51354e-16)
(-16.4541 -0.120095 -2.55491e-16)
(-16.4451 -0.143378 -2.62075e-16)
(-16.4348 -0.170008 -2.65633e-16)
(-16.4231 -0.200426 -2.73754e-16)
(-16.4098 -0.235119 -2.84383e-16)
(-16.3948 -0.274603 -2.93891e-16)
(-16.3781 -0.319414 -3.03499e-16)
(-16.3597 -0.370072 -3.14222e-16)
(-16.3395 -0.427063 -3.30661e-16)
(-16.3174 -0.490861 -3.51514e-16)
(-16.4759 -0.0228527 1.3903e-16)
(-16.473 -0.0229804 1.40778e-16)
(-16.4722 -0.0231226 1.42634e-16)
(-16.4717 -0.0232776 1.42459e-16)
(-16.4714 -0.0234454 1.42635e-16)
(-16.4711 -0.023627 1.45181e-16)
(-16.4708 -0.0238237 1.47506e-16)
(-16.4705 -0.0240369 1.49648e-16)
(-16.4702 -0.0242688 1.51764e-16)
(-16.4699 -0.0245219 1.51957e-16)
(-16.4696 -0.0248002 1.52339e-16)
(-16.4693 -0.0251077 1.54944e-16)
(-16.4691 -0.0254497 1.57178e-16)
(-16.4688 -0.0258326 1.59114e-16)
(-16.4685 -0.0262641 1.61212e-16)
(-16.4682 -0.0267533 1.6137e-16)
(-16.4679 -0.027311 1.61931e-16)
(-16.4676 -0.0279496 1.64672e-16)
(-16.4672 -0.0286835 1.67032e-16)
(-16.4669 -0.0295297 1.69112e-16)
(-16.4665 -0.0305081 1.71011e-16)
(-16.466 -0.0316416 1.72784e-16)
(-16.4656 -0.0329575 1.74482e-16)
(-16.4651 -0.0344871 1.7612e-16)
(-16.4645 -0.0362671 1.77728e-16)
(-16.4638 -0.03834 1.79195e-16)
(-16.4631 -0.040755 1.8246e-16)
(-16.4622 -0.0435694 1.85127e-16)
(-16.4613 -0.04685 1.85545e-16)
(-16.4602 -0.0506739 1.86367e-16)
(-16.4589 -0.0551311 1.87473e-16)
(-16.4575 -0.0603257 1.88679e-16)
(-16.4558 -0.066378 1.9192e-16)
(-16.4539 -0.0734271 1.94815e-16)
(-16.4516 -0.0816334 1.95586e-16)
(-16.4491 -0.0911812 1.96875e-16)
(-16.4461 -0.102283 1.9859e-16)
(-16.4426 -0.11518 2.0055e-16)
(-16.4386 -0.130151 2.04683e-16)
(-16.434 -0.147508 2.07824e-16)
(-16.4286 -0.167607 2.09439e-16)
(-16.4224 -0.190844 2.1496e-16)
(-16.4153 -0.217658 2.20902e-16)
(-16.4072 -0.24853 2.25294e-16)
(-16.3978 -0.283976 2.32721e-16)
(-16.3871 -0.324539 2.39645e-16)
(-16.3751 -0.37077 2.47961e-16)
(-16.3616 -0.423188 2.59659e-16)
(-16.3466 -0.482261 2.71455e-16)
(-16.3297 -0.548429 2.87212e-16)
(-16.4843 0.0132823 -1.23148e-16)
(-16.4868 0.0132414 -1.21968e-16)
(-16.4871 0.0131813 -1.20688e-16)
(-16.4871 0.013099 -1.21346e-16)
(-16.487 0.012993 -1.2162e-16)
(-16.4868 0.0128614 -1.19455e-16)
(-16.4867 0.0127019 -1.17494e-16)
(-16.4865 0.0125116 -1.15689e-16)
(-16.4863 0.0122873 -1.13779e-16)
(-16.4862 0.012025 -1.13767e-16)
(-16.486 0.0117202 -1.13451e-16)
(-16.4859 0.0113677 -1.11009e-16)
(-16.4857 0.0109612 -1.08901e-16)
(-16.4856 0.0104933 -1.06999e-16)
(-16.4854 0.00995547 -1.05107e-16)
(-16.4852 0.00933759 -1.05202e-16)
(-16.4851 0.00862787 -1.04855e-16)
(-16.4849 0.00781262 -1.02372e-16)
(-16.4847 0.00687598 -1.00304e-16)
(-16.4845 0.00579951 -9.85575e-17)
(-16.4843 0.00456174 -9.7049e-17)
(-16.4841 0.00313776 -9.57202e-17)
(-16.4839 0.00149872 -9.45624e-17)
(-16.4836 -0.000388775 -9.35369e-17)
(-16.4833 -0.00256325 -9.26765e-17)
(-16.483 -0.00506911 -9.20479e-17)
(-16.4826 -0.00795755 -8.97712e-17)
(-16.4822 -0.0112876 -8.81679e-17)
(-16.4817 -0.0151273 -8.90327e-17)
(-16.4811 -0.0195555 -8.97208e-17)
(-16.4805 -0.024663 -9.04066e-17)
(-16.4798 -0.0305545 -9.12589e-17)
(-16.479 -0.0373507 -9.04465e-17)
(-16.4781 -0.0451901 -9.03448e-17)
(-16.477 -0.054232 -9.28461e-17)
(-16.4758 -0.064659 -9.53427e-17)
(-16.4744 -0.0766799 -9.80367e-17)
(-16.4728 -0.0905333 -1.01102e-16)
(-16.4709 -0.106491 -1.04586e-16)
(-16.4687 -0.124859 -1.07611e-16)
(-16.4662 -0.145984 -1.12093e-16)
(-16.4633 -0.170251 -1.16769e-16)
(-16.4599 -0.198085 -1.22646e-16)
(-16.456 -0.229948 -1.32272e-16)
(-16.4514 -0.266335 -1.43009e-16)
(-16.4461 -0.307759 -1.54637e-16)
(-16.4399 -0.354729 -1.67042e-16)
(-16.4327 -0.407714 -1.8362e-16)
(-16.4244 -0.467108 -2.08277e-16)
(-16.4145 -0.53325 -2.37891e-16)
(-16.4877 -0.00505651 2.55887e-16)
(-16.4849 -0.00506845 2.58325e-16)
(-16.4842 -0.00508046 2.60805e-16)
(-16.4838 -0.00510514 2.61379e-16)
(-16.4836 -0.00514766 2.62461e-16)
(-16.4834 -0.00521087 2.65926e-16)
(-16.4832 -0.0052974 2.69244e-16)
(-16.4831 -0.00541025 2.7246e-16)
(-16.4829 -0.00555299 2.75751e-16)
(-16.4828 -0.00572987 2.77099e-16)
(-16.4827 -0.00594598 2.78913e-16)
(-16.4826 -0.00620723 2.83054e-16)
(-16.4825 -0.00652051 2.86901e-16)
(-16.4824 -0.0068938 2.90629e-16)
(-16.4823 -0.00733644 2.94371e-16)
(-16.4823 -0.00785919 2.96255e-16)
(-16.4822 -0.00847447 2.98644e-16)
(-16.4822 -0.00919661 3.03325e-16)
(-16.4822 -0.0100421 3.07691e-16)
(-16.4823 -0.01103 3.11861e-16)
(-16.4823 -0.0121825 3.15938e-16)
(-16.4824 -0.013525 3.19958e-16)
(-16.4825 -0.0150871 3.23999e-16)
(-16.4826 -0.0169028 3.2804e-16)
(-16.4828 -0.0190115 3.32161e-16)
(-16.4829 -0.0214585 3.36205e-16)
(-16.4832 -0.0242958 3.42212e-16)
(-16.4834 -0.0275836 3.47739e-16)
(-16.4837 -0.0313912 3.51174e-16)
(-16.484 -0.0357988 3.55068e-16)
(-16.4844 -0.0408989 3.59458e-16)
(-16.4848 -0.0467985 3.64074e-16)
(-16.4853 -0.0536206 3.70986e-16)
(-16.4858 -0.0615071 3.77755e-16)
(-16.4865 -0.0706211 3.82771e-16)
(-16.4871 -0.0811503 3.88624e-16)
(-16.4879 -0.0933098 3.95394e-16)
(-16.4887 -0.107346 4.02886e-16)
(-16.4896 -0.123542 4.13291e-16)
(-16.4907 -0.142216 4.2336e-16)
(-16.4917 -0.16373 4.32697e-16)
(-16.4929 -0.188491 4.47914e-16)
(-16.4941 -0.216948 4.64463e-16)
(-16.4953 -0.249597 4.80354e-16)
(-16.4965 -0.286968 5.0197e-16)
(-16.4976 -0.329621 5.25686e-16)
(-16.4986 -0.378122 5.54265e-16)
(-16.4992 -0.433006 5.90517e-16)
(-16.4993 -0.494745 6.31878e-16)
(-16.4985 -0.56375 6.80798e-16)
(-16.4531 -0.00701796 -5.48566e-16)
(-16.4555 -0.00718686 -5.49506e-16)
(-16.4558 -0.00739659 -5.50304e-16)
(-16.4558 -0.00763134 -5.52991e-16)
(-16.4557 -0.00788402 -5.55185e-16)
(-16.4555 -0.0081531 -5.5497e-16)
(-16.4554 -0.00843902 -5.54982e-16)
(-16.4552 -0.00874325 -5.5514e-16)
(-16.4551 -0.00906795 -5.55258e-16)
(-16.4549 -0.0094159 -5.57252e-16)
(-16.4548 -0.00979058 -5.58698e-16)
(-16.4547 -0.0101962 -5.57869e-16)
(-16.4546 -0.0106379 -5.57347e-16)
(-16.4545 -0.0111217 -5.57026e-16)
(-16.4545 -0.0116548 -5.56696e-16)
(-16.4544 -0.012246 -5.58296e-16)
(-16.4544 -0.0129053 -5.59408e-16)
(-16.4544 -0.0136448 -5.58301e-16)
(-16.4544 -0.0144785 -5.576e-16)
(-16.4545 -0.0154231 -5.57195e-16)
(-16.4546 -0.0164978 -5.57031e-16)
(-16.4547 -0.0177256 -5.57041e-16)
(-16.4548 -0.0191333 -5.57265e-16)
(-16.455 -0.020752 -5.57649e-16)
(-16.4552 -0.0226183 -5.58302e-16)
(-16.4555 -0.0247747 -5.59265e-16)
(-16.4559 -0.0272704 -5.58748e-16)
(-16.4563 -0.0301628 -5.59053e-16)
(-16.4568 -0.0335188 -5.62119e-16)
(-16.4574 -0.0374162 -5.6523e-16)
(-16.4582 -0.0419453 -5.68748e-16)
(-16.459 -0.0472112 -5.72796e-16)
(-16.46 -0.0533354 -5.75717e-16)
(-16.4612 -0.0604589 -5.79914e-16)
(-16.4625 -0.0687444 -5.8748e-16)
(-16.4641 -0.0783797 -5.95768e-16)
(-16.4659 -0.0895812 -6.05237e-16)
(-16.4679 -0.102597 -6.16118e-16)
(-16.4703 -0.117713 -6.28758e-16)
(-16.473 -0.135252 -6.42384e-16)
(-16.4761 -0.155583 -6.59263e-16)
(-16.4795 -0.179118 -6.7835e-16)
(-16.4834 -0.206318 -7.01121e-16)
(-16.4875 -0.237689 -7.30511e-16)
(-16.492 -0.273778 -7.64462e-16)
(-16.4967 -0.31516 -8.03449e-16)
(-16.5014 -0.362422 -8.48201e-16)
(-16.5058 -0.416126 -9.0321e-16)
(-16.5097 -0.476763 -9.73385e-16)
(-16.5124 -0.544718 -1.058e-15)
(-16.4977 0.0119498 8.74077e-16)
(-16.4953 0.0120541 8.77289e-16)
(-16.4947 0.0121758 8.80493e-16)
(-16.4945 0.0122892 8.81861e-16)
(-16.4944 0.012384 8.83843e-16)
(-16.4943 0.0124557 8.88247e-16)
(-16.4943 0.0125007 8.92461e-16)
(-16.4942 0.0125153 8.9656e-16)
(-16.4942 0.0124952 9.00789e-16)
(-16.4942 0.0124354 9.03236e-16)
(-16.4943 0.0123302 9.06354e-16)
(-16.4943 0.0121728 9.11838e-16)
(-16.4944 0.0119557 9.17118e-16)
(-16.4946 0.0116702 9.22349e-16)
(-16.4947 0.0113063 9.27729e-16)
(-16.4949 0.0108526 9.31389e-16)
(-16.4951 0.010296 9.35722e-16)
(-16.4954 0.00962157 9.42539e-16)
(-16.4958 0.0088122 9.49213e-16)
(-16.4962 0.0078483 9.55891e-16)
(-16.4966 0.00670737 9.62693e-16)
(-16.4971 0.00536357 9.69669e-16)
(-16.4978 0.00378722 9.7691e-16)
(-16.4985 0.00194429 9.84399e-16)
(-16.4993 -0.000204253 9.92241e-16)
(-16.5003 -0.00270309 1.00026e-15)
(-16.5014 -0.00560344 1.01059e-15)
(-16.5027 -0.00896406 1.02073e-15)
(-16.5041 -0.0128524 1.02912e-15)
(-16.5058 -0.0173462 1.03833e-15)
(-16.5078 -0.0225348 1.04844e-15)
(-16.51 -0.028521 1.05917e-15)
(-16.5126 -0.0354232 1.0727e-15)
(-16.5155 -0.0433775 1.08656e-15)
(-16.5189 -0.0525406 1.09923e-15)
(-16.5228 -0.0630927 1.11336e-15)
(-16.5273 -0.0752415 1.12914e-15)
(-16.5324 -0.089226 1.14643e-15)
(-16.5383 -0.105321 1.16758e-15)
(-16.545 -0.123842 1.18946e-15)
(-16.5527 -0.14515 1.21196e-15)
(-16.5614 -0.169657 1.24115e-15)
(-16.5712 -0.197833 1.274e-15)
(-16.5822 -0.230207 1.30899e-15)
(-16.5945 -0.267365 1.35203e-15)
(-16.608 -0.309953 1.40052e-15)
(-16.6227 -0.358658 1.45807e-15)
(-16.6385 -0.414192 1.52834e-15)
(-16.655 -0.477236 1.60977e-15)
(-16.6718 -0.548366 1.70873e-15)
(-16.4033 -0.025656 -9.09121e-16)
(-16.4054 -0.0259821 -9.12062e-16)
(-16.4057 -0.0263776 -9.14955e-16)
(-16.4056 -0.0268054 -9.19696e-16)
(-16.4055 -0.0272494 -9.23825e-16)
(-16.4053 -0.0277048 -9.25516e-16)
(-16.4051 -0.0281712 -9.27544e-16)
(-16.405 -0.0286493 -9.29684e-16)
(-16.4048 -0.029141 -9.31806e-16)
(-16.4047 -0.0296484 -9.35707e-16)
(-16.4046 -0.0301743 -9.39008e-16)
(-16.4045 -0.0307222 -9.39974e-16)
(-16.4045 -0.0312961 -9.41216e-16)
(-16.4045 -0.0319008 -9.42614e-16)
(-16.4045 -0.0325423 -9.43939e-16)
(-16.4045 -0.0332274 -9.4716e-16)
(-16.4046 -0.0339645 -9.49787e-16)
(-16.4048 -0.0347632 -9.50103e-16)
(-16.405 -0.0356352 -9.50746e-16)
(-16.4052 -0.0365941 -9.51634e-16)
(-16.4056 -0.037656 -9.52659e-16)
(-16.406 -0.0388399 -9.53812e-16)
(-16.4065 -0.0401684 -9.55088e-16)
(-16.4072 -0.0416677 -9.56494e-16)
(-16.4079 -0.0433688 -9.58106e-16)
(-16.4088 -0.0453076 -9.60032e-16)
(-16.4099 -0.0475264 -9.60395e-16)
(-16.4111 -0.0500745 -9.61649e-16)
(-16.4126 -0.0530097 -9.65733e-16)
(-16.4143 -0.0563993 -9.69945e-16)
(-16.4163 -0.0603224 -9.74657e-16)
(-16.4186 -0.0648711 -9.80113e-16)
(-16.4214 -0.0701532 -9.84645e-16)
(-16.4245 -0.0762946 -9.90786e-16)
(-16.4282 -0.0834422 -1.00068e-15)
(-16.4324 -0.0917677 -1.0118e-15)
(-16.4373 -0.101472 -1.02473e-15)
(-16.4429 -0.112789 -1.03987e-15)
(-16.4494 -0.125993 -1.05775e-15)
(-16.4568 -0.141404 -1.0778e-15)
(-16.4653 -0.159394 -1.10258e-15)
(-16.4749 -0.180397 -1.13125e-15)
(-16.4859 -0.204917 -1.16581e-15)
(-16.4981 -0.233533 -1.2094e-15)
(-16.5118 -0.266906 -1.26063e-15)
(-16.5267 -0.30577 -1.32052e-15)
(-16.5429 -0.350931 -1.39067e-15)
(-16.5599 -0.403258 -1.47665e-15)
(-16.5772 -0.463627 -1.5851e-15)
(-16.5938 -0.532761 -1.71643e-15)
(-16.512 0.026837 1.56703e-15)
(-16.5102 0.0270819 1.57206e-15)
(-16.5099 0.027382 1.57707e-15)
(-16.5098 0.0276946 1.58019e-15)
(-16.5099 0.0280024 1.58398e-15)
(-16.5101 0.0282984 1.59015e-15)
(-16.5102 0.0285783 1.5961e-15)
(-16.5104 0.028838 1.60195e-15)
(-16.5106 0.0290733 1.60795e-15)
(-16.5109 0.0292796 1.61226e-15)
(-16.5111 0.0294518 1.61734e-15)
(-16.5114 0.0295839 1.62493e-15)
(-16.5118 0.0296695 1.63235e-15)
(-16.5122 0.0297007 1.63986e-15)
(-16.5127 0.0296691 1.64759e-15)
(-16.5132 0.0295645 1.65369e-15)
(-16.5137 0.0293755 1.6606e-15)
(-16.5144 0.0290891 1.6702e-15)
(-16.5151 0.0286903 1.67965e-15)
(-16.516 0.0281617 1.68926e-15)
(-16.5169 0.0274835 1.69905e-15)
(-16.5179 0.0266329 1.70918e-15)
(-16.5191 0.0255835 1.71967e-15)
(-16.5205 0.0243051 1.73061e-15)
(-16.522 0.0227628 1.74204e-15)
(-16.5238 0.0209166 1.7539e-15)
(-16.5258 0.0187206 1.76825e-15)
(-16.5281 0.0161217 1.78267e-15)
(-16.5307 0.0130591 1.79554e-15)
(-16.5337 0.00946232 1.80956e-15)
(-16.5372 0.0052501 1.82477e-15)
(-16.5411 0.000328498 1.84102e-15)
(-16.5457 -0.00541109 1.86126e-15)
(-16.5509 -0.0120943 1.88204e-15)
(-16.557 -0.0198664 1.90165e-15)
(-16.5639 -0.0288962 1.92422e-15)
(-16.5719 -0.0393793 1.94949e-15)
(-16.5812 -0.051543 1.97758e-15)
(-16.5918 -0.0656524 2.01102e-15)
(-16.6041 -0.0820158 2.04691e-15)
(-16.6182 -0.100993 2.0854e-15)
(-16.6344 -0.123004 2.13287e-15)
(-16.6529 -0.148539 2.18669e-15)
(-16.6741 -0.178175 2.24567e-15)
(-16.698 -0.212579 2.31665e-15)
(-16.7251 -0.252515 2.39756e-15)
(-16.7553 -0.298851 2.49385e-15)
(-16.7887 -0.352609 2.60909e-15)
(-16.8249 -0.414979 2.74326e-15)
(-16.8631 -0.487099 2.90497e-15)
(-16.2845 -0.040925 -1.92077e-15)
(-16.2861 -0.0414757 -1.93157e-15)
(-16.2861 -0.0421188 -1.94272e-15)
(-16.286 -0.042803 -1.95605e-15)
(-16.2857 -0.0435046 -1.96916e-15)
(-16.2854 -0.0442191 -1.98023e-15)
(-16.2852 -0.0449468 -1.99203e-15)
(-16.285 -0.0456897 -2.00439e-15)
(-16.2847 -0.0464502 -2.01708e-15)
(-16.2845 -0.0472311 -2.03204e-15)
(-16.2844 -0.0480354 -2.04663e-15)
(-16.2842 -0.0488665 -2.05925e-15)
(-16.2841 -0.0497284 -2.07235e-15)
(-16.2841 -0.0506257 -2.08592e-15)
(-16.2841 -0.0515635 -2.0995e-15)
(-16.2841 -0.0525482 -2.11517e-15)
(-16.2842 -0.0535869 -2.13017e-15)
(-16.2844 -0.0546881 -2.14282e-15)
(-16.2847 -0.0558616 -2.1557e-15)
(-16.2851 -0.057119 -2.16875e-15)
(-16.2856 -0.0584737 -2.18174e-15)
(-16.2862 -0.0599414 -2.19469e-15)
(-16.2869 -0.0615404 -2.20751e-15)
(-16.2878 -0.063292 -2.22021e-15)
(-16.2889 -0.0652211 -2.23274e-15)
(-16.2903 -0.0673564 -2.24526e-15)
(-16.2919 -0.0697315 -2.25572e-15)
(-16.2938 -0.0723851 -2.26673e-15)
(-16.296 -0.0753625 -2.28023e-15)
(-16.2987 -0.0787161 -2.29359e-15)
(-16.3017 -0.0825073 -2.30725e-15)
(-16.3054 -0.0868073 -2.32165e-15)
(-16.3096 -0.0916993 -2.33513e-15)
(-16.3145 -0.0972804 -2.35053e-15)
(-16.3203 -0.103664 -2.37018e-15)
(-16.3269 -0.110984 -2.39163e-15)
(-16.3346 -0.119397 -2.41565e-15)
(-16.3436 -0.129089 -2.44274e-15)
(-16.3539 -0.140282 -2.47357e-15)
(-16.3659 -0.15324 -2.50788e-15)
(-16.3796 -0.168282 -2.54813e-15)
(-16.3954 -0.185796 -2.59312e-15)
(-16.4134 -0.206258 -2.64628e-15)
(-16.434 -0.230259 -2.71155e-15)
(-16.4573 -0.25854 -2.78654e-15)
(-16.4834 -0.292004 -2.87386e-15)
(-16.5124 -0.331758 -2.97581e-15)
(-16.5443 -0.379238 -3.09925e-15)
(-16.5783 -0.436346 -3.25176e-15)
(-16.6129 -0.505129 -3.43563e-15)
(-16.4631 0.0377785 2.32785e-15)
(-16.4628 0.0381246 2.34123e-15)
(-16.4632 0.038607 2.35519e-15)
(-16.4638 0.0391473 2.36768e-15)
(-16.4645 0.0397133 2.38131e-15)
(-16.4653 0.0402916 2.39788e-15)
(-16.4661 0.0408757 2.41456e-15)
(-16.467 0.0414614 2.43163e-15)
(-16.4679 0.0420458 2.44913e-15)
(-16.4689 0.0426258 2.46526e-15)
(-16.4699 0.0431985 2.4824e-15)
(-16.471 0.0437605 2.50243e-15)
(-16.4722 0.0443082 2.52241e-15)
(-16.4734 0.0448371 2.54264e-15)
(-16.4747 0.0453424 2.56321e-15)
(-16.4761 0.0458181 2.58222e-15)
(-16.4776 0.0462576 2.6022e-15)
(-16.4792 0.0466528 2.62502e-15)
(-16.4809 0.0469945 2.64783e-15)
(-16.4828 0.047272 2.67091e-15)
(-16.4848 0.0474726 2.69439e-15)
(-16.487 0.0475818 2.71836e-15)
(-16.4894 0.0475824 2.74293e-15)
(-16.492 0.0474545 2.76815e-15)
(-16.4949 0.0471749 2.79414e-15)
(-16.4981 0.0467165 2.82084e-15)
(-16.5016 0.0460481 2.85048e-15)
(-16.5056 0.0451331 2.88061e-15)
(-16.51 0.0439291 2.9097e-15)
(-16.5149 0.0423862 2.94068e-15)
(-16.5205 0.0404464 2.97356e-15)
(-16.5268 0.0380414 3.00835e-15)
(-16.534 0.0350912 3.04713e-15)
(-16.5421 0.0315016 3.08753e-15)
(-16.5514 0.0271614 3.12752e-15)
(-16.562 0.0219387 3.17019e-15)
(-16.5741 0.0156766 3.21517e-15)
(-16.588 0.00818703 3.26241e-15)
(-16.6039 -0.000756494 3.31387e-15)
(-16.6223 -0.0114289 3.36611e-15)
(-16.6433 -0.0241659 3.41863e-15)
(-16.6676 -0.0393803 3.47766e-15)
(-16.6957 -0.0575849 3.53958e-15)
(-16.7279 -0.0794267 3.60287e-15)
(-16.7651 -0.10573 3.67377e-15)
(-16.8079 -0.137514 3.74899e-15)
(-16.8569 -0.175998 3.83296e-15)
(-16.913 -0.22271 3.92877e-15)
(-16.9768 -0.279843 4.03522e-15)
(-17.0468 -0.350196 4.15986e-15)
(-15.6814 -0.0500514 -3.64278e-16)
(-15.6825 -0.0509665 -3.7277e-16)
(-15.6825 -0.0518436 -3.81674e-16)
(-15.6825 -0.0527444 -3.93117e-16)
(-15.6825 -0.0536595 -4.04521e-16)
(-15.6824 -0.0545914 -4.13788e-16)
(-15.6824 -0.0555435 -4.2388e-16)
(-15.6824 -0.0565195 -4.34592e-16)
(-15.6825 -0.0575226 -4.45749e-16)
(-15.6826 -0.0585564 -4.59601e-16)
(-15.6827 -0.0596245 -4.73107e-16)
(-15.6829 -0.0607309 -4.84458e-16)
(-15.6831 -0.0618797 -4.96865e-16)
(-15.6834 -0.0630759 -5.1001e-16)
(-15.6838 -0.0643248 -5.23654e-16)
(-15.6842 -0.0656327 -5.40129e-16)
(-15.6847 -0.0670065 -5.56375e-16)
(-15.6854 -0.0684544 -5.70543e-16)
(-15.6861 -0.0699854 -5.85972e-16)
(-15.687 -0.07161 -6.02304e-16)
(-15.688 -0.0733401 -6.19494e-16)