/*--------------------------------*- C++ -*----------------------------------*\
  =========                 |
  \\      /  F ield         | OpenFOAM: The Open Source CFD Toolbox
   \\    /   O peration     | Website:  https://openfoam.org
    \\  /    A nd           | Version:  8
     \\/     M anipulation  |
\*---------------------------------------------------------------------------*/
FoamFile
{
    version     2.0;
    format      ascii;
    class       volScalarField;
    location    "800";
    object      alphat;
}
// * * * * * * * * * * * * * * * * * * * * * * * * * * * * * * * * * * * * * //

dimensions      [1 -1 -1 0 0 0 0];

internalField   nonuniform List<scalar> 
8400
(
0.219291
0.216496
0.213714
0.210948
0.208196
0.205456
0.202729
0.200013
0.19731
0.19462
0.191945
0.189286
0.186644
0.184022
0.181419
0.178838
0.176278
0.17374
0.171226
0.168736
0.166269
0.163827
0.161411
0.159022
0.15666
0.154325
0.152016
0.149732
0.147475
0.145244
0.143039
0.140861
0.138708
0.136581
0.134483
0.132414
0.130373
0.12836
0.126375
0.124419
0.12249
0.12059
0.118719
0.116877
0.115067
0.113288
0.111545
0.109843
0.108186
0.106585
0.0637117
0.0636543
0.0635987
0.0635446
0.0634916
0.0634394
0.063388
0.0633373
0.0632874
0.0632381
0.0631895
0.0631416
0.0630947
0.0630489
0.063004
0.0629599
0.0629167
0.0628744
0.0628325
0.0627907
0.0627492
0.0627076
0.0626658
0.0626187
0.0625678
0.0625154
0.0624632
0.0624128
0.062365
0.0623204
0.06228
0.062244
0.0622129
0.0621873
0.0621623
0.062136
0.0621107
0.0620866
0.0620631
0.0620403
0.0620185
0.0619974
0.0619776
0.0619589
0.0619411
0.0619246
0.0619089
0.0618948
0.0618824
0.0618723
0.060472
0.0604794
0.0604861
0.0604923
0.0604979
0.0605027
0.0605067
0.0605099
0.0605123
0.0605141
0.0605151
0.0605156
0.0605157
0.0605154
0.0605148
0.0605139
0.0605129
0.0605117
0.0605101
0.0605082
0.0605063
0.0605044
0.0605026
0.0605007
0.0604987
0.0604967
0.0604948
0.0604931
0.0604915
0.0604902
0.060489
0.0604882
0.0604878
0.0604877
0.0604881
0.0604888
0.0604897
0.0604911
0.0604927
0.0604945
0.0604967
0.0604994
0.0605025
0.0605061
0.06051
0.0605146
0.0605197
0.0605261
0.0605347
0.0605448
0.0588732
0.0588947
0.0589163
0.0589375
0.0589578
0.0589771
0.0589953
0.0590127
0.0590294
0.0590452
0.0590601
0.0590744
0.0590881
0.0591013
0.0591142
0.0591269
0.0591392
0.0591511
0.0591626
0.0591738
0.0591849
0.059196
0.059207
0.0592179
0.0592287
0.0592396
0.0592506
0.0592617
0.059273
0.0592845
0.0592962
0.0593084
0.059321
0.0593338
0.059347
0.0593605
0.0593739
0.0593879
0.0594021
0.0594164
0.0594313
0.0594466
0.0594618
0.0594773
0.0594934
0.0595099
0.0595264
0.0595442
0.0595637
0.0595842
0.0576394
0.0576754
0.0577107
0.0577453
0.0577786
0.0578106
0.0578414
0.0578713
0.0579002
0.0579281
0.0579549
0.0579809
0.0580062
0.058031
0.0580555
0.0580795
0.058103
0.058126
0.0581486
0.058171
0.0581932
0.0582152
0.058237
0.0582586
0.0582803
0.0583023
0.0583245
0.0583469
0.0583694
0.0583922
0.0584154
0.058439
0.058463
0.0584872
0.0585115
0.0585358
0.0585603
0.0585853
0.0586107
0.0586361
0.0586617
0.0586875
0.0587131
0.0587388
0.0587651
0.0587918
0.0588185
0.0588458
0.0588746
0.0589052
0.0566513
0.0566974
0.0567442
0.0567907
0.0568359
0.0568798
0.0569226
0.0569642
0.0570047
0.0570437
0.0570815
0.0571184
0.0571544
0.0571897
0.0572245
0.0572588
0.0572924
0.0573254
0.0573579
0.0573903
0.0574225
0.0574542
0.0574855
0.057517
0.0575489
0.0575813
0.057614
0.0576468
0.0576798
0.0577132
0.0577473
0.0577815
0.0578161
0.0578507
0.0578849
0.0579192
0.0579541
0.0579891
0.0580242
0.0580594
0.0580944
0.0581292
0.0581641
0.0581994
0.0582347
0.0582698
0.0583059
0.0583431
0.0583805
0.0584199
0.0558839
0.055914
0.0559491
0.0559882
0.0560299
0.0560734
0.0561182
0.0561637
0.0562092
0.0562542
0.0562988
0.0563431
0.056387
0.0564307
0.0564741
0.0565172
0.0565597
0.0566019
0.056644
0.0566861
0.0567277
0.0567688
0.0568101
0.0568522
0.056895
0.0569385
0.0569825
0.0570265
0.0570709
0.057116
0.0571615
0.0572072
0.0572527
0.0572978
0.0573427
0.0573881
0.0574334
0.0574786
0.0575238
0.057569
0.0576142
0.057659
0.0577038
0.0577495
0.0577944
0.0578395
0.0578859
0.0579344
0.0579839
0.0580336
0.0559707
0.0558862
0.0558166
0.0557666
0.0557344
0.0557178
0.0557141
0.0557203
0.0557341
0.0557539
0.0557789
0.0558081
0.0558408
0.0558763
0.0559139
0.0559529
0.0559933
0.0560353
0.0560783
0.0561215
0.0561649
0.0562091
0.0562549
0.0563022
0.0563509
0.0564005
0.0564506
0.0565014
0.0565532
0.0566056
0.0566584
0.0567115
0.0567641
0.0568164
0.0568697
0.0569232
0.0569764
0.05703
0.0570846
0.057138
0.0571913
0.0572468
0.0573015
0.0573571
0.0574126
0.0574702
0.05753
0.0575884
0.0576492
0.0577113
0.0578589
0.0575801
0.0573182
0.0570885
0.0568912
0.0567246
0.0565851
0.0564683
0.0563714
0.0562928
0.0562312
0.0561839
0.0561484
0.0561218
0.0561031
0.0560923
0.0560894
0.0560923
0.0560978
0.0561054
0.0561164
0.0561317
0.056151
0.0561744
0.0562017
0.0562325
0.0562662
0.0563026
0.0563416
0.0563826
0.0564251
0.0564694
0.0565153
0.0565625
0.0566119
0.0566631
0.0567143
0.0567663
0.0568205
0.0568749
0.0569299
0.0569881
0.0570494
0.0571093
0.057173
0.057238
0.057308
0.0573744
0.057441
0.0575091
0.060336
0.0601018
0.0598685
0.0596402
0.0594212
0.0592176
0.0590271
0.0588441
0.0586723
0.0585167
0.0583801
0.0582548
0.0581332
0.0580101
0.0578966
0.0578045
0.0577283
0.0576536
0.0575764
0.0575029
0.0574343
0.0573708
0.0573165
0.0572734
0.0572403
0.0572159
0.0571951
0.0571731
0.0571518
0.0571333
0.0571175
0.0571093
0.0571086
0.0571063
0.0571108
0.0571288
0.0571394
0.0571397
0.0571405
0.0571569
0.057194
0.0572238
0.0572616
0.0573232
0.057362
0.0574025
0.0574558
0.0575086
0.0575572
0.0575972
0.061139
0.0610401
0.0609471
0.0608546
0.0607628
0.0606742
0.0605892
0.0605066
0.0604275
0.0603532
0.060284
0.0602144
0.0601373
0.0600514
0.0599658
0.0598886
0.0598171
0.0597457
0.0596732
0.0595999
0.0595262
0.0594548
0.0593877
0.0593253
0.0592687
0.0592146
0.0591588
0.0590998
0.0590364
0.0589732
0.0589135
0.0588563
0.0588049
0.0587547
0.0587069
0.0586705
0.0586333
0.0585877
0.0585452
0.0585054
0.0584654
0.0584435
0.0584171
0.0583931
0.0583702
0.0583576
0.0583504
0.0583347
0.0583159
0.0583023
0.0611935
0.0611491
0.0611044
0.0610591
0.0610139
0.0609693
0.0609254
0.0608826
0.0608406
0.0607994
0.0607583
0.0607163
0.0606724
0.0606279
0.0605844
0.0605422
0.0605006
0.0604594
0.0604177
0.0603746
0.0603313
0.0602892
0.0602484
0.0602093
0.0601713
0.060133
0.0600934
0.0600528
0.0600116
0.0599713
0.0599325
0.0598941
0.059856
0.0598192
0.0597829
0.0597467
0.0597102
0.0596723
0.0596369
0.0596036
0.0595703
0.0595384
0.0595054
0.0594742
0.0594436
0.0594129
0.0593839
0.0593518
0.0593209
0.059291
0.0612081
0.0611794
0.0611505
0.0611215
0.0610924
0.0610637
0.0610355
0.0610073
0.0609792
0.060951
0.0609229
0.0608945
0.0608656
0.0608365
0.0608077
0.0607794
0.0607516
0.0607237
0.0606949
0.0606656
0.0606366
0.0606084
0.0605807
0.0605536
0.0605265
0.0604989
0.0604708
0.0604425
0.0604141
0.0603863
0.0603592
0.0603319
0.0603041
0.0602771
0.0602505
0.0602236
0.0601954
0.0601683
0.0601435
0.060116
0.0600892
0.0600625
0.0600359
0.0600099
0.0599846
0.0599591
0.0599339
0.0599082
0.0598819
0.0598569
0.061216
0.0611954
0.0611746
0.0611537
0.0611329
0.0611121
0.0610913
0.0610702
0.0610489
0.0610279
0.061007
0.0609859
0.0609644
0.0609426
0.0609211
0.0609001
0.0608791
0.0608577
0.0608357
0.0608136
0.0607919
0.0607705
0.0607495
0.0607284
0.0607071
0.0606856
0.060664
0.0606424
0.0606208
0.0605993
0.0605781
0.0605572
0.0605364
0.0605153
0.0604932
0.0604714
0.0604502
0.0604287
0.0604086
0.0603871
0.0603654
0.0603443
0.0603236
0.0603025
0.0602813
0.0602603
0.0602397
0.0602197
0.0601985
0.0601776
0.061219
0.0612016
0.0611842
0.0611669
0.0611496
0.0611323
0.0611148
0.0610971
0.0610797
0.0610626
0.0610455
0.0610281
0.0610103
0.0609926
0.0609753
0.0609582
0.0609411
0.0609236
0.0609058
0.0608882
0.0608707
0.0608534
0.0608362
0.0608189
0.0608015
0.0607842
0.0607668
0.0607494
0.060732
0.0607149
0.060698
0.0606811
0.0606639
0.0606462
0.0606282
0.0606111
0.0605947
0.0605779
0.0605599
0.0605427
0.0605257
0.0605086
0.0604914
0.0604741
0.0604575
0.060441
0.0604243
0.0604076
0.0603907
0.0603738
0.0612229
0.0612098
0.0611967
0.0611835
0.0611701
0.0611565
0.0611429
0.0611293
0.061116
0.0611028
0.0610892
0.0610754
0.0610614
0.0610476
0.061034
0.0610205
0.0610068
0.0609929
0.0609788
0.0609647
0.0609507
0.0609367
0.0609227
0.0609088
0.0608948
0.0608808
0.0608669
0.0608528
0.0608388
0.0608249
0.0608112
0.060797
0.0607824
0.0607679
0.0607539
0.0607397
0.060725
0.0607109
0.0606964
0.0606819
0.0606675
0.0606531
0.0606387
0.0606246
0.0606105
0.0605961
0.0605818
0.0605674
0.0605528
0.0605384
0.0612226
0.061209
0.0611954
0.0611817
0.061168
0.0611543
0.0611406
0.0611272
0.0611139
0.0611004
0.0610868
0.061073
0.0610593
0.0610459
0.0610326
0.0610193
0.0610059
0.0609922
0.0609786
0.060965
0.0609514
0.0609379
0.0609245
0.0609111
0.0608978
0.0608846
0.0608714
0.0608583
0.0608455
0.0608324
0.0608188
0.0608053
0.0607921
0.0607788
0.0607657
0.0607528
0.0607399
0.0607271
0.0607145
0.0607015
0.0606886
0.0606761
0.0606638
0.0606519
0.06064
0.0606277
0.060616
0.0606047
0.060594
0.060584
0.0612266
0.0612181
0.0612097
0.0612015
0.0611934
0.0611855
0.0611777
0.0611699
0.0611622
0.0611544
0.0611466
0.0611389
0.0611312
0.0611237
0.0611163
0.0611088
0.0611013
0.061094
0.0610866
0.0610793
0.0610721
0.061065
0.0610578
0.0610507
0.0610437
0.0610367
0.0610298
0.061023
0.0610162
0.0610094
0.0610028
0.0609963
0.06099
0.0609839
0.060978
0.0609723
0.060967
0.0609617
0.0609567
0.0609519
0.0609477
0.060944
0.0609406
0.0609378
0.060936
0.0609354
0.0609366
0.0609406
0.0609485
0.0609618
0.0613396
0.0614435
0.0615445
0.0616429
0.0617388
0.0618321
0.0619229
0.0620113
0.0620972
0.0621808
0.062262
0.0623409
0.0624176
0.0624921
0.0625644
0.0626338
0.0627195
0.0628381
0.0629606
0.063073
0.0631787
0.0632804
0.063377
0.0634682
0.0635563
0.0636434
0.0637302
0.0638155
0.0638974
0.0639754
0.0640519
0.0641277
0.0642006
0.0642699
0.0643346
0.064392
0.0644433
0.0644886
0.0645275
0.0645593
0.0645844
0.0646045
0.0646193
0.0646294
0.0646398
0.0646581
0.064695
0.0647738
0.0649489
0.0652907
0.301835
0.298454
0.294686
0.290956
0.287315
0.283746
0.28022
0.27671
0.273195
0.269661
0.266105
0.262532
0.25895
0.255373
0.251813
0.248285
0.244803
0.241374
0.237998
0.234669
0.231387
0.228151
0.224961
0.221815
0.218714
0.215657
0.212645
0.20968
0.206763
0.203896
0.20108
0.198318
0.19561
0.19296
0.19037
0.187844
0.185382
0.182985
0.180654
0.178385
0.176172
0.174006
0.171881
0.169786
0.167706
0.16563
0.163546
0.161442
0.159308
0.157136
0.27115
0.267775
0.264553
0.261475
0.258517
0.25566
0.252889
0.250197
0.247582
0.245039
0.242565
0.240156
0.237808
0.235518
0.233282
0.231098
0.228963
0.226876
0.224835
0.222841
0.220893
0.21899
0.217133
0.215322
0.213557
0.211837
0.21016
0.208525
0.206929
0.205369
0.203843
0.20235
0.200888
0.199457
0.198057
0.196689
0.195354
0.194055
0.192792
0.191561
0.190358
0.189177
0.188012
0.186856
0.185704
0.18455
0.183391
0.182219
0.181021
0.179775
0.269182
0.262961
0.257045
0.251402
0.246016
0.240877
0.235976
0.231297
0.226825
0.222544
0.218441
0.214502
0.210714
0.207066
0.203548
0.200151
0.196869
0.193696
0.190628
0.187662
0.184794
0.182023
0.179347
0.176763
0.174267
0.171855
0.169521
0.167259
0.165063
0.162926
0.160845
0.158816
0.156837
0.154906
0.153026
0.151194
0.149413
0.147683
0.146001
0.144369
0.14278
0.141231
0.139714
0.138226
0.136764
0.135327
0.133912
0.132509
0.13111
0.129729
0.269179
0.262949
0.256999
0.251321
0.245894
0.240705
0.235738
0.23098
0.226418
0.222039
0.217829
0.213777
0.209871
0.206101
0.202458
0.198934
0.195523
0.19222
0.189021
0.185923
0.182922
0.180017
0.177206
0.174485
0.171852
0.169302
0.166832
0.164434
0.162105
0.159839
0.157633
0.155483
0.153388
0.151345
0.149356
0.147421
0.145543
0.14372
0.141952
0.140236
0.138567
0.13694
0.135349
0.13379
0.132263
0.130773
0.129326
0.127923
0.126541
0.125129
0.269182
0.263005
0.257113
0.251488
0.246107
0.240954
0.236015
0.231277
0.226728
0.222358
0.218154
0.214105
0.210199
0.206428
0.202781
0.199252
0.195834
0.192522
0.189313
0.186204
0.183192
0.180275
0.177452
0.174719
0.172075
0.169513
0.16703
0.16462
0.162278
0.159999
0.157779
0.155615
0.153506
0.15145
0.149447
0.147499
0.145607
0.14377
0.141989
0.140259
0.138577
0.136938
0.135335
0.133764
0.132221
0.130706
0.129226
0.127801
0.126438
0.125074
0.269185
0.263018
0.257128
0.251497
0.246104
0.240937
0.235984
0.231233
0.226674
0.222295
0.218086
0.214035
0.21013
0.206359
0.202715
0.199188
0.195773
0.192465
0.18926
0.186154
0.183147
0.180236
0.177419
0.174694
0.172057
0.169503
0.167027
0.164623
0.162287
0.160013
0.157797
0.155637
0.15353
0.151476
0.149475
0.147528
0.145637
0.143801
0.142021
0.140292
0.138611
0.136972
0.135371
0.133805
0.132271
0.130763
0.129277
0.127828
0.126442
0.125089
0.269188
0.263034
0.257156
0.251534
0.24615
0.24099
0.236043
0.231299
0.226747
0.222376
0.218174
0.21413
0.210231
0.206467
0.202828
0.199305
0.195892
0.192586
0.189381
0.186276
0.18327
0.180361
0.177546
0.174822
0.172187
0.169634
0.167159
0.164755
0.162418
0.160142
0.157925
0.155761
0.153651
0.151593
0.149588
0.147636
0.14574
0.1439
0.142114
0.140381
0.138694
0.137049
0.135441
0.133868
0.13233
0.130825
0.129348
0.127893
0.126487
0.125122
0.269192
0.263048
0.257176
0.251555
0.246167
0.241002
0.236047
0.231295
0.226736
0.222359
0.218152
0.214104
0.210202
0.206435
0.202793
0.199268
0.195853
0.192545
0.189339
0.186234
0.183229
0.180321
0.177509
0.17479
0.172157
0.169608
0.167135
0.164733
0.162397
0.160123
0.157906
0.155743
0.153633
0.151575
0.149569
0.147617
0.14572
0.143879
0.142092
0.140357
0.13867
0.137026
0.135418
0.133843
0.1323
0.130792
0.129319
0.127872
0.12646
0.125089
0.269196
0.263062
0.257196
0.251575
0.246186
0.241018
0.236061
0.231307
0.226747
0.222371
0.218165
0.214119
0.21022
0.206455
0.202815
0.199292
0.195879
0.192572
0.189368
0.186267
0.183265
0.180362
0.177555
0.17484
0.172211
0.169663
0.167191
0.16479
0.162454
0.160178
0.157961
0.155797
0.153685
0.151626
0.149618
0.147663
0.145763
0.143919
0.142128
0.140388
0.138696
0.137048
0.135438
0.133862
0.132315
0.1308
0.129321
0.127873
0.126458
0.125079
0.2692
0.263076
0.257214
0.251593
0.246202
0.24103
0.236068
0.23131
0.226745
0.222365
0.218157
0.214107
0.210205
0.206437
0.202795
0.199269
0.195855
0.192547
0.189344
0.186244
0.183245
0.180346
0.177542
0.17483
0.172203
0.169656
0.167183
0.164781
0.162444
0.160168
0.157949
0.155785
0.153673
0.151613
0.149605
0.14765
0.145749
0.143903
0.14211
0.140367
0.138671
0.137019
0.135407
0.13383
0.132284
0.130768
0.129284
0.127834
0.126417
0.125034
0.269204
0.263089
0.25723
0.25161
0.246217
0.241041
0.236076
0.231314
0.226746
0.222363
0.218152
0.214101
0.210196
0.206427
0.202784
0.199257
0.195843
0.192537
0.189337
0.186242
0.183249
0.180355
0.177556
0.174847
0.172222
0.169675
0.167202
0.164798
0.162459
0.160182
0.157962
0.155798
0.153686
0.151627
0.149619
0.147664
0.145763
0.143914
0.142118
0.140371
0.138672
0.137015
0.135398
0.133817
0.132269
0.130751
0.129264
0.127809
0.126388
0.125001
0.269208
0.2631
0.257246
0.251625
0.24623
0.241051
0.236082
0.231316
0.226745
0.222359
0.218144
0.214089
0.210181
0.206409
0.202763
0.199235
0.195821
0.192517
0.189321
0.186231
0.183244
0.180356
0.177561
0.174854
0.172229
0.169682
0.167206
0.1648
0.162458
0.160179
0.157958
0.155794
0.153683
0.151626
0.14962
0.147666
0.145764
0.143914
0.142114
0.140364
0.13866
0.136999
0.135377
0.133792
0.13224
0.13072
0.12923
0.127773
0.126349
0.124958
0.269211
0.263111
0.257259
0.251638
0.246241
0.241059
0.236087
0.231318
0.226743
0.222352
0.218132
0.214072
0.21016
0.206383
0.202733
0.199204
0.19579
0.192488
0.189297
0.186213
0.183232
0.180348
0.177557
0.174851
0.172225
0.169675
0.167196
0.164786
0.162441
0.160159
0.157938
0.155775
0.153667
0.151613
0.14961
0.147659
0.145757
0.143905
0.142102
0.140347
0.138639
0.136974
0.135348
0.133759
0.132204
0.130681
0.12919
0.12773
0.126304
0.124909
0.269214
0.26312
0.25727
0.251649
0.24625
0.241067
0.236092
0.23132
0.226742
0.222347
0.218124
0.214061
0.210144
0.206365
0.202714
0.199185
0.195774
0.192478
0.189294
0.186217
0.183243
0.180366
0.177577
0.174873
0.172246
0.169693
0.16721
0.164795
0.162447
0.160164
0.157943
0.155782
0.153677
0.151626
0.149627
0.147676
0.145774
0.14392
0.142113
0.140353
0.138638
0.136967
0.135336
0.133742
0.132182
0.130655
0.129159
0.127696
0.126266
0.124867
0.269217
0.263126
0.257277
0.251655
0.246254
0.241068
0.236089
0.231312
0.226728
0.222326
0.218094
0.214022
0.210098
0.206312
0.202656
0.199125
0.195715
0.192422
0.189242
0.186171
0.183201
0.180326
0.177539
0.174833
0.172203
0.169646
0.167158
0.16474
0.162389
0.160105
0.157885
0.155728
0.153628
0.151582
0.149587
0.147639
0.145738
0.143883
0.142074
0.14031
0.138591
0.136916
0.135281
0.133683
0.13212
0.130591
0.129094
0.127629
0.126197
0.124795
0.269219
0.263131
0.257282
0.25166
0.246259
0.241073
0.236096
0.231319
0.226735
0.222332
0.218099
0.214025
0.210099
0.206312
0.202658
0.19913
0.195725
0.192438
0.189266
0.186201
0.183237
0.180366
0.177579
0.174872
0.172238
0.169675
0.167182
0.164758
0.162404
0.160119
0.1579
0.155745
0.153648
0.151605
0.149611
0.147663
0.14576
0.143901
0.142087
0.140317
0.138591
0.136909
0.135266
0.133662
0.132093
0.130558
0.129056
0.127585
0.126147
0.12474
0.26922
0.263131
0.257277
0.251647
0.246236
0.241037
0.236047
0.231256
0.226658
0.222241
0.217995
0.213909
0.209973
0.206178
0.202518
0.198988
0.195584
0.192301
0.189133
0.186073
0.183112
0.180243
0.177458
0.174749
0.172112
0.169546
0.16705
0.164625
0.162272
0.159989
0.157775
0.155626
0.153535
0.151498
0.149509
0.147564
0.145663
0.143804
0.141989
0.140217
0.13849
0.136804
0.135159
0.133553
0.131982
0.130446
0.128942
0.127471
0.126033
0.124625
0.269221
0.263133
0.257283
0.25166
0.246258
0.24107
0.236088
0.231305
0.22671
0.222295
0.218048
0.213959
0.21002
0.206223
0.202561
0.199031
0.195627
0.192344
0.189177
0.186117
0.183154
0.180282
0.17749
0.174773
0.172128
0.169553
0.167049
0.164618
0.162259
0.159974
0.157758
0.155608
0.153517
0.151478
0.149488
0.147541
0.145636
0.143773
0.141952
0.140175
0.138441
0.136751
0.135101
0.133491
0.131917
0.130379
0.128875
0.127405
0.12597
0.124569
0.269222
0.26309
0.257187
0.251513
0.246065
0.240838
0.235824
0.231014
0.2264
0.221969
0.217711
0.213616
0.209674
0.205877
0.202221
0.198698
0.195305
0.192036
0.188882
0.185836
0.182887
0.180027
0.177247
0.174542
0.171908
0.169345
0.166855
0.164438
0.162096
0.159828
0.157631
0.155501
0.153429
0.151411
0.14944
0.147513
0.145628
0.143785
0.141986
0.140232
0.138523
0.136859
0.13524
0.133663
0.132127
0.130632
0.129179
0.12777
0.126409
0.125101
0.26923
0.263119
0.257256
0.251619
0.246212
0.241033
0.23608
0.231343
0.226811
0.222472
0.218313
0.214324
0.210495
0.206817
0.203284
0.19989
0.19663
0.193497
0.190484
0.18758
0.184776
0.182061
0.179426
0.176865
0.174374
0.171953
0.169603
0.167327
0.165127
0.163003
0.160951
0.158968
0.157046
0.155178
0.153357
0.151581
0.149846
0.148156
0.146511
0.144915
0.14337
0.141878
0.140439
0.139052
0.13772
0.136445
0.135233
0.134095
0.133048
0.132127
0.271172
0.267852
0.264656
0.261579
0.258609
0.255734
0.252939
0.250222
0.24758
0.245008
0.242505
0.240069
0.237696
0.235387
0.233141
0.230956
0.228831
0.226763
0.224748
0.222781
0.220858
0.218974
0.217127
0.215317
0.213546
0.211814
0.210124
0.208478
0.206876
0.205316
0.203794
0.202307
0.200849
0.199417
0.198008
0.196623
0.19526
0.193922
0.19261
0.191324
0.190063
0.188827
0.187612
0.186418
0.185243
0.184086
0.182945
0.181818
0.180703
0.179594
0.119668
0.0550605
0.0573227
0.0690339
0.0852676
0.10099
0.111305
0.112604
0.103197
0.0840928
0.0607108
0.0461506
0.0446321
0.0422367
0.0459101
0.0501809
0.0542683
0.0695563
0.109295
0.234094
0.118689
0.0551229
0.0575162
0.0693577
0.0857074
0.101494
0.111811
0.113059
0.103584
0.0844333
0.0610188
0.0464857
0.0459127
0.0457907
0.0484804
0.052749
0.0591397
0.0770353
0.118247
0.236094
0.117729
0.0551857
0.0577013
0.0696626
0.0861228
0.101979
0.112318
0.11355
0.104052
0.0848982
0.0614607
0.0467901
0.0468512
0.0474484
0.0498305
0.0542754
0.0616545
0.0805773
0.122431
0.238038
0.11678
0.0552478
0.0578741
0.0699447
0.0865119
0.102447
0.112831
0.114081
0.104601
0.0854868
0.0620323
0.0470483
0.0474545
0.0487863
0.0510737
0.0557117
0.0638698
0.0834914
0.125881
0.239948
0.115852
0.0553104
0.058035
0.0702035
0.086875
0.102899
0.113349
0.114653
0.105232
0.0862013
0.0627479
0.0473182
0.0478527
0.0497681
0.0521211
0.0569585
0.0657265
0.0858376
0.128679
0.241821
0.114946
0.0553731
0.0581826
0.0704374
0.0872092
0.103332
0.113873
0.115263
0.10594
0.0870309
0.0635995
0.0476238
0.0480787
0.0504271
0.0529399
0.057978
0.0672191
0.087666
0.130909
0.243657
0.114064
0.0554353
0.058314
0.0706419
0.0875116
0.103745
0.1144
0.115911
0.106726
0.087972
0.0645814
0.0479982
0.0481721
0.0508169
0.0535226
0.0587522
0.0683512
0.0890045
0.132621
0.24546
0.113205
0.055495
0.0584262
0.0708126
0.0877762
0.104132
0.114929
0.116598
0.10759
0.0890229
0.0656904
0.048469
0.048136
0.0509627
0.0538768
0.059274
0.0691337
0.089881
0.133859
0.247235
0.112369
0.05555
0.0585154
0.0709447
0.087999
0.104491
0.115459
0.117324
0.108534
0.0901859
0.066928
0.0490654
0.0480038
0.0508988
0.0540113
0.0595509
0.0695883
0.0903375
0.134679
0.248987
0.111559
0.0556008
0.05858
0.0710335
0.0881741
0.104816
0.115988
0.118093
0.109563
0.0914642
0.0682992
0.0498097
0.0477623
0.0506548
0.0539477
0.0595986
0.0697464
0.0904358
0.135161
0.25072
0.110777
0.0556479
0.0586177
0.0710741
0.0882948
0.105103
0.116514
0.118908
0.110687
0.0928694
0.0698158
0.0507284
0.0474851
0.0502727
0.0537125
0.0594432
0.0696507
0.0902612
0.135405
0.252435
0.110032
0.0556931
0.0586259
0.0710589
0.0883509
0.105343
0.117035
0.119772
0.111916
0.0944201
0.0714983
0.0518423
0.0471857
0.0497913
0.0533324
0.0591164
0.069356
0.0899244
0.135538
0.254133
0.109324
0.0557349
0.0585997
0.0709789
0.08833
0.105525
0.117545
0.12069
0.113263
0.0961387
0.0733742
0.053181
0.0469221
0.0492373
0.0528379
0.0586602
0.0689364
0.0895631
0.135703
0.255815
0.108661
0.0557723
0.0585322
0.0708211
0.0882186
0.105636
0.118036
0.121663
0.114741
0.0980514
0.0754823
0.0547892
0.0468035
0.0486507
0.052273
0.0581376
0.0684943
0.089338
0.136055
0.257479
0.108042
0.0558032
0.0584182
0.0705736
0.0879991
0.105661
0.118497
0.12269
0.116367
0.100193
0.0778731
0.056732
0.0469858
0.0481154
0.051716
0.0576452
0.0681678
0.0894247
0.136746
0.259124
0.107473
0.0558268
0.0582532
0.0702253
0.0876539
0.105578
0.118914
0.123766
0.118153
0.102598
0.0806089
0.0590995
0.0476647
0.0477797
0.0512958
0.0573245
0.0681312
0.0899991
0.137913
0.260745
0.106958
0.0558457
0.0580343
0.0697644
0.0871617
0.105361
0.119261
0.124884
0.120114
0.105306
0.0837543
0.0619892
0.0490271
0.0478598
0.0511992
0.0573628
0.0685826
0.091218
0.139663
0.262339
0.106506
0.055863
0.0577603
0.0691786
0.0864965
0.104978
0.119511
0.126026
0.122255
0.108354
0.0873769
0.065494
0.0512101
0.0486084
0.0516636
0.0579807
0.0697234
0.0932064
0.142065
0.263898
0.106125
0.055881
0.05743
0.0684534
0.0856303
0.104391
0.119627
0.127169
0.124574
0.111769
0.0915396
0.0697028
0.0543263
0.0502643
0.05294
0.059404
0.0717328
0.096049
0.145151
0.265414
0.10582
0.0559027
0.0570434
0.0675767
0.0845325
0.103557
0.11956
0.128271
0.127051
0.115564
0.0962925
0.0746979
0.0584721
0.0530213
0.0552547
0.061834
0.0747467
0.0997884
0.14892
0.266881
0.105595
0.0559305
0.0566031
0.0665401
0.0831731
0.102427
0.119251
0.129276
0.129646
0.119731
0.101671
0.0805494
0.0637166
0.0570188
0.0587872
0.0654247
0.0788481
0.104429
0.153339
0.268291
0.105456
0.0559689
0.0561181
0.0653437
0.0815262
0.100948
0.118629
0.130102
0.132288
0.124231
0.107683
0.0873146
0.0701166
0.0623382
0.0636512
0.0702686
0.0840648
0.109943
0.158352
0.269631
0.105408
0.056025
0.0556027
0.0639972
0.0795713
0.0990616
0.117602
0.130643
0.134871
0.12898
0.114294
0.0950266
0.0777269
0.0689814
0.0698917
0.0763914
0.0903719
0.11627
0.163883
0.270889
0.105458
0.0561086
0.0550779
0.0625214
0.0772955
0.0967083
0.116067
0.130762
0.137252
0.133846
0.121404
0.103661
0.0866119
0.076682
0.0774895
0.0837558
0.0976979
0.123328
0.169836
0.272047
0.105614
0.056229
0.0545686
0.0609507
0.0746994
0.0938298
0.113908
0.130299
0.139242
0.138639
0.128837
0.113101
0.0971049
0.0869587
0.0863616
0.0922643
0.10593
0.131004
0.176098
0.273087
0.10588
0.0563937
0.0541001
0.0593353
0.0718067
0.0903814
0.111007
0.129069
0.140607
0.143104
0.136318
0.122914
0.108176
0.0980902
0.0963596
0.101761
0.114918
0.139164
0.182548
0.273989
0.106257
0.0566072
0.0536973
0.0577411
0.0686758
0.0863454
0.107256
0.126871
0.141075
0.146933
0.143553
0.13287
0.119654
0.10979
0.107251
0.112041
0.124483
0.14766
0.189059
0.274736
0.106744
0.0568718
0.0533831
0.0562477
0.0654104
0.0817491
0.102568
0.123508
0.140342
0.149754
0.150171
0.14266
0.131307
0.121896
0.118755
0.122868
0.134429
0.15633
0.195505
0.275306
0.107338
0.0571891
0.0531746
0.0549379
0.0621651
0.0766874
0.0969061
0.1188
0.13809
0.151141
0.15571
0.151888
0.142837
0.1341
0.130562
0.13399
0.144554
0.165013
0.201765
0.275671
0.108037
0.0575607
0.0530811
0.0538831
0.0591343
0.0713501
0.0903058
0.112611
0.134013
0.150636
0.159634
0.160074
0.153928
0.146134
0.142295
0.145151
0.154653
0.173545
0.207725
0.275796
0.108839
0.0579874
0.0531007
0.0531269
0.0565199
0.0660416
0.0829291
0.104893
0.127856
0.147776
0.161328
0.166615
0.164233
0.157906
0.153358
0.156104
0.164525
0.181768
0.213272
0.27564
0.109744
0.0584669
0.0532201
0.052674
0.0544822
0.0611664
0.0751323
0.095741
0.119456
0.142141
0.160112
0.170683
0.173143
0.169825
0.166006
0.16662
0.173974
0.189528
0.218298
0.275153
0.110744
0.0589944
0.053418
0.0524918
0.0530915
0.0571408
0.0675218
0.085498
0.108821
0.133432
0.155354
0.171259
0.179166
0.179631
0.176734
0.17646
0.182808
0.196674
0.222703
0.274284
0.111831
0.0595632
0.0536706
0.0525223
0.052312
0.0542443
0.0608931
0.0749117
0.0962307
0.121536
0.146618
0.167664
0.181675
0.18738
0.186709
0.185451
0.190854
0.203079
0.226413
0.27298
0.11299
0.0601682
0.0539575
0.0527001
0.0520238
0.0525066
0.0559462
0.0652235
0.0825039
0.106587
0.133516
0.159025
0.1794
0.191913
0.196053
0.195247
0.198031
0.208659
0.22938
0.271193
0.114213
0.0608074
0.0542654
0.0529673
0.0520725
0.0517237
0.0529222
0.057805
0.0693964
0.0894317
0.115934
0.144513
0.170744
0.190812
0.202115
0.204895
0.204704
0.21343
0.231617
0.26886
0.115489
0.0614809
0.0545874
0.0532818
0.0523158
0.0515803
0.0515198
0.053311
0.0592684
0.0725421
0.0947546
0.123617
0.154364
0.182164
0.202809
0.213492
0.215164
0.217814
0.23327
0.265919
0.116812
0.0621883
0.0549196
0.0536168
0.0526503
0.0517823
0.0511628
0.0513006
0.0533851
0.0597609
0.0736972
0.0972365
0.128465
0.162327
0.193162
0.215597
0.225665
0.224797
0.234842
0.262324
0.118171
0.0629257
0.0552584
0.0539574
0.0530164
0.0521302
0.0513255
0.0507902
0.0509826
0.0529865
0.058916
0.0720118
0.0951965
0.128172
0.166512
0.203463
0.231364
0.243174
0.238672
0.258449
0.11955
0.0636837
0.0555988
0.0542946
0.0533863
0.0525225
0.0516843
0.0509453
0.0504533
0.050605
0.0522364
0.0569721
0.0674859
0.0871536
0.118539
0.161133
0.209543
0.252182
0.272093
0.258265
0.120925
0.0644512
0.0559373
0.0546238
0.0537483
0.0529186
0.0520945
0.0513184
0.0506325
0.0501897
0.0502981
0.0515619
0.055005
0.0621064
0.0747739
0.0956293
0.129016
0.181217
0.252554
0.307529
0.122279
0.0652198
0.0562731
0.0549462
0.0540998
0.0533056
0.0525076
0.0517418
0.0510141
0.0503955
0.0500209
0.0501817
0.0513922
0.0543739
0.0597902
0.0676916
0.0771793
0.0867669
0.0952859
0.103106
0.123599
0.065986
0.0566074
0.0552646
0.0544421
0.0536807
0.0529098
0.0521667
0.0514421
0.0507764
0.0502257
0.0499423
0.0502429
0.0516761
0.0550227
0.0609629
0.0694841
0.0796366
0.0901446
0.101078
0.124878
0.0667474
0.0569424
0.0555793
0.0547757
0.0540438
0.0532965
0.0525788
0.0518717
0.0512041
0.0505979
0.0501216
0.0499591
0.0504723
0.0523329
0.0564853
0.0637528
0.0742758
0.0875852
0.104727
0.12611
0.0674998
0.0572785
0.0558892
0.0550988
0.0543937
0.0536663
0.0529734
0.0522891
0.0516347
0.05102
0.0504715
0.0500885
0.0500957
0.0509944
0.05371
0.05955
0.0697231
0.0848294
0.107103
0.127292
0.0682354
0.057613
0.0561932
0.0554113
0.0547301
0.0540211
0.0533517
0.0526898
0.0520545
0.0514443
0.0508738
0.0503909
0.0501298
0.0504463
0.0521185
0.0566286
0.0660244
0.0821822
0.108798
0.128417
0.0689467
0.0579427
0.0564914
0.0557154
0.0550566
0.054366
0.0537193
0.053075
0.0524581
0.0518545
0.0512792
0.0507526
0.0503517
0.0503275
0.0512818
0.0546791
0.0631025
0.0797817
0.110093
0.129474
0.0696277
0.0582675
0.0567869
0.0560173
0.0553797
0.0547061
0.0540802
0.0534486
0.0528443
0.0522472
0.0516712
0.051127
0.0506537
0.0504341
0.0509075
0.0534284
0.06084
0.0776753
0.111124
0.13046
0.0702775
0.0585906
0.0570841
0.0563231
0.0557074
0.0550461
0.054436
0.0538121
0.0532145
0.0526235
0.0520469
0.0514992
0.0509898
0.0506584
0.050811
0.0526665
0.0591179
0.0758659
0.111966
0.131382
0.0709004
0.0589181
0.0573883
0.056636
0.0560411
0.0553875
0.0547881
0.054167
0.0535718
0.0529867
0.0524102
0.051867
0.0513403
0.0509454
0.0508809
0.0522381
0.0578253
0.0743263
0.11267
0.132245
0.0714991
0.0592509
0.0577014
0.0569552
0.0563769
0.0557267
0.0551339
0.0545154
0.05392
0.0533409
0.052766
0.0522298
0.0516934
0.0512633
0.0510462
0.0520302
0.056865
0.0730158
0.113264
0.133056
0.0720753
0.059587
0.0580207
0.0572752
0.0567089
0.0560616
0.0554687
0.0548564
0.0542618
0.053689
0.053118
0.0525885
0.0520412
0.0515913
0.0512621
0.0519646
0.0561561
0.0719041
0.113768
0.133814
0.0726258
0.0599216
0.0583406
0.0575922
0.0570309
0.0563893
0.0557951
0.0551892
0.0545991
0.0540331
0.053465
0.0529399
0.0523792
0.0519162
0.0515026
0.0519937
0.0556371
0.0709658
0.114212
0.134512
0.0731462
0.060252
0.0586546
0.0579042
0.0573454
0.0567072
0.0561177
0.0555169
0.0549333
0.0543733
0.0538036
0.05328
0.052705
0.0522308
0.0517531
0.0520886
0.055269
0.0701813
0.11462
0.135148
0.0736323
0.0605777
0.0589617
0.0582098
0.0576578
0.0570207
0.0564401
0.0558433
0.0552645
0.0547093
0.054133
0.0536079
0.0530196
0.0525385
0.0520115
0.052232
0.0550278
0.0695424
0.11501
0.135728
0.0740876
0.060899
0.059267
0.0585133
0.0579716
0.057337
0.0567637
0.0561719
0.0555935
0.0550405
0.054456
0.0539287
0.053327
0.052845
0.0522839