/*--------------------------------*- C++ -*----------------------------------*\
  =========                 |
  \\      /  F ield         | OpenFOAM: The Open Source CFD Toolbox
   \\    /   O peration     | Website:  https://openfoam.org
    \\  /    A nd           | Version:  8
     \\/     M anipulation  |
\*---------------------------------------------------------------------------*/
FoamFile
{
    version     2.0;
    format      ascii;
    class       volScalarField;
    location    "800";
    object      k;
}
// * * * * * * * * * * * * * * * * * * * * * * * * * * * * * * * * * * * * * //

dimensions      [0 2 -2 0 0 0 0];

internalField   nonuniform List<scalar> 
8400
(
0.039963
0.0389622
0.0379788
0.0370132
0.0360647
0.0351326
0.0342165
0.0333162
0.0324317
0.0315632
0.030711
0.0298752
0.0290561
0.0282539
0.0274687
0.0267005
0.0259494
0.0252154
0.0244984
0.0237982
0.0231147
0.0224478
0.0217972
0.0211629
0.020545
0.0199429
0.0193563
0.018785
0.0182286
0.0176866
0.017159
0.0166452
0.0161451
0.0156582
0.0151846
0.0147241
0.0142765
0.0138416
0.0134193
0.0130092
0.0126111
0.0122249
0.0118505
0.0114877
0.0111366
0.0107972
0.0104698
0.0101551
0.0098537
0.00956695
0.00327864
0.00327239
0.00326634
0.00326045
0.00325468
0.003249
0.00324341
0.0032379
0.00323248
0.00322714
0.00322189
0.00321673
0.00321168
0.00320673
0.00320188
0.00319714
0.00319252
0.003188
0.00318359
0.00317928
0.00317506
0.00317092
0.00316685
0.00316258
0.00315797
0.00315312
0.00314814
0.00314315
0.00313821
0.00313342
0.00312888
0.00312464
0.00312077
0.00311734
0.00311428
0.00311135
0.00310853
0.00310582
0.00310321
0.00310069
0.00309827
0.00309594
0.00309372
0.00309161
0.00308962
0.00308776
0.00308603
0.00308447
0.00308312
0.00308202
0.00293865
0.00293937
0.00294002
0.00294062
0.00294115
0.0029416
0.00294197
0.00294226
0.00294248
0.00294262
0.00294269
0.00294271
0.00294268
0.0029426
0.00294248
0.00294233
0.00294216
0.00294197
0.00294176
0.00294154
0.0029413
0.00294106
0.00294081
0.00294056
0.00294031
0.00294007
0.00293982
0.00293959
0.00293936
0.00293914
0.00293894
0.00293875
0.00293858
0.00293844
0.00293832
0.00293824
0.00293818
0.00293816
0.00293817
0.00293821
0.00293829
0.00293842
0.00293859
0.00293883
0.00293913
0.0029395
0.00293997
0.00294056
0.00294133
0.00294229
0.00277717
0.00277923
0.00278129
0.0027833
0.00278523
0.00278707
0.00278881
0.00279046
0.00279202
0.0027935
0.00279491
0.00279625
0.00279753
0.00279876
0.00279994
0.00280109
0.00280222
0.00280332
0.00280439
0.00280545
0.00280649
0.00280752
0.00280854
0.00280955
0.00281055
0.00281156
0.00281257
0.00281358
0.0028146
0.00281562
0.00281666
0.00281771
0.00281879
0.00281988
0.00282101
0.00282216
0.00282333
0.00282452
0.00282575
0.002827
0.0028283
0.00282964
0.00283101
0.00283243
0.00283391
0.00283545
0.00283706
0.00283878
0.00284064
0.00284266
0.00265587
0.00265924
0.00266255
0.00266577
0.00266888
0.00267187
0.00267475
0.00267752
0.00268019
0.00268277
0.00268526
0.00268768
0.00269003
0.00269232
0.00269458
0.00269679
0.00269897
0.00270111
0.00270324
0.00270534
0.00270742
0.00270948
0.00271153
0.00271357
0.0027156
0.00271764
0.00271967
0.00272171
0.00272375
0.0027258
0.00272787
0.00272997
0.00273208
0.00273422
0.00273639
0.00273857
0.00274077
0.002743
0.00274525
0.00274754
0.00274986
0.00275221
0.00275459
0.00275701
0.00275948
0.002762
0.00276458
0.00276724
0.00277
0.00277291
0.00256163
0.00256583
0.00257008
0.0025743
0.00257843
0.00258243
0.00258632
0.0025901
0.00259377
0.00259732
0.00260078
0.00260416
0.00260746
0.00261069
0.00261388
0.00261702
0.00262012
0.00262318
0.0026262
0.00262921
0.00263219
0.00263514
0.00263808
0.002641
0.00264393
0.00264686
0.0026498
0.00265274
0.00265568
0.00265865
0.00266165
0.00266467
0.00266771
0.00267079
0.00267388
0.00267699
0.00268011
0.00268325
0.00268642
0.00268962
0.00269285
0.00269609
0.00269937
0.00270268
0.00270603
0.00270943
0.00271287
0.00271639
0.00271999
0.0027237
0.00249135
0.0024939
0.00249691
0.00250028
0.00250392
0.00250773
0.00251165
0.00251563
0.00251963
0.00252363
0.00252761
0.00253157
0.0025355
0.00253942
0.00254332
0.00254719
0.00255104
0.00255488
0.0025587
0.00256251
0.0025663
0.00257008
0.00257385
0.00257764
0.00258144
0.00258526
0.00258909
0.00259295
0.00259683
0.00260074
0.00260469
0.00260868
0.0026127
0.00261675
0.00262081
0.00262489
0.00262898
0.00263308
0.00263721
0.00264137
0.00264556
0.00264975
0.00265397
0.00265824
0.00266252
0.00266684
0.00267124
0.00267569
0.00268027
0.00268495
0.00250126
0.00249346
0.00248705
0.00248244
0.00247944
0.00247782
0.00247731
0.00247768
0.00247875
0.00248037
0.00248244
0.00248489
0.00248764
0.00249065
0.00249385
0.00249722
0.00250073
0.00250437
0.00250811
0.00251194
0.00251582
0.00251978
0.00252381
0.00252792
0.00253209
0.00253634
0.00254064
0.00254502
0.00254946
0.00255398
0.00255855
0.00256319
0.00256788
0.0025726
0.00257736
0.00258215
0.00258694
0.00259179
0.0025967
0.00260161
0.00260655
0.00261157
0.00261659
0.00262169
0.00262683
0.00263201
0.00263735
0.00264268
0.0026481
0.00265368
0.00267581
0.00264984
0.00262588
0.00260506
0.00258724
0.00257216
0.00255946
0.0025488
0.00253992
0.00253262
0.00252674
0.00252211
0.00251856
0.00251592
0.00251405
0.00251288
0.00251235
0.00251237
0.00251283
0.00251368
0.00251487
0.00251637
0.00251813
0.00252015
0.00252243
0.002525
0.00252782
0.00253089
0.00253418
0.00253767
0.00254137
0.00254527
0.00254935
0.00255357
0.00255791
0.00256239
0.00256698
0.0025717
0.00257657
0.00258151
0.00258651
0.00259163
0.0025969
0.00260222
0.00260773
0.00261328
0.002619
0.00262488
0.00263087
0.00263698
0.00291261
0.00288947
0.00286731
0.00284601
0.00282573
0.00280666
0.00278864
0.00277145
0.00275511
0.00273982
0.00272578
0.00271295
0.00270114
0.00269016
0.00268007
0.00267102
0.0026629
0.0026555
0.00264883
0.00264295
0.00263763
0.00263257
0.00262772
0.00262323
0.00261929
0.00261605
0.00261343
0.00261123
0.00260939
0.00260797
0.00260696
0.00260645
0.00260637
0.00260642
0.00260678
0.00260772
0.00260895
0.00261042
0.00261217
0.00261426
0.00261664
0.00261886
0.00262163
0.00262522
0.00262808
0.00263151
0.002635
0.00263885
0.00264337
0.00264797
0.00299053
0.00298072
0.00297154
0.00296274
0.00295424
0.00294607
0.00293815
0.00293035
0.00292257
0.00291476
0.00290698
0.00289923
0.00289148
0.00288376
0.00287624
0.00286898
0.00286184
0.0028547
0.00284766
0.00284084
0.00283427
0.00282792
0.00282167
0.00281546
0.00280932
0.00280326
0.0027973
0.00279147
0.00278577
0.00278029
0.00277505
0.00277003
0.00276528
0.00276067
0.00275619
0.00275209
0.00274819
0.00274439
0.00274092
0.0027377
0.00273458
0.002732
0.00272946
0.00272737
0.00272535
0.00272363
0.0027222
0.00272069
0.0027192
0.00271772
0.0029958
0.00299138
0.002987
0.00298264
0.00297832
0.00297405
0.00296983
0.00296563
0.00296143
0.00295722
0.002953
0.00294878
0.00294455
0.00294035
0.0029362
0.00293208
0.00292796
0.00292386
0.00291978
0.00291572
0.00291169
0.00290772
0.00290377
0.00289984
0.00289594
0.00289204
0.00288814
0.00288426
0.00288042
0.00287664
0.00287292
0.00286924
0.00286557
0.00286196
0.00285838
0.00285484
0.00285136
0.00284792
0.00284459
0.00284134
0.00283812
0.00283499
0.00283188
0.00282888
0.00282597
0.00282309
0.00282027
0.00281741
0.00281456
0.00281167
0.00299724
0.00299441
0.00299158
0.00298876
0.00298595
0.00298316
0.00298038
0.0029776
0.00297482
0.00297202
0.00296922
0.00296642
0.00296362
0.00296083
0.00295804
0.00295527
0.0029525
0.00294973
0.00294695
0.00294417
0.00294141
0.00293868
0.00293595
0.00293324
0.00293052
0.00292779
0.00292506
0.00292234
0.00291963
0.00291694
0.00291428
0.0029116
0.00290892
0.00290626
0.00290362
0.00290099
0.00289836
0.00289577
0.00289325
0.00289066
0.00288811
0.00288556
0.00288305
0.00288058
0.00287813
0.0028757
0.00287328
0.00287085
0.0028684
0.00286593
0.00299804
0.00299601
0.00299398
0.00299194
0.0029899
0.00298785
0.0029858
0.00298374
0.00298166
0.00297959
0.00297751
0.00297543
0.00297334
0.00297125
0.00296916
0.00296707
0.00296498
0.00296287
0.00296076
0.00295866
0.00295656
0.00295448
0.0029524
0.00295032
0.00294822
0.00294612
0.00294402
0.00294193
0.00293985
0.00293776
0.00293568
0.00293359
0.00293152
0.00292944
0.00292734
0.00292526
0.0029232
0.00292114
0.00291911
0.00291705
0.00291498
0.00291294
0.00291092
0.0029089
0.00290689
0.00290488
0.00290288
0.00290088
0.00289886
0.00289682
0.00299832
0.00299661
0.0029949
0.0029932
0.0029915
0.0029898
0.00298809
0.00298638
0.00298467
0.00298297
0.00298126
0.00297956
0.00297785
0.00297614
0.00297444
0.00297273
0.00297103
0.00296931
0.0029676
0.0029659
0.0029642
0.00296251
0.00296082
0.00295913
0.00295743
0.00295573
0.00295404
0.00295235
0.00295067
0.00294898
0.0029473
0.00294562
0.00294394
0.00294224
0.00294055
0.00293888
0.00293724
0.00293558
0.00293389
0.00293223
0.00293057
0.00292892
0.00292728
0.00292563
0.002924
0.00292237
0.00292074
0.00291911
0.00291747
0.00291582
0.00299874
0.00299745
0.00299617
0.00299487
0.00299357
0.00299226
0.00299094
0.00298962
0.0029883
0.00298698
0.00298565
0.00298431
0.00298297
0.00298163
0.00298028
0.00297894
0.00297758
0.00297622
0.00297487
0.00297351
0.00297216
0.0029708
0.00296944
0.00296807
0.00296671
0.00296534
0.00296397
0.0029626
0.00296123
0.00295985
0.00295848
0.00295709
0.0029557
0.00295431
0.00295294
0.00295155
0.00295015
0.00294876
0.00294736
0.00294596
0.00294456
0.00294317
0.00294177
0.00294037
0.00293898
0.00293757
0.00293616
0.00293475
0.00293334
0.00293193
0.00299867
0.00299733
0.00299598
0.00299464
0.0029933
0.00299196
0.00299062
0.00298929
0.00298796
0.00298663
0.00298529
0.00298396
0.00298263
0.00298131
0.00297998
0.00297866
0.00297733
0.002976
0.00297468
0.00297337
0.00297205
0.00297074
0.00296943
0.00296813
0.00296682
0.00296553
0.00296423
0.00296294
0.00296165
0.00296036
0.00295906
0.00295777
0.0029565
0.00295522
0.00295395
0.00295268
0.00295142
0.00295016
0.00294892
0.00294767
0.00294644
0.00294522
0.00294401
0.00294281
0.00294162
0.00294045
0.00293932
0.00293822
0.00293718
0.00293621
0.00299913
0.00299831
0.00299751
0.00299672
0.00299595
0.00299518
0.00299442
0.00299366
0.0029929
0.00299215
0.0029914
0.00299066
0.00298992
0.00298918
0.00298845
0.00298772
0.002987
0.00298628
0.00298558
0.00298487
0.00298418
0.00298349
0.0029828
0.00298211
0.00298143
0.00298076
0.00298009
0.00297944
0.00297879
0.00297815
0.00297753
0.00297692
0.00297633
0.00297576
0.00297521
0.00297468
0.00297417
0.00297369
0.00297325
0.00297283
0.00297246
0.00297213
0.00297186
0.00297166
0.00297155
0.00297158
0.0029718
0.00297232
0.00297328
0.0029748
0.00301101
0.00302207
0.00303285
0.00304333
0.00305355
0.0030635
0.00307319
0.00308263
0.00309181
0.00310075
0.00310944
0.0031179
0.00312612
0.0031341
0.00314184
0.00314948
0.00315823
0.00316779
0.00317764
0.00318754
0.00319722
0.00320641
0.00321497
0.00322293
0.00323042
0.00323759
0.00324456
0.00325144
0.00325828
0.00326509
0.00327188
0.00327868
0.00328541
0.0032921
0.00329879
0.00330549
0.00331227
0.00331915
0.00332609
0.00333305
0.00334003
0.00334705
0.0033541
0.00336135
0.00336914
0.00337802
0.00338896
0.00340434
0.00342987
0.00347322
0.0765788
0.074892
0.073017
0.0711763
0.0693938
0.0676637
0.0659777
0.0643272
0.062705
0.0611069
0.059531
0.057977
0.0564455
0.0549376
0.053455
0.0519992
0.0505727
0.0491787
0.0478178
0.0464903
0.0451962
0.0439353
0.0427073
0.0415117
0.040348
0.0392156
0.0381141
0.037043
0.0360019
0.0349901
0.0340073
0.0330533
0.0321276
0.0312301
0.0303605
0.0295188
0.0287045
0.0279177
0.0271581
0.0264254
0.025719
0.025038
0.0243814
0.0237478
0.0231357
0.022543
0.0219677
0.0214074
0.02086
0.0203233
0.0589322
0.0574868
0.0561197
0.0548243
0.0535915
0.0524129
0.0512806
0.0501916
0.0491434
0.0481338
0.047161
0.046223
0.0453182
0.0444448
0.0436015
0.0427868
0.0419995
0.0412384
0.0405026
0.0397909
0.0391025
0.0384364
0.0377919
0.037168
0.0365642
0.0359794
0.0354131
0.0348643
0.0343323
0.0338165
0.0333161
0.0328306
0.0323594
0.0319021
0.0314584
0.0310279
0.0306104
0.0302056
0.0298135
0.0294322
0.0290604
0.028697
0.028341
0.0279912
0.0276464
0.0273055
0.0269666
0.026627
0.0262813
0.0259187
0.0580892
0.0554554
0.0529992
0.0507018
0.0485529
0.0465425
0.0446621
0.0429008
0.0412487
0.0396965
0.0382363
0.0368604
0.0355623
0.0343357
0.0331754
0.0320765
0.0310347
0.0300459
0.0291068
0.028214
0.0273647
0.0265561
0.0257858
0.0250514
0.0243506
0.0236814
0.0230416
0.0224294
0.0218429
0.0212805
0.0207407
0.0202221
0.0197237
0.0192442
0.0187828
0.0183384
0.0179101
0.0174971
0.0170982
0.0167138
0.0163436
0.0159867
0.0156422
0.0153092
0.0149869
0.0146749
0.0143726
0.0140803
0.0137981
0.0135257
0.058086
0.0554445
0.0529724
0.0506607
0.0484965
0.0464687
0.0445664
0.0427795
0.0410989
0.039516
0.0380233
0.0366139
0.0352813
0.03402
0.0328248
0.0316912
0.0306148
0.029592
0.0286194
0.0276938
0.0268124
0.0259726
0.0251718
0.0244079
0.0236785
0.0229816
0.0223153
0.0216776
0.0210669
0.0204816
0.0199202
0.0193814
0.0188641
0.0183672
0.0178899
0.0174314
0.0169909
0.0165676
0.0161608
0.0157697
0.0153932
0.0150307
0.0146812
0.0143441
0.0140187
0.0137046
0.013401
0.0131074
0.0128241
0.0125532
0.0580863
0.0554645
0.0530146
0.0507228
0.0485757
0.0465612
0.0446685
0.0428882
0.0412116
0.0396308
0.0381386
0.0367283
0.035394
0.0341301
0.0329317
0.0317943
0.0307138
0.0296867
0.0287094
0.0277791
0.0268929
0.0260482
0.0252427
0.0244739
0.0237399
0.0230385
0.0223677
0.0217256
0.0211107
0.0205213
0.0199559
0.0194133
0.0188924
0.018392
0.0179113
0.0174494
0.0170057
0.0165793
0.0161695
0.0157754
0.0153961
0.0150307
0.0146785
0.0143388
0.0140111
0.0136951
0.0133905
0.0130964
0.0128119
0.0125379
0.0580866
0.0554662
0.0530157
0.0507214
0.0485705
0.0465519
0.0446554
0.0428719
0.0411929
0.0396104
0.0381173
0.0367068
0.0353727
0.0341096
0.0329121
0.0317759
0.0306968
0.029671
0.0286952
0.0277664
0.0268817
0.0260386
0.0252345
0.0244674
0.0237349
0.0230349
0.0223655
0.0217248
0.0211112
0.0205229
0.0199586
0.0194169
0.0188968
0.0183972
0.0179171
0.0174559
0.0170127
0.0165867
0.0161772
0.0157834
0.0154043
0.0150391
0.014687
0.0143472
0.014019
0.0137022
0.0133968
0.0131024
0.0128181
0.0125437
0.058087
0.055469
0.0530219
0.0507312
0.0485842
0.0465696
0.0446769
0.0428969
0.041221
0.0396413
0.0381506
0.0367421
0.0354097
0.0341477
0.0329511
0.0318154
0.0307364
0.0297105
0.0287344
0.027805
0.0269198
0.026076
0.0252713
0.0245034
0.0237701
0.0230694
0.0223992
0.0217577
0.0211431
0.0205539
0.0199887
0.0194461
0.018925
0.0184243
0.0179432
0.0174809
0.0170366
0.0166095
0.0161989
0.0158038
0.0154236
0.0150572
0.014704
0.0143632
0.0140341
0.013716
0.0134089
0.0131127
0.0128268
0.0125508
0.0580874
0.0554708
0.0530246
0.0507343
0.048587
0.0465714
0.0446775
0.0428961
0.0412188
0.0396377
0.0381458
0.0367362
0.0354029
0.0341401
0.0329429
0.0318065
0.0307271
0.0297008
0.0287244
0.0277949
0.0269096
0.0260659
0.0252615
0.0244939
0.023761
0.0230607
0.0223909
0.0217498
0.0211356
0.0205468
0.0199819
0.0194397
0.018919
0.0184186
0.0179378
0.0174757
0.0170316
0.0166046
0.0161941
0.0157991
0.0154188
0.0150523
0.014699
0.014358
0.0140289
0.013711
0.0134037
0.013107
0.0128205
0.0125438
0.0580879
0.0554724
0.0530271
0.0507374
0.0485905
0.0465753
0.0446819
0.042901
0.0412244
0.0396442
0.0381531
0.0367445
0.0354119
0.0341499
0.0329533
0.0318176
0.0307385
0.0297126
0.0287365
0.0278072
0.0269222
0.0260787
0.0252745
0.024507
0.0237742
0.0230738
0.0224039
0.0217626
0.0211482
0.0205591
0.019994
0.0194515
0.0189304
0.0184297
0.0179484
0.0174858
0.017041
0.0166134
0.0162022
0.0158064
0.0154253
0.0150581
0.0147039
0.014362
0.0140319
0.013713
0.0134048
0.013107
0.0128193
0.0125413
0.0580883
0.0554739
0.0530292
0.0507396
0.0485926
0.0465771
0.0446833
0.042902
0.0412249
0.0396442
0.0381527
0.0367435
0.0354105
0.034148
0.0329509
0.0318146
0.0307351
0.0297087
0.0287323
0.0278029
0.0269178
0.0260744
0.0252702
0.0245028
0.0237699
0.0230695
0.0223996
0.0217582
0.0211438
0.0205548
0.0199897
0.0194473
0.0189262
0.0184256
0.0179443
0.0174817
0.0170369
0.0166091
0.0161976
0.0158016
0.0154202
0.0150527
0.0146982
0.0143559
0.0140254
0.0137061
0.0133975
0.0130991
0.0128108
0.012532
0.0580887
0.0554753
0.053031
0.0507415
0.0485944
0.0465787
0.0446846
0.0429031
0.0412259
0.0396451
0.0381535
0.0367444
0.0354114
0.0341489
0.0329517
0.0318155
0.030736
0.0297098
0.0287337
0.0278046
0.0269198
0.0260767
0.0252728
0.0245056
0.0237729
0.0230725
0.0224025
0.0217611
0.0211466
0.0205575
0.0199923
0.0194498
0.0189287
0.018428
0.0179466
0.0174839
0.0170388
0.0166107
0.0161987
0.0158021
0.0154202
0.015052
0.0146969
0.014354
0.0140228
0.0137028
0.0133934
0.0130942
0.012805
0.0125252
0.0580891
0.0554765
0.0530327
0.0507431
0.0485957
0.0465797
0.0446853
0.0429035
0.041226
0.0396449
0.038153
0.0367436
0.0354102
0.0341475
0.0329501
0.0318136
0.0307341
0.0297079
0.0287319
0.0278031
0.0269187
0.0260759
0.0252722
0.0245051
0.0237724
0.0230719
0.0224018
0.0217602
0.0211456
0.0205564
0.0199912
0.0194486
0.0189276
0.0184269
0.0179456
0.0174828
0.0170376
0.0166092
0.0161968
0.0157998
0.0154173
0.0150485
0.0146928
0.0143494
0.0140176
0.0136969
0.0133868
0.013087
0.0127969
0.0125163
0.0580895
0.0554776
0.053034
0.0507443
0.0485966
0.0465803
0.0446854
0.0429032
0.0412252
0.0396436
0.0381512
0.0367411
0.0354072
0.0341438
0.032946
0.0318092
0.0307294
0.0297032
0.0287273
0.0277987
0.0269145
0.0260719
0.0252684
0.0245013
0.0237685
0.0230679
0.0223976
0.0217559
0.0211411
0.0205519
0.0199867
0.0194443
0.0189234
0.018423
0.0179418
0.0174791
0.0170338
0.0166053
0.0161927
0.0157953
0.0154123
0.0150431
0.0146869
0.014343
0.0140108
0.0136896
0.013379
0.0130785
0.0127878
0.0125065
0.0580898
0.0554785
0.0530349
0.050745
0.0485971
0.0465805
0.0446854
0.042903
0.0412248
0.0396431
0.0381506
0.0367404
0.0354065
0.0341431
0.0329454
0.0318088
0.0307294
0.0297037
0.0287284
0.0278004
0.0269168
0.0260747
0.0252714
0.0245045
0.0237717
0.0230709
0.0224004
0.0217584
0.0211434
0.020554
0.0199888
0.0194464
0.0189256
0.0184252
0.017944
0.0174811
0.0170355
0.0166066
0.0161934
0.0157954
0.0154117
0.0150418
0.0146848
0.0143401
0.014007
0.013685
0.0133735
0.0130721
0.0127804
0.012498
0.0580901
0.055479
0.0530352
0.0507447
0.0485961
0.0465785
0.0446824
0.0428987
0.0412193
0.0396362
0.0381422
0.0367307
0.0353954
0.0341308
0.0329321
0.0317948
0.0307151
0.0296892
0.028714
0.0277861
0.0269027
0.0260607
0.0252575
0.0244906
0.0237577
0.0230569
0.0223863
0.0217443
0.0211294
0.0205402
0.0199753
0.0194334
0.0189131
0.0184132
0.0179325
0.0174699
0.0170246
0.0165957
0.0161826
0.0157845
0.0154007
0.0150306
0.0146734
0.0143284
0.0139951
0.0136728
0.013361
0.0130592
0.0127671
0.0124841
0.0580903
0.0554793
0.0530351
0.0507443
0.0485957
0.0465785
0.044683
0.0429002
0.0412215
0.0396392
0.038146
0.036735
0.0354002
0.0341361
0.0329378
0.031801
0.0307218
0.0296965
0.0287218
0.0277944
0.0269112
0.0260693
0.025266
0.0244988
0.0237655
0.0230641
0.0223928
0.0217502
0.0211348
0.0205452
0.0199801
0.0194379
0.0189174
0.0184172
0.0179362
0.0174731
0.0170272
0.0165977
0.0161837
0.0157847
0.0154001
0.015029
0.0146708
0.0143249
0.0139905
0.0136671
0.0133542
0.0130513
0.012758
0.0124738
0.0580905
0.0554782
0.0530313
0.050737
0.0485842
0.0465627
0.0446628
0.0428759
0.0411935
0.0396079
0.0381117
0.0366982
0.0353615
0.034096
0.0328968
0.0317596
0.0306804
0.0296555
0.0286814
0.0277547
0.0268724
0.0260313
0.0252288
0.0244623
0.0237296
0.0230288
0.0223583
0.0217165
0.0211019
0.0205133
0.0199492
0.0194082
0.0188888
0.0183897
0.0179096
0.0174474
0.0170023
0.0165733
0.0161599
0.0157613
0.015377
0.0150062
0.0146482
0.0143025
0.0139683
0.013645
0.0133321
0.0130292
0.0127359
0.0124516
0.0580906
0.0554781
0.0530323
0.0507407
0.0485915
0.0465737
0.0446772
0.0428929
0.0412124
0.0396278
0.0381319
0.0367183
0.035381
0.0341146
0.0329144
0.0317761
0.0306957
0.0296696
0.0286942
0.0277663
0.0268825
0.02604
0.0252359
0.0244677
0.0237334
0.023031
0.0223589
0.0217157
0.0211
0.0205104
0.0199454
0.0194036
0.0188834
0.0183836
0.0179028
0.0174399
0.016994
0.0165644
0.0161502
0.015751
0.015366
0.0149946
0.0146362
0.0142901
0.0139556
0.0136322
0.0133195
0.0130169
0.0127243
0.0124412
0.0580906
0.0554594
0.0529921
0.0506806
0.0485143
0.0464828
0.0445762
0.0427848
0.0410997
0.0395125
0.0380158
0.0366027
0.035267
0.0340031
0.0328062
0.0316718
0.0305958
0.0295744
0.028604
0.027681
0.0268023
0.0259647
0.0251655
0.0244021
0.0236726
0.022975
0.0223077
0.0216693
0.0210585
0.0204738
0.0199137
0.0193767
0.0188615
0.0183665
0.0178905
0.0174324
0.0169914
0.0165667
0.0161577
0.0157638
0.0153844
0.015019
0.014667
0.0143279
0.0140011
0.0136864
0.0133836
0.0130926
0.0128139
0.0125483
0.0580943
0.0554718
0.0530207
0.0507236
0.0485724
0.0465582
0.0446732
0.042907
0.0412498
0.0396928
0.038228
0.036848
0.0355464
0.0343172
0.0331554
0.0320561
0.0310152
0.0300287
0.0290929
0.028204
0.0273588
0.026554
0.0257868
0.0250546
0.0243553
0.0236871
0.0230484
0.0224379
0.0218543
0.0212962
0.0207623
0.0202512
0.0197613
0.0192913
0.0188401
0.0184065
0.0179898
0.0175894
0.0172049
0.016836
0.0164824
0.0161438
0.0158199
0.0155106
0.0152159
0.0149363
0.0146724
0.014426
0.0142005
0.0140026
0.058935
0.0574953
0.0561308
0.0548355
0.0536016
0.0524211
0.0512865
0.0501951
0.0491442
0.0481319
0.0471561
0.0462151
0.0453075
0.0444317
0.0435866
0.0427709
0.0419834
0.0412228
0.0404879
0.0397774
0.0390898
0.0384241
0.0377793
0.0371545
0.0365491
0.0359626
0.0353943
0.0348437
0.0343103
0.0337933
0.0332918
0.0328049
0.0323318
0.0318716
0.0314237
0.0309875
0.0305626
0.0301488
0.0297455
0.0293526
0.0289693
0.0285953
0.02823
0.0278729
0.0275232
0.0271806
0.0268443
0.0265137
0.0261879
0.0258654
0.011224
0.00239905
0.00255327
0.00365091
0.00556239
0.00786989
0.00969256
0.0100897
0.00864349
0.00586781
0.00309836
0.00168822
0.00160845
0.00164214
0.00185359
0.00219012
0.00273956
0.0045282
0.0106575
0.0434255
0.0110514
0.00240395
0.0025661
0.00367488
0.00560397
0.00793232
0.00977297
0.0101802
0.00873548
0.00595304
0.00316197
0.00171275
0.00163965
0.00174671
0.0019413
0.00229591
0.00298062
0.00498283
0.0114957
0.0440246
0.0108825
0.00240893
0.00257827
0.00369718
0.00564307
0.00799276
0.00985411
0.010276
0.00883753
0.00605079
0.00323621
0.0017387
0.00165276
0.00178477
0.00198073
0.00235226
0.00309644
0.00519308
0.0119137
0.0447044
0.0107177
0.00241396
0.00258959
0.00371756
0.00567945
0.00805112
0.00993608
0.0103774
0.00894976
0.00616108
0.00332131
0.00176769
0.00165602
0.00180687
0.00200882
0.00239512
0.00318455
0.00534637
0.0122356
0.0453839
0.0105573
0.00241901
0.00259999
0.00373578
0.00571281
0.0081072
0.0100188
0.0104844
0.00907225
0.00628389
0.00341747
0.001801
0.00165024
0.00181407
0.0020244
0.00242295
0.0032457
0.00545148
0.0124776
0.0460609
0.0104016
0.00242405
0.00260931
0.00375155
0.00574266
0.00816051
0.0101021
0.0105971
0.00920541
0.00641952
0.00352505
0.00184053
0.00163894
0.00180914
0.00202826
0.00243667
0.0032834
0.00551812
0.0126587
0.0467353
0.0102509
0.00242906
0.00261734
0.0037644
0.00576838
0.00821043
0.0101857
0.0107159
0.00934992
0.00656871
0.00364471
0.00188806
0.00162484
0.00179506
0.00202193
0.00243786
0.00330146
0.0055551
0.0127949
0.0474076
0.0101053
0.00243396
0.00262384
0.00377378
0.00578909
0.00825607
0.0102691
0.0108411
0.00950698
0.00673294
0.00377783
0.00194532
0.00160975
0.00177441
0.00200738
0.00242871
0.00330413
0.0055714
0.0129018
0.0480784
0.00996522
0.0024387
0.00262852
0.00377905
0.00580383
0.00829641
0.0103517
0.0109731
0.00967815
0.00691449
0.00392658
0.00201445
0.00159613
0.00174971
0.0019869
0.00241207
0.00329636
0.00557689
0.0129958
0.0487481
0.00983107
0.00244325
0.00263112
0.0037795
0.00581141
0.00833012
0.0104329
0.0111126
0.00986547
0.00711634
0.00409404
0.00209813
0.00158687
0.00172379
0.00196323
0.00239138
0.00328385
0.0055824
0.0130946
0.0494165
0.00970343
0.00244761
0.00263133
0.00377433
0.00581043
0.00835561
0.0105118
0.0112601
0.0100714
0.0073424
0.00428439
0.0021999
0.00158607
0.00169982
0.0019396
0.00237073
0.00327306
0.0055997
0.0132167
0.0500835
0.00958298
0.00245182
0.00262883
0.0037626
0.00579921
0.00837083
0.0105868
0.011416
0.0102989
0.00759753
0.00450302
0.00232438
0.00159924
0.00168143
0.00191969
0.00235484
0.00327131
0.00564136
0.013381
0.0507482
0.00947039
0.00245584
0.00262325
0.00374328
0.00577581
0.00837337
0.0106561
0.0115804
0.0105509
0.00788749
0.0047567
0.00247745
0.0016323
0.00167287
0.00190799
0.00234933
0.00328701
0.00572069
0.0136067
0.0514096
0.00936637
0.00245966
0.00261419
0.00371522
0.00573808
0.00836026
0.0107173
0.011753
0.0108305
0.00821878
0.0050538
0.00266679
0.00169229
0.00167953
0.00191011
0.00236103
0.00332996
0.00585169
0.013912
0.0520663
0.00927155
0.00246329
0.00260132
0.00367734
0.00568369
0.00832808
0.0107668
0.0119324
0.0111406
0.00859877
0.00540452
0.0029024
0.00178797
0.00170867
0.00193337
0.00239845
0.00341165
0.00604904
0.0143142
0.0527165
0.00918672
0.00246678
0.00258442
0.00362861
0.00561017
0.00827272
0.0108002
0.0121162
0.0114833
0.00903531
0.00582098
0.00319718
0.00193067
0.00177004
0.00198735
0.00247227
0.00354555
0.00632797
0.014829
0.0533579
0.00911275
0.0024703
0.00256337
0.00356819
0.00551495
0.00818951
0.0108117
0.0123003
0.0118597
0.00953638
0.00631703
0.00356715
0.00213483
0.00187647
0.00208448
0.00259584
0.00374732
0.0067042
0.0154699
0.053988
0.00905061
0.00247409
0.00253826
0.00349541
0.00539551
0.00807312
0.0107939
0.0124783
0.0122685
0.0101094
0.00690821
0.00403172
0.00241835
0.00204431
0.00224071
0.00278571
0.0040349
0.00719386
0.0162481
0.0546036
0.00900129
0.00247841
0.00250931
0.00340996
0.00524956
0.00791781
0.0107378
0.0126409
0.0127054
0.0107599
0.00761094
0.00461407
0.00280407
0.00229402
0.00247609
0.00306212
0.00442863
0.00781349
0.0171722
0.0552011
0.00896571
0.00248361
0.002477
0.00331203
0.00507537
0.00771773
0.0106325
0.0127748
0.0131614
0.0114895
0.00844105
0.00534095
0.00332104
0.00265151
0.00281557
0.00344943
0.00495112
0.00857976
0.0182483
0.0557763
0.00894473
0.00249007
0.00244208
0.00320249
0.00487211
0.00746733
0.0104656
0.0128628
0.0136207
0.0122938
0.00941144
0.00624144
0.00400476
0.00314952
0.00328991
0.00397637
0.00562687
0.009509
0.0194792
0.0563247
0.00893916
0.00249829
0.00240566
0.00308312
0.00464038
0.00716203
0.0102237
0.0128826
0.0140595
0.0131587
0.0105282
0.0073441
0.004897
0.00382822
0.00393576
0.00467544
0.00648137
0.0106162
0.0208633
0.0568405
0.00894986
0.00250886
0.00236915
0.00295667
0.00438256
0.00679911
0.00989309
0.0128076
0.0144441
0.0140572
0.0117853
0.00867168
0.00604376
0.0047342
0.00479414
0.00558121
0.0075392
0.011913
0.0223941
0.057317
0.0089777
0.0025224
0.00233424
0.00282681
0.00410319
0.00637885
0.00946174
0.012608
0.0147309
0.0149458
0.0131579
0.0102324
0.00749132
0.00592065
0.00590662
0.00672691
0.00882123
0.013406
0.024058
0.0577465
0.00902345
0.00253956
0.00230273
0.00269807
0.00380926
0.00590576
0.00892174
0.0122537
0.0148666
0.0157617
0.0145955
0.012007
0.00928192
0.00755179
0.00730865
0.00813923
0.010341
0.0150933
0.0258343
0.0581198
0.00908772
0.00256087
0.00227631
0.0025755
0.00351025
0.0053898
0.0082723
0.0117186
0.0147925
0.0164233
0.0160163
0.0139238
0.01132
0.00945991
0.00902035
0.00983217
0.0121008
0.0169632
0.0276944
0.0584269
0.00917085
0.00258671
0.00225643
0.0024643
0.0032177
0.00484706
0.00752289
0.0109865
0.0144508
0.0168342
0.0173142
0.0159058
0.0135784
0.0116602
0.0110384
0.0118018
0.0140887
0.0189924
0.0296029
0.0586566
0.00927289
0.00261733
0.00224414
0.0023692
0.00294432
0.00429943
0.00669568
0.010058
0.0137948
0.0168906
0.0183512
0.0178281
0.0159771
0.0141101
0.013333
0.0140236
0.0162774
0.0211466
0.0315195
0.0587959
0.00939371
0.00265284
0.00223992
0.00229382
0.00270243
0.00377303
0.00582622
0.00895668
0.0128016
0.0164963
0.0189669
0.0195198
0.0183917
0.0167338
0.0158485
0.0164518
0.0186245
0.0233815
0.0334006
0.0588298
0.00953308
0.00269328
0.00224361
0.00224007
0.00250212
0.003295
0.00496145
0.00773318
0.0114862
0.0155844
0.0189972
0.0207657
0.0206442
0.0194304
0.0185111
0.0190227
0.0210744
0.0256449
0.0352014
0.0587408
0.00969061
0.00273858
0.00225447
0.00220779
0.00234947
0.00288926
0.00415423
0.00646375
0.00991186
0.0141437
0.0183046
0.0213182
0.0224845
0.0220682
0.021288
0.0216585
0.023561
0.0278797
0.0368769
0.0585085
0.00986569
0.00278857
0.00227128
0.00219482
0.00224534
0.00257201
0.00345465
0.00524192
0.00819277
0.0122423
0.0168244
0.0209342
0.0235583
0.0243599
0.0241198
0.0242707
0.0260106
0.0300256
0.0383837
0.0581098
0.0100573
0.00284301
0.00229259
0.00219751
0.00218538
0.00234832
0.00289977
0.0041621
0.00648195
0.0100402
0.0146172
0.0194672
0.0234919
0.0258079
0.026486
0.0267603
0.0283436
0.0320213
0.0396808
0.0575172
0.0102641
0.00290161
0.00231701
0.00221157
0.00216121
0.00221122
0.00250499
0.0032986
0.00494277
0.00777189
0.0118924
0.0169508
0.0220539
0.0260424
0.0281944
0.0290196
0.0304775
0.0338065
0.0407305
0.0566987
0.0104845
0.00296411
0.00234341
0.00223293
0.00216262
0.00214419
0.0022609
0.00268678
0.00370975
0.00570214
0.00899136
0.0136319
0.0191693
0.0245874
0.0286722
0.0308829
0.032323
0.0353203
0.0414956
0.0556136
0.0107164
0.00303031
0.00237104
0.0022584
0.00217991
0.00212618
0.00213779
0.00231476
0.00285068
0.00405664
0.00632675
0.0100013
0.0151235
0.0211774
0.027022
0.0313372
0.0337466
0.0364912
0.0419308
0.0542041
0.0109582
0.00310001
0.00239951
0.00228586
0.00220557
0.00213728
0.00209655
0.00213161
0.00234814
0.00294813
0.0042557
0.00669074
0.0106403
0.0162024
0.0228665
0.0293685
0.0341699
0.0371856
0.0419553
0.0523811
0.0112077
0.00317294
0.00242859
0.0023141
0.0022348
0.00216264
0.00210103
0.00206989
0.00211576
0.00234082
0.00293966
0.00423335
0.00666588
0.0107072
0.0166031
0.0239681
0.0314172
0.0369507
0.0413593
0.0499927
0.0114628
0.00324869
0.00245813
0.00234251
0.00226507
0.00219349
0.00212597
0.00207044
0.00204382
0.00208747
0.00228895
0.00281653
0.00396098
0.00616536
0.00999558
0.0159598
0.0240406
0.0329107
0.0395095
0.0467423
0.0117207
0.00332661
0.00248798
0.0023708
0.00229531
0.00222576
0.00215791
0.00209583
0.00204485
0.00202017
0.00205453
0.00221437
0.0026253
0.00351088
0.00524925
0.00844065
0.0139222
0.0224956
0.0337512
0.0417748
0.0119786
0.00340597
0.00251801
0.00239885
0.00232513
0.00225792
0.00219134
0.00212866
0.00207112
0.00202493
0.00200295
0.00203147
0.00215898
0.00246705
0.00308586
0.00422884
0.00628113
0.0100156
0.0170389