/*--------------------------------*- C++ -*----------------------------------*\
  =========                 |
  \\      /  F ield         | OpenFOAM: The Open Source CFD Toolbox
   \\    /   O peration     | Website:  https://openfoam.org
    \\  /    A nd           | Version:  8
     \\/     M anipulation  |
\*---------------------------------------------------------------------------*/
FoamFile
{
    version     2.0;
    format      ascii;
    class       volScalarField;
    location    "800";
    object      nut;
}
// * * * * * * * * * * * * * * * * * * * * * * * * * * * * * * * * * * * * * //

dimensions      [0 2 -1 0 0 0 0];

internalField   nonuniform List<scalar> 
8400
(
0.000220318
0.000217508
0.000214712
0.00021193
0.000209164
0.00020641
0.000203668
0.000200938
0.00019822
0.000195516
0.000192828
0.000190155
0.000187499
0.000184864
0.000182248
0.000179653
0.00017708
0.00017453
0.000172004
0.000169501
0.000167022
0.000164568
0.00016214
0.00015974
0.000157366
0.00015502
0.000152699
0.000150405
0.000148137
0.000145896
0.00014368
0.000141491
0.000139329
0.000137192
0.000135084
0.000133005
0.000130954
0.000128932
0.000126938
0.000124973
0.000123036
0.000121127
0.000119247
0.000117397
0.000115578
0.000113791
0.00011204
0.00011033
0.000108666
0.000107057
6.40026e-05
6.39445e-05
6.38884e-05
6.38336e-05
6.378e-05
6.37273e-05
6.36753e-05
6.36241e-05
6.35736e-05
6.35238e-05
6.34746e-05
6.34262e-05
6.33788e-05
6.33325e-05
6.32871e-05
6.32426e-05
6.3199e-05
6.31562e-05
6.31139e-05
6.30718e-05
6.30298e-05
6.29878e-05
6.29457e-05
6.28981e-05
6.28469e-05
6.2794e-05
6.27415e-05
6.26908e-05
6.26426e-05
6.25977e-05
6.25569e-05
6.25207e-05
6.24893e-05
6.24635e-05
6.24383e-05
6.24118e-05
6.23863e-05
6.2362e-05
6.23383e-05
6.23154e-05
6.22933e-05
6.22721e-05
6.22521e-05
6.22332e-05
6.22153e-05
6.21986e-05
6.21828e-05
6.21686e-05
6.2156e-05
6.21458e-05
6.07441e-05
6.07512e-05
6.07578e-05
6.07639e-05
6.07693e-05
6.0774e-05
6.07778e-05
6.07808e-05
6.07831e-05
6.07847e-05
6.07856e-05
6.07859e-05
6.07858e-05
6.07854e-05
6.07846e-05
6.07836e-05
6.07824e-05
6.07811e-05
6.07793e-05
6.07773e-05
6.07752e-05
6.07732e-05
6.07713e-05
6.07693e-05
6.07672e-05
6.07651e-05
6.07631e-05
6.07613e-05
6.07596e-05
6.07582e-05
6.0757e-05
6.07561e-05
6.07556e-05
6.07555e-05
6.07558e-05
6.07564e-05
6.07573e-05
6.07586e-05
6.07602e-05
6.07619e-05
6.07641e-05
6.07667e-05
6.07698e-05
6.07733e-05
6.07772e-05
6.07818e-05
6.07868e-05
6.07933e-05
6.08019e-05
6.08119e-05
5.91342e-05
5.91557e-05
5.91772e-05
5.91984e-05
5.92188e-05
5.9238e-05
5.92562e-05
5.92736e-05
5.92903e-05
5.9306e-05
5.9321e-05
5.93352e-05
5.93489e-05
5.93621e-05
5.9375e-05
5.93876e-05
5.93999e-05
5.94118e-05
5.94232e-05
5.94344e-05
5.94456e-05
5.94567e-05
5.94677e-05
5.94786e-05
5.94893e-05
5.95002e-05
5.95112e-05
5.95224e-05
5.95337e-05
5.95452e-05
5.95569e-05
5.95691e-05
5.95818e-05
5.95946e-05
5.96078e-05
5.96213e-05
5.96348e-05
5.96488e-05
5.96631e-05
5.96773e-05
5.96923e-05
5.97076e-05
5.97229e-05
5.97385e-05
5.97546e-05
5.97712e-05
5.97878e-05
5.98056e-05
5.98251e-05
5.98457e-05
5.78923e-05
5.79284e-05
5.79639e-05
5.79985e-05
5.8032e-05
5.80641e-05
5.8095e-05
5.8125e-05
5.8154e-05
5.81819e-05
5.82088e-05
5.82349e-05
5.82603e-05
5.82852e-05
5.83097e-05
5.83338e-05
5.83574e-05
5.83805e-05
5.84032e-05
5.84256e-05
5.84478e-05
5.847e-05
5.84918e-05
5.85135e-05
5.85353e-05
5.85573e-05
5.85796e-05
5.8602e-05
5.86247e-05
5.86475e-05
5.86708e-05
5.86946e-05
5.87186e-05
5.87429e-05
5.87673e-05
5.87917e-05
5.88162e-05
5.88414e-05
5.88668e-05
5.88924e-05
5.89181e-05
5.8944e-05
5.89697e-05
5.89955e-05
5.90219e-05
5.90487e-05
5.90756e-05
5.9103e-05
5.91319e-05
5.91627e-05
5.68981e-05
5.69444e-05
5.69914e-05
5.7038e-05
5.70835e-05
5.71276e-05
5.71705e-05
5.72123e-05
5.72529e-05
5.72921e-05
5.73301e-05
5.73671e-05
5.74033e-05
5.74387e-05
5.74736e-05
5.75081e-05
5.75419e-05
5.7575e-05
5.76076e-05
5.76401e-05
5.76724e-05
5.77042e-05
5.77357e-05
5.77673e-05
5.77994e-05
5.78318e-05
5.78647e-05
5.78977e-05
5.79308e-05
5.79644e-05
5.79986e-05
5.80329e-05
5.80676e-05
5.81024e-05
5.81368e-05
5.81712e-05
5.82063e-05
5.82414e-05
5.82767e-05
5.8312e-05
5.83472e-05
5.83821e-05
5.84172e-05
5.84527e-05
5.84881e-05
5.85234e-05
5.85596e-05
5.8597e-05
5.86346e-05
5.86741e-05
5.61262e-05
5.61564e-05
5.61917e-05
5.6231e-05
5.62729e-05
5.63165e-05
5.63616e-05
5.64073e-05
5.64529e-05
5.64981e-05
5.6543e-05
5.65874e-05
5.66315e-05
5.66754e-05
5.6719e-05
5.67622e-05
5.6805e-05
5.68473e-05
5.68896e-05
5.69319e-05
5.69737e-05
5.70149e-05
5.70564e-05
5.70987e-05
5.71417e-05
5.71854e-05
5.72296e-05
5.72738e-05
5.73184e-05
5.73637e-05
5.74094e-05
5.74552e-05
5.7501e-05
5.75462e-05
5.75913e-05
5.76369e-05
5.76824e-05
5.77279e-05
5.77733e-05
5.78186e-05
5.78641e-05
5.79091e-05
5.79541e-05
5.8e-05
5.80451e-05
5.80904e-05
5.8137e-05
5.81857e-05
5.82354e-05
5.82854e-05
5.62127e-05
5.61278e-05
5.6058e-05
5.60077e-05
5.59754e-05
5.59588e-05
5.5955e-05
5.59613e-05
5.59751e-05
5.59951e-05
5.60201e-05
5.60495e-05
5.60823e-05
5.6118e-05
5.61558e-05
5.61949e-05
5.62355e-05
5.62776e-05
5.63209e-05
5.63643e-05
5.64078e-05
5.64523e-05
5.64982e-05
5.65457e-05
5.65946e-05
5.66445e-05
5.66948e-05
5.67458e-05
5.67978e-05
5.68505e-05
5.69035e-05
5.69569e-05
5.70097e-05
5.70623e-05
5.71157e-05
5.71695e-05
5.72229e-05
5.72768e-05
5.73316e-05
5.73852e-05
5.74387e-05
5.74945e-05
5.75494e-05
5.76053e-05
5.7661e-05
5.7719e-05
5.7779e-05
5.78376e-05
5.78987e-05
5.79611e-05
5.81085e-05
5.78285e-05
5.75656e-05
5.73349e-05
5.71367e-05
5.69694e-05
5.68293e-05
5.6712e-05
5.66148e-05
5.65358e-05
5.64739e-05
5.64264e-05
5.63908e-05
5.63641e-05
5.63453e-05
5.63345e-05
5.63316e-05
5.63344e-05
5.634e-05
5.63477e-05
5.63587e-05
5.63741e-05
5.63935e-05
5.6417e-05
5.64444e-05
5.64753e-05
5.65091e-05
5.65457e-05
5.6585e-05
5.66261e-05
5.66688e-05
5.67133e-05
5.67594e-05
5.68068e-05
5.68564e-05
5.69078e-05
5.69593e-05
5.70115e-05
5.7066e-05
5.71205e-05
5.71758e-05
5.72342e-05
5.72959e-05
5.7356e-05
5.74199e-05
5.74853e-05
5.75556e-05
5.76223e-05
5.76892e-05
5.77576e-05
6.05961e-05
6.03609e-05
6.01266e-05
5.98973e-05
5.96774e-05
5.94729e-05
5.92815e-05
5.90978e-05
5.89252e-05
5.8769e-05
5.86318e-05
5.8506e-05
5.83838e-05
5.82602e-05
5.81463e-05
5.80538e-05
5.79773e-05
5.79022e-05
5.78248e-05
5.77509e-05
5.76821e-05
5.76182e-05
5.75637e-05
5.75204e-05
5.74872e-05
5.74627e-05
5.74418e-05
5.74197e-05
5.73984e-05
5.73798e-05
5.73639e-05
5.73557e-05
5.7355e-05
5.73527e-05
5.73572e-05
5.73752e-05
5.73859e-05
5.73863e-05
5.7387e-05
5.74035e-05
5.74408e-05
5.74707e-05
5.75087e-05
5.75705e-05
5.76095e-05
5.76502e-05
5.77038e-05
5.77568e-05
5.78056e-05
5.78458e-05
6.14024e-05
6.13031e-05
6.12098e-05
6.11168e-05
6.10247e-05
6.09357e-05
6.08503e-05
6.07674e-05
6.06879e-05
6.06134e-05
6.05438e-05
6.0474e-05
6.03965e-05
6.03102e-05
6.02243e-05
6.01468e-05
6.0075e-05
6.00033e-05
5.99305e-05
5.98568e-05
5.97828e-05
5.97112e-05
5.96437e-05
5.95811e-05
5.95242e-05
5.94699e-05
5.94139e-05
5.93546e-05
5.9291e-05
5.92275e-05
5.91675e-05
5.91101e-05
5.90585e-05
5.90081e-05
5.896e-05
5.89235e-05
5.88862e-05
5.88404e-05
5.87977e-05
5.87577e-05
5.87176e-05
5.86956e-05
5.86691e-05
5.8645e-05
5.8622e-05
5.86094e-05
5.86021e-05
5.85864e-05
5.85675e-05
5.85539e-05
6.14572e-05
6.14126e-05
6.13677e-05
6.13223e-05
6.12769e-05
6.12321e-05
6.1188e-05
6.1145e-05
6.11028e-05
6.10614e-05
6.10202e-05
6.0978e-05
6.0934e-05
6.08893e-05
6.08456e-05
6.08032e-05
6.07615e-05
6.07201e-05
6.06782e-05
6.06349e-05
6.05914e-05
6.05491e-05
6.05082e-05
6.04689e-05
6.04308e-05
6.03923e-05
6.03525e-05
6.03118e-05
6.02704e-05
6.02299e-05
6.0191e-05
6.01524e-05
6.01141e-05
6.00772e-05
6.00408e-05
6.00045e-05
5.99678e-05
5.99298e-05
5.98941e-05
5.98608e-05
5.98273e-05
5.97953e-05
5.97622e-05
5.97308e-05
5.97001e-05
5.96693e-05
5.96402e-05
5.9608e-05
5.95769e-05
5.9547e-05
6.14719e-05
6.14431e-05
6.14141e-05
6.13849e-05
6.13557e-05
6.13269e-05
6.12986e-05
6.12704e-05
6.12421e-05
6.12138e-05
6.11856e-05
6.11571e-05
6.11281e-05
6.10989e-05
6.10699e-05
6.10415e-05
6.10137e-05
6.09856e-05
6.09567e-05
6.09272e-05
6.08982e-05
6.08698e-05
6.08421e-05
6.08149e-05
6.07876e-05
6.07599e-05
6.07317e-05
6.07033e-05
6.06748e-05
6.06469e-05
6.06197e-05
6.05923e-05
6.05644e-05
6.05373e-05
6.05106e-05
6.04835e-05
6.04553e-05
6.04281e-05
6.04031e-05
6.03755e-05
6.03487e-05
6.03219e-05
6.02951e-05
6.02691e-05
6.02436e-05
6.02181e-05
6.01928e-05
6.0167e-05
6.01405e-05
6.01154e-05
6.148e-05
6.14594e-05
6.14385e-05
6.14175e-05
6.13966e-05
6.13758e-05
6.13549e-05
6.13337e-05
6.13124e-05
6.12913e-05
6.12703e-05
6.12491e-05
6.12275e-05
6.12056e-05
6.11841e-05
6.1163e-05
6.1142e-05
6.11204e-05
6.10983e-05
6.10762e-05
6.10544e-05
6.1033e-05
6.10118e-05
6.09907e-05
6.09693e-05
6.09477e-05
6.09261e-05
6.09044e-05
6.08827e-05
6.08611e-05
6.08399e-05
6.08188e-05
6.0798e-05
6.07768e-05
6.07546e-05
6.07327e-05
6.07114e-05
6.06899e-05
6.06696e-05
6.06481e-05
6.06263e-05
6.06052e-05
6.05843e-05
6.05631e-05
6.05419e-05
6.05208e-05
6.05002e-05
6.048e-05
6.04588e-05
6.04377e-05
6.14829e-05
6.14654e-05
6.14479e-05
6.14305e-05
6.14132e-05
6.13958e-05
6.13782e-05
6.13604e-05
6.13429e-05
6.13258e-05
6.13086e-05
6.12911e-05
6.12733e-05
6.12555e-05
6.12381e-05
6.1221e-05
6.12038e-05
6.11862e-05
6.11685e-05
6.11508e-05
6.11332e-05
6.11159e-05
6.10986e-05
6.10812e-05
6.10638e-05
6.10464e-05
6.10289e-05
6.10115e-05
6.09941e-05
6.09769e-05
6.09599e-05
6.0943e-05
6.09258e-05
6.0908e-05
6.08899e-05
6.08728e-05
6.08564e-05
6.08395e-05
6.08215e-05
6.08042e-05
6.07872e-05
6.077e-05
6.07527e-05
6.07354e-05
6.07187e-05
6.07022e-05
6.06854e-05
6.06687e-05
6.06518e-05
6.06348e-05
6.14871e-05
6.14741e-05
6.14609e-05
6.14478e-05
6.14344e-05
6.14208e-05
6.14072e-05
6.13937e-05
6.13804e-05
6.13671e-05
6.13536e-05
6.13397e-05
6.13258e-05
6.13119e-05
6.12983e-05
6.12848e-05
6.12711e-05
6.12571e-05
6.1243e-05
6.12289e-05
6.12149e-05
6.12009e-05
6.11869e-05
6.11728e-05
6.11588e-05
6.11449e-05
6.11309e-05
6.11168e-05
6.11027e-05
6.10889e-05
6.10751e-05
6.10609e-05
6.10462e-05
6.10317e-05
6.10177e-05
6.10034e-05
6.09887e-05
6.09746e-05
6.09601e-05
6.09455e-05
6.09311e-05
6.09166e-05
6.09023e-05
6.0888e-05
6.08739e-05
6.08596e-05
6.08452e-05
6.08307e-05
6.08161e-05
6.08016e-05
6.14864e-05
6.14727e-05
6.1459e-05
6.14452e-05
6.14314e-05
6.14175e-05
6.14038e-05
6.13903e-05
6.13769e-05
6.13634e-05
6.13497e-05
6.13359e-05
6.13221e-05
6.13086e-05
6.12953e-05
6.12819e-05
6.12684e-05
6.12548e-05
6.12411e-05
6.12274e-05
6.12138e-05
6.12002e-05
6.11867e-05
6.11733e-05
6.11599e-05
6.11467e-05
6.11334e-05
6.11203e-05
6.11074e-05
6.10943e-05
6.10806e-05
6.10671e-05
6.10539e-05
6.10405e-05
6.10274e-05
6.10144e-05
6.10015e-05
6.09886e-05
6.0976e-05
6.09629e-05
6.09501e-05
6.09374e-05
6.09251e-05
6.09132e-05
6.09012e-05
6.0889e-05
6.08772e-05
6.08659e-05
6.0855e-05
6.0845e-05
6.14911e-05
6.14827e-05
6.14744e-05
6.14663e-05
6.14584e-05
6.14505e-05
6.14428e-05
6.14351e-05
6.14275e-05
6.14198e-05
6.14121e-05
6.14044e-05
6.13969e-05
6.13894e-05
6.13821e-05
6.13746e-05
6.13672e-05
6.13599e-05
6.13526e-05
6.13454e-05
6.13382e-05
6.13312e-05
6.13241e-05
6.1317e-05
6.13101e-05
6.13032e-05
6.12963e-05
6.12896e-05
6.12829e-05
6.12761e-05
6.12695e-05
6.12631e-05
6.12569e-05
6.12508e-05
6.1245e-05
6.12393e-05
6.12341e-05
6.12289e-05
6.1224e-05
6.12192e-05
6.1215e-05
6.12114e-05
6.12081e-05
6.12054e-05
6.12037e-05
6.12032e-05
6.12045e-05
6.12086e-05
6.12167e-05
6.12302e-05
6.16039e-05
6.17083e-05
6.18097e-05
6.19086e-05
6.20048e-05
6.20985e-05
6.21897e-05
6.22784e-05
6.23647e-05
6.24486e-05
6.25302e-05
6.26095e-05
6.26865e-05
6.27613e-05
6.28339e-05
6.29036e-05
6.29897e-05
6.31088e-05
6.32318e-05
6.33447e-05
6.34508e-05
6.3553e-05
6.36501e-05
6.37416e-05
6.38301e-05
6.39176e-05
6.40048e-05
6.40904e-05
6.41728e-05
6.42511e-05
6.43279e-05
6.4404e-05
6.44772e-05
6.45469e-05
6.46119e-05
6.46696e-05
6.4721e-05
6.47666e-05
6.48056e-05
6.48376e-05
6.48628e-05
6.4883e-05
6.48979e-05
6.49081e-05
6.49185e-05
6.49369e-05
6.4974e-05
6.50533e-05
6.52291e-05
6.55727e-05
0.000303335
0.000299937
0.000296149
0.0002924
0.000288741
0.000285153
0.000281609
0.000278082
0.000274549
0.000270997
0.000267423
0.000263831
0.000260232
0.000256636
0.000253058
0.000249512
0.000246013
0.000242567
0.000239174
0.000235828
0.000232529
0.000229277
0.000226071
0.00022291
0.000219793
0.00021672
0.000213693
0.000210713
0.000207782
0.0002049
0.00020207
0.000199295
0.000196573
0.000193909
0.000191307
0.000188768
0.000186293
0.000183885
0.000181542
0.000179262
0.000177037
0.000174861
0.000172725
0.000170619
0.000168529
0.000166442
0.000164348
0.000162233
0.000160088
0.000157905
0.000272578
0.000269185
0.000265945
0.000262851
0.000259877
0.000257005
0.000254219
0.000251513
0.000248883
0.000246326
0.000243839
0.000241417
0.000239057
0.000236755
0.000234507
0.000232311
0.000230164
0.000228066
0.000226015
0.00022401
0.000222051
0.000220138
0.000218271
0.000216451
0.000214676
0.000212947
0.000211261
0.000209617
0.000208012
0.000206444
0.00020491
0.000203409
0.000201939
0.000200501
0.000199093
0.000197718
0.000196376
0.00019507
0.0001938
0.000192562
0.000191353
0.000190166
0.000188994
0.000187832
0.000186674
0.000185514
0.000184349
0.00018317
0.000181966
0.000180714
0.0002706
0.000264346
0.000258399
0.000252726
0.000247312
0.000242146
0.000237219
0.000232515
0.000228019
0.000223716
0.000219591
0.000215632
0.000211824
0.000208157
0.00020462
0.000201205
0.000197906
0.000194716
0.000191632
0.00018865
0.000185767
0.000182982
0.000180292
0.000177694
0.000175185
0.00017276
0.000170414
0.00016814
0.000165932
0.000163784
0.000161692
0.000159652
0.000157662
0.000155722
0.000153831
0.00015199
0.0001502
0.00014846
0.00014677
0.000145128
0.000143532
0.000141974
0.000140449
0.000138953
0.000137484
0.00013604
0.000134617
0.000133206
0.0001318
0.000130412
0.000270597
0.000264334
0.000258353
0.000252644
0.000247189
0.000241972
0.00023698
0.000232197
0.000227611
0.000223208
0.000218976
0.000214903
0.000210976
0.000207186
0.000203524
0.000199982
0.000196553
0.000193233
0.000190017
0.000186902
0.000183885
0.000180965
0.000178139
0.000175404
0.000172757
0.000170194
0.00016771
0.0001653
0.000162959
0.000160681
0.000158463
0.000156302
0.000154195
0.000152142
0.000150143
0.000148198
0.000146309
0.000144477
0.000142699
0.000140974
0.000139296
0.000137661
0.000136061
0.000134495
0.00013296
0.000131462
0.000130007
0.000128596
0.000127207
0.000125788
0.000270599
0.00026439
0.000258468
0.000252813
0.000247403
0.000242223
0.000237258
0.000232495
0.000227923
0.000223529
0.000219303
0.000215232
0.000211306
0.000207515
0.000203849
0.000200301
0.000196865
0.000193536
0.00019031
0.000187184
0.000184156
0.000181224
0.000178386
0.00017564
0.000172981
0.000170406
0.000167909
0.000165487
0.000163132
0.000160841
0.00015861
0.000156435
0.000154314
0.000152247
0.000150234
0.000148276
0.000146373
0.000144527
0.000142736
0.000140998
0.000139307
0.000137659
0.000136048
0.000134469
0.000132918
0.000131394
0.000129907
0.000128474
0.000127104
0.000125732
0.000270602
0.000264403
0.000258483
0.000252821
0.0002474
0.000242206
0.000237227
0.000232451
0.000227868
0.000223466
0.000219235
0.000215162
0.000211236
0.000207446
0.000203782
0.000200237
0.000196804
0.000193479
0.000190256
0.000187135
0.000184112
0.000181185
0.000178354
0.000175614
0.000172963
0.000170395
0.000167906
0.00016549
0.000163141
0.000160855
0.000158628
0.000156457
0.000154339
0.000152274
0.000150262
0.000148305
0.000146404
0.000144559
0.000142769
0.000141031
0.000139341
0.000137693
0.000136084
0.00013451
0.000132967
0.000131451
0.000129958
0.000128501
0.000127108
0.000125748
0.000270606
0.000264419
0.000258511
0.000252859
0.000247446
0.000242259
0.000237286
0.000232517
0.000227941
0.000223547
0.000219323
0.000215258
0.000211339
0.000207555
0.000203896
0.000200354
0.000196924
0.0001936
0.000190378
0.000187258
0.000184235
0.00018131
0.000178481
0.000175743
0.000173094
0.000170527
0.000168039
0.000165623
0.000163273
0.000160986
0.000158756
0.000156582
0.00015446
0.000152391
0.000150375
0.000148414
0.000146508
0.000144658
0.000142863
0.00014112
0.000139425
0.000137771
0.000136155
0.000134573
0.000133027
0.000131515
0.000130029
0.000128567
0.000127153
0.000125781
0.00027061
0.000264434
0.000258531
0.00025288
0.000247464
0.000242271
0.000237291
0.000232513
0.00022793
0.00022353
0.000219301
0.000215232
0.000211309
0.000207522
0.000203861
0.000200317
0.000196885
0.000193559
0.000190336
0.000187215
0.000184194
0.000181271
0.000178444
0.00017571
0.000173064
0.000170501
0.000168015
0.000165601
0.000163253
0.000160966
0.000158737
0.000156564
0.000154442
0.000152373
0.000150357
0.000148395
0.000146488
0.000144637
0.00014284
0.000141097
0.000139401
0.000137747
0.000136131
0.000134548
0.000132997
0.000131481
0.00013
0.000128545
0.000127126
0.000125748
0.000270614
0.000264448
0.00025855
0.0002529
0.000247483
0.000242288
0.000237305
0.000232526
0.000227942
0.000223542
0.000219314
0.000215247
0.000211327
0.000207542
0.000203883
0.000200341
0.00019691
0.000193586
0.000190366
0.000187248
0.000184231
0.000181312
0.00017849
0.00017576
0.000173118
0.000170557
0.000168072
0.000165658
0.000163309
0.000161022
0.000158793
0.000156617
0.000154495
0.000152424
0.000150406
0.000148441
0.000146531
0.000144677
0.000142876
0.000141127
0.000139426
0.00013777
0.000136152
0.000134567
0.000133012
0.000131489
0.000130002
0.000128546
0.000127124
0.000125737
0.000270618
0.000264461
0.000258568
0.000252918
0.000247499
0.000242299
0.000237311
0.000232528
0.00022794
0.000223536
0.000219306
0.000215235
0.000211312
0.000207525
0.000203863
0.000200319
0.000196886
0.000193561
0.000190341
0.000187225
0.000184211
0.000181296
0.000178477
0.00017575
0.00017311
0.000170549
0.000168064
0.000165649
0.000163299
0.000161011
0.000158781
0.000156605
0.000154482
0.000152412
0.000150393
0.000148428
0.000146517
0.000144661
0.000142858
0.000141106
0.000139402
0.000137741
0.00013612
0.000134535
0.000132981
0.000131456
0.000129965
0.000128507
0.000127083
0.000125692
0.000270622
0.000264474
0.000258585
0.000252935
0.000247513
0.00024231
0.000237319
0.000232532
0.00022794
0.000223534
0.000219301
0.000215228
0.000211303
0.000207515
0.000203852
0.000200307
0.000196874
0.000193551
0.000190334
0.000187223
0.000184214
0.000181305
0.000178492
0.000175768
0.000173129
0.000170569
0.000168083
0.000165666
0.000163315
0.000161026
0.000158794
0.000156618
0.000154495
0.000152425
0.000150407
0.000148442
0.00014653
0.000144672
0.000142866
0.000141111
0.000139402
0.000137737
0.000136111
0.000134522
0.000132966
0.000131439
0.000129944
0.000128482
0.000127054
0.000125659
0.000270626
0.000264486
0.000258601
0.000252951
0.000247527
0.00024232
0.000237325
0.000232535
0.00022794
0.00022353
0.000219293
0.000215217
0.000211288
0.000207496
0.000203831
0.000200284
0.000196852
0.000193531
0.000190318
0.000187212
0.000184209
0.000181306
0.000178496
0.000175775
0.000173137
0.000170575
0.000168087
0.000165668
0.000163314
0.000161022
0.00015879
0.000156614
0.000154493
0.000152424
0.000150408
0.000148444
0.000146532
0.000144672
0.000142862
0.000141103
0.00013939
0.000137721
0.00013609
0.000134497
0.000132937
0.000131408
0.000129911
0.000128446
0.000127014
0.000125616
0.000270629
0.000264497
0.000258614
0.000252964
0.000247538
0.000242329
0.000237331
0.000232536
0.000227937
0.000223523
0.000219281
0.0002152
0.000211266
0.00020747
0.000203801
0.000200253
0.000196821
0.000193502
0.000190294
0.000187194
0.000184197
0.000181298
0.000178492
0.000175772
0.000173132
0.000170569
0.000168077
0.000165654
0.000163297
0.000161003
0.00015877
0.000156595
0.000154476
0.000152411
0.000150398
0.000148436
0.000146525
0.000144663
0.00014285
0.000141086
0.000139369
0.000137695
0.000136061
0.000134464
0.0001329
0.000131369
0.00012987
0.000128403
0.000126969
0.000125567
0.000270632
0.000264505
0.000258625
0.000252974
0.000247547
0.000242336
0.000237336
0.000232539
0.000227936
0.000223519
0.000219273
0.000215188
0.000211251
0.000207452
0.000203781
0.000200234
0.000196805
0.000193492
0.000190291
0.000187198
0.000184208
0.000181315
0.000178513
0.000175794
0.000173153
0.000170586
0.000168091
0.000165663
0.000163303
0.000161007
0.000158775
0.000156602
0.000154486
0.000152425
0.000150415
0.000148454
0.000146542
0.000144678
0.000142862
0.000141092
0.000139369
0.000137689
0.000136049
0.000134446
0.000132878
0.000131343
0.00012984
0.000128369
0.000126931
0.000125524
0.000270635
0.000264512
0.000258632
0.000252981
0.000247551
0.000242337
0.000237333
0.00023253
0.000227922
0.000223496
0.000219243
0.000215149
0.000211205
0.000207398
0.000203723
0.000200174
0.000196746
0.000193435
0.000190239
0.000187151
0.000184166
0.000181276
0.000178474
0.000175754
0.00017311
0.000170539
0.000168039
0.000165607
0.000163244
0.000160948
0.000158717
0.000156548
0.000154437
0.000152381
0.000150375
0.000148417
0.000146506
0.000144641
0.000142822
0.000141049
0.000139321
0.000137637
0.000135993
0.000134387
0.000132816
0.000131279
0.000129774
0.000128302
0.000126861
0.000125453
0.000270637
0.000264516
0.000258637
0.000252986
0.000247556
0.000242343
0.000237339
0.000232537
0.000227929
0.000223503
0.000219248
0.000215152
0.000211206
0.000207399
0.000203725
0.000200179
0.000196756
0.000193452
0.000190263
0.000187182
0.000184202
0.000181316
0.000178515
0.000175793
0.000173145
0.000170569
0.000168062
0.000165626
0.000163259
0.000160962
0.000158732
0.000156565
0.000154457
0.000152403
0.000150399
0.000148441
0.000146528
0.000144659
0.000142835
0.000141056
0.000139321
0.00013763
0.000135979
0.000134366
0.000132789
0.000131246
0.000129735
0.000128257
0.000126812
0.000125397
0.000270638
0.000264517
0.000258632
0.000252972
0.000247532
0.000242307
0.00023729
0.000232474
0.000227852
0.000223412
0.000219143
0.000215036
0.000211078
0.000207264
0.000203585
0.000200037
0.000196614
0.000193314
0.000190129
0.000187053
0.000184077
0.000181193
0.000178392
0.000175669
0.000173019
0.000170439
0.00016793
0.000165493
0.000163127
0.000160832
0.000158606
0.000156445
0.000154344
0.000152295
0.000150296
0.000148342
0.00014643
0.000144562
0.000142737
0.000140956
0.000139219
0.000137525
0.000135871
0.000134256
0.000132677
0.000131133
0.000129621
0.000128143
0.000126696
0.000125282
0.000270639
0.000264519
0.000258638
0.000252985
0.000247555
0.00024234
0.000237332
0.000232523
0.000227905
0.000223466
0.000219196
0.000215086
0.000211126
0.000207309
0.000203628
0.000200079
0.000196657
0.000193357
0.000190173
0.000187097
0.000184119
0.000181231
0.000178425
0.000175694
0.000173035
0.000170446
0.000167929
0.000165485
0.000163114
0.000160816
0.000158589
0.000156427
0.000154325
0.000152276
0.000150275
0.000148318
0.000146403
0.00014453
0.0001427
0.000140913
0.00013917
0.000137471
0.000135813
0.000134194
0.000132612
0.000131065
0.000129554
0.000128076
0.000126634
0.000125225
0.00027064
0.000264476
0.000258542
0.000252838
0.000247361
0.000242106
0.000237066
0.000232231
0.000227592
0.000223138
0.000218858
0.000214741
0.000210778
0.000206962
0.000203286
0.000199745
0.000196334
0.000193047
0.000189877
0.000186815
0.000183851
0.000180975
0.000178181
0.000175461
0.000172814
0.000170237
0.000167733
0.000165304
0.00016295
0.00016067
0.000158462
0.00015632
0.000154237
0.000152209
0.000150227
0.00014829
0.000146395
0.000144542
0.000142734
0.00014097
0.000139252
0.00013758
0.000135952
0.000134367
0.000132823
0.00013132
0.000129859
0.000128443
0.000127075
0.00012576
0.000270648
0.000264505
0.000258611
0.000252945
0.000247509
0.000242302
0.000237323
0.000232562
0.000228006
0.000223643
0.000219463
0.000215453
0.000211603
0.000207906
0.000204355
0.000200943
0.000197665
0.000194516
0.000191487
0.000188568
0.000185749
0.000183019
0.000180371
0.000177796
0.000175292
0.000172858
0.000170496
0.000168208
0.000165996
0.000163861
0.000161799
0.000159805
0.000157872
0.000155994
0.000154164
0.000152378
0.000150635
0.000148935
0.000147282
0.000145677
0.000144125
0.000142624
0.000141177
0.000139784
0.000138445
0.000137163
0.000135944
0.0001348
0.000133748
0.000132822
0.0002726
0.000269262
0.000266049
0.000262956
0.00025997
0.000257079
0.000254269
0.000251538
0.000248881
0.000246296
0.00024378
0.00024133
0.000238945
0.000236623
0.000234365
0.000232168
0.000230032
0.000227953
0.000225927
0.00022395
0.000222016
0.000220122
0.000218265
0.000216446
0.000214665
0.000212924
0.000211225
0.00020957
0.000207959
0.000206391
0.000204861
0.000203366
0.0002019
0.00020046
0.000199044
0.000197651
0.000196281
0.000194936
0.000193617
0.000192324
0.000191057
0.000189814
0.000188593
0.000187392
0.000186211
0.000185047
0.0001839
0.000182768
0.000181647
0.000180532
0.000120292
5.53503e-05
5.76246e-05
6.93972e-05
8.57153e-05
0.000101517
0.000111881
0.000113178
0.000103713
8.4503e-05
6.0997e-05
4.63611e-05
4.48337e-05
4.24274e-05
4.61172e-05
5.04075e-05
5.45157e-05
6.98757e-05
0.000109794
0.000235154
0.000119308
5.54129e-05
5.78192e-05
6.97227e-05
8.61573e-05
0.000102024
0.000112389
0.000113635
0.000104102
8.48453e-05
6.13067e-05
4.66979e-05
4.612e-05
4.59975e-05
4.8699e-05
5.29873e-05
5.94095e-05
7.73896e-05
0.000118788
0.000237165
0.000118343
5.54762e-05
5.80052e-05
7.00293e-05
8.65749e-05
0.000102512
0.000112899
0.000114129
0.000104573
8.53126e-05
6.17509e-05
4.70038e-05
4.70627e-05
4.76626e-05
5.00552e-05
5.45206e-05
6.19359e-05
8.09484e-05
0.000122993
0.000239119
0.000117389
5.55385e-05
5.8179e-05
7.03129e-05
8.69662e-05
0.000102982
0.000113415
0.000114663
0.000105125
8.59042e-05
6.23255e-05
4.72633e-05
4.76686e-05
4.90065e-05
5.1304e-05
5.59633e-05
6.41614e-05
8.38764e-05
0.000126459
0.000241039
0.000116456
5.56015e-05
5.83407e-05
7.0573e-05
8.73312e-05
0.000103437
0.000113936
0.000115238
0.000105759
8.66223e-05
6.30448e-05
4.75347e-05
4.80685e-05
4.99927e-05
5.23561e-05
5.72157e-05
6.60268e-05
8.62338e-05
0.000129271
0.000242922
0.000115546
5.56645e-05
5.84891e-05
7.08081e-05
8.76671e-05
0.000103872
0.000114462
0.000115851
0.00010647
8.74562e-05
6.39007e-05
4.7842e-05
4.82955e-05
5.06545e-05
5.31785e-05
5.82398e-05
6.75263e-05
8.80712e-05
0.000131512
0.000244768
0.000114659
5.5727e-05
5.86212e-05
7.10137e-05
8.79711e-05
0.000104287
0.000114993
0.000116503
0.00010726
8.8402e-05
6.48876e-05
4.82183e-05
4.83892e-05
5.1046e-05
5.37638e-05
5.90176e-05
6.86638e-05
8.94164e-05
0.000133233
0.00024658
0.000113796
5.5787e-05
5.8734e-05
7.11853e-05
8.82371e-05
0.000104676
0.000115524
0.000117193
0.000108129
8.94583e-05
6.60022e-05
4.86916e-05
4.8353e-05
5.11924e-05
5.41196e-05
5.95419e-05
6.94501e-05
9.02974e-05
0.000134477
0.000248365
0.000112955
5.58424e-05
5.88236e-05
7.13181e-05
8.84611e-05
0.000105037
0.000116057
0.000117923
0.000109078
9.06271e-05
6.7246e-05
4.92911e-05
4.82202e-05
5.11282e-05
5.42547e-05
5.98201e-05
6.9907e-05
9.07566e-05
0.000135303
0.000250127
0.000112141
5.58934e-05
5.88885e-05
7.14074e-05
8.86371e-05
0.000105364
0.000116588
0.000118696
0.000110112
9.19119e-05
6.86241e-05
5.00393e-05
4.79778e-05
5.0883e-05
5.41909e-05
5.98683e-05
7.00662e-05
9.08559e-05
0.000135787
0.000251869
0.000111355
5.59408e-05
5.89265e-05
7.14482e-05
8.87585e-05
0.000105652
0.000117118
0.000119515
0.000111242
9.33243e-05
7.01484e-05
5.09627e-05
4.76996e-05
5.04992e-05
5.39548e-05
5.97125e-05
6.99705e-05
9.0681e-05
0.000136034
0.000253594
0.000110605
5.59862e-05
5.89347e-05
7.14329e-05
8.88149e-05
0.000105894
0.000117641
0.000120384
0.000112477
9.48829e-05
7.18394e-05
5.20824e-05
4.73992e-05
5.00157e-05
5.35732e-05
5.93846e-05
6.96749e-05
9.03432e-05
0.000136168
0.000255302
0.000109895
5.60282e-05
5.89083e-05
7.13525e-05
8.87939e-05
0.000106077
0.000118154
0.000121307
0.000113831
9.66104e-05
7.37249e-05
5.34279e-05
4.71348e-05
4.94595e-05
5.30768e-05
5.89269e-05
6.92539e-05
8.99808e-05
0.000136335
0.000256993
0.000109228
5.60657e-05
5.88405e-05
7.11938e-05
8.8682e-05
0.000106189
0.000118648
0.000122285
0.000115317
9.8533e-05
7.58438e-05
5.50444e-05
4.70164e-05
4.88707e-05
5.25098e-05
5.84025e-05
6.88104e-05
8.97553e-05
0.00013669
0.000258666
0.000108606
5.60969e-05
5.87258e-05
7.09451e-05
8.84614e-05
0.000106214
0.000119112
0.000123317
0.000116951
0.000100685
7.82469e-05
5.69972e-05
4.72004e-05
4.83335e-05
5.19509e-05
5.79086e-05
6.84831e-05
8.98431e-05
0.000137385
0.000260321
0.000108033
5.61206e-05
5.856e-05
7.0595e-05
8.81145e-05
0.00010613
0.00011953
0.0001244
0.000118748
0.000103103
8.09967e-05
5.93767e-05
4.78833e-05
4.7997e-05
5.15294e-05
5.75872e-05
6.8447e-05
9.04208e-05
0.000138559
0.000261953
0.000107516
5.61396e-05
5.83399e-05
7.01317e-05
8.76197e-05
0.000105912
0.00011988
0.000125524
0.000120719
0.000105825
8.41583e-05
6.22813e-05
4.92531e-05
4.80783e-05
5.14332e-05
5.76266e-05
6.89013e-05
9.16462e-05
0.000140318
0.000263556
0.000107062
5.6157e-05
5.80646e-05
6.95428e-05
8.69511e-05
0.000105528
0.000120132
0.000126673
0.000122871
0.000108889
8.77996e-05
6.5804e-05
5.14475e-05
4.88315e-05
5.19008e-05
5.82483e-05
7.00483e-05
9.36447e-05
0.000142732
0.000265124
0.000106678
5.6175e-05
5.77325e-05
6.88138e-05
8.60804e-05
0.000104938
0.000120249
0.000127822
0.000125203
0.000112322
9.19838e-05
7.00342e-05
5.45798e-05
5.04962e-05
5.31842e-05
5.96793e-05
7.20681e-05
9.65015e-05
0.000145834
0.00026665
0.000106371
5.61968e-05
5.73438e-05
6.79325e-05
8.49769e-05
0.000104099
0.000120182
0.00012893
0.000127694
0.000116138
9.67612e-05
7.50547e-05
5.87466e-05
5.32675e-05
5.5511e-05
6.21218e-05
7.50971e-05
0.000100259
0.000149622
0.000268126
0.000106146
5.62248e-05
5.69013e-05
6.68904e-05
8.36105e-05
0.000102964
0.000119872
0.000129941
0.000130303
0.000120327
0.000102167
8.09359e-05
6.40176e-05
5.72854e-05
5.90615e-05
6.57307e-05
7.9219e-05
0.000104923
0.000154063
0.000269545
0.000106006
5.62633e-05
5.64137e-05
6.56878e-05
8.1955e-05
0.000101477
0.000119247
0.000130773
0.00013296
0.00012485
0.000108211
8.77354e-05
7.04499e-05
6.26316e-05
6.395e-05
7.05989e-05
8.44616e-05
0.000110463
0.000159101
0.000270894
0.000105957
5.63198e-05
5.58956e-05
6.43342e-05
7.99899e-05
9.95814e-05
0.000118216
0.000131318
0.000135558
0.000129625
0.000114856
9.54864e-05
7.80983e-05
6.9308e-05
7.02217e-05
7.67522e-05
9.07999e-05
0.000116822
0.00016466
0.000272161
0.000106008
5.64037e-05
5.5368e-05
6.28506e-05
7.77023e-05