/*--------------------------------*- C++ -*----------------------------------*\
  =========                 |
  \\      /  F ield         | OpenFOAM: The Open Source CFD Toolbox
   \\    /   O peration     | Website:  https://openfoam.org
    \\  /    A nd           | Version:  8
     \\/     M anipulation  |
\*---------------------------------------------------------------------------*/
FoamFile
{
    version     2.0;
    format      ascii;
    class       volScalarField;
    location    "800";
    object      p;
}
// * * * * * * * * * * * * * * * * * * * * * * * * * * * * * * * * * * * * * //

dimensions      [1 -1 -2 0 0 0 0];

internalField   nonuniform List<scalar> 
8400
(
42390.5
83905.6
125368
165081
202848
238474
271894
303135
332288
359495
384939
408811
431272
452457
472520
491637
509967
527617
544661
561175
577209
592798
607992
622885
637584
652190
666762
681315
695846
710370
724906
739473
754116
768900
783909
799259
815065
831468
848665
866844
886267
907314
930438
956365
986033
1.02045e+06
1.06101e+06
1.11217e+06
1.18565e+06
1.28947e+06
38631.2
79270.5
120865
160937
199017
234854
268387
299656
328770
355897
381237
404979
427277
448282
468177
487139
505302
522766
539621
555941
571764
587118
602068
616710
631151
645472
659707
673857
687936
701972
715976
729965
743995
758113
772373
786881
801721
816967
832790
849333
866757
885326
905306
927147
951392
978529
1.00921e+06
1.0453e+06
1.09155e+06
1.15234e+06
46161.7
90152
133214
173904
212192
247991
281329
312308
341082
367857
392853
416270
438282
459068
478812
497670
515771
533226
550135
566555
582518
598071
613289
628271
643106
657843
672500
687098
701672
716255
730879
745577
760392
775388
790627
806197
822203
838733
855942
874016
893118
913508
935494
959466
985900
1.01526e+06
1.04813e+06
1.08533e+06
1.12795e+06
1.17572e+06
37956.8
80813
124442
165961
204847
240956
274352
305194
333696
360115
384707
407696
429284
449658
468993
487435
505118
522159
538646
554630
570150
585261
600041
614569
628897
643046
657036
670903
684688
698428
712163
725913
739711
753619
767662
781882
796373
811187
826426
842261
858796
876222
894811
914853
936689
960719
987512
1.01756e+06
1.05113e+06
1.08844e+06
48048
96037.3
141988
184507
223703
259702
292729
323057
350990
376844
400910
423436
444635
464696
483786
502052
519626
536621
553117
569170
584827
600152
615217
630075
644746
659243
673594
687843
702037
716220
730425
744685
759041
773523
788156
802982
818063
833450
849227
865517
882425
900084
918663
938340
959279
981685
1.00584e+06
1.03186e+06
1.05969e+06
1.08938e+06
40011.3
87787.5
134831
178287
217922
253929
286669
316541
343943
369248
392770
414773
435478
455075
473725
491569
508738
525340
541452
557128
572429
587426
602172
616693
631001
645112
659058
672886
686647
700369
714084
727839
741657
755551
769561
783714
798056
812664
827613
843009
858970
875627
893108
911540
931073
951867
974066
997637
1.02235e+06
1.04843e+06
48859.6
102352
151854
196120
235711
271234
303294
332435
359136
383800
406752
428260
448544
467787
486148
503765
520762
537235
553256
568886
584190
599227
614026
628602
642970
657151
671176
685084
698910
712680
726428
740189
753981
767827
781750
795772
809952
824350
839028
854074
869574
885624
902319
919723
937973
957184
977418
998708
1.02083e+06
1.04396e+06
44039.8
99464
150316
194960
234275
269209
300580
329043
355119
379219
401666
422721
442601
461488
479540
496895
513663
529931
545774
561260
576446
591372
606065
620545
634832
648947
662917
676765
690516
704199
717845
731478
745128
758823
772586
786459
800506
814781
829339
844281
859686
875603
892135
909332
927282
946076
965729
986301
1.00763e+06
1.02979e+06
50499
111263
162956
207102
245556
279627
310243
338079
363642
387315
409399
430142
449757
468425
486301
503508
520148
536302
552047
567441
582530
597353
611944
626330
640526
654548
668415
682149
695771
709309
722789
736235
749675
763144
776676
790308
804096
818100
832379
847011
862072
877621
893726
910465
927900
946115
965155
985061
1.00575e+06
1.0272e+06
50195.9
113205
164029
207301
245005
278452
308569
336014
361262
384677
406543
427101
446559
465100
482871
499992
516566
532674
548382
563740
578797
593599
608185
622577
636789
650836
664735
678512
692188
705789
719339
732865
746392
759960
773601
787346
801249
815369
829769
844520
859689
875345
891550
908362
925877
944156
963252
983194
1.00394e+06
1.02547e+06
48666.1
112073
164379
208236
246294
280080
310484
338152
363579
387142
409137
429815
449390
468038
485901
503102
519749
535925
551694
567110
582222
597074
611699
626118
640343
654394
668291
682058
695716
709285
722789
736256
749715
763204
776758
790410
804223
818257
832570
847240
862333
877902
894036
910791
928261
946501
965566
985502
1.00631e+06
1.02792e+06
26847.8
95544.1
152985
198815
237731
272155
303018
330951
356507
380124
402140
422831
442417
461072
478937
496138
512785
528966
544758
560217
575385
590299
604988
619469
633760
647884
661857
675698
689423
703046
716595
730110
743622
757165
770786
784528
798450
812611
827057
841874
857119
872847
889144
906065
923694
942095
961306
981370
1.00226e+06
1.02381e+06
30023.2
91026.3
151120
200057
240705
276441
308465
337327
363579
387717
410141
431160
451012
469873
487885
505174
521863
538060
553854
569298
584440
599327
613993
628464
642762
656904
670897
684751
698472
712069
725567
739019
752459
765918
779455
793126
806989
821080
835463
850261
865459
881136
897365
914208
931723
949957
968919
988607
1.00896e+06
1.02972e+06
-11900.8
53256.1
117680
169255
211483
248472
281681
311582
338682
363537
386622
408288
428778
448257
466846
484672
501861
518525
534740
550564
566063
581300
596326
611184
625899
640482
654944
669281
683489
697563
711514
725383
739213
753057
766961
780934
795057
809406
824010
838983
854320
870077
886346
903187
920619
938641
957225
976312
995830
1.01546e+06
21840.1
70673.8
135733
191286
235826
274122
308198
338527
365619
390146
412723
433792
453639
472455
490389
507580
524153
540193
555758
570907
585709
600238
614564
628744
642823
656839
670820
684764
698654
712477
726235
739964
753703
767471
781278
795133
809120
823332
837806
852520
867558
882989
898863
915199
931973
949150
966611
984145
1.00148e+06
1.0179e+06
-61718.1
4193.24
75870.7
133549
179992
220563
257126
289856
319110
345563
369870
392521
413854
434127
453548
472287
490457
508107
525249
541897
558081
573842
589235
604329
619205
633947
648618
663243
677808
692321
706804
721284
735778
750264
764758
779324
793994
808770
823748
838928
854344
870067
886115
902475
919091
935866
952542
968736
983992
997790
21666.8
60952.2
128492
186351
231675
270777
305783
336699
363783
387699
409149
428730
446945
464225
480938
497370
513680
529904
546004
561907
577523
592789
607688
622242
636525
650633
664645
678599
692525
706476
720464
734458
748492
762599
776747
790980
805323
819816
834491
849411
864551
879968
895671
911627
927725
943764
959272
973438
984752
989901
-121693
-30651.4
57190.7
120433
171473
217032
258006
294104
325505
352787
376640
397763
416832
434503
451399
468041
484747
501642
518705
535783
552700
569332
585599
601477
617012
632285
647359
662282
677110
691887
706600
721254
735892
750507
765077
779637
794172
808776
823435
838205
853081
868142
883461
899031
914779
930564
945897
959732
969961
974563
10664.3
51437.4
97833.9
142943
187337
230745
271481
308114
340078
367507
390920
411013
428549
444333
459172
473829
488770
504194
520120
536340
552624
568829
584880
600744
616436
632005
647481
662869
678181
693430
708576
723620
738637
753604
768524
783420
798295
813179
828136
843264
858675
874560
891199
908866
927848
948505
971071
995178
1.01793e+06
1.03253e+06
56047.8
104113
135135
170349
209079
248999
287688
323202
354474
381274
403946
423142
439659
454356
468088
481674
495791
510639
526069
541867
557795
573703
589522
605235
620870
636465
652034
667551
682996
698358
713603
728717
743734
758623
773361
787909
802263
816371
830197
843734
856985
869954
882646
895042
907057
918491
928963
937898
943724
940836
7.148e+06
7.14749e+06
7.14723e+06
7.14713e+06
7.14707e+06
7.14701e+06
7.14697e+06
7.14693e+06
7.14688e+06
7.14684e+06
7.1468e+06
7.14676e+06
7.14671e+06
7.14667e+06
7.14664e+06
7.1466e+06
7.14657e+06
7.14654e+06
7.14652e+06
7.1465e+06
7.14648e+06
7.14645e+06
7.14643e+06
7.1464e+06
7.14637e+06
7.14634e+06
7.1463e+06
7.14626e+06
7.14622e+06
7.14618e+06
7.14613e+06
7.14607e+06
7.14602e+06
7.14595e+06
7.14588e+06
7.14581e+06
7.14572e+06
7.14562e+06
7.14552e+06
7.1454e+06
7.14528e+06
7.14516e+06
7.14502e+06
7.14488e+06
7.14474e+06
7.14459e+06
7.14443e+06
7.14426e+06
7.14406e+06
7.14383e+06
7.1463e+06
7.14659e+06
7.14668e+06
7.14671e+06
7.14672e+06
7.14673e+06
7.14672e+06
7.14671e+06
7.14669e+06
7.14666e+06
7.14663e+06
7.1466e+06
7.14656e+06
7.14653e+06
7.1465e+06
7.14647e+06
7.14644e+06
7.14642e+06
7.1464e+06
7.14638e+06
7.14636e+06
7.14634e+06
7.14631e+06
7.14629e+06
7.14626e+06
7.14623e+06
7.14619e+06
7.14615e+06
7.14611e+06
7.14607e+06
7.14602e+06
7.14597e+06
7.14591e+06
7.14585e+06
7.14578e+06
7.1457e+06
7.14562e+06
7.14552e+06
7.14541e+06
7.1453e+06
7.14518e+06
7.14505e+06
7.14492e+06
7.14479e+06
7.14465e+06
7.1445e+06
7.14434e+06
7.14417e+06
7.14398e+06
7.14378e+06
7.14666e+06
7.14679e+06
7.14686e+06
7.14686e+06
7.14684e+06
7.14682e+06
7.14679e+06
7.14675e+06
7.14671e+06
7.14667e+06
7.14663e+06
7.14658e+06
7.14654e+06
7.1465e+06
7.14646e+06
7.14643e+06
7.1464e+06
7.14637e+06
7.14634e+06
7.14632e+06
7.1463e+06
7.14628e+06
7.14625e+06
7.14622e+06
7.14619e+06
7.14615e+06
7.14612e+06
7.14607e+06
7.14603e+06
7.14598e+06
7.14593e+06
7.14588e+06
7.14583e+06
7.14576e+06
7.14569e+06
7.14562e+06
7.14553e+06
7.14544e+06
7.14533e+06
7.14522e+06
7.1451e+06
7.14498e+06
7.14485e+06
7.14471e+06
7.14457e+06
7.14443e+06
7.14428e+06
7.14412e+06
7.14394e+06
7.14375e+06
7.14657e+06
7.1466e+06
7.14661e+06
7.1466e+06
7.14658e+06
7.14657e+06
7.14655e+06
7.14653e+06
7.1465e+06
7.14647e+06
7.14644e+06
7.1464e+06
7.14637e+06
7.14634e+06
7.1463e+06
7.14628e+06
7.14625e+06
7.14623e+06
7.14621e+06
7.14619e+06
7.14617e+06
7.14615e+06
7.14612e+06
7.14609e+06
7.14606e+06
7.14603e+06
7.14599e+06
7.14595e+06
7.1459e+06
7.14586e+06
7.14581e+06
7.14576e+06
7.1457e+06
7.14564e+06
7.14558e+06
7.1455e+06
7.14542e+06
7.14533e+06
7.14522e+06
7.14512e+06
7.145e+06
7.14488e+06
7.14475e+06
7.14462e+06
7.14449e+06
7.14435e+06
7.1442e+06
7.14405e+06
7.14389e+06
7.14371e+06
7.1465e+06
7.14651e+06
7.14653e+06
7.14654e+06
7.14654e+06
7.14654e+06
7.14653e+06
7.14651e+06
7.14648e+06
7.14645e+06
7.14642e+06
7.14638e+06
7.14634e+06
7.14631e+06
7.14627e+06
7.14624e+06
7.14621e+06
7.14619e+06
7.14617e+06
7.14614e+06
7.14612e+06
7.14609e+06
7.14606e+06
7.14603e+06
7.146e+06
7.14596e+06
7.14592e+06
7.14587e+06
7.14583e+06
7.14578e+06
7.14573e+06
7.14568e+06
7.14562e+06
7.14556e+06
7.14549e+06
7.14542e+06
7.14534e+06
7.14525e+06
7.14515e+06
7.14504e+06
7.14493e+06
7.14481e+06
7.14469e+06
7.14456e+06
7.14443e+06
7.1443e+06
7.14416e+06
7.14401e+06
7.14386e+06
7.1437e+06
7.1464e+06
7.14641e+06
7.14641e+06
7.14641e+06
7.14641e+06
7.1464e+06
7.14638e+06
7.14636e+06
7.14633e+06
7.1463e+06
7.14627e+06
7.14624e+06
7.1462e+06
7.14617e+06
7.14614e+06
7.14611e+06
7.14609e+06
7.14606e+06
7.14604e+06
7.14602e+06
7.14599e+06
7.14597e+06
7.14594e+06
7.14591e+06
7.14587e+06
7.14583e+06
7.14579e+06
7.14574e+06
7.1457e+06
7.14565e+06
7.1456e+06
7.14555e+06
7.1455e+06
7.14544e+06
7.14537e+06
7.1453e+06
7.14522e+06
7.14514e+06
7.14504e+06
7.14494e+06
7.14483e+06
7.14472e+06
7.1446e+06
7.14448e+06
7.14436e+06
7.14423e+06
7.1441e+06
7.14396e+06
7.14382e+06
7.14367e+06
7.1463e+06
7.1463e+06
7.1463e+06
7.14631e+06
7.14631e+06
7.1463e+06
7.14629e+06
7.14628e+06
7.14626e+06
7.14623e+06
7.14621e+06
7.14618e+06
7.14614e+06
7.14611e+06
7.14609e+06
7.14606e+06
7.14603e+06
7.14601e+06
7.14598e+06
7.14596e+06
7.14593e+06
7.1459e+06
7.14587e+06
7.14584e+06
7.1458e+06
7.14575e+06
7.14571e+06
7.14566e+06
7.14561e+06
7.14556e+06
7.14551e+06
7.14546e+06
7.14541e+06
7.14535e+06
7.14529e+06
7.14522e+06
7.14514e+06
7.14506e+06
7.14497e+06
7.14487e+06
7.14476e+06
7.14465e+06
7.14454e+06
7.14442e+06
7.14431e+06
7.14418e+06
7.14406e+06
7.14393e+06
7.14379e+06
7.14365e+06
7.14619e+06
7.14619e+06
7.14619e+06
7.1462e+06
7.14619e+06
7.14619e+06
7.14618e+06
7.14617e+06
7.14615e+06
7.14612e+06
7.1461e+06
7.14607e+06
7.14604e+06
7.14601e+06
7.14598e+06
7.14596e+06
7.14593e+06
7.14591e+06
7.14588e+06
7.14585e+06
7.14582e+06
7.14579e+06
7.14576e+06
7.14572e+06
7.14568e+06
7.14563e+06
7.14559e+06
7.14554e+06
7.14549e+06
7.14544e+06
7.14539e+06
7.14534e+06
7.14528e+06
7.14523e+06
7.14517e+06
7.1451e+06
7.14503e+06
7.14495e+06
7.14486e+06
7.14477e+06
7.14467e+06
7.14457e+06
7.14446e+06
7.14435e+06
7.14424e+06
7.14412e+06
7.144e+06
7.14388e+06
7.14376e+06
7.14363e+06
7.14608e+06
7.14608e+06
7.14608e+06
7.14609e+06
7.14609e+06
7.14608e+06
7.14608e+06
7.14607e+06
7.14605e+06
7.14603e+06
7.14601e+06
7.14599e+06
7.14596e+06
7.14594e+06
7.14591e+06
7.14588e+06
7.14586e+06
7.14584e+06
7.14581e+06
7.14578e+06
7.14575e+06
7.14571e+06
7.14568e+06
7.14564e+06
7.14559e+06
7.14554e+06
7.1455e+06
7.14545e+06
7.1454e+06
7.14534e+06
7.14529e+06
7.14524e+06
7.14519e+06
7.14513e+06
7.14507e+06
7.14501e+06
7.14494e+06
7.14486e+06
7.14478e+06
7.14469e+06
7.1446e+06
7.1445e+06
7.1444e+06
7.14429e+06
7.14419e+06
7.14408e+06
7.14397e+06
7.14385e+06
7.14373e+06
7.14361e+06
7.14597e+06
7.14597e+06
7.14597e+06
7.14598e+06
7.14598e+06
7.14598e+06
7.14597e+06
7.14597e+06
7.14595e+06
7.14594e+06
7.14592e+06
7.14589e+06
7.14587e+06
7.14585e+06
7.14582e+06
7.1458e+06
7.14577e+06
7.14575e+06
7.14572e+06
7.14569e+06
7.14565e+06
7.14562e+06
7.14557e+06
7.14553e+06
7.14548e+06
7.14544e+06
7.14539e+06
7.14533e+06
7.14528e+06
7.14523e+06
7.14518e+06
7.14513e+06
7.14507e+06
7.14502e+06
7.14496e+06
7.1449e+06
7.14483e+06
7.14476e+06
7.14468e+06
7.1446e+06
7.14451e+06
7.14442e+06
7.14432e+06
7.14423e+06
7.14413e+06
7.14402e+06
7.14392e+06
7.14381e+06
7.1437e+06
7.14358e+06
7.14586e+06
7.14586e+06
7.14586e+06
7.14587e+06
7.14587e+06
7.14587e+06
7.14587e+06
7.14587e+06
7.14586e+06
7.14584e+06
7.14583e+06
7.14581e+06
7.14579e+06
7.14576e+06
7.14574e+06
7.14572e+06
7.14569e+06
7.14567e+06
7.14563e+06
7.1456e+06
7.14556e+06
7.14552e+06
7.14548e+06
7.14543e+06
7.14538e+06
7.14533e+06
7.14528e+06
7.14523e+06
7.14518e+06
7.14512e+06
7.14507e+06
7.14502e+06
7.14496e+06
7.14491e+06
7.14485e+06
7.14479e+06
7.14473e+06
7.14466e+06
7.14459e+06
7.14451e+06
7.14443e+06
7.14435e+06
7.14426e+06
7.14416e+06
7.14407e+06
7.14397e+06
7.14387e+06
7.14377e+06
7.14367e+06
7.14356e+06
7.14574e+06
7.14575e+06
7.14575e+06
7.14576e+06
7.14576e+06
7.14577e+06
7.14577e+06
7.14577e+06
7.14576e+06
7.14575e+06
7.14574e+06
7.14572e+06
7.1457e+06
7.14569e+06
7.14566e+06
7.14564e+06
7.14562e+06
7.14559e+06
7.14555e+06
7.14552e+06
7.14548e+06
7.14543e+06
7.14539e+06
7.14534e+06
7.14529e+06
7.14524e+06
7.14518e+06
7.14513e+06
7.14508e+06
7.14502e+06
7.14497e+06
7.14491e+06
7.14486e+06
7.14481e+06
7.14475e+06
7.14469e+06
7.14463e+06
7.14457e+06
7.1445e+06
7.14443e+06
7.14435e+06
7.14427e+06
7.14419e+06
7.1441e+06
7.14401e+06
7.14392e+06
7.14383e+06
7.14374e+06
7.14364e+06
7.14354e+06
7.14563e+06
7.14564e+06
7.14564e+06
7.14565e+06
7.14566e+06
7.14566e+06
7.14567e+06
7.14567e+06
7.14566e+06
7.14565e+06
7.14564e+06
7.14563e+06
7.14561e+06
7.14559e+06
7.14557e+06
7.14555e+06
7.14552e+06
7.14549e+06
7.14546e+06
7.14542e+06
7.14537e+06
7.14533e+06
7.14528e+06
7.14523e+06
7.14517e+06
7.14512e+06
7.14507e+06
7.14501e+06
7.14496e+06
7.1449e+06
7.14485e+06
7.1448e+06
7.14474e+06
7.14469e+06
7.14463e+06
7.14458e+06
7.14452e+06
7.14446e+06
7.1444e+06
7.14434e+06
7.14426e+06
7.14419e+06
7.14411e+06
7.14403e+06
7.14395e+06
7.14387e+06
7.14378e+06
7.14369e+06
7.1436e+06
7.14351e+06
7.14552e+06
7.14553e+06
7.14553e+06
7.14555e+06
7.14556e+06
7.14557e+06
7.14557e+06
7.14558e+06
7.14558e+06
7.14557e+06
7.14556e+06
7.14556e+06
7.14554e+06
7.14553e+06
7.14551e+06
7.14549e+06
7.14546e+06
7.14542e+06
7.14539e+06
7.14534e+06
7.1453e+06
7.14525e+06
7.1452e+06
7.14515e+06
7.14509e+06
7.14504e+06
7.14498e+06
7.14493e+06
7.14487e+06
7.14481e+06
7.14476e+06
7.1447e+06
7.14465e+06
7.14459e+06
7.14454e+06
7.14449e+06
7.14443e+06
7.14438e+06
7.14432e+06
7.14426e+06
7.14419e+06
7.14412e+06
7.14405e+06
7.14397e+06
7.1439e+06
7.14382e+06
7.14374e+06
7.14366e+06
7.14357e+06
7.14349e+06
7.14541e+06
7.14542e+06
7.14543e+06
7.14544e+06
7.14545e+06
7.14545e+06
7.14546e+06
7.14546e+06
7.14546e+06
7.14545e+06
7.14545e+06
7.14544e+06
7.14543e+06
7.14541e+06
7.14539e+06
7.14537e+06
7.14534e+06
7.14531e+06
7.14527e+06
7.14522e+06
7.14517e+06
7.14512e+06
7.14507e+06
7.14502e+06
7.14497e+06
7.14491e+06
7.14486e+06
7.1448e+06
7.14475e+06
7.14469e+06
7.14463e+06
7.14458e+06
7.14452e+06
7.14447e+06
7.14442e+06
7.14437e+06
7.14432e+06
7.14426e+06
7.14421e+06
7.14415e+06
7.14409e+06
7.14403e+06
7.14396e+06
7.14389e+06
7.14382e+06
7.14375e+06
7.14368e+06
7.1436e+06
7.14353e+06
7.14345e+06
7.14529e+06
7.14531e+06
7.14533e+06
7.14536e+06
7.14537e+06
7.14539e+06
7.1454e+06
7.14541e+06
7.14541e+06
7.14541e+06
7.1454e+06
7.1454e+06
7.14539e+06
7.14537e+06
7.14535e+06
7.14533e+06
7.14529e+06
7.14526e+06
7.14521e+06
7.14516e+06
7.14511e+06
7.14506e+06
7.14501e+06
7.14495e+06
7.14489e+06
7.14484e+06
7.14478e+06
7.14473e+06
7.14467e+06
7.14461e+06
7.14455e+06
7.14449e+06
7.14444e+06
7.14438e+06
7.14433e+06
7.14428e+06
7.14423e+06
7.14418e+06
7.14413e+06
7.14408e+06
7.14402e+06
7.14396e+06
7.1439e+06
7.14383e+06
7.14377e+06
7.1437e+06
7.14363e+06
7.14357e+06
7.1435e+06
7.14343e+06
7.14515e+06
7.14518e+06
7.1452e+06
7.1452e+06
7.14521e+06
7.14521e+06
7.14522e+06
7.14523e+06
7.14523e+06
7.14524e+06
7.14524e+06
7.14524e+06
7.14523e+06
7.14522e+06
7.1452e+06
7.14518e+06
7.14515e+06
7.14511e+06
7.14507e+06
7.14503e+06
7.14498e+06
7.14492e+06
7.14487e+06
7.14482e+06
7.14476e+06
7.14471e+06
7.14465e+06
7.1446e+06
7.14454e+06
7.14448e+06
7.14442e+06
7.14437e+06
7.14431e+06
7.14426e+06
7.14421e+06
7.14416e+06
7.14411e+06
7.14407e+06
7.14402e+06
7.14397e+06
7.14392e+06
7.14386e+06
7.1438e+06
7.14374e+06
7.14368e+06
7.14362e+06
7.14356e+06
7.1435e+06
7.14344e+06
7.14338e+06
7.14503e+06
7.14517e+06
7.14525e+06
7.14526e+06
7.14526e+06
7.14526e+06
7.14526e+06
7.14526e+06
7.14525e+06
7.14525e+06
7.14524e+06
7.14523e+06
7.14522e+06
7.1452e+06
7.14518e+06
7.14515e+06
7.14511e+06
7.14507e+06
7.14502e+06
7.14497e+06
7.14492e+06
7.14486e+06
7.14481e+06
7.14475e+06
7.14469e+06
7.14464e+06
7.14458e+06
7.14452e+06
7.14446e+06
7.1444e+06
7.14434e+06
7.14428e+06
7.14423e+06
7.14418e+06
7.14412e+06
7.14408e+06
7.14403e+06
7.14398e+06
7.14394e+06
7.14389e+06
7.14384e+06
7.14379e+06
7.14373e+06
7.14367e+06
7.14362e+06
7.14356e+06
7.1435e+06
7.14345e+06
7.14339e+06
7.14334e+06
7.14448e+06
7.14476e+06
7.14486e+06
7.14491e+06
7.14495e+06
7.14498e+06
7.145e+06
7.14502e+06
7.14503e+06
7.14504e+06
7.14505e+06
7.14505e+06
7.14505e+06
7.14504e+06
7.14502e+06
7.145e+06
7.14496e+06
7.14493e+06
7.14488e+06
7.14484e+06
7.14478e+06
7.14473e+06
7.14468e+06
7.14462e+06
7.14457e+06
7.14451e+06
7.14446e+06
7.1444e+06
7.14434e+06
7.14428e+06
7.14423e+06
7.14417e+06
7.14411e+06
7.14406e+06
7.14401e+06
7.14396e+06
7.14392e+06
7.14387e+06
7.14383e+06
7.14378e+06
7.14373e+06
7.14368e+06
7.14363e+06
7.14358e+06
7.14352e+06
7.14347e+06
7.14342e+06
7.14337e+06
7.14332e+06
7.14328e+06
7.14598e+06
7.14547e+06
7.14522e+06
7.14513e+06
7.14509e+06
7.14506e+06
7.14505e+06
7.14504e+06
7.14503e+06
7.14503e+06
7.14502e+06
7.14501e+06
7.145e+06
7.14498e+06
7.14496e+06
7.14493e+06
7.1449e+06
7.14486e+06
7.14481e+06
7.14476e+06
7.14471e+06
7.14466e+06
7.1446e+06
7.14455e+06
7.14449e+06
7.14443e+06
7.14438e+06
7.14432e+06
7.14426e+06
7.1442e+06
7.14414e+06
7.14408e+06
7.14403e+06
7.14397e+06
7.14392e+06
7.14388e+06
7.14383e+06
7.14379e+06
7.14374e+06
7.14369e+06
7.14365e+06
7.14359e+06
7.14354e+06
7.14349e+06
7.14344e+06
7.14339e+06
7.14333e+06
7.14329e+06
7.14325e+06
7.14322e+06
6.86873e+06
6.87485e+06
6.87586e+06
6.87964e+06
6.88094e+06
6.88299e+06
6.88386e+06
6.88457e+06
6.88462e+06
6.88424e+06
6.88354e+06
6.88287e+06
6.88261e+06
6.88252e+06
6.88219e+06
6.88366e+06
6.8832e+06
6.88901e+06
6.88828e+06
6.90024e+06
6.87042e+06
6.87649e+06
6.87751e+06
6.88124e+06
6.88258e+06
6.88461e+06
6.88554e+06
6.88629e+06
6.88641e+06
6.88611e+06
6.88552e+06
6.88496e+06
6.8847e+06
6.88454e+06
6.88421e+06
6.88567e+06
6.88526e+06
6.89133e+06
6.89095e+06
6.90314e+06
6.8724e+06
6.87842e+06
6.87947e+06
6.88316e+06
6.88454e+06
6.88657e+06
6.88758e+06
6.88839e+06
6.88861e+06
6.88843e+06
6.88801e+06
6.88758e+06
6.88738e+06
6.88722e+06
6.88695e+06
6.8883e+06
6.88764e+06
6.89342e+06
6.89262e+06
6.90449e+06
6.87468e+06
6.88065e+06
6.88173e+06
6.88537e+06
6.8868e+06
6.88883e+06
6.88991e+06
6.8908e+06
6.89114e+06
6.8911e+06
6.89085e+06
6.89056e+06
6.89042e+06
6.89032e+06
6.89015e+06
6.89153e+06
6.89066e+06
6.89582e+06
6.8941e+06
6.90521e+06
6.87725e+06
6.88316e+06
6.88426e+06
6.88785e+06
6.88932e+06
6.89135e+06
6.89249e+06
6.89345e+06
6.8939e+06
6.894e+06
6.89392e+06
6.89374e+06
6.89362e+06
6.89356e+06
6.89347e+06
6.89494e+06
6.89416e+06
6.89926e+06
6.89741e+06
6.90813e+06
6.8801e+06
6.88594e+06
6.88706e+06
6.89058e+06
6.89207e+06
6.89408e+06
6.89527e+06
6.89628e+06
6.89681e+06
6.89703e+06
6.89707e+06
6.89697e+06
6.89687e+06
6.89683e+06
6.89678e+06
6.89834e+06
6.89771e+06
6.90292e+06
6.90127e+06
6.91181e+06
6.88322e+06
6.88898e+06
6.89011e+06
6.89354e+06
6.89504e+06
6.897e+06
6.89821e+06
6.89923e+06
6.89981e+06
6.90011e+06
6.90024e+06
6.90018e+06
6.90009e+06
6.90008e+06
6.90003e+06
6.90162e+06
6.90107e+06
6.90635e+06
6.90495e+06
6.91533e+06
6.88661e+06
6.89228e+06
6.89341e+06
6.89674e+06
6.89822e+06
6.90011e+06
6.90128e+06
6.90227e+06
6.90285e+06
6.90319e+06
6.90335e+06
6.90332e+06
6.90324e+06
6.90326e+06
6.90321e+06
6.90478e+06
6.90424e+06
6.9095e+06
6.90832e+06
6.91853e+06
6.89031e+06
6.89586e+06
6.89698e+06
6.90018e+06
6.90161e+06
6.90338e+06
6.90448e+06
6.90538e+06
6.90592e+06
6.90624e+06
6.9064e+06
6.90636e+06
6.9063e+06
6.90636e+06
6.90631e+06
6.90786e+06
6.90729e+06
6.91247e+06
6.91143e+06
6.92147e+06
6.89431e+06
6.89975e+06
6.90084e+06
6.90387e+06
6.90521e+06
6.90683e+06
6.90781e+06
6.90858e+06
6.90901e+06
6.90926e+06
6.90938e+06
6.90932e+06
6.90927e+06
6.90937e+06
6.90933e+06
6.91087e+06
6.91027e+06
6.91534e+06
6.91442e+06
6.92427e+06
6.89865e+06
6.90395e+06
6.90499e+06
6.90782e+06
6.90904e+06
6.91046e+06
6.91127e+06
6.91186e+06
6.91215e+06
6.91228e+06
6.9123e+06
6.9122e+06
6.91216e+06
6.9123e+06
6.91229e+06
6.91383e+06
6.91323e+06
6.9182e+06
6.91738e+06
6.92705e+06
6.90334e+06
6.90847e+06
6.90944e+06
6.91206e+06
6.91313e+06
6.91432e+06
6.91491e+06
6.91527e+06
6.91536e+06
6.91533e+06
6.91521e+06
6.91504e+06
6.91501e+06
6.91519e+06
6.91521e+06
6.91677e+06
6.9162e+06
6.92111e+06
6.92039e+06
6.92993e+06
6.9084e+06
6.91334e+06
6.91424e+06
6.91662e+06
6.91751e+06
6.91843e+06
6.91877e+06
6.91886e+06
6.91871e+06
6.91845e+06
6.91815e+06
6.91791e+06
6.91788e+06
6.91808e+06
6.91814e+06
6.91973e+06
6.91923e+06
6.92413e+06
6.92353e+06
6.93297e+06
6.91386e+06
6.9186e+06
6.91941e+06
6.92153e+06
6.92222e+06
6.92285e+06
6.9229e+06
6.92268e+06
6.92224e+06
6.92172e+06
6.92121e+06
6.92087e+06
6.92083e+06
6.92104e+06
6.92116e+06
6.92279e+06
6.9224e+06
6.92732e+06
6.92685e+06
6.93623e+06
6.91976e+06
6.92429e+06
6.92499e+06
6.92685e+06
6.92731e+06
6.92763e+06
6.92737e+06
6.92682e+06
6.92605e+06
6.92522e+06
6.92448e+06
6.92401e+06
6.92395e+06
6.92415e+06
6.92435e+06
6.92603e+06
6.92578e+06
6.93078e+06
6.93044e+06
6.9398e+06
6.92614e+06
6.93043e+06
6.93104e+06
6.93262e+06
6.93284e+06
6.93284e+06
6.93225e+06
6.93135e+06
6.93023e+06
6.92908e+06
6.92808e+06
6.92745e+06
6.92733e+06
6.92753e+06
6.92783e+06
6.92956e+06
6.92948e+06
6.9346e+06
6.93439e+06
6.94376e+06
6.93301e+06
6.93707e+06
6.93757e+06
6.93887e+06
6.93885e+06
6.93854e+06
6.93762e+06
6.93637e+06
6.93489e+06
6.93341e+06
6.93214e+06
6.93133e+06
6.93112e+06
6.9313e+06
6.93172e+06
6.9335e+06
6.93365e+06
6.93891e+06
6.93884e+06
6.94822e+06
6.9404e+06
6.9442e+06
6.94459e+06
6.94562e+06
6.94537e+06
6.94476e+06
6.94353e+06
6.94195e+06
6.94013e+06
6.93833e+06
6.93679e+06
6.93577e+06
6.93544e+06
6.93561e+06
6.93618e+06
6.93801e+06
6.93842e+06
6.94384e+06
6.94392e+06
6.9533e+06
6.94829e+06
6.95183e+06
6.95211e+06
6.95289e+06
6.95243e+06
6.95155e+06
6.95005e+06
6.94816e+06
6.94603e+06
6.94394e+06
6.94214e+06
6.9409e+06
6.94043e+06
6.94062e+06
6.94134e+06
6.94322e+06
6.94394e+06
6.94951e+06
6.94975e+06
6.9591e+06
6.95665e+06
6.95993e+06
6.96012e+06
6.96068e+06
6.96005e+06
6.95895e+06
6.9572e+06
6.95505e+06
6.95265e+06
6.9503e+06
6.94827e+06
6.94683e+06
6.94625e+06
6.94647e+06
6.94734e+06
6.94927e+06
6.95034e+06
6.95604e+06
6.95645e+06
6.96571e+06
6.96546e+06
6.96848e+06
6.96859e+06
6.96898e+06
6.96821e+06
6.96693e+06
6.96501e+06
6.96265e+06
6.96005e+06
6.95748e+06
6.95526e+06
6.95365e+06
6.95299e+06
6.95329e+06
6.95429e+06
6.95627e+06
6.95772e+06
6.9635e+06
6.96409e+06
6.97321e+06
6.97465e+06
6.97743e+06
6.9775e+06
6.97774e+06
6.97688e+06
6.97549e+06
6.97345e+06
6.97097e+06
6.96823e+06
6.96553e+06
6.96317e+06
6.96145e+06
6.96075e+06
6.96114e+06
6.96228e+06
6.96431e+06
6.96615e+06
6.97195e+06
6.97272e+06
6.98161e+06
6.98417e+06
6.98671e+06
6.98675e+06
6.98689e+06
6.98599e+06
6.98456e+06
6.98249e+06
6.97998e+06
6.97721e+06
6.97447e+06
6.97206e+06
6.9703e+06
6.96959e+06
6.97009e+06
6.97133e+06
6.97342e+06
6.97564e+06
6.9814e+06
6.98235e+06
6.99091e+06
6.99392e+06
6.99623e+06
6.99626e+06
6.99633e+06
6.99545e+06
6.99404e+06
6.99203e+06
6.9896e+06
6.98692e+06
6.98426e+06
6.98191e+06
6.9802e+06
6.97953e+06
6.98011e+06
6.98142e+06
6.98359e+06
6.98616e+06
6.99179e+06
6.99291e+06
7.00104e+06
7.00377e+06
7.00588e+06
7.00591e+06
7.00596e+06
7.00514e+06
7.00383e+06
7.00197e+06
6.99971e+06
6.99723e+06
6.99477e+06
6.9926e+06
6.99105e+06
6.99047e+06
6.99107e+06
6.99246e+06
6.99474e+06
6.9976e+06
7.00302e+06
7.00427e+06
7.01186e+06
7.01361e+06
7.01552e+06
7.01558e+06
7.01565e+06
7.01495e+06
7.0138e+06
7.01216e+06
7.01016e+06
7.00796e+06
7.00579e+06
7.0039e+06
7.00259e+06
7.00216e+06
7.00283e+06
7.00436e+06
7.00672e+06
7.0098e+06
7.01491e+06
7.01625e+06
7.02321e+06
7.02332e+06
7.02505e+06
7.02515e+06
7.02529e+06
7.02473e+06
7.0238e+06
7.02244e+06
7.02076e+06
7.01892e+06
7.01711e+06
7.01558e+06
7.01458e+06
7.01439e+06
7.01519e+06
7.01687e+06
7.0193e+06
7.0225e+06
7.02721e+06
7.02857e+06
7.03483e+06
7.03278e+06
7.03437e+06
7.03452e+06
7.03473e+06
7.03436e+06
7.03368e+06
7.03263e+06
7.03132e+06
7.02988e+06
7.0285e+06
7.02738e+06
7.02677e+06
7.02687e+06
7.02787e+06
7.0297e+06
7.03216e+06
7.03537e+06
7.03962e+06
7.04095e+06
7.04647e+06
7.0419e+06
7.04335e+06
7.04357e+06
7.04388e+06
7.0437e+06
7.04329e+06
7.04257e+06
7.04166e+06
7.04065e+06
7.03973e+06
7.03907e+06
7.03888e+06
7.03932e+06
7.04052e+06
7.04248e+06
7.04495e+06
7.04807e+06
7.05184e+06
7.05309e+06
7.05785e+06
7.05058e+06
7.05192e+06
7.0522e+06
7.05262e+06
7.05263e+06
7.05248e+06
7.0521e+06
7.05158e+06
7.05102e+06
7.05057e+06
7.05038e+06
7.05062e+06
7.05142e+06
7.05282e+06
7.05487e+06
7.0573e+06
7.06027e+06
7.06355e+06
7.0647e+06
7.06873e+06
7.05875e+06
7.06e+06
7.06033e+06
7.06084e+06
7.06104e+06
7.06114e+06
7.06109e+06
7.06095e+06
7.06081e+06
7.0608e+06
7.06105e+06
7.06169e+06
7.0628e+06
7.06439e+06
7.06647e+06
7.06889e+06
7.07167e+06
7.07451e+06
7.07555e+06
7.07889e+06
7.06635e+06
7.06751e+06
7.06789e+06
7.0685e+06
7.06886e+06
7.0692e+06
7.06944e+06
7.06965e+06
7.06989e+06
7.07026e+06
7.07087e+06
7.07183e+06
7.07319e+06
7.07494e+06
7.07707e+06
7.07951e+06
7.08209e+06
7.08452e+06
7.08546e+06
7.08819e+06
7.07334e+06
7.07442e+06
7.07485e+06
7.07554e+06
7.07605e+06
7.07659e+06
7.07709e+06
7.0776e+06
7.07816e+06
7.07884e+06
7.07974e+06
7.08095e+06
7.0825e+06
7.0844e+06
7.08658e+06
7.08901e+06
7.09138e+06
7.09347e+06
7.09433e+06
7.09652e+06
7.07971e+06
7.08072e+06
7.08119e+06
7.08195e+06
7.08258e+06
7.0833e+06
7.084e+06
7.08475e+06
7.08557e+06
7.08651e+06
7.08764e+06
7.08902e+06
7.09072e+06
7.09274e+06
7.09498e+06
7.09732e+06
7.09949e+06
7.1013e+06
7.1021e+06
7.10384e+06
7.08546e+06
7.08641e+06
7.08691e+06
7.08772e+06
7.08845e+06
7.0893e+06
7.09016e+06
7.09111e+06
7.09212e+06
7.09326e+06
7.09456e+06
7.09608e+06
7.09787e+06
7.09993e+06
7.10216e+06
7.10438e+06
7.10643e+06
7.10802e+06
7.1088e+06
7.11016e+06
7.09061e+06
7.09151e+06
7.09203e+06
7.09287e+06
7.09367e+06
7.09461e+06
7.09559e+06
7.09667e+06
7.09784e+06
7.09913e+06
7.10056e+06
7.10217e+06
7.10401e+06
7.10606e+06
7.10822e+06
7.11032e+06
7.11225e+06
7.11367e+06
7.11446e+06
7.11555e+06
7.09519e+06
7.09604e+06
7.09656e+06
7.09743e+06
7.09827e+06
7.09926e+06
7.10032e+06
7.10149e+06
7.10276e+06
7.10415e+06
7.10567e+06
7.10734e+06
7.10917e+06
7.11116e+06
7.11321e+06
7.11519e+06
7.11696e+06
7.11834e+06
7.11919e+06
7.12008e+06
7.09924e+06
7.10004e+06
7.10055e+06
7.10142e+06
7.10227e+06
7.1033e+06
7.1044e+06
7.10562e+06
7.10695e+06
7.1084e+06
7.10996e+06
7.11165e+06
7.11346e+06
7.11534e+06
7.11723e+06
7.11905e+06
7.12073e+06
7.12215e+06
7.12312e+06
7.12387e+06
7.10278e+06
7.10354e+06
7.10404e+06
7.1049e+06
7.10574e+06
7.10677e+06
7.10788e+06
7.10912e+06
7.11046e+06
7.11193e+06
7.1135e+06
7.11519e+06
7.11696e+06
7.11878e+06
7.12059e+06
7.12233e+06
7.12396e+06
7.12539e+06
7.12646e+06
7.12705e+06
7.10588e+06
7.1066e+06
7.10707e+06
7.10791e+06
7.10873e+06
7.10975e+06
7.11084e+06
7.11206e+06
7.11338e+06
7.11482e+06
7.11636e+06
7.118e+06
7.11972e+06
7.12149e+06
7.12328e+06
7.12505e+06
7.12674e+06
7.12821e+06
7.12922e+06
7.12964e+06
7.10858e+06
7.10925e+06
7.1097e+06
7.11051e+06
7.1113e+06
7.11228e+06
7.11333e+06
7.11451e+06
7.11578e+06
7.11715e+06
7.11861e+06
7.12016e+06
7.12179e+06
7.12346e+06
7.12518e+06
7.1269e+06
7.12857e+06
7.13001e+06
7.13088e+06
7.13105e+06
7.11093e+06
7.11157e+06
7.11198e+06
7.11276e+06
7.1135e+06
7.11443e+06
7.11542e+06
7.11654e+06
7.11773e+06
7.11901e+06
7.12037e+06
7.1218e+06
7.12327e+06
7.12479e+06
7.12633e+06
7.12785e+06
7.12929e+06
7.13049e+06
7.13121e+06
7.13133e+06
7.11297e+06
7.11357e+06
7.11396e+06
7.11469e+06
7.11538e+06
7.11626e+06
7.11718e+06
7.11821e+06
7.11931e+06
7.12049e+06
7.12172e+06
7.123e+06
7.12432e+06
7.12565e+06
7.12697e+06