/*--------------------------------*- C++ -*----------------------------------*\
  =========                 |
  \\      /  F ield         | OpenFOAM: The Open Source CFD Toolbox
   \\    /   O peration     | Website:  https://openfoam.org
    \\  /    A nd           | Version:  8
     \\/     M anipulation  |
\*---------------------------------------------------------------------------*/
FoamFile
{
    version     2.0;
    format      ascii;
    class       volScalarField;
    location    "800";
    object      p_rgh;
}
// * * * * * * * * * * * * * * * * * * * * * * * * * * * * * * * * * * * * * //

dimensions      [1 -1 -2 0 0 0 0];

internalField   nonuniform List<scalar> 
8400
(
29423.2
68190.2
106869
143784
178758
211610
242279
270795
297261
321822
344650
365919
385795
404439
422009
438655
454506
469663
484202
498196
511715
524832
537630
550196
562605
574911
587142
599316
611454
623596
635784
648060
660478
673098
685996
699271
713026
727383
742499
758552
775792
794570
815359
838876
866056
897876
935653
983796
1.0539e+06
1.15391e+06
25692.4
63553.3
102348
139619
174912
207982
238768
267320
293756
318243
340962
362097
381823
400307
417717
434201
449882
464855
479198
492985
506286
519177
531742
544062
556201
568199
580077
591852
603559
615237
626920
638646
650461
662414
674559
686975
699735
712915
726634
741023
756249
772552
790226
809705
831514
856119
884089
917272
960386
1.01775e+06
33400.3
74595.5
114837
152713
188210
221237
251825
280086
306188
330329
352718
373555
393028
411314
428580
444968
460598
475565
489953
503830
517268
530350
543158
555769
568242
580607
592889
605123
617352
629621
641972
654446
667087
679947
693085
706574
720506
734972
750099
766048
782998
801197
820943
842617
866663
893511
923674
957978
997529
1.042e+06
25155
65141.2
105918
144613
180707
214042
244689
272823
298670
322477
344488
364925
383992
401871
418727
434700
449910
464453
478408
491846
504840
517465
529798
541902
553815
565566
577184
588709
600183
611648
623141
634688
646318
658069
669973
682076
694452
707168
720319
734036
748451
763742
780140
797924
817417
838986
863120
890325
920869
954929
35375.1
80468.2
123542
163219
199608
232828
263115
290760
316073
339355
360880
380891
399595
417178
433800
449601
464696
479182
493140
506641
519757
532563
545125
557494
569704
581784
593771
605708
617639
629604
641635
653759
665996
678371
690909
703653
716664
730003
743746
757992
772843
788413
804838
822275
840882
860837
882371
905593
930441
956947
27296.5
72117.6
116244
156832
193642
226867
256883
284099
308910
331668
352673
372180
390402
407524
423705
439080
453764
467853
481427
494556
507312
519762
531964
543958
555778
567458
579033
590548
602043
613551
625101
636720
648420
660214
672134
684219
696523
709110
722054
735443
749373
763947
779274
795471
812664
830987
850572
871370
893105
916006
36248.8
86757.8
133302
174673
211436
244198
273572
300102
324252
346404
366869
385903
403717
420492
436380
451515
466010
479956
493430
506501
519236
531695
543925
555965
567848
579606
591271
602880
614464
626052
637668
649331
661049
672837
684719
696725
708904
721306
733988
747019
760466
774403
788910
804055
819936
836659
854292
872835
892043
912040
31460.8
83801.7
131620
173332
209814
242007
270723
296604
320152
341759
361735
380330
397750
414171
429746
444605
458856
472586
485871
498777
511367
523693
535805
547743
559537
571217
582810
594344
605846
617346
628866
640423
652032
663713
675490
687396
699475
711773
724345
737259
750577
764357
778672
793572
809124
825413
842464
860285
878696
897763
38028.9
95624.9
144259
185488
221138
252502
280493
305766
328809
349993
369609
387894
405048
421243
436628
451328
465442
479054
492233
505042
517538
529778
541809
553671
565390
576988
588487
599914
611295
622658
634024
645411
656837
668323
679894
691577
703410
715438
727713
740301
753264
766662
780552
794995
810052
825789
842257
859462
877300
895741
37752.2
97528.6
145364
185784
220732
251503
279009
303889
326609
347520
366903
384986
401966
418015
433280
447880
461916
475464
488591
501357
513822
526045
538073
549943
561676
573292
584815
596273
607692
619100
630519
641969
653467
665038
676702
688482
700414
712542
724922
737617
750690
764198
778196
792738
807896
823726
840277
857557
875505
894079
35922.4
96085
145641
186763
222143
253308
281137
306267
329186
350262
369786
387994
405089
421244
436604
451290
465398
479008
492186
504996
517500
529757
541811
553696
565432
577042
588551
599988
611380
622751
634122
645515
656949
668447
680033
691729
703574
715618
727915
740531
753526
766953
780874
795346
810445
826225
842725
859965
877937
896561
13999.9
79358.3
134080
177229
213547
245447
273832
299316
322439
343630
363216
381458
398575
414743
430111
444800
458908
472517
485699
498523
511051
523340
535432
547358
559142
570808
582382
593888
605350
616788
628223
639677
651172
662731
674382
686156
698093
710245
722661
735404
748527
762084
776139
790751
805983
821889
838497
855818
873825
892351
16919.5
74351
131631
177870
215998
249358
279090
305697
329693
351558
371671
390331
407777
424203
439767
454593
468786
482436
495628
508434
520924
533159
545187
557045
568765
580373
591894
603352
614769
626156
637531
648917
660335
671810
683376
695073
706946
719038
731402
744109
757187
770694
784688
799224
814347
830085
846433
863357
880784
898437
-24957.3
36261
97678.1
146472
186217
220973
252105
279997
305095
327906
348865
368305
386487
403613
419838
435285
450056
464244
477929
491186
504086
516698
529077
541272
553324
565266
577130
588943
600720
612468
624193
635915
647656
659448
671325
683313
695465
707831
720447
733378
746651
760313
774420
789014
804115
819700
835717
852063
868616
885043
8436.3
53017.7
114810
167396
209404
245567
277794
306436
331887
354716
375453
394513
412211
428791
444439
459297
473481
487082
500177
512836
525129
537122
548876
560446
571883
583238
594558
605874
617201
628545
639910
651316
662787
674348
686021
697828
709814
722032
734514
747276
760367
773829
787696
801973
816632
831580
846657
861602
876064
889294
-75028.3
-13832.9
54226.1
108654
152419
190895
225842
257285
285399
310679
333644
354721
374254
392525
409760
426138
441799
456845
471347
485363
498944
512137
524985
537538
549857
562009
574056
586041
597985
609905
621825
633776
645786
657872
670061
682390
694887
707576
720509
733709
747208
761048
775238
789749
804486
819292
833853
847716
860326
871083
7901.94
42045.6
105442
159501
201727
238540
272030
302067
328693
352331
373474
392562
409983
426084
441168
455498
469276
482648
495708
508506
521061
533375
545450
557299
568956
580469
591888
603246
614570
625894
637251
648660
660159
671780
683530
695439
707531
719839
732403
745272
758467
772023
785940
800169
814551
828825
842472
854567
863487
865791
-134879
-49525.6
33517.5
92230.7
139389
181940
220884
255900
287025
314620
339127
360987
380624
398452
414872
430256
444919
459107
472986
486630
500069
513311
526352
539185
551821
564283
576587
588750
600803
612794
624758
636732
648759
660857
673038
685318
697705
710255
723003
736007
749295
762913
776898
791230
805815
820431
834569
847126
855958
858918
-2436.21
32691.6
74160.3
114308
154115
193665
231547
266471
297866
325729
350342
372092
391386
408645
424295
438771
452449
465646
478575
491317
503933
516482
528987
541446
553856
566216
578507
590710
602837
614937
627049
639206
651457
663831
676351
689030
701881
714952
728326
742108
756410
771380
787248
804228
822561
842528
864319
887621
909659
923659
42546.2
84722.5
110773
141179
175402
211479
247306
281133
311933
339372
363566
384841
403602
420279
435314
449154
462239
474892
487322
499624
511821
523968
536110
548252
560388
572512
584606
596643
608617
620555
632491
644447
656444
668488
680592
692739
704905
717067
729215
741356
753474
765520
777461
789229
800639
811400
821064
829045
833902
830023
6.8082e+06
6.80769e+06
6.80743e+06
6.80734e+06
6.80728e+06
6.80724e+06
6.80721e+06
6.80719e+06
6.80717e+06
6.80716e+06
6.80714e+06
6.80713e+06
6.80712e+06
6.8071e+06
6.80709e+06
6.80708e+06
6.80707e+06
6.80706e+06
6.80706e+06
6.80705e+06
6.80705e+06
6.80704e+06
6.80704e+06
6.80703e+06
6.80703e+06
6.80703e+06
6.80702e+06
6.80701e+06
6.80701e+06
6.807e+06
6.80699e+06
6.80698e+06
6.80697e+06
6.80696e+06
6.80694e+06
6.80692e+06
6.8069e+06
6.80688e+06
6.80685e+06
6.80682e+06
6.80678e+06
6.80674e+06
6.80669e+06
6.80664e+06
6.80658e+06
6.80652e+06
6.80644e+06
6.80636e+06
6.80625e+06
6.80612e+06
6.8066e+06
6.80689e+06
6.80698e+06
6.80701e+06
6.80704e+06
6.80706e+06
6.80707e+06
6.80707e+06
6.80708e+06
6.80708e+06
6.80707e+06
6.80707e+06
6.80706e+06
6.80706e+06
6.80705e+06
6.80704e+06
6.80704e+06
6.80703e+06
6.80703e+06
6.80703e+06
6.80702e+06
6.80702e+06
6.80702e+06
6.80702e+06
6.80701e+06
6.80701e+06
6.80701e+06
6.807e+06
6.80699e+06
6.80699e+06
6.80698e+06
6.80697e+06
6.80696e+06
6.80695e+06
6.80693e+06
6.80692e+06
6.8069e+06
6.80687e+06
6.80684e+06
6.80681e+06
6.80677e+06
6.80673e+06
6.80669e+06
6.80664e+06
6.80658e+06
6.80652e+06
6.80645e+06
6.80637e+06
6.80627e+06
6.80616e+06
6.80706e+06
6.80719e+06
6.80726e+06
6.80727e+06
6.80726e+06
6.80725e+06
6.80723e+06
6.80721e+06
6.8072e+06
6.80718e+06
6.80717e+06
6.80715e+06
6.80714e+06
6.80712e+06
6.80711e+06
6.8071e+06
6.80709e+06
6.80708e+06
6.80707e+06
6.80707e+06
6.80706e+06
6.80705e+06
6.80705e+06
6.80705e+06
6.80704e+06
6.80703e+06
6.80703e+06
6.80702e+06
6.80701e+06
6.80701e+06
6.807e+06
6.80699e+06
6.80698e+06
6.80696e+06
6.80695e+06
6.80693e+06
6.80691e+06
6.80689e+06
6.80686e+06
6.80683e+06
6.80679e+06
6.80675e+06
6.80671e+06
6.80666e+06
6.80661e+06
6.80655e+06
6.80648e+06
6.80641e+06
6.80633e+06
6.80623e+06
6.80707e+06
6.8071e+06
6.80711e+06
6.80711e+06
6.8071e+06
6.80709e+06
6.80709e+06
6.80709e+06
6.80708e+06
6.80708e+06
6.80707e+06
6.80707e+06
6.80706e+06
6.80705e+06
6.80705e+06
6.80704e+06
6.80703e+06
6.80703e+06
6.80703e+06
6.80702e+06
6.80702e+06
6.80702e+06
6.80702e+06
6.80701e+06
6.80701e+06
6.80701e+06
6.807e+06
6.807e+06
6.80699e+06
6.80698e+06
6.80698e+06
6.80697e+06
6.80696e+06
6.80695e+06
6.80693e+06
6.80692e+06
6.8069e+06
6.80688e+06
6.80685e+06
6.80682e+06
6.80679e+06
6.80675e+06
6.80671e+06
6.80667e+06
6.80662e+06
6.80656e+06
6.8065e+06
6.80644e+06
6.80637e+06
6.80629e+06
6.80711e+06
6.80712e+06
6.80714e+06
6.80715e+06
6.80716e+06
6.80717e+06
6.80717e+06
6.80717e+06
6.80716e+06
6.80715e+06
6.80714e+06
6.80714e+06
6.80713e+06
6.80712e+06
6.80711e+06
6.8071e+06
6.80709e+06
6.80708e+06
6.80708e+06
6.80707e+06
6.80706e+06
6.80706e+06
6.80706e+06
6.80705e+06
6.80704e+06
6.80704e+06
6.80703e+06
6.80702e+06
6.80702e+06
6.80701e+06
6.807e+06
6.80699e+06
6.80698e+06
6.80697e+06
6.80696e+06
6.80694e+06
6.80692e+06
6.8069e+06
6.80687e+06
6.80685e+06
6.80681e+06
6.80678e+06
6.80674e+06
6.8067e+06
6.80665e+06
6.80661e+06
6.80655e+06
6.8065e+06
6.80643e+06
6.80637e+06
6.80711e+06
6.80712e+06
6.80713e+06
6.80713e+06
6.80713e+06
6.80713e+06
6.80712e+06
6.80712e+06
6.80711e+06
6.8071e+06
6.80709e+06
6.80709e+06
6.80708e+06
6.80707e+06
6.80706e+06
6.80705e+06
6.80705e+06
6.80704e+06
6.80704e+06
6.80704e+06
6.80703e+06
6.80703e+06
6.80702e+06
6.80702e+06
6.80702e+06
6.80701e+06
6.807e+06
6.807e+06
6.80699e+06
6.80699e+06
6.80698e+06
6.80697e+06
6.80696e+06
6.80695e+06
6.80694e+06
6.80692e+06
6.80691e+06
6.80689e+06
6.80687e+06
6.80684e+06
6.80681e+06
6.80678e+06
6.80675e+06
6.80671e+06
6.80667e+06
6.80663e+06
6.80658e+06
6.80653e+06
6.80648e+06
6.80643e+06
6.80712e+06
6.80712e+06
6.80712e+06
6.80713e+06
6.80713e+06
6.80713e+06
6.80714e+06
6.80713e+06
6.80713e+06
6.80713e+06
6.80712e+06
6.80712e+06
6.80711e+06
6.8071e+06
6.8071e+06
6.80709e+06
6.80708e+06
6.80708e+06
6.80707e+06
6.80707e+06
6.80706e+06
6.80706e+06
6.80705e+06
6.80705e+06
6.80704e+06
6.80704e+06
6.80703e+06
6.80702e+06
6.80701e+06
6.80701e+06
6.807e+06
6.80699e+06
6.80698e+06
6.80697e+06
6.80696e+06
6.80694e+06
6.80693e+06
6.80691e+06
6.80689e+06
6.80687e+06
6.80684e+06
6.80681e+06
6.80678e+06
6.80675e+06
6.80671e+06
6.80668e+06
6.80664e+06
6.8066e+06
6.80655e+06
6.80651e+06
6.80712e+06
6.80712e+06
6.80712e+06
6.80712e+06
6.80713e+06
6.80713e+06
6.80713e+06
6.80712e+06
6.80712e+06
6.80711e+06
6.80711e+06
6.8071e+06
6.80709e+06
6.80709e+06
6.80708e+06
6.80707e+06
6.80707e+06
6.80706e+06
6.80706e+06
6.80705e+06
6.80705e+06
6.80704e+06
6.80704e+06
6.80703e+06
6.80703e+06
6.80702e+06
6.80701e+06
6.80701e+06
6.807e+06
6.80699e+06
6.80698e+06
6.80697e+06
6.80697e+06
6.80696e+06
6.80695e+06
6.80694e+06
6.80692e+06
6.80691e+06
6.80689e+06
6.80687e+06
6.80685e+06
6.80682e+06
6.8068e+06
6.80677e+06
6.80674e+06
6.80671e+06
6.80668e+06
6.80664e+06
6.80661e+06
6.80657e+06
6.80711e+06
6.80712e+06
6.80712e+06
6.80712e+06
6.80712e+06
6.80713e+06
6.80713e+06
6.80712e+06
6.80712e+06
6.80712e+06
6.80711e+06
6.80711e+06
6.8071e+06
6.8071e+06
6.80709e+06
6.80709e+06
6.80708e+06
6.80708e+06
6.80707e+06
6.80707e+06
6.80707e+06
6.80706e+06
6.80705e+06
6.80705e+06
6.80704e+06
6.80703e+06
6.80703e+06
6.80702e+06
6.80701e+06
6.807e+06
6.80699e+06
6.80699e+06
6.80698e+06
6.80697e+06
6.80696e+06
6.80695e+06
6.80694e+06
6.80692e+06
6.80691e+06
6.80689e+06
6.80687e+06
6.80685e+06
6.80683e+06
6.80681e+06
6.80678e+06
6.80676e+06
6.80673e+06
6.8067e+06
6.80668e+06
6.80665e+06
6.80711e+06
6.80711e+06
6.80711e+06
6.80712e+06
6.80712e+06
6.80712e+06
6.80712e+06
6.80712e+06
6.80712e+06
6.80712e+06
6.80711e+06
6.80711e+06
6.8071e+06
6.8071e+06
6.80709e+06
6.80709e+06
6.80708e+06
6.80708e+06
6.80707e+06
6.80707e+06
6.80706e+06
6.80706e+06
6.80705e+06
6.80704e+06
6.80704e+06
6.80703e+06
6.80702e+06
6.80701e+06
6.807e+06
6.807e+06
6.80699e+06
6.80698e+06
6.80697e+06
6.80697e+06
6.80696e+06
6.80695e+06
6.80694e+06
6.80693e+06
6.80691e+06
6.8069e+06
6.80688e+06
6.80687e+06
6.80685e+06
6.80683e+06
6.80681e+06
6.80679e+06
6.80678e+06
6.80676e+06
6.80673e+06
6.80671e+06
6.80711e+06
6.80711e+06
6.80711e+06
6.80711e+06
6.80712e+06
6.80712e+06
6.80712e+06
6.80712e+06
6.80712e+06
6.80712e+06
6.80711e+06
6.80711e+06
6.8071e+06
6.8071e+06
6.8071e+06
6.80709e+06
6.80709e+06
6.80708e+06
6.80708e+06
6.80707e+06
6.80707e+06
6.80706e+06
6.80705e+06
6.80705e+06
6.80704e+06
6.80703e+06
6.80702e+06
6.80701e+06
6.80701e+06
6.807e+06
6.80699e+06
6.80698e+06
6.80697e+06
6.80697e+06
6.80696e+06
6.80695e+06
6.80694e+06
6.80693e+06
6.80692e+06
6.80691e+06
6.8069e+06
6.80689e+06
6.80688e+06
6.80686e+06
6.80685e+06
6.80684e+06
6.80682e+06
6.80681e+06
6.8068e+06
6.80678e+06
6.8071e+06
6.8071e+06
6.80711e+06
6.80711e+06
6.80712e+06
6.80712e+06
6.80712e+06
6.80712e+06
6.80712e+06
6.80712e+06
6.80712e+06
6.80711e+06
6.80711e+06
6.80711e+06
6.8071e+06
6.8071e+06
6.8071e+06
6.80709e+06
6.80709e+06
6.80708e+06
6.80708e+06
6.80707e+06
6.80706e+06
6.80705e+06
6.80705e+06
6.80704e+06
6.80703e+06
6.80702e+06
6.80701e+06
6.807e+06
6.807e+06
6.80699e+06
6.80698e+06
6.80697e+06
6.80697e+06
6.80696e+06
6.80695e+06
6.80695e+06
6.80694e+06
6.80693e+06
6.80692e+06
6.80691e+06
6.8069e+06
6.8069e+06
6.80689e+06
6.80688e+06
6.80687e+06
6.80687e+06
6.80686e+06
6.80685e+06
6.8071e+06
6.8071e+06
6.8071e+06
6.80711e+06
6.80711e+06
6.80712e+06
6.80712e+06
6.80712e+06
6.80712e+06
6.80711e+06
6.80711e+06
6.80711e+06
6.80711e+06
6.8071e+06
6.8071e+06
6.80709e+06
6.80709e+06
6.80709e+06
6.80708e+06
6.80707e+06
6.80707e+06
6.80706e+06
6.80705e+06
6.80704e+06
6.80703e+06
6.80703e+06
6.80702e+06
6.80701e+06
6.807e+06
6.80699e+06
6.80698e+06
6.80698e+06
6.80697e+06
6.80696e+06
6.80696e+06
6.80695e+06
6.80695e+06
6.80695e+06
6.80694e+06
6.80694e+06
6.80693e+06
6.80693e+06
6.80692e+06
6.80692e+06
6.80692e+06
6.80691e+06
6.80691e+06
6.80691e+06
6.80691e+06
6.80691e+06
6.80709e+06
6.80709e+06
6.8071e+06
6.80711e+06
6.80711e+06
6.80712e+06
6.80712e+06
6.80713e+06
6.80713e+06
6.80713e+06
6.80713e+06
6.80713e+06
6.80713e+06
6.80712e+06
6.80712e+06
6.80712e+06
6.80712e+06
6.80711e+06
6.8071e+06
6.8071e+06
6.80709e+06
6.80708e+06
6.80707e+06
6.80706e+06
6.80706e+06
6.80705e+06
6.80704e+06
6.80703e+06
6.80702e+06
6.80701e+06
6.807e+06
6.80699e+06
6.80699e+06
6.80698e+06
6.80697e+06
6.80697e+06
6.80697e+06
6.80696e+06
6.80696e+06
6.80696e+06
6.80696e+06
6.80696e+06
6.80695e+06
6.80696e+06
6.80696e+06
6.80696e+06
6.80696e+06
6.80697e+06
6.80698e+06
6.80698e+06
6.80708e+06
6.80709e+06
6.8071e+06
6.8071e+06
6.80711e+06
6.80711e+06
6.80711e+06
6.80711e+06
6.80711e+06
6.8071e+06
6.8071e+06
6.8071e+06
6.8071e+06
6.8071e+06
6.80709e+06
6.80709e+06
6.80709e+06
6.80708e+06
6.80708e+06
6.80707e+06
6.80706e+06
6.80706e+06
6.80705e+06
6.80704e+06
6.80703e+06
6.80702e+06
6.80701e+06
6.80701e+06
6.807e+06
6.80699e+06
6.80698e+06
6.80697e+06
6.80697e+06
6.80696e+06
6.80696e+06
6.80696e+06
6.80696e+06
6.80695e+06
6.80696e+06
6.80696e+06
6.80696e+06
6.80696e+06
6.80696e+06
6.80697e+06
6.80698e+06
6.80698e+06
6.80699e+06
6.80701e+06
6.80702e+06
6.80704e+06
6.80707e+06
6.80708e+06
6.80711e+06
6.80712e+06
6.80713e+06
6.80714e+06
6.80715e+06
6.80715e+06
6.80715e+06
6.80715e+06
6.80715e+06
6.80715e+06
6.80715e+06
6.80715e+06
6.80714e+06
6.80714e+06
6.80713e+06
6.80713e+06
6.80712e+06
6.80711e+06
6.8071e+06
6.80709e+06
6.80708e+06
6.80707e+06
6.80706e+06
6.80705e+06
6.80704e+06
6.80703e+06
6.80702e+06
6.80701e+06
6.807e+06
6.807e+06
6.80699e+06
6.80698e+06
6.80698e+06
6.80698e+06
6.80698e+06
6.80698e+06
6.80698e+06
6.80698e+06
6.80698e+06
6.80699e+06
6.807e+06
6.807e+06
6.80701e+06
6.80703e+06
6.80704e+06
6.80706e+06
6.80708e+06
6.80711e+06
6.80703e+06
6.80706e+06
6.80707e+06
6.80707e+06
6.80707e+06
6.80707e+06
6.80707e+06
6.80707e+06
6.80708e+06
6.80708e+06
6.80708e+06
6.80708e+06
6.80709e+06
6.80709e+06
6.80709e+06
6.80709e+06
6.80708e+06
6.80708e+06
6.80707e+06
6.80707e+06
6.80706e+06
6.80705e+06
6.80705e+06
6.80704e+06
6.80703e+06
6.80702e+06
6.80701e+06
6.80701e+06
6.807e+06
6.80699e+06
6.80698e+06
6.80697e+06
6.80697e+06
6.80696e+06
6.80696e+06
6.80696e+06
6.80696e+06
6.80696e+06
6.80697e+06
6.80697e+06
6.80698e+06
6.80699e+06
6.807e+06
6.80701e+06
6.80702e+06
6.80704e+06
6.80706e+06
6.80709e+06
6.80712e+06
6.80715e+06
6.80701e+06
6.80715e+06
6.80722e+06
6.80723e+06
6.80723e+06
6.80722e+06
6.80721e+06
6.8072e+06
6.80719e+06
6.80718e+06
6.80718e+06
6.80717e+06
6.80717e+06
6.80716e+06
6.80715e+06
6.80715e+06
6.80714e+06
6.80713e+06
6.80712e+06
6.80711e+06
6.8071e+06
6.80709e+06
6.80708e+06
6.80707e+06
6.80706e+06
6.80705e+06
6.80704e+06
6.80703e+06
6.80702e+06
6.80701e+06
6.807e+06
6.80699e+06
6.80699e+06
6.80698e+06
6.80698e+06
6.80698e+06
6.80698e+06
6.80698e+06
6.80699e+06
6.80699e+06
6.807e+06
6.80701e+06
6.80702e+06
6.80704e+06
6.80705e+06
6.80707e+06
6.8071e+06
6.80713e+06
6.80717e+06
6.80721e+06
6.80655e+06
6.80684e+06
6.80694e+06
6.80697e+06
6.807e+06
6.80703e+06
6.80705e+06
6.80706e+06
6.80707e+06
6.80708e+06
6.80708e+06
6.80709e+06
6.80709e+06
6.80709e+06
6.80709e+06
6.80709e+06
6.80709e+06
6.80709e+06
6.80708e+06
6.80708e+06
6.80707e+06
6.80706e+06
6.80705e+06
6.80705e+06
6.80704e+06
6.80703e+06
6.80702e+06
6.80701e+06
6.807e+06
6.80699e+06
6.80698e+06
6.80698e+06
6.80697e+06
6.80697e+06
6.80697e+06
6.80697e+06
6.80697e+06
6.80697e+06
6.80698e+06
6.80699e+06
6.807e+06
6.80701e+06
6.80702e+06
6.80704e+06
6.80706e+06
6.80708e+06
6.80711e+06
6.80715e+06
6.80719e+06
6.80724e+06
6.80815e+06
6.80764e+06
6.80739e+06
6.8073e+06
6.80725e+06
6.80721e+06
6.80719e+06
6.80717e+06
6.80716e+06
6.80716e+06
6.80715e+06
6.80715e+06
6.80715e+06
6.80714e+06
6.80714e+06
6.80713e+06
6.80713e+06
6.80712e+06
6.80711e+06
6.8071e+06
6.80709e+06
6.80708e+06
6.80707e+06
6.80706e+06
6.80706e+06
6.80705e+06
6.80704e+06
6.80703e+06
6.80702e+06
6.80701e+06
6.807e+06
6.80699e+06
6.80698e+06
6.80698e+06
6.80698e+06
6.80698e+06
6.80698e+06
6.80698e+06
6.80699e+06
6.807e+06
6.80701e+06
6.80702e+06
6.80703e+06
6.80705e+06
6.80707e+06
6.8071e+06
6.80713e+06
6.80717e+06
6.80722e+06
6.80728e+06
6.56842e+06
6.57439e+06
6.57551e+06
6.57932e+06
6.58086e+06
6.58314e+06
6.58439e+06
6.5855e+06
6.58603e+06
6.58615e+06
6.58598e+06
6.5857e+06
6.58555e+06
6.58549e+06
6.58525e+06
6.58681e+06
6.58622e+06
6.59198e+06
6.59082e+06
6.60191e+06
6.5702e+06
6.57612e+06
6.57726e+06
6.58103e+06
6.58261e+06
6.58489e+06
6.5862e+06
6.58737e+06
6.58799e+06
6.58821e+06
6.58816e+06
6.58797e+06
6.58784e+06
6.58776e+06
6.58754e+06
6.58912e+06
6.5886e+06
6.59451e+06
6.5936e+06
6.6048e+06
6.57221e+06
6.57808e+06
6.57924e+06
6.58295e+06
6.58457e+06
6.58684e+06
6.58821e+06
6.58943e+06
6.59013e+06
6.59046e+06
6.59053e+06
6.59044e+06
6.59034e+06
6.59028e+06
6.59006e+06
6.59151e+06
6.59074e+06
6.59634e+06
6.59526e+06
6.60619e+06
6.57445e+06
6.58025e+06
6.58142e+06
6.58508e+06
6.58672e+06
6.58896e+06
6.59037e+06
6.59163e+06
6.59239e+06
6.59281e+06
6.59299e+06
6.59297e+06
6.5929e+06
6.59289e+06
6.59268e+06
6.59402e+06
6.59294e+06
6.59793e+06
6.59632e+06
6.6067e+06
6.5769e+06
6.58263e+06
6.58382e+06
6.58739e+06
6.58904e+06
6.59123e+06
6.59265e+06
6.59392e+06
6.59472e+06
6.5952e+06
6.59546e+06
6.59548e+06
6.59543e+06
6.59546e+06
6.59528e+06
6.59666e+06
6.5956e+06
6.60042e+06
6.59874e+06
6.6088e+06
6.57958e+06
6.58523e+06
6.58642e+06
6.58989e+06
6.59152e+06
6.59364e+06
6.59504e+06
6.59627e+06
6.59707e+06
6.59759e+06
6.59788e+06
6.59792e+06
6.59788e+06
6.59793e+06
6.5978e+06
6.59925e+06
6.59831e+06
6.60314e+06
6.6016e+06
6.61149e+06
6.58249e+06
6.58805e+06
6.58922e+06
6.59258e+06
6.59416e+06
6.59618e+06
6.59752e+06
6.59868e+06
6.59944e+06
6.59994e+06
6.60023e+06
6.60027e+06
6.60023e+06
6.60031e+06
6.60019e+06
6.60169e+06
6.60084e+06
6.6057e+06
6.60436e+06
6.61411e+06
6.58566e+06
6.5911e+06
6.59225e+06
6.59546e+06
6.59697e+06
6.59885e+06
6.60009e+06
6.60113e+06
6.60181e+06
6.60225e+06
6.6025e+06
6.60252e+06
6.6025e+06
6.60259e+06
6.60247e+06
6.60399e+06
6.6032e+06
6.60806e+06
6.6069e+06
6.61654e+06
6.58908e+06
6.59441e+06
6.59552e+06
6.59856e+06
6.59997e+06
6.60168e+06
6.60277e+06
6.60365e+06
6.6042e+06
6.60455e+06
6.60472e+06
6.6047e+06
6.60468e+06
6.6048e+06
6.60469e+06
6.6062e+06
6.60545e+06
6.61028e+06
6.60929e+06
6.61883e+06
6.59281e+06
6.59799e+06
6.59905e+06
6.6019e+06
6.60318e+06
6.60468e+06
6.60559e+06
6.60627e+06
6.60665e+06
6.60686e+06
6.60692e+06
6.60684e+06
6.60683e+06
6.60696e+06
6.60686e+06
6.60838e+06
6.60766e+06
6.61246e+06
6.6116e+06
6.62105e+06
6.59685e+06
6.60188e+06
6.60287e+06
6.6055e+06
6.60663e+06
6.60789e+06
6.60858e+06
6.60903e+06
6.6092e+06
6.60923e+06
6.60914e+06
6.60899e+06
6.60898e+06
6.60912e+06
6.60905e+06
6.61057e+06
6.6099e+06
6.61467e+06
6.61393e+06
6.6233e+06
6.60125e+06
6.6061e+06
6.60702e+06
6.60941e+06
6.61036e+06
6.61136e+06
6.61179e+06
6.61198e+06
6.61191e+06
6.61171e+06
6.61144e+06
6.6112e+06
6.61118e+06
6.61133e+06
6.6113e+06
6.61284e+06
6.61224e+06
6.61702e+06
6.61638e+06
6.62569e+06
6.60604e+06
6.6107e+06
6.61152e+06
6.61367e+06
6.61442e+06
6.61513e+06
6.61528e+06
6.61517e+06
6.61482e+06
6.61436e+06
6.6139e+06
6.61355e+06
6.61351e+06
6.61366e+06
6.61369e+06
6.61526e+06
6.61476e+06
6.61958e+06
6.61904e+06
6.62832e+06
6.61124e+06
6.61569e+06
6.61642e+06
6.61831e+06
6.61884e+06
6.61926e+06
6.61911e+06
6.61868e+06
6.61802e+06
6.61728e+06
6.61659e+06
6.61613e+06
6.61604e+06
6.61618e+06
6.6163e+06
6.6179e+06
6.61755e+06
6.62244e+06
6.622e+06
6.63127e+06
6.61688e+06
6.62112e+06
6.62175e+06
6.62338e+06
6.62368e+06
6.6238e+06
6.62334e+06
6.62258e+06
6.6216e+06
6.62055e+06
6.61963e+06
6.61902e+06
6.61888e+06
6.61901e+06
6.61923e+06
6.62087e+06
6.62069e+06
6.62569e+06
6.62536e+06
6.63463e+06
6.623e+06
6.627e+06
6.62753e+06
6.6289e+06
6.62898e+06
6.6288e+06
6.62804e+06
6.62695e+06
6.62563e+06
6.62428e+06
6.62311e+06
6.62234e+06
6.62212e+06
6.62224e+06
6.62258e+06
6.62426e+06
6.6243e+06
6.62942e+06
6.62922e+06
6.63849e+06
6.6296e+06
6.63336e+06
6.63379e+06
6.63491e+06
6.63478e+06
6.63431e+06
6.63326e+06
6.63185e+06
6.63021e+06
6.62856e+06
6.62715e+06
6.6262e+06
6.62587e+06
6.626e+06
6.62647e+06
6.6282e+06
6.62849e+06
6.63375e+06
6.63367e+06
6.64293e+06
6.63668e+06
6.6402e+06
6.64054e+06
6.64141e+06
6.64108e+06
6.64036e+06
6.63904e+06
6.63734e+06
6.63541e+06
6.63349e+06
6.63185e+06
6.6307e+06
6.63026e+06
6.63041e+06
6.63102e+06
6.63279e+06
6.63337e+06
6.63876e+06
6.63883e+06
6.64805e+06
6.64422e+06
6.64749e+06
6.64775e+06
6.64841e+06
6.64791e+06
6.64697e+06
6.64542e+06
6.64347e+06
6.64129e+06
6.63913e+06
6.63727e+06
6.63595e+06
6.6354e+06
6.63559e+06
6.63634e+06
6.63815e+06
6.63907e+06
6.64457e+06
6.6448e+06
6.65393e+06
6.6522e+06
6.65522e+06
6.6554e+06
6.65589e+06
6.65525e+06
6.65415e+06
6.65242e+06
6.65028e+06
6.6479e+06
6.64555e+06
6.6435e+06
6.64202e+06
6.64139e+06
6.64164e+06
6.64253e+06
6.64439e+06
6.64566e+06
6.65124e+06
6.65165e+06
6.66063e+06
6.66055e+06
6.66334e+06
6.66347e+06
6.66381e+06
6.66308e+06
6.66186e+06
6.66002e+06
6.65776e+06
6.65525e+06
6.65276e+06
6.65058e+06
6.64899e+06
6.64831e+06
6.64865e+06
6.64967e+06
6.65158e+06
6.65322e+06
6.65883e+06
6.65943e+06
6.66819e+06
6.66922e+06
6.67178e+06
6.67188e+06
6.67211e+06
6.67134e+06
6.67007e+06
6.66819e+06
6.66589e+06
6.66334e+06
6.6608e+06
6.65856e+06
6.65692e+06
6.65624e+06
6.65666e+06
6.65779e+06
6.65977e+06
6.66178e+06
6.66735e+06
6.66814e+06
6.67659e+06
6.67813e+06
6.68047e+06
6.68055e+06
6.68072e+06
6.67996e+06
6.6787e+06
6.67686e+06
6.67461e+06
6.67212e+06
6.66963e+06
6.66743e+06
6.66582e+06
6.66517e+06
6.66568e+06
6.6669e+06
6.66895e+06
6.67131e+06
6.67677e+06
6.67773e+06
6.68577e+06
6.68717e+06
6.6893e+06
6.68939e+06
6.68953e+06
6.68882e+06
6.68765e+06
6.68593e+06
6.68382e+06
6.68149e+06
6.67916e+06
6.6771e+06
6.67562e+06
6.67505e+06
6.67563e+06
6.67694e+06
6.67907e+06
6.68173e+06
6.687e+06
6.6881e+06
6.69564e+06
6.69623e+06
6.69818e+06
6.69829e+06
6.69844e+06
6.69782e+06
6.69679e+06
6.69526e+06
6.69338e+06
6.6913e+06
6.68922e+06
6.6874e+06
6.68614e+06
6.68572e+06
6.68636e+06
6.68779e+06
6.69001e+06
6.6929e+06
6.69788e+06
6.69909e+06
6.70604e+06
6.7052e+06
6.70698e+06
6.70712e+06
6.70732e+06
6.70684e+06
6.70599e+06
6.70471e+06
6.70313e+06
6.70136e+06
6.69961e+06
6.69812e+06
6.69715e+06
6.69694e+06
6.6977e+06
6.69926e+06
6.70156e+06
6.70458e+06
6.70921e+06
6.71046e+06
6.71675e+06
6.71397e+06
6.7156e+06
6.71579e+06
6.71605e+06
6.71573e+06
6.71511e+06
6.71412e+06
6.71288e+06
6.71148e+06
6.71013e+06
6.70903e+06
6.7084e+06
6.70847e+06
6.70939e+06
6.7111e+06
6.71345e+06
6.71651e+06
6.72072e+06
6.72197e+06
6.72754e+06
6.72244e+06
6.72393e+06
6.72418e+06
6.72453e+06
6.72439e+06
6.72401e+06
6.72334e+06
6.72246e+06
6.72147e+06
6.72055e+06
6.71987e+06
6.71964e+06
6.72002e+06
6.72114e+06
6.72298e+06
6.72535e+06
6.72837e+06
6.73212e+06
6.73332e+06
6.73817e+06
6.73052e+06
6.7319e+06
6.7322e+06
6.73265e+06
6.73269e+06
6.73256e+06
6.7322e+06
6.7317e+06
6.73114e+06
6.73065e+06
6.73042e+06
6.73059e+06
6.7313e+06
6.73263e+06
6.73457e+06
6.73694e+06
6.73984e+06
6.74313e+06
6.74426e+06
6.74839e+06
6.73814e+06
6.73942e+06
6.73978e+06
6.74032e+06
6.74053e+06
6.74065e+06
6.7406e+06
6.74046e+06
6.7403e+06
6.74024e+06
6.74043e+06
6.74099e+06
6.74201e+06
6.74354e+06
6.74556e+06
6.74791e+06
6.75064e+06
6.7535e+06
6.75454e+06
6.75799e+06
6.74523e+06
6.74643e+06
6.74684e+06
6.74747e+06
6.74784e+06
6.74819e+06
6.74842e+06
6.74862e+06
6.74883e+06
6.74916e+06
6.74971e+06
6.7506e+06
6.75189e+06
6.75359e+06
6.75567e+06
6.75802e+06
6.76057e+06
6.76303e+06
6.76398e+06
6.76682e+06
6.75178e+06
6.75289e+06
6.75335e+06
6.75405e+06
6.75458e+06
6.75512e+06
6.7556e+06
6.75609e+06
6.75663e+06
6.75728e+06
6.75814e+06
6.75929e+06
6.7608e+06
6.76264e+06
6.76478e+06
6.76712e+06
6.76948e+06
6.7716e+06
6.77248e+06
6.77478e+06
6.75774e+06
6.75879e+06
6.75928e+06
6.76006e+06
6.7607e+06
6.76141e+06
6.7621e+06
6.76284e+06
6.76364e+06
6.76456e+06
6.76566e+06
6.76702e+06
6.76868e+06
6.77064e+06
6.77282e+06
6.77512e+06
6.7773e+06
6.77915e+06
6.77998e+06
6.78182e+06
6.76314e+06
6.76412e+06
6.76464e+06
6.76547e+06
6.76621e+06
6.76705e+06
6.76791e+06
6.76885e+06
6.76986e+06
6.77099e+06
6.77228e+06
6.77379e+06
6.77556e+06
6.77758e+06
6.77977e+06
6.78198e+06
6.78401e+06
6.78565e+06
6.78646e+06
6.78793e+06
6.76797e+06
6.7689e+06
6.76944e+06
6.7703e+06
6.77111e+06
6.77205e+06
6.77304e+06
6.77412e+06
6.77529e+06
6.77658e+06
6.77801e+06
6.77963e+06
6.78146e+06
6.78349e+06
6.78564e+06
6.78775e+06
6.78967e+06
6.79115e+06
6.79198e+06
6.79315e+06
6.77226e+06
6.77315e+06
6.77369e+06
6.77458e+06
6.77543e+06
6.77643e+06
6.77751e+06
6.77869e+06
6.77997e+06
6.78137e+06
6.7829e+06
6.78459e+06
6.78644e+06
6.78844e+06
6.79051e+06
6.79251e+06
6.79433e+06
6.79574e+06
6.79661e+06
6.79755e+06
6.77605e+06
6.7769e+06
6.77743e+06
6.77833e+06
6.7792e+06
6.78024e+06
6.78136e+06
6.7826e+06
6.78395e+06
6.78541e+06
6.787e+06
6.78871e+06
6.79055e+06
6.79249e+06
6.79445e+06
6.79634e+06
6.79807e+06
6.7995e+06
6.80044e+06
6.8012e+06
6.77938e+06
6.78018e+06
6.78071e+06
6.78159e+06
6.78246e+06
6.78352e+06
6.78465e+06
6.78592e+06
6.78728e+06
6.78877e+06
6.79037e+06
6.79208e+06
6.79389e+06
6.79575e+06
6.79761e+06
6.79942e+06
6.80111e+06
6.80257e+06
6.80358e+06
6.80418e+06
6.78228e+06
6.78304e+06
6.78355e+06
6.78442e+06
6.78527e+06
6.78632e+06
6.78744e+06
6.78869e+06
6.79005e+06
6.79152e+06
6.79309e+06
6.79476e+06
6.79651e+06
6.79832e+06
6.80013e+06
6.8019e+06
6.80358e+06
6.80504e+06
6.80605e+06
6.8065e+06
6.7848e+06
6.78552e+06
6.78601e+06
6.78685e+06
6.78767e+06
6.78869e+06
6.78978e+06
6.791e+06
6.7923e+06
6.79372e+06
6.79523e+06
6.79682e+06
6.79849e+06
6.80021e+06
6.80196e+06
6.80369e+06
6.80535e+06
6.80677e+06
6.8077e+06
6.80799e+06
6.78699e+06
6.78767e+06
6.78812e+06
6.78894e+06
6.78972e+06
6.7907e+06
6.79173e+06
6.79289e+06
6.79413e+06
6.79547e+06
6.79688e+06
6.79837e+06
6.79991e+06
6.8015e+06
6.80311e+06
6.8047e+06
6.80622e+06
6.80751e+06
6.80829e+06
6.80848e+06
6.78887e+06
6.78952e+06
6.78995e+06
6.79072e+06
6.79146e+06
6.79239e+06
6.79336e+06
6.79445e+06
6.7956e+06
6.79684e+06
6.79814e+06
6.79949e+06
6.80089e+06
6.80231e+06
6.80373e+06
6.80511e+06
6.80638e+06
6.80743e+06
6.80808e+06
6.80826e+06
6.7905e+06
6.79111e+06
6.79151e+06
6.79225e+06
6.79293e+06
6.7938e+06
6.7947e+06
6.79571e+06
6.79677e+06
6.79791e+06
6.79908e+06
6.8003e+06
6.80154e+06
6.80278e+06
6.804e+06
6.80516e+06
6.80619e+06
6.80704e+06
6.80755e+06
6.80774e+06
6.7919e+06
6.79248e+06
6.79285e+06
6.79355e+06
6.79418e+06
6.79499e+06
6.79582e+06
6.79674e+06
6.79771e+06
6.79873e+06
6.79978e+06
6.80086e+06
6.80195e+06
6.80302e+06