/*--------------------------------*- C++ -*----------------------------------*\
  =========                 |
  \\      /  F ield         | OpenFOAM: The Open Source CFD Toolbox
   \\    /   O peration     | Website:  https://openfoam.org
    \\  /    A nd           | Version:  8
     \\/     M anipulation  |
\*---------------------------------------------------------------------------*/
FoamFile
{
    version     2.0;
    format      ascii;
    class       volScalarField;
    location    "800";
    object      T;
}
// * * * * * * * * * * * * * * * * * * * * * * * * * * * * * * * * * * * * * //

dimensions      [0 0 0 1 0 0 0];

internalField   nonuniform List<scalar> 
8400
(
301.245
301.21
301.181
301.151
301.121
301.092
301.063
301.034
301.006
300.979
300.952
300.925
300.9
300.875
300.851
300.827
300.805
300.783
300.762
300.742
300.722
300.704
300.686
300.669
300.653
300.637
300.623
300.609
300.595
300.582
300.57
300.558
300.547
300.536
300.526
300.516
300.506
300.497
300.488
300.479
300.47
300.462
300.454
300.445
300.437
300.429
300.421
300.412
300.402
300.391
300.85
300.827
300.809
300.79
300.772
300.754
300.736
300.719
300.702
300.686
300.67
300.654
300.639
300.625
300.611
300.597
300.584
300.572
300.56
300.549
300.538
300.528
300.518
300.509
300.5
300.491
300.483
300.476
300.469
300.462
300.455
300.449
300.443
300.438
300.432
300.427
300.422
300.418
300.413
300.409
300.404
300.4
300.396
300.392
300.388
300.384
300.38
300.376
300.371
300.366
300.629
300.614
300.605
300.594
300.584
300.574
300.564
300.555
300.545
300.536
300.527
300.518
300.509
300.501
300.493
300.485
300.478
300.47
300.463
300.457
300.45
300.444
300.439
300.433
300.428
300.423
300.418
300.413
300.409
300.405
300.4
300.397
300.393
300.389
300.385
300.382
300.379
300.376
300.372
300.369
300.366
300.363
300.361
300.358
300.355
300.352
300.349
300.347
300.344
300.341
300.411
300.402
300.397
300.391
300.386
300.381
300.375
300.37
300.365
300.36
300.355
300.35
300.346
300.341
300.337
300.333
300.329
300.325
300.322
300.318
300.315
300.312
300.309
300.306
300.303
300.301
300.298
300.296
300.294
300.292
300.29
300.288
300.286
300.284
300.282
300.281
300.279
300.278
300.277
300.275
300.274
300.273
300.272
300.271
300.27
300.269
300.268
300.267
300.267
300.266
300.264
300.258
300.257
300.255
300.253
300.251
300.249
300.247
300.245
300.243
300.241
300.239
300.238
300.236
300.234
300.232
300.23
300.228
300.227
300.225
300.224
300.222
300.221
300.219
300.218
300.217
300.216
300.214
300.213
300.212
300.211
300.21
300.209
300.208
300.208
300.207
300.206
300.205
300.205
300.204
300.204
300.203
300.203
300.203
300.203
300.203
300.203
300.203
300.203
300.203
300.158
300.155
300.155
300.155
300.154
300.154
300.154
300.153
300.153
300.152
300.152
300.151
300.15
300.15
300.149
300.148
300.148
300.147
300.147
300.146
300.146
300.145
300.145
300.144
300.144
300.143
300.143
300.142
300.142
300.142
300.141
300.141
300.141
300.141
300.14
300.14
300.14
300.14
300.14
300.141
300.141
300.141
300.141
300.142
300.142
300.142
300.143
300.143
300.144
300.145
300.091
300.088
300.089
300.09
300.09
300.091
300.091
300.091
300.091
300.092
300.092
300.092
300.092
300.092
300.092
300.092
300.092
300.092
300.092
300.092
300.092
300.092
300.092
300.092
300.092
300.092
300.092
300.092
300.092
300.092
300.092
300.092
300.092
300.092
300.092
300.092
300.093
300.093
300.093
300.094
300.094
300.094
300.095
300.095
300.096
300.096
300.097
300.098
300.099
300.1
300.051
300.049
300.05
300.051
300.052
300.052
300.053
300.054
300.054
300.054
300.055
300.055
300.055
300.056
300.056
300.056
300.056
300.056
300.056
300.057
300.057
300.057
300.057
300.057
300.057
300.057
300.058
300.058
300.058
300.058
300.058
300.059
300.059
300.059
300.059
300.06
300.06
300.06
300.06
300.061
300.061
300.061
300.061
300.062
300.062
300.063
300.063
300.064
300.065
300.066
300.023
300.021
300.022
300.023
300.023
300.024
300.025
300.026
300.026
300.027
300.027
300.028
300.028
300.029
300.029
300.029
300.03
300.03
300.03
300.031
300.031
300.031
300.032
300.032
300.032
300.032
300.033
300.033
300.033
300.033
300.034
300.034
300.034
300.034
300.035
300.035
300.035
300.035
300.036
300.036
300.036
300.036
300.037
300.037
300.037
300.038
300.039
300.039
300.04
300.041
300.008
300.006
300.006
300.007
300.007
300.008
300.008
300.009
300.009
300.01
300.011
300.011
300.011
300.012
300.012
300.013
300.013
300.013
300.014
300.014
300.015
300.015
300.015
300.016
300.016
300.016
300.017
300.017
300.017
300.017
300.018
300.018
300.018
300.018
300.019
300.019
300.019
300.02
300.02
300.02
300.02
300.021
300.021
300.021
300.022
300.022
300.023
300.024
300.024
300.025
300.001
300.002
300.003
300.004
300.004
300.004
300.005
300.005
300.005
300.006
300.006
300.006
300.007
300.007
300.007
300.007
300.008
300.008
300.008
300.009
300.009
300.009
300.009
300.01
300.01
300.01
300.011
300.011
300.011
300.012
300.012
300.012
300.012
300.013
300.013
300.014
300.014
300.014
300.015
300.015
300.016
300.016
300.017
300.017
300.018
300.018
300.019
300.019
300.02
300.021
300.004
300.004
300.004
300.005
300.005
300.006
300.006
300.006
300.007
300.007
300.008
300.008
300.008
300.009
300.009
300.009
300.01
300.01
300.011
300.011
300.011
300.012
300.012
300.013
300.013
300.013
300.014
300.014
300.014
300.015
300.015
300.016
300.016
300.017
300.017
300.018
300.018
300.019
300.019
300.02
300.02
300.021
300.021
300.022
300.022
300.023
300.024
300.024
300.025
300.026
300.004
300.005
300.005
300.006
300.007
300.007
300.008
300.009
300.009
300.01
300.011
300.011
300.012
300.013
300.013
300.014
300.015
300.015
300.016
300.017
300.017
300.018
300.019
300.019
300.02
300.021
300.021
300.022
300.023
300.023
300.024
300.025
300.025
300.026
300.027
300.027
300.028
300.029
300.029
300.03
300.031
300.031
300.032
300.033
300.034
300.034
300.035
300.036
300.037
300.037
300.012
300.014
300.016
300.017
300.018
300.02
300.021
300.022
300.023
300.024
300.025
300.025
300.026
300.027
300.028
300.029
300.029
300.03
300.031
300.031
300.032
300.033
300.034
300.034
300.035
300.035
300.036
300.037
300.037
300.038
300.038
300.039
300.04
300.04
300.041
300.042
300.042
300.043
300.043
300.044
300.045
300.045
300.046
300.046
300.047
300.048
300.048
300.049
300.05
300.05
300.005
300.005
300.004
300.003
300.003
300.003
300.003
300.004
300.004
300.005
300.005
300.006
300.007
300.008
300.008
300.009
300.01
300.011
300.012
300.013
300.014
300.015
300.016
300.017
300.018
300.019
300.02
300.021
300.022
300.024
300.025
300.026
300.027
300.028
300.029
300.031
300.032
300.033
300.034
300.036
300.037
300.038
300.04
300.041
300.043
300.044
300.045
300.047
300.048
300.049
300.024
300.03
300.034
300.038
300.042
300.046
300.049
300.052
300.055
300.058
300.061
300.064
300.066
300.069
300.071
300.073
300.075
300.078
300.08
300.082
300.084
300.086
300.088
300.09
300.092
300.094
300.096
300.098
300.1
300.101
300.103
300.105
300.107
300.108
300.11
300.112
300.113
300.115
300.117
300.118
300.12
300.121
300.123
300.124
300.126
300.127
300.128
300.129
300.13
300.131
300.003
300.001
299.997
299.994
299.992
299.99
299.988
299.987
299.986
299.985
299.985
299.985
299.984
299.984
299.984
299.985
299.985
299.985
299.985
299.985
299.986
299.986
299.986
299.986
299.987
299.987
299.988
299.988
299.988
299.989
299.99
299.99
299.991
299.991
299.992
299.993
299.994
299.994
299.995
299.996
299.997
299.998
299.998
299.999
300
300
300.001
300.001
300.001
299.999
300.041
300.048
300.055
300.063
300.07
300.077
300.084
300.09
300.097
300.103
300.109
300.115
300.121
300.126
300.132
300.137
300.143
300.148
300.153
300.158
300.163
300.168
300.173
300.178
300.183
300.188
300.192
300.197
300.202
300.207
300.212
300.217
300.222
300.226
300.231
300.236
300.241
300.245
300.25
300.255
300.259
300.264
300.269
300.274
300.279
300.285
300.29
300.296
300.303
300.311
300.003
300.004
300.003
300.002
300.001
300
299.999
299.998
299.998
299.997
299.997
299.997
299.997
299.997
299.997
299.997
299.998
299.998
299.998
299.998
299.998
299.999
299.999
299.999
299.999
299.999
300
300
300.001
300.001
300.002
300.002
300.003
300.003
300.004
300.005
300.005
300.006
300.007
300.008
300.009
300.009
300.01
300.011
300.012
300.013
300.015
300.017
300.022
300.034
302.171
302.162
302.157
302.153
302.148
302.143
302.137
302.131
302.126
302.12
302.114
302.108
302.103
302.097
302.092
302.087
302.082
302.078
302.074
302.07
302.066
302.062
302.058
302.054
302.05
302.046
302.042
302.038
302.034
302.03
302.026
302.022
302.018
302.014
302.01
302.006
302.001
301.997
301.993
301.988
301.983
301.979
301.974
301.97
301.965
301.96
301.954
301.948
301.942
301.936
303.147
303.143
303.139
303.135
303.131
303.127
303.123
303.12
303.116
303.112
303.109
303.105
303.102
303.098
303.095
303.092
303.088
303.085
303.082
303.079
303.075
303.072
303.069
303.066
303.063
303.06
303.057
303.054
303.051
303.048
303.045
303.043
303.04
303.037
303.034
303.032
303.029
303.026
303.024
303.021
303.018
303.016
303.013
303.011
303.009
303.007
303.004
303.003
303.001
303
303.15
303.15
303.15
303.15
303.15
303.149
303.149
303.149
303.149
303.149
303.148
303.148
303.148
303.147
303.147
303.147
303.146
303.146
303.145
303.145
303.145
303.144
303.144
303.143
303.143
303.142
303.142
303.141
303.141
303.141
303.14
303.14
303.139
303.139
303.138
303.138
303.137
303.137
303.136
303.136
303.135
303.135
303.135
303.134
303.134
303.133
303.133
303.133
303.133
303.132
303.15
303.15
303.15
303.15
303.15
303.15
303.15
303.15
303.15
303.15
303.15
303.15
303.15
303.15
303.15
303.15
303.15
303.15
303.15
303.15
303.15
303.15
303.15
303.15
303.15
303.15
303.15
303.15
303.149
303.149
303.149
303.149
303.149
303.149
303.149
303.149
303.149
303.149
303.149
303.149
303.149
303.149
303.149
303.149
303.149
303.149
303.149
303.149
303.149
303.149
303.15
303.15
303.15
303.15
303.15
303.15
303.15
303.15
303.15
303.15
303.15
303.15
303.15
303.15
303.15
303.15
303.15
303.15
303.15
303.15
303.15
303.15
303.15
303.15
303.15
303.15
303.15
303.15
303.15
303.15
303.15
303.15
303.15
303.15
303.15
303.15
303.15
303.15
303.15
303.15
303.15
303.15
303.15
303.15
303.15
303.15
303.15
303.15
303.15
303.15
303.15
303.15
303.15
303.15
303.15
303.15
303.15
303.15
303.15
303.15
303.15
303.15
303.15
303.15
303.15
303.15
303.15
303.15
303.15
303.15
303.15
303.15
303.15
303.15
303.15
303.15
303.15
303.15
303.15
303.15
303.15
303.15
303.15
303.15
303.15
303.15
303.15
303.15
303.15
303.15
303.15
303.15
303.15
303.15
303.15
303.15
303.15
303.15
303.15
303.15
303.15
303.15
303.15
303.15
303.15
303.15
303.15
303.15
303.15
303.15
303.15
303.15
303.15
303.15
303.15
303.15
303.15
303.15
303.15
303.15
303.15
303.15
303.15
303.15
303.15
303.15
303.15
303.15
303.15
303.15
303.15
303.15
303.15
303.15
303.15
303.15
303.15
303.15
303.15
303.15
303.15
303.15
303.15
303.15
303.15
303.15
303.15
303.15
303.15
303.15
303.15
303.15
303.15
303.15
303.15
303.15
303.15
303.15
303.15
303.15
303.15
303.15
303.15
303.15
303.15
303.15
303.15
303.15
303.15
303.15
303.15
303.15
303.15
303.15
303.15
303.15
303.15
303.15
303.15
303.15
303.15
303.15
303.15
303.15
303.15
303.15
303.15
303.15
303.15
303.15
303.15
303.15
303.15
303.15
303.15
303.15
303.15
303.15
303.15
303.15
303.15
303.15
303.15
303.15
303.15
303.15
303.15
303.15
303.15
303.15
303.15
303.15
303.15
303.15
303.15
303.15
303.15
303.15
303.15
303.15
303.15
303.15
303.15
303.15
303.15
303.15
303.15
303.15
303.15
303.15
303.15
303.15
303.15
303.15
303.15
303.15
303.15
303.15
303.15
303.15
303.15
303.15
303.15
303.15
303.15
303.15
303.15
303.15
303.15
303.15
303.15
303.15
303.15
303.15
303.15
303.15
303.15
303.15
303.15
303.15
303.15
303.15
303.15
303.15
303.15
303.15
303.15
303.15
303.15
303.15
303.15
303.15
303.15
303.15
303.15
303.15
303.15
303.15
303.15
303.15
303.15
303.15
303.15
303.15
303.15
303.15
303.15
303.15
303.15
303.15
303.15
303.15
303.15
303.15
303.15
303.15
303.15
303.15
303.15
303.15
303.15
303.15
303.15
303.15
303.15
303.15
303.15
303.15
303.15
303.15
303.15
303.15
303.15
303.15
303.15
303.15
303.15
303.15
303.15
303.15
303.15
303.15
303.15
303.15
303.15
303.15
303.15
303.15
303.15
303.15
303.15
303.15
303.15
303.15
303.15
303.15
303.15
303.15
303.15
303.15
303.15
303.15
303.15
303.15
303.15
303.15
303.15
303.15
303.15
303.15
303.15
303.15
303.15
303.15
303.15
303.15
303.15
303.15
303.15
303.15
303.15
303.15
303.15
303.15
303.15
303.15
303.15
303.15
303.15
303.15
303.15
303.15
303.15
303.15
303.15
303.15
303.15
303.15
303.15
303.15
303.15
303.15
303.15
303.15
303.15
303.15
303.15
303.15
303.15
303.15
303.15
303.15
303.15
303.15
303.15
303.15
303.15
303.15
303.15
303.15
303.15
303.15
303.15
303.15
303.15
303.15
303.15
303.15
303.15
303.15
303.15
303.15
303.15
303.15
303.15
303.15
303.15
303.15
303.15
303.15
303.15
303.15
303.15
303.15
303.15
303.15
303.15
303.15
303.15
303.15
303.15
303.15
303.15
303.15
303.15
303.15
303.15
303.15
303.15
303.15
303.15
303.15
303.15
303.15
303.15
303.15
303.15
303.15
303.15
303.15
303.15
303.15
303.15
303.15
303.15
303.15
303.15
303.15
303.15
303.15
303.15
303.15
303.15
303.15
303.15
303.15
303.15
303.15
303.15
303.15
303.15
303.15
303.15
303.15
303.15
303.15
303.15
303.15
303.15
303.15
303.15
303.15
303.15
303.15
303.15
303.15
303.15
303.15
303.15
303.15
303.15
303.15
303.15
303.15
303.15
303.15
303.15
303.15
303.15
303.15
303.15
303.15
303.15
303.15
303.15
303.15
303.15
303.15
303.15
303.15
303.15
303.15
303.15
303.15
303.15
303.15
303.15
303.15
303.15
303.15
303.15
303.15
303.15
303.15
303.15
303.15
303.15
303.15
303.15
303.15
303.15
303.15
303.15
303.15
303.15
303.15
303.15
303.15
303.15
303.15
303.15
303.15
303.15
303.15
303.15
303.15
303.15
303.15
303.15
303.15
303.15
303.15
303.15
303.15
303.15
303.15
303.15
303.15
303.15
303.15
303.15
303.15
303.15
303.15
303.15
303.15
303.15
303.15
303.15
303.15
303.15
303.15
303.15
303.15
303.15
303.15
303.15
303.15
303.15
303.15
303.15
303.15
303.15
303.15
303.15
303.15
303.15
303.15
303.15
303.15
303.15
303.15
303.15
303.15
303.15
303.15
303.15
303.15
303.15
303.15
303.15
303.15
303.15
303.15
303.15
303.15
303.15
303.15
303.15
303.15
303.15
303.15
303.15
303.15
303.15
303.15
303.15
303.15
303.15
303.15
303.15
303.15
303.15
303.15
303.15
303.15
303.15
303.15
303.15
303.15
303.15
303.15
303.15
303.15
303.15
303.15
303.15
303.15
303.15
303.15
303.15
303.15
303.15
303.15
303.15
303.15
303.15
303.15
303.15
303.15
303.15
303.15
303.15
303.15
303.15
303.15
303.15
303.15
303.15
303.15
303.15
303.15
303.15
303.15
303.15
303.15
303.15
303.15
303.15
303.15
303.15
303.15
303.15
303.15
303.15
303.15
303.15
303.15
303.15
303.15
303.15
303.15
303.15
303.15
303.15
303.15
303.15
303.15
303.15
303.15
303.15
303.15
303.15
303.15
303.15
303.15
303.15
303.15
303.15
303.15
303.15
303.15
303.15
303.15
303.15
303.15
303.15
303.15
303.15
303.15
303.15
303.15
303.15
303.15
303.15
303.15
303.15
303.15
303.15
303.15
303.15
303.15
303.15
303.15
303.15
303.15
303.15
303.149
303.149
303.149
303.149
303.149
303.149
303.149
303.149
303.149
303.149
303.149
303.149
303.149
303.149
303.148
303.148
303.148
303.148
303.148
303.148
303.147
303.147
303.147
303.15
303.15
303.15
303.15
303.15
303.149
303.149
303.149
303.149
303.149
303.148
303.148
303.148
303.147
303.147
303.147
303.146
303.146
303.145
303.145
303.145
303.144
303.144
303.143
303.143
303.142
303.142
303.141
303.141
303.14
303.14
303.139
303.139
303.138
303.137
303.137
303.136
303.136
303.135
303.134
303.134
303.133
303.132
303.131
303.13
303.129
303.128
303.127
303.126
303.124
303.147
303.143
303.139
303.135
303.131
303.127
303.123
303.12
303.116
303.112
303.109
303.105
303.102
303.098
303.095
303.092
303.088
303.085
303.082
303.079
303.075
303.072
303.069
303.066
303.063
303.06
303.057
303.054
303.051
303.048
303.045
303.043
303.04
303.037
303.034
303.031
303.029
303.026
303.023
303.021
303.018
303.015
303.013
303.01
303.007
303.005
303.002
303
302.997
302.995
302.98
303.137
303.152
303.137
303.095
303.005
302.845
302.608
302.289
301.873
301.336
300.831
300.683
300.681
300.664
300.687
300.821
300.933
300.866
300.727
302.98
303.136
303.152
303.137
303.096
303.005
302.846
302.608
302.29
301.877
301.348
300.84
300.679
300.68
300.661
300.685
300.831
300.96
300.894
300.749
302.98
303.136
303.152
303.138
303.096
303.006
302.847
302.609
302.291
301.882
301.36
300.85
300.675
300.678
300.66
300.685
300.839
300.977
300.913
300.765
302.981
303.137
303.152
303.138
303.096
303.007
302.848
302.61
302.293
301.887
301.374
300.863
300.67
300.674
300.658
300.685
300.847
300.995
300.934
300.782
302.981
303.137
303.152
303.138
303.097
303.007
302.849
302.611
302.295
301.893
301.389
300.878
300.665
300.67
300.656
300.684
300.854
301.014
300.955
300.799
302.981
303.136
303.152
303.138
303.097
303.008
302.85
302.612
302.296
301.899
301.404
300.895
300.661
300.664
300.653
300.684
300.862
301.032
300.977
300.818
302.981
303.136
303.152
303.138
303.097
303.009
302.851
302.614
302.298
301.905
301.42
300.914
300.658
300.659
300.651
300.687
300.871
301.05
301
300.837
302.981
303.136
303.151
303.138
303.098
303.01
302.853
302.615
302.301
301.912
301.437
300.936
300.657
300.653
300.651
300.691
300.882
301.069
301.023
300.858
302.981
303.136
303.151
303.138
303.098
303.011
302.854
302.617
302.304
301.92
301.456
300.961
300.66
300.649
300.652
300.7
300.895
301.088
301.046
300.879
302.981
303.136
303.151
303.138
303.099
303.012
302.856
302.62
302.308
301.929
301.476
300.989
300.668
300.647
300.656
300.712
300.911
301.108
301.071
300.902
302.981
303.136
303.151
303.139
303.1
303.014
302.859
302.623
302.313
301.939
301.498
301.021
300.684
300.649
300.665
300.73
300.93
301.128
301.096
300.925
302.981
303.136
303.151
303.139
303.101
303.016
302.862
302.628
302.32
301.951
301.523
301.058
300.709
300.658
300.678
300.753
300.952
301.149
301.121
300.95
302.981
303.136
303.151
303.139
303.102
303.018
302.866
302.634
302.328
301.966
301.551
301.1
300.745
300.674
300.699
300.781
300.978
301.171
301.146
300.975
302.98
303.136
303.151
303.14
303.103
303.021
302.871
302.641
302.339
301.983
301.582
301.148
300.791
300.7
300.726
300.816
301.007
301.194
301.172
301.001
302.98
303.135
303.151
303.14
303.105
303.025
302.878
302.65
302.352
302.003
301.616
301.202
300.848
300.737
300.763
300.856
301.04
301.218
301.198
301.028
302.979
303.135
303.151
303.141
303.107
303.03
302.886
302.662
302.367
302.026
301.654
301.261
300.916
300.786
300.808
300.901
301.076
301.243
301.225
301.055
302.978
303.135
303.151
303.142
303.11
303.035
302.895
302.676
302.386
302.052
301.696
301.326
300.993
300.847
300.863
300.953
301.115
301.269
301.251
301.083
302.977
303.134
303.151
303.142
303.112
303.042
302.907
302.693
302.409
302.082
301.741
301.395
301.08
300.921
300.928
301.01
301.157
301.296
301.278
301.112
302.975
303.134
303.151
303.143
303.115
303.049
302.92
302.713
302.435
302.115
301.788
301.467
301.173
301.006
301.003
301.072
301.203
301.324
301.304
301.142
302.974
303.133
303.151
303.144
303.119
303.057
302.935
302.736
302.465
302.152
301.837
301.539
301.27
301.102
301.086
301.14
301.251
301.353
301.331
301.172
302.972
303.132
303.151
303.146
303.123
303.066
302.952
302.763
302.5
302.194
301.888
301.61
301.367
301.203
301.176
301.213
301.301
301.383
301.357
301.203
302.969
303.132
303.151
303.147
303.126
303.075
302.971
302.793
302.539
302.24
301.941
301.679
301.46
301.306
301.269
301.288
301.352
301.413
301.383
301.234
302.967
303.131
303.151
303.148
303.13
303.085
302.991
302.825
302.584
302.291
301.996
301.744
301.546
301.405
301.361
301.362
301.404
301.444
301.409
301.266
302.964
303.13
303.151
303.149
303.134
303.096
303.012
302.861
302.633
302.348
302.055
301.806
301.622
301.495
301.446
301.434
301.454
301.474
301.435
301.298
302.96
303.129
303.151
303.15
303.138
303.106
303.033
302.898
302.687
302.411
302.119
301.867
301.688
301.575
301.522
301.499
301.501
301.504
301.46
301.331
302.957
303.127
303.151
303.15
303.141
303.115
303.055
302.936
302.744
302.482
302.19
301.929
301.746
301.638
301.585
301.557
301.544
301.533
301.485
301.363
302.952
303.126
303.151
303.151
303.144
303.124
303.075
302.975
302.804
302.559
302.27
301.998
301.801
301.69
301.637
301.606
301.583
301.561
301.51
301.396
302.948
303.125
303.15
303.151
303.147
303.132
303.093
303.011
302.864
302.641
302.361
302.078
301.859
301.733
301.678
301.646
301.618
301.588
301.535
301.428
302.943
303.123
303.15
303.152
303.148
303.138
303.109
303.045
302.923
302.727
302.463
302.172
301.926
301.775
301.711
301.68
301.648
301.613
301.56
301.459
302.937
303.121
303.15
303.152
303.15
303.143
303.123
303.075
302.978
302.812
302.572
302.284
302.012
301.824
301.739
301.708
301.675
301.638
301.584
301.491
302.932
303.119
303.149
303.152
303.151
303.146
303.133
303.099
303.027
302.894
302.685
302.411
302.121
301.891
301.77
301.731
301.699
301.661
301.608
301.521
302.926
303.117
303.149
303.151
303.151
303.148
303.14
303.118
303.067
302.967
302.796
302.549
302.256
301.986
301.814
301.753
301.721
301.683
301.632
301.551
302.919
303.115
303.148
303.151
303.151
303.15
303.145
303.132
303.099
303.028
302.898
302.691
302.414
302.117
301.885
301.778
301.741
301.704
301.655
301.58
302.913
303.112
303.148
303.151
303.151
303.151
303.148
303.141
303.121
303.076
302.985
302.825
302.586
302.288
302.001
301.818
301.763
301.724
301.677
301.607
302.906
303.11
303.147
303.151
303.151
303.151
303.15
303.146
303.135
303.109
303.051
302.94
302.754
302.487
302.176
301.913
301.792
301.746
301.699
301.634
302.899
303.107
303.147
303.151
303.151
303.151
303.15
303.149
303.143
303.129
303.097
303.028
302.9
302.69
302.4
302.081
301.851
301.774
301.723
301.66
302.892
303.105
303.146
303.151
303.151
303.151
303.151
303.15
303.147
303.141
303.124
303.086
303.01
302.869
302.642
302.332
302.01
301.825
301.752
301.687
302.885
303.102
303.146
303.15
303.151
303.151
303.151
303.15
303.149
303.146
303.138
303.12
303.08
302.999
302.853
302.614
302.285
301.955
301.806
301.721
302.879
303.099
303.145
303.15
303.151
303.151
303.151
303.15
303.15
303.149
303.145
303.136
303.117
303.076
302.997
302.855
302.616
302.273
301.938
301.784
302.872
303.097
303.145
303.15
303.15
303.15
303.15
303.15
303.15
303.15
303.148
303.144
303.134
303.113
303.073
302.999
302.871
302.651
302.296
301.946
302.866
303.094
303.144
303.15
303.15
303.15
303.15
303.15
303.15
303.15
303.149
303.147
303.142
303.13
303.107
303.065
302.994
302.886
302.714
302.376
302.86
303.092
303.144
303.15
303.15
303.15
303.15
303.15
303.15
303.15
303.15
303.149
303.146
303.139
303.124
303.095
303.044
302.962
302.848
302.704
302.854
303.089
303.143
303.15
303.15
303.15
303.15
303.15
303.15
303.15
303.15
303.149
303.148
303.144
303.134
303.114
303.073
303
302.884
302.715
302.849
303.087
303.143
303.15
303.15
303.15
303.15
303.15
303.15
303.15
303.15
303.15
303.149
303.147
303.14
303.126
303.093
303.027
302.911
302.719
302.844
303.085
303.142
303.149
303.15
303.15
303.15
303.15
303.15
303.15
303.15
303.15
303.149
303.148
303.144
303.133
303.107
303.048
302.932
302.723
302.839
303.083
303.142
303.149
303.15
303.15
303.15
303.15
303.15
303.15
303.15
303.15
303.15
303.149
303.146
303.138
303.117
303.064
302.949
302.726
302.836
303.081
303.141
303.149
303.15
303.15
303.15
303.15
303.15
303.15
303.15
303.15
303.15
303.149
303.147
303.141
303.124
303.076
302.963
302.728
302.832
303.079
303.141
303.149
303.15
303.15
303.15
303.15
303.15
303.15
303.15
303.15
303.15
303.149
303.148
303.144
303.129
303.086
302.975
302.731
302.829
303.078
303.141
303.149
303.15
303.15
303.15
303.15
303.15
303.15
303.15
303.15
303.15
303.15
303.149
303.145
303.133
303.093
302.984
302.733
302.827
303.077
303.141
303.149
303.15
303.15
303.15
303.15
303.15
303.15
303.15
303.15
303.15
303.15
303.149
303.146
303.136
303.099
302.992
302.735
302.825
303.076
303.14
303.149
303.15
303.15
303.15
303.15
303.15
303.15
303.15
303.15
303.15
303.15
303.149
303.147
303.138
303.104
302.999
302.738
302.823
303.075
303.14
303.149
303.15
303.15
303.15
303.15
303.15
303.15
303.15
303.15
303.15
303.15
303.149
303.148
303.139
303.108
303.005
302.74
302.822
303.074
303.14
303.149
303.15
303.15
303.15
303.15
303.15
303.15
303.15
303.15
303.15
303.15
303.15
303.148
303.141
303.111
303.01
302.742
302.821
303.074
303.14
303.149
303.15
303.15
303.15
303.15
303.15
303.15
303.15
303.15
303.15
303.15
303.15
303.148
303.142
303.114
303.014
302.744
302.82
303.073
303.14
303.149
303.15
303.15
303.15
303.15
303.15
303.15
303.15
303.15
303.15
303.15
303.15
303.148
303.143
303.116
303.017
302.746
302.82
303.073
303.14
303.149
303.15
303.15
303.15
303.15
303.15
303.15
303.15
303.15
303.15
303.15
303.15
303.149
303.143
303.118
303.021
302.748
302.82
303.073
303.14
303.149
303.15
303.15
303.15
303.15
303.15
303.15
303.15
303.15
303.15
303.15
303.15
303.149
303.144
303.12
303.023
302.75
302.82
303.073
303.14
303.149
303.15
303.15
303.15
303.15
303.15
303.15
303.15
303.15
303.15
303.15
303.15
303.149
303.144
303.121
303.026
302.752
302.821
303.073
303.14
303.149
303.15
303.15
303.15
303.15
303.15
303.15
303.15
303.15
303.15
303.15
303.15
303.149
303.145
303.122
303.028
302.754
302.822
303.073
303.14
303.149
303.15
303.15
303.15
303.15
303.15
303.15
303.15
303.15
303.15
303.15
303.15
303.149
303.145
303.123
303.03
302.756
302.822
303.073
303.14
303.149
303.15
303.15
303.15
303.15
303.15
303.15
303.15
303.15
303.15
303.15
303.15
303.149
303.145
303.124
303.032
302.758
302.823
303.074
303.14
303.149
303.15
303.15
303.15
303.15
303.15
303.15
303.15
303.15
303.15
303.15
303.15
303.149
303.145
303.125
303.033
302.76
302.824
303.074
303.14
303.149
303.15
303.15
303.15
303.15
303.15
303.15
303.15
303.15
303.15
303.15
303.15
303.149
303.145
303.125
303.035
302.762
302.826
303.074
303.14
303.149
303.15
303.15
303.15
303.15
303.15
303.15
303.15
303.15
303.15
303.15
303.15
303.149
303.146
303.126
303.036
302.764
302.827
303.075
303.14
303.149
303.15
303.15
303.15
303.15
303.15
303.15
303.15
303.15
303.15
303.15
303.15
303.149
303.146
303.126
303.038
302.766
302.828
303.075
303.14
303.149
303.15
303.15
303.15
303.15
303.15
303.15
303.15
303.15
303.15
303.15
303.15
303.149
303.146
303.127
303.039
302.768
302.83
303.076
303.14
303.149
303.15
303.15
303.15
303.15
303.15
303.15
303.15
303.15
303.15
303.15
303.15
303.149
303.146
303.127
303.04
302.77
302.831
303.076
303.14
303.149
303.15
303.15
303.15
303.15
303.15
303.15
303.15
303.15
303.15
303.15
303.15
303.149
303.146
303.128
303.041
302.772
302.833
303.076
303.14
303.149
303.15
303.15
303.15
303.15
303.15
303.15
303.15
303.15
303.15
303.15
303.15
303.149
303.146
303.128
303.042
302.773
302.834
303.077
303.14
303.149
303.15
303.15
303.15
303.15
303.15
303.15
303.15
303.15
303.15
303.15
303.15
303.149
303.146
303.128
303.043
302.775
302.836
303.078
303.141
303.149
303.15
303.15
303.15
303.15
303.15
303.15
303.15
303.15
303.15
303.15
303.15
303.149
303.146
303.129
303.044
302.777
302.838
303.078
303.141
303.149
303.15
303.15
303.15
303.15
303.15
303.15
303.15
303.15
303.15
303.15
303.15
303.149
303.146
303.129
303.045
302.779
302.839
303.079
303.141
303.149
303.15
303.15
303.15
303.15
303.15
303.15
303.15
303.15
303.15
303.15
303.15
303.149
303.146
303.129
303.046
302.781
302.841
303.079
303.141
303.149
303.15
303.15
303.15
303.15
303.15
303.15
303.15
303.15
303.15
303.15
303.15
303.149
303.146
303.13
303.047
302.783
302.843
303.08
303.141
303.149
303.15
303.15
303.15
303.15
303.15
303.15
303.15
303.15
303.15
303.15
303.15
303.149
303.147
303.13
303.048
302.785
302.844
303.08
303.141
303.149
303.15
303.15
303.15
303.15
303.15
303.15
303.15
303.15
303.15
303.15
303.15
303.149
303.147
303.13
303.049
302.787
302.846
303.081
303.141
303.149
303.15
303.15
303.15
303.15
303.15
303.15
303.15
303.15
303.15
303.15
303.15
303.149
303.147
303.13
303.05
302.789
302.848
303.082
303.141
303.149
303.15
303.15
303.15
303.15
303.15
303.15
303.15
303.15
303.15
303.15
303.15
303.149
303.147
303.131
303.051
302.791
302.849
303.082
303.141
303.149
303.15
303.15
303.15
303.15
303.15
303.15
303.15
303.15
303.15
303.15
303.15
303.149
303.147
303.131
303.052
302.794
302.851
303.083
303.141
303.149
303.15
303.15
303.15
303.15
303.15
303.15
303.15
303.15
303.15
303.15
303.15
303.149
303.147
303.131
303.053
302.796
302.853
303.084
303.142
303.149
303.15
303.15
303.15
303.15
303.15
303.15
303.15
303.15
303.15
303.15
303.15
303.149
303.147
303.131
303.054
302.798
302.854
303.084
303.142
303.149
303.15
303.15
303.15
303.15
303.15
303.15
303.15
303.15
303.15
303.15
303.15
303.15
303.147
303.131
303.054
302.8
302.856
303.085
303.142
303.149
303.15
303.15
303.15
303.15
303.15
303.15
303.15
303.15
303.15
303.15
303.15
303.15
303.147
303.132
303.055
302.802
302.858
303.086
303.142
303.149
303.15
303.15
303.15
303.15
303.15
303.15
303.15
303.15
303.15
303.15
303.15
303.15
303.147
303.132
303.056
302.804
302.859
303.086
303.142
303.149
303.15
303.15
303.15
303.15
303.15
303.15
303.15
303.15
303.15
303.15
303.15
303.15
303.147
303.132
303.057
302.806
302.861
303.087
303.142
303.149
303.15
303.15
303.15
303.15
303.15
303.15
303.15
303.15
303.15
303.15
303.15
303.15
303.147
303.132
303.058
302.808
302.863
303.088
303.142
303.149
303.15
303.15
303.15
303.15
303.15
303.15
303.15
303.15
303.15
303.15
303.15
303.15
303.147
303.132
303.059
302.81
302.864
303.089
303.142
303.149
303.15
303.15
303.15
303.15
303.15
303.15
303.15
303.15
303.15
303.15
303.15
303.15
303.147
303.133
303.059
302.812
302.866
303.089
303.143
303.149
303.15
303.15
303.15
303.15
303.15
303.15
303.15
303.15
303.15
303.15
303.15
303.15
303.147
303.133
303.06
302.814
302.868
303.09
303.143
303.149
303.15
303.15
303.15
303.15
303.15
303.15
303.15
303.15
303.15
303.15
303.15
303.15
303.147
303.133
303.061
302.816
302.87
303.091
303.143
303.149
303.15
303.15
303.15
303.15
303.15
303.15
303.15
303.15
303.15
303.15
303.15
303.15
303.147
303.133
303.062
302.818
302.871
303.091
303.143
303.149
303.15
303.15
303.15
303.15
303.15
303.15
303.15
303.15
303.15
303.15
303.15
303.15
303.147
303.133
303.063
302.82
302.873
303.092
303.143
303.149
303.15
303.15
303.15
303.15
303.15
303.15
303.15
303.15
303.15
303.15
303.15
303.15
303.147
303.134
303.064
302.823
302.875
303.093
303.143
303.149
303.15
303.15
303.15