/*--------------------------------*- C++ -*----------------------------------*\
  =========                 |
  \\      /  F ield         | OpenFOAM: The Open Source CFD Toolbox
   \\    /   O peration     | Website:  https://openfoam.org
    \\  /    A nd           | Version:  8
     \\/     M anipulation  |
\*---------------------------------------------------------------------------*/
FoamFile
{
    version     2.0;
    format      ascii;
    class       volVectorField;
    location    "800";
    object      U;
}
// * * * * * * * * * * * * * * * * * * * * * * * * * * * * * * * * * * * * * //

dimensions      [0 1 -1 0 0 0 0];

internalField   nonuniform List<vector> 
8400
(
(-118.427 -2.24192 7.8295e-15)
(-118.128 -2.263 7.73832e-15)
(-117.915 -2.28767 7.64674e-15)
(-117.708 -2.31146 7.55319e-15)
(-117.517 -2.33324 7.46078e-15)
(-117.342 -2.35305 7.36972e-15)
(-117.185 -2.3712 7.27691e-15)
(-117.046 -2.38808 7.1838e-15)
(-116.923 -2.40398 7.09042e-15)
(-116.817 -2.4192 6.99524e-15)
(-116.726 -2.43396 6.90127e-15)
(-116.649 -2.44844 6.80884e-15)
(-116.584 -2.46277 6.71502e-15)
(-116.53 -2.47705 6.62112e-15)
(-116.486 -2.49137 6.52716e-15)
(-116.451 -2.5058 6.4318e-15)
(-116.422 -2.5204 6.33762e-15)
(-116.401 -2.5352 6.24468e-15)
(-116.384 -2.5503 6.15029e-15)
(-116.373 -2.56578 6.05561e-15)
(-116.367 -2.58171 5.96056e-15)
(-116.364 -2.59813 5.86742e-15)
(-116.363 -2.61509 5.77648e-15)
(-116.366 -2.6327 5.68233e-15)
(-116.37 -2.65109 5.58427e-15)
(-116.375 -2.6704 5.48843e-15)
(-116.381 -2.69077 5.39689e-15)
(-116.387 -2.71237 5.30376e-15)
(-116.394 -2.73534 5.20484e-15)
(-116.4 -2.75984 5.10703e-15)
(-116.406 -2.786 5.00861e-15)
(-116.41 -2.81401 4.90739e-15)
(-116.413 -2.8441 4.80386e-15)
(-116.413 -2.87654 4.69583e-15)
(-116.411 -2.91161 4.58276e-15)
(-116.405 -2.94987 4.46753e-15)
(-116.395 -2.99187 4.34951e-15)
(-116.38 -3.03825 4.22939e-15)
(-116.359 -3.08988 4.10755e-15)
(-116.33 -3.14781 3.98372e-15)
(-116.293 -3.21329 3.8578e-15)
(-116.245 -3.28797 3.73141e-15)
(-116.182 -3.374 3.60328e-15)
(-116.1 -3.47439 3.47156e-15)
(-115.991 -3.59351 3.33756e-15)
(-115.848 -3.73773 3.20194e-15)
(-115.661 -3.91596 3.06437e-15)
(-115.406 -4.1409 2.92196e-15)
(-115.015 -4.43693 2.77482e-15)
(-114.399 -4.85974 2.62328e-15)
(-113.284 1.72378 7.65656e-15)
(-112.998 1.75646 7.56975e-15)
(-112.77 1.80038 7.48445e-15)
(-112.543 1.85092 7.39966e-15)
(-112.329 1.90491 7.31599e-15)
(-112.13 1.96008 7.23354e-15)
(-111.949 2.01467 7.15127e-15)
(-111.784 2.06743 7.06956e-15)
(-111.636 2.11758 6.98838e-15)
(-111.502 2.16463 6.90727e-15)
(-111.382 2.2084 6.82739e-15)
(-111.275 2.24891 6.74892e-15)
(-111.18 2.28632 6.67089e-15)
(-111.094 2.32085 6.5938e-15)
(-111.017 2.3528 6.51768e-15)
(-110.947 2.38246 6.44206e-15)
(-110.885 2.41014 6.36796e-15)
(-110.828 2.43608 6.29546e-15)
(-110.776 2.46045 6.22351e-15)
(-110.729 2.48343 6.15251e-15)
(-110.685 2.5052 6.08244e-15)
(-110.645 2.52597 6.0133e-15)
(-110.608 2.54592 5.94931e-15)
(-110.572 2.56528 5.88986e-15)
(-110.538 2.58424 5.82866e-15)
(-110.504 2.60287 5.76416e-15)
(-110.471 2.62121 5.70915e-15)
(-110.439 2.6393 5.66017e-15)
(-110.406 2.65727 5.60889e-15)
(-110.374 2.6753 5.55988e-15)
(-110.341 2.69359 5.51422e-15)
(-110.307 2.71233 5.4691e-15)
(-110.272 2.73172 5.42307e-15)
(-110.236 2.7519 5.37499e-15)
(-110.198 2.77302 5.32423e-15)
(-110.158 2.79532 5.27262e-15)
(-110.115 2.81885 5.22054e-15)
(-110.07 2.84359 5.16924e-15)
(-110.021 2.8694 5.12085e-15)
(-109.967 2.89599 5.07501e-15)
(-109.909 2.92304 5.03232e-15)
(-109.843 2.94996 4.99476e-15)
(-109.769 2.97569 4.96165e-15)
(-109.684 2.9984 4.93398e-15)
(-109.584 3.01481 4.9118e-15)
(-109.465 3.01949 4.89298e-15)
(-109.326 3.00482 4.87983e-15)
(-109.156 2.95992 4.87062e-15)
(-108.93 2.85807 4.86459e-15)
(-108.609 2.62496 4.86359e-15)
(-103.124 -2.5192 5.2228e-15)
(-102.738 -2.54388 5.16412e-15)
(-102.478 -2.5577 5.10454e-15)
(-102.231 -2.56119 5.04357e-15)
(-102.002 -2.55669 4.98218e-15)
(-101.791 -2.5469 4.92046e-15)
(-101.598 -2.53419 4.85723e-15)
(-101.423 -2.5204 4.79302e-15)
(-101.264 -2.50684 4.72799e-15)
(-101.12 -2.49436 4.66172e-15)
(-100.99 -2.48346 4.59544e-15)
(-100.871 -2.47435 4.52944e-15)
(-100.764 -2.46711 4.46274e-15)
(-100.665 -2.46169 4.39583e-15)
(-100.575 -2.45797 4.3288e-15)
(-100.492 -2.4558 4.26123e-15)
(-100.415 -2.45504 4.19425e-15)
(-100.343 -2.45562 4.12808e-15)
(-100.275 -2.45744 4.06177e-15)
(-100.212 -2.46041 3.99571e-15)
(-100.152 -2.4644 3.92991e-15)
(-100.095 -2.46932 3.86448e-15)
(-100.039 -2.47511 3.80032e-15)
(-99.9853 -2.48175 3.74359e-15)
(-99.932 -2.48925 3.68873e-15)
(-99.8792 -2.49768 3.62516e-15)
(-99.8264 -2.5071 3.56822e-15)
(-99.7735 -2.51758 3.52171e-15)
(-99.72 -2.52909 3.4758e-15)
(-99.6656 -2.54156 3.43177e-15)
(-99.6099 -2.555 3.39147e-15)
(-99.5527 -2.56936 3.35367e-15)
(-99.4937 -2.58467 3.31628e-15)
(-99.4326 -2.60104 3.27658e-15)
(-99.3693 -2.6186 3.23262e-15)
(-99.3033 -2.63758 3.1854e-15)
(-99.2342 -2.65838 3.13489e-15)
(-99.1614 -2.68142 3.08232e-15)
(-99.0845 -2.70715 3.02978e-15)
(-99.0023 -2.73618 2.97885e-15)
(-98.9139 -2.76915 2.93125e-15)
(-98.8177 -2.80691 2.88867e-15)
(-98.7116 -2.85079 2.85191e-15)
(-98.5932 -2.90258 2.82139e-15)
(-98.4594 -2.96499 2.79873e-15)
(-98.3074 -3.04198 2.78151e-15)
(-98.1344 -3.13824 2.77077e-15)
(-97.9361 -3.25908 2.76451e-15)
(-97.7058 -3.41695 2.76113e-15)
(-97.4446 -3.64782 2.76018e-15)
(-92.26 0.874344 3.04267e-15)
(-91.9444 0.922488 3.00419e-15)
(-91.6833 0.992878 2.96538e-15)
(-91.4243 1.07801 2.92605e-15)
(-91.1826 1.17121 2.88628e-15)
(-90.9603 1.26691 2.84605e-15)
(-90.7573 1.36096 2.80516e-15)
(-90.5722 1.45058 2.76364e-15)
(-90.4033 1.5341 2.7215e-15)
(-90.249 1.61071 2.67826e-15)
(-90.1075 1.6802 2.63493e-15)
(-89.9772 1.74276 2.59182e-15)
(-89.8566 1.79878 2.54802e-15)
(-89.7445 1.84876 2.5039e-15)
(-89.6397 1.89322 2.45952e-15)
(-89.5411 1.93265 2.41434e-15)
(-89.4478 1.96747 2.36954e-15)
(-89.3592 1.99803 2.32529e-15)
(-89.2746 2.02468 2.28051e-15)
(-89.1934 2.04774 2.23565e-15)
(-89.1151 2.06752 2.19069e-15)
(-89.039 2.08427 2.14572e-15)
(-88.9644 2.09818 2.10081e-15)
(-88.8908 2.10939 2.06122e-15)
(-88.8179 2.11798 2.02972e-15)
(-88.7452 2.12401 1.98698e-15)
(-88.6728 2.12755 1.9432e-15)
(-88.6003 2.12876 1.91177e-15)
(-88.5276 2.12783 1.8847e-15)
(-88.4544 2.12494 1.85891e-15)
(-88.3806 2.12025 1.83664e-15)
(-88.3061 2.11384 1.81761e-15)
(-88.2311 2.10573 1.799e-15)
(-88.1557 2.09583 1.77852e-15)
(-88.0798 2.08385 1.75299e-15)
(-88.0035 2.06932 1.72124e-15)
(-87.9266 2.05158 1.68276e-15)
(-87.8488 2.02978 1.63831e-15)
(-87.77 2.0029 1.59097e-15)
(-87.6896 1.96961 1.54149e-15)
(-87.6067 1.92819 1.49277e-15)
(-87.5204 1.87638 1.44821e-15)
(-87.4297 1.81115 1.40923e-15)
(-87.3327 1.7285 1.37665e-15)
(-87.2277 1.62322 1.35208e-15)
(-87.1131 1.48857 1.33138e-15)
(-86.9869 1.31649 1.31358e-15)
(-86.8469 1.09736 1.29758e-15)
(-86.6937 0.817417 1.28134e-15)
(-86.5313 0.456459 1.26279e-15)
(-79.834 -2.68293 2.67655e-15)
(-79.3635 -2.70925 2.64403e-15)
(-79.0565 -2.70532 2.6106e-15)
(-78.7713 -2.67983 2.57567e-15)
(-78.5136 -2.64116 2.54025e-15)
(-78.2806 -2.59602 2.50484e-15)
(-78.0696 -2.54914 2.46867e-15)
(-77.8781 -2.50352 2.4322e-15)
(-77.7033 -2.46089 2.3956e-15)
(-77.5428 -2.42207 2.35867e-15)
(-77.3945 -2.38726 2.32217e-15)
(-77.2567 -2.35636 2.28636e-15)
(-77.1278 -2.32909 2.25064e-15)
(-77.0065 -2.30508 2.2152e-15)
(-76.8916 -2.28395 2.18007e-15)
(-76.782 -2.26537 2.14495e-15)
(-76.677 -2.24903 2.11051e-15)
(-76.5758 -2.23465 2.07691e-15)
(-76.4777 -2.22195 2.04355e-15)
(-76.3821 -2.21065 2.01061e-15)
(-76.2884 -2.20048 1.978e-15)
(-76.1959 -2.19124 1.94587e-15)
(-76.1041 -2.18279 1.91421e-15)
(-76.0124 -2.17501 1.8859e-15)
(-75.9205 -2.16783 1.87182e-15)
(-75.8282 -2.16117 1.84885e-15)
(-75.7354 -2.15489 1.81692e-15)
(-75.6421 -2.14882 1.79521e-15)
(-75.548 -2.14274 1.78082e-15)
(-75.4531 -2.13642 1.7689e-15)
(-75.3575 -2.12966 1.76069e-15)
(-75.2613 -2.12234 1.75773e-15)
(-75.1649 -2.1143 1.75802e-15)
(-75.0685 -2.10547 1.75819e-15)
(-74.9724 -2.09594 1.75455e-15)
(-74.8767 -2.08585 1.74512e-15)
(-74.7813 -2.07538 1.72789e-15)
(-74.6859 -2.06492 1.70217e-15)
(-74.5904 -2.05489 1.67035e-15)
(-74.4943 -2.04588 1.63547e-15)
(-74.3968 -2.03893 1.60074e-15)
(-74.2976 -2.03545 1.56906e-15)
(-74.1959 -2.03745 1.54243e-15)
(-74.0911 -2.04776 1.52158e-15)
(-73.9827 -2.07043 1.50667e-15)
(-73.8709 -2.11096 1.49171e-15)
(-73.756 -2.17644 1.47518e-15)
(-73.6397 -2.27654 1.45324e-15)
(-73.5271 -2.42504 1.42331e-15)
(-73.4251 -2.6396 1.38506e-15)
(-66.9382 -0.232503 2.65955e-15)
(-66.5487 -0.161293 2.68347e-15)
(-66.2392 -0.0476352 2.71322e-15)
(-65.9444 0.0904154 2.74581e-15)
(-65.6802 0.237847 2.77985e-15)
(-65.4445 0.384059 2.81394e-15)
(-65.2337 0.522667 2.84614e-15)
(-65.0434 0.650365 2.87581e-15)
(-64.87 0.765833 2.90244e-15)
(-64.7105 0.868959 2.92535e-15)
(-64.5626 0.960267 2.94521e-15)
(-64.4241 1.04056 2.96223e-15)
(-64.2936 1.11072 2.97567e-15)
(-64.1696 1.1716 2.98584e-15)
(-64.0511 1.224 2.9929e-15)
(-63.9369 1.26856 2.99647e-15)
(-63.8261 1.30587 2.99752e-15)
(-63.7181 1.33647 2.99638e-15)
(-63.6122 1.36084 2.99228e-15)
(-63.5079 1.37946 2.98552e-15)
(-63.4045 1.39271 2.97598e-15)
(-63.3017 1.40092 2.96409e-15)
(-63.199 1.40442 2.95024e-15)
(-63.0962 1.40348 2.93412e-15)
(-62.9931 1.39839 2.93501e-15)
(-62.8899 1.38947 2.93033e-15)
(-62.7868 1.37709 2.90639e-15)
(-62.6839 1.3616 2.88541e-15)
(-62.5814 1.34329 2.87191e-15)
(-62.4793 1.32241 2.85968e-15)
(-62.3782 1.29909 2.84827e-15)
(-62.2783 1.27334 2.84291e-15)
(-62.18 1.24507 2.84451e-15)
(-62.0837 1.21401 2.8515e-15)
(-61.9897 1.17972 2.86073e-15)
(-61.8979 1.14168 2.87055e-15)
(-61.808 1.09918 2.87786e-15)
(-61.7195 1.0513 2.88057e-15)
(-61.6318 0.99696 2.88024e-15)
(-61.5441 0.934848 2.87985e-15)
(-61.4555 0.863335 2.88314e-15)
(-61.3653 0.78048 2.89273e-15)
(-61.2728 0.684061 2.90994e-15)
(-61.1776 0.571508 2.93547e-15)
(-61.0799 0.439504 2.96672e-15)
(-60.9801 0.284255 2.99986e-15)
(-60.8799 0.101574 3.03671e-15)
(-60.7834 -0.114028 3.08229e-15)
(-60.6996 -0.368882 3.14602e-15)
(-60.6365 -0.670878 3.23589e-15)
(-53.5421 -2.88192 5.43328e-16)
(-52.9751 -2.89611 3.14016e-16)
(-52.6226 -2.84298 7.33441e-17)
(-52.3149 -2.75668 -1.71424e-16)
(-52.053 -2.65911 -4.13093e-16)
(-51.826 -2.56236 -6.46952e-16)
(-51.626 -2.47212 -8.71261e-16)
(-51.4464 -2.39053 -1.08462e-15)
(-51.2826 -2.31787 -1.28656e-15)
(-51.1311 -2.25357 -1.47757e-15)
(-50.9892 -2.19677 -1.65695e-15)
(-50.8549 -2.14654 -1.82479e-15)
(-50.7266 -2.10203 -1.98244e-15)
(-50.603 -2.0625 -2.13005e-15)
(-50.4829 -2.0273 -2.26793e-15)
(-50.3654 -1.99589 -2.39682e-15)
(-50.2495 -1.96773 -2.51603e-15)
(-50.1347 -1.94233 -2.6255e-15)
(-50.0204 -1.91925 -2.72637e-15)
(-49.9064 -1.89811 -2.81878e-15)
(-49.7924 -1.87857 -2.90347e-15)
(-49.6783 -1.8603 -2.97866e-15)
(-49.564 -1.84297 -3.04762e-15)
(-49.4497 -1.82628 -3.11422e-15)
(-49.3357 -1.80986 -3.15182e-15)
(-49.2225 -1.79336 -3.18067e-15)
(-49.1107 -1.77639 -3.23281e-15)
(-49.0006 -1.75862 -3.29136e-15)
(-48.8925 -1.73974 -3.34097e-15)
(-48.7869 -1.7196 -3.3882e-15)
(-48.6841 -1.69808 -3.43999e-15)
(-48.5842 -1.6751 -3.49608e-15)
(-48.4875 -1.65076 -3.55567e-15)
(-48.3941 -1.62526 -3.61376e-15)
(-48.3037 -1.5988 -3.67168e-15)
(-48.2161 -1.57178 -3.72878e-15)
(-48.1304 -1.54483 -3.78959e-15)
(-48.0458 -1.51875 -3.85841e-15)
(-47.9611 -1.49464 -3.93229e-15)
(-47.8753 -1.47392 -4.01101e-15)
(-47.7877 -1.45832 -4.09301e-15)
(-47.6977 -1.44982 -4.18271e-15)
(-47.6052 -1.4509 -4.28464e-15)
(-47.5105 -1.46443 -4.40354e-15)
(-47.4146 -1.49399 -4.54115e-15)
(-47.3189 -1.54375 -4.69964e-15)
(-47.2265 -1.61829 -4.86424e-15)
(-47.1426 -1.72343 -5.04383e-15)
(-47.0771 -1.86435 -5.24677e-15)
(-47.0395 -2.04527 -5.48015e-15)
(-39.2003 -1.55038 5.76991e-15)
(-38.7123 -1.42433 6.06674e-15)
(-38.3917 -1.20719 6.36924e-15)
(-38.1223 -0.969774 6.65572e-15)
(-37.9053 -0.740783 6.91951e-15)
(-37.7248 -0.532001 7.15918e-15)
(-37.5689 -0.346514 7.37465e-15)
(-37.4298 -0.18377 7.56729e-15)
(-37.3021 -0.0418966 7.73863e-15)
(-37.1822 0.0812712 7.88985e-15)
(-37.0678 0.187763 8.0229e-15)
(-36.957 0.279318 8.13945e-15)
(-36.8487 0.357409 8.24015e-15)
(-36.7418 0.423291 8.32598e-15)
(-36.6356 0.478079 8.398e-15)
(-36.5295 0.52283 8.45653e-15)
(-36.423 0.558548 8.50363e-15)
(-36.3161 0.586124 8.54074e-15)
(-36.209 0.606309 8.5678e-15)
(-36.1021 0.619768 8.58597e-15)
(-35.9956 0.627162 8.5944e-15)
(-35.89 0.629166 8.6037e-15)
(-35.7856 0.62646 8.60505e-15)
(-35.683 0.619745 8.58919e-15)
(-35.5828 0.609705 8.60134e-15)
(-35.4855 0.59692 8.63314e-15)
(-35.3916 0.581832 8.63376e-15)
(-35.3012 0.564757 8.60553e-15)
(-35.2143 0.545868 8.57615e-15)
(-35.1306 0.525182 8.55338e-15)
(-35.0497 0.502609 8.53156e-15)
(-34.971 0.477917 8.51117e-15)
(-34.8939 0.450713 8.49188e-15)
(-34.8178 0.420566 8.47125e-15)
(-34.7417 0.387036 8.44616e-15)
(-34.6647 0.349553 8.41361e-15)
(-34.5855 0.307376 8.38489e-15)
(-34.5028 0.259581 8.36303e-15)
(-34.4157 0.205134 8.34459e-15)
(-34.3234 0.14297 8.32706e-15)
(-34.2258 0.0720467 8.3044e-15)
(-34.1233 -0.00854827 8.26158e-15)
(-34.0168 -0.0998186 8.20156e-15)
(-33.9082 -0.203131 8.10825e-15)
(-33.8005 -0.319801 8.03226e-15)
(-33.6969 -0.45158 7.97561e-15)
(-33.6021 -0.600754 7.93661e-15)
(-33.5237 -0.76979 7.91532e-15)
(-33.4727 -0.961136 7.90913e-15)
(-33.4597 -1.17518 7.91597e-15)
(-23.8529 -3.23469 2.51755e-16)
(-23.2431 -3.14056 2.80304e-16)
(-22.9546 -2.92984 3.1015e-16)
(-22.7596 -2.72181 3.39506e-16)
(-22.6218 -2.5389 3.6823e-16)
(-22.5142 -2.38367 3.96831e-16)
(-22.4227 -2.25283 4.25102e-16)
(-22.3395 -2.14218 4.52566e-16)
(-22.2602 -2.04794 4.79249e-16)
(-22.1823 -1.96706 5.05167e-16)
(-22.1045 -1.89721 5.30422e-16)
(-22.0259 -1.83664 5.55565e-16)
(-21.9463 -1.78405 5.80419e-16)
(-21.8655 -1.7383 6.04483e-16)
(-21.7837 -1.69833 6.27857e-16)
(-21.701 -1.6631 6.50033e-16)
(-21.6178 -1.63171 6.72248e-16)
(-21.5349 -1.60342 6.95578e-16)
(-21.453 -1.57763 7.19737e-16)
(-21.3726 -1.55381 7.45127e-16)
(-21.2943 -1.53147 7.6385e-16)
(-21.2184 -1.51011 8.08928e-16)
(-21.1452 -1.48918 8.5105e-16)
(-21.0747 -1.46812 8.6298e-16)
(-21.007 -1.44653 9.29145e-16)
(-20.9417 -1.42419 1.05735e-15)
(-20.8787 -1.40107 1.15916e-15)
(-20.8172 -1.37726 1.20298e-15)
(-20.7563 -1.35291 1.22072e-15)
(-20.6951 -1.32823 1.24429e-15)
(-20.6321 -1.30353 1.27326e-15)
(-20.5663 -1.27923 1.31162e-15)
(-20.497 -1.25575 1.35793e-15)
(-20.4234 -1.23356 1.41478e-15)
(-20.3452 -1.21315 1.48191e-15)
(-20.262 -1.19509 1.54918e-15)
(-20.1736 -1.1802 1.6166e-15)
(-20.0798 -1.16957 1.67924e-15)
(-19.9811 -1.16437 1.74016e-15)
(-19.8787 -1.1655 1.79108e-15)
(-19.7741 -1.17381 1.82314e-15)
(-19.6694 -1.1902 1.86074e-15)
(-19.5674 -1.21546 1.89179e-15)
(-19.4713 -1.2508 1.91111e-15)
(-19.385 -1.29741 1.94195e-15)
(-19.3135 -1.3563 1.98907e-15)
(-19.2612 -1.42941 2.05641e-15)
(-19.2344 -1.51814 2.14392e-15)
(-19.2453 -1.62384 2.25057e-15)
(-19.3053 -1.74495 2.37317e-15)
(-7.06333 -2.98622 -1.30027e-17)
(-6.85747 -2.48479 -2.40216e-17)
(-6.63659 -2.11032 -3.84812e-17)
(-6.541 -1.7849 -5.72054e-17)
(-6.48998 -1.5192 -8.09197e-17)
(-6.45524 -1.30753 -1.07906e-16)
(-6.42698 -1.13428 -1.37212e-16)
(-6.39982 -0.989323 -1.70631e-16)
(-6.37112 -0.867038 -2.08401e-16)
(-6.33981 -0.763691 -2.51194e-16)
(-6.30581 -0.676692 -2.98746e-16)
(-6.26945 -0.604257 -3.49308e-16)
(-6.231 -0.54492 -4.03217e-16)
(-6.19051 -0.497004 -4.623e-16)
(-6.14825 -0.458589 -5.27202e-16)
(-6.10498 -0.427893 -5.99333e-16)
(-6.06171 -0.403615 -6.79107e-16)
(-6.01913 -0.38493 -7.64565e-16)
(-5.97739 -0.371363 -8.50987e-16)
(-5.93636 -0.362662 -9.44571e-16)
(-5.89593 -0.358447 -1.10516e-15)
(-5.85597 -0.357924 -1.15234e-15)
(-5.81621 -0.360041 -1.19634e-15)
(-5.77623 -0.363903 -1.43985e-15)
(-5.73539 -0.369118 -1.59138e-15)
(-5.69309 -0.375787 -1.46277e-15)
(-5.64882 -0.384118 -1.28753e-15)
(-5.60198 -0.394158 -1.23451e-15)
(-5.55171 -0.405789 -1.32445e-15)
(-5.49706 -0.418822 -1.45329e-15)
(-5.43733 -0.433372 -1.60999e-15)
(-5.37247 -0.449812 -1.76422e-15)
(-5.3033 -0.468331 -1.91471e-15)
(-5.2308 -0.489067 -2.05846e-15)
(-5.156 -0.512133 -2.19452e-15)
(-5.0803 -0.537777 -2.30723e-15)
(-5.0048 -0.566774 -2.37722e-15)
(-4.93005 -0.599896 -2.36387e-15)
(-4.85728 -0.637483 -2.28026e-15)
(-4.78864 -0.679439 -2.15257e-15)
(-4.72661 -0.725212 -2.0066e-15)
(-4.67302 -0.774353 -1.86347e-15)
(-4.62925 -0.827447 -1.73335e-15)
(-4.59843 -0.884563 -1.61657e-15)
(-4.58263 -0.946362 -1.50245e-15)
(-4.58593 -1.0117 -1.37926e-15)
(-4.61372 -1.08119 -1.24862e-15)
(-4.66966 -1.15697 -1.10105e-15)
(-4.76919 -1.24089 -9.22922e-16)
(-4.94 -1.32509 -7.1195e-16)
(10.4945 -4.24388 5.56524e-18)
(10.2303 -3.29153 6.31612e-18)
(10.1274 -2.72213 7.36921e-18)
(10.1114 -2.31646 8.79574e-18)
(10.1037 -1.9956 9.52634e-18)
(10.0875 -1.7411 9.2536e-18)
(10.0678 -1.53755 9.18779e-18)
(10.0481 -1.36996 9.39633e-18)
(10.0299 -1.22778 9.44177e-18)
(10.0146 -1.10438 1.04976e-17)
(10.0032 -0.995617 1.13334e-17)
(9.99606 -0.8989 1.07634e-17)
(9.99339 -0.812569 1.06504e-17)
(9.995 -0.735413 1.09451e-17)
(10.0006 -0.666483 1.10051e-17)
(10.0098 -0.604872 1.21973e-17)
(10.0223 -0.549513 1.19769e-17)
(10.0378 -0.499357 4.77394e-18)
(10.0556 -0.453742 -1.86715e-18)
(10.0749 -0.412454 3.34897e-17)
(10.0946 -0.375474 -2.13971e-17)
(10.1141 -0.342744 -8.78715e-17)
(10.1333 -0.31401 -2.82904e-17)
(10.1524 -0.288838 3.55373e-17)
(10.1717 -0.266909 -7.22059e-17)
(10.1915 -0.248179 -2.40901e-16)
(10.2116 -0.232703 -3.85416e-16)
(10.2319 -0.220531 -4.49343e-16)
(10.2523 -0.211656 -4.80941e-16)
(10.273 -0.205884 -4.92702e-16)
(10.2944 -0.202948 -5.13571e-16)
(10.3169 -0.202637 -5.3703e-16)
(10.3407 -0.204634 -5.8858e-16)
(10.3661 -0.208655 -6.67859e-16)
(10.3932 -0.214737 -7.97819e-16)
(10.4218 -0.223057 -9.60989e-16)
(10.4514 -0.234106 -1.136e-15)
(10.4816 -0.248704 -1.30157e-15)
(10.5114 -0.267529 -1.44457e-15)
(10.5398 -0.291146 -1.56089e-15)
(10.5658 -0.31944 -1.64841e-15)
(10.5882 -0.352011 -1.71715e-15)
(10.6058 -0.389054 -1.78086e-15)
(10.617 -0.430761 -1.81795e-15)
(10.6186 -0.476703 -1.82918e-15)
(10.6083 -0.526255 -1.82034e-15)
(10.5828 -0.57737 -1.79543e-15)
(10.5368 -0.627625 -1.76454e-15)
(10.4647 -0.675518 -1.72756e-15)
(10.3304 -0.71305 -1.69749e-15)
(28.5007 -3.62068 4.55468e-18)
(27.9509 -3.10187 4.78793e-18)
(27.5846 -2.73416 4.92928e-18)
(27.3868 -2.4667 5.61425e-18)
(27.2559 -2.25528 6.4576e-18)
(27.1513 -2.08932 6.46559e-18)
(27.0653 -1.96306 6.5637e-18)
(26.994 -1.86835 6.76305e-18)
(26.9335 -1.79755 6.595e-18)
(26.8811 -1.74502 7.08388e-18)
(26.8353 -1.7067 7.76302e-18)
(26.7951 -1.67959 7.5968e-18)
(26.7597 -1.66134 7.58944e-18)
(26.7284 -1.65009 7.73265e-18)
(26.7006 -1.64431 7.96345e-18)
(26.6758 -1.64262 8.15644e-18)
(26.6537 -1.64382 7.05955e-18)
(26.6339 -1.64691 2.11345e-18)
(26.6161 -1.65119 -3.25948e-18)
(26.5994 -1.65612 1.58869e-17)
(26.5834 -1.66135 -1.21279e-17)
(26.5675 -1.66661 -5.69749e-17)
(26.5517 -1.67167 -4.04984e-17)
(26.536 -1.6764 7.88475e-18)
(26.5205 -1.6808 7.75926e-19)
(26.5054 -1.685 -4.72291e-17)
(26.4907 -1.68914 -1.18644e-16)
(26.4762 -1.69338 -1.72892e-16)
(26.4621 -1.69782 -2.13155e-16)
(26.4484 -1.70248 -2.45815e-16)
(26.4351 -1.70726 -2.81363e-16)
(26.4224 -1.71207 -3.14784e-16)
(26.4103 -1.71677 -3.65095e-16)
(26.3989 -1.72121 -4.29277e-16)
(26.388 -1.7255 -4.98084e-16)
(26.3775 -1.72991 -5.64744e-16)
(26.3672 -1.7348 -6.23701e-16)
(26.3566 -1.74045 -6.72834e-16)
(26.3451 -1.74716 -7.11561e-16)
(26.332 -1.75519 -7.41091e-16)
(26.3168 -1.76411 -7.61544e-16)
(26.2984 -1.77384 -7.73359e-16)
(26.2755 -1.78418 -7.86317e-16)
(26.2468 -1.79498 -7.99539e-16)
(26.2101 -1.80548 -8.09407e-16)
(26.1629 -1.81456 -8.14809e-16)
(26.1018 -1.82022 -8.13305e-16)
(26.0221 -1.81967 -8.09824e-16)
(25.9188 -1.809 -7.99421e-16)
(25.7649 -1.78088 -7.87904e-16)
(45.2827 -2.1622 1.66284e-18)
(45.013 -1.77077 1.80155e-18)
(44.7373 -1.44218 2.16655e-18)
(44.561 -1.16791 2.58996e-18)
(44.4358 -0.924919 2.92251e-18)
(44.3256 -0.708468 3.03119e-18)
(44.2255 -0.518924 3.18673e-18)
(44.1357 -0.353844 3.38801e-18)
(44.0548 -0.209363 3.07422e-18)
(43.9808 -0.0821973 3.48306e-18)
(43.9124 0.0300178 4.30206e-18)
(43.8488 0.129068 4.27792e-18)
(43.7893 0.216382 4.3295e-18)
(43.7334 0.293138 4.45279e-18)
(43.6804 0.360396 4.18927e-18)
(43.6301 0.419179 4.42282e-18)
(43.5821 0.470466 4.08356e-18)
(43.5361 0.515156 -5.3853e-19)
(43.4917 0.554043 -5.78742e-18)
(43.4481 0.587777 1.00324e-17)
(43.4049 0.616877 -8.05577e-18)
(43.3618 0.641814 -4.88487e-17)
(43.3185 0.662998 -5.46487e-17)
(43.275 0.680714 -2.10635e-17)
(43.2314 0.695129 6.95071e-18)
(43.1875 0.706293 1.4173e-17)
(43.1435 0.714114 -1.09632e-17)
(43.0991 0.718443 -3.99359e-17)
(43.0545 0.719163 -7.05976e-17)
(43.0097 0.716266 -1.01862e-16)
(42.9648 0.709884 -1.30604e-16)
(42.9198 0.70019 -1.59393e-16)
(42.8747 0.687321 -1.91116e-16)
(42.8296 0.671367 -2.22486e-16)
(42.7841 0.652375 -2.48878e-16)
(42.7381 0.630328 -2.68814e-16)
(42.6914 0.604998 -2.84303e-16)
(42.6435 0.576221 -2.96302e-16)
(42.5939 0.544079 -3.05117e-16)
(42.5422 0.50867 -3.11726e-16)
(42.488 0.470401 -3.17712e-16)
(42.4306 0.429641 -3.2355e-16)
(42.369 0.38694 -3.28957e-16)
(42.3024 0.343212 -3.34686e-16)
(42.2297 0.300018 -3.41132e-16)
(42.1493 0.259939 -3.49346e-16)
(42.0594 0.226758 -3.63015e-16)
(41.957 0.205989 -3.8302e-16)
(41.8393 0.204821 -4.07571e-16)
(41.6851 0.233167 -4.36697e-16)
(65.0942 -3.76942 -3.3143e-18)
(64.4553 -3.48736 -3.28375e-18)
(63.8744 -3.25085 -3.37348e-18)
(63.4324 -3.07079 -2.98261e-18)
(63.0749 -2.92714 -2.26574e-18)
(62.7611 -2.81136 -2.15574e-18)
(62.4803 -2.72095 -2.0145e-18)
(62.2294 -2.65219 -1.83835e-18)
(62.0039 -2.60034 -2.05276e-18)
(61.7989 -2.56124 -1.73515e-18)
(61.6108 -2.53175 -1.08842e-18)
(61.4368 -2.5095 -1.07159e-18)
(61.2746 -2.49267 -9.92879e-19)
(61.1224 -2.47993 -8.59477e-19)
(60.979 -2.47023 -1.13469e-18)
(60.8432 -2.46278 -1.03867e-18)
(60.7143 -2.45691 -1.37619e-18)
(60.5913 -2.45206 -5.34393e-18)
(60.4735 -2.44778 -1.0425e-17)
(60.36 -2.44372 5.54413e-18)
(60.25 -2.43953 -5.38391e-18)
(60.1429 -2.43492 -4.52728e-17)
(60.0384 -2.4296 -7.36337e-17)
(59.936 -2.4234 -6.82551e-17)
(59.8354 -2.41622 -3.69499e-17)
(59.7365 -2.40812 -4.03508e-18)
(59.6389 -2.3993 1.6175e-17)
(59.5424 -2.39 2.25772e-17)
(59.4469 -2.3804 1.89113e-17)
(59.3525 -2.37066 1.1095e-17)
(59.2593 -2.36089 9.48801e-18)
(59.167 -2.35119 8.59326e-18)
(59.0757 -2.34171 9.05334e-18)
(58.9851 -2.33263 1.18409e-17)
(58.8953 -2.32409 1.86893e-17)
(58.8058 -2.31622 2.82305e-17)
(58.7163 -2.3092 4.01563e-17)
(58.6266 -2.30318 5.28999e-17)
(58.5362 -2.29807 6.56738e-17)
(58.445 -2.29349 7.69252e-17)
(58.3527 -2.28938 8.68147e-17)
(58.2586 -2.28542 9.27895e-17)
(58.1624 -2.28111 9.50571e-17)
(58.0639 -2.27551 9.79813e-17)
(57.9627 -2.26721 1.03701e-16)
(57.8586 -2.25384 1.15332e-16)
(57.7508 -2.23181 1.28947e-16)
(57.6379 -2.19573 1.37037e-16)
(57.5177 -2.13808 1.3448e-16)
(57.3649 -2.04763 1.15966e-16)
(76.3752 0.20304 -1.4876e-17)
(76.2025 0.433454 -1.47901e-17)
(75.9244 0.630166 -1.50704e-17)
(75.72 0.800261 -1.45707e-17)
(75.5753 0.953572 -1.35237e-17)
(75.4522 1.09079 -1.3331e-17)
(75.3416 1.20964 -1.3121e-17)
(75.2447 1.31012 -1.28898e-17)
(75.1603 1.39415 -1.29796e-17)
(75.0858 1.46405 -1.26295e-17)
(75.0189 1.52198 -1.20561e-17)
(74.958 1.5698 -1.19755e-17)
(74.9016 1.60907 -1.18514e-17)
(74.8488 1.64104 -1.16889e-17)
(74.7988 1.6667 -1.18963e-17)
(74.751 1.68681 -1.1866e-17)
(74.705 1.70197 -1.24357e-17)
(74.6605 1.71259 -1.64078e-17)
(74.617 1.71899 -2.05574e-17)
(74.5741 1.72143 -2.74119e-18)
(74.5314 1.72023 -2.26526e-18)
(74.4887 1.71574 -3.48704e-17)
(74.4458 1.70838 -8.56151e-17)
(74.4026 1.69853 -1.27149e-16)
(74.3589 1.6865 -1.4639e-16)
(74.3145 1.67248 -1.4088e-16)
(74.2694 1.65657 -1.24058e-16)
(74.2235 1.63885 -1.06213e-16)
(74.1768 1.61944 -9.27165e-17)
(74.1295 1.5984 -8.49371e-17)
(74.0816 1.57575 -7.90934e-17)
(74.0331 1.55143 -7.52734e-17)
(73.984 1.52531 -7.19367e-17)
(73.9342 1.49726 -6.79158e-17)
(73.8837 1.46711 -6.72478e-17)
(73.8324 1.43461 -6.77142e-17)
(73.7798 1.39976 -6.57596e-17)
(73.7259 1.36266 -6.18e-17)
(73.6707 1.32318 -5.75233e-17)
(73.6138 1.28154 -5.60351e-17)
(73.5551 1.23774 -5.6227e-17)
(73.4944 1.19189 -5.84341e-17)
(73.4319 1.14448 -6.07368e-17)
(73.3679 1.0964 -5.53625e-17)
(73.3028 1.04938 -4.04068e-17)
(73.2379 1.00625 -1.80702e-17)
(73.1744 0.971832 4.87265e-18)
(73.1133 0.953713 2.0626e-17)
(73.0567 0.962965 2.61701e-17)
(72.9854 1.01331 1.43781e-17)
(103.588 -4.49956 -3.32311e-17)
(102.86 -4.36911 -3.33372e-17)
(102.172 -4.25399 -3.35086e-17)
(101.607 -4.14917 -3.31707e-17)
(101.123 -4.04822 -3.23849e-17)
(100.685 -3.95318 -3.22133e-17)
(100.283 -3.86703 -3.20251e-17)
(99.916 -3.79063 -3.18169e-17)
(99.5797 -3.72329 -3.20862e-17)
(99.2698 -3.66364 -3.18088e-17)
(98.9819 -3.61006 -3.1088e-17)
(98.7124 -3.56101 -3.09756e-17)
(98.4583 -3.5151 -3.08424e-17)
(98.2171 -3.47118 -3.06979e-17)
(97.9869 -3.42842 -3.11606e-17)
(97.766 -3.38629 -3.12859e-17)
(97.5532 -3.3446 -3.17876e-17)
(97.3475 -3.3034 -3.54305e-17)
(97.1478 -3.26297 -3.83261e-17)
(96.9534 -3.22364 -2.06051e-17)
(96.7635 -3.18569 -3.51603e-18)
(96.5776 -3.14929 -6.62881e-18)
(96.3952 -3.11452 -3.86145e-17)
(96.2158 -3.08136 -8.68283e-17)
(96.0388 -3.04972 -1.44011e-16)
(95.8636 -3.01947 -2.05275e-16)
(95.6898 -2.99042 -2.6822e-16)
(95.517 -2.96232 -3.32514e-16)
(95.3449 -2.93494 -3.99374e-16)
(95.1732 -2.90813 -4.74496e-16)
(95.0017 -2.88179 -5.48434e-16)
(94.83 -2.85588 -6.17445e-16)
(94.658 -2.83051 -6.78335e-16)
(94.4853 -2.80578 -7.36145e-16)
(94.3117 -2.78174 -7.93988e-16)
(94.1369 -2.75845 -8.49502e-16)
(93.9609 -2.73584 -8.93727e-16)
(93.7832 -2.71384 -9.29762e-16)
(93.6036 -2.69245 -9.60005e-16)
(93.422 -2.67181 -9.835e-16)
(93.238 -2.65191 -1.00085e-15)
(93.0517 -2.63279 -1.012e-15)
(92.8635 -2.61437 -1.01375e-15)
(92.6742 -2.59632 -1.00475e-15)
(92.4857 -2.57762 -9.89304e-16)
(92.301 -2.55643 -9.76377e-16)
(92.1247 -2.52913 -9.79057e-16)
(91.9626 -2.48876 -1.00104e-15)
(91.8206 -2.42193 -1.03956e-15)
(91.684 -2.30179 -1.09525e-15)
(97.1591 3.22046 -9.08092e-17)
(97.0681 3.33167 -9.06217e-17)
(96.8928 3.36463 -9.06392e-17)
(96.7913 3.3844 -8.99956e-17)
(96.7385 3.39704 -8.89126e-17)
(96.6937 3.39859 -8.84917e-17)
(96.6507 3.3886 -8.8064e-17)
(96.6145 3.36787 -8.7645e-17)
(96.5876 3.33756 -8.73657e-17)
(96.5696 3.2993 -8.70385e-17)
(96.5594 3.25504 -8.67205e-17)
(96.5557 3.20681 -8.66151e-17)
(96.5572 3.15653 -8.65906e-17)
(96.5626 3.10594 -8.66792e-17)
(96.5705 3.05645 -8.75607e-17)
(96.5798 3.00905 -8.82923e-17)
(96.5896 2.96428 -8.9539e-17)
(96.5994 2.92219 -9.36878e-17)
(96.6086 2.88243 -9.65759e-17)
(96.6171 2.84456 -8.0586e-17)
(96.6246 2.80799 -5.03049e-17)
(96.6312 2.77207 -2.05246e-17)
(96.6372 2.73617 5.76446e-18)
(96.643 2.69976 2.93711e-17)
(96.6487 2.66246 5.66743e-17)
(96.6544 2.62413 8.95093e-17)
(96.6604 2.58482 1.30517e-16)
(96.6667 2.54478 1.79577e-16)
(96.6734 2.50424 2.38533e-16)
(96.6804 2.46333 3.10756e-16)
(96.6878 2.42207 3.91582e-16)
(96.6957 2.38037 4.85922e-16)
(96.704 2.33811 5.97065e-16)
(96.7127 2.29518 7.21532e-16)
(96.7219 2.25159 8.47529e-16)
(96.7317 2.2074 9.73846e-16)
(96.742 2.16273 1.09954e-15)
(96.753 2.11751 1.22493e-15)
(96.7647 2.07181 1.35416e-15)
(96.7777 2.02536 1.48555e-15)
(96.7925 1.97789 1.60976e-15)
(96.8104 1.92905 1.71826e-15)
(96.8334 1.87829 1.8107e-15)
(96.8651 1.82497 1.89478e-15)
(96.9112 1.76831 1.97251e-15)
(96.9801 1.70761 2.04044e-15)
(97.0851 1.64298 2.08733e-15)
(97.246 1.57738 2.12166e-15)
(97.4946 1.52151 2.1497e-15)
(97.8417 1.49302 2.17144e-15)
(153.751 -5.82623 -1.49266e-16)
(153.046 -5.77453 -1.51797e-16)
(152.425 -5.65117 -1.52498e-16)
(151.924 -5.48237 -1.52963e-16)
(151.481 -5.30565 -1.53026e-16)
(151.07 -5.1374 -1.53173e-16)
(150.688 -4.98234 -1.52963e-16)
(150.334 -4.84166 -1.52554e-16)
(150.005 -4.71491 -1.52452e-16)
(149.697 -4.60069 -1.52004e-16)
(149.409 -4.49727 -1.51347e-16)
(149.135 -4.40298 -1.51142e-16)
(148.876 -4.31622 -1.5094e-16)
(148.627 -4.23551 -1.50698e-16)
(148.388 -4.15953 -1.5083e-16)
(148.156 -4.08717 -1.50683e-16)
(147.93 -4.01748 -1.50566e-16)
(147.71 -3.94987 -1.53554e-16)
(147.493 -3.88394 -1.60296e-16)
(147.28 -3.81942 -1.67455e-16)
(147.069 -3.75627 -1.80332e-16)
(146.86 -3.69476 -2.10341e-16)
(146.653 -3.63528 -2.47061e-16)
(146.448 -3.57819 -2.79455e-16)
(146.244 -3.52377 -3.05613e-16)
(146.041 -3.47212 -3.32607e-16)
(145.839 -3.42318 -3.58863e-16)
(145.637 -3.37673 -3.84641e-16)
(145.435 -3.33251 -4.22049e-16)
(145.233 -3.29037 -4.59532e-16)
(145.03 -3.25027 -4.95782e-16)
(144.825 -3.21223 -5.35008e-16)
(144.619 -3.17627 -5.75047e-16)
(144.41 -3.14242 -6.12858e-16)
(144.199 -3.11082 -6.49531e-16)
(143.985 -3.08155 -6.86169e-16)
(143.769 -3.05468 -7.24162e-16)
(143.549 -3.03037 -7.62978e-16)
(143.325 -3.00897 -7.96283e-16)
(143.097 -2.99109 -8.24095e-16)
(142.863 -2.97762 -8.49061e-16)
(142.624 -2.96981 -8.79776e-16)
(142.377 -2.96963 -9.13646e-16)
(142.124 -2.97984 -9.35615e-16)
(141.861 -3.00447 -9.49186e-16)
(141.591 -3.04925 -9.59095e-16)
(141.312 -3.12213 -9.78248e-16)
(141.031 -3.23297 -9.95438e-16)
(140.754 -3.38779 -1.01046e-15)
(140.511 -3.58219 -1.02403e-15)
(110.729 6.33741 -1.75759e-15)
(110.386 5.72529 -1.75144e-15)
(110.028 5.3723 -1.74599e-15)
(109.679 5.14816 -1.74533e-15)
(109.333 4.98331 -1.74016e-15)
(108.995 4.84908 -1.7282e-15)
(108.676 4.73082 -1.71365e-15)
(108.384 4.62009 -1.69701e-15)
(108.12 4.51292 -1.67631e-15)
(107.883 4.40815 -1.65057e-15)
(107.67 4.30582 -1.62013e-15)
(107.478 4.20631 -1.58533e-15)
(107.303 4.11003 -1.54788e-15)
(107.143 4.0174 -1.51047e-15)
(106.996 3.92881 -1.47437e-15)
(106.858 3.84456 -1.43694e-15)
(106.724 3.76462 -1.39716e-15)
(106.596 3.6893 -1.35654e-15)
(106.469 3.61856 -1.30824e-15)
(106.344 3.55222 -1.24882e-15)
(106.22 3.49022 -1.19061e-15)
(106.098 3.43228 -1.15284e-15)
(105.979 3.37775 -1.11496e-15)
(105.861 3.32593 -1.0793e-15)
(105.746 3.27622 -1.04322e-15)
(105.633 3.22817 -9.95844e-16)
(105.52 3.18142 -9.50879e-16)
(105.409 3.13579 -9.03062e-16)
(105.297 3.0912 -8.3634e-16)
(105.183 3.0476 -7.65083e-16)
(105.068 3.00488 -6.96623e-16)