/*--------------------------------*- C++ -*----------------------------------*\
  =========                 |
  \\      /  F ield         | OpenFOAM: The Open Source CFD Toolbox
   \\    /   O peration     | Website:  https://openfoam.org
    \\  /    A nd           | Version:  8
     \\/     M anipulation  |
\*---------------------------------------------------------------------------*/
FoamFile
{
    version     2.0;
    format      ascii;
    class       volScalarField;
    location    "600";
    object      alphat;
}
// * * * * * * * * * * * * * * * * * * * * * * * * * * * * * * * * * * * * * //

dimensions      [1 -1 -1 0 0 0 0];

internalField   nonuniform List<scalar> 
8400
(
0.0753198
0.0757936
0.0765024
0.0771108
0.0775202
0.077751
0.0778691
0.0779569
0.0781064
0.0783805
0.0788132
0.0794409
0.0802472
0.0812116
0.0824165
0.08394
0.0857389
0.087489
0.0886071
0.088675
0.0876625
0.0863194
0.0851797
0.0841754
0.0832381
0.0822991
0.0812672
0.0800963
0.0790842
0.078584
0.0785617
0.0786726
0.0783078
0.0772417
0.0756
0.0738374
0.0720259
0.0701797
0.0684859
0.0668967
0.0652838
0.0635725
0.0618365
0.060187
0.0587036
0.0574167
0.0563196
0.0553869
0.0545865
0.0538909
0.0571138
0.0565841
0.0561184
0.0558715
0.0558198
0.0558632
0.0558839
0.0558434
0.0557566
0.0556383
0.0555116
0.0553826
0.0552574
0.0551453
0.0550571
0.0550038
0.0550184
0.0551343
0.0553165
0.0555085
0.0557199
0.0554189
0.054505
0.0533297
0.0521377
0.0511179
0.0504448
0.0502653
0.0503485
0.050386
0.0504513
0.0505352
0.0506686
0.050838
0.0510709
0.0510992
0.0511527
0.0514358
0.0517139
0.0519892
0.0522972
0.0526777
0.0531096
0.0535555
0.0539827
0.0543648
0.0546896
0.0549571
0.0551772
0.0553613
0.0610012
0.0606075
0.0600355
0.0593284
0.0583968
0.0569963
0.0537856
0.0502057
0.0515319
0.0520192
0.0528607
0.0546116
0.0542263
0.0537313
0.053349
0.053057
0.0528887
0.0528224
0.0525598
0.0523897
0.0522885
0.0520784
0.0518041
0.0516052
0.0514919
0.0515236
0.0517515
0.0521877
0.0524583
0.0519448
0.0514545
0.0512496
0.051536
0.0520532
0.0526045
0.0531521
0.0537529
0.0542154
0.0545071
0.0547047
0.0549739
0.0553888
0.0558015
0.0561198
0.0563352
0.0564539
0.0565003
0.0564921
0.0564495
0.0563859
0.0611847
0.0611302
0.0610711
0.0609873
0.0608737
0.0607175
0.06048
0.0602546
0.0600544
0.0598237
0.0595489
0.0592889
0.0590309
0.0588097
0.0586162
0.0584547
0.0583625
0.0583588
0.0583668
0.0582305
0.0579432
0.0575987
0.0573067
0.0570608
0.0568224
0.0566328
0.0566844
0.0568182
0.0554626
0.0471122
0.0495921
0.051801
0.0533267
0.0543404
0.0552554
0.0562469
0.0567742
0.0566433
0.056202
0.0561031
0.0563037
0.056641
0.05695
0.0570636
0.0570604
0.0570013
0.0569157
0.0567944
0.0566508
0.0565135
0.0612089
0.0611802
0.0611497
0.0611175
0.0610829
0.0610437
0.0609994
0.0609498
0.0608967
0.0608394
0.060777
0.0607119
0.0606461
0.0605804
0.0605158
0.0604524
0.0603909
0.0603327
0.0602745
0.0602087
0.0601306
0.0600399
0.0599406
0.0598348
0.0597232
0.0596097
0.0595035
0.0594005
0.0592555
0.0588057
0.0584004
0.0582315
0.0581718
0.0580915
0.0581594
0.0582138
0.057932
0.057523
0.0558515
0.0571376
0.0582099
0.0579043
0.0577076
0.0575883
0.0574761
0.0573631
0.0572448
0.0570664
0.0568584
0.0566987
0.0611963
0.0611544
0.0611131
0.0610736
0.0610353
0.0609982
0.0609614
0.0609237
0.060887
0.0608491
0.0608101
0.0607708
0.0607301
0.060689
0.0606467
0.0606038
0.0605602
0.060516
0.0604711
0.0604247
0.0603757
0.060323
0.0602663
0.0602056
0.0601406
0.0600714
0.0599982
0.0599204
0.0598322
0.0597039
0.0595539
0.0594066
0.059265
0.0591169
0.0589807
0.0588522
0.0586981
0.0585093
0.0582558
0.0582875
0.0580379
0.057849
0.0577211
0.0576389
0.0575771
0.057502
0.057404
0.0572845
0.0571435
0.0569902
0.0611939
0.0611484
0.0611036
0.0610576
0.0610112
0.0609663
0.0609212
0.0608772
0.0608339
0.0607901
0.0607467
0.0607034
0.0606598
0.060616
0.0605724
0.0605287
0.0604844
0.0604404
0.0603972
0.0603534
0.0603085
0.060263
0.0602171
0.0601703
0.0601225
0.060074
0.0600241
0.0599732
0.0599187
0.0598538
0.0597777
0.05969
0.0595897
0.0594758
0.0593518
0.0592184
0.0590727
0.0589142
0.0587524
0.0586335
0.0585253
0.0583654
0.0582076
0.0580718
0.0579355
0.0577986
0.057658
0.0575089
0.0573487
0.0571755
0.0611852
0.0611308
0.0610755
0.0610207
0.0609684
0.0609173
0.0608649
0.0608147
0.0607647
0.0607147
0.0606651
0.060616
0.0605667
0.0605178
0.0604684
0.0604195
0.0603708
0.0603218
0.0602731
0.0602241
0.0601753
0.0601269
0.0600789
0.0600316
0.0599859
0.0599415
0.0599004
0.059862
0.0598263
0.0597899
0.0597477
0.059697
0.0596356
0.0595601
0.0594687
0.059362
0.0592414
0.0591096
0.058972
0.0588402
0.0587146
0.0585955
0.0584641
0.0583171
0.0581664
0.0580098
0.0578447
0.0576684
0.0574805
0.0572793
0.0611729
0.061105
0.0610369
0.0609694
0.0609049
0.06084
0.0607769
0.0607161
0.0606565
0.0605992
0.0605423
0.060486
0.0604297
0.0603739
0.0603177
0.0602615
0.0602064
0.0601522
0.0600983
0.060044
0.0599899
0.0599365
0.0598833
0.059832
0.0597838
0.0597391
0.0597007
0.0596699
0.0596461
0.059627
0.0596083
0.0595852
0.0595534
0.0595077
0.059446
0.0593674
0.0592725
0.0591642
0.0590455
0.0589212
0.0587949
0.0586697
0.0585464
0.0584096
0.0582569
0.0580893
0.0579057
0.0577076
0.0574935
0.0572625
0.0611524
0.0610588
0.0609695
0.0608818
0.0607945
0.0607103
0.0606354
0.0605613
0.0604909
0.0604237
0.0603574
0.0602921
0.0602283
0.0601664
0.0601057
0.0600433
0.0599806
0.0599193
0.0598584
0.0597978
0.0597388
0.0596804
0.0596209
0.0595635
0.059511
0.0594677
0.0594349
0.0594129
0.0594021
0.0594009
0.0594033
0.0594041
0.059398
0.0593789
0.0593427
0.0592887
0.0592163
0.0591268
0.0590225
0.0589068
0.0587843
0.0586559
0.0585224
0.058384
0.0582347
0.0580572
0.0578549
0.0576311
0.057386
0.0571142
0.0611103
0.0609605
0.0608194
0.0606997
0.0605851
0.0604856
0.0603964
0.0603115
0.0602371
0.0601655
0.0600933
0.0600226
0.0599557
0.0598858
0.0598135
0.0597411
0.0596713
0.0596027
0.0595324
0.0594635
0.0593989
0.0593358
0.0592731
0.0592145
0.0591648
0.0591262
0.0591023
0.059095
0.0591046
0.0591286
0.0591583
0.0591856
0.0592038
0.0592079
0.0591944
0.0591601
0.0591033
0.0590263
0.0589319
0.0588233
0.0587024
0.05857
0.0584271
0.0582739
0.0581056
0.0579253
0.0576997
0.0574416
0.0571458
0.0568054
0.061116
0.0607649
0.060499
0.0603239
0.0601985
0.0601186
0.0600185
0.0599435
0.0598793
0.0598002
0.059718
0.0596366
0.05956
0.0594876
0.0594098
0.0593296
0.0592514
0.0591734
0.0590985
0.0590311
0.0589676
0.0588982
0.0588375
0.0587862
0.0587463
0.0587234
0.0587235
0.0587463
0.0587879
0.0588421
0.0588989
0.0589524
0.0589954
0.0590201
0.0590204
0.0589972
0.0589512
0.0588831
0.0587944
0.058687
0.0585627
0.0584215
0.0582637
0.0580889
0.0578897
0.0576665
0.0574229
0.0571085
0.0567212
0.0562403
0.0603911
0.0599417
0.0598103
0.0597718
0.0597604
0.0597532
0.0597433
0.0597254
0.0596841
0.059608
0.0595283
0.0594434
0.0593419
0.0592252
0.0590739
0.0589388
0.0588188
0.0587113
0.0586206
0.0585361
0.0584704
0.0584167
0.0583634
0.0583216
0.0583031
0.0583165
0.0583563
0.0584137
0.0584886
0.0585739
0.0586581
0.0587354
0.0587928
0.0588256
0.0588329
0.0588161
0.0587742
0.0587055
0.058612
0.0584962
0.058361
0.0582026
0.0580223
0.0578126
0.057565
0.0572729
0.0569588
0.0565426
0.0559286
0.0550485
0.0571801
0.0568582
0.0567973
0.0568852
0.0570765
0.0573374
0.0576373
0.0579422
0.0582225
0.0584543
0.0586215
0.0587161
0.0587383
0.0586958
0.0585981
0.0584774
0.0583518
0.058232
0.0581279
0.0580455
0.0579845
0.0579498
0.0579398
0.0579555
0.0579936
0.0580514
0.0581256
0.0582114
0.0583049
0.0584
0.058488
0.0585588
0.0586076
0.058634
0.0586352
0.0586141
0.0585603
0.0584771
0.0583698
0.0582385
0.0580806
0.0578893
0.0576638
0.0573944
0.0570578
0.0566311
0.0560426
0.0553777
0.0538448
0.0516509
0.0530777
0.0529328
0.052979
0.0532046
0.0535871
0.0540919
0.0546827
0.0553181
0.0559524
0.0565508
0.0570838
0.0575293
0.0578764
0.058124
0.0582784
0.0583532
0.0583657
0.0583343
0.0582808
0.0582223
0.0581683
0.0581269
0.0581047
0.0581023
0.058119
0.0581524
0.0581979
0.0582491
0.0583014
0.0583515
0.0583962
0.0584296
0.0584471
0.0584432
0.0584138
0.0583616
0.0582819
0.0581748
0.0580403
0.0578865
0.057657
0.0573876
0.0570645
0.0566327
0.0560459
0.0551264
0.0533767
0.0460698
0.0373992
0.0375598
0.0495049
0.0494421
0.0495419
0.0498088
0.0502296
0.0507807
0.0514341
0.0521599
0.052931
0.0537223
0.0545149
0.0553033
0.0560336
0.0566655
0.0572017
0.0576509
0.0580109
0.0582834
0.0584742
0.0585938
0.0586557
0.0586736
0.0586632
0.0586358
0.0586001
0.0585632
0.0585283
0.0584966
0.0584679
0.0584408
0.0584112
0.0583731
0.0583231
0.0582582
0.0581754
0.0580723
0.0579386
0.0577699
0.0575583
0.057292
0.0569303
0.0564334
0.0556781
0.0544108
0.052375
0.0495685
0.0467788
0.0450036
0.0444407
0.0441166
0.0468623
0.0468566
0.0469754
0.0472148
0.0475615
0.0479982
0.0485066
0.0490717
0.0496816
0.050339
0.0510682
0.051839
0.0526489
0.0534834
0.0543063
0.0550753
0.0557503
0.0563585
0.0569206
0.0574111
0.0578205
0.0581445
0.0583867
0.0585557
0.0586611
0.0587134
0.0587238
0.0587014
0.0586529
0.0585839
0.0584977
0.0583967
0.0582772
0.0581356
0.0579709
0.0577777
0.0575399
0.0572439
0.0568655
0.0563754
0.055723
0.0548413
0.053646
0.052083
0.0502023
0.0481924
0.0464092
0.0451846
0.0445839
0.044381
0.044329
0.0443487
0.0444612
0.0446644
0.0449493
0.0453046
0.0457195
0.0461842
0.0466904
0.0472445
0.0478397
0.0484715
0.0491388
0.0498392
0.0505691
0.0513225
0.0520907
0.0528325
0.0535097
0.0541752
0.0548215
0.0554275
0.0559771
0.0564607
0.0568723
0.0572092
0.0574715
0.0576621
0.0577846
0.0578445
0.0578457
0.0577914
0.0576827
0.0575162
0.0572875
0.0569881
0.0566025
0.0561133
0.0554972
0.054732
0.0537996
0.0526872
0.0513992
0.0499914
0.0485495
0.0471951
0.0460548
0.0452024
0.0446437
0.0442926
0.0410804
0.0411675
0.041352
0.0416373
0.042022
0.0425016
0.0430681
0.0437114
0.0444176
0.0450348
0.0454778
0.0458452
0.0461781
0.0465151
0.0468836
0.0473047
0.0477945
0.0483656
0.0490277
0.0497462
0.0504048
0.0510142
0.0515966
0.0521507
0.0526679
0.0531395
0.0535583
0.0539175
0.0542101
0.0544297
0.0545707
0.054629
0.0545993
0.0544758
0.0542532
0.0539241
0.0534815
0.0529201
0.0522417
0.0514544
0.0505732
0.0496189
0.0486224
0.0476245
0.046664
0.0457749
0.0449853
0.0443043
0.0437274
0.0432346
0.0708467
0.0707153
0.0705254
0.070247
0.069864
0.0693698
0.0687659
0.0680601
0.0672663
0.0664809
0.0657667
0.0650915
0.0644488
0.0638298
0.063228
0.0626374
0.0620533
0.0614719
0.060889
0.0603007
0.0597911
0.0593574
0.0589788
0.0586453
0.0583513
0.0580909
0.0578563
0.0576397
0.0574329
0.0572283
0.0570185
0.0567961
0.0565551
0.0562897
0.0559946
0.0556667
0.0553045
0.0549083
0.0544805
0.0540265
0.0535529
0.0530675
0.0525817
0.0521015
0.0516384
0.0511967
0.0507741
0.0503708
0.0499727
0.0495644
0.00545337
0.00543158
0.00541424
0.00539988
0.00538437
0.00536579
0.0053443
0.00532103
0.00529669
0.00527112
0.00524374
0.00521393
0.00518139
0.00514631
0.0051093
0.00507137
0.00503375
0.00499783
0.00496473
0.00493526
0.00488826
0.00486561
0.00484558
0.00482966
0.00481841
0.00481155
0.0048086
0.00481139
0.00481642
0.00482172
0.00482604
0.00484712
0.00485824
0.00485914
0.00483071
0.00479855
0.00476113
0.00471828
0.00467237
0.00462639
0.00458343
0.00454602
0.00451586
0.00449364
0.00447838
0.00446842
0.00446131
0.00445444
0.00444578
0.00443443
0.00538448
0.00525914
0.00513869
0.00502815
0.00493076
0.00484452
0.00476565
0.00469004
0.00461427
0.00453603
0.00445393
0.00436762
0.00427761
0.00418536
0.00409291
0.00400252
0.00391634
0.00383598
0.00376184
0.00369954
0.00361829
0.0154747
0.0155982
0.0156837
0.0157475
0.0158022
0.0158562
0.0158983
0.015947
0.016012
0.0160897
0.0162057
0.0161758
0.0160588
0.0158546
0.0157401
0.0156502
0.015556
0.0154486
0.015334
0.0152235
0.0151292
0.0150585
0.015012
0.014984
0.0149648
0.0149425
0.0149053
0.0148447
0.0147574
0.00538622
0.0052655
0.00514921
0.00503915
0.00493631
0.00484026
0.00474949
0.00466193
0.00457545
0.0044884
0.00439971
0.00430906
0.00421681
0.00412393
0.00403183
0.00394202
0.00385593
0.00377371
0.00364208
0.0154966
0.015397
0.0152568
0.0151185
0.0150007
0.0149095
0.0148453
0.0148056
0.0147856
0.0147802
0.0147828
0.0147856
0.0147665
0.0147273
0.0146578
0.0145654
0.0144391
0.0142841
0.0141085
0.0139236
0.0137427
0.0135779
0.0134379
0.0133262
0.0132415
0.0131793
0.013131
0.0130869
0.0130381
0.0129779
0.0129029
0.00538503
0.00526502
0.005151
0.00504391
0.0049432
0.00484781
0.00475637
0.00466729
0.00457896
0.00449002
0.00439966
0.0043077
0.00421461
0.00412146
0.00402959
0.00394047
0.00385543
0.00377468
0.0036435
0.0155208
0.0154261
0.0152815
0.0151328
0.0150013
0.0148948
0.0148145
0.014758
0.0147208
0.0146967
0.014678
0.0146564
0.0146224
0.0145666
0.0144819
0.0143643
0.014214
0.0140357
0.013838
0.013633
0.013434
0.0132525
0.0130965
0.0129692
0.0128696
0.0127921
0.0127284
0.0126691
0.0126064
0.0125357
0.0124558
0.00538421
0.00526302
0.00514828
0.00504118
0.00494108
0.00484645
0.00475558
0.00466662
0.00457796
0.00448835
0.00439713
0.00430431
0.00421059
0.00411717
0.00402554
0.00393714
0.00385328
0.00377411
0.00364491
0.0155415
0.0154544
0.0153158
0.0151705
0.0150395
0.0149306
0.0148451
0.014781
0.014734
0.0146985
0.0146678
0.0146338
0.0145882
0.0145229
0.0144312
0.0143093
0.0141572
0.0139795
0.0137845
0.0135835
0.0133889
0.0132115
0.0130587
0.0129334
0.0128343
0.012756
0.0126903
0.0126278
0.0125604
0.0124838
0.0123977
0.00538417
0.00526251
0.00514728
0.00503993
0.00494006
0.00484599
0.0047557
0.00466714
0.00457856
0.00448872
0.00439708
0.00430386
0.00420991
0.0041166
0.00402544
0.00393794
0.00385539
0.00377791
0.00364961
0.0155825
0.0155029
0.0153705
0.0152295
0.0150996
0.0149883
0.014897
0.0148238
0.0147652
0.0147165
0.0146719
0.0146248
0.0145679
0.0144941
0.0143974
0.0142742
0.0141247
0.0139525
0.0137653
0.0135733
0.0133879
0.013219
0.0130733
0.0129534
0.0128576
0.0127807
0.0127151
0.0126519
0.0125832
0.0125047
0.012416
0.00538437
0.00526277
0.00514734
0.00503975
0.00493967
0.00484548
0.00475497
0.00466603
0.00457684
0.00448624
0.00439385
0.00430003
0.00420579
0.00411257
0.00402202
0.00393567
0.00385481
0.00378045
0.00371375
0.0155548
0.0154379
0.0153197
0.015205
0.0150988
0.0150037
0.0149204
0.0148477
0.0147836
0.0147251
0.0146686
0.0146094
0.0145421
0.0144608
0.0143605
0.0142381
0.0140932
0.0139289
0.0137516
0.0135706
0.013396
0.0132368
0.013099
0.0129845
0.0128919
0.012816
0.0127493
0.0126839
0.0126126
0.0125314
0.0124401
0.00538445
0.00526293
0.00514751
0.00503994
0.00493982
0.00484546
0.00475459
0.00466505
0.00457509
0.00448367
0.00439055
0.00429621
0.00420179
0.00410888
0.00401918
0.00393428
0.00385537
0.0037832
0.00371837
0.0155973
0.0154875
0.0153754
0.0152644
0.0151581
0.0150586
0.0149662
0.0148803
0.0148001
0.0147242
0.0146508
0.014577
0.0144986
0.0144108
0.0143092
0.0141904
0.0140536
0.0139007
0.0137368
0.0135697
0.0134082
0.0132603
0.013131
0.0130222
0.0129324
0.0128569
0.0127886
0.0127201
0.0126452
0.0125602
0.0124655
0.00538438
0.00526283
0.00514743
0.00503993
0.0049399
0.00484536
0.00475405
0.0046638
0.00457296
0.00448063
0.00438666
0.0042917
0.00419706
0.00410447
0.00401574
0.00393245
0.00385571
0.00378606
0.00372391
0.0156452
0.0155447
0.0154388
0.01533
0.015221
0.0151135
0.0150081
0.0149056
0.0148063
0.014711
0.0146197
0.014531
0.0144423
0.0143496
0.0142488
0.0141364
0.0140106
0.013872
0.0137241
0.0135733
0.0134267
0.0132909
0.0131704
0.0130669
0.012979
0.0129025
0.0128314
0.0127588
0.0126791
0.0125895
0.0124904
0.00538431
0.00526282
0.00514749
0.00504009
0.00494006
0.00484531
0.00475353
0.00466257
0.00457088
0.00447763
0.00438284
0.00428732
0.00419257
0.00410048
0.0040129
0.0039314
0.00385697
0.00378997
0.00373061
0.0156992
0.0156076
0.0155074
0.0153996
0.0152861
0.0151685
0.0150484
0.0149274
0.0148078
0.0146924
0.014583
0.01448
0.014382
0.014286
0.014188
0.014084
0.0139712
0.0138488
0.0137185
0.0135849
0.0134534
0.0133295
0.0132168
0.013117
0.0130292
0.01295
0.012874
0.0127954
0.0127091
0.0126133
0.0125088
0.00538432
0.00526314
0.00514799
0.00504068
0.00494052
0.00484545
0.00475311
0.00466137
0.00456876
0.00447456
0.00437892
0.0042829
0.00418817
0.00409672
0.00401045
0.00393085
0.0038588
0.00379452
0.00373795
0.0157547
0.0156703
0.0155732
0.0154644
0.0153454
0.0152176
0.0150828
0.0149437
0.0148046
0.0146699
0.0145434
0.0144273
0.0143216
0.014224
0.0141306
0.0140369
0.0139386
0.0138334
0.0137216
0.0136054
0.0134888
0.0133757
0.0132696
0.013172
0.0130826
0.0129987
0.0129158
0.012829
0.0127345
0.0126311
0.0125202
0.00538447
0.00526386
0.00514901
0.00504171
0.00494133
0.00484582
0.00475277
0.00466016
0.00456654
0.00447134
0.00437491
0.00427849
0.00418393
0.00409328
0.00400843
0.00393081
0.0038612
0.00379963
0.0037457
0.0158328
0.0157351
0.015618
0.015495
0.0153673
0.0152327
0.0150901
0.0149407
0.0147891
0.0146411
0.0145026
0.0143775
0.0142674
0.0141707
0.0140838
0.0140013
0.0139181
0.0138304
0.0137366
0.0136371
0.013534
0.0134303
0.0133291
0.0132321
0.0131393
0.0130489
0.0129572
0.0128605
0.0127563
0.0126442
0.0125262
0.00538472
0.00526487
0.00515038
0.00504304
0.00494239
0.00484631
0.00475249
0.00465893
0.00456428
0.00446813
0.00437104
0.00427443
0.00418024
0.00409057
0.00400728
0.00393174
0.00386459
0.00380569
0.0037543
0.0158898
0.0157969
0.0156797
0.0155522
0.0154158
0.0152686
0.0151098
0.0149422
0.014772
0.0146071
0.0144553
0.0143217
0.0142087
0.0141149
0.0140362
0.0139666
0.0138999
0.0138305
0.0137549
0.0136717
0.0135815
0.0134864
0.0133891
0.0132915
0.0131941
0.0130956
0.0129937
0.0128861
0.0127715
0.0126505
0.0125252
0.00538505
0.00526603
0.00515188
0.00504446
0.00494344
0.00484671
0.00475201
0.00465739
0.00456167
0.00446461
0.00436694
0.00427022
0.00417649
0.00408785
0.00400615
0.00393265
0.00386788
0.00381143
0.00376225
0.0159313
0.0158447
0.0157288
0.0155976
0.0154526
0.0152925
0.0151175
0.0149322
0.0147449
0.0145656
0.0144031
0.0142637
0.01415
0.0140608
0.0139916
0.0139356
0.0138852
0.0138336
0.0137752
0.013707
0.0136283
0.0135405
0.0134459
0.0133466
0.0132434
0.0131359
0.0130234
0.0129048
0.0127801
0.0126504
0.0125182
0.0053854
0.0052672
0.00515336
0.00504589
0.00494449
0.00484712
0.00475158
0.00465604
0.00455946
0.00446177
0.00436384
0.00426733
0.00417432
0.00408693
0.00400693
0.00393549
0.0038729
0.00381856
0.00377011
0.0036638
0.015553
0.0155524
0.0154922
0.0153879
0.0152478
0.0150793
0.0148926
0.0147003
0.0145154
0.0143489
0.0142085
0.0140974
0.0140147
0.0139557
0.013913
0.013878
0.0138422
0.0137988
0.0137433
0.0136742
0.013592
0.0134988
0.0133965
0.0132868
0.0131703
0.0130476
0.012919
0.0127852
0.0126479
0.0125098
0.00538578
0.0052683
0.00515469
0.00504697
0.00494492
0.00484664
0.00475001
0.00465334
0.00455576
0.00445732
0.00435904
0.00426268
0.00417036
0.00408417
0.00400578
0.00393618
0.0038755
0.00382295
0.00377592
0.00366803
0.0155655
0.0155631
0.0154991
0.015388
0.0152384
0.0150591
0.0148618
0.0146603
0.0144687
0.0142987
0.0141581
0.0140504
0.0139744
0.0139252
0.0138946
0.0138728
0.0138505
0.0138197
0.0137751
0.013714
0.0136365
0.0135442
0.0134394
0.0133244
0.0132013
0.0130714
0.0129361
0.0127967
0.0126556
0.0125157
0.00538613
0.00526937
0.00515612
0.00504841
0.00494608
0.00484729
0.00475003
0.00465273
0.00455463
0.00445591
0.00435771
0.00426186
0.00417045
0.0040855
0.00400856
0.00394049
0.00388127
0.00382996
0.00378376
0.00367674
0.0156
0.0155908
0.0155203
0.0154015
0.0152431
0.0150552
0.0148505
0.0146438
0.0144496
0.0142798
0.0141424
0.0140406
0.0139731
0.0139341
0.013915
0.0139055
0.0138956
0.0138767
0.0138429
0.0137908
0.0137199
0.0136318
0.0135291
0.0134149
0.0132919
0.0131625
0.0130286
0.0128922
0.0127567
0.0126257
0.00538645
0.00526949
0.00515547
0.00504664
0.00494306
0.00484298
0.00474451
0.00464616
0.00454727
0.00444814
0.00434999
0.00425467
0.00416429
0.00408075
0.00400546
0.0039391
0.00388155
0.00383178
0.00378724
0.0161536
0.0159334
0.0157766
0.0156384
0.0154844
0.0153063
0.0151125
0.0149118
0.0147167
0.0145393
0.0143903
0.0142765
0.0142004
0.0141597
0.014133
0.0141251
0.0141288
0.0141343
0.0141326
0.0141299
0.014111
0.0140727
0.0140147
0.0139389
0.013849
0.0137482
0.0136397
0.0135265
0.0134121
0.0133008
0.0131978
0.00538708
0.00527155
0.00515933
0.0050521
0.00495121
0.00485427
0.00475939
0.00466501
0.00457031
0.0044754
0.00438136
0.00428991
0.00420306
0.00412291
0.00405194
0.00399067
0.00393882
0.00389643
0.00386182
0.00383285
0.0037663
0.00372867
0.0160957
0.0161967
0.016102
0.0159633
0.0158182
0.0156875
0.0155837
0.0155151
0.0154874
0.0155023
0.0155547
0.0156744
0.0156866
0.0156593
0.0156204
0.0155761
0.0154872
0.0155122
0.01557
0.0156197
0.015644
0.0156386
0.0156056
0.0155492
0.0154754
0.0153911
0.0153045
0.0152248
0.00545626
0.00543516
0.00541382
0.00539314
0.00537117
0.00534743
0.00532112
0.0052921
0.00526091
0.00522867
0.00519685
0.005167
0.00514053
0.00511851
0.00510099
0.00508844
0.00508054
0.00507513
0.00507001
0.00506272
0.00502919
0.00500195
0.00497525
0.00494525
0.00492037
0.00488486
0.00484499
0.00480568
0.00477059
0.00474208
0.00472102
0.00470706
0.00469916
0.00471362
0.0047241
0.00473043
0.00473229
0.00472915
0.00470342
0.00467955
0.00465637
0.0046331
0.00460921
0.00458437
0.0045584
0.00453136
0.00450354
0.00447545
0.00444775
0.00442107
0.0101946
0.00925593
0.00970087
0.0107293
0.0116691
0.0122014
0.0122783
0.0120053
0.0115383
0.0110141
0.0105172
0.0100703
0.00974117
0.0097201
0.00999999
0.0102938
0.0105604
0.0107573
0.0107713
0.0104794
0.0102089
0.00921869
0.00966367
0.0106971
0.0116323
0.0121489
0.0122044
0.0119118
0.0114327
0.0109059
0.0104127
0.00996976
0.00966662
0.00971867
0.00996035
0.0102268
0.0105039
0.010722
0.0107428
0.0104341
0.0102196
0.00917688
0.00962264
0.0106611
0.0115916
0.0120937
0.0121307
0.0118232
0.0113377
0.0108156
0.0103383
0.00992023
0.00962972
0.00964112
0.00983445
0.0101056
0.0104093
0.0106515
0.0106867
0.0103913
0.0102273
0.00913447
0.00958292
0.0106276
0.0115545
0.0120427
0.0120613
0.0117379
0.0112445
0.0107257
0.0102635
0.00986693
0.00958228
0.0095746
0.00972483
0.0099868
0.0103112
0.0105764
0.0106265
0.0103478
0.0102332
0.00909334
0.00954605
0.0105981
0.0115212
0.0119945
0.011993
0.0116517
0.0111486
0.0106311
0.010183
0.00980915
0.00953657
0.0095024
0.00961615
0.00986727
0.010211
0.0105005
0.0105665
0.0103073
0.0102399
0.0090552
0.00951351
0.0105735
0.0114918
0.0119478
0.0119232
0.0115612
0.0110463
0.0105286
0.010094
0.00974138
0.00948596
0.00942365
0.00950643
0.00975
0.010115
0.0104301
0.0105126
0.0102721
0.0102488
0.00901972
0.00948488
0.0105532
0.0114648
0.0119001
0.0118487
0.0114629
0.0109338
0.0104144
0.00999265
0.00966358
0.00943423
0.00934723
0.009402
0.00964144
0.0100293
0.0103701
0.010468
0.0102418
0.0102599
0.00898476
0.00945857
0.0105355
0.0114385
0.0118495
0.0117678
0.0113556
0.0108101
0.0102879
0.00987738
0.00957506
0.00938807
0.00928449
0.00931017
0.0095461
0.00995589
0.0103208
0.0104318
0.0102138
0.0102719
0.00894752
0.00943255
0.0105187
0.0114113
0.0117956
0.0116809
0.0112401
0.0106771
0.0101508
0.00975048
0.00947655
0.00934715
0.00923962
0.00923391
0.00946336
0.00989161
0.0102776
0.0103991
0.0101852
0.0102825
0.00890603
0.00940562
0.0105022
0.0113835
0.0117391
0.0115895
0.0111186
0.0105367
0.0100043
0.00961271
0.00936551
0.00929988
0.00920498
0.00916927
0.00938737
0.00982943
0.0102336
0.0103644
0.0101538
0.0102902
0.00885964
0.00937775
0.0104869
0.0113568
0.0116822
0.0114956
0.0109924
0.0103893
0.00984856
0.00946225
0.00923473
0.00922589
0.00916367
0.00910719
0.00931081
0.00976276
0.0101835
0.0103245
0.0101196
0.0102943
0.00880931
0.00935032
0.0104743
0.0113333
0.0116268
0.0114004
0.0108617
0.0102341
0.00968143
0.00929531
0.00907622
0.009105
0.00909752
0.00903884
0.00922911
0.00968869
0.0101261
0.0102794
0.0100845
0.0102953
0.00875695
0.00932532
0.0104668
0.0113146
0.0115737
0.0113036
0.0107248
0.0100685
0.00949992
0.00910891
0.00888719
0.00891887
0.00899686
0.00896046
0.00914263
0.00960924
0.0100643
0.0102326
0.0100506
0.0102947
0.00870489
0.00930482
0.010466
0.0113016
0.0115225
0.0112031
0.0105789
0.00989006
0.00930197
0.00890255
0.00867294
0.00870594
0.00887193
0.00887522
0.00905597
0.0095295
0.0100028
0.0101877
0.0100193
0.0102939
0.00865492
0.0092901
0.0104726
0.0112937
0.0114711
0.0110962
0.0104216
0.0096968
0.00908762
0.00867892
0.00844408
0.00849991
0.00873906
0.00878984
0.00897456
0.00945411
0.00994532
0.0101471
0.00999075
0.0102943
0.00860764
0.00928144
0.0104858
0.0112891
0.011417
0.0109806
0.0102514
0.00948907
0.00885894
0.00844239
0.00821031
0.00831046
0.00860994
0.0087094
0.00890109
0.00938479
0.0098925
0.0101108
0.00996389
0.0102967
0.00856246
0.00927778
0.0105037
0.0112851
0.0113577
0.0108546
0.0100685
0.00926897
0.00861932
0.00819671
0.00797458
0.00813755
0.0084881
0.00863439
0.00883434
0.00932002
0.00984252
0.0100769
0.00993749
0.0103008
0.00851776
0.00927714
0.0105234
0.0112788
0.0112914
0.0107184
0.00987485
0.00903986
0.00837246
0.00794388
0.00773147
0.00796571
0.00836852
0.00856105
0.00877039
0.00925648
0.00979254
0.0100431
0.00991081
0.0103052
0.00847157
0.00927732
0.0105425
0.0112683
0.0112174
0.0105733
0.00967343
0.00880583
0.00812238
0.00768503
0.00747254
0.0077758
0.00824224
0.0084843
0.0087052
0.00919131
0.00974064
0.0100084
0.00988393
0.0103084
0.00842259
0.00927665
0.0105588
0.0112523
0.0111363
0.0104212
0.00946787
0.0085715
0.0078738
0.00742292
0.00719547
0.00755816
0.00810345
0.00840109
0.00863676
0.00912376
0.00968674
0.00997285
0.00985733
0.010309
0.0083708
0.00927439
0.0105715
0.0112306
0.0110491
0.0102648
0.00926197
0.00834183
0.00763241
0.00716396
0.00690934
0.00731868
0.00795388
0.00831192
0.00856562
0.00905505
0.00963215
0.00993741
0.00983143
0.0103064
0.00831761
0.00927085
0.0105805
0.0112035
0.0109569
0.0101065
0.00905953
0.00812192
0.00740484
0.00691744
0.0066341
0.00707678
0.00780164
0.00821999
0.00849367
0.00898692
0.00957831
0.00990274
0.0098062
0.0103013
0.00826531
0.00926676
0.0105857
0.011171
0.0108604
0.00994838
0.00886431
0.00791698
0.00719767
0.0066927
0.00639309
0.00685786
0.00765645
0.00812883
0.00842247
0.00892035
0.00952574
0.00986884
0.00978138
0.0102953
0.00821607
0.0092625
0.0105866
0.0111326
0.0107603
0.0097926
0.00868008
0.00773193
0.00701617
0.00649597
0.00618754
0.00667187
0.00752339
0.00804026
0.00835211
0.0088549
0.00947394
0.00983524
0.00975673
0.0102899
0.0081711
0.0092576
0.0105818
0.0110872
0.0106567
0.00964153
0.00851076
0.007571
0.00686355
0.00632907
0.00602147
0.00651745
0.00740306
0.00795427
0.00828159
0.00878951
0.00942218
0.00980158
0.00973241
0.0102863
0.00813041
0.00925061
0.0105695
0.0110336
0.0105507
0.00949805
0.00836033
0.0074373
0.00674065
0.00619006
0.00589183
0.00638886
0.00729429
0.00786998
0.00820997
0.00872362
0.00937049
0.00976819
0.00970899
0.0102845
0.0080931
0.00923948
0.0105473
0.0109711
0.0104436
0.00936554
0.00823237
0.00733254
0.00664649
0.00607677
0.00580074
0.00628125
0.00719683
0.00778731
0.00813722
0.00865783
0.00931998
0.00973627
0.00968725
0.0102841
0.00805783
0.00922204
0.0105135
0.0108998
0.0103378
0.00924747
0.00812954
0.00725688
0.00657937
0.00599104
0.00576552
0.00619495
0.0071144
0.00770846
0.00806446
0.00859313
0.00927163
0.00970681
0.00966737
0.0102841
0.00802342
0.00919642
0.0104669
0.0108203
0.0102358
0.00914679
0.00805302
0.0072089
0.00653741
0.00594024
0.00582837
0.00613543
0.00705691
0.00763941
0.00799563
0.00853211
0.00922717
0.00968048
0.00964895
0.0102836
0.00798896
0.00916128
0.0104071
0.010734
0.01014
0.00906525
0.00800233
0.00718564
0.00651813
0.00593218
0.00608191
0.00607534
0.00702399
0.00757561
0.00792923
0.00847439
0.00918651
0.00965667
0.00963114
0.0102819
0.00795401
0.00911592
0.0103343
0.0106423
0.010052
0.00900334
0.0079757
0.00718326
0.00651791
0.00595538
0.00619483
0.00624259
0.00699433
0.00751385
0.00786496
0.00841915
0.00914858
0.00963407
0.00961321
0.0102785
0.00791855
0.00906031
0.0102494
0.0105467
0.00997285
0.00896052
0.00797083
0.00719933
0.0065368
0.00597869
0.00600461
0.00634209
0.00695747
0.00744216
0.00780039
0.00836496
0.00911228
0.00961176
0.0095951
0.0102736
0.00788083
0.00899191
0.0101551
0.0104522
0.0099048
0.00893291
0.00798039
0.00723203
0.0065829
0.00604697
0.00598953
0.0063798
0.00690227
0.00736627
0.0077298
0.00831112
0.00907782
0.00959029
0.00957751
0.0102722
0.00783414
0.00891189
0.0100539
0.0103592
0.0098458
0.00891776
0.00800298
0.00728041
0.00664886
0.00610246
0.00595954
0.00635609
0.00682985
0.00728406
0.00765608
0.00825934
0.00904755
0.009572
0.00956167
0.0102749
0.00778091
0.00882179
0.00994633
0.0102672
0.00979438
0.00891361
0.00803799
0.00734547
0.00673933
0.00617544
0.00593433
0.00628208
0.00674538
0.00719941
0.00758792
0.00821365
0.0090272
0.00955742
0.00954874
0.010283
0.00772304
0.00872337
0.0098333
0.0101757
0.00974847
0.00891746
0.00808181
0.0074225
0.00685199
0.00628762
0.00595526
0.0061823
0.00665842
0.00712049
0.00753102
0.00818518
0.00901906
0.00954838
0.00953918
0.0102978
0.0076623
0.00861818
0.00971532
0.0100836
0.00970623
0.00892692
0.00813148
0.0075067
0.00698038
0.00644288
0.00605554
0.0060986
0.00658348
0.00705685
0.0074946
0.00817956
0.00902476
0.00954532
0.00953244
0.0103208
0.00759998
0.00850713
0.00959224
0.00998975
0.00966551
0.00893952
0.0081842
0.00759322
0.00711307
0.00661967
0.00619388
0.00607798
0.00653633
0.00701784
0.00748623
0.00819909
0.00904333
0.00954692
0.00952715
0.0103529
0.00753671
0.00839053
0.00946338
0.00989247
0.0096242
0.00895315
0.00823773
0.0076785
0.00724078
0.00679685
0.00637383
0.00613432
0.00652989
0.00701112
0.00751001
0.00824236
0.00907147
0.00955044
0.00952167
0.0103944
0.00747247
0.00826817
0.00932784
0.00979024
0.00958059
0.00896638
0.00829102
0.0077614
0.00736175
0.00696727
0.00656765
0.00626356
0.00657118
0.0070417
0.00756596
0.00830487
0.00910462
0.00955283
0.00951485
0.0104452
0.00740694
0.00813976
0.00918488
0.00968185
0.00953354
0.0089785
0.00834395
0.00784213
0.00747672
0.00712858
0.00675954
0.00644542
0.006661
0.00711139
0.00765074
0.00838071
0.00913855
0.00955202
0.00950641
0.0105051
0.00734004
0.00800536
0.00903419
0.00956664
0.00948229
0.00898923
0.00839681
0.00792159
0.00758704
0.00728236
0.00694813
0.00664956
0.00679602
0.0072185
0.00775883
0.00846426
0.00917066
0.00954748
0.00949683
0.0105742
0.00727217
0.00786563
0.00887593
0.00944431
0.00942632
0.00899831
0.00844994
0.00800075
0.00769439
0.00743165
0.00713676
0.00686218
0.00696987
0.00735761
0.00788364