/*--------------------------------*- C++ -*----------------------------------*\
  =========                 |
  \\      /  F ield         | OpenFOAM: The Open Source CFD Toolbox
   \\    /   O peration     | Website:  https://openfoam.org
    \\  /    A nd           | Version:  8
     \\/     M anipulation  |
\*---------------------------------------------------------------------------*/
FoamFile
{
    version     2.0;
    format      ascii;
    class       volScalarField;
    location    "600";
    object      epsilon;
}
// * * * * * * * * * * * * * * * * * * * * * * * * * * * * * * * * * * * * * //

dimensions      [0 2 -3 0 0 0 0];

internalField   nonuniform List<scalar> 
8400
(
0.022788
0.0225645
0.0224633
0.0223248
0.0221511
0.0219585
0.0217567
0.0215544
0.0213573
0.021178
0.0210329
0.0209342
0.0208903
0.0209107
0.0210075
0.0212004
0.0215263
0.0220476
0.0228018
0.0237357
0.0247315
0.0255871
0.0261358
0.0264377
0.0265508
0.0265243
0.0264015
0.0261964
0.0259059
0.0255454
0.0252148
0.0249642
0.0247924
0.0246087
0.0243118
0.0238527
0.0232499
0.022547
0.0217787
0.020981
0.0201608
0.0193
0.0183839
0.0174222
0.016444
0.0154856
0.0145751
0.0137275
0.0129453
0.0122229
0.0110836
0.0108101
0.0106061
0.0104785
0.0103993
0.0103614
0.0103559
0.0103637
0.0103754
0.0103834
0.0103826
0.0103719
0.0103513
0.0103208
0.0102809
0.0102336
0.0101794
0.0101205
0.0100669
0.0100247
0.00999864
0.00998771
0.00998142
0.00992164
0.00977769
0.00955333
0.00927904
0.00899749
0.00874567
0.00854583
0.00837276
0.00822996
0.00811245
0.0080192
0.00794322
0.00788149
0.00783324
0.00779494
0.00777134
0.00775769
0.00775265
0.00775787
0.00777664
0.00780909
0.0078521
0.00790111
0.00795021
0.00799395
0.0080278
0.00804974
0.0130774
0.0129618
0.0128302
0.01269
0.0125415
0.0123855
0.0122012
0.0119826
0.0117273
0.0114053
0.0109536
0.0104187
0.0104812
0.0104961
0.0104271
0.010305
0.0101423
0.00996395
0.00983869
0.00969236
0.00952648
0.00937858
0.00923302
0.00907211
0.00890944
0.00874787
0.00859606
0.00846585
0.00837106
0.00831607
0.0082277
0.00810917
0.0079944
0.00792708
0.00790878
0.00793028
0.00797675
0.00804746
0.00812657
0.00820293
0.00827804
0.00836228
0.00846774
0.00859057
0.00871778
0.00883964
0.00894629
0.00903281
0.00909762
0.00914235
0.0131401
0.0131057
0.0130707
0.0130334
0.0129931
0.0129497
0.0129022
0.0128509
0.0127953
0.0127334
0.0126621
0.0125917
0.0125328
0.0124767
0.012421
0.0123625
0.0122926
0.0122211
0.0121443
0.0120639
0.0119896
0.011921
0.0118313
0.0117131
0.0115785
0.0114452
0.0113141
0.0111882
0.011096
0.0109324
0.00970037
0.00896105
0.00863756
0.00854953
0.00857506
0.00865459
0.00878409
0.00892108
0.00900041
0.00900738
0.0090682
0.00914459
0.00924588
0.009367
0.00948337
0.00958315
0.00965893
0.00971047
0.00973913
0.00974692
0.0131533
0.0131351
0.0131166
0.0130976
0.013078
0.0130581
0.0130376
0.0130167
0.0129952
0.012973
0.0129499
0.0129259
0.0129012
0.012876
0.0128501
0.0128234
0.0127954
0.0127665
0.0127368
0.0127059
0.0126737
0.0126393
0.0125998
0.0125528
0.0124966
0.0124306
0.0123536
0.0122649
0.0121648
0.0120476
0.011878
0.0116527
0.0114051
0.011177
0.0109647
0.0107889
0.0106503
0.0104843
0.0102435
0.00955166
0.00964281
0.00981043
0.00989838
0.00995886
0.0100115
0.0100549
0.0100847
0.0100981
0.0100924
0.0100657
0.013145
0.0131177
0.0130908
0.0130638
0.013037
0.0130104
0.0129838
0.0129577
0.0129313
0.0129051
0.0128792
0.0128532
0.0128273
0.0128015
0.0127758
0.0127502
0.0127246
0.0126992
0.0126739
0.0126489
0.0126243
0.0126001
0.0125761
0.0125512
0.012524
0.0124928
0.0124558
0.0124106
0.0123553
0.0122871
0.0122001
0.0120907
0.0119586
0.0118111
0.0116525
0.0114908
0.0113326
0.0111764
0.0110183
0.01086
0.0107461
0.0106297
0.0105328
0.0104642
0.0104205
0.0103936
0.0103728
0.01035
0.0103219
0.0102854
0.0131436
0.0131146
0.013085
0.0130554
0.0130259
0.0129958
0.0129659
0.0129359
0.0129057
0.0128755
0.0128453
0.0128152
0.0127851
0.0127552
0.0127253
0.0126956
0.0126659
0.0126364
0.0126069
0.0125778
0.0125495
0.0125224
0.0124967
0.0124727
0.0124502
0.0124282
0.0124055
0.0123797
0.0123484
0.0123093
0.0122587
0.012194
0.0121133
0.0120171
0.0119069
0.0117861
0.011659
0.0115291
0.0114002
0.011278
0.0111712
0.0110817
0.0109934
0.01091
0.0108348
0.0107659
0.0107016
0.0106394
0.0105772
0.0105129
0.0131377
0.013102
0.0130667
0.0130312
0.0129954
0.0129595
0.0129242
0.0128885
0.0128531
0.012818
0.0127829
0.012748
0.0127133
0.0126787
0.0126443
0.0126101
0.0125762
0.0125426
0.0125094
0.012477
0.0124457
0.0124158
0.0123879
0.0123628
0.0123408
0.012322
0.0123054
0.0122897
0.012272
0.0122499
0.0122203
0.0121808
0.0121289
0.0120636
0.0119854
0.0118957
0.0117971
0.0116926
0.0115859
0.0114812
0.0113825
0.0112916
0.0112089
0.0111286
0.0110501
0.010972
0.0108938
0.0108152
0.0107348
0.0106519
0.0131296
0.0130843
0.0130391
0.0129942
0.012949
0.0129046
0.0128606
0.012817
0.0127738
0.0127308
0.0126883
0.0126464
0.0126049
0.012564
0.0125239
0.0124843
0.0124453
0.0124071
0.0123698
0.0123339
0.0123
0.0122686
0.0122405
0.0122163
0.0121965
0.0121818
0.0121715
0.0121642
0.0121574
0.0121485
0.0121345
0.0121122
0.0120793
0.0120348
0.0119782
0.0119103
0.0118326
0.0117474
0.0116574
0.0115659
0.0114755
0.0113881
0.0113044
0.0112246
0.0111446
0.0110624
0.0109771
0.0108885
0.0107959
0.0106989
0.0131142
0.0130507
0.0129878
0.0129261
0.0128664
0.0128082
0.0127499
0.0126933
0.012638
0.0125838
0.0125309
0.0124794
0.012429
0.0123796
0.0123315
0.0122855
0.0122414
0.0121993
0.0121593
0.0121222
0.0120882
0.0120585
0.0120344
0.0120167
0.0120057
0.0120008
0.0120012
0.0120062
0.0120131
0.0120182
0.0120186
0.0120113
0.0119937
0.0119645
0.0119234
0.0118706
0.0118074
0.0117358
0.0116579
0.0115762
0.0114925
0.0114082
0.0113243
0.0112407
0.0111569
0.0110708
0.0109796
0.0108819
0.0107772
0.0106661
0.0130782
0.0129707
0.0128733
0.0127798
0.0126929
0.0126093
0.0125292
0.0124537
0.0123805
0.0123107
0.012245
0.0121821
0.0121225
0.0120671
0.0120159
0.0119685
0.0119247
0.0118854
0.0118508
0.011821
0.0117961
0.0117775
0.0117663
0.0117634
0.0117688
0.011782
0.0118016
0.0118252
0.0118492
0.0118703
0.0118853
0.0118914
0.0118866
0.0118692
0.0118389
0.0117965
0.0117434
0.0116812
0.0116114
0.0115357
0.0114558
0.011373
0.0112878
0.0112002
0.0111094
0.0110157
0.0109167
0.0108078
0.0106891
0.0105611
0.0129388
0.0127169
0.0125635
0.0124336
0.0123123
0.0121972
0.0120988
0.0120079
0.0119237
0.0118505
0.0117879
0.011731
0.0116779
0.0116301
0.0115886
0.0115536
0.0115244
0.0115008
0.011482
0.0114689
0.0114625
0.0114651
0.0114759
0.0114955
0.0115246
0.0115612
0.0116023
0.0116454
0.0116867
0.0117226
0.0117502
0.0117664
0.0117696
0.0117595
0.0117365
0.0117009
0.0116535
0.0115959
0.0115298
0.0114568
0.011378
0.0112943
0.0112059
0.0111126
0.0110135
0.0109076
0.0107945
0.0106713
0.0105341
0.0103813
0.0120622
0.0117985
0.0116062
0.0114489
0.0113281
0.0112405
0.0111803
0.0111412
0.0111205
0.0111118
0.011108
0.0111059
0.0111056
0.0111077
0.0111117
0.0111161
0.0111211
0.0111289
0.011139
0.0111529
0.0111699
0.011193
0.0112279
0.0112729
0.0113241
0.01138
0.0114373
0.0114956
0.0115486
0.0115927
0.0116257
0.0116454
0.0116515
0.0116441
0.0116229
0.0115884
0.0115417
0.0114848
0.0114192
0.0113457
0.0112647
0.0111775
0.0110833
0.0109811
0.0108705
0.0107478
0.0106107
0.0104647
0.0102994
0.0101055
0.0105466
0.0103069
0.0101159
0.00997148
0.00987162
0.00981366
0.00979363
0.00980797
0.00985199
0.00992033
0.0100071
0.0101065
0.0102128
0.010321
0.0104263
0.0105252
0.0106165
0.0107005
0.0107771
0.0108484
0.0109174
0.0109845
0.0110516
0.0111194
0.0111872
0.0112543
0.0113181
0.0113774
0.0114286
0.01147
0.011501
0.0115202
0.0115263
0.0115194
0.0114955
0.011457
0.0114076
0.0113483
0.0112797
0.0112017
0.0111149
0.0110197
0.0109148
0.0107982
0.0106693
0.0105214
0.0103519
0.0101522
0.00993219
0.00964327
0.0090176
0.0087909
0.00859391
0.00843537
0.00832008
0.00825125
0.00822954
0.00825478
0.0083248
0.00843554
0.00858146
0.00875613
0.00895227
0.00916232
0.00937885
0.00959515
0.00980555
0.0100054
0.010191
0.0103608
0.0105147
0.0106535
0.0107776
0.0108882
0.010986
0.0110721
0.0111471
0.0112115
0.011265
0.0113069
0.0113366
0.0113537
0.0113578
0.0113492
0.0113251
0.0112866
0.0112369
0.0111758
0.0111038
0.0110172
0.0109169
0.0108081
0.0106841
0.0105442
0.010381
0.010186
0.00994499
0.0096246
0.00914512
0.0084506
0.00769282
0.00747941
0.00729128
0.00713758
0.00702378
0.00695259
0.00692499
0.00694026
0.00699646
0.00709083
0.00722021
0.00738187
0.00757521
0.00779643
0.00803945
0.00829593
0.00856055
0.00882824
0.00909415
0.00935343
0.00960141
0.00983418
0.0100485
0.0102425
0.010415
0.0105658
0.0106948
0.010803
0.0108912
0.0109601
0.0110108
0.0110447
0.0110618
0.0110621
0.0110448
0.0110118
0.0109657
0.0109057
0.0108299
0.010735
0.01062
0.0104866
0.010325
0.0101238
0.00984371
0.00942937
0.00881871
0.00805991
0.00735085
0.00681925
0.00663679
0.00646231
0.00631193
0.00619105
0.00610246
0.00604676
0.00602334
0.00603051
0.00606609
0.00612793
0.00621404
0.00632579
0.00646183
0.00662182
0.00680541
0.00701192
0.00723818
0.007479
0.0077279
0.00798516
0.00824784
0.00851217
0.00877319
0.00902598
0.00926613
0.00948974
0.00969351
0.00987516
0.0100333
0.0101669
0.0102755
0.0103594
0.0104189
0.0104549
0.0104675
0.0104576
0.010426
0.0103709
0.0102894
0.0101772
0.0100297
0.0098409
0.00959687
0.00928206
0.00888444
0.00841049
0.00788856
0.00737319
0.00692582
0.00657535
0.00561367
0.00547536
0.00535745
0.00526282
0.00519287
0.00514787
0.00512713
0.00512952
0.00515363
0.00519795
0.00526134
0.00534326
0.00544283
0.0055595
0.00569292
0.00584274
0.00600848
0.00618943
0.00638424
0.00658774
0.00679887
0.00701788
0.00724348
0.00747301
0.00770311
0.00793006
0.0081499
0.00835872
0.00855266
0.00872813
0.0088821
0.00901209
0.00911607
0.00919254
0.00924002
0.009257
0.00924176
0.00919158
0.00910344
0.0089746
0.00880258
0.00858636
0.0083257
0.00802399
0.00769328
0.00734933
0.00701222
0.00670291
0.00643325
0.00621026
0.00442324
0.00431332
0.00422021
0.00414611
0.00409247
0.00406015
0.00404958
0.00406095
0.00409438
0.00414976
0.0042248
0.00430609
0.00439042
0.00447633
0.00456453
0.00465698
0.00475644
0.00486605
0.00498914
0.00512915
0.00528755
0.00545743
0.00563281
0.00581137
0.00599148
0.0061713
0.00634852
0.00652051
0.00668454
0.00683769
0.00697694
0.00709924
0.00720169
0.00728171
0.00733701
0.00736562
0.00736602
0.00733711
0.00727845
0.00719062
0.00707543
0.00693616
0.00677689
0.00660276
0.00642049
0.00623692
0.00605736
0.00588642
0.00572679
0.00558014
0.0178994
0.0176736
0.0174687
0.0172648
0.0170497
0.0168127
0.0165463
0.0162453
0.0159074
0.0155326
0.0151261
0.0147093
0.0142908
0.0138771
0.0134723
0.0130789
0.0126979
0.0123295
0.0119735
0.0116292
0.0112958
0.0109817
0.0106941
0.0104344
0.0102018
0.00999462
0.00981129
0.00964956
0.00950687
0.00938041
0.00926723
0.00916436
0.00906885
0.00897783
0.00888867
0.00879891
0.00870645
0.00860957
0.00850691
0.00839761
0.00828145
0.00815866
0.0080294
0.0078952
0.00775608
0.00761332
0.00746794
0.00731925
0.00716783
0.0070125
9.32901e-06
9.20875e-06
9.08485e-06
8.95661e-06
8.82884e-06
8.70494e-06
8.58716e-06
8.4746e-06
8.36554e-06
8.25871e-06
8.15338e-06
8.04928e-06
7.9464e-06
7.84482e-06
7.74467e-06
7.64613e-06
7.54935e-06
7.45425e-06
7.36091e-06
7.26966e-06
7.1814e-06
7.07117e-06
6.9694e-06
6.87421e-06
6.78415e-06
6.69845e-06
6.61652e-06
6.5324e-06
6.44909e-06
6.36761e-06
6.28774e-06
6.20781e-06
6.12833e-06
6.04863e-06
5.96947e-06
5.88985e-06
5.81056e-06
5.73275e-06
5.65774e-06
5.58684e-06
5.52119e-06
5.46148e-06
5.4076e-06
5.35848e-06
5.31313e-06
5.26981e-06
5.22684e-06
5.18245e-06
5.13437e-06
5.07991e-06
8.98802e-06
8.41903e-06
7.91178e-06
7.44822e-06
7.01784e-06
6.61522e-06
6.23683e-06
5.88128e-06
5.54794e-06
5.23634e-06
4.94607e-06
4.67665e-06
4.42739e-06
4.19731e-06
3.98524e-06
3.78982e-06
3.60964e-06
3.44357e-06
3.2909e-06
3.15038e-06
3.10375e-06
7.30668e-07
7.26606e-07
7.22622e-07
7.19064e-07
7.16174e-07
7.14089e-07
7.14404e-07
7.16672e-07
7.20012e-07
7.23388e-07
7.13855e-07
7.07774e-07
7.03532e-07
7.11971e-07
7.16197e-07
7.17423e-07
7.16625e-07
7.14583e-07
7.11894e-07
7.09006e-07
7.06195e-07
7.03595e-07
7.01239e-07
6.98964e-07
6.96614e-07
6.94027e-07
6.91123e-07
6.87992e-07
6.84884e-07
8.97933e-06
8.38712e-06
7.84893e-06
7.35787e-06
6.90647e-06
6.48829e-06
6.09881e-06
5.73511e-06
5.39534e-06
5.07818e-06
4.78254e-06
4.50747e-06
4.25202e-06
4.01514e-06
3.79571e-06
3.59253e-06
3.40437e-06
3.23034e-06
3.15329e-06
7.28061e-07
7.17283e-07
7.09059e-07
7.02448e-07
6.96909e-07
6.92144e-07
6.87974e-07
6.84266e-07
6.8098e-07
6.77991e-07
6.75132e-07
6.72218e-07
6.689e-07
6.65164e-07
6.6099e-07
6.56556e-07
6.51802e-07
6.46784e-07
6.41642e-07
6.36562e-07
6.3174e-07
6.27312e-07
6.23349e-07
6.19842e-07
6.1671e-07
6.13825e-07
6.1102e-07
6.08103e-07
6.04886e-07
6.01274e-07
5.97411e-07
8.98188e-06
8.39467e-06
7.85826e-06
7.36512e-06
6.91043e-06
6.48955e-06
6.09854e-06
5.73443e-06
5.39507e-06
5.07889e-06
4.78459e-06
4.51102e-06
4.257e-06
4.02136e-06
3.80286e-06
3.6002e-06
3.41212e-06
3.23775e-06
3.16042e-06
7.29098e-07
7.18059e-07
7.09449e-07
7.02429e-07
6.96458e-07
6.91223e-07
6.8653e-07
6.82235e-07
6.78212e-07
6.74329e-07
6.70441e-07
6.66407e-07
6.62098e-07
6.57418e-07
6.52322e-07
6.46825e-07
6.40998e-07
6.34968e-07
6.28897e-07
6.22966e-07
6.17341e-07
6.12147e-07
6.07444e-07
6.03221e-07
5.99403e-07
5.95875e-07
5.92506e-07
5.89176e-07
5.85758e-07
5.82118e-07
5.78225e-07
8.98378e-06
8.39999e-06
7.86618e-06
7.37354e-06
6.91739e-06
6.49401e-06
6.10027e-06
5.7338e-06
5.39267e-06
5.07539e-06
4.7807e-06
4.50736e-06
4.2541e-06
4.01958e-06
3.80237e-06
3.60103e-06
3.41414e-06
3.24072e-06
3.16416e-06
7.29743e-07
7.18704e-07
7.1002e-07
7.02865e-07
6.96709e-07
6.91257e-07
6.86329e-07
6.81798e-07
6.7755e-07
6.73459e-07
6.69388e-07
6.65204e-07
6.60784e-07
6.56034e-07
6.50907e-07
6.45407e-07
6.39597e-07
6.33594e-07
6.27551e-07
6.21635e-07
6.16004e-07
6.10776e-07
6.0601e-07
6.01691e-07
5.97741e-07
5.94026e-07
5.90402e-07
5.86755e-07
5.83026e-07
5.7915e-07
5.75112e-07
8.98387e-06
8.40184e-06
7.87066e-06
7.3805e-06
6.92582e-06
6.50295e-06
6.10908e-06
5.74213e-06
5.40051e-06
5.08294e-06
4.78826e-06
4.51525e-06
4.26261e-06
4.0289e-06
3.81259e-06
3.6121e-06
3.42587e-06
3.25281e-06
3.17626e-06
7.31573e-07
7.20401e-07
7.11599e-07
7.04247e-07
6.97844e-07
6.92114e-07
6.86898e-07
6.82087e-07
6.77583e-07
6.73276e-07
6.69046e-07
6.64765e-07
6.60316e-07
6.55603e-07
6.50571e-07
6.45213e-07
6.39579e-07
6.33767e-07
6.27916e-07
6.22177e-07
6.16695e-07
6.11579e-07
6.06885e-07
6.02609e-07
5.98681e-07
5.94979e-07
5.91349e-07
5.87649e-07
5.83801e-07
5.79767e-07
5.75568e-07
8.9835e-06
8.4016e-06
7.87093e-06
7.38127e-06
6.92683e-06
6.50364e-06
6.10915e-06
5.74149e-06
5.39932e-06
5.08155e-06
4.78706e-06
4.51467e-06
4.26301e-06
4.03053e-06
3.81555e-06
3.61632e-06
3.43113e-06
3.25844e-06
3.09754e-06
7.26283e-07
7.18794e-07
7.11667e-07
7.05029e-07
6.98851e-07
6.93085e-07
6.87688e-07
6.82626e-07
6.77849e-07
6.73289e-07
6.68853e-07
6.64435e-07
6.59926e-07
6.55234e-07
6.50296e-07
6.45093e-07
6.39656e-07
6.34065e-07
6.28435e-07
6.22901e-07
6.17592e-07
6.12604e-07
6.07986e-07
6.03734e-07
5.99785e-07
5.9604e-07
5.92365e-07
5.88622e-07
5.84706e-07
5.80585e-07
5.76269e-07
8.98347e-06
8.4017e-06
7.87106e-06
7.38119e-06
6.9264e-06
6.50273e-06
6.10771e-06
5.73969e-06
5.39748e-06
5.08005e-06
4.78636e-06
4.51518e-06
4.26504e-06
4.03427e-06
3.82101e-06
3.62333e-06
3.4394e-06
3.26752e-06
3.10651e-06
7.27688e-07
7.20144e-07
7.12879e-07
7.06017e-07
6.9955e-07
6.93458e-07
6.87729e-07
6.82353e-07
6.77307e-07
6.7254e-07
6.67978e-07
6.63521e-07
6.59063e-07
6.54505e-07
6.49772e-07
6.44827e-07
6.39681e-07
6.34388e-07
6.29042e-07
6.23759e-07
6.18651e-07
6.13809e-07
6.09282e-07
6.05062e-07
6.01094e-07
5.97284e-07
5.9352e-07
5.8968e-07
5.85665e-07
5.81438e-07
5.77002e-07
8.98377e-06
8.40258e-06
7.87217e-06
7.38205e-06
6.9265e-06
6.50194e-06
6.106e-06
5.73726e-06
5.39469e-06
5.07738e-06
4.78431e-06
4.51421e-06
4.26552e-06
4.0364e-06
3.82482e-06
3.6287e-06
3.446e-06
3.2749e-06
3.11413e-06
7.28915e-07
7.21284e-07
7.13821e-07
7.06676e-07
6.99873e-07
6.9342e-07
6.87338e-07
6.81644e-07
6.76338e-07
6.71392e-07
6.66743e-07
6.62298e-07
6.5795e-07
6.5359e-07
6.49129e-07
6.4451e-07
6.39717e-07
6.34778e-07
6.29763e-07
6.24762e-07
6.19873e-07
6.1518e-07
6.10733e-07
6.06531e-07
6.02531e-07
5.98648e-07
5.94781e-07
5.90822e-07
5.86691e-07
5.8234e-07
5.77782e-07
8.98413e-06
8.40364e-06
7.87367e-06
7.38344e-06
6.92726e-06
6.50178e-06
6.10489e-06
5.73541e-06
5.39247e-06
5.07529e-06
4.78288e-06
4.51392e-06
4.26673e-06
4.03932e-06
3.82948e-06
3.63494e-06
3.45348e-06
3.28315e-06
3.12258e-06
7.30253e-07
7.22511e-07
7.14829e-07
7.07383e-07
7.00227e-07
6.93402e-07
6.86959e-07
6.80944e-07
6.75382e-07
6.70264e-07
6.65539e-07
6.6112e-07
6.56897e-07
6.52751e-07
6.48577e-07
6.44295e-07
6.3986e-07
6.35274e-07
6.30577e-07
6.25838e-07
6.21139e-07
6.16555e-07
6.12137e-07
6.07898e-07
6.03808e-07
5.99801e-07
5.95789e-07
5.91678e-07
5.87405e-07
5.82922e-07
5.78239e-07
8.9844e-06
8.40458e-06
7.87504e-06
7.38465e-06
6.9279e-06
6.50151e-06
6.10371e-06
5.73351e-06
5.39024e-06
5.07321e-06
4.78147e-06
4.51364e-06
4.26792e-06
4.04217e-06
3.83401e-06
3.64097e-06
3.46066e-06
3.291e-06
3.13054e-06
7.3147e-07
7.23581e-07
7.1572e-07
7.08039e-07
7.00589e-07
6.93433e-07
6.86656e-07
6.80336e-07
6.74529e-07
6.69245e-07
6.64451e-07
6.60065e-07
6.55974e-07
6.5205e-07
6.48169e-07
6.44223e-07
6.40142e-07
6.35895e-07
6.31495e-07
6.26987e-07
6.22438e-07
6.17917e-07
6.13474e-07
6.09136e-07
6.04895e-07
6.00706e-07
5.96501e-07
5.9221e-07
5.87767e-07
5.83148e-07
5.78346e-07
8.9846e-06
8.40527e-06
7.87598e-06
7.3854e-06
6.92806e-06
6.50081e-06
6.10217e-06
5.73134e-06
5.38781e-06
5.071e-06
4.77996e-06
4.51323e-06
4.26893e-06
4.04477e-06
3.83818e-06
3.64651e-06
3.46722e-06
3.2981e-06
3.13767e-06
7.30042e-07
7.21854e-07
7.14562e-07
7.07525e-07
7.00509e-07
6.93536e-07
6.8674e-07
6.80283e-07
6.74294e-07
6.68847e-07
6.6395e-07
6.59546e-07
6.55533e-07
6.51776e-07
6.48135e-07
6.44479e-07
6.40704e-07
6.36749e-07
6.32596e-07
6.28268e-07
6.23815e-07
6.19301e-07
6.1478e-07
6.1029e-07
6.05846e-07
6.01428e-07
5.96993e-07
5.92493e-07
5.87873e-07
5.83111e-07
5.78201e-07
8.9848e-06
8.40586e-06
7.87662e-06
7.38576e-06
6.92773e-06
6.49971e-06
6.10035e-06
5.72904e-06
5.38544e-06
5.06901e-06
4.77879e-06
4.51327e-06
4.27043e-06
4.04785e-06
3.84276e-06
3.65237e-06
3.474e-06
3.30534e-06
3.14489e-06
7.31125e-07
7.2275e-07
7.1524e-07
7.0796e-07
7.00681e-07
6.93438e-07
6.86386e-07
6.79706e-07
6.7355e-07
6.68006e-07
6.63095e-07
6.58767e-07
6.54913e-07
6.51388e-07
6.48033e-07
6.44692e-07
6.41232e-07
6.37563e-07
6.33638e-07
6.29458e-07
6.2506e-07
6.20503e-07
6.15855e-07
6.1117e-07
6.06486e-07
6.01811e-07
5.9713e-07
5.92411e-07
5.87622e-07
5.82731e-07
5.77732e-07
8.98496e-06
8.40623e-06
7.87696e-06
7.38565e-06
6.92687e-06
6.49802e-06
6.09788e-06
5.72605e-06
5.38231e-06
5.06615e-06
4.77658e-06
4.51204e-06
4.27041e-06
4.0491e-06
3.84522e-06
3.65581e-06
3.47809e-06
3.30968e-06
3.14904e-06
7.31714e-07
7.23207e-07
7.15507e-07
7.07998e-07
7.00473e-07
6.92988e-07
6.85718e-07
6.78864e-07
6.72592e-07
6.67004e-07
6.62125e-07
6.57906e-07
6.54236e-07
6.50955e-07
6.47883e-07
6.44841e-07
6.4167e-07
6.38251e-07
6.34514e-07
6.30439e-07
6.26056e-07
6.2142e-07
6.16614e-07
6.1171e-07
6.06773e-07
6.01837e-07
5.96918e-07
5.91998e-07
5.8706e-07
5.82077e-07
5.7703e-07
8.9851e-06
8.40647e-06
7.87705e-06
7.38528e-06
6.92597e-06
6.49661e-06
6.09616e-06
5.72431e-06
5.3809e-06
5.06542e-06
4.77683e-06
4.51348e-06
4.27312e-06
4.05303e-06
3.85022e-06
3.66162e-06
3.48436e-06
3.31602e-06
3.15506e-06
3.09128e-06
7.23892e-07
7.15984e-07
7.08246e-07
7.00486e-07
6.92777e-07
6.85311e-07
6.78302e-07
6.71929e-07
6.66302e-07
6.61451e-07
6.57327e-07
6.53812e-07
6.50735e-07
6.47899e-07
6.45101e-07
6.42161e-07
6.38934e-07
6.35329e-07
6.31309e-07
6.26897e-07
6.22153e-07
6.17171e-07
6.12046e-07
6.06865e-07
6.01693e-07
5.96565e-07
5.91486e-07
5.86441e-07
5.8141e-07
5.76369e-07
8.98516e-06
8.40629e-06
7.87608e-06
7.38317e-06
6.92261e-06
6.49199e-06
6.09052e-06
5.71802e-06
5.37436e-06
5.05904e-06
4.77095e-06
4.50836e-06
4.26888e-06
4.04969e-06
3.84767e-06
3.65966e-06
3.48274e-06
3.31446e-06
3.15327e-06
3.08911e-06
7.23466e-07
7.1545e-07
7.07588e-07
6.99704e-07
6.91883e-07
6.84328e-07
6.77262e-07
6.70872e-07
6.65275e-07
6.60502e-07
6.56504e-07
6.53158e-07
6.50282e-07
6.47667e-07
6.45092e-07
6.42358e-07
6.39301e-07
6.35813e-07
6.31849e-07
6.27425e-07
6.22612e-07
6.17513e-07
6.12245e-07
6.06919e-07
6.01622e-07
5.96408e-07
5.91302e-07
5.86296e-07
5.81369e-07
5.765e-07
8.98519e-06
8.40613e-06
7.87585e-06
7.38314e-06
6.92286e-06
6.49263e-06
6.09165e-06
5.71977e-06
5.37682e-06
5.06227e-06
4.77497e-06
4.51309e-06
4.27421e-06
4.05543e-06
3.85358e-06
3.66548e-06
3.4882e-06
3.31933e-06
3.1574e-06
3.09184e-06
7.23833e-07
7.1576e-07
7.07803e-07
6.99824e-07
6.9193e-07
6.8433e-07
6.77257e-07
6.709e-07
6.65379e-07
6.60727e-07
6.56894e-07
6.53753e-07
6.51115e-07
6.48756e-07
6.46449e-07
6.43974e-07
6.41155e-07
6.37872e-07
6.34079e-07
6.29789e-07
6.2508e-07
6.20068e-07
6.1489e-07
6.09679e-07
6.04545e-07
5.99562e-07
5.94768e-07
5.90177e-07
5.85777e-07
5.81554e-07
8.98517e-06
8.40184e-06
7.86684e-06
7.36993e-06
6.90625e-06
6.47372e-06
6.07157e-06
5.6995e-06
5.35718e-06
5.04387e-06
4.75822e-06
4.49823e-06
4.26131e-06
4.04445e-06
3.8444e-06
3.65792e-06
3.4821e-06
3.31449e-06
3.15472e-06
7.23027e-07
7.1961e-07
7.1422e-07
7.07709e-07
7.00608e-07
6.93556e-07
6.86772e-07
6.80541e-07
6.75045e-07
6.70402e-07
6.66651e-07
6.63747e-07
6.61563e-07
6.59903e-07
6.58349e-07
6.56913e-07
6.55343e-07
6.53432e-07
6.51043e-07
6.48308e-07
6.44978e-07
6.41165e-07
6.37015e-07
6.327e-07
6.28383e-07
6.24204e-07
6.20271e-07
6.16641e-07
6.13346e-07
6.104e-07
6.07829e-07
8.98685e-06
8.40811e-06
7.88028e-06
7.39135e-06
6.93793e-06
6.51864e-06
6.13139e-06
5.77504e-06
5.44874e-06
5.15143e-06
4.88162e-06
4.63728e-06
4.41585e-06
4.21429e-06
4.02927e-06
3.85735e-06
3.69531e-06
3.54045e-06
3.39075e-06
3.24455e-06
3.19296e-06
3.13099e-06
7.29095e-07
7.20091e-07
7.17912e-07
7.17374e-07
7.17616e-07
7.18275e-07
7.19281e-07
7.20686e-07
7.22484e-07
7.24581e-07
7.26637e-07
7.16035e-07
7.09558e-07
7.05422e-07
7.02442e-07
7.00028e-07
7.09746e-07
7.14972e-07
7.171e-07
7.17154e-07
7.15906e-07
7.13934e-07
7.11655e-07
7.09358e-07
7.07227e-07
7.05368e-07
7.03867e-07
7.02861e-07
9.33687e-06
9.22439e-06
9.11366e-06
9.00228e-06
8.88873e-06
8.7724e-06
8.6555e-06
8.54019e-06
8.42825e-06
8.32081e-06
8.21822e-06
8.1201e-06
8.02534e-06
7.93241e-06
7.83952e-06
7.74499e-06
7.64756e-06
7.54656e-06
7.44206e-06
7.33485e-06
7.22472e-06
7.10564e-06
6.98365e-06
6.86342e-06
6.72777e-06
6.60784e-06
6.50243e-06
6.41029e-06
6.32959e-06
6.25793e-06
6.19299e-06
6.13255e-06
6.07441e-06
6.01559e-06
5.95508e-06
5.89201e-06
5.82588e-06
5.75679e-06
5.6863e-06
5.61479e-06
5.54323e-06
5.47269e-06
5.4041e-06
5.33799e-06
5.27443e-06
5.21295e-06
5.15285e-06
5.09326e-06
5.03328e-06
4.97204e-06
4.69755e-07
4.31268e-07
4.58679e-07
5.11023e-07
5.55205e-07
5.77544e-07
5.77314e-07
5.60464e-07
5.34867e-07
5.07422e-07
4.82832e-07
4.64246e-07
4.54262e-07
4.53752e-07
4.57864e-07
4.67999e-07
4.81076e-07
4.90851e-07
4.90948e-07
4.77084e-07
4.70448e-07
4.29677e-07
4.57046e-07
5.09665e-07
5.53768e-07
5.75561e-07
5.74515e-07
5.56895e-07
5.3086e-07
5.03404e-07
4.79185e-07
4.61449e-07
4.51772e-07
4.46574e-07
4.49127e-07
4.60763e-07
4.7635e-07
4.87518e-07
4.87911e-07
4.74554e-07
4.7087e-07
4.28042e-07
4.55328e-07
5.08163e-07
5.52142e-07
5.73365e-07
5.71511e-07
5.53155e-07
5.26697e-07
4.99195e-07
4.75157e-07
4.57618e-07
4.48107e-07
4.42326e-07
4.43914e-07
4.56143e-07
4.73048e-07
4.8519e-07
4.86072e-07
4.73039e-07
4.71469e-07
4.26435e-07
4.53624e-07
5.06646e-07
5.50476e-07
5.71129e-07
5.68477e-07
5.49414e-07
5.22575e-07
4.95087e-07
4.71358e-07
4.5405e-07
4.44489e-07
4.37879e-07
4.38894e-07
4.51717e-07
4.69928e-07
4.83041e-07
4.84357e-07
4.71563e-07
4.72032e-07
4.24778e-07
4.51891e-07
5.05084e-07
5.48733e-07
5.68772e-07
5.65295e-07
5.45515e-07
5.18296e-07
4.90878e-07
4.67562e-07
4.5054e-07
4.40425e-07
4.33329e-07
4.34095e-07
4.4749e-07
4.66948e-07
4.80987e-07
4.827e-07
4.70081e-07
4.72556e-07
4.23061e-07
4.50138e-07
5.03506e-07
5.46939e-07
5.66306e-07
5.61954e-07
5.41423e-07
5.13824e-07
4.86518e-07
4.63758e-07
4.47342e-07
4.36618e-07
4.2889e-07
4.29511e-07
4.43419e-07
4.63999e-07
4.78918e-07
4.8102e-07
4.68559e-07
4.73039e-07
4.21278e-07
4.48386e-07
5.01946e-07
5.45121e-07
5.63759e-07
5.58462e-07
5.37127e-07
5.09147e-07
4.81997e-07
4.59936e-07
4.44386e-07
4.3352e-07
4.24816e-07
4.25087e-07
4.39417e-07
4.60995e-07
4.76748e-07
4.79252e-07
4.66989e-07
4.73487e-07
4.19427e-07
4.46651e-07
5.00441e-07
5.43324e-07
5.61155e-07
5.54828e-07
5.32622e-07
5.04234e-07
4.77237e-07
4.55967e-07
4.41535e-07
4.31095e-07
4.21277e-07
4.2086e-07
4.35429e-07
4.57877e-07
4.74437e-07
4.77383e-07
4.65389e-07
4.73895e-07
4.1751e-07
4.44961e-07
4.99035e-07
5.41599e-07
5.58525e-07
5.51066e-07
5.27894e-07
4.99012e-07
4.72116e-07
4.51627e-07
4.38446e-07
4.29095e-07
4.18324e-07
4.16887e-07
4.3145e-07
4.54641e-07
4.72001e-07
4.75448e-07
4.6379e-07
4.74265e-07
4.15527e-07
4.43336e-07
4.9776e-07
5.39979e-07
5.55899e-07
5.47165e-07
5.22897e-07
4.93399e-07
4.66497e-07
4.46693e-07
4.34764e-07
4.27028e-07
4.15827e-07
4.13221e-07
4.27515e-07
4.51314e-07
4.69482e-07
4.73495e-07
4.62219e-07
4.74602e-07
4.13478e-07
4.41793e-07
4.96643e-07
5.38472e-07
5.5327e-07
5.431e-07
5.17571e-07
4.87301e-07
4.60238e-07
4.40961e-07
4.30207e-07
4.2451e-07
4.1356e-07
4.09864e-07
4.23655e-07
4.47922e-07
4.6692e-07
4.71567e-07
4.60687e-07
4.74904e-07
4.11351e-07
4.40334e-07
4.95699e-07
5.3709e-07
5.50623e-07
5.38826e-07
5.11846e-07
4.80638e-07
4.53259e-07
4.34327e-07
4.24638e-07
4.21213e-07
4.1125e-07
4.06747e-07
4.19867e-07
4.44474e-07
4.64332e-07
4.69679e-07
4.59197e-07
4.75166e-07
4.09142e-07
4.38963e-07
4.94927e-07
5.35829e-07
5.47935e-07
5.34308e-07
5.05679e-07
4.73368e-07
4.45521e-07
4.26752e-07
4.18004e-07
4.16922e-07
4.08639e-07
4.03739e-07
4.1612e-07
4.40963e-07
4.61715e-07
4.67831e-07
4.57745e-07
4.75371e-07
4.0685e-07
4.37696e-07
4.94342e-07
5.34696e-07
5.45196e-07
5.2952e-07
4.9904e-07
4.65472e-07
4.37035e-07
4.18291e-07
4.10382e-07
4.11592e-07
4.0555e-07
4.00714e-07
4.12382e-07
4.37381e-07
4.59064e-07
4.66018e-07
4.56333e-07
4.75523e-07
4.04491e-07
4.36558e-07
4.93967e-07
5.33694e-07
5.42397e-07
5.24444e-07
4.91923e-07
4.5697e-07
4.27853e-07
4.09064e-07
4.01957e-07
4.05367e-07
4.0193e-07
3.97598e-07
4.0864e-07
4.33739e-07
4.56385e-07
4.64242e-07
4.54961e-07
4.75634e-07
4.02101e-07
4.35581e-07
4.93823e-07
5.32824e-07
5.39529e-07
5.1907e-07
4.84333e-07
4.47899e-07
4.18055e-07
3.99201e-07
3.92939e-07
3.98496e-07
3.97856e-07
3.94399e-07
4.04921e-07
4.30072e-07
4.53696e-07
4.62506e-07
4.53628e-07
4.75721e-07
3.9971e-07
4.34783e-07
4.93907e-07
5.3207e-07
5.36566e-07
5.13384e-07
4.76282e-07
4.38304e-07
4.07715e-07
3.88805e-07
3.83491e-07
3.91243e-07
3.93474e-07
3.91172e-07
4.01269e-07
4.2642e-07
4.51012e-07
4.60804e-07
4.52327e-07
4.75804e-07
3.97328e-07
4.34165e-07
4.94191e-07
5.31392e-07
5.33467e-07
5.07366e-07
4.67786e-07
4.2824e-07
3.96908e-07
3.77935e-07
3.73661e-07
3.83761e-07
3.88895e-07
3.87957e-07
3.97713e-07
4.22801e-07
4.48329e-07
4.59118e-07
4.51046e-07
4.75887e-07
3.94945e-07
4.33698e-07
4.94626e-07
5.30728e-07
5.30189e-07
5.01009e-07
4.5888e-07
4.17782e-07
3.85722e-07
3.66613e-07
3.6336e-07
3.76012e-07
3.84119e-07
3.8473e-07
3.94231e-07
4.19202e-07
4.45625e-07
4.57424e-07
4.49777e-07
4.75953e-07
3.92545e-07
4.33346e-07
4.95152e-07
5.30018e-07
5.26703e-07
4.94326e-07
4.49628e-07
4.07038e-07
3.74273e-07
3.5488e-07
3.52454e-07
3.67824e-07
3.79038e-07
3.81389e-07
3.90758e-07
4.15586e-07
4.42874e-07
4.55704e-07
4.48524e-07
4.75978e-07
3.90124e-07
4.33082e-07
4.95715e-07
5.29215e-07
5.22993e-07
4.87355e-07
4.40128e-07
3.9616e-07
3.62745e-07
3.42878e-07
3.40941e-07
3.59057e-07
3.73509e-07
3.77804e-07
3.87209e-07
4.11918e-07
4.40069e-07
4.53962e-07
4.47303e-07
4.75944e-07
3.877e-07
4.32889e-07
4.96272e-07
5.28284e-07
5.19063e-07
4.80159e-07
4.30518e-07
3.8536e-07
3.5141e-07
3.30906e-07
3.28987e-07
3.49712e-07
3.6745e-07
3.73877e-07
3.83531e-07
4.08194e-07
4.37232e-07
4.52231e-07
4.46143e-07
4.75848e-07
3.85316e-07
4.32761e-07
4.96786e-07
5.27195e-07
5.14929e-07
4.72828e-07
4.20972e-07
3.74896e-07
3.40607e-07
3.19382e-07
3.16893e-07
3.39947e-07
3.60889e-07
3.69591e-07
3.79724e-07
4.04452e-07
4.34418e-07
4.50566e-07
4.4507e-07
4.75709e-07
3.83021e-07
4.32687e-07
4.97212e-07
5.25911e-07
5.10608e-07
4.65472e-07
4.11695e-07
3.65054e-07
3.30695e-07
3.08756e-07
3.05878e-07
3.30184e-07
3.53979e-07
3.65016e-07
3.7584e-07
4.00756e-07
4.31694e-07
4.49014e-07
4.44098e-07
4.75553e-07
3.80851e-07
4.32637e-07
4.97483e-07
5.24387e-07
5.06132e-07
4.58221e-07
4.02907e-07
3.56111e-07
3.21985e-07
2.99374e-07
2.9594e-07
3.20786e-07
3.46949e-07
3.6027e-07
3.7195e-07
3.97173e-07
4.29113e-07
4.47602e-07
4.43221e-07
4.75398e-07
3.78825e-07
4.32562e-07
4.97521e-07
5.22581e-07
5.01545e-07
4.51223e-07
3.9483e-07
3.48312e-07
3.14696e-07
2.91408e-07
2.87243e-07
3.1209e-07
3.40046e-07
3.55476e-07
3.68111e-07
3.93746e-07
4.26702e-07
4.46329e-07
4.42419e-07
4.75249e-07
3.76944e-07
4.32398e-07
4.97245e-07
5.20463e-07
4.96915e-07
4.44643e-07
3.87674e-07
3.41837e-07
3.08925e-07
2.84838e-07
2.79726e-07
3.04308e-07
3.33477e-07
3.50729e-07
3.64353e-07
3.90491e-07
4.24464e-07
4.45175e-07
4.41671e-07
4.75101e-07
3.75208e-07
4.32082e-07
4.96589e-07
5.18028e-07
4.92329e-07
4.38642e-07
3.81615e-07
3.36794e-07
3.04658e-07
2.7952e-07
2.73024e-07
2.97526e-07
3.27404e-07
3.46105e-07
3.60693e-07
3.87417e-07
4.22406e-07
4.44121e-07
4.40962e-07
4.74947e-07
3.73617e-07
4.31561e-07
4.95506e-07
5.1529e-07
4.87881e-07
4.33363e-07
3.76779e-07
3.3321e-07
3.01792e-07
2.753e-07
2.66265e-07
2.91816e-07
3.21963e-07
3.41666e-07
3.57158e-07
3.84556e-07
4.20552e-07
4.43167e-07
4.40292e-07
4.74784e-07
3.72176e-07
4.30789e-07
4.93964e-07
5.1227e-07
4.83654e-07
4.28914e-07
3.7323e-07
3.31035e-07
3.00171e-07
2.72179e-07
2.57459e-07
2.87417e-07
3.17249e-07
3.37481e-07
3.53798e-07
3.81967e-07
4.18954e-07
4.42332e-07
4.39668e-07
4.74615e-07
3.70887e-07
4.29727e-07
4.91939e-07
5.0899e-07
4.79708e-07
4.25355e-07