/*--------------------------------*- C++ -*----------------------------------*\
  =========                 |
  \\      /  F ield         | OpenFOAM: The Open Source CFD Toolbox
   \\    /   O peration     | Website:  https://openfoam.org
    \\  /    A nd           | Version:  8
     \\/     M anipulation  |
\*---------------------------------------------------------------------------*/
FoamFile
{
    version     2.0;
    format      ascii;
    class       volScalarField;
    location    "600";
    object      k;
}
// * * * * * * * * * * * * * * * * * * * * * * * * * * * * * * * * * * * * * //

dimensions      [0 2 -2 0 0 0 0];

internalField   nonuniform List<scalar> 
8400
(
0.00437561
0.00436779
0.00437834
0.00438217
0.0043767
0.00436417
0.00434742
0.00432967
0.00431401
0.00430346
0.00430058
0.00430758
0.00432489
0.00435296
0.00439531
0.0044561
0.00453811
0.00463938
0.00474813
0.00484627
0.00491858
0.00496447
0.00498419
0.00498325
0.00496602
0.00493547
0.00489306
0.00483878
0.00478137
0.00473295
0.00470155
0.00468143
0.00465446
0.00460552
0.00452874
0.00443318
0.00432278
0.00420203
0.00407967
0.00395752
0.00383235
0.00370017
0.00356164
0.00342067
0.00328205
0.00314987
0.00302653
0.00291279
0.00280807
0.00271115
0.00265766
0.00261245
0.002577
0.0025558
0.00254495
0.0025413
0.0025411
0.00254114
0.00254062
0.00253892
0.00253594
0.00253169
0.00252632
0.00252004
0.00251316
0.00250617
0.00249987
0.00249525
0.00249275
0.00249183
0.00249334
0.00248525
0.0024639
0.00242989
0.00238509
0.0023344
0.00228544
0.0022465
0.00221666
0.00219201
0.0021711
0.0021543
0.00214168
0.00213289
0.00212762
0.00211993
0.00211454
0.00211519
0.00211769
0.00212145
0.00212703
0.00213548
0.00214681
0.00216029
0.00217486
0.00218934
0.00220268
0.00221413
0.00222325
0.00223
0.00298361
0.00296079
0.00293178
0.00289851
0.00285878
0.00280667
0.00270611
0.00259097
0.00259685
0.00257303
0.00254187
0.00251973
0.00251834
0.00250861
0.00249143
0.00247
0.00244653
0.00242339
0.00240211
0.00238032
0.00235759
0.00233453
0.00231024
0.00228563
0.00226257
0.00224266
0.00222803
0.00222039
0.00221365
0.00219554
0.00217351
0.0021535
0.00214417
0.00214581
0.00215465
0.00216878
0.00218738
0.00220649
0.00222326
0.00223773
0.00225347
0.00227344
0.00229624
0.00231942
0.00234101
0.0023598
0.00237497
0.00238625
0.00239389
0.00239842
0.00299525
0.00299
0.00298456
0.00297825
0.00297087
0.0029621
0.00295088
0.0029395
0.00292826
0.00291555
0.0029007
0.0028863
0.00287327
0.00286145
0.00285035
0.00283971
0.00282943
0.00282111
0.00281242
0.00279981
0.00278428
0.00276803
0.00275059
0.00273094
0.00270951
0.00268938
0.00267514
0.00266335
0.00262052
0.00239734
0.0023169
0.00227592
0.00226714
0.0022769
0.00229941
0.00233069
0.00235904
0.00237462
0.00237585
0.00237467
0.00238693
0.00240413
0.002424
0.00244226
0.00245731
0.00246893
0.00247681
0.00248076
0.00248128
0.00247926
0.00299735
0.00299457
0.00299172
0.00298876
0.00298568
0.00298245
0.00297903
0.00297543
0.00297168
0.00296774
0.00296358
0.00295924
0.00295482
0.00295033
0.00294579
0.00294119
0.00293648
0.00293176
0.00292693
0.00292179
0.00291619
0.00291004
0.00290309
0.00289511
0.00288593
0.00287556
0.00286408
0.0028513
0.00283617
0.00281174
0.00278223
0.00275173
0.00272094
0.00269173
0.0026676
0.00264737
0.00262393
0.0025942
0.0025267
0.00246781
0.00250272
0.00251774
0.00252471
0.00252979
0.00253399
0.00253698
0.00253812
0.00253584
0.0025305
0.0025236
0.00299609
0.00299195
0.00298787
0.00298383
0.00297984
0.00297588
0.00297195
0.00296804
0.00296412
0.0029602
0.00295627
0.00295233
0.00294837
0.00294441
0.00294043
0.00293644
0.00293244
0.00292844
0.00292444
0.00292043
0.00291641
0.00291234
0.0029082
0.00290386
0.00289915
0.00289387
0.00288782
0.00288071
0.00287216
0.00286115
0.00284742
0.00283111
0.00281226
0.00279135
0.00276936
0.00274708
0.00272453
0.00270133
0.00267634
0.00265776
0.00263812
0.00261952
0.00260466
0.00259431
0.00258751
0.00258248
0.0025777
0.00257217
0.00256551
0.00255754
0.00299587
0.00299146
0.00298699
0.00298248
0.00297797
0.00297344
0.00296892
0.00296441
0.00295989
0.00295537
0.00295085
0.00294633
0.00294182
0.00293731
0.00293281
0.00292832
0.00292384
0.00291937
0.00291491
0.00291049
0.00290613
0.0029019
0.00289782
0.00289391
0.00289015
0.00288643
0.0028826
0.00287838
0.00287343
0.00286732
0.00285961
0.00284996
0.00283813
0.00282413
0.00280822
0.00279079
0.00277228
0.00275311
0.0027339
0.00271646
0.00270107
0.00268655
0.0026722
0.00265894
0.00264665
0.0026351
0.00262402
0.002613
0.00260172
0.00258987
0.00299499
0.00298959
0.0029842
0.00297881
0.00297345
0.00296809
0.00296276
0.00295746
0.00295217
0.00294693
0.00294169
0.00293648
0.00293129
0.00292611
0.00292095
0.00291582
0.00291073
0.00290566
0.00290064
0.0028957
0.00289089
0.00288625
0.00288186
0.00287781
0.00287415
0.0028709
0.00286798
0.00286523
0.00286232
0.00285886
0.00285441
0.00284858
0.00284104
0.0028316
0.00282024
0.00280714
0.00279264
0.00277715
0.00276123
0.00274565
0.0027309
0.00271721
0.0027042
0.00269111
0.00267814
0.00266506
0.00265177
0.00263815
0.00262404
0.00260931
0.00299376
0.00298694
0.00298012
0.00297333
0.00296659
0.00295992
0.00295334
0.00294685
0.00294043
0.0029341
0.00292782
0.00292162
0.00291547
0.00290938
0.00290338
0.00289744
0.00289158
0.00288585
0.00288021
0.00287474
0.00286949
0.00286455
0.00286
0.00285594
0.00285248
0.00284969
0.00284757
0.00284598
0.00284462
0.00284313
0.00284104
0.00283788
0.00283327
0.00282696
0.00281885
0.00280899
0.00279757
0.00278493
0.00277146
0.00275765
0.00274391
0.00273052
0.00271761
0.00270484
0.00269166
0.00267785
0.00266329
0.00264797
0.0026318
0.00261467
0.00299151
0.00298198
0.0029726
0.00296339
0.00295443
0.00294569
0.00293717
0.00292886
0.00292077
0.00291287
0.00290515
0.00289761
0.00289022
0.00288299
0.00287593
0.00286907
0.00286242
0.00285603
0.0028499
0.0028441
0.00283872
0.00283384
0.0028296
0.00282616
0.00282362
0.00282201
0.00282128
0.00282134
0.0028219
0.00282247
0.00282258
0.00282174
0.00281953
0.00281564
0.00280994
0.00280244
0.00279326
0.00278267
0.00277098
0.00275855
0.00274569
0.00273262
0.00271945
0.00270619
0.00269262
0.00267813
0.00266243
0.00264541
0.00262706
0.00260728
0.00298637
0.00297042
0.00295583
0.00294217
0.00292938
0.00291732
0.00290589
0.00289509
0.00288479
0.00287493
0.00286553
0.00285648
0.00284789
0.00283973
0.00283198
0.00282467
0.00281786
0.00281159
0.00280584
0.0028007
0.00279622
0.00279252
0.00278973
0.002788
0.00278748
0.00278813
0.00278988
0.00279249
0.00279556
0.00279861
0.00280108
0.00280245
0.00280231
0.00280036
0.00279646
0.00279064
0.00278302
0.00277384
0.00276332
0.00275176
0.0027394
0.00272639
0.00271284
0.00269875
0.00268392
0.00266842
0.00265121
0.00263206
0.00261082
0.0025874
0.00297055
0.00293649
0.00291234
0.00289305
0.00287591
0.00286053
0.0028466
0.00283411
0.00282265
0.00281211
0.00280275
0.00279406
0.00278595
0.00277854
0.00277177
0.00276572
0.0027604
0.00275575
0.00275176
0.00274861
0.00274637
0.00274506
0.00274494
0.00274609
0.00274862
0.00275245
0.00275734
0.002763
0.00276887
0.0027744
0.002779
0.00278218
0.00278358
0.00278297
0.00278025
0.00277548
0.00276878
0.00276033
0.00275037
0.00273915
0.00272682
0.0027135
0.00269921
0.00268391
0.00266733
0.00264936
0.00263001
0.00260778
0.00258217
0.00255248
0.0028511
0.00280924
0.0027832
0.00276339
0.00274851
0.00273769
0.00273013
0.00272494
0.00272147
0.00271867
0.00271639
0.00271419
0.00271184
0.00270943
0.00270645
0.00270389
0.00270175
0.00270022
0.00269937
0.00269909
0.00269964
0.00270119
0.00270415
0.0027086
0.00271432
0.00272131
0.00272909
0.00273738
0.00274544
0.00275269
0.00275859
0.00276274
0.00276482
0.00276471
0.00276236
0.00275787
0.00275132
0.00274292
0.0027329
0.0027214
0.00270854
0.00269436
0.00267883
0.00266163
0.00264251
0.00262088
0.00259696
0.0025696
0.00253534
0.00249152
0.00259413
0.00255724
0.00253208
0.00251589
0.00250746
0.0025058
0.00250978
0.00251825
0.00252999
0.0025438
0.00255855
0.0025733
0.00258729
0.00260002
0.00261107
0.00262072
0.00262924
0.00263691
0.00264397
0.00265081
0.00265783
0.0026652
0.00267309
0.00268165
0.00269069
0.00270008
0.00270946
0.00271855
0.00272685
0.00273402
0.00273977
0.00274371
0.00274559
0.00274538
0.00274256
0.00273748
0.00273031
0.00272127
0.00271054
0.00269812
0.00268399
0.00266808
0.00265016
0.00262981
0.00260638
0.00257856
0.00254438
0.00250472
0.00244291
0.00235757
0.00231108
0.00227872
0.00225403
0.00223789
0.00223052
0.00223171
0.00224091
0.00225735
0.00227986
0.00230722
0.00233803
0.0023709
0.00240453
0.00243777
0.00246968
0.0024996
0.00252713
0.00255206
0.00257444
0.0025945
0.00261249
0.00262873
0.00264349
0.00265697
0.00266926
0.00268048
0.00269059
0.00269954
0.00270719
0.00271338
0.00271798
0.00272081
0.00272171
0.00272058
0.00271702
0.00271118
0.00270336
0.00269352
0.00268172
0.00266771
0.00265027
0.00263086
0.00260835
0.00258139
0.00254802
0.00250319
0.00243383
0.0022244
0.00195361
0.00188199
0.00206148
0.0020314
0.00200771
0.00199178
0.00198417
0.00198489
0.00199365
0.00200988
0.00203286
0.00206176
0.00209578
0.00213438
0.00217638
0.00222034
0.00226532
0.00231019
0.00235406
0.00239619
0.00243599
0.00247299
0.00250688
0.00253747
0.00256474
0.00258878
0.0026097
0.00262769
0.0026429
0.00265552
0.00266568
0.00267348
0.00267898
0.00268223
0.00268316
0.0026817
0.0026777
0.00267132
0.00266266
0.00265149
0.00263742
0.00261976
0.00259745
0.00256979
0.0025328
0.00247929
0.00239858
0.00228379
0.00214556
0.00201188
0.00190929
0.00183224
0.00186296
0.0018382
0.00181899
0.00180607
0.00179967
0.00179965
0.00180564
0.00181721
0.00183385
0.00185533
0.0018818
0.00191293
0.00194843
0.00198797
0.00203078
0.00207591
0.00212202
0.00216876
0.00221552
0.00226177
0.00230686
0.00235009
0.00239081
0.00242852
0.00246283
0.00249348
0.00252033
0.00254335
0.00256257
0.00257806
0.0025899
0.00259819
0.00260298
0.00260431
0.00260219
0.00259661
0.00258735
0.00257386
0.00255524
0.0025303
0.00249732
0.00245405
0.00239688
0.00232264
0.00223094
0.00212672
0.00202121
0.00192811
0.00185624
0.00180454
0.00166641
0.00164611
0.00163036
0.00161958
0.00161391
0.00161323
0.00161734
0.00162591
0.00163864
0.0016554
0.00167592
0.00170004
0.00172757
0.00175838
0.00179234
0.00182924
0.00186884
0.00191023
0.00195245
0.00199561
0.00203939
0.0020834
0.00212709
0.00216984
0.00221101
0.00224997
0.00228617
0.00231911
0.00234835
0.00237355
0.00239442
0.00241074
0.00242233
0.00242896
0.00243038
0.00242624
0.00241603
0.00239903
0.00237435
0.00234118
0.0022988
0.00224679
0.00218521
0.00211567
0.00204151
0.00196732
0.0018983
0.0018387
0.00179016
0.00175193
0.00142397
0.00140765
0.00139549
0.00138795
0.0013853
0.00138767
0.00139506
0.00140742
0.00142457
0.0014441
0.00146424
0.00148422
0.00150411
0.00152429
0.00154531
0.00156788
0.00159271
0.00162055
0.00165211
0.00168736
0.00172452
0.00176256
0.00180085
0.00183896
0.00187648
0.00191293
0.00194783
0.00198065
0.00201084
0.00203786
0.00206117
0.00208026
0.00209465
0.00210387
0.00210752
0.00210521
0.00209661
0.00208147
0.0020598
0.00203184
0.00199817
0.00195964
0.00191746
0.00187313
0.00182837
0.00178478
0.00174366
0.00170581
0.00167152
0.00164065
0.00376174
0.00373446
0.00370776
0.00367878
0.00364581
0.00360756
0.00356324
0.00351252
0.00345547
0.00339452
0.00333176
0.00326863
0.00320584
0.00314389
0.00308306
0.00302349
0.0029652
0.00290814
0.00285222
0.0027973
0.00274523
0.00269696
0.00265291
0.00261308
0.0025773
0.0025453
0.00251674
0.00249123
0.0024683
0.00244746
0.00242818
0.00240995
0.00239226
0.00237463
0.0023566
0.00233779
0.00231789
0.00229668
0.00227403
0.00224993
0.00222449
0.0021979
0.00217041
0.00214234
0.00211391
0.00208538
0.00205683
0.00202813
0.00199909
0.00196921
2.3838e-05
2.36365e-05
2.34394e-05
2.32425e-05
2.30429e-05
2.28412e-05
2.26406e-05
2.24427e-05
2.22468e-05
2.20508e-05
2.18528e-05
2.1651e-05
2.1445e-05
2.12352e-05
2.10232e-05
2.08113e-05
2.06023e-05
2.0399e-05
2.02036e-05
2.00183e-05
1.98015e-05
1.96033e-05
1.94216e-05
1.92568e-05
1.91079e-05
1.89734e-05
1.88512e-05
1.87364e-05
1.86262e-05
1.85184e-05
1.84101e-05
1.83326e-05
1.82358e-05
1.81185e-05
1.79468e-05
1.77672e-05
1.75783e-05
1.73815e-05
1.71831e-05
1.69909e-05
1.68122e-05
1.66526e-05
1.65152e-05
1.63995e-05
1.63022e-05
1.62176e-05
1.61385e-05
1.60574e-05
1.59672e-05
1.5862e-05
2.325e-05
2.22386e-05
2.131e-05
2.04527e-05
1.96598e-05
1.89198e-05
1.82206e-05
1.75527e-05
1.69097e-05
1.62881e-05
1.56863e-05
1.51046e-05
1.45443e-05
1.40078e-05
1.34978e-05
1.30165e-05
1.25658e-05
1.21468e-05
1.17592e-05
1.14097e-05
1.11999e-05
1.1238e-05
1.12514e-05
1.12512e-05
1.12463e-05
1.12431e-05
1.12459e-05
1.12633e-05
1.12984e-05
1.13478e-05
1.14019e-05
1.13673e-05
1.13083e-05
1.12336e-05
1.12286e-05
1.12212e-05
1.11986e-05
1.11587e-05
1.11042e-05
1.10421e-05
1.098e-05
1.09242e-05
1.08785e-05
1.08435e-05
1.08158e-05
1.07907e-05
1.07626e-05
1.07267e-05
1.06806e-05
1.0625e-05
2.32425e-05
2.22099e-05
2.12469e-05
2.03504e-05
1.95141e-05
1.87292e-05
1.79873e-05
1.72812e-05
1.66053e-05
1.59558e-05
1.53307e-05
1.47291e-05
1.41517e-05
1.35996e-05
1.30743e-05
1.25771e-05
1.21088e-05
1.16688e-05
1.1326e-05
1.12259e-05
1.11066e-05
1.09924e-05
1.08913e-05
1.0806e-05
1.07362e-05
1.06807e-05
1.06376e-05
1.06049e-05
1.05797e-05
1.05583e-05
1.05364e-05
1.05036e-05
1.04603e-05
1.04028e-05
1.03351e-05
1.02529e-05
1.01584e-05
1.00555e-05
9.94983e-06
9.84745e-06
9.75388e-06
9.67275e-06
9.60534e-06
9.55054e-06
9.50577e-06
9.46665e-06
9.42815e-06
9.38561e-06
9.33591e-06
9.27895e-06
2.32433e-05
2.22188e-05
2.12632e-05
2.03701e-05
1.95333e-05
1.87456e-05
1.79999e-05
1.72901e-05
1.66112e-05
1.59598e-05
1.53339e-05
1.47326e-05
1.41563e-05
1.3606e-05
1.30829e-05
1.2588e-05
1.21218e-05
1.16837e-05
1.1341e-05
1.12427e-05
1.11232e-05
1.10043e-05
1.08963e-05
1.08027e-05
1.07237e-05
1.06584e-05
1.06048e-05
1.05601e-05
1.05212e-05
1.04842e-05
1.04449e-05
1.03989e-05
1.03423e-05
1.02722e-05
1.01872e-05
1.0088e-05
9.97726e-06
9.85928e-06
9.73975e-06
9.62464e-06
9.5191e-06
9.42648e-06
9.3479e-06
9.28241e-06
9.22716e-06
9.1781e-06
9.13093e-06
9.08183e-06
9.02815e-06
8.96919e-06
2.3244e-05
2.22216e-05
2.12683e-05
2.03762e-05
1.9539e-05
1.87494e-05
1.80009e-05
1.72879e-05
1.66057e-05
1.59514e-05
1.53232e-05
1.47208e-05
1.41447e-05
1.35959e-05
1.30755e-05
1.25841e-05
1.2122e-05
1.16882e-05
1.13499e-05
1.12551e-05
1.11384e-05
1.10211e-05
1.09133e-05
1.08184e-05
1.07369e-05
1.06679e-05
1.06096e-05
1.05597e-05
1.05151e-05
1.04723e-05
1.04274e-05
1.03765e-05
1.0316e-05
1.02431e-05
1.01565e-05
1.00568e-05
9.94652e-06
9.82968e-06
9.71165e-06
9.59806e-06
9.49371e-06
9.40174e-06
9.32315e-06
9.25683e-06
9.19983e-06
9.14807e-06
9.09728e-06
9.04408e-06
8.98644e-06
8.92414e-06
2.3244e-05
2.2223e-05
2.12723e-05
2.03833e-05
1.95489e-05
1.87614e-05
1.80142e-05
1.73014e-05
1.66189e-05
1.59639e-05
1.53352e-05
1.47329e-05
1.41577e-05
1.36108e-05
1.30929e-05
1.26047e-05
1.21462e-05
1.17159e-05
1.13789e-05
1.12841e-05
1.1169e-05
1.1053e-05
1.09452e-05
1.08488e-05
1.07643e-05
1.06909e-05
1.06272e-05
1.05711e-05
1.05201e-05
1.04711e-05
1.04207e-05
1.03656e-05
1.03023e-05
1.02284e-05
1.01426e-05
1.00451e-05
9.93827e-06
9.82568e-06
9.71223e-06
9.60308e-06
9.50266e-06
9.41382e-06
9.33745e-06
9.27249e-06
9.21611e-06
9.16433e-06
9.11289e-06
9.05833e-06
8.99878e-06
8.93425e-06
2.32439e-05
2.22233e-05
2.12728e-05
2.0384e-05
1.95495e-05
1.87614e-05
1.80129e-05
1.72984e-05
1.66139e-05
1.59573e-05
1.53277e-05
1.47254e-05
1.41514e-05
1.36068e-05
1.30924e-05
1.26085e-05
1.21546e-05
1.173e-05
1.13353e-05
1.12332e-05
1.11331e-05
1.10353e-05
1.09425e-05
1.08563e-05
1.07774e-05
1.07055e-05
1.064e-05
1.05798e-05
1.05232e-05
1.04684e-05
1.04127e-05
1.03533e-05
1.02876e-05
1.02132e-05
1.01288e-05
1.00345e-05
9.93218e-06
9.82487e-06
9.71691e-06
9.61297e-06
9.51702e-06
9.43159e-06
9.3574e-06
9.29343e-06
9.23704e-06
9.18454e-06
9.13195e-06
9.07593e-06
9.01473e-06
8.94838e-06
2.32441e-05
2.22237e-05
2.12733e-05
2.03843e-05
1.95492e-05
1.87601e-05
1.80101e-05
1.72938e-05
1.66079e-05
1.59504e-05
1.53208e-05
1.47197e-05
1.41481e-05
1.3607e-05
1.30972e-05
1.26185e-05
1.21701e-05
1.17505e-05
1.13588e-05
1.12594e-05
1.11614e-05
1.10647e-05
1.09715e-05
1.08831e-05
1.08e-05
1.07222e-05
1.06495e-05
1.05814e-05
1.05171e-05
1.04552e-05
1.03939e-05
1.03311e-05
1.02641e-05
1.01908e-05
1.01097e-05
1.00206e-05
9.92466e-06
9.82432e-06
9.72328e-06
9.62561e-06
9.53482e-06
9.45316e-06
9.38126e-06
9.31816e-06
9.26142e-06
9.20764e-06
9.15321e-06
9.09508e-06
9.0317e-06
8.96319e-06
2.32443e-05
2.22247e-05
2.12746e-05
2.03855e-05
1.95495e-05
1.87587e-05
1.80065e-05
1.72879e-05
1.65998e-05
1.59407e-05
1.53107e-05
1.47104e-05
1.41409e-05
1.36033e-05
1.30981e-05
1.26248e-05
1.21823e-05
1.17683e-05
1.13812e-05
1.12862e-05
1.11908e-05
1.10948e-05
1.10002e-05
1.09081e-05
1.08193e-05
1.07342e-05
1.0653e-05
1.05761e-05
1.05034e-05
1.04344e-05
1.0368e-05
1.03023e-05
1.02351e-05
1.01642e-05
1.0088e-05
1.00056e-05
9.91745e-06
9.82541e-06
9.73238e-06
9.64174e-06
9.55649e-06
9.47862e-06
9.40875e-06
9.34607e-06
9.28844e-06
9.23284e-06
9.17599e-06
9.11524e-06
9.04923e-06
8.97822e-06
2.32446e-05
2.22261e-05
2.12768e-05
2.03877e-05
1.95509e-05
1.87584e-05
1.80039e-05
1.72828e-05
1.65925e-05
1.59321e-05
1.53018e-05
1.47024e-05
1.41354e-05
1.36016e-05
1.31014e-05
1.2634e-05
1.21975e-05
1.17892e-05
1.14069e-05
1.1316e-05
1.1223e-05
1.11273e-05
1.10307e-05
1.09342e-05
1.08389e-05
1.07456e-05
1.06553e-05
1.05691e-05
1.04879e-05
1.04119e-05
1.03406e-05
1.02725e-05
1.02058e-05
1.01382e-05
1.00676e-05
9.99261e-06
9.913e-06
9.82974e-06
9.74492e-06
9.66119e-06
9.58104e-06
9.50621e-06
9.4374e-06
9.37405e-06
9.31446e-06
9.25599e-06
9.19578e-06
9.13157e-06
9.0623e-06
8.98837e-06
2.3245e-05
2.2228e-05
2.12797e-05
2.03905e-05
1.95527e-05
1.87583e-05
1.80014e-05
1.72777e-05
1.65853e-05
1.59234e-05
1.52927e-05
1.46944e-05
1.41299e-05
1.36002e-05
1.31052e-05
1.26436e-05
1.22131e-05
1.18103e-05
1.14326e-05
1.13455e-05
1.12538e-05
1.11578e-05
1.1059e-05
1.09582e-05
1.08566e-05
1.07555e-05
1.06564e-05
1.05613e-05
1.04719e-05
1.03892e-05
1.03135e-05
1.02437e-05
1.01782e-05
1.01145e-05
1.00501e-05
9.98313e-06
9.91236e-06
9.83799e-06
9.76123e-06
9.68397e-06
9.60823e-06
9.53557e-06
9.4668e-06
9.40171e-06
9.33901e-06
9.27655e-06
9.21199e-06
9.14353e-06
9.07046e-06
8.99329e-06
2.32456e-05
2.22304e-05
2.1283e-05
2.03937e-05
1.95545e-05
1.8758e-05
1.79984e-05
1.72722e-05
1.65775e-05
1.59142e-05
1.52833e-05
1.46862e-05
1.41244e-05
1.35989e-05
1.3109e-05
1.26532e-05
1.22284e-05
1.1831e-05
1.14575e-05
1.13625e-05
1.12637e-05
1.11648e-05
1.10659e-05
1.09654e-05
1.08628e-05
1.07587e-05
1.06549e-05
1.05539e-05
1.04585e-05
1.03707e-05
1.02916e-05
1.02209e-05
1.0157e-05
1.00974e-05
1.00394e-05
9.98018e-06
9.91794e-06
9.85196e-06
9.78256e-06
9.71091e-06
9.63858e-06
9.56707e-06
9.49733e-06
9.42947e-06
9.36264e-06
9.29522e-06
9.22549e-06
9.15216e-06
9.07489e-06
8.99432e-06
2.32464e-05
2.22333e-05
2.12867e-05
2.03969e-05
1.95561e-05
1.87574e-05
1.79952e-05
1.72665e-05
1.65697e-05
1.59054e-05
1.52746e-05
1.46793e-05
1.41207e-05
1.35995e-05
1.31149e-05
1.26648e-05
1.22458e-05
1.18534e-05
1.14838e-05
1.13913e-05
1.12927e-05
1.11922e-05
1.10897e-05
1.09841e-05
1.08748e-05
1.0763e-05
1.06509e-05
1.0542e-05
1.04398e-05
1.03471e-05
1.02656e-05
1.0195e-05
1.01339e-05
1.00796e-05
1.00286e-05
9.97774e-06
9.9243e-06
9.86664e-06
9.80424e-06
9.73763e-06
9.66806e-06
9.59696e-06
9.52549e-06
9.45408e-06
9.38235e-06
9.30937e-06
9.23403e-06
9.15565e-06
9.07417e-06
8.99031e-06
2.32473e-05
2.22363e-05
2.12903e-05
2.03996e-05
1.9557e-05
1.87557e-05
1.79907e-05
1.72591e-05
1.65602e-05
1.58946e-05
1.52639e-05
1.467e-05
1.41143e-05
1.35971e-05
1.31173e-05
1.26723e-05
1.22582e-05
1.18702e-05
1.15036e-05
1.14108e-05
1.13134e-05
1.12118e-05
1.11062e-05
1.09955e-05
1.08798e-05
1.07605e-05
1.06408e-05
1.05249e-05
1.04171e-05
1.03209e-05
1.02381e-05
1.01687e-05
1.01111e-05
1.00624e-05
1.00186e-05
9.97589e-06
9.93077e-06
9.88074e-06
9.82454e-06
9.76217e-06
9.6946e-06
9.62324e-06
9.54943e-06
9.47396e-06
9.397e-06
9.31833e-06
9.23753e-06
9.15437e-06
9.06906e-06
8.98235e-06
2.32482e-05
2.22391e-05
2.12935e-05
2.0402e-05
1.95578e-05
1.87545e-05
1.79873e-05
1.7254e-05
1.6554e-05
1.58884e-05
1.52589e-05
1.46674e-05
1.41151e-05
1.36022e-05
1.31271e-05
1.26869e-05
1.22772e-05
1.18926e-05
1.15266e-05
1.12475e-05
1.12141e-05
1.11524e-05
1.10705e-05
1.09726e-05
1.08622e-05
1.07437e-05
1.06222e-05
1.05038e-05
1.03937e-05
1.02962e-05
1.02137e-05
1.01465e-05
1.00928e-05
1.00496e-05
1.00125e-05
9.9771e-06
9.93917e-06
9.89552e-06
9.84433e-06
9.78516e-06
9.71875e-06
9.64649e-06
9.56991e-06
9.4902e-06
9.40817e-06
9.32426e-06
9.23861e-06
9.15137e-06
9.06296e-06
8.97417e-06
2.32491e-05
2.22411e-05
2.12949e-05
2.04012e-05
1.95539e-05
1.87469e-05
1.7976e-05
1.72395e-05
1.65373e-05
1.58705e-05
1.52411e-05
1.46511e-05
1.41014e-05
1.3592e-05
1.31208e-05
1.26846e-05
1.22785e-05
1.18967e-05
1.15322e-05
1.125e-05
1.12153e-05
1.11521e-05
1.10678e-05
1.09665e-05
1.08519e-05
1.07288e-05
1.06031e-05
1.04812e-05
1.0369e-05
1.02708e-05
1.01892e-05
1.01245e-05
1.00748e-05
1.00368e-05
1.00058e-05
9.97677e-06
9.945e-06
9.90681e-06
9.8599e-06
9.80353e-06
9.73821e-06
9.66537e-06
9.58676e-06
9.50406e-06
9.41866e-06
9.33152e-06
9.24327e-06
9.15434e-06
9.06538e-06
8.97733e-06
2.32499e-05
2.22432e-05
2.12976e-05
2.04041e-05
1.95566e-05
1.87491e-05
1.79777e-05
1.7241e-05
1.6539e-05
1.5873e-05
1.52452e-05
1.46574e-05
1.41104e-05
1.36038e-05
1.31355e-05
1.27016e-05
1.22972e-05
1.19163e-05
1.15517e-05
1.12683e-05
1.12306e-05
1.11645e-05
1.10771e-05
1.09722e-05
1.08539e-05
1.07274e-05
1.0599e-05
1.04755e-05
1.03629e-05
1.02658e-05
1.01866e-05
1.01256e-05
1.00808e-05
1.00484e-05
1.00237e-05
1.00011e-05
9.97561e-06
9.94328e-06
9.90159e-06
9.84942e-06
9.78729e-06
9.71663e-06
9.63946e-06
9.55791e-06
9.47387e-06
9.38869e-06
9.30339e-06
9.21881e-06
9.13597e-06
9.05612e-06
2.32506e-05
2.22378e-05
2.1284e-05
2.03822e-05
1.95271e-05
1.87134e-05
1.79376e-05
1.71983e-05
1.64954e-05
1.58304e-05
1.5205e-05
1.46209e-05
1.40787e-05
1.35775e-05
1.31147e-05
1.26863e-05
1.22869e-05
1.19104e-05
1.15521e-05
1.14217e-05
1.13168e-05
1.12187e-05
1.11184e-05
1.10079e-05
1.08892e-05
1.0767e-05
1.06466e-05
1.05339e-05
1.04342e-05
1.03515e-05
1.0288e-05
1.02437e-05
1.02161e-05
1.01945e-05
1.01805e-05
1.01697e-05
1.01568e-05
1.01376e-05
1.01153e-05
1.00825e-05
1.00391e-05
9.98586e-06
9.92505e-06
9.85916e-06
9.79052e-06
9.72103e-06
9.65225e-06
9.58562e-06
9.52281e-06
9.46587e-06
2.32541e-05
2.22504e-05
2.13102e-05
2.04229e-05
1.9588e-05
1.88001e-05
1.8054e-05
1.7347e-05
1.66779e-05
1.60472e-05
1.54563e-05
1.49065e-05
1.43982e-05
1.3931e-05
1.3504e-05
1.31125e-05
1.27505e-05
1.24131e-05
1.20938e-05
1.17857e-05
1.15897e-05
1.14192e-05
1.14489e-05
1.14137e-05
1.1363e-05
1.13097e-05
1.12601e-05
1.12187e-05
1.11893e-05
1.11756e-05
1.11795e-05
1.12011e-05
1.12359e-05
1.11965e-05
1.115e-05
1.11078e-05
1.10705e-05
1.10358e-05
1.10804e-05
1.11301e-05
1.11674e-05
1.11856e-05
1.11846e-05
1.11673e-05
1.11376e-05
1.10995e-05
1.10565e-05
1.10119e-05
1.09691e-05
1.09327e-05
2.38543e-05
2.36643e-05
2.34756e-05
2.32871e-05
2.30926e-05
2.28902e-05
2.26812e-05
2.24681e-05
2.22544e-05
2.20443e-05
2.18412e-05
2.16479e-05
2.14661e-05
2.12956e-05
2.11343e-05
2.09807e-05
2.08321e-05
2.0683e-05
2.05289e-05
2.03659e-05
2.01454e-05
1.99245e-05
1.96999e-05
1.94706e-05
1.92287e-05
1.89876e-05
1.87585e-05
1.85494e-05
1.83649e-05
1.8206e-05
1.8071e-05
1.7956e-05
1.78556e-05
1.77963e-05
1.77262e-05
1.76439e-05
1.75481e-05
1.74379e-05
1.72836e-05
1.71309e-05
1.69792e-05
1.68286e-05
1.66797e-05
1.65326e-05
1.63872e-05
1.62431e-05
1.60995e-05
1.59561e-05
1.58128e-05
1.5669e-05
7.31247e-06
6.67485e-06
7.04542e-06
7.8189e-06
8.49761e-06
8.86104e-06
8.88632e-06
8.65726e-06
8.29084e-06
7.88961e-06
7.52041e-06
7.21584e-06
7.02023e-06
7.00885e-06
7.14139e-06
7.32557e-06
7.5231e-06
7.67019e-06
7.67661e-06
7.46484e-06
7.32299e-06
6.64909e-06
7.01932e-06
7.7967e-06
8.47312e-06
8.82667e-06
8.83792e-06
8.59594e-06
8.22181e-06
7.81957e-06
7.45458e-06
7.15803e-06
6.9741e-06
6.95264e-06
7.05886e-06
7.24498e-06
7.466e-06
7.63155e-06
7.64271e-06
7.4289e-06
7.33012e-06
6.62134e-06
6.99118e-06
7.772e-06
8.44575e-06
8.78969e-06
8.78808e-06
8.53502e-06
8.15538e-06
7.7545e-06
7.39659e-06
7.1105e-06
6.93245e-06
6.89179e-06
6.97324e-06
7.16569e-06
7.40649e-06
7.58823e-06
7.60836e-06
7.40178e-06
7.33753e-06
6.5936e-06
6.96363e-06
7.74815e-06
8.41943e-06
8.75396e-06
8.73955e-06
8.47533e-06
8.08991e-06
7.69033e-06
7.34025e-06
7.06365e-06
6.88735e-06
6.83333e-06
6.8949e-06
7.08877e-06
7.34712e-06
7.54468e-06
7.57348e-06
7.37473e-06
7.34404e-06
6.56593e-06
6.9369e-06
7.72539e-06
8.39394e-06
8.71834e-06
8.69032e-06
8.41412e-06
8.02227e-06
7.6237e-06
7.28191e-06
7.01565e-06
6.8394e-06
6.77203e-06
6.81865e-06
7.01315e-06
7.2881e-06
7.50152e-06
7.53916e-06
7.34871e-06
7.3505e-06
6.53889e-06
6.91161e-06
7.70434e-06
8.36947e-06
8.68243e-06
8.63933e-06
8.34989e-06
7.95085e-06
7.55309e-06
7.22044e-06
6.96651e-06
6.79168e-06
6.70925e-06
6.74371e-06
6.93953e-06
7.23081e-06
7.46023e-06
7.50679e-06
7.32424e-06
7.35748e-06
6.5123e-06
6.88774e-06
7.685e-06
8.34571e-06
8.64554e-06
8.58547e-06
8.28123e-06
7.87415e-06
7.47703e-06
7.15444e-06
6.91567e-06
6.74905e-06
6.65016e-06
6.67192e-06
6.86955e-06
7.17673e-06
7.42188e-06
7.47708e-06
7.30114e-06
7.36497e-06
6.48537e-06
6.86486e-06
7.66702e-06
8.32235e-06
8.6072e-06
8.52822e-06
8.20773e-06
7.79164e-06
7.3947e-06
7.0823e-06
6.8618e-06
6.71366e-06
6.60012e-06
6.60613e-06
6.80439e-06
7.1262e-06
7.38625e-06
7.44953e-06
7.27866e-06
7.37243e-06
6.45711e-06
6.84242e-06
7.65012e-06
8.29924e-06
8.56744e-06
8.4678e-06
8.12959e-06
7.70335e-06
7.30574e-06
7.00309e-06
6.80249e-06
6.68345e-06
6.56101e-06
6.54786e-06
6.74378e-06
7.07798e-06
7.3518e-06
7.42273e-06
7.25592e-06
7.37914e-06
6.42681e-06
6.82016e-06
7.63437e-06
8.27673e-06
8.52678e-06
8.40471e-06
8.04717e-06
7.60936e-06
7.20956e-06
6.91536e-06
6.73407e-06
6.65045e-06
6.52911e-06
6.49613e-06
6.68593e-06
7.02982e-06
7.31643e-06
7.39511e-06
7.23242e-06
7.38453e-06
6.39423e-06
6.7982e-06
7.62022e-06
8.25549e-06
8.48598e-06
8.33947e-06
7.96051e-06
7.50912e-06
7.10508e-06
6.81686e-06
6.65175e-06
6.60437e-06
6.49666e-06
6.44773e-06
6.62845e-06
6.97953e-06
7.27853e-06
7.36577e-06
7.20825e-06
7.38837e-06
6.35963e-06
6.77703e-06
7.60843e-06
8.23635e-06
8.44557e-06
8.27215e-06
7.86917e-06
7.4017e-06
6.99093e-06
6.70545e-06
6.5516e-06
6.53544e-06
6.45505e-06
6.39899e-06
6.56971e-06
6.92617e-06
7.23782e-06
7.33494e-06
7.18405e-06
7.39079e-06
6.32367e-06
6.75743e-06
7.59978e-06
8.21991e-06
8.4057e-06
8.20234e-06
7.77218e-06
7.28588e-06
6.86572e-06
6.57975e-06
6.43218e-06
6.43526e-06
6.39882e-06
6.34756e-06
6.50959e-06
6.87039e-06
7.19532e-06
7.30376e-06
7.16059e-06
7.39215e-06
6.28716e-06
6.74026e-06
7.595e-06
8.2065e-06
8.36608e-06
8.12914e-06
7.66833e-06
7.16054e-06
6.72881e-06
6.43999e-06
6.29599e-06
6.31721e-06
6.33016e-06
6.29357e-06
6.44947e-06
6.81394e-06
7.15266e-06
7.27356e-06
7.13838e-06
7.39306e-06
6.2509e-06
6.72617e-06
7.59451e-06
8.19595e-06
8.32596e-06
8.05141e-06
7.55664e-06
7.02519e-06
6.5806e-06
6.28807e-06
6.14827e-06
6.19464e-06
6.25448e-06
6.23881e-06
6.39119e-06
6.75859e-06
7.1112e-06
7.24519e-06
7.11744e-06
7.39409e-06
6.21537e-06
6.7155e-06
7.59818e-06
8.18759e-06
8.28432e-06
7.9682e-06
7.43664e-06
6.88022e-06
6.42245e-06
6.12658e-06
5.99418e-06
6.07308e-06
6.17656e-06
6.18515e-06
6.33593e-06
6.70522e-06
7.07134e-06
7.21865e-06
7.09741e-06
7.39565e-06
6.18058e-06
6.70802e-06
7.60528e-06
8.18033e-06
8.24002e-06
7.87886e-06
7.30849e-06
6.72673e-06
6.25617e-06
5.95766e-06
5.83606e-06
5.95463e-06
6.09883e-06
6.1332e-06
6.28358e-06
6.65358e-06
7.03252e-06
7.19322e-06
7.0778e-06
7.39777e-06
6.14603e-06
6.70301e-06
7.61461e-06
8.17282e-06
8.19215e-06
7.78323e-06
7.173e-06
6.56636e-06
6.08367e-06
5.78249e-06
5.67229e-06
5.83483e-06
6.02038e-06
6.08194e-06
6.23297e-06
6.60264e-06
6.99372e-06
7.16799e-06
7.05825e-06
7.40002e-06
6.11094e-06
6.69945e-06
7.62481e-06
8.16384e-06
8.14013e-06
7.68175e-06
7.03155e-06
6.40118e-06
5.90707e-06
5.60166e-06
5.49909e-06
5.70636e-06
5.93798e-06
6.02937e-06
6.1825e-06
6.55127e-06
6.95407e-06
7.14234e-06
7.03871e-06
7.40169e-06
6.07471e-06
6.69646e-06
7.63472e-06
8.15253e-06
8.08389e-06
7.57525e-06
6.88594e-06
6.23369e-06
5.72901e-06
5.41649e-06
5.31459e-06
5.56435e-06
5.8487e-06
5.97362e-06
6.13094e-06
6.49891e-06
6.91333e-06
7.11619e-06
7.01941e-06
7.4021e-06
6.03728e-06
6.69357e-06
7.64359e-06
8.13844e-06
8.0237e-06
7.46495e-06
6.73829e-06
6.06687e-06
5.55296e-06
5.23042e-06
5.12208e-06
5.40984e-06
5.75206e-06
5.91384e-06
6.07784e-06
6.44573e-06
6.87193e-06
7.08991e-06
7.0006e-06
7.40092e-06
5.99934e-06
6.69077e-06
7.65105e-06
8.12138e-06
7.96001e-06
7.35222e-06
6.59106e-06
5.90419e-06
5.3834e-06
5.0491e-06
4.93025e-06
5.25001e-06
5.65035e-06
5.85039e-06
6.02343e-06
6.39233e-06
6.83055e-06
7.06401e-06
6.98251e-06
7.39837e-06
5.96203e-06
6.68825e-06
7.65682e-06
8.10115e-06
7.89321e-06
7.23853e-06
6.44695e-06
5.74952e-06
5.22533e-06
4.87916e-06
4.75007e-06
5.09549e-06
5.54733e-06
5.78442e-06
5.96828e-06
6.33934e-06
6.78981e-06
7.03888e-06
6.96525e-06
7.39514e-06
5.9265e-06
6.68609e-06
7.66035e-06
8.07726e-06
7.82362e-06
7.12551e-06
6.30889e-06
5.60683e-06
5.08339e-06
4.72626e-06
4.59114e-06
4.95323e-06
5.44603e-06
5.71711e-06
5.91283e-06
6.28711e-06
6.75004e-06
7.01475e-06
6.94884e-06
7.392e-06
5.89348e-06
6.68388e-06
7.66064e-06
8.04899e-06
7.75162e-06
7.015e-06
6.17999e-06
5.47978e-06
4.96114e-06
4.59371e-06
4.45492e-06
4.82539e-06
5.34839e-06
5.64936e-06
5.85727e-06
6.23579e-06
6.71142e-06
6.9917e-06
6.93329e-06
7.38949e-06
5.86311e-06
6.68071e-06
7.65636e-06
8.01558e-06
7.67785e-06
6.90919e-06
6.0634e-06
5.37136e-06
4.86054e-06
4.48212e-06
4.34146e-06
4.71234e-06
5.25587e-06
5.58184e-06
5.80171e-06
6.18551e-06
6.67414e-06
6.96982e-06
6.91866e-06
7.3877e-06
5.83508e-06
6.67538e-06
7.64611e-06
7.97655e-06
7.60339e-06
6.81058e-06
5.96203e-06
5.28358e-06
4.782e-06
4.39057e-06
4.25102e-06
4.61387e-06
5.16997e-06
5.51525e-06
5.7464e-06
6.13662e-06
6.63865e-06
6.94941e-06
6.90504e-06
7.38641e-06
5.80892e-06
6.66659e-06
7.62873e-06
7.93186e-06
7.52972e-06
6.72166e-06
5.87818e-06
5.21732e-06