/*--------------------------------*- C++ -*----------------------------------*\
  =========                 |
  \\      /  F ield         | OpenFOAM: The Open Source CFD Toolbox
   \\    /   O peration     | Website:  https://openfoam.org
    \\  /    A nd           | Version:  8
     \\/     M anipulation  |
\*---------------------------------------------------------------------------*/
FoamFile
{
    version     2.0;
    format      ascii;
    class       volScalarField;
    location    "600";
    object      nut;
}
// * * * * * * * * * * * * * * * * * * * * * * * * * * * * * * * * * * * * * //

dimensions      [0 2 -1 0 0 0 0];

internalField   nonuniform List<scalar> 
8400
(
7.5616e-05
7.60921e-05
7.68046e-05
7.74165e-05
7.78291e-05
7.80627e-05
7.81832e-05
7.82736e-05
7.8426e-05
7.87034e-05
7.914e-05
7.97723e-05
8.05838e-05
8.15538e-05
8.27651e-05
8.42962e-05
8.61037e-05
8.7862e-05
8.89856e-05
8.90544e-05
8.80381e-05
8.66896e-05
8.55452e-05
8.45367e-05
8.35954e-05
8.26523e-05
8.16159e-05
8.044e-05
7.94234e-05
7.8921e-05
7.88986e-05
7.90099e-05
7.86435e-05
7.75729e-05
7.59242e-05
7.4154e-05
7.23348e-05
7.04807e-05
6.87797e-05
6.71837e-05
6.55639e-05
6.38452e-05
6.21018e-05
6.04453e-05
5.89556e-05
5.76631e-05
5.65613e-05
5.56247e-05
5.48208e-05
5.41222e-05
5.73537e-05
5.6821e-05
5.63528e-05
5.61047e-05
5.60527e-05
5.60965e-05
5.61175e-05
5.60774e-05
5.59908e-05
5.58726e-05
5.57459e-05
5.56168e-05
5.54915e-05
5.53793e-05
5.5291e-05
5.52377e-05
5.52527e-05
5.53693e-05
5.55526e-05
5.57457e-05
5.59584e-05
5.56565e-05
5.4739e-05
5.35589e-05
5.23619e-05
5.13377e-05
5.06618e-05
5.04815e-05
5.05649e-05
5.06026e-05
5.06681e-05
5.07523e-05
5.08863e-05
5.10564e-05
5.12904e-05
5.13188e-05
5.13725e-05
5.16568e-05
5.19361e-05
5.22127e-05
5.2522e-05
5.29042e-05
5.33379e-05
5.37858e-05
5.42148e-05
5.45986e-05
5.49248e-05
5.51935e-05
5.54146e-05
5.55994e-05
6.1264e-05
6.08685e-05
6.02941e-05
5.95839e-05
5.86482e-05
5.72417e-05
5.40171e-05
5.04217e-05
5.17533e-05
5.22425e-05
5.30872e-05
5.48452e-05
5.44582e-05
5.39609e-05
5.35766e-05
5.32829e-05
5.31135e-05
5.30465e-05
5.27826e-05
5.2612e-05
5.25107e-05
5.23001e-05
5.20251e-05
5.18258e-05
5.17124e-05
5.17447e-05
5.19739e-05
5.24121e-05
5.2684e-05
5.21682e-05
5.16758e-05
5.147e-05
5.17576e-05
5.22771e-05
5.28307e-05
5.33806e-05
5.39841e-05
5.44485e-05
5.47415e-05
5.494e-05
5.52103e-05
5.5627e-05
5.60415e-05
5.63612e-05
5.65775e-05
5.66968e-05
5.67434e-05
5.67352e-05
5.66924e-05
5.66286e-05
6.14483e-05
6.13936e-05
6.13342e-05
6.125e-05
6.11359e-05
6.09791e-05
6.07406e-05
6.05142e-05
6.03132e-05
6.00814e-05
5.98055e-05
5.95444e-05
5.92852e-05
5.9063e-05
5.88687e-05
5.87065e-05
5.86137e-05
5.86099e-05
5.86178e-05
5.84807e-05
5.8192e-05
5.78458e-05
5.75524e-05
5.73052e-05
5.70655e-05
5.6875e-05
5.69267e-05
5.70609e-05
5.56995e-05
4.73134e-05
4.98043e-05
5.20232e-05
5.35559e-05
5.45741e-05
5.54931e-05
5.6489e-05
5.70185e-05
5.68871e-05
5.64439e-05
5.63445e-05
5.6546e-05
5.68847e-05
5.71951e-05
5.73091e-05
5.7306e-05
5.72467e-05
5.71608e-05
5.70389e-05
5.68947e-05
5.67568e-05
6.14726e-05
6.14438e-05
6.14132e-05
6.13809e-05
6.13462e-05
6.13069e-05
6.12625e-05
6.12127e-05
6.11595e-05
6.1102e-05
6.10393e-05
6.0974e-05
6.09079e-05
6.0842e-05
6.07772e-05
6.07135e-05
6.06519e-05
6.05935e-05
6.05353e-05
6.04693e-05
6.0391e-05
6.03001e-05
6.02004e-05
6.00941e-05
5.9982e-05
5.98679e-05
5.97611e-05
5.96575e-05
5.95116e-05
5.90597e-05
5.86524e-05
5.84827e-05
5.84226e-05
5.83419e-05
5.841e-05
5.84647e-05
5.81816e-05
5.77708e-05
5.60921e-05
5.73837e-05
5.84606e-05
5.81537e-05
5.79562e-05
5.78364e-05
5.77237e-05
5.76102e-05
5.74914e-05
5.73122e-05
5.71033e-05
5.69428e-05
6.14599e-05
6.14179e-05
6.13764e-05
6.13367e-05
6.12983e-05
6.1261e-05
6.12241e-05
6.11863e-05
6.11493e-05
6.11113e-05
6.10722e-05
6.10327e-05
6.09918e-05
6.09505e-05
6.09081e-05
6.08651e-05
6.08213e-05
6.0777e-05
6.0732e-05
6.06854e-05
6.06363e-05
6.05834e-05
6.05266e-05
6.04657e-05
6.04005e-05
6.03311e-05
6.02576e-05
6.01794e-05
6.00908e-05
5.99619e-05
5.98112e-05
5.96633e-05
5.9521e-05
5.93722e-05
5.92353e-05
5.91062e-05
5.89514e-05
5.87617e-05
5.85071e-05
5.85389e-05
5.82882e-05
5.80984e-05
5.797e-05
5.78873e-05
5.78253e-05
5.77497e-05
5.76513e-05
5.75313e-05
5.73896e-05
5.72357e-05
6.14576e-05
6.14119e-05
6.13669e-05
6.13207e-05
6.12741e-05
6.1229e-05
6.11837e-05
6.11395e-05
6.10961e-05
6.10521e-05
6.10085e-05
6.09651e-05
6.09213e-05
6.08773e-05
6.08335e-05
6.07896e-05
6.07452e-05
6.0701e-05
6.06576e-05
6.06137e-05
6.05686e-05
6.05229e-05
6.04768e-05
6.04299e-05
6.03819e-05
6.03332e-05
6.02832e-05
6.02322e-05
6.01774e-05
6.01123e-05
6.00359e-05
5.99479e-05
5.98471e-05
5.97328e-05
5.96081e-05
5.94742e-05
5.93278e-05
5.91686e-05
5.90061e-05
5.88866e-05
5.87779e-05
5.86172e-05
5.84587e-05
5.83223e-05
5.81853e-05
5.80478e-05
5.79066e-05
5.77568e-05
5.75959e-05
5.74219e-05
6.14489e-05
6.13942e-05
6.13386e-05
6.12837e-05
6.12311e-05
6.11798e-05
6.11271e-05
6.10768e-05
6.10266e-05
6.09763e-05
6.09265e-05
6.08773e-05
6.08278e-05
6.07786e-05
6.0729e-05
6.068e-05
6.0631e-05
6.05819e-05
6.05329e-05
6.04838e-05
6.04347e-05
6.03861e-05
6.03379e-05
6.02905e-05
6.02446e-05
6.02e-05
6.01588e-05
6.01203e-05
6.00845e-05
6.00479e-05
6.00056e-05
5.99548e-05
5.98932e-05
5.98173e-05
5.97256e-05
5.96184e-05
5.94973e-05
5.93649e-05
5.92267e-05
5.90943e-05
5.89681e-05
5.88484e-05
5.87164e-05
5.85687e-05
5.84174e-05
5.826e-05
5.80941e-05
5.7917e-05
5.77283e-05
5.75262e-05
6.14366e-05
6.13684e-05
6.12999e-05
6.12321e-05
6.11674e-05
6.11021e-05
6.10388e-05
6.09778e-05
6.09179e-05
6.08603e-05
6.08032e-05
6.07466e-05
6.06901e-05
6.06341e-05
6.05776e-05
6.05212e-05
6.04659e-05
6.04114e-05
6.03573e-05
6.03028e-05
6.02485e-05
6.01949e-05
6.01414e-05
6.00899e-05
6.00415e-05
5.99967e-05
5.99581e-05
5.99272e-05
5.99033e-05
5.98843e-05
5.98655e-05
5.98424e-05
5.98104e-05
5.97646e-05
5.97027e-05
5.96238e-05
5.95285e-05
5.94197e-05
5.93005e-05
5.91756e-05
5.90487e-05
5.89229e-05
5.87991e-05
5.86617e-05
5.85083e-05
5.83399e-05
5.81555e-05
5.79564e-05
5.77414e-05
5.75094e-05
6.14159e-05
6.13219e-05
6.12322e-05
6.11441e-05
6.10564e-05
6.09719e-05
6.08966e-05
6.08223e-05
6.07516e-05
6.06841e-05
6.06175e-05
6.05519e-05
6.04878e-05
6.04257e-05
6.03647e-05
6.03021e-05
6.02391e-05
6.01775e-05
6.01163e-05
6.00555e-05
5.99963e-05
5.99377e-05
5.98779e-05
5.98202e-05
5.97675e-05
5.9724e-05
5.96911e-05
5.9669e-05
5.96582e-05
5.9657e-05
5.96595e-05
5.96604e-05
5.96543e-05
5.96351e-05
5.95989e-05
5.95446e-05
5.9472e-05
5.93821e-05
5.92773e-05
5.91611e-05
5.90381e-05
5.89091e-05
5.8775e-05
5.86359e-05
5.84859e-05
5.83077e-05
5.81044e-05
5.78797e-05
5.76334e-05
5.73605e-05
6.13737e-05
6.12232e-05
6.10814e-05
6.09612e-05
6.08462e-05
6.07462e-05
6.06566e-05
6.05713e-05
6.04966e-05
6.04247e-05
6.03523e-05
6.02812e-05
6.0214e-05
6.01439e-05
6.00712e-05
5.99985e-05
5.99284e-05
5.98595e-05
5.97889e-05
5.97198e-05
5.96548e-05
5.95915e-05
5.95286e-05
5.94697e-05
5.94198e-05
5.9381e-05
5.9357e-05
5.93498e-05
5.93593e-05
5.93835e-05
5.94133e-05
5.94409e-05
5.94592e-05
5.94633e-05
5.94498e-05
5.94154e-05
5.93584e-05
5.9281e-05
5.91862e-05
5.90772e-05
5.89557e-05
5.88228e-05
5.86792e-05
5.85253e-05
5.83563e-05
5.81751e-05
5.79485e-05
5.76893e-05
5.73922e-05
5.70503e-05
6.13793e-05
6.10268e-05
6.07597e-05
6.05838e-05
6.04579e-05
6.03776e-05
6.02771e-05
6.02017e-05
6.01373e-05
6.00578e-05
5.99753e-05
5.98935e-05
5.98167e-05
5.97439e-05
5.96658e-05
5.95853e-05
5.95067e-05
5.94284e-05
5.93531e-05
5.92855e-05
5.92217e-05
5.9152e-05
5.90911e-05
5.90396e-05
5.89994e-05
5.89765e-05
5.89765e-05
5.89995e-05
5.90413e-05
5.90958e-05
5.91529e-05
5.92066e-05
5.92498e-05
5.92747e-05
5.9275e-05
5.92517e-05
5.92056e-05
5.91372e-05
5.90481e-05
5.89402e-05
5.88153e-05
5.86735e-05
5.85151e-05
5.83395e-05
5.81394e-05
5.79153e-05
5.76705e-05
5.73548e-05
5.69658e-05
5.64828e-05
6.06513e-05
6.01999e-05
6.00679e-05
6.00292e-05
6.00178e-05
6.00105e-05
6.00006e-05
5.99826e-05
5.99412e-05
5.98647e-05
5.97847e-05
5.96994e-05
5.95975e-05
5.94803e-05
5.93284e-05
5.91928e-05
5.90722e-05
5.89643e-05
5.88732e-05
5.87884e-05
5.87223e-05
5.86685e-05
5.86149e-05
5.8573e-05
5.85544e-05
5.85678e-05
5.86078e-05
5.86655e-05
5.87407e-05
5.88264e-05
5.8911e-05
5.89886e-05
5.90463e-05
5.90793e-05
5.90867e-05
5.90698e-05
5.90278e-05
5.89588e-05
5.88649e-05
5.87485e-05
5.86128e-05
5.84536e-05
5.82726e-05
5.8062e-05
5.78133e-05
5.75199e-05
5.72045e-05
5.67864e-05
5.61697e-05
5.52858e-05
5.74264e-05
5.71031e-05
5.70419e-05
5.71302e-05
5.73223e-05
5.75843e-05
5.78855e-05
5.81918e-05
5.84733e-05
5.8706e-05
5.8874e-05
5.8969e-05
5.89913e-05
5.89487e-05
5.88505e-05
5.87293e-05
5.86032e-05
5.84829e-05
5.83784e-05
5.82957e-05
5.82344e-05
5.81995e-05
5.81895e-05
5.82053e-05
5.82436e-05
5.83016e-05
5.83762e-05
5.84623e-05
5.85562e-05
5.86517e-05
5.87402e-05
5.88113e-05
5.88603e-05
5.88869e-05
5.88881e-05
5.8867e-05
5.88129e-05
5.87294e-05
5.86217e-05
5.84897e-05
5.83312e-05
5.8139e-05
5.79125e-05
5.76419e-05
5.73038e-05
5.68753e-05
5.62842e-05
5.56164e-05
5.4077e-05
5.18736e-05
5.33064e-05
5.3161e-05
5.32073e-05
5.34339e-05
5.3818e-05
5.4325e-05
5.49183e-05
5.55564e-05
5.61935e-05
5.67944e-05
5.73297e-05
5.77771e-05
5.81257e-05
5.83744e-05
5.85295e-05
5.86046e-05
5.86171e-05
5.85856e-05
5.85319e-05
5.84731e-05
5.84189e-05
5.83773e-05
5.8355e-05
5.83527e-05
5.83695e-05
5.8403e-05
5.84487e-05
5.85002e-05
5.85528e-05
5.86031e-05
5.8648e-05
5.86816e-05
5.86992e-05
5.86953e-05
5.86658e-05
5.86133e-05
5.85333e-05
5.84258e-05
5.82907e-05
5.81362e-05
5.79057e-05
5.76351e-05
5.73106e-05
5.68769e-05
5.62876e-05
5.53641e-05
5.36069e-05
4.62684e-05
3.75605e-05
3.77217e-05
4.97184e-05
4.96553e-05
4.97555e-05
5.00235e-05
5.04462e-05
5.09997e-05
5.16558e-05
5.23848e-05
5.31591e-05
5.39539e-05
5.47498e-05
5.55416e-05
5.6275e-05
5.69095e-05
5.7448e-05
5.78992e-05
5.82607e-05
5.85343e-05
5.87259e-05
5.8846e-05
5.89081e-05
5.89261e-05
5.89156e-05
5.88881e-05
5.88523e-05
5.88154e-05
5.87803e-05
5.87485e-05
5.87197e-05
5.86926e-05
5.86629e-05
5.86247e-05
5.85745e-05
5.85094e-05
5.84262e-05
5.83227e-05
5.81884e-05
5.8019e-05
5.78065e-05
5.75391e-05
5.71758e-05
5.66767e-05
5.59182e-05
5.46454e-05
5.26008e-05
4.97822e-05
4.69804e-05
4.51976e-05
4.46322e-05
4.43066e-05
4.70644e-05
4.70587e-05
4.7178e-05
4.74184e-05
4.77666e-05
4.82052e-05
4.87158e-05
4.92832e-05
4.98957e-05
5.05559e-05
5.12882e-05
5.20623e-05
5.28757e-05
5.37136e-05
5.454e-05
5.53122e-05
5.59901e-05
5.66008e-05
5.71652e-05
5.76577e-05
5.80689e-05
5.83942e-05
5.86375e-05
5.88072e-05
5.8913e-05
5.89656e-05
5.8976e-05
5.89536e-05
5.89049e-05
5.88357e-05
5.87493e-05
5.86479e-05
5.85279e-05
5.83858e-05
5.82204e-05
5.80264e-05
5.77877e-05
5.74904e-05
5.71104e-05
5.66182e-05
5.59629e-05
5.50775e-05
5.3877e-05
5.23073e-05
5.04183e-05
4.83997e-05
4.66087e-05
4.53787e-05
4.47753e-05
4.45714e-05
4.45202e-05
4.45399e-05
4.46529e-05
4.4857e-05
4.51431e-05
4.54999e-05
4.59165e-05
4.63832e-05
4.68915e-05
4.7448e-05
4.80457e-05
4.86801e-05
4.93502e-05
5.00535e-05
5.07864e-05
5.1543e-05
5.23143e-05
5.30592e-05
5.37392e-05
5.44075e-05
5.50565e-05
5.5665e-05
5.62168e-05
5.67024e-05
5.71158e-05
5.7454e-05
5.77174e-05
5.79088e-05
5.80319e-05
5.80921e-05
5.80934e-05
5.80389e-05
5.79297e-05
5.77626e-05
5.75329e-05
5.72322e-05
5.6845e-05
5.63537e-05
5.57349e-05
5.49664e-05
5.40299e-05
5.29126e-05
5.1619e-05
5.0205e-05
4.87566e-05
4.73962e-05
4.62508e-05
4.53944e-05
4.4833e-05
4.44801e-05
4.12574e-05
4.13449e-05
4.15301e-05
4.18166e-05
4.2203e-05
4.26846e-05
4.32536e-05
4.38995e-05
4.46088e-05
4.52285e-05
4.56733e-05
4.60422e-05
4.63764e-05
4.67147e-05
4.70847e-05
4.75075e-05
4.79993e-05
4.85727e-05
4.92375e-05
4.9959e-05
5.06202e-05
5.12322e-05
5.1817e-05
5.23732e-05
5.28926e-05
5.33661e-05
5.37866e-05
5.41473e-05
5.4441e-05
5.46615e-05
5.4803e-05
5.48615e-05
5.48315e-05
5.47074e-05
5.44837e-05
5.41531e-05
5.37085e-05
5.31445e-05
5.24631e-05
5.16722e-05
5.0787e-05
4.98283e-05
4.88273e-05
4.78249e-05
4.686e-05
4.59667e-05
4.51733e-05
4.4489e-05
4.39093e-05
4.3414e-05
7.1151e-05
7.10191e-05
7.08283e-05
7.05486e-05
7.01639e-05
6.96676e-05
6.9061e-05
6.83521e-05
6.75548e-05
6.67659e-05
6.60486e-05
6.53704e-05
6.47248e-05
6.4103e-05
6.34985e-05
6.29053e-05
6.23185e-05
6.17345e-05
6.1149e-05
6.05581e-05
6.00462e-05
5.96105e-05
5.92302e-05
5.88951e-05
5.85998e-05
5.83381e-05
5.81025e-05
5.78848e-05
5.76769e-05
5.74713e-05
5.72604e-05
5.70368e-05
5.67947e-05
5.65279e-05
5.62312e-05
5.59018e-05
5.55377e-05
5.51395e-05
5.47096e-05
5.42533e-05
5.37773e-05
5.32894e-05
5.28012e-05
5.23185e-05
5.18531e-05
5.14091e-05
5.09843e-05
5.05789e-05
5.01786e-05
4.97682e-05
5.48209e-06
5.46018e-06
5.44274e-06
5.4283e-06
5.4127e-06
5.39402e-06
5.37241e-06
5.34901e-06
5.32454e-06
5.29884e-06
5.27131e-06
5.24133e-06
5.20862e-06
5.17334e-06
5.13614e-06
5.098e-06
5.06018e-06
5.02407e-06
4.99079e-06
4.96116e-06
4.91391e-06
4.89114e-06
4.871e-06
4.855e-06
4.84368e-06
4.83678e-06
4.83381e-06
4.83662e-06
4.84167e-06
4.84699e-06
4.85134e-06
4.87252e-06
4.88369e-06
4.88459e-06
4.85601e-06
4.82368e-06
4.78607e-06
4.74298e-06
4.69683e-06
4.65061e-06
4.60742e-06
4.56981e-06
4.5395e-06
4.51715e-06
4.50181e-06
4.4918e-06
4.48465e-06
4.47774e-06
4.46903e-06
4.45762e-06
5.41284e-06
5.28684e-06
5.16575e-06
5.05463e-06
4.95673e-06
4.87004e-06
4.79075e-06
4.71474e-06
4.63857e-06
4.55991e-06
4.47739e-06
4.39062e-06
4.30013e-06
4.2074e-06
4.11446e-06
4.0236e-06
3.93696e-06
3.85618e-06
3.78165e-06
3.71902e-06
3.63734e-06
1.55561e-05
1.56803e-05
1.57662e-05
1.58304e-05
1.58854e-05
1.59396e-05
1.5982e-05
1.60309e-05
1.60962e-05
1.61743e-05
1.62909e-05
1.62609e-05
1.61433e-05
1.5938e-05
1.58229e-05
1.57325e-05
1.56378e-05
1.55299e-05
1.54146e-05
1.53036e-05
1.52088e-05
1.51377e-05
1.50909e-05
1.50629e-05
1.50436e-05
1.5021e-05
1.49837e-05
1.49228e-05
1.4835e-05
5.41458e-06
5.29323e-06
5.17633e-06
5.06569e-06
4.96231e-06
4.86575e-06
4.7745e-06
4.68648e-06
4.59955e-06
4.51204e-06
4.42288e-06
4.33176e-06
4.23902e-06
4.14565e-06
4.05306e-06
3.96278e-06
3.87623e-06
3.79358e-06
3.66126e-06
1.55782e-05
1.5478e-05
1.53371e-05
1.51981e-05
1.50797e-05
1.49881e-05
1.49235e-05
1.48836e-05
1.48635e-05
1.48581e-05
1.48607e-05
1.48634e-05
1.48442e-05
1.48049e-05
1.4735e-05
1.46421e-05
1.45151e-05
1.43593e-05
1.41828e-05
1.39969e-05
1.3815e-05
1.36494e-05
1.35086e-05
1.33964e-05
1.33112e-05
1.32487e-05
1.32002e-05
1.31558e-05
1.31067e-05
1.30462e-05
1.29708e-05
5.41339e-06
5.29275e-06
5.17813e-06
5.07047e-06
4.96923e-06
4.87334e-06
4.78142e-06
4.69187e-06
4.60307e-06
4.51366e-06
4.42283e-06
4.33039e-06
4.23681e-06
4.14316e-06
4.05081e-06
3.96122e-06
3.87573e-06
3.79456e-06
3.66269e-06
1.56026e-05
1.55074e-05
1.5362e-05
1.52125e-05
1.50803e-05
1.49733e-05
1.48925e-05
1.48358e-05
1.47984e-05
1.47741e-05
1.47554e-05
1.47336e-05
1.46994e-05
1.46433e-05
1.45582e-05
1.444e-05
1.42889e-05
1.41096e-05
1.39108e-05
1.37048e-05
1.35048e-05
1.33223e-05
1.31654e-05
1.30375e-05
1.29374e-05
1.28595e-05
1.27954e-05
1.27358e-05
1.26728e-05
1.26017e-05
1.25214e-05
5.41257e-06
5.29074e-06
5.1754e-06
5.06773e-06
4.9671e-06
4.87198e-06
4.78062e-06
4.69119e-06
4.60207e-06
4.51199e-06
4.42029e-06
4.32698e-06
4.23276e-06
4.13886e-06
4.04675e-06
3.95788e-06
3.87357e-06
3.79399e-06
3.66411e-06
1.56234e-05
1.55358e-05
1.53965e-05
1.52504e-05
1.51187e-05
1.50092e-05
1.49233e-05
1.48588e-05
1.48116e-05
1.47759e-05
1.4745e-05
1.47109e-05
1.46651e-05
1.45994e-05
1.45072e-05
1.43847e-05
1.42318e-05
1.40532e-05
1.38571e-05
1.3655e-05
1.34594e-05
1.3281e-05
1.31274e-05
1.30015e-05
1.29019e-05
1.28232e-05
1.27571e-05
1.26943e-05
1.26265e-05
1.25495e-05
1.2463e-05
5.41253e-06
5.29023e-06
5.17439e-06
5.06647e-06
4.96608e-06
4.87151e-06
4.78075e-06
4.69172e-06
4.60268e-06
4.51236e-06
4.42024e-06
4.32652e-06
4.23208e-06
4.13828e-06
4.04664e-06
3.95868e-06
3.87569e-06
3.79781e-06
3.66883e-06
1.56646e-05
1.55845e-05
1.54514e-05
1.53097e-05
1.51791e-05
1.50672e-05
1.49754e-05
1.49019e-05
1.4843e-05
1.4794e-05
1.47492e-05
1.47018e-05
1.46446e-05
1.45704e-05
1.44732e-05
1.43494e-05
1.4199e-05
1.4026e-05
1.38378e-05
1.36448e-05
1.34584e-05
1.32886e-05
1.31422e-05
1.30216e-05
1.29253e-05
1.2848e-05
1.2782e-05
1.27185e-05
1.26495e-05
1.25706e-05
1.24814e-05
5.41273e-06
5.29049e-06
5.17445e-06
5.06629e-06
4.96569e-06
4.871e-06
4.78001e-06
4.6906e-06
4.60094e-06
4.50987e-06
4.41699e-06
4.32267e-06
4.22794e-06
4.13423e-06
4.04321e-06
3.95639e-06
3.87511e-06
3.80036e-06
3.73331e-06
1.56367e-05
1.55192e-05
1.54004e-05
1.52851e-05
1.51783e-05
1.50828e-05
1.4999e-05
1.49259e-05
1.48615e-05
1.48027e-05
1.47458e-05
1.46863e-05
1.46187e-05
1.4537e-05
1.44362e-05
1.43131e-05
1.41674e-05
1.40023e-05
1.38241e-05
1.36421e-05
1.34665e-05
1.33065e-05
1.3168e-05
1.30529e-05
1.29598e-05
1.28835e-05
1.28165e-05
1.27507e-05
1.26791e-05
1.25974e-05
1.25056e-05
5.4128e-06
5.29065e-06
5.17462e-06
5.06648e-06
4.96584e-06
4.87098e-06
4.77963e-06
4.68962e-06
4.59919e-06
4.50729e-06
4.41368e-06
4.31883e-06
4.22392e-06
4.13052e-06
4.04035e-06
3.955e-06
3.87568e-06
3.80313e-06
3.73795e-06
1.56794e-05
1.55691e-05
1.54564e-05
1.53447e-05
1.5238e-05
1.51379e-05
1.5045e-05
1.49587e-05
1.48781e-05
1.48018e-05
1.4728e-05
1.46538e-05
1.45749e-05
1.44867e-05
1.43846e-05
1.42652e-05
1.41276e-05
1.39739e-05
1.38092e-05
1.36412e-05
1.34789e-05
1.33301e-05
1.32001e-05
1.30908e-05
1.30005e-05
1.29246e-05
1.28559e-05
1.27871e-05
1.27118e-05
1.26263e-05
1.25311e-05
5.41274e-06
5.29055e-06
5.17454e-06
5.06648e-06
4.96592e-06
4.87088e-06
4.77909e-06
4.68836e-06
4.59705e-06
4.50423e-06
4.40976e-06
4.3143e-06
4.21917e-06
4.12609e-06
4.03689e-06
3.95316e-06
3.87601e-06
3.806e-06
3.74352e-06
1.57276e-05
1.56265e-05
1.55202e-05
1.54107e-05
1.53012e-05
1.51931e-05
1.50872e-05
1.49841e-05
1.48843e-05
1.47885e-05
1.46966e-05
1.46075e-05
1.45183e-05
1.44252e-05
1.43239e-05
1.42109e-05
1.40844e-05
1.39451e-05
1.37964e-05
1.36448e-05
1.34974e-05
1.33609e-05
1.32398e-05
1.31357e-05
1.30473e-05
1.29705e-05
1.2899e-05
1.2826e-05
1.27458e-05
1.26558e-05
1.25562e-05
5.41266e-06
5.29053e-06
5.1746e-06
5.06663e-06
4.96607e-06
4.87083e-06
4.77856e-06
4.68713e-06
4.59495e-06
4.50121e-06
4.40592e-06
4.3099e-06
4.21466e-06
4.12207e-06
4.03403e-06
3.9521e-06
3.87728e-06
3.80994e-06
3.75026e-06
1.57818e-05
1.56898e-05
1.55891e-05
1.54807e-05
1.53666e-05
1.52484e-05
1.51276e-05
1.5006e-05
1.48858e-05
1.47698e-05
1.46598e-05
1.45563e-05
1.44577e-05
1.43612e-05
1.42627e-05
1.41582e-05
1.40448e-05
1.39217e-05
1.37908e-05
1.36564e-05
1.35243e-05
1.33997e-05
1.32865e-05
1.31861e-05
1.30978e-05
1.30182e-05
1.29418e-05
1.28627e-05
1.2776e-05
1.26797e-05
1.25747e-05
5.41268e-06
5.29086e-06
5.1751e-06
5.06722e-06
4.96654e-06
4.87097e-06
4.77814e-06
4.68592e-06
4.59282e-06
4.49812e-06
4.40199e-06
4.30546e-06
4.21023e-06
4.1183e-06
4.03157e-06
3.95155e-06
3.87913e-06
3.8145e-06
3.75764e-06
1.58377e-05
1.57528e-05
1.56552e-05
1.55459e-05
1.54262e-05
1.52977e-05
1.51622e-05
1.50224e-05
1.48825e-05
1.47471e-05
1.462e-05
1.45033e-05
1.4397e-05
1.42989e-05
1.4205e-05
1.41108e-05
1.4012e-05
1.39063e-05
1.37938e-05
1.36771e-05
1.35598e-05
1.34462e-05
1.33395e-05
1.32414e-05
1.31515e-05
1.30672e-05
1.29839e-05
1.28966e-05
1.28016e-05
1.26976e-05
1.25861e-05
5.41283e-06
5.29158e-06
5.17613e-06
5.06826e-06
4.96735e-06
4.87134e-06
4.7778e-06
4.6847e-06
4.59059e-06
4.49489e-06
4.39795e-06
4.30103e-06
4.20597e-06
4.11484e-06
4.02954e-06
3.95151e-06
3.88153e-06
3.81964e-06
3.76543e-06
1.59162e-05
1.5818e-05
1.57002e-05
1.55766e-05
1.54482e-05
1.5313e-05
1.51696e-05
1.50194e-05
1.4867e-05
1.47182e-05
1.4579e-05
1.44532e-05
1.43425e-05
1.42454e-05
1.41579e-05
1.4075e-05
1.39914e-05
1.39033e-05
1.3809e-05
1.37089e-05
1.36052e-05
1.3501e-05
1.33993e-05
1.33018e-05
1.32086e-05
1.31176e-05
1.30254e-05
1.29282e-05
1.28235e-05
1.27108e-05
1.25922e-05
5.41308e-06
5.2926e-06
5.17751e-06
5.0696e-06
4.96842e-06
4.87184e-06
4.77752e-06
4.68346e-06
4.58832e-06
4.49167e-06
4.39406e-06
4.29694e-06
4.20226e-06
4.11211e-06
4.02839e-06
3.95244e-06
3.88495e-06
3.82573e-06
3.77407e-06
1.59735e-05
1.58801e-05
1.57623e-05
1.56341e-05
1.5497e-05
1.5349e-05
1.51894e-05
1.50209e-05
1.48498e-05
1.46841e-05
1.45314e-05
1.43972e-05
1.42835e-05
1.41893e-05
1.41101e-05
1.40402e-05
1.39731e-05
1.39033e-05
1.38274e-05
1.37437e-05
1.3653e-05
1.35574e-05
1.34596e-05
1.33615e-05
1.32636e-05
1.31646e-05
1.30621e-05
1.2954e-05
1.28388e-05
1.27171e-05
1.25912e-05
5.41341e-06
5.29377e-06
5.17901e-06
5.07102e-06
4.96947e-06
4.87224e-06
4.77703e-06
4.68192e-06
4.5857e-06
4.48812e-06
4.38994e-06
4.29271e-06
4.19848e-06
4.10938e-06
4.02724e-06
3.95337e-06
3.88825e-06
3.8315e-06
3.78207e-06
1.60152e-05
1.59281e-05
1.58117e-05
1.56798e-05
1.5534e-05
1.5373e-05
1.51971e-05
1.50108e-05
1.48226e-05
1.46423e-05
1.44789e-05
1.43388e-05
1.42245e-05
1.41349e-05
1.40653e-05
1.4009e-05
1.39584e-05
1.39065e-05
1.38478e-05
1.37792e-05
1.37001e-05
1.36118e-05
1.35168e-05
1.34169e-05
1.33131e-05
1.32051e-05
1.3092e-05
1.29728e-05
1.28474e-05
1.27171e-05
1.25842e-05
5.41377e-06
5.29494e-06
5.1805e-06
5.07247e-06
4.97053e-06
4.87265e-06
4.77661e-06
4.68057e-06
4.58348e-06
4.48527e-06
4.38682e-06
4.2898e-06
4.1963e-06
4.10845e-06
4.02804e-06
3.95621e-06
3.8933e-06
3.83867e-06
3.78997e-06
3.68309e-06
1.56349e-05
1.56343e-05
1.55738e-05
1.5469e-05
1.53281e-05
1.51587e-05
1.4971e-05
1.47778e-05
1.45919e-05
1.44245e-05
1.42834e-05
1.41717e-05
1.40885e-05
1.40292e-05
1.39863e-05
1.39511e-05
1.39151e-05
1.38714e-05
1.38157e-05
1.37462e-05
1.36636e-05
1.35699e-05
1.34671e-05
1.33567e-05
1.32397e-05
1.31164e-05
1.29871e-05
1.28526e-05
1.27145e-05
1.25757e-05
5.41414e-06
5.29605e-06
5.18184e-06
5.07355e-06
4.97097e-06
4.87217e-06
4.77502e-06
4.67785e-06
4.57976e-06
4.4808e-06
4.382e-06
4.28513e-06
4.19233e-06
4.10568e-06
4.02687e-06
3.95691e-06
3.89592e-06
3.84308e-06
3.7958e-06
3.68735e-06
1.56474e-05
1.56451e-05
1.55807e-05
1.5469e-05
1.53186e-05
1.51384e-05
1.494e-05
1.47375e-05
1.45449e-05
1.4374e-05
1.42326e-05
1.41244e-05
1.4048e-05
1.39985e-05
1.39677e-05
1.39459e-05
1.39234e-05
1.38925e-05
1.38476e-05
1.37862e-05
1.37083e-05
1.36155e-05
1.35102e-05
1.33946e-05
1.32708e-05
1.31403e-05
1.30042e-05
1.28641e-05
1.27222e-05
1.25816e-05
5.4145e-06
5.29712e-06
5.18328e-06
5.075e-06
4.97213e-06
4.87282e-06
4.77505e-06
4.67724e-06
4.57862e-06
4.47938e-06
4.38066e-06
4.2843e-06
4.19241e-06
4.10702e-06
4.02967e-06
3.96124e-06
3.90171e-06
3.85014e-06
3.80369e-06
3.69611e-06
1.56822e-05
1.5673e-05
1.56021e-05
1.54826e-05
1.53234e-05
1.51344e-05
1.49287e-05
1.4721e-05
1.45257e-05
1.4355e-05
1.42169e-05
1.41146e-05
1.40467e-05
1.40074e-05
1.39882e-05
1.39788e-05
1.39688e-05
1.39498e-05
1.39158e-05
1.38634e-05
1.37921e-05
1.37036e-05
1.36004e-05
1.34855e-05
1.33619e-05
1.32318e-05
1.30972e-05
1.29601e-05
1.28239e-05
1.26922e-05
5.41482e-06
5.29724e-06
5.18262e-06
5.07322e-06
4.96909e-06
4.86849e-06
4.7695e-06
4.67063e-06
4.57122e-06
4.47157e-06
4.3729e-06
4.27708e-06
4.18623e-06
4.10225e-06
4.02655e-06
3.95985e-06
3.90199e-06
3.85196e-06
3.80718e-06
1.62387e-05
1.60173e-05
1.58597e-05
1.57208e-05
1.55659e-05
1.53869e-05
1.51921e-05
1.49904e-05
1.47942e-05
1.46159e-05
1.44661e-05
1.43516e-05
1.42752e-05
1.42343e-05
1.42075e-05
1.41995e-05
1.42032e-05
1.42087e-05
1.4207e-05
1.42043e-05
1.41853e-05
1.41468e-05
1.40885e-05
1.40123e-05
1.39219e-05
1.38206e-05
1.37115e-05
1.35978e-05
1.34827e-05
1.33708e-05
1.32673e-05
5.41545e-06
5.29932e-06
5.1865e-06
5.07871e-06
4.97729e-06
4.87984e-06
4.78446e-06
4.68958e-06
4.59438e-06
4.49897e-06
4.40443e-06
4.3125e-06
4.2252e-06
4.14462e-06
4.07328e-06
4.01169e-06
3.95956e-06
3.91694e-06
3.88215e-06
3.85303e-06
3.78613e-06
3.7483e-06
1.61804e-05
1.6282e-05
1.61867e-05
1.60473e-05
1.59015e-05
1.57701e-05
1.56657e-05
1.55968e-05
1.55689e-05
1.55838e-05
1.56366e-05
1.57569e-05
1.57691e-05
1.57417e-05
1.57026e-05
1.5658e-05
1.55686e-05
1.55938e-05
1.56519e-05
1.57018e-05
1.57262e-05
1.57209e-05
1.56876e-05
1.5631e-05
1.55568e-05
1.54721e-05
1.5385e-05
1.53049e-05
5.485e-06
5.46378e-06
5.44232e-06
5.42152e-06
5.39943e-06
5.37556e-06
5.34912e-06
5.31994e-06
5.28858e-06
5.25616e-06
5.22416e-06
5.19415e-06
5.16754e-06
5.1454e-06
5.12778e-06
5.11517e-06
5.10722e-06
5.10178e-06
5.09662e-06
5.08929e-06
5.05558e-06
5.0282e-06
5.00135e-06
4.97119e-06
4.94618e-06
4.91047e-06
4.8704e-06
4.83088e-06
4.79559e-06
4.76694e-06
4.74576e-06
4.73173e-06
4.72378e-06
4.73831e-06
4.74884e-06
4.7552e-06
4.75707e-06
4.75391e-06
4.72804e-06
4.70405e-06
4.68075e-06
4.65735e-06
4.63333e-06
4.60836e-06
4.58225e-06
4.55507e-06
4.52709e-06
4.49886e-06
4.47102e-06
4.44419e-06
1.02447e-05
9.29777e-06
9.73974e-06
1.0767e-05
1.17053e-05
1.22356e-05
1.23104e-05
1.20353e-05
1.15663e-05
1.10404e-05
1.05421e-05
1.00941e-05
9.76427e-06
9.74356e-06
1.00247e-05
1.032e-05
1.05882e-05
1.07871e-05
1.0803e-05
1.05121e-05
1.02591e-05
9.2603e-06
9.70224e-06
1.07344e-05
1.16681e-05
1.21827e-05
1.22361e-05
1.19414e-05
1.14603e-05
1.09318e-05
1.04373e-05
9.99321e-06
9.68945e-06
9.742e-06
9.98486e-06
1.02527e-05
1.05316e-05
1.07517e-05
1.07745e-05
1.04666e-05
1.02699e-05
9.21825e-06
9.66092e-06
1.06981e-05
1.1627e-05
1.21271e-05
1.2162e-05
1.18524e-05
1.1365e-05
1.08413e-05
1.03626e-05
9.9435e-06
9.65238e-06
9.66417e-06
9.85854e-06
1.01311e-05
1.04367e-05
1.0681e-05
1.07182e-05
1.04236e-05
1.02775e-05
9.1756e-06
9.62094e-06
1.06643e-05
1.15896e-05
1.20758e-05
1.20923e-05
1.17667e-05
1.12715e-05
1.07511e-05
1.02876e-05
9.89003e-06
9.60476e-06
9.5974e-06
9.74853e-06
1.00119e-05
1.03382e-05
1.06057e-05
1.06578e-05
1.038e-05
1.02835e-05
9.13426e-06
9.58384e-06
1.06346e-05
1.15561e-05
1.20274e-05
1.20237e-05
1.16803e-05
1.11753e-05
1.06562e-05
1.02069e-05
9.83207e-06
9.55889e-06
9.52494e-06
9.63949e-06
9.89201e-06
1.02377e-05
1.05295e-05
1.05977e-05
1.03393e-05
1.02902e-05
9.09594e-06
9.55112e-06
1.06098e-05
1.15265e-05
1.19805e-05
1.19537e-05
1.15896e-05
1.10727e-05
1.05534e-05
1.01176e-05
9.76412e-06
9.50813e-06
9.44593e-06
9.52942e-06
9.77437e-06
1.01414e-05
1.04589e-05
1.05436e-05
1.03039e-05
1.02992e-05
9.06029e-06
9.52234e-06
1.05895e-05
1.14994e-05
1.19325e-05
1.18789e-05
1.1491e-05
1.09599e-05
1.04389e-05
1.0016e-05
9.68613e-06
9.45625e-06
9.36926e-06
9.42465e-06
9.66546e-06
1.00554e-05
1.03988e-05
1.04989e-05
1.02735e-05
1.03104e-05
9.02517e-06
9.49591e-06
1.05716e-05
1.1473e-05
1.18818e-05
1.17978e-05
1.13834e-05
1.0836e-05
1.03122e-05
9.9005e-06
9.5974e-06
9.40995e-06
9.30632e-06
9.33252e-06
9.56982e-06
9.9818e-06
1.03493e-05
1.04625e-05
1.02454e-05
1.03224e-05
8.98778e-06
9.46979e-06
1.05547e-05
1.14457e-05
1.18277e-05
1.17106e-05
1.12676e-05
1.07026e-05
1.01747e-05
9.77331e-06
9.49865e-06
9.36893e-06
9.26129e-06
9.25601e-06
9.4868e-06
9.91729e-06
1.03059e-05
1.04296e-05
1.02166e-05
1.03331e-05
8.94611e-06
9.44276e-06
1.05383e-05
1.14178e-05
1.17711e-05
1.1619e-05
1.11458e-05
1.05619e-05
1.00279e-05
9.63523e-06
9.38736e-06
9.32153e-06
9.22652e-06
9.19115e-06
9.41054e-06
9.85489e-06
1.02618e-05
1.03948e-05
1.0185e-05
1.03409e-05
8.89953e-06
9.41479e-06
1.05228e-05
1.13911e-05
1.17141e-05
1.1525e-05
1.10193e-05
1.04142e-05
9.87182e-06
9.48444e-06
9.25629e-06
9.24737e-06
9.18508e-06
9.12884e-06
9.33371e-06
9.78797e-06
1.02115e-05
1.03546e-05
1.01507e-05
1.03451e-05
8.84901e-06
9.38727e-06
1.05103e-05
1.13675e-05
1.16586e-05
1.14296e-05
1.08883e-05
1.02586e-05
9.70432e-06
9.31713e-06
9.09743e-06
9.1262e-06
9.11874e-06
9.06027e-06
9.25173e-06
9.71364e-06
1.01538e-05
1.03094e-05
1.01154e-05
1.03461e-05
8.79643e-06
9.3622e-06
1.05027e-05
1.13488e-05
1.16054e-05
1.13325e-05
1.07511e-05
1.00927e-05
9.5224e-06
9.13031e-06
8.90797e-06
8.93964e-06
9.01783e-06
8.98164e-06
9.16497e-06
9.63391e-06
1.00918e-05
1.02623e-05
1.00813e-05
1.03455e-05
8.74416e-06
9.34164e-06
1.0502e-05
1.13358e-05
1.1554e-05
1.12318e-05
1.0605e-05
9.91381e-06
9.32401e-06
8.92348e-06
8.69324e-06
8.72622e-06
8.89259e-06
8.89615e-06
9.07802e-06
9.55389e-06
1.00301e-05
1.02172e-05
1.00499e-05
1.03447e-05
8.69399e-06
9.32687e-06
1.05086e-05
1.13279e-05
1.15025e-05
1.11247e-05
1.04473e-05
9.72011e-06
9.10917e-06
8.69934e-06
8.46387e-06
8.51973e-06
8.7594e-06
8.81052e-06
8.99633e-06
9.47822e-06
9.97233e-06
1.01765e-05
1.00211e-05
1.03452e-05
8.64652e-06
9.31817e-06
1.05218e-05
1.13233e-05
1.14483e-05
1.10087e-05
1.02766e-05
9.51189e-06
8.87996e-06
8.46228e-06
8.22957e-06
8.32984e-06
8.62997e-06
8.72986e-06
8.92262e-06
9.40865e-06
9.91929e-06
1.014e-05
9.99408e-06
1.03477e-05
8.60115e-06
9.31449e-06
1.05397e-05
1.13192e-05
1.13888e-05
1.08825e-05
1.00933e-05
9.29126e-06
8.63978e-06
8.21603e-06
7.9933e-06
8.15655e-06
8.50785e-06
8.65464e-06
8.85565e-06
9.34364e-06
9.86908e-06
1.01059e-05
9.96751e-06
1.03518e-05
8.55625e-06
9.31381e-06
1.05595e-05
1.13128e-05
1.13222e-05
1.07459e-05
9.89913e-06
9.06159e-06
8.39234e-06
7.96261e-06
7.74963e-06
7.98431e-06
8.38799e-06
8.5811e-06
8.79149e-06
9.27985e-06
9.81889e-06
1.00719e-05
9.94066e-06
1.03563e-05
8.50985e-06
9.31394e-06
1.05785e-05
1.13021e-05
1.1248e-05
1.06003e-05
9.69719e-06
8.82698e-06
8.14166e-06
7.70315e-06
7.4901e-06
7.79397e-06
8.26142e-06
8.50414e-06
8.72609e-06
9.21445e-06
9.76677e-06
1.0037e-05
9.91361e-06
1.03595e-05
8.46064e-06
9.31319e-06
1.05947e-05
1.12859e-05
1.11665e-05
1.04478e-05
9.49107e-06
8.59207e-06
7.89248e-06
7.44042e-06
7.21239e-06
7.57584e-06
8.12231e-06
8.42072e-06
8.65744e-06
9.14667e-06
9.71263e-06
1.00013e-05
9.88684e-06
1.03601e-05
8.4086e-06
9.31083e-06
1.06073e-05
1.1264e-05
1.10789e-05
1.02909e-05
9.2846e-06
8.36182e-06
7.6505e-06
7.18084e-06
6.92558e-06
7.3358e-06
7.97239e-06
8.33134e-06
8.58609e-06
9.07772e-06
9.65783e-06
9.96564e-06
9.86077e-06
1.03576e-05
8.35514e-06
9.30716e-06
1.06161e-05
1.12366e-05
1.09862e-05
1.0132e-05
9.0816e-06
8.14134e-06
7.42236e-06
6.93372e-06
6.64968e-06
7.09334e-06
7.81981e-06
8.23919e-06
8.51394e-06
9.00937e-06
9.60377e-06
9.93079e-06
9.83539e-06
1.03525e-05
8.30258e-06
9.30291e-06
1.06211e-05
1.12038e-05
1.08894e-05
9.97335e-06
8.88583e-06
7.93587e-06
7.21467e-06
6.70843e-06
6.4081e-06
6.87391e-06
7.67428e-06
8.14781e-06
8.44255e-06
8.9426e-06
9.55101e-06
9.89672e-06
9.81042e-06
1.03465e-05
8.25307e-06
9.2985e-06
1.06218e-05
1.1165e-05
1.07887e-05