/*--------------------------------*- C++ -*----------------------------------*\
  =========                 |
  \\      /  F ield         | OpenFOAM: The Open Source CFD Toolbox
   \\    /   O peration     | Website:  https://openfoam.org
    \\  /    A nd           | Version:  8
     \\/     M anipulation  |
\*---------------------------------------------------------------------------*/
FoamFile
{
    version     2.0;
    format      ascii;
    class       volScalarField;
    location    "600";
    object      p;
}
// * * * * * * * * * * * * * * * * * * * * * * * * * * * * * * * * * * * * * //

dimensions      [1 -1 -2 0 0 0 0];

internalField   nonuniform List<scalar> 
8400
(
42251.6
82962.9
110582
126762
135957
141411
145112
147951
150065
151187
150933
148993
145803
142380
139179
136009
132478
128643
125722
125367
128277
134804
144983
158328
174170
191850
210824
230702
250832
269804
285630
297618
307449
317439
329302
343739
360588
379048
397892
415935
432797
449005
465121
481355
497565
513407
528474
542403
555053
566411
48211.9
94256.7
118483
130807
137180
140936
143989
146982
149724
151658
152149
150219
146235
141905
137609
133025
127689
121466
116676
116412
120471
128698
140966
156111
172957
190931
209949
230175
251245
271487
287542
298100
306259
315029
326253
340575
357749
376865
396226
413932
429572
444546
459880
475916
492433
508917
524772
539441
552550
563945
50140.4
96745.1
120386
131900
138066
142503
146407
149831
152496
153897
153593
151129
147290
143375
139624
135588
130069
120954
112083
109476
111565
118950
131927
147640
164212
181861
201536
223901
249077
275142
293446
300757
305980
313311
324215
339044
357448
378460
399400
416523
429619
442713
457186
473169
490081
507110
523504
538584
551834
563008
28031.7
81396
110943
125466
133973
140424
145742
149926
152819
154166
153663
150870
146736
142511
138383
134069
128892
122106
116290
113872
115423
122840
135687
150667
166311
183909
204985
229982
258659
285539
298998
299314
297681
301768
312616
329316
351407
377708
402788
418717
428238
440836
455869
472313
489374
506303
522475
537278
550279
561219
8290.69
52401.7
82342.1
98362.9
108979
117976
125702
131879
136416
139299
140492
139995
138425
136545
134640
132635
130174
127338
125856
127233
132079
141041
153416
167269
181766
197701
216129
237591
261938
285072
294820
294980
296677
304217
318498
338811
364176
390737
410774
419469
424668
437769
455142
472641
489708
506313
522073
536484
549182
559929
6252.22
29984.6
51032.2
65634.9
77204.9
87639.2
96850.5
104520
110658
115420
118942
121374
123037
124320
125514
126782
128270
130271
133430
138328
145264
154437
165753
178776
193183
209073
226715
246117
266472
285030
297293
304717
311804
321957
336421
354789
375850
396506
411772
419127
428822
443814
460539
477196
493535
509409
524396
538017
549899
559782
1421.6
19365.5
38057.8
52502.2
64331
74721.1
83800.1
91579.7
98227.2
103932
108818
113013
116717
120194
123694
127417
131519
136161
141584
148070
155882
165249
176272
188844
202768
217936
234336
251829
269811
286952
301711
314446
326860
340597
356355
373861
392059
408999
422451
432469
443409
457191
472593
488213
503523
518130
531520
543263
553117
561048
3848.67
16374.5
31566.1
43962.3
54396.5
63689.7
72031.3
79541.5
86385.3
92693.5
98547.7
104029
109270
114438
119701
125193
131031
137330
144246
151985
160751
170684
181810
194043
207268
221439
236583
252697
269566
286692
303536
320073
336737
353973
371858
390024
407710
423893
437798
449833
461758
474592
488147
501853
515232
527809
539082
548642
556343
562294
3259.5
13992.5
26971.9
37592.3
46762.5
55098.1
62793.4
70024.1
76950.7
83667
90228.4
96687.9
103128
109651
116370
123396
130823
138740
147235
156381
166220
176742
187903
199656
212008
225053
238970
253954
270111
287379
305577
324539
344121
364110
384141
403702
422190
439047
454010
467380
479907
492124
504083
515560
526434
536565
545566
553071
558917
563222
5777.03
16071.1
27336.7
36306.5
44082
51240.2
58044
64713.9
71398.1
78170.1
85064.3
92109.5
99344.9
106822
114601
122745
131299
140292
149736
159625
169935
180637
191705
203153
215062
227603
241031
255647
271718
289379
308584
329118
350609
372545
394322
415318
434969
452863
468847
483069
495879
507581
518293
527980
536542
544136
550809
556334
560559
563544
9999.06
20114.4
29330.4
36618.2
43018.5
49056.4
55032.6
61146.5
67509.4
74171
81149.4
88453.2
96088.1
104072
112429
121179
130331
139877
149802
160083
170700
181640
192900
204518
216590
229296
242908
257762
274183
292381
312375
333947
356648
379850
402850
424963
445604
464371
481084
495780
508638
519855
529573
537862
544749
550321
554897
558620
561431
563354
15905.7
24560.3
31724.2
37830.7
43428.7
48864.4
54380.6
60132.5
66216.4
72684.7
79557.4
86842
94537.3
102642
111162
120102
129454
139202
149320
159789
170614
181793
193325
205256
217683
230782
244814
260107
277004
295746
316380
338675
362147
386126
409881
432700
453970
473257
490341
505197
517926
528676
537606
544855
550548
554800
557876
560154
561804
562877
19371.3
27283.1
33107.7
38504.4
43684.9
48851.9
54180.4
59800.8
65800.8
72231
79107
86426.8
94179.8
102352
110934
119923
129312
139092
149243
159767
170694
182027
193761
205943
218675
232133
246573
262325
279725
299015
320218
343064
367036
391441
415569
438723
460249
479692
496818
511580
524043
534335
542635
549134
554018
557473
559691
561024
561833
562262
19645.6
28263.3
34377.7
39634.5
44565.2
49441.7
54470.6
59811.8
65580.9
71843.6
78627
85929.4
93731.5
102004
110722
119863
129406
139339
149649
160350
171455
182967
194894
207276
220221
233917
248644
264759
282604
302390
324069
347313
371558
396053
420179
443323
464759
484032
500921
515401
527521
537378
545184
551163
555541
558534
560363
561258
561575
561584
18221.2
27325.6
34429.3
40298
45545.7
50539.9
55548.3
60766.3
66352.8
72408
78990.1
86125.8
93821.2
102066
110834
120083
129766
139850
150323
161193
172484
184221
196423
209126
222429
236514
251656
268194
286429
306525
328401
351726
375955
400398
424398
447239
468245
487035
503403
517346
528981
538416
545839
551486
555590
558371
560046
560868
561101
561043
17315.7
26092.6
33687.8
40107.6
45788.5
51068.3
56220.2
61468.6
66992.9
72926.8
79344.7
86274.8
93759.1
101843
110533
119780
129521
139725
150375
161474
173047
185130
197760
210989
224908
239672
255508
272675
291395
311766
333686
356842
380729
404716
428132
450291
470635
488827
504677
518115
529216
538185
545256
550664
554628
557346
559006
559843
560156
560212
17206.1
25535.6
33268.6
40045.5
46135.8
51777.7
57197.8
62599.2
68163.4
74036.7
80317.6
87102.4
94449.5
102356
110810
119835
129474
139726
150531
161858
173730
186184
199275
213072
227674
243213
259851
277756
297045
317729
339663
362527
385850
409063
431559
452750
472176
489523
504618
517412
528010
536627
543464
548721
552597
555294
557037
558091
558722
559118
17172.9
25010.8
32716.9
39708.7
46153.7
52195.6
57993.9
63706.6
69487.6
75479.5
81819.5
88607
95889.9
103697
112050
120976
130497
140619
151391
162837
174932
187696
201184
215472
230657
246855
264183
282732
302534
323513
345468
368057
390827
413262
434827
455031
473484
489917
504202
516338
526448
534719
541332
546483
550378
553244
555310
556777
557791
558465
16850.5
24056.1
31528.4
38530
45160.9
51499.1
57651.9
63732.3
69859.8
76154.3
82735.4
89687.6
97061.8
104902
113254
122158
131653
141767
152533
163991
176185
189146
202916
217560
233169
249838
267648
286643
306796
327980
349951
372349
394731
416610
437502
456978
474704
490468
504178
515864
525649
533702
540202
545337
549305
552312
554555
556191
557324
558057
16372.9
23002.5
30194.3
37091.9
43755.1
50233.4
56603.6
62950.2
69362.3
75932.1
82752.3
89895.3
97411.6
105355
113781
122741
132282
142445
153275
164818
177128
190258
204255
219184
235123
252148
270316
289640
310060
331417
353441
375762
397938
419496
439984
459009
476274
491598
504922
516287
525816
533671
540028
545071
548988
551969
554198
555821
556910
557551
569149
569149
569148
569148
569148
569148
569148
569148
569148
569148
569148
569148
569148
569148
569148
569148
569148
569147
569147
569147
569146
569145
569145
569144
569144
569143
569143
569143
569142
569142
569142
569142
569142
569142
569143
569143
569143
569144
569144
569144
569144
569145
569145
569144
569144
569144
569144
569144
569143
569143
569051
569051
569051
569051
569051
569051
569051
569050
569050
569051
569051
569051
569051
569051
569051
569050
569050
569050
569049
569049
569048
569048
569047
569047
569046
569046
569045
569045
569045
569045
569045
569045
569045
569045
569045
569045
569046
569046
569046
569047
569047
569047
569047
569047
569047
569046
569046
569046
569046
569046
568953
568953
568953
568953
568953
568953
568953
568953
568953
568953
568953
568953
568953
568953
568953
568953
568953
568952
568952
568951
568951
568950
568950
568949
568949
568948
568948
568948
568947
568947
568947
568947
568947
568947
568948
568948
568948
568949
568949
568949
568949
568949
568949
568949
568949
568949
568949
568948
568948
568948
568856
568856
568856
568856
568855
568855
568855
568855
568855
568855
568855
568855
568855
568855
568855
568855
568855
568855
568854
568854
568853
568853
568852
568852
568851
568851
568850
568850
568850
568850
568849
568849
568850
568850
568850
568850
568851
568851
568851
568851
568852
568852
568852
568852
568851
568851
568851
568851
568851
568850
568758
568758
568758
568758
568758
568758
568758
568758
568758
568758
568758
568758
568758
568758
568758
568758
568757
568757
568757
568756
568755
568755
568754
568754
568753
568753
568753
568752
568752
568752
568752
568752
568752
568752
568752
568753
568753
568753
568754
568754
568754
568754
568754
568754
568754
568754
568753
568753
568753
568753
568660
568660
568660
568660
568660
568660
568660
568660
568660
568660
568660
568660
568660
568660
568660
568660
568660
568659
568659
568658
568658
568657
568657
568656
568656
568656
568655
568655
568655
568655
568654
568654
568654
568655
568655
568655
568655
568656
568656
568656
568656
568656
568656
568656
568656
568656
568656
568656
568656
568655
568563
568563
568563
568563
568563
568563
568563
568563
568563
568563
568563
568563
568563
568562
568562
568562
568562
568561
568561
568561
568560
568560
568559
568559
568558
568558
568558
568557
568557
568557
568557
568557
568557
568557
568557
568557
568558
568558
568558
568558
568559
568559
568559
568559
568558
568558
568558
568558
568558
568558
568465
568465
568465
568465
568465
568465
568465
568465
568465
568465
568465
568465
568465
568465
568465
568464
568464
568464
568463
568463
568462
568462
568461
568461
568461
568460
568460
568460
568460
568460
568459
568459
568459
568459
568460
568460
568460
568460
568460
568461
568461
568461
568461
568461
568461
568461
568461
568461
568460
568460
568368
568368
568368
568368
568368
568368
568368
568368
568368
568367
568367
568367
568367
568367
568367
568367
568366
568366
568366
568365
568365
568364
568364
568364
568363
568363
568363
568362
568362
568362
568362
568362
568362
568362
568362
568362
568362
568363
568363
568363
568363
568363
568363
568363
568363
568363
568363
568363
568363
568363
568270
568270
568270
568270
568270
568270
568270
568270
568270
568270
568270
568270
568270
568269
568269
568269
568269
568268
568268
568267
568267
568267
568266
568266
568266
568265
568265
568265
568265
568265
568264
568264
568264
568264
568264
568264
568265
568265
568265
568265
568265
568265
568265
568265
568265
568265
568265
568265
568265
568265
568173
568173
568173
568173
568173
568173
568173
568173
568172
568172
568172
568172
568172
568172
568171
568171
568171
568170
568170
568170
568169
568169
568169
568168
568168
568168
568168
568168
568167
568167
568167
568167
568167
568167
568167
568167
568167
568167
568167
568167
568168
568168
568168
568168
568168
568168
568168
568168
568168
568168
568075
568075
568075
568075
568075
568075
568075
568075
568075
568075
568075
568074
568074
568074
568074
568073
568073
568073
568072
568072
568071
568071
568071
568071
568071
568070
568070
568070
568070
568070
568069
568069
568069
568069
568069
568069
568069
568069
568069
568070
568070
568070
568070
568070
568070
568070
568070
568070
568070
568070
567978
567978
567978
567978
567978
567978
567978
567977
567977
567977
567977
567977
567977
567976
567976
567976
567975
567975
567975
567974
567974
567974
567973
567973
567973
567973
567973
567973
567972
567972
567972
567972
567972
567972
567971
567971
567972
567972
567972
567972
567972
567972
567972
567972
567972
567973
567973
567973
567973
567973
567880
567880
567880
567880
567880
567880
567880
567880
567880
567880
567879
567879
567879
567879
567878
567878
567878
567877
567877
567876
567876
567876
567876
567876
567875
567875
567875
567875
567875
567875
567874
567874
567874
567874
567874
567874
567874
567874
567874
567874
567874
567874
567875
567875
567875
567875
567875
567875
567875
567876
567782
567782
567783
567783
567783
567782
567782
567782
567782
567782
567782
567782
567781
567781
567781
567780
567780
567779
567779
567779
567778
567778
567778
567778
567778
567778
567778
567778
567777
567777
567777
567777
567776
567776
567776
567776
567776
567776
567776
567776
567777
567777
567777
567777
567777
567777
567778
567778
567778
567778
567685
567685
567685
567685
567685
567685
567685
567685
567685
567684
567684
567684
567684
567683
567683
567683
567682
567682
567681
567681
567681
567681
567680
567680
567680
567680
567680
567680
567680
567680
567679
567679
567679
567679
567679
567679
567678
567679
567679
567679
567679
567679
567679
567679
567680
567680
567680
567680
567680
567681
567587
567587
567587
567587
567587
567587
567587
567587
567587
567587
567587
567586
567586
567586
567585
567585
567584
567584
567584
567583
567583
567583
567583
567583
567583
567583
567583
567582
567582
567582
567582
567582
567581
567581
567581
567581
567581
567581
567581
567581
567581
567581
567582
567582
567582
567582
567583
567583
567583
567583
567490
567490
567490
567490
567490
567490
567490
567490
567490
567489
567489
567489
567488
567488
567488
567487
567487
567486
567486
567486
567486
567485
567485
567485
567485
567485
567485
567485
567485
567484
567484
567484
567484
567484
567483
567483
567483
567483
567483
567483
567483
567484
567484
567484
567484
567485
567485
567485
567485
567485
567392
567392
567392
567392
567392
567392
567392
567392
567392
567392
567391
567391
567391
567390
567390
567390
567389
567389
567388
567388
567388
567388
567388
567388
567388
567388
567387
567387
567387
567387
567387
567386
567386
567386
567386
567386
567386
567386
567386
567386
567386
567386
567386
567387
567387
567387
567387
567388
567388
567388
567295
567295
567295
567295
567295
567295
567295
567294
567294
567294
567294
567294
567293
567293
567292
567292
567292
567291
567291
567291
567290
567290
567290
567290
567290
567290
567290
567290
567290
567289
567289
567289
567289
567288
567288
567288
567288
567288
567288
567288
567288
567288
567289
567289
567289
567290
567290
567290
567290
567290
578762
578762
578762
578763
578763
578763
578763
578763
578762
578761
578761
578760
578759
578758
578757
578756
578756
578755
578755
578755
578666
578666
578665
578665
578664
578663
578662
578661
578660
578658
578656
578655
578653
578651
578649
578647
578645
578644
578642
578642
578571
578570
578568
578567
578565
578564
578562
578560
578557
578555
578552
578550
578547
578544
578541
578538
578536
578533
578531
578529
578476
578474
578471
578469
578466
578464
578461
578458
578455
578451
578448
578445
578441
578438
578434
578430
578426
578423
578419
578417
578381
578378
578374
578371
578368
578364
578360
578357
578352
578348
578344
578339
578335
578331
578326
578321
578317
578312
578308
578305
578285
578282
578277
578273
578269
578264
578260
578255
578250
578245
578240
578234
578229
578224
578218
578213
578207
578202
578197
578192
578190
578186
578180
578175
578170
578165
578159
578153
578148
578142
578135
578129
578123
578117
578111
578104
578098
578092
578086
578080
578095
578090
578083
578077
578071
578065
578058
578052
578045
578038
578031
578024
578017
578010
578003
577996
577989
577982
577974
577968
578000
577993
577986
577979
577972
577965
577958
577950
577943
577935
577927
577919
577911
577903
577895
577887
577879
577871
577863
577856
577904
577897
577889
577881
577873
577865
577857
577849
577840
577832
577823
577814
577805
577796
577787
577778
577769
577761
577752
577744
577809
577801
577792
577783
577774
577766
577757
577747
577738
577728
577718
577709
577698
577689
577679
577669
577659
577650
577640
577631
577714
577705
577695
577686
577676
577666
577656
577646
577636
577625
577614
577603
577592
577582
577571
577560
577550
577539
577528
577518
577620
577610
577598
577588
577577
577567
577556
577545
577533
577522
577510
577498
577486
577474
577463
577451
577439
577428
577416
577406
577525
577514
577502
577491
577479
577468
577455
577443
577431
577418
577406
577393
577380
577367
577355
577342
577329
577317
577304
577292
577431
577419
577406
577394
577381
577368
577355
577342
577329
577315
577302
577288
577274
577260
577247
577233
577219
577206
577192
577179
577336
577324
577309
577297
577283
577269
577255
577241
577226
577212
577197
577183
577168
577153
577138
577124
577109
577094
577080
577066
577242
577229
577213
577199
577184
577170
577155
577140
577124
577109
577093
577078
577062
577046
577030
577015
576999
576983
576968
576953
577148
577133
577117
577102
577086
577071
577055
577039
577022
577006
576989
576973
576956
576939
576922
576906
576889
576872
576856
576840
577053
577038
577021
577005
576988
576972
576955
576938
576920
576903
576885
576868
576850
576832
576815
576797
576779
576762
576744
576728
576959
576943
576925
576908
576890
576873
576855
576837
576818
576800
576782
576763
576744
576726
576707
576689
576670
576651
576633
576615
576865
576848
576829
576811
576793
576774
576755
576736
576717
576697
576678
576658
576639
576619
576600
576580
576561
576541
576522
576503
576771
576753
576733
576715
576695
576676
576656
576636
576615
576595
576574
576554
576533
576513
576492
576472
576452
576431
576411
576392
576678
576659
576638
576619
576598
576577
576556
576535
576514
576493
576471
576450
576428
576407
576385
576364
576343
576322
576300
576280
576584
576564
576543
576522
576501
576479
576457
576436
576413
576391
576368
576346
576323
576301
576279
576257
576234
576212
576190
576169
576491
576470
576448
576426
576404
576382
576359
576336
576313
576289
576266
576242
576219
576195
576172
576149
576126
576104
576080
576059
576398
576376
576353
576331
576307
576284
576260
576237
576212
576188
576163
576139
576114
576090
576066
576042
576018
575995
575971
575949
576305
576283
576258
576235
576211
576187
576162
576138
576112
576087
576061
576036
576010
575985
575960
575936
575911
575887
575862
575839
576213
576190
576164
576140
576115
576090
576064
576039
576013
575986
575959
575933
575907
575881
575855
575829
575804
575779
575753
575729
576121
576097
576070
576046
576019
575993
575967
575940
575913
575886
575858
575831
575803
575776
575750
575724
575697
575671
575645
575620
576029
576004
575977
575951
575924
575897
575870
575842
575814
575786
575756
575728
575700
575672
575645
575618
575591
575564
575536
575510
575939
575912
575884
575858
575830
575802
575774
575745
575716
575686
575656
575626
575597
575569
575541
575513
575485
575457
575429
575402
575848
575821
575792
575764
575735
575707
575677
575648
575618
575587
575556
575526
575496
575466
575437
575408
575379
575351
575321
575293
575758
575730
575701
575672
575642
575612
575582
575551
575520
575489
575457
575426
575395
575365
575334
575304
575274
575245
575214
575185
575669
575640
575609
575580
575549
575518
575487
575455
575423
575391
575359
575327
575295
575263
575232
575201
575170
575139
575108
575078
575580
575550
575519
575488
575456
575424
575392
575360
575327
575294
575260
575228
575195
575162
575130
575097
575065
575034
575001
574971
575492
575461
575428
575396
575364
575331
575298
575264
575230
575196
575162
575129
575095
575061
575028
574995
574961
574929
574895
574864
575404
575372
575338
575305
575272
575238
575204
575169
575134
575099
575065
575030
574995
574961
574926
574892
574858
574824
574790
574757
575317
575284
575249
575215
575180
575145
575110
575075
575039
575003
574967
574932
574896
574861
574825
574790
574755
574720
574685
574652
575230
575196
575160
575125
575089
575053
575017
574981
574944
574907
574870
574834
574797
574761
574724
574688
574652
574617
574581
574547
575143
575108
575072
575036
574999
574962
574925
574887
574850
574812
574774
574736
574699
574662
574625
574588
574551
574515
574478
574443
575057
575021
574984
574947
574909
574871
574833
574795
574756
574717
574679
574640
574602
574564
574526
574488
574450
574413
574375
574339
574972
574935
574896
574858
574820
574781
574742
574703
574663
574624
574584
574545
574505
574466
574427
574389
574350
574312
574274
574237
574887
574849
574810
574771
574731
574692
574652
574612
574571
574531
574490
574450
574410
574370
574330
574291
574251
574213
574173
574135
574802
574763
574723
574683
574643
574603
574562
574521
574480
574438
574397
574356
574315
574274
574233
574193
574153
574113
574073
574034
574718
574678
574637
574597
574556
574514
574473
574431
574389
574347
574304
574262
574221
574179
574138
574096
574055
574015
573973
573934
574635
574594
574552
574510
574468
574426
574384
574341
574299
574256
574213
574170
574127
574085
574042
574000
573958
573917
573874
573834
574551
574510
574467
574425
574382
574339
574296
574253
574209
574165
574121
574077
574034
573991
573947
573905
573862
573819
573776
573735
574468
574426
574382
574339
574296
574252
574208
574164
574120
574075
574030
573986
573941
573897
573853
573809
573766
573722
573678
573636
574386
574343
574298
574254
574210
574166
574121
574076
574031
573985
573940
573894
573849
573804
573760
573715
573670
573626
573581
573538
574304
574260
574215
574170
574125
574080
574034
573989
573942
573896
573850
573804
573758
573712
573666
573621
573575
573530
573484
573440
574223
574177
574131
574086
574040
573994
573948
573901
573854
573807
573760
573713
573666
573620
573573
573527
573480
573435
573388
573343
574142
574095
574049
574002
573956
573909
573862
573814
573767
573719
573671
573623
573576
573528
573481
573434
573386
573340
573292
573246
574061
574014
573967
573919
573872
573824
573776
573728
573679
573631
573582
573533
573485
573437
573389
573341
573293
573245
573196
573149
573981
573933
573885
573836
573788
573739
573690
573641
573592
573543
573493
573444
573395
573346
573297
573248
573199
573151
573101
573053
573902
573853
573803
573754
573705
573655
573606
573556
573506
573456
573405
573355
573305
573255
573206
573156
573106
573057
573007
572958
573822
573773
573722
573672
573622
573572
573521
573470
573420
573369
573318
573267
573216
573165
573115
573064
573014
572964
572913
572863
573744
573693
573642
573591
573540
573489
573437
573386
573334
573283
573231
573179
573128
573076
573025
572973
572922
572871
572819
572769
573665
573614
573562
573510
573458
573406
573354
573302
573249
573197
573144
573092
573039
572987
572935
572883
572831
572779
572726
572675
573588
573535
573482
573430
573377
573324
573271
573218
573165
573112
573058
573005
572952
572899
572846
572793
572740
572687
572634
572582
573510
573457
573403
573350
573296
573242
573188
573135
573081
573027
572973
572919
572865
572811
572757
572704
572650
572596
572542
572489
573433
573378
573324
573270
573215
573161
573106
573052
572997
572942
572888
572833
572778
572724
572669
572615
572560
572506
572451
572397
573356
573301
573245
573190
573135
573080
573025
572969
572914
572859
572803
572748
572692
572637
572582
572526
572471
572416
572361
572306
573279
573223
573167
573111
573055
572999
572943
572887
572831
572775
572719
572663
572607
572550
572494
572439
572383
572327
572270
572214
573202
573146
573089
573032
572976
572919
572862
572805
572749
572692
572635
572579
572522
572465
572408
572351
572294
572238
572181
572124
573126
573069
573011
572954
572896
572839
572781
572724
572666
572609
572552
572495
572437
572379
572322
572264
572207
572149
572091
572034
573050
572992
572934
572876
572817
572759
572701
572643
572585
572527
572469
572411
572353
572294
572236
572178
572119
572061
572002
571944
572975
572916
572857
572798
572739
572680
572621
572562
572503
572444
572386
572327
572268
572209
572150
572091
572032
571973
571914
571854
572900
572840
572780
572721
572661
572601
572542
572482
572422
572363
572303
572244
572185
572125
572065
572005
571945
571885
571825
571765
572825
572765
572704
572644
572583
572523
572463
572402
572342
572281
572221
572161
572101
572041
571980
571919
571859
571798
571737
571676
572751
572690
572629
572568
572506
572445
572384
572323
572262
572201
572139
572078
572017
571956
571895
571834
571772
571710
571649
571587
572678
572616
572554
572492
572430
572368
572306
572244
572182
572120
572058
571996
571934
571872
571810
571748
571685
571623
571560
571497
572605
572542
572479
572417
572354
572291
572228
572166
572103
572040
571977
571915
571852
571789
571726
571663
571599
571536
571472
571409
572533
572469
572405
572342
572278
572215
572151
572088
572024
571961
571897
571833
571770
571706
571642
571578
571514
571450
571386
571322
572461
572397
572332
572268
572203
572139
572075
572010
571946
571882
571817
571753
571688
571624
571559
571495
571430
571366
571301
571236
572390
572325
572259
572194
572129
572064
571999
571934
571868
571803
571738
571673
571608
571543
571477
571412
571347
571282
571216
571151
572319
572253
572187
572121
572055
571990
571924
571858
571792
571726
571660
571594
571528
571462
571396
571330
571264
571198
571132
571066
572249
572182
572116
572049
571982
571916
571849
571782
571715
571649
571582
571515
571449
571382
571315
571249
571182
571115
571049
570982
572180
572112
572045
571977
571910
571842
571775
571707
571640
571572
571505
571438
571370
571303
571235
571168
571101
571033
570966
570898
572111
572042
571974
571906
571838
571770
571702
571633
571565
571497
571429
571361
571292
571224
571156
571088
571020
570952
570884
570816
572042
571973
571904
571836
571767
571698
571629
571560
571491
571422
571353
571284
571216
571147
571078
571009
570940
570872
570803
570734
571974
571905
571835
571766
571696
571627
571557
571487
571418
571348
571279
571209
571139
571070
571000
570931
570861
570792
570722
570653
571907
571837
571766
571696
571626
571556
571486
571416
571345
571275
571205
571134
571064
570994
570924
570853
570783
570713
570643
570573
571840
571769
571698
571628
571557
571486
571415
571344
571273
571202
571131
571060
570990
570919
570848
570777
570706
570635
570564
570493
571774
571702
571631
571560
571488
571417
571345
571274
571202
571131
571059
570987
570916
570844
570773
570701
570629
570558
570486
570415
571708
571636
571564
571492
571420
571348
571276
571204
571132
571060
570987
570915
570843
570771
570698
570626
570554
570482
570409
570337
571644
571571
571498
571426
571353
571280
571208
571135
571062
570989
570916
570844
570771
570698
570625
570552
570479
570406
570333
570261
571580
571506
571433
571360
571286
571213
571140
571066
570993
570920
570846
570773
570699
570626
570552
570479
570405
570332
570258
570185
571516
571442
571368
571295
571221
571147
571073
570999
570925
570851
570777
570703
570629
570554
570480
570406
570332
570258
570184
570110
571454
571379
571305
571230
571156
571081
571007
570932
570857
570783
570708
570633
570559
570484
570409
570335
570260
570185
570110
570036
571392
571317
571242
571167
571092
571016
570941
570866
570791
570716
570640
570565
570490
570414
570339
570264
570188
570113
570038
569962
571331
571256
571180
571104
571028
570952
570877
570801
570725
570649
570573
570497
570421
570345
570269
570194
570118
570042
569966
569890
571271
571195
571118
571042
570966
570889
570813
570736
570660
570583
570507
570430
570354
570277
570201
570124
570048
569971
569895
569818
571212
571135
571058
570981
570904
570827
570750
570673
570595
570518
570441
570364
570287
570210
570133
570056
569979
569902
569824
569747
571153
571076
570998
570920
570843
570765
570687
570610
570532
570454
570377
570299
570221
570143
570066
569988
569910
569833
569755
569677
571095
571017
570939
570861
570782
570704
570626
570548
570469
570391
570313
570234
570156
570078
570000
569921
569843
569765
569687
569608
571038
570959
570880
570802
570723
570644
570565
570486
570407
570328
570250
570171
570092
570013
569934
569856
569777
569698
569619
569540
570982
570902
570823
570743
570664
570585
570505
570426
570346
570267
570187
570108
570029
569949
569870
569791
569711
569632
569552
569473
570926
570846
570766
570686
570606
570526
570446
570366
570286
570206
570126
570046
569966
569886
569806
569727
569647
569567
569487
569407
570871
570790
570710
570629
570549
570468
570388
570307
570227
570146
570066
569985
569905
569824
569744
569663
569583
569502
569422
569341
570817
570736
570655
570574
570493
570411
570330
570249
570168
570087
570006
569925
569844
569763
569682
569601
569520
569439
569358
569277
570763
570682
570600
570519
570437
570355
570274
570192
570110
570029
569947
569866
569784
569703
569621
569540
569458
569377
569295
569213
570711
570629
570547
570464
570382
570300
570218
570136
570054
569971
569889
569807
569725
569643
569561
569479
569397
569315
569233
569151
570659
570576
570494
570411
570328
570246
570163
570080
569998
569915
569832
569750
569667
569585
569502
569420
569337
569254
569172
569089
570608
570525
570442
570359
570275
570192
570109
570026
569943
569859
569776
569693
569610
569527
569444
569361
569278
569195
569111
569028
570558
570474
570391
570307
570223
570140
570056
569972
569889
569805
569721
569638
569554
569470
569387
569303
569219
569136
569052
568969
570509
570424
570340
570256
570172
570088
570004
569920
569835
569751
569667
569583
569499
569415
569330
569246
569162
569078
568994
568910
570460
570376
570291
570206
570122
570037
569952
569868
569783
569698
569614
569529
569444
569360
569275
569190
569106
569021
568936
568852
570413
570328
570242
570157
570072
569987
569902
569817
569732
569647
569561
569476
569391
569306
569221
569135
569050
568965
568880
568795
570366
570280
570195
570109