/*--------------------------------*- C++ -*----------------------------------*\
  =========                 |
  \\      /  F ield         | OpenFOAM: The Open Source CFD Toolbox
   \\    /   O peration     | Website:  https://openfoam.org
    \\  /    A nd           | Version:  8
     \\/     M anipulation  |
\*---------------------------------------------------------------------------*/
FoamFile
{
    version     2.0;
    format      ascii;
    class       volScalarField;
    location    "600";
    object      p_rgh;
}
// * * * * * * * * * * * * * * * * * * * * * * * * * * * * * * * * * * * * * //

dimensions      [1 -1 -2 0 0 0 0];

internalField   nonuniform List<scalar> 
8400
(
25193.2
58299.3
81276.5
95767.7
105296
112109
117514
122163
126353
130192
133696
136876
139977
143366
147084
150864
154401
157549
160638
164312
168826
174621
182166
191327
201766
213316
225977
239829
254494
269228
283022
295148
305898
315945
325944
336484
347857
360033
372630
385095
397087
408709
420203
431768
443553
455658
468034
480436
492661
504523
29685.7
66157.4
86188
98194.4
106227
112227
117266
121833
126077
129977
133409
136125
138313
140546
142961
145574
148529
151575
154913
159459
164683
171008
179417
189351
200099
211754
224606
238972
254423
270037
284538
296690
306887
316141
325308
335221
346285
358512
371269
383623
395126
406241
417475
429088
441153
453662
466429
479074
491259
502759
29833.7
66530.4
87237.6
99275.3
107156
113275
118544
123260
127498
131195
134271
136662
138733
141002
143704
147003
150714
153591
156426
160581
164400
169199
176943
186249
195846
206783
220139
235631
252708
270810
287189
299309
308686
317012
325247
334777
346004
358924
372401
384870
395656
406098
417053
428721
440917
453613
466574
479307
491391
502555
6350.57
51295
78640
92821.6
101751
108932
115258
120852
125723
129843
133181
135717
137878
140209
142948
146228
149890
153038
156336
160299
164350
169900
177960
187095
196546
207895
222375
239274
258160
277518
293107
302617
308840
314086
320404
329620
341642
356348
371778
384553
394277
404317
415339
427116
439290
452019
465021
477743
489805
500928
-8205.1
31038.7
59062.1
73984.3
83766.5
92260.7
100001
106842
112775
117863
122179
125796
129016
132233
135683
139414
143218
146847
150939
156148
162764
171285
181591
192667
204047
216446
230598
246336
263502
280904
294297
302725
309199
315316
323225
334070
347822
363278
377452
387151
394299
403007
413911
425800
438214
451126
464151
476870
488972
500102
-3791.2
19311.3
39729.9
53415.1
63855
73264.5
81789.2
89221.4
95641.4
101256
106272
110853
115151
119321
123480
127693
131998
136493
141504
147350
154202
162264
171744
182687
195120
209194
224963
242138
260146
277772
292977
305122
315164
324298
333994
344983
357327
370161
381573
389658
397413
406847
417743
429234
441340
453987
466664
479019
490701
501334
-8205.09
11111.5
29618.6
43374
54429.9
64151.5
72739.6
80234.7
86835.6
92780
98248.7
103364
108239
113018
117861
122916
128287
134038
140218
146864
154060
162031
171101
181554
193580
207285
222663
239494
257272
275137
292012
307304
321097
333869
346231
358548
370801
382500
392789
401322
409538
418671
428936
439926
451426
463193
474827
485925
496160
505300
-3636.73
11808.6
27603.8
39849.5
49918.5
58741.7
66538.8
73469.3
79754.5
85598.5
91142.5
96481.5
101708
106927
112241
117731
123451
129429
135712
142405
149696
157842
167101
177667
189673
203204
218285
234823
252537
270923
289331
307216
324284
340451
355745
370180
383655
395937
406790
416335
425308
434426
443993
453974
464228
474519
484521
493887
502348
509763
-3378.34
11112.1
25137.5
36047.4
45249.4
53381.3
60627
67182.4
73264.9
79040.3
84619.8
90086.7
95520.6
100999
106603
112411
118496
124928
131789
139175
147206
156005
165694
176389
188218
201329
215851
231851
249274
267888
287286
306972
326458
345320
363218
379889
395128
408790
420860
431544
441286
450540
459578
468477
477238
485807
493995
501552
508262
514032
-670.691
13652.5
26466.8
36385.5
44771.3
52125.6
58681.4
64682.5
70347.5
75827.8
81228.5
86633.7
92115.8
97741.4
103577
109691
116149
123006
130312
138122
146497
155512
165263
175872
187492
200304
214493
230221
247570
266463
286616
307572
328765
349600
369530
388119
405061
420200
433542
445260
455656
465052
473696
481719
489162
496079
502486
508290
513364
517648
3966.55
17500.2
28739.5
37621.2
45105.5
51635.3
57515.5
62999
68276.9
73481.3
78708.9
84035.8
89520.8
95216.1
101176
107459
114115
121180
128687
136671
145183
154295
164113
174774
186450
199333
213622
229516
247144
266490
287327
309227
331597
353779
375136
395139
413411
429747
444111
456615
467478
476954
485272
492597
499030
504639
509545
513823
517474
520493
7525.77
20069
30214.9
38579.9
45648.1
51838.7
57451.7
62713.7
67798.6
72838.9
77935.4
83168.4
88597.7
94263.8
100211
106495
113159
120237
127758
135760
144305
153475
163376
174160
186011
199135
213744
230019
248083
267916
289317
311872
334993
357996
380222
401110
420241
437358
452376
465359
476476
485940
493968
500744
506415
511093
514906
518023
520558
522583
9285.78
21145.3
30785.5
38901.7
45823.3
51915
57447.6
62635
67647.4
72622.8
77668.2
82865.1
88271.6
93924.2
99864
106140
112797
119871
127394
135411
143993
153226
163228
174172
186259
199697
214711
231468
250050
270406
292310
315331
338880
362281
384897
406187
425709
443177
458475
471641
482813
492171
499923
506268
511383
515427
518534
520879
522647
523966
9398.95
21371.3
31079
39146
46048.5
52115.2
57611.3
62752.2
67713.5
72633
77619.2
82753.8
88095.9
93689.8
99583.4
105830
112482
119591
127204
135369
144143
153601
163856
175070
187459
201245
216643
233825
252864
273693
296028
319389
343153
366625
389215
410477
429991
447439
462697
475801
486871
496046
503530
509537
514264
517895
520589
522501
523816
524706
8720.72
20418.1
30316.9
38609.6
45740
52024.9
57728.3
63057.1
68180.8
73231.4
78312.8
83504.4
88868
94459.2
100336
106560
113194
120308
127975
136265
145250
155010
165648
177295
190132
204365
220196
237774
257151
278223
300683
324053
347728
371067
393497
414525
433722
450810
465691
478417
489153
498052
505274
511021
515494
518883
521356
523077
524208
524934
8220.68
19102.3
28887.4
37303
44643.7
51172.2
57120.9
62688.1
68037.5
73301.2
78576.5
83933.4
89434.6
95148.7
101146
107490
114250
121499
129319
137793
147019
157103
168162
180322
193727
208535
224892
242897
262554
283729
306113
329253
352590
375532
397519
418047
436730
453343
467811
480156
490496
499020
505920
511403
515671
518905
521269
522919
524017
524729
8262.61
18326.9
27813.4
36190.4
43632.1
50321.7
56447.2
62185.3
67693.9
73104.2
78517.9
84024.9
89704
95613.1
101806
108351
115327
122817
130902
139669
149221
159672
171152
183801
197752
213123
230005
248432
268346
289570
311795
334587
357432
379781
401113
420971
439018
455052
469000
480884
490825
499017
505653
510931
515045
518174
520495
522167
523335
524143
8530.6
17941.3
27148
35459.6
42985.1
49833.2
56142.6
62058.3
67719.4
73253.6
78778.8
84395.9
90188.6
96229
102581
109310
116486
124181
132494
141527
151387
162195
174078
187164
201575
217408
234715
253480
273594
294844
316902
339345
361686
383422
404078
423252
440646
456081
469494
480922
490494
498392
504803
509925
513954
517087
519504
521331
522663
523624
8636.06
17485.9
26461.1
34730.8
42352.8
49380.8
55908.6
62046.7
67910.2
73615.4
79278.7
85005.7
90887.3
97007.6
103445
110274
117570
125411
133891
143112
153192
164260
176441
189854
204603
220764
238360
257346
277582
298827
320742
342907
364856
386117
406252
424898
441790
456772
469799
480920
490263
497998
504309
509389
513431
516619
519116
521030
522426
523421
8608.73
17023.7
25814.5
34029.4
41694.2
48834.7
55515.5
61820.6
67846.5
73697.6
79481.4
85301.5
91254
97433
103926
110813
118179
126110
134702
144059
154297
165548
177939
191584
206576
222976
240792
259957
280311
301601
323476
345518
367265
388262
408092
426416
442989
457676
470445
481354
490528
498131
504345
509356
513347
516493
518948
520818
522133
522969
548522
548522
548522
548521
548521
548521
548521
548521
548521
548521
548521
548521
548521
548521
548521
548521
548521
548521
548521
548521
548521
548521
548521
548520
548520
548520
548520
548520
548520
548520
548520
548520
548519
548519
548519
548519
548520
548520
548520
548520
548520
548520
548519
548519
548519
548519
548519
548519
548519
548518
548521
548521
548521
548521
548521
548521
548521
548521
548521
548521
548521
548521
548521
548521
548521
548521
548521
548521
548521
548521
548521
548521
548520
548520
548520
548520
548520
548520
548519
548519
548519
548519
548519
548519
548519
548519
548519
548519
548519
548519
548519
548519
548519
548519
548519
548519
548519
548519
548518
548518
548521
548521
548521
548521
548521
548521
548521
548521
548521
548521
548521
548521
548521
548521
548521
548521
548521
548521
548521
548521
548521
548521
548520
548520
548520
548520
548520
548520
548519
548519
548519
548519
548519
548519
548519
548519
548519
548519
548519
548519
548519
548519
548519
548519
548519
548519
548519
548518
548518
548518
548521
548521
548521
548521
548521
548521
548521
548521
548521
548521
548521
548521
548521
548521
548521
548521
548521
548521
548521
548521
548521
548520
548520
548520
548520
548520
548520
548520
548519
548519
548519
548519
548519
548519
548519
548519
548519
548519
548519
548519
548519
548519
548519
548519
548519
548519
548519
548518
548518
548518
548521
548521
548521
548521
548521
548521
548521
548521
548521
548521
548521
548521
548521
548521
548521
548521
548521
548521
548521
548521
548521
548520
548520
548520
548520
548520
548520
548520
548519
548519
548519
548519
548519
548519
548519
548519
548519
548519
548519
548519
548519
548519
548519
548519
548519
548519
548519
548518
548518
548518
548521
548521
548521
548521
548521
548521
548521
548521
548521
548521
548521
548521
548521
548521
548521
548521
548521
548521
548521
548521
548521
548520
548520
548520
548520
548520
548520
548520
548520
548519
548519
548519
548519
548519
548519
548519
548519
548519
548519
548519
548519
548519
548519
548519
548519
548519
548519
548518
548518
548518
548521
548521
548521
548521
548521
548521
548521
548521
548521
548521
548521
548521
548521
548521
548521
548521
548521
548521
548521
548521
548521
548520
548520
548520
548520
548520
548520
548520
548520
548519
548519
548519
548519
548519
548519
548519
548519
548519
548519
548519
548519
548519
548519
548519
548519
548519
548519
548518
548518
548518
548521
548521
548521
548521
548521
548521
548521
548521
548521
548521
548521
548521
548521
548521
548521
548521
548521
548521
548521
548521
548520
548520
548520
548520
548520
548520
548520
548520
548520
548520
548519
548519
548519
548519
548519
548519
548519
548519
548519
548519
548519
548519
548519
548519
548519
548519
548519
548518
548518
548518
548521
548521
548521
548521
548521
548521
548521
548521
548521
548521
548521
548521
548521
548521
548521
548521
548521
548521
548521
548521
548520
548520
548520
548520
548520
548520
548520
548520
548520
548520
548519
548519
548519
548519
548519
548519
548519
548519
548519
548519
548519
548519
548519
548519
548519
548519
548519
548518
548518
548518
548521
548521
548521
548521
548521
548521
548521
548521
548521
548521
548521
548521
548521
548521
548521
548521
548521
548521
548521
548521
548520
548520
548520
548520
548520
548520
548520
548520
548520
548520
548520
548519
548519
548519
548519
548519
548519
548519
548519
548519
548519
548519
548519
548519
548519
548519
548519
548518
548518
548518
548521
548521
548521
548521
548521
548521
548521
548521
548521
548521
548521
548521
548521
548521
548521
548521
548521
548521
548521
548520
548520
548520
548520
548520
548520
548520
548520
548520
548520
548520
548520
548519
548519
548519
548519
548519
548519
548519
548519
548519
548519
548519
548519
548519
548519
548519
548519
548518
548518
548518
548521
548521
548521
548521
548521
548521
548521
548521
548521
548521
548521
548521
548521
548521
548521
548521
548521
548521
548521
548520
548520
548520
548520
548520
548520
548520
548520
548520
548520
548520
548520
548519
548519
548519
548519
548519
548519
548519
548519
548519
548519
548519
548519
548519
548519
548519
548519
548518
548518
548518
548521
548521
548521
548521
548521
548521
548521
548521
548521
548521
548521
548521
548521
548521
548521
548521
548521
548521
548521
548520
548520
548520
548520
548520
548520
548520
548520
548520
548520
548520
548520
548519
548519
548519
548519
548519
548519
548519
548519
548519
548519
548519
548519
548519
548519
548519
548518
548518
548518
548518
548521
548521
548521
548521
548521
548521
548521
548521
548521
548521
548521
548521
548521
548521
548521
548521
548521
548521
548520
548520
548520
548520
548520
548520
548520
548520
548520
548520
548520
548520
548520
548520
548519
548519
548519
548519
548519
548519
548519
548519
548519
548519
548519
548519
548519
548519
548518
548518
548518
548518
548521
548521
548521
548521
548521
548521
548521
548521
548521
548521
548521
548521
548521
548521
548521
548521
548521
548521
548520
548520
548520
548520
548520
548520
548520
548520
548520
548520
548520
548520
548520
548520
548519
548519
548519
548519
548519
548519
548519
548519
548519
548519
548519
548519
548519
548519
548518
548518
548518
548518
548521
548521
548521
548521
548521
548522
548522
548522
548522
548521
548521
548521
548521
548521
548521
548521
548521
548521
548520
548520
548520
548520
548520
548520
548520
548520
548520
548520
548520
548520
548520
548520
548519
548519
548519
548519
548519
548519
548519
548519
548519
548519
548519
548519
548519
548518
548518
548518
548518
548518
548521
548521
548521
548521
548521
548521
548522
548522
548521
548521
548521
548521
548521
548521
548521
548521
548521
548521
548520
548520
548520
548520
548520
548520
548520
548520
548520
548520
548520
548520
548520
548520
548519
548519
548519
548519
548519
548519
548519
548519
548519
548519
548519
548519
548518
548518
548518
548518
548518
548518
548521
548521
548521
548522
548522
548522
548522
548522
548522
548522
548521
548521
548521
548521
548521
548521
548521
548521
548520
548520
548520
548520
548520
548520
548520
548520
548520
548520
548520
548520
548520
548520
548519
548519
548519
548519
548519
548519
548519
548519
548519
548519
548519
548519
548519
548519
548519
548519
548519
548519
548521
548521
548521
548521
548521
548521
548521
548522
548521
548521
548521
548521
548521
548521
548521
548521
548521
548521
548520
548520
548520
548520
548520
548520
548520
548520
548520
548520
548520
548520
548520
548520
548519
548519
548519
548519
548519
548519
548519
548519
548519
548519
548519
548519
548519
548519
548519
548519
548519
548519
548522
548522
548522
548522
548522
548522
548522
548522
548522
548522
548522
548521
548521
548521
548521
548521
548521
548521
548521
548520
548520
548520
548520
548520
548520
548520
548520
548520
548520
548520
548520
548520
548520
548520
548519
548519
548519
548519
548519
548519
548519
548519
548519
548519
548519
548519
548519
548519
548519
548519
548423
548424
548424
548425
548425
548426
548426
548426
548426
548426
548426
548426
548426
548425
548425
548426
548426
548426
548426
548427
548422
548423
548423
548425
548425
548426
548426
548426
548426
548426
548426
548426
548426
548426
548426
548426
548426
548426
548426
548427
548421
548423
548423
548424
548425
548426
548426
548426
548426
548426
548426
548426
548426
548426
548426
548426
548426
548426
548427
548427
548421
548422
548423
548424
548425
548425
548426
548426
548426
548426
548426
548426
548426
548426
548426
548426
548426
548427
548427
548427
548420
548422
548422
548424
548424
548425
548426
548426
548426
548427
548427
548427
548426
548426
548426
548426
548426
548427
548427
548428
548419
548421
548422
548423
548424
548425
548426
548426
548426
548427
548427
548427
548427
548427
548427
548427
548427
548427
548427
548428
548419
548421
548421
548423
548424
548425
548426
548426
548427
548427
548427
548427
548427
548427
548427
548427
548427
548427
548427
548428
548418
548420
548421
548423
548424
548425
548425
548426
548426
548427
548427
548427
548427
548427
548427
548427
548427
548427
548427
548428
548417
548420
548420
548422
548423
548425
548425
548426
548426
548427
548427
548427
548427
548427
548427
548427
548427
548427
548427
548428
548417
548419
548420
548422
548423
548424
548425
548426
548426
548427
548427
548427
548427
548427
548427
548427
548427
548427
548427
548428
548416
548419
548419
548422
548423
548424
548425
548426
548426
548426
548426
548427
548426
548427
548427
548427
548427
548427
548427
548428
548416
548418
548419
548421
548422
548424
548425
548425
548426
548426
548426
548426
548426
548426
548426
548427
548427
548427
548427
548428
548415
548418
548418
548421
548422
548423
548424
548425
548425
548426
548426
548426
548426
548426
548426
548426
548427
548427
548427
548428
548414
548417
548418
548420
548422
548423
548424
548425
548425
548425
548425
548425
548425
548426
548426
548426
548426
548427
548427
548428
548414
548416
548417
548420
548421
548423
548423
548424
548425
548425
548425
548425
548425
548425
548425
548426
548426
548426
548426
548427
548413
548416
548417
548419
548421
548422
548423
548424
548424
548424
548424
548424
548424
548424
548425
548425
548425
548425
548425
548427
548412
548415
548416
548419
548420
548421
548422
548423
548423
548424
548424
548424
548424
548424
548424
548424
548424
548425
548425
548426
548411
548414
548415
548418
548419
548421
548422
548422
548423
548423
548423
548423
548423
548423
548423
548423
548423
548424
548424
548425
548410
548413
548415
548417
548419
548420
548421
548422
548422
548422
548422
548422
548422
548422
548422
548423
548423
548423
548423
548424
548409
548412
548414
548417
548418
548419
548420
548421
548421
548421
548421
548421
548421
548421
548422
548422
548422
548422
548422
548424
548408
548412
548413
548416
548417
548419
548420
548420
548420
548420
548420
548420
548420
548421
548421
548421
548421
548422
548421
548423
548407
548411
548412
548415
548417
548418
548419
548419
548420
548420
548420
548420
548420
548420
548420
548420
548420
548421
548421
548422
548406
548410
548412
548415
548416
548418
548418
548419
548419
548419
548419
548419
548419
548419
548419
548420
548420
548420
548420
548422
548406
548409
548411
548414
548416
548417
548418
548418
548418
548418
548418
548418
548418
548418
548419
548419
548419
548420
548420
548421
548405
548409
548411
548414
548415
548417
548418
548418
548418
548418
548418
548418
548418
548418
548418
548419
548419
548420
548419
548421
548404
548408
548410
548413
548415
548417
548417
548418
548418
548417
548417
548417
548417
548418
548418
548419
548419
548419
548419
548421
548404
548408
548410
548413
548415
548416
548417
548417
548417
548417
548417
548417
548417
548417
548418
548418
548419
548419
548419
548421
548404
548408
548410
548413
548415
548416
548417
548417
548417
548417
548417
548417
548417
548417
548418
548419
548419
548420
548420
548421
548404
548408
548410
548414
548415
548417
548417
548418
548417
548417
548417
548417
548417
548417
548418
548419
548419
548420
548420
548422
548404
548408
548411
548414
548416
548417
548418
548418
548418
548417
548417
548417
548417
548418
548418
548419
548420
548421
548421
548422
548405
548409
548411
548415
548416
548418
548418
548418
548418
548418
548417
548417
548418
548418
548419
548420
548420
548421
548421
548423
548406
548410
548412
548416
548417
548419
548419
548419
548419
548419
548418
548418
548419
548419
548420
548421
548421
548422
548422
548424
548407
548411
548413
548417
548418
548420
548420
548420
548420
548420
548420
548420
548420
548421
548421
548422
548422
548423
548423
548425
548408
548412
548415
548418
548420
548421
548421
548422
548421
548421
548421
548421
548422
548422
548422
548423
548423
548424
548424
548426
548409
548413
548416
548419
548421
548422
548423
548423
548423
548423
548423
548423
548423
548424
548424
548424
548425
548425
548425
548427
548411
548415
548417
548421
548423
548424
548424
548425
548424
548424
548424
548425
548425
548425
548425
548426
548426
548427
548427
548429
548413
548417
548419
548423
548424
548426
548426
548426
548426
548426
548426
548426
548426
548427
548427
548427
548427
548428
548428
548430
548414
548418
548421
548425
548426
548428
548428
548428
548428
548428
548428
548428
548428
548428
548428
548429
548429
548430
548430
548432
548417
548421
548423
548427
548428
548430
548430
548430
548430
548430
548430
548430
548430
548430
548430
548430
548431
548432
548432
548433
548419
548423
548425
548429
548431
548432
548433
548433
548432
548432
548432
548432
548432
548432
548432
548433
548433
548434
548434
548436
548421
548425
548428
548431
548433
548434
548435
548435
548435
548435
548434
548434
548434
548434
548434
548435
548435
548436
548436
548438
548424
548428
548430
548434
548436
548437
548438
548438
548438
548437
548437
548437
548437
548437
548437
548438
548438
548439
548439
548440
548427
548430
548433
548436
548438
548440
548440
548441
548440
548440
548440
548440
548440
548440
548440
548441
548441
548442
548442
548443
548429
548433
548435
548439
548441
548443
548443
548444
548444
548443
548443
548443
548443
548443
548443
548444
548444
548445
548445
548446
548432
548435
548438
548441
548444
548445
548446
548447
548447
548447
548446
548446
548446
548446
548447
548447
548447
548448
548448
548449
548435
548438
548441
548444
548446
548448
548449
548450
548450
548450
548450
548450
548450
548450
548450
548450
548451
548451
548451
548452
548438
548441
548443
548447
548449
548451
548452
548453
548453
548453
548453
548453
548453
548453
548453
548454
548454
548455
548454
548455
548441
548443
548446
548449
548452
548454
548456
548456
548456
548456
548456
548456
548456
548457
548457
548457
548457
548458
548458
548459
548444
548446
548449
548452
548455
548457
548459
548459
548460
548460
548460
548460
548460
548460
548460
548461
548461
548461
548461
548462
548447
548449
548452
548455
548458
548460
548462
548463
548463
548463
548463
548463
548463
548463
548464
548464
548464
548465
548464
548465
548450
548453
548455
548458
548461
548463
548465
548466
548466
548466
548466
548466
548467
548467
548467
548467
548467
548468
548468
548468
548454
548456
548458
548461
548464
548466
548468
548469
548469
548469
548469
548470
548470
548470
548470
548471
548471
548471
548471
548472
548457
548459
548461
548464
548466
548469
548471
548472
548472
548472
548472
548473
548473
548473
548474
548474
548474
548475
548474
548475
548460
548462
548464
548466
548469
548472
548473
548474
548475
548475
548476
548476
548476
548476
548477
548477
548477
548478
548477
548478
548463
548465
548467
548469
548472
548474
548476
548477
548478
548478
548479
548479
548479
548479
548480
548480
548480
548481
548480
548481
548467
548468
548469
548472
548474
548477
548479
548480
548481
548481
548482
548482
548482
548482
548483
548483
548484
548484
548484
548484
548470
548471
548472
548474
548477
548479
548481
548483
548484
548484
548484
548485
548485
548485
548486
548486
548487
548487
548487
548487
548473
548474
548475
548477
548479
548482
548484
548485
548486
548487
548487
548488
548488
548488
548489
548489
548490
548490
548490
548490
548476
548476
548477
548479
548481
548484
548486
548488
548489
548490
548490
548491
548491
548491
548492
548492
548493
548493
548493
548493
548478
548479
548480
548481
548483
548486
548488
548490
548492
548493
548493
548494
548494
548494
548495
548496
548496
548496
548496
548496
548481
548481
548482
548483
548485
548488
548490
548492
548494
548495
548496
548496
548497
548497
548498
548499
548499
548500
548499
548500
548483
548484
548484
548485
548487
548489
548492
548494
548496
548498
548499
548499
548500
548500
548501
548502
548502
548503
548503
548503
548485
548486
548486
548487
548488
548490
548493
548495
548498
548499
548501
548502
548503
548503
548504
548505
548505
548506
548506
548506
548487
548488
548488
548489
548490
548491
548494
548496
548499
548501
548503
548504
548505
548506
548507
548507
548508
548509
548509
548509
548489
548489
548490
548490
548491
548492
548494
548497
548499
548502
548504
548506
548507
548508
548509
548510
548511
548511
548511
548511
548491
548491
548491
548492
548492
548493
548495
548497
548499
548502
548505
548507
548509
548510
548512
548512
548513
548514
548514
548514
548492
548492
548493
548493
548494
548494
548496
548497
548499
548502
548504
548507
548510
548512
548513
548515
548515
548516
548516
548516
548494
548494
548494
548494
548495
548495
548496
548497
548499
548501
548503
548506
548509
548512
548514
548516
548517
548518
548518
548518
548495
548495
548495
548495
548496
548496
548497
548498
548499
548500
548502
548505
548507
548510
548513
548516
548518
548519
548519
548519
548496
548496
548496
548497
548497
548497
548498
548498
548499
548500
548501
548503
548505
548507
548510
548513
548516
548519
548520
548520
548497
548497
548497
548498
548498
548498
548499
548499
548500
548500
548501
548502
548503
548504
548506
548509
548512
548515
548518
548520
548498
548498
548498
548498
548499
548499
548499
548500
548500
548500
548501
548501
548502
548503
548504
548505
548507
548509
548511
548514
548499
548499
548499
548499
548499
548500
548500
548500
548501
548501
548501
548502
548502
548502
548503
548503
548504
548504
548505
548506
548500
548500
548500
548500
548500
548500
548501
548501
548501
548501
548502
548502
548502
548503
548503
548503
548504
548504
548504
548504
548500
548500
548500
548501
548501
548501
548501
548501
548502
548502
548502
548502
548503
548503
548503
548503
548504
548504
548504
548504
548501
548501
548501
548501
548501
548501
548502
548502
548502
548502
548502
548503
548503
548503
548503
548504
548504
548504
548504
548504
548502
548502
548502
548502
548502
548502
548502
548502
548502
548503
548503
548503
548503
548503
548504
548504
548504
548504
548504
548505
548502
548502
548502
548502
548502
548502
548503
548503
548503
548503
548503
548503
548503
548504
548504
548504
548504
548504
548504
548505
548503
548502
548502
548503
548503
548503
548503
548503
548503
548503
548503
548504
548504
548504
548504
548504
548504
548504
548505
548505
548503
548503
548503
548503
548503
548503
548503
548503
548504
548504
548504
548504
548504
548504
548504
548504
548504
548505
548505
548505
548503
548503
548503
548503
548503
548504
548504
548504
548504
548504
548504
548504
548504
548504
548504
548505
548505
548505
548505
548505
548504
548503
548503
548504
548504
548504
548504
548504
548504
548504
548504
548504
548505
548505
548505
548505
548505
548505
548505
548505
548504
548504
548504
548504
548504
548504
548504
548504
548505
548505
548505
548505
548505
548505
548505
548505
548505
548505
548505
548506
548504
548504
548504
548504
548504
548504
548505
548505
548505
548505
548505
548505
548505
548505
548505
548505
548505
548506
548506
548506
548505
548504
548504
548504
548505
548505
548505
548505
548505
548505
548505
548505
548505
548505
548506
548506
548506
548506
548506
548506
548505
548505
548505
548505
548505
548505
548505
548505
548505
548505
548506
548506
548506
548506
548506
548506
548506
548506
548506
548507
548505
548505
548505
548505
548505
548505
548505
548506
548506
548506
548506
548506
548506
548506
548506
548506
548506
548506
548507
548507
548505
548505
548505
548505
548505
548506
548506
548506
548506
548506
548506
548506
548506
548506
548506
548506
548506
548507
548507
548507
548506
548506
548505
548506
548506
548506
548506
548506
548506
548506
548506
548506
548506
548506
548507
548507
548507
548507
548507
548507
548506
548506
548506
548506
548506
548506
548506
548506
548506
548506
548506
548507
548507
548507
548507
548507
548507
548507
548507
548508
548506
548506
548506
548506
548506
548506
548506
548506
548507
548507
548507
548507
548507
548507
548507
548507
548507
548507
548507
548508
548507
548506
548506
548506
548506
548507
548507
548507
548507
548507
548507
548507
548507
548507
548507
548507
548507
548507
548508
548508
548507
548507
548507
548507
548507
548507
548507
548507
548507
548507
548507
548507
548507
548507
548507
548507
548508
548508
548508
548508
548507
548507
548507
548507
548507
548507
548507
548507
548507
548507
548507
548507
548507
548507
548508
548508
548508
548508
548508
548508
548507
548507
548507
548507
548507
548507
548507
548507
548507
548507
548507
548507
548508
548508
548508
548508
548508
548508
548508
548509
548508
548507
548507
548507
548507
548507
548507
548507
548507
548508
548508
548508
548508
548508
548508
548508
548508
548508
548508
548509
548508
548508
548507
548507
548507
548508
548508
548508
548508
548508
548508
548508
548508
548508
548508
548508
548508
548508
548509
548509
548508
548508
548508
548508
548508
548508
548508
548508
548508
548508
548508
548508
548508
548508
548508
548508
548508
548509
548509
548509
548508
548508
548508
548508
548508
548508
548508
548508
548508
548508
548508
548508
548508
548508
548508
548509
548509
548509
548509
548509
548508
548508
548508
548508
548508
548508
548508
548508
548508
548508
548508
548508
548508
548509
548509
548509
548509
548509
548509
548510
548508
548508
548508
548508
548508
548508
548508
548508
548508
548508
548508
548509
548509
548509
548509
548509
548509
548509
548509
548510
548509
548508
548508
548508
548508
548508
548508
548508
548509
548509
548509
548509
548509
548509
548509
548509
548509
548509
548509
548510
548509
548508
548508
548508
548508
548509
548509
548509
548509
548509
548509
548509
548509
548509
548509
548509
548509
548509
548510
548510
548509
548509
548509
548509
548509
548509
548509
548509
548509
548509
548509
548509
548509
548509
548509
548509
548509
548510
548510
548510
548509
548509
548509
548509
548509
548509
548509
548509
548509
548509
548509
548509
548509
548509
548509
548510
548510
548510
548510
548510
548509
548509
548509
548509
548509
548509
548509
548509
548509
548510
548510
548510
548510
548510
548510
548510
548510
548510
548510
548511
548510
548509
548509
548509
548509
548510
548510
548510
548510
548510
548510
548510
548510
548510
548510
548510
548510
548510
548510
548511
548510
548510
548510
548510
548510
548510
548510
548510
548510
548510
548510
548510
548510
548510
548510
548510
548510
548510
548510
548511
548510