/*--------------------------------*- C++ -*----------------------------------*\
  =========                 |
  \\      /  F ield         | OpenFOAM: The Open Source CFD Toolbox
   \\    /   O peration     | Website:  https://openfoam.org
    \\  /    A nd           | Version:  8
     \\/     M anipulation  |
\*---------------------------------------------------------------------------*/
FoamFile
{
    version     2.0;
    format      ascii;
    class       surfaceScalarField;
    location    "600";
    object      phi;
}
// * * * * * * * * * * * * * * * * * * * * * * * * * * * * * * * * * * * * * //

dimensions      [1 0 -1 0 0 0 0];

internalField   nonuniform List<scalar> 
16360
(
-2.32394
-0.0988856
-2.22224
-0.101711
-2.14707
-0.0751547
-2.09637
-0.0507064
-2.06306
-0.0333011
-2.04094
-0.0221237
-2.0249
-0.0160319
-2.01107
-0.0138456
-1.99681
-0.0142527
-1.98059
-0.0162252
-1.96153
-0.0190587
-1.94105
-0.0204646
-1.92024
-0.0208098
-1.89679
-0.0234569
-1.86889
-0.0279027
-1.83694
-0.0319468
-1.80454
-0.0324004
-1.77885
-0.0256928
-1.76512
-0.0137153
-1.76297
-0.00215183
-1.77168
0.00871089
-1.78762
0.0159479
-1.80608
0.0184578
-1.82466
0.0185715
-1.841
0.016348
-1.85221
0.0112138
-1.85582
0.00360475
-1.84932
-0.00649562
-1.83011
-0.0192028
-1.79811
-0.0320145
-1.76183
-0.0362599
-1.73413
-0.0276719
-1.7201
-0.0140289
-1.71795
-0.00216443
-1.72181
0.00385774
-1.72519
0.00337233
-1.72289
-0.00228953
-1.71187
-0.0110183
-1.69245
-0.0194198
-1.66887
-0.0235813
-1.64521
-0.0236549
-1.62078
-0.0244324
-1.59233
-0.0284477
-1.55611
-0.0362219
-1.50889
-0.0472255
-1.44878
-0.0601256
-1.37549
-0.073272
-1.29032
-0.0851714
-1.19576
-0.0945684
-0.101209
-1.09455
-1.39804
-0.189995
-1.36583
-0.133938
-1.36747
-0.0735312
-1.383
-0.0351812
-1.40532
-0.0109704
-1.42792
0.000453841
-1.44857
0.00462913
-1.46864
0.00623547
-1.48878
0.00585084
-1.50871
0.00372726
-1.52529
-0.00245506
-1.54305
-0.00270574
-1.56598
0.00213451
-1.5854
-0.00401746
-1.59556
-0.0177432
-1.5954
-0.0321235
-1.58954
-0.0382614
-1.58986
-0.0253734
-1.60412
0.000552639
-1.62474
0.0184647
-1.65099
0.0349489
-1.67954
0.0445085
-1.70509
0.044008
-1.7272
0.0406754
-1.74604
0.0351974
-1.75937
0.0245489
-1.76395
0.00817423
-1.75604
-0.0144281
-1.73085
-0.0443893
-1.68507
-0.0777797
-1.63388
-0.0874744
-1.60191
-0.0596575
-1.59127
-0.024656
-1.59507
0.00163585
-1.6032
0.0119923
-1.60698
0.00714196
-1.60043
-0.00882987
-1.57915
-0.0323007
-1.54447
-0.0540933
-1.50587
-0.0621952
-1.47172
-0.0578122
-1.43781
-0.058326
-1.39827
-0.0679887
-1.34881
-0.0856825
-1.28717
-0.108857
-1.21312
-0.134166
-1.12798
-0.15839
-1.03396
-0.179189
-0.933729
-0.194798
-0.204567
-0.830358
0.451652
-0.14651
0.359342
-0.0416328
0.280865
0.00494869
0.21148
0.034212
0.145597
0.0549358
0.0743775
0.0716562
-0.00665838
0.0856801
-0.0977889
0.0973665
-0.198393
0.106495
-0.306183
0.111461
-0.4208
0.112117
-0.538861
0.115364
-0.657844
0.121135
-0.783323
0.121425
-0.919198
0.118152
-1.06208
0.110765
-1.19755
0.0972022
-1.29579
0.0728387
-1.35486
0.0596312
-1.40375
0.0673525
-1.44514
0.0763268
-1.47925
0.0786239
-1.51247
0.0772483
-1.5454
0.0735968
-1.57564
0.0654228
-1.59892
0.0478244
-1.60997
0.0192442
-1.60277
-0.0216316
-1.56537
-0.0817914
-1.48781
-0.155373
-1.41137
-0.163898
-1.38808
-0.0829225
-1.39596
-0.0167682
-1.41203
0.0177016
-1.42134
0.0212752
-1.41617
0.00199234
-1.39208
-0.0329078
-1.34364
-0.0807328
-1.27492
-0.122813
-1.20923
-0.127872
-1.16827
-0.0987779
-1.13067
-0.0959366
-1.08334
-0.115335
-1.02346
-0.145567
-0.952325
-0.17998
-0.872226
-0.214249
-0.785777
-0.244851
-0.695056
-0.269921
-0.60181
-0.288042
-0.297759
-0.508622
2.46048
-0.0514985
2.40464
0.0141956
2.3577
0.0519009
2.31156
0.0803395
2.26354
0.102961
2.21432
0.120865
2.16496
0.135038
2.11599
0.146325
2.06721
0.155277
2.01662
0.162061
1.96211
0.166624
1.90931
0.168105
1.86267
0.167769
1.81688
0.167224
1.76852
0.166502
1.71375
0.165538
1.64669
0.164273
1.55842
0.161105
1.45874
0.159307
1.36435
0.161742
1.27379
0.166893
1.17725
0.175163
1.06842
0.186075
0.94613
0.195884
0.810131
0.201428
0.655455
0.202513
0.473645
0.201059
0.253002
0.199027
-0.0290312
0.200265
-0.384301
0.199919
-0.712416
0.1642
-0.919251
0.12393
-1.02859
0.0925773
-1.07518
0.0642987
-1.08092
0.0270181
-1.05274
-0.0261863
-0.991525
-0.0941401
-0.91189
-0.160384
-0.82903
-0.205683
-0.757999
-0.198907
-0.735575
-0.121193
-0.712708
-0.118794
-0.665817
-0.162215
-0.602589
-0.208795
-0.534159
-0.248411
-0.464165
-0.284236
-0.393906
-0.315114
-0.324085
-0.339745
-0.253944
-0.358158
-0.367573
-0.184131
4.71568
0.0134816
4.67241
0.0574701
4.62903
0.0952755
4.58559
0.123779
4.54312
0.145437
4.50177
0.16221
4.46147
0.175339
4.42198
0.185809
4.38297
0.194284
4.34396
0.201054
4.30446
0.206113
4.26327
0.209309
4.21977
0.211266
4.17414
0.212859
4.12621
0.214434
4.07566
0.216081
4.0224
0.217538
3.96451
0.218994
3.90094
0.222877
3.83113
0.23155
3.75197
0.24605
3.65983
0.267319
3.55152
0.294391
3.42367
0.323723
3.2733
0.351813
3.0988
0.377017
2.90076
0.399098
2.68162
0.41816
2.44747
0.434403
2.20385
0.443534
1.94288
0.425178
1.67747
0.389318
1.42173
0.34832
1.18193
0.304107
0.954251
0.254692
0.726269
0.2018
0.478261
0.153885
0.202397
0.115498
-0.0782474
0.0749373
-0.241449
-0.0356851
-0.242503
-0.120139
-0.19833
-0.162992
-0.160059
-0.200506
-0.124219
-0.244629
-0.083768
-0.288845
-0.0388998
-0.329085
0.00892559
-0.362935
0.0578321
-0.388635
0.102591
-0.402907
-0.404774
0.139786
3.13105
0.0678274
3.10263
0.0858965
3.09362
0.10427
3.09409
0.123315
3.09935
0.140165
3.10676
0.154801
3.11469
0.167403
3.12245
0.178052
3.12984
0.186904
3.13674
0.194153
3.1429
0.199966
3.14771
0.204493
3.15087
0.208107
3.15246
0.21125
3.15266
0.214242
3.15145
0.217288
3.14837
0.220628
3.1426
0.224772
3.13447
0.231013
3.125
0.24101
3.11482
0.256238
3.10404
0.278107
3.09113
0.307304
3.07184
0.343014
3.04038
0.383276
2.99145
0.425948
2.92155
0.468999
2.82974
0.509965
2.71866
0.545489
2.5921
0.570088
2.442
0.575299
2.26952
0.5618
2.0841
0.53372
1.89414
0.49406
1.70449
0.44435
1.51869
0.387602
1.34403
0.328544
1.19109
0.268432
1.06699
0.199041
0.921975
0.109344
0.773421
0.028401
0.652776
-0.0423611
0.566566
-0.114256
0.508109
-0.186153
0.471397
-0.252132
0.450115
-0.307799
0.437858
-0.35068
0.429584
-0.380358
0.423519
-0.396832
-0.400979
0.419723
2.94315
0.130407
2.89297
0.136066
2.85194
0.145294
2.81945
0.155803
2.7936
0.166014
2.77292
0.175482
2.75614
0.184185
2.74218
0.192001
2.73025
0.198827
2.71975
0.204665
2.71015
0.209572
2.70094
0.213704
2.69173
0.217324
2.68224
0.220751
2.67221
0.224271
2.66134
0.228156
2.64929
0.232682
2.63585
0.238227
2.62135
0.245499
2.60687
0.255494
2.59377
0.269336
2.5836
0.288276
2.57736
0.313537
2.57449
0.34588
2.57245
0.385324
2.56729
0.431101
2.5548
0.481491
2.53141
0.533355
2.49486
0.582041
2.44325
0.621693
2.37222
0.646313
2.2807
0.653313
2.17172
0.642726
2.05014
0.615652
1.9207
0.573783
1.78841
0.519893
1.6598
0.457149
1.54126
0.386982
1.43257
0.307736
1.3228
0.219114
1.22035
0.130853
1.13031
0.0476791
1.04839
-0.0323381
0.972028
-0.109799
0.901649
-0.181767
0.838265
-0.244401
0.782193
-0.294597
0.732966
-0.331122
0.69001
-0.353874
-0.363613
0.652642
2.38011
0.178966
2.34126
0.174936
2.31306
0.173487
2.29229
0.176585
2.27696
0.181335
2.26554
0.186892
2.2568
0.192921
2.2498
0.198998
2.24384
0.204783
2.23838
0.21012
2.23298
0.214975
2.22726
0.219423
2.22095
0.223627
2.2139
0.227798
2.20603
0.232156
2.19727
0.236915
2.18758
0.242357
2.17698
0.248841
2.16559
0.256893
2.15384
0.267246
2.14244
0.280735
2.13245
0.298273
2.12513
0.32086
2.12153
0.349487
2.12189
0.38496
2.12538
0.42762
2.13006
0.476822
2.13311
0.530308
2.13121
0.583938
2.12069
0.632209
2.09759
0.66943
2.05955
0.691364
2.00657
0.695696
1.94047
0.68174
1.864
0.650246
1.7807
0.603202
1.69472
0.543142
1.60951
0.472186
1.5255
0.391736
1.44058
0.304035
1.35741
0.214024
1.27951
0.125589
1.20637
0.0407948
1.13549
-0.0389117
1.06586
-0.112138
0.998184
-0.176735
0.933821
-0.230236
0.873437
-0.270736
0.817479
-0.297911
-0.312234
0.766107
1.84804
0.232855
1.8123
0.210663
1.7868
0.198974
1.76894
0.194438
1.75681
0.193467
1.74878
0.194925
1.74365
0.198065
1.74049
0.202154
1.7386
0.206685
1.73737
0.211342
1.73635
0.215989
1.73517
0.220591
1.73358
0.225214
1.73139
0.229975
1.72849
0.235048
1.72479
0.240628
1.72022
0.246934
1.71479
0.254265
1.70865
0.263024
1.70219
0.273717
1.69597
0.286942
1.6908
0.303427
1.68759
0.324061
1.68724
0.349841
1.69045
0.381746
1.69757
0.42051
1.70824
0.466151
1.72119
0.517355
1.73415
0.570993
1.74401
0.622349
1.74739
0.666028
1.74163
0.697113
1.72533
0.711983
1.69841
0.708669
1.66174
0.686908
1.61704
0.647898
1.56643
0.593748
1.51173
0.526881
1.45364
0.44981
1.39221
0.365465
1.3287
0.277538
1.26481
0.189473
1.20153
0.104068
1.13886
0.023741
1.07582
-0.0490972
1.01221
-0.113132
0.949339
-0.167355
0.888474
-0.209872
0.830374
-0.23981
-0.25744
0.775585
1.26977
0.286588
1.24397
0.236467
1.22771
0.215213
1.21822
0.203912
1.21395
0.197721
1.21341
0.195471
1.21553
0.195946
1.21948
0.198213
1.22452
0.201639
1.23006
0.205804
1.23562
0.210435
1.24085
0.215365
1.24551
0.220559
1.24946
0.226043
1.25257
0.231933
1.2548
0.238391
1.25615
0.245579
1.25672
0.253687
1.25676
0.262992
1.25662
0.273858
1.2568
0.286759
1.25785
0.302367
1.26038
0.321538
1.26498
0.345246
1.27225
0.374471
1.28275
0.410002
1.2968
0.452114
1.31413
0.500027
1.33365
0.551457
1.35346
0.602541
1.37114
0.648358
1.38435
0.683903
1.39128
0.705045
1.39084
0.709116
1.38263
0.695118
1.36691
0.663611
1.34435
0.616307
1.31563
0.555598
1.28118
0.484254
1.24131
0.405326
1.19673
0.322098
1.14841
0.23779
1.09718
0.155301
1.04372
0.0772076
0.988789
0.00583328
0.932581
-0.0569249
0.8753
-0.110083
0.818494
-0.153059
0.763216
-0.184543
-0.204368
0.710138
0.659985
0.332247
0.661574
0.234877
0.665752
0.211036
0.67256
0.197106
0.682048
0.188243
0.693624
0.183903
0.706676
0.1829
0.720533
0.184356
0.734591
0.187573
0.748375
0.192013
0.761522
0.197282
0.773838
0.203077
0.785179
0.209215
0.79548
0.215727
0.804687
0.222729
0.81277
0.230328
0.81976
0.238596
0.825788
0.247639
0.831108
0.257667
0.836016
0.26895
0.840944
0.281823
0.846337
0.296951
0.852617
0.315253
0.860231
0.337633
0.869741
0.364948
0.881816
0.397923
0.897078
0.436847
0.915859
0.481248
0.937977
0.529371
0.962521
0.578013
0.988028
0.622848
1.0127
0.659226
1.03471
0.683028
1.05248
0.691353
1.0648
0.682793
1.07096
0.657453
1.07058
0.616692
1.06349
0.56269
1.04963
0.49812
1.02907
0.425885
1.00215
0.34902
0.969417
0.270525
0.931548
0.193174
0.889296
0.119438
0.843689
0.0514285
0.795564
-0.00880726
0.745614
-0.0601352
0.694683
-0.102133
0.644278
-0.134135
-0.155301
0.595204
0.167505
0.317515
0.178679
0.22368
0.192535
0.197203
0.208929
0.180685
0.227497
0.169684
0.247882
0.163486
0.269497
0.161309
0.29152
0.16233
0.313197
0.165885
0.333906
0.171325
0.353116
0.178051
0.370625
0.185571
0.386392
0.193477
0.400482
0.201635
0.412995
0.210216
0.423924
0.219389
0.433319
0.229179
0.441348
0.239607
0.448197
0.250848
0.453994
0.263158
0.459361
0.276425
0.46486
0.291465
0.47078
0.309334
0.477541
0.330872
0.48575
0.356735
0.496215
0.387457
0.509919
0.423152
0.527609
0.463544
0.549767
0.5072
0.576232
0.551533
0.606287
0.592799
0.638533
0.626997
0.671209
0.650361
0.702371
0.660182
0.730309
0.654859
0.753658
0.634103
0.771307
0.599043
0.782429
0.551576
0.786456
0.494097
0.783119
0.429216
0.772448
0.359688
0.754688
0.288285
0.730324
0.217542
0.700032
0.149715
0.664698
0.0867633
0.625712
0.0301857
0.583698
-0.0181212
0.539395
-0.0578388
0.494318
-0.0890567
-0.110715
0.449743
-0.448014
0.240395
-0.414743
0.1904
-0.377898
0.160351
-0.3376
0.140411
-0.295324
0.127411
-0.252114
0.120281
-0.209118
0.118311
-0.167631
0.120849
-0.128934
0.12716
-0.0940556
0.136453
-0.0638068
0.147822
-0.0386045
0.160373
-0.0184082
0.173269
-0.00266988
0.185881
0.00968182
0.197883
0.0198501
0.209219
0.0289982
0.220034
0.0381034
0.230509
0.0480721
0.240869
0.0590511
0.252192
0.070172
0.26532
0.0808033
0.280839
0.0907957
0.299344
0.100187
0.321477
0.109408
0.34753
0.119326
0.377536
0.131351
0.411121
0.14712
0.447761
0.168192
0.486124
0.195408
0.524324
0.228711
0.559512
0.267036
0.588663
0.308613
0.608769
0.350907
0.617876
0.391782
0.61398
0.429702
0.596171
0.462889
0.565845
0.489934
0.52453
0.5098
0.474234
0.521963
0.417067
0.526239
0.355417
0.522557
0.291969
0.511239
0.228839
0.492902
0.168059
0.468285
0.111389
0.438229
0.0602503
0.404462
0.0156369
0.367067
-0.0204316
0.326486
-0.0484729
-0.0691253
0.284895
-1.21045
0.189033
-1.18262
0.162561
-1.15815
0.135889
-1.13083
0.113079
-1.09817
0.0947496
-1.05899
0.0810987
-1.01289
0.0721997
-0.96013
0.068085
-0.901573
0.0686068
-0.838631
0.0734986
-0.773169
0.0823475
-0.707378
0.0945833
-0.643568
0.109479
-0.583911
0.126226
-0.530115
0.144072
-0.483274
0.162382
-0.443894
0.180667
-0.411972
0.198593
-0.387148
0.216061
-0.368323
0.233386
-0.354028
0.251031
-0.342815
0.269607
-0.333194
0.289724
-0.323594
0.311882
-0.312459
0.336398
-0.298346
0.36342
-0.280014
0.392781
-0.256393
0.424138
-0.226829
0.456572
-0.191106
0.488619
-0.149601
0.517992
-0.103184
0.542222
-0.0530872
0.558668
-0.000108858
0.564906
0.0540418
0.55983
0.106268
0.543937
0.154141
0.517981
0.196022
0.482671
0.230362
0.439899
0.256664
0.390756
0.274926
0.337139
0.284443
0.282455
0.285493
0.227802
0.278591
0.174968
0.264374
0.125604
0.243423
0.0812009
0.215998
0.0430653
0.183976
0.011594
0.145824
-0.0103068
-0.0232138
0.0998969
-1.85193
0.157679
-1.82949
0.140119
-1.81154
0.117932
-1.79412
0.0956548
-1.7746
0.0752279
-1.75119
0.0576696
-1.72256
0.0435914
-1.68784
0.0333437
-1.6464
0.0271727
-1.59805
0.0251639
-1.54304
0.0273438
-1.48214
0.0336743
-1.41655
0.0438903
-1.34784
0.0575267
-1.27782
0.0740565
-1.20839
0.0929556
-1.14142
0.113686
-1.07849
0.135657
-1.0208
0.158363
-0.968921
0.18149
-0.922803
0.204903
-0.881819
0.228628
-0.84489
0.252797
-0.810597
0.277586
-0.777316
0.303128
-0.743388
0.329501
-0.707257
0.356652
-0.667483
0.384367
-0.622958
0.412039
-0.572975
0.438627
-0.517498
0.462515
-0.457152
0.481881
-0.393268
0.494797
-0.327991
0.499641
-0.263862
0.495692
-0.202654
0.482732
-0.145698
0.461017
-0.094102
0.431065
-0.0482554
0.394047
-0.00853034
0.351024
0.02332
0.305298
0.0454694
0.260301
0.0580559
0.215213
0.061664
0.171372
0.0569637
0.130288
0.0442563
0.093902
0.0220033
0.0653458
-0.014062
0.0476532
-0.065338
0.0409549
0.0399009
-0.128508
-2.26405
0.13077
-2.24094
0.11701
-2.22199
0.098982
-2.20592
0.0795964
-2.19128
0.0605826
-2.17671
0.0430991
-2.161
0.02788
-2.14305
0.0154069
-2.12186
0.00597747
-2.09647
-0.000219429
-2.06603
-0.00308126
-2.02967
-0.00268378
-1.98682
0.0010379
-1.93764
0.00834953
-1.88293
0.019358
-1.82373
0.0337451
-1.76101
0.0509462
-1.69583
0.0704744
-1.62942
0.0919647
-1.56306
0.115131
-1.49775
0.139591
-1.43416
0.165027
-1.37248
0.191126
-1.31251
0.217629
-1.25369
0.244312
-1.19515
0.270954
-1.13584
0.297328
-1.07461
0.323134
-1.01043
0.347867
-0.942567
0.370765
-0.870802
0.390754
-0.795547
0.406632
-0.717887
0.417143
-0.639524
0.421266
-0.562309
0.418466
-0.487956
0.408372
-0.418046
0.391107
-0.354128
0.367142
-0.29759
0.337507
-0.250149
0.303572
-0.21258
0.267713
-0.184584
0.232312
-0.166923
0.197542
-0.160672
0.165105
-0.167062
0.136653
-0.186294
0.113139
-0.215322
0.0943879
-0.246788
0.0790825
-0.271411
0.0655547
0.0529199
-0.284446
-2.50935
0.101421
-2.4834
0.0910642
-2.46175
0.0773255
-2.44429
0.0621306
-2.43042
0.0467149
-2.41935
0.032025
-2.41018
0.0187092
-2.40197
0.00719816
-2.39377
-0.00223065
-2.38456
-0.0094312
-2.37327
-0.0143804
-2.35896
-0.0169973
-2.3408
-0.01712
-2.31779
-0.014658
-2.28893
-0.0095179
-2.25364
-0.00153596
-2.21208
0.00940332
-2.16482
0.0232178
-2.11228
0.0394196
-2.05475
0.0576006
-1.99277
0.0776191
-1.92699
0.0992425
-1.85803
0.122164
-1.78642
0.146014
-1.71249
0.170387
-1.6364
0.19486
-1.55807
0.218995
-1.47727
0.242332
-1.39372
0.264323
-1.30728
0.284311
-1.21805
0.30153
-1.12658
0.315154
-1.03385
0.324403
-0.941221
0.328646
-0.850241
0.327496
-0.762641
0.320765
-0.680147
0.308614
-0.604525
0.291503
-0.537304
0.270285
-0.479932
0.246188
-0.433121
0.220894
-0.396736
0.195922
-0.371099
0.17189
-0.355792
0.149786
-0.349327
0.130188
-0.34918
0.112997
-0.352442
0.097629
-0.356774
0.0834072
-0.360927
0.069718
0.0561175
-0.364124
-2.65366
0.0688509
-2.62483
0.0622239
-2.6006
0.053106
-2.58126
0.0427864
-2.56666
0.0320963
-2.55634
0.0216945
-2.54968
0.0120403
-2.54592
0.00344731
-2.54426
-0.00389048
-2.54382
-0.0098604
-2.54382
-0.0143692
-2.54346
-0.0173572
-2.54183
-0.0187555
-2.53798
-0.0185041
-2.53094
-0.0165493
-2.51965
-0.0128145
-2.50302
-0.00722886
-2.48005
0.000233759
-2.45031
0.0096836
-2.41372
0.0210232
-2.37007
0.0339723
-2.3192
0.0483698
-2.26114
0.0640971
-2.19607
0.0809468
-2.1243
0.0986233
-2.04622
0.116776
-1.96223
0.135014
-1.87279
0.152888
-1.77836
0.169904
-1.67955
0.185508
-1.57714
0.199118
-1.47213
0.210162
-1.36584
0.218118
-1.25979
0.222592
-1.15565
0.223358
-1.05525
0.220357
-0.960383
0.213757
-0.872815
0.203925
-0.794023
0.191482
-0.725086
0.177251
-0.666387
0.162204
-0.617633
0.147155
-0.578312
0.132564
-0.54732
0.1188
-0.523122
0.105987
-0.504134
0.094006
-0.489097
0.0825875
-0.47717
0.0714788
-0.46788
0.0604237
0.0488968
-0.460659
-2.74081
0.0346289
-2.71023
0.0316461
-2.68431
0.0271739
-2.66352
0.0219965
-2.64798
0.0165571
-2.63746
0.0111826
-2.63153
0.00611581
-2.6296
0.00151635
-2.63099
-0.00250365
-2.63498
-0.00586606
-2.64084
-0.00850575
-2.64781
-0.0103831
-2.65509
-0.0114741
-2.66183
-0.0117676
-2.66714
-0.0112445
-2.67008
-0.00987669
-2.66969
-0.00763618
-2.66495
-0.00449789
-2.65482
-0.000437917
-2.63838
0.00457905
-2.61495
0.0105359
-2.58392
0.0173468
-2.54474
0.0249337
-2.49701
0.0332106
-2.44046
0.0420645
-2.37503
0.0513442
-2.30086
0.0608474
-2.2183
0.0703389
-2.12794
0.0795442
-2.0306
0.0881611
-1.92735
0.095876
-1.81956
0.102364
-1.70881
0.107363
-1.59687
0.110664
-1.48564
0.11213
-1.37701
0.111734
-1.27283
0.109555
-1.17469
0.105787
-1.0839
0.100697
-1.00129
0.0946445
-0.927131
0.0880371
-0.861187
0.0812151
-0.802996
0.0743739
-0.751851
0.0676495
-0.706955
0.0610898
-0.667626
0.0546757
-0.63337
0.0483288
-0.603857
0.0419789
-0.579008
0.0355807
0.0287219
-0.558832
-2.78617
-2.75454
-2.72736
-2.70535
-2.68879
-2.67761
-2.67149
-2.66997
-2.67248
-2.67834
-2.68686
-2.69724
-2.70872
-2.72049
-2.73174
-2.74161
-2.74924
-2.75374
-2.75418
-2.7496
-2.73907
-2.72171
-2.69678
-2.66358
-2.62151
-2.57017
-2.50931
-2.43898
-2.35944
-2.27127
-2.1754
-2.07303
-1.96565
-1.85499
-1.74286
-1.63113
-1.52157
-1.41578
-1.31509
-1.22044
-1.1324
-1.05118
-0.976806
-0.909161
-0.848069
-0.793388
-0.74506
-0.703082
-0.6675
-0.638774
0.00812749
-0.000169402
0.00817808
-5.81445e-05
0.00820465
-3.57604e-05
0.00820247
-7.77293e-06
0.00817928
1.07605e-05
0.00814287
2.07873e-05
0.00809897
2.52233e-05
0.00805215
2.60569e-05
0.00800619
2.46259e-05
0.00796442
2.1824e-05
0.00792977
1.8229e-05
0.0079048
1.42858e-05
0.00789134
1.03934e-05
0.00789038
6.97148e-06
0.00790197
4.35281e-06
0.00792527
2.71244e-06
0.0079587
2.05365e-06
0.00799999
2.41991e-06
0.00804574
4.4172e-06
0.00809107
8.94848e-06
0.00813279
1.3957e-05
0.00816681
1.97214e-05
0.00819173
2.46129e-05
0.00820562
2.86302e-05
0.00820626
3.21668e-05
0.00819177
3.52209e-05
0.00816078
3.76827e-05
0.00811287
3.92785e-05
0.00804887
3.96828e-05
0.00797106
3.86458e-05
0.0078834
3.58765e-05
0.00779055
3.17108e-05
0.00769813
2.60275e-05
0.0076134
1.94249e-05
0.00754383
1.15452e-05
0.00749522
3.60341e-06
0.00746945
-2.79494e-06
0.00746644
-7.17034e-06
0.00748365
-9.38365e-06
0.00751626
-9.42925e-06
0.00755793
-7.66344e-06
0.00760194
-4.86625e-06
0.00764255
-2.16485e-06
0.00767618
-7.86413e-07
0.00770216
-1.769e-06
0.00772295
-5.8462e-06
0.00774381
-1.35592e-05
0.00777246
-2.56105e-05
0.00781861
-4.31728e-05
-6.75129e-05
0.00789276
0.00787169
-9.10523e-05
0.00783953
-4.19346e-05
0.00779259
-8.15274e-06
0.00775627
5.07682e-06
0.00772678
1.17151e-05
0.00769956
1.49584e-05
0.00767226
1.65014e-05
0.00764527
1.66638e-05
0.00762094
1.55818e-05
0.00760228
1.38285e-05
0.00759209
1.21663e-05
0.00759251
1.12055e-05
0.00760494
1.13051e-05
0.00762996
1.25999e-05
0.0076673
1.50434e-05
0.00771589
1.83331e-05
0.00777423
2.17581e-05
0.00784053
2.47287e-05
0.00790944
3.02951e-05
0.00797474
3.92638e-05
0.00803556
4.42785e-05
0.00809182
4.56031e-05
0.00814017
4.54676e-05
0.00817688
4.38365e-05
0.00819929
4.05712e-05
0.00820534
3.59342e-05
0.0081937
3.02944e-05
0.00816412
2.39582e-05
0.00811771
1.72271e-05
0.00805707
1.05842e-05
0.00798575
4.47982e-06
0.00790836
-8.33419e-07
0.00783265
-5.8826e-06
0.00776737
-9.7251e-06
0.00771793
-1.09993e-05
0.00768713
-9.63019e-06
0.00767749
-7.35668e-06
0.00768957
-4.67162e-06
0.00772063
-1.64706e-06
0.00776552
1.27712e-06
0.00781774
3.4969e-06
0.00787064
4.2813e-06
0.00791882
2.87584e-06
0.0079593
-1.35938e-06
0.00799217
-8.86194e-06
0.00802046
-1.98264e-05
0.00804924
-3.43016e-05
0.00808415
-5.25038e-05
0.00813004
-7.55102e-05
-0.000105646
0.00819052
0.00788851
-2.82246e-05
0.00785956
-2.69624e-05
0.00784703
-1.23632e-05
0.00783311
-1.46671e-06
0.00781591
3.80383e-06
0.00779539
6.22432e-06
0.0077723
7.63273e-06
0.00774819
8.43319e-06
0.00772546
8.59351e-06
0.00770709
8.3802e-06
0.00769622
8.46312e-06
0.00769542
9.52426e-06
0.00770639
1.20192e-05
0.0077298
1.60999e-05
0.00776525
2.16145e-05
0.00781135
2.8187e-05
0.00786556
3.52829e-05
0.00792437
4.22347e-05
0.00798698
4.76824e-05
0.00805015
5.52993e-05
0.00811005
5.98134e-05
0.00816377
6.04041e-05
0.00820864
5.83737e-05
0.00824201
5.3774e-05
0.00826157
4.67494e-05
0.00826548
3.77517e-05
0.00825259
2.7453e-05
0.00822267
1.65958e-05
0.00817687
5.79203e-06
0.00811774
-4.21494e-06
0.00804879
-1.26746e-05
0.00797503
-1.91491e-05
0.0079029
-2.29962e-05
0.00783938
-2.40255e-05
0.00779081
-2.19109e-05
0.00776183
-1.74593e-05
0.00775464
-1.20796e-05
0.00776865
-6.423e-06
0.00780078
-1.21391e-06
0.00784585
2.80316e-06
0.00789736
4.87477e-06
0.00794879
4.28297e-06
0.00799491
4.45168e-07
0.00803283
-7.02604e-06
0.00806254
-1.83566e-05
0.00808691
-3.36836e-05
0.008111
-5.30634e-05
0.00814062
-7.65965e-05
0.00818035
-0.000104986
-0.000139991
0.00823183
0.00794965
-2.5993e-05
0.0079389
-2.98858e-05
0.00792899
-1.87772e-05
0.00791494
-7.28048e-06
0.00789369
7.72106e-07
0.00786664
4.9866e-06
0.00783658
6.8181e-06
0.00780637
7.50142e-06
0.0077788
7.72317e-06
0.00775672
8.02982e-06
0.00774296
9.04567e-06
0.00773988
1.1429e-05
0.00774899
1.56281e-05
0.00777074
2.17696e-05
0.00780449
2.96579e-05
0.00784867
3.88181e-05
0.00790085
4.86392e-05
0.00795769
5.79477e-05
0.00801689
6.30769e-05
0.00807674
6.90885e-05
0.00813388
7.30202e-05
0.00818453
7.31236e-05
0.00822617
6.93763e-05
0.0082566
6.20021e-05
0.0082738
5.14328e-05
0.00827612
3.83699e-05
0.00826256
2.37835e-05
0.00823302
8.79606e-06
0.0081885
-5.51865e-06
0.00813124
-1.80602e-05
0.0080648
-2.78268e-05
0.007994
-3.41381e-05
0.00792497
-3.65818e-05
0.00786414
-3.52399e-05
0.0078178
-3.05136e-05
0.00779056
-2.3405e-05
0.00778437
-1.51772e-05
0.00779864
-7.01161e-06
0.00783023
-4.805e-08
0.00787394
4.69154e-06
0.00792335
6.33398e-06
0.00797213
4.21773e-06
0.00801529
-2.06837e-06
0.0080502
-1.26581e-05
0.00807694
-2.75035e-05
0.00809822
-4.65349e-05
0.00811869
-6.97326e-05
0.00814362
-9.71046e-05
0.008177
-0.000128994
-0.000166601
0.00821997
0.00794683
-2.06823e-05
0.00792739
-2.40613e-05
0.00790677
-1.45004e-05
0.00788534
-5.6022e-06
0.00786102
1.06307e-06
0.00783352
4.60123e-06
0.00780446
5.58602e-06
0.0077764
5.23676e-06
0.00775213
4.69791e-06
0.00773437
4.8599e-06
0.0077256
6.43635e-06
0.00772779
9.97688e-06
0.00774207
1.5826e-05
0.00776856
2.4003e-05
0.0078064
3.42047e-05
0.00785387
4.58602e-05
0.00790852
5.81763e-05
0.00796707
6.93935e-05
0.00802668
7.44257e-05
0.00808603
7.89802e-05
0.00814142
8.27769e-05
0.00819011
8.20868e-05
0.00822978
7.66119e-05
0.00825848
6.66727e-05
0.00827448
5.28707e-05
0.00827636
3.61537e-05
0.0082633
1.78033e-05
0.0082353
-6.8106e-07
0.00819325
-1.77704e-05
0.00813918
-3.20443e-05
0.00807642
-4.23331e-05
0.00800963
-4.79215e-05
0.00794453
-4.86161e-05
0.00788725
-4.47369e-05
0.00784354
-3.70989e-05
0.00781764
-2.69869e-05
0.00781158
-1.59436e-05
0.00782486
-5.50589e-06
0.00785441
2.91821e-06
0.00789509
8.12858e-06
0.00794064
9.20126e-06
0.00798494
5.54608e-06
0.00802333
-3.07061e-06
0.0080534
-1.65789e-05
0.00807547
-3.46955e-05
0.00809229
-5.70875e-05
0.00810834
-8.35507e-05
0.00812857
-0.000113995
0.00815667
-0.000148479
-0.000187739
0.00819363
0.0079508
-1.93153e-05
0.00793552
-2.24762e-05
0.00791798
-1.34199e-05
0.00789852
-5.84204e-06
0.00787624
-4.43753e-07
0.00785094
2.47248e-06
0.00782381
3.18191e-06
0.00779725
2.63114e-06
0.00777425
2.03098e-06
0.00775777
2.48507e-06
0.00775034
4.81115e-06
0.00775379
9.56733e-06
0.00776907
1.69904e-05
0.00779614
2.70086e-05
0.007834
3.9238e-05
0.00788077
5.29988e-05
0.00793372
6.75041e-05
0.00798893
8.08735e-05
0.00804373
8.62639e-05
0.00809837
8.83389e-05
0.00814819
9.15865e-05
0.00819103
8.99404e-05
0.00822528
8.24942e-05
0.00824939
6.98374e-05
0.00826193
5.28002e-05
0.00826178
3.25986e-05
0.00824828
1.08447e-05
0.00822143
-1.05911e-05
0.00818198
-2.9828e-05
0.00813165
-4.51991e-05
0.00807338
-5.54475e-05
0.00801136
-5.99123e-05
0.0079508
-5.85507e-05
0.00789735
-5.19483e-05
0.00785626
-4.12785e-05
0.00783151
-2.81717e-05
0.00782506
-1.44773e-05
0.00783653
-2.01946e-06
0.00786302
7.56399e-06
0.00789965
1.29588e-05
0.00794051
1.32485e-05
0.00797984
7.95135e-06
0.00801323
-2.9744e-06
0.00803853
-1.9236e-05
0.00805613
-4.03287e-05
0.00806879
-6.57014e-05
0.00808086
-9.49364e-05
0.00809704
-0.000127832
0.00812083
-0.000164269
-0.000204572
0.00815305
0.00795207
-1.93803e-05
0.00793725
-2.15611e-05
0.00791922
-1.18856e-05
0.00789805
-4.24543e-06
0.00787361
5.37428e-07
0.00784663
2.67089e-06
0.00781863
2.74199e-06
0.00779197
1.73481e-06
0.00776956
8.91744e-07
0.00775429
1.37137e-06
0.00774858
4.09098e-06
0.00775404
9.60143e-06
0.00777136
1.81229e-05
0.00780024
2.95027e-05
0.00783942
4.32119e-05
0.00788694
5.83601e-05
0.00794048
7.36478e-05
0.00799671
8.73489e-05
0.00804947
9.53876e-05
0.00809897
9.66229e-05
0.00814342
9.81744e-05
0.00818153
9.45898e-05
0.00821156
8.49748e-05
0.00823223
6.97285e-05
0.0082425
4.97717e-05
0.00824163
2.65883e-05
0.00822918
2.12435e-06
0.00820513
-2.14327e-05
0.00817001
-4.19485e-05
0.00812512
-5.76164e-05
0.0080729
-6.71698e-05
0.00801695
-7.0012e-05
0.00796187
-6.62649e-05
0.00791272
-5.67865e-05
0.0078743
-4.30792e-05
0.00785036
-2.70952e-05
0.00784287
-1.09709e-05
0.00785158
3.22342e-06
0.0078739
1.36781e-05
0.00790536
1.89945e-05
0.00794047
1.82961e-05
0.00797397
1.12552e-05
0.00800182
-1.95395e-06
0.00802206
-2.07959e-05
0.00803514
-4.4539e-05
0.00804375
-7.24296e-05
0.00805202
-0.000103889
0.00806442
-0.000138639
0.00808425
-0.000176522
-0.000217635
0.00811243
0.00795225
-1.97687e-05
0.00793767
-2.11417e-05
0.00792021
-1.10037e-05
0.00789983
-3.34508e-06
0.00787625
1.0161e-06
0.00785047
2.44409e-06
0.00782422
1.87557e-06
0.00779985
4.87758e-07
0.00778008
-4.39798e-07
0.00776761
2.35054e-07
0.00776466
3.41505e-06
0.00777268
9.68036e-06
0.00779213
1.92137e-05
0.00782246
3.17799e-05
0.00786215
4.67081e-05
0.00790896
6.28867e-05
0.00796016
7.8867e-05
0.00801262
9.29162e-05
0.00806149
0.000102359
0.00810507
0.000103023
0.00814286
0.000102821
0.00817419
9.72919e-05
0.00819801
8.54166e-05
0.00821359
6.76288e-05
0.00822042
4.505e-05
0.00821812
1.94331e-05
0.00820643
-7.01333e-06
0.00818524
-3.188e-05
0.00815473
-5.28992e-05
0.00811574
-6.82169e-05
0.00807003
-7.65784e-05
0.0080205
-7.74701e-05
0.00797104
-7.12071e-05
0.00792608
-5.89141e-05
0.00788996
-4.23907e-05
0.00786623
-2.38729e-05
0.00785689
-5.74734e-06
0.00786194
9.73511e-06
0.00787917
2.06603e-05
0.00790459
2.55988e-05
0.00793325
2.37429e-05
0.00796041
1.4936e-05
0.00798244
-4.24923e-07
0.0079976
-2.15728e-05
0.00800638
-4.75797e-05
0.00801133
-7.7534e-05
0.00801639
-0.000110717
0.00802567
-0.000146783
0.00804226
-0.000185625
-0.000227298
0.00806702
0.00795144
-1.94526e-05
0.00793591
-2.01102e-05
0.0079178
-9.71444e-06
0.00789719
-2.21757e-06
0.00787365
1.78268e-06
0.00784823
2.72999e-06
0.00782281
1.6935e-06
0.0077998
1.76851e-08
0.00778188
-9.78209e-07
0.00777156
-1.61201e-07
0.0077709
3.38663e-06
0.00778113
1.02209e-05
0.00780247
2.05024e-05
0.00783404
3.38895e-05
0.00787399
4.95627e-05
0.00791978
6.62891e-05
0.00796846
8.25203e-05
0.0080169
9.65613e-05
0.00806167
0.000105859
0.00810038
0.000105553
0.00813253
0.00010386
0.00815804
9.64799e-05
0.00817657
8.25138e-05
0.00818806
6.25777e-05
0.00819257
3.80185e-05
0.00819012
1.08002e-05
0.00818057
-1.66961e-05
0.00816367
-4.19593e-05
0.00813922
-6.26767e-05
0.00810744
-7.69785e-05
0.0080694
-8.36565e-05
0.00802721
-8.23325e-05
0.00798395
-7.35265e-05
0.00794341
-5.86147e-05
0.00790949
-3.96562e-05
0.00788556
-1.91048e-05
0.00787375
4.95754e-07
0.00787437
1.67644e-05
0.00788567
2.77188e-05
0.00790428
3.19821e-05
0.0079259
2.88703e-05
0.00794634
1.84038e-05
0.0079624
1.1811e-06
0.00797251
-2.18352e-05
0.00797715
-4.9575e-05
0.00797874
-8.10435e-05
0.00798095
-0.000115433
0.00798758
-0.000152322
0.00800136
-0.000191641
-0.000233512
0.00802308
0.00795038
-1.82205e-05
0.00793342
-1.82267e-05
0.00791431
-7.9734e-06
0.00789332
-9.95668e-07
0.00787011
2.43629e-06
0.0078457
2.85781e-06
0.00782196
1.40939e-06
0.00780124
-5.24497e-07
0.00778608
-1.58633e-06
0.00777884
-6.3309e-07
0.00778133
3.23861e-06
0.00779451
1.05645e-05
0.00781825
2.14092e-05
0.00785133
3.53156e-05
0.00789157
5.13454e-05
0.00793618
6.81756e-05
0.00798211
8.42366e-05
0.0080263
9.78427e-05
0.0080657
0.000106459
0.00809813
0.00010509
0.00812356
0.000101868
0.00814236
9.27383e-05
0.00815494
7.69986e-05
0.00816194
5.54736e-05
0.008164
2.96961e-05
0.00816149
1.75663e-06
0.00815434
-2.58957e-05
0.0081421
-5.07301e-05
0.0081241
-7.04245e-05
0.00809994
-8.31498e-05
0.00806989
-8.78111e-05
0.00803517
-8.42043e-05
0.00799804
-7.3069e-05
0.00796161
-5.60003e-05
0.00792938
-3.52362e-05
0.0079046
-1.33611e-05
0.00788957
7.00276e-06
0.00788495
2.3436e-05
0.00788959
3.39698e-05
0.00790079
3.73202e-05
0.00791497
3.29635e-05
0.00792853
2.10993e-05
0.00793862
2.47258e-06