/*--------------------------------*- C++ -*----------------------------------*\
  =========                 |
  \\      /  F ield         | OpenFOAM: The Open Source CFD Toolbox
   \\    /   O peration     | Website:  https://openfoam.org
    \\  /    A nd           | Version:  8
     \\/     M anipulation  |
\*---------------------------------------------------------------------------*/
FoamFile
{
    version     2.0;
    format      ascii;
    class       volScalarField;
    location    "600";
    object      T;
}
// * * * * * * * * * * * * * * * * * * * * * * * * * * * * * * * * * * * * * //

dimensions      [0 0 0 1 0 0 0];

internalField   nonuniform List<scalar> 
8400
(
298.765
298.784
298.818
298.868
298.934
299.011
299.098
299.191
299.285
299.379
299.468
299.55
299.624
299.688
299.742
299.787
299.824
299.854
299.88
299.901
299.919
299.932
299.941
299.945
299.946
299.944
299.942
299.939
299.936
299.934
299.932
299.93
299.929
299.93
299.931
299.932
299.934
299.936
299.938
299.939
299.941
299.942
299.943
299.944
299.945
299.946
299.946
299.945
299.944
299.943
299.647
299.6
299.57
299.556
299.553
299.562
299.582
299.61
299.644
299.678
299.71
299.738
299.763
299.784
299.802
299.819
299.833
299.847
299.864
299.885
299.91
299.933
299.952
299.965
299.971
299.974
299.973
299.971
299.968
299.966
299.964
299.962
299.96
299.959
299.959
299.96
299.961
299.963
299.964
299.966
299.967
299.969
299.971
299.972
299.974
299.974
299.975
299.975
299.975
299.975
299.997
299.995
299.994
299.993
299.992
299.991
299.986
299.977
299.965
299.947
299.922
299.897
299.893
299.88
299.86
299.835
299.807
299.781
299.776
299.787
299.807
299.834
299.862
299.89
299.918
299.942
299.959
299.971
299.978
299.978
299.977
299.976
299.976
299.975
299.974
299.973
299.972
299.972
299.972
299.972
299.973
299.974
299.976
299.978
299.98
299.981
299.982
299.983
299.984
299.984
300.001
300
299.999
299.999
300
300.001
300.001
300.001
300.002
300.002
300.001
300.001
300
299.998
299.996
299.993
299.988
299.981
299.972
299.962
299.952
299.942
299.929
299.916
299.905
299.896
299.889
299.883
299.878
299.873
299.904
299.939
299.963
299.975
299.98
299.982
299.982
299.983
299.982
299.981
299.98
299.981
299.983
299.985
299.987
299.988
299.989
299.99
299.99
299.99
300.002
300.002
300.004
300.006
300.009
300.011
300.014
300.016
300.019
300.021
300.024
300.026
300.028
300.031
300.035
300.039
300.045
300.051
300.058
300.066
300.074
300.08
300.084
300.085
300.083
300.077
300.068
300.057
300.044
300.032
300.021
300.015
300.011
300.008
300.005
300.003
300
299.998
299.995
299.993
299.995
299.997
299.998
299.999
299.999
299.998
299.997
299.997
299.996
299.994
300.001
299.999
299.999
299.999
299.999
300
300.001
300.001
300.002
300.003
300.003
300.004
300.004
300.005
300.006
300.007
300.009
300.011
300.014
300.018
300.023
300.028
300.033
300.038
300.043
300.047
300.049
300.049
300.048
300.045
300.041
300.038
300.035
300.032
300.029
300.026
300.023
300.02
300.017
300.015
300.013
300.011
300.009
300.006
300.004
300.003
300.001
299.999
299.998
299.997
300.003
300.003
300.003
300.003
300.003
300.003
300.003
300.004
300.004
300.004
300.005
300.005
300.005
300.006
300.006
300.007
300.007
300.008
300.01
300.011
300.013
300.015
300.017
300.019
300.022
300.025
300.028
300.031
300.034
300.036
300.037
300.038
300.038
300.038
300.037
300.036
300.034
300.032
300.029
300.027
300.024
300.022
300.019
300.016
300.013
300.011
300.008
300.006
300.004
300.003
300.002
300.002
300.002
300.002
300.002
300.002
300.002
300.002
300.002
300.003
300.003
300.003
300.004
300.004
300.005
300.005
300.006
300.007
300.007
300.008
300.009
300.01
300.011
300.012
300.013
300.014
300.017
300.019
300.022
300.026
300.029
300.032
300.034
300.036
300.037
300.037
300.036
300.035
300.033
300.031
300.029
300.026
300.023
300.021
300.018
300.015
300.013
300.01
300.008
300.007
300.003
300.003
300.003
300.002
300.002
300.002
300.002
300.002
300.002
300.002
300.002
300.002
300.003
300.003
300.004
300.004
300.005
300.005
300.006
300.006
300.006
300.007
300.007
300.008
300.008
300.009
300.01
300.012
300.015
300.018
300.021
300.024
300.028
300.03
300.032
300.033
300.034
300.033
300.032
300.031
300.029
300.027
300.024
300.022
300.019
300.017
300.015
300.012
300.01
300.009
300.002
300.003
300.002
300.002
300.002
300.002
300.001
300.001
300.001
300.001
300.001
300.001
300.002
300.002
300.002
300.003
300.003
300.004
300.004
300.005
300.005
300.005
300.005
300.005
300.006
300.006
300.007
300.008
300.01
300.012
300.015
300.018
300.022
300.024
300.027
300.028
300.029
300.029
300.029
300.028
300.026
300.025
300.023
300.021
300.019
300.017
300.015
300.013
300.011
300.009
300.001
300.002
300.002
300.002
300.001
300.001
300.001
300.001
300.001
300.001
300.001
300.001
300.001
300.001
300.002
300.002
300.002
300.003
300.003
300.004
300.004
300.004
300.004
300.004
300.004
300.004
300.005
300.006
300.007
300.009
300.012
300.014
300.017
300.02
300.022
300.024
300.025
300.025
300.025
300.024
300.023
300.022
300.021
300.019
300.017
300.015
300.014
300.012
300.011
300.009
300
300
300
300
300
300
300
300
299.999
299.999
300
300
300
300
300.001
300.001
300.001
300.002
300.002
300.003
300.003
300.003
300.003
300.003
300.003
300.004
300.004
300.005
300.006
300.008
300.01
300.012
300.015
300.017
300.019
300.02
300.021
300.022
300.022
300.021
300.021
300.02
300.018
300.017
300.016
300.014
300.013
300.011
300.01
300.009
299.997
299.995
299.995
299.995
299.995
299.994
299.994
299.995
299.995
299.995
299.996
299.997
299.998
299.998
299.999
300
300.001
300.002
300.002
300.003
300.003
300.003
300.003
300.004
300.004
300.004
300.004
300.005
300.006
300.008
300.01
300.012
300.014
300.016
300.017
300.018
300.019
300.02
300.02
300.019
300.018
300.017
300.016
300.015
300.014
300.013
300.012
300.011
300.01
300.009
299.998
299.996
299.996
299.995
299.995
299.994
299.994
299.994
299.994
299.994
299.994
299.995
299.996
299.997
299.998
299.999
300
300.001
300.002
300.003
300.003
300.004
300.004
300.004
300.005
300.005
300.006
300.007
300.008
300.009
300.011
300.013
300.014
300.016
300.017
300.018
300.018
300.018
300.018
300.018
300.017
300.016
300.015
300.014
300.013
300.012
300.011
300.01
300.01
300.009
300.005
300.004
300.004
300.004
300.003
300.003
300.002
300.002
300.001
300
300
299.999
299.998
299.998
299.997
299.997
299.997
299.997
299.998
299.998
299.999
300
300
300.001
300.002
300.004
300.005
300.006
300.008
300.01
300.011
300.013
300.014
300.015
300.016
300.017
300.017
300.017
300.017
300.017
300.016
300.015
300.014
300.013
300.012
300.011
300.011
300.01
300.009
300.009
300.013
300.012
300.011
300.011
300.011
300.01
300.009
300.008
300.007
300.005
300.003
300.001
299.999
299.996
299.994
299.991
299.989
299.987
299.985
299.984
299.984
299.984
299.985
299.986
299.987
299.989
299.992
299.994
299.997
300
300.002
300.005
300.007
300.009
300.011
300.012
300.013
300.013
300.014
300.014
300.013
300.013
300.012
300.011
300.01
300.009
300.008
300.005
300.002
299.999
300.016
300.014
300.014
300.013
300.012
300.011
300.01
300.008
300.006
300.004
300.001
299.997
299.993
299.988
299.983
299.978
299.973
299.968
299.964
299.96
299.957
299.955
299.953
299.953
299.954
299.955
299.958
299.961
299.964
299.968
299.972
299.976
299.979
299.983
299.986
299.989
299.991
299.993
299.994
299.995
299.994
299.994
299.992
299.989
299.985
299.979
299.971
299.961
299.949
299.937
300.014
300.011
300.011
300.009
300.008
300.006
300.004
300.002
299.999
299.995
299.991
299.985
299.979
299.973
299.966
299.958
299.951
299.943
299.936
299.929
299.923
299.917
299.913
299.909
299.907
299.905
299.904
299.905
299.906
299.907
299.909
299.911
299.914
299.916
299.917
299.919
299.919
299.918
299.916
299.913
299.908
299.901
299.892
299.88
299.865
299.847
299.826
299.803
299.779
299.752
300.002
299.999
299.998
299.997
299.995
299.992
299.989
299.986
299.981
299.976
299.97
299.963
299.956
299.948
299.94
299.931
299.923
299.914
299.905
299.897
299.889
299.881
299.874
299.868
299.862
299.856
299.85
299.845
299.84
299.835
299.831
299.826
299.82
299.814
299.807
299.799
299.79
299.779
299.766
299.751
299.734
299.714
299.692
299.668
299.64
299.611
299.579
299.546
299.511
299.476
299.958
299.955
299.954
299.952
299.95
299.947
299.943
299.939
299.935
299.93
299.924
299.919
299.913
299.906
299.9
299.893
299.887
299.88
299.874
299.868
299.862
299.856
299.849
299.843
299.836
299.829
299.821
299.813
299.804
299.795
299.784
299.773
299.76
299.747
299.732
299.716
299.698
299.679
299.658
299.636
299.612
299.586
299.56
299.532
299.503
299.473
299.443
299.413
299.383
299.355
303.148
303.144
303.141
303.138
303.135
303.132
303.129
303.126
303.122
303.119
303.116
303.113
303.11
303.107
303.105
303.102
303.099
303.096
303.093
303.09
303.087
303.085
303.082
303.08
303.078
303.075
303.073
303.071
303.069
303.067
303.065
303.062
303.06
303.058
303.056
303.054
303.052
303.05
303.049
303.047
303.045
303.043
303.041
303.039
303.037
303.036
303.034
303.033
303.032
303.031
303.15
303.15
303.15
303.15
303.15
303.149
303.149
303.149
303.149
303.149
303.148
303.148
303.148
303.147
303.147
303.147
303.146
303.146
303.146
303.145
303.145
303.144
303.143
303.143
303.142
303.141
303.14
303.139
303.139
303.138
303.137
303.136
303.135
303.134
303.133
303.133
303.132
303.131
303.13
303.129
303.129
303.128
303.127
303.127
303.126
303.125
303.125
303.124
303.124
303.123
303.15
303.15
303.15
303.15
303.15
303.15
303.15
303.15
303.15
303.15
303.15
303.15
303.15
303.15
303.15
303.15
303.15
303.15
303.15
303.15
303.15
303.15
303.149
303.149
303.149
303.149
303.149
303.149
303.149
303.148
303.148
303.148
303.148
303.148
303.147
303.147
303.147
303.147
303.146
303.146
303.146
303.146
303.145
303.145
303.145
303.145
303.144
303.144
303.144
303.144
303.15
303.15
303.15
303.15
303.15
303.15
303.15
303.15
303.15
303.15
303.15
303.15
303.15
303.15
303.15
303.15
303.15
303.15
303.15
303.15
303.15
303.15
303.15
303.15
303.15
303.15
303.15
303.15
303.15
303.15
303.15
303.15
303.15
303.15
303.15
303.15
303.15
303.15
303.149
303.149
303.149
303.149
303.149
303.149
303.149
303.149
303.149
303.149
303.149
303.149
303.15
303.15
303.15
303.15
303.15
303.15
303.15
303.15
303.15
303.15
303.15
303.15
303.15
303.15
303.15
303.15
303.15
303.15
303.15
303.15
303.15
303.15
303.15
303.15
303.15
303.15
303.15
303.15
303.15
303.15
303.15
303.15
303.15
303.15
303.15
303.15
303.15
303.15
303.15
303.15
303.15
303.15
303.15
303.15
303.15
303.15
303.15
303.15
303.15
303.15
303.15
303.15
303.15
303.15
303.15
303.15
303.15
303.15
303.15
303.15
303.15
303.15
303.15
303.15
303.15
303.15
303.15
303.15
303.15
303.15
303.15
303.15
303.15
303.15
303.15
303.15
303.15
303.15
303.15
303.15
303.15
303.15
303.15
303.15
303.15
303.15
303.15
303.15
303.15
303.15
303.15
303.15
303.15
303.15
303.15
303.15
303.15
303.15
303.15
303.15
303.15
303.15
303.15
303.15
303.15
303.15
303.15
303.15
303.15
303.15
303.15
303.15
303.15
303.15
303.15
303.15
303.15
303.15
303.15
303.15
303.15
303.15
303.15
303.15
303.15
303.15
303.15
303.15
303.15
303.15
303.15
303.15
303.15
303.15
303.15
303.15
303.15
303.15
303.15
303.15
303.15
303.15
303.15
303.15
303.15
303.15
303.15
303.15
303.15
303.15
303.15
303.15
303.15
303.15
303.15
303.15
303.15
303.15
303.15
303.15
303.15
303.15
303.15
303.15
303.15
303.15
303.15
303.15
303.15
303.15
303.15
303.15
303.15
303.15
303.15
303.15
303.15
303.15
303.15
303.15
303.15
303.15
303.15
303.15
303.15
303.15
303.15
303.15
303.15
303.15
303.15
303.15
303.15
303.15
303.15
303.15
303.15
303.15
303.15
303.15
303.15
303.15
303.15
303.15
303.15
303.15
303.15
303.15
303.15
303.15
303.15
303.15
303.15
303.15
303.15
303.15
303.15
303.15
303.15
303.15
303.15
303.15
303.15
303.15
303.15
303.15
303.15
303.15
303.15
303.15
303.15
303.15
303.15
303.15
303.15
303.15
303.15
303.15
303.15
303.15
303.15
303.15
303.15
303.15
303.15
303.15
303.15
303.15
303.15
303.15
303.15
303.15
303.15
303.15
303.15
303.15
303.15
303.15
303.15
303.15
303.15
303.15
303.15
303.15
303.15
303.15
303.15
303.15
303.15
303.15
303.15
303.15
303.15
303.15
303.15
303.15
303.15
303.15
303.15
303.15
303.15
303.15
303.15
303.15
303.15
303.15
303.15
303.15
303.15
303.15
303.15
303.15
303.15
303.15
303.15
303.15
303.15
303.15
303.15
303.15
303.15
303.15
303.15
303.15
303.15
303.15
303.15
303.15
303.15
303.15
303.15
303.15
303.15
303.15
303.15
303.15
303.15
303.15
303.15
303.15
303.15
303.15
303.15
303.15
303.15
303.15
303.15
303.15
303.15
303.15
303.15
303.15
303.15
303.15
303.15
303.15
303.15
303.15
303.15
303.15
303.15
303.15
303.15
303.15
303.15
303.15
303.15
303.15
303.15
303.15
303.15
303.15
303.15
303.15
303.15
303.15
303.15
303.15
303.15
303.15
303.15
303.15
303.15
303.15
303.15
303.15
303.15
303.15
303.15
303.15
303.15
303.15
303.15
303.15
303.15
303.15
303.15
303.15
303.15
303.15
303.15
303.15
303.15
303.15
303.15
303.15
303.15
303.15
303.15
303.15
303.15
303.15
303.15
303.15
303.15
303.15
303.15
303.15
303.15
303.15
303.15
303.15
303.15
303.15
303.15
303.15
303.15
303.15
303.15
303.15
303.15
303.15
303.15
303.15
303.15
303.15
303.15
303.15
303.15
303.15
303.15
303.15
303.15
303.15
303.15
303.15
303.15
303.15
303.15
303.15
303.15
303.15
303.15
303.15
303.15
303.15
303.15
303.15
303.15
303.15
303.15
303.15
303.15
303.15
303.15
303.15
303.15
303.15
303.15
303.15
303.15
303.15
303.15
303.15
303.15
303.15
303.15
303.15
303.15
303.15
303.15
303.15
303.15
303.15
303.15
303.15
303.15
303.15
303.15
303.15
303.15
303.15
303.15
303.15
303.15
303.15
303.15
303.15
303.15
303.15
303.15
303.15
303.15
303.15
303.15
303.15
303.15
303.15
303.15
303.15
303.15
303.15
303.15
303.15
303.15
303.15
303.15
303.15
303.15
303.15
303.15
303.15
303.15
303.15
303.15
303.15
303.15
303.15
303.15
303.15
303.15
303.15
303.15
303.15
303.15
303.15
303.15
303.15
303.15
303.15
303.15
303.15
303.15
303.15
303.15
303.15
303.15
303.15
303.15
303.15
303.15
303.15
303.15
303.15
303.15
303.15
303.15
303.15
303.15
303.15
303.15
303.15
303.15
303.15
303.15
303.15
303.15
303.15
303.15
303.15
303.15
303.15
303.15
303.15
303.15
303.15
303.15
303.15
303.15
303.15
303.15
303.15
303.15
303.15
303.15
303.15
303.15
303.15
303.15
303.15
303.15
303.15
303.15
303.15
303.15
303.15
303.15
303.15
303.15
303.15
303.15
303.15
303.15
303.15
303.15
303.15
303.15
303.15
303.15
303.15
303.15
303.15
303.15
303.15
303.15
303.15
303.15
303.15
303.15
303.15
303.15
303.15
303.15
303.15
303.15
303.15
303.15
303.15
303.15
303.15
303.15
303.15
303.15
303.15
303.15
303.15
303.15
303.15
303.15
303.15
303.15
303.15
303.15
303.15
303.15
303.15
303.15
303.15
303.15
303.15
303.15
303.15
303.15
303.15
303.15
303.15
303.15
303.149
303.149
303.149
303.149
303.149
303.149
303.149
303.149
303.149
303.148
303.148
303.148
303.148
303.15
303.15
303.15
303.15
303.15
303.15
303.15
303.15
303.15
303.15
303.15
303.15
303.15
303.15
303.15
303.15
303.15
303.15
303.15
303.15
303.15
303.15
303.149
303.149
303.149
303.149
303.149
303.149
303.149
303.148
303.148
303.148
303.148
303.147
303.147
303.147
303.147
303.146
303.146
303.146
303.145
303.145
303.144
303.144
303.144
303.143
303.143
303.142
303.141
303.141
303.15
303.15
303.15
303.15
303.15
303.15
303.149
303.149
303.149
303.149
303.148
303.148
303.148
303.147
303.147
303.147
303.146
303.146
303.146
303.145
303.145
303.144
303.143
303.143
303.142
303.141
303.14
303.139
303.139
303.138
303.137
303.136
303.135
303.134
303.133
303.132
303.131
303.13
303.129
303.128
303.127
303.126
303.125
303.124
303.123
303.122
303.121
303.119
303.118
303.116
303.148
303.144
303.141
303.138
303.135
303.132
303.129
303.125
303.122
303.119
303.116
303.113
303.11
303.107
303.104
303.101
303.098
303.096
303.093
303.09
303.087
303.085
303.082
303.08
303.078
303.076
303.073
303.071
303.069
303.067
303.065
303.062
303.06
303.058
303.056
303.053
303.051
303.049
303.047
303.046
303.044
303.042
303.04
303.038
303.036
303.035
303.033
303.031
303.029
303.027
301.986
300.696
299.008
297.371
296.024
295.054
294.418
294.029
293.8
293.669
293.601
293.579
293.615
293.752
293.951
294.187
294.489
294.929
295.514
296.075
301.987
300.674
298.956
297.3
295.947
294.981
294.357
293.98
293.761
293.638
293.573
293.552
293.582
293.713
293.91
294.153
294.473
294.933
295.525
296.074
301.988
300.655
298.913
297.241
295.883
294.921
294.307
293.94
293.73
293.613
293.552
293.53
293.553
293.677
293.871
294.122
294.455
294.929
295.524
296.065
301.99
300.641
298.878
297.193
295.831
294.874
294.268
293.91
293.707
293.595
293.536
293.513
293.53
293.644
293.834
294.092
294.439
294.924
295.522
296.054
301.993
300.63
298.851
297.156
295.792
294.838
294.239
293.888
293.691
293.582
293.524
293.501
293.513
293.616
293.8
294.064
294.423
294.919
295.517
296.042
301.997
300.624
298.831
297.129
295.763
294.813
294.219
293.873
293.68
293.574
293.517
293.492
293.5
293.59
293.769
294.037
294.408
294.913
295.511
296.027
302.003
300.621
298.819
297.111
295.745
294.798
294.207
293.865
293.675
293.57
293.514
293.488
293.49
293.567
293.741
294.012
294.392
294.905
295.502
296.01
302.009
300.622
298.812
297.102
295.736
294.79
294.203
293.862
293.673
293.57
293.513
293.486
293.482
293.546
293.713
293.987
294.376
294.895
295.491
295.991
302.017
300.625
298.811
297.1
295.734
294.79
294.203
293.864
293.676
293.572
293.515
293.487
293.476
293.528
293.687
293.961
294.357
294.882
295.477
295.971
302.026
300.631
298.814
297.102
295.738
294.795
294.209
293.87
293.681
293.577
293.52
293.489
293.473
293.512
293.661
293.935
294.336
294.867
295.46
295.949
302.035
300.639
298.821
297.109
295.746
294.803
294.217
293.877
293.688
293.584
293.526
293.494
293.471
293.499
293.636
293.907
294.313
294.848
295.441
295.925
302.046
300.648
298.828
297.117
295.756
294.813
294.226
293.886
293.697
293.591
293.533
293.5
293.471
293.488
293.613
293.879
294.288
294.827
295.419
295.9
302.057
300.658
298.836
297.125
295.765
294.823
294.236
293.895
293.705
293.599
293.54
293.507
293.473
293.479
293.591
293.851
294.262
294.804
295.395
295.873
302.068
300.668
298.843
297.131
295.771
294.83
294.244
293.903
293.713
293.607
293.548
293.514
293.476
293.473
293.572
293.823
294.234
294.779
295.369
295.846
302.08
300.676
298.846
297.132
295.773
294.833
294.248
293.909
293.72
293.614
293.555
293.522
293.481
293.468
293.555
293.797
294.206
294.752
295.342
295.818
302.092
300.684
298.846
297.128
295.768
294.831
294.248
293.912
293.724
293.62
293.562
293.529
293.486
293.466
293.54
293.772
294.178
294.725
295.314
295.789
302.105
300.689
298.84
297.115
295.755
294.82
294.243
293.91
293.725
293.623
293.567
293.536
293.491
293.465
293.527
293.748
294.15
294.696
295.284
295.759
302.117
300.692
298.828
297.094
295.732
294.802
294.23
293.904
293.723
293.624
293.57
293.541
293.497
293.465
293.517
293.726
294.123
294.667
295.254
295.729
302.128
300.692
298.809
297.063
295.699
294.774
294.211
293.892
293.718
293.622
293.571
293.544
293.502
293.467
293.508
293.707
294.097
294.639
295.223
295.699
302.14
300.688
298.782
297.022
295.656
294.737
294.184
293.876
293.708
293.617
293.569
293.546
293.506
293.469
293.502
293.69
294.073
294.612
295.193
295.67
302.15
300.682
298.748
296.97
295.601
294.691
294.151
293.854
293.695
293.608
293.564
293.545
293.509
293.471
293.497
293.675
294.051
294.586
295.164
295.641
302.16
300.672
298.708
296.91
295.538
294.637
294.112
293.829
293.678
293.597
293.556
293.542
293.51
293.473
293.494
293.665
294.034
294.564
295.137
295.613
302.17
300.659
298.661
296.842
295.467
294.578
294.07
293.801
293.66
293.583
293.545
293.535
293.51
293.475
293.493
293.657
294.021
294.545
295.112
295.586
302.178
300.643
298.61
296.768
295.391
294.515
294.025
293.772
293.64
293.568
293.532
293.527
293.509
293.476
293.494
293.654
294.012
294.53
295.089
295.561
302.186
300.626
298.555
296.691
295.313
294.451
293.981
293.743
293.621
293.552
293.518
293.516
293.506
293.477
293.496
293.654
294.009
294.519
295.069
295.538
302.193
300.608
298.5
296.613
295.235
294.389
293.939
293.717
293.602
293.535
293.503
293.505
293.502
293.477
293.499
293.658
294.01
294.513
295.053
295.517
302.2
300.589
298.446
296.538
295.162
294.332
293.902
293.695
293.586
293.52
293.488
293.493
293.497
293.477
293.502
293.665
294.016
294.512
295.039
295.498
302.206
300.572
298.396
296.47
295.097
294.283
293.871
293.677
293.572
293.506
293.474
293.481
293.492
293.477
293.507
293.674
294.026
294.513
295.027
295.481
302.212
300.556
298.352
296.411
295.042
294.244
293.849
293.663
293.562
293.495
293.463
293.47
293.487
293.476
293.512
293.686
294.039
294.518
295.018
295.466
302.218
300.545
298.317
296.365
295.001
294.217
293.834
293.656
293.555
293.487
293.456
293.462
293.483
293.475
293.518
293.7
294.055
294.524
295.01
295.452
302.225
300.537
298.294
296.334
294.976
294.202
293.828
293.653
293.551
293.483
293.453
293.465
293.479
293.474
293.525
293.715
294.072
294.532
295.004
295.439
302.232
300.535
298.284
296.32
294.967
294.2
293.83
293.654
293.551
293.482
293.453
293.464
293.475
293.474
293.531
293.731
294.09
294.54
294.997
295.428
302.24
300.54
298.288
296.325
294.976
294.211
293.839
293.661
293.554
293.485
293.455
293.461
293.472
293.473
293.538
293.747
294.108
294.547
294.991
295.416
302.251
300.556
298.311
296.35
295
294.231
293.854
293.67
293.56
293.489
293.459
293.461
293.469
293.473
293.545
293.763
294.126
294.555
294.984
295.404
302.266
300.586
298.353
296.394
295.038
294.26
293.873
293.683
293.569
293.496
293.464
293.461
293.468
293.475
293.555
293.781
294.145
294.559
294.974
295.391
302.286
300.63
298.414
296.455
295.089
294.297
293.898
293.699
293.581
293.506
293.47
293.463
293.468
293.479
293.568
293.802
294.161
294.561
294.962
295.377
302.312
300.687
298.494
296.535
295.154
294.343
293.927
293.718
293.596
293.517
293.479
293.468
293.47
293.487
293.586
293.824
294.175
294.558
294.949
295.364
302.341
300.757
298.591
296.632
295.233
294.397
293.962
293.741
293.613
293.531
293.49
293.476
293.475
293.501
293.608
293.846
294.184
294.552
294.934
295.35
302.375
300.837
298.705
296.746
295.325
294.461
294.002
293.767
293.632
293.547
293.503
293.488
293.486
293.519
293.632
293.865
294.19
294.543
294.919
295.337
302.411
300.927
298.833
296.876
295.43
294.533
294.047
293.797
293.655
293.566
293.518
293.502
293.5
293.54
293.656
293.882
294.192
294.533
294.903
295.324
302.45
301.025
298.975
297.021
295.548
294.614
294.098
293.83
293.679
293.586
293.536
293.519
293.519
293.562
293.679
293.896
294.191
294.521
294.888
295.313
302.491
301.13
299.13
297.181
295.679
294.705
294.155
293.867
293.707
293.609
293.556
293.538
293.54
293.585
293.7
293.907
294.189
294.509
294.873
295.302
302.532
301.241
299.295
297.354
295.823
294.806
294.219
293.907
293.737
293.634
293.578
293.559
293.563
293.607
293.719
293.917
294.186
294.498
294.86
295.293
302.575
301.355
299.469
297.54
295.979
294.917
294.289
293.952
293.77
293.661
293.602
293.582
293.586
293.628
293.737
293.926
294.183
294.488
294.849
295.285
302.617
301.472
299.651
297.738
296.148
295.038
294.367
294.002
293.805
293.691
293.628
293.606
293.61
293.65
293.755
293.934
294.181
294.479
294.839
295.279
302.658
301.591
299.839
297.946
296.33
295.171
294.454
294.057
293.845
293.722
293.655
293.631
293.635
293.672
293.773
293.943
294.181
294.472
294.832
295.275
302.698
301.71
300.032
298.164
296.524
295.316
294.549
294.118
293.887
293.756
293.684
293.658
293.661
293.695
293.791
293.954
294.182
294.468
294.826
295.271
302.737
301.828
300.229
298.392
296.731
295.473
294.654
294.186
293.935
293.793
293.714
293.685
293.687
293.719
293.809
293.965
294.185
294.465
294.822
295.27
302.775
301.945
300.428
298.629
296.951
295.644
294.771
294.261
293.987
293.834
293.747
293.713
293.714
293.743
293.829
293.978
294.19
294.465
294.821
295.269
302.81
302.061
300.63
298.875
297.185
295.83
294.9
294.345
294.044
293.878
293.783
293.742
293.741
293.768
293.85
293.991
294.196
294.466
294.821
295.269
302.843
302.173
300.834
299.129
297.434
296.032
295.043
294.44
294.109
293.927
293.822
293.773
293.769
293.794
293.871
294.007
294.204
294.47
294.823
295.27
302.874
302.283
301.038
299.392
297.698
296.253
295.204
294.547
294.182
293.983
293.866
293.807
293.798
293.821
293.894
294.023
294.215
294.475
294.827
295.272
302.903
302.388
301.242
299.664
297.98
296.495
295.384
294.669
294.264
294.044
293.916
293.847
293.83
293.849
293.917
294.041
294.227
294.483
294.832
295.274
302.929
302.49
301.446
299.945
298.281
296.762
295.589
294.811
294.36
294.115
293.973
293.892
293.867
293.88
293.943
294.062
294.242
294.494
294.839
295.276
302.953
302.587
301.649
300.235
298.603
297.058
295.822
294.975
294.471
294.195
294.038
293.945
293.908
293.914
293.972
294.085
294.26
294.507
294.847
295.278
302.973
302.677
301.848
300.534
298.949
297.388
296.091
295.17
294.603
294.288
294.112
294.007
293.957
293.954
294.005
294.113
294.281
294.524
294.858
295.28
302.99
302.762
302.043
300.841
299.32
297.756
296.404
295.403
294.763
294.398
294.197
294.079
294.016
294.002
294.045
294.146
294.308
294.544
294.87
295.281
303.004
302.838
302.231
301.153
299.716
298.168
296.768
295.685
294.96
294.532
294.296
294.161
294.085
294.061
294.093
294.186
294.341
294.57
294.885
295.282
303.015
302.906
302.409
301.466
300.136
298.627
297.193
296.027
295.206
294.698
294.412
294.255
294.166
294.129
294.151
294.235
294.381
294.6
294.903
295.282
303.023
302.964
302.573
301.774
300.576
299.135
297.688
296.445
295.517
294.91
294.556
294.364
294.26
294.211
294.22
294.293
294.429
294.636
294.922
295.281
303.028
303.013
302.719
302.069
301.025
299.687
298.259
296.954
295.915
295.189
294.742
294.494
294.367
294.309
294.3
294.36
294.484
294.676
294.944
295.28
303.029
303.05
302.844
302.34
301.47
300.273
298.904
297.566
296.423
295.562
294.991
294.658
294.488
294.413
294.391
294.437
294.546
294.722
294.968
295.277
303.029
303.078
302.945
302.578
301.891
300.871
299.613
298.287
297.063
296.063
295.339
294.881
294.635
294.527
294.493
294.522
294.615
294.771
294.993
295.273
303.026
303.097
303.022
302.774
302.268
301.451
300.358
299.106
297.849
296.727
295.834
295.208
294.835
294.659
294.601
294.613
294.688
294.822
295.019
295.269
303.022
303.108
303.075
302.922
302.58
301.977
301.096
299.991
298.775
297.581
296.528
295.703
295.144
294.838
294.722
294.707
294.763
294.875
295.044
295.262
303.017
303.113
303.108
303.025
302.816
302.414
301.768
300.878
299.796
298.621
297.467
296.448
295.653
295.132
294.875
294.805
294.838
294.927
295.069
295.255
303.011
303.114
303.126
303.088
302.975
302.738
302.32
301.683
300.825
299.786
298.645
297.507
296.485
295.679
295.16
294.932
294.912
294.978
295.092
295.245
303.005
303.113
303.135
303.122
303.07
302.949
302.715
302.323
301.738
300.947
299.97
298.866
297.726
296.662
295.792
295.225
295.001
295.026
295.112
295.234
302.998
303.111
303.138
303.138
303.118
303.066
302.956
302.755
302.426
301.93
301.243
300.362
299.319
298.179
297.034
296.022
295.327
295.087
295.131
295.221
302.992
303.108
303.138
303.145
303.139
303.12
303.077
302.994
302.846
302.602
302.228
301.688
300.96
300.041
298.943
297.709
296.485
295.531
295.173
295.209
302.986
303.104
303.137
303.146
303.146
303.141
303.127
303.099
303.047
302.956
302.806
302.568
302.213
301.707
301.019
300.105
298.928
297.572
296.236
295.438
302.98
303.101
303.136
303.147
303.149
303.148
303.144
303.136
303.121
303.095
303.051
302.978
302.864
302.69
302.435
302.079
301.603
301.024
300.467
300.186
302.975
303.098
303.135
303.146
303.149
303.149
303.148
303.146
303.143
303.136
303.124
303.107
303.08
303.042
302.987
302.915
302.819
302.697
302.546
302.409
302.97
303.095
303.133
303.146
303.149
303.15
303.15
303.149
303.148
303.146
303.142
303.136
303.127
303.114
303.095
303.071
303.04
303.002
302.955
302.882
302.965
303.092
303.132
303.145
303.149
303.15
303.15
303.15
303.149
303.148
303.147
303.143
303.138
303.129
303.115
303.095
303.067
303.03
302.98
302.905
302.961
303.089
303.13
303.145
303.149
303.15
303.15
303.15
303.15
303.149
303.148
303.146
303.143
303.136
303.125
303.108
303.081
303.042
302.988
302.909
302.957
303.087
303.129
303.144
303.149
303.15
303.15
303.15
303.15
303.15
303.149
303.148
303.145
303.141
303.132
303.116
303.091
303.052
302.995
302.911
302.953
303.085
303.128
303.144
303.149
303.15
303.15
303.15
303.15
303.15
303.149
303.149
303.147
303.143
303.136
303.123
303.099
303.06
303.001
302.913
302.95
303.083
303.127
303.144
303.148
303.15
303.15
303.15
303.15
303.15
303.15
303.149
303.148
303.145
303.139
303.127
303.105
303.067
303.006
302.915
302.948
303.081
303.126
303.143
303.148
303.15
303.15
303.15
303.15
303.15
303.15
303.149
303.149
303.146
303.141
303.131
303.11
303.073
303.01
302.916
302.945
303.079
303.125
303.143
303.148
303.15
303.15
303.15
303.15
303.15
303.15
303.15
303.149
303.147
303.143
303.134
303.114
303.077
303.014
302.918
302.943
303.078
303.124
303.142
303.148
303.15
303.15
303.15
303.15
303.15
303.15
303.15
303.149
303.148
303.144
303.136
303.117
303.081
303.018
302.919
302.942
303.077
303.123
303.142
303.148
303.15
303.15
303.15
303.15
303.15
303.15
303.15
303.149
303.148
303.145
303.137
303.12
303.085
303.021
302.92
302.941
303.076
303.123
303.142
303.148
303.15
303.15
303.15
303.15
303.15
303.15
303.15
303.149
303.148
303.146
303.139
303.122
303.087
303.023
302.922
302.94
303.075
303.122
303.142
303.148
303.15
303.15
303.15
303.15
303.15
303.15
303.15
303.15
303.149
303.146
303.14
303.124
303.09
303.026
302.923
302.939
303.075
303.122
303.142
303.148
303.15
303.15
303.15
303.15
303.15
303.15
303.15
303.15
303.149
303.147
303.141
303.126
303.092
303.028
302.924
302.939
303.075
303.122
303.141
303.148
303.15
303.15
303.15
303.15
303.15
303.15
303.15
303.15
303.149
303.147
303.141
303.127
303.094
303.03
302.926
302.938
303.074
303.121
303.141
303.148
303.149
303.15
303.15
303.15
303.15
303.15
303.15
303.15
303.149
303.147
303.142
303.128
303.096
303.031
302.927
302.938
303.074
303.121
303.141
303.148
303.149
303.15
303.15
303.15
303.15
303.15
303.15
303.15
303.149
303.147
303.142
303.129
303.097
303.033
302.928
302.939
303.074
303.121
303.141
303.148
303.149
303.15
303.15
303.15
303.15
303.15
303.15
303.15
303.149
303.148
303.143
303.13
303.098
303.034
302.929
302.939
303.074
303.121
303.141
303.148
303.149
303.15
303.15
303.15
303.15
303.15
303.15