/*--------------------------------*- C++ -*----------------------------------*\
  =========                 |
  \\      /  F ield         | OpenFOAM: The Open Source CFD Toolbox
   \\    /   O peration     | Website:  https://openfoam.org
    \\  /    A nd           | Version:  8
     \\/     M anipulation  |
\*---------------------------------------------------------------------------*/
FoamFile
{
    version     2.0;
    format      ascii;
    class       volVectorField;
    location    "600";
    object      U;
}
// * * * * * * * * * * * * * * * * * * * * * * * * * * * * * * * * * * * * * //

dimensions      [0 1 -1 0 0 0 0];

internalField   nonuniform List<vector> 
8400
(
(-23.7533 -0.581807 -8.01818e-16)
(-22.5526 -0.511376 -8.25748e-16)
(-21.7983 -0.35915 -8.42892e-16)
(-21.2575 -0.250917 -8.50739e-16)
(-20.8945 -0.176648 -8.4974e-16)
(-20.6451 -0.119483 -8.41096e-16)
(-20.466 -0.0719443 -8.27343e-16)
(-20.3269 -0.0320193 -8.0881e-16)
(-20.2058 0.000779455 -7.86361e-16)
(-20.0862 0.0266679 -7.61606e-16)
(-19.9558 0.0456367 -7.33705e-16)
(-19.8069 0.0587274 -7.03066e-16)
(-19.6335 0.0622228 -6.71917e-16)
(-19.4242 0.0470368 -6.40657e-16)
(-19.1692 0.00873956 -6.10434e-16)
(-18.8709 -0.0508444 -5.83548e-16)
(-18.5468 -0.115745 -5.60124e-16)
(-18.234 -0.151916 -5.42224e-16)
(-17.9767 -0.137911 -5.34611e-16)
(-17.8072 -0.0802761 -5.39592e-16)
(-17.7462 0.007352 -5.57775e-16)
(-17.7876 0.0841399 -5.84468e-16)
(-17.8901 0.121443 -6.11314e-16)
(-18.0231 0.126251 -6.35535e-16)
(-18.1677 0.101943 -6.5482e-16)
(-18.299 0.0480432 -6.67831e-16)
(-18.384 -0.0267938 -6.7366e-16)
(-18.3885 -0.109874 -6.74051e-16)
(-18.2928 -0.188489 -6.68638e-16)
(-18.0977 -0.253428 -6.5652e-16)
(-17.8359 -0.289336 -6.42057e-16)
(-17.5689 -0.28092 -6.29168e-16)
(-17.3541 -0.241108 -6.15645e-16)
(-17.2143 -0.194293 -5.9637e-16)
(-17.1426 -0.159794 -5.68565e-16)
(-17.1065 -0.148828 -5.29603e-16)
(-17.0643 -0.161287 -4.84659e-16)
(-16.9818 -0.190312 -4.40854e-16)
(-16.842 -0.223736 -3.99432e-16)
(-16.6534 -0.251786 -3.60481e-16)
(-16.4374 -0.27517 -3.23374e-16)
(-16.2029 -0.3049 -2.86327e-16)
(-15.9382 -0.347058 -2.50078e-16)
(-15.6217 -0.401211 -2.09593e-16)
(-15.2268 -0.463301 -1.65055e-16)
(-14.7277 -0.528048 -1.18493e-16)
(-14.1073 -0.589647 -6.47895e-17)
(-13.364 -0.643836 -2.19699e-17)
(-12.5041 -0.689347 3.78057e-19)
(-11.5355 -0.730277 7.81633e-18)
(-13.7061 -1.10785 -3.91203e-16)
(-13.536 -0.92383 -5.04152e-16)
(-13.6614 -0.702774 -5.98513e-16)
(-13.8757 -0.540375 -6.67386e-16)
(-14.1346 -0.441794 -7.16525e-16)
(-14.3641 -0.391936 -7.45805e-16)
(-14.5419 -0.363739 -7.55676e-16)
(-14.7223 -0.345452 -7.51521e-16)
(-14.9301 -0.332894 -7.37783e-16)
(-15.169 -0.325182 -7.17805e-16)
(-15.4214 -0.325657 -6.91726e-16)
(-15.6738 -0.33974 -6.60193e-16)
(-15.9231 -0.376742 -6.24848e-16)
(-16.1477 -0.443492 -5.85502e-16)
(-16.312 -0.537738 -5.40079e-16)
(-16.3869 -0.642356 -4.86533e-16)
(-16.3841 -0.725421 -4.26608e-16)
(-16.3557 -0.743463 -3.53951e-16)
(-16.3123 -0.682595 -2.45587e-16)
(-16.3283 -0.545097 -1.1565e-16)
(-16.4234 -0.327316 1.46546e-17)
(-16.5823 -0.0992591 1.22049e-16)
(-16.7785 0.0801602 1.85149e-16)
(-16.9772 0.217854 2.12772e-16)
(-17.1716 0.296335 2.14017e-16)
(-17.3494 0.282415 2.00649e-16)
(-17.4591 0.188377 1.79231e-16)
(-17.4541 0.051773 1.42956e-16)
(-17.3099 -0.11372 8.88862e-17)
(-17.027 -0.290265 2.14603e-17)
(-16.6577 -0.390366 -6.25608e-17)
(-16.3074 -0.349059 -1.73707e-16)
(-16.0725 -0.221086 -3.04682e-16)
(-15.9536 -0.0860233 -4.13031e-16)
(-15.9114 -0.000887136 -4.89455e-16)
(-15.8831 0.00514489 -5.21681e-16)
(-15.8175 -0.0560938 -5.22126e-16)
(-15.664 -0.161217 -5.00153e-16)
(-15.4105 -0.273745 -4.61432e-16)
(-15.0952 -0.358441 -4.16983e-16)
(-14.7673 -0.4116 -3.69707e-16)
(-14.4313 -0.476208 -3.16296e-16)
(-14.0503 -0.573721 -2.54674e-16)
(-13.5938 -0.703192 -1.81017e-16)
(-13.0446 -0.854915 -9.18947e-17)
(-12.3918 -1.01808 1.39382e-17)
(-11.6352 -1.17455 1.71149e-16)
(-10.7879 -1.30698 3.27365e-16)
(-9.86576 -1.40568 3.92074e-16)
(-8.87922 -1.47357 3.74747e-16)
(6.4 -2.05194 1.81806e-16)
(4.46649 -0.798586 1.88356e-16)
(3.12252 -0.111468 1.94273e-16)
(2.13549 0.347515 1.98085e-16)
(1.44742 0.73543 2.00148e-16)
(0.843364 1.05962 2.00686e-16)
(0.101296 1.29274 1.89513e-16)
(-0.815823 1.43331 1.63811e-16)
(-1.9818 1.48794 1.15515e-16)
(-3.58081 1.46649 1.87779e-17)
(-5.98918 1.38885 -1.5765e-16)
(-9.22487 1.23402 -2.69451e-16)
(-8.90356 1.14829 -2.83709e-17)
(-9.15861 1.02961 -4.86267e-17)
(-10.0588 0.840324 -2.26555e-16)
(-11.3184 0.605019 -4.59039e-16)
(-12.703 0.376634 -6.97343e-16)
(-14.1094 0.190344 -9.32466e-16)
(-14.0259 0.181054 -9.04575e-16)
(-14.1001 0.208258 -7.36745e-16)
(-14.3532 0.20146 -4.90584e-16)
(-14.4248 0.149999 -1.17188e-16)
(-14.6661 0.06909 2.7311e-16)
(-15.0016 -0.0386395 6.41527e-16)
(-15.3566 -0.183538 9.40264e-16)
(-15.6567 -0.380462 1.13273e-15)
(-15.8429 -0.602163 1.20512e-15)
(-15.8271 -0.818633 1.18992e-15)
(-15.5828 -1.01664 1.12491e-15)
(-15.0432 -1.1434 1.06487e-15)
(-14.6035 -1.11715 1.05079e-15)
(-14.23 -0.829438 9.17532e-16)
(-14.0971 -0.404089 6.01216e-16)
(-14.0693 -0.0126329 3.24497e-16)
(-14.0461 0.193952 1.90053e-16)
(-13.949 0.183403 1.77381e-16)
(-13.7343 0.025541 2.03191e-16)
(-13.3375 -0.234606 2.45358e-16)
(-12.8168 -0.492917 2.74287e-16)
(-12.2726 -0.637521 2.79299e-16)
(-11.7966 -0.676205 2.66689e-16)
(-11.3888 -0.761739 2.76119e-16)
(-10.9095 -0.935054 3.04016e-16)
(-10.3194 -1.17703 3.20389e-16)
(-9.65092 -1.46283 3.55607e-16)
(-8.91836 -1.77024 4.4672e-16)
(-8.13315 -2.06196 6.2314e-16)
(-7.31233 -2.30983 8.46737e-16)
(-6.46749 -2.49783 1.09088e-15)
(-5.59692 -2.62 1.3482e-15)
(25.7248 -1.43747 1.82286e-16)
(24.5082 -0.785292 1.81226e-16)
(23.8583 -0.343342 1.79845e-16)
(23.4059 0.00985949 1.77924e-16)
(22.9495 0.314192 1.73308e-16)
(22.4606 0.570379 1.63001e-16)
(21.9552 0.777711 1.48746e-16)
(21.4462 0.941226 1.26957e-16)
(20.9368 1.06799 9.61405e-17)
(20.4167 1.16414 5.7382e-17)
(19.8526 1.23512 1.12481e-17)
(19.2186 1.28124 -3.27238e-17)
(18.724 1.31332 -3.48406e-17)
(18.2635 1.34121 -7.11969e-18)
(17.7775 1.36745 1.62231e-17)
(17.238 1.39844 2.84423e-17)
(16.5905 1.44332 -1.4622e-17)
(15.7656 1.49075 -8.62904e-17)
(14.8538 1.56234 -2.04444e-16)
(13.9681 1.67669 -3.72517e-16)
(13.2072 1.77462 -5.47886e-16)
(12.5116 1.81439 -7.30564e-16)
(11.5916 1.80013 -9.02508e-16)
(10.4405 1.73253 -1.0762e-15)
(9.15265 1.59445 -1.05953e-15)
(7.7781 1.38008 -1.07033e-15)
(6.23952 1.09576 -9.50708e-16)
(4.52071 0.740834 -5.57095e-16)
(2.62795 0.259042 -1.42694e-16)
(-0.389748 -0.565939 5.32321e-16)
(-7.94517 -1.67082 3.15893e-15)
(-9.83917 -1.40528 3.71962e-15)
(-10.385 -1.11629 3.4598e-15)
(-10.5397 -0.959534 2.92015e-15)
(-10.4744 -0.967297 2.40565e-15)
(-10.2201 -1.12542 1.94893e-15)
(-9.56962 -1.34166 1.48275e-15)
(-8.72345 -1.5532 1.08673e-15)
(-8.18145 -1.73698 7.64436e-16)
(-8.01386 -1.74992 5.12022e-16)
(-7.36244 -1.40331 1.0138e-16)
(-7.02478 -1.23313 -2.93174e-16)
(-6.58656 -1.35954 -5.6974e-16)
(-5.94657 -1.67055 -7.33353e-16)
(-5.29252 -2.06533 -8.12407e-16)
(-4.65753 -2.4763 -7.87292e-16)
(-4.03831 -2.84425 -5.93252e-16)
(-3.43836 -3.14888 -3.79458e-16)
(-2.85468 -3.36974 -1.07032e-16)
(-2.26265 -3.47923 2.39427e-16)
(47.8855 0.288276 1.73944e-16)
(47.2283 0.566874 1.73909e-16)
(46.6934 0.838795 1.73648e-16)
(46.2599 1.07957 1.73392e-16)
(45.8435 1.27991 1.73219e-16)
(45.4217 1.44085 1.72782e-16)
(45.0027 1.56888 1.72067e-16)
(44.5916 1.67282 1.71803e-16)
(44.1867 1.76002 1.7083e-16)
(43.783 1.83491 1.7024e-16)
(43.3747 1.89914 1.69709e-16)
(42.9567 1.95266 1.74309e-16)
(42.5246 1.99849 1.72961e-16)
(42.0736 2.04143 1.51695e-16)
(41.6002 2.08562 1.29118e-16)
(41.0994 2.13697 1.24855e-16)
(40.5668 2.20215 7.63344e-17)
(40.0143 2.2822 2.04795e-17)
(39.4309 2.38507 -6.43326e-17)
(38.796 2.51641 -1.69285e-16)
(38.0945 2.66635 -2.70861e-16)
(37.2858 2.83317 -3.97316e-16)
(36.3086 3.01874 -5.2842e-16)
(35.1327 3.2049 -7.0379e-16)
(33.7453 3.36287 -8.14227e-16)
(32.1315 3.48034 -9.69992e-16)
(30.2841 3.5592 -1.06115e-15)
(28.2242 3.59456 -1.12775e-15)
(25.9772 3.57725 -1.12588e-15)
(23.5185 3.47967 -1.07559e-15)
(20.5715 3.2491 -7.67645e-16)
(17.9153 3.00904 -5.26235e-16)
(15.4214 2.72442 -2.95371e-16)
(13.2061 2.38479 -3.04245e-16)
(11.1335 1.94245 -2.40479e-16)
(9.21041 1.40012 -2.2795e-16)
(7.34072 0.740471 -1.09177e-16)
(5.02071 -0.0870434 -1.08005e-17)
(1.78376 -1.22165 5.04575e-16)
(-4.08209 -2.79343 1.10132e-15)
(-2.30149 -2.2372 6.17062e-16)
(-0.994765 -1.99419 2.13496e-16)
(-0.625225 -2.14574 -2.09134e-16)
(-0.470734 -2.4771 -4.94166e-16)
(-0.241117 -2.87828 -5.66884e-16)
(0.0119918 -3.27532 -7.59854e-16)
(0.303122 -3.61611 -6.95491e-16)
(0.584478 -3.8947 -5.8433e-16)
(0.847926 -4.08447 -4.1262e-16)
(1.09076 -4.13749 -1.67237e-17)
(31.7983 -0.0158591 1.71343e-16)
(31.3108 0.221957 1.71361e-16)
(31.0817 0.536954 1.70955e-16)
(31.0593 0.83254 1.70899e-16)
(31.1144 1.07684 1.71187e-16)
(31.1832 1.27536 1.7095e-16)
(31.2521 1.43971 1.70616e-16)
(31.3196 1.57979 1.70209e-16)
(31.3838 1.7027 1.69273e-16)
(31.443 1.81242 1.68742e-16)
(31.4952 1.91068 1.68657e-16)
(31.5384 1.99808 1.68337e-16)
(31.5709 2.0773 1.68018e-16)
(31.5916 2.15306 1.66774e-16)
(31.6003 2.23022 1.64095e-16)
(31.5972 2.31322 1.61969e-16)
(31.5812 2.40413 1.58249e-16)
(31.5471 2.50288 1.50933e-16)
(31.4932 2.61868 1.39082e-16)
(31.4243 2.76642 1.20957e-16)
(31.3469 2.96042 9.53087e-17)
(31.2632 3.21619 5.68181e-17)
(31.1624 3.53708 2.90442e-18)
(31.0135 3.9017 -6.83646e-17)
(30.7686 4.27564 -1.50888e-16)
(30.3756 4.63127 -2.49163e-16)
(29.7917 4.95006 -3.59945e-16)
(28.9898 5.21154 -4.71207e-16)
(27.9612 5.39827 -5.69447e-16)
(26.7098 5.49209 -6.43021e-16)
(25.2326 5.45095 -6.70283e-16)
(23.5856 5.27038 -6.67346e-16)
(21.8378 4.96769 -6.39733e-16)
(20.0604 4.54288 -5.63455e-16)
(18.2629 4.00423 -4.59728e-16)
(16.4713 3.38828 -3.94077e-16)
(14.7182 2.7395 -3.77996e-16)
(13.0099 2.08864 -4.02446e-16)
(11.3616 1.42025 -2.43307e-16)
(9.90407 0.740681 1.19136e-18)
(8.81248 0.0944221 2.61945e-16)
(7.63706 -0.600412 5.72096e-16)
(6.59487 -1.30428 6.69241e-16)
(5.81296 -1.99757 7.60064e-16)
(5.25983 -2.63907 6.00256e-16)
(4.8822 -3.19244 3.82101e-16)
(4.62349 -3.64025 1.9113e-16)
(4.42416 -3.97526 4.72138e-18)
(4.25715 -4.18691 -7.35576e-17)
(4.13057 -4.27232 -1.10136e-16)
(29.9475 1.27109 1.69077e-16)
(29.3365 1.33437 1.69182e-16)
(28.8273 1.43835 1.6876e-16)
(28.466 1.54634 1.68751e-16)
(28.1866 1.64151 1.69213e-16)
(27.9558 1.72745 1.69109e-16)
(27.7649 1.80877 1.68921e-16)
(27.6069 1.88595 1.68634e-16)
(27.4725 1.95821 1.67741e-16)
(27.3539 2.02522 1.67232e-16)
(27.2455 2.08765 1.67252e-16)
(27.1444 2.1471 1.66755e-16)
(27.0477 2.20558 1.66267e-16)
(26.9525 2.26472 1.65756e-16)
(26.8551 2.32523 1.6466e-16)
(26.7519 2.38702 1.64091e-16)
(26.6402 2.44991 1.63953e-16)
(26.5181 2.51552 1.62938e-16)
(26.3877 2.59169 1.61234e-16)
(26.2563 2.69172 1.58472e-16)
(26.1338 2.83068 1.54246e-16)
(26.0311 3.02429 1.4634e-16)
(25.9573 3.28628 1.31552e-16)
(25.9142 3.62225 1.06744e-16)
(25.8887 4.02643 6.9462e-17)
(25.8523 4.48301 1.74318e-17)
(25.7659 4.96647 -5.20474e-17)
(25.5872 5.44028 -1.37793e-16)
(25.2787 5.86262 -2.34037e-16)
(24.8133 6.19088 -3.342e-16)
(24.1727 6.38114 -4.25685e-16)
(23.3565 6.40585 -5.03396e-16)
(22.3827 6.25569 -5.55612e-16)
(21.2809 5.93029 -5.79177e-16)
(20.0769 5.44776 -5.65738e-16)
(18.8029 4.84318 -5.34002e-16)
(17.5 4.15958 -4.57255e-16)
(16.2143 3.43268 -3.53381e-16)
(14.9917 2.67383 -2.47868e-16)
(13.8799 1.86745 -1.59988e-16)
(12.9167 1.05034 -4.21153e-17)
(12.0845 0.231823 7.3235e-18)
(11.2424 -0.599653 3.86482e-17)
(10.4061 -1.40825 5.09484e-17)
(9.61306 -2.15774 4.05153e-17)
(8.87363 -2.80748 2.99913e-18)
(8.20172 -3.33379 -6.34521e-17)
(7.60338 -3.72494 -1.68424e-16)
(7.07754 -3.97402 -2.85885e-16)
(6.63153 -4.08412 -3.69352e-16)
(24.1332 1.37802 1.7275e-16)
(23.7064 1.33771 1.72654e-16)
(23.3418 1.35453 1.72048e-16)
(23.1082 1.40693 1.71874e-16)
(22.9431 1.47305 1.72164e-16)
(22.8165 1.54777 1.71943e-16)
(22.719 1.62902 1.71667e-16)
(22.6422 1.71318 1.71313e-16)
(22.5775 1.79696 1.70234e-16)
(22.518 1.8788 1.6972e-16)
(22.4595 1.95863 1.69797e-16)
(22.3997 2.03705 1.69217e-16)
(22.3368 2.11482 1.6865e-16)
(22.2692 2.19308 1.68111e-16)
(22.1955 2.27371 1.67321e-16)
(22.1147 2.35957 1.66602e-16)
(22.0267 2.4544 1.66257e-16)
(21.9319 2.56246 1.65894e-16)
(21.8314 2.68841 1.65405e-16)
(21.7266 2.83626 1.64649e-16)
(21.6198 3.00911 1.63498e-16)
(21.5158 3.21161 1.61921e-16)
(21.4241 3.45242 1.58565e-16)
(21.3571 3.7433 1.50981e-16)
(21.3254 4.09547 1.36822e-16)
(21.3314 4.51414 1.13434e-16)
(21.3648 4.99218 7.63728e-17)
(21.4016 5.50497 2.32033e-17)
(21.4074 6.01114 -4.7546e-17)
(21.3447 6.45917 -1.31367e-16)
(21.1798 6.79583 -2.22578e-16)
(20.8886 6.97729 -3.13858e-16)
(20.4608 6.9761 -3.96924e-16)
(19.8998 6.78207 -4.63718e-16)
(19.2179 6.40519 -5.05923e-16)
(18.4372 5.87217 -5.2475e-16)
(17.5884 5.21835 -5.16067e-16)
(16.7083 4.47715 -4.80267e-16)
(15.8319 3.6702 -3.81059e-16)
(14.985 2.80787 -2.11723e-16)
(14.1803 1.91443 -4.77392e-17)
(13.4175 1.01326 1.08192e-16)
(12.6897 0.125141 2.83052e-16)
(11.9618 -0.741079 4.07852e-16)
(11.2167 -1.53437 4.21537e-16)
(10.469 -2.2222 3.80244e-16)
(9.73955 -2.77781 3.02443e-16)
(9.04857 -3.19136 1.76506e-16)
(8.40912 -3.46369 2.93853e-18)
(7.83822 -3.60168 -1.86249e-16)
(18.7633 2.14099 1.74688e-16)
(18.3551 2.0005 1.74575e-16)
(18.0207 1.92626 1.74019e-16)
(17.8239 1.90095 1.73835e-16)
(17.6938 1.90259 1.74089e-16)
(17.6056 1.92459 1.73966e-16)
(17.5505 1.96279 1.73823e-16)
(17.5189 2.01219 1.73576e-16)
(17.5008 2.06871 1.72724e-16)
(17.4891 2.13024 1.72219e-16)
(17.4797 2.19607 1.72107e-16)
(17.4696 2.26594 1.71565e-16)
(17.4569 2.33979 1.71038e-16)
(17.4403 2.41797 1.70503e-16)
(17.4183 2.50129 1.69482e-16)
(17.3896 2.59065 1.68818e-16)
(17.3531 2.68687 1.68635e-16)
(17.308 2.79045 1.68141e-16)
(17.2544 2.90205 1.67683e-16)
(17.1933 3.02333 1.67168e-16)
(17.1273 3.15843 1.66505e-16)
(17.0616 3.31567 1.65651e-16)
(17.0044 3.5076 1.64527e-16)
(16.9661 3.7491 1.62086e-16)
(16.9583 4.05457 1.5651e-16)
(16.9905 4.43394 1.46229e-16)
(17.067 4.88724 1.27532e-16)
(17.1818 5.39857 9.68444e-17)
(17.3164 5.93316 5.21091e-17)
(17.4419 6.44097 -7.63869e-18)
(17.5259 6.86566 -8.06732e-17)
(17.5381 7.15536 -1.6217e-16)
(17.4564 7.27187 -2.46154e-16)
(17.2692 7.19538 -3.25078e-16)
(16.9749 6.92627 -3.90207e-16)
(16.5817 6.4821 -4.37821e-16)
(16.1064 5.89095 -4.63953e-16)
(15.5706 5.1835 -4.68758e-16)
(14.9959 4.38666 -4.44763e-16)
(14.3981 3.52294 -3.85891e-16)
(13.7856 2.61798 -2.91916e-16)
(13.1619 1.69907 -1.90295e-16)
(12.529 0.793622 -6.89613e-17)
(11.8865 -0.07174 6.85226e-17)
(11.2411 -0.883216 2.24327e-16)
(10.5642 -1.58793 3.45709e-16)
(9.87391 -2.16885 3.66931e-16)
(9.19518 -2.60646 2.97877e-16)
(8.54704 -2.90303 1.76093e-16)
(7.95141 -3.06684 3.11957e-17)
(12.8855 2.53016 1.75873e-16)
(12.5558 2.22581 1.75711e-16)
(12.3154 2.0409 1.74928e-16)
(12.2169 1.92453 1.74743e-16)
(12.1781 1.85452 1.75174e-16)
(12.1795 1.825 1.75022e-16)
(12.2126 1.82836 1.74918e-16)
(12.2663 1.85609 1.74772e-16)
(12.33 1.90163 1.74016e-16)
(12.3967 1.96061 1.73619e-16)
(12.462 2.02994 1.73692e-16)
(12.5229 2.10717 1.73246e-16)
(12.5777 2.19052 1.72731e-16)
(12.6254 2.27874 1.72237e-16)
(12.665 2.37102 1.71249e-16)
(12.6952 2.46681 1.70654e-16)
(12.7152 2.56591 1.70469e-16)
(12.7249 2.66893 1.69799e-16)
(12.7252 2.77793 1.69106e-16)
(12.7179 2.89692 1.68383e-16)
(12.7063 3.03228 1.6761e-16)
(12.6951 3.19301 1.66788e-16)
(12.6902 3.38978 1.65883e-16)
(12.6993 3.63381 1.64658e-16)
(12.7316 3.93566 1.62193e-16)
(12.7967 4.30372 1.57146e-16)
(12.9037 4.7406 1.46707e-16)
(13.0555 5.2369 1.28174e-16)
(13.2459 5.76675 9.95257e-17)
(13.4583 6.28796 5.75764e-17)
(13.6694 6.74845 2.42654e-18)
(13.8527 7.0958 -6.34581e-17)
(13.9838 7.28735 -1.37156e-16)
(14.0443 7.29677 -2.13374e-16)
(14.0233 7.1166 -2.83187e-16)
(13.9176 6.7564 -3.4153e-16)
(13.7313 6.23764 -3.83853e-16)
(13.473 5.5876 -4.08891e-16)
(13.153 4.83446 -4.15611e-16)
(12.7796 4.00547 -4.02004e-16)
(12.3582 3.12869 -3.74017e-16)
(11.8923 2.23303 -3.57456e-16)
(11.3855 1.34713 -3.36237e-16)
(10.8418 0.498162 -2.97373e-16)
(10.2635 -0.286725 -2.47915e-16)
(9.68929 -0.994054 -1.64885e-16)
(9.08257 -1.58179 -3.28808e-17)
(8.46498 -2.0375 1.28501e-16)
(7.85943 -2.35238 2.7788e-16)
(7.2897 -2.53553 3.90034e-16)
(6.56536 3.25174 1.76785e-16)
(6.48114 2.64469 1.76537e-16)
(6.48077 2.31439 1.75958e-16)
(6.58425 2.09365 1.75546e-16)
(6.72095 1.95042 1.75482e-16)
(6.88108 1.87157 1.75347e-16)
(7.05664 1.84072 1.75319e-16)
(7.23658 1.844 1.7538e-16)
(7.4124 1.8721 1.75083e-16)
(7.57911 1.9185 1.74603e-16)
(7.73373 1.97825 1.74569e-16)
(7.87495 2.04738 1.74441e-16)
(8.00286 2.12311 1.7421e-16)
(8.11791 2.20418 1.73955e-16)
(8.21965 2.29029 1.73071e-16)
(8.30714 2.38117 1.72438e-16)
(8.38012 2.47693 1.71931e-16)
(8.43921 2.57847 1.70865e-16)
(8.48595 2.68798 1.70091e-16)
(8.52248 2.80913 1.69223e-16)
(8.55175 2.94733 1.68069e-16)
(8.5774 3.10994 1.67093e-16)
(8.60374 3.30592 1.66297e-16)
(8.63675 3.54466 1.65197e-16)
(8.68507 3.83476 1.63465e-16)
(8.76031 4.18291 1.60592e-16)
(8.87429 4.59165 1.52707e-16)
(9.03521 5.05547 1.38739e-16)
(9.24462 5.55575 1.17064e-16)
(9.49574 6.05881 8.48551e-17)
(9.77364 6.51866 4.06311e-17)
(10.0575 6.88548 -1.39131e-17)
(10.3246 7.11587 -7.90642e-17)
(10.5538 7.18027 -1.49132e-16)
(10.7282 7.06596 -2.16529e-16)
(10.8365 6.77639 -2.79213e-16)
(10.873 6.32746 -3.29994e-16)
(10.8367 5.74296 -3.70004e-16)
(10.7291 5.05027 -4.01263e-16)
(10.5525 4.27764 -4.14567e-16)
(10.3089 3.45378 -4.08972e-16)
(10.0002 2.60764 -3.90449e-16)
(9.62968 1.76743 -3.59417e-16)
(9.20233 0.959704 -3.1357e-16)
(8.72431 0.208544 -2.39573e-16)
(8.21487 -0.464833 -1.26237e-16)
(7.7084 -1.04529 3.5237e-17)
(7.17535 -1.5046 2.7369e-16)
(6.63697 -1.83391 5.77707e-16)
(6.11845 -2.03368 8.88392e-16)
(1.14686 3.91114 1.78761e-16)
(1.09259 2.68542 1.77849e-16)
(1.31358 2.26228 1.77072e-16)
(1.61935 2.01694 1.76871e-16)
(1.95093 1.86619 1.77057e-16)
(2.29141 1.78115 1.77161e-16)
(2.62753 1.74108 1.77543e-16)
(2.9474 1.73386 1.77436e-16)
(3.24341 1.75294 1.76107e-16)
(3.51083 1.79264 1.75376e-16)
(3.74757 1.84762 1.74969e-16)
(3.95451 1.91353 1.74273e-16)
(4.13477 1.98723 1.73994e-16)
(4.29138 2.06791 1.73688e-16)
(4.42641 2.1558 1.72853e-16)
(4.53931 2.25091 1.71944e-16)
(4.63056 2.35285 1.71083e-16)
(4.70156 2.46174 1.70123e-16)
(4.75407 2.57891 1.69414e-16)
(4.78992 2.7071 1.68942e-16)
(4.8119 2.85074 1.68242e-16)
(4.82385 3.01651 1.67471e-16)
(4.82995 3.21239 1.66995e-16)
(4.83638 3.44534 1.66277e-16)
(4.85291 3.72178 1.65298e-16)
(4.89415 4.0472 1.62202e-16)
(4.97775 4.42274 1.56024e-16)
(5.11823 4.84542 1.43522e-16)
(5.32275 5.3029 1.25395e-16)
(5.58954 5.76932 9.64467e-17)
(5.90756 6.20523 5.72399e-17)
(6.25915 6.56518 1.09499e-17)
(6.62306 6.80731 -4.64728e-17)
(6.97685 6.90158 -1.10325e-16)
(7.29939 6.83243 -1.72813e-16)
(7.57336 6.59877 -2.32811e-16)
(7.78655 6.21237 -2.7875e-16)
(7.93126 5.6939 -3.06198e-16)
(8.00278 5.06891 -3.1775e-16)
(7.99819 4.36439 -3.14961e-16)
(7.91603 3.60792 -2.85991e-16)
(7.75645 2.82738 -2.30502e-16)
(7.52166 2.04968 -1.48053e-16)
(7.21648 1.29983 -4.93673e-17)
(6.84814 0.600185 7.04671e-17)
(6.42421 -0.029688 2.14202e-16)
(5.98828 -0.577094 3.87588e-16)
(5.54832 -1.02626 5.96305e-16)
(5.08708 -1.36081 8.31911e-16)
(4.62894 -1.57498 1.09493e-15)
(-5.07412 2.7842 1.65048e-16)
(-4.75779 2.18795 1.64063e-16)
(-4.31448 1.89041 1.64273e-16)
(-3.83899 1.68981 1.63849e-16)
(-3.33888 1.55856 1.63236e-16)
(-2.82449 1.48553 1.63127e-16)
(-2.30312 1.4619 1.62143e-16)
(-1.78677 1.4806 1.60946e-16)
(-1.28863 1.53455 1.60079e-16)
(-0.822186 1.61592 1.59685e-16)
(-0.398312 1.71658 1.59811e-16)
(-0.0240666 1.82933 1.60925e-16)
(0.296917 1.94782 1.61047e-16)
(0.562333 2.06709 1.60153e-16)
(0.772864 2.18449 1.58567e-16)
(0.93254 2.29942 1.58183e-16)
(1.04927 2.41089 1.57194e-16)
(1.13156 2.51809 1.56839e-16)
(1.18539 2.6224 1.56279e-16)
(1.21224 2.73086 1.57345e-16)
(1.2158 2.84805 1.54736e-16)
(1.20161 2.98712 1.52387e-16)
(1.17222 3.15686 1.59227e-16)
(1.13436 3.36314 1.55065e-16)
(1.10275 3.6094 1.59793e-16)
(1.09592 3.89961 1.55685e-16)
(1.13676 4.23362 1.6213e-16)
(1.25008 4.61186 1.4412e-16)
(1.44732 5.02268 1.28799e-16)
(1.73181 5.44331 1.0415e-16)
(2.0889 5.83734 6.8265e-17)
(2.50335 6.16668 4.12273e-17)
(2.95348 6.39502 -1.26885e-17)
(3.41487 6.49637 -4.5692e-17)
(3.862 6.45479 -9.4906e-17)
(4.27362 6.26398 -1.18702e-16)
(4.63438 5.93169 -1.31527e-16)
(4.93244 5.47623 -1.37968e-16)
(5.15831 4.92069 -1.27295e-16)
(5.30475 4.28934 -1.00264e-16)
(5.36774 3.60719 -5.20797e-17)
(5.34594 2.90109 2.20044e-17)
(5.2403 2.19609 1.14657e-16)
(5.05495 1.51518 2.23231e-16)
(4.79628 0.878611 3.45601e-16)
(4.47214 0.30267 4.81402e-16)
(4.089 -0.197434 6.30842e-16)
(3.72108 -0.618503 7.80345e-16)
(3.33469 -0.944896 8.84233e-16)
(2.92688 -1.16859 9.08614e-16)
(-12.5329 2.02923 1.20031e-16)
(-12.1893 1.74258 1.17439e-16)
(-11.9213 1.49934 1.15058e-16)
(-11.6286 1.29847 1.11775e-16)
(-11.2924 1.14123 1.08824e-16)
(-10.8957 1.03122 1.066e-16)
(-10.4307 0.96903 1.04164e-16)
(-9.89679 0.954089 1.02281e-16)
(-9.30022 0.984302 1.01204e-16)
(-8.65313 1.05618 1.00263e-16)
(-7.97266 1.16466 1.00439e-16)
(-7.27968 1.30321 1.01532e-16)
(-6.59745 1.46398 1.02015e-16)
(-5.94977 1.63828 1.02306e-16)
(-5.35759 1.81786 1.02574e-16)
(-4.83633 1.99539 1.02407e-16)
(-4.39476 2.16461 1.02015e-16)
(-4.03559 2.32143 1.01604e-16)
(-3.75763 2.46556 1.01004e-16)
(-3.55248 2.60255 1.006e-16)
(-3.40932 2.7409 1.00841e-16)
(-3.31523 2.89187 1.04319e-16)
(-3.25834 3.06467 1.11153e-16)
(-3.22176 3.26629 1.15657e-16)
(-3.18316 3.50019 1.29153e-16)
(-3.11839 3.76822 1.32598e-16)
(-3.00359 4.0702 1.42804e-16)
(-2.81567 4.40272 1.33743e-16)
(-2.54474 4.75415 1.26644e-16)
(-2.18605 5.10621 1.15797e-16)
(-1.75076 5.43186 8.08291e-17)
(-1.24813 5.70371 6.28754e-17)
(-0.69725 5.89306 1.6345e-17)
(-0.123964 5.97656 -5.54221e-18)
(0.480049 5.93683 -4.65523e-17)
(1.02343 5.76653 -6.13219e-17)
(1.514 5.47623 -5.9794e-17)
(1.94773 5.08003 -6.24264e-17)
(2.31012 4.59731 -4.72623e-17)
(2.58958 4.04832 -1.233e-17)
(2.78159 3.45175 2.05933e-17)
(2.88525 2.83049 7.77963e-17)
(2.89886 2.20786 1.55522e-16)
(2.82474 1.60519 2.27217e-16)
(2.66722 1.04065 2.82729e-16)
(2.4316 0.528801 3.11408e-16)
(2.12284 0.0808011 2.95238e-16)
(1.73749 -0.2908 1.87242e-16)
(1.39748 -0.594462 -9.753e-18)
(0.988214 -0.826623 -5.73192e-16)
(-18.8719 1.69606 8.93705e-18)
(-18.5668 1.51033 -4.64662e-18)
(-18.3761 1.29212 -1.85595e-17)
(-18.1888 1.07784 -3.22329e-17)
(-17.9884 0.883649 -4.38282e-17)
(-17.7552 0.719123 -5.2451e-17)
(-17.4748 0.590445 -5.81667e-17)
(-17.1363 0.501868 -6.0026e-17)
(-16.7327 0.456172 -5.78582e-17)
(-16.2604 0.454696 -5.20942e-17)
(-15.7199 0.4974 -4.2391e-17)
(-15.1163 0.582678 -2.94405e-17)
(-14.46 0.706884 -1.48223e-17)
(-13.766 0.864384 7.7554e-19)
(-13.0526 1.04833 1.64235e-17)
(-12.3398 1.25132 3.13653e-17)
(-11.6475 1.46584 4.51014e-17)
(-10.9932 1.68505 5.77004e-17)
(-10.3907 1.90368 6.86905e-17)
(-9.849 2.11915 7.85147e-17)
(-9.37051 2.33201 8.79865e-17)
(-8.95301 2.54556 9.78314e-17)
(-8.58936 2.76496 1.08459e-16)
(-8.26695 2.996 1.18684e-16)
(-7.96767 3.24317 1.30953e-16)
(-7.66944 3.50869 1.41225e-16)
(-7.34894 3.79219 1.50199e-16)
(-6.98427 4.09002 1.46727e-16)
(-6.55999 4.39315 1.42532e-16)
(-6.06603 4.68798 1.29461e-16)
(-5.50354 4.95498 8.78173e-17)
(-4.87782 5.17305 4.47007e-17)
(-4.20487 5.31949 -2.29856e-18)
(-3.50744 5.37484 -5.39929e-17)
(-2.8044 5.32357 -1.07425e-16)
(-2.14829 5.1643 -1.37999e-16)
(-1.53769 4.90846 -1.52609e-16)
(-0.979425 4.56292 -1.71978e-16)
(-0.493715 4.14014 -1.7476e-16)
(-0.0833802 3.64114 -1.41951e-16)
(0.225569 3.10232 -1.06757e-16)
(0.434978 2.57186 -5.76554e-17)
(0.549778 2.0411 -1.28453e-17)
(0.567383 1.52654 3.81054e-18)
(0.486659 1.04311 -9.77513e-17)
(0.305519 0.603549 -3.36221e-16)
(0.0142125 0.217693 -8.31031e-16)
(-0.420173 -0.108008 -1.81819e-15)
(-1.11256 -0.35757 -3.88316e-15)
(-1.91571 -0.554995 -7.41681e-15)
(-22.9926 1.44724 -1.60525e-17)
(-22.6689 1.3015 -1.61037e-17)
(-22.4674 1.11043 -1.42667e-17)
(-22.2873 0.906546 -1.07833e-17)
(-22.1257 0.707719 -4.45115e-18)
(-21.9692 0.525443 4.5056e-18)
(-21.8055 0.367442 1.47398e-17)
(-21.6235 0.238909 2.6289e-17)
(-21.4131 0.143569 3.86811e-17)
(-21.1651 0.084083 5.09804e-17)
(-20.8714 0.0622877 6.38738e-17)
(-20.5242 0.0790608 7.70979e-17)
(-20.1127 0.134955 8.9561e-17)
(-19.6358 0.229878 1.01553e-16)
(-19.1 0.362475 1.12868e-16)
(-18.5192 0.529036 1.2273e-16)
(-17.9019 0.724938 1.3232e-16)
(-17.2577 0.944563 1.41137e-16)
(-16.5979 1.18213 1.47865e-16)
(-15.9354 1.43221 1.52746e-16)
(-15.2821 1.69023 1.55674e-16)
(-14.6473 1.95299 1.5638e-16)
(-14.0358 2.21881 1.54726e-16)
(-13.4474 2.48769 1.51076e-16)
(-12.8766 2.76056 1.45251e-16)
(-12.3128 3.03785 1.38307e-16)
(-11.7422 3.31838 1.28683e-16)
(-11.1494 3.59856 1.1341e-16)
(-10.5207 3.87135 9.29782e-17)
(-9.84616 4.12614 6.38448e-17)
(-9.12248 4.3485 1.58011e-17)
(-8.35294 4.52239 -3.90524e-17)
(-7.54937 4.63121 -1.05025e-16)
(-6.72962 4.66174 -1.86283e-16)
(-5.91607 4.60777 -2.42169e-16)
(-5.13507 4.46759 -2.85142e-16)
(-4.39711 4.24597 -3.18175e-16)
(-3.71752 3.94539 -3.41895e-16)
(-3.11623 3.57452 -3.52737e-16)
(-2.60806 3.1454 -3.34636e-16)
(-2.21145 2.69098 -3.17054e-16)
(-1.91473 2.24616 -3.08837e-16)
(-1.72468 1.80273 -3.53689e-16)
(-1.65666 1.3741 -5.36272e-16)
(-1.72722 0.9777 -1.02886e-15)
(-1.94922 0.63844 -1.9681e-15)
(-2.2936 0.393042 -3.30093e-15)
(-2.64789 0.268299 -4.45833e-15)
(-2.89233 0.233903 -4.57121e-15)
(-2.99876 0.228856 -3.42593e-15)
(-25.4727 1.18125 6.60764e-17)
(-25.1005 1.0691 7.75553e-17)
(-24.869 0.920216 8.95685e-17)
(-24.6684 0.75623 1.0089e-16)
(-24.5059 0.590786 1.11805e-16)
(-24.374 0.433745 1.21372e-16)
(-24.2645 0.291562 1.28064e-16)
(-24.1685 0.168424 1.318e-16)
(-24.0766 0.0670676 1.32225e-16)
(-23.9793 -0.0106843 1.2883e-16)
(-23.8674 -0.0635746 1.22894e-16)
(-23.7279 -0.0902916 1.13153e-16)
(-23.5564 -0.0894584 9.90266e-17)
(-23.3431 -0.0589189 8.15881e-17)
(-23.0779 0.00351939 6.2006e-17)
(-22.7491 0.0996544 4.17656e-17)
(-22.3567 0.229301 2.25869e-17)
(-21.9065 0.39028 5.39152e-18)
(-21.4082 0.57829 -9.21123e-18)
(-20.8597 0.79011 -2.23825e-17)
(-20.2661 1.02182 -3.46495e-17)
(-19.6335 1.26951 -4.65072e-17)
(-18.9687 1.52923 -5.83525e-17)
(-18.2773 1.79717 -7.03113e-17)
(-17.5625 2.06986 -8.27989e-17)
(-16.825 2.34403 -9.62342e-17)
(-16.0625 2.61592 -1.10697e-16)
(-15.2711 2.88074 -1.28478e-16)
(-14.4464 3.13183 -1.49691e-16)
(-13.5854 3.36034 -1.76793e-16)
(-12.6884 3.55544 -2.12886e-16)
(-11.7604 3.70563 -2.56066e-16)
(-10.8114 3.80003 -3.06741e-16)
(-9.8563 3.83036 -3.64253e-16)
(-8.91286 3.79221 -4.14252e-16)
(-8.00041 3.68429 -4.65909e-16)
(-7.13549 3.50832 -5.00886e-16)
(-6.337 3.2682 -5.28388e-16)
(-5.62353 2.9741 -5.45231e-16)
(-5.00931 2.64386 -5.56658e-16)
(-4.50355 2.30152 -5.86237e-16)
(-4.10432 1.96651 -6.54316e-16)
(-3.81775 1.6452 -7.99364e-16)
(-3.6459 1.35473 -1.06187e-15)
(-3.57779 1.11287 -1.46469e-15)
(-3.58772 0.931672 -1.94956e-15)
(-3.63379 0.811353 -2.38591e-15)
(-3.67394 0.733108 -2.60067e-15)
(-3.69577 0.663043 -2.47392e-15)
(-3.71229 0.574841 -1.99075e-15)
(-26.9507 0.850435 4.78492e-16)
(-26.5259 0.763983 5.19472e-16)
(-26.2657 0.650097 5.60421e-16)
(-26.0414 0.52365 5.99203e-16)
(-25.8655 0.394392 6.34576e-16)
(-25.7343 0.270091 6.6462e-16)
(-25.6427 0.15605 6.86998e-16)
(-25.5837 0.0557195 7.00401e-16)
(-25.5493 -0.0288222 7.03659e-16)
(-25.5311 -0.0964962 6.95698e-16)
(-25.5203 -0.146767 6.77261e-16)
(-25.511 -0.17945 6.49871e-16)
(-25.495 -0.193561 6.13589e-16)
(-25.4628 -0.188029 5.69593e-16)
(-25.4046 -0.161597 5.18667e-16)
(-25.3103 -0.112833 4.61424e-16)
(-25.1693 -0.0403971 3.99713e-16)
(-24.9712 0.056633 3.35117e-16)
(-24.7053 0.178671 2.68886e-16)
(-24.3759 0.323602 2.0441e-16)
(-23.98 0.489317 1.4319e-16)
(-23.5143 0.673709 8.5732e-17)
(-22.9776 0.874528 3.22163e-17)
(-22.3705 1.08888 -1.70657e-17)
(-21.6947 1.31306 -6.21074e-17)
(-20.9524 1.54278 -1.03132e-16)
(-20.1462 1.77311 -1.39786e-16)
(-19.279 1.99837 -1.73921e-16)
(-18.3546 2.21203 -2.06164e-16)
(-17.3782 2.40661 -2.36211e-16)
(-16.357 2.57393 -2.65594e-16)
(-15.3011 2.70587 -2.94446e-16)
(-14.2239 2.79522 -3.22274e-16)
(-13.1414 2.83653 -3.49279e-16)
(-12.0714 2.82686 -3.72857e-16)
(-11.0331 2.76571 -3.90677e-16)
(-10.0454 2.65566 -3.94921e-16)
(-9.12679 2.50255 -3.79392e-16)
(-8.29384 2.31615 -3.44522e-16)
(-7.55857 2.10923 -2.97945e-16)
(-6.92721 1.8961 -2.54784e-16)
(-6.39961 1.68857 -2.24244e-16)
(-5.97382 1.49383 -2.22948e-16)
(-5.64129 1.31885 -2.63242e-16)
(-5.38573 1.16613 -3.4771e-16)
(-5.18679 1.0321 -4.68175e-16)
(-5.02498 0.90883 -5.95425e-16)
(-4.88971 0.787374 -7.02377e-16)
(-4.78067 0.660861 -7.21676e-16)
(-4.69918 0.525792 -5.90537e-16)
(-27.8497 0.515543 5.62437e-16)
(-27.3912 0.464581 5.92281e-16)
(-27.1127 0.394897 6.21902e-16)
(-26.8708 0.316936 6.5028e-16)
(-26.6816 0.236858 6.77443e-16)
(-26.5437 0.159522 7.02896e-16)
(-26.4541 0.0883371 7.25533e-16)
(-26.4076 0.025407 7.45329e-16)
(-26.3979 -0.028201 7.62073e-16)
(-26.4178 -0.0720887 7.7562e-16)
(-26.46 -0.106171 7.85875e-16)
(-26.5186 -0.130367 7.92201e-16)
(-26.5857 -0.144419 7.94265e-16)
(-26.6526 -0.147988 7.92024e-16)
(-26.7107 -0.140594 7.85386e-16)
(-26.7508 -0.121582 7.74033e-16)
(-26.7634 -0.0902546 7.58859e-16)
(-26.739 -0.0459243 7.40023e-16)
(-26.6675 0.0122125 7.16897e-16)
(-26.538 0.0849295 6.90132e-16)
(-26.3437 0.172109 6.60869e-16)
(-26.0788 0.272932 6.2992e-16)
(-25.7364 0.386485 5.97375e-16)
(-25.3105 0.511578 5.63529e-16)
(-24.7969 0.646402 5.29168e-16)
(-24.1929 0.788416 4.95121e-16)
(-23.4979 0.934398 4.62757e-16)
(-22.7133 1.08042 4.3202e-16)
(-21.8435 1.22192 4.03591e-16)
(-20.8955 1.35383 3.79086e-16)
(-19.8795 1.47081 3.58502e-16)
(-18.8087 1.56765 3.42183e-16)
(-17.6991 1.63989 3.30678e-16)
(-16.5689 1.68418 3.23636e-16)
(-15.4379 1.69876 3.21614e-16)
(-14.326 1.68362 3.2754e-16)
(-13.2524 1.64069 3.44848e-16)
(-12.2348 1.57375 3.78284e-16)