/*--------------------------------*- C++ -*----------------------------------*\
  =========                 |
  \\      /  F ield         | OpenFOAM: The Open Source CFD Toolbox
   \\    /   O peration     | Website:  https://openfoam.org
    \\  /    A nd           | Version:  8
     \\/     M anipulation  |
\*---------------------------------------------------------------------------*/
FoamFile
{
    version     2.0;
    format      ascii;
    class       volScalarField;
    location    "300";
    object      alphat;
}
// * * * * * * * * * * * * * * * * * * * * * * * * * * * * * * * * * * * * * //

dimensions      [1 -1 -1 0 0 0 0];

internalField   nonuniform List<scalar> 
8400
(
0.36474
0.358402
0.352141
0.345969
0.339882
0.333876
0.327944
0.322163
0.316518
0.311009
0.305638
0.300405
0.295308
0.290346
0.285517
0.28082
0.276251
0.271807
0.267483
0.263277
0.259184
0.255198
0.251316
0.247532
0.243841
0.240239
0.23672
0.23328
0.229913
0.226614
0.22338
0.220205
0.217086
0.214018
0.211022
0.208165
0.20545
0.202855
0.200365
0.197958
0.195617
0.193328
0.191075
0.188852
0.18665
0.184468
0.182307
0.180173
0.178077
0.176036
0.11968
0.11854
0.117509
0.116579
0.115743
0.114993
0.11432
0.113477
0.112545
0.111493
0.110312
0.108998
0.107547
0.105962
0.104246
0.102406
0.100453
0.0984016
0.0962741
0.0940953
0.0918946
0.0897042
0.0875588
0.0854954
0.0835513
0.0817627
0.0801634
0.0787847
0.0776536
0.0767908
0.0762091
0.0759129
0.0758986
0.0761575
0.0766137
0.0770347
0.0773839
0.0776838
0.0779425
0.0781717
0.0783825
0.0785816
0.078774
0.0789616
0.0791448
0.0793238
0.0794987
0.0796702
0.0798399
0.0800108
0.0756724
0.0753869
0.0751452
0.0749446
0.0747808
0.0746486
0.0745426
0.074457
0.0743002
0.0741204
0.0739066
0.0736566
0.0733698
0.0730481
0.0726944
0.0723135
0.0719126
0.0715001
0.0710866
0.0706831
0.070301
0.0699513
0.0696439
0.0693865
0.0691847
0.0690406
0.0689538
0.068921
0.0689368
0.0689937
0.0690835
0.0691979
0.069332
0.0694923
0.0696553
0.0698128
0.0699683
0.07012
0.0702677
0.0704104
0.0705477
0.0706788
0.070803
0.0709198
0.0710285
0.0711296
0.0712237
0.0713115
0.0713951
0.0714772
0.0646236
0.0646144
0.0646244
0.0646491
0.0646848
0.0647282
0.0647759
0.064825
0.0648608
0.0648725
0.0648714
0.0648551
0.0648231
0.0647753
0.0647126
0.0646364
0.0645486
0.0644522
0.0643501
0.0642458
0.0641428
0.0640447
0.0639545
0.0638752
0.0638088
0.063757
0.0637207
0.0637006
0.0636968
0.0637091
0.0637368
0.0637894
0.0638796
0.0639878
0.0641052
0.0642312
0.0643618
0.0644947
0.0646272
0.0647577
0.0648845
0.0650066
0.0651226
0.0652321
0.0653347
0.0654306
0.0655202
0.0656045
0.0656853
0.0657649
0.0599374
0.0600068
0.0600811
0.0601578
0.0602343
0.060308
0.0603768
0.0604385
0.0604914
0.0605167
0.0605309
0.0605308
0.0605149
0.0604823
0.0604327
0.0603667
0.0602849
0.0601886
0.0600796
0.0599602
0.0598333
0.0597024
0.0595711
0.0594434
0.0593232
0.0592148
0.0591219
0.0590482
0.0589964
0.058976
0.059012
0.0590965
0.0592015
0.0593206
0.0594497
0.059585
0.0597234
0.0598621
0.0599991
0.0601328
0.0602621
0.0603862
0.060504
0.0606155
0.0607204
0.060819
0.0609118
0.0609997
0.061084
0.0611672
0.0567457
0.0568373
0.0569292
0.0570173
0.0570985
0.0571706
0.0572315
0.0572795
0.0573135
0.0573272
0.0573165
0.0572897
0.0572439
0.0571779
0.0570912
0.0569842
0.0568577
0.056713
0.0565526
0.0563797
0.0561985
0.056014
0.0558319
0.0556583
0.0554997
0.0553625
0.0552526
0.0551797
0.0551794
0.0552525
0.0553598
0.0554888
0.0556354
0.0557926
0.0559558
0.056121
0.0562853
0.0564463
0.0566026
0.056753
0.0568972
0.0570346
0.0571647
0.0572875
0.0574032
0.0575121
0.0576148
0.0577125
0.0578058
0.0578968
0.0541062
0.0542173
0.0543227
0.0544177
0.0544988
0.0545639
0.0546111
0.0546397
0.0546483
0.0546366
0.0545865
0.054518
0.0544261
0.0543089
0.0541661
0.0539979
0.0538053
0.0535905
0.0533571
0.0531103
0.0528568
0.0526046
0.0523631
0.0521423
0.051953
0.0518186
0.0517877
0.0518684
0.0520047
0.0521736
0.0523695
0.0525812
0.0528022
0.0530262
0.0532492
0.0534677
0.0536795
0.053883
0.0540773
0.0542622
0.0544374
0.0546026
0.0547576
0.0549028
0.0550383
0.0551648
0.055283
0.0553941
0.0554991
0.0555989
0.0515379
0.0516356
0.0517403
0.0518389
0.0519218
0.0519831
0.0520187
0.0520269
0.0520068
0.0519579
0.0518769
0.0517447
0.0515876
0.0514002
0.0511808
0.0509301
0.0506507
0.0503475
0.0500284
0.0497044
0.0493897
0.0491014
0.0488585
0.0487003
0.0486771
0.048785
0.0489539
0.049156
0.0493862
0.049633
0.0498905
0.0501533
0.0504183
0.0506833
0.0509463
0.0512056
0.0514596
0.0517069
0.0519467
0.0521779
0.052399
0.0526084
0.0528049
0.0529881
0.0531583
0.0533145
0.0534577
0.053588
0.0537076
0.0538171
0.0495355
0.0493367
0.0492226
0.0491775
0.0491764
0.0491953
0.0492159
0.0492222
0.0492045
0.0491573
0.0490795
0.0489565
0.0487823
0.0485832
0.0483606
0.0481212
0.0478764
0.0476424
0.0474415
0.0473021
0.0472564
0.0473198
0.04749
0.0477188
0.0479377
0.0481287
0.0482993
0.0484495
0.048584
0.0487058
0.0488183
0.0489254
0.0490309
0.049139
0.0492533
0.0493768
0.0495119
0.0496602
0.0498227
0.0499986
0.0501853
0.0503797
0.0505785
0.0507779
0.0509736
0.051161
0.0513356
0.0514941
0.0516352
0.051758
0.0516101
0.0505008
0.0495231
0.048724
0.0481017
0.0476476
0.0473517
0.0471992
0.0471704
0.0472438
0.0473981
0.0476162
0.0478652
0.0481271
0.0484219
0.0487779
0.0492203
0.0497479
0.050317
0.0508489
0.0512672
0.0515398
0.0517026
0.0518112
0.0518905
0.0519477
0.0519759
0.0519655
0.0519099
0.0518075
0.0516611
0.0514762
0.0512585
0.0510149
0.050753
0.0504806
0.050205
0.0499332
0.0496716
0.049425
0.0491976
0.0489941
0.0488186
0.0486753
0.0485619
0.0484794
0.0484242
0.0483943
0.048385
0.0483915
0.0588131
0.0578873
0.0570076
0.0561526
0.05532
0.05453
0.0538068
0.0531844
0.0527067
0.0524099
0.0523325
0.0524971
0.0529044
0.0535215
0.0542781
0.0550432
0.0556799
0.0561293
0.0564296
0.0566599
0.0568101
0.056872
0.0568542
0.0567871
0.0567031
0.0566091
0.0565049
0.0563853
0.0562541
0.0561163
0.0559751
0.0558272
0.0556655
0.0554868
0.0552918
0.0550807
0.0548507
0.0545976
0.0543202
0.0540163
0.053682
0.0533166
0.0529167
0.052476
0.0519784
0.0514173
0.0507995
0.0501366
0.049478
0.0488889
0.0610706
0.0608789
0.060698
0.0605231
0.0603576
0.0601939
0.0600294
0.0598568
0.0596838
0.0595126
0.0593448
0.0591844
0.0590283
0.058877
0.0587317
0.0585934
0.0584638
0.0583445
0.0582346
0.0581331
0.0580408
0.0579581
0.0578848
0.0578228
0.057772
0.05773
0.0576935
0.0576592
0.0576269
0.0575987
0.0575733
0.0575452
0.0575095
0.0574673
0.0574229
0.0573771
0.0573258
0.0572643
0.0571932
0.0571142
0.0570342
0.0569545
0.0568774
0.056801
0.0567209
0.0566238
0.0565126
0.0563678
0.0561729
0.055913
0.0611665
0.0610867
0.0610086
0.0609309
0.0608545
0.0607781
0.0607005
0.0606221
0.0605438
0.0604663
0.0603893
0.0603135
0.0602385
0.0601632
0.0600879
0.0600137
0.0599406
0.0598683
0.0597967
0.0597262
0.0596566
0.0595883
0.0595216
0.0594568
0.0593935
0.0593312
0.0592695
0.0592088
0.0591497
0.0590927
0.059037
0.0589811
0.0589245
0.0588685
0.0588136
0.0587584
0.0587014
0.0586422
0.0585818
0.0585209
0.0584596
0.0583993
0.0583379
0.0582747
0.0582088
0.0581378
0.0580585
0.0579695
0.0578694
0.057767
0.0611919
0.0611451
0.0610981
0.0610518
0.0610054
0.0609587
0.060911
0.0608627
0.0608142
0.060766
0.060718
0.0606699
0.0606213
0.0605726
0.0605242
0.0604763
0.0604289
0.0603817
0.0603345
0.0602873
0.0602402
0.0601934
0.0601469
0.0601007
0.0600549
0.0600091
0.0599631
0.0599173
0.0598719
0.0598268
0.0597818
0.0597365
0.0596912
0.0596465
0.0596021
0.0595573
0.0595115
0.059465
0.0594177
0.0593708
0.0593231
0.0592751
0.0592259
0.0591755
0.0591232
0.059069
0.0590117
0.0589519
0.058892
0.0588256
0.0612052
0.0611729
0.0611404
0.0611079
0.0610753
0.061042
0.0610082
0.060974
0.0609397
0.0609056
0.0608714
0.060837
0.0608022
0.0607673
0.0607325
0.0606979
0.0606633
0.0606286
0.0605937
0.0605588
0.0605237
0.0604886
0.0604535
0.0604185
0.0603835
0.0603484
0.0603131
0.0602779
0.0602428
0.0602076
0.0601723
0.0601369
0.0601017
0.0600668
0.0600318
0.0599961
0.0599599
0.0599235
0.0598871
0.0598505
0.0598133
0.0597752
0.0597362
0.0596964
0.0596558
0.0596143
0.0595727
0.0595296
0.0594842
0.0594359
0.0612107
0.0611845
0.0611583
0.0611322
0.0611059
0.0610792
0.0610522
0.061025
0.0609977
0.0609704
0.0609432
0.0609158
0.0608882
0.0608606
0.0608331
0.0608058
0.0607786
0.0607514
0.0607242
0.0606969
0.0606697
0.0606426
0.0606155
0.0605883
0.0605612
0.0605339
0.0605067
0.0604795
0.0604522
0.0604248
0.0603974
0.0603701
0.060343
0.0603159
0.0602883
0.0602603
0.0602321
0.0602037
0.0601752
0.0601462
0.0601166
0.0600863
0.0600554
0.0600243
0.0599931
0.0599614
0.0599288
0.0598955
0.0598606
0.0598239
0.0612175
0.0611985
0.0611794
0.0611603
0.0611411
0.0611216
0.061102
0.0610823
0.0610627
0.061043
0.0610233
0.0610035
0.0609835
0.0609634
0.0609433
0.0609232
0.0609031
0.0608828
0.0608624
0.060842
0.0608215
0.0608009
0.0607801
0.0607593
0.0607383
0.0607173
0.0606963
0.0606752
0.0606539
0.0606326
0.0606112
0.0605899
0.0605686
0.060547
0.0605253
0.0605035
0.0604817
0.0604598
0.0604378
0.0604154
0.0603929
0.0603703
0.0603476
0.0603245
0.0603009
0.0602768
0.0602521
0.0602269
0.0602007
0.0601732
0.0612172
0.061198
0.0611787
0.0611593
0.0611397
0.06112
0.0611001
0.0610803
0.0610606
0.0610408
0.0610211
0.0610012
0.0609811
0.060961
0.0609409
0.0609208
0.0609006
0.0608802
0.0608599
0.0608396
0.0608192
0.0607987
0.0607782
0.0607575
0.0607368
0.0607162
0.0606955
0.0606747
0.0606538
0.0606328
0.0606119
0.0605911
0.0605701
0.060549
0.0605279
0.0605069
0.0604858
0.0604646
0.0604431
0.0604215
0.0603999
0.0603782
0.0603565
0.0603347
0.0603129
0.0602912
0.0602695
0.0602477
0.0602258
0.0602038
0.0612239
0.0612137
0.061202
0.0611902
0.0611784
0.0611665
0.0611544
0.0611424
0.0611304
0.0611184
0.0611063
0.0610943
0.0610822
0.0610702
0.0610584
0.0610465
0.0610347
0.061023
0.0610114
0.0609999
0.0609884
0.060977
0.0609656
0.0609543
0.0609431
0.0609321
0.0609211
0.06091
0.060899
0.0608881
0.0608773
0.0608665
0.0608558
0.0608451
0.0608345
0.0608238
0.0608131
0.0608024
0.0607916
0.0607807
0.0607698
0.0607588
0.0607476
0.0607363
0.0607247
0.060713
0.060701
0.0606886
0.0606755
0.0606615
0.0620006
0.0628063
0.0636192
0.0644265
0.0652201
0.0659959
0.0667552
0.0675028
0.0682452
0.068989
0.0697401
0.0705032
0.0712817
0.0720776
0.0728917
0.0737241
0.0745744
0.0754416
0.076324
0.07722
0.0781273
0.0790441
0.0799686
0.0808993
0.0818347
0.0827733
0.0837139
0.0846551
0.0855959
0.086535
0.0874712
0.0884031
0.0893297
0.0902496
0.0911616
0.0920639
0.0929551
0.0938331
0.0946962
0.0955421
0.0963684
0.0971718
0.0979487
0.0986949
0.0994045
0.100071
0.100687
0.10124
0.101718
0.102118
0.27115
0.267803
0.264601
0.261533
0.258579
0.255723
0.252948
0.250249
0.247622
0.245063
0.242569
0.24014
0.237773
0.235466
0.233219
0.231029
0.228896
0.226817
0.224791
0.222815
0.220886
0.219003
0.217163
0.215365
0.213608
0.211891
0.210214
0.208579
0.206984
0.20543
0.203914
0.202434
0.200987
0.199573
0.198188
0.196832
0.195505
0.194207
0.192939
0.191695
0.190474
0.189275
0.188096
0.186933
0.185782
0.184638
0.183495
0.182341
0.181158
0.179907
0.269202
0.263026
0.257139
0.25151
0.246127
0.240981
0.236063
0.231357
0.226851
0.222531
0.218387
0.214409
0.210588
0.206916
0.203386
0.19999
0.196719
0.193567
0.190525
0.187587
0.184745
0.181995
0.179332
0.176752
0.174253
0.171834
0.169493
0.167228
0.165035
0.16291
0.160846
0.158839
0.156882
0.154972
0.153105
0.151282
0.149499
0.147756
0.146053
0.144396
0.142782
0.141212
0.139682
0.138191
0.136734
0.135311
0.133918
0.132551
0.131209
0.129888
0.269195
0.262999
0.257072
0.251406
0.245982
0.240787
0.235808
0.231029
0.226439
0.222026
0.217782
0.213697
0.209763
0.205973
0.20232
0.198796
0.195395
0.192109
0.188932
0.185857
0.182879
0.179993
0.177194
0.174479
0.171846
0.169292
0.166817
0.164418
0.162092
0.159834
0.15764
0.155506
0.153427
0.1514
0.149423
0.147496
0.145617
0.143787
0.142003
0.140267
0.138577
0.136932
0.135331
0.13377
0.132248
0.130764
0.129316
0.127904
0.126524
0.125177
0.269195
0.263045
0.257172
0.251557
0.24618
0.241025
0.236076
0.231321
0.226748
0.222348
0.218112
0.214031
0.210099
0.206308
0.202651
0.199122
0.195714
0.192419
0.189231
0.186145
0.183155
0.180256
0.177444
0.174716
0.17207
0.169504
0.167016
0.164603
0.162263
0.159991
0.157784
0.155635
0.153543
0.151503
0.149514
0.147574
0.145683
0.14384
0.142045
0.140296
0.138595
0.136938
0.135323
0.13375
0.132215
0.130719
0.129259
0.127835
0.126446
0.125087
0.269195
0.263048
0.257173
0.251551
0.246165
0.240998
0.236039
0.231275
0.226695
0.222289
0.218049
0.213968
0.210036
0.206247
0.202593
0.199067
0.195662
0.19237
0.189187
0.186104
0.183118
0.180223
0.177416
0.174693
0.172053
0.169492
0.167009
0.164602
0.162266
0.159999
0.157795
0.15565
0.15356
0.151524
0.149538
0.147601
0.145713
0.143873
0.142081
0.140335
0.138635
0.13698
0.135366
0.133793
0.132258
0.13076
0.129297
0.12787
0.126479
0.125119
0.269195
0.263053
0.257186
0.251573
0.246197
0.241041
0.236093
0.231339
0.226769
0.222373
0.218143
0.21407
0.210146
0.206364
0.202716
0.199194
0.195791
0.192501
0.189317
0.186234
0.183248
0.180352
0.177545
0.174822
0.172181
0.16962
0.167136
0.164727
0.16239
0.16012
0.157913
0.155765
0.153673
0.151633
0.149645
0.147706
0.145815
0.143973
0.142178
0.140429
0.138726
0.137067
0.135448
0.13387
0.132329
0.130824
0.129355
0.12792
0.12652
0.125152
0.269196
0.263057
0.257192
0.251579
0.246201
0.241043
0.23609
0.231332
0.226759
0.22236
0.218127
0.214053
0.210128
0.206344
0.202694
0.19917
0.195765
0.192472
0.189286
0.186201
0.183213
0.180318
0.17751
0.174788
0.172149
0.169589
0.167107
0.1647
0.162363
0.160093
0.157886
0.155738
0.153646
0.151608
0.14962
0.147683
0.145794
0.143953
0.14216
0.140412
0.138709
0.13705
0.13543
0.13385
0.132307
0.1308
0.129329
0.127891
0.126487
0.125115
0.269197
0.263062
0.257198
0.251586
0.246207
0.241048
0.236097
0.23134
0.226769
0.222375
0.218147
0.214077
0.210157
0.206378
0.202731
0.199209
0.195805
0.192513
0.189328
0.186243
0.183256
0.180362
0.177556
0.174836
0.172198
0.16964
0.167159
0.164751
0.162413
0.160141
0.157932
0.155783
0.153689
0.15165
0.149662
0.147724
0.145834
0.143993
0.142198
0.140448
0.138743
0.13708
0.135457
0.133871
0.132323
0.13081
0.129333
0.127889
0.126478
0.1251
0.269199
0.263067
0.257203
0.251589
0.246209
0.241048
0.236094
0.231337
0.226766
0.222372
0.218145
0.214076
0.210157
0.206377
0.202729
0.199205
0.195799
0.192504
0.189316
0.18623
0.183242
0.180347
0.177542
0.174823
0.172186
0.169628
0.167146
0.164737
0.162398
0.160124
0.157914
0.155763
0.15367
0.15163
0.149643
0.147706
0.145817
0.143976
0.142181
0.140431
0.138724
0.137059
0.135433
0.133845
0.132294
0.130777
0.129296
0.127848
0.126434
0.125051
0.2692
0.263071
0.257208
0.251592
0.246209
0.241046
0.236091
0.231334
0.226764
0.222372
0.218148
0.214082
0.210165
0.206387
0.202739
0.199214
0.195806
0.192511
0.189322
0.186236
0.183249
0.180356
0.177553
0.174836
0.1722
0.169643
0.167161
0.16475
0.162409
0.160134
0.157922
0.155771
0.153677
0.151637
0.14965
0.147714
0.145825
0.143983
0.142187
0.140435
0.138726
0.137058
0.135429
0.133838
0.132282
0.130761
0.129275
0.127822
0.126403
0.125014
0.269202
0.263075
0.257211
0.251593
0.246207
0.241042
0.236087
0.23133
0.226761
0.222371
0.218149
0.214085
0.210168
0.20639
0.202741
0.199214
0.195805
0.192507
0.189318
0.186232
0.183246
0.180355
0.177554
0.174838
0.172203
0.169645
0.167162
0.16475
0.162406
0.160129
0.157916
0.155764
0.15367
0.151631
0.149644
0.147708
0.145819
0.143976
0.142179
0.140425
0.138714
0.137043
0.135411
0.133817
0.132257
0.130733
0.129242
0.127785
0.126361
0.124968
0.269203
0.263078
0.257213
0.251593
0.246205
0.241038
0.236081
0.231324
0.226757
0.222368
0.218147
0.214084
0.210166
0.206386
0.202735
0.199206
0.195794
0.192494
0.189304
0.186218
0.183233
0.180343
0.177543
0.174828
0.172193
0.169635
0.16715
0.164735
0.16239
0.160111
0.157897
0.155745
0.153651
0.151613
0.149627
0.14769
0.145801
0.143958
0.142159
0.140404
0.138691
0.137019
0.135384
0.133787
0.132225
0.130698
0.129204
0.127743
0.126315
0.124917
0.269204
0.26308
0.257214
0.251591
0.246201
0.241032
0.236075
0.23132
0.226754
0.222368
0.21815
0.214088
0.210171
0.206391
0.202739
0.199209
0.195797
0.192498
0.189309
0.186226
0.183243
0.180356
0.177558
0.174844
0.172209
0.16965
0.167163
0.164747
0.162399
0.16012
0.157905
0.155752
0.153659
0.15162
0.149634
0.147696
0.145806
0.14396
0.14216
0.140402
0.138686
0.137011
0.135374
0.133774
0.132208
0.130677
0.129179
0.127713
0.126278
0.124875
0.269205
0.263081
0.257213
0.251587
0.246193
0.241022
0.236063
0.231305
0.226739
0.222351
0.218131
0.214066
0.210145
0.20636
0.202704
0.19917
0.195754
0.192453
0.189263
0.186179
0.183197
0.180311
0.177513
0.174799
0.172163
0.169602
0.167113
0.164695
0.162346
0.160066
0.157851
0.155699
0.153607
0.151569
0.149583
0.147646
0.145755
0.14391
0.142108
0.140349
0.138633
0.136957
0.13532
0.13372
0.132154
0.130621
0.129121
0.127651
0.126214
0.124806
0.269205
0.263081
0.257211
0.251582
0.246188
0.241017
0.236061
0.231308
0.226746
0.222363
0.218147
0.214084
0.210166
0.206382
0.202726
0.199192
0.195777
0.192478
0.18929
0.186209
0.183229
0.180344
0.177547
0.174833
0.172195
0.169632
0.16714
0.164719
0.162368
0.160086
0.15787
0.155717
0.153623
0.151584
0.149596
0.147656
0.145762
0.143913
0.142108
0.140346
0.138626
0.136947
0.135307
0.133704
0.132135
0.130598
0.129092
0.127616
0.126171
0.124755
0.269206
0.263078
0.257199
0.251561
0.246154
0.240972
0.236005
0.231241
0.22667
0.222279
0.218053
0.213983
0.210056
0.206265
0.202602
0.199064
0.195647
0.192346
0.189158
0.186078
0.1831
0.180216
0.17742
0.174706
0.172068
0.169505
0.167013
0.164593
0.162243
0.159962
0.157748
0.155597
0.153506
0.151469
0.149483
0.147544
0.145651
0.143802
0.141998
0.140237
0.138518
0.136841
0.135203
0.133601
0.132033
0.130496
0.128988
0.127511
0.126063
0.124646
0.269206
0.263076
0.257199
0.251566
0.24617
0.240998
0.236042
0.231288
0.226725
0.222338
0.218116
0.214046
0.210118
0.206324
0.202659
0.199117
0.195697
0.192393
0.189202
0.186119
0.183137
0.180249
0.177448
0.174728
0.172085
0.169515
0.167017
0.164591
0.162236
0.159951
0.157733
0.155579
0.153484
0.151443
0.149452
0.147509
0.145611
0.143758
0.14195
0.140186
0.138466
0.136787
0.135148
0.133546
0.131976
0.130438
0.128931
0.127453
0.126008
0.124595
0.269205
0.26303
0.257098
0.251414
0.245971
0.240761
0.235775
0.230998
0.226417
0.222018
0.217787
0.213711
0.209781
0.205988
0.202326
0.19879
0.195378
0.192084
0.188905
0.185835
0.182866
0.179991
0.177202
0.174495
0.171865
0.169309
0.166825
0.164415
0.162076
0.159808
0.157608
0.155471
0.153394
0.151371
0.149399
0.147474
0.145597
0.143764
0.141979
0.14024
0.138547
0.136898
0.135292
0.133724
0.132194
0.130699
0.129242
0.127823
0.12645
0.125128
0.269213
0.263057
0.257166
0.251519
0.246118
0.240956
0.236031
0.231328
0.226831
0.222524
0.218394
0.214426
0.21061
0.206936
0.203398
0.199991
0.19671
0.193551
0.190509
0.187577
0.184749
0.182016
0.179371
0.176806
0.174319
0.171904
0.169563
0.167295
0.165099
0.162974
0.160918
0.158928
0.156998
0.155124
0.153302
0.151529
0.149803
0.148126
0.146498
0.144922
0.143398
0.141926
0.140504
0.139132
0.137809
0.136536
0.135321
0.134173
0.133112
0.132175
0.271154
0.267816
0.264612
0.261536
0.258576
0.255716
0.252941
0.250244
0.247621
0.245067
0.242577
0.240148
0.23778
0.23547
0.233218
0.231023
0.228886
0.226805
0.224778
0.222803
0.220875
0.218991
0.21715
0.215348
0.213587
0.211866
0.210185
0.208544
0.206944
0.205382
0.203856
0.202363
0.200901
0.199468
0.198061
0.196682
0.195329
0.194004
0.192706
0.191435
0.190189
0.188965
0.187761
0.186573
0.185401
0.184243
0.183097
0.181964
0.180842
0.179727
0.116673
0.0587079
0.0476852
0.0461383
0.0453352
0.0446487
0.0439477
0.0432754
0.042623
0.0420244
0.0415503
0.0413947
0.0420253
0.0443792
0.0498453
0.0595473
0.0725881
0.0855387
0.0952435
0.103957
0.117776
0.0594353
0.0479649
0.0463761
0.045579
0.0449178
0.0442353
0.0435798
0.0429384
0.0423338
0.0417862
0.0413944
0.0414102
0.0424171
0.0455177
0.0522582
0.0632731
0.076566
0.0882072
0.094397
0.118864
0.0601587
0.0482483
0.0466155
0.045822
0.0451825
0.0445151
0.043878
0.0432481
0.0426483
0.0420806
0.0415917
0.0413102
0.0415919
0.0432017
0.0476337
0.0564824
0.0697944
0.0848477
0.0987823
0.119921
0.060866
0.0485296
0.0468516
0.0460582
0.0454408
0.0447847
0.044163
0.0435465
0.0429593
0.0423904
0.0418651
0.0414502
0.0413484
0.0420767
0.0448609
0.0516346
0.0640383
0.0809544
0.101163
0.120936
0.0615541
0.0488093
0.0470866
0.04629
0.0456941
0.0450449
0.0444406
0.0438339
0.0432593
0.0426942
0.0421594
0.0416892
0.0413904
0.0416165
0.043298
0.0483724
0.0595167
0.0774359
0.102741
0.121902
0.0622156
0.0490876
0.0473203
0.0465134
0.0459406
0.0452967
0.0447099
0.0441089
0.043545
0.0429819
0.0424476
0.041951
0.0415557
0.0414963
0.0424503
0.0462157
0.0560095
0.0743659
0.103881
0.12282
0.0628482
0.0493586
0.0475503
0.0467372
0.0461829
0.0455441
0.0449718
0.0443767
0.04382
0.0432626
0.0427299
0.0422235
0.0417755
0.0415547
0.0420302
0.0448065
0.053316
0.0717283
0.104754
0.123683
0.0634508
0.049628
0.0477768
0.0469553
0.0464186
0.0457842
0.0452222
0.0446317
0.044078
0.0435274
0.0429993
0.0424941
0.0420164
0.0416974
0.0418589
0.0439071
0.0512577
0.0694831
0.105449
0.124483
0.0640121
0.0498859
0.0480004
0.0471712
0.0466524
0.0460176
0.0454664
0.0448804
0.0443323
0.043784
0.0432568
0.0427523
0.0422573
0.0418863
0.0418298
0.043348
0.0496933
0.0675924
0.106022
0.125225
0.0645384
0.0501406
0.0482234
0.0473835
0.0468845
0.0462467
0.0457051
0.0451208
0.0445779
0.0440365
0.043508
0.0430091
0.0424942
0.0420926
0.0418853
0.0430173
0.0485089
0.0660085
0.106505
0.125903
0.0650269
0.050387
0.0484441
0.0475942
0.0471135
0.0464728
0.0459432
0.0453615
0.0448197
0.0442835
0.0437508
0.0432533
0.0427258
0.0423085
0.0419947
0.0428424
0.0476201
0.0646929
0.106919
0.126526
0.0654878
0.0506351
0.0486665
0.0478096
0.047341
0.0466975
0.0461772
0.0455958
0.0450586
0.044518
0.0439866
0.0434907
0.0429522
0.0425284
0.0421373
0.0427733
0.0469569
0.0636068
0.107283
0.127103
0.0659234
0.0508804
0.0488881
0.0480275
0.0475657
0.0469183
0.0464059
0.0458201
0.0452901
0.0447523
0.0442174
0.0437245
0.0431745
0.04275
0.0423013
0.042779
0.0464662
0.0627102
0.107607
0.127633
0.0663335
0.0511223
0.0491077
0.0482396
0.0477851
0.0471386
0.0466283
0.0460455
0.0455145
0.044982
0.044443
0.0439549
0.043395
0.042971
0.0424781
0.0428386
0.0461121
0.061979
0.107903
0.128126
0.0667167
0.0513576
0.0493291
0.0484499
0.0480008
0.0473575
0.0468488
0.0462663
0.0457377
0.0452088
0.0446664
0.044182
0.0436141
0.0431915
0.0426634
0.0429341
0.0458642
0.0613893
0.108177
0.128581
0.0670777
0.0515898
0.0495496
0.0486555
0.0482208
0.0475708
0.0470703
0.0464885
0.0459607
0.0454342
0.0448873
0.0444054
0.0438304
0.0434116
0.0428567
0.0430575
0.0457023
0.0609201
0.10843
0.128993
0.0674151
0.0518188
0.0497696
0.0488634
0.0484415
0.0477903
0.0472936
0.0467128
0.0461834
0.0456562
0.0451046
0.044627
0.0440462
0.043631
0.0430542
0.0432013
0.0456091
0.0605513
0.108664
0.129372
0.067736
0.0520532
0.0499871
0.0490845
0.048665
0.0480114
0.0475178
0.0469355
0.0464047
0.0458756
0.0453205
0.0448475
0.0442637
0.0438519
0.0432548
0.0433586
0.045567
0.0602607
0.108886
0.129727
0.0680411
0.0522878
0.0502065
0.0493044
0.0488879
0.0482317
0.0477385
0.0471544
0.0466224
0.0460945
0.0455382
0.0450677
0.0444805
0.0440718
0.0434569
0.0435253
0.0455647
0.0600357
0.109099
0.130055
0.068334
0.052513
0.050427
0.0495251
0.049108
0.0484513
0.0479584
0.047373
0.0468395
0.0463146
0.0457584
0.0452901
0.0446964
0.0442884
0.0436585
0.0436986
0.0455964
0.0598727
0.109308
0.130353
0.068611
0.0527395
0.0506468
0.0497422
0.0493275
0.0486697
0.0481783
0.047593
0.0470605
0.0465374
0.045979
0.0455124
0.0449111
0.0445029
0.0438612
0.0438791
0.0456589
0.0597685
0.109513
0.130635
0.0688751
0.0529642
0.0508671
0.0499588
0.0495474
0.0488893
0.0483997
0.0478153
0.0472852
0.0467628
0.0461999
0.0457328
0.0451245
0.0447172
0.0440675
0.0440684
0.0457496
0.0597164
0.109711
0.13089
0.0691326
0.0531893
0.0510871
0.0501774
0.0497684
0.0491118
0.0486237
0.0480409
0.0475105
0.046988
0.0464204
0.0459524
0.0453391
0.0449335
0.0442782
0.0442656
0.0458634
0.0597054
0.1099
0.131136
0.0693867
0.0534148
0.0513091
0.0503991
0.0499919
0.0493355
0.0488486
0.0482674
0.0477346
0.0472109
0.0466387
0.0461713
0.045556
0.0451527
0.0444925
0.0444673
0.0459931
0.0597217
0.11008
0.131374
0.0696356
0.05364
0.0515329
0.0506225
0.0502163
0.04956
0.0490729
0.048492
0.0479565
0.0474322
0.0468566
0.0463907
0.0457751
0.0453736
0.044708
0.0446702
0.0461324
0.0597539
0.110254
0.131603
0.0698757
0.0538639
0.051756
0.0508457
0.0504392
0.0497839
0.0492957
0.0487141
0.0481758
0.0476525
0.0470762
0.0466121
0.0459957
0.0455948
0.0449233
0.0448731
0.0462795
0.0597993
0.110429
0.131816
0.0701075
0.0540868
0.0519793
0.0510701
0.0506623
0.0500082
0.0495183
0.0489359
0.0483951
0.0478732
0.0472978
0.0468352
0.0462168
0.0458153
0.0451378
0.0450772
0.0464354
0.0598615
0.110606
0.132012
0.070336
0.0543107
0.0522042
0.0512974
0.0508881
0.0502346
0.0497423
0.0491599
0.0486175
0.048097
0.047522
0.0470596
0.0464384
0.0460354
0.0453529
0.0452845
0.0466014
0.0599437
0.110788
0.132202
0.0705684
0.0545392
0.052433
0.0515287
0.0511173
0.0504637
0.0499689
0.0493867
0.0488439
0.0483241
0.0477482
0.0472852
0.0466611
0.0462566
0.0455706
0.0454964
0.0467777
0.0600467
0.110971
0.132393
0.0708065
0.0547723
0.0526664
0.0517643
0.0513498
0.0506957
0.0501989
0.049617
0.0490738
0.0485537
0.0479755
0.0475118
0.0468853
0.0464796
0.0457914
0.0457124
0.0469627
0.0601668
0.111152
0.132583
0.071049
0.055007
0.0529011
0.0520011
0.0515839
0.0509301
0.050432
0.0498504
0.0493062
0.0487851
0.0482041
0.0477395
0.0471109
0.0467045
0.0460148
0.045931
0.0471538
0.0602981
0.111332
0.13277
0.0712874
0.0552412
0.0531351
0.0522372
0.0518188
0.051166
0.0506668
0.0500857
0.0495397
0.0490174
0.048434
0.0479684
0.0473382
0.0469316
0.0462404
0.0461513
0.0473493
0.0604359
0.111512
0.132953
0.0715065
0.0554737
0.053369
0.0524741
0.0520552
0.0514032
0.0509027
0.0503218
0.0497735
0.0492504
0.0486654
0.0481989
0.0475676
0.0471607
0.0464677
0.0463733
0.0475486
0.0605792
0.111694
0.133128
0.0717162
0.0557062
0.0536041
0.0527127
0.0522927
0.0516417
0.0511394
0.0505583
0.0500077
0.0494848
0.0488988
0.0484316
0.0477991
0.0473914
0.0466967
0.0465973
0.0477521
0.060729
0.111878
0.1333
0.0719262
0.0559428
0.0538421
0.0529532
0.0525309
0.0518808
0.0513762
0.0507953
0.0502435
0.0497213
0.0491343
0.0486664
0.0480326
0.0476236
0.0469275
0.0468239
0.0479599
0.0608862
0.112065
0.133475
0.0721369
0.0561839
0.0540828
0.0531954
0.0527695
0.0521206
0.0516139
0.0510339
0.0504819
0.04996
0.0493715
0.0489026
0.0482676
0.0478573
0.0471604
0.0470531
0.0481723
0.0610517
0.112254
0.133659
0.0723437
0.0564238
0.0543243
0.0534381
0.053009
0.052362
0.0518542
0.0512758
0.050723
0.0502005
0.04961
0.04914
0.0485041
0.0480931
0.0473958
0.0472854
0.0483898
0.0612256
0.112444
0.133849
0.0725409
0.0566616
0.054565
0.0536817
0.0532508
0.0526066
0.0520984
0.0515213
0.0509665
0.0504424
0.0498501
0.0493795
0.0487435
0.0483321
0.0476348
0.0475214
0.0486128
0.0614079
0.112636
0.134039
0.0727296
0.0568983
0.0548065
0.0539285
0.0534969
0.0528556
0.0523466
0.0517695
0.0512118
0.0506864
0.050093
0.0496226
0.0489873
0.0485758
0.0478781
0.0477613
0.0488408
0.0615971
0.112829
0.134224
0.072918
0.0571372
0.0550518
0.0541807
0.0537484
0.053109
0.0525977
0.0520196
0.0514593
0.0509336
0.0503405
0.0498709
0.0492366
0.0488243
0.0481257
0.0480046
0.0490727
0.0617911
0.113024
0.134406
0.0731161
0.0573815
0.0553034
0.0544384
0.0540043
0.0533653
0.0528503
0.0522714
0.0517098
0.0511852
0.0505932
0.0501246
0.0494904
0.0490763
0.048376
0.0482498
0.0493068
0.0619879
0.113222
0.134591
0.0733278
0.057632
0.055561
0.0547001
0.0542621
0.0536226
0.0531039
0.0525254
0.0519639
0.0514414
0.0508507
0.0503819
0.0497464
0.0493293
0.0486269
0.0484957
0.0495422
0.0621865
0.113422
0.134786
0.0735475
0.0578863
0.055822
0.0549634
0.0545199
0.0538803
0.0533594
0.0527825
0.0522219
0.0517013
0.0511105
0.0506399
0.050002
0.0495815
0.0488772
0.048742
0.0497792
0.0623876
0.113625
0.134991
0.0737647
0.0581404
0.0560834
0.0552262
0.0547778
0.0541394
0.0536181
0.0530434
0.0524832
0.051963
0.0513703
0.0508965
0.050256
0.0498326
0.0491276
0.0489902
0.050019
0.0625921
0.113829
0.135202
0.073972
0.0583926
0.0563441
0.0554893
0.0550377
0.0544021
0.0538809
0.0533081
0.0527469
0.0522249
0.0516287
0.0511517
0.0505094
0.0500842
0.0493801
0.0492415
0.0502626
0.0628012
0.114035
0.135413
0.0741705
0.0586439
0.0566052
0.0557549
0.0553021
0.0546698
0.0541479
0.0535759
0.0530117
0.0524865
0.0518869
0.0514075
0.0507646
0.0503389
0.0496365
0.0494967
0.05051
0.0630145
0.114241
0.135619
0.0743674
0.0588971
0.0568695
0.0560255
0.0555722
0.0549425
0.0544185
0.0538457
0.0532773
0.052749
0.052147
0.0516664
0.051024
0.0505983
0.0498973
0.049755
0.0507605
0.0632301
0.114447
0.135822
0.0745702
0.059155
0.0571392
0.0563019
0.0558472
0.0552188
0.0546912
0.0541165
0.0535439
0.0530138
0.052411
0.05193
0.0512884
0.0508623
0.0501615
0.0500155
0.0510127
0.0634452
0.114652
0.136027
0.0747817
0.0594185
0.0574143
0.0565826
0.0561247
0.0554965
0.0549645
0.0543879
0.0538127
0.0532823
0.0526796
0.0521985
0.0515573
0.0511296
0.0504278
0.0502771
0.0512661
0.0636584
0.114858
0.136237
0.0749989
0.0596861
0.0576926
0.0568649
0.0564026
0.0557738
0.0552378
0.0546604
0.0540842
0.0535547
0.0529524
0.0524709
0.0518294
0.0513991
0.0506956
0.0505403
0.0515211
0.0638707
0.115067
0.136452
0.0752157
0.0599549
0.0579714
0.0571466
0.0566795
0.0560505
0.0555116
0.0549352
0.0543592
0.0538307
0.0532285
0.0527462
0.0521038
0.0516705
0.0509654
0.050806
0.0517787
0.0640849
0.11528
0.136671
0.0754275
0.0602229
0.0582495
0.0574277
0.0569565
0.0563282
0.0557879
0.0552135
0.0546379
0.05411
0.0535075
0.053024
0.0523805
0.0519443
0.0512383
0.0510754
0.0520403
0.0643042
0.1155
0.136889
0.0756345
0.0604906
0.0585279
0.0577099
0.0572356
0.0566093
0.0560686
0.0554964
0.0549206
0.0543925
0.0537892
0.0533044
0.0526599
0.0522216
0.0515155
0.0513496
0.0523072
0.0645315
0.115725
0.137105
0.0758415
0.0607603
0.0588088
0.0579957
0.0575194
0.0568959
0.0563549
0.055784
0.0552071
0.0546784
0.054074
0.0535878
0.052943
0.0525033
0.0517978
0.0516292
0.0525798
0.0647684
0.115955