/*--------------------------------*- C++ -*----------------------------------*\
  =========                 |
  \\      /  F ield         | OpenFOAM: The Open Source CFD Toolbox
   \\    /   O peration     | Website:  https://openfoam.org
    \\  /    A nd           | Version:  8
     \\/     M anipulation  |
\*---------------------------------------------------------------------------*/
FoamFile
{
    version     2.0;
    format      ascii;
    class       volScalarField;
    location    "300";
    object      epsilon;
}
// * * * * * * * * * * * * * * * * * * * * * * * * * * * * * * * * * * * * * //

dimensions      [0 2 -3 0 0 0 0];

internalField   nonuniform List<scalar> 
8400
(
3.48712
3.31093
3.14168
2.97963
2.82461
2.67641
2.53479
2.39975
2.27167
2.15032
2.03545
1.92682
1.82419
1.72731
1.63591
1.54975
1.46856
1.3921
1.32011
1.25237
1.18862
1.12864
1.07219
1.01908
0.96908
0.922002
0.877655
0.835861
0.796451
0.759263
0.724146
0.690958
0.659566
0.629849
0.601691
0.574985
0.549712
0.525892
0.503491
0.482457
0.462714
0.444173
0.42674
0.410321
0.394833
0.380206
0.366391
0.353367
0.341133
0.329723
0.136392
0.130989
0.125932
0.121204
0.116795
0.112693
0.10889
0.105297
0.101701
0.0981245
0.0945638
0.0910149
0.0874746
0.0839394
0.0804082
0.0768808
0.0733604
0.0698515
0.0663617
0.0629031
0.0594915
0.0561469
0.052892
0.0497509
0.0467487
0.0439099
0.0412575
0.0388108
0.0365857
0.0345938
0.032843
0.0313371
0.0300755
0.0290543
0.0282667
0.0277053
0.0273322
0.0270932
0.0269546
0.0268896
0.0268782
0.0269073
0.0269674
0.0270526
0.0271589
0.0272836
0.0274249
0.027582
0.0277548
0.0279452
0.0309176
0.0301556
0.029446
0.0287892
0.0281838
0.0276278
0.0271195
0.0266567
0.0262239
0.0257979
0.0253809
0.0249718
0.0245693
0.024172
0.0237788
0.0233889
0.0230019
0.0226183
0.022239
0.0218659
0.0215017
0.0211497
0.0208138
0.0204979
0.0202062
0.0199422
0.0197091
0.019509
0.0193432
0.0192117
0.0191139
0.019048
0.0190117
0.0190019
0.0190163
0.0190534
0.0191077
0.0191765
0.0192569
0.0193466
0.0194436
0.0195463
0.0196534
0.0197637
0.0198765
0.0199911
0.0201071
0.020225
0.0203454
0.0204699
0.016957
0.0167845
0.0166316
0.0164959
0.016376
0.0162705
0.0161785
0.0160989
0.0160306
0.0159682
0.0159079
0.0158498
0.0157932
0.0157376
0.0156824
0.015627
0.015571
0.0155141
0.0154563
0.0153977
0.0153387
0.0152799
0.0152221
0.0151662
0.0151132
0.0150641
0.0150198
0.014981
0.0149486
0.0149232
0.0149051
0.0148947
0.0148921
0.0148996
0.0149188
0.0149482
0.0149875
0.0150357
0.0150917
0.0151544
0.0152228
0.0152959
0.0153727
0.0154525
0.0155347
0.0156186
0.0157042
0.0157917
0.0158816
0.015975
0.0127802
0.012747
0.0127212
0.0127018
0.0126881
0.0126792
0.0126743
0.0126728
0.0126739
0.012677
0.0126781
0.0126775
0.0126749
0.0126699
0.0126619
0.0126504
0.0126347
0.0126145
0.0125895
0.0125594
0.0125245
0.0124848
0.0124408
0.0123932
0.0123429
0.0122909
0.0122386
0.0121872
0.0121381
0.012093
0.012053
0.012021
0.0120014
0.0119945
0.0119995
0.0120156
0.0120416
0.0120764
0.0121187
0.0121675
0.0122215
0.0122798
0.0123416
0.0124061
0.0124726
0.0125408
0.0126104
0.0126815
0.0127543
0.0128293
0.0105577
0.0105733
0.0105929
0.0106146
0.0106372
0.0106601
0.0106827
0.0107043
0.0107245
0.0107428
0.0107575
0.0107673
0.0107725
0.0107727
0.0107673
0.0107559
0.010738
0.0107131
0.0106812
0.010642
0.0105959
0.0105432
0.0104846
0.0104213
0.0103545
0.010286
0.0102174
0.010151
0.0100886
0.0100334
0.00999121
0.00996371
0.00994999
0.00994953
0.0099611
0.00998342
0.0100151
0.0100547
0.0101011
0.0101529
0.010209
0.0102686
0.0103308
0.010395
0.0104606
0.0105272
0.0105945
0.0106624
0.0107311
0.0108008
0.00904738
0.00908941
0.00913223
0.00917413
0.0092139
0.00925077
0.0092842
0.00931364
0.0093388
0.00935918
0.00937448
0.00938222
0.00938297
0.00937654
0.00936245
0.00934023
0.00930948
0.00926992
0.00922137
0.0091639
0.00909793
0.00902425
0.00894407
0.00885907
0.00877133
0.00868329
0.00859776
0.00851959
0.00845649
0.00841217
0.00838535
0.00837575
0.0083818
0.00840193
0.00843429
0.00847707
0.00852855
0.00858716
0.00865141
0.00871999
0.00879182
0.00886601
0.00894181
0.00901848
0.00909548
0.00917236
0.00924881
0.00932467
0.00939999
0.00947495
0.00786032
0.00789284
0.00793239
0.0079751
0.00801782
0.00805821
0.00809457
0.00812561
0.00815036
0.00816818
0.00817855
0.00818064
0.00817181
0.00815295
0.00812402
0.0080847
0.00803467
0.00797376
0.00790206
0.00782003
0.00772872
0.00762988
0.007526
0.00742033
0.00731676
0.00722199
0.00714465
0.00708852
0.00705202
0.00703477
0.00703515
0.00705163
0.00708238
0.00712568
0.00717988
0.00724346
0.00731502
0.00739323
0.00747683
0.0075647
0.00765595
0.00774969
0.00784507
0.00794116
0.00803716
0.00813257
0.00822679
0.00831948
0.0084103
0.00849929
0.00724892
0.00714186
0.00706534
0.00701746
0.006992
0.00698298
0.00698477
0.00699271
0.00700255
0.0070109
0.00701505
0.00701301
0.00700174
0.00697853
0.00694391
0.00689811
0.00684151
0.00677488
0.00669957
0.00661774
0.00653266
0.00644889
0.00637212
0.00630797
0.00626064
0.00622985
0.00621162
0.00620423
0.00620566
0.0062147
0.00623038
0.00625199
0.00627909
0.00631144
0.00634899
0.00639182
0.00644007
0.00649386
0.00655324
0.00661835
0.00668932
0.00676604
0.00684815
0.00693515
0.00702647
0.00712146
0.00721934
0.00731914
0.0074197
0.00752015
0.0085089
0.00805296
0.00764565
0.00729832
0.0070044
0.00675847
0.00655703
0.00639714
0.00627552
0.00618835
0.0061312
0.0060994
0.00608851
0.00609221
0.00610434
0.00612148
0.00614332
0.00617255
0.00621374
0.00627096
0.00634407
0.00642951
0.00651918
0.00660478
0.00668277
0.00675214
0.00681312
0.00686575
0.00690956
0.0069436
0.0069669
0.00697881
0.00697927
0.00696862
0.00694757
0.00691723
0.00687912
0.0068349
0.00678635
0.00673539
0.00668371
0.00663281
0.00658426
0.00653961
0.00650131
0.00647088
0.0064501
0.00643993
0.00644051
0.00645131
0.0118136
0.0113467
0.0109141
0.010493
0.0100756
0.0096583
0.00924514
0.0088432
0.00846065
0.00810816
0.00779524
0.00753213
0.00732835
0.0071916
0.00712767
0.00714189
0.0072312
0.0073818
0.00757323
0.0077833
0.0080011
0.00821598
0.0084217
0.00861049
0.00877611
0.00891794
0.00903642
0.0091331
0.00920798
0.00926154
0.0092948
0.00931013
0.00930983
0.00929464
0.0092642
0.00921861
0.00915895
0.00908647
0.0090013
0.00890319
0.00879117
0.00866294
0.00851634
0.00834981
0.0081641
0.00795921
0.00773591
0.00750011
0.00725937
0.00702592
0.013057
0.0129266
0.012811
0.0127036
0.0125987
0.0124948
0.0123911
0.0122892
0.0121879
0.0120864
0.0119843
0.0118809
0.0117777
0.0116756
0.0115759
0.0114799
0.0113882
0.0113008
0.0112182
0.011141
0.0110696
0.0110044
0.0109456
0.0108925
0.0108448
0.0108027
0.0107664
0.0107362
0.0107112
0.0106896
0.0106702
0.010653
0.0106384
0.0106254
0.0106119
0.0105958
0.0105766
0.0105548
0.0105303
0.0105032
0.0104724
0.0104379
0.0103988
0.0103542
0.0103028
0.0102445
0.0101743
0.0100892
0.00998616
0.00985796
0.0131238
0.013073
0.013023
0.0129734
0.0129238
0.0128743
0.012825
0.0127759
0.0127267
0.0126773
0.0126276
0.0125777
0.0125278
0.0124783
0.0124293
0.0123807
0.0123326
0.0122849
0.0122379
0.0121917
0.0121462
0.0121017
0.0120579
0.0120149
0.0119727
0.0119315
0.0118915
0.0118528
0.011815
0.0117779
0.0117416
0.0117062
0.0116717
0.0116378
0.0116036
0.0115693
0.011535
0.0115005
0.0114657
0.0114302
0.0113939
0.0113563
0.0113173
0.0112767
0.0112337
0.0111876
0.0111375
0.0110819
0.0110202
0.0109547
0.0131417
0.0131112
0.0130809
0.0130504
0.0130198
0.0129891
0.0129584
0.0129276
0.0128968
0.0128657
0.0128344
0.012803
0.0127717
0.0127405
0.0127093
0.0126781
0.0126469
0.0126158
0.0125849
0.0125542
0.0125237
0.0124933
0.0124631
0.012433
0.012403
0.0123733
0.0123438
0.0123146
0.0122856
0.0122567
0.012228
0.0121996
0.0121714
0.0121431
0.0121146
0.012086
0.0120574
0.0120286
0.0119997
0.0119701
0.0119402
0.0119095
0.0118783
0.0118462
0.011813
0.0117784
0.0117422
0.0117043
0.0116661
0.0116257
0.0131507
0.0131296
0.0131084
0.013087
0.0130654
0.0130437
0.0130219
0.013
0.012978
0.0129558
0.0129334
0.012911
0.0128885
0.012866
0.0128434
0.0128208
0.0127981
0.0127754
0.0127526
0.0127299
0.0127073
0.0126846
0.0126619
0.0126392
0.0126165
0.0125938
0.0125712
0.0125486
0.0125261
0.0125035
0.0124811
0.0124587
0.0124362
0.0124135
0.0123908
0.012368
0.0123452
0.0123222
0.0122989
0.0122752
0.0122511
0.0122268
0.0122021
0.0121769
0.0121511
0.0121248
0.0120983
0.0120714
0.012043
0.0120129
0.0131542
0.0131372
0.0131201
0.013103
0.0130857
0.0130685
0.0130511
0.0130337
0.0130162
0.0129986
0.0129809
0.0129631
0.0129454
0.0129277
0.01291
0.0128922
0.0128745
0.0128568
0.0128391
0.0128215
0.0128038
0.0127862
0.0127686
0.012751
0.0127334
0.0127158
0.0126983
0.0126807
0.0126631
0.0126456
0.0126281
0.0126105
0.0125928
0.012575
0.0125571
0.0125391
0.012521
0.0125027
0.0124841
0.0124653
0.0124462
0.0124269
0.0124073
0.0123876
0.0123678
0.0123479
0.0123274
0.0123063
0.0122843
0.0122613
0.0131588
0.0131465
0.0131341
0.0131216
0.0131091
0.0130964
0.0130838
0.0130712
0.0130584
0.0130456
0.0130327
0.0130197
0.0130068
0.0129938
0.0129807
0.0129676
0.0129545
0.0129413
0.0129281
0.0129149
0.0129016
0.0128882
0.0128748
0.0128614
0.0128479
0.0128344
0.0128209
0.0128073
0.0127936
0.0127799
0.0127662
0.0127524
0.0127386
0.0127247
0.0127107
0.0126968
0.0126828
0.0126686
0.0126544
0.0126402
0.012626
0.0126117
0.0125974
0.0125829
0.0125681
0.0125531
0.0125376
0.0125216
0.012505
0.0124877
0.0131585
0.013146
0.0131335
0.0131209
0.0131082
0.0130955
0.0130828
0.01307
0.0130572
0.0130443
0.0130313
0.0130184
0.0130054
0.0129924
0.0129794
0.0129663
0.0129532
0.0129402
0.0129271
0.0129139
0.0129008
0.0128876
0.0128744
0.0128612
0.012848
0.0128347
0.0128214
0.0128081
0.0127948
0.0127815
0.0127681
0.0127547
0.0127413
0.0127279
0.0127145
0.012701
0.0126874
0.0126739
0.0126604
0.0126468
0.0126333
0.0126197
0.0126061
0.0125924
0.0125788
0.0125651
0.0125514
0.0125376
0.0125238
0.0125099
0.0131631
0.0131567
0.0131491
0.0131415
0.0131339
0.0131263
0.0131186
0.0131109
0.0131031
0.0130953
0.0130875
0.0130798
0.013072
0.0130643
0.0130566
0.013049
0.0130414
0.0130339
0.0130264
0.013019
0.0130116
0.0130043
0.012997
0.0129897
0.0129825
0.0129753
0.0129682
0.0129611
0.012954
0.012947
0.01294
0.0129331
0.0129262
0.0129193
0.0129124
0.0129056
0.0128987
0.012892
0.0128851
0.0128783
0.0128714
0.0128645
0.0128576
0.0128505
0.0128434
0.012836
0.0128285
0.0128206
0.0128124
0.0128035
0.0136709
0.014211
0.0147704
0.0153405
0.0159154
0.0164914
0.0170684
0.0176495
0.0182395
0.0188435
0.0194667
0.0201133
0.0207867
0.0214894
0.0222229
0.022988
0.023785
0.0246134
0.0254729
0.0263625
0.0272814
0.0282287
0.0292035
0.030205
0.0312327
0.0322864
0.033366
0.0344717
0.0356033
0.0367603
0.0379424
0.0391487
0.0403781
0.0416292
0.0429002
0.044189
0.045493
0.046809
0.0481332
0.0494611
0.0507874
0.0521057
0.0534078
0.0546839
0.0559218
0.0571058
0.0582173
0.0592331
0.0601253
0.0608793
1.14672
1.10492
1.06583
1.02917
0.994651
0.96201
0.93098
0.901447
0.873316
0.846504
0.820935
0.796537
0.773244
0.750992
0.729719
0.709368
0.689888
0.671228
0.653346
0.636203
0.619763
0.603996
0.588874
0.574368
0.560452
0.547096
0.534269
0.52194
0.510077
0.498653
0.487646
0.477037
0.466812
0.456961
0.447473
0.438336
0.42954
0.421072
0.412918
0.405035
0.397385
0.389946
0.3827
0.375627
0.368703
0.361903
0.355188
0.348498
0.341725
0.334672
1.1223
1.04704
0.978339
0.915429
0.857821
0.80503
0.756657
0.712249
0.67141
0.633785
0.599061
0.566958
0.537225
0.50964
0.484005
0.460142
0.437897
0.417131
0.397722
0.379564
0.362559
0.346622
0.331671
0.317632
0.304433
0.292004
0.280283
0.269209
0.258732
0.248807
0.239397
0.230472
0.222002
0.213961
0.206321
0.199056
0.192138
0.18554
0.179237
0.173223
0.167493
0.162028
0.156809
0.151822
0.147051
0.142484
0.138107
0.133905
0.129862
0.125957
1.12218
1.04668
0.977531
0.914249
0.856268
0.803076
0.754205
0.709232
0.667779
0.629509
0.594122
0.561349
0.530949
0.502709
0.476435
0.451956
0.429121
0.407793
0.387852
0.36919
0.35171
0.335324
0.319952
0.305519
0.291952
0.279185
0.267156
0.255806
0.245084
0.234947
0.225354
0.216273
0.207674
0.199528
0.19181
0.184495
0.177557
0.170973
0.16472
0.158775
0.153119
0.147733
0.142602
0.137712
0.133049
0.128602
0.12436
0.120314
0.116455
0.112776
1.12219
1.0472
0.978643
0.915876
0.858313
0.805431
0.75677
0.711923
0.670529
0.632265
0.596844
0.564005
0.533516
0.50517
0.478779
0.454178
0.431216
0.409761
0.389695
0.37091
0.35331
0.336809
0.321324
0.306781
0.293109
0.28024
0.268113
0.256669
0.245859
0.235638
0.225968
0.216815
0.208149
0.19994
0.192163
0.184791
0.1778
0.171164
0.164861
0.15887
0.153169
0.147741
0.142571
0.137643
0.132946
0.128468
0.124195
0.120118
0.116227
0.112517
1.12219
1.04721
0.978614
0.915771
0.858115
0.805143
0.756406
0.711502
0.67007
0.631787
0.59636
0.563526
0.533052
0.504726
0.478361
0.453788
0.43086
0.409441
0.389411
0.370664
0.353103
0.336637
0.321187
0.306676
0.293032
0.280189
0.268084
0.256661
0.24587
0.235667
0.226013
0.216875
0.208223
0.200027
0.192261
0.184898
0.177913
0.171283
0.164984
0.158995
0.153295
0.147868
0.142696
0.137767
0.133067
0.128586
0.12431
0.120228
0.116329
0.112606
1.12219
1.04723
0.97871
0.91596
0.858411
0.805549
0.756918
0.712109
0.670759
0.63254
0.597161
0.564359
0.533903
0.505583
0.479215
0.454634
0.431693
0.410258
0.390212
0.371447
0.353865
0.337378
0.321905
0.307369
0.293699
0.280828
0.268695
0.257245
0.246427
0.236199
0.226521
0.217361
0.208687
0.200469
0.192682
0.185297
0.178291
0.171639
0.165318
0.159306
0.153584
0.148135
0.142942
0.137992
0.133272
0.12877
0.124473
0.120372
0.116452
0.112706
1.12218
1.04722
0.9787
0.915956
0.858409
0.805544
0.756903
0.712081
0.670713
0.632474
0.597072
0.564247
0.533767
0.505427
0.479042
0.454449
0.4315
0.410064
0.39002
0.37126
0.353685
0.337206
0.32174
0.30721
0.293545
0.280679
0.268551
0.257106
0.246295
0.236075
0.226406
0.217255
0.208589
0.200379
0.192598
0.185218
0.178216
0.171566
0.165246
0.159235
0.153513
0.148063
0.14287
0.13792
0.133199
0.128695
0.124396
0.120291
0.116368
0.112616
1.12217
1.0472
0.978676
0.915949
0.858427
0.805593
0.756987
0.7122
0.670863
0.632651
0.59727
0.56446
0.533991
0.505659
0.47928
0.454693
0.431751
0.410322
0.390285
0.37153
0.353958
0.33748
0.32201
0.307474
0.293801
0.280925
0.268787
0.257333
0.246514
0.236286
0.22661
0.217452
0.208779
0.200561
0.19277
0.18538
0.178365
0.171702
0.165369
0.159344
0.153608
0.148144
0.142937
0.137973
0.13324
0.128723
0.12441
0.120291
0.116353
0.112586
1.12216
1.04717
0.97864
0.91592
0.858411
0.805593
0.757002
0.712224
0.670891
0.632675
0.597285
0.564462
0.533978
0.505631
0.47924
0.454644
0.431697
0.410266
0.390229
0.371475
0.353903
0.337423
0.321951
0.307411
0.293732
0.280852
0.268711
0.257256
0.246438
0.236213
0.226541
0.217386
0.208715
0.200499
0.192708
0.185316
0.178299
0.171633
0.165296
0.159267
0.153527
0.148059
0.142849
0.137881
0.133144
0.128623
0.124306
0.120182
0.116238
0.112464
1.12215
1.04713
0.978603
0.915889
0.858395
0.805594
0.757019
0.712255
0.670931
0.63272
0.597329
0.564504
0.534017
0.505668
0.479278
0.454686
0.431745
0.410322
0.390292
0.371544
0.353976
0.337497
0.322022
0.307476
0.293793
0.280907
0.268763
0.257305
0.246486
0.236261
0.22659
0.217434
0.208762
0.200542
0.192746
0.185348
0.178324
0.17165
0.165305
0.159268
0.153519
0.148043
0.142824
0.137849
0.133102
0.128573
0.124248
0.120114
0.11616
0.112375
1.12214
1.04711
0.978569
0.915861
0.858378
0.80559
0.757027
0.712271
0.670949
0.632735
0.597338
0.564504
0.53401
0.505657
0.479266
0.454677
0.431741
0.410324
0.3903
0.371555
0.353987
0.337505
0.322025
0.307474
0.293785
0.280895
0.268748
0.25729
0.246472
0.236249
0.226579
0.217424
0.20875
0.200527
0.192728
0.185325
0.178296
0.171616
0.165265
0.159222
0.153467
0.147985
0.14276
0.137778
0.133025
0.128489
0.124156
0.120014
0.116051
0.112257
1.12213
1.04708
0.97854
0.915835
0.85836
0.805581
0.757024
0.712268
0.670942
0.632718
0.597309
0.564463
0.533959
0.5056
0.479207
0.454619
0.431687
0.410273
0.390251
0.371507
0.353937
0.337449
0.321963
0.307406
0.293711
0.280818
0.268671
0.257215
0.2464
0.23618
0.226513
0.217359
0.208686
0.200462
0.19266
0.185256
0.178223
0.171541
0.165188
0.159141
0.153384
0.147899
0.142671
0.137684
0.132926
0.128384
0.124045
0.119897
0.115927
0.112125
1.12213
1.04706
0.978514
0.915811
0.858342
0.80557
0.75702
0.712267
0.670942
0.632717
0.597307
0.564462
0.533963
0.505611
0.47923
0.454655
0.431736
0.410334
0.39032
0.371579
0.354009
0.337518
0.322027
0.307464
0.293765
0.280869
0.26872
0.257263
0.246449
0.236228
0.226559
0.217402
0.208724
0.200494
0.192686
0.185273
0.178234
0.171545
0.165184
0.159131
0.153367
0.147873
0.142636
0.13764
0.132871
0.128318
0.123968
0.119808
0.115827
0.112013
1.12212
1.04704
0.978486
0.915774
0.858295
0.80551
0.756941
0.712165
0.670811
0.632556
0.597118
0.56425
0.533732
0.505368
0.478981
0.454404
0.431485
0.410083
0.390068
0.371326
0.353752
0.337258
0.321763
0.307199
0.293501
0.28061
0.268467
0.257019
0.246213
0.236002
0.22634
0.21719
0.208517
0.200292
0.192488
0.18508
0.178045
0.17136
0.165004
0.158955
0.153195
0.147704
0.142468
0.137471
0.132701
0.128146
0.123793
0.11963
0.115646
0.111828
1.12212
1.04703
0.978459
0.915745
0.858275
0.805507
0.756958
0.712203
0.670869
0.632632
0.597212
0.564362
0.533863
0.505518
0.479148
0.454586
0.431678
0.410282
0.390268
0.371521
0.353939
0.337432
0.321926
0.30735
0.293641
0.28074
0.268589
0.257134
0.24632
0.2361
0.226429
0.217268
0.208584
0.200347
0.192531
0.185112
0.178067
0.171373
0.165008
0.15895
0.153179
0.147678
0.142429
0.13742
0.132636
0.128066
0.123699
0.119522
0.115524
0.111692
1.12211
1.04698
0.978344
0.915539
0.857969
0.805098
0.756448
0.711599
0.670184
0.631881
0.596411
0.563527
0.533009
0.504659
0.478294
0.453744
0.430851
0.409473
0.389477
0.370747
0.353183
0.336696
0.321209
0.306656
0.292971
0.280096
0.267973
0.256544
0.245756
0.23556
0.225911
0.21677
0.208105
0.199886
0.192087
0.184686
0.177658
0.170981
0.164632
0.158589
0.152832
0.147341
0.142101
0.137098
0.13232
0.127755
0.123393
0.11922
0.115226
0.111398
1.12211
1.04698
0.978371
0.915644
0.858169
0.805388
0.756813
0.712019
0.670639
0.632354
0.59689
0.564002
0.533473
0.505105
0.478717
0.45414
0.431216
0.409801
0.389766
0.370995
0.35339
0.336864
0.321341
0.306754
0.29304
0.280139
0.267992
0.256541
0.245732
0.235516
0.225848
0.216689
0.208007
0.199773
0.191962
0.18455
0.177515
0.170831
0.164477
0.158429
0.152667
0.147171
0.141927
0.13692
0.13214
0.127576
0.123218
0.119053
0.115071
0.111262
1.12211
1.04645
0.977265
0.914028
0.856134
0.803039
0.75425
0.709326
0.667884
0.629593
0.594165
0.561347
0.530912
0.502655
0.476388
0.451936
0.429139
0.407851
0.38794
0.369291
0.351805
0.335396
0.319989
0.305516
0.291913
0.27912
0.267077
0.255727
0.245014
0.23489
0.22531
0.216237
0.207638
0.199485
0.191755
0.184423
0.177467
0.170864
0.16459
0.158623
0.152942
0.14753
0.142374
0.137461
0.132783
0.128333
0.124104
0.120089
0.116285
0.112698
1.12222
1.04681
0.97808
0.915217
0.857693
0.805
0.75671
0.712354
0.671529
0.633888
0.599127
0.566981
0.537217
0.509622
0.484001
0.460176
0.437984
0.417274
0.397913
0.379785
0.362789
0.34684
0.331865
0.317798
0.304579
0.292148
0.280446
0.269417
0.259007
0.249166
0.239851
0.231023
0.222655
0.214719
0.207196
0.200065
0.193307
0.186901
0.180826
0.175061
0.169589
0.164394
0.159469
0.154809
0.150412
0.146283
0.142429
0.138868
0.135638
0.132824
1.14668
1.10482
1.06571
1.02907
0.994605
0.962009
0.931012
0.901495
0.873361
0.84653
0.820935
0.796511
0.7732
0.750939
0.729669
0.709329
0.689859
0.671207
0.653323
0.636168
0.619708
0.603915
0.588763
0.574227
0.560278
0.546886
0.534018
0.52164
0.509722
0.498236
0.48716
0.476475
0.466168
0.456225
0.446633
0.437375
0.428437
0.419796
0.411435
0.403333
0.395476
0.38785
0.380447
0.373258
0.366273
0.359479
0.352861
0.346396
0.34006
0.333822
0.0975195
0.0126404
0.00635884
0.00571044
0.00541913
0.00520191
0.00497417
0.00476938
0.00456843
0.00438469
0.0042158
0.0040778
0.00400632
0.00409173
0.00454795
0.00584525
0.00901289
0.0161342
0.030453
0.0562074
0.100015
0.0130722
0.00646811
0.00579605
0.00550117
0.00528935
0.00506185
0.00486032
0.00465979
0.00447608
0.00430283
0.00414929
0.00403358
0.00400713
0.00421294
0.00498739
0.00718935
0.0129446
0.027006
0.0602831
0.102416
0.0134966
0.00657678
0.00588117
0.00558169
0.00537547
0.00514778
0.00494898
0.00474865
0.00456596
0.00439092
0.00423033
0.00409384
0.00400792
0.00407071
0.00452074
0.00606277
0.0106865
0.0239978
0.0629758
0.104725
0.0139126
0.00668562
0.00596668
0.00566212
0.00546096
0.00523253
0.00503644
0.00483556
0.0046533
0.00447732
0.00431329
0.00416644
0.00404869
0.00402919
0.00427564
0.00536821
0.0091005
0.0215295
0.0649046
0.106935
0.0143161
0.0067941
0.00605224
0.00574204
0.00554566
0.00531604
0.00512195
0.00492044
0.00473837
0.00456172
0.00439542
0.00424338
0.00410744
0.00404019
0.00415507
0.00493957
0.0079809
0.0195238
0.0664035
0.109033
0.0147059
0.00690183
0.00613792
0.00582218
0.00562999
0.0053986
0.00520614
0.0050039
0.00482178
0.00464453
0.00447579
0.00432131
0.00417346
0.00407892
0.00410706
0.00467669
0.00718729
0.0179195
0.0676168
0.111009
0.0150799
0.00700948
0.00622403
0.00590139
0.00571354
0.00547991
0.00528929
0.00508571
0.00490373
0.00472544
0.00455467
0.00439835
0.00424229
0.00413143
0.00410091
0.00452013
0.00661898
0.01664
0.0686293
0.112865
0.015437
0.00711587
0.00631049
0.0059811
0.00579685
0.00556056
0.00537184
0.00516651
0.00498441
0.00480468
0.00463169
0.0044742
0.00431188
0.00419222
0.0041197
0.0044315
0.00620948
0.0156193
0.0694954
0.114604
0.0157795
0.00722266
0.00639725
0.00606095
0.00587996
0.00564108
0.00545374
0.00524657
0.00506357
0.00488273
0.00470719
0.00454932
0.00438145
0.00425633
0.00415389
0.00438747
0.00591291
0.0148029
0.0702473
0.116218
0.0161037
0.00732792
0.00648392
0.006141
0.00596296
0.00572133
0.00553491
0.00532582
0.00514153
0.00495928
0.00478141
0.00462274
0.00445081
0.00432251
0.00419737
0.00437334
0.00569808
0.0141494
0.0709139
0.117722
0.0164112
0.00743257
0.00657091
0.00622111
0.00604571
0.00580126
0.00561533
0.00540423
0.00521867
0.00503505
0.00485505
0.00469612
0.0045197
0.00438945
0.00424638
0.0043795
0.00554299
0.0136252
0.0715154
0.119108
0.016701
0.00753536
0.00665793
0.00630174
0.00612867
0.00588126
0.00569563
0.00548284
0.00529546
0.00511148
0.00492826
0.00476906
0.00458815
0.00445662
0.00429913
0.00440004
0.00543326
0.013206
0.0720608
0.12037
0.0169741
0.00763753
0.00674518
0.00638321
0.0062123
0.00596216
0.00577624
0.005562
0.00537258
0.00518717
0.00500123
0.00484151
0.00465628
0.00452382
0.00435449
0.00443074
0.00535852
0.0128734
0.0725621
0.121525
0.017232
0.00773933
0.0068333
0.00646627
0.00629701
0.00604358
0.00585777
0.00564073
0.00545011
0.00526299
0.00507426
0.00491377
0.00472425
0.0045913
0.00441205
0.00446887
0.00531051
0.0126105
0.0730264
0.122587
0.0174787
0.00784155
0.00692245
0.00655017
0.00638269
0.00612561
0.00593925
0.00572013
0.00552751
0.00533892
0.00514728
0.00498621
0.00479243
0.00465904
0.00447134
0.00451297
0.00528367
0.0124049
0.0734617
0.123568
0.0177151
0.00794369
0.0070126
0.00663554
0.00646802
0.00620884
0.00602058
0.00579954
0.00560511
0.00541514
0.00522068
0.00505905
0.00486119
0.00472711
0.0045319
0.00456152
0.00527349
0.0122469
0.0738774
0.124482
0.0179429
0.00804659
0.00710332
0.0067218
0.00655399
0.00629162
0.0061022
0.00587926
0.00568321
0.00549215
0.00529482
0.00513219
0.00493043
0.00479572
0.00459398
0.00461378
0.00527695
0.0121295
0.0742782
0.125332
0.0181616
0.00814894
0.00719512
0.00680778
0.0066405
0.00637531
0.00618462
0.00596006
0.00576208
0.00556993
0.00536959
0.00520583
0.00500015
0.00486478
0.00465753
0.00466939
0.00529219
0.0120476
0.0746659
0.126121
0.0183737
0.00825167
0.0072877
0.00689608
0.00672824
0.00646056
0.00626873
0.00604234
0.00584216
0.00564836
0.00544483
0.00528011
0.00507091
0.0049348
0.00472256
0.00472789
0.00531728
0.0119952
0.0750422
0.126864
0.0185801
0.00835652
0.00738173
0.00698597
0.00681766
0.00654747
0.00635408
0.00612558
0.00592308
0.00572739
0.00552073
0.0053549
0.00514283
0.00500611
0.00478916
0.00478891
0.0053503
0.0119663
0.0754088
0.127575
0.0187833
0.00846173
0.00747759
0.00707813
0.00690849
0.00663602
0.00644053
0.00620965
0.00600438
0.00580705
0.00559781
0.00543077
0.00521598
0.00507852
0.00485702
0.00485186
0.00538965
0.0119563
0.0757694
0.128245
0.0189832
0.00856834
0.0075747
0.00717194
0.00700065
0.0067257
0.00652789
0.00629463
0.00608654
0.00588769
0.00567619
0.00550806
0.00529043
0.00515184
0.00492584
0.0049163
0.00543422
0.0119627
0.0761298
0.128892
0.019179
0.00867579
0.00767314
0.00726712
0.00709407
0.00681635
0.0066162
0.00638069
0.00617032
0.00596994
0.00575603
0.00558661
0.00536586
0.00522587
0.0049956
0.00498225
0.00548363
0.0119846
0.0764934
0.129502
0.0193716
0.00878419
0.00777275
0.00736373
0.00718868
0.00690846
0.00670604
0.00646844
0.00625602
0.00605402
0.00583752
0.00566641
0.00544223
0.00530072
0.00506659
0.00505009
0.00553792
0.0120217
0.0768593
0.130085
0.019563
0.00889403
0.00787391
0.00746202
0.0072848
0.00700221
0.00679772
0.00655824
0.00634358
0.00613966
0.0059203
0.00574731
0.00551976
0.00537676
0.00513919
0.00512011
0.00559697
0.0120732
0.0772244
0.130652
0.019755
0.00900577
0.00797706
0.00756215
0.00738283
0.00709782
0.00689124
0.00664997
0.00643286
0.00622671
0.00600414
0.00582925
0.00559869
0.00545429
0.00521356
0.00519216
0.00566005
0.0121361
0.0775861
0.131211
0.0199479
0.00911927
0.00808177
0.00766376
0.0074824
0.00719517
0.00698637
0.00674312
0.00652336
0.00631499
0.00608919
0.00591251
0.00567924
0.00553345
0.00528961
0.00526584
0.00572621
0.0122068
0.0779441
0.131765
0.0201407
0.00923405
0.00818785
0.00776678
0.00758329
0.00729398
0.00708281
0.00683738
0.00661475
0.00640428
0.00617557
0.00599722
0.00576137
0.00561409
0.00536704
0.00534077
0.00579475
0.0122831
0.0783018
0.132302
0.020332
0.00934958
0.00829513
0.00787134
0.00768563
0.0073943
0.00718051
0.00693282
0.0067072
0.00649477
0.00626347
0.00608343
0.00584494
0.00569599
0.00544561
0.00541685
0.00586548
0.0123641
0.0786638
0.132822
0.0205226
0.00946628
0.00840391
0.00797766
0.00778957
0.00749614
0.00727949
0.00702958
0.00680106
0.00658679
0.00635307
0.0061712
0.00592994
0.00577912
0.00552538
0.00549431
0.00593857
0.0124503
0.079033
0.13333
0.0207142
0.00958521
0.00851505
0.00808636
0.00789545
0.0075997
0.00738003
0.00712794
0.00689665
0.00668056
0.00644436
0.00626054
0.00601645
0.00586361
0.00560659
0.00557349
0.00601428
0.0125427
0.0794088
0.133843
0.0209061
0.00970686
0.00862874
0.00819754
0.00800338
0.00770525
0.00748257
0.00722828
0.00699431
0.00677623
0.00653735
0.00635149
0.00610451
0.00594956
0.00568942
0.00565452
0.00609267
0.0126413
0.0797885
0.134378
0.0210976
0.00983123
0.00874467
0.0083108
0.00811332
0.00781291
0.00758727
0.0073308
0.00709413
0.00687381
0.00663205
0.00644403
0.00619413
0.00603707
0.00577393
0.00573732
0.00617348
0.0127452
0.0801701
0.134934
0.0212853
0.00995776
0.00886247
0.00842599
0.0082254
0.00792275
0.00769417
0.00743547
0.00719592
0.00697314
0.00672837
0.00653811
0.00628532
0.00612623
0.00586011
0.00582175
0.00625642
0.0128529
0.0805535
0.135501
0.0214663
0.0100855
0.0089819
0.00854314
0.0083397
0.00803478
0.00780318
0.00754212
0.00729936
0.00707406
0.00682632
0.00663382
0.00637819
0.00621707
0.00594793
0.00590775
0.00634127
0.0129635
0.0809402
0.136068
0.0216433
0.010214
0.00910317
0.00866237
0.00845614
0.00814882
0.00791404
0.0076504
0.00740434
0.00717663
0.00692606
0.00673134
0.00647286
0.00630962
0.0060374
0.00599535
0.00642797
0.0130766
0.0813316
0.136628
0.0218205
0.0103443
0.00922677
0.00878386
0.00857452
0.00826464
0.00802643
0.00776017
0.00751099
0.0072811
0.00702775
0.00683075
0.00656934
0.00640385
0.00612852
0.00608458
0.00651648
0.0131922
0.0817285
0.137186
0.0220009
0.0104769
0.00935281
0.00890747
0.00869459
0.00838206
0.00814033
0.00787165
0.00761964
0.00738763
0.0071314
0.00693201
0.00666754
0.0064997
0.00622127
0.00617549
0.00660685
0.0133104
0.0821313
0.137756
0.022184
0.0106114
0.00948089
0.00903282
0.00881618
0.00850114
0.0082561
0.00798527
0.00773048
0.00749619
0.00723689
0.00703494
0.00676734
0.00659713
0.00631568
0.00626816
0.00669923
0.0134317
0.0825398
0.138341
0.0223663
0.0107473
0.00961048
0.00915972
0.00893945
0.00862222
0.00837419
0.00810132
0.00784353
0.00760667
0.00734408
0.00713948
0.00686881
0.00669632
0.00641196
0.00636282
0.00679391
0.0135567
0.082954
0.138938
0.0225448
0.010884
0.00974144
0.00928848
0.00906495
0.00874583
0.00849494
0.00821982
0.00795868
0.00771898
0.00745301
0.00724582
0.00697229
0.00679767
0.00651046
0.00645975
0.00689113
0.0136856
0.0833742
0.139534
0.0227198
0.011022
0.00987426
0.00941971
0.00919327
0.00887235
0.00861833
0.00834061
0.00807584
0.00783323
0.00756401
0.00735448
0.00707829
0.0069016
0.00661151
0.0065591
0.00699091
0.0138183
0.0838011
0.140123
0.0228955
0.0111624
0.0100098
0.00955403
0.00932472
0.00900171
0.00874409
0.00846351
0.00819508
0.00794973
0.00767759
0.00746597
0.00718718
0.00700833
0.00671517
0.00666081
0.00709309
0.0139545
0.0842354
0.140708
0.0230769
0.0113063
0.0101488
0.0096917
0.00945908
0.00913355
0.00887198
0.00858853
0.00831666
0.00806894
0.00779418
0.00758052
0.00729897
0.0071177
0.00682122
0.00676462
0.00719745
0.0140938
0.0846778
0.141299
0.0232663
0.011454
0.0102913
0.0098324
0.00959587
0.0092675
0.00900198
0.00871584
0.00844089
0.00819112
0.00791381
0.00769788
0.0074133
0.00722931
0.00692927
0.00687036
0.00730388
0.0142359
0.0851287
0.141907
0.0234621
0.0116049
0.0104368
0.00997557
0.00973471
0.00940351
0.0091343
0.00884578
0.00856801
0.00831624
0.00803613
0.00781758
0.00752967
0.00734273
0.00703911
0.00697806
0.00741248
0.0143811
0.0855884
0.142535
0.0236602
0.0117582
0.0105846
0.0101208
0.00987565
0.00954191
0.00926929
0.00897866
0.00869809
0.00844401
0.00816067
0.00793919
0.00764778
0.00745788
0.00715087
0.00708794
0.00752348
0.0145298
0.0860566
0.143179
0.0238576
0.0119133
0.0107345
0.0102683
0.0100192
0.00968321
0.00940738
0.00911467
0.00883097
0.00857409
0.00828718
0.00806261
0.00776772
0.00757501
0.00726487
0.00720024
0.00763707
0.0146824
0.0865317
0.143829
0.0240541
0.0120703
0.0108868
0.0104187
0.010166
0.00982795
0.00954884
0.00925378
0.00896646
0.00870641
0.00841575
0.00818809
0.00788986
0.00769454
0.00738141
0.00731509
0.00775331
0.0148387
0.087012
0.14448
0.0242519