/*--------------------------------*- C++ -*----------------------------------*\
  =========                 |
  \\      /  F ield         | OpenFOAM: The Open Source CFD Toolbox
   \\    /   O peration     | Website:  https://openfoam.org
    \\  /    A nd           | Version:  8
     \\/     M anipulation  |
\*---------------------------------------------------------------------------*/
FoamFile
{
    version     2.0;
    format      ascii;
    class       volScalarField;
    location    "300";
    object      k;
}
// * * * * * * * * * * * * * * * * * * * * * * * * * * * * * * * * * * * * * //

dimensions      [0 2 -2 0 0 0 0];

internalField   nonuniform List<scalar> 
8400
(
0.119018
0.11496
0.111001
0.107149
0.103403
0.09976
0.0962187
0.092792
0.0894874
0.0863035
0.0832387
0.0802909
0.0774579
0.0747372
0.0721259
0.069621
0.0672194
0.0649177
0.0627125
0.0606002
0.0585771
0.0566396
0.0547839
0.0530063
0.0513031
0.0496707
0.0481055
0.046604
0.0451628
0.0437787
0.0424483
0.0411688
0.0399372
0.0387507
0.0376088
0.0365154
0.0354706
0.0344742
0.0335247
0.0326196
0.0317563
0.0309313
0.0301416
0.029384
0.0286561
0.0279559
0.0272826
0.0266366
0.0260192
0.0254339
0.0134832
0.0131504
0.0128379
0.0125447
0.0122702
0.0120137
0.0117747
0.011536
0.0112907
0.0110385
0.0107789
0.0105115
0.0102363
0.00995317
0.00966239
0.00936436
0.00905983
0.00874982
0.0084358
0.00811961
0.00780351
0.00749013
0.00718238
0.00688332
0.00659615
0.006324
0.00606982
0.00583631
0.00562576
0.00544004
0.00528054
0.00514808
0.00504298
0.00496513
0.00491208
0.00487647
0.00485455
0.00484271
0.00483843
0.00483977
0.00484535
0.00485421
0.00486566
0.00487924
0.00489458
0.00491145
0.00492968
0.00494921
0.00497009
0.00499255
0.0051046
0.0050318
0.00496428
0.00490206
0.00484495
0.00479271
0.00474505
0.0047017
0.00465849
0.00461492
0.00457089
0.00452624
0.0044809
0.00443479
0.00438793
0.00434042
0.00429245
0.00424431
0.00419642
0.00414927
0.00410347
0.00405965
0.00401846
0.00398052
0.00394638
0.00391648
0.00389112
0.00387044
0.00385444
0.00384296
0.00383571
0.00383233
0.00383243
0.00383593
0.00384195
0.00385011
0.00385995
0.00387116
0.00388341
0.00389647
0.00391011
0.00392415
0.00393842
0.00395279
0.00396717
0.0039815
0.00399576
0.00401001
0.00402437
0.00403907
0.00349353
0.00347547
0.00345988
0.00344642
0.00343483
0.00342492
0.00341649
0.00340938
0.00340311
0.0033968
0.00339037
0.00338377
0.00337692
0.00336975
0.00336223
0.00335434
0.00334608
0.0033375
0.00332866
0.00331969
0.0033107
0.00330186
0.00329333
0.00328528
0.00327787
0.00327125
0.00326555
0.00326087
0.0032573
0.00325488
0.00325367
0.00325393
0.00325601
0.00325964
0.00326479
0.00327128
0.00327896
0.00328768
0.00329724
0.00330748
0.00331825
0.00332939
0.00334079
0.00335233
0.00336393
0.00337555
0.00338717
0.00339884
0.00341066
0.00342281
0.00292089
0.0029188
0.00291765
0.00291731
0.0029176
0.00291838
0.0029195
0.00292083
0.00292226
0.00292325
0.00292374
0.0029237
0.00292304
0.0029217
0.00291961
0.00291671
0.00291296
0.00290834
0.00290285
0.00289654
0.00288948
0.00288177
0.00287356
0.00286503
0.00285636
0.00284778
0.00283952
0.00283183
0.00282493
0.00281923
0.00281548
0.0028138
0.00281406
0.00281613
0.00281983
0.00282498
0.00283137
0.0028388
0.00284708
0.00285603
0.00286549
0.00287533
0.00288542
0.00289566
0.00290598
0.00291633
0.00292669
0.00293709
0.0029476
0.00295832
0.00258318
0.00258718
0.00259169
0.00259636
0.002601
0.00260546
0.00260962
0.00261338
0.00261664
0.00261921
0.00262077
0.00262139
0.002621
0.00261953
0.00261692
0.00261311
0.00260806
0.00260176
0.00259424
0.00258555
0.00257582
0.00256522
0.00255396
0.00254231
0.00253058
0.00251911
0.00250826
0.00249848
0.00249083
0.00248569
0.00248291
0.00248242
0.00248403
0.00248752
0.00249265
0.00249917
0.00250683
0.00251542
0.00252474
0.00253461
0.00254488
0.00255542
0.00256612
0.00257688
0.00258765
0.00259838
0.00260904
0.00261965
0.00263024
0.00264089
0.00233506
0.00234289
0.0023507
0.00235816
0.00236504
0.0023712
0.00237653
0.00238094
0.00238436
0.00238673
0.00238761
0.00238712
0.00238522
0.00238187
0.00237697
0.00237049
0.00236239
0.00235268
0.00234143
0.00232875
0.00231484
0.00229997
0.0022845
0.00226886
0.00225353
0.00223933
0.00222764
0.00221925
0.00221396
0.00221177
0.00221242
0.00221566
0.00222115
0.00222857
0.00223758
0.00224788
0.0022592
0.00227128
0.0022839
0.00229689
0.00231009
0.00232337
0.00233663
0.00234978
0.00236274
0.00237546
0.00238794
0.00240016
0.00241216
0.00242397
0.00212431
0.00213071
0.00213821
0.002146
0.00215348
0.00216018
0.0021658
0.00217014
0.00217304
0.00217441
0.00217412
0.00217165
0.0021672
0.00216079
0.00215237
0.00214191
0.00212943
0.00211502
0.00209883
0.00208116
0.00206245
0.00204325
0.0020243
0.00200681
0.00199232
0.0019816
0.0019744
0.00197071
0.00197027
0.0019728
0.001978
0.00198555
0.00199516
0.00200654
0.00201941
0.00203352
0.00204864
0.00206454
0.00208102
0.00209791
0.00211502
0.00213222
0.00214934
0.00216625
0.00218284
0.00219902
0.00221472
0.00222991
0.00224459
0.00225877
0.0020003
0.00198144
0.00196848
0.00196087
0.00195727
0.00195638
0.00195703
0.00195827
0.0019593
0.00195953
0.00195857
0.00195585
0.00195081
0.00194362
0.00193436
0.00192322
0.00191045
0.0018965
0.00188197
0.00186772
0.00185481
0.00184414
0.00183645
0.00183161
0.00182894
0.0018281
0.00182869
0.00183048
0.00183326
0.00183693
0.0018414
0.00184665
0.00185267
0.00185952
0.00186724
0.00187591
0.00188558
0.0018963
0.0019081
0.00192097
0.00193487
0.00194973
0.00196542
0.00198179
0.00199867
0.00201586
0.00203316
0.00205035
0.00206724
0.00208369
0.00221288
0.00212942
0.0020546
0.00199105
0.00193798
0.00189459
0.00186029
0.00183446
0.00181635
0.00180506
0.00179961
0.00179905
0.00180212
0.00180759
0.00181493
0.00182415
0.00183568
0.0018499
0.00186667
0.00188516
0.00190393
0.00192184
0.00193829
0.00195307
0.00196611
0.00197743
0.00198692
0.00199443
0.00199975
0.00200274
0.0020033
0.00200145
0.00199732
0.00199107
0.00198298
0.00197335
0.00196255
0.00195094
0.00193892
0.00192684
0.00191502
0.00190378
0.0018934
0.0018842
0.0018765
0.00187051
0.00186645
0.00186441
0.00186433
0.00186603
0.00278435
0.00270717
0.00263477
0.00256394
0.00249369
0.00242396
0.00235572
0.00229053
0.0022303
0.00217713
0.00213307
0.0021
0.00207935
0.00207178
0.00207702
0.00209364
0.0021188
0.00214935
0.00218285
0.00221744
0.00225126
0.00228258
0.00231067
0.00233511
0.00235578
0.00237284
0.00238642
0.00239667
0.00240373
0.0024078
0.00240912
0.00240795
0.00240445
0.00239864
0.00239051
0.00238007
0.0023674
0.00235257
0.00233556
0.00231627
0.00229451
0.00226993
0.00224216
0.00221084
0.00217569
0.00213656
0.00209364
0.00204796
0.00200151
0.00195727
0.00298298
0.00296338
0.00294571
0.00292911
0.002913
0.00289703
0.00288104
0.00286504
0.00284908
0.00283312
0.00281714
0.00280117
0.0027853
0.00276965
0.00275439
0.00273971
0.00272573
0.00271249
0.0027
0.00268835
0.00267759
0.00266779
0.00265897
0.00265109
0.00264412
0.00263802
0.00263275
0.00262827
0.00262447
0.00262119
0.00261823
0.00261548
0.00261287
0.00261032
0.00260765
0.00260463
0.00260111
0.00259704
0.00259241
0.00258728
0.00258167
0.00257562
0.00256903
0.00256179
0.00255363
0.0025442
0.00253296
0.00251909
0.00250184
0.00247994
0.00299295
0.00298521
0.00297758
0.00297001
0.00296247
0.00295493
0.00294739
0.00293984
0.00293228
0.00292471
0.00291712
0.00290952
0.00290193
0.00289438
0.00288689
0.00287946
0.0028721
0.00286482
0.00285763
0.00285054
0.00284356
0.00283672
0.00283
0.00282341
0.00281695
0.00281063
0.00280445
0.00279844
0.00279258
0.00278686
0.00278124
0.00277573
0.00277031
0.00276496
0.00275962
0.00275425
0.00274882
0.00274333
0.00273776
0.0027321
0.00272633
0.00272042
0.00271432
0.00270798
0.00270127
0.00269409
0.00268621
0.00267744
0.00266766
0.00265736
0.00299561
0.00299099
0.00298638
0.00298177
0.00297714
0.00297249
0.00296781
0.00296311
0.0029584
0.00295366
0.0029489
0.00294412
0.00293934
0.00293457
0.0029298
0.00292505
0.00292031
0.00291558
0.00291086
0.00290617
0.0029015
0.00289685
0.00289223
0.00288763
0.00288305
0.00287849
0.00287396
0.00286946
0.00286499
0.00286054
0.00285612
0.00285172
0.00284734
0.00284296
0.00283857
0.00283415
0.0028297
0.00282522
0.0028207
0.00281611
0.00281146
0.00280671
0.00280186
0.00279688
0.00279173
0.00278636
0.00278072
0.00277483
0.00276889
0.00276252
0.00299696
0.00299377
0.00299056
0.00298732
0.00298406
0.00298076
0.00297745
0.00297411
0.00297076
0.00296739
0.00296399
0.00296058
0.00295716
0.00295373
0.00295029
0.00294685
0.0029434
0.00293995
0.00293649
0.00293303
0.00292957
0.0029261
0.00292264
0.00291917
0.0029157
0.00291223
0.00290877
0.00290531
0.00290185
0.00289839
0.00289494
0.00289148
0.00288803
0.00288456
0.00288108
0.00287757
0.00287405
0.0028705
0.00286691
0.00286327
0.00285958
0.00285583
0.00285201
0.00284812
0.00284413
0.00284006
0.00283597
0.00283178
0.00282738
0.00282269
0.00299749
0.00299492
0.00299233
0.00298974
0.00298713
0.0029845
0.00298186
0.00297921
0.00297654
0.00297386
0.00297117
0.00296847
0.00296577
0.00296307
0.00296037
0.00295767
0.00295497
0.00295228
0.00294959
0.0029469
0.00294422
0.00294154
0.00293885
0.00293617
0.00293348
0.0029308
0.00292812
0.00292543
0.00292275
0.00292006
0.00291738
0.00291469
0.00291199
0.00290927
0.00290653
0.00290378
0.00290101
0.0028982
0.00289536
0.00289248
0.00288955
0.00288658
0.00288356
0.00288053
0.00287748
0.0028744
0.00287123
0.00286797
0.00286458
0.00286102
0.00299819
0.00299633
0.00299445
0.00299256
0.00299066
0.00298874
0.00298682
0.0029849
0.00298296
0.00298102
0.00297907
0.0029771
0.00297513
0.00297316
0.00297118
0.00296919
0.00296719
0.00296519
0.00296318
0.00296117
0.00295914
0.00295711
0.00295507
0.00295303
0.00295097
0.00294891
0.00294684
0.00294477
0.00294268
0.00294059
0.0029385
0.00293639
0.00293428
0.00293216
0.00293003
0.00292789
0.00292574
0.00292359
0.00292141
0.00291923
0.00291705
0.00291485
0.00291265
0.00291041
0.00290814
0.00290581
0.00290343
0.00290097
0.00289842
0.00289575
0.00299815
0.00299625
0.00299435
0.00299244
0.00299051
0.00298858
0.00298664
0.0029847
0.00298275
0.0029808
0.00297884
0.00297687
0.00297489
0.00297292
0.00297094
0.00296895
0.00296696
0.00296497
0.00296298
0.00296098
0.00295897
0.00295696
0.00295495
0.00295293
0.00295091
0.00294889
0.00294686
0.00294482
0.00294278
0.00294074
0.0029387
0.00293665
0.00293459
0.00293254
0.00293048
0.00292842
0.00292635
0.00292427
0.00292219
0.0029201
0.00291801
0.00291592
0.00291382
0.00291172
0.00290961
0.00290751
0.00290539
0.00290328
0.00290115
0.00289901
0.00299885
0.00299787
0.00299672
0.00299557
0.00299441
0.00299325
0.00299209
0.00299092
0.00298974
0.00298856
0.00298738
0.0029862
0.00298503
0.00298386
0.00298269
0.00298154
0.00298039
0.00297924
0.00297811
0.00297698
0.00297586
0.00297474
0.00297364
0.00297254
0.00297144
0.00297035
0.00296927
0.00296819
0.00296712
0.00296605
0.00296499
0.00296393
0.00296289
0.00296184
0.0029608
0.00295976
0.00295872
0.00295768
0.00295664
0.00295559
0.00295454
0.00295349
0.00295242
0.00295134
0.00295024
0.00294911
0.00294796
0.00294676
0.0029455
0.00294414
0.00307545
0.00315592
0.0032382
0.00332097
0.00340339
0.00348497
0.00356576
0.0036462
0.00372696
0.00380876
0.00389225
0.00397796
0.00406627
0.00415744
0.0042516
0.0043488
0.00444898
0.00455203
0.00465783
0.0047662
0.00487696
0.00498993
0.00510495
0.00522187
0.00534057
0.00546096
0.00558297
0.00570654
0.00583158
0.005958
0.00608568
0.00621451
0.00634432
0.00647495
0.00660617
0.00673777
0.00686947
0.00700095
0.00713186
0.00726179
0.00739026
0.00751669
0.0076404
0.00776053
0.00787604
0.00798563
0.00808772
0.00818034
0.00826118
0.00832913
0.0589323
0.0574901
0.0561253
0.0548308
0.0535983
0.0524195
0.0512866
0.0501966
0.0491471
0.0481361
0.0471617
0.0462224
0.0453165
0.0444425
0.043599
0.0427845
0.0419977
0.0412373
0.0405021
0.0397911
0.0391033
0.0384378
0.0377937
0.0371705
0.0365673
0.0359835
0.0354182
0.0348707
0.0343401
0.0338257
0.0333266
0.0328422
0.0323721
0.0319157
0.0314728
0.0310431
0.0306263
0.0302221
0.0298302
0.0294487
0.0290762
0.028712
0.0283552
0.0280049
0.0276601
0.0273193
0.0269808
0.0266413
0.0262954
0.0259326
0.0580915
0.0554626
0.0530089
0.0507119
0.0485621
0.0465497
0.0446666
0.042902
0.0412462
0.0396904
0.0382268
0.0368482
0.0355479
0.0343201
0.0331593
0.0320604
0.0310191
0.0300311
0.0290928
0.0282009
0.0273524
0.0265447
0.0257752
0.0250416
0.0243419
0.0236738
0.0230353
0.0224243
0.021839
0.0212777
0.0207388
0.0202211
0.0197235
0.0192448
0.0187839
0.01834
0.017912
0.0174989
0.0170996
0.0167147
0.0163439
0.0159864
0.0156414
0.0153082
0.0149862
0.0146747
0.0143729
0.0140802
0.0137957
0.0135181
0.0580878
0.0554502
0.05298
0.0506686
0.0485038
0.0464745
0.04457
0.0427806
0.0410971
0.0395114
0.0380161
0.0366045
0.0352704
0.0340081
0.0328126
0.031679
0.0306031
0.029581
0.0286092
0.0276843
0.0268037
0.0259645
0.0251644
0.0244011
0.0236725
0.0229765
0.0223112
0.0216745
0.0210648
0.0204804
0.0199198
0.0193818
0.0188652
0.0183689
0.0178922
0.0174342
0.016994
0.0165708
0.0161637
0.0157721
0.015395
0.0150318
0.0146818
0.0143444
0.0140191
0.0137053
0.0134025
0.0131105
0.0128288
0.0125571
0.0580879
0.055469
0.0530204
0.050729
0.0485813
0.0465655
0.0446712
0.0428887
0.0412098
0.0396265
0.038132
0.0367197
0.0353839
0.034119
0.0329202
0.0317828
0.0307027
0.0296762
0.0286998
0.0277703
0.0268848
0.0260409
0.0252361
0.0244681
0.0237349
0.0230343
0.0223644
0.0217233
0.0211092
0.0205206
0.019956
0.0194141
0.0188939
0.0183942
0.0179141
0.0174528
0.0170094
0.0165831
0.016173
0.0157784
0.0153985
0.0150325
0.0146798
0.0143398
0.0140119
0.0136957
0.0133907
0.0130963
0.0128123
0.0125382
0.0580879
0.0554694
0.0530197
0.0507254
0.0485741
0.0465547
0.0446569
0.0428718
0.0411908
0.0396062
0.0381111
0.0366987
0.0353632
0.034099
0.032901
0.0317648
0.030686
0.0296609
0.0286859
0.027758
0.0268742
0.0260319
0.0252287
0.0244623
0.0237305
0.0230313
0.0223627
0.0217228
0.0211099
0.0205223
0.0199587
0.0194177
0.0188983
0.0183994
0.0179201
0.0174594
0.0170166
0.0165908
0.0161811
0.0157868
0.0154071
0.0150413
0.0146886
0.0143486
0.0140206
0.0137042
0.0133988
0.0131041
0.0128196
0.0125447
0.0580879
0.0554707
0.0530237
0.0507329
0.0485857
0.0465705
0.0446771
0.042896
0.0412187
0.0396373
0.0381448
0.0367346
0.0354007
0.0341376
0.0329404
0.0318045
0.0307258
0.0297005
0.0287253
0.027797
0.0269127
0.0260699
0.025266
0.0244989
0.0237664
0.0230663
0.0223967
0.0217558
0.0211419
0.0205533
0.0199886
0.0194467
0.0189263
0.0184264
0.0179461
0.0174845
0.0170406
0.0166137
0.016203
0.0158076
0.0154267
0.0150596
0.0147057
0.0143644
0.0140351
0.0137174
0.0134106
0.0131145
0.0128284
0.0125519
0.0580878
0.0554707
0.0530241
0.0507334
0.0485861
0.0465705
0.0446765
0.0428946
0.0412164
0.0396341
0.0381406
0.0367294
0.0353946
0.0341306
0.0329326
0.0317961
0.0307169
0.0296913
0.0287159
0.0277875
0.0269034
0.0260607
0.0252571
0.0244903
0.023758
0.0230581
0.0223888
0.0217481
0.0211344
0.0205461
0.0199818
0.0194402
0.0189202
0.0184207
0.0179407
0.0174794
0.0170358
0.0166091
0.0161985
0.0158031
0.0154222
0.015055
0.0147011
0.0143596
0.0140301
0.0137121
0.0134051
0.0131086
0.0128221
0.0125451
0.0580877
0.0554706
0.0530241
0.0507338
0.0485871
0.0465725
0.0446795
0.0428989
0.041222
0.039641
0.0381486
0.0367385
0.0354045
0.0341413
0.0329438
0.0318078
0.030729
0.0297038
0.0287288
0.0278008
0.0269169
0.0260745
0.025271
0.0245041
0.0237717
0.0230717
0.0224021
0.0217611
0.021147
0.0205584
0.0199938
0.0194518
0.0189315
0.0184316
0.0179512
0.0174894
0.0170453
0.016618
0.0162066
0.0158105
0.0154288
0.0150608
0.0147059
0.0143635
0.0140331
0.0137141
0.0134061
0.0131085
0.0128208
0.0125426
0.0580876
0.0554702
0.0530236
0.0507334
0.0485869
0.0465724
0.0446797
0.0428993
0.0412225
0.0396415
0.038149
0.0367385
0.035404
0.0341403
0.0329423
0.0318058
0.0307266
0.0297011
0.0287258
0.0277977
0.0269137
0.0260712
0.0252677
0.0245007
0.0237681
0.0230679
0.0223981
0.0217569
0.0211428
0.0205541
0.0199895
0.0194477
0.0189274
0.0184276
0.0179472
0.0174854
0.0170411
0.0166136
0.0162021
0.0158057
0.0154237
0.0150554
0.0147001
0.0143573
0.0140265
0.0137071
0.0133986
0.0131004
0.0128122
0.0125334
0.0580875
0.0554699
0.053023
0.0507328
0.0485864
0.0465723
0.04468
0.0429
0.0412236
0.0396429
0.0381507
0.0367404
0.035406
0.0341423
0.0329444
0.0318079
0.0307289
0.0297036
0.0287286
0.0278008
0.026917
0.0260747
0.0252712
0.0245042
0.0237715
0.0230711
0.0224012
0.0217599
0.0211457
0.0205569
0.0199922
0.0194503
0.0189299
0.01843
0.0179494
0.0174873
0.0170428
0.0166149
0.0162029
0.015806
0.0154234
0.0150545
0.0146986
0.0143552
0.0140237
0.0137036
0.0133943
0.0130954
0.0128063
0.0125266
0.0580874
0.0554695
0.0530225
0.0507321
0.0485858
0.0465718
0.0446798
0.0429
0.0412239
0.0396433
0.038151
0.0367406
0.0354061
0.0341422
0.0329441
0.0318076
0.0307286
0.0297034
0.0287286
0.0278009
0.0269172
0.0260749
0.0252714
0.0245042
0.0237714
0.0230708
0.0224006
0.0217592
0.0211449
0.0205561
0.0199914
0.0194494
0.018929
0.0184289
0.0179482
0.0174859
0.0170411
0.0166128
0.0162005
0.0158031
0.0154201
0.0150507
0.0146944
0.0143504
0.0140183
0.0136976
0.0133877
0.013088
0.0127982
0.0125177
0.0580874
0.0554692
0.0530219
0.0507314
0.048585
0.0465711
0.0446791
0.0428994
0.0412232
0.0396425
0.0381499
0.0367391
0.0354042
0.03414
0.0329416
0.0318049
0.0307258
0.0297006
0.0287258
0.027798
0.0269144
0.026072
0.0252682
0.0245009
0.0237677
0.0230669
0.0223966
0.0217551
0.0211407
0.0205519
0.0199873
0.0194453
0.0189249
0.0184248
0.017944
0.0174816
0.0170366
0.0166082
0.0161955
0.015798
0.0154147
0.015045
0.0146883
0.0143439
0.0140114
0.0136902
0.0133797
0.0130795
0.0127891
0.0125079
0.0580873
0.0554689
0.0530213
0.0507306
0.0485841
0.0465703
0.0446785
0.042899
0.041223
0.0396425
0.0381501
0.0367395
0.0354048
0.0341408
0.0329428
0.0318065
0.0307278
0.0297031
0.0287287
0.0278013
0.0269179
0.0260755
0.0252718
0.0245043
0.023771
0.02307
0.0223996
0.0217579
0.0211434
0.0205545
0.0199898
0.0194477
0.0189271
0.0184267
0.0179456
0.0174828
0.0170373
0.0166085
0.0161954
0.0157973
0.0154135
0.0150432
0.0146859
0.0143409
0.0140076
0.0136856
0.0133742
0.0130731
0.0127817
0.0124995
0.0580872
0.0554685
0.0530204
0.0507291
0.048582
0.0465675
0.0446749
0.0428946
0.0412176
0.0396359
0.0381424
0.0367306
0.0353949
0.03413
0.0329313
0.0317945
0.0307155
0.0296905
0.0287159
0.0277883
0.0269047
0.0260622
0.0252582
0.0244906
0.0237572
0.0230561
0.0223857
0.0217442
0.0211299
0.0205412
0.0199767
0.0194349
0.0189145
0.0184144
0.0179334
0.0174707
0.0170254
0.0165966
0.0161836
0.0157857
0.0154019
0.0150317
0.0146743
0.0143292
0.0139958
0.0136735
0.0133618
0.0130603
0.0127684
0.0124857
0.0580872
0.0554681
0.0530195
0.0507279
0.0485809
0.046567
0.0446753
0.0428959
0.04122
0.0396393
0.0381468
0.0367359
0.035401
0.0341368
0.0329389
0.0318027
0.0307242
0.0296996
0.0287253
0.0277979
0.0269141
0.0260714
0.025267
0.0244989
0.023765
0.0230635
0.0223926
0.0217506
0.0211359
0.0205468
0.0199818
0.0194395
0.0189185
0.0184178
0.0179362
0.0174728
0.0170268
0.0165974
0.0161838
0.0157852
0.0154008
0.0150298
0.0146717
0.0143257
0.0139913
0.013668
0.0133552
0.0130526
0.0127595
0.0124756
0.0580872
0.0554666
0.0530152
0.05072
0.048569
0.0465508
0.0446549
0.0428716
0.0411921
0.0396083
0.038113
0.0367
0.0353634
0.0340982
0.0328995
0.031763
0.0306845
0.0296602
0.0286862
0.0277591
0.0268759
0.0260336
0.0252299
0.0244624
0.0237292
0.0230284
0.0223584
0.0217173
0.0211035
0.0205153
0.0199512
0.0194098
0.0188896
0.0183896
0.0179087
0.0174461
0.0170008
0.0165721
0.0161591
0.0157611
0.0153773
0.0150069
0.0146491
0.0143034
0.0139692
0.013646
0.0133334
0.0130307
0.0127377
0.0124536
0.0580871
0.0554663
0.0530158
0.0507235
0.0485761
0.0465617
0.0446692
0.0428886
0.041211
0.0396284
0.0381338
0.0367208
0.035384
0.0341181
0.0329186
0.0317811
0.0307014
0.0296757
0.0287002
0.0277715
0.0268865
0.0260425
0.025237
0.0244679
0.0237331
0.0230308
0.0223594
0.021717
0.021102
0.0205127
0.0199475
0.019405
0.0188838
0.0183828
0.017901
0.0174376
0.0169916
0.0165622
0.0161488
0.0157503
0.0153661
0.0149952
0.0146372
0.0142912
0.0139568
0.0136335
0.0133209
0.0130186
0.0127263
0.0124435
0.0580871
0.0554475
0.0529755
0.0506634
0.0484989
0.0464709
0.0445682
0.0427805
0.0410984
0.0395133
0.038018
0.0366057
0.0352707
0.0340075
0.0328114
0.0316778
0.0306024
0.0295812
0.0286104
0.0276864
0.0268063
0.0259671
0.0251664
0.0244022
0.0236723
0.022975
0.0223084
0.021671
0.0210608
0.0204763
0.0199158
0.019378
0.0188615
0.0183652
0.0178882
0.0174295
0.0169885
0.0165642
0.016156
0.015763
0.0153844
0.0150196
0.0146679
0.0143289
0.0140022
0.0136875
0.0133848
0.0130941
0.0128157
0.0125503
0.0580908
0.05546
0.0530045
0.0507069
0.0485576
0.0465464
0.0446652
0.0429024
0.041248
0.039693
0.0382295
0.0368504
0.0355495
0.0343211
0.0331601
0.0320617
0.0310214
0.030035
0.0290985
0.0282084
0.0273613
0.0265545
0.0257855
0.0250521
0.0243523
0.0236845
0.0230467
0.0224374
0.0218548
0.0212972
0.0207631
0.020251
0.0197598
0.0192883
0.0188358
0.0184015
0.0179847
0.0175849
0.0172015
0.0168337
0.0164812
0.0161433
0.0158198
0.0155106
0.0152159
0.0149362
0.0146724
0.0144262
0.0142009
0.0140034
0.0589317
0.0574886
0.0561232
0.0548287
0.0535967
0.0524188
0.0512868
0.0501975
0.0491483
0.0481372
0.0471625
0.0462225
0.0453159
0.0444413
0.0435974
0.0427827
0.0419959
0.0412355
0.0405003
0.0397889
0.0391005
0.0384341
0.037789
0.0371645
0.0365599
0.0359745
0.0354074
0.0348578
0.0343248
0.0338075
0.0333052
0.0328171
0.0323428
0.0318816
0.0314333
0.0309973
0.0305732
0.0301605
0.0297586
0.0293668
0.0289845
0.0286112
0.0282464
0.0278896
0.0275405
0.0271985
0.0268631
0.0265334
0.0262084
0.0258867
0.0112729
0.00287902
0.00184035
0.00171548
0.00165654
0.00161067
0.0015626
0.00151835
0.00147477
0.00143463
0.00139877
0.00137311
0.00137135
0.00142417
0.00159125
0.00197174
0.00270322
0.00392615
0.00569166
0.00807833
0.01147
0.00294586
0.00186153
0.00173274
0.00167351
0.00162903
0.00158146
0.00153814
0.00149495
0.00145483
0.00141714
0.00138509
0.0013659
0.00137786
0.00146353
0.00170621
0.00225409
0.00332717
0.0051581
0.00797213
0.0116604
0.00301145
0.00188264
0.00174991
0.00169021
0.00164707
0.00159986
0.0015574
0.00151457
0.00147481
0.00143661
0.00140188
0.0013744
0.00136453
0.00140154
0.00155089
0.00195573
0.00288631
0.00476885
0.00833535
0.0118434
0.00307543
0.00190368
0.00176705
0.00170672
0.00166486
0.00161786
0.0015762
0.00153363
0.00149427
0.001456
0.0014202
0.00138888
0.00136743
0.0013761
0.0014637
0.00175955
0.00255134
0.00441211
0.00856341
0.0120182
0.0031373
0.00192458
0.00178413
0.00172304
0.00168239
0.00163545
0.00159451
0.00155212
0.00151312
0.00147492
0.00143869
0.00140568
0.00137802
0.00137042
0.00141756
0.00163366
0.00230335
0.00410925
0.008729
0.0121839
0.00319676
0.0019453
0.00180117
0.00173921
0.0016997
0.0016527
0.00161242
0.00157013
0.00153141
0.00149325
0.00145674
0.00142298
0.00139182
0.00137498
0.00139548
0.00155375
0.00212046
0.00385798
0.00885715
0.01234
0.00325357
0.00196582
0.00181816
0.00175521
0.00171677
0.00166964
0.00163
0.00158772
0.00154924
0.00151111
0.0014744
0.00144026
0.00140696
0.00138478
0.00138752
0.00150406
0.00198537
0.00365117
0.00896062
0.0124864
0.00330762
0.00198608
0.0018351
0.00177114
0.00173365
0.00168631
0.00164724
0.00160487
0.00156653
0.00152839
0.00149149
0.00145727
0.00142253
0.00139732
0.00138786
0.00147422
0.00188549
0.00348162
0.00904683
0.0126229
0.00335886
0.00200612
0.00185199
0.00178702
0.00175042
0.0017028
0.00166422
0.00162176
0.00158346
0.00154528
0.00150809
0.00147391
0.00143807
0.00141115
0.00139312
0.00145751
0.00181162
0.00334297
0.00912035
0.0127493
0.00340711
0.00202583
0.00186882
0.00180282
0.00176712
0.00171913
0.00168096
0.00163833
0.00160002
0.00156184
0.00152434
0.00149022
0.00145346
0.00142558
0.00140132
0.0014496
0.00175708
0.00322983
0.00918438
0.0128662
0.00345248
0.00204525
0.00188561
0.00181857
0.00178368
0.00173532
0.00169753
0.00165474
0.00161635
0.00157813
0.00154031
0.00150626
0.00146865
0.00144025
0.00141132
0.00144767
0.00171706
0.0031377
0.00924112
0.0129737
0.00349516
0.00206441
0.00190241
0.00183446
0.0018002
0.00175146
0.00171397
0.00167103
0.00163253
0.00159427
0.00155606
0.00152207
0.00148365
0.001455
0.00142247
0.00144988
0.0016881
0.00306301
0.00929207
0.0130719
0.00353532
0.00208339
0.00191919
0.00185048
0.00181674
0.00176763
0.00173033
0.00168719
0.00164859
0.00161025
0.00157165
0.0015377
0.00149849
0.00146974
0.00143438
0.00145503
0.00166766
0.00300281
0.00933842
0.0131618
0.00357314
0.00210221
0.00193602
0.00186659
0.0018333
0.00178384
0.00174667
0.00170326
0.00166455
0.00162613
0.00158711
0.00155321
0.00151323
0.00148448
0.00144684
0.0014623
0.00165384
0.00295461
0.00938112
0.0132447
0.003609
0.00212091
0.00195299
0.00188275
0.00184989
0.00180007
0.00176293
0.00171931
0.00168043
0.00164194
0.0016025
0.00156866
0.00152795
0.00149922
0.00145971
0.00147113
0.00164521
0.00291645
0.00942097
0.0133212
0.00364314
0.0021395
0.00197006
0.00189899
0.00186648
0.00181633
0.00177915
0.00173536
0.00169631
0.00165774
0.00161787
0.00158406
0.00154269
0.00151398
0.00147289
0.00148115
0.00164073
0.00288673
0.00945863
0.0133918
0.00367569
0.00215808
0.00198716
0.00191538
0.00188313
0.00183261
0.00179541
0.00175145
0.00171222
0.00167356
0.00163326
0.00159945
0.00155746
0.00152878
0.00148635
0.00149209
0.00163959
0.00286415
0.00949452
0.0134571
0.00370682
0.00217667
0.00200432
0.00193194
0.00189989
0.00184902
0.00181177
0.00176765
0.00172818
0.00168941
0.00164868
0.00161485
0.0015723
0.00154364
0.00150008
0.00150379
0.0016412
0.0028476
0.00952897
0.0135179
0.00373679
0.00219528
0.0020216
0.00194878
0.00191677
0.00186561
0.00182828
0.00178395
0.00174423
0.00170532
0.00166418
0.00163032
0.00158726
0.0015586
0.00151404
0.00151609
0.00164504
0.0028361
0.0095623
0.0135748
0.0037658
0.00221393
0.00203906
0.00196583
0.00193381
0.00188239
0.00184492
0.00180036
0.00176035
0.0017213
0.00167978
0.00164587
0.00160235
0.00157367
0.00152821
0.00152887
0.00165072
0.00282883
0.00959479
0.0136284
0.003794
0.00223263
0.00205672
0.00198309
0.00195099
0.00189934
0.00186168
0.00181687
0.00177657
0.00173739
0.00169554
0.00166156
0.00161757
0.00158885
0.00154257
0.00154206
0.00165791
0.00282519
0.00962673
0.0136789
0.00382147
0.00225143
0.00207453
0.00200052
0.00196833
0.00191644
0.00187857
0.00183353
0.00179295
0.00175365
0.00171147
0.00167738
0.00163294
0.00160412
0.00155711
0.00155561
0.0016664
0.00282471
0.00965833
0.0137268
0.00384831
0.00227031
0.00209248
0.00201816
0.00198584
0.0019337
0.0018956
0.00185037
0.00180954
0.0017701
0.00172757
0.00169335
0.00164845
0.00161951
0.00157184
0.00156951
0.00167604
0.00282703
0.00968969
0.0137721
0.00387468
0.00228929
0.00211059
0.00203601
0.00200352
0.00195115
0.00191284
0.00186744
0.00182635
0.00178674
0.00174384
0.00170946
0.00166411
0.00163504
0.00158679
0.00158376
0.0016867
0.0028318
0.00972077
0.0138156
0.00390075
0.00230841
0.00212891
0.00205409
0.00202139
0.0019688
0.00193029
0.00188473
0.00184336
0.00180355
0.00176026
0.00172571
0.00167994
0.00165075
0.00160199
0.00159833
0.00169824
0.00283862
0.00975156
0.0138577
0.0039266
0.00232771
0.00214744
0.00207238
0.00203946
0.00198667
0.00194793
0.0019022
0.00186053
0.0018205
0.00177683
0.00174211
0.00169598
0.00166666
0.00161742
0.00161319
0.0017105
0.00284708
0.0097821
0.0138986
0.00395226
0.00234717
0.00216615
0.00209085
0.0020577
0.00200475
0.00196575
0.00191983
0.00187783
0.0018376
0.00179358
0.0017587
0.00171224
0.00168276
0.00163306
0.00162829
0.00172336
0.00285685
0.00981254
0.0139383
0.00397778
0.00236678
0.00218503
0.00210954
0.00207614
0.00202303
0.00198374
0.00193762
0.00189528
0.00185487
0.00181053
0.00177549
0.0017287
0.00169905
0.00164888
0.0016436
0.00173674
0.00286773
0.0098431
0.0139767
0.00400323
0.00238654
0.00220411
0.00212847
0.0020948
0.00204154
0.00200192
0.0019556
0.00191291
0.00187233
0.0018277
0.00179249
0.00174537
0.0017155
0.00166489
0.00165913
0.00175061
0.00287964
0.00987397
0.0140142
0.00402872
0.00240652
0.00222345
0.00214769
0.00211371
0.00206027
0.00202031
0.00197378
0.00193078
0.00189003
0.00184511
0.00180969
0.00176223
0.00173213
0.00168109
0.00167491
0.00176496
0.00289255
0.00990521
0.0140511
0.00405442
0.00242677
0.00224308
0.00216722
0.00213287
0.00207924
0.00203893
0.00199221
0.0019489
0.00190796
0.00186274
0.00182711
0.0017793
0.00174897
0.00169753
0.00169097
0.00177979
0.00290644
0.00993676
0.0140881
0.00407998
0.00244731
0.002263
0.00218701
0.00215229
0.00209847
0.00205782
0.00201091
0.00196729
0.00192614
0.0018806
0.00184474
0.0017966
0.00176602
0.00171421
0.0017073
0.00179506
0.00292118
0.00996853
0.0141259
0.00410491
0.00246812
0.00228316
0.00220706
0.00217195
0.00211798
0.00207698
0.00202989
0.00198595
0.00194457
0.00189869
0.00186259
0.00181412
0.00178329
0.00173113
0.00172388
0.00181072
0.00293663
0.0100005
0.0141644
0.00412917
0.00248915
0.00230354
0.00222734
0.00219189
0.00213775
0.00209642
0.00204913
0.00200484
0.00196322
0.001917
0.00188066
0.00183186
0.0018008
0.0017483
0.00174071
0.00182674
0.00295265
0.0100326
0.0142033
0.00415276
0.00251038
0.00232415
0.00224789
0.00221209
0.00215779
0.0021161
0.00206861
0.00202396
0.0019821
0.00193555
0.00189896
0.00184985
0.00181854
0.0017657
0.00175778
0.00184309
0.00296917
0.0100651
0.0142423
0.00417595
0.00253176
0.00234501
0.00226869
0.00223253
0.00217807
0.002136
0.00208829
0.00204329
0.0020012
0.00195434
0.0019175
0.00186808
0.00183652
0.00178334
0.00177509
0.00185975
0.00298614
0.0100979
0.0142814
0.00419902
0.00255329
0.00236615
0.00228975
0.0022532
0.00219857
0.00215612
0.0021082
0.00206286
0.00202056
0.00197339
0.00193629
0.00188656
0.00185473
0.00180122
0.00179266
0.00187673
0.00300357
0.0101311
0.0143208
0.00422209
0.00257501
0.00238752
0.00231105
0.00227409
0.00221929
0.00217647
0.00212836
0.00208271
0.00204019
0.00199269
0.00195534
0.00190529
0.0018732
0.00181937
0.0018105
0.00189405
0.00302149
0.0101647
0.0143607
0.00424513
0.0025969
0.00240913
0.0023326
0.00229522
0.00224028
0.00219711
0.00214883
0.00210285
0.00206009
0.00201226
0.00197465
0.00192429
0.00189194
0.0018378
0.00182864
0.00191171
0.0030399
0.0101986
0.0144011
0.00426806
0.00261895
0.00243096
0.00235441
0.00231664
0.00226159
0.00221806
0.00216961
0.00212328
0.00208027
0.00203211
0.00199423
0.00194359
0.00191098