/*--------------------------------*- C++ -*----------------------------------*\
  =========                 |
  \\      /  F ield         | OpenFOAM: The Open Source CFD Toolbox
   \\    /   O peration     | Website:  https://openfoam.org
    \\  /    A nd           | Version:  8
     \\/     M anipulation  |
\*---------------------------------------------------------------------------*/
FoamFile
{
    version     2.0;
    format      ascii;
    class       volScalarField;
    location    "300";
    object      T;
}
// * * * * * * * * * * * * * * * * * * * * * * * * * * * * * * * * * * * * * //

dimensions      [0 0 0 1 0 0 0];

internalField   nonuniform List<scalar> 
8400
(
293.504
293.51
293.518
293.525
293.533
293.541
293.55
293.559
293.57
293.58
293.592
293.604
293.617
293.632
293.647
293.664
293.681
293.701
293.721
293.743
293.766
293.792
293.818
293.847
293.878
293.91
293.945
293.982
294.021
294.064
294.109
294.157
294.209
294.264
294.323
294.387
294.455
294.528
294.606
294.689
294.777
294.871
294.97
295.075
295.185
295.301
295.422
295.547
295.678
295.812
293.552
293.561
293.573
293.584
293.597
293.611
293.625
293.641
293.658
293.676
293.696
293.717
293.739
293.764
293.79
293.818
293.848
293.88
293.914
293.95
293.989
294.03
294.074
294.121
294.17
294.223
294.278
294.337
294.399
294.465
294.534
294.608
294.686
294.768
294.855
294.947
295.043
295.144
295.251
295.362
295.477
295.597
295.722
295.85
295.982
296.117
296.256
296.396
296.539
296.683
293.573
293.588
293.606
293.625
293.645
293.666
293.69
293.715
293.741
293.77
293.801
293.834
293.869
293.906
293.946
293.988
294.033
294.081
294.132
294.185
294.242
294.302
294.365
294.432
294.502
294.576
294.654
294.736
294.821
294.911
295.005
295.103
295.205
295.312
295.422
295.536
295.653
295.774
295.897
296.024
296.152
296.283
296.416
296.551
296.687
296.823
296.961
297.098
297.236
297.372
293.622
293.644
293.669
293.696
293.724
293.754
293.786
293.821
293.858
293.897
293.938
293.983
294.03
294.079
294.132
294.187
294.246
294.307
294.372
294.44
294.511
294.585
294.663
294.745
294.83
294.918
295.011
295.107
295.206
295.309
295.416
295.526
295.64
295.756
295.875
295.996
296.119
296.244
296.37
296.497
296.625
296.753
296.882
297.011
297.139
297.267
297.394
297.52
297.645
297.769
293.68
293.708
293.74
293.774
293.81
293.849
293.89
293.933
293.979
294.028
294.079
294.134
294.191
294.251
294.315
294.381
294.45
294.523
294.599
294.678
294.76
294.846
294.935
295.028
295.124
295.223
295.326
295.433
295.543
295.656
295.771
295.89
296.01
296.131
296.254
296.377
296.5
296.623
296.746
296.868
296.989
297.11
297.23
297.349
297.468
297.585
297.702
297.818
297.932
298.046
293.773
293.807
293.845
293.886
293.93
293.976
294.026
294.077
294.132
294.189
294.249
294.312
294.378
294.447
294.519
294.594
294.672
294.753
294.837
294.924
295.014
295.107
295.203
295.303
295.405
295.511
295.619
295.73
295.843
295.959
296.075
296.192
296.31
296.427
296.544
296.661
296.776
296.891
297.005
297.118
297.23
297.341
297.452
297.563
297.673
297.782
297.891
298
298.108
298.216
293.913
293.944
293.983
294.026
294.073
294.124
294.178
294.236
294.296
294.36
294.425
294.493
294.564
294.638
294.714
294.793
294.875
294.959
295.047
295.137
295.229
295.325
295.423
295.524
295.628
295.734
295.843
295.953
296.065
296.177
296.289
296.401
296.513
296.624
296.735
296.846
296.956
297.065
297.175
297.284
297.393
297.502
297.612
297.721
297.831
297.941
298.051
298.161
298.27
298.378
294.232
294.225
294.232
294.251
294.281
294.32
294.367
294.42
294.478
294.541
294.606
294.674
294.745
294.819
294.895
294.974
295.055
295.138
295.225
295.314
295.405
295.5
295.597
295.698
295.801
295.908
296.017
296.127
296.238
296.349
296.461
296.573
296.685
296.797
296.91
297.022
297.135
297.248
297.362
297.476
297.59
297.705
297.82
297.935
298.049
298.163
298.275
298.386
298.494
298.6
295.249
295.1
294.978
294.886
294.822
294.782
294.764
294.764
294.78
294.81
294.851
294.901
294.958
295.023
295.092
295.166
295.243
295.324
295.409
295.498
295.592
295.692
295.798
295.91
296.027
296.147
296.27
296.394
296.517
296.64
296.762
296.882
297
297.116
297.231
297.343
297.455
297.564
297.672
297.779
297.885
297.989
298.091
298.192
298.292
298.391
298.488
298.582
298.675
298.764
297.574
297.281
297.001
296.748
296.521
296.316
296.135
295.976
295.841
295.729
295.642
295.579
295.54
295.525
295.534
295.564
295.612
295.676
295.759
295.859
295.978
296.113
296.257
296.409
296.564
296.719
296.874
297.025
297.17
297.307
297.436
297.554
297.663
297.761
297.848
297.926
297.994
298.054
298.104
298.147
298.182
298.212
298.236
298.259
298.28
298.304
298.331
298.364
298.403
298.447
299.758
299.651
299.541
299.426
299.303
299.171
299.029
298.876
298.714
298.541
298.359
298.169
297.974
297.78
297.594
297.432
297.312
297.244
297.231
297.268
297.352
297.476
297.632
297.808
297.994
298.182
298.361
298.527
298.675
298.803
298.91
298.996
299.064
299.115
299.15
299.171
299.179
299.175
299.157
299.127
299.083
299.025
298.953
298.869
298.772
298.666
298.552
298.435
298.32
298.214
300.001
300.001
300.001
300.001
300.001
300.001
300.001
300.001
300.001
300
300
299.999
299.998
299.997
299.996
299.995
299.993
299.992
299.99
299.989
299.988
299.986
299.985
299.984
299.983
299.982
299.981
299.98
299.98
299.98
299.98
299.98
299.98
299.98
299.98
299.979
299.979
299.978
299.976
299.974
299.97
299.965
299.957
299.945
299.928
299.903
299.869
299.824
299.764
299.685
300.002
300.003
300.003
300.004
300.004
300.005
300.005
300.006
300.007
300.007
300.008
300.009
300.009
300.01
300.011
300.011
300.012
300.012
300.013
300.013
300.013
300.013
300.014
300.014
300.014
300.014
300.014
300.014
300.014
300.014
300.014
300.014
300.014
300.015
300.015
300.015
300.015
300.015
300.015
300.015
300.015
300.015
300.015
300.014
300.013
300.01
300.006
299.998
299.987
299.969
300.003
300.004
300.005
300.006
300.007
300.007
300.008
300.009
300.01
300.011
300.012
300.013
300.014
300.014
300.015
300.016
300.017
300.017
300.018
300.019
300.019
300.02
300.02
300.02
300.021
300.021
300.021
300.021
300.022
300.022
300.022
300.022
300.023
300.023
300.023
300.023
300.024
300.024
300.024
300.024
300.024
300.024
300.025
300.025
300.025
300.024
300.024
300.023
300.022
300.02
300.009
300.01
300.011
300.012
300.013
300.015
300.016
300.017
300.018
300.019
300.02
300.021
300.022
300.023
300.024
300.025
300.026
300.027
300.028
300.029
300.029
300.03
300.03
300.031
300.031
300.032
300.032
300.032
300.033
300.033
300.033
300.034
300.034
300.034
300.035
300.035
300.035
300.035
300.036
300.036
300.036
300.036
300.036
300.036
300.036
300.036
300.036
300.035
300.034
300.033
300.005
300.007
300.007
300.007
300.008
300.009
300.01
300.011
300.012
300.014
300.015
300.016
300.017
300.018
300.019
300.021
300.022
300.023
300.024
300.025
300.026
300.027
300.028
300.029
300.03
300.031
300.032
300.033
300.034
300.035
300.036
300.037
300.037
300.038
300.038
300.039
300.039
300.04
300.04
300.04
300.04
300.04
300.039
300.038
300.037
300.036
300.035
300.033
300.032
300.03
300.018
300.022
300.025
300.027
300.03
300.033
300.035
300.037
300.039
300.041
300.043
300.046
300.048
300.05
300.052
300.054
300.057
300.059
300.061
300.063
300.065
300.067
300.069
300.071
300.072
300.074
300.075
300.076
300.077
300.078
300.079
300.08
300.08
300.081
300.081
300.081
300.082
300.082
300.082
300.082
300.082
300.082
300.082
300.082
300.082
300.082
300.083
300.084
300.085
300.086
300.006
300.006
300.006
300.006
300.007
300.007
300.006
300.005
300.003
300.002
300.001
300.001
300
300
300
300.001
300.001
300.002
300.003
300.003
300.004
300.004
300.005
300.005
300.005
300.005
300.005
300.005
300.004
300.004
300.003
300.002
300
299.999
299.997
299.996
299.994
299.992
299.99
299.988
299.985
299.983
299.981
299.978
299.975
299.972
299.97
299.966
299.963
299.959
300.03
300.033
300.037
300.041
300.047
300.055
300.063
300.072
300.081
300.089
300.098
300.106
300.113
300.12
300.127
300.134
300.14
300.147
300.153
300.16
300.166
300.173
300.18
300.187
300.194
300.201
300.208
300.215
300.223
300.23
300.237
300.245
300.252
300.259
300.266
300.274
300.281
300.288
300.296
300.303
300.311
300.318
300.325
300.333
300.341
300.349
300.357
300.366
300.375
300.383
300.004
300.003
300.003
300.003
300.003
300.004
300.005
300.006
300.008
300.009
300.012
300.014
300.016
300.018
300.02
300.022
300.024
300.025
300.027
300.029
300.03
300.031
300.032
300.033
300.033
300.034
300.034
300.034
300.034
300.034
300.034
300.034
300.033
300.033
300.032
300.032
300.031
300.031
300.03
300.03
300.029
300.029
300.029
300.029
300.029
300.03
300.03
300.031
300.032
300.034
303.148
303.145
303.143
303.14
303.137
303.135
303.132
303.13
303.127
303.125
303.123
303.12
303.118
303.116
303.113
303.111
303.109
303.107
303.105
303.102
303.1
303.098
303.096
303.094
303.092
303.09
303.088
303.086
303.084
303.082
303.08
303.079
303.077
303.075
303.073
303.071
303.069
303.068
303.066
303.064
303.062
303.061
303.059
303.057
303.056
303.054
303.053
303.052
303.051
303.05
303.15
303.15
303.15
303.15
303.15
303.15
303.15
303.149
303.149
303.149
303.149
303.149
303.148
303.148
303.148
303.148
303.148
303.147
303.147
303.147
303.146
303.146
303.146
303.146
303.145
303.145
303.145
303.144
303.144
303.144
303.143
303.143
303.143
303.142
303.142
303.142
303.141
303.141
303.141
303.141
303.14
303.14
303.14
303.139
303.139
303.139
303.139
303.139
303.138
303.138
303.15
303.15
303.15
303.15
303.15
303.15
303.15
303.15
303.15
303.15
303.15
303.15
303.15
303.15
303.15
303.15
303.15
303.15
303.15
303.15
303.15
303.15
303.15
303.15
303.15
303.15
303.15
303.15
303.15
303.15
303.15
303.15
303.15
303.15
303.15
303.149
303.149
303.149
303.149
303.149
303.149
303.149
303.149
303.149
303.149
303.149
303.149
303.149
303.149
303.149
303.15
303.15
303.15
303.15
303.15
303.15
303.15
303.15
303.15
303.15
303.15
303.15
303.15
303.15
303.15
303.15
303.15
303.15
303.15
303.15
303.15
303.15
303.15
303.15
303.15
303.15
303.15
303.15
303.15
303.15
303.15
303.15
303.15
303.15
303.15
303.15
303.15
303.15
303.15
303.15
303.15
303.15
303.15
303.15
303.15
303.15
303.15
303.15
303.15
303.15
303.15
303.15
303.15
303.15
303.15
303.15
303.15
303.15
303.15
303.15
303.15
303.15
303.15
303.15
303.15
303.15
303.15
303.15
303.15
303.15
303.15
303.15
303.15
303.15
303.15
303.15
303.15
303.15
303.15
303.15
303.15
303.15
303.15
303.15
303.15
303.15
303.15
303.15
303.15
303.15
303.15
303.15
303.15
303.15
303.15
303.15
303.15
303.15
303.15
303.15
303.15
303.15
303.15
303.15
303.15
303.15
303.15
303.15
303.15
303.15
303.15
303.15
303.15
303.15
303.15
303.15
303.15
303.15
303.15
303.15
303.15
303.15
303.15
303.15
303.15
303.15
303.15
303.15
303.15
303.15
303.15
303.15
303.15
303.15
303.15
303.15
303.15
303.15
303.15
303.15
303.15
303.15
303.15
303.15
303.15
303.15
303.15
303.15
303.15
303.15
303.15
303.15
303.15
303.15
303.15
303.15
303.15
303.15
303.15
303.15
303.15
303.15
303.15
303.15
303.15
303.15
303.15
303.15
303.15
303.15
303.15
303.15
303.15
303.15
303.15
303.15
303.15
303.15
303.15
303.15
303.15
303.15
303.15
303.15
303.15
303.15
303.15
303.15
303.15
303.15
303.15
303.15
303.15
303.15
303.15
303.15
303.15
303.15
303.15
303.15
303.15
303.15
303.15
303.15
303.15
303.15
303.15
303.15
303.15
303.15
303.15
303.15
303.15
303.15
303.15
303.15
303.15
303.15
303.15
303.15
303.15
303.15
303.15
303.15
303.15
303.15
303.15
303.15
303.15
303.15
303.15
303.15
303.15
303.15
303.15
303.15
303.15
303.15
303.15
303.15
303.15
303.15
303.15
303.15
303.15
303.15
303.15
303.15
303.15
303.15
303.15
303.15
303.15
303.15
303.15
303.15
303.15
303.15
303.15
303.15
303.15
303.15
303.15
303.15
303.15
303.15
303.15
303.15
303.15
303.15
303.15
303.15
303.15
303.15
303.15
303.15
303.15
303.15
303.15
303.15
303.15
303.15
303.15
303.15
303.15
303.15
303.15
303.15
303.15
303.15
303.15
303.15
303.15
303.15
303.15
303.15
303.15
303.15
303.15
303.15
303.15
303.15
303.15
303.15
303.15
303.15
303.15
303.15
303.15
303.15
303.15
303.15
303.15
303.15
303.15
303.15
303.15
303.15
303.15
303.15
303.15
303.15
303.15
303.15
303.15
303.15
303.15
303.15
303.15
303.15
303.15
303.15
303.15
303.15
303.15
303.15
303.15
303.15
303.15
303.15
303.15
303.15
303.15
303.15
303.15
303.15
303.15
303.15
303.15
303.15
303.15
303.15
303.15
303.15
303.15
303.15
303.15
303.15
303.15
303.15
303.15
303.15
303.15
303.15
303.15
303.15
303.15
303.15
303.15
303.15
303.15
303.15
303.15
303.15
303.15
303.15
303.15
303.15
303.15
303.15
303.15
303.15
303.15
303.15
303.15
303.15
303.15
303.15
303.15
303.15
303.15
303.15
303.15
303.15
303.15
303.15
303.15
303.15
303.15
303.15
303.15
303.15
303.15
303.15
303.15
303.15
303.15
303.15
303.15
303.15
303.15
303.15
303.15
303.15
303.15
303.15
303.15
303.15
303.15
303.15
303.15
303.15
303.15
303.15
303.15
303.15
303.15
303.15
303.15
303.15
303.15
303.15
303.15
303.15
303.15
303.15
303.15
303.15
303.15
303.15
303.15
303.15
303.15
303.15
303.15
303.15
303.15
303.15
303.15
303.15
303.15
303.15
303.15
303.15
303.15
303.15
303.15
303.15
303.15
303.15
303.15
303.15
303.15
303.15
303.15
303.15
303.15
303.15
303.15
303.15
303.15
303.15
303.15
303.15
303.15
303.15
303.15
303.15
303.15
303.15
303.15
303.15
303.15
303.15
303.15
303.15
303.15
303.15
303.15
303.15
303.15
303.15
303.15
303.15
303.15
303.15
303.15
303.15
303.15
303.15
303.15
303.15
303.15
303.15
303.15
303.15
303.15
303.15
303.15
303.15
303.15
303.15
303.15
303.15
303.15
303.15
303.15
303.15
303.15
303.15
303.15
303.15
303.15
303.15
303.15
303.15
303.15
303.15
303.15
303.15
303.15
303.15
303.15
303.15
303.15
303.15
303.15
303.15
303.15
303.15
303.15
303.15
303.15
303.15
303.15
303.15
303.15
303.15
303.15
303.15
303.15
303.15
303.15
303.15
303.15
303.15
303.15
303.15
303.15
303.15
303.15
303.15
303.15
303.15
303.15
303.15
303.15
303.15
303.15
303.15
303.15
303.15
303.15
303.15
303.15
303.15
303.15
303.15
303.15
303.15
303.15
303.15
303.15
303.15
303.15
303.15
303.15
303.15
303.15
303.15
303.15
303.15
303.15
303.15
303.15
303.15
303.15
303.15
303.15
303.15
303.15
303.15
303.15
303.15
303.15
303.15
303.15
303.15
303.15
303.15
303.15
303.15
303.15
303.15
303.15
303.15
303.15
303.15
303.15
303.15
303.15
303.15
303.15
303.15
303.15
303.15
303.15
303.15
303.15
303.15
303.15
303.15
303.15
303.15
303.15
303.15
303.15
303.15
303.15
303.15
303.15
303.15
303.15
303.15
303.15
303.15
303.15
303.15
303.15
303.15
303.15
303.15
303.15
303.15
303.15
303.15
303.15
303.15
303.15
303.15
303.15
303.15
303.15
303.15
303.15
303.15
303.15
303.15
303.15
303.15
303.15
303.15
303.15
303.15
303.15
303.15
303.15
303.15
303.15
303.15
303.15
303.15
303.15
303.15
303.15
303.15
303.15
303.15
303.15
303.15
303.15
303.15
303.15
303.15
303.15
303.15
303.15
303.15
303.15
303.15
303.15
303.15
303.15
303.15
303.15
303.15
303.15
303.15
303.15
303.15
303.15
303.15
303.15
303.15
303.15
303.15
303.15
303.15
303.15
303.15
303.15
303.15
303.15
303.15
303.15
303.15
303.15
303.15
303.15
303.15
303.15
303.15
303.149
303.149
303.149
303.149
303.149
303.149
303.149
303.149
303.149
303.149
303.149
303.149
303.149
303.149
303.148
303.148
303.148
303.148
303.15
303.15
303.15
303.15
303.15
303.15
303.15
303.149
303.149
303.149
303.149
303.149
303.148
303.148
303.148
303.148
303.148
303.147
303.147
303.147
303.146
303.146
303.146
303.146
303.145
303.145
303.145
303.144
303.144
303.144
303.143
303.143
303.142
303.142
303.142
303.141
303.141
303.14
303.14
303.14
303.139
303.139
303.138
303.137
303.137
303.136
303.136
303.135
303.134
303.133
303.148
303.145
303.143
303.14
303.137
303.135
303.132
303.13
303.127
303.125
303.123
303.12
303.118
303.116
303.113
303.111
303.109
303.107
303.105
303.102
303.1
303.098
303.096
303.094
303.092
303.09
303.088
303.086
303.084
303.082
303.08
303.078
303.077
303.075
303.073
303.071
303.069
303.067
303.066
303.064
303.062
303.06
303.059
303.057
303.055
303.053
303.052
303.05
303.048
303.047
302.909
303.091
303.142
303.149
303.15
303.15
303.15
303.15
303.15
303.15
303.15
303.149
303.149
303.147
303.141
303.127
303.096
303.038
302.943
302.811
302.906
303.089
303.141
303.149
303.15
303.15
303.15
303.15
303.15
303.15
303.15
303.15
303.149
303.148
303.144
303.134
303.11
303.058
302.964
302.814
302.903
303.088
303.141
303.149
303.15
303.15
303.15
303.15
303.15
303.15
303.15
303.15
303.149
303.149
303.146
303.139
303.119
303.073
302.979
302.816
302.9
303.086
303.141
303.149
303.15
303.15
303.15
303.15
303.15
303.15
303.15
303.15
303.15
303.149
303.147
303.142
303.126
303.084
302.991
302.818
302.898
303.085
303.14
303.149
303.15
303.15
303.15
303.15
303.15
303.15
303.15
303.15
303.15
303.149
303.148
303.144
303.131
303.092
303.001
302.82
302.896
303.084
303.14
303.149
303.15
303.15
303.15
303.15
303.15
303.15
303.15
303.15
303.15
303.15
303.149
303.145
303.134
303.099
303.009
302.821
302.894
303.083
303.14
303.149
303.15
303.15
303.15
303.15
303.15
303.15
303.15
303.15
303.15
303.15
303.149
303.146
303.137
303.104
303.016
302.823
302.892
303.082
303.14
303.149
303.15
303.15
303.15
303.15
303.15
303.15
303.15
303.15
303.15
303.15
303.149
303.147
303.139
303.109
303.021
302.824
302.891
303.081
303.139
303.149
303.15
303.15
303.15
303.15
303.15
303.15
303.15
303.15
303.15
303.15
303.149
303.148
303.14
303.112
303.026
302.825
302.89
303.08
303.139
303.149
303.15
303.15
303.15
303.15
303.15
303.15
303.15
303.15
303.15
303.15
303.15
303.148
303.141
303.115
303.03
302.827
302.889
303.08
303.139
303.149
303.15
303.15
303.15
303.15
303.15
303.15
303.15
303.15
303.15
303.15
303.15
303.148
303.142
303.117
303.033
302.828
302.888
303.08
303.139
303.149
303.15
303.15
303.15
303.15
303.15
303.15
303.15
303.15
303.15
303.15
303.15
303.148
303.143
303.119
303.036
302.829
302.888
303.079
303.139
303.149
303.15
303.15
303.15
303.15
303.15
303.15
303.15
303.15
303.15
303.15
303.15
303.149
303.144
303.121
303.038
302.83
302.888
303.079
303.139
303.149
303.15
303.15
303.15
303.15
303.15
303.15
303.15
303.15
303.15
303.15
303.15
303.149
303.144
303.122
303.04
302.832
302.888
303.079
303.139
303.149
303.15
303.15
303.15
303.15
303.15
303.15
303.15
303.15
303.15
303.15
303.15
303.149
303.144
303.123
303.042
302.833
302.888
303.079
303.139
303.149
303.15
303.15
303.15
303.15
303.15
303.15
303.15
303.15
303.15
303.15
303.15
303.149
303.145
303.124
303.044
302.834
302.888
303.079
303.139
303.149
303.15
303.15
303.15
303.15
303.15
303.15
303.15
303.15
303.15
303.15
303.15
303.149
303.145
303.125
303.045
302.835
302.888
303.079
303.139
303.149
303.15
303.15
303.15
303.15
303.15
303.15
303.15
303.15
303.15
303.15
303.15
303.149
303.145
303.126
303.047
302.836
302.889
303.079
303.139
303.149
303.15
303.15
303.15
303.15
303.15
303.15
303.15
303.15
303.15
303.15
303.15
303.149
303.145
303.126
303.048
302.838
302.889
303.079
303.139
303.149
303.15
303.15
303.15
303.15
303.15
303.15
303.15
303.15
303.15
303.15
303.15
303.149
303.146
303.127
303.049
302.839
302.89
303.08
303.139
303.149
303.15
303.15
303.15
303.15
303.15
303.15
303.15
303.15
303.15
303.15
303.15
303.149
303.146
303.127
303.05
302.84
302.891
303.08
303.139
303.149
303.15
303.15
303.15
303.15
303.15
303.15
303.15
303.15
303.15
303.15
303.15
303.149
303.146
303.128
303.051
302.841
302.891
303.08
303.139
303.149
303.15
303.15
303.15
303.15
303.15
303.15
303.15
303.15
303.15
303.15
303.15
303.149
303.146
303.128
303.052
302.842
302.892
303.08
303.139
303.149
303.15
303.15
303.15
303.15
303.15
303.15
303.15
303.15
303.15
303.15
303.15
303.149
303.146
303.128
303.052
302.844
302.893
303.081
303.139
303.149
303.15
303.15
303.15
303.15
303.15
303.15
303.15
303.15
303.15
303.15
303.15
303.149
303.146
303.129
303.053
302.845
302.894
303.081
303.139
303.149
303.15
303.15
303.15
303.15
303.15
303.15
303.15
303.15
303.15
303.15
303.15
303.149
303.146
303.129
303.054
302.846
302.895
303.081
303.139
303.149
303.15
303.15
303.15
303.15
303.15
303.15
303.15
303.15
303.15
303.15
303.15
303.149
303.146
303.129
303.055
302.847
302.896
303.082
303.139
303.149
303.15
303.15
303.15
303.15
303.15
303.15
303.15
303.15
303.15
303.15
303.15
303.149
303.146
303.13
303.055
302.848
302.897
303.082
303.139
303.149
303.15
303.15
303.15
303.15
303.15
303.15
303.15
303.15
303.15
303.15
303.15
303.149
303.146
303.13
303.056
302.85
302.898
303.082
303.139
303.149
303.15
303.15
303.15
303.15
303.15
303.15
303.15
303.15
303.15
303.15
303.15
303.149
303.146
303.13
303.057
302.851
302.899
303.083
303.14
303.149
303.15
303.15
303.15
303.15
303.15
303.15
303.15
303.15
303.15
303.15
303.15
303.149
303.146
303.13
303.057
302.852
302.9
303.083
303.14
303.149
303.15
303.15
303.15
303.15
303.15
303.15
303.15
303.15
303.15
303.15
303.15
303.149
303.147
303.13
303.058
302.853
302.901
303.084
303.14
303.149
303.15
303.15
303.15
303.15
303.15
303.15
303.15
303.15
303.15
303.15
303.15
303.149
303.147
303.131
303.059
302.854
302.902
303.084
303.14
303.149
303.15
303.15
303.15
303.15
303.15
303.15
303.15
303.15
303.15
303.15
303.15
303.149
303.147
303.131
303.059
302.855
302.903
303.084
303.14
303.149
303.15
303.15
303.15
303.15
303.15
303.15
303.15
303.15
303.15
303.15
303.15
303.149
303.147
303.131
303.06
302.857
302.904
303.085
303.14
303.149
303.15
303.15
303.15
303.15
303.15
303.15
303.15
303.15
303.15
303.15
303.15
303.149
303.147
303.131
303.06
302.858
302.905
303.085
303.14
303.149
303.15
303.15
303.15
303.15
303.15
303.15
303.15
303.15
303.15
303.15
303.15
303.149
303.147
303.131
303.061
302.859
302.906
303.086
303.14
303.149
303.15
303.15
303.15
303.15
303.15
303.15
303.15
303.15
303.15
303.15
303.15
303.149
303.147
303.131
303.062
302.86
302.907
303.086
303.14
303.149
303.15
303.15
303.15
303.15
303.15
303.15
303.15
303.15
303.15
303.15
303.15
303.15
303.147
303.132
303.062
302.862
302.908
303.087
303.14
303.149
303.15
303.15
303.15
303.15
303.15
303.15
303.15
303.15
303.15
303.15
303.15
303.15
303.147
303.132
303.063
302.863
302.909
303.087
303.14
303.149
303.15
303.15
303.15
303.15
303.15
303.15
303.15
303.15
303.15
303.15
303.15
303.15
303.147
303.132
303.063
302.864
302.91
303.088
303.141
303.149
303.15
303.15
303.15
303.15
303.15
303.15
303.15
303.15
303.15
303.15
303.15
303.15
303.147
303.132
303.064
302.865
302.911
303.088
303.141
303.149
303.15
303.15
303.15
303.15
303.15
303.15
303.15
303.15
303.15
303.15
303.15
303.15
303.147
303.132
303.064
302.866
302.912
303.088
303.141
303.149
303.15
303.15
303.15
303.15
303.15
303.15
303.15
303.15
303.15
303.15
303.15
303.15
303.147
303.132
303.065
302.868
302.913
303.089
303.141
303.149
303.15
303.15
303.15
303.15
303.15
303.15
303.15
303.15
303.15
303.15
303.15
303.15
303.147
303.133
303.066
302.869
302.914
303.089
303.141
303.149
303.15
303.15
303.15
303.15
303.15
303.15
303.15
303.15
303.15
303.15
303.15
303.15
303.147
303.133
303.066
302.87
302.915
303.09
303.141
303.149
303.15
303.15
303.15
303.15
303.15
303.15
303.15
303.15
303.15
303.15
303.15
303.15
303.147
303.133
303.067
302.871
302.916
303.09
303.141
303.149
303.15
303.15
303.15
303.15
303.15
303.15
303.15
303.15
303.15
303.15
303.15
303.15
303.147
303.133
303.067
302.873
302.917
303.091
303.141
303.149
303.15
303.15
303.15
303.15
303.15
303.15
303.15
303.15
303.15
303.15
303.15
303.15
303.147
303.133
303.068
302.874
302.918
303.091
303.141
303.149
303.15
303.15
303.15
303.15
303.15
303.15
303.15
303.15
303.15
303.15
303.15
303.15
303.147
303.133
303.068
302.875
302.919
303.092
303.141
303.149
303.15
303.15
303.15
303.15
303.15
303.15
303.15
303.15
303.15
303.15
303.15
303.15
303.147
303.133
303.069
302.876
302.92
303.092
303.142
303.149
303.15
303.15
303.15
303.15
303.15
303.15
303.15
303.15
303.15
303.15
303.15
303.15
303.147
303.134
303.07
302.878
302.921
303.093
303.142
303.149
303.15
303.15
303.15
303.15
303.15
303.15
303.15
303.15
303.15
303.15
303.15
303.15
303.147
303.134
303.07
302.879
302.923
303.093
303.142
303.149
303.15
303.15
303.15
303.15
303.15
303.15
303.15
303.15
303.15
303.15
303.15
303.15
303.147
303.134
303.071
302.88
302.924
303.094
303.142
303.149
303.15
303.15
303.15
303.15
303.15
303.15
303.15
303.15
303.15
303.15
303.15
303.15
303.147
303.134
303.071
302.881
302.925
303.094
303.142
303.149
303.15
303.15
303.15
303.15
303.15
303.15
303.15
303.15
303.15
303.15
303.15
303.15
303.147
303.134
303.072
302.883
302.926
303.094
303.142
303.149
303.15
303.15
303.15
303.15
303.15
303.15
303.15
303.15
303.15
303.15
303.15
303.15
303.147
303.134
303.072
302.884
302.927
303.095
303.142
303.149
303.15
303.15
303.15
303.15
303.15
303.15
303.15
303.15
303.15
303.15
303.15
303.15
303.147
303.134
303.073
302.885
302.928
303.095
303.142
303.149
303.15
303.15
303.15
303.15
303.15
303.15
303.15
303.15
303.15
303.15
303.15
303.15
303.147
303.135
303.074
302.886
302.929
303.096
303.142
303.149
303.15
303.15
303.15
303.15
303.15
303.15
303.15
303.15
303.15
303.15
303.15
303.15
303.147
303.135
303.074
302.888
302.93
303.096
303.143
303.149
303.15
303.15
303.15
303.15
303.15
303.15
303.15
303.15
303.15
303.15
303.15
303.15
303.147
303.135
303.075
302.889
302.931
303.097
303.143
303.149
303.15
303.15
303.15
303.15
303.15
303.15
303.15
303.15
303.15
303.15
303.15
303.15
303.147
303.135
303.075
302.89
302.932
303.097
303.143
303.149
303.15
303.15
303.15
303.15
303.15
303.15
303.15
303.15
303.15
303.15
303.15
303.15
303.147
303.135
303.076
302.891
302.933
303.098
303.143
303.149
303.15
303.15
303.15
303.15
303.15
303.15
303.15
303.15
303.15
303.15
303.15
303.15
303.147
303.135
303.076
302.893
302.934
303.098
303.143
303.149
303.15
303.15
303.15
303.15
303.15
303.15
303.15
303.15
303.15
303.15
303.15
303.15
303.147
303.135
303.077
302.894
302.935
303.099
303.143
303.149
303.15
303.15
303.15
303.15
303.15
303.15
303.15
303.15
303.15
303.15
303.15
303.15
303.148
303.136
303.077
302.895
302.936
303.099
303.143
303.149
303.15
303.15
303.15
303.15
303.15
303.15
303.15
303.15
303.15
303.15
303.15
303.15
303.148
303.136
303.078
302.897
302.938
303.1
303.143
303.149
303.15
303.15
303.15
303.15
303.15
303.15
303.15
303.15
303.15
303.15
303.15
303.15
303.148
303.136
303.079
302.898
302.939
303.1
303.143
303.149
303.15
303.15
303.15
303.15
303.15
303.15
303.15
303.15
303.15
303.15
303.15
303.15
303.148
303.136
303.079
302.899
302.94
303.101
303.143
303.149
303.15
303.15
303.15
303.15
303.15
303.15
303.15
303.15
303.15
303.15
303.15
303.15
303.148
303.136
303.08
302.901
302.941
303.101
303.143
303.149
303.15
303.15
303.15
303.15
303.15
303.15
303.15
303.15
303.15
303.15
303.15
303.15
303.148
303.136
303.08
302.902
302.942
303.102
303.144
303.149
303.15
303.15
303.15
303.15
303.15
303.15
303.15
303.15
303.15
303.15
303.15
303.15
303.148
303.136
303.081
302.903
302.943
303.102
303.144
303.149
303.15
303.15
303.15
303.15
303.15
303.15
303.15
303.15
303.15
303.15
303.15
303.15
303.148
303.137
303.081
302.905
302.944
303.102
303.144
303.149
303.15
303.15
303.15
303.15
303.15
303.15
303.15
303.15
303.15
303.15
303.15
303.15
303.148
303.137
303.082
302.906
302.945
303.103
303.144
303.149
303.15
303.15
303.15
303.15
303.15
303.15
303.15
303.15
303.15
303.15
303.15
303.15
303.148
303.137
303.082
302.907
302.946
303.103
303.144
303.149
303.15
303.15
303.15
303.15
303.15
303.15
303.15
303.15
303.15
303.15
303.15
303.15
303.148
303.137
303.083
302.909
302.947
303.104
303.144
303.149
303.15
303.15
303.15
303.15
303.15
303.15
303.15
303.15
303.15
303.15
303.15
303.15
303.148
303.137
303.084
302.91
302.949
303.104
303.144
303.149
303.15
303.15
303.15
303.15
303.15
303.15
303.15
303.15
303.15
303.15
303.15
303.15
303.148
303.137
303.084
302.911
302.95
303.105
303.144
303.149
303.15
303.15
303.15
303.15
303.15
303.15
303.15
303.15
303.15
303.15
303.15
303.15
303.148
303.137
303.085
302.913
302.951
303.105
303.144
303.149
303.15
303.15
303.15
303.15
303.15
303.15
303.15
303.15
303.15
303.15
303.15
303.15
303.148
303.137
303.085
302.914
302.952
303.106
303.144
303.149
303.15
303.15
303.15
303.15
303.15
303.15
303.15
303.15
303.15
303.15
303.15
303.15
303.148
303.138
303.086
302.915
302.953
303.106
303.144
303.149
303.15
303.15
303.15
303.15
303.15
303.15
303.15
303.15
303.15
303.15
303.15
303.15
303.148
303.138
303.086
302.917
302.954
303.107
303.145
303.149
303.15
303.15
303.15
303.15
303.15
303.15
303.15
303.15
303.15
303.15
303.15
303.15
303.148
303.138
303.087
302.918
302.955
303.107
303.145
303.149
303.15
303.15
303.15
303.15
303.15
303.15
303.15
303.15
303.15
303.15
303.15
303.15
303.148
303.138
303.088
302.919
302.956
303.108
303.145
303.149
303.15
303.15
303.15
303.15
303.15
303.15
303.15
303.15
303.15
303.15
303.15
303.15
303.148
303.138
303.088
302.921
302.958
303.108
303.145
303.149
303.15
303.15
303.15
303.15
303.15
303.15
303.15
303.15
303.15
303.15
303.15
303.15
303.148
303.138
303.089
302.922
302.959
303.109
303.145
303.149
303.15
303.15
303.15
303.15
303.15
303.15
303.15
303.15
303.15
303.15
303.15
303.15
303.148
303.138
303.089
302.924
302.96
303.109
303.145
303.15
303.15
303.15
303.15
303.15
303.15
303.15
303.15
303.15
303.15
303.15
303.15
303.15
303.148
303.138
303.09
302.925
302.961
303.109
303.145
303.15
303.15
303.15
303.15
303.15
303.15
303.15
303.15
303.15
303.15
303.15
303.15
303.15
303.148
303.139
303.09
302.926
302.962
303.11
303.145
303.15
303.15
303.15
303.15
303.15
303.15
303.15
303.15
303.15
303.15
303.15
303.15
303.15
303.148
303.139
303.091
302.928
302.963
303.11
303.145
303.15
303.15
303.15
303.15
303.15
303.15
303.15
303.15
303.15
303.15
303.15
303.15
303.15
303.148
303.139
303.091
302.929
302.964
303.111
303.145
303.15
303.15
303.15
303.15
303.15
303.15
303.15
303.15
303.15
303.15
303.15
303.15
303.15
303.148
303.139
303.092
302.931
302.966
303.111
303.145
303.15
303.15
303.15
303.15
303.15
303.15
303.15
303.15
303.15
303.15
303.15
303.15
303.15
303.148
303.139
303.093
302.932
302.967
303.112
303.145
303.15
303.15
303.15
303.15
303.15
303.15
303.15
303.15
303.15
303.15
303.15
303.15
303.15
303.148
303.139
303.093
302.933
302.968
303.112
303.146
303.15
303.15
303.15
303.15
303.15
303.15
303.15
303.15
303.15
303.15
303.15
303.15
303.15
303.148
303.139
303.094
302.935
302.969
303.113
303.146
303.15
303.15
303.15
303.15
303.15
303.15
303.15
303.15
303.15
303.15
303.15
303.15
303.15
303.148
303.139
303.094
302.936
302.97
303.113
303.146
303.15
303.15
303.15
303.15
303.15
303.15
303.15