/*--------------------------------*- C++ -*----------------------------------*\
  =========                 |
  \\      /  F ield         | OpenFOAM: The Open Source CFD Toolbox
   \\    /   O peration     | Website:  https://openfoam.org
    \\  /    A nd           | Version:  8
     \\/     M anipulation  |
\*---------------------------------------------------------------------------*/
FoamFile
{
    version     2.0;
    format      ascii;
    class       volScalarField;
    location    "700";
    object      p;
}
// * * * * * * * * * * * * * * * * * * * * * * * * * * * * * * * * * * * * * //

dimensions      [1 -1 -2 0 0 0 0];

internalField   nonuniform List<scalar> 
8400
(
11664
11682.6
11698.3
11713.6
11728.6
11743.6
11758.8
11774.3
11790.1
11806.3
11823.2
11840.7
11859
11878.3
11898.6
11920.3
11943.5
11968.5
11995.5
12024.9
12057
12092.3
12131.4
12174.7
12223.2
12277.5
12338.4
12406.8
12483.8
12571.1
12670.1
12782.7
12911
13057.5
13225
13416.9
13637
13889.7
14180.4
14515.1
14901.1
15346.7
15862.8
16463.2
17164.3
17980.3
18926.3
20063
21557.1
23502.8
11555.4
11569.2
11582.8
11596.9
11611
11625.2
11639.6
11654.1
11669.1
11684.4
11700.2
11716.6
11733.7
11751.7
11770.7
11790.9
11812.5
11835.6
11860.7
11887.9
11917.6
11950.3
11986.4
12026.4
12071
12120.8
12176.8
12240
12311.3
12392.2
12484
12588.5
12707.7
12843.8
12999.6
13178.1
13382.7
13617.6
13887.4
14197.5
14554.1
14964.3
15436.6
15981.4
16610
17330.8
18151
19101.4
20265.4
21693.7
11488.9
11507.1
11523.2
11538.5
11553.6
11568.8
11584.3
11600.1
11616.3
11633
11650.3
11668.3
11687.1
11706.8
11727.7
11749.9
11773.5
11798.9
11826.3
11856
11888.4
11923.9
11963
12006.1
12053.8
12106.9
12166.2
12232.7
12307.6
12392.1
12487.6
12596
12719.1
12859.3
13019.1
13201.6
13410.3
13649.2
13922.9
14236.6
14596.3
15008.9
15482.2
16025.1
16647
17354.7
18154.2
19060.3
20103.6
21279.4
11354.1
11358.5
11368.4
11380.4
11393
11406.1
11419.3
11432.8
11446.6
11460.8
11475.3
11490.4
11506
11522.3
11539.5
11557.7
11577
11597.7
11619.9
11643.9
11670
11698.7
11730.3
11765.3
11804.3
11847.9
11896.8
11951.8
12013.9
12084.3
12164.2
12255.1
12358.8
12477.3
12612.9
12768.2
12946.3
13150.6
13385.3
13654.8
13964.2
14319.4
14726.9
15193.9
15727.7
16334.5
17019.7
17792.4
18667.4
19641
11309
11330.6
11347.6
11362.6
11377.3
11392.2
11407.2
11422.6
11438.3
11454.5
11471.2
11488.5
11506.4
11525.2
11544.9
11565.7
11587.7
11611.1
11636.2
11663.2
11692.2
11723.7
11758
11795.6
11837
11882.7
11933.6
11990.2
12053.6
12124.7
12204.7
12294.9
12397
12512.7
12644
12793.3
12963.1
13156.5
13376.9
13628
13913.8
14239
14608.2
15026.3
15498
16026.4
16613
17259.8
17973.2
18751.6
11150.6
11151
11159
11169.9
11181.7
11193.9
11206.4
11219.1
11232.1
11245.4
11259
11273
11287.5
11302.6
11318.3
11334.8
11352.2
11370.7
11390.5
11411.7
11434.7
11459.7
11486.9
11516.9
11549.9
11586.4
11627.2
11672.8
11723.9
11781.5
11846.6
11920.3
12004
12099.3
12208
12332
12473.7
12635.8
12821.1
13032.9
13274.8
13550.6
13864.4
14220
14621.2
15070.2
15567.1
16111.1
16704.1
17346.8
11121.1
11145
11162.2
11176.7
11190.6
11204.5
11218.5
11232.7
11247.1
11261.9
11277
11292.4
11308.4
11324.8
11341.9
11359.6
11378
11397.4
11417.8
11439.5
11462.5
11487.2
11513.7
11542.4
11573.7
11607.9
11645.4
11686.8
11732.8
11783.9
11840.9
11904.9
11976.8
12057.9
12149.6
12253.3
12370.9
12504.5
12656.2
12828.5
13024.2
13246
13496.9
13779.8
14097.3
14450.9
14840.4
15264.4
15724.6
16223.3
10950.9
10949.4
10956.5
10966.8
10978.2
10989.9
11001.9
11014.1
11026.5
11039.1
11052
11065.2
11078.7
11092.6
11107.1
11122
11137.6
11153.8
11171
11189
11208.2
11228.6
11250.5
11274.1
11299.6
11327.4
11357.8
11391.2
11428.1
11469
11514.5
11565.4
11622.4
11686.5
11758.7
11840.3
11932.7
12037.3
12155.8
12290.2
12442.5
12614.8
12809.1
13027.7
13272.2
13543.8
13842.1
14165.9
14516.7
14897.6
10928.1
10952.4
10969.1
10982.8
10995.7
11008.3
11021.1
11033.8
11046.7
11059.7
11072.8
11086.1
11099.5
11113.1
11126.9
11140.9
11155.3
11170.1
11185.3
11200.9
11217.2
11234.1
11251.9
11270.6
11290.4
11311.4
11334
11358.3
11384.6
11413.2
11444.7
11479.2
11517.5
11560.1
11607.7
11661
11720.9
11788.5
11864.8
11951.3
12049.1
12159.8
12284.9
12425.9
12584.2
12761
12956.2
13169.5
13402.9
13660.2
10754.6
10752.3
10758.9
10768.7
10779.6
10790.8
10802.1
10813.7
10825.3
10837
10848.9
10860.9
10873.1
10885.4
10897.9
10910.6
10923.5
10936.6
10950
10963.8
10977.9
10992.3
11007.3
11022.7
11038.7
11055.4
11072.8
11091
11110.3
11130.6
11152.2
11175.2
11199.8
11226.3
11255
11286.2
11320.2
11357.6
11398.7
11444.1
11494.7
11551
11613.9
11684.4
11763.5
11852.2
11951.1
12061.1
12184.6
12326.3
10732
10755.6
10771.5
10784.4
10796.3
10808
10819.7
10831.2
10842.8
10854.3
10865.7
10877.1
10888.4
10899.6
10910.6
10921.6
10932.4
10943
10953.4
10963.6
10973.6
10983.4
10992.8
11001.9
11010.6
11019
11026.8
11034.2
11041
11047.2
11052.6
11057.3
11061.1
11063.9
11065.7
11066.4
11065.9
11064
11060.8
11056.3
11050.4
11043.3
11035.4
11027
11018.9
11012.1
11008
11008.5
11017.2
11039.3
10560.6
10558.2
10564.3
10573.4
10583.5
10593.8
10604.2
10614.7
10625.1
10635.5
10645.8
10656
10666.1
10676
10685.8
10695.4
10704.7
10713.7
10722.3
10730.5
10738.3
10745.5
10752
10757.8
10762.6
10766.4
10769
10770.2
10769.7
10767.2
10762.6
10755.4
10745.1
10731.5
10713.8
10691.7
10664.3
10631.1
10591.3
10544
10488.6
10424.4
10350.7
10267.4
10174.7
10073.3
9964.89
9852.53
9740.72
9636.71
10533.5
10555.7
10570.8
10583
10594.3
10605.4
10616.4
10627.3
10638
10648.5
10658.9
10669
10678.8
10688.3
10697.4
10706
10714.1
10721.5
10728.2
10734.1
10739
10742.7
10745.2
10746.1
10745.3
10742.4
10737.3
10729.4
10718.4
10703.9
10685.2
10661.8
10632.9
10597.8
10555.4
10504.8
10444.8
10374.2
10291.6
10195.6
10084.6
9957.24
9812.27
9648.8
9466.51
9266
9049.29
8820.53
8586.24
8355.63
10369
10367.1
10372.8
10381.2
10390.3
10399.6
10408.9
10418.1
10427.1
10435.8
10444.3
10452.4
10460.1
10467.3
10473.9
10479.9
10485.2
10489.6
10493
10495.3
10496.2
10495.5
10493.1
10488.6
10481.8
10472.2
10459.4
10443
10422.4
10396.8
10365.7
10328.1
10283
10229.3
10165.7
10090.7
10002.7
9899.81
9779.92
9640.78
9479.96
9294.92
9083.16
8842.49
8571.24
8268.7
7935.78
7576.31
7198.19
6815.56
10331.6
10351.6
10365.6
10377.2
10388.2
10398.9
10409.5
10419.9
10430
10440
10449.5
10458.8
10467.5
10475.8
10483.4
10490.2
10496.3
10501.3
10505.1
10507.6
10508.5
10507.5
10504.4
10498.8
10490.3
10478.5
10462.7
10442.4
10416.9
10385.2
10346.5
10299.6
10243.1
10175.7
10095.6
10000.7
9888.93
9757.65
9603.99
9424.77
9216.52
8975.48
8697.88
8380.16
8019.5
7614.08
7163.8
6672.4
6151.09
5620.29
10180.7
10180.5
10186.4
10194.5
10203.1
10211.7
10220.2
10228.4
10236.2
10243.6
10250.6
10256.9
10262.6
10267.6
10271.6
10274.6
10276.4
10276.9
10275.7
10272.8
10267.7
10260.2
10250
10236.5
10219.3
10197.8
10171.3
10139.1
10100.4
10054
9998.8
9933.49
9856.46
9765.93
9659.8
9535.71
9390.92
9222.32
9026.35
8799.06
8535.97
8232.18
7882.37
7481.2
7023.84
6505.9
5922.98
5272.91
4564.59
3829
10124
10141.2
10153.9
10165.1
10175.6
10185.9
10196
10205.8
10215.3
10224.4
10233.2
10241.4
10249
10255.9
10262
10267.1
10271.1
10273.8
10275
10274.4
10271.7
10266.6
10258.7
10247.6
10232.6
10213.3
10188.9
10158.6
10121.4
10076.2
10021.8
9956.64
9878.99
9786.86
9677.91
9549.43
9398.26
9220.77
9012.69
8769.13
8484.44
8152.06
7764.45
7313.35
6790.54
6187.58
5493.58
4696.83
3803.87
2865.29
9993.95
9998.33
10006.1
10014.9
10023.7
10032.3
10040.7
10048.6
10056.1
10063.1
10069.4
10075.1
10079.9
10083.8
10086.6
10088.1
10088.2
10086.5
10083
10077.1
10068.7
10057.3
10042.4
10023.4
9999.85
9970.91
9935.75
9893.41
9842.76
9782.48
9711.04
9626.68
9527.34
9410.61
9273.7
9113.34
8925.71
8706.36
8450.05
8150.68
7801.09
7392.88
6916.06
6359.13
5710.3
4958.18
4087.35
3072.55
1900.74
635.946
9907.56
9926.29
9938.35
9949.07
9959.17
9968.88
9978.25
9987.27
9995.87
10004
10011.6
10018.6
10024.8
10030.1
10034.5
10037.7
10039.5
10039.7
10038.1
10034.4
10028.2
10019.2
10006.8
9990.52
9969.81
9943.91
9912.01
9873.14
9826.19
9769.87
9702.69
9622.91
9528.49
9417.1
9285.96
9131.89
8951.13
8739.26
8491.1
8200.56
7860.44
7462.17
6995.11
6446.18
5801.34
5047.84
4166.27
3102.77
1771.38
197.39
9807.86
9817.39
9827.08
9836.79
9846.24
9855.38
9864.15
9872.52
9880.42
9887.79
9894.54
9900.59
9905.81
9910.07
9913.22
9915.08
9915.46
9914.1
9910.74
9905.06
9896.7
9885.23
9870.15
9850.9
9826.82
9797.15
9760.99
9717.31
9664.93
9602.43
9528.22
9440.39
9336.74
9214.7
9071.24
8902.81
8705.21
8473.45
8201.58
7882.43
7507.36
7065.67
6543.48
5922.45
5180.69
4295.5
3231.29
1883.99
44.2314
-2332.56
19429.6
11267.3
7234.28
5715.93
4881.56
4272.71
3849.01
3564.69
3364.5
3213.39
3093.67
2995.46
2912.22
2839.46
2774.14
2714.11
2657.85
2604.16
2552.1
2500.9
2449.85
2398.33
2345.7
2291.35
2234.62
2174.79
2111.08
2042.62
1968.39
1887.23
1797.83
1698.65
1587.97
1463.78
1323.6
1164.48
982.992
775.134
536.084
259.902
-60.5636
-433.928
-870.86
-1384.86
-1993.42
-2719.99
-3597.53
-4675.29
-6033.68
-7809.36
-6203.02
-1613.87
-112.159
454.135
888.44
1214.03
1438.39
1598.48
1717.32
1806.14
1872.19
1920.91
1956.22
1980.82
1996.67
2005.2
2007.46
2004.23
1996.07
1983.33
1966.25
1944.92
1919.3
1889.27
1854.57
1814.81
1769.5
1718.02
1659.55
1593.06
1517.33
1430.97
1332.27
1219.19
1089.52
940.531
768.972
570.927
341.803
76.1716
-232.64
-592.803
-1014.3
-1509.48
-2093.76
-2786.71
-3613.29
-4605.01
-5799.39
-7230.31
1028.83
3198.85
4381.98
4484.64
4328
4156.36
3970.05
3778.83
3600.44
3441.31
3300.51
3175.56
3064.08
2963.83
2872.81
2789.27
2711.72
2638.9
2569.72
2503.24
2438.61
2375.04
2311.78
2248.09
2183.25
2116.46
2046.93
1973.82
1896.17
1812.91
1722.79
1624.3
1515.7
1394.9
1259.61
1107.2
934.567
738.013
513.146
254.808
-43.0638
-387.721
-787.837
-1253.79
-1797.97
-2435.09
-3182.16
-4057.71
-5078.97
-6254.22
1279.86
1688.93
1880.4
1808.75
1706.53
1663.15
1651.52
1649.27
1653.52
1663.39
1676
1688.76
1700.14
1709.29
1715.7
1719.06
1719.22
1716.09
1709.61
1699.76
1686.45
1669.6
1649.06
1624.61
1595.93
1562.62
1524.2
1480.05
1429.47
1371.73
1305.88
1230.71
1144.79
1046.51
933.849
804.449
655.539
483.861
285.592
56.2751
-209.296
-517.219
-874.593
-1289.58
-1771.4
-2330.09
-2975.81
-3717.27
-4558.34
-5492.18
1721.3
1970.38
2287.01
2518.68
2658.57
2747.83
2800.15
2819.08
2812.7
2789.73
2755.98
2715.05
2669.42
2620.86
2570.57
2519.3
2467.48
2415.36
2363
2310.37
2257.34
2203.7
2149.2
2093.53
2036.31
1977.11
1915.33
1850.27
1781.14
1707.07
1627.04
1539.94
1444.47
1339.08
1221.96
1090.99
943.72
777.325
588.517
373.506
127.942
-153.135
-475.308
-844.719
-1267.89
-1751.29
-2300.55
-2919.01
-3605.32
-4350.67
1827.42
1913.04
2021.16
2083.2
2085.84
2057.73
2019.31
1977.03
1933.89
1892.62
1854.68
1820.25
1788.97
1760.31
1733.7
1708.57
1684.38
1660.65
1636.95
1612.87
1588.01
1562.03
1534.56
1505.18
1473.56
1439.3
1401.91
1360.9
1315.66
1265.45
1209.47
1146.77
1076.26
996.665
906.496
804.022
687.243
553.856
401.217
226.313
25.7546
-204.228
-467.726
-769.027
-1112.36
-1501.43
-1938.71
-2424.24
-2954
-3518.47
1842.96
1887.35
1959.07
2031.29
2086.63
2127.53
2159.13
2182.12
2196.17
2202
2200.78
2193.53
2181.06
2164.1
2143.31
2119.24
2092.36
2063.03
2031.52
1998.06
1962.78
1925.75
1886.95
1846.28
1803.6
1758.7
1711.33
1661.17
1607.8
1550.71
1489.27
1422.77
1350.36
1271.06
1183.72
1086.97
979.286
858.884
723.752
571.629
400.011
206.187
-12.6891
-259.452
-536.681
-846.318
-1189.1
-1563.8
-1966.25
-2389.15
1803.89
1826.09
1863.87
1903.86
1932.01
1944.9
1945.05
1935.09
1917.04
1892.95
1864.79
1834.15
1802.14
1769.54
1736.86
1704.42
1672.36
1640.73
1609.49
1578.52
1547.69
1516.83
1485.71
1454.12
1421.8
1388.44
1353.75
1317.36
1278.88
1237.87
1193.81
1146.14
1094.2
1037.24
974.412
904.743
827.126
740.315
642.916
533.398
410.102
271.289
115.217
-59.7353
-254.868
-470.87
-707.423
-962.699
-1232.75
-1511.42
1737.73
1751.33
1776.39
1807.02
1834.51
1854.79
1867.98
1875.14
1876.98
1874.14
1867.28
1857.04
1843.9
1828.26
1810.45
1790.72
1769.3
1746.37
1722.06
1696.49
1669.75
1641.89
1612.93
1582.91
1551.77
1519.47
1485.91
1450.98
1414.52
1376.33
1336.18
1293.77
1248.75
1200.73
1149.23
1093.72
1033.58
968.132
896.604
818.177
731.985
637.156
532.873
418.463
293.53
158.138
13.0383
-140.068
-298.273
-457.716
1654.27
1664.36
1683.54
1708.09
1731
1747.69
1756.95
1759.15
1754.98
1745.26
1730.94
1713
1692.3
1669.54
1645.31
1620.05
1594.08
1567.67
1540.99
1514.16
1487.24
1460.27
1433.28
1406.25
1379.15
1351.95
1324.61
1297.04
1269.2
1240.99
1212.33
1183.1
1153.19
1122.47
1090.81
1058.04
1024
988.515
951.421
912.552
871.773
828.997
784.221
737.572
689.369
640.199
591.018
543.247
498.894
460.491
1557.87
1567.98
1587.21
1611.83
1634.86
1651.7
1661.14
1663.57
1659.69
1650.32
1636.42
1618.98
1598.86
1576.81
1553.41
1529.12
1504.3
1479.23
1454.12
1429.11
1404.32
1379.83
1355.73
1332.05
1308.86
1286.21
1264.15
1242.73
1222.04
1202.14
1183.15
1165.18
1148.36
1132.88
1118.93
1106.76
1096.66
1088.96
1084.07
1082.47
1084.71
1091.44
1103.4
1121.42
1146.4
1179.32
1221.19
1272.97
1335.53
1409.63
1448.49
1462.16
1487.36
1518.22
1546.05
1566.77
1580.52
1588.35
1591.01
1589.15
1583.45
1574.58
1563.06
1549.32
1533.73
1516.62
1498.25
1478.9
1458.79
1438.13
1417.15
1396.03
1374.99
1354.21
1333.91
1314.29
1295.58
1278.02
1261.88
1247.46
1235.09
1225.15
1218.06
1214.33
1214.51
1219.26
1229.34
1245.59
1269.01
1300.7
1341.9
1393.98
1458.41
1536.71
1630.37
1740.77
1868.96
2015.52
2180.25
2362.36
1321.73
1344.04
1382.05
1422.42
1451.12
1464.73
1465.79
1456.97
1440.3
1417.87
1391.69
1363.4
1334.16
1304.82
1275.98
1248.04
1221.26
1195.82
1171.81
1149.31
1128.37
1109.04
1091.4
1075.51
1061.51
1049.53
1039.76
1032.46
1027.91
1026.48
1028.61
1034.81
1045.71
1062.02
1084.61
1114.45
1152.71
1200.7
1259.93
1332.12
1419.16
1523.13
1646.27
1790.82
1959
2152.7
2373.24
2621.02
2895.05
3193.34
1167.74
1212.27
1284.31
1357.05
1413.15
1455.04
1487.86
1512.36
1528.23
1536.25
1537.64
1533.49
1524.67
1512.02
1496.29
1478.17
1458.26
1437.09
1415.15
1392.85
1370.62
1348.84
1327.86
1308.07
1289.85
1273.6
1259.76
1248.79
1241.23
1237.69
1238.84
1245.47
1258.47
1278.89
1307.91
1346.9
1397.46
1461.37
1540.71
1637.79
1755.2
1895.77
2062.55
2258.63
2487.07
2750.48
3050.7
3388.13
3760.94
4165.18
958.938
1044.74
1153.24
1215.93
1219.51
1192.63
1155.77
1115.42
1074.62
1036.16
1001.56
971.103
944.496
921.326
901.158
883.577
868.233
854.854
843.254
833.327
825.042
818.443
813.638
810.805
810.192
812.114
816.965
825.221
837.45
854.326
876.639
905.317
941.44
986.269
1041.26
1108.12
1188.78
1285.51
1400.87
1537.79
1699.54
1889.77
2112.45
2371.75
2671.87
3016.68
3409.19
3850.73
4339.79
4872.32
659.307
908.596
1225.69
1458.13
1599.12
1689.83
1743.96
1765.06
1761.32
1741.54
1711.62
1675.23
1634.98
1592.76
1549.92
1507.4
1465.84
1425.73
1387.45
1351.29
1317.53
1286.42
1258.23
1233.28
1211.88
1194.46
1181.46
1173.44
1171.05
1175.05
1186.34
1205.96
1235.17
1275.39
1328.31
1395.89
1480.4
1584.48
1711.15
1863.88
2046.62
2263.82
2520.42
2821.77
3173.47
3581.03
4049.19
4580.88
5175.24
5826.86
24.0775
433.371
625.348
554.546
453.537
411.774
402.171
402.424
409.73
423.241
440.188
458.08
475.511
491.781
506.552
519.723
531.368
541.683
550.95
559.506
567.735
576.062
584.949
594.9
606.471
620.272
636.986
657.375
682.303
712.751
749.838
794.849
849.261
914.776
993.359
1087.28
1199.17
1332.05
1489.42
1675.32
1894.39
2151.92
2453.94
2807.21
3219.18
3697.74
4250.73
4884.81
5603.15
6404.19
-421.064
1749.21
2932.89
3036.49
2881.16
2711.21
2527.02
2338.58
2163.54
2008.38
1872.31
1752.97
1648.09
1555.62
1473.74
1400.92
1335.93
1277.82
1225.85
1179.51
1138.43
1102.38
1071.3
1045.23
1024.33
1008.9
999.335
996.194
1000.16
1012.1
1033.02
1064.16
1106.99
1163.24
1234.94
1324.46
1434.61
1568.65
1730.37
1924.23
2155.39
2429.89
2754.75
3138.13
3589.46
4119.48
4740.11
5463.61
6300.09
7254.82
-7847.38
-3257.97
-1755.68
-1188.42
-752.745
-425.417
-198.785
-35.8998
86.3515
179.268
250.199
304.716
346.86
379.519
404.835
424.473
439.761
451.791
461.484
469.649
477.018
484.278
492.101
501.159
512.15
525.814
542.954
564.456
591.312
624.64
665.716
716
777.172
851.171
940.24
1046.98
1174.42
1326.08
1506.05
1719.15
1970.99
2268.23
2618.71
3031.82
3518.89
4093.69
4773.08
5577.62
6530.95
7659.2
17590.4
9428.33
5395.88
3878.52
3045.58
2438.69
2017.43
1736.04
1539.39
1392.55
1277.91
1185.72
1109.58
1045.18
989.67
941.161
898.389
860.5
826.938
797.367
771.621
749.677
731.635
717.707
708.217
703.6
704.409
711.327
725.182
746.961
777.836
819.189
872.647
940.118
1023.83
1126.41
1250.92
1400.93
1580.67
1795.08
2050.02
2352.44
2710.71
3135.01
3638.02
4235.96
4950.53
5812.49
6868.8
8201.56
-20201.1
-15586.4
-14015.7
-10058.1
-8091.38
-4673.86
-2572.33
482.843
2587.83
5396.6
7427.49
10071.1
11969.8
14517.4
16225
18748.2
20180.3
22764
23764.8
26398.2
-20227.3
-15625.6
-14064.9
-10109.3
-8149.54
-4730.59
-2634.8
422.52
2523.09
5333.99
7361.38
10007.5
11903.6
14455
16161.4
18691.6
20126.5
22725.1
23739.7
26411.8
-20261.7
-15662.8
-14111.7
-10157.3
-8204.35
-4784.45
-2693.9
365.166
2461.65
5274.7
7298.95
9947.84
11841.9
14397.2
16103.5
18639.8
20078.4
22687.6
23712
26401.4
-20300.6
-15700.7
-14157.4
-10203.3
-8256.75
-4835.86
-2750.35
310.42
2402.94
5218.19
7239.46
9891.15
11783.4
14342.5
16048.7
18590.2
20031.7
22648.1
23677.4
26374.6
-20341.5
-15739.1
-14202.5
-10248
-8307.37
-4885.28
-2804.65
257.873
2346.51
5163.97
7182.31
9836.75
11727.2
14289.7
15995.5
18541.3
19984.4
22605.4
23636.6
26338.2
-20383.5
-15778
-14247.1
-10291.6
-8356.62
-4933.12
-2857.23
207.125
2291.92
5111.57
7126.96
9784.02
11672.4
14238
15943.1
18492.2
19935.6
22559.8
23591
26295.6
-20425.9
-15817
-14291.3
-10334.5
-8404.8
-4979.69
-2908.42
157.818
2238.79
5060.59
7072.95
9732.44
11618.7
14186.8
15890.8
18442.5
19885.1
22511.6
23541.8
26248.7
-20468.4
-15855.8
-14335.1
-10376.7
-8452.11
-5025.25
-2958.51
109.647
2186.8
5010.67
7019.93
9681.64
11565.5
14135.9
15838.2
18391.9
19833.2
22461.4
23489.9
26198.8
-20510.8
-15894.5
-14378.5
-10418.4
-8498.72
-5069.99
-3007.72
62.3599
2135.68
4961.53
6967.59
9631.32
11512.6
14084.9
15785.2
18340.5
19779.9
22409.4
23435.8
26146.7
-20553
-15932.9
-14421.5
-10459.6
-8544.73
-5114.08
-3056.24
15.7513
2085.21
4912.94
6915.71
9581.28
11459.7
14033.7
15731.7
18288.4
19725.5
22356.1
23380.1
26092.8
-20594.9
-15971
-14464.2
-10500.3
-8590.27
-5157.65
-3104.23
-30.3409
2035.23
4864.75
6864.14
9531.36
11406.9
13982.4
15677.7
18235.6
19670.2
22301.6
23323.1
26037.5
-20636.6
-16008.8
-14506.6
-10540.7
-8635.41
-5200.8
-3151.79
-76.0451
1985.6
4816.82
6812.75
9481.49
11354
13930.7
15623.3
18182.2
19614
22246.2
23265.1
25981.2
-20678
-16046.3
-14548.6
-10580.7
-8680.21
-5243.62
-3199.02
-121.461
1936.23
4769.05
6761.47
9431.59
11301
13878.8
15568.5
18128.3
19557.2
22190
23206.2
25924
-20719.2
-16083.5
-14590.4
-10620.5
-8724.75
-5286.16
-3246
-166.667
1887.05
4721.38
6710.24
9381.62
11247.8
13826.6
15513.3
18073.9
19499.8
22133.2
23146.6
25866.1
-20760.1
-16120.5
-14632
-10660.1
-8769.06
-5328.5
-3292.78
-211.721
1837.99
4673.77
6659.01
9331.57
11194.5
13774.2
15457.8
18019.1
19442
22075.9
23086.5
25807.7
-20800.8
-16157.3
-14673.4
-10699.4
-8813.19
-5370.66
-3339.4
-256.669
1789.02
4626.16
6607.78
9281.42
11141
13721.5
15402
17963.9
19383.7
22018.1
23026
25748.8
-20841.4
-16193.9
-14714.7
-10738.6
-8857.17
-5412.7
-3385.91
-301.545
1740.1
4578.55
6556.51
9231.16
11087.4
13668.7
15345.9
17908.4
19325.1
21960
22965
25689.5
-20881.8
-16230.3
-14755.8
-10777.6
-8901.02
-5454.64
-3432.33
-346.374
1691.23
4530.91
6505.22
9180.79
11033.7
13615.6
15289.7
17852.7
19266.3
21901.6
22903.7
25630
-20922.1
-16266.6
-14796.8
-10816.5
-8944.78
-5496.49
-3478.68
-391.175
1642.38
4483.25
6453.88
9130.33
10979.8
13562.4
15233.3
17796.8
19207.2
21842.9
22842.2
25570.2
-20962.3
-16302.8
-14837.7
-10855.3
-8988.46
-5538.29
-3524.97
-435.96
1593.55
4435.54
6402.52
9079.77
10925.9
13509.1
15176.7
17740.7
19147.9
21784.1
22780.4
25510.1
-21002.4
-16338.9
-14878.5
-10894
-9032.07
-5580.03
-3571.21
-480.738
1544.74
4387.79
6351.12
9029.13
10871.9
13455.6
15120
17684.4
19088.5
21725.1
22718.5
25449.9
-21042.4
-16374.8
-14919.3
-10932.7
-9075.62
-5621.74
-3617.42
-525.516
1495.93
4340.01
6299.7
8978.41
10817.8
13402
15063.2
17628.1
19028.9
21665.9
22656.4
25389.6
-21082.4
-16410.7
-14960
-10971.3
-9119.13
-5663.42
-3663.59
-570.295
1447.14
4292.19
6248.27
8927.63
10763.7
13348.3
15006.3
17571.6
18969.3
21606.6
22594.3
25329.2
-21122.3
-16446.5
-15000.7
-11009.9
-9162.6
-5705.08
-3709.72
-615.078
1398.37
4244.34
6196.83
8876.8
10709.5
13294.6
14949.4
17515
18909.6
21547.3
22532
25268.8
-21162.2
-16482.3
-15041.3
-11048.4
-9206.02
-5746.71
-3755.83
-659.863
1349.61
4196.46
6145.39
8825.92
10655.4
13240.8
14892.5
17458.4
18849.8
21487.9
22469.7
25208.2
-21202.1
-16518
-15081.9
-11086.8
-9249.41
-5788.32
-3801.9
-704.649
1300.88
4148.57
6093.97
8775.01
10601.2
13187
14835.5
17401.7
18790
21428.4
22407.3
25147.7
-21241.9
-16553.7
-15122.5
-11125.3
-9292.77
-5829.91
-3847.94
-749.432
1252.19
4100.66
6042.57
8724.07
10547
13133.1
14778.5
17345
18730.2
21369
22344.9
25087.2
-21281.7
-16589.3
-15163
-11163.7
-9336.08
-5871.48
-3893.93
-794.209
1203.52
4052.74
5991.19
8673.12
10492.9
13079.3
14721.5
17288.3
18670.4
21309.5
22282.6
25026.6
-21321.5
-16624.8
-15203.5
-11202
-9379.36
-5913.03
-3939.89
-838.977
1154.91
4004.83
5939.86
8622.17
10438.8
13025.4
14664.6
17231.7
18610.6
21250.1
22220.2
24966.1
-21361.2
-16660.3
-15244
-11240.4
-9422.59
-5954.55
-3985.79
-883.729
1106.34
3956.92
5888.58
8571.22
10384.7
12971.5
14607.7
17175
18550.8
21190.7
22157.9
24905.7
-21400.9
-16695.8
-15284.4
-11278.6
-9465.78
-5996.04
-4031.64
-928.46
1057.83
3909.03
5837.35
8520.28
10330.7
12917.7
14550.8
17118.3
18491.1
21131.3
22095.6
24845.3
-21440.6
-16731.2
-15324.8
-11316.9
-9508.91
-6037.5
-4077.42
-973.165
1009.39
3861.16
5786.2
8469.37
10276.8
12863.9
14494
17061.7
18431.4
21072
22033.3
24784.9
-21480.3
-16766.6
-15365.2
-11355.1
-9551.99
-6078.92
-4123.14
-1017.84
961.028
3813.32
5735.12
8418.49
10222.9
12810.1
14437.3
17005.2
18371.8
21012.8
21971.2
24724.7
-21519.9
-16801.9
-15405.5
-11393.2
-9595.01
-6120.3
-4168.79
-1062.47
912.746
3765.52
5684.13
8367.65
10169.2
12756.4
14380.7
16948.7
18312.3
20953.6
21909.1
24664.6
-21559.4
-16837.1
-15445.7
-11431.3
-9637.97
-6161.62
-4214.35
-1107.07
864.556
3717.76
5633.24
8316.86
10115.5
12702.7
14324.2
16892.3
18252.9
20894.6
21847.1
24604.5
-21599
-16872.3
-15485.9
-11469.3
-9680.84
-6202.9
-4259.83
-1151.61
816.465
3670.05
5582.45
8266.13
10061.9
12649.1
14267.7
16836
18193.6
20835.6
21785.2
24544.6
-21638.4
-16907.4
-15526.1
-11507.3
-9723.64
-6244.11
-4305.2
-1196.09
768.483
3622.4
5531.78
8215.47
10008.5
12595.6
14211.4
16779.7
18134.5
20776.8
21723.4
24484.8
-21677.9
-16942.4
-15566.2
-11545.2
-9766.35
-6285.26
-4350.48
-1240.51
720.618
3574.82
5481.24
8164.88
9955.17
12542.2
14155.3
16723.6
18075.4
20718
21661.8
24425.2
-21717.2
-16977.3
-15606.2
-11583
-9808.97
-6326.33
-4395.64
-1284.86
672.88
3527.32
5430.83
8114.37
9902
12488.8
14099.2
16667.6
18016.5
20659.5
21600.3
24365.7
-21756.5
-17012.2
-15646.1
-11620.7
-9851.48
-6367.33
-4440.68
-1329.13
625.275
3479.89
5380.56
8063.96
9848.97
12435.6
14043.4
16611.7
17957.7
20601
21538.9
24306.4
-21795.7
-17046.9
-15685.9
-11658.4
-9893.89
-6408.24
-4485.59
-1373.31
577.813
3432.56
5330.45
8013.64
9796.1
12382.5
13987.6
16556
17899.1
20542.8
21477.7
24247.3
-21834.9
-17081.6
-15725.7
-11695.9
-9936.18
-6449.06
-4530.37
-1417.41
530.504
3385.32
5280.5
7963.43
9743.4
12329.5
13932.1
16500.4
17840.7
20484.6
21416.7
24188.3
-21873.9
-17116.1
-15765.3
-11733.4
-9978.35
-6489.78
-4575
-1461.41
483.355
3338.18
5230.72
7913.34
9690.88
12276.7
13876.7
16444.9
17782.5
20426.7
21355.8
24129.6
-21912.9
-17150.5
-15804.9
-11770.7
-10020.4
-6530.4
-4619.48
-1505.3
436.375
3291.15
5181.12
7863.37
9638.55
12224
13821.5
16389.6
17724.4
20369
21295.2
24071
-21951.7
-17184.8
-15844.3
-11807.9
-10062.3
-6570.91
-4663.8
-1549.08
389.574
3244.24
5131.71
7813.53
9586.41
12171.4
13766.5
16334.5
17666.5
20311.4
21234.7
24012.7
-21990.5
-17219
-15883.6
-11845
-10104
-6611.3
-4707.94
-1592.74
342.96
3197.46
5082.5
7763.83
9534.47
12119
13711.8
16279.5
17608.9
20254
21174.4
23954.6
-22029.1
-17253.1
-15922.8
-11882
-10145.6
-6651.56
-4751.91
-1636.28
296.542
3150.81
5033.5
7714.27
9482.75
12066.7
13657.2
16224.8
17551.4
20196.9
21114.4
23896.7
-22067.6
-17287
-15961.8
-11918.8
-10187
-6691.69
-4795.69
-1679.68
250.328
3104.3
4984.71
7664.87
9431.26
12014.7
13602.9
16170.2
17494.2
20140
21054.6
23839
-22106
-17320.7
-16000.7
-11955.5
-10228.3
-6731.69
-4839.28
-1722.95
204.328
3057.94
4936.16
7615.62
9379.99
11962.8
13548.8
16115.9
17437.3
20083.3
20995
23781.7
-22144.3
-17354.3
-16039.5
-11992.1
-10269.4
-6771.54
-4882.66
-1766.07
158.551
3011.73
4887.83
7566.55
9328.97
11911.1
13494.9
16061.7
17380.5
20026.8
20935.6
23724.5
-22182.4
-17387.8
-16078
-12028.5
-10310.3
-6811.25
-4925.83
-1809.04
113.005
2965.68
4839.75
7517.65
9278.2
11859.6
13441.3
16007.8
17324
19970.6
20876.5
23667.7
-22220.3
-17421.1
-16116.4
-12064.7
-10350.9
-6850.79
-4968.78
-1851.85
67.6983
2919.8
4791.92
7468.94
9227.69
11808.3
13388
15954.1
17267.8
19914.6
20817.7
23611.1
-22258.1
-17454.2
-16154.7
-12100.8
-10391.4
-6890.17
-5011.5
-1894.49
22.6408
2874.09
4744.36
7420.42
9177.44
11757.2
13334.9
15900.7
17211.9
19859
20759.1
23554.8
-22295.8
-17487.1
-16192.7
-12136.7
-10431.7
-6929.38
-5053.99
-1936.96
-22.1591
2828.57
4697.06
7372.09
9127.48
11706.3
13282.1
15847.5
17156.2
19803.5
20700.8
23498.8
-22333.2
-17519.8
-16230.6
-12172.4
-10471.8
-6968.42
-5096.22
-1979.25
-66.6927
2783.23
4650.04
7323.97
9077.8
11655.7
13229.6
15794.5
17100.8
19748.4
20642.8
23443.1
-22370.5
-17552.4
-16268.3
-12207.9
-10511.6
-7007.27
-5138.2
-2021.35
-110.951
2738.09
4603.32
7276.07
9028.41
11605.3
13177.4
15741.8
17045.8
19693.6
20585.1
23387.7
-22407.6
-17584.7
-16305.7
-12243.3
-10551.2
-7045.93
-5179.92
-2063.27
-154.926
2693.16
4556.88
7228.38
8979.33
11555.1
13125.5
15689.4
16991
19639
20527.7
23332.7
-22444.5
-17616.8
-16343
-12278.4
-10590.5
-7084.4
-5221.36
-2104.98
-198.607
2648.43
4510.76
7180.92
8930.56
11505.2
13073.9
15637.2
16936.5
19584.8
20470.6
23277.9
-22481.2
-17648.8
-16380
-12313.3
-10629.6
-7122.66
-5262.52
-2146.49
-241.988
2603.92
4464.95
7133.7
8882.12
11455.6
13022.7
15585.4
16882.4
19530.9
20413.9
23223.5
-22517.7
-17680.4
-16416.8
-12348.1
-10668.4
-7160.71
-5303.4
-2187.79
-285.058
2559.63
4419.46
7086.71
8834
11406.2
12971.7
15533.8
16828.6
19477.3
20357.4
23169.5
-22554
-17711.9
-16453.4
-12382.6
-10707
-7198.55
-5343.97
-2228.87
-327.809
2515.57
4374.31
7039.98
8786.23
11357.1
12921.2
15482.6
16775.2
19424
20301.4
23115.8
-22590.1
-17743.1
-16489.7
-12416.8
-10745.3
-7236.17
-5384.24
-2269.73
-370.233
2471.74
4329.5
6993.5
8738.8
11308.3
12870.9
15431.6
16722
19371.1
20245.6
23062.5
-22625.9
-17774.1
-16525.8
-12450.9
-10783.3
-7273.57
-5424.19
-2310.35
-412.321
2428.16
4285.03
6947.28
8691.73
11259.7
12821.1
15381
16669.3
19318.5
20190.2
23009.6
-22661.5
-17804.9
-16561.6
-12484.7
-10821
-7310.73
-5463.82
-2350.74
-454.064
2384.83
4240.93
6901.34
8645.02
11211.5
12771.5
15330.7
16616.9
19266.3
20135.2
22957
-22696.8
-17835.4
-16597.1
-12518.2
-10858.4
-7347.65
-5503.12
-2390.89
-495.453
2341.75
4197.19
6855.66
8598.68
11163.5
12722.4
15280.7
16564.9
19214.4
20080.5
22904.9
-22731.9
-17865.6
-16632.4
-12551.5
-10895.4
-7384.33
-5542.08
-2430.79
-536.48
2298.93
4153.82
6810.28
8552.73
11115.9
12673.7
15231.1
16513.3
19163
20026.3
22853.1
-22766.7
-17895.5
-16667.4
-12584.6
-10932.2
-7420.75
-5580.68
-2470.43
-577.136
2256.39
4110.85
6765.18
8507.17
11068.6
12625.3
15181.8
16462.1
19111.9
19972.4
22801.7
-22801.3
-17925.2
-16702.1
-12617.4
-10968.7
-7456.92
-5618.93
-2509.82
-617.413
2214.11
4068.26
6720.38
8462.01
11021.6
12577.4
15132.9
16411.2
19061.2
19918.9
22750.8
-22835.6
-17954.6
-16736.5
-12649.9
-11004.8
-7492.83
-5656.82
-2548.94
-657.302
2172.12
4026.07
6675.88
8417.25
10975
12529.8
15084.3
16360.8
19010.8
19865.8
22700.3
-22869.6
-17983.7
-16770.6
-12682.2
-11040.5
-7528.47
-5694.32
-2587.78
-696.795
2130.41
3984.3
6631.69
8372.91
10928.7
12482.7
15036.1
16310.8
18960.9
19813.2
22650.2
-22903.3
-18012.6
-16804.4
-12714.1
-11075.9
-7563.84
-5731.45
-2626.35
-735.883
2089
3942.94
6587.82
8328.99
10882.7
12436
14988.3
16261.2
18911.4
19760.9
22600.5
-22936.8
-18041.1
-16837.8
-12745.8
-11111
-7598.93
-5768.18
-2664.64
-774.557
2047.89
3902.01
6544.28
8285.5
10837.1
12389.7
14940.9
16212.1
18862.4
19709.1
22551.3
-22969.9
-18069.3
-16871
-12777.2
-11145.6
-7633.74
-5804.51
-2702.63
-812.81
2007.08
3861.51
6501.06
8242.46
10791.8
12343.9
14893.9
16163.4
18813.7
19657.7
22502.6
-23002.7
-18097.2
-16903.7
-12808.3
-11179.9
-7668.26
-5840.44
-2740.33
-850.632
1966.58
3821.45
6458.18
8199.86
10746.9
12298.5
14847.3
16115.1
18765.5
19606.8
22454.3
-23035.2
-18124.8
-16936.2
-12839.1
-11213.9
-7702.48
-5875.94
-2777.73
-888.015
1926.4
3781.85
6415.64
8157.72
10702.4
12253.6
14801
16067.3
18717.8
19556.3
22406.5
-23067.4
-18152.1
-16968.3
-12869.6
-11247.4
-7736.4
-5911.02
-2814.83
-924.952
1886.54
3742.7
6373.45
8116.04
10658.3
12209.1
14755.2
16019.9
18670.4
19506.3
22359.2
-23099.2
-18179
-17000
-12899.8
-11280.5
-7770.02
-5945.67
-2851.62
-961.433
1847.01
3704.02
6331.62
8074.84
10614.5
12165.1
14709.9
15973.1
18623.6
19456.7
22312.3
-23130.7
-18205.6
-17031.4
-12929.7
-11313.2
-7803.33
-5979.87
-2888.09
-997.45
1807.81
3665.82
6290.15
8034.11
10571.2
12121.6
14664.9
15926.7
18577.2
19407.7
22266
-23161.9
-18231.9
-17062.4
-12959.2
-11345.5
-7836.33
-6013.62
-2924.23
-1033
1768.96
3628.1
6249.05
7993.87
10528.3
12078.6
14620.4
15880.8
18531.3
19359.1
22220.2
-23192.7
-18257.8
-17093
-12988.5
-11377.3
-7869.01
-6046.91
-2960.06
-1068.06
1730.45
3590.87
6208.32
7954.13
10485.7
12036.1
14576.3
15835.4
18485.8
19311
22174.8
-23223.2
-18283.4
-17123.3
-13017.4
-11408.8
-7901.36
-6079.73
-2995.55
-1102.64
1692.29
3554.14
6167.97
7914.89
10443.6
11994.1
14532.7
15790.5
18440.9
19263.4
22130
-23253.2
-18308.6
-17153.1
-13045.9
-11439.8
-7933.39
-6112.08
-3030.7
-1136.72
1654.49
3517.92
6128.01
7876.16
10401.9
11952.6
14489.5
15746.1
18396.4
19216.3
22085.7
-23283