/*--------------------------------*- C++ -*----------------------------------*\
  =========                 |
  \\      /  F ield         | OpenFOAM: The Open Source CFD Toolbox
   \\    /   O peration     | Website:  https://openfoam.org
    \\  /    A nd           | Version:  8
     \\/     M anipulation  |
\*---------------------------------------------------------------------------*/
FoamFile
{
    version     2.0;
    format      ascii;
    class       volScalarField;
    location    "700";
    object      p_rgh;
}
// * * * * * * * * * * * * * * * * * * * * * * * * * * * * * * * * * * * * * //

dimensions      [1 -1 -2 0 0 0 0];

internalField   nonuniform List<scalar> 
8400
(
0.183723
18.8436
34.5617
49.8069
64.8435
79.8864
95.0752
110.522
126.328
142.595
159.428
176.942
195.264
214.537
234.924
256.612
279.813
304.773
331.777
361.156
393.295
428.632
467.673
511.044
559.503
613.826
674.706
743.066
820.168
907.411
1006.4
1118.98
1247.29
1393.79
1561.33
1753.23
1973.32
2226.08
2516.75
2851.47
3237.41
3683.09
4199.17
4799.56
5500.68
6316.64
7262.61
8399.33
9893.42
11839.1
-9.33986
4.43591
18.0362
32.0908
46.2209
60.4355
74.7994
89.3933
104.302
119.615
135.428
151.847
168.988
186.984
205.986
226.167
247.726
270.889
295.921
323.129
352.876
385.574
421.672
461.704
506.279
556.106
612.1
675.247
746.603
827.444
919.259
1023.77
1142.96
1279.12
1434.91
1613.36
1817.99
2052.86
2322.65
2632.76
2989.36
3399.55
3871.85
4416.69
5045.33
5766.13
6586.27
7536.68
8700.64
10128.9
22.3498
40.5881
56.676
71.9096
87.0324
102.277
117.757
133.56
149.768
166.467
183.756
201.741
220.542
240.297
261.163
283.319
306.971
332.354
359.738
389.44
421.841
457.365
496.436
539.532
587.262
640.337
699.646
766.188
841.057
925.531
1021.09
1129.44
1252.57
1392.73
1552.57
1735.1
1943.8
2182.68
2456.34
2770.05
3129.79
3542.36
4015.62
4558.61
5180.45
5888.2
6687.66
7593.77
8637.11
9812.91
-14.6775
-10.3347
-0.431887
11.549
24.2453
37.2716
50.5342
64.0381
77.8259
91.9574
106.505
121.553
137.197
153.547
170.728
188.891
208.204
228.857
251.07
275.096
301.236
329.868
361.468
396.516
435.514
479.086
527.964
582.985
645.114
715.475
795.369
886.299
990.004
1108.49
1244.05
1399.36
1577.45
1781.83
2016.49
2285.98
2595.42
2950.6
3358.08
3825.1
4358.94
4965.71
5650.9
6423.61
7298.6
8272.24
37.7789
59.4122
76.3729
91.4315
106.156
120.971
136.025
151.392
167.134
183.312
200.002
217.286
235.259
254.031
273.727
294.497
316.512
339.957
365.034
391.975
421.036
452.521
486.824
524.413
565.795
611.559
662.379
719.028
782.391
853.487
933.491
1023.76
1125.83
1241.51
1372.81
1522.06
1691.91
1885.35
2105.73
2356.79
2642.65
2967.79
3336.98
3755.16
4226.83
4755.21
5341.81
5988.64
6701.97
7480.42
-22.9851
-22.6441
-14.6053
-3.74388
8.07406
20.3083
32.8052
45.5375
58.5231
71.8004
85.4207
99.4462
113.949
129.011
144.73
161.219
178.62
197.108
216.877
238.134
261.115
286.078
313.335
343.254
376.26
412.849
453.593
499.153
550.292
607.892
672.971
746.703
830.442
925.742
1034.39
1158.41
1300.13
1462.16
1647.46
1859.27
2101.18
2377.01
2690.77
3046.44
3447.61
3896.58
4393.53
4937.47
5530.47
6173.19
45.0517
68.9548
86.1759
100.697
114.598
128.452
142.446
156.651
171.11
185.862
200.952
216.432
232.362
248.81
265.847
283.558
302.036
321.404
341.815
363.441
386.477
411.142
437.693
466.426
497.682
531.853
569.392
610.82
656.738
707.838
764.918
828.895
900.824
981.912
1073.54
1177.29
1294.93
1428.48
1580.19
1752.52
1948.16
2169.97
2420.89
2703.79
3021.25
3374.86
3764.38
4188.43
4648.58
5147.29
-27.5303
-29.0572
-21.9012
-11.5987
-0.268275
11.4831
23.4788
35.677
48.0802
60.7081
73.5909
86.7696
100.294
114.224
128.625
143.57
159.139
175.423
192.532
210.593
229.752
250.179
272.069
295.651
321.185
348.977
379.376
412.785
449.67
490.565
536.087
586.947
643.958
708.052
780.297
861.9
954.233
1058.83
1177.4
1311.81
1464.09
1636.33
1830.69
2049.23
2293.77
2565.37
2863.66
3187.48
3538.24
3919.21
47.2841
71.5572
88.2878
101.955
114.82
127.508
140.211
152.99
165.868
178.856
191.967
205.216
218.624
232.217
246.032
260.109
274.494
289.241
304.415
320.089
336.351
353.299
371.05
389.739
409.523
430.586
453.139
477.429
503.742
532.41
563.816
598.405
636.691
679.266
726.813
780.111
840.05
907.639
984.01
1070.42
1168.24
1278.93
1404.02
1545.04
1703.4
1880.13
2075.32
2288.69
2522.06
2779.32
-28.6664
-30.9232
-24.3146
-14.513
-3.69927
7.49614
18.8816
30.4004
42.0381
53.7947
65.6762
77.6901
89.847
102.161
114.649
127.332
140.232
153.376
166.795
180.524
194.603
209.078
224.002
239.435
255.445
272.111
289.521
307.779
327.002
347.323
368.9
391.911
416.562
443.095
471.787
502.96
536.988
574.306
615.414
660.893
711.404
767.698
830.621
901.122
980.233
1068.92
1167.88
1277.87
1401.38
1543.01
46.3445
69.9348
85.8708
98.6981
110.659
122.365
133.99
145.576
157.126
168.629
180.073
191.443
202.726
213.908
224.974
235.909
246.696
257.317
267.75
277.974
287.964
297.691
307.125
316.231
324.97
333.3
341.172
348.533
355.325
361.483
366.934
371.604
375.407
378.258
380.065
380.737
380.189
378.345
375.154
370.601
364.73
357.677
349.714
341.312
333.203
326.414
322.307
322.863
331.547
353.63
-27.49
-29.8873
-23.7921
-14.6716
-4.63172
5.705
16.1349
26.5818
37.008
47.387
57.6952
67.9086
78.0018
87.9473
97.7143
107.268
116.569
125.572
134.222
142.461
150.216
157.405
163.933
169.688
174.543
178.346
180.926
182.082
181.582
179.159
174.506
167.27
157.049
143.384
125.76
103.596
76.2523
43.0298
3.18294
-44.0599
-99.4621
-163.719
-237.365
-320.654
-413.409
-514.829
-623.194
-735.554
-847.361
-951.371
42.9668
65.1995
80.2758
92.4671
103.84
114.939
125.909
136.765
147.489
158.049
168.406
178.518
188.34
197.82
206.899
215.51
223.578
231.016
237.722
243.583
248.466
252.217
254.659
255.589
254.772
251.937
246.771
238.914
227.952
213.408
194.737
171.313
142.423
107.255
64.8916
14.3022
-45.6616
-116.263
-198.868
-294.923
-405.907
-533.255
-678.22
-841.693
-1023.98
-1224.49
-1441.2
-1669.97
-1904.25
-2134.87
-23.9027
-25.8246
-20.1226
-11.7465
-2.60172
6.72366
16.0181
25.186
34.1664
42.9072
51.3562
59.4579
67.1507
74.3654
81.0238
87.0366
92.3016
96.7012
100.1
102.343
103.251
102.615
100.198
95.7236
88.8728
79.2782
66.5156
50.0953
29.4529
3.93748
-27.2
-64.8213
-109.915
-163.615
-227.215
-302.186
-390.193
-493.104
-612.993
-752.129
-912.95
-1097.99
-1309.75
-1550.42
-1821.67
-2124.21
-2457.13
-2816.6
-3194.72
-3577.35
36.2583
56.2676
70.2763
81.9205
92.8893
103.604
114.157
124.539
134.712
144.626
154.223
163.441
172.208
180.441
188.047
194.918
200.929
205.936
209.774
212.249
213.138
212.181
209.08
203.487
194.997
183.144
167.386
147.095
121.545
89.8928
51.1654
4.23702
-52.192
-119.619
-199.766
-294.607
-406.393
-537.679
-691.336
-870.551
-1078.81
-1319.84
-1597.45
-1915.17
-2275.83
-2681.24
-3131.52
-3622.92
-4144.23
-4675.04
-17.0858
-17.2869
-11.308
-3.24706
5.34787
13.9729
22.4306
30.6183
38.4607
45.8871
52.8229
59.1858
64.8832
69.8097
73.8448
76.8507
78.6687
79.1165
77.9841
75.0296
69.9738
62.4949
52.2213
38.7241
21.5081
0.00139743
-26.4567
-58.6293
-97.3975
-143.779
-198.95
-264.265
-341.29
-431.826
-537.948
-662.039
-806.829
-975.435
-1171.4
-1398.7
-1661.78
-1965.57
-2315.38
-2716.55
-3173.91
-3691.85
-4274.77
-4924.84
-5633.16
-6368.75
23.7853
40.9984
53.728
64.8316
75.3974
85.6897
95.7522
105.561
115.069
124.217
132.937
141.151
148.766
155.68
161.771
166.899
170.903
173.596
174.761
174.147
171.463
166.371
158.481
147.339
132.418
113.109
88.7044
58.3826
21.1913
-23.9748
-78.3987
-143.57
-221.218
-313.352
-422.304
-550.786
-701.946
-879.443
-1087.52
-1331.08
-1615.77
-1948.15
-2335.76
-2786.85
-3309.67
-3912.62
-4606.62
-5403.37
-6296.33
-7234.91
-8.8805
-4.49873
3.27599
12.0394
20.8779
29.5179
37.8463
45.7904
53.2826
60.2489
66.6052
72.2548
77.0863
80.9714
83.7621
85.288
85.3523
83.7281
80.1534
74.3255
65.8946
54.4562
39.5426
20.6124
-2.96099
-31.9034
-67.0557
-109.393
-160.046
-220.327
-291.761
-376.119
-475.462
-592.191
-729.103
-889.462
-1077.08
-1296.43
-1552.74
-1852.12
-2201.7
-2609.91
-3086.73
-3643.65
-4292.48
-5044.6
-5915.42
-6930.22
-8102.01
-9366.81
1.81728
20.5571
32.6136
43.3364
53.4342
63.1497
72.5249
81.5399
90.1484
98.288
105.882
112.842
119.06
124.416
128.767
131.949
133.771
134.013
132.421
128.699
122.506
113.445
101.06
84.8197
64.1086
38.2146
6.31159
-32.558
-79.5053
-135.82
-202.999
-282.782
-377.194
-488.591
-619.72
-773.79
-954.554
-1166.42
-1414.57
-1705.11
-2045.22
-2443.49
-2910.55
-3459.48
-4104.31
-4857.81
-5739.37
-6802.87
-8134.25
-9708.23
-1.33353
8.19432
17.8884
27.6008
37.0592
46.1973
54.9732
63.342
71.2477
78.6214
85.3809
91.4286
96.651
100.916
104.071
105.939
106.315
104.962
101.606
95.932
87.5717
76.1011
61.0286
41.7849
17.7097
-11.962
-48.1183
-91.7897
-144.174
-206.662
-280.875
-368.702
-472.345
-594.384
-737.84
-906.268
-1103.86
-1335.62
-1607.49
-1926.63
-2301.7
-2743.39
-3265.57
-3886.59
-4628.35
-5513.54
-6577.75
-7925.04
-9764.8
-12141.6
29237
21074.7
17041.7
15523.4
14689
14080.1
13656.5
13372.2
13172
13020.9
12901.2
12803
12719.7
12647
12581.7
12521.6
12465.4
12411.7
12359.7
12308.5
12257.4
12205.9
12153.3
12099
12042.2
11982.4
11918.7
11850.3
11776
11694.9
11605.5
11506.3
11395.6
11271.5
11131.3
10972.2
10790.7
10582.8
10343.8
10067.6
9747.17
9373.82
8936.89
8422.9
7814.35
7087.78
6210.25
5132.49
3774.11
1998.42
3701.96
8291.12
9792.83
10359.1
10793.4
11119
11343.4
11503.5
11622.3
11711.1
11777.2
11825.9
11861.2
11885.8
11901.7
11910.2
11912.5
11909.2
11901.1
11888.3
11871.2
11849.9
11824.3
11794.3
11759.6
11719.8
11674.5
11623
11564.6
11498.1
11422.3
11336
11237.3
11124.2
10994.5
10845.5
10674
10475.9
10246.8
9981.19
9672.38
9312.22
8890.72
8395.55
7811.27
7118.31
6291.73
5300.02
4105.64
2674.72
11031.4
13201.4
14384.5
14487.2
14330.6
14158.9
13972.6
13781.4
13603
13443.9
13303.1
13178.1
13066.6
12966.4
12875.4
12791.8
12714.3
12641.5
12572.3
12505.8
12441.2
12377.6
12314.3
12250.7
12185.8
12119
12049.5
11976.4
11898.7
11815.5
11725.4
11626.9
11518.3
11397.5
11262.2
11109.8
10937.1
10740.6
10515.7
10257.4
9959.51
9614.85
9214.73
8748.78
8204.6
7567.48
6820.42
5944.86
4923.6
3748.35
11380
11789.1
11980.6
11908.9
11806.7
11763.3
11751.7
11749.4
11753.7
11763.5
11776.2
11788.9
11800.3
11809.4
11815.9
11819.2
11819.4
11816.2
11809.8
11799.9
11786.6
11769.8
11749.2
11724.8
11696.1
11662.8
11624.4
11580.2
11529.6
11471.9
11406
11330.9
11244.9
11146.7
11034
10904.6
10755.7
10584
10385.7
10156.4
9890.86
9582.94
9225.56
8810.57
8328.75
7770.06
7124.34
6382.88
5541.82
4607.97
11919
12168.1
12484.7
12716.4
12856.3
12945.6
12997.9
13016.8
13010.4
12987.5
12953.7
12912.8
12867.2
12818.6
12768.3
12717
12665.2
12613.1
12560.7
12508.1
12455.1
12401.4
12346.9
12291.3
12234.1
12174.9
12113.1
12048
11978.9
11904.8
11824.8
11737.7
11642.2
11536.8
11419.7
11288.7
11141.5
10975.1
10786.3
10571.2
10325.7
10044.6
9722.43
9353.02
8929.85
8446.45
7897.19
7278.73
6592.42
5847.07
12122.7
12208.4
12316.5
12378.5
12381.2
12353.1
12314.6
12272.4
12229.2
12187.9
12150
12115.6
12084.3
12055.6
12029
12003.9
11979.7
11956
11932.3
11908.2
11883.3
11857.4
11829.9
11800.5
11768.9
11734.6
11697.2
11656.2
11611
11560.8
11504.8
11442.1
11371.6
11292
11201.8
11099.3
10982.6
10849.2
10696.5
10521.6
10321.1
10091.1
9827.6
9526.3
9182.97
8793.89
8356.62
7871.09
7341.33
6776.86
12235.9
12280.3
12352
12424.2
12479.5
12520.4
12552
12575
12589.1
12594.9
12593.7
12586.4
12574
12557
12536.2
12512.2
12485.3
12455.9
12424.4
12391
12355.7
12318.7
12279.9
12239.2
12196.5
12151.6
12104.2
12054.1
12000.7
11943.6
11882.2
11815.7
11743.3
11664
11576.6
11479.9
11372.2
11251.8
11116.7
10964.5
10792.9
10599.1
10380.2
10133.5
9856.23
9546.59
9203.81
8829.12
8426.66
8003.77
12294.4
12316.6
12354.4
12394.4
12422.5
12435.4
12435.5
12425.6
12407.5
12383.4
12355.3
12324.7
12292.6
12260
12227.4
12194.9
12162.9
12131.2
12100
12069
12038.2
12007.3
11976.2
11944.6
11912.3
11878.9
11844.2
11807.9
11769.4
11728.4
11684.3
11636.6
11584.7
11527.7
11464.9
11395.2
11317.6
11230.8
11133.4
11023.9
10900.6
10761.8
10605.7
10430.8
10235.6
10019.6
9783.08
9527.8
9257.75
8979.08
12325.8
12339.4
12364.5
12395.1
12422.6
12442.9
12456.1
12463.2
12465.1
12462.2
12455.4
12445.1
12432
12416.3
12398.5
12378.8
12357.4
12334.5
12310.1
12284.6
12257.8
12230
12201
12171
12139.9
12107.5
12074
12039.1
12002.6
11964.4
11924.3
11881.9
11836.8
11788.8
11737.3
11681.8
11621.7
11556.2
11484.7
11406.3
11320.1
11225.2
11121
11006.5
10881.6
10746.2
10601.1
10448
10289.8
10130.4
12339.9
12350
12369.2
12393.8
12416.7
12433.4
12442.6
12444.8
12440.7
12430.9
12416.6
12398.7
12378
12355.2
12331
12305.7
12279.8
12253.3
12226.7
12199.8
12172.9
12145.9
12118.9
12091.9
12064.8
12037.6
12010.3
11982.7
11954.9
11926.7
11898
11868.8
11838.9
11808.1
11776.5
11743.7
11709.7
11674.2
11637.1
11598.2
11557.4
11514.7
11469.9
11423.2
11375
11325.9
11276.7
11228.9
11184.6
11146.2
12341.1
12351.2
12370.5
12395.1
12418.1
12435
12444.4
12446.8
12443
12433.6
12419.7
12402.2
12382.1
12360.1
12336.7
12312.4
12287.6
12262.5
12237.4
12212.4
12187.6
12163.1
12139
12115.3
12092.1
12069.5
12047.4
12026
12005.3
11985.4
11966.4
11948.4
11931.6
11916.1
11902.2
11890
11879.9
11872.2
11867.3
11865.7
11868
11874.7
11886.7
11904.7
11929.7
11962.6
12004.4
12056.2
12118.8
12192.9
12329.3
12343
12368.2
12399.1
12426.9
12447.6
12461.4
12469.2
12471.9
12470
12464.3
12455.4
12443.9
12430.2
12414.6
12397.5
12379.1
12359.7
12339.6
12319
12298
12276.9
12255.8
12235.1
12214.8
12195.1
12176.4
12158.9
12142.7
12128.3
12115.9
12106
12098.9
12095.2
12095.4
12100.1
12110.2
12126.4
12149.9
12181.5
12222.7
12274.8
12339.3
12417.6
12511.2
12621.6
12749.8
12896.4
13061.1
13243.2
12300.2
12322.5
12360.5
12400.8
12429.6
12443.2
12444.2
12435.4
12418.7
12396.3
12370.1
12341.8
12312.6
12283.3
12254.4
12226.5
12199.7
12174.2
12150.2
12127.7
12106.8
12087.5
12069.8
12053.9
12039.9
12028
12018.2
12010.9
12006.3
12004.9
12007
12013.2
12024.1
12040.5
12063
12092.9
12131.1
12179.1
12238.4
12310.5
12397.6
12501.6
12624.7
12769.3
12937.4
13131.1
13351.7
13599.5
13873.5
14171.8
12243.8
12288.3
12360.3
12433.1
12489.2
12531.1
12563.9
12588.4
12604.2
12612.3
12613.7
12609.5
12600.7
12588
12572.3
12554.2
12534.3
12513.1
12491.2
12468.9
12446.6
12424.9
12403.9
12384.1
12365.9
12349.6
12335.8
12324.8
12317.2
12313.7
12314.9
12321.5
12334.5
12354.9
12383.9
12422.9
12473.5
12537.4
12616.7
12713.8
12831.2
12971.8
13138.6
13334.6
13563.1
13826.5
14126.7
14464.1
14836.9
15241.2
12132.5
12218.3
12326.8
12389.5
12393.1
12366.2
12329.4
12289
12248.2
12209.8
12175.2
12144.7
12118.1
12094.9
12074.8
12057.2
12041.8
12028.5
12016.9
12006.9
11998.6
11992
11987.2
11984.4
11983.8
11985.7
11990.6
11998.8
12011.1
12027.9
12050.2
12078.9
12115
12159.9
12214.9
12281.7
12362.4
12459.1
12574.5
12711.4
12873.1
13063.4
13286.1
13545.4
13845.5
14190.3
14582.8
15024.3
15513.4
16045.9
11930.5
12179.8
12496.9
12729.3
12870.3
12961
13015.1
13036.2
13032.5
13012.7
12982.8
12946.4
12906.2
12863.9
12821.1
12778.6
12737
12696.9
12658.6
12622.5
12588.7
12557.6
12529.4
12504.5
12483.1
12465.6
12452.6
12444.6
12442.2
12446.2
12457.5
12477.2
12506.4
12546.6
12599.5
12667.1
12751.6
12855.7
12982.3
13135.1
13317.8
13535
13791.6
14093
14444.7
14852.2
15320.4
15852.1
16446.4
17098
11392.9
11802.1
11994.1
11923.3
11822.3
11780.5
11770.9
11771.2
11778.5
11792
11809
11826.9
11844.3
11860.6
11875.3
11888.5
11900.1
11910.5
11919.7
11928.3
11936.5
11944.8
11953.7
11963.7
11975.2
11989
12005.8
12026.1
12051.1
12081.5
12118.6
12163.6
12218
12283.5
12362.1
12456.1
12567.9
12700.8
12858.2
13044.1
13263.2
13520.7
13822.7
14176
14587.9
15066.5
15619.5
16253.6
16971.9
17773
11045.3
13215.6
14399.3
14502.8
14347.5
14177.6
13993.4
13804.9
13629.9
13474.7
13338.7
13219.3
13114.5
13022
12940.1
12867.3
12802.3
12744.2
12692.2
12645.9
12604.8
12568.7
12537.7
12511.6
12490.7
12475.3
12465.7
12462.6
12466.5
12478.5
12499.4
12530.5
12573.4
12629.6
12701.3
12790.8
12901
13035
13196.7
13390.6
13621.8
13896.3
14221.1
14604.5
15055.8
15585.8
16206.5
16930
17766.5
18721.2
3716.56
8305.98
9808.27
10375.5
10811.2
11138.5
11365.2
11528
11650.3
11743.2
11814.2
11868.7
11910.8
11943.5
11968.8
11988.4
12003.7
12015.7
12025.4
12033.6
12041
12048.2
12056.1
12065.1
12076.1
12089.8
12106.9
12128.4
12155.3
12188.6
12229.7
12280
12341.2
12415.2
12504.2
12611
12738.4
12890.1
13070
13283.1
13535
13832.2
14182.7
14595.8
15082.9
15657.7
16337.1
17141.6
18095
19223.2
29251.9
21089.9
17057.4
15540.1
14707.2
14100.3
13679
13397.6
13201
13054.2
12939.6
12847.4
12771.2
12706.9
12651.4
12602.9
12560.1
12522.2
12488.7
12459.1
12433.4
12411.4
12393.4
12379.5
12370
12365.4
12366.2
12373.1
12387
12408.8
12439.7
12481
12534.5
12602
12685.7
12788.3
12912.8
13062.8
13242.6
13457
13712
14014.4
14372.7
14797
15300
15897.9
16612.5
17474.5
18530.8
19863.6
-20153
-15537.8
-13966.6
-10008.5
-8041.32
-4623.32
-2521.31
534.343
2639.82
5449.06
7480.43
10124.5
12023.7
14571.8
16279.8
18803.5
20236.1
22820.3
23821.6
26455.5
-20082.9
-15479.8
-13917.6
-9960.59
-7999.37
-4578.98
-2481.75
577.015
2679.02
5491.36
7520.2
10167.8
12065.3
14618.2
16326
18857.6
20294
22894
23910.1
26583.6
-20021.1
-15419.8
-13866.2
-9909.45
-7954.08
-4531.78
-2438.82
622.641
2721.53
5536.98
7563.63
10214.9
12111.4
14669.1
16377.8
18916.5
20357.5
22969.1
23995.9
26687.8
-19963.6
-15360.4
-13813.8
-9856.34
-7906.41
-4482.16
-2393.28
670.85
2766.74
5585.34
7609.97
10265
12160.6
14723.1
16432.7
18977.6
20422.4
23042.1
24074.9
26775.4
-19908.4
-15301.7
-13760.8
-9801.9
-7856.99
-4430.58
-2345.62
721.225
2814.18
5635.96
7658.62
10317.4
12212.1
14779
16489.2
19039.3
20486.7
23112
24147.6
26853.4
-19854.2
-15243.4
-13707.3
-9746.53
-7806.24
-4377.45
-2296.28
773.353
2863.43
5688.37
7709.03
10371.4
12265.1
14835.9
16546.3
19100.7
20549.3
23178.8
24215.4
26925.3
-19800.5
-15185.3
-13653.5
-9690.43
-7754.48
-4323.12
-2245.61
826.869
2914.09
5742.13
7760.73
10426.5
12318.9
14893.3
16603.5
19161.4
20610.4
23243.1
24279.6
26992.8
-19746.9
-15127.2
-13599.3
-9633.74
-7701.9
-4267.84
-2193.9
881.456
2965.81
5796.88
7813.34
10482.3
12373.3
14950.9
16660.4
19221.3
20669.8
23305.2
24340.9
27057.2
-19693.3
-15068.9
-13544.8
-9576.55
-7648.7
-4211.81
-2141.38
936.853
3018.33
5852.34
7866.56
10538.5
12427.8
15008.3
16716.8
19280.3
20727.8
23365.5
24400.1
27119.2
-19639.6
-15010.5
-13490
-9518.96
-7594.99
-4155.22
-2088.27
992.845
3071.42
5908.27
7920.15
10594.8
12482.4
15065.5
16772.6
19338.5
20784.6
23424.4
24457.5
27179.4
-19585.7
-14951.8
-13435
-9461.02
-7540.89
-4098.2
-2034.7
1049.26
3124.9
5964.49
7973.96
10651.3
12536.9
15122.4
16827.8
19395.8
20840.4
23482
24513.6
27238.1
-19531.7
-14892.9
-13379.7
-9402.81
-7486.49
-4040.86
-1980.82
1105.96
3178.63
6020.88
8027.84
10707.6
12591.1
15178.9
16882.5
19452.5
20895.3
23538.5
24568.4
27295.7
-19477.5
-14833.9
-13324.3
-9344.39
-7431.88
-3983.29
-1926.71
1162.83
3232.51
6077.31
8081.71
10763.8
12645.2
15235
16936.7
19508.4
20949.3
23594.2
24622.4
27352.3
-19423.1
-14774.7
-13268.7
-9285.81
-7377.11
-3925.58
-1872.48
1219.79
3286.44
6133.72
8135.51
10819.8
12698.9
15290.7
16990.3
19563.8
21002.7
23649.1
24675.5
27408
-19368.7
-14715.4
-13213
-9227.13
-7322.24
-3867.79
-1818.18
1276.77
3340.37
6190.04
8189.17
10875.6
12752.4
15346
17043.5
19618.7
21055.5
23703.3
24727.9
27463.1
-19314.2
-14656
-13157.3
-9168.38
-7267.34
-3809.97
-1763.87
1333.71
3394.23
6246.22
8242.68
10931.2
12805.6
15400.9
17096.3
19673
21107.7
23756.9
24779.7
27517.5
-19259.7
-14596.5
-13101.5
-9109.61
-7212.43
-3752.17
-1709.59
1390.57
3448.01
6302.25
8296
10986.4
12858.5
15455.5
17148.6
19726.9
21159.4
23810.1
24830.9
27571.4
-19205.1
-14537.1
-13045.8
-9050.85
-7157.56
-3694.43
-1655.39
1447.31
3501.66
6358.08
8349.12
11041.4
12911
15509.7
17200.6
19780.3
21210.6
23862.7
24881.6
27624.8
-19150.6
-14477.6
-12990.1
-8992.15
-7102.76
-3636.78
-1601.28
1503.91
3555.16
6413.7
8402.03
11096.2
12963.3
15563.6
17252.2
19833.4
21261.5
23914.9
24931.9
27677.8
-19096.2
-14418.2
-12934.6
-8933.53
-7048.05
-3579.25
-1547.3
1560.34
3608.49
6469.11
8454.72
11150.6
13015.3
15617.2
17303.4
19886.1
21311.9
23966.7
24981.8
27730.3
-19041.9
-14358.9
-12879.1
-8875.01
-6993.47
-3521.86
-1493.46
1616.59
3661.64
6524.27
8507.18
11204.8
13067.1
15670.4
17354.4
19938.4
21362
24018.2
25031.3
27782.5
-18987.7
-14299.7
-12823.7
-8816.62
-6939.03
-3464.63
-1439.78
1672.64
3714.6
6579.19
8559.41
11258.6
13118.5
15723.3
17405
19990.4
21411.8
24069.2
25080.4
27834.3
-18933.6
-14240.6
-12768.5
-8758.37
-6884.74
-3407.57
-1386.28
1728.47
3767.36
6633.86
8611.41
11312.2
13169.7
15775.9
17455.3
20042
21461.2
24120
25129.2
27885.8
-18879.7
-14181.7
-12713.5
-8700.29
-6830.63
-3350.71
-1332.97
1784.07
3819.92
6688.28
8663.17
11365.5
13220.7
15828.1
17505.3
20093.3
21510.3
24170.4
25177.6
27937
-18826
-14122.9
-12658.6
-8642.38
-6776.7
-3294.06
-1279.85
1839.45
3872.26
6742.44
8714.7
11418.6
13271.3
15880.1
17555.1
20144.4
21559.1
24220.5
25225.7
27987.9
-18772.5
-14064.3
-12604
-8584.67
-6722.97
-3237.62
-1226.94
1894.58
3924.38
6796.33
8765.99
11471.3
13321.8
15931.8
17604.6
20195.1
21607.6
24270.3
25273.6
28038.5
-18719.1
-14005.9
-12549.5
-8527.16
-6669.45
-3181.4
-1174.24
1949.47
3976.28
6849.95
8817.05
11523.8
13371.9
15983.2
17653.8
20245.5
21655.8
24319.9
25321.1
28088.8
-18666
-13947.6
-12495.3
-8469.87
-6616.15
-3125.42
-1121.75
2004.1
4027.95
6903.3
8867.87
11575.9
13421.8
16034.3
17702.7
20295.6
21703.8
24369.1
25368.3
28138.8
-18613.1
-13889.6
-12441.3
-8412.8
-6563.06
-3069.69
-1069.49
2058.47
4079.4
6956.38
8918.45
11627.8
13471.5
16085.1
17751.4
20345.5
21751.5
24418.1
25415.3
28188.6
-18560.4
-13831.8
-12387.5
-8355.96
-6510.21
-3014.2
-1017.46
2112.58
4130.62
7009.18
8968.8
11679.4
13520.9
16135.7
17799.8
20395.1
21798.9
24466.7
25462
28238.1
-18508
-13774.2
-12334
-8299.35
-6457.59
-2958.96
-965.657
2166.41
4181.6
7061.7
9018.91
11730.7
13570.1
16185.9
17848
20444.4
21846
24515.2
25508.4
28287.3
-18455.9
-13716.9
-12280.7
-8242.99
-6405.21
-2903.98
-914.089
2219.98
4232.35
7113.94
9068.78
11781.8
13619
16235.9
17895.9
20493.4
21892.9
24563.3
25554.5
28336.3
-18403.9
-13659.7
-12227.7
-8186.88
-6353.07
-2849.27
-862.759
2273.27
4282.87
7165.89
9118.42
11832.5
13667.7
16285.6
17943.5
20542.1
21939.5
24611.2
25600.4
28385
-18352.3
-13602.9
-12174.9
-8131.03
-6301.18
-2794.82
-811.669
2326.29
4333.15
7217.56
9167.81
11883
13716.1
16335
17990.9
20590.6
21985.9
24658.8
25646
28433.5
-18300.9
-13546.2
-12122.4
-8075.43
-6249.54
-2740.64
-760.821
2379.02
4383.19
7268.94
9216.97
11933.1
13764.3
16384.1
18038.1
20638.8
22032
24706.2
25691.4
28481.7
-18249.8
-13489.9
-12070.1
-8020.1
-6198.15
-2686.74
-710.217
2431.46
4432.99
7320.03
9265.89
11983
13812.3
16432.9
18085
20686.7
22077.8
24753.3
25736.4
28529.6
-18198.9
-13433.7
-12018.2
-7965.03
-6147.02
-2633.12
-659.858
2483.62
4482.55
7370.83
9314.57
12032.6
13860
16481.5
18131.7
20734.3
22123.4
24800.1
25781.2
28577.3
-18148.3
-13377.8
-11966.5
-7910.24
-6096.14
-2579.78
-609.746
2535.48
4531.87
7421.33
9363.01
12081.9
13907.5
16529.7
18178.1
20781.7
22168.7
24846.7
25825.8
28624.8
-18098.1
-13322.2
-11915
-7855.72
-6045.53
-2526.73
-559.882
2587.06
4580.95
7471.54
9411.21
12130.9
13954.7
16577.7
18224.2
20828.7
22213.8
24893
25870
28672
-18048
-13266.9
-11863.9
-7801.47
-5995.17
-2473.96
-510.269
2638.33
4629.78
7521.45
9459.17
12179.6
14001.7
16625.4
18270.2
20875.6
22258.6
24939
25914.1
28719
-17998.3
-13211.8
-11813
-7747.5
-5945.08
-2421.49
-460.905
2689.31
4678.38
7571.06
9506.89
12228
14048.4
16672.8
18315.8
20922.1
22303.2
24984.8
25957.8
28765.7
-17948.9
-13157
-11762.4
-7693.82
-5895.25
-2369.31
-411.793
2739.99
4726.73
7620.36
9554.37
12276.1
14094.9
16719.9
18361.2
20968.3
22347.5
25030.3
26001.3
28812.1
-17899.7
-13102.5
-11712.1
-7640.42
-5845.69
-2317.42
-362.933
2790.37
4774.83
7669.36
9601.61
12323.9
14141.2
16766.7
18406.4
21014.3
22391.6
25075.6
26044.5
28858.4
-17850.8
-13048.2
-11662
-7587.3
-5796.39
-2265.83
-314.326
2840.44
4822.7
7718.06
9648.61
12371.4
14187.2
16813.2
18451.3
21060
22435.4
25120.6
26087.5
28904.3
-17802.3
-12994.2
-11612.3
-7534.48
-5747.37
-2214.54
-265.973
2890.2
4870.31
7766.44
9695.37
12418.6
14233
16859.4
18496
21105.4
22478.9
25165.3
26130.2
28950
-17754
-12940.5
-11562.8
-7481.94
-5698.61
-2163.55
-217.873
2939.66
4917.69
7814.52
9741.88
12465.5
14278.5
16905.3
18540.5
21150.6
22522.2
25209.7
26172.6
28995.5
-17706
-12887
-11513.7
-7429.7
-5650.11
-2112.87
-170.028
2988.8
4964.81
7862.28
9788.16
12512.1
14323.8
16951
18584.6
21195.4
22565.3
25253.9
26214.8
29040.7
-17658.3
-12833.9
-11464.8
-7377.76
-5601.89
-2062.49
-122.438
3037.63
5011.7
7909.73
9834.19
12558.4
14368.8
16996.3
18628.6
21240
22608.1
25297.9
26256.7
29085.6
-17610.9
-12781
-11416.2
-7326.11
-5553.94
-2012.43
-75.1029
3086.14
5058.33
7956.86
9879.99
12604.4
14413.7
17041.4
18672.3
21284.3
22650.6
25341.5
26298.3
29130.3
-17563.8
-12728.4
-11367.9
-7274.75
-5506.26
-1962.67
-28.023
3134.34
5104.73
8003.67
9925.54
12650
14458.2
17086.1
18715.7
21328.3
22692.8
25384.9
26339.6
29174.7
-17517
-12676.1
-11319.8
-7223.7
-5458.85
-1913.23
18.8013
3182.21
5150.87
8050.16
9970.85
12695.4
14502.5
17130.5
18758.9
21372
22734.8
25428
26380.7
29218.9
-17470.5
-12624.1
-11272.1
-7172.96
-5411.71
-1864.1
65.37
3229.77
5196.77
8096.33
10015.9
12740.4
14546.6
17174.7
18801.8
21415.4
22776.6
25470.9
26421.5
29262.8
-17424.3
-12572.4
-11224.7
-7122.51
-5364.85
-1815.28
111.683
3277
5242.43
8142.18
10060.7
12785.1
14590.4
17218.5
18844.5
21458.5
22818.1
25513.5
26462.1
29306.5
-17378.4
-12520.9
-11177.5
-7072.37
-5318.25
-1766.79
157.74
3323.9
5287.84
8187.7
10105.3
12829.5
14634
17262
18886.9
21501.4
22859.3
25555.8
26502.4
29349.9
-17332.8
-12469.8
-11130.7
-7022.54
-5271.93
-1718.62
203.542
3370.48
5333
8232.89
10149.7
12873.6
14677.3
17305.2
18929.1
21543.9
22900.3
25597.8
26542.4
29393
-17287.5
-12418.9
-11084.1
-6973.02
-5225.88
-1670.77
249.087
3416.72
5377.92
8277.75
10193.8
12917.3
14720.4
17348.1
18971
21586.2
22941
25639.6
26582.1
29435.9
-17242.5
-12368.4
-11037.9
-6923.81
-5180.11
-1623.25
294.378
3462.64
5422.59
8322.28
10237.6
12960.7
14763.3
17390.7
19012.7
21628.2
22981.4
25681.1
26621.5
29478.5
-17197.8
-12318.1
-10991.9
-6874.92
-5134.6
-1576.05
339.413
3508.22
5467.02
8366.48
10281.2
13003.8
14805.9
17433
19054.1
21669.9
23021.6
25722.3
26660.7
29520.9
-17153.5
-12268.1
-10946.2
-6826.33
-5089.37
-1529.18
384.192
3553.46
5511.2
8410.34
10324.6
13046.6
14848.3
17475
19095.3
21711.2
23061.5
25763.2
26699.6
29563
-17109.4
-12218.4
-10900.9
-6778.07
-5044.41
-1482.64
428.717
3598.37
5555.14
8453.87
10367.7
13089
14890.4
17516.6
19136.2
21752.3
23101.2
25803.9
26738.3
29604.8
-17065.6
-12169.1
-10855.8
-6730.12
-4999.72
-1436.44
472.988
3642.93
5598.83
8497.05
10410.6
13131.1
14932.2
17557.9
19176.9
21793.1
23140.5
25844.3
26776.6
29646.4
-17022.2
-12120
-10811
-6682.49
-4955.31
-1390.57
517.004
3687.16
5642.28
8539.9
10453.3
13172.9
14973.9
17599
19217.3
21833.6
23179.7
25884.4
26814.7
29687.7
-16979
-12071.2
-10766.5
-6635.18
-4911.16
-1345.03
560.767
3731.03
5685.49
8582.4
10495.7
13214.4
15015.2
17639.7
19257.4
21873.8
23218.5
25924.2
26852.5
29728.8
-16936.1
-12022.7
-10722.3
-6588.2
-4867.29
-1299.84
604.276
3774.57
5728.46
8624.56
10537.9
13255.5
15056.4
17680.1
19297.3
21913.7
23257.1
25963.7
26890
29769.6
-16893.6
-11974.5
-10678.4
-6541.54
-4823.69
-1254.98
647.533
3817.75
5771.18
8666.37
10579.8
13296.3
15097.3
17720.1
19337
21953.3
23295.5
26003
26927.2
29810.1
-16851.4
-11926.7
-10634.8
-6495.21
-4780.36
-1210.47
690.538
3860.59
5813.66
8707.83
10621.5
13336.7
15137.9
17759.9
19376.4
21992.6
23333.5
26042
26964.2
29850.3
-16809.4
-11879.1
-10591.5
-6449.2
-4737.3
-1166.31
733.291
3903.07
5855.89
8748.95
10662.9
13376.8
15178.3
17799.3
19415.5
22031.5
23371.3
26080.7
27000.9
29890.3
-16767.8
-11831.8
-10548.5
-6403.53
-4694.5
-1122.49
775.793
3945.2
5897.89
8789.71
10704.1
13416.6
15218.5
17838.4
19454.4
22070.2
23408.8
26119.1
27037.3
29930
-16726.5
-11784.9
-10505.8
-6358.18
-4651.98
-1079.01
818.045
3986.97
5939.65
8830.11
10745.1
13456
15258.4
17877.1
19493
22108.6
23446.1
26157.2
27073.4
29969.4
-16685.5
-11738.2
-10463.4
-6313.17
-4609.73
-1035.89
860.048
4028.38
5981.16
8870.17
10785.8
13495
15298
17915.6
19531.4
22146.7
23483.1
26195.1
27109.2
30008.6
-16644.8
-11691.9
-10421.2
-6268.5
-4567.74
-993.127
901.803
4069.44
6022.44
8909.86
10826.3
13533.8
15337.5
17953.7
19569.5
22184.4
23519.8
26232.6
27144.8
30047.5
-16604.4
-11645.9
-10379.4
-6224.16
-4526.02
-950.715
943.309
4110.13
6063.48
8949.2
10866.6
13572.1
15376.6
17991.5
19607.4
22221.9
23556.3
26269.9
27180.1
30086.1
-16564.3
-11600.1
-10337.9
-6180.16
-4484.57
-908.66
984.57
4150.46
6104.28
8988.17
10906.6
13610.2
15415.6
18028.9
19645
22259
23592.5
26306.9
27215.1
30124.5
-16524.5
-11554.7
-10296.6
-6136.5
-4443.38
-866.964
1025.58
4190.42
6144.85
9026.79
10946.4
13647.9
15454.3
18066.1
19682.3
22295.9
23628.4
26343.6
27249.8
30162.6
-16485.1
-11509.6
-10255.7
-6093.18
-4402.45
-825.63
1066.35
4230.01
6185.18
9065.04
10985.9
13685.2
15492.7
18102.9
19719.4
22332.4
23664.1
26380
27284.2
30200.4
-16445.9
-11464.9
-10215
-6050.21
-4361.79
-784.659
1106.88
4269.23
6225.27
9102.92
11025.2
13722.2
15530.9
18139.3
19756.3
22368.6
23699.5
26416.2
27318.3
30237.9
-16407
-11420.4
-10174.7
-6007.58
-4321.39
-744.054
1147.17
4308.08
6265.13
9140.44
11064.3
13758.8
15568.9
18175.4
19792.9
22404.5
23734.6
26452
27352.2
30275.2
-16368.5
-11376.3
-10134.6
-5965.3
-4281.25
-703.817
1187.21
4346.56
6304.76
9177.59
11103.2
13795.1
15606.6
18211.2
19829.2
22440.1
23769.4
26487.5
27385.7
30312.2
-16330.3
-11332.4
-10094.8
-5923.38
-4241.37
-663.951
1227.01
4384.66
6344.16
9214.37
11141.8
13831
15644.1
18246.7
19865.3
22475.3
23804
26522.8
27419
30348.9
-16292.3
-11288.9
-10055.3
-5881.8
-4201.74
-624.457
1266.58
4422.38
6383.32
9250.77
11180.1
13866.5
15681.3
18281.8
19901.1
22510.3
23838.3
26557.8
27452
30385.4
-16254.7
-11245.7
-10016.1
-5840.58
-4162.38
-585.338
1305.91
4459.72
6422.26
9286.81
11218.3
13901.7
15718.3
18316.6
19936.7
22545
23872.4
26592.4
27484.7
30421.5
-16217.4
-11202.9
-9977.18
-5799.71
-4123.26
-546.597
1345
4496.68
6460.96
9322.46
11256.2
13936.6
15755
18351
19972
22579.3
23906.1
26626.8