/*--------------------------------*- C++ -*----------------------------------*\
  =========                 |
  \\      /  F ield         | OpenFOAM: The Open Source CFD Toolbox
   \\    /   O peration     | Website:  https://openfoam.org
    \\  /    A nd           | Version:  8
     \\/     M anipulation  |
\*---------------------------------------------------------------------------*/
FoamFile
{
    version     2.0;
    format      ascii;
    class       volScalarField;
    location    "800";
    object      alphat;
}
// * * * * * * * * * * * * * * * * * * * * * * * * * * * * * * * * * * * * * //

dimensions      [1 -1 -1 0 0 0 0];

internalField   nonuniform List<scalar> 
8400
(
0.0539415
0.0536711
0.0534575
0.0532875
0.0531451
0.0530094
0.0528557
0.052659
0.0524073
0.0521189
0.051879
0.0517254
0.0516054
0.0514993
0.0513951
0.0512816
0.0511479
0.050981
0.0505145
0.0496406
0.0483371
0.0466479
0.0446532
0.0424966
0.0404449
0.0389231
0.0383971
0.0388612
0.0394103
0.039596
0.0394984
0.0392617
0.0389062
0.0384454
0.0380206
0.0376285
0.0372487
0.0368755
0.0365053
0.0361392
0.0357775
0.0354184
0.0350621
0.0347084
0.0343575
0.034009
0.0336635
0.0333226
0.0329718
0.0326476
0.0474926
0.0475556
0.0475995
0.0477112
0.0479261
0.0482902
0.0488588
0.0496604
0.0506531
0.0517159
0.0526746
0.0534252
0.0541688
0.0549146
0.0556263
0.0562472
0.0567021
0.0568712
0.0565135
0.0558901
0.0548644
0.0532833
0.0509476
0.0476398
0.0432449
0.0379803
0.0326966
0.0297604
0.028796
0.0286695
0.0289317
0.0292142
0.0295801
0.029973
0.0300615
0.0299971
0.02985
0.0296529
0.0294286
0.0291958
0.0289682
0.0287546
0.0285627
0.0283953
0.028253
0.0281386
0.0280514
0.0279879
0.0280416
0.0280175
0.0551451
0.054417
0.0538707
0.0534195
0.0529919
0.0525865
0.0522736
0.0521858
0.0524803
0.0532424
0.0543316
0.0553584
0.0562875
0.0571302
0.05779
0.0581357
0.0580116
0.057213
0.0573922
0.0577072
0.0579235
0.0578607
0.057256
0.0556387
0.0523388
0.0467634
0.038129
0.033683
0.0328837
0.0326084
0.0325231
0.0321382
0.0320981
0.0321867
0.0323204
0.0325031
0.032728
0.032992
0.0332876
0.0336047
0.0339338
0.0342622
0.0345761
0.0348639
0.0351168
0.0353274
0.0354878
0.0355923
0.0356468
0.0356351
0.0611705
0.061095
0.0610159
0.060933
0.0608441
0.060748
0.0606439
0.0605331
0.0604191
0.0603086
0.0598435
0.060804
0.062522
0.0626547
0.06063
0.0609487
0.0576125
0.0560813
0.0564693
0.057085
0.0576096
0.0579658
0.0581687
0.0582594
0.058254
0.0581996
0.0443137
0.0361587
0.0368408
0.0371322
0.0365276
0.0358841
0.0357818
0.0357522
0.0358591
0.0360943
0.0364314
0.0368364
0.0372814
0.0377372
0.0381834
0.0386035
0.0389835
0.0393182
0.0396026
0.0398336
0.0400101
0.0401313
0.0401745
0.0401765
0.0612125
0.0611881
0.0611631
0.0611373
0.0611103
0.0610823
0.0610528
0.0610214
0.0609875
0.0609518
0.0609118
0.0609339
0.061072
0.0612893
0.0615004
0.0613837
0.0611372
0.060781
0.0604014
0.060041
0.0597265
0.0594677
0.0592554
0.0590673
0.0588653
0.0587665
0.0586352
0.0562936
0.055415
0.0680612
0.0382229
0.0381052
0.0380838
0.0382746
0.0383542
0.0385908
0.0389402
0.0393518
0.0397859
0.0402141
0.0406159
0.0409796
0.0413
0.0415767
0.0418121
0.0420076
0.0421654
0.0422872
0.0423668
0.0424017
0.0612052
0.0611726
0.0611403
0.0611083
0.0610763
0.0610445
0.0610126
0.0609813
0.0609501
0.0609196
0.06089
0.0608697
0.060872
0.0608956
0.0609226
0.0609252
0.0608269
0.0607142
0.0605874
0.0604569
0.0603299
0.0602105
0.0600977
0.0599966
0.0599161
0.0597466
0.059558
0.0591495
0.0587152
0.0596887
0.0546503
0.050979
0.0523126
0.0398586
0.039849
0.0401108
0.0404844
0.0409069
0.0413363
0.0417506
0.0421398
0.0425011
0.0428328
0.0431374
0.0434156
0.0436651
0.0438826
0.0440652
0.0442552
0.0443603
0.061203
0.0611679
0.0611325
0.0610969
0.061061
0.0610246
0.0609886
0.0609529
0.0609178
0.0608829
0.0608486
0.0608167
0.0607898
0.0607681
0.0607476
0.0607204
0.0606792
0.0606218
0.0605628
0.0605025
0.0604416
0.0603814
0.0603214
0.0602511
0.0601593
0.0600536
0.0599243
0.0597363
0.0595081
0.0593922
0.0576828
0.0554881
0.0541651
0.0496959
0.0443069
0.040928
0.0413934
0.0418821
0.0423814
0.0428857
0.0433917
0.0439021
0.0444141
0.0449181
0.0454018
0.0458535
0.0462546
0.0465863
0.0468666
0.047043
0.0611968
0.0611549
0.0611136
0.0610717
0.0610297
0.0609875
0.0609455
0.0609039
0.060863
0.0608224
0.060783
0.0607445
0.0607078
0.0606734
0.0606397
0.0606044
0.0605659
0.0605234
0.0604776
0.0604298
0.0603801
0.0603297
0.0602784
0.0602257
0.0601677
0.0600992
0.0600125
0.0598951
0.0597471
0.0595427
0.0586964
0.057323
0.0558849
0.0529613
0.0484558
0.0431773
0.0418259
0.042424
0.0430439
0.0436985
0.044382
0.0450898
0.0458071
0.0465116
0.0471801
0.0477938
0.04833
0.0487678
0.0490065
0.049202
0.0611895
0.061139
0.0610885
0.0610381
0.0609871
0.060937
0.0608873
0.0608379
0.0607886
0.0607399
0.0606923
0.0606458
0.0606016
0.0605589
0.0605172
0.0604762
0.0604345
0.0603917
0.0603478
0.0603038
0.0602604
0.0602168
0.0601728
0.0601294
0.0600841
0.0600354
0.0599784
0.0599036
0.0598023
0.0596301
0.059115
0.0581834
0.0569285
0.0546673
0.0509071
0.0459138
0.0426077
0.0426791
0.0434226
0.0442254
0.0450669
0.0459112
0.046714
0.047443
0.048076
0.0486057
0.0490335
0.0493791
0.0494679
0.0496801
0.0611753
0.0611099
0.0610446
0.0609801
0.0609154
0.0608518
0.0607886
0.0607273
0.060667
0.0606082
0.0605511
0.0604949
0.060441
0.0603903
0.0603409
0.0602937
0.0602489
0.0602059
0.0601644
0.0601237
0.0600844
0.0600478
0.0600135
0.0599818
0.059952
0.0599217
0.0598858
0.0598395
0.0597724
0.0596428
0.05929
0.0586102
0.05755
0.0556812
0.0524924
0.0480224
0.0440493
0.0427625
0.0436258
0.044569
0.0455183
0.0464204
0.0471991
0.0478041
0.048205
0.0483874
0.0483703
0.0482293
0.0482891
0.0487527
0.0611507
0.0610565
0.0609636
0.0608733
0.0607863
0.0607002
0.0606168
0.0605347
0.0604544
0.0603767
0.0603022
0.0602339
0.0601699
0.060111
0.0600569
0.0600101
0.0599689
0.0599288
0.0598937
0.0598646
0.0598397
0.0598205
0.059806
0.0597935
0.0597829
0.0597728
0.0597596
0.0597386
0.0596997
0.0596055
0.0593446
0.0588172
0.0579154
0.0563186
0.0535878
0.0496759
0.0456912
0.0433882
0.0433567
0.0443302
0.0455225
0.0466777
0.0473139
0.0477691
0.0482268
0.0490359
0.0498212
0.0436099
0.0460617
0.0472701
0.0610839
0.0609154
0.0607584
0.0606134
0.0604818
0.060354
0.060234
0.0601217
0.0600124
0.0599122
0.0598197
0.0597377
0.0596721
0.0596221
0.0595793
0.0595467
0.0595262
0.0595129
0.0595081
0.0595147
0.059527
0.0595417
0.0595586
0.0595782
0.0595972
0.0596122
0.0596214
0.0596221
0.0596046
0.0595363
0.0593311
0.0589004
0.0581191
0.0567287
0.0543804
0.0510173
0.04736
0.0446354
0.0435991
0.0438491
0.0447428
0.0458174
0.0466012
0.0470398
0.0471567
0.0469153
0.0457695
0.0443957
0.0451306
0.0465903
0.0604932
0.0602594
0.0599823
0.0597782
0.0596112
0.059461
0.05932
0.0591951
0.0590691
0.0589841
0.058934
0.0588948
0.0588734
0.0588802
0.0588966
0.0589288
0.0589703
0.0590309
0.0591007
0.0591645
0.0592264
0.0592945
0.0593477
0.0593941
0.0594308
0.059462
0.0594867
0.0595031
0.0595012
0.0594497
0.0592756
0.0589018
0.0582091
0.0569847
0.0549663
0.0521251
0.0489604
0.0462946
0.044714
0.0441733
0.044336
0.0448426
0.045348
0.0456713
0.0457529
0.0456017
0.0452245
0.0453998
0.0462037
0.0473567
0.0594456
0.0592277
0.0590071
0.058848
0.0587287
0.0586397
0.0585763
0.058535
0.0585106
0.0585034
0.0585069
0.0585208
0.0585453
0.0585777
0.0586184
0.0586699
0.0587266
0.0587916
0.0588651
0.0589388
0.059011
0.0590849
0.0591527
0.0592139
0.0592664
0.0593131
0.0593534
0.0593804
0.0593878
0.0593515
0.0591835
0.0588418
0.0582114
0.0571228
0.0553946
0.0530403
0.0504261
0.0480983
0.0464502
0.0455275
0.0451716
0.0451716
0.0453285
0.045516
0.045692
0.0458828
0.0461402
0.0467679
0.0476922
0.0487277
0.058508
0.0584165
0.0583351
0.0582798
0.0582468
0.0582283
0.0582207
0.0582233
0.0582339
0.0582521
0.0582789
0.0583099
0.0583459
0.0583866
0.0584333
0.0584891
0.05855
0.0586151
0.0586867
0.0587612
0.0588365
0.058914
0.0589863
0.0590534
0.0591159
0.0591715
0.0592176
0.0592485
0.0592535
0.0592075
0.0590527
0.0587657
0.0581347
0.0571604
0.0556902
0.0537813
0.0517129
0.0498441
0.0484218
0.0474969
0.0469954
0.0468056
0.0468265
0.0469919
0.0472726
0.0476664
0.0481981
0.0488858
0.0496827
0.0504885
0.0579873
0.0579768
0.0579717
0.0579741
0.0579834
0.0579999
0.0580207
0.0580459
0.058077
0.0581102
0.058148
0.0581888
0.0582347
0.0582853
0.0583387
0.0583966
0.0584589
0.0585228
0.0585896
0.058659
0.0587277
0.0587962
0.0588632
0.0589267
0.058985
0.059035
0.0590726
0.0590926
0.0590819
0.0590202
0.0588668
0.0585871
0.0580737
0.0570974
0.0558666
0.0543605
0.0527982
0.0514077
0.050332
0.0496038
0.0491863
0.0490209
0.0490534
0.049243
0.04956
0.0499803
0.0504932
0.0510542
0.0516364
0.0521913
0.0578008
0.0578237
0.0578492
0.0578767
0.0579064
0.0579385
0.0579733
0.0580098
0.058048
0.058087
0.0581283
0.0581715
0.0582175
0.058266
0.0583156
0.0583665
0.0584197
0.0584741
0.0585292
0.0585841
0.0586391
0.0586937
0.0587453
0.0587932
0.0588345
0.0588664
0.0588861
0.0588853
0.0588522
0.0587709
0.0586097
0.0583351
0.0578684
0.05707
0.0559271
0.0547881
0.0536781
0.0527284
0.0520092
0.0515312
0.0512723
0.0511986
0.0512749
0.0514686
0.0517517
0.0520969
0.0524821
0.0528691
0.0532432
0.0535837
0.0577755
0.0578058
0.0578358
0.0578659
0.0578969
0.0579283
0.0579602
0.0579931
0.0580264
0.0580603
0.0580953
0.0581311
0.0581672
0.0582036
0.0582419
0.0582812
0.0583204
0.0583599
0.0584002
0.0584399
0.0584779
0.0585145
0.0585482
0.0585774
0.0585993
0.0586099
0.0586067
0.058583
0.0585274
0.0584265
0.0582587
0.0579959
0.0575843
0.0569353
0.0559442
0.0550838
0.0543618
0.0537844
0.0533721
0.0531199
0.053009
0.0530149
0.0531127
0.0532783
0.0534902
0.0537274
0.0539719
0.0542028
0.0544172
0.0546091
0.0577278
0.0577453
0.0577622
0.057779
0.0577958
0.057813
0.0578307
0.0578489
0.0578675
0.0578869
0.0579068
0.0579273
0.0579497
0.0579726
0.0579956
0.0580194
0.0580443
0.0580698
0.0580944
0.0581183
0.0581416
0.0581627
0.0581787
0.0581892
0.0581926
0.0581841
0.0581605
0.0581162
0.058043
0.0579318
0.0577673
0.0575283
0.0571823
0.0566742
0.0558993
0.055233
0.0548446
0.0545661
0.0543897
0.0543052
0.0542967
0.0543453
0.0544364
0.054555
0.0546877
0.0548226
0.0549796
0.0551889
0.0554393
0.0557122
0.0781893
0.0776126
0.0770401
0.076457
0.075861
0.075251
0.074626
0.0739874
0.0733362
0.0726747
0.0720037
0.0713236
0.070637
0.0699451
0.0692493
0.0685507
0.0678516
0.0671547
0.0664619
0.0657756
0.0650982
0.0644334
0.0637834
0.063149
0.0625316
0.0619303
0.0613431
0.0607675
0.0601989
0.059631
0.0590563
0.0584662
0.0578534
0.0572095
0.0565111
0.0560357
0.0561769
0.0564961
0.0569197
0.0574159
0.057971
0.0585774
0.0592326
0.0599369
0.0606912
0.0614968
0.062325
0.0631336
0.0639253
0.0647034
0.00545047
0.00556074
0.00578586
0.00568097
0.00546629
0.00533444
0.00529923
0.00530059
0.00529574
0.00527672
0.00525151
0.00522646
0.00520227
0.00517732
0.0051507
0.00512282
0.00509471
0.00506732
0.00504136
0.00501732
0.00499855
0.00496168
0.00494317
0.00492169
0.00490041
0.00490137
0.0048736
0.00484752
0.00482246
0.00479762
0.00477164
0.00474369
0.00471403
0.00468349
0.00465337
0.00462525
0.00460068
0.00458095
0.00456681
0.00455807
0.00455298
0.00455137
0.00455253
0.00455558
0.00455879
0.00456007
0.00455491
0.00454043
0.00450953
0.00445396
0.00527568
0.0046919
0.00465323
0.00477034
0.00482532
0.00478357
0.00469728
0.00461282
0.00454149
0.00447571
0.00440754
0.00433515
0.00426058
0.00418645
0.00411461
0.00404625
0.00398233
0.00392354
0.00387122
0.00382382
0.0037709
0.0160552
0.016099
0.00370258
0.00363301
0.0156836
0.0158019
0.0159055
0.0159719
0.0159883
0.0159552
0.01588
0.0157747
0.0156546
0.0155348
0.015428
0.0153434
0.0152871
0.0152616
0.0152682
0.015309
0.0153713
0.0154386
0.0154918
0.0155143
0.0154996
0.0154723
0.0154702
0.0155199
0.0155558
0.00555491
0.00526954
0.00500776
0.00489438
0.00484152
0.00478423
0.00470768
0.0046228
0.00453927
0.00445863
0.0043787
0.00429797
0.00421672
0.00413621
0.00405776
0.00398247
0.00391118
0.00384491
0.0037626
0.015954
0.0157218
0.0155946
0.0155125
0.0154415
0.0153717
0.0152978
0.0152205
0.015132
0.0150305
0.0149142
0.014783
0.014639
0.014486
0.0143302
0.0141783
0.0140372
0.0139129
0.0138096
0.0137299
0.0136734
0.013638
0.0136193
0.0136107
0.0136034
0.0135841
0.0135326
0.0134295
0.0132816
0.0131795
0.0133065
0.00542216
0.0053529
0.00516167
0.00500055
0.00488926
0.00480405
0.00472317
0.00463972
0.00455519
0.00447145
0.00438856
0.00430596
0.00422358
0.00414211
0.00406266
0.00398631
0.00391392
0.0038466
0.00376419
0.0159473
0.0157127
0.0155761
0.0154842
0.015409
0.0153352
0.0152543
0.0151617
0.0150555
0.0149346
0.0147991
0.0146504
0.014491
0.0143247
0.0141567
0.0139928
0.0138389
0.0137005
0.0135815
0.0134842
0.0134085
0.0133521
0.0133101
0.0132768
0.013248
0.0132213
0.0131891
0.013124
0.0129796
0.0127562
0.0126747
0.00533896
0.00526412
0.00515166
0.00502069
0.00490346
0.00480578
0.00471943
0.00463633
0.00455327
0.00446999
0.00438683
0.00430396
0.00422167
0.00414057
0.0040616
0.00398574
0.00391385
0.00384646
0.00378222
0.0158587
0.0157395
0.0156344
0.01554
0.0154505
0.0153606
0.0152655
0.0151616
0.0150466
0.0149192
0.0147792
0.0146275
0.0144664
0.0142998
0.0141323
0.0139693
0.0138165
0.0136786
0.0135595
0.0134614
0.0133842
0.0133256
0.0132801
0.013239
0.0131936
0.013141
0.0130894
0.013045
0.0129737
0.0127987
0.0126461
0.00534548
0.00521216
0.00511212
0.00500787
0.00490356
0.00480676
0.0047182
0.00463437
0.004552
0.00446961
0.00438699
0.00430443
0.00422248
0.00414188
0.00406354
0.00398838
0.00391716
0.00385038
0.00378683
0.0158948
0.0157777
0.015673
0.0155766
0.0154834
0.0153885
0.0152875
0.0151775
0.0150565
0.0149237
0.0147793
0.0146247
0.0144622
0.0142955
0.0141293
0.0139683
0.0138178
0.0136821
0.0135647
0.0134672
0.01339
0.0133314
0.0132877
0.0132517
0.0132114
0.0131534
0.0130752
0.0129967
0.0129303
0.0128069
0.01266
0.00537311
0.00521543
0.00509874
0.00499754
0.00490064
0.00480741
0.00471872
0.00463377
0.00455073
0.00446817
0.00438553
0.00430301
0.00422118
0.00414086
0.00406297
0.00398839
0.0039178
0.0038516
0.00378842
0.0159091
0.0157932
0.0156874
0.0155883
0.0154911
0.0153912
0.0152848
0.0151691
0.0150428
0.0149058
0.0147586
0.0146031
0.0144417
0.0142777
0.0141154
0.0139592
0.0138134
0.0136821
0.0135681
0.0134729
0.0133959
0.0133351
0.0132874
0.0132494
0.0132144
0.0131687
0.0130958
0.012999
0.0129088
0.0127975
0.0126631
0.00538392
0.00523324
0.0051055
0.00499795
0.00490063
0.00480865
0.00472033
0.00463477
0.00455094
0.00446785
0.004385
0.00430246
0.00422079
0.00414081
0.00406343
0.00398946
0.00391952
0.00385398
0.00378765
0.0159556
0.0158296
0.0157016
0.0155817
0.0154679
0.0153553
0.0152393
0.0151168
0.0149863
0.0148475
0.0147012
0.0145491
0.0143935
0.0142373
0.0140838
0.0139367
0.0137996
0.0136758
0.0135679
0.0134773
0.0134035
0.0133437
0.0132934
0.0132484
0.0132063
0.0131618
0.0130997
0.0130069
0.0129034
0.012788
0.0126579
0.00538076
0.00524164
0.00511416
0.00500272
0.00490277
0.00480997
0.00472142
0.00463544
0.00455096
0.0044673
0.00438409
0.00430146
0.00421995
0.00414033
0.00406349
0.00399016
0.00392084
0.00385571
0.00379466
0.0159438
0.0158309
0.0157202
0.0156092
0.0154956
0.0153773
0.0152531
0.0151221
0.0149845
0.0148409
0.0146924
0.0145406
0.0143877
0.0142361
0.0140882
0.0139469
0.0138149
0.0136948
0.0135886
0.0134978
0.0134225
0.0133611
0.0133089
0.0132592
0.0132079
0.0131538
0.013091
0.0130041
0.0128981
0.0127788
0.0126484
0.00537638
0.00524136
0.00511782
0.00500652
0.00490524
0.00481131
0.00472209
0.00463562
0.00455068
0.00446659
0.00438313
0.0043005
0.00421925
0.00414013
0.00406394
0.00399136
0.00392275
0.00385817
0.00379638
0.00365984
0.0154993
0.0155019
0.0154657
0.0154001
0.0153118
0.0152054
0.0150849
0.0149537
0.0148149
0.0146712
0.0145252
0.0143794
0.0142359
0.0140967
0.0139638
0.0138392
0.0137246
0.0136216
0.0135308
0.0134527
0.0133868
0.0133303
0.0132771
0.0132204
0.0131572
0.0130867
0.0129994
0.0128933
0.0127721
0.0126404
0.00537567
0.00523997
0.00511865
0.00500865
0.00490731
0.0048127
0.00472276
0.00463569
0.00455024
0.00446576
0.0043821
0.00429951
0.00421857
0.00413999
0.00406452
0.0039927
0.0039248
0.00386073
0.00380096
0.0161016
0.0158302
0.0156505
0.015515
0.0153972
0.0152827
0.0151642
0.015039
0.0149075
0.0147711
0.0146321
0.0144928
0.0143552
0.014221
0.0140914
0.0139677
0.0138509
0.0137424
0.0136429
0.0135532
0.0134731
0.0134021
0.0133392
0.0132808
0.0132202
0.0131517
0.0130744
0.0129839
0.0128773
0.0127559
0.012624
0.00537705
0.00524075
0.00511973
0.00501033
0.00490915
0.00481415
0.00472354
0.00463582
0.00454981
0.00446494
0.0043811
0.00429859
0.00421799
0.00413999
0.00406523
0.00399416
0.0039269
0.00386325
0.00380274
0.0160335
0.0158964
0.0157428
0.0155904
0.0154428
0.0152988
0.0151561
0.0150135
0.0148711
0.0147297
0.0145907
0.0144554
0.0143249
0.0141997
0.0140799
0.0139657
0.0138571
0.0137543
0.0136582
0.0135692
0.0134873
0.0134119
0.0133421
0.0132761
0.0132096
0.0131366
0.0130541
0.0129597
0.0128514
0.0127299
0.0125984
0.00537831
0.00524291
0.00512181
0.00501233
0.00491101
0.00481562
0.00472443
0.00463605
0.0045495
0.00446426
0.0043803
0.00429793
0.00421775
0.00414037
0.00406636
0.00399601
0.00392935
0.00386602
0.00380439
0.00367006
0.0155635
0.0155518
0.0154861
0.0153849
0.0152611
0.0151239
0.0149799
0.0148342
0.0146908
0.0145523
0.0144207
0.0142965
0.0141797
0.0140693
0.0139643
0.0138636
0.0137664
0.013673
0.0135839
0.0134995
0.0134195
0.0133432
0.0132692
0.013195
0.0131162
0.0130289
0.0129307
0.0128204
0.0126984
0.0125675
0.00537888
0.00524504
0.00512426
0.00501456
0.00491286
0.00481696
0.00472515
0.00463611
0.00454899
0.00446337
0.00437926
0.00429703
0.00421722
0.00414041
0.00406705
0.00399731
0.00393109
0.00386794
0.00380613
0.00367097
0.0155599
0.0155416
0.0154723
0.015368
0.0152411
0.0151009
0.0149548
0.0148085
0.0146662
0.014531
0.0144047
0.0142875
0.0141785
0.0140762
0.0139786
0.0138838
0.0137904
0.013698
0.013607
0.0135183
0.0134325
0.013349
0.0132669
0.0131847
0.0130991
0.0130067
0.012905
0.0127926
0.0126701
0.0125396
0.00537917
0.00524669
0.00512649
0.00501673
0.00491467
0.0048183
0.00472595
0.00463639
0.00454886
0.00446303
0.00437896
0.00429702
0.00421772
0.00414156
0.00406887
0.00399973
0.0039339
0.00387085
0.00381067
0.0161789
0.0158998
0.0156953
0.0155239
0.0153659
0.0152131
0.0150626
0.0149151
0.0147726
0.0146374
0.0145112
0.014395
0.0142885
0.01419
0.0140971
0.0140072
0.013918
0.0138275
0.0137352
0.0136413
0.0135471
0.0134539
0.0133623
0.0132717
0.0131812
0.0130884
0.0129905
0.0128851
0.0127708
0.0126478
0.0125181
0.00537951
0.00524799
0.00512824
0.00501835
0.0049158
0.00481874
0.00472565
0.0046354
0.00454729
0.00446107
0.00437687
0.00429506
0.00421609
0.00414038
0.00406818
0.00399944
0.00393382
0.00387072
0.00380934
0.0160784
0.0159335
0.0157618
0.0155832
0.0154052
0.015231
0.0150627
0.0149022
0.0147518
0.0146133
0.0144877
0.014375
0.014274
0.0141821
0.0140961
0.0140125
0.0139283
0.0138411
0.0137502
0.0136557
0.013559
0.0134618
0.0133654
0.0132702
0.0131752
0.013079
0.0129793
0.0128737
0.0127609
0.012641
0.0125157
0.00537995
0.0052492
0.00512994
0.00502023
0.00491759
0.00482027
0.00472684
0.00463627
0.00454795
0.00446168
0.00437762
0.00429611
0.00421758
0.00414235
0.00407057
0.0040021
0.00393652
0.00387315
0.00381004
0.00368579
0.0155905
0.0155382
0.0154358
0.0153058
0.0151619
0.015013
0.0148661
0.0147264
0.0145971
0.0144803
0.0143764
0.0142841
0.0142007
0.0141228
0.0140465
0.0139684
0.0138863
0.0137993
0.0137078
0.0136131
0.0135174
0.0134225
0.0133291
0.0132369
0.0131447
0.0130506
0.0129525
0.0128491
0.0127407
0.0126291
0.00538037
0.00524938
0.00512935
0.00501868
0.00491498
0.00481666
0.00472237
0.00463115
0.00454245
0.0044561
0.00437222
0.00429113
0.00421319
0.00413865
0.00406757
0.00399976
0.00393475
0.00387184
0.00380906
0.00368486
0.0155798
0.0155284
0.0154249
0.0152938
0.0151506
0.0150059
0.0148733
0.0147577
0.0146562
0.0145674
0.0144907
0.0144246
0.0143667
0.0143138
0.0142622
0.0142087
0.0141508
0.0140877
0.0140198
0.0139485
0.013876
0.0138042
0.0137342
0.0136659
0.0135982
0.0135294
0.0134576
0.0133818
0.0133027
0.0132229
0.00538107
0.00525164
0.00513356
0.00502482
0.00492249
0.00482667
0.0047362
0.00464985
0.00456679
0.00448662
0.00440926
0.00433493
0.00426393
0.00419655
0.00413293
0.00407293
0.0040161
0.0039617
0.00390878
0.00385495
0.00380392
0.0161652
0.0160764
0.0159135
0.0157256
0.0155387
0.0153719
0.0153392
0.0153638
0.0154104
0.015464
0.0155186
0.0155713
0.0156192
0.0156592
0.0156879
0.0157029
0.0157034
0.0156903
0.0156663
0.0156349
0.0155998
0.0155637
0.015528
0.0154924
0.0154552
0.0154144
0.015369
0.0153196
0.0152704
0.00545021
0.00542273
0.00539866
0.00537694
0.00535734
0.0053375
0.00531675
0.00529506
0.00527266
0.00524991
0.00522719
0.00520486
0.00518317
0.00516219
0.00514184
0.00512185
0.00510183
0.00508132
0.00505989
0.00503717
0.00501314
0.00499952
0.00498043
0.0049568
0.0049302
0.0049025
0.00485496
0.00481626
0.00478497
0.00475955
0.00473838
0.00471984
0.00470258
0.00468541
0.00466755
0.00464861
0.0046286
0.00460782
0.00458688
0.00456645
0.00454704
0.00452896
0.00451221
0.00449643
0.00448104
0.00446532
0.00444857
0.00443032
0.00441039
0.00438876
0.0140672
0.00850967
0.00578444
0.00446665
0.00387611
0.00361239
0.00347203
0.00338021
0.00330372
0.003233
0.00316352
0.00309588
0.00303101
0.00297338
0.00293613
0.00293859
0.00301473
0.00316681
0.00334267
0.00338332
0.0143254
0.00866318
0.00582699
0.0045012
0.00390902
0.0036435
0.00350124
0.00340735
0.00332931
0.00325759
0.00318774
0.00312
0.00305537
0.00299826
0.00296237
0.002968
0.00304995
0.00321045
0.00339314
0.00342794
0.0151158
0.00876432
0.00585736
0.00453329
0.00394062
0.00367254
0.00352718
0.00343024
0.00334988
0.00327665
0.00320603
0.00313821
0.00307436
0.00301903
0.00298631
0.00299705
0.00308715
0.00325796
0.00344901
0.00347905
0.0153013
0.00880441
0.00590245
0.00457024
0.00397413
0.00370414
0.00355762
0.00345962
0.00337832
0.00330461
0.00323386
0.00316634
0.00310332
0.00304969
0.00301975
0.0030348
0.00313158
0.00331079
0.0035086
0.00353411
0.0155583
0.00883231
0.00595472
0.00461211
0.00401289
0.00374287
0.00359711
0.00349969
0.00341832
0.00334425
0.003273
0.00320495
0.00314192
0.00308929
0.00306158
0.00308053
0.00318327
0.00336984
0.00357289
0.00359088
0.0158085
0.00883184
0.00600419
0.00465691
0.00405726
0.00378949
0.00364629
0.00355063
0.00346979
0.00339501
0.00332232
0.00325248
0.00318809
0.00313498
0.00310797
0.00312965
0.00323748
0.00343115
0.00363952
0.00364797
0.00378272
0.00877066
0.00604361
0.00470153
0.00410466
0.00384086
0.00370125
0.00360762
0.00352704
0.00345075
0.00337557
0.00330322
0.00323688
0.00318269
0.00315547
0.00317872
0.0032907
0.00349112
0.00370532
0.00370407
0.00375078
0.00878172
0.00607714
0.00474312
0.00415055
0.00389105
0.00375486
0.00366254
0.0035812
0.00350242
0.00342412
0.00334907
0.00328104
0.00322626
0.00319952
0.00322475
0.00334088
0.00354784
0.0037681
0.00375816
0.00373325
0.00878843
0.00610885
0.00477974
0.00419075
0.00393449
0.00380031
0.00370785
0.00362471
0.00354328
0.0034626
0.003386
0.00331749
0.00326326
0.00323821
0.00326649
0.00338729
0.00360051
0.00382646
0.00380921
0.00371774
0.00879145
0.00613637
0.00481054
0.00422344
0.00396856
0.00383449
0.00374054
0.00365516
0.00357199
0.00349081
0.00341486
0.00334794
0.00329573
0.00327331
0.00330495
0.00343015
0.00364861
0.00387877
0.00385579
0.0037025
0.00879986
0.00616229
0.00483762
0.00425064
0.00399521
0.00385967
0.00376373
0.00367685
0.00359371
0.0035142
0.0034409
0.00337715
0.00332777
0.00330774
0.00334153
0.00346934
0.00369078
0.00392273
0.00389646
0.00369009
0.008829
0.00619244
0.00486563
0.00427695
0.00401968
0.00388197
0.00378468
0.00369791
0.00361675
0.00354049
0.00347066
0.00340999
0.0033624
0.00334277
0.00337608
0.00350351
0.00372496
0.00395631
0.00393119
0.00368456
0.00888626
0.00623139
0.0048989
0.00430715
0.00404754
0.00390808
0.00381082
0.00372588
0.00364785
0.00357514
0.00350798
0.00344833
0.00339969
0.00337714
0.00340671
0.0035309
0.0037501
0.00397977
0.00396248
0.00368894
0.00896577
0.00627921
0.00493843
0.0043433
0.0040819
0.00394198
0.00384603
0.00376384
0.00368889
0.00361848
0.00355168
0.00348995
0.0034369
0.00340837
0.00343187
0.00355158
0.00376837
0.00399748
0.00399541
0.00370297
0.00905054
0.00632991
0.004981
0.00438337
0.0041214
0.00398244
0.00388866
0.00380913
0.00373609
0.00366582
0.0035967
0.00353026
0.00347079
0.00343524
0.00345279
0.00356934
0.00378603
0.00401778
0.00403597
0.00372265
0.0091169
0.00637408
0.00502055
0.00442248
0.00416142
0.00402439
0.00393296
0.00385522
0.00378246
0.00371039
0.00363749
0.00356578
0.00350048
0.00345976
0.00347429
0.00359115
0.0038117
0.00405015
0.00408847
0.00374131
0.00914856
0.00640467
0.00505198
0.00445587
0.00419698
0.00406215
0.00397245
0.00389536
0.00382174
0.00374742
0.0036715
0.00359661
0.0035288
0.00348705
0.00350298
0.00362429
0.00385263
0.00410103
0.00415307
0.00375266
0.00914589
0.00642113
0.0050743
0.00448192
0.00422565
0.00409252
0.00400355
0.00392622
0.00385176
0.0037766
0.00370042
0.00362628
0.00356063
0.00352247
0.00354368
0.00367238
0.0039108
0.00417024
0.00422508
0.00375434
0.00912762
0.00643065
0.00509171
0.00450322
0.00424885
0.00411619
0.0040269
0.00394913
0.00387501
0.00380162
0.0037288
0.0036595
0.00359988
0.00356822
0.00359636
0.00373288
0.00398104
0.00425003
0.0042963
0.00374911
0.0091209
0.00644375
0.00511092
0.00452468
0.0042705
0.0041367
0.00404634
0.00396868
0.00389674
0.00382772
0.00376107
0.003699
0.00364672
0.00362151
0.00365524
0.00379727
0.00405229
0.00432743
0.00435869
0.00374321
0.00914636
0.00646857
0.00513707
0.00455036
0.00429434
0.00415816
0.00406665
0.00399017
0.00392204
0.0038589
0.0037992
0.00374394
0.00369719
0.00367537
0.00371085
0.00385437
0.00411225
0.00439002
0.004408
0.00374309
0.0092072
0.00650659
0.00517112
0.00458138
0.00432211
0.00418342
0.0040916
0.00401746
0.00395386
0.00389636
0.00384204
0.00379052
0.00374502
0.00372188
0.00375458
0.00389573
0.00415321
0.00443159
0.00444579
0.00375168
0.0092881
0.00655219
0.00520957
0.00461589
0.00435357
0.00421362
0.00412297
0.00405206
0.0039926
0.00393885
0.00388646
0.00383403
0.00378482
0.00375594
0.00378253
0.00391925
0.00417525
0.00445466
0.00447846
0.003767
0.00936323
0.00659568
0.00524711
0.00465095
0.00438767
0.00424878
0.00416092
0.00409352
0.00403681
0.00398375
0.00392901
0.00387116
0.00381439
0.00377741
0.00379707
0.00392986
0.00418586
0.00446892
0.00451423
0.00378332
0.00941009
0.00662941
0.0052802
0.00468492
0.00442377
0.00428847
0.0042045
0.00414
0.00408383
0.00402802
0.00396722
0.00390104
0.00383534
0.00379069
0.00380526
0.00393687
0.00419621
0.00448666
0.00455968
0.00379432
0.00942135
0.00665229
0.00530919
0.00471849
0.00446213
0.00433195
0.0042518
0.00418863
0.00413026
0.00406875
0.00399984
0.00392492
0.00385172
0.00380229
0.00381547
0.00394979
0.00421649
0.0045181
0.00461766
0.00379617
0.0094085
0.00666983
0.00533752
0.0047535
0.00450293
0.00437758
0.00429968
0.00423533
0.00417218
0.00410341
0.00402656
0.00394502
0.00386794
0.00381808
0.00383414
0.00397494
0.00425244
0.00456798
0.00468699
0.00378955
0.00939233
0.0066897
0.00536876
0.00479093
0.00454493
0.0044222
0.00434369
0.0042754
0.00420588
0.00413017
0.00404776
0.00396355
0.00388723
0.00384136
0.00386395
0.00401381
0.00430409
0.00463481
0.00476343
0.003779
0.00938985
0.0067165
0.00540369
0.00482934
0.00458486
0.00446128
0.00437902
0.00430492
0.00422917
0.00414879
0.00406471
0.0039824
0.00391117
0.00387264
0.00390381
0.00406353
0.00436682
0.00471242
0.00484137
0.00376981
0.00940553
0.00674905
0.00543933
0.00486484
0.00461829
0.00449054
0.00440249
0.00432256
0.0042427
0.00416131
0.00407986
0.00400341
0.00394019
0.00391044
0.00395021
0.00411874
0.00443357
0.00479244
0.00491584
0.00376499
0.00943096
0.00678158
0.00547067
0.00489309
0.0046419
0.00450833
0.00441465
0.00433098
0.00425053
0.00417211
0.00409678
0.0040285
0.00397408
0.00395238
0.00399883
0.00417366
0.00449739
0.0048673
0.00498417
0.00376403
0.0094521
0.00680747
0.00549375
0.00491208
0.0046558
0.00451726
0.00442037
0.00433647
0.00425914
0.00418671
0.00411922
0.00405924
0.0040122
0.00399591
0.00404586
0.00422386
0.00455375
0.00493275
0.00504649
0.00376413
0.00945927
0.0068238
0.0055085
0.00492394
0.00466444
0.0045238
0.00442731
0.00434669
0.0042751
0.00420981
0.00414966
0.00409594
0.00405311
0.00403862
0.0040887
0.00426725
0.00460136
0.00498864
0.00510541
0.00376214
0.0094536
0.00683356
0.00551956
0.0049347
0.00467508
0.00453585
0.00444294
0.00436769
0.00430237
0.00424316
0.00418785
0.00413689
0.00409445
0.0040784
0.00412627
0.00430417
0.00464218
0.00503855
0.00516502
0.00375677
0.00944638
0.00684431
0.00553417
0.00495152
0.00469458
0.00455924
0.00447136
0.00440141
0.00434073
0.00428468
0.0042305
0.00417851
0.00413334
0.00411388
0.00415911
0.00433709
0.00468059
0.00508852
0.00522957
0.00374927
0.00945261
0.00686434
0.00555877
0.00497954
0.00472654
0.00459563
0.00451197
0.00444513
0.00438579
0.00432908
0.0042724
0.00421667
0.00416754
0.00414508
0.0041894
0.00437
0.00472205
0.00514501
0.00530192
0.00374265
0.0094827
0.00689855
0.00559602
0.00501969
0.00476997
0.00464196
0.00455985
0.00449263
0.00443089
0.00437022
0.00430887
0.00424883
0.00419688
0.00417394
0.00422061
0.00440731
0.00477139
0.00521269
0.00538244
0.00373996
0.00953713
0.0069463
0.00564385
0.00506853
0.00481996
0.00469203
0.00460809
0.00453715
0.00447034
0.00440426
0.00433834
0.00427571
0.00422391
0.00420405
0.00425657
0.00445237
0.00483104
0.00529245
0.00546837
0.00374274
0.00960656
0.0070019
0.00569655
0.00511998
0.00487006
0.00473949
0.00465126
0.00457489
0.0045025
0.00443188
0.00436359
0.00430149
0.00425321
0.0042394
0.0042999
0.004506
0.00489965
0.0053804
0.00555419
0.00375025
0.0096765
0.0070575
0.00574764
0.0051683
0.00491546
0.00478102
0.0046881
0.00460699
0.00453082
0.00445836
0.00439079
0.00433213
0.00428947
0.00428254
0.00435061
0.00456557
0.00497181
0.00546832
0.00563322
0.00375999
0.0097341
0.00710675
0.00579288
0.00521075
0.00495522
0.00481786
0.00472214
0.00463901
0.00456227
0.00449106
0.00442666
0.00437262
0.00433515
0.00433306
0.00440543
0.00462526
0.00503934
0.00554604
0.00570006
0.00376885
0.00977393
0.00714765
0.00583199
0.00524864
0.00499239
0.00485485
0.00475971
0.00467807
0.00460382
0.00453593
0.00447523
0.00442446
0.00438902
0.00438717