/*--------------------------------*- C++ -*----------------------------------*\
  =========                 |
  \\      /  F ield         | OpenFOAM: The Open Source CFD Toolbox
   \\    /   O peration     | Website:  https://openfoam.org
    \\  /    A nd           | Version:  8
     \\/     M anipulation  |
\*---------------------------------------------------------------------------*/
FoamFile
{
    version     2.0;
    format      ascii;
    class       volScalarField;
    location    "800";
    object      epsilon;
}
// * * * * * * * * * * * * * * * * * * * * * * * * * * * * * * * * * * * * * //

dimensions      [0 2 -3 0 0 0 0];

internalField   nonuniform List<scalar> 
8400
(
0.00855172
0.00828594
0.00803653
0.00780266
0.0075902
0.00740275
0.00723874
0.00709193
0.00695288
0.00681115
0.00666042
0.00651195
0.00637662
0.00625577
0.00614859
0.00605369
0.00596946
0.00589399
0.00581502
0.00568278
0.00546689
0.00516002
0.00477088
0.00432334
0.00386312
0.00346324
0.00320993
0.00313676
0.00315918
0.00319817
0.00322571
0.00322587
0.00318784
0.00311327
0.00301584
0.00291854
0.00282389
0.00273225
0.00264363
0.00255773
0.0024745
0.00239397
0.00231599
0.00224054
0.00216764
0.00209723
0.00202913
0.00196332
0.0019018
0.00184485
0.00475315
0.00478759
0.00482307
0.00486904
0.00491328
0.00494951
0.00498315
0.00503058
0.00511448
0.00525528
0.00546232
0.00571147
0.00597926
0.00627153
0.00659546
0.00695209
0.00733145
0.00770653
0.00798655
0.00808271
0.00797724
0.00765915
0.00710371
0.00628432
0.00520733
0.00396953
0.00281649
0.00211139
0.00175997
0.00154049
0.00139658
0.0013152
0.00128621
0.00129388
0.00131661
0.00132799
0.001329
0.0013229
0.00131293
0.00130152
0.00129047
0.00128086
0.00127331
0.00126812
0.00126534
0.00126475
0.00126616
0.00126944
0.00126709
0.00125538
0.00865252
0.00845198
0.00834351
0.00825868
0.00814229
0.00796883
0.00774103
0.00748516
0.00724804
0.00709684
0.00710926
0.0073406
0.00770309
0.00818103
0.00876219
0.00940435
0.010011
0.010404
0.0105965
0.0107358
0.0107953
0.0107419
0.0105096
0.00997896
0.0089762
0.00732682
0.00497634
0.00339845
0.00292763
0.00263722
0.0024033
0.00225813
0.00218124
0.00214558
0.00213232
0.00214192
0.00216937
0.00221011
0.00226035
0.00231665
0.00237564
0.0024342
0.00248966
0.00253956
0.00258166
0.00261422
0.002636
0.00264614
0.00264379
0.00262856
0.0131288
0.0130806
0.0130298
0.0129763
0.0129196
0.0128583
0.0127895
0.0127094
0.0126119
0.0124885
0.0122766
0.0112451
0.00967639
0.00848587
0.0080338
0.00807662
0.00927466
0.010196
0.0106452
0.0109459
0.0111654
0.0113309
0.0114568
0.0115459
0.0115913
0.0115335
0.00829999
0.00435208
0.00402282
0.00383092
0.0033332
0.00323217
0.00317634
0.00312502
0.00310411
0.00311845
0.00316285
0.00322888
0.00330799
0.00339338
0.00347905
0.00356049
0.00363438
0.0036981
0.00374981
0.00378846
0.00381334
0.00382393
0.00382337
0.0038134
0.0131555
0.0131397
0.0131234
0.0131066
0.0130889
0.0130703
0.0130503
0.0130281
0.0130027
0.0129726
0.0129323
0.0128382
0.012644
0.0123602
0.0120675
0.0118799
0.0117334
0.0116421
0.0115987
0.0115981
0.0116302
0.0116801
0.0117322
0.0117715
0.0117849
0.0117573
0.0117159
0.0116081
0.011446
0.00829316
0.00394659
0.00388158
0.00382722
0.00376857
0.00375753
0.00378141
0.00383264
0.00390118
0.00397764
0.00405512
0.00412913
0.00419681
0.00425653
0.00430746
0.0043493
0.00438229
0.00440647
0.00442171
0.00442858
0.004427
0.0131508
0.01313
0.0131092
0.0130884
0.0130679
0.0130475
0.0130275
0.0130075
0.0129876
0.012967
0.0129446
0.012914
0.0128635
0.012787
0.0126951
0.0126132
0.012557
0.0125077
0.0124683
0.0124381
0.012415
0.0123958
0.012377
0.0123552
0.01233
0.0123026
0.012245
0.0121462
0.0119484
0.0109577
0.00947505
0.00863442
0.00671152
0.0040778
0.00408871
0.00412904
0.0041862
0.00425244
0.00432218
0.00439193
0.00445952
0.0045242
0.00458582
0.00464423
0.00469916
0.00474985
0.00479497
0.0048331
0.00485625
0.00486011
0.0131492
0.0131267
0.0131039
0.0130811
0.0130582
0.0130354
0.0130127
0.0129902
0.012968
0.0129462
0.0129248
0.0129024
0.0128766
0.0128448
0.0128073
0.012769
0.0127349
0.0127058
0.0126775
0.0126502
0.0126234
0.0125966
0.0125694
0.0125414
0.0125083
0.0124646
0.0124066
0.0123257
0.0121852
0.0117528
0.0110041
0.0101666
0.00877063
0.00681783
0.00457306
0.00431155
0.00439408
0.00448586
0.0045856
0.00469316
0.00480861
0.0049308
0.00505719
0.00518416
0.00530674
0.00541882
0.00551448
0.00558839
0.00563176
0.00564265
0.0131453
0.0131186
0.0130916
0.0130648
0.0130381
0.0130116
0.0129855
0.0129599
0.0129349
0.0129108
0.0128875
0.012865
0.0128424
0.0128189
0.0127938
0.0127674
0.0127403
0.0127133
0.012686
0.0126584
0.0126301
0.0126007
0.0125698
0.0125373
0.0125033
0.0124665
0.0124236
0.0123671
0.0122724
0.0120372
0.011595
0.0109594
0.00988423
0.00827681
0.00619926
0.00471842
0.00453636
0.00468848
0.00485912
0.00505037
0.00526136
0.00548549
0.00571382
0.00593626
0.00614147
0.00631842
0.0064578
0.00655221
0.00661112
0.00664301
0.0131403
0.013108
0.0130757
0.0130436
0.0130117
0.01298
0.0129489
0.0129185
0.0128891
0.012861
0.0128341
0.0128087
0.0127843
0.0127604
0.0127362
0.0127115
0.0126856
0.0126583
0.0126298
0.0125999
0.0125689
0.0125374
0.0125064
0.0124762
0.0124474
0.0124193
0.0123889
0.0123501
0.0122862
0.0121406
0.0118531
0.0113816
0.0105554
0.00925104
0.00744306
0.00570394
0.00481558
0.00482945
0.00508674
0.00536623
0.00566033
0.00595458
0.00623438
0.00648648
0.00670092
0.00687332
0.0070035
0.00709222
0.00717588
0.00726041
0.0131318
0.01309
0.0130486
0.0130079
0.0129678
0.0129287
0.0128905
0.0128536
0.0128182
0.0127847
0.0127531
0.0127236
0.012696
0.0126696
0.0126441
0.0126182
0.0125912
0.0125629
0.0125332
0.0125024
0.0124715
0.012441
0.0124123
0.0123865
0.0123641
0.0123449
0.0123266
0.0123032
0.0122615
0.0121652
0.0119658
0.0116106
0.0109693
0.00991863
0.00840338
0.00672908
0.00549675
0.00504366
0.00517514
0.0055207
0.00585617
0.00615822
0.00640266
0.00657516
0.00668088
0.00674464
0.00680036
0.00688169
0.00709762
0.00731219
0.013116
0.0130567
0.0129992
0.0129434
0.0128892
0.0128372
0.0127877
0.0127409
0.0126974
0.0126576
0.0126214
0.0125885
0.0125587
0.0125308
0.0125045
0.012478
0.0124507
0.012423
0.0123941
0.0123647
0.0123365
0.0123104
0.0122879
0.0122706
0.012259
0.012252
0.0122473
0.0122389
0.012215
0.0121496
0.0120046
0.0117302
0.0112249
0.0103801
0.00913564
0.00765795
0.00636473
0.00559524
0.0053804
0.00553005
0.00580788
0.00609364
0.00631621
0.00642791
0.00641072
0.00621977
0.00574946
0.00599454
0.00667166
0.00712563
0.0130801
0.0129797
0.0128887
0.0128046
0.0127262
0.0126541
0.0125887
0.0125304
0.012479
0.0124348
0.012398
0.0123665
0.0123397
0.0123158
0.0122944
0.0122728
0.0122498
0.0122269
0.0122037
0.0121806
0.0121602
0.0121455
0.0121372
0.0121352
0.0121392
0.0121481
0.0121587
0.012165
0.0121565
0.0121121
0.0120018
0.0117828
0.0113766
0.0106949
0.0096858
0.00844587
0.0072548
0.00638181
0.00592047
0.00580215
0.00587792
0.00603178
0.00617923
0.00626698
0.0062729
0.00620186
0.00616473
0.00644782
0.00687146
0.00728262
0.0127752
0.0126403
0.0125198
0.0124006
0.0123006
0.0122229
0.0121582
0.0121109
0.0120764
0.0120462
0.0120283
0.0120166
0.0120093
0.0120024
0.0119976
0.0119917
0.0119835
0.0119719
0.0119598
0.0119558
0.0119567
0.011962
0.0119747
0.0119957
0.0120202
0.0120464
0.0120718
0.0120906
0.0120927
0.0120611
0.0119723
0.0117911
0.0114566
0.0109018
0.0100896
0.00908335
0.00806981
0.00724365
0.00669836
0.00641999
0.00632814
0.00634399
0.00640684
0.00647958
0.00655139
0.00663662
0.00679508
0.00705338
0.00737054
0.00768599
0.0121753
0.0120522
0.0119492
0.0118683
0.0118144
0.0117796
0.0117571
0.0117444
0.0117378
0.0117343
0.0117343
0.0117355
0.0117368
0.0117374
0.0117371
0.0117359
0.0117359
0.0117387
0.0117459
0.0117615
0.0117836
0.0118114
0.0118447
0.0118822
0.011921
0.0119586
0.011992
0.0120176
0.0120264
0.0120007
0.0119227
0.0117657
0.0114827
0.0110259
0.010375
0.00957812
0.00876259
0.00806258
0.00755142
0.00723472
0.00707333
0.00702109
0.00704077
0.00710843
0.00721338
0.00735518
0.00754244
0.00777089
0.00801622
0.00824769
0.0116164
0.0115613
0.0115223
0.0114983
0.011486
0.0114818
0.0114827
0.0114861
0.0114909
0.0114964
0.011502
0.0115086
0.011516
0.0115247
0.0115349
0.0115472
0.0115636
0.011585
0.0116111
0.0116427
0.0116792
0.0117187
0.0117614
0.0118054
0.0118477
0.0118869
0.0119197
0.0119425
0.0119485
0.0119253
0.0118586
0.0117145
0.0114638
0.0110834
0.0105633
0.00994526
0.00931808
0.00877065
0.00835328
0.008075
0.00791767
0.00785545
0.00786511
0.00792877
0.00803367
0.00816974
0.00832746
0.00849677
0.00866419
0.00881423
0.011261
0.0112533
0.0112524
0.0112571
0.0112657
0.0112769
0.0112899
0.0113042
0.0113194
0.0113359
0.0113533
0.0113721
0.0113919
0.0114133
0.0114371
0.0114632
0.0114918
0.0115235
0.0115577
0.011594
0.0116324
0.0116717
0.0117112
0.0117496
0.0117854
0.011817
0.0118417
0.0118559
0.0118542
0.0118273
0.0117632
0.0116381
0.0114202
0.0110827
0.0106699
0.0102018
0.0097399
0.0093399
0.00903228
0.00882308
0.00870258
0.00865509
0.00866467
0.00871699
0.00879936
0.00890029
0.00900822
0.00911425
0.00921168
0.00929331
0.0111046
0.0111211
0.0111393
0.011159
0.0111798
0.0112012
0.011223
0.0112455
0.0112683
0.0112918
0.0113157
0.0113402
0.0113652
0.0113908
0.0114175
0.0114451
0.0114735
0.0115027
0.0115326
0.0115632
0.0115936
0.0116235
0.0116529
0.0116806
0.0117054
0.0117255
0.0117385
0.0117418
0.0117308
0.0116982
0.0116344
0.0115224
0.0113404
0.0110507
0.010706
0.0103625
0.0100393
0.00976687
0.0095605
0.00942144
0.00934227
0.00931227
0.00931995
0.00935452
0.00940602
0.00946554
0.0095246
0.0095767
0.00961909
0.00964894
0.011077
0.0110995
0.0111219
0.0111442
0.0111661
0.0111879
0.0112093
0.0112306
0.0112517
0.0112727
0.0112937
0.0113147
0.0113357
0.0113569
0.0113779
0.011399
0.0114203
0.0114417
0.0114629
0.011484
0.0115048
0.0115247
0.0115434
0.0115599
0.0115733
0.0115825
0.0115851
0.0115786
0.0115598
0.011523
0.0114608
0.0113621
0.0112115
0.0109887
0.0106784
0.0104362
0.0102263
0.0100574
0.00993311
0.0098508
0.00980405
0.00978529
0.00978678
0.00980139
0.00982259
0.00984488
0.00986342
0.00987491
0.00987914
0.0098755
0.0110491
0.0110663
0.0110827
0.0110984
0.0111135
0.0111279
0.0111419
0.0111555
0.0111688
0.0111818
0.0111946
0.0112072
0.0112195
0.0112319
0.0112444
0.0112568
0.0112692
0.0112815
0.0112939
0.0113061
0.0113177
0.0113284
0.011338
0.0113456
0.0113502
0.0113509
0.0113461
0.0113337
0.0113109
0.0112739
0.0112178
0.0111357
0.0110178
0.0108489
0.0106082
0.0104185
0.0102995
0.0102104
0.0101467
0.0101041
0.0100777
0.0100631
0.0100559
0.0100522
0.0100486
0.0100427
0.010042
0.0100577
0.0100834
0.0101094
0.0268073
0.0261155
0.0254614
0.0248294
0.0242135
0.0236105
0.0230186
0.0224366
0.0218641
0.0213006
0.0207462
0.020201
0.0196644
0.0191364
0.0186171
0.0181069
0.0176059
0.0171148
0.0166348
0.0161672
0.0157134
0.0152745
0.0148518
0.0144466
0.014059
0.0136892
0.0133367
0.013
0.0126775
0.0123668
0.0120653
0.0117703
0.0114801
0.011195
0.0109168
0.0107087
0.0107806
0.0109356
0.0111435
0.0113913
0.0116741
0.0119903
0.01234
0.0127242
0.0131445
0.0136022
0.0140862
0.0145793
0.0150818
0.0155937
9.32897e-06
9.20786e-06
9.09134e-06
8.97874e-06
8.86828e-06
8.75552e-06
8.64056e-06
8.52488e-06
8.4102e-06
8.29778e-06
8.1882e-06
8.08157e-06
7.97768e-06
7.87616e-06
7.77647e-06
7.67802e-06
7.58036e-06
7.48325e-06
7.38668e-06
7.29089e-06
7.18887e-06
7.08476e-06
6.9593e-06
6.84519e-06
6.74083e-06
6.64399e-06
6.55761e-06
6.47924e-06
6.40719e-06
6.33963e-06
6.2733e-06
6.20676e-06
6.13939e-06
6.07081e-06
6.00079e-06
5.92924e-06
5.85635e-06
5.78268e-06
5.70913e-06
5.63691e-06
5.56733e-06
5.50175e-06
5.44105e-06
5.38491e-06
5.3332e-06
5.28446e-06
5.23673e-06
5.19144e-06
5.15831e-06
5.15203e-06
8.98132e-06
8.38556e-06
7.84023e-06
7.34057e-06
6.88503e-06
6.47295e-06
6.09999e-06
5.76167e-06
5.4537e-06
5.17218e-06
4.91357e-06
4.67458e-06
4.45227e-06
4.24413e-06
4.04815e-06
3.86287e-06
3.68741e-06
3.5214e-06
3.36343e-06
3.21585e-06
3.092e-06
7.29395e-07
7.30832e-07
3.08926e-06
3.09537e-06
7.21636e-07
7.26091e-07
7.28285e-07
7.28745e-07
7.27942e-07
7.26716e-07
7.25555e-07
7.2458e-07
7.23682e-07
7.22658e-07
7.21311e-07
7.19508e-07
7.17206e-07
7.1445e-07
7.11333e-07
7.08016e-07
7.04685e-07
7.01579e-07
6.99068e-07
6.97355e-07
6.96279e-07
6.94464e-07
6.88068e-07
6.73077e-07
6.51207e-07
8.97943e-06
8.37912e-06
7.82667e-06
7.31845e-06
6.85168e-06
6.4237e-06
6.03182e-06
5.67314e-06
5.34455e-06
5.04282e-06
4.76479e-06
4.5075e-06
4.26826e-06
4.04471e-06
3.83493e-06
3.63744e-06
3.45118e-06
3.27485e-06
3.13675e-06
7.22587e-07
7.20606e-07
7.16604e-07
7.11719e-07
7.06452e-07
7.01172e-07
6.95921e-07
6.91078e-07
6.86583e-07
6.82359e-07
6.7832e-07
6.74405e-07
6.70542e-07
6.66643e-07
6.62612e-07
6.58369e-07
6.5386e-07
6.49074e-07
6.4405e-07
6.38877e-07
6.33707e-07
6.28697e-07
6.23974e-07
6.19615e-07
6.15692e-07
6.12485e-07
6.10831e-07
6.12058e-07
6.16732e-07
6.19816e-07
6.07393e-07
8.9793e-06
8.38325e-06
7.83595e-06
7.3325e-06
6.86939e-06
6.44349e-06
6.05203e-06
5.69234e-06
5.36169e-06
5.05729e-06
4.77632e-06
4.51605e-06
4.27397e-06
4.04791e-06
3.836e-06
3.63681e-06
3.44926e-06
3.27198e-06
3.13199e-06
7.21785e-07
7.19814e-07
7.15883e-07
7.1087e-07
7.05346e-07
6.9968e-07
6.94103e-07
6.88744e-07
6.83651e-07
6.78807e-07
6.74151e-07
6.69593e-07
6.65027e-07
6.60346e-07
6.55458e-07
6.50293e-07
6.44824e-07
6.39066e-07
6.33082e-07
6.26975e-07
6.20892e-07
6.15005e-07
6.0949e-07
6.04433e-07
5.99679e-07
5.94757e-07
5.89291e-07
5.84161e-07
5.82291e-07
5.85614e-07
5.82588e-07
8.97916e-06
8.38299e-06
7.83546e-06
7.33192e-06
6.86895e-06
6.44342e-06
6.0524e-06
5.69309e-06
5.3627e-06
5.0584e-06
4.7774e-06
4.51702e-06
4.27478e-06
4.04854e-06
3.8365e-06
3.63727e-06
3.4498e-06
3.27334e-06
3.11001e-06
7.292e-07
7.23123e-07
7.17121e-07
7.1116e-07
7.05274e-07
6.99527e-07
6.93979e-07
6.88668e-07
6.83595e-07
6.78731e-07
6.74013e-07
6.69356e-07
6.64666e-07
6.59848e-07
6.54819e-07
6.49521e-07
6.43933e-07
6.38076e-07
6.32009e-07
6.25829e-07
6.19655e-07
6.13635e-07
6.07972e-07
6.02951e-07
5.98838e-07
5.95513e-07
5.92023e-07
5.87073e-07
5.8162e-07
5.80406e-07
5.7842e-07
8.9792e-06
8.38337e-06
7.83643e-06
7.33367e-06
6.8717e-06
6.44738e-06
6.05765e-06
5.69961e-06
5.37032e-06
5.06688e-06
4.78648e-06
4.52647e-06
4.28442e-06
4.05822e-06
3.84614e-06
3.64683e-06
3.45928e-06
3.28276e-06
3.11906e-06
7.30735e-07
7.24674e-07
7.18661e-07
7.12679e-07
7.0676e-07
7.0096e-07
6.95333e-07
6.89909e-07
6.84694e-07
6.79661e-07
6.74756e-07
6.69908e-07
6.65035e-07
6.60057e-07
6.54903e-07
6.49526e-07
6.43908e-07
6.38069e-07
6.32067e-07
6.25997e-07
6.1996e-07
6.14038e-07
6.0828e-07
6.0279e-07
5.9789e-07
5.9409e-07
5.91427e-07
5.8853e-07
5.83839e-07
5.80541e-07
5.77806e-07
8.97924e-06
8.38351e-06
7.83668e-06
7.33395e-06
6.87191e-06
6.44747e-06
6.05765e-06
5.69955e-06
5.37022e-06
5.06679e-06
4.78642e-06
4.52647e-06
4.28452e-06
4.05849e-06
3.84666e-06
3.64768e-06
3.46054e-06
3.28451e-06
3.12144e-06
7.31218e-07
7.25206e-07
7.19249e-07
7.13316e-07
7.07419e-07
7.01609e-07
6.95936e-07
6.90434e-07
6.85109e-07
6.79943e-07
6.74893e-07
6.69899e-07
6.64894e-07
6.59813e-07
6.54599e-07
6.49213e-07
6.43639e-07
6.37892e-07
6.32018e-07
6.26107e-07
6.20286e-07
6.14681e-07
6.09346e-07
6.04202e-07
5.99177e-07
5.94563e-07
5.91026e-07
5.88427e-07
5.84868e-07
5.81257e-07
5.77908e-07
8.97928e-06
8.38366e-06
7.83704e-06
7.33451e-06
6.87263e-06
6.44828e-06
6.05851e-06
5.70043e-06
5.37114e-06
5.06774e-06
4.78742e-06
4.52757e-06
4.28579e-06
4.06003e-06
3.84857e-06
3.65006e-06
3.4635e-06
3.28799e-06
3.13013e-06
7.29737e-07
7.22707e-07
7.16607e-07
7.10835e-07
7.05192e-07
6.99644e-07
6.94212e-07
6.88919e-07
6.83769e-07
6.78744e-07
6.73806e-07
6.68903e-07
6.63981e-07
6.58987e-07
6.5388e-07
6.4863e-07
6.43229e-07
6.37686e-07
6.3203e-07
6.26311e-07
6.20616e-07
6.15092e-07
6.09901e-07
6.05093e-07
6.00488e-07
5.95895e-07
5.91682e-07
5.88438e-07
5.85136e-07
5.81597e-07
5.77987e-07
8.97931e-06
8.38378e-06
7.83732e-06
7.33503e-06
6.87338e-06
6.4492e-06
6.0595e-06
5.70139e-06
5.37201e-06
5.06847e-06
4.78801e-06
4.52805e-06
4.28622e-06
4.06053e-06
3.84928e-06
3.65112e-06
3.46504e-06
3.29026e-06
3.12657e-06
7.31715e-07
7.25334e-07
7.19065e-07
7.12953e-07
7.07018e-07
7.01268e-07
6.95694e-07
6.90279e-07
6.84992e-07
6.79799e-07
6.74663e-07
6.69547e-07
6.64417e-07
6.59245e-07
6.54008e-07
6.48692e-07
6.43296e-07
6.37835e-07
6.32331e-07
6.26811e-07
6.21299e-07
6.15849e-07
6.10594e-07
6.05714e-07
6.01232e-07
5.96874e-07
5.92525e-07
5.88708e-07
5.85146e-07
5.81526e-07
5.77771e-07
8.97932e-06
8.3839e-06
7.83761e-06
7.33556e-06
6.87418e-06
6.45025e-06
6.06076e-06
5.70279e-06
5.37345e-06
5.0699e-06
4.78941e-06
4.52942e-06
4.28764e-06
4.06208e-06
3.85109e-06
3.65333e-06
3.46776e-06
3.29359e-06
3.13044e-06
3.08977e-06
7.262e-07
7.20129e-07
7.14162e-07
7.08327e-07
7.02631e-07
6.97067e-07
6.91613e-07
6.86244e-07
6.80933e-07
6.75656e-07
6.70394e-07
6.65135e-07
6.59869e-07
6.54588e-07
6.49285e-07
6.43955e-07
6.38603e-07
6.33248e-07
6.27916e-07
6.22621e-07
6.17357e-07
6.12143e-07
6.07104e-07
6.02406e-07
5.97989e-07
5.93581e-07
5.89387e-07
5.85423e-07
5.81524e-07
5.77559e-07
8.97935e-06
8.38403e-06
7.8379e-06
7.33603e-06
6.87489e-06
6.45116e-06
6.06184e-06
5.70397e-06
5.37467e-06
5.07113e-06
4.79062e-06
4.53063e-06
4.28892e-06
4.06353e-06
3.85282e-06
3.65548e-06
3.47044e-06
3.29688e-06
3.13368e-06
7.20701e-07
7.1879e-07
7.15553e-07
7.11497e-07
7.06924e-07
7.02028e-07
6.9693e-07
6.91704e-07
6.86395e-07
6.81034e-07
6.75647e-07
6.70257e-07
6.64889e-07
6.5956e-07
6.54284e-07
6.49064e-07
6.4389e-07
6.38745e-07
6.33617e-07
6.2851e-07
6.23439e-07
6.18404e-07
6.13368e-07
6.08342e-07
6.03452e-07
5.98809e-07
5.94253e-07
5.89795e-07
5.8548e-07
5.81267e-07
5.77068e-07
8.97938e-06
8.38415e-06
7.83817e-06
7.3365e-06
6.87554e-06
6.45199e-06
6.06279e-06
5.70497e-06
5.37568e-06
5.07208e-06
4.79152e-06
4.53152e-06
4.28986e-06
4.06463e-06
3.85422e-06
3.6573e-06
3.47279e-06
3.29983e-06
3.13791e-06
7.30183e-07
7.2279e-07
7.16812e-07
7.11493e-07
7.0643e-07
7.01409e-07
6.96324e-07
6.91132e-07
6.85828e-07
6.80432e-07
6.74983e-07
6.69526e-07
6.6411e-07
6.58778e-07
6.53558e-07
6.48463e-07
6.43485e-07
6.38594e-07
6.33745e-07
6.28895e-07
6.2403e-07
6.19154e-07
6.14249e-07
6.09276e-07
6.04269e-07
5.9936e-07
5.94542e-07
5.89802e-07
5.85168e-07
5.80648e-07
5.7621e-07
8.97941e-06
8.38428e-06
7.83845e-06
7.33695e-06
6.87617e-06
6.45277e-06
6.06369e-06
5.70596e-06
5.3767e-06
5.07312e-06
4.79258e-06
4.53265e-06
4.29114e-06
4.06617e-06
3.85613e-06
3.65969e-06
3.47577e-06
3.30345e-06
3.1422e-06
3.09805e-06
7.26519e-07
7.19764e-07
7.13467e-07
7.0754e-07
7.01853e-07
6.96286e-07
6.90751e-07
6.85203e-07
6.79633e-07
6.74064e-07
6.68538e-07
6.63108e-07
6.57821e-07
6.52706e-07
6.47775e-07
6.43012e-07
6.38378e-07
6.33809e-07
6.29229e-07
6.24573e-07
6.19815e-07
6.14954e-07
6.09966e-07
6.04849e-07
5.99692e-07
5.94565e-07
5.89505e-07
5.84553e-07
5.79742e-07
5.75079e-07
8.97945e-06
8.38437e-06
7.83863e-06
7.33723e-06
6.87653e-06
6.45319e-06
6.06408e-06
5.70626e-06
5.37685e-06
5.0731e-06
4.79241e-06
4.53239e-06
4.29088e-06
4.06603e-06
3.85625e-06
3.66021e-06
3.47679e-06
3.30503e-06
3.14435e-06
3.10012e-06
7.27072e-07
7.20451e-07
7.14206e-07
7.08265e-07
7.02508e-07
6.96822e-07
6.91133e-07
6.85405e-07
6.79649e-07
6.73906e-07
6.68241e-07
6.62723e-07
6.57412e-07
6.52347e-07
6.47533e-07
6.42941e-07
6.38517e-07
6.34178e-07
6.29828e-07
6.25365e-07
6.20716e-07
6.15868e-07
6.10815e-07
6.05559e-07
6.0017e-07
5.9474e-07
5.89353e-07
5.84083e-07
5.78992e-07
5.74115e-07
8.97949e-06
8.38446e-06
7.83877e-06
7.33751e-06
6.87704e-06
6.45395e-06
6.06512e-06
5.70755e-06
5.37835e-06
5.07477e-06
4.79424e-06
4.53438e-06
4.29309e-06
4.06852e-06
3.85909e-06
3.66348e-06
3.48054e-06
3.30927e-06
3.14831e-06
7.22376e-07
7.19716e-07
7.1597e-07
7.11693e-07
7.07085e-07
7.02211e-07
6.97082e-07
6.9171e-07
6.8613e-07
6.80406e-07
6.74626e-07
6.68896e-07
6.63316e-07
6.57972e-07
6.52919e-07
6.48166e-07
6.43678e-07
6.39382e-07
6.35178e-07
6.30952e-07
6.26588e-07
6.21981e-07
6.17085e-07
6.11904e-07
6.06459e-07
6.00817e-07
5.95086e-07
5.89383e-07
5.83815e-07
5.78473e-07
5.73417e-07
8.97951e-06
8.38427e-06
7.83815e-06
7.33635e-06
6.87528e-06
6.45159e-06
6.06217e-06
5.70404e-06
5.37436e-06
5.0704e-06
4.78959e-06
4.5296e-06
4.28833e-06
4.06395e-06
3.85487e-06
3.65974e-06
3.47737e-06
3.30672e-06
3.14709e-06
7.31744e-07
7.24182e-07
7.17938e-07
7.12362e-07
7.07059e-07
7.01793e-07
6.96428e-07
6.909e-07
6.85209e-07
6.79408e-07
6.73588e-07
6.67858e-07
6.62327e-07
6.57084e-07
6.52183e-07
6.47632e-07
6.43382e-07
6.39343e-07
6.3539e-07
6.31389e-07
6.27209e-07
6.22739e-07
6.17905e-07
6.12706e-07
6.07184e-07
6.01421e-07
5.95538e-07
5.89681e-07
5.83987e-07
5.78577e-07
5.73536e-07
8.97954e-06
8.38429e-06
7.83851e-06
7.33741e-06
6.87719e-06
6.45431e-06
6.06555e-06
5.70792e-06
5.37854e-06
5.07472e-06
4.79393e-06
4.53389e-06
4.29255e-06
4.06812e-06
3.85902e-06
3.66391e-06
3.4816e-06
3.31101e-06
3.15142e-06
3.09119e-06
7.24996e-07
7.18702e-07
7.13049e-07
7.07659e-07
7.02302e-07
6.96845e-07
6.91234e-07
6.85473e-07
6.79627e-07
6.73797e-07
6.68104e-07
6.62664e-07
6.57567e-07
6.52866e-07
6.48561e-07
6.44595e-07
6.40865e-07
6.37229e-07
6.33536e-07
6.29639e-07
6.25425e-07
6.20816e-07
6.15805e-07
6.10445e-07
6.04841e-07
5.99135e-07
5.93497e-07
5.88092e-07
5.83074e-07
5.78564e-07
8.97956e-06
8.38022e-06
7.83004e-06
7.32523e-06
6.86213e-06
6.43731e-06
6.04746e-06
5.68942e-06
5.36017e-06
5.05691e-06
4.77703e-06
4.5182e-06
4.27829e-06
4.05548e-06
3.84817e-06
3.65497e-06
3.47463e-06
3.30604e-06
3.14843e-06
3.09008e-06
7.25099e-07
7.19026e-07
7.13669e-07
7.08696e-07
7.03842e-07
6.98938e-07
6.94076e-07
6.89006e-07
6.83834e-07
6.78705e-07
6.7377e-07
6.69162e-07
6.64975e-07
6.61253e-07
6.57988e-07
6.55111e-07
6.52504e-07
6.50005e-07
6.47446e-07
6.44665e-07
6.41536e-07
6.37982e-07
6.33997e-07
6.2964e-07
6.25036e-07
6.20359e-07
6.15806e-07
6.11589e-07
6.07908e-07
6.04948e-07
8.98133e-06
8.38695e-06
7.8446e-06
7.34797e-06
6.89539e-06
6.48332e-06
6.10742e-06
5.76397e-06
5.44961e-06
5.16132e-06
4.89636e-06
4.65227e-06
4.42689e-06
4.21833e-06
4.02498e-06
3.84542e-06
3.67843e-06
3.5229e-06
3.37784e-06
3.2423e-06
3.1155e-06
7.25049e-07
7.17816e-07
7.13021e-07
7.09498e-07
7.06625e-07
7.1584e-07
7.20774e-07
7.22974e-07
7.2357e-07
7.23358e-07
7.2287e-07
7.22438e-07
7.22238e-07
7.22318e-07
7.22633e-07
7.2306e-07
7.2343e-07
7.23551e-07
7.23241e-07
7.22362e-07
7.20834e-07
7.18658e-07
7.15918e-07
7.12775e-07
7.09443e-07
7.06176e-07
7.03244e-07
7.00932e-07
6.99557e-07
9.33115e-06
9.20989e-06
9.0933e-06
8.98148e-06
8.87201e-06
8.76378e-06
8.65691e-06
8.55149e-06
8.44759e-06
8.34523e-06
8.24444e-06
8.14518e-06
8.04742e-06
7.95108e-06
7.85602e-06
7.76207e-06
7.66899e-06
7.57653e-06
7.4844e-06
7.39231e-06
7.29967e-06
7.17962e-06
7.05852e-06
6.93892e-06
6.82254e-06
6.71037e-06
6.60395e-06
6.50264e-06
6.40614e-06
6.31454e-06
6.2281e-06
6.147e-06
6.07113e-06
6.00004e-06
5.9329e-06
5.86858e-06
5.80583e-06
5.74343e-06
5.68028e-06
5.61559e-06
5.54901e-06
5.48056e-06
5.41071e-06
5.34024e-06
5.27014e-06
5.20143e-06
5.13503e-06
5.07155e-06
5.01119e-06
4.95366e-06
6.28036e-07
3.95589e-07
2.65377e-07
2.05186e-07
1.78164e-07
1.65818e-07
1.59098e-07
1.54635e-07
1.50922e-07
1.47486e-07
1.44119e-07
1.40833e-07
1.37706e-07
1.34918e-07
1.33032e-07
1.32821e-07
1.35663e-07
1.41778e-07
1.49617e-07
1.53665e-07
6.44403e-07
3.98931e-07
2.66757e-07
2.06423e-07
1.79427e-07
1.67168e-07
1.60492e-07
1.5605e-07
1.52316e-07
1.48835e-07
1.45401e-07
1.4206e-07
1.38881e-07
1.36085e-07
1.34256e-07
1.34189e-07
1.37335e-07
1.43851e-07
1.51905e-07
1.55433e-07
6.6495e-07
4.01275e-07
2.67957e-07
2.0764e-07
1.80714e-07
1.68535e-07
1.61902e-07
1.57468e-07
1.53708e-07
1.50186e-07
1.46702e-07
1.43314e-07
1.4011e-07
1.37318e-07
1.35545e-07
1.35621e-07
1.39049e-07
1.45943e-07
1.54208e-07
1.57273e-07
6.81113e-07
4.02869e-07
2.69366e-07
2.09074e-07
1.82175e-07
1.70057e-07
1.63465e-07
1.59039e-07
1.5526e-07
1.51703e-07
1.48185e-07
1.44769e-07
1.41555e-07
1.38777e-07
1.37061e-07
1.37274e-07
1.40969e-07
1.48227e-07
1.56698e-07
1.59362e-07
6.98421e-07
4.03995e-07
2.70851e-07
2.10582e-07
1.83711e-07
1.7164e-07
1.65087e-07
1.60663e-07
1.56868e-07
1.53289e-07
1.49751e-07
1.46325e-07
1.4311e-07
1.40353e-07
1.38695e-07
1.39039e-07
1.4299e-07
1.5059e-07
1.59254e-07
1.61519e-07
7.16168e-07
4.04513e-07
2.72425e-07
2.12145e-07
1.85306e-07
1.73278e-07
1.66758e-07
1.62335e-07
1.58526e-07
1.54934e-07
1.51383e-07
1.47957e-07
1.44749e-07
1.42019e-07
1.40416e-07
1.40879e-07
1.45071e-07
1.52994e-07
1.61845e-07
1.6372e-07
3.10575e-06
4.0427e-07
2.74093e-07
2.13776e-07
1.86961e-07
1.74975e-07
1.68479e-07
1.64057e-07
1.60235e-07
1.56628e-07
1.53071e-07
1.49646e-07
1.46449e-07
1.43743e-07
1.42191e-07
1.42765e-07
1.47179e-07
1.55405e-07
1.64439e-07
1.65949e-07
3.19847e-06
4.03022e-07
2.7586e-07
2.15483e-07
1.88677e-07
1.76729e-07
1.70254e-07
1.65826e-07
1.61985e-07
1.58362e-07
1.548e-07
1.51377e-07
1.48193e-07
1.45507e-07
1.43995e-07
1.44672e-07
1.49286e-07
1.57795e-07
1.67014e-07
1.682e-07
3.25002e-06
4.04213e-07
2.77765e-07
2.17253e-07
1.90442e-07
1.78529e-07
1.72071e-07
1.67631e-07
1.63767e-07
1.60128e-07
1.56558e-07
1.53135e-07
1.4996e-07
1.47292e-07
1.45813e-07
1.46581e-07
1.51379e-07
1.60156e-07
1.69564e-07
1.7048e-07
3.28436e-06
4.06502e-07
2.79775e-07
2.19059e-07
1.92236e-07
1.8036e-07
1.73909e-07
1.69453e-07
1.65565e-07
1.61908e-07
1.58333e-07
1.5491e-07
1.51742e-07
1.49088e-07
1.47638e-07
1.48488e-07
1.5346e-07
1.62496e-07
1.72104e-07
1.728e-07
3.31049e-06
4.09149e-07
2.81797e-07
2.20864e-07
1.94032e-07
1.82191e-07
1.75745e-07
1.71269e-07
1.67358e-07
1.63684e-07
1.60107e-07
1.5669e-07
1.5353e-07
1.50888e-07
1.49467e-07
1.50395e-07
1.55538e-07
1.64828e-07
1.74648e-07
1.75166e-07
3.33199e-06
4.11776e-07
2.83763e-07
2.2263e-07
1.95801e-07
1.83992e-07
1.7755e-07
1.73057e-07
1.69128e-07
1.65442e-07
1.6187e-07
1.58464e-07
1.55322e-07
1.52692e-07
1.51304e-07
1.52308e-07
1.57621e-07
1.67164e-07
1.77204e-07
1.7757e-07
3.35004e-06
4.14214e-07
2.85641e-07
2.24338e-07
1.97524e-07
1.85749e-07
1.79309e-07
1.74801e-07
1.70858e-07
1.67172e-07
1.63617e-07
1.60231e-07
1.57113e-07
1.545e-07
1.53147e-07
1.54229e-07
1.59705e-07
1.69493e-07
1.79757e-07
1.79983e-07
3.36522e-06
4.16437e-07
2.87405e-07
2.25984e-07
1.99192e-07
1.87448e-07
1.8101e-07
1.76494e-07
1.72547e-07
1.68874e-07
1.65346e-07
1.61989e-07
1.58901e-07
1.56308e-07
1.54988e-07
1.56141e-07
1.61768e-07
1.71784e-07
1.82265e-07
1.82368e-07
3.37803e-06
4.18392e-07
2.89072e-07
2.27576e-07
2.00812e-07
1.89096e-07
1.8266e-07
1.78145e-07
1.74206e-07
1.70555e-07
1.67063e-07
1.6374e-07
1.60681e-07
1.58105e-07
1.56809e-07
1.58015e-07
1.63769e-07
1.73992e-07
1.84677e-07
1.84691e-07
3.3889e-06
4.20147e-07
2.90673e-07
2.29129e-07
2.02394e-07
1.90703e-07
1.84275e-07
1.79768e-07
1.75848e-07
1.72226e-07
1.68776e-07
1.65485e-07
1.62447e-07
1.59874e-07
1.58581e-07
1.59816e-07
1.6567e-07
1.76073e-07
1.86952e-07
1.86942e-07
3.3983e-06
4.21757e-07
2.92235e-07
2.30658e-07
2.03954e-07
1.92284e-07
1.85872e-07
1.81384e-07
1.7749e-07
1.73902e-07
1.70489e-07
1.67222e-07
1.64189e-07
1.616e-07
1.60282e-07
1.6152e-07
1.6745e-07
1.78012e-07
1.89082e-07
1.89141e-07
3.40683e-06
4.2328e-07
2.93782e-07
2.32183e-07
2.05506e-07
1.93861e-07
1.8747e-07
1.83005e-07
1.79141e-07
1.75589e-07
1.72205e-07
1.68949e-07
1.65901e-07
1.63272e-07
1.61906e-07
1.63127e-07
1.69117e-07
1.79833e-07
1.91102e-07
1.91333e-07
3.41485e-06
4.24747e-07
2.95324e-07
2.33713e-07
2.07063e-07
1.95446e-07
1.89079e-07
1.84641e-07
1.8081e-07
1.77289e-07
1.73925e-07
1.70665e-07
1.67581e-07
1.64895e-07
1.63466e-07
1.64665e-07
1.70715e-07
1.81591e-07
1.93083e-07
1.93574e-07
3.42253e-06
4.26164e-07
2.96868e-07
2.35251e-07
2.08629e-07
1.97039e-07
1.90697e-07
1.8629e-07
1.82492e-07
1.79e-07
1.75644e-07
1.72367e-07
1.69236e-07
1.66486e-07
1.64995e-07
1.66178e-07
1.723e-07
1.83358e-07
1.95102e-07
1.95904e-07
3.42987e-06
4.27525e-07
2.98414e-07
2.36799e-07
2.102e-07
1.98635e-07
1.92319e-07
1.87948e-07
1.84182e-07
1.80714e-07
1.77358e-07
1.74054e-07
1.70873e-07
1.68065e-07
1.66523e-07
1.67707e-07
1.73923e-07
1.85191e-07
1.97218e-07
1.98337e-07
3.43652e-06
4.28817e-07
2.99935e-07
2.38342e-07
2.11764e-07
2.00225e-07
1.93939e-07
1.89605e-07
1.8587e-07
1.8242e-07
1.79058e-07
1.75725e-07
1.72498e-07
1.69643e-07
1.68069e-07
1.69274e-07
1.75603e-07
1.87109e-07
1.99444e-07
2.00855e-07
3.44221e-06
4.30018e-07
3.01402e-07
2.39867e-07
2.13311e-07
2.01801e-07
1.95549e-07
1.91254e-07
1.87548e-07
1.8411e-07
1.80738e-07
1.77373e-07
1.74107e-07
1.71217e-07
1.69627e-07
1.70868e-07
1.77328e-07
1.89092e-07
2.01752e-07
2.0342e-07
3.44669e-06
4.31098e-07
3.02808e-07
2.41358e-07
2.14839e-07
2.03364e-07
1.97152e-07
1.92896e-07
1.89213e-07
1.85779e-07
1.82389e-07
1.7899e-07
1.75686e-07
1.72766e-07
1.7117e-07
1.72459e-07
1.79059e-07
1.91092e-07
2.0409e-07
2.05994e-07
3.44986e-06
4.32047e-07
3.0415e-07
2.42817e-07
2.16354e-07
2.04921e-07
1.98755e-07
1.94535e-07
1.90868e-07
1.87425e-07
1.84006e-07
1.80562e-07
1.77213e-07
1.74266e-07
1.72668e-07
1.74009e-07
1.8075e-07
1.9306e-07
2.06408e-07
2.08556e-07
3.45178e-06
4.32903e-07
3.05442e-07
2.44261e-07
2.17865e-07
2.06484e-07
2.00368e-07
1.96179e-07
1.92514e-07
1.89046e-07
1.8558e-07
1.82077e-07
1.78676e-07
1.75698e-07
1.74101e-07
1.75494e-07
1.82378e-07
1.94969e-07
2.08682e-07
2.11109e-07
3.45304e-06
4.33682e-07
3.06711e-07
2.45707e-07
2.19387e-07
2.08063e-07
2.01997e-07
1.97826e-07
1.94148e-07
1.90635e-07
1.87103e-07
1.83529e-07
1.80071e-07
1.77064e-07
1.75471e-07
1.76919e-07
1.83946e-07
1.96827e-07
2.10923e-07
2.13677e-07
3.45416e-06
4.34435e-07
3.07983e-07
2.47166e-07
2.20925e-07
2.09656e-07
2.03632e-07
1.99465e-07
1.95755e-07
1.9218e-07
1.88573e-07
1.84926e-07
1.81415e-07
1.78387e-07
1.76805e-07
1.78314e-07
1.85491e-07
1.98671e-07
2.13167e-07
2.16291e-07
3.45556e-06
4.35209e-07
3.09271e-07
2.48639e-07
2.22471e-07
2.11248e-07
2.05252e-07
2.01072e-07
1.97317e-07
1.93674e-07
1.89993e-07
1.86285e-07
1.82737e-07
1.79704e-07
1.78149e-07
1.79728e-07
1.87061e-07
2.00549e-07
2.15459e-07
2.18974e-07
3.45745e-06
4.36027e-07
3.10572e-07
2.50111e-07
2.24002e-07
2.12811e-07
2.06825e-07
2.02619e-07
1.98813e-07
1.95108e-07
1.91372e-07
1.87628e-07
1.84071e-07
1.81056e-07
1.79545e-07
1.81203e-07
1.88697e-07
2.025e-07
2.17833e-07