/*--------------------------------*- C++ -*----------------------------------*\
  =========                 |
  \\      /  F ield         | OpenFOAM: The Open Source CFD Toolbox
   \\    /   O peration     | Website:  https://openfoam.org
    \\  /    A nd           | Version:  8
     \\/     M anipulation  |
\*---------------------------------------------------------------------------*/
FoamFile
{
    version     2.0;
    format      ascii;
    class       volScalarField;
    location    "800";
    object      k;
}
// * * * * * * * * * * * * * * * * * * * * * * * * * * * * * * * * * * * * * //

dimensions      [0 2 -2 0 0 0 0];

internalField   nonuniform List<scalar> 
8400
(
0.00226861
0.00222746
0.0021893
0.00215377
0.0021214
0.00209236
0.00206604
0.00204117
0.00201622
0.00199006
0.00196339
0.00193851
0.00191604
0.00189586
0.00187765
0.00186106
0.00184567
0.00183099
0.00181035
0.00177411
0.00171709
0.00163879
0.00154172
0.00143175
0.00132031
0.00122635
0.00117264
0.00116616
0.00117854
0.00118857
0.00119219
0.00118863
0.00117623
0.00115549
0.00113096
0.00110681
0.0010832
0.00106013
0.00103755
0.00101542
0.00099375
0.000972529
0.000951734
0.00093137
0.000911452
0.000891968
0.000872901
0.000854271
0.000836345
0.000819668
0.00158709
0.00159388
0.00160051
0.00161
0.00162093
0.00163306
0.00164821
0.00166957
0.00170017
0.0017414
0.00179175
0.00184516
0.00190102
0.0019603
0.00202329
0.00208885
0.00215376
0.00221147
0.00224421
0.0022452
0.00220995
0.002134
0.00200962
0.00182777
0.00158518
0.00129703
0.00101369
0.000837335
0.000751989
0.000701987
0.000671439
0.000654753
0.000651537
0.000657799
0.000664529
0.000666677
0.000665293
0.000661571
0.000656574
0.000651127
0.000645823
0.000641039
0.000637012
0.000633848
0.000631564
0.000630139
0.000629514
0.000629614
0.000629632
0.000626448
0.00230745
0.00226545
0.00223953
0.00221876
0.00219424
0.00216241
0.00212493
0.00208775
0.0020602
0.00205334
0.00207605
0.0021294
0.00219957
0.0022837
0.00237705
0.00246999
0.00254572
0.0025773
0.0026051
0.00262936
0.00264157
0.0026336
0.00259131
0.00248912
0.00228966
0.00195534
0.00145509
0.00113019
0.00103646
0.000979577
0.000933896
0.000899875
0.000883868
0.000877818
0.000876917
0.000881368
0.000890059
0.000901994
0.000916267
0.000932016
0.000948418
0.000964671
0.000980058
0.000993943
0.00100578
0.00101513
0.00102166
0.00102513
0.00102546
0.00102233
0.00299362
0.00298627
0.00297854
0.0029704
0.00296173
0.00295235
0.00294192
0.00293001
0.00291599
0.00289902
0.0028632
0.00276214
0.00259818
0.00243568
0.00233132
0.00234367
0.00244183
0.00252603
0.00259001
0.00264061
0.00267918
0.00270729
0.00272705
0.00273977
0.00274501
0.00273688
0.00202592
0.00132515
0.00128599
0.0012599
0.00116559
0.00113763
0.00112615
0.00111656
0.00111447
0.0011207
0.00113391
0.00115203
0.00117308
0.00119537
0.0012175
0.00123843
0.00125736
0.00127376
0.00128727
0.00129765
0.00130479
0.00130858
0.00130919
0.00130751
0.0029977
0.00299529
0.00299282
0.00299027
0.00298761
0.0029848
0.00298179
0.00297849
0.00297477
0.00297046
0.00296487
0.0029546
0.00293549
0.00290751
0.00287782
0.00285266
0.00282932
0.00281007
0.00279604
0.00278763
0.00278415
0.00278406
0.00278528
0.00278552
0.00278234
0.00277675
0.00276875
0.0027004
0.00266045
0.00250971
0.00129743
0.00128471
0.00127532
0.00126868
0.00126813
0.00127607
0.00129049
0.00130884
0.00132888
0.00134896
0.001368
0.00138533
0.00140059
0.00141366
0.00142453
0.00143326
0.00143991
0.00144447
0.00144696
0.00144729
0.00299697
0.00299381
0.00299064
0.00298749
0.00298436
0.00298126
0.00297819
0.00297514
0.0029721
0.002969
0.00296572
0.00296173
0.00295599
0.00294775
0.0029378
0.00292837
0.00291949
0.00291104
0.00290342
0.00289678
0.00289104
0.00288595
0.00288106
0.0028761
0.00287123
0.00286398
0.00285276
0.00283147
0.00279799
0.00270161
0.00240382
0.00221629
0.00197937
0.00134674
0.00134838
0.00135946
0.0013752
0.00139325
0.00141198
0.00143044
0.00144811
0.00146482
0.0014805
0.00149519
0.00150885
0.00152132
0.00153233
0.00154161
0.00154862
0.00155108
0.00299674
0.00299331
0.00298985
0.00298637
0.00298288
0.00297939
0.00297591
0.00297247
0.00296908
0.00296573
0.00296244
0.0029591
0.00295549
0.0029513
0.0029465
0.00294144
0.00293651
0.00293176
0.00292708
0.00292246
0.0029179
0.00291335
0.00290875
0.00290382
0.00289778
0.00289016
0.00288033
0.00286642
0.0028446
0.00279094
0.00266144
0.00250901
0.00230245
0.00194445
0.00150367
0.00140326
0.00142466
0.00144794
0.00147265
0.00149866
0.0015259
0.00155423
0.00158318
0.001612
0.0016397
0.00166515
0.00168711
0.00170446
0.0017162
0.00172109
0.00299614
0.00299207
0.00298798
0.0029839
0.00297982
0.00297576
0.00297176
0.00296781
0.00296395
0.0029602
0.00295657
0.00295304
0.00294957
0.00294603
0.00294233
0.00293843
0.00293439
0.00293024
0.002926
0.00292165
0.00291719
0.00291257
0.00290776
0.00290273
0.0028974
0.00289149
0.00288443
0.00287504
0.00286048
0.00282808
0.00275585
0.00264772
0.00248275
0.00221169
0.00183086
0.00150778
0.00145509
0.00148983
0.00152774
0.00156931
0.00161423
0.00166135
0.00170901
0.0017553
0.00179816
0.00183571
0.00186623
0.00188831
0.00190142
0.0019098
0.00299539
0.00299047
0.00298555
0.00298065
0.00297576
0.00297092
0.00296614
0.00296146
0.00295689
0.00295248
0.00294824
0.00294419
0.00294031
0.00293652
0.00293273
0.00292889
0.00292489
0.00292072
0.00291636
0.00291185
0.00290723
0.00290253
0.00289788
0.00289333
0.0028889
0.00288447
0.00287957
0.00287327
0.0028634
0.00284229
0.00279628
0.00271842
0.0025895
0.0023756
0.00205626
0.00170951
0.00151315
0.0015166
0.00156997
0.00162736
0.00168719
0.00174662
0.00180274
0.00185312
0.00189603
0.00193081
0.00195757
0.00197686
0.00199027
0.00200625
0.00299407
0.0029877
0.00298138
0.00297515
0.002969
0.00296296
0.00295705
0.00295132
0.0029458
0.00294051
0.0029355
0.00293074
0.00292625
0.00292198
0.00291785
0.00291372
0.00290952
0.00290521
0.00290077
0.00289623
0.0028917
0.00288728
0.00288313
0.00287937
0.00287605
0.00287309
0.0028701
0.00286626
0.00285981
0.00284547
0.00281369
0.00275568
0.00265416
0.00248253
0.00221865
0.00189895
0.00164375
0.00155138
0.00158725
0.00165702
0.0017247
0.00178606
0.00183637
0.00187284
0.00189573
0.00190836
0.00191589
0.0019245
0.00195567
0.00199451
0.00299167
0.0029826
0.00297375
0.00296517
0.00295684
0.00294879
0.00294106
0.00293369
0.00292674
0.00292026
0.00291429
0.00290884
0.00290385
0.00289921
0.00289485
0.00289066
0.00288651
0.00288233
0.00287813
0.00287402
0.00287014
0.00286665
0.00286367
0.00286136
0.00285976
0.0028587
0.00285783
0.00285635
0.00285264
0.00284275
0.00281954
0.00277472
0.00269341
0.00255412
0.00233731
0.00206036
0.00180144
0.00164592
0.00161343
0.00165397
0.00171765
0.00178159
0.00182615
0.00185107
0.00185743
0.00184484
0.00178787
0.00170799
0.00185183
0.00193874
0.00298594
0.00297036
0.00295611
0.00294292
0.00293072
0.00291931
0.00290886
0.00289942
0.00289083
0.0028833
0.0028768
0.00287118
0.00286649
0.00286252
0.002859
0.00285571
0.00285254
0.00284955
0.00284673
0.0028442
0.0028421
0.00284074
0.00284017
0.00284041
0.00284132
0.00284272
0.00284418
0.00284494
0.00284353
0.00283671
0.00281889
0.0027829
0.00271632
0.00260199
0.0024244
0.00219278
0.00195809
0.0017829
0.00169719
0.00168496
0.00171312
0.00175611
0.00179259
0.00181374
0.00181685
0.00180191
0.00177443
0.00178727
0.00186027
0.00194583
0.00293663
0.00291543
0.00289483
0.0028761
0.00286049
0.00284784
0.00283692
0.00282841
0.00282138
0.00281581
0.00281253
0.00281023
0.00280887
0.00280822
0.00280805
0.00280812
0.00280816
0.00280823
0.00280848
0.00280953
0.0028111
0.00281334
0.00281609
0.00281967
0.00282341
0.00282723
0.0028308
0.0028334
0.0028336
0.00282867
0.0028141
0.00278391
0.00272796
0.00263295
0.00248771
0.00229859
0.00209975
0.00193445
0.00182819
0.00177894
0.00176942
0.00178173
0.00180059
0.00181723
0.0018289
0.00183772
0.00185182
0.00189034
0.00194941
0.00201537
0.00284192
0.00282234
0.00280501
0.00279172
0.00278255
0.00277635
0.0027722
0.00276972
0.00276836
0.00276778
0.00276786
0.00276834
0.00276906
0.0027699
0.00277082
0.00277191
0.00277324
0.00277511
0.0027777
0.00278128
0.0027856
0.00279063
0.00279616
0.00280204
0.00280785
0.00281338
0.00281826
0.00282192
0.00282313
0.00281924
0.00280609
0.00277949
0.00273112
0.00265111
0.00253246
0.00238099
0.00222054
0.00208025
0.00197844
0.00191718
0.00188825
0.00188126
0.00188717
0.00190013
0.00191781
0.0019406
0.00197066
0.00201384
0.00206549
0.00211772
0.00275395
0.00274526
0.00273872
0.00273456
0.00273233
0.0027314
0.00273132
0.00273179
0.00273261
0.00273369
0.00273499
0.00273649
0.00273823
0.00274022
0.00274252
0.00274529
0.00274867
0.00275274
0.00275753
0.00276303
0.00276912
0.00277563
0.00278239
0.00278917
0.00279565
0.00280158
0.00280654
0.00280995
0.00281078
0.00280696
0.00279545
0.00277165
0.00272707
0.00265888
0.00256215
0.00244308
0.00231887
0.0022087
0.00212453
0.0020688
0.0020377
0.00202558
0.00202728
0.00203906
0.00205862
0.00208461
0.00211634
0.00215295
0.0021917
0.00222845
0.00269941
0.00269824
0.00269802
0.00269863
0.00269987
0.0027016
0.00270365
0.00270594
0.00270848
0.00271123
0.0027142
0.0027174
0.00272084
0.00272457
0.00272866
0.00273312
0.00273799
0.00274327
0.0027489
0.00275484
0.00276102
0.00276729
0.00277354
0.00277959
0.0027852
0.00279011
0.00279392
0.00279606
0.00279562
0.00279099
0.00277979
0.00275839
0.00272045
0.00265733
0.00257912
0.00248768
0.00239553
0.00231473
0.00225235
0.00220995
0.00218555
0.00217591
0.00217784
0.00218862
0.00220601
0.00222801
0.00225295
0.00227872
0.0023039
0.00232648
0.00267628
0.0026788
0.00268158
0.0026846
0.00268777
0.00269109
0.00269453
0.00269807
0.0027017
0.00270542
0.00270925
0.00271318
0.00271724
0.00272144
0.00272578
0.00273027
0.0027349
0.00273964
0.00274451
0.00274942
0.00275433
0.00275917
0.00276387
0.00276827
0.00277218
0.00277532
0.00277733
0.0027777
0.00277562
0.00276984
0.00275848
0.00273874
0.00270613
0.00265286
0.00258487
0.00251704
0.00245225
0.00239726
0.00235557
0.0023276
0.00231197
0.0023066
0.00230927
0.00231792
0.00233067
0.00234582
0.00236181
0.00237697
0.00239064
0.00240199
0.00267237
0.00267578
0.00267918
0.00268255
0.00268592
0.00268926
0.00269258
0.0026959
0.00269921
0.00270252
0.00270584
0.00270919
0.00271255
0.00271593
0.00271934
0.00272278
0.00272623
0.00272971
0.00273318
0.00273663
0.00273999
0.00274322
0.00274624
0.00274889
0.00275099
0.00275234
0.00275257
0.00275124
0.0027477
0.00274096
0.00272962
0.0027117
0.0026841
0.00264228
0.00258193
0.00253278
0.0024907
0.00245689
0.00243229
0.00241646
0.0024082
0.00240603
0.00240843
0.00241399
0.0024214
0.00242951
0.00243732
0.00244395
0.00244931
0.00245317
0.00266791
0.00267038
0.00267274
0.00267503
0.00267724
0.00267937
0.00268146
0.00268352
0.00268555
0.00268756
0.00268957
0.00269156
0.00269356
0.00269558
0.00269762
0.00269966
0.00270172
0.00270379
0.00270586
0.00270787
0.0027098
0.00271157
0.00271309
0.00271425
0.00271488
0.00271477
0.00271364
0.00271112
0.00270668
0.00269967
0.00268912
0.00267371
0.00265151
0.00261939
0.0025724
0.00253406
0.00251068
0.00249343
0.00248163
0.00247448
0.00247106
0.00247037
0.00247156
0.0024738
0.00247636
0.00247868
0.00248215
0.00248881
0.00249763
0.00250699
0.0048363
0.00475585
0.00467856
0.0046026
0.00452741
0.00445267
0.00437821
0.00430397
0.00422997
0.00415623
0.00408281
0.00400973
0.00393704
0.00386476
0.00379295
0.0037217
0.0036511
0.00358128
0.00351245
0.00344481
0.00337859
0.00331401
0.00325132
0.00319066
0.00313214
0.00307578
0.00302149
0.00296909
0.00291827
0.00286866
0.00281979
0.00277115
0.0027224
0.00267338
0.00262379
0.00258771
0.00259965
0.00262571
0.00266046
0.00270158
0.00274811
0.0027996
0.00285597
0.00291728
0.00298366
0.00305524
0.00312999
0.0032049
0.00328003
0.00335546
2.38316e-05
2.39147e-05
2.42391e-05
2.38692e-05
2.32693e-05
2.28404e-05
2.26149e-05
2.24659e-05
2.2304e-05
2.21146e-05
2.19156e-05
2.17204e-05
2.15303e-05
2.13415e-05
2.11514e-05
2.09601e-05
2.07692e-05
2.05801e-05
2.03945e-05
2.02134e-05
2.00339e-05
1.98148e-05
1.96019e-05
1.93983e-05
1.92081e-05
1.90715e-05
1.88934e-05
1.87298e-05
1.85772e-05
1.84313e-05
1.82849e-05
1.81343e-05
1.79792e-05
1.78204e-05
1.76603e-05
1.75016e-05
1.73474e-05
1.72009e-05
1.70648e-05
1.69403e-05
1.6826e-05
1.67236e-05
1.66332e-05
1.65527e-05
1.64789e-05
1.64057e-05
1.63222e-05
1.62256e-05
1.61186e-05
1.60092e-05
2.30053e-05
2.09633e-05
2.01865e-05
1.97769e-05
1.92635e-05
1.85971e-05
1.78899e-05
1.72297e-05
1.66328e-05
1.608e-05
1.55531e-05
1.5045e-05
1.45561e-05
1.40876e-05
1.36399e-05
1.3213e-05
1.2807e-05
1.24227e-05
1.20596e-05
1.17197e-05
1.1412e-05
1.14369e-05
1.14637e-05
1.13031e-05
1.12075e-05
1.12435e-05
1.13206e-05
1.13748e-05
1.14021e-05
1.14017e-05
1.13802e-05
1.13443e-05
1.1299e-05
1.1249e-05
1.11979e-05
1.11489e-05
1.11044e-05
1.10663e-05
1.10358e-05
1.10141e-05
1.1003e-05
1.09994e-05
1.09992e-05
1.09984e-05
1.09928e-05
1.09792e-05
1.09552e-05
1.09039e-05
1.08017e-05
1.06371e-05
2.36038e-05
2.22078e-05
2.09233e-05
2.00022e-05
1.9249e-05
1.85275e-05
1.78093e-05
1.71153e-05
1.64614e-05
1.58474e-05
1.52656e-05
1.47102e-05
1.41786e-05
1.36699e-05
1.31838e-05
1.27202e-05
1.22788e-05
1.18593e-05
1.14816e-05
1.13475e-05
1.12491e-05
1.11724e-05
1.11049e-05
1.10384e-05
1.09722e-05
1.09047e-05
1.08392e-05
1.07725e-05
1.07032e-05
1.06301e-05
1.05527e-05
1.0471e-05
1.03858e-05
1.02985e-05
1.0211e-05
1.01252e-05
1.00433e-05
9.96713e-06
9.89831e-06
9.83788e-06
9.78622e-06
9.7427e-06
9.70556e-06
9.67218e-06
9.64009e-06
9.60882e-06
9.58176e-06
9.56516e-06
9.55211e-06
9.50135e-06
2.33199e-05
2.23882e-05
2.1255e-05
2.02374e-05
1.93687e-05
1.85945e-05
1.78684e-05
1.71756e-05
1.65167e-05
1.58929e-05
1.53013e-05
1.47378e-05
1.41996e-05
1.3685e-05
1.31936e-05
1.27252e-05
1.22797e-05
1.18567e-05
1.14753e-05
1.13388e-05
1.12397e-05
1.11601e-05
1.10882e-05
1.10181e-05
1.09475e-05
1.08749e-05
1.08e-05
1.07222e-05
1.06412e-05
1.05564e-05
1.04677e-05
1.0375e-05
1.02789e-05
1.01806e-05
1.00815e-05
9.9837e-06
9.88918e-06
9.79993e-06
9.71755e-06
9.64313e-06
9.57708e-06
9.51904e-06
9.46761e-06
9.42006e-06
9.37185e-06
9.31733e-06
9.25377e-06
9.18797e-06
9.13452e-06
9.08173e-06
2.31401e-05
2.22015e-05
2.12337e-05
2.02773e-05
1.93962e-05
1.85977e-05
1.78619e-05
1.71704e-05
1.65148e-05
1.5892e-05
1.53e-05
1.4736e-05
1.41977e-05
1.36835e-05
1.31927e-05
1.27251e-05
1.22806e-05
1.18589e-05
1.14624e-05
1.13652e-05
1.12751e-05
1.11907e-05
1.11104e-05
1.10324e-05
1.09553e-05
1.0878e-05
1.07993e-05
1.07186e-05
1.06351e-05
1.05482e-05
1.04576e-05
1.03634e-05
1.02661e-05
1.01668e-05
1.00671e-05
9.9687e-06
9.87362e-06
9.7837e-06
9.70044e-06
9.62477e-06
9.55692e-06
9.49646e-06
9.44254e-06
9.39411e-06
9.34931e-06
9.30354e-06
9.24886e-06
9.18059e-06
9.10895e-06
9.03899e-06
2.31543e-05
2.20921e-05
2.11534e-05
2.02538e-05
1.94003e-05
1.86053e-05
1.78673e-05
1.71766e-05
1.65242e-05
1.59047e-05
1.53148e-05
1.47522e-05
1.42151e-05
1.37021e-05
1.32125e-05
1.2746e-05
1.23026e-05
1.1882e-05
1.1486e-05
1.13901e-05
1.13009e-05
1.12165e-05
1.11353e-05
1.10558e-05
1.09765e-05
1.08964e-05
1.08147e-05
1.07307e-05
1.0644e-05
1.05541e-05
1.04609e-05
1.03647e-05
1.02662e-05
1.01664e-05
1.00668e-05
9.96898e-06
9.87483e-06
9.786e-06
9.70386e-06
9.62923e-06
9.56213e-06
9.50158e-06
9.44579e-06
9.39302e-06
9.34252e-06
9.29381e-06
9.24316e-06
9.18271e-06
9.11294e-06
9.03916e-06
2.32141e-05
2.20993e-05
2.1126e-05
2.02333e-05
1.93948e-05
1.86067e-05
1.78683e-05
1.71754e-05
1.65218e-05
1.5902e-05
1.53122e-05
1.47498e-05
1.42131e-05
1.37008e-05
1.32124e-05
1.27475e-05
1.23059e-05
1.18871e-05
1.14928e-05
1.1399e-05
1.13106e-05
1.12262e-05
1.11445e-05
1.10637e-05
1.09826e-05
1.09002e-05
1.08158e-05
1.07291e-05
1.06398e-05
1.05477e-05
1.04531e-05
1.03563e-05
1.02579e-05
1.01591e-05
1.0061e-05
9.96532e-06
9.87345e-06
9.78687e-06
9.70676e-06
9.63388e-06
9.56846e-06
9.50981e-06
9.45602e-06
9.40417e-06
9.35169e-06
9.29799e-06
9.24316e-06
9.18316e-06
9.11518e-06
9.04105e-06
2.32375e-05
2.21372e-05
2.11405e-05
2.02349e-05
1.93958e-05
1.86103e-05
1.78726e-05
1.71786e-05
1.65235e-05
1.59029e-05
1.53128e-05
1.47506e-05
1.42145e-05
1.37034e-05
1.32165e-05
1.27534e-05
1.23138e-05
1.18971e-05
1.15076e-05
1.14041e-05
1.13041e-05
1.12107e-05
1.11227e-05
1.1038e-05
1.09544e-05
1.08705e-05
1.07853e-05
1.06985e-05
1.06096e-05
1.05187e-05
1.0426e-05
1.03319e-05
1.0237e-05
1.01421e-05
1.00484e-05
9.95718e-06
9.86961e-06
9.7869e-06
9.70993e-06
9.63918e-06
9.57476e-06
9.51628e-06
9.46264e-06
9.41157e-06
9.35969e-06
9.30453e-06
9.24607e-06
9.18332e-06
9.11449e-06
9.03981e-06
2.32307e-05
2.21551e-05
2.11588e-05
2.02453e-05
1.94011e-05
1.86142e-05
1.78762e-05
1.71813e-05
1.65249e-05
1.5903e-05
1.53122e-05
1.47497e-05
1.42138e-05
1.37034e-05
1.32178e-05
1.27564e-05
1.23187e-05
1.19038e-05
1.15117e-05
1.14153e-05
1.13251e-05
1.12365e-05
1.11491e-05
1.10621e-05
1.09749e-05
1.0887e-05
1.07979e-05
1.07074e-05
1.06155e-05
1.05222e-05
1.0428e-05
1.03332e-05
1.02385e-05
1.01447e-05
1.00526e-05
9.96319e-06
9.87759e-06
9.79669e-06
9.72118e-06
9.65133e-06
9.5869e-06
9.52723e-06
9.47136e-06
9.41796e-06
9.36455e-06
9.30807e-06
9.24717e-06
9.18152e-06
9.11064e-06
9.03474e-06
2.32213e-05
2.21546e-05
2.11667e-05
2.02537e-05
1.94071e-05
1.86183e-05
1.78793e-05
1.71837e-05
1.65266e-05
1.5904e-05
1.53127e-05
1.47503e-05
1.4215e-05
1.37057e-05
1.32216e-05
1.27622e-05
1.23265e-05
1.19136e-05
1.15214e-05
1.12386e-05
1.12125e-05
1.11665e-05
1.11071e-05
1.10382e-05
1.09622e-05
1.08807e-05
1.0795e-05
1.07062e-05
1.0615e-05
1.05224e-05
1.04291e-05
1.03358e-05
1.02433e-05
1.01522e-05
1.00633e-05
9.97705e-06
9.89431e-06
9.81566e-06
9.74163e-06
9.67245e-06
9.60784e-06
9.54696e-06
9.48862e-06
9.43163e-06
9.37448e-06
9.31483e-06
9.25086e-06
9.18198e-06
9.10823e-06
9.03021e-06
2.32198e-05
2.21519e-05
2.11688e-05
2.02587e-05
1.94122e-05
1.86223e-05
1.78821e-05
1.71856e-05
1.65277e-05
1.59045e-05
1.53128e-05
1.47506e-05
1.4216e-05
1.37079e-05
1.32255e-05
1.27681e-05
1.23345e-05
1.19236e-05
1.15344e-05
1.1385e-05
1.12736e-05
1.11842e-05
1.11041e-05
1.10262e-05
1.0947e-05
1.08648e-05
1.07793e-05
1.06908e-05
1.06001e-05
1.05083e-05
1.04164e-05
1.03252e-05
1.02355e-05
1.0148e-05
1.00629e-05
9.98079e-06
9.90179e-06
9.82623e-06
9.7543e-06
9.68611e-06
9.6215e-06
9.55973e-06
9.4996e-06
9.43974e-06
9.37895e-06
9.31572e-06
9.24853e-06
9.17672e-06
9.10045e-06
9.02052e-06
2.32228e-05
2.21537e-05
2.11714e-05
2.02627e-05
1.94167e-05
1.86263e-05
1.7885e-05
1.71874e-05
1.65285e-05
1.59045e-05
1.53125e-05
1.47504e-05
1.42165e-05
1.37098e-05
1.32291e-05
1.27736e-05
1.23419e-05
1.19328e-05
1.15448e-05
1.14354e-05
1.13286e-05
1.1227e-05
1.1131e-05
1.10387e-05
1.0948e-05
1.08572e-05
1.07657e-05
1.06733e-05
1.05806e-05
1.04883e-05
1.03972e-05
1.03082e-05
1.02218e-05
1.01382e-05
1.00576e-05
9.97985e-06
9.90493e-06
9.8327e-06
9.76305e-06
9.69582e-06
9.63085e-06
9.56763e-06
9.50521e-06
9.44235e-06
9.37787e-06
9.31073e-06
9.23994e-06
9.16505e-06
9.08631e-06
9.00466e-06
2.32256e-05
2.21584e-05
2.11761e-05
2.02674e-05
1.94213e-05
1.86303e-05
1.7888e-05
1.71893e-05
1.65295e-05
1.59049e-05
1.53128e-05
1.47511e-05
1.42182e-05
1.3713e-05
1.32342e-05
1.27807e-05
1.23511e-05
1.19436e-05
1.15552e-05
1.12694e-05
1.12382e-05
1.11816e-05
1.11091e-05
1.10266e-05
1.09379e-05
1.08454e-05
1.07507e-05
1.06552e-05
1.05604e-05
1.04673e-05
1.03771e-05
1.02903e-05
1.02072e-05
1.01278e-05
1.00517e-05
9.97852e-06
9.9076e-06
9.83853e-06
9.77092e-06
9.70441e-06
9.63871e-06
9.57348e-06
9.5081e-06
9.44165e-06
9.37319e-06
9.30192e-06
9.2273e-06
9.14917e-06
9.06801e-06
8.98478e-06
2.32268e-05
2.2163e-05
2.11814e-05
2.02722e-05
1.94255e-05
1.86334e-05
1.789e-05
1.71899e-05
1.65288e-05
1.59033e-05
1.53108e-05
1.47492e-05
1.42169e-05
1.37128e-05
1.32355e-05
1.27837e-05
1.23556e-05
1.19494e-05
1.15618e-05
1.12745e-05
1.12412e-05
1.11833e-05
1.11099e-05
1.10262e-05
1.09359e-05
1.08413e-05
1.07446e-05
1.06475e-05
1.05517e-05
1.04585e-05
1.0369e-05
1.0284e-05
1.02036e-05
1.01275e-05
1.0055e-05
9.98524e-06
9.91732e-06
9.8504e-06
9.7839e-06
9.71735e-06
9.65037e-06
9.58268e-06
9.5139e-06
9.44349e-06
9.37081e-06
9.29538e-06
9.21693e-06
9.13559e-06
9.05201e-06
8.96727e-06
2.32275e-05
2.21666e-05
2.11862e-05
2.0277e-05
1.94298e-05
1.86371e-05
1.7893e-05
1.71923e-05
1.65308e-05
1.59053e-05
1.53132e-05
1.47524e-05
1.42214e-05
1.37189e-05
1.32434e-05
1.27933e-05
1.23667e-05
1.19616e-05
1.1576e-05
1.14255e-05
1.13057e-05
1.12035e-05
1.11088e-05
1.10163e-05
1.09235e-05
1.08296e-05
1.07348e-05
1.06402e-05
1.05471e-05
1.04569e-05
1.03706e-05
1.0289e-05
1.02121e-05
1.01394e-05
1.00702e-05
1.00033e-05
9.93737e-06
9.87152e-06
9.80496e-06
9.7372e-06
9.66792e-06
9.59694e-06
9.52412e-06
9.44924e-06
9.37202e-06
9.29228e-06
9.21005e-06
9.1257e-06
9.04001e-06
8.95412e-06
2.32283e-05
2.21691e-05
2.1189e-05
2.02787e-05
1.94295e-05
1.86346e-05
1.78881e-05
1.71852e-05
1.65219e-05
1.5895e-05
1.53021e-05
1.47412e-05
1.42108e-05
1.37093e-05
1.3235e-05
1.27863e-05
1.2361e-05
1.19568e-05
1.15718e-05
1.14636e-05
1.13527e-05
1.12426e-05
1.11352e-05
1.10301e-05
1.09267e-05
1.08245e-05
1.07239e-05
1.06256e-05
1.05307e-05
1.04404e-05
1.03554e-05
1.02761e-05
1.02023e-05
1.01334e-05
1.0068e-05
1.00047e-05
9.94196e-06
9.87856e-06
9.81352e-06
9.74629e-06
9.67662e-06
9.60444e-06
9.52979e-06
9.45276e-06
9.37338e-06
9.29179e-06
9.2083e-06
9.12351e-06
9.03838e-06
8.95421e-06
2.32293e-05
2.21717e-05
2.1193e-05
2.0284e-05
1.94357e-05
1.86415e-05
1.78954e-05
1.71926e-05
1.65295e-05
1.59028e-05
1.53103e-05
1.475e-05
1.42203e-05
1.37195e-05
1.3246e-05
1.27978e-05
1.23727e-05
1.19683e-05
1.15808e-05
1.1281e-05
1.12362e-05
1.11685e-05
1.10877e-05
1.09992e-05
1.09058e-05
1.08099e-05
1.07135e-05
1.06185e-05
1.05266e-05
1.04393e-05
1.03578e-05
1.02823e-05
1.02128e-05
1.01482e-05
1.00874e-05
1.00285e-05
9.97004e-06
9.91052e-06
9.84891e-06
9.78463e-06
9.71749e-06
9.64755e-06
9.57504e-06
9.50027e-06
9.42358e-06
9.34538e-06
9.26627e-06
9.18711e-06
9.10916e-06
9.03402e-06
2.32302e-05
2.21667e-05
2.11803e-05
2.0264e-05
1.94093e-05
1.86099e-05
1.78602e-05
1.71553e-05
1.64913e-05
1.5865e-05
1.52739e-05
1.47159e-05
1.41893e-05
1.36921e-05
1.32225e-05
1.27785e-05
1.23576e-05
1.19573e-05
1.15738e-05
1.12776e-05
1.12331e-05
1.11675e-05
1.10887e-05
1.10029e-05
1.09137e-05
1.08235e-05
1.07381e-05
1.06571e-05
1.05805e-05
1.05087e-05
1.04429e-05
1.03833e-05
1.033e-05
1.02821e-05
1.02382e-05
1.01966e-05
1.01555e-05
1.01134e-05
1.00691e-05
1.00219e-05
9.97153e-06
9.91811e-06
9.86197e-06
9.80357e-06
9.74345e-06
9.68232e-06
9.6211e-06
9.56106e-06
9.50401e-06
9.45238e-06
2.3234e-05
2.21804e-05
2.12087e-05
2.03078e-05
1.94711e-05
1.86957e-05
1.79748e-05
1.73021e-05
1.66728e-05
1.60827e-05
1.55288e-05
1.50087e-05
1.45202e-05
1.40616e-05
1.36311e-05
1.32265e-05
1.28455e-05
1.24856e-05
1.21439e-05
1.18156e-05
1.15053e-05
1.14418e-05
1.13532e-05
1.12578e-05
1.11634e-05
1.10744e-05
1.10864e-05
1.11127e-05
1.11386e-05
1.116e-05
1.11778e-05
1.11937e-05
1.12093e-05
1.1225e-05
1.124e-05
1.12527e-05
1.12615e-05
1.12645e-05
1.12608e-05
1.12497e-05
1.12316e-05
1.12071e-05
1.11772e-05
1.11431e-05
1.11059e-05
1.10665e-05
1.10265e-05
1.09873e-05
1.09516e-05
1.09233e-05
2.38338e-05
2.36187e-05
2.34165e-05
2.32252e-05
2.30411e-05
2.28577e-05
2.26737e-05
2.24892e-05
2.23048e-05
2.21213e-05
2.19397e-05
2.17606e-05
2.15845e-05
2.14114e-05
2.1241e-05
2.10725e-05
2.09048e-05
2.07366e-05
2.05666e-05
2.03937e-05
2.02171e-05
2.00229e-05
1.98154e-05
1.96001e-05
1.93828e-05
1.91688e-05
1.89237e-05
1.8703e-05
1.85033e-05
1.83217e-05
1.81553e-05
1.80014e-05
1.78572e-05
1.77199e-05
1.75869e-05
1.74557e-05
1.73247e-05
1.71927e-05
1.7059e-05
1.69237e-05
1.67873e-05
1.66502e-05
1.65132e-05
1.63766e-05
1.62409e-05
1.61063e-05
1.59731e-05
1.58415e-05
1.57115e-05
1.55827e-05
9.93319e-06
6.13173e-06
4.14071e-06
3.19949e-06
2.77732e-06
2.58662e-06
2.48395e-06
2.41627e-06
2.35992e-06
2.30779e-06
2.25666e-06
2.2068e-06
2.15918e-06
2.11679e-06
2.08873e-06
2.08795e-06
2.13732e-06
2.23938e-06
2.36343e-06
2.40964e-06
1.01537e-05
6.21287e-06
4.1667e-06
3.22152e-06
2.79896e-06
2.60829e-06
2.50529e-06
2.43702e-06
2.37996e-06
2.32712e-06
2.27533e-06
2.22501e-06
2.17707e-06
2.13481e-06
2.10768e-06
2.10915e-06
2.16298e-06
2.27119e-06
2.39935e-06
2.4394e-06
1.0595e-05
6.26736e-06
4.18693e-06
3.24249e-06
2.82031e-06
2.62935e-06
2.52557e-06
2.45628e-06
2.39819e-06
2.3445e-06
2.29203e-06
2.24133e-06
2.19347e-06
2.15187e-06
2.12631e-06
2.13073e-06
2.18967e-06
2.3045e-06
2.43729e-06
2.47202e-06
1.07886e-05
6.29415e-06
4.21405e-06
3.2669e-06
2.8437e-06
2.65253e-06
2.54866e-06
2.47905e-06
2.42047e-06
2.36634e-06
2.31357e-06
2.26275e-06
2.21511e-06
2.17423e-06
2.15011e-06
2.15714e-06
2.22055e-06
2.34123e-06
2.47803e-06
2.508e-06
1.10162e-05
6.31292e-06
4.24432e-06
3.29365e-06
2.86955e-06
2.67874e-06
2.57544e-06
2.50606e-06
2.44733e-06
2.3929e-06
2.33979e-06
2.2887e-06
2.24105e-06
2.20069e-06
2.17782e-06
2.18726e-06
2.25479e-06
2.38076e-06
2.52094e-06
2.54511e-06
1.12446e-05
6.3168e-06
4.27428e-06
3.32186e-06
2.89787e-06
2.7082e-06
2.60608e-06
2.53733e-06
2.47868e-06
2.42389e-06
2.37017e-06
2.31843e-06
2.27035e-06
2.23002e-06
2.20783e-06
2.21917e-06
2.2904e-06
2.42142e-06
2.56495e-06
2.58269e-06
1.14545e-05
6.29299e-06
4.3014e-06
3.35055e-06
2.92774e-06
2.73981e-06
2.63916e-06
2.57115e-06
2.51248e-06
2.45703e-06
2.40237e-06
2.34975e-06
2.30105e-06
2.26052e-06
2.23866e-06
2.25142e-06
2.32586e-06
2.46166e-06
2.60869e-06
2.62012e-06
1.1575e-05
6.28723e-06
4.3272e-06
3.37874e-06
2.95754e-06
2.77145e-06
2.67217e-06
2.60458e-06
2.54549e-06
2.48902e-06
2.43321e-06
2.37964e-06
2.33044e-06
2.28987e-06
2.26848e-06
2.28275e-06
2.36024e-06
2.50059e-06
2.65121e-06
2.65702e-06
1.16406e-05
6.29892e-06
4.35342e-06
3.40567e-06
2.98569e-06
2.80103e-06
2.7026e-06
2.63486e-06
2.57495e-06
2.51742e-06
2.4607e-06
2.40658e-06
2.35729e-06
2.31705e-06
2.29652e-06
2.31259e-06
2.39318e-06
2.53786e-06
2.69199e-06
2.69308e-06
1.16776e-05
6.31782e-06
4.37898e-06
3.43079e-06
3.0114e-06
2.82752e-06
2.72919e-06
2.66079e-06
2.5999e-06
2.54161e-06
2.48467e-06
2.43078e-06
2.38211e-06
2.34269e-06
2.32334e-06
2.34125e-06
2.42478e-06
2.57334e-06
2.73054e-06
2.72786e-06
1.16999e-05
6.34138e-06
4.40405e-06
3.45458e-06
3.03516e-06
2.85136e-06
2.75255e-06
2.68329e-06
2.62169e-06
2.56327e-06
2.5069e-06
2.45401e-06
2.40653e-06
2.36823e-06
2.34995e-06
2.36923e-06
2.45504e-06
2.60668e-06
2.7662e-06
2.76092e-06
1.17182e-05
6.37223e-06
4.43018e-06
3.47839e-06
3.05839e-06
2.87419e-06
2.77463e-06
2.70475e-06
2.64305e-06
2.58524e-06
2.53008e-06
2.47852e-06
2.43227e-06
2.39471e-06
2.37682e-06
2.39655e-06
2.48356e-06
2.63721e-06
2.79826e-06
2.79216e-06
1.17411e-05
6.41177e-06
4.45877e-06
3.50362e-06
3.08265e-06
2.89786e-06
2.79771e-06
2.72772e-06
2.66656e-06
2.60988e-06
2.55611e-06
2.50566e-06
2.45997e-06
2.42216e-06
2.40352e-06
2.42253e-06
2.50968e-06
2.66447e-06
2.82668e-06
2.82223e-06
1.17746e-05
6.45765e-06
4.48965e-06
3.53061e-06
3.1086e-06
2.92342e-06
2.82311e-06
2.75354e-06
2.69333e-06
2.63784e-06
2.58511e-06
2.53501e-06
2.48881e-06
2.44959e-06
2.42908e-06
2.44648e-06
2.53322e-06
2.68894e-06
2.85267e-06
2.85264e-06
1.18194e-05
6.50332e-06
4.52079e-06
3.55826e-06
3.13557e-06
2.95041e-06
2.85046e-06
2.78167e-06
2.72247e-06
2.66784e-06
2.61544e-06
2.56477e-06
2.51713e-06
2.47574e-06
2.45292e-06
2.46861e-06
2.55521e-06
2.71249e-06
2.87876e-06
2.88529e-06
1.18698e-05
6.54079e-06
4.54909e-06
3.58453e-06
3.16192e-06
2.97727e-06
2.87808e-06
2.81019e-06
2.75178e-06
2.69747e-06
2.64475e-06
2.59298e-06
2.54362e-06
2.50019e-06
2.47553e-06
2.49036e-06
2.57784e-06
2.7379e-06
2.90808e-06
2.92163e-06
1.19161e-05
6.56468e-06
4.57222e-06
3.60771e-06
3.18604e-06
3.00234e-06
2.90405e-06
2.83692e-06
2.77894e-06
2.7246e-06
2.67137e-06
2.61871e-06
2.56825e-06
2.52379e-06
2.49857e-06
2.51391e-06
2.60358e-06
2.76768e-06
2.94291e-06
2.96189e-06
1.19491e-05
6.57556e-06
4.5902e-06
3.6276e-06
3.20747e-06
3.02491e-06
2.92739e-06
2.86071e-06
2.80288e-06
2.74851e-06
2.69521e-06
2.64255e-06
2.59224e-06
2.54823e-06
2.52391e-06
2.54102e-06
2.63381e-06
2.80272e-06
2.98345e-06
3.00472e-06
1.19658e-05
6.58036e-06
4.60564e-06
3.64578e-06
3.22724e-06
3.04557e-06
2.94841e-06
2.88183e-06
2.8241e-06
2.77011e-06
2.71759e-06
2.6661e-06
2.61724e-06
2.57494e-06
2.55246e-06
2.57188e-06
2.66793e-06
2.84157e-06
3.02742e-06
3.04763e-06
1.19709e-05
6.58891e-06
4.62237e-06
3.66465e-06
3.24713e-06
3.06574e-06
2.96837e-06
2.90166e-06
2.84423e-06
2.79124e-06
2.74035e-06
2.69093e-06
2.64428e-06
2.60411e-06
2.58344e-06
2.60473e-06
2.70331e-06
2.8808e-06
3.0708e-06
3.0881e-06
1.19743e-05
6.60863e-06
4.6433e-06
3.68608e-06
3.26857e-06
3.08671e-06
2.9887e-06
2.92184e-06
2.86509e-06
2.81366e-06
2.76488e-06
2.71774e-06
2.67313e-06
2.63447e-06
2.61461e-06
2.63652e-06
2.73635e-06
2.9165e-06
3.10964e-06
3.12474e-06
1.19858e-05
6.64059e-06
4.66878e-06
3.71031e-06
3.29187e-06
3.10904e-06
3.01035e-06
2.94368e-06
2.88801e-06
2.83835e-06
2.79155e-06
2.7461e-06
2.70247e-06
2.66388e-06
2.64329e-06
2.66436e-06
2.76425e-06
2.94613e-06
3.14191e-06
3.15797e-06
1.20094e-05
6.67903e-06
4.69656e-06
3.73597e-06
3.3163e-06
3.13259e-06
3.03372e-06
2.96777e-06
2.91349e-06
2.8654e-06
2.81987e-06
2.77486e-06
2.73058e-06
2.69039e-06
2.66763e-06
2.68683e-06
2.78616e-06
2.96955e-06
3.16826e-06
3.18972e-06
1.20417e-05
6.7144e-06
4.7231e-06
3.76104e-06
3.34077e-06
3.15699e-06
3.05881e-06
2.99417e-06
2.94133e-06
2.89425e-06
2.84882e-06
2.8027e-06
2.75618e-06
2.71307e-06
2.68739e-06
2.70449e-06
2.80351e-06
2.989e-06
3.19166e-06
3.22263e-06
1.20733e-05
6.73859e-06
4.74564e-06
3.78427e-06
3.36474e-06
3.18206e-06
3.08553e-06
3.02257e-06
2.97089e-06
2.92393e-06
2.87728e-06
2.82863e-06
2.7788e-06
2.7323e-06
2.70386e-06
2.71954e-06
2.81924e-06
3.00806e-06
3.2161e-06
3.25889e-06
1.20943e-05
6.7493e-06
4.76391e-06
3.80591e-06
3.38855e-06
3.208e-06
3.11369e-06
3.05233e-06
3.00114e-06
2.95319e-06
2.90413e-06
2.85212e-06
2.79877e-06
2.74935e-06
2.71921e-06
2.73479e-06
2.83654e-06
3.03019e-06
3.24508e-06
3.29956e-06
1.20994e-05
6.75076e-06
4.78009e-06
3.82732e-06
3.41295e-06
3.23493e-06
3.14274e-06
3.08233e-06
3.0306e-06
2.98059e-06
2.92841e-06
2.87302e-06
2.81687e-06
2.76582e-06
2.73555e-06
2.75257e-06
2.85777e-06
3.05755e-06
3.28042e-06
3.3444e-06
1.20908e-05
6.75081e-06
4.79712e-06
3.84989e-06
3.43836e-06
3.2624e-06