/*--------------------------------*- C++ -*----------------------------------*\
  =========                 |
  \\      /  F ield         | OpenFOAM: The Open Source CFD Toolbox
   \\    /   O peration     | Website:  https://openfoam.org
    \\  /    A nd           | Version:  8
     \\/     M anipulation  |
\*---------------------------------------------------------------------------*/
FoamFile
{
    version     2.0;
    format      ascii;
    class       volScalarField;
    location    "800";
    object      nut;
}
// * * * * * * * * * * * * * * * * * * * * * * * * * * * * * * * * * * * * * //

dimensions      [0 2 -1 0 0 0 0];

internalField   nonuniform List<scalar> 
8400
(
5.41637e-05
5.38917e-05
5.36768e-05
5.35056e-05
5.33622e-05
5.32256e-05
5.30709e-05
5.28731e-05
5.26202e-05
5.23305e-05
5.20897e-05
5.19359e-05
5.18159e-05
5.17098e-05
5.16058e-05
5.14925e-05
5.1359e-05
5.11921e-05
5.07243e-05
4.98473e-05
4.85386e-05
4.68424e-05
4.48391e-05
4.26731e-05
4.06124e-05
3.90834e-05
3.85543e-05
3.90191e-05
3.95693e-05
3.97548e-05
3.96559e-05
3.94176e-05
3.906e-05
3.85971e-05
3.81703e-05
3.77765e-05
3.7395e-05
3.70203e-05
3.66486e-05
3.6281e-05
3.59178e-05
3.55573e-05
3.51996e-05
3.48446e-05
3.44923e-05
3.41425e-05
3.37958e-05
3.34536e-05
3.31015e-05
3.2776e-05
4.76938e-05
4.77568e-05
4.78007e-05
4.79126e-05
4.81282e-05
4.84936e-05
4.90643e-05
4.9869e-05
5.08657e-05
5.19328e-05
5.28954e-05
5.36493e-05
5.43964e-05
5.51459e-05
5.58614e-05
5.64859e-05
5.69437e-05
5.71144e-05
5.67559e-05
5.61302e-05
5.51002e-05
5.35121e-05
5.11662e-05
4.78439e-05
4.34297e-05
3.81421e-05
3.28354e-05
2.98863e-05
2.89174e-05
2.879e-05
2.90529e-05
2.93363e-05
2.97035e-05
3.00978e-05
3.01865e-05
3.01217e-05
2.99739e-05
2.97761e-05
2.95508e-05
2.93172e-05
2.90886e-05
2.88742e-05
2.86816e-05
2.85136e-05
2.83708e-05
2.82559e-05
2.81685e-05
2.81047e-05
2.81586e-05
2.81345e-05
5.53816e-05
5.46501e-05
5.41013e-05
5.36481e-05
5.32185e-05
5.28111e-05
5.24966e-05
5.24081e-05
5.27035e-05
5.34685e-05
5.45623e-05
5.55935e-05
5.65268e-05
5.73736e-05
5.80371e-05
5.83853e-05
5.82618e-05
5.74606e-05
5.76409e-05
5.79573e-05
5.81744e-05
5.81112e-05
5.75036e-05
5.5879e-05
5.25646e-05
4.69647e-05
3.82925e-05
3.3827e-05
3.30239e-05
3.27471e-05
3.26612e-05
3.22744e-05
3.22339e-05
3.23227e-05
3.24568e-05
3.26402e-05
3.2866e-05
3.31311e-05
3.34279e-05
3.37464e-05
3.4077e-05
3.44068e-05
3.47221e-05
3.50112e-05
3.52652e-05
3.54767e-05
3.56378e-05
3.57428e-05
3.57975e-05
3.57858e-05
6.14341e-05
6.13582e-05
6.12788e-05
6.11954e-05
6.11061e-05
6.10094e-05
6.09047e-05
6.07931e-05
6.06782e-05
6.05667e-05
6.00988e-05
6.10622e-05
6.27866e-05
6.29198e-05
6.08871e-05
6.12079e-05
5.78598e-05
5.63235e-05
5.67138e-05
5.73323e-05
5.78591e-05
5.82168e-05
5.84206e-05
5.85115e-05
5.85061e-05
5.84514e-05
4.45049e-05
3.63139e-05
3.69988e-05
3.72913e-05
3.66838e-05
3.60374e-05
3.59344e-05
3.59046e-05
3.60118e-05
3.62479e-05
3.65864e-05
3.69931e-05
3.74401e-05
3.78978e-05
3.8346e-05
3.8768e-05
3.91497e-05
3.94858e-05
3.97715e-05
4.00035e-05
4.01808e-05
4.03026e-05
4.0346e-05
4.0348e-05
6.14764e-05
6.14519e-05
6.14269e-05
6.1401e-05
6.1374e-05
6.1346e-05
6.13166e-05
6.12852e-05
6.12514e-05
6.12157e-05
6.11756e-05
6.11978e-05
6.13365e-05
6.15547e-05
6.17666e-05
6.16495e-05
6.14019e-05
6.10442e-05
6.06629e-05
6.03008e-05
5.99849e-05
5.9725e-05
5.95118e-05
5.93229e-05
5.91201e-05
5.90209e-05
5.8889e-05
5.65372e-05
5.56546e-05
6.83546e-05
3.83871e-05
3.82688e-05
3.82473e-05
3.84388e-05
3.85186e-05
3.87561e-05
3.9107e-05
3.95203e-05
3.99564e-05
4.03865e-05
4.07901e-05
4.11555e-05
4.14773e-05
4.17552e-05
4.19917e-05
4.21882e-05
4.23467e-05
4.2469e-05
4.25489e-05
4.2584e-05
6.1469e-05
6.14362e-05
6.14037e-05
6.13716e-05
6.13394e-05
6.13075e-05
6.12754e-05
6.1244e-05
6.12127e-05
6.11822e-05
6.11526e-05
6.11324e-05
6.11347e-05
6.11585e-05
6.11858e-05
6.11884e-05
6.10898e-05
6.09765e-05
6.08491e-05
6.07181e-05
6.05906e-05
6.04708e-05
6.03574e-05
6.0256e-05
6.01752e-05
6.0005e-05
5.98156e-05
5.94054e-05
5.89692e-05
5.99468e-05
5.48864e-05
5.11991e-05
5.2538e-05
4.003e-05
4.00203e-05
4.02833e-05
4.06585e-05
4.10829e-05
4.15142e-05
4.19304e-05
4.23213e-05
4.26842e-05
4.30174e-05
4.33234e-05
4.36028e-05
4.38534e-05
4.40719e-05
4.42553e-05
4.44461e-05
4.45517e-05
6.14668e-05
6.14315e-05
6.1396e-05
6.13602e-05
6.13241e-05
6.12876e-05
6.12515e-05
6.12156e-05
6.11803e-05
6.11453e-05
6.11108e-05
6.10788e-05
6.10519e-05
6.10301e-05
6.10095e-05
6.09823e-05
6.0941e-05
6.08834e-05
6.08242e-05
6.07637e-05
6.07025e-05
6.06421e-05
6.05818e-05
6.05113e-05
6.04192e-05
6.0313e-05
6.01833e-05
5.99945e-05
5.97654e-05
5.96491e-05
5.79322e-05
5.57279e-05
5.43989e-05
4.99102e-05
4.44977e-05
4.11043e-05
4.15718e-05
4.20626e-05
4.25641e-05
4.30706e-05
4.35789e-05
4.40915e-05
4.46058e-05
4.5112e-05
4.55978e-05
4.60514e-05
4.64542e-05
4.67873e-05
4.70688e-05
4.7246e-05
6.14605e-05
6.14184e-05
6.13769e-05
6.13348e-05
6.12927e-05
6.12503e-05
6.12081e-05
6.11663e-05
6.11253e-05
6.10845e-05
6.10449e-05
6.10062e-05
6.09694e-05
6.09348e-05
6.09011e-05
6.08656e-05
6.08271e-05
6.07844e-05
6.07385e-05
6.06905e-05
6.06406e-05
6.059e-05
6.05386e-05
6.04856e-05
6.04275e-05
6.03587e-05
6.02716e-05
6.01538e-05
6.00054e-05
5.98001e-05
5.89501e-05
5.75707e-05
5.61263e-05
5.31899e-05
4.86648e-05
4.33635e-05
4.20062e-05
4.2607e-05
4.32296e-05
4.38871e-05
4.45735e-05
4.52844e-05
4.60047e-05
4.67123e-05
4.73837e-05
4.8e-05
4.85385e-05
4.89782e-05
4.92179e-05
4.94143e-05
6.14532e-05
6.14025e-05
6.13518e-05
6.13011e-05
6.12499e-05
6.11996e-05
6.11497e-05
6.11001e-05
6.10506e-05
6.10017e-05
6.09538e-05
6.09071e-05
6.08627e-05
6.08198e-05
6.0778e-05
6.07368e-05
6.0695e-05
6.06521e-05
6.06081e-05
6.05639e-05
6.05204e-05
6.04766e-05
6.04324e-05
6.03888e-05
6.03434e-05
6.02945e-05
6.02373e-05
6.01623e-05
6.00606e-05
5.98878e-05
5.93705e-05
5.84349e-05
5.71745e-05
5.49033e-05
5.11268e-05
4.61118e-05
4.27914e-05
4.28633e-05
4.361e-05
4.44162e-05
4.52614e-05
4.61093e-05
4.69156e-05
4.76477e-05
4.82834e-05
4.88154e-05
4.9245e-05
4.95922e-05
4.96813e-05
4.98944e-05
6.14388e-05
6.13732e-05
6.13076e-05
6.12428e-05
6.11779e-05
6.1114e-05
6.10506e-05
6.0989e-05
6.09284e-05
6.08694e-05
6.08121e-05
6.07556e-05
6.07015e-05
6.06506e-05
6.0601e-05
6.05535e-05
6.05085e-05
6.04654e-05
6.04238e-05
6.03829e-05
6.03435e-05
6.03067e-05
6.02723e-05
6.02405e-05
6.02106e-05
6.01802e-05
6.01442e-05
6.00978e-05
6.00305e-05
5.99004e-05
5.95461e-05
5.88635e-05
5.77986e-05
5.59217e-05
5.2719e-05
4.82296e-05
4.42393e-05
4.29471e-05
4.38141e-05
4.47613e-05
4.57147e-05
4.66207e-05
4.74027e-05
4.80104e-05
4.84131e-05
4.85962e-05
4.85791e-05
4.84375e-05
4.84976e-05
4.89631e-05
6.14142e-05
6.13196e-05
6.12263e-05
6.11356e-05
6.10482e-05
6.09617e-05
6.0878e-05
6.07955e-05
6.07149e-05
6.06369e-05
6.05621e-05
6.04935e-05
6.04292e-05
6.037e-05
6.03157e-05
6.02687e-05
6.02273e-05
6.01871e-05
6.01518e-05
6.01226e-05
6.00977e-05
6.00784e-05
6.00639e-05
6.00514e-05
6.00407e-05
6.00306e-05
6.00174e-05
5.99963e-05
5.99573e-05
5.98628e-05
5.96009e-05
5.90713e-05
5.81656e-05
5.65619e-05
5.38192e-05
4.98903e-05
4.58885e-05
4.35755e-05
4.35439e-05
4.45215e-05
4.5719e-05
4.68791e-05
4.75181e-05
4.79753e-05
4.84349e-05
4.92475e-05
5.00363e-05
4.37982e-05
4.62606e-05
4.74742e-05
6.13471e-05
6.11778e-05
6.10201e-05
6.08745e-05
6.07424e-05
6.0614e-05
6.04936e-05
6.03807e-05
6.0271e-05
6.01704e-05
6.00775e-05
5.99951e-05
5.99293e-05
5.9879e-05
5.9836e-05
5.98033e-05
5.97827e-05
5.97694e-05
5.97645e-05
5.97712e-05
5.97836e-05
5.97984e-05
5.98154e-05
5.9835e-05
5.98542e-05
5.98693e-05
5.98785e-05
5.98792e-05
5.98617e-05
5.97933e-05
5.95872e-05
5.91547e-05
5.83701e-05
5.69737e-05
5.46153e-05
5.12376e-05
4.75645e-05
4.48281e-05
4.37873e-05
4.40383e-05
4.49359e-05
4.60151e-05
4.68024e-05
4.72429e-05
4.73603e-05
4.71178e-05
4.59672e-05
4.45874e-05
4.53256e-05
4.67915e-05
6.07539e-05
6.05191e-05
6.02407e-05
6.00357e-05
5.98681e-05
5.97172e-05
5.95756e-05
5.94501e-05
5.93236e-05
5.92382e-05
5.91879e-05
5.91486e-05
5.91271e-05
5.91339e-05
5.91504e-05
5.91827e-05
5.92244e-05
5.92853e-05
5.93554e-05
5.94195e-05
5.94817e-05
5.95501e-05
5.96035e-05
5.96502e-05
5.9687e-05
5.97184e-05
5.97432e-05
5.97597e-05
5.97579e-05
5.97062e-05
5.95314e-05
5.91561e-05
5.84605e-05
5.72308e-05
5.52037e-05
5.23502e-05
4.91718e-05
4.64945e-05
4.49071e-05
4.4364e-05
4.45275e-05
4.50362e-05
4.55438e-05
4.58686e-05
4.59505e-05
4.57987e-05
4.54199e-05
4.55959e-05
4.64033e-05
4.75613e-05
5.97018e-05
5.9483e-05
5.92614e-05
5.91016e-05
5.89818e-05
5.88924e-05
5.88287e-05
5.87872e-05
5.87627e-05
5.87555e-05
5.87591e-05
5.8773e-05
5.87976e-05
5.88302e-05
5.8871e-05
5.89228e-05
5.89797e-05
5.9045e-05
5.91189e-05
5.91928e-05
5.92654e-05
5.93396e-05
5.94077e-05
5.94692e-05
5.95219e-05
5.95688e-05
5.96093e-05
5.96365e-05
5.96439e-05
5.96076e-05
5.9439e-05
5.90959e-05
5.84628e-05
5.73696e-05
5.56339e-05
5.32694e-05
5.06439e-05
4.8306e-05
4.66508e-05
4.57242e-05
4.53667e-05
4.53667e-05
4.55243e-05
4.57126e-05
4.58894e-05
4.60811e-05
4.63396e-05
4.697e-05
4.78983e-05
4.89382e-05
5.87602e-05
5.86683e-05
5.85866e-05
5.8531e-05
5.84979e-05
5.84792e-05
5.84716e-05
5.84743e-05
5.84849e-05
5.85032e-05
5.85301e-05
5.85612e-05
5.85974e-05
5.86383e-05
5.86852e-05
5.87412e-05
5.88024e-05
5.88677e-05
5.89397e-05
5.90145e-05
5.90901e-05
5.91679e-05
5.92406e-05
5.93079e-05
5.93708e-05
5.94266e-05
5.9473e-05
5.9504e-05
5.95091e-05
5.9463e-05
5.93075e-05
5.90194e-05
5.83858e-05
5.74073e-05
5.59307e-05
5.40136e-05
5.19363e-05
5.00594e-05
4.8631e-05
4.77021e-05
4.71984e-05
4.70079e-05
4.70289e-05
4.71949e-05
4.74769e-05
4.78725e-05
4.84064e-05
4.90971e-05
4.98975e-05
5.07067e-05
5.82374e-05
5.82269e-05
5.82217e-05
5.8224e-05
5.82334e-05
5.825e-05
5.82709e-05
5.82962e-05
5.83274e-05
5.83607e-05
5.83987e-05
5.84397e-05
5.84858e-05
5.85366e-05
5.85902e-05
5.86483e-05
5.87109e-05
5.87751e-05
5.88421e-05
5.89119e-05
5.89809e-05
5.90497e-05
5.9117e-05
5.91807e-05
5.92393e-05
5.92895e-05
5.93274e-05
5.93475e-05
5.93368e-05
5.92749e-05
5.91209e-05
5.88401e-05
5.83245e-05
5.7344e-05
5.61079e-05
5.45954e-05
5.30263e-05
5.16298e-05
5.05495e-05
4.98181e-05
4.93988e-05
4.92328e-05
4.92655e-05
4.94558e-05
4.97742e-05
5.01963e-05
5.07115e-05
5.12749e-05
5.18597e-05
5.24168e-05
5.80501e-05
5.80731e-05
5.80988e-05
5.81264e-05
5.81561e-05
5.81884e-05
5.82234e-05
5.826e-05
5.82984e-05
5.83375e-05
5.8379e-05
5.84224e-05
5.84686e-05
5.85173e-05
5.85672e-05
5.86183e-05
5.86717e-05
5.87263e-05
5.87817e-05
5.88368e-05
5.88921e-05
5.89469e-05
5.89987e-05
5.90468e-05
5.90883e-05
5.91204e-05
5.91401e-05
5.91394e-05
5.91062e-05
5.90246e-05
5.88627e-05
5.85869e-05
5.81183e-05
5.73165e-05
5.61687e-05
5.50248e-05
5.391e-05
5.29562e-05
5.22339e-05
5.17539e-05
5.1494e-05
5.14199e-05
5.14966e-05
5.16911e-05
5.19755e-05
5.23221e-05
5.2709e-05
5.30977e-05
5.34734e-05
5.38153e-05
5.80248e-05
5.80552e-05
5.80854e-05
5.81156e-05
5.81467e-05
5.81783e-05
5.82103e-05
5.82433e-05
5.82768e-05
5.83109e-05
5.8346e-05
5.83819e-05
5.84182e-05
5.84548e-05
5.84933e-05
5.85328e-05
5.85721e-05
5.86118e-05
5.86523e-05
5.86921e-05
5.87303e-05
5.87671e-05
5.88009e-05
5.88303e-05
5.88522e-05
5.88629e-05
5.88597e-05
5.88359e-05
5.878e-05
5.86788e-05
5.85102e-05
5.82463e-05
5.7833e-05
5.71812e-05
5.61859e-05
5.53218e-05
5.45967e-05
5.40168e-05
5.36028e-05
5.33495e-05
5.32382e-05
5.32441e-05
5.33424e-05
5.35087e-05
5.37215e-05
5.39597e-05
5.42053e-05
5.44372e-05
5.46524e-05
5.48451e-05
5.7977e-05
5.79944e-05
5.80114e-05
5.80282e-05
5.80451e-05
5.80624e-05
5.80801e-05
5.80985e-05
5.81171e-05
5.81366e-05
5.81566e-05
5.81773e-05
5.81998e-05
5.82229e-05
5.8246e-05
5.82699e-05
5.8295e-05
5.83206e-05
5.83454e-05
5.83694e-05
5.83927e-05
5.8414e-05
5.84301e-05
5.84406e-05
5.8444e-05
5.84355e-05
5.84118e-05
5.83672e-05
5.82937e-05
5.8182e-05
5.80168e-05
5.77768e-05
5.74293e-05
5.6919e-05
5.61408e-05
5.54717e-05
5.50816e-05
5.48019e-05
5.46248e-05
5.454e-05
5.45315e-05
5.45803e-05
5.46718e-05
5.4791e-05
5.49242e-05
5.50596e-05
5.52173e-05
5.54275e-05
5.5679e-05
5.59529e-05
7.85265e-05
7.79472e-05
7.73721e-05
7.67864e-05
7.61878e-05
7.55751e-05
7.49475e-05
7.4306e-05
7.36521e-05
7.29878e-05
7.2314e-05
7.1631e-05
7.09415e-05
7.02467e-05
6.9548e-05
6.88465e-05
6.81445e-05
6.74446e-05
6.67489e-05
6.60598e-05
6.53795e-05
6.47119e-05
6.40591e-05
6.34219e-05
6.28019e-05
6.2198e-05
6.16082e-05
6.10301e-05
6.04591e-05
5.98887e-05
5.93114e-05
5.87188e-05
5.81033e-05
5.74566e-05
5.67552e-05
5.62778e-05
5.64196e-05
5.67403e-05
5.71657e-05
5.76641e-05
5.82217e-05
5.88306e-05
5.94887e-05
6.0196e-05
6.09536e-05
6.17627e-05
6.25944e-05
6.34064e-05
6.42015e-05
6.49828e-05
5.47917e-06
5.59002e-06
5.81631e-06
5.71086e-06
5.49504e-06
5.36249e-06
5.32709e-06
5.32845e-06
5.32357e-06
5.30444e-06
5.27909e-06
5.2539e-06
5.22958e-06
5.20449e-06
5.17772e-06
5.14969e-06
5.12142e-06
5.09388e-06
5.06779e-06
5.04361e-06
5.02473e-06
4.98767e-06
4.96905e-06
4.94746e-06
4.92606e-06
4.92702e-06
4.8991e-06
4.87288e-06
4.84768e-06
4.8227e-06
4.79659e-06
4.76848e-06
4.73866e-06
4.70796e-06
4.67768e-06
4.6494e-06
4.62471e-06
4.60487e-06
4.59065e-06
4.58186e-06
4.57674e-06
4.57512e-06
4.57628e-06
4.57934e-06
4.58256e-06
4.58385e-06
4.57866e-06
4.5641e-06
4.53304e-06
4.47718e-06
5.30347e-06
4.71662e-06
4.67774e-06
4.79546e-06
4.85074e-06
4.80876e-06
4.72201e-06
4.63711e-06
4.56541e-06
4.49928e-06
4.43075e-06
4.35798e-06
4.28302e-06
4.2085e-06
4.13627e-06
4.06756e-06
4.00329e-06
3.9442e-06
3.8916e-06
3.84395e-06
3.79075e-06
1.61397e-05
1.61837e-05
3.72206e-06
3.65213e-06
1.57662e-05
1.5885e-05
1.59892e-05
1.6056e-05
1.60725e-05
1.60391e-05
1.59636e-05
1.58576e-05
1.57369e-05
1.56165e-05
1.55091e-05
1.54241e-05
1.53675e-05
1.53419e-05
1.53485e-05
1.53895e-05
1.54521e-05
1.55198e-05
1.55733e-05
1.55958e-05
1.5581e-05
1.55536e-05
1.55515e-05
1.56015e-05
1.56376e-05
5.58417e-06
5.29729e-06
5.03414e-06
4.92016e-06
4.86702e-06
4.80942e-06
4.73247e-06
4.64714e-06
4.56317e-06
4.48211e-06
4.40176e-06
4.32061e-06
4.23893e-06
4.15799e-06
4.07913e-06
4.00345e-06
3.93178e-06
3.86516e-06
3.78242e-06
1.6038e-05
1.58046e-05
1.56767e-05
1.55942e-05
1.55228e-05
1.54527e-05
1.53784e-05
1.53006e-05
1.52117e-05
1.51096e-05
1.49928e-05
1.48609e-05
1.4716e-05
1.45623e-05
1.44056e-05
1.4253e-05
1.41111e-05
1.39861e-05
1.38824e-05
1.38022e-05
1.37454e-05
1.37098e-05
1.3691e-05
1.36824e-05
1.3675e-05
1.36556e-05
1.36038e-05
1.35002e-05
1.33515e-05
1.32488e-05
1.33765e-05
5.45072e-06
5.38109e-06
5.18885e-06
5.02689e-06
4.91501e-06
4.82935e-06
4.74804e-06
4.66415e-06
4.57918e-06
4.495e-06
4.41167e-06
4.32864e-06
4.24582e-06
4.16393e-06
4.08406e-06
4.0073e-06
3.93453e-06
3.86686e-06
3.78402e-06
1.60313e-05
1.57955e-05
1.56581e-05
1.55658e-05
1.54902e-05
1.5416e-05
1.53346e-05
1.52415e-05
1.51348e-05
1.50133e-05
1.48771e-05
1.47276e-05
1.45673e-05
1.44001e-05
1.42312e-05
1.40665e-05
1.39118e-05
1.37726e-05
1.3653e-05
1.35552e-05
1.34791e-05
1.34224e-05
1.33802e-05
1.33467e-05
1.33178e-05
1.32909e-05
1.32585e-05
1.31931e-05
1.30479e-05
1.28234e-05
1.27414e-05
5.36708e-06
5.29185e-06
5.17879e-06
5.04713e-06
4.92928e-06
4.83109e-06
4.74428e-06
4.66075e-06
4.57725e-06
4.49354e-06
4.40993e-06
4.32663e-06
4.2439e-06
4.16237e-06
4.08299e-06
4.00673e-06
3.93446e-06
3.86672e-06
3.80214e-06
1.59422e-05
1.58224e-05
1.57168e-05
1.56218e-05
1.55319e-05
1.54415e-05
1.53459e-05
1.52415e-05
1.51259e-05
1.49978e-05
1.4857e-05
1.47045e-05
1.45426e-05
1.43751e-05
1.42067e-05
1.40429e-05
1.38892e-05
1.37506e-05
1.36309e-05
1.35323e-05
1.34547e-05
1.33958e-05
1.335e-05
1.33088e-05
1.32631e-05
1.32102e-05
1.31583e-05
1.31137e-05
1.3042e-05
1.28661e-05
1.27127e-05
5.37363e-06
5.23961e-06
5.13905e-06
5.03425e-06
4.92939e-06
4.83208e-06
4.74305e-06
4.65878e-06
4.57597e-06
4.49315e-06
4.41009e-06
4.3271e-06
4.24472e-06
4.1637e-06
4.08494e-06
4.00938e-06
3.9378e-06
3.87066e-06
3.80677e-06
1.59785e-05
1.58608e-05
1.57555e-05
1.56586e-05
1.5565e-05
1.54695e-05
1.5368e-05
1.52574e-05
1.51358e-05
1.50023e-05
1.48571e-05
1.47017e-05
1.45384e-05
1.43708e-05
1.42037e-05
1.40419e-05
1.38906e-05
1.37542e-05
1.36361e-05
1.35382e-05
1.34605e-05
1.34016e-05
1.33577e-05
1.33215e-05
1.3281e-05
1.32226e-05
1.3144e-05
1.30652e-05
1.29984e-05
1.28744e-05
1.27267e-05
5.40141e-06
5.2429e-06
5.12559e-06
5.02386e-06
4.92645e-06
4.83273e-06
4.74358e-06
4.65817e-06
4.5747e-06
4.4917e-06
4.40863e-06
4.32568e-06
4.24341e-06
4.16267e-06
4.08437e-06
4.0094e-06
3.93844e-06
3.87189e-06
3.80837e-06
1.59929e-05
1.58764e-05
1.577e-05
1.56704e-05
1.55727e-05
1.54723e-05
1.53653e-05
1.5249e-05
1.51221e-05
1.49843e-05
1.48364e-05
1.468e-05
1.45177e-05
1.43529e-05
1.41898e-05
1.40327e-05
1.38862e-05
1.37541e-05
1.36396e-05
1.35439e-05
1.34665e-05
1.34053e-05
1.33574e-05
1.33192e-05
1.3284e-05
1.32381e-05
1.31648e-05
1.30675e-05
1.29768e-05
1.28649e-05
1.27298e-05
5.41227e-06
5.26081e-06
5.13239e-06
5.02427e-06
4.92644e-06
4.83398e-06
4.74519e-06
4.65918e-06
4.57491e-06
4.49138e-06
4.4081e-06
4.32512e-06
4.24302e-06
4.16262e-06
4.08483e-06
4.01048e-06
3.94016e-06
3.87428e-06
3.8076e-06
1.60397e-05
1.5913e-05
1.57843e-05
1.56638e-05
1.55494e-05
1.54362e-05
1.53195e-05
1.51964e-05
1.50652e-05
1.49257e-05
1.47786e-05
1.46257e-05
1.44693e-05
1.43122e-05
1.4158e-05
1.40101e-05
1.38723e-05
1.37479e-05
1.36394e-05
1.35483e-05
1.34741e-05
1.3414e-05
1.33634e-05
1.33182e-05
1.32758e-05
1.32311e-05
1.31687e-05
1.30754e-05
1.29713e-05
1.28554e-05
1.27246e-05
5.4091e-06
5.26925e-06
5.1411e-06
5.02907e-06
4.92859e-06
4.83531e-06
4.74629e-06
4.65985e-06
4.57493e-06
4.49083e-06
4.40718e-06
4.32412e-06
4.24217e-06
4.16214e-06
4.08489e-06
4.01117e-06
3.94149e-06
3.87602e-06
3.81465e-06
1.60277e-05
1.59143e-05
1.5803e-05
1.56914e-05
1.55772e-05
1.54583e-05
1.53334e-05
1.52018e-05
1.50634e-05
1.4919e-05
1.47697e-05
1.46172e-05
1.44635e-05
1.4311e-05
1.41624e-05
1.40203e-05
1.38876e-05
1.37669e-05
1.36602e-05
1.35689e-05
1.34932e-05
1.34315e-05
1.3379e-05
1.33291e-05
1.32774e-05
1.32231e-05
1.316e-05
1.30725e-05
1.2966e-05
1.28461e-05
1.27151e-05
5.4047e-06
5.26897e-06
5.14478e-06
5.03289e-06
4.93107e-06
4.83665e-06
4.74696e-06
4.66004e-06
4.57465e-06
4.49011e-06
4.40621e-06
4.32315e-06
4.24147e-06
4.16193e-06
4.08535e-06
4.01238e-06
3.94341e-06
3.87849e-06
3.81637e-06
3.67911e-06
1.5581e-05
1.55836e-05
1.55471e-05
1.54812e-05
1.53924e-05
1.52855e-05
1.51644e-05
1.50325e-05
1.48929e-05
1.47484e-05
1.46017e-05
1.44551e-05
1.43109e-05
1.41709e-05
1.40373e-05
1.39121e-05
1.37969e-05
1.36933e-05
1.36021e-05
1.35236e-05
1.34573e-05
1.34005e-05
1.33471e-05
1.32901e-05
1.32265e-05
1.31556e-05
1.30679e-05
1.29612e-05
1.28394e-05
1.2707e-05
5.40398e-06
5.26757e-06
5.14561e-06
5.03503e-06
4.93316e-06
4.83805e-06
4.74764e-06
4.6601e-06
4.57421e-06
4.48928e-06
4.40517e-06
4.32216e-06
4.24079e-06
4.1618e-06
4.08593e-06
4.01373e-06
3.94547e-06
3.88107e-06
3.82098e-06
1.61864e-05
1.59135e-05
1.57329e-05
1.55967e-05
1.54783e-05
1.53632e-05
1.5244e-05
1.51182e-05
1.4986e-05
1.48489e-05
1.47092e-05
1.45692e-05
1.44308e-05
1.42959e-05
1.41656e-05
1.40412e-05
1.39239e-05
1.38147e-05
1.37148e-05
1.36246e-05
1.3544e-05
1.34727e-05
1.34095e-05
1.33507e-05
1.32898e-05
1.3221e-05
1.31433e-05
1.30523e-05
1.29451e-05
1.28231e-05
1.26905e-05
5.40537e-06
5.26835e-06
5.1467e-06
5.03672e-06
4.93501e-06
4.8395e-06
4.74842e-06
4.66023e-06
4.57377e-06
4.48846e-06
4.40417e-06
4.32123e-06
4.24021e-06
4.1618e-06
4.08664e-06
4.01519e-06
3.94758e-06
3.88359e-06
3.82277e-06
1.6118e-05
1.59801e-05
1.58257e-05
1.56726e-05
1.55242e-05
1.53793e-05
1.52359e-05
1.50926e-05
1.49494e-05
1.48073e-05
1.46675e-05
1.45315e-05
1.44003e-05
1.42744e-05
1.41541e-05
1.40393e-05
1.393e-05
1.38268e-05
1.37301e-05
1.36406e-05
1.35583e-05
1.34826e-05
1.34124e-05
1.3346e-05
1.32792e-05
1.32058e-05
1.31228e-05
1.30279e-05
1.29191e-05
1.27969e-05
1.26648e-05
5.40664e-06
5.27052e-06
5.14879e-06
5.03873e-06
4.93687e-06
4.84098e-06
4.74932e-06
4.66047e-06
4.57346e-06
4.48778e-06
4.40337e-06
4.32057e-06
4.23996e-06
4.16218e-06
4.08777e-06
4.01706e-06
3.95004e-06
3.88639e-06
3.82443e-06
3.68939e-06
1.56455e-05
1.56337e-05
1.55677e-05
1.54659e-05
1.53415e-05
1.52035e-05
1.50588e-05
1.49124e-05
1.47681e-05
1.4629e-05
1.44966e-05
1.43718e-05
1.42544e-05
1.41434e-05
1.40378e-05
1.39366e-05
1.38389e-05
1.3745e-05
1.36554e-05
1.35706e-05
1.34902e-05
1.34134e-05
1.3339e-05
1.32645e-05
1.31853e-05
1.30975e-05
1.29988e-05
1.28879e-05
1.27653e-05
1.26337e-05
5.40721e-06
5.27266e-06
5.15124e-06
5.04097e-06
4.93873e-06
4.84233e-06
4.75004e-06
4.66053e-06
4.57295e-06
4.48688e-06
4.40233e-06
4.31966e-06
4.23943e-06
4.16222e-06
4.08847e-06
4.01836e-06
3.95179e-06
3.88832e-06
3.82617e-06
3.69031e-06
1.56418e-05
1.56235e-05
1.55538e-05
1.54489e-05
1.53213e-05
1.51805e-05
1.50336e-05
1.48865e-05
1.47435e-05
1.46076e-05
1.44806e-05
1.43627e-05
1.42532e-05
1.41503e-05
1.40522e-05
1.39569e-05
1.38631e-05
1.37702e-05
1.36787e-05
1.35895e-05
1.35032e-05
1.34193e-05
1.33368e-05
1.32541e-05
1.31681e-05
1.30752e-05
1.2973e-05
1.286e-05
1.27368e-05
1.26056e-05
5.4075e-06
5.27433e-06
5.15349e-06
5.04316e-06
4.94056e-06
4.84368e-06
4.75084e-06
4.66081e-06
4.57282e-06
4.48653e-06
4.40202e-06
4.31965e-06
4.23993e-06
4.16337e-06
4.0903e-06
4.0208e-06
3.95462e-06
3.89123e-06
3.83074e-06
1.62641e-05
1.59836e-05
1.5778e-05
1.56056e-05
1.54469e-05
1.52932e-05
1.5142e-05
1.49937e-05
1.48504e-05
1.47144e-05
1.45876e-05
1.44708e-05
1.43637e-05
1.42647e-05
1.41713e-05
1.4081e-05
1.39913e-05
1.39003e-05
1.38075e-05
1.37132e-05
1.36185e-05
1.35248e-05
1.34327e-05
1.33416e-05
1.32506e-05
1.31573e-05
1.30589e-05
1.2953e-05
1.28381e-05
1.27144e-05
1.2584e-05
5.40784e-06
5.27563e-06
5.15525e-06
5.04478e-06
4.94169e-06
4.84412e-06
4.75054e-06
4.65981e-06
4.57124e-06
4.48457e-06
4.39993e-06
4.31768e-06
4.23829e-06
4.16219e-06
4.08961e-06
4.02051e-06
3.95454e-06
3.8911e-06
3.8294e-06
1.61631e-05
1.60174e-05
1.58448e-05
1.56652e-05
1.54863e-05
1.53112e-05
1.5142e-05
1.49807e-05
1.48295e-05
1.46902e-05
1.4564e-05
1.44507e-05
1.43491e-05
1.42568e-05
1.41704e-05
1.40863e-05
1.40016e-05
1.3914e-05
1.38226e-05
1.37276e-05
1.36304e-05
1.35327e-05
1.34358e-05
1.334e-05
1.32446e-05
1.31479e-05
1.30476e-05
1.29415e-05
1.28281e-05
1.27076e-05
1.25816e-05
5.40828e-06
5.27685e-06
5.15695e-06
5.04667e-06
4.94349e-06
4.84566e-06
4.75174e-06
4.66069e-06
4.5719e-06
4.48518e-06
4.40068e-06
4.31874e-06
4.23979e-06
4.16417e-06
4.09201e-06
4.02318e-06
3.95726e-06
3.89355e-06
3.8301e-06
3.7052e-06
1.56727e-05
1.562e-05
1.55171e-05
1.53865e-05
1.52418e-05
1.50921e-05
1.49444e-05
1.48039e-05
1.4674e-05
1.45566e-05
1.44521e-05
1.43593e-05
1.42755e-05
1.41971e-05
1.41204e-05
1.4042e-05
1.39595e-05
1.3872e-05
1.37799e-05
1.36848e-05
1.35886e-05
1.34932e-05
1.33993e-05
1.33066e-05
1.3214e-05
1.31193e-05
1.30207e-05
1.29168e-05
1.28078e-05
1.26956e-05
5.4087e-06
5.27702e-06
5.15636e-06
5.04511e-06
4.94087e-06
4.84202e-06
4.74724e-06
4.65554e-06
4.56638e-06
4.47957e-06
4.39525e-06
4.31373e-06
4.23538e-06
4.16045e-06
4.08899e-06
4.02083e-06
3.95548e-06
3.89223e-06
3.82912e-06
3.70427e-06
1.56619e-05
1.56102e-05
1.55062e-05
1.53743e-05
1.52304e-05
1.50849e-05
1.49517e-05
1.48355e-05
1.47333e-05
1.46441e-05
1.4567e-05
1.45005e-05
1.44423e-05
1.43892e-05
1.43373e-05
1.42835e-05
1.42253e-05
1.41619e-05
1.40936e-05
1.4022e-05
1.39491e-05
1.38769e-05
1.38065e-05
1.37378e-05
1.36698e-05
1.36006e-05
1.35284e-05
1.34523e-05
1.33727e-05
1.32925e-05
5.40941e-06
5.2793e-06
5.16059e-06
5.05128e-06
4.94842e-06
4.85209e-06
4.76114e-06
4.67433e-06
4.59084e-06
4.51024e-06
4.43248e-06
4.35776e-06
4.28638e-06
4.21865e-06
4.15469e-06
4.09437e-06
4.03725e-06
3.98256e-06
3.92936e-06
3.87524e-06
3.82394e-06
1.62503e-05
1.6161e-05
1.59973e-05
1.58084e-05
1.56205e-05
1.54528e-05
1.54199e-05
1.54446e-05
1.54915e-05
1.55453e-05
1.56002e-05
1.56532e-05
1.57014e-05
1.57415e-05
1.57704e-05
1.57855e-05
1.5786e-05
1.57728e-05
1.57487e-05
1.57171e-05
1.56818e-05
1.56455e-05
1.56096e-05
1.55738e-05
1.55364e-05
1.54954e-05
1.54497e-05
1.54e-05
1.53506e-05
5.47891e-06
5.45128e-06
5.42707e-06
5.40523e-06
5.38552e-06
5.36557e-06
5.3447e-06
5.32289e-06
5.30037e-06
5.27748e-06
5.25464e-06
5.23219e-06
5.21037e-06
5.18928e-06
5.16881e-06
5.14871e-06
5.12858e-06
5.10796e-06
5.0864e-06
5.06356e-06
5.0394e-06
5.02571e-06
5.00651e-06
4.98274e-06
4.956e-06
4.92815e-06
4.88036e-06
4.84145e-06
4.80999e-06
4.78443e-06
4.76315e-06
4.74451e-06
4.72715e-06
4.70989e-06
4.69194e-06
4.67289e-06
4.65277e-06
4.63188e-06
4.61083e-06
4.59028e-06
4.57076e-06
4.55259e-06
4.53575e-06
4.51988e-06
4.50441e-06
4.4886e-06
4.47176e-06
4.45341e-06
4.43337e-06
4.41163e-06
1.41395e-05
8.55391e-06
5.81472e-06
4.49011e-06
3.89651e-06
3.63141e-06
3.49032e-06
3.39801e-06
3.32112e-06
3.25002e-06
3.18017e-06
3.11218e-06
3.04696e-06
2.98902e-06
2.95156e-06
2.95403e-06
3.03055e-06
3.18339e-06
3.36007e-06
3.40073e-06
1.4399e-05
8.70822e-06
5.85749e-06
4.52485e-06
3.92959e-06
3.66268e-06
3.51968e-06
3.42529e-06
3.34684e-06
3.27474e-06
3.20453e-06
3.13643e-06
3.07145e-06
3.01404e-06
2.97796e-06
2.9836e-06
3.06597e-06
3.22726e-06
3.41081e-06
3.4456e-06
1.51935e-05
8.80989e-06
5.88802e-06
4.5571e-06
3.96136e-06
3.69187e-06
3.54575e-06
3.4483e-06
3.36752e-06
3.29391e-06
3.22292e-06
3.15474e-06
3.09055e-06
3.03492e-06
3.00202e-06
3.01281e-06
3.10337e-06
3.27503e-06
3.46698e-06
3.49698e-06
1.53799e-05
8.85018e-06
5.93334e-06
4.59425e-06
3.99504e-06
3.72364e-06
3.57636e-06
3.47784e-06
3.39611e-06
3.32202e-06
3.25089e-06
3.18302e-06
3.11966e-06
3.06575e-06
3.03564e-06
3.05076e-06
3.14803e-06
3.32814e-06
3.52689e-06
3.55233e-06
1.56383e-05
8.87823e-06
5.98589e-06
4.63634e-06
4.034e-06
3.76258e-06
3.61605e-06
3.51812e-06
3.43632e-06
3.36186e-06
3.29024e-06
3.22183e-06
3.15846e-06
3.10555e-06
3.0777e-06
3.09674e-06
3.19999e-06
3.38749e-06
3.59151e-06
3.60939e-06
1.58896e-05
8.87776e-06
6.03562e-06
4.68137e-06
4.07861e-06
3.80944e-06
3.66549e-06
3.56932e-06
3.48806e-06
3.41289e-06
3.33981e-06
3.26961e-06
3.20488e-06
3.15149e-06
3.12433e-06
3.14612e-06
3.25449e-06
3.44913e-06
3.65849e-06
3.66678e-06
3.80213e-06
8.81627e-06
6.07525e-06
4.72623e-06
4.12626e-06
3.86108e-06
3.72074e-06
3.62662e-06
3.54562e-06
3.46892e-06
3.39335e-06
3.32061e-06
3.25392e-06
3.19945e-06
3.17208e-06
3.19545e-06
3.308e-06
3.50942e-06
3.72463e-06
3.72316e-06
3.77003e-06
8.82739e-06
6.10896e-06
4.76804e-06
4.17239e-06
3.91154e-06
3.77464e-06
3.68183e-06
3.60006e-06
3.52086e-06
3.44215e-06
3.36671e-06
3.29832e-06
3.24325e-06
3.21637e-06
3.24172e-06
3.35843e-06
3.56643e-06
3.78773e-06
3.77752e-06
3.75241e-06
8.83414e-06
6.14083e-06
4.80485e-06
4.2128e-06
3.95521e-06
3.82032e-06
3.72738e-06
3.6438e-06
3.56195e-06
3.48084e-06
3.40384e-06
3.33496e-06
3.28044e-06
3.25526e-06
3.28368e-06
3.40509e-06
3.61938e-06
3.84639e-06
3.82883e-06
3.73681e-06
8.83718e-06
6.1685e-06
4.83581e-06
4.24567e-06
3.98946e-06
3.85469e-06
3.76024e-06
3.67441e-06
3.5908e-06
3.50919e-06
3.43285e-06
3.36557e-06
3.31308e-06
3.29055e-06
3.32234e-06
3.44818e-06
3.66773e-06
3.89897e-06
3.87564e-06
3.72149e-06
8.84564e-06
6.19455e-06
4.86304e-06
4.27301e-06
4.01625e-06
3.88e-06
3.78356e-06
3.69622e-06
3.61264e-06
3.53271e-06
3.45902e-06
3.39493e-06
3.3453e-06
3.32515e-06
3.35912e-06
3.48757e-06
3.71011e-06
3.94316e-06
3.91652e-06
3.70901e-06
8.87493e-06
6.22486e-06
4.8912e-06
4.29945e-06
4.04085e-06
3.90241e-06
3.80461e-06
3.71739e-06
3.6358e-06
3.55914e-06
3.48894e-06
3.42795e-06
3.38011e-06
3.36037e-06
3.39384e-06
3.52192e-06
3.74447e-06
3.97691e-06
3.95142e-06
3.70345e-06
8.9325e-06
6.26402e-06
4.92464e-06
4.32982e-06
4.06885e-06
3.92866e-06
3.83089e-06
3.74551e-06
3.66707e-06
3.59397e-06
3.52646e-06
3.4665e-06
3.41759e-06
3.39492e-06
3.42464e-06
3.54945e-06
3.76974e-06
4.00048e-06
3.98287e-06
3.70786e-06
9.01242e-06
6.31209e-06
4.96438e-06
4.36615e-06
4.10339e-06
3.96274e-06
3.86628e-06
3.78366e-06
3.70831e-06
3.63753e-06
3.57039e-06
3.50833e-06
3.455e-06
3.42632e-06
3.44993e-06
3.57024e-06
3.78811e-06
4.01828e-06
4.01595e-06
3.72196e-06
9.09764e-06
6.36305e-06
5.00717e-06
4.40643e-06
4.1431e-06
4.00341e-06
3.90914e-06
3.82919e-06
3.75577e-06
3.68512e-06
3.61564e-06
3.54885e-06
3.48907e-06
3.45333e-06
3.47096e-06
3.58809e-06
3.80585e-06
4.03868e-06
4.05672e-06
3.74175e-06
9.16435e-06
6.40747e-06
5.04693e-06
4.44576e-06
4.18334e-06
4.04558e-06
3.95367e-06
3.87552e-06
3.80238e-06
3.72993e-06
3.65665e-06
3.58456e-06
3.51892e-06
3.47798e-06
3.49257e-06
3.61002e-06
3.83165e-06
4.07122e-06
4.10949e-06
3.7605e-06
9.19618e-06
6.43822e-06
5.07853e-06
4.47932e-06
4.21908e-06
4.08354e-06
3.99337e-06
3.91587e-06
3.84186e-06
3.76716e-06
3.69084e-06
3.61555e-06
3.54738e-06
3.50541e-06
3.52141e-06
3.64333e-06
3.8728e-06
4.12236e-06
4.17442e-06
3.77191e-06
9.1935e-06
6.45476e-06
5.10096e-06
4.50551e-06
4.2479e-06
4.11408e-06
4.02463e-06
3.9469e-06
3.87204e-06
3.79649e-06
3.71991e-06
3.64538e-06
3.57938e-06
3.54102e-06
3.56232e-06
3.69167e-06
3.93127e-06
4.19193e-06
4.24679e-06
3.7736e-06
9.17513e-06
6.46433e-06
5.11847e-06
4.52692e-06
4.27123e-06
4.13787e-06
4.04811e-06
3.96992e-06
3.89542e-06
3.82164e-06
3.74844e-06
3.67877e-06
3.61884e-06
3.58701e-06
3.61528e-06
3.75249e-06
4.00188e-06
4.27213e-06
4.31838e-06
3.76834e-06
9.16838e-06
6.47751e-06
5.13778e-06
4.5485e-06
4.29299e-06
4.15848e-06
4.06765e-06
3.98958e-06
3.91727e-06
3.84788e-06
3.78088e-06
3.71848e-06
3.66592e-06
3.64058e-06
3.67447e-06
3.81722e-06
4.0735e-06
4.34993e-06
4.38108e-06
3.76242e-06
9.19398e-06
6.50246e-06
5.16407e-06
4.57431e-06
4.31695e-06
4.18006e-06
4.08807e-06
4.01119e-06
3.9427e-06
3.87922e-06
3.81921e-06
3.76366e-06
3.71666e-06
3.69472e-06
3.73037e-06
3.87462e-06
4.13377e-06
4.41284e-06
4.43065e-06
3.7623e-06
9.25514e-06
6.54067e-06
5.1983e-06
4.60549e-06
4.34487e-06
4.20545e-06
4.11315e-06
4.03862e-06
3.97468e-06
3.91688e-06
3.86228e-06
3.81048e-06
3.76474e-06
3.74148e-06
3.77433e-06
3.9162e-06
4.17495e-06
4.45463e-06
4.46863e-06
3.77093e-06
9.33647e-06
6.58651e-06
5.23695e-06
4.64018e-06
4.3765e-06
4.23581e-06
4.14468e-06
4.0734e-06
4.01363e-06
3.9596e-06
3.90693e-06
3.85422e-06
3.80475e-06
3.77572e-06
3.80243e-06
3.93984e-06
4.19711e-06
4.47782e-06
4.50147e-06
3.78633e-06
9.412e-06
6.63024e-06
5.27469e-06
4.67543e-06