/*--------------------------------*- C++ -*----------------------------------*\
  =========                 |
  \\      /  F ield         | OpenFOAM: The Open Source CFD Toolbox
   \\    /   O peration     | Website:  https://openfoam.org
    \\  /    A nd           | Version:  8
     \\/     M anipulation  |
\*---------------------------------------------------------------------------*/
FoamFile
{
    version     2.0;
    format      ascii;
    class       volScalarField;
    location    "800";
    object      p;
}
// * * * * * * * * * * * * * * * * * * * * * * * * * * * * * * * * * * * * * //

dimensions      [1 -1 -2 0 0 0 0];

internalField   nonuniform List<scalar> 
8400
(
28780.4
47547.8
64116.3
78498.4
91769.3
103656
112831
117807
117795
113033
104623
93818.9
81361.2
69125.5
62262.8
70326.3
106621
182141
295246
426430
549877
651317
727831
781990
817338
836784
844030
845374
846089
847630
849484
850844
851495
851425
850613
849052
846784
843915
840587
836953
833174
829408
825814
822549
819757
817561
816062
815351
815563
816771
28015
50255
68554.4
83557.5
97464
110196
120054
125068
124194
117873
107584
94537.4
78544.6
60107.4
43635.9
39151
64964.8
139517
262270
406251
537453
642632
721535
778085
815925
836836
842995
842948
844248
847294
850148
851524
852033
851918
851056
849384
846952
843895
840379
836574
832645
828754
825051
821684
818791
816492
814882
814034
814020
814877
34293.2
60112.4
74587
86649
99669.2
113107
124343
130614
130364
123925
112879
98057.5
78525.2
53870.6
27854.8
9796.81
27981
110561
253197
413057
547721
651531
728896
784595
822015
842468
845067
841358
842944
848552
852582
852911
853068
853164
852377
850546
847814
844406
840549
836444
832263
828161
824283
820764
817741
815346
813690
812845
812844
813669
18931.7
47111.1
67248.9
83066.2
98670.1
113604
125312
131250
130084
122528
111485
96204.7
74876.9
48801.4
21705.5
-2475.99
13643.2
124526
296279
455576
576076
665275
732632
783152
819279
842086
846698
842646
843065
851853
856175
853173
853431
854639
854036
851863
848573
844573
840176
835615
831063
826656
822513
818751
815506
812923
811131
810216
810206
811078
-19975.2
26039.8
61141.7
81923.1
97288
110241
120185
125646
125568
120295
111088
96919.9
77343.6
55081.5
34048.7
29936.6
86800.3
218661
374559
504674
598690
666805
719845
763158
797564
820408
830669
833743
846911
860993
857472
849272
853219
857572
856750
853830
849678
844894
839854
834790
829851
825136
820723
816711
813233
810453
808532
807569
807596
808578
2984.49
29696.1
57217.7
76014.4
89679.5
100954
109907
115909
118713
118779
116969
113887
110858
110860
119108
146352
207733
301527
403632
491513
559115
611781
656360
696480
733127
766406
793768
814262
834865
849106
846058
850369
860896
863354
859916
855687
850362
844663
838924
833329
827984
822937
818232
813945
810213
807229
805193
804226
804355
805537
1335.14
25788.7
51266
70998.3
86572.2
99768.3
110718
119252
125693
130856
135816
141720
149951
162467
182235
213440
259571
318265
381938
443101
497682
546219
591039
633547
674080
712271
745954
774184
799214
820173
832603
845208
857620
863590
862176
856656
850197
843708
837383
831373
825730
820456
815553
811072
807137
803965
801816
800846
801095
802521
8867.82
31620.4
55138.8
74176.8
89855.1
103437
115036
124761
133251
141460
150357
160849
173881
190625
212571
241263
277517
320156
366109
412646
457995
501108
541903
581028
618840
655278
689933
722523
753903
783997
809213
829433
845136
855559
857943
854520
848302
841532
834958
828813
823061
817708
812760
808204
804115
800737
798429
797426
797793
799501
12680.1
36184.4
58485.2
76796.8
92499.7
106511
118846
129701
139783
149994
161129
173834
188719
206458
227753
253145
282732
315876
351329
387797
424420
460704
496474
531934
567327
602803
638472
674520
711389
748335
781683
808635
828798
842557
848670
848277
844207
838143
831868
825988
820354
815109
810274
805723
801459
797781
795222
794143
794638
796679
17464
41583.8
63014.7
80792.3
96377.4
110474
123129
134628
145644
156928
169081
182549
197704
214907
234479
256598
281203
307985
336477
366224
396926
428449
460788
494038
528311
563723
600439
638690
678559
718889
756508
788397
812915
829650
838549
840984
838762
834058
828633
823032
817610
812499
807648
802929
798457
794629
792153
791329
792073
794473
20525.5
45852.4
66731
84160.4
99603
113627
126436
138401
150061
161937
174437
187871
202510
218598
236329
255792
276961
299728
323972
349626
376718
405349
435653
467752
501716
537580
575361
615050
656382
698144
737794
772524
800073
819455
830825
835197
834254
830617
825806
820576
815441
810507
805655
800948
796770
793511
791687
790861
791413
793716
25331.5
50398.8
70462.4
87469
102462
116060
128716
140831
152756
164798
177224
190287
204236
219310
235692
253478
272684
293298
315346
338925
364214
391433
420802
452481
486548
522981
561664
602342
644480
686849
727295
763226
792395
813610
826734
832460
832512
829294
824470
819267
814357
809662
804933
800354
796400
793376
791374
790255
790764
793216
25757.3
51000.1
71372.6
88404.3
103167
116594
129220
141402
153400
165445
177771
190632
204290
218988
234910
252155
270757
290731
312135
335106
359872
386702
415869
447583
481952
518953
558393
599844
642502
685002
725537
761640
791309
813324
827325
833827
834361
831051
825808
820166
814881
809919
805062
800446
796404
793221
791260
790551
791542
794261
25537.3
50188
71049.6
88375.5
103293
116859
129597
141837
153819
165760
177906
190539
203957
218439
234194
251348
269960
290070
311753
335155
360487
387992
417907
450413
485603
523461
563794
606089
649312
692050
732345
767860
797158
819099
833215
839854
840319
836574
830627
824087
817834
812073
806757
801972
797942
794969
793341
793082
794319
796972
24286.1
47381.5
68110.4
85926.2
101584
115828
129119
141777
154069
166250
178604
191443
205089
219837
235925
253512
272696
293553
316172
340675
367212
395943
427019
460551
496600
535171
576136
619060
662986
706309
746226
780810
809130
830356
844036
850318
850305
845828
838883
831124
823600
816763
810742
805624
801550
798717
797254
797112
798257
800571
23548.1
45104.6
65155.4
83118.5
99335.1
114251
128256
141661
154723
167685
180797
194333
208582
223823
240309
258256
277850
299268
322686
348270
376151
406415
439093
474173
511617
551380
593345
637125
681779
725448
765264
799078
825747
845518
858466
864104
863337
857884
849722
840584
831677
823644
816745
811075
806704
803717
802134
801833
802675
804501
22999.6
43404.4
62855.6
80758.1
97284
112707
127327
141418
155223
168967
182863
197139
212032
227787
244656
262895
282770
304563
328549
354977
384017
415742
450123
487052
526382
567946
611509
656602
702226
746504
786738
820377
845588
863109
874618
879524
877826
871205
861669
851071
840762
831505
823622
817205
812276
808854
806902
806258
806711
808049
23194.7
42725.4
61800.4
79653.1
96390
112187
127276
141896
156279
170639
185179
200101
215618
231952
249342
268064
288423
310742
335344
362513
392457
425277
460962
499401
540405
583700
628889
675324
721901
766838
807684
841668
866367
881582
890778
894747
892042
884129
873142
861126
849563
839245
830467
823282
817687
813686
811239
810178
810242
811151
24028.5
42655.8
61384.3
79131.9
95959.7
111978
127367
142332
157087
171842
186794
202145
218095
234868
252717
271928
292816
315707
340923
368739
399355
432900
469412
508828
550985
595585
642126
689806
737387
783101
824659
859333
884364
898669
905524
907744
904205
894771
882010
868486
855816
844699
835279
827510
821357
816842
813954
812542
812320
812931
25219.5
43143.6
61606.2
79249.4
96097.9
112220
127765
142919
157878
172844
188021
203612
219820
236878
255057
274663
296022
319458
345283
373755
405067
439349
476666
517002
560224
606033
653874
702831
751526
798087
840201
875180
900138
913204
916649
917093
914372
904167
889751
874717
860950
849053
839021
830703
824029
819039
815753
814035
813558
813879
888991
888991
888990
888990
888990
888990
888990
888990
888989
888989
888989
888989
888989
888988
888988
888988
888988
888988
888988
888988
888987
888987
888986
888986
888986
888985
888985
888984
888984
888984
888983
888983
888983
888983
888983
888983
888982
888982
888982
888981
888980
888980
888979
888978
888978
888977
888976
888976
888975
888975
888893
888893
888893
888893
888892
888892
888892
888892
888892
888892
888891
888891
888891
888891
888891
888891
888890
888890
888890
888890
888890
888889
888889
888888
888888
888887
888887
888887
888886
888886
888886
888886
888885
888885
888885
888885
888885
888884
888884
888883
888883
888882
888882
888881
888880
888879
888879
888878
888878
888877
888795
888795
888795
888795
888795
888795
888795
888794
888794
888794
888794
888794
888793
888793
888793
888793
888793
888793
888793
888792
888792
888792
888791
888791
888790
888790
888789
888789
888789
888788
888788
888788
888788
888788
888788
888787
888787
888787
888786
888786
888785
888785
888784
888783
888782
888782
888781
888781
888780
888780
888697
888698
888698
888698
888697
888697
888697
888697
888697
888696
888696
888696
888696
888696
888695
888695
888695
888695
888695
888695
888694
888694
888694
888693
888693
888692
888692
888691
888691
888691
888691
888690
888690
888690
888690
888690
888690
888689
888689
888688
888688
888687
888686
888686
888685
888684
888684
888683
888683
888682
888600
888600
888600
888600
888600
888600
888599
888599
888599
888599
888599
888598
888598
888598
888598
888598
888598
888597
888597
888597
888597
888596
888596
888596
888595
888595
888594
888594
888594
888593
888593
888593
888593
888593
888592
888592
888592
888592
888591
888591
888590
888589
888589
888588
888587
888587
888586
888585
888585
888584
888502
888502
888502
888502
888502
888502
888502
888502
888501
888501
888501
888501
888500
888500
888500
888500
888500
888500
888500
888499
888499
888499
888498
888498
888497
888497
888497
888496
888496
888496
888495
888495
888495
888495
888495
888495
888494
888494
888494
888493
888492
888492
888491
888490
888490
888489
888488
888488
888487
888487
888405
888405
888405
888405
888404
888404
888404
888404
888404
888403
888403
888403
888403
888403
888402
888402
888402
888402
888402
888402
888401
888401
888401
888400
888400
888399
888399
888399
888398
888398
888398
888398
888398
888397
888397
888397
888397
888396
888396
888395
888395
888394
888393
888393
888392
888391
888391
888390
888390
888389
888307
888307
888307
888307
888307
888307
888307
888306
888306
888306
888306
888305
888305
888305
888305
888305
888305
888304
888304
888304
888304
888303
888303
888303
888302
888302
888301
888301
888301
888301
888300
888300
888300
888300
888300
888299
888299
888299
888298
888298
888297
888296
888296
888295
888294
888294
888293
888293
888292
888292
888209
888209
888209
888209
888209
888209
888209
888209
888208
888208
888208
888208
888208
888207
888207
888207
888207
888207
888206
888206
888206
888206
888205
888205
888205
888204
888204
888204
888203
888203
888203
888203
888203
888202
888202
888202
888201
888201
888201
888200
888199
888199
888198
888197
888197
888196
888196
888195
888195
888194
888112
888112
888112
888112
888112
888111
888111
888111
888111
888111
888110
888110
888110
888110
888109
888109
888109
888109
888109
888108
888108
888108
888108
888107
888107
888107
888106
888106
888106
888106
888105
888105
888105
888105
888104
888104
888104
888103
888103
888102
888102
888101
888100
888100
888099
888099
888098
888098
888097
888097
888014
888014
888014
888014
888014
888014
888014
888013
888013
888013
888013
888012
888012
888012
888012
888012
888011
888011
888011
888011
888010
888010
888010
888010
888009
888009
888009
888008
888008
888008
888008
888008
888007
888007
888007
888006
888006
888006
888005
888005
888004
888003
888003
888002
888002
888001
888000
888000
887999
887999
887916
887916
887916
887916
887916
887916
887916
887916
887915
887915
887915
887915
887915
887914
887914
887914
887914
887913
887913
887913
887913
887912
887912
887912
887912
887911
887911
887911
887911
887911
887910
887910
887910
887909
887909
887909
887908
887908
887907
887907
887906
887906
887905
887905
887904
887903
887903
887902
887902
887901
887819
887819
887819
887819
887819
887818
887818
887818
887818
887818
887817
887817
887817
887817
887816
887816
887816
887816
887816
887815
887815
887815
887815
887814
887814
887814
887814
887813
887813
887813
887813
887812
887812
887812
887811
887811
887811
887810
887810
887809
887809
887808
887808
887807
887806
887806
887805
887805
887804
887804
887721
887721
887721
887721
887721
887721
887721
887720
887720
887720
887720
887719
887719
887719
887719
887718
887718
887718
887718
887718
887717
887717
887717
887717
887716
887716
887716
887716
887716
887715
887715
887715
887715
887714
887714
887713
887713
887712
887712
887711
887711
887710
887710
887709
887709
887708
887708
887707
887707
887706
887623
887623
887623
887623
887623
887623
887623
887623
887623
887622
887622
887622
887622
887621
887621
887621
887621
887620
887620
887620
887620
887619
887619
887619
887619
887619
887618
887618
887618
887618
887618
887617
887617
887617
887616
887616
887615
887615
887614
887614
887613
887613
887612
887612
887611
887611
887610
887610
887609
887609
887526
887526
887526
887526
887526
887525
887525
887525
887525
887525
887524
887524
887524
887524
887523
887523
887523
887523
887522
887522
887522
887522
887522
887521
887521
887521
887521
887521
887521
887520
887520
887520
887519
887519
887518
887518
887518
887517
887517
887516
887516
887515
887515
887514
887514
887513
887513
887512
887512
887511
887428
887428
887428
887428
887428
887428
887428
887427
887427
887427
887427
887426
887426
887426
887426
887425
887425
887425
887425
887425
887424
887424
887424
887424
887424
887424
887423
887423
887423
887423
887422
887422
887422
887421
887421
887420
887420
887419
887419
887418
887418
887418
887417
887417
887416
887416
887415
887415
887414
887414
887331
887331
887331
887330
887330
887330
887330
887330
887330
887329
887329
887329
887329
887328
887328
887328
887328
887327
887327
887327
887327
887327
887326
887326
887326
887326
887326
887326
887325
887325
887325
887324
887324
887324
887323
887323
887322
887322
887321
887321
887320
887320
887319
887319
887319
887318
887318
887317
887317
887316
887233
887233
887233
887233
887233
887233
887232
887232
887232
887232
887232
887231
887231
887231
887230
887230
887230
887230
887230
887229
887229
887229
887229
887229
887228
887228
887228
887228
887228
887227
887227
887227
887226
887226
887225
887225
887225
887224
887224
887223
887223
887222
887222
887221
887221
887220
887220
887219
887219
887219
887136
887136
887135
887135
887135
887135
887135
887135
887134
887134
887134
887134
887133
887133
887133
887133
887132
887132
887132
887132
887132
887131
887131
887131
887131
887131
887131
887130
887130
887130
887130
887129
887129
887128
887128
887127
887127
887127
887126
887126
887125
887125
887124
887124
887123
887123
887122
887122
887121
887121
898481
898480
898480
898480
898479
898478
898478
898477
898477
898476
898476
898475
898475
898474
898474
898473
898473
898473
898472
898472
898388
898386
898385
898383
898382
898380
898379
898377
898376
898374
898373
898371
898370
898368
898367
898365
898364
898363
898361
898360
898294
898292
898290
898287
898285
898282
898280
898277
898275
898272
898270
898267
898265
898262
898260
898257
898255
898253
898250
898248
898201
898198
898195
898191
898188
898184
898181
898177
898174
898170
898167
898163
898160
898156
898153
898149
898146
898143
898139
898136
898108
898104
898100
898095
898091
898086
898082
898077
898073
898068
898064
898059
898055
898051
898046
898042
898037
898033
898028
898024
898015
898010
898005
897999
897994
897988
897983
897977
897972
897966
897961
897956
897950
897945
897939
897934
897929
897923
897918
897912
897922
897916
897910
897903
897897
897890
897884
897878
897871
897865
897858
897852
897846
897839
897833
897826
897820
897814
897807
897801
897829
897822
897815
897807
897800
897792
897785
897778
897770
897763
897756
897748
897741
897734
897726
897719
897711
897704
897697
897690
897736
897728
897720
897711
897703
897695
897686
897678
897670
897661
897653
897645
897636
897628
897620
897611
897603
897595
897587
897578
897643
897634
897625
897616
897606
897597
897588
897578
897569
897560
897550
897541
897532
897523
897513
897504
897495
897486
897476
897467
897550
897540
897530
897520
897510
897499
897489
897479
897468
897458
897448
897438
897427
897417
897407
897397
897387
897376
897366
897356
897458
897447
897435
897424
897413
897402
897390
897379
897368
897357
897345
897334
897323
897312
897301
897290
897278
897267
897256
897245
897365
897353
897341
897328
897316
897304
897292
897280
897267
897255
897243
897231
897219
897207
897195
897182
897170
897158
897146
897134
897272
897259
897246
897233
897220
897206
897193
897180
897167
897154
897141
897128
897115
897101
897088
897075
897062
897049
897036
897023
897179
897165
897151
897137
897123
897109
897095
897081
897067
897052
897038
897024
897010
896996
896982
896968
896954
896940
896926
896913
897086
897071
897056
897041
897026
897011
896996
896981
896966
896951
896936
896921
896906
896891
896876
896861
896846
896832
896817
896802
896994
896978
896962
896946
896930
896914
896898
896882
896866
896850
896834
896818
896802
896786
896770
896755
896739
896723
896707
896691
896901
896884
896867
896851
896834
896817
896800
896783
896766
896749
896732
896715
896698
896681
896665
896648
896631
896614
896598
896581
896809
896791
896773
896755
896737
896720
896702
896684
896666
896648
896630
896612
896594
896577
896559
896541
896523
896506
896488
896470
896716
896698
896679
896660
896641
896622
896604
896585
896566
896547
896528
896509
896491
896472
896453
896435
896416
896397
896379
896360
896624
896604
896585
896565
896545
896526
896506
896486
896466
896446
896427
896407
896387
896367
896348
896328
896309
896289
896269
896250
896532
896511
896491
896470
896449
896429
896408
896387
896366
896346
896325
896304
896284
896263
896242
896222
896201
896181
896160
896140
896440
896418
896397
896375
896354
896332
896310
896289
896267
896245
896224
896202
896180
896159
896137
896116
896094
896073
896052
896030
896348
896326
896303
896281
896258
896236
896213
896190
896168
896145
896123
896100
896077
896055
896032
896010
895988
895965
895943
895921
896256
896233
896210
896186
896163
896139
896116
896092
896069
896045
896022
895998
895975
895951
895928
895904
895881
895858
895835
895811
896165
896141
896116
896092
896068
896043
896019
895994
895970
895945
895921
895897
895872
895848
895823
895799
895775
895751
895726
895702
896074
896049
896023
895998
895973
895948
895922
895897
895871
895846
895821
895795
895770
895745
895719
895694
895669
895644
895619
895593
895983
895957
895931
895905
895878
895852
895826
895799
895773
895747
895720
895694
895668
895642
895615
895589
895563
895537
895511
895485
895893
895866
895839
895811
895784
895757
895730
895702
895675
895648
895621
895593
895566
895539
895512
895485
895458
895431
895404
895377
895803
895775
895747
895718
895690
895662
895634
895606
895578
895549
895521
895493
895465
895437
895409
895381
895353
895325
895296
895268
895713
895684
895655
895626
895597
895568
895539
895509
895480
895451
895422
895393
895364
895335
895306
895277
895248
895219
895190
895161
895623
895594
895564
895534
895504
895474
895444
895413
895383
895353
895323
895293
895263
895233
895203
895173
895143
895113
895083
895053
895534
895503
895473
895442
895411
895380
895349
895318
895287
895256
895225
895194
895163
895132
895101
895070
895039
895008
894977
894947
895445
895414
895382
895350
895318
895286
895255
895223
895191
895159
895127
895095
895063
895031
894999
894967
894935
894903
894872
894840
895357
895324
895292
895259
895226
895193
895161
895128
895095
895062
895029
894996
894963
894930
894897
894864
894832
894799
894766
894734
895269
895235
895202
895168
895134
895101
895067
895033
894999
894965
894931
894898
894864
894830
894796
894762
894729
894695
894661
894628
895181
895147
895112
895077
895043
895008
894973
894939
894904
894869
894834
894800
894765
894730
894695
894661
894626
894592
894557
894523
895093
895058
895023
894987
894952
894916
894880
894845
894809
894773
894738
894702
894666
894631
894595
894559
894524
894488
894453
894418
895006
894970
894934
894897
894861
894824
894788
894751
894715
894678
894641
894605
894568
894531
894495
894458
894422
894386
894349
894313
894919
894882
894845
894808
894770
894733
894695
894658
894620
894583
894545
894508
894470
894433
894395
894358
894321
894283
894246
894209
894833
894795
894756
894718
894680
894642
894603
894565
894527
894488
894450
894411
894373
894334
894296
894258
894220
894181
894143
894105
894746
894707
894668
894629
894590
894551
894512
894472
894433
894394
894355
894315
894276
894237
894197
894158
894119
894080
894041
894002
894660
894620
894581
894541
894501
894461
894420
894380
894340
894300
894260
894219
894179
894139
894099
894059
894019
893979
893939
893899
894575
894534
894493
894452
894411
894371
894330
894288
894247
894206
894165
894124
894083
894042
894001
893960
893919
893879
893838
893797
894489
894448
894406
894364
894323
894281
894239
894197
894155
894113
894071
894029
893987
893946
893904
893862
893820
893779
893737
893696
894404
894362
894319
894277
894234
894192
894149
894106
894063
894020
893978
893935
893892
893849
893807
893764
893722
893679
893637
893594
894320
894277
894233
894190
894146
894103
894059
894015
893972
893928
893885
893841
893797
893754
893710
893667
893624
893580
893537
893494
894236
894191
894147
894103
894059
894014
893970
893925
893881
893836
893792
893748
893703
893659
893615
893570
893526
893482
893438
893394
894152
894107
894062
894017
893971
893926
893881
893836
893790
893745
893700
893655
893609
893564
893519
893474
893429
893384
893339
893294
894068
894023
893977
893931
893885
893839
893793
893746
893700
893654
893608
893562
893516
893470
893424
893378
893332
893286
893240
893195
893985
893939
893892
893845
893798
893752
893705
893658
893611
893564
893517
893470
893423
893376
893330
893283
893236
893189
893143
893096
893903
893855
893808
893760
893713
893665
893617
893570
893522
893474
893426
893379
893331
893283
893236
893188
893140
893093
893045
892998
893821
893772
893724
893676
893627
893579
893530
893482
893433
893385
893336
893288
893239
893191
893142
893094
893045
892997
892949
892900
893739
893690
893641
893592
893542
893493
893444
893394
893345
893296
893246
893197
893148
893098
893049
893000
892951
892902
892852
892803
893658
893608
893558
893508
893458
893408
893358
893307
893257
893207
893157
893107
893057
893007
892957
892907
892857
892807
892757
892707
893577
893526
893476
893425
893374
893323
893272
893221
893170
893119
893068
893017
892967
892916
892865
892814
892763
892712
892662
892611
893497
893445
893394
893342
893290
893239
893187
893135
893084
893032
892980
892929
892877
892825
892774
892722
892670
892619
892567
892515
893417
893365
893312
893260
893207
893155
893102
893050
892998
892945
892893
892840
892788
892735
892683
892630
892578
892526
892473
892421
893338
893285
893232
893178
893125
893072
893019
892965
892912
892859
892806
892752
892699
892646
892593
892540
892486
892433
892380
892326
893259
893205
893151
893097
893043
892989
892935
892881
892827
892773
892719
892665
892611
892557
892503
892449
892395
892341
892287
892233
893181
893126
893072
893017
892962
892907
892852
892798
892743
892688
892633
892578
892524
892469
892414
892359
892304
892249
892195
892140
893104
893048
892992
892937
892881
892826
892770
892715
892659
892603
892548
892492
892437
892381
892325
892270
892214
892159
892103
892047
893027
892970
892914
892858
892801
892745
892688
892632
892576
892519
892463
892407
892350
892294
892238
892181
892125
892068
892012
891955
892950
892893
892836
892779
892722
892664
892607
892550
892493
892436
892379
892322
892265
892207
892150
892093
892036
891979
891921
891864
892874
892817
892759
892701
892643
892585
892527
892469
892411
892353
892295
892237
892179
892121
892063
892005
891947
891890
891831
891773
892799
892740
892682
892623
892564
892506
892447
892388
892330
892271
892212
892153
892095
892036
891977
891919
891860
891801
891742
891683
892724
892665
892605
892546
892486
892427
892368
892308
892249
892189
892130
892070
892011
891951
891892
891832
891773
891713
891654
891594
892650
892590
892530
892470
892409
892349
892289
892229
892168
892108
892048
891988
891927
891867
891807
891746
891686
891626
891565
891505
892577
892516
892455
892394
892333
892272
892211
892150
892089
892028
891967
891906
891845
891784
891722
891661
891600
891539
891478
891417
892504
892442
892380
892319
892257
892195
892133
892071
892010
891948
891886
891824
891762
891701
891639
891577
891515
891453
891391
891329
892431
892369
892306
892244
892181
892119
892056
891994
891931
891869
891806
891744
891681
891618
891556
891493
891430
891368
891305
891243
892360
892296
892233
892170
892107
892043
891980
891917
891853
891790
891727
891663
891600
891537
891473
891410
891346
891283
891220
891156
892288
892224
892160
892096
892032
891968
891904
891840
891776
891712
891648
891584
891520
891456
891392
891327
891263
891199
891135
891071
892218
892153
892088
892023
891959
891894
891829
891764
891700
891635
891570
891505
891440
891375
891310
891246
891181
891116
891051
890986
892147
892082
892017
891951
891886
891820
891755
891689
891624
891558
891492
891427
891361
891296
891230
891165
891099
891034
890968
890903
892078
892012
891946
891879
891813
891747
891681
891614
891548
891482
891416
891349
891283
891217
891150
891084
891018
890952
890886
890819
892009
891942
891875
891808
891742
891675
891608
891541
891474
891407
891339
891272
891205
891139
891072
891005
890938
890871
890804
890737
891941
891873
891806
891738
891670
891603
891535
891467
891400
891332
891264
891196
891129
891061
890993
890926
890858
890791
890723
890655
891873
891805
891737
891668
891600
891532
891463
891395
891326
891258
891189
891121
891053
890984
890916
890848
890779
890711
890643
890575
891806
891737
891668
891599
891530
891461
891392
891323
891254
891185
891115
891046
890977
890908
890839
890770
890701
890632
890564
890495
891740
891670
891600
891531
891461
891391
891321
891252
891182
891112
891042
890972
890903
890833
890763
890694
890624
890555
890485
890415
891674
891604
891533
891463
891392
891322
891251
891181
891111
891040
890970
890899
890829
890759
890688
890618
890548
890477
890407
890337
891608
891537
891466
891395
891324
891253
891182
891111
891040
890969
890898
890827
890756
890685
890614
890543
890472
890401
890330
890259
891543
891472
891400
891329
891257
891185
891114
891042
890970
890899
890827
890755
890684
890612
890540
890469
890397
890325
890254
890182
891479
891407
891335
891262
891190
891118
891046
890974
890901
890829
890757
890684
890612
890540
890468
890395
890323
890251
890178
890106
891416
891343
891270
891197
891124
891051
890979
890906
890833
890760
890687
890614
890541
890468
890396
890323
890250
890177
890104
890031
891353
891279
891206
891132
891059
890986
890912
890839
890765
890692
890618
890545
890471
890398
890324
890251
890177
890104
890030
889956
891291
891217
891143
891068
890994
890920
890846
890772
890698
890624
890550
890476
890402
890328
890254
890180
890105
890031
889957
889883
891229
891155
891080
891005
890931
890856
890782
890707
890632
890558
890483
890408
890333
890259
890184
890109
890034
889960
889885
889810
891169
891094
891018
890943
890868
890793
890717
890642
890567
890492
890416
890341
890266
890190
890115
890040
889964
889889
889813
889738
891109
891033
890957
890882
890806
890730
890654
890578
890502
890426
890350
890275
890199
890123
890047
889971
889895
889819
889743
889667
891050
890974
890897
890821
890744
890668
890591
890515
890438
890362
890285
890209
890132
890056
889979
889903
889826
889750
889673
889597
890992
890915
890838
890761
890684
890607
890529
890452
890375
890298
890221
890144
890067
889990
889913
889836
889759
889681
889604
889527
890935
890857
890779
890702
890624
890546
890468
890391
890313
890235
890158
890080
890002
889925
889847
889769
889692
889614
889536
889458
890878
890800
890721
890643
890565
890486
890408
890330
890252
890173
890095
890017
889939
889860
889782
889704
889626
889547
889469
889391
890822
890743
890664
890585
890506
890427
890349
890270
890191
890112
890033
889955
889876
889797
889718
889639
889560
889482
889403
889324
890767
890687
890608
890528
890449
890369
890290
890210
890131
890052
889972
889893
889814
889734
889655
889576
889496
889417
889337
889258
890712
890632
890552
890472
890392
890312
890232
890152
890072
889992
889912
889832
889753
889673
889593
889513
889433
889353
889273
889193
890658
890577
890497
890416
890336
890255
890175
890094
890014
889934
889853
889773
889692
889612
889531
889451
889370
889290
889209
889129
890605
890524
890443
890362
890281
890200
890119
890038
889957
889876
889795
889714
889633
889552
889471
889390
889309
889228
889146
889065
890553
890471
890389
890308
890226
890145
890063
889982
889900
889819
889737
889656
889574
889493
889411
889329
889248
889166
889085
889003
890501
890419
890337
890255
890173
890090
890008
889926
889844
889762
889680
889598
889516
889434
889352
889270
889188
889106
889024
888941
890450
890368
890285
890202
890120
890037
889955
889872
889790
889707
889624
889542
889459
889377
889294
889211
889129
889046
888963
888881
890400
890317
890234
890151
890068
889985
889902
889819
889736
889653
889569
889486
889403
889320
889237
889154
889071
888987
888904
888821
890351
890268
890184
890100
890017
889933
889850
889766
889682
889599
889515
889432
889348
889264
889181
889097
889013
888930
888846
888762
890303
890219
890135
890051
889967
889883
889798
889714
889630
889546
889462
889378
889294
889210
889125
889041
888957
888873
888789
888704
890256
890171
890087
890002
889917
889833
889748
889663
889579
889494
889410
889325
889240
889156
889071
888986
888902
888817
888732
888647
890209
890124
890039
889954
889869
889784
889699
889613
889528
889443
889358
889273
889188
889103
889017
888932
888847
888762
888677
888591
890164
890078
889992
889907
889821
889736
889650
889564
889479
889393
889307
889222
889136