/*--------------------------------*- C++ -*----------------------------------*\
  =========                 |
  \\      /  F ield         | OpenFOAM: The Open Source CFD Toolbox
   \\    /   O peration     | Website:  https://openfoam.org
    \\  /    A nd           | Version:  8
     \\/     M anipulation  |
\*---------------------------------------------------------------------------*/
FoamFile
{
    version     2.0;
    format      ascii;
    class       volScalarField;
    location    "800";
    object      p_rgh;
}
// * * * * * * * * * * * * * * * * * * * * * * * * * * * * * * * * * * * * * //

dimensions      [1 -1 -2 0 0 0 0];

internalField   nonuniform List<scalar> 
8400
(
17335.6
36962.2
54860.2
71306.1
87753.8
104314
119942
133048
142134
146020
143842
135481
121776
104752
88828.3
81723
94123.7
136038
210842
309762
416596
518178
607153
679930
734674
770995
791257
801147
806242
809170
810582
810722
809858
808120
805570
802290
798406
794082
789502
784848
780296
776009
772132
768795
766099
764115
762881
762434
762869
764224
17226.8
40123.6
58577.6
74319.8
90257.3
106945
123164
136972
146589
150776
148493
138853
122353
100300
76765.7
59821.2
62902.5
100552
179247
286168
399284
504790
596759
672599
730491
769219
790449
800855
806708
810227
811682
811564
810571
808768
806101
802644
798548
794010
789233
784409
779714
775312
771341
767922
765151
763096
761789
761238
761469
762487
25298.7
51231
63956.1
75033.7
89131.2
106361
124530
140784
152593
158357
156969
146103
126150
97868.5
65187.2
36207.9
29889.3
67458
158520
278663
397993
505543
598462
675353
734700
774916
796244
805757
810880
813813
814108
813015
811968
810252
807443
803675
799189
794255
789122
784000
779071
774490
770388
766876
764054
761993
760728
760254
760549
761563
8318.06
36480.6
55529.8
71182.5
88710.5
108161
127425
143884
155055
159391
157102
146805
126743
97465.8
62743.1
29449.9
20862.8
65469.2
172162
297421
412967
514354
602335
676816
737065
781735
807494
816052
816670
817345
815529
813471
813328
812092
809020
804680
799534
793974
788300
782738
777465
772615
768302
764628
761691
759566
758291
757856
758223
759331
-32428.4
13639.6
48819.2
71044.3
89468.7
107162
123893
138403
148993
154193
153612
145552
127277
101049
70208.1
44869.2
51329
113742
221123
335725
438539
527709
605630
673546
730618
773656
799703
810992
818221
819303
814320
812544
815414
815029
811299
806060
800009
793675
787378
781339
775712
770598
766088
762271
759244
757090
755851
755513
756020
757299
-9452.25
16782.2
44438
64386.2
80450
95407.2
109398
121682
131369
137675
140152
138388
132644
125241
119987
124539
151263
207660
285436
367308
443031
510785
571867
627126
676513
720123
756331
783014
801467
808661
810681
817871
821374
818748
813436
806908
799750
792567
785621
779099
773125
767760
763068
759128
756035
753883
752727
752549
753280
754827
-9202.9
14450.7
39668.7
59623.6
76211.9
91445.4
105432
117693
127966
136282
142947
148459
153585
159716
169153
185517
213105
253823
305157
361653
418388
473161
525712
575973
623500
667788
707175
740084
766065
783578
795698
809273
818300
820034
814544
806684
798551
790632
783166
776312
770139
764659
759903
755925
752815
750687
749627
749630
750619
752482
-2775.19
18938.7
41808.3
60362.4
76112.2
90707.4
104239
116415
127323
137392
147197
157340
168448
181335
197192
217593
244123
277439
316455
359277
404049
449168
493544
536892
579105
619599
657717
692499
723147
749226
771643
791265
804540
810705
810228
804227
795507
787387
779901
773054
766890
761453
756747
752786
749659
747525
746537
746719
747991
750216
579.066
22775.2
44278
61771.5
77024.3
91392.5
104881
117305
128909
140258
151980
164631
178700
194670
213076
234500
259415
287927
319577
353545
389052
425469
462343
499445
536723
573997
610956
647103
681959
714828
744219
768290
785639
796611
800182
796600
790664
783529
776118
769451
763505
758320
753799
749909
746757
744574
743622
743987
745576
748204
5523.11
27840.7
48038.7
64581.6
79282
93235.8
106462
118929
130968
143129
155958
169900
185289
202375
221331
242272
265219
290081
316659
344702
374012
404475
436060
468799
502738
537845
574008
611029
648457
685042
718499
746614
768008
782102
788451
788532
784770
778587
772148
766173
760593
755511
751010
747140
744016
741884
741112
741786
743730
746732
8686.52
31832.6
51064.5
66984.2
81359.5
94988
107993
120524
132934
145664
159119
173621
189389
206550
225121
245040
266181
288419
311678
335957
361356
388064
416309
446314
478254
512189
548063
585666
624385
662784
698645
729702
754104
770805
779817
782234
779812
774953
769493
763807
758318
753381
749152
745641
742916
741156
740637
741294
743216
746258
12898.5
36033.5
54181.4
69626
83637.7
96805
109462
121913
134481
147475
161170
175790
191493
208349
226331
245326
265184
285784
307111
329280
352527
377185
403629
432204
463179
496676
532625
570701
610140
649475
686626
719339
745660
764422
775485
779551
778369
774232
768806
763018
757666
752984
748890
745467
742919
741285
740636
741166
743074
746205
14075.2
36843.7
54885.1
70416.9
84330.8
97343.1
109916
122394
135066
148186
161977
176629
192272
208956
226635
245187
264465
284369
304907
326231
348632
372499
398275
426383
457158
490760
527088
565689
605627
645410
683078
716451
743712
763684
776040
781309
781008
777110
771393
765215
759466
754424
750079
746504
743853
742200
741648
742317
744302
747404
14428.1
36549.3
54867.3
70667.6
84682.4
97751.8
110391
122949
135691
148848
162633
177231
192774
209317
226824
245193
264304
284090
304586
325957
348493
372590
398691
427235
458580
492903
530072
569505
610081
650184
687821
721040
748383
768730
781664
787566
787676
783763
777649
770822
764267
758446
753510
749548
746663
744978
744495
745161
746970
749752
13222.7
34318.3
52991.8
69342.6
84017.9
97694.9
110835
123771
136774
150090
163958
178583
194123
210662
228201
246686
266039
286223
307284
329364
352709
377672
404659
434085
466309
501540
539669
580091
621563
662134
699510
732098
758836
778863
791767
797762
797863
793671
786958
779263
771688
764870
759108
754538
751236
749258
748541
748943
750364
752650
12545.7
32593.5
51114.9
67820
83116.1
97453.9
111224
124741
138270
152042
166281
181183
196909
213573
231229
249899
269596
290351
312248
335422
360061
386432
414850
445651
479147
515527
554684
596018
638203
679125
716363
748079
773495
792572
805022
810711
810449
805695
798161
789428
780712
772789
766064
760711
756779
754261
753066
753017
753945
755676
12394.4
31506.1
49701.6
66494.9
82152.4
96979
111287
125354
139426
153711
168404
183676
199676
216527
234331
253177
273161
294405
317052
341270
367244
395191
425344
457939
493181
531156
571672
614076
657036
698475
735910
767113
790935
808164
819663
824838
823956
818388
809822
799913
789991
780932
773200
766977
762288
759086
757268
756655
757052
758254
13020.2
31262.2
49161.4
65963.4
81848.2
97028.4
111753
126263
140782
155506
170609
186250
202568
219693
237754
256885
277236
298973
322289
347379
374452
403727
435407
469672
506634
546234
588145
631615
675313
717294
755161
786437
809391
824331
833932
838501
836889
830350
820624
809501
798439
788372
779764
772760
767343
763447
760977
759783
759666
760397
13978
31317.2
48886.5
65627.4
81631.7
97040.2
112047
126859
141681
156702
172088
187994
204566
221944
240278
259723
280447
302636
326493
352223
380047
410214
442942
478398
516654
557567
600694
645172
689627
732190
770611
802442
825533
839333
846736
849917
847739
840047
828870
816396
804250
793367
784131
776591
770658
766239
763262
761612
761108
761497
15080.6
31874.1
49212.5
65889.9
81946.3
97477.9
112642
127627
142622
157818
173381
189466
206223
223807
242386
262135
283229
305854
330220
356538
385027
415948
449546
485995
525346
567414
611680
657182
702455
745588
784369
816439
839501
852219
856543
857971
856483
848359
835878
822064
808844
797164
787340
779327
772963
768131
764766
762778
761979
762063
836342
836342
836342
836342
836342
836342
836342
836342
836342
836342
836342
836342
836342
836342
836342
836342
836342
836342
836342
836342
836342
836342
836342
836342
836341
836341
836341
836341
836341
836341
836341
836341
836341
836341
836341
836340
836340
836340
836340
836340
836340
836340
836340
836340
836339
836339
836339
836339
836339
836339
836342
836342
836342
836342
836342
836342
836342
836342
836342
836342
836342
836342
836342
836342
836342
836341
836341
836341
836341
836341
836341
836341
836341
836341
836341
836341
836341
836341
836341
836341
836340
836340
836340
836340
836340
836340
836340
836340
836340
836340
836340
836339
836339
836339
836339
836339
836339
836339
836339
836338
836342
836342
836342
836342
836342
836342
836342
836342
836342
836342
836342
836342
836342
836342
836342
836341
836341
836341
836341
836341
836341
836341
836341
836341
836341
836341
836341
836341
836341
836341
836340
836340
836340
836340
836340
836340
836340
836340
836340
836340
836340
836339
836339
836339
836339
836339
836339
836339
836338
836338
836342
836342
836342
836342
836342
836342
836342
836342
836342
836342
836342
836342
836342
836342
836342
836341
836341
836341
836341
836341
836341
836341
836341
836341
836341
836341
836341
836341
836341
836341
836340
836340
836340
836340
836340
836340
836340
836340
836340
836340
836340
836339
836339
836339
836339
836339
836339
836339
836338
836338
836342
836342
836342
836342
836342
836342
836342
836342
836342
836342
836342
836342
836342
836342
836342
836341
836341
836341
836341
836341
836341
836341
836341
836341
836341
836341
836341
836341
836341
836341
836340
836340
836340
836340
836340
836340
836340
836340
836340
836340
836340
836339
836339
836339
836339
836339
836339
836339
836338
836338
836342
836342
836342
836342
836342
836342
836342
836342
836342
836342
836342
836342
836342
836342
836342
836341
836341
836341
836341
836341
836341
836341
836341
836341
836341
836341
836341
836341
836341
836341
836340
836340
836340
836340
836340
836340
836340
836340
836340
836340
836340
836339
836339
836339
836339
836339
836339
836339
836338
836338
836342
836342
836342
836342
836342
836342
836342
836342
836342
836342
836342
836342
836342
836342
836342
836341
836341
836341
836341
836341
836341
836341
836341
836341
836341
836341
836341
836341
836341
836341
836340
836340
836340
836340
836340
836340
836340
836340
836340
836340
836340
836339
836339
836339
836339
836339
836339
836339
836338
836338
836342
836342
836342
836342
836342
836342
836342
836342
836342
836342
836342
836342
836342
836342
836341
836341
836341
836341
836341
836341
836341
836341
836341
836341
836341
836341
836341
836341
836341
836341
836341
836340
836340
836340
836340
836340
836340
836340
836340
836340
836340
836339
836339
836339
836339
836339
836339
836339
836338
836338
836342
836342
836342
836342
836342
836342
836342
836342
836342
836342
836342
836342
836342
836342
836341
836341
836341
836341
836341
836341
836341
836341
836341
836341
836341
836341
836341
836341
836341
836341
836341
836340
836340
836340
836340
836340
836340
836340
836340
836340
836340
836339
836339
836339
836339
836339
836339
836339
836338
836338
836342
836342
836342
836342
836342
836342
836342
836342
836342
836342
836342
836342
836342
836342
836341
836341
836341
836341
836341
836341
836341
836341
836341
836341
836341
836341
836341
836341
836341
836341
836341
836340
836340
836340
836340
836340
836340
836340
836340
836340
836340
836339
836339
836339
836339
836339
836339
836339
836339
836338
836342
836342
836342
836342
836342
836342
836342
836342
836342
836342
836342
836342
836342
836342
836341
836341
836341
836341
836341
836341
836341
836341
836341
836341
836341
836341
836341
836341
836341
836341
836341
836341
836340
836340
836340
836340
836340
836340
836340
836340
836340
836339
836339
836339
836339
836339
836339
836339
836339
836338
836342
836342
836342
836342
836342
836342
836342
836342
836342
836342
836342
836342
836342
836342
836341
836341
836341
836341
836341
836341
836341
836341
836341
836341
836341
836341
836341
836341
836341
836341
836341
836341
836340
836340
836340
836340
836340
836340
836340
836340
836340
836339
836339
836339
836339
836339
836339
836339
836339
836338
836342
836342
836342
836342
836342
836342
836342
836342
836342
836342
836342
836342
836342
836342
836341
836341
836341
836341
836341
836341
836341
836341
836341
836341
836341
836341
836341
836341
836341
836341
836341
836341
836340
836340
836340
836340
836340
836340
836340
836340
836340
836339
836339
836339
836339
836339
836339
836339
836339
836338
836342
836342
836342
836342
836342
836342
836342
836342
836342
836342
836342
836342
836342
836341
836341
836341
836341
836341
836341
836341
836341
836341
836341
836341
836341
836341
836341
836341
836341
836341
836341
836341
836340
836340
836340
836340
836340
836340
836340
836340
836340
836339
836339
836339
836339
836339
836339
836339
836339
836338
836342
836342
836342
836342
836342
836342
836342
836342
836342
836342
836342
836342
836342
836341
836341
836341
836341
836341
836341
836341
836341
836341
836341
836341
836341
836341
836341
836341
836341
836341
836341
836341
836340
836340
836340
836340
836340
836340
836340
836340
836340
836339
836339
836339
836339
836339
836339
836339
836339
836338
836342
836342
836342
836342
836342
836342
836342
836342
836342
836342
836342
836342
836342
836341
836341
836341
836341
836341
836341
836341
836341
836341
836341
836341
836341
836341
836341
836341
836341
836341
836341
836341
836340
836340
836340
836340
836340
836340
836340
836340
836340
836339
836339
836339
836339
836339
836339
836339
836339
836339
836342
836342
836342
836342
836342
836342
836342
836342
836342
836342
836342
836342
836342
836341
836341
836341
836341
836341
836341
836341
836341
836341
836341
836341
836341
836341
836341
836341
836341
836341
836341
836341
836340
836340
836340
836340
836340
836340
836340
836340
836340
836340
836339
836339
836339
836339
836339
836339
836339
836339
836342
836342
836342
836342
836342
836342
836342
836342
836342
836342
836342
836342
836342
836341
836341
836341
836341
836341
836341
836341
836341
836341
836341
836341
836341
836341
836341
836341
836341
836341
836341
836341
836341
836340
836340
836340
836340
836340
836340
836340
836340
836340
836339
836339
836339
836339
836339
836339
836339
836339
836342
836342
836342
836342
836342
836342
836342
836342
836342
836342
836342
836342
836342
836341
836341
836341
836341
836341
836341
836341
836341
836341
836341
836341
836341
836341
836341
836341
836341
836341
836341
836341
836341
836340
836340
836340
836340
836340
836340
836340
836340
836340
836340
836339
836339
836339
836339
836339
836339
836339
836342
836342
836342
836342
836342
836342
836342
836342
836342
836342
836342
836342
836342
836342
836342
836342
836342
836342
836342
836342
836341
836341
836341
836341
836341
836341
836341
836341
836341
836341
836341
836341
836341
836341
836341
836341
836341
836340
836340
836340
836340
836340
836340
836340
836340
836340
836340
836339
836339
836339
836296
836296
836296
836296
836296
836296
836296
836296
836296
836296
836296
836296
836295
836295
836295
836295
836295
836295
836295
836295
836297
836297
836297
836297
836297
836297
836297
836296
836296
836296
836296
836296
836296
836296
836296
836296
836296
836296
836296
836296
836297
836297
836297
836297
836297
836297
836297
836297
836297
836297
836297
836297
836297
836297
836297
836297
836297
836297
836297
836297
836298
836298
836298
836298
836298
836298
836298
836298
836298
836298
836298
836298
836298
836298
836298
836298
836298
836298
836298
836298
836299
836299
836299
836299
836299
836299
836299
836299
836299
836299
836299
836299
836299
836299
836299
836299
836298
836298
836298
836298
836300
836300
836300
836300
836300
836300
836300
836300
836300
836300
836299
836299
836299
836299
836299
836299
836299
836299
836299
836299
836301
836301
836301
836301
836300
836300
836300
836300
836300
836300
836300
836300
836300
836300
836300
836300
836300
836300
836300
836300
836301
836301
836301
836301
836301
836301
836301
836301
836301
836301
836301
836301
836301
836301
836301
836301
836301
836301
836301
836301
836302
836302
836302
836302
836302
836302
836302
836302
836302
836302
836302
836302
836302
836301
836301
836301
836301
836301
836301
836301
836303
836303
836303
836303
836302
836302
836302
836302
836302
836302
836302
836302
836302
836302
836302
836302
836302
836302
836302
836302
836303
836303
836303
836303
836303
836303
836303
836303
836303
836303
836303
836303
836303
836303
836303
836303
836303
836303
836303
836303
836304
836304
836304
836304
836304
836304
836304
836304
836303
836303
836303
836303
836303
836303
836303
836303
836303
836303
836303
836303
836304
836304
836304
836304
836304
836304
836304
836304
836304
836304
836304
836304
836304
836304
836304
836304
836304
836304
836304
836304
836305
836305
836305
836305
836305
836305
836305
836305
836305
836305
836304
836304
836304
836304
836304
836304
836304
836304
836304
836305
836305
836305
836305
836305
836305
836305
836305
836305
836305
836305
836305
836305
836305
836305
836305
836305
836305
836305
836305
836305
836306
836306
836306
836306
836306
836306
836306
836306
836306
836306
836305
836305
836305
836305
836305
836305
836305
836305
836306
836306
836306
836306
836306
836306
836306
836306
836306
836306
836306
836306
836306
836306
836306
836306
836306
836306
836306
836306
836306
836306
836307
836307
836307
836307
836307
836307
836307
836307
836306
836306
836306
836306
836306
836306
836306
836306
836306
836306
836307
836307
836307
836307
836307
836307
836307
836307
836307
836307
836307
836307
836307
836307
836307
836307
836307
836307
836307
836307
836307
836307
836308
836308
836308
836308
836307
836307
836307
836307
836307
836307
836307
836307
836307
836307
836307
836307
836307
836307
836307
836308
836308
836308
836308
836308
836308
836308
836308
836308
836308
836308
836308
836308
836308
836308
836308
836308
836308
836308
836308
836308
836309
836308
836308
836308
836308
836308
836308
836308
836308
836308
836308
836308
836308
836308
836308
836308
836308
836308
836308
836308
836309
836309
836309
836309
836309
836309
836309
836309
836309
836309
836308
836308
836308
836308
836308
836308
836308
836308
836309
836309
836309
836309
836309
836309
836309
836309
836309
836309
836309
836309
836309
836309
836309
836309
836309
836309
836309
836309
836309
836309
836310
836310
836310
836310
836310
836310
836310
836309
836309
836309
836309
836309
836309
836309
836309
836309
836309
836309
836309
836310
836310
836310
836310
836310
836310
836310
836310
836310
836310
836310
836310
836310
836310
836310
836310
836310
836310
836310
836310
836310
836311
836311
836311
836311
836310
836310
836310
836310
836310
836310
836310
836310
836310
836310
836310
836310
836310
836310
836310
836310
836311
836311
836311
836311
836311
836311
836311
836311
836311
836311
836311
836311
836311
836311
836311
836311
836311
836311
836311
836311
836312
836312
836312
836311
836311
836311
836311
836311
836311
836311
836311
836311
836311
836311
836311
836311
836311
836311
836311
836311
836312
836312
836312
836312
836312
836312
836312
836312
836312
836312
836312
836312
836311
836311
836311
836311
836311
836311
836311
836312
836313
836313
836313
836313
836312
836312
836312
836312
836312
836312
836312
836312
836312
836312
836312
836312
836312
836312
836312
836312
836313
836313
836313
836313
836313
836313
836313
836313
836313
836313
836313
836312
836312
836312
836312
836312
836312
836312
836312
836313
836314
836314
836314
836314
836313
836313
836313
836313
836313
836313
836313
836313
836313
836313
836313
836313
836313
836313
836313
836313
836314
836314
836314
836314
836314
836314
836314
836314
836314
836314
836314
836313
836313
836313
836313
836313
836313
836313
836313
836313
836315
836315
836315
836315
836314
836314
836314
836314
836314
836314
836314
836314
836314
836314
836314
836314
836313
836314
836314
836314
836315
836315
836315
836315
836315
836315
836315
836315
836315
836315
836314
836314
836314
836314
836314
836314
836314
836314
836314
836314
836316
836316
836316
836315
836315
836315
836315
836315
836315
836315
836315
836315
836315
836314
836314
836314
836314
836314
836314
836315
836316
836316
836316
836316
836316
836316
836316
836316
836315
836315
836315
836315
836315
836315
836315
836315
836315
836315
836315
836315
836317
836316
836316
836316
836316
836316
836316
836316
836316
836316
836316
836315
836315
836315
836315
836315
836315
836315
836315
836316
836317
836317
836317
836317
836317
836316
836316
836316
836316
836316
836316
836316
836316
836316
836316
836316
836316
836316
836316
836316
836317
836317
836317
836317
836317
836317
836317
836317
836317
836316
836316
836316
836316
836316
836316
836316
836316
836316
836316
836316
836318
836317
836317
836317
836317
836317
836317
836317
836317
836317
836317
836317
836317
836316
836316
836316
836316
836316
836317
836317
836318
836318
836318
836318
836317
836317
836317
836317
836317
836317
836317
836317
836317
836317
836317
836317
836317
836317
836317
836317
836318
836318
836318
836318
836318
836318
836318
836318
836318
836317
836317
836317
836317
836317
836317
836317
836317
836317
836317
836318
836319
836318
836318
836318
836318
836318
836318
836318
836318
836318
836318
836318
836318
836318
836317
836317
836318
836318
836318
836318
836319
836319
836318
836318
836318
836318
836318
836318
836318
836318
836318
836318
836318
836318
836318
836318
836318
836318
836318
836318
836319
836319
836319
836319
836318
836318
836318
836318
836318
836318
836318
836318
836318
836318
836318
836318
836318
836318
836318
836319
836319
836319
836319
836319
836319
836319
836319
836319
836319
836319
836319
836319
836319
836319
836319
836319
836319
836319
836319
836319
836319
836319
836319
836319
836319
836319
836319
836319
836319
836319
836319
836319
836319
836319
836319
836319
836319
836319
836319
836320
836320
836319
836319
836319
836319
836319
836319
836319
836319
836319
836319
836319
836319
836319
836319
836319
836319
836319
836320
836320
836320
836320
836320
836319
836319
836319
836319
836319
836319
836319
836319
836319
836319
836319
836319
836319
836320
836320
836320
836320
836320
836320
836320
836320
836320
836320
836320
836320
836320
836320
836320
836320
836320
836320
836320
836320
836320
836320
836320
836320
836320
836320
836320
836320
836320
836320
836320
836320
836320
836320
836320
836320
836320
836320
836320
836320
836320
836320
836320
836321
836321
836320
836320
836320
836320
836320
836320
836320
836320
836320
836320
836320
836320
836320
836320
836320
836320
836321
836321
836321
836321
836320
836320
836320
836320
836320
836320
836320
836320
836320
836320
836320
836321
836321
836321
836321
836321
836321
836321
836321
836321
836321
836321
836321
836321
836321
836321
836321
836321
836321
836321
836321
836321
836321
836321
836321
836321
836321
836321
836322
836321
836321
836321
836321
836321
836321
836321
836321
836321
836321
836321
836321
836321
836321
836321
836321
836321
836321
836322
836322
836321
836321
836321
836321
836321
836321
836321
836321
836321
836321
836321
836321
836321
836321
836321
836322
836322
836322
836322
836322
836322
836321
836321
836321
836321
836321
836321
836321
836321
836322
836322
836322
836322
836322
836322
836322
836322
836322
836322
836323
836322
836322
836322
836322
836322
836322
836322
836322
836322
836322
836322
836322
836322
836322
836322
836322
836322
836322
836323
836323
836322
836322
836322
836322
836322
836322
836322
836322
836322
836322
836322
836322
836322
836322
836322
836322
836322
836323
836323
836323
836323
836322
836322
836322
836322
836322
836322
836322
836322
836322
836322
836322
836322
836322
836323
836323
836323
836323
836323
836323
836323
836322
836322
836322
836322
836322
836322
836322
836323
836323
836323
836323
836323
836323
836323
836323
836323
836323
836323
836324
836323
836323
836323
836323
836323
836323
836323
836323
836323
836323
836323
836323
836323
836323
836323
836323
836323
836323
836323
836324
836323
836323
836323
836323
836323
836323
836323
836323
836323
836323
836323
836323
836323
836323
836323
836323
836323
836323
836324
836324
836324
836323
836323
836323
836323
836323
836323
836323
836323
836323
836323
836323
836323
836323
836323
836323
836323
836324
836324
836324
836324
836324
836323
836323
836323
836323
836323
836323
836324
836324
836324
836324
836324
836324
836324
836324
836324
836324
836324
836324
836324
836324
836324
836324
836324
836324
836324
836324
836324
836324
836324
836324
836324
836324
836324
836324
836324
836324
836324
836325
836324
836324
836324
836324
836324
836324
836324
836324
836324
836324
836324
836324
836324
836324
836324
836324
836324
836324
836324
836325
836325
836324
836324
836324
836324
836324
836324
836324
836324
836324
836324
836324
836324
836324
836324
836324
836324
836324
836325
836325
836325
836324
836324
836324
836324
836324
836324
836324
836324
836324
836324
836324
836324
836324
836324
836324
836324
836325
836325
836325
836325
836325
836325
836324
836324
836325
836325
836325
836325
836325
836325
836325
836325
836325
836325
836325
836325
836325
836325
836325
836325
836325
836325
836325
836325
836325
836325
836325
836325
836325
836325
836325
836325
836325
836325
836325
836325
836325
836325
836326
836325
836325
836325
836325
836325
836325
836325
836325
836325
836325
836325
836325
836325
836325
836325
836325
836325
836325
836325
836326
836326
836325
836325
836325
836325
836325
836325
836325
836325
836325
836325
836325
836325
836325
836325
836325
836325
836325
836326
836326
836326
836325
836325
836325
836325
836325
836325
836325
836325
836325
836325
836325
836325
836325
836325
836325
836325
836326
836326
836326
836326
836326
836325
836325
836325
836325
836325
836325
836325
836325
836325
836325
836325
836325
836325
836326
836326
836326
836326
836326
836326
836326
836326
836326
836326
836326
836326
836326
836326
836326
836326
836326
836326
836326
836326
836326
836326
836326
836326
836327
836326
836326
836326
836326
836326
836326
836326
836326
836326
836326
836326
836326
836326
836326
836326
836326
836326
836326
836326
836327
836326
836326
836326
836326
836326
836326
836326
836326
836326
836326
836326
836326
836326
836326
836326
836326
836326
836326
836327
836327
836327
836326
836326
836326
836326
836326
836326
836326
836326
836326
836326
836326
836326
836326
836326
836326
836326
836327
836327
836327
836327
836326
836326
836326
836326
836326
836326
836326
836326
836326
836326
836326
836326
836327
836327
836327
836327
836327
836327
836328
836327
836326
836326
836326
836326
836326
836326
836326
836326
836327
836327
836327
836327
836327
836327
836327
836327
836327
836327
836328
836327
836326
836326
836326
836326
836326
836326
836327
836327
836327
836327
836327
836327
836327
836327
836327
836327
836327
836328
836328
836327
836327
836326
836326
836326
836327
836327
836327
836327
836327
836327
836327
836327
836327
836327
836327
836327
836327
836328
836328
836327
836327
836326
836327
836327
836327
836327
836327
836327
836327
836327
836327
836327
836327
836327
836327
836328
836328
836328
836328
836327
836327
836327
836327
836327
836327
836327
836327
836327
836327
836327
836327
836327
836328
836328
836328
836328
836328
836328
836329
836327
836327
836327
836327
836327
836327
836327
836327
836327
836327
836327
836328
836328
836328
836328
836328
836328
836328
836328
836329
836327
836327
836327
836327
836327
836327
836327
836327
836327
836328
836328
836328
836328
836328
836328
836328
836328
836328
836329
836329
836328
836327
836327
836327
836327
836327
836327
836328
836328
836328
836328
836328
836328
836328
836328
836328
836328
836328
836329
836329
836328
836327
836327
836327
836327
836328
836328
836328
836328
836328
836328
836328
836328
836328
836328
836328
836328
836329
836329
836329
836328
836328
836328
836328
836328
836328
836328
836328
836328
836328
836328
836328
836328
836328
836328
836328
836329
836329
836329
836330
836328
836328
836328
836328
836328
836328
836328
836328
836328
836328
836328
836328
836328
836328
836329
836329
836329
836329
836329
836330
836329
836328
836328
836328
836328
836328
836328
836328
836328
836328
836328
836328
836329
836329
836329
836329
836329
836329
836329
836330
836329
836328
836328
836328
836328
836328
836328
836328
836328
836328
836329
836329
836329
836329
836329
836329
836329
836329
836330
836330
836329
836329
836328
836328
836328
836328
836328
836329
836329
836329
836329
836329
836329
836329
836329
836329
836329
836329
836330
836330
836329
836329
836329
836329
836329
836329
836329
836329
836329
836329
836329
836329
836329
836329
836329
836329
836329
836330
836330
836330
836329
836329
836329
836329
836329
836329
836329
836329
836329
836329
836329
836329
836329
836329
836329
836329
836330
836330
836330
836331
836329
836329
836329
836329
836329
836329
836329
836329
836329
836329
836329
836329
836329
836330
836330
836330
836330
836330
836330
836331
836330
836329
836329
836329
836329
836329
836329
836329
836329
836329
836329
836330
836330
836330
836330
836330
836330
836330
836330
836331
836330
836329
836329
836329
836329
836329
836329
836329
836330
836330
836330
836330
836330
836330
836330
836330
836330
836330
836330
836331
836330
836330
836329
836329
836329
836330
836330
836330
836330
836330
836330
836330
836330
836330
836330
836330
836330
836330
836331
836331
836330
836330
836330
836330
836330
836330
836330
836330
836330
836330
836330
836330
836330
836330
836330
836330
836330
836331
836331
836331
836330
836330
836330
836330
836330
836330
836330
836330
836330
836330
836330
836330
836330
836330
836330
836330
836330
836331
836331
836331
836330
836330
836330
836330
836330
836330
836330
836330
836330
836330
836330
836330
836330
836330
836330
836331
836331
836331
836331
836332
836331
836330
836330
836330
836330
836330
836330
836330
836330
836330
836330
836330
836331
836331
836331
836331
836331
836331
836331
836332
836331
836330
836330
836330
836330
836330
836330
836330
836331
836331
836331
836331
836331
836331
836331
836331
836331
836331
836331
836332
836331
836331
836330
836330
836330
836331
836331
836331
836331
836331
836331
836331
836331
836331
836331
836331
836331
836331
836331
836332
836331
836331
836331
836331
836331
836331
836331
836331
836331
836331
836331