/*--------------------------------*- C++ -*----------------------------------*\
  =========                 |
  \\      /  F ield         | OpenFOAM: The Open Source CFD Toolbox
   \\    /   O peration     | Website:  https://openfoam.org
    \\  /    A nd           | Version:  8
     \\/     M anipulation  |
\*---------------------------------------------------------------------------*/
FoamFile
{
    version     2.0;
    format      ascii;
    class       volScalarField;
    location    "1000";
    object      p_rgh;
}
// * * * * * * * * * * * * * * * * * * * * * * * * * * * * * * * * * * * * * //

dimensions      [1 -1 -2 0 0 0 0];

internalField   nonuniform List<scalar> 
1200
(
559.526
351.745
263.823
233.518
213.336
196.41
182.777
171.47
161.654
152.949
145.142
138.09
131.684
125.832
120.456
115.495
110.897
106.622
102.629
98.8846
95.3603
92.0301
88.8676
85.8505
82.9635
80.1909
77.5151
74.923
72.4048
69.9489
67.5452
65.1863
62.8644
60.5726
58.3056
56.0591
53.8281
51.6072
49.3919
47.1799
44.9689
42.7557
40.5389
38.3171
36.0874
33.8462
31.5915
29.324
27.0446
24.7511
22.4409
20.1132
17.7681
15.4061
13.0266
10.6264
8.19836
5.72224
3.157
-0.186979
117.319
142.779
149.125
155.041
156.03
153.208
148.986
144.274
139.373
134.481
129.717
125.142
120.786
116.649
112.72
108.985
105.431
102.044
98.8091
95.7109
92.7373
89.8769
87.1155
84.4408
81.8455
79.3211
76.8566
74.4444
72.0788
69.7524
67.4584
65.1923
62.9486
60.7224
58.5104
56.3097
54.1167
51.9272
49.7377
47.5467
45.3525
43.1518
40.943
38.7262
36.4993
34.2595
32.0049
29.7365
27.4554
25.1596
22.8465
20.5157
18.1672
15.8016
13.4185
11.0156
8.58814
6.12653
3.61519
0.931671
188.737
246.428
252.96
239.745
224.658
209.997
196.245
183.714
172.426
162.274
153.12
144.852
137.372
130.584
124.399
118.739
113.541
108.751
104.319
100.199
96.3532
92.7488
89.3536
86.1403
83.0876
80.1751
77.3826
74.6942
72.0962
69.5748
67.1185
64.7177
62.3627
60.0454
57.7592
55.4986
53.2578
51.0308
48.8125
46.6001
44.3905
42.1795
39.9648
37.7454
35.5187
33.2814
31.0316
28.7696
26.496
24.2083
21.9043
19.5832
17.2452
14.8904
12.5184
10.1282
7.71829
5.29236
2.87773
0.622294
189.232
211.578
204.933
187.245
173.405
163.13
154.525
147.081
140.593
134.815
129.56
124.717
120.219
116.015
112.062
108.325
104.781
101.41
98.1948
95.1174
92.1629
89.3184
86.5716
83.9116
81.3297
78.8168
76.3636
73.9628
71.6077
69.2912
67.0075
64.7516
62.5176
60.301
58.0983
55.9061
53.7209
51.5386
49.3562
47.172
44.9838
42.7893
40.5883
38.3797
36.161
33.9296
31.6841
29.4251
27.1527
24.8645
22.5587
20.2351
17.8941
15.5358
13.16
10.7671
8.35843
5.94596
3.56934
1.4167
192.832
212.262
215.757
206.293
196.197
186.853
177.377
168.078
159.35
151.275
143.828
136.976
130.681
124.895
119.563
114.634
110.062
105.808
101.836
98.1117
94.6033
91.286
88.1366
85.1342
82.2612
79.5012
76.839
74.2622
71.7588
69.3178
66.9304
64.5885
62.2834
60.0084
57.7582
55.5275
53.3112
51.1044
48.9031
46.7049
44.5065
42.305
40.0993
37.8875
35.6667
33.4347
31.1899
28.9326
26.6623
24.3764
22.0735
19.7534
17.4162
15.0619
12.6902
10.3023
7.90151
5.50501
3.1668
1.12369
192.828
212.257
215.749
206.282
196.183
186.84
177.367
168.075
159.348
151.274
143.828
136.978
130.682
124.895
119.563
114.633
110.06
105.805
101.832
98.1066
94.5979
91.2801
88.1303
85.128
82.255
79.4948
76.8327
74.2562
71.7527
69.3114
66.924
64.5821
62.2771
60.0023
57.7523
55.5216
53.305
51.0978
48.8964
46.6981
44.4995
42.2979
40.092
37.8799
35.659
33.4271
31.1828
28.9263
26.6565
24.3713
22.0695
19.7507
17.4151
15.0621
12.6915
10.3046
7.90459
5.50834
3.16877
1.12295
189.222
211.572
204.93
187.243
173.4
163.118
154.511
147.072
140.582
134.798
129.543
124.701
120.201
115.995
112.041
108.305
104.761
101.391
98.1761
95.0997
92.1459
89.3017
86.5556
83.8968
81.3154
78.8021
76.3493
73.9493
71.594
69.2768
66.9932
64.7378
62.5046
60.2891
58.0877
55.8965
53.7116
51.5294
49.348
47.1652
44.9781
42.7849
40.5846
38.3755
36.1553
33.9229
31.6775
29.4193
27.147
24.8585
22.5527
20.2298
17.8896
15.5313
13.1549
10.7609
8.35116
5.9371
3.55743
1.40275
188.713
246.396
252.92
239.707
224.622
209.962
196.225
183.713
172.431
162.271
153.118
144.851
137.365
130.57
124.379
118.717
113.519
108.729
104.298
100.181
96.3372
92.7335
89.3398
86.1293
83.0784
80.1661
77.3748
74.688
72.0898
69.5674
67.1112
64.7109
62.3567
60.0405
57.7556
55.4956
53.2543
51.0264
48.8085
46.5971
44.3879
42.178
39.9657
37.7481
35.5221
33.2847
31.0358
28.7754
26.5018
24.2128
21.9076
19.5862
17.2481
14.8922
12.5181
10.1256
7.71366
5.28593
2.86882
0.611134
117.291
142.758
149.094
155.002
155.986
153.157
148.943
144.244
139.344
134.447
129.687
125.12
120.764
116.624
112.694
108.959
105.405
102.018
98.7847
95.6889
92.7172
89.8571
87.0965
84.4245
81.8307
79.3059
76.8424
74.4323
72.0668
69.7394
67.446
65.1813
62.9394
60.7156
58.5062
56.3077
54.1156
51.9266
49.7391
47.5509
45.3587
43.1608
40.956
38.7421
36.5167
34.2771
32.0243
29.7585
27.478
25.1808
22.8668
20.5362
18.1882
15.822
13.4368
11.0315
8.60167
6.13752
3.6209
0.929212
559.47
351.749
263.814
233.508
213.329
196.401
182.782
171.492
161.678
152.964
145.161
138.114
131.705
125.848
120.471
115.51
110.915
106.643
102.654
98.9146
95.3944
92.0666
88.9074
85.8955
83.012
80.2406
77.5674
74.9789
72.4616
70.0054
67.6032
65.2465
62.9272
60.6383
58.3745
56.1304
53.9004
51.68
49.4668
47.2577
45.0484
42.837
40.6213
38.3989
36.1671
33.9248
31.6717
29.407
27.1285
24.8341
22.5233
20.1966
17.8527
15.4907
13.1096
10.7076
8.27801
5.79996
3.22846
-0.128565
558.886
351.669
263.747
233.453
213.328
196.425
182.818
171.543
161.737
153.019
145.204
138.146
131.725
125.853
120.463
115.497
110.899
106.625
102.634
98.8931
95.3696
92.0361
88.872
85.8577
82.9714
80.196
77.5196
74.9289
72.4105
69.9549
67.5535
65.1969
62.8777
60.5897
58.3261
56.0808
53.8491
51.628
49.4147
47.2046
44.994
42.7817
40.5651
38.3408
36.1076
33.8656
31.614
29.3493
27.0686
24.7721
22.4607
20.1337
17.7897
15.4273
13.0451
10.643
8.21778
5.74835
3.18676
-0.163231
117.248
142.745
149.002
154.947
156.005
153.215
149.016
144.327
139.43
134.524
129.75
125.17
120.799
116.641
112.696
108.952
105.395
102.005
98.7694
95.673
92.6999
89.8367
87.0739
84.4017
81.8072
79.2803
76.8151
74.4036
72.0372
69.7102
67.4173
65.1521
62.9099
60.6866
58.4771
56.277
54.0831
51.8934
49.706
47.5172
45.3241
43.1249
40.9169
38.6981
36.4684
34.2283
31.9771
29.7118
27.4296
25.1312
22.8173
20.4873
18.14
15.7739
13.3883
10.9834
8.55831
6.10349
3.59695
0.914323
188.616
246.106
252.546
239.397
224.423
209.848
196.158
183.677
172.419
162.277
153.136
144.879
137.396
130.596
124.398
118.731
113.53
108.736
104.299
100.177
96.3299
92.7225
89.3262
86.115
83.0632
80.1494
77.357
74.6691
72.0704
69.5487
67.0928
64.6919
62.3375
60.0218
57.7371
55.4764
53.2343
51.0069
48.7906
46.5803
44.3722
42.1635
39.9501
37.7295
35.5007
33.2637
31.0172
28.7578
26.4829
24.1929
21.8882
19.5679
17.2306
14.8749
12.5004
10.1079
7.6998
5.28012
2.87026
0.615898
189.144
211.469
204.84
187.207
173.431
163.187
154.585
147.14
140.644
134.855
129.595
124.752
120.248
116.03
112.061
108.314
104.763
101.386
98.1646
95.0831
92.127
89.2823
86.5371
83.8809
81.3017
78.7902
76.339
73.9397
71.5849
69.2688
66.9853
64.7284
62.4941
60.278
58.0754
55.8821
53.6952
51.5124
49.3315
47.1491
44.9628
42.7716
40.5728
38.364
36.1446
33.9144
31.6724
29.4155
27.1416
24.8513
22.5452
20.2225
17.8819
15.5227
13.1448
10.7497
8.34248
5.93603
3.56479
1.413
192.745
212.136
215.589
206.147
196.118
186.825
177.362
168.064
159.34
151.272
143.836
136.997
130.709
124.92
119.579
114.642
110.064
105.804
101.823
98.091
94.5793
91.2609
88.112
85.112
82.2411
79.4828
76.8227
74.2469
71.7439
69.3035
66.9157
64.572
62.2656
59.9901
57.7389
55.5065
53.2885
51.0814
48.8816
46.6849
44.4887
42.2907
40.0875
37.8762
35.6557
33.4255
31.1841
28.9283
26.6566
24.3692
22.0663
19.7471
17.4101
15.0548
12.6815
10.2916
7.89195
5.5009
3.16764
1.12393
192.747
212.136
215.586
206.139
196.108
186.815
177.35
168.05
159.327
151.262
143.828
136.991
130.705
124.918
119.579
114.642
110.064
105.802
101.821
98.088
94.5758
91.2571
88.108
85.1074
82.2362
79.4779
76.8175
74.2414
71.7383
69.298
66.9099
64.5658
62.2591
59.983
57.7312
55.4983
53.28
51.0728
48.8726
46.6753
44.4786
42.2802
40.0764
37.865
35.6449
33.4156
31.1746
28.9194
26.6487
24.363
22.062
19.7445
17.4091
15.0557
12.6845
10.2964
7.89802
5.50721
3.17237
1.12555
189.151
211.476
204.845
187.211
173.432
163.186
154.577
147.118
140.616
134.829
129.569
124.725
120.226
116.015
112.051
108.306
104.757
101.38
98.1577
95.0749
92.1179
89.2729
86.5271
83.8694
81.2894
78.7781
76.3264
73.9264
71.572
69.2568
66.9734
64.7165
62.4821
60.2656
58.0627
55.8695
53.6835
51.5021
49.3217
47.1394
44.9539
42.763
40.564
38.3553
36.1362
33.9065
31.664
29.4064
27.133
24.8443
22.5396
20.2176
17.8775
15.5192
13.1427
10.7486
8.34125
5.93281
3.55768
1.40284
188.625
246.09
252.521
239.369
224.396
209.825
196.129
183.639
172.384
162.251
153.11
144.853
137.377
130.585
124.392
118.727
113.527
108.733
104.296
100.173
96.3251
92.718
89.3213
86.1083
83.0555
80.1422
77.3492
74.66
72.0617
69.5411
67.0851
64.6836
62.3284
60.0115
57.7255
55.4641
53.2224
50.996
48.7793
46.5681
44.3602
42.1521
39.9405
37.7232
35.4987
33.2645
31.0185
28.7587
26.4846
24.1964
21.8931
19.5731
17.2357
14.8806
12.5076
10.116
7.70746
5.28534
2.8716
0.612972
117.306
142.779
149.023
154.944
155.989
153.194
148.976
144.266
139.367
134.473
129.704
125.127
120.767
116.623
112.688
108.95
105.395
102.006
98.7697
95.6709
92.6962
89.8329
87.0692
84.3944
81.7987
79.2728
76.8073
74.3947
72.0295
69.7048
67.4126
65.1474
62.9052
60.6813
58.4713
56.2714
54.079
51.8914
49.7046
47.5158
45.3239
43.1265
40.9213
38.7069
36.4824
34.2459
31.9954
29.7296
27.4484
25.1524
22.8405
20.5111
18.1639
15.7988
13.4152
11.0117
8.58622
6.12817
3.61481
0.922182
558.885
351.672
263.742
233.44
213.314
196.416
182.799
171.51
161.709
153.006
145.197
138.143
131.733
125.875
120.495
115.535
110.941
106.668
102.678
98.9354
95.4114
92.079
88.9152
85.8992
83.0129
80.2398
77.5642
74.9733
72.4573
70.005
67.6053
65.2495
62.931
60.6432
58.3799
56.1355
53.9061
51.688
49.476
47.2666
45.058
42.8471
40.6313
38.4087
36.1784
33.9397
31.6892
29.4245
27.1457
24.8528
22.5444
20.2188
17.8757
15.515
13.1356
10.7355
8.31029
5.83759
3.26744
-0.0967166
)
;

boundaryField
{
    wall
    {
        type            fixedFluxPressure;
        gradient        nonuniform List<scalar> 
1200
(
128.203
14.1406
24.4091
17.7376
17.3901
16.1047
14.1211
17.5333
-2.96278
116.993
15.1813
6.95516
64.6095
21.7373
25.2034
24.1542
19.2771
61.1009
-4.17864
15.4323
15.0578
24.5023
82.9231
18.7154
33.5376
32.6939
17.0043
79.7829
14.2105
14.344
12.9931
18.8551
69.5632
7.58644
29.3477
28.5937
6.40492
67.5642
11.5782
13.6005
1.68465
5.15244
47.0833
-5.15599
15.7618
14.9767
-6.43102
45.1386
-0.62044
2.84593
-3.10573
-1.3411
29.7911
-11.2175
5.58414
4.94971
-13.6742
27.3465
-7.33329
-2.88413
-8.19526
-5.78105
17.5129
-11.9623
3.08731
3.45722
-13.4024
19.0511
-6.54707
-3.28186
-14.7063
-10.6321
7.38723
-11.7943
2.92992
4.82982
-9.17653
14.7995
-4.30091
-3.59134
-16.5409
-11.5096
1.37906
-10.3363
2.02688
4.26109
-6.91802
9.31249
-4.73341
-6.34304
-14.0218
-8.5953
-0.781641
-7.95692
0.618157
2.30219
-6.18465
4.13214
-5.24252
-8.29
-12.4423
-6.81326
-3.10025
-7.01251
-1.64173
0.00750585
-5.25758
1.48175
-3.33158
-7.17011
-11.369
-5.74659
-5.26675
-7.02586
-4.29846
-2.57418
-4.91226
-0.419389
-1.37806
-5.76794
-8.19749
-2.66332
-4.86516
-5.7602
-5.69484
-4.48569
-4.98302
-2.35878
-0.62208
-5.53759
-4.13812
1.56714
-2.46803
-2.97842
-5.06173
-4.52884
-3.98948
-3.03989
0.214557
-5.3286
-1.29863
4.94327
0.0669339
0.105448
-3.18156
-3.07556
-1.93676
-2.45405
1.35148
-4.92325
-0.366846
6.56777
1.50547
2.17059
-1.62092
-1.7626
-0.318344
-1.98696
1.82446
-5.07865
-0.38809
7.19951
2.24829
3.40831
-0.504838
-0.801331
0.79069
-1.61479
1.99342
-5.30596
-0.411941
7.78436
3.15854
4.71971
0.942331
0.527838
2.09507
-0.801432
2.40547
-5.14464
-0.869653
7.94916
3.95507
6.03009
2.69362
2.24572
3.64785
0.379586
2.9975
-4.73288
-1.69707
7.58925
4.33054
6.86941
4.1156
3.72092
4.95746
1.54638
3.60674
-4.17323
-1.86686
7.49255
4.68183
7.18147
4.80367
4.42762
5.59211
2.41424
4.18717
-3.43005
-1.20138
8.06247
5.26502
7.24527
5.03126
4.59364
5.75616
3.09973
4.81698
-2.50197
-0.889417
8.33034
5.50407
6.91717
4.9292
4.47385
5.69763
3.68468
5.42414
-1.59398
-1.45092
7.81698
5.07098
6.16089
4.47044
4.13022
5.50137
4.18817
5.98095
-0.785592
-1.59496
7.67115
4.88835
5.60381
4.05238
3.78188
5.21016
4.56968
6.3875
-0.208597
-1.02684
8.16788
5.1585
5.33735
3.70125
3.39625
4.82189
4.76552
6.60159
0.118023
-0.917915
8.29222
5.13854
4.92968
3.28217
3.05216
4.57557
5.10859
7.00756
0.617203
-1.1777
8.15998
5.01065
4.61823
3.06028
2.96706
4.57977
5.58945
7.51961
1.10842
-1.12561
8.34574
5.16207
4.56223
2.98161
2.8787
4.3877
5.61191
7.4425
0.858177
-1.18569
8.44257
5.2311
4.46645
2.84335
2.67799
3.98901
5.25938
6.91383
0.0833588
-1.63166
8.24299
5.15862
4.44417
2.93042
2.7989
3.94743
5.20884
6.67983
-0.412201
-2.09737
8.05619
5.17405
4.62747
3.29152
3.23813
4.24793
5.46734
6.77379
-0.575789
-2.64005
7.7553
5.05758
4.69535
3.53648
3.58019
4.48439
5.65571
6.83747
-0.751678
-3.41211
7.19412
4.70614
4.586
3.64499
3.83565
4.67639
5.78313
6.85679
-0.967347
-4.0899
6.68945
4.42772
4.57556
3.85197
4.19798
4.9874
6.00227
6.98596
-1.06672
-4.34778
6.53882
4.4445
4.78988
4.19561
4.64359
5.37616
6.29777
7.24967
-1.00432
-4.20909
6.72297
4.7054
5.14015
4.54791
4.99055
5.60423
6.38413
7.31686
-1.13198
-4.1656
6.77116
4.77307
5.24228
4.59648
4.98853
5.46874
6.0914
7.01926
-1.60439
-4.57727
6.34194
4.37743
4.92688
4.3098
4.766
5.25967
5.85256
6.88661
-1.84373
-4.95592
5.90452
3.95855
4.583
4.01561
4.58555
5.17381
5.80691
7.0133
-1.79063
-5.04038
5.68126
3.64043
4.20466
3.57666
4.19338
4.86535
5.54894
6.95259
-1.90832
-5.23134
5.37581
3.19158
3.56158
2.86543
3.55625
4.38186
5.19103
6.85359
-2.02977
-5.27759
5.21966
2.93008
3.11901
2.37408
3.14089
4.12061
5.0365
6.93311
-1.99398
-4.7737
5.59725
3.17721
3.13681
2.27048
3.01231
4.05379
4.98976
7.0543
-1.95781
-4.06797
6.16834
3.58446
3.27561
2.21664
2.82689
3.8351
4.70506
6.8703
-2.25148
-3.91168
6.22501
3.53911
3.04526
1.84526
2.32079
3.2781
4.04264
6.26002
-2.96627
-4.52649
5.54406
2.86926
2.34898
1.16902
1.64962
2.69734
3.4566
5.78445
-3.47774
-5.0923
4.93229
2.35062
1.9216
0.849822
1.38183
2.58198
3.34882
5.78432
-3.49478
-4.82381
5.13927
2.59097
2.21429
1.14628
1.57069
2.82175
3.47204
5.92656
-3.4077
-4.2058
5.67454
3.07748
2.6261
1.44245
1.65626
2.84527
3.28603
5.69419
-3.71642
-3.99011
5.82935
3.20334
2.6896
1.42997
1.48708
2.63936
2.90215
5.27777
-4.18409
-4.09703
5.67597
3.05408
2.51585
1.25081
1.24706
2.44755
2.62815
5.03807
-4.42052
-4.32797
5.44486
2.91447
2.43055
1.22208
1.18794
2.41787
2.48875
4.88937
-4.57741
-4.2536
5.52231
3.07363
2.60652
1.39882
1.26049
2.42589
2.32008
4.6473
-4.84495
-3.71198
6.04005
3.58559
3.02852
1.72355
1.39808
2.42272
2.11835
4.34697
-5.16069
-3.33578
6.45079
4.05024
3.47277
2.12857
1.63095
2.46838
1.92785
3.98476
-5.55676
-3.88362
5.96956
3.69636
3.18643
1.90436
1.30877
1.98401
1.24733
3.10548
-6.43712
-5.22232
4.60937
2.44629
1.98209
0.814921
0.222145
0.860197
0.120417
1.88125
-7.51511
-5.95729
3.64618
1.49325
0.907236
-0.173749
-0.727766
-0.0495055
-0.55972
1.22131
-7.79165
-4.75087
3.47088
1.282
0.740903
-0.0516056
-0.524451
-0.019847
-0.374294
1.40358
-6.37492
-128.203
-14.1406
-24.4091
-17.7376
-17.3901
-16.1047
-14.1211
-17.5333
2.96278
-116.993
-15.1807
-6.95464
-64.6093
-21.7372
-25.2034
-24.1543
-19.2772
-61.101
4.17855
-15.4326
-15.0555
-24.5001
-82.9224
-18.7151
-33.5376
-32.6941
-17.0045
-79.783
-14.2104
-14.344
-12.9899
-18.8514
-69.5617
-7.58546
-29.347
-28.5933
-6.40468
-67.5639
-11.5774
-13.5996
-1.68158
-5.14779
-47.0806
5.15812
-15.7595
-14.9748
6.43227
-45.1377
0.621363
-2.84583
3.1083
1.34605
-29.7878
11.2203
-5.58078
-4.9468
13.676
-27.3452
7.33401
2.88338
8.19848
5.78632
-17.5093
11.9649
-3.08402
-3.45449
13.4039
-19.05
6.54759
3.28117
14.7111
10.638
-7.38355
11.7965
-2.92745
-4.82807
9.17745
-14.7989
4.30137
3.59133
16.5464
11.5157
-1.37548
10.3383
-2.02524
-4.26022
6.91836
-9.31211
4.73397
6.34388
14.0262
8.60107
0.784845
7.95862
-0.616977
-2.3017
6.18477
-4.13182
5.24323
8.2913
12.4447
6.8184
3.10298
7.01409
1.64284
-0.00695008
5.25776
-1.48142
3.33224
7.171
11.3692
5.75102
5.26905
7.02747
4.29975
2.57506
4.91268
0.419727
1.37851
5.76791
8.19524
2.66697
4.86699
5.76183
5.69635
4.48694
4.98376
2.3592
0.622384
5.53682
4.13366
-1.56426
2.46935
2.97995
5.06331
4.53033
3.99045
3.04041
-0.214299
5.32755
1.29267
-4.941
-0.0660739
-0.104125
3.18302
3.07706
1.93781
2.45462
-1.35118
4.92239
0.360269
-6.56588
-1.50495
-2.16953
1.62211
1.76394
0.319304
1.98755
-1.82404
5.07841
0.381608
-7.19779
-2.24799
-3.40752
0.505692
0.80241
-0.789892
1.61538
-1.99283
5.30654
0.405988
-7.78268
-3.15837
-4.71918
-0.94184
-0.52707
-2.09448
0.801996
-2.40473
5.14597
0.864458
-7.94744
-3.95497
-6.02978
-2.69349
-2.24527
-3.6475
-0.379074
-2.99664
4.73476
1.6927
-7.58746
-4.33045
-6.86927
-4.11576
-3.72075
-4.95731
-1.54594
-3.60583
4.17538
1.86313
-7.4907
-4.6817
-7.18142
-4.80401
-4.42763
-5.59211
-2.41386
-4.18628
3.43206
1.19794
-8.06063
-5.26484
-7.24522
-5.03164
-4.5937
-5.75622
-3.09943
-4.81619
2.50344
0.885983
-8.32855
-5.50382
-6.91704
-4.92952
-4.47386
-5.6977
-3.68446
-5.42351
1.59461
1.44738
-7.81524
-5.07065
-6.16065
-4.47063
-4.13013
-5.5014
-4.18804
-5.98052
0.785203
1.59125
-7.66947
-4.88793
-5.60343
-4.0524
-3.78165
-5.21014
-4.56963
-6.38729
0.207161
1.02285
-8.16627
-5.15802
-5.33685
-3.7011
-3.39587
-4.82182
-4.76556
-6.6016
-0.120432
0.913674
-8.29067
-5.13801
-4.92906
-3.28186
-3.05166
-4.57546
-5.10871
-7.00777
-0.62045
1.17337
-8.15848
-5.01008
-4.61752
-3.05984
-2.96647
-4.57964
-5.58966
-7.52
-1.11232
1.12134
-8.34425
-5.16146
-4.56146
-2.98109
-2.87807
-4.38759
-5.61219
-7.44302
-0.862457
1.18161
-8.44107
-5.23046
-4.46567
-2.84281
-2.67737
-3.98894
-5.25972
-6.91443
-0.0877112
1.62795
-8.24146
-5.15796
-4.44339
-2.9299
-2.79834
-3.94741
-5.20922
-6.68047
0.407996
2.09417
-8.05459
-5.17337
-4.62673
-3.29107
-3.23767
-4.248
-5.46776
-6.77446
0.571861
2.63744
-7.75362
-5.05688
-4.69466
-3.53612
-3.57985
-4.48457
-5.65617
-6.83815
0.748116
3.41011
-7.19234
-4.70542
-4.58537
-3.64473
-3.83543
-4.67667
-5.78362
-6.85746
0.964201
4.08846
-6.68758
-4.42698
-4.57499
-3.85181
-4.19789
-4.98778
-6.00277
-6.98662
1.06399
4.34676
-6.53687
-4.44375
-4.78937
-4.19553
-4.64361
-5.37662
-6.29828
-7.25032
1.00197
4.20831
-6.72098
-4.70466
-5.13969
-4.5479
-4.99065
-5.60475
-6.38464
-7.3175
1.12995
4.16488
-6.76914
-4.77234
-5.24187
-4.59652
-4.98869
-5.46929
-6.09188
-7.01989
1.60263
4.57645
-6.33992
-4.37671
-4.92648
-4.30985
-4.76617
-5.26023
-5.85302
-6.88723
1.84215
4.95482
-5.90251
-3.95784
-4.5826
-4.01565
-4.58571
-5.17437
-5.80734
-7.01393
1.78912
5.03885
-5.6793
-3.63972
-4.20425
-3.57667
-4.1935
-4.86588
-5.54934
-6.95324
1.90681
5.2292
-5.37392
-3.19089
-3.56114
-2.86537
-3.5563
-4.38235
-5.19138
-6.85426
2.02821
5.27477
-5.21785
-2.92942
-3.11854
-2.37395
-3.14086
-4.12104
-5.03682
-6.9338
1.99238
4.77011
-5.59554
-3.17659
-3.13631
-2.27029
-3.0122
-4.05417
-4.99004
-7.055
1.95619
4.06356
-6.16676
-3.5839
-3.27509
-2.21639
-2.82671
-3.83542
-4.7053
-6.87101
2.24991
3.90649
-6.22355
-3.53859
-3.04473
-1.84496
-2.32054
-3.27837
-4.04283
-6.26072
2.96487
4.52064
-5.5427
-2.8688
-2.34844
-1.16868
-1.64931
-2.69756
-3.45673
-5.78513
3.47658
5.08589
-4.93103
-2.3502
-1.92106
-0.849454
-1.38146
-2.58216
-3.34891
-5.78496
3.49388
4.81688
-5.13809
-2.5906
-2.21377
-1.1459
-1.5703
-2.8219
-3.47209
-5.92716
3.40712
4.19838
-5.67345
-3.07716
-2.62561
-1.44209
-1.65586
-2.8454
-3.28603
-5.69474
3.71623
3.98227
-5.82834
-3.20308
-2.68914
-1.42963
-1.48667
-2.63948
-2.90209
-5.27825
4.18438
4.08888
-5.67503
-3.05387
-2.51544
-1.25049
-1.24667
-2.44765
-2.62805
-5.03848
4.4213
4.31961
-5.44397
-2.91431
-2.43019
-1.2218
-1.18756
-2.41797
-2.48861
-4.88971
4.5787
4.2451
-5.52147
-3.07351
-2.60621
-1.39859
-1.26013
-2.42598
-2.31989
-4.64756
4.84677
3.70338
-6.03925
-3.58552
-3.02827
-1.72338
-1.39776
-2.42281
-2.11812
-4.34714
5.16304
3.32715
-6.45004
-4.05021
-3.47257
-2.12846
-1.63067
-2.46847
-1.92759
-3.98486
5.55964
3.87505
-5.96884
-3.69637
-3.18627
-1.90431
-1.30853
-1.98411
-1.24704
-3.1055
6.44051
5.2139
-4.60865
-2.44631
-1.98197
-0.814903
-0.221937
-0.860282
-0.120107
-1.8812
7.51895
5.94903
-3.64547
-1.49327
-0.907132
0.17374
0.727951
0.0494291
0.560047
-1.2212
7.79582
4.7427
-3.47017
-1.28203
-0.740811
0.0515731
0.524612
0.0197751
0.374621
-1.40343
6.37924
)
;
        value           nonuniform List<scalar> 
1200
(
559.847
117.354
188.799
189.277
192.875
192.868
189.257
188.757
117.284
559.763
351.783
142.797
246.59
211.632
212.325
212.317
211.62
246.549
142.747
351.788
263.86
149.186
253.167
204.98
215.841
215.831
204.973
253.119
149.129
263.85
233.551
155.089
239.919
187.264
206.367
206.354
187.259
239.876
155.031
233.542
213.34
156.043
224.776
173.392
196.236
196.22
173.384
224.735
155.984
213.336
196.402
153.205
210.072
163.102
186.867
186.852
163.083
210.03
153.139
196.394
182.757
148.972
196.289
154.495
177.385
177.376
154.477
196.272
148.927
182.774
171.433
144.247
183.732
147.051
168.086
168.087
147.049
183.75
144.233
171.483
161.613
139.344
172.43
140.567
159.355
159.359
140.564
172.454
139.332
161.662
152.914
134.459
162.272
134.795
151.277
151.28
134.783
162.282
134.434
152.944
145.111
129.699
153.112
129.543
143.824
143.828
129.53
153.121
129.679
145.143
138.061
125.127
144.839
124.699
136.965
136.971
124.689
144.85
125.117
138.099
131.663
120.779
137.36
120.205
130.666
130.671
120.189
137.36
120.762
131.691
125.822
116.653
130.578
116.008
124.882
124.884
115.985
130.562
116.625
125.835
120.453
112.733
124.399
112.062
119.555
119.556
112.036
124.373
112.698
120.459
115.494
109.001
118.742
108.33
114.63
114.629
108.304
118.712
108.964
115.497
110.896
105.449
113.547
104.789
110.061
110.058
104.763
113.515
105.41
110.902
106.621
102.063
108.759
101.422
105.811
105.806
101.396
108.727
102.024
106.63
102.627
98.829
104.329
98.2099
101.843
101.838
98.1851
104.299
98.7922
102.642
98.8804
95.7299
100.21
95.1346
98.1219
98.1159
95.1121
100.185
95.6979
98.9041
95.3556
92.7561
96.365
92.1809
94.6154
94.609
92.1599
96.3432
92.7277
95.3857
92.0271
89.8971
92.762
89.3366
91.2986
91.2916
89.3161
92.7413
89.869
92.0603
88.8654
87.1364
89.3674
86.589
88.149
88.1415
86.5699
89.349
87.1099
88.9033
85.8468
84.4603
86.153
83.927
85.1454
85.1383
83.9106
86.1397
84.4393
85.8934
82.9595
81.8647
83.0999
81.3437
82.2714
82.2645
81.3284
83.0898
81.8466
83.0114
80.1883
79.3415
80.1881
78.8302
79.5105
79.5033
78.8142
80.178
79.3223
80.2408
77.5128
76.8773
77.3955
76.376
76.8473
76.8404
76.3607
77.3875
76.8599
77.5688
74.9201
74.4648
74.7067
73.9744
74.2699
74.2636
73.9607
74.7019
74.4511
74.9816
72.402
72.0997
72.1091
71.6192
71.7663
71.7599
71.6049
72.1038
72.0853
72.4637
69.946
69.7735
69.5879
69.3023
69.3249
69.3181
69.2867
69.5805
69.7566
70.0057
67.5412
67.4791
67.1315
67.0186
66.9377
66.931
67.003
67.1242
67.4627
67.6022
65.1811
65.2125
64.7307
64.7631
64.5967
64.5902
64.7484
64.7246
65.1982
65.2451
62.8579
62.968
62.3754
62.5293
62.2922
62.286
62.5157
62.3708
62.9564
62.9253
60.5641
60.7405
60.0571
60.3124
60.0175
60.0119
60.3007
60.0549
60.7327
60.636
58.2954
58.5272
57.7703
58.1097
57.7678
57.7627
58.1001
57.7706
58.5237
58.3718
56.0482
56.3261
55.5098
55.9181
55.538
55.5332
55.9099
55.5114
56.3258
56.1279
53.8175
54.1335
53.2696
53.7337
53.3226
53.3175
53.7256
53.2703
54.1339
53.8976
51.5968
51.9442
51.0427
51.5518
51.1159
51.1102
51.5431
51.0416
51.9441
51.676
49.3804
49.7536
48.8234
49.3685
48.9139
48.9083
49.3611
48.8231
49.7563
49.4622
47.1674
47.5615
46.61
47.1834
46.715
46.7096
47.1782
46.6117
47.5684
47.2532
44.9562
45.3667
44.3996
44.9943
44.5155
44.5101
44.9903
44.4018
45.3761
45.0437
42.7425
43.1652
42.1874
42.7983
42.3122
42.3068
42.7958
42.191
43.1779
42.8319
40.5256
40.956
39.9721
40.5962
40.1053
40.0999
40.5949
39.9783
40.9733
40.6163
38.3051
38.7401
37.7533
38.3875
37.8932
37.8875
38.3857
37.7606
38.7598
38.394
36.0771
36.5147
35.5276
36.1692
35.6723
35.6661
36.1649
35.534
36.5339
36.1615
33.8364
34.275
33.2903
33.9373
33.4394
33.4329
33.9311
33.2948
34.2928
33.9174
31.5801
32.0187
31.0387
31.69
31.1928
31.187
31.6843
31.0444
32.0388
31.663
29.3112
29.7488
28.7755
29.4299
28.9347
28.9298
29.4258
28.7838
29.7729
29.3983
27.0325
27.4682
26.5024
27.1582
26.6652
26.6604
27.1541
26.5106
27.4928
27.1201
24.7406
25.1737
24.216
24.8711
24.38
24.3755
24.8656
24.221
25.1951
24.8248
22.4309
22.8611
21.9123
22.5654
22.0771
22.0732
22.5593
21.9149
22.88
22.5129
20.103
20.5299
19.5908
20.2414
19.7565
19.7538
20.2359
19.5928
20.5488
20.1856
17.7573
18.1808
17.2524
17.9001
17.4192
17.418
17.8956
17.2543
18.2005
17.8413
15.3954
15.8154
14.898
15.5422
15.0653
15.0652
15.5374
14.898
15.8337
15.4786
13.0173
13.4336
12.5274
13.1676
12.6945
12.695
13.1609
12.5234
13.4477
13.0968
10.618
11.0318
10.1383
10.7757
10.3076
10.3086
10.7671
10.1304
11.0415
10.6938
8.18867
8.60307
7.72752
8.36639
7.90625
7.90784
8.35613
7.7168
8.60948
8.26197
5.7092
6.13806
5.29847
5.9509
5.50703
5.50888
5.93926
5.28624
6.14226
5.7812
3.14211
3.6243
2.88146
3.5716
3.16635
3.16693
3.55731
2.86741
3.62396
3.20899
-0.198843
0.940352
0.625506
1.41855
1.12355
1.12163
1.40269
0.61018
0.932715
-0.144525
558.565
117.213
188.554
189.099
192.702
192.707
189.116
188.581
117.313
558.593
351.631
142.727
245.944
211.415
212.073
212.076
211.428
245.938
142.789
351.633
263.71
148.941
252.338
204.793
215.505
215.504
204.803
252.321
148.987
263.706
233.421
154.9
239.223
187.188
206.073
206.068
187.195
239.2
154.915
233.406
213.323
155.992
224.305
173.444
196.078
196.071
173.448
224.283
155.99
213.307
196.433
153.218
209.774
163.215
186.812
186.803
163.22
209.757
153.212
196.423
182.839
149.03
196.114
154.615
177.354
177.341
154.611
196.082
148.992
182.807
171.58
144.354
183.658
147.169
168.056
168.038
147.141
183.602
144.276
171.519
161.778
139.459
172.416
140.67
159.335
159.316
140.634
172.361
139.379
161.725
153.054
134.545
162.279
134.875
151.271
151.257
134.845
162.24
134.486
153.027
145.235
129.768
153.143
129.613
143.84
143.828
129.582
153.107
129.712
145.215
138.175
125.185
144.892
124.77
137.008
136.997
124.738
144.854
125.13
138.157
131.745
120.806
137.409
120.262
130.723
130.716
120.239
137.383
120.768
131.747
125.863
116.637
130.603
116.038
124.933
124.929
116.025
130.592
116.623
125.888
120.466
112.683
124.398
112.061
119.587
119.586
112.056
124.398
112.684
120.508
115.497
108.936
118.727
108.309
114.646
114.646
108.307
118.732
108.945
115.548
110.9
105.377
113.524
104.755
110.066
110.066
104.755
113.531
105.39
110.955
106.625
101.986
108.728
101.375
105.801
105.801
101.375
108.735
102
106.681
102.636
98.7495
104.289
98.1496
101.816
101.815
98.1487
104.295
98.7622
102.689
98.8973
95.654
100.166
95.0659
98.0808
98.0787
95.0626
100.169
95.6619
98.9458
95.3743
92.6811
96.3181
92.1091
94.5673
94.5647
92.104
96.319
92.6858
95.42
92.0391
89.8165
92.7093
89.2641
91.2483
91.2456
89.2585
92.7103
89.8209
92.0853
88.8742
87.0531
89.3124
86.5198
88.0996
88.0968
86.5129
89.3121
87.0557
88.9193
85.8613
84.3822
86.1023
83.8654
85.1007
85.097
83.8556
86.0979
84.3795
85.9013
82.9754
81.788
83.051
81.2877
82.2309
82.2267
81.2763
83.0441
81.7828
83.0135
80.1986
79.2598
80.1365
78.7768
79.4735
79.4693
78.766
80.1303
79.2563
80.2396
77.5219
76.7944
77.3441
76.3266
76.8144
76.8099
76.3149
77.3364
76.7898
77.5627
74.9319
74.3832
74.6566
73.9282
74.2393
74.2339
73.9149
74.6461
74.3759
74.9705
72.4133
72.0163
72.0575
71.5735
71.7364
71.7311
71.561
72.0477
72.0109
72.4551
69.9578
69.6891
69.5356
69.2577
69.2964
69.2913
69.2468
69.5279
69.6875
70.0048
67.5575
67.3966
67.0799
66.9742
66.9084
66.903
66.9636
67.0721
67.3959
67.6063
65.202
65.1319
64.6789
64.7169
64.5638
64.5578
64.7059
64.6699
65.1305
65.2509
62.8842
62.8905
62.3248
62.4824
62.2568
62.2502
62.4709
62.3143
62.8881
62.9328
60.5982
60.6685
60.0101
60.2666
59.9811
59.9735
60.254
59.9971
60.6641
60.6456
58.3363
58.4603
57.726
58.064
57.7293
57.7208
58.0502
57.7105
58.4538
58.3825
56.0917
56.2607
55.4653
55.8702
55.496
55.4867
55.8561
55.4484
56.2533
56.1379
53.8596
54.0663
53.2226
53.6823
53.2771
53.2676
53.6695
53.2065
54.0607
53.9089
51.6385
51.8765
50.995
51.4993
51.0699
51.0603
51.4884
50.9807
51.8739
51.692
49.4262
49.6902
48.7797
49.3192
48.8708
48.8606
49.3085
48.7646
49.6874
49.4806
47.217
47.5024
46.5704
47.1376
46.6748
46.6638
47.1264
46.5536
47.4983
47.2711
45.0067
45.3099
44.3632
44.9522
44.4797
44.4681
44.9417
44.3463
45.3065
45.0627
42.7948
43.1115
42.1555
42.7626
42.2835
42.2712
42.752
42.1391
43.1094
42.8522
40.5784
40.9039
39.9428
40.565
40.0815
40.0685
40.5537
39.9279
40.904
40.6362
38.3528
38.6842
37.7216
38.3562
37.8704
37.8574
38.3451
37.7107
38.6892
38.4136
36.1178
36.453
35.4918
36.1364
35.6501
35.6378
36.1266
35.4869
36.4652
36.184
33.8755
34.2128
33.2549
33.9068
33.4209
33.4097
33.8983
33.2544
34.2302
33.9471
31.6254
31.9633
31.01
31.6665
31.1811
31.1705
31.6573
31.0099
31.981
31.6978
29.3621
29.6995
28.752
29.4107
28.9262
28.9159
29.3999
28.7503
29.7151
29.4332
27.0807
27.4168
26.4765
27.1361
26.6537
26.6447
27.1259
26.4758
27.4335
27.1541
24.7826
25.117
24.1852
24.8448
24.3656
24.3589
24.8371
24.1882
25.1381
24.862
22.4707
22.8028
21.8802
22.5385
22.0628
22.0583
22.5329
21.8858
22.8272
22.5548
20.1439
20.4731
19.5603
20.2162
19.744
19.7413
20.2115
19.5665
20.4984
20.2298
17.8005
18.1264
17.2233
17.8758
17.407
17.4062
17.8714
17.2294
18.1516
17.8871
15.4379
15.7601
14.8673
15.5162
15.0514
15.0526
15.5131
14.8748
15.7872
15.5271
13.0544
13.3732
12.4915
13.1373
12.6773
12.681
13.1367
12.5022
13.4042
13.1484
10.6513
10.9673
10.0978
10.741
10.2863
10.2923
10.7424
10.1111
11.0016
10.7493
8.22745
8.54338
7.69056
8.33453
7.88722
7.89476
8.33629
7.70432
8.57841
8.32634
5.76137
6.09197
5.27401
5.93109
5.49889
5.50667
5.93066
5.28503
6.12343
5.85636
3.20163
3.58784
2.86653
3.56253
3.16809
3.17422
3.55781
2.87301
3.61174
3.28692
-0.151389
0.905643
0.612686
1.41114