/*--------------------------------*- C++ -*----------------------------------*\
  =========                 |
  \\      /  F ield         | OpenFOAM: The Open Source CFD Toolbox
   \\    /   O peration     | Website:  https://openfoam.org
    \\  /    A nd           | Version:  8
     \\/     M anipulation  |
\*---------------------------------------------------------------------------*/
FoamFile
{
    version     2.0;
    format      ascii;
    class       volScalarField;
    location    "500";
    object      alphat;
}
// * * * * * * * * * * * * * * * * * * * * * * * * * * * * * * * * * * * * * //

dimensions      [1 -1 -1 0 0 0 0];

internalField   nonuniform List<scalar> 
8400
(
0.138436
0.137847
0.137284
0.136741
0.136216
0.135706
0.135207
0.134718
0.134236
0.133761
0.133292
0.13283
0.132375
0.131928
0.13149
0.131065
0.130649
0.130244
0.129853
0.129473
0.129107
0.128755
0.128416
0.128089
0.127772
0.127465
0.127163
0.126868
0.126575
0.126284
0.12599
0.125691
0.125386
0.125074
0.124755
0.12443
0.1241
0.123765
0.123428
0.123089
0.122751
0.122415
0.122085
0.121764
0.121452
0.12115
0.120865
0.120601
0.120364
0.120167
0.0735791
0.0736598
0.0737409
0.0738236
0.0739081
0.0739953
0.0740856
0.0741793
0.0742766
0.0743778
0.074483
0.0745922
0.0747054
0.0748228
0.0749445
0.0750698
0.0751981
0.0753291
0.0754628
0.0756003
0.0757406
0.0758832
0.0760276
0.0761744
0.0763235
0.0764751
0.0766306
0.0767905
0.076955
0.0771237
0.0772968
0.0774741
0.0776555
0.0778417
0.0780331
0.0782288
0.0784277
0.0786287
0.0788312
0.0790355
0.079241
0.0794469
0.0796537
0.0798598
0.0800624
0.0802635
0.0804627
0.0806572
0.0808494
0.0810383
0.0768815
0.0769875
0.0770951
0.0772044
0.0773152
0.0774272
0.0775405
0.0776556
0.0777731
0.0778922
0.0780127
0.0781356
0.0782619
0.0783893
0.078519
0.0786515
0.0787843
0.0789201
0.0790574
0.0791955
0.0793325
0.0794717
0.0796132
0.0797572
0.0799034
0.0800507
0.0801995
0.0803504
0.0805028
0.0806575
0.0808145
0.0809741
0.0811367
0.0813023
0.0814696
0.0816384
0.0818094
0.081983
0.0821588
0.0823355
0.0825126
0.0826907
0.0828683
0.0830448
0.0832218
0.0833987
0.083573
0.0837468
0.0839211
0.0840948
0.0762311
0.0763899
0.0765563
0.0767281
0.0769035
0.0770805
0.0772585
0.0774367
0.0776146
0.0777927
0.0779699
0.0781464
0.0783232
0.0785004
0.0786781
0.0788575
0.0790392
0.0792217
0.0794062
0.079591
0.0797784
0.079969
0.0801612
0.0803547
0.080549
0.0807431
0.0809364
0.0811287
0.0813204
0.0815107
0.0816984
0.0818834
0.0820652
0.0822434
0.0824175
0.0825887
0.0827592
0.0829299
0.0830999
0.0832687
0.0834379
0.0836094
0.0837827
0.0839584
0.0841386
0.0843231
0.0845127
0.0847076
0.0849077
0.0851164
0.0710755
0.0712776
0.0714943
0.0717209
0.0719542
0.0721911
0.0724287
0.0726665
0.0729031
0.0731385
0.0733725
0.0736052
0.0738373
0.0740701
0.0743054
0.0745407
0.0747794
0.0750214
0.0752672
0.0755148
0.0757657
0.0760207
0.0762784
0.0765381
0.0768
0.0770634
0.0773271
0.0775884
0.0778444
0.078093
0.0783338
0.0785665
0.0787907
0.0790058
0.0792122
0.0794116
0.0796055
0.0797953
0.0799833
0.0801721
0.0803648
0.0805613
0.0807619
0.0809691
0.0811839
0.0814082
0.0816443
0.0818913
0.0821559
0.0824331
0.0643354
0.064505
0.0646911
0.0648886
0.0650937
0.0653036
0.0655169
0.0657318
0.0659473
0.0661628
0.0663797
0.0665976
0.0668173
0.0670392
0.0672654
0.0674949
0.0677256
0.0679623
0.0682029
0.0684474
0.0686976
0.068954
0.0692153
0.0694809
0.0697512
0.0700258
0.0703013
0.0705746
0.0708448
0.0711104
0.0713692
0.0716198
0.0718601
0.0720887
0.0723067
0.0725173
0.0727237
0.0729286
0.0731337
0.0733417
0.0735539
0.073771
0.073996
0.0742314
0.0744777
0.0747372
0.0750104
0.0753009
0.0756102
0.0759412
0.0599328
0.0599914
0.0600594
0.0601355
0.0602179
0.0603049
0.0603958
0.0604913
0.0605903
0.0606926
0.0607999
0.0609109
0.061025
0.0611442
0.0612672
0.0613945
0.061525
0.0616593
0.0617962
0.0619361
0.0620798
0.062229
0.062384
0.0625454
0.0627143
0.0628901
0.0630707
0.0632551
0.0634416
0.0636282
0.0638141
0.063998
0.0641766
0.0643495
0.06452
0.0646897
0.0648584
0.0650265
0.0651971
0.0653741
0.0655586
0.0657508
0.0659516
0.066161
0.0663806
0.0666106
0.0668513
0.0671084
0.0673797
0.0676723
0.0588195
0.0587806
0.0587487
0.0587226
0.0587012
0.0586844
0.0586703
0.0586616
0.0586572
0.0586544
0.058656
0.058663
0.0586719
0.0586841
0.0587049
0.0587251
0.0587485
0.0587725
0.0587975
0.0588256
0.0588553
0.0588845
0.0589133
0.0589418
0.0589702
0.0589992
0.0590293
0.0590609
0.0590954
0.0591356
0.0591832
0.0592368
0.0592962
0.0593631
0.0594371
0.0595141
0.059593
0.0596766
0.0597676
0.0598652
0.0599678
0.0600759
0.0601906
0.0603088
0.0604308
0.0605566
0.060691
0.0608295
0.0609802
0.0611383
0.0591525
0.0590578
0.058986
0.0589265
0.0588771
0.0588407
0.0588099
0.0587819
0.0587637
0.0587465
0.0587295
0.0587155
0.0587103
0.0587065
0.058706
0.0587087
0.0587191
0.0587352
0.0587532
0.0587689
0.0587785
0.0587807
0.0587748
0.0587582
0.0587296
0.0586879
0.05863
0.0585529
0.0584611
0.0583633
0.0582646
0.0581693
0.0580853
0.0580187
0.0579697
0.0579366
0.0579171
0.0579085
0.0579114
0.0579245
0.0579479
0.0579861
0.058026
0.058065
0.0581119
0.0581596
0.0582062
0.0582573
0.0583105
0.0583628
0.0597881
0.0596237
0.0595122
0.0594044
0.0593022
0.0592518
0.0592366
0.0592066
0.0592004
0.059213
0.0592237
0.0592284
0.0592399
0.0592609
0.0592762
0.0592945
0.0593161
0.0593428
0.0593799
0.0594277
0.0594808
0.0595324
0.0595763
0.0596137
0.059648
0.059677
0.0596843
0.0596581
0.0595997
0.0595031
0.0593564
0.0591716
0.0589774
0.0587882
0.0586072
0.0584413
0.0582691
0.0581086
0.0579826
0.057871
0.0577879
0.0577521
0.0577427
0.0577241
0.0577295
0.0577716
0.0578129
0.057845
0.0578916
0.0579425
0.0604154
0.0603698
0.060307
0.0602438
0.0599912
0.059865
0.0600252
0.0599602
0.0597852
0.0597869
0.0597538
0.0596247
0.0596893
0.0596699
0.0596706
0.0597097
0.0597313
0.0597438
0.0597668
0.0597956
0.0598234
0.0598498
0.0598738
0.0599091
0.0599777
0.0600637
0.0601261
0.060159
0.0601707
0.0601465
0.0601089
0.0600934
0.0600199
0.0598549
0.0597452
0.0596817
0.0594906
0.0593363
0.0592998
0.0591622
0.0588098
0.058527
0.0586108
0.058222
0.0579044
0.0579557
0.0579071
0.0578318
0.0579325
0.0579279
0.0611548
0.0610722
0.0609798
0.0609061
0.0608421
0.060749
0.0606661
0.0605998
0.0605236
0.0604354
0.0603774
0.0603199
0.0602746
0.0602262
0.060183
0.0601499
0.0601246
0.0601109
0.0600994
0.0600855
0.0600812
0.0600858
0.0600952
0.0601182
0.0601567
0.0601959
0.060231
0.0602669
0.0602965
0.0603162
0.0603288
0.0603182
0.0602783
0.0602329
0.060173
0.0600855
0.0599959
0.0599051
0.0597922
0.0596643
0.0595374
0.0594134
0.0592688
0.0591191
0.0589992
0.0588566
0.0587172
0.0586314
0.0585693
0.0584719
0.0611907
0.0611445
0.0610991
0.0610497
0.0610025
0.0609536
0.0609074
0.0608629
0.060805
0.0607607
0.0607154
0.0606674
0.0606273
0.0605878
0.0605497
0.0605155
0.0604832
0.0604514
0.0604224
0.0603995
0.0603828
0.0603713
0.0603676
0.0603755
0.0603942
0.0604233
0.0604629
0.0605077
0.060549
0.0605823
0.0606018
0.0606031
0.060589
0.0605592
0.0605134
0.0604572
0.0603928
0.0603197
0.0602342
0.0601375
0.0600385
0.0599348
0.0598254
0.0597261
0.0596234
0.0595274
0.0594308
0.0593491
0.0592738
0.0592048
0.0612042
0.0611722
0.0611396
0.0611059
0.0610719
0.0610398
0.0610036
0.0609649
0.0609328
0.060902
0.060868
0.0608344
0.060802
0.0607706
0.0607402
0.0607122
0.0606861
0.06066
0.0606341
0.0606099
0.0605886
0.0605731
0.0605682
0.0605784
0.0606075
0.0606569
0.0607224
0.0607962
0.0608701
0.0609348
0.0609822
0.0610076
0.0610085
0.0609862
0.0609463
0.0608926
0.0608273
0.0607502
0.0606632
0.0605742
0.0604865
0.0603935
0.0603047
0.0602182
0.0601311
0.060047
0.0599649
0.0598895
0.0598199
0.0597603
0.0612123
0.0611875
0.0611621
0.061137
0.0611096
0.0610819
0.0610583
0.0610343
0.0610088
0.060981
0.0609539
0.0609271
0.060901
0.0608768
0.0608532
0.0608304
0.0608081
0.0607849
0.0607604
0.0607362
0.0607153
0.0607033
0.0607081
0.0607401
0.0608075
0.0609122
0.0610486
0.0612036
0.0613597
0.0614995
0.0616095
0.0616811
0.0617115
0.0617051
0.0616669
0.0616013
0.0615169
0.0614193
0.061313
0.061207
0.0611014
0.0609959
0.0608933
0.0607872
0.0606872
0.0605895
0.0605006
0.0604138
0.0603358
0.060262
0.0612165
0.0611971
0.0611758
0.0611567
0.0611388
0.0611183
0.0610942
0.0610713
0.0610496
0.061027
0.0610053
0.0609848
0.0609648
0.0609467
0.0609306
0.0609147
0.0608967
0.060876
0.0608533
0.0608313
0.0608168
0.0608216
0.0608626
0.0609578
0.0611203
0.0613534
0.0616461
0.0619741
0.0623057
0.0626091
0.0628573
0.0630326
0.0631297
0.0631519
0.0631084
0.0630136
0.0628808
0.062751
0.062609
0.0624584
0.0622984
0.0621395
0.0619832
0.0618302
0.0616834
0.0615387
0.0613988
0.0612633
0.0611346
0.0610099
0.0612191
0.0612025
0.0611838
0.0611643
0.0611465
0.0611275
0.0611067
0.0610842
0.0610598
0.0610345
0.0610117
0.0609952
0.0609876
0.0609904
0.0610028
0.061021
0.0610394
0.0610541
0.0610645
0.0610759
0.0611032
0.0611721
0.0613137
0.0615566
0.0619199
0.0624059
0.0629963
0.0636528
0.0643241
0.0649534
0.0654897
0.0658966
0.0661547
0.0662625
0.0662335
0.0661083
0.0659569
0.0657522
0.0655235
0.0652791
0.065029
0.0647789
0.0645243
0.0642744
0.064025
0.0637781
0.0635344
0.063298
0.0630701
0.0628527
0.0612253
0.0612032
0.0611784
0.0611463
0.0611165
0.0610842
0.0610382
0.0609843
0.0609342
0.060901
0.0608988
0.0609385
0.0610256
0.0611618
0.0613418
0.0615505
0.0617747
0.0619884
0.0621742
0.0623367
0.0625104
0.0627661
0.0631717
0.0637554
0.0645334
0.0654966
0.0666029
0.0677925
0.068994
0.0701338
0.0711437
0.0719677
0.0725686
0.0729262
0.0730327
0.0729837
0.0728049
0.0725445
0.0722288
0.071878
0.0715092
0.071129
0.0707423
0.0703492
0.0699508
0.0695498
0.0691503
0.0687608
0.0683839
0.0680188
0.0616354
0.0611707
0.0611547
0.0612453
0.0612948
0.0613523
0.0613862
0.0613545
0.0612642
0.0611693
0.0611524
0.0612578
0.0615013
0.0618786
0.0623686
0.0629383
0.0640936
0.0654194
0.0665951
0.0674879
0.0681562
0.069206
0.0709251
0.0728839
0.0748875
0.0768894
0.0788381
0.0806793
0.0823505
0.0837906
0.0849566
0.0858291
0.0864086
0.0867075
0.0867564
0.086947
0.0870997
0.0870945
0.0868899
0.086558
0.0861523
0.0857081
0.0852736
0.084876
0.0845418
0.08428
0.0840731
0.0839183
0.0838246
0.0838122
0.137047
0.128415
0.11885
0.112045
0.108381
0.107155
0.107921
0.110231
0.113741
0.11816
0.123222
0.128966
0.136094
0.145265
0.155429
0.163604
0.16638
0.165927
0.162407
0.156553
0.150602
0.14634
0.144312
0.144024
0.144222
0.144247
0.143923
0.143227
0.142178
0.140798
0.139107
0.137136
0.134903
0.1324
0.129587
0.126395
0.123585
0.12126
0.119449
0.118042
0.116989
0.116312
0.116022
0.116199
0.116854
0.117912
0.1191
0.120108
0.120619
0.120518
0.27115
0.267789
0.264581
0.261515
0.258567
0.255716
0.252948
0.250255
0.247633
0.245079
0.242588
0.240159
0.237788
0.235476
0.233222
0.231023
0.228881
0.226794
0.22476
0.222779
0.220848
0.218966
0.217129
0.215335
0.213583
0.211869
0.210194
0.208558
0.206959
0.205398
0.203874
0.202386
0.200933
0.199514
0.198128
0.196775
0.195452
0.194159
0.192895
0.191661
0.190445
0.189248
0.188068
0.186902
0.185746
0.184596
0.183447
0.182289
0.181103
0.179852
0.269193
0.262998
0.257106
0.251482
0.246111
0.24098
0.236078
0.231389
0.226897
0.222588
0.21845
0.214471
0.210644
0.206963
0.20342
0.20001
0.196727
0.193567
0.190524
0.187589
0.184758
0.182021
0.179373
0.176807
0.174318
0.171904
0.16956
0.167286
0.165079
0.162937
0.160857
0.158836
0.15687
0.154958
0.153095
0.151276
0.1495
0.147764
0.146066
0.144406
0.142791
0.141219
0.139686
0.138189
0.136726
0.135297
0.133898
0.132529
0.131187
0.129866
0.269187
0.262976
0.257043
0.25138
0.245966
0.240784
0.235819
0.231055
0.226478
0.222075
0.217835
0.213749
0.20981
0.206011
0.202346
0.198811
0.195399
0.192107
0.188929
0.185857
0.182887
0.180012
0.177225
0.174522
0.171897
0.169348
0.166871
0.164465
0.162128
0.159857
0.15765
0.155505
0.153419
0.151389
0.149413
0.147488
0.145614
0.143788
0.14201
0.140277
0.13859
0.136945
0.13534
0.133775
0.132248
0.130758
0.129306
0.12789
0.126511
0.125168
0.269188
0.263023
0.257143
0.251531
0.246163
0.24102
0.236087
0.231347
0.226787
0.222397
0.218165
0.214083
0.210146
0.206345
0.202677
0.199136
0.195717
0.192416
0.189228
0.186145
0.183162
0.180274
0.177473
0.174756
0.172118
0.169554
0.167064
0.164644
0.162293
0.160009
0.15779
0.155633
0.153535
0.151492
0.149504
0.147566
0.145679
0.14384
0.142049
0.140305
0.138605
0.136947
0.13533
0.133753
0.132214
0.130713
0.129249
0.127821
0.12643
0.125075
0.269189
0.263024
0.257142
0.251523
0.246146
0.240994
0.236051
0.231303
0.226736
0.22234
0.218105
0.214023
0.210085
0.206286
0.202619
0.199081
0.195666
0.192369
0.189183
0.186104
0.183125
0.180239
0.177442
0.174729
0.172094
0.169534
0.167048
0.164632
0.162286
0.160008
0.157795
0.155643
0.153549
0.151511
0.149525
0.147591
0.145707
0.143871
0.142083
0.14034
0.138641
0.136985
0.135369
0.133792
0.132254
0.130753
0.129288
0.127859
0.126465
0.125106
0.269189
0.263028
0.257153
0.251544
0.246179
0.241038
0.236107
0.231369
0.226813
0.222427
0.218202
0.214128
0.210197
0.206404
0.202743
0.199209
0.195797
0.192502
0.189317
0.186237
0.183256
0.180368
0.177569
0.174853
0.172215
0.169653
0.167164
0.164748
0.162402
0.160123
0.157909
0.155755
0.153659
0.151618
0.14963
0.147694
0.145807
0.143968
0.142176
0.140429
0.138726
0.137066
0.135446
0.133865
0.132322
0.130816
0.129345
0.12791
0.126509
0.125142
0.269189
0.26303
0.257158
0.25155
0.246184
0.241041
0.236106
0.231365
0.226805
0.222417
0.218189
0.214112
0.21018
0.206385
0.202722
0.199187
0.195773
0.192476
0.189288
0.186206
0.183222
0.180332
0.177531
0.174812
0.172174
0.169612
0.167124
0.16471
0.162366
0.16009
0.157877
0.155725
0.15363
0.151591
0.149605
0.14767
0.145784
0.143945
0.142153
0.140406
0.138703
0.137042
0.135423
0.133842
0.132299
0.130792
0.12932
0.127882
0.126479
0.125109
0.269189
0.263034
0.257163
0.251556
0.246191
0.241048
0.236114
0.231374
0.226818
0.222434
0.21821
0.214138
0.21021
0.206419
0.20276
0.199228
0.195817
0.192521
0.189334
0.186251
0.183266
0.180375
0.177571
0.174852
0.172213
0.169651
0.167165
0.164752
0.162408
0.160132
0.157919
0.155767
0.153672
0.151632
0.149645
0.147709
0.14582
0.143979
0.142184
0.140435
0.138729
0.137066
0.135444
0.13386
0.132313
0.130802
0.129325
0.127882
0.126473
0.125096
0.26919
0.263038
0.257169
0.251561
0.246193
0.241048
0.236112
0.231373
0.226817
0.222433
0.218209
0.214137
0.210209
0.206419
0.20276
0.199227
0.195814
0.192515
0.189326
0.186239
0.183251
0.180357
0.17755
0.174829
0.172189
0.169628
0.167142
0.164729
0.162386
0.16011
0.157897
0.155745
0.153651
0.151612
0.149625
0.147687
0.145798
0.143956
0.142161
0.14041
0.138704
0.13704
0.135417
0.133832
0.132283
0.130769
0.129289
0.127844
0.126431
0.12505
0.269192
0.263043
0.257174
0.251564
0.246194
0.241048
0.236112
0.231373
0.226818
0.222435
0.218213
0.214143
0.210217
0.206428
0.202771
0.199238
0.195825
0.192526
0.189335
0.186247
0.183257
0.180361
0.177554
0.174833
0.172193
0.169632
0.167147
0.164735
0.162392
0.160116
0.157904
0.155752
0.153657
0.151618
0.14963
0.147691
0.145801
0.143958
0.142161
0.14041
0.138702
0.137036
0.13541
0.133821
0.132269
0.130751
0.129268
0.127818
0.126401
0.125014
0.269193
0.263047
0.257178
0.251566
0.246194
0.241047
0.236111
0.231372
0.226817
0.222434
0.218213
0.214144
0.210219
0.206431
0.202774
0.199241
0.195826
0.192525
0.189333
0.186243
0.183252
0.180354
0.177547
0.174825
0.172186
0.169625
0.167139
0.164727
0.162384
0.160108
0.157896
0.155744
0.153649
0.151609
0.14962
0.147681
0.14579
0.143947
0.14215
0.140397
0.138688
0.13702
0.13539
0.133798
0.132242
0.130721
0.129234
0.127781
0.126359
0.124967
0.269195
0.263051
0.257181
0.251568
0.246195
0.241046
0.236109
0.231368
0.226813
0.222429
0.218208
0.21414
0.210216
0.206428
0.202769
0.199234
0.195818
0.192515
0.18932
0.186228
0.183235
0.180337
0.177528
0.174806
0.172167
0.169606
0.16712
0.164708
0.162365
0.160089
0.157877
0.155724
0.153628
0.151587
0.149599
0.14766
0.145769
0.143926
0.142129
0.140376
0.138664
0.136994
0.135361
0.133766
0.132207
0.130683
0.129193
0.127736
0.12631
0.124913
0.269196
0.263055
0.257185
0.25157
0.246195
0.241045
0.236106
0.231365
0.226809
0.222427
0.218208
0.214142
0.210219
0.206432
0.202774
0.19924
0.195823
0.19252
0.189325
0.186234
0.183241
0.180342
0.177534
0.174813
0.172173
0.169613
0.167128
0.164717
0.162374
0.160097
0.157883
0.155729
0.153633
0.151591
0.149602
0.147663
0.145772
0.143928
0.14213
0.140374
0.13866
0.136985
0.135349
0.133749
0.132185
0.130657
0.129162
0.127699
0.126268
0.124867
0.269197
0.263058
0.257188
0.251571
0.246193
0.241039
0.236095
0.23135
0.226791
0.222406
0.218185
0.214117
0.210191
0.206401
0.20274
0.199202
0.195783
0.192477
0.189279
0.186185
0.18319
0.18029
0.177481
0.174759
0.17212
0.16956
0.167076
0.164664
0.162321
0.160044
0.157829
0.155675
0.153579
0.151538
0.149549
0.147611
0.145721
0.143879
0.142081
0.140325
0.138609
0.136932
0.135293
0.133691
0.132125
0.130594
0.129096
0.127631
0.126197
0.124794
0.269198
0.263062
0.257191
0.251572
0.246191
0.241036
0.236094
0.23135
0.226795
0.222414
0.218197
0.214132
0.21021
0.206422
0.202763
0.199227
0.195809
0.192503
0.189305
0.18621
0.183215
0.180315
0.177507
0.174785
0.172146
0.169586
0.167101
0.164687
0.162343
0.160063
0.157847
0.155691
0.153592
0.151549
0.149559
0.14762
0.145729
0.143885
0.142084
0.140324
0.138604
0.136923
0.135278
0.133671
0.132099
0.130561
0.129058
0.127587
0.126149
0.12474
0.2692
0.263062
0.257184
0.251554
0.246161
0.240993
0.236038
0.231283
0.226717
0.222327
0.218101
0.214028
0.210099
0.206306
0.202642
0.199101
0.195679
0.192371
0.189171
0.186075
0.183079
0.180181
0.177374
0.174653
0.172016
0.169457
0.166973
0.164561
0.162218
0.15994
0.157724
0.15557
0.153473
0.151432
0.149445
0.147509
0.145621
0.143778
0.141978
0.140219
0.138499
0.136817
0.135171
0.133563
0.131989
0.130451
0.128947
0.127476
0.126037
0.124628
0.269201
0.263064
0.257188
0.251564
0.24618
0.241021
0.236075
0.231329
0.226769
0.222384
0.218161
0.214089
0.21016
0.206365
0.202699
0.199155
0.195729
0.192416
0.189211
0.186111
0.183111
0.180208
0.177397
0.174672
0.172029
0.169465
0.166976
0.164559
0.162211
0.159928
0.157708
0.155549
0.153448
0.151405
0.149414
0.147475
0.145584
0.143738
0.141935
0.140172
0.138448
0.136762
0.135114
0.133501
0.131925
0.130386
0.128882
0.127414
0.125978
0.124575
0.269201
0.26302
0.25709
0.251415
0.245984
0.240786
0.235808
0.231037
0.226459
0.222061
0.21783
0.213754
0.209823
0.20603
0.202367
0.198829
0.19541
0.192105
0.188911
0.185823
0.182837
0.179948
0.17715
0.174439
0.17181
0.16926
0.166786
0.164385
0.162053
0.159786
0.157582
0.155441
0.153359
0.151334
0.149363
0.147443
0.145572
0.143748
0.141968
0.14023
0.138532
0.136873
0.135254
0.133676
0.132138
0.130643
0.129191
0.127783
0.126421
0.125109
0.26921
0.26305
0.257161
0.251523
0.246133
0.240981
0.236063
0.231365
0.226871
0.222566
0.218437
0.21447
0.210655
0.206982
0.203445
0.200037
0.196751
0.193583
0.190527
0.187579
0.184735
0.181988
0.179333
0.176763
0.174277
0.17187
0.16954
0.167283
0.165094
0.16297
0.160911
0.158915
0.156979
0.155101
0.153278
0.151509
0.149792
0.148125
0.146504
0.14493
0.1434
0.141915
0.140477
0.13909
0.137757
0.136482
0.135272
0.134135
0.133089
0.132166
0.271151
0.267811
0.26461
0.261539
0.258582
0.255726
0.252952
0.250254
0.247628
0.24507
0.242577
0.240145
0.237773
0.23546
0.233205
0.231006
0.228862
0.226772
0.224735
0.22275
0.220813
0.218922
0.217077
0.215274
0.213515
0.211797
0.210119
0.208479
0.206876
0.20531
0.203779
0.202283
0.20082
0.199388
0.197987
0.196614
0.195267
0.193946
0.192647
0.19137
0.190114
0.188879
0.187665
0.186473
0.1853
0.184146
0.183007
0.181883
0.180768
0.179658
0.181697
0.0945823
0.0857629
0.0983507
0.11247
0.122613
0.127172
0.126279
0.121138
0.11357
0.105379
0.097509
0.0894353
0.0794616
0.0706859
0.0620794
0.0574648
0.0622341
0.0920216
0.245148
0.180399
0.0943833
0.0861889
0.0990684
0.113307
0.123462
0.127965
0.126981
0.12174
0.114093
0.105872
0.0980409
0.0897454
0.0800334
0.0714899
0.063038
0.0573728
0.06049
0.0887947
0.24294
0.17909
0.0941599
0.086618
0.0998004
0.114162
0.124329
0.128773
0.127688
0.122337
0.114601
0.106352
0.0985854
0.0906351
0.0805873
0.0719556
0.0635688
0.057493
0.0598346
0.0875318
0.242457
0.17778
0.0939176
0.087052
0.100549
0.115039
0.125217
0.129595
0.128399
0.122926
0.115089
0.106808
0.0991119
0.0913596
0.0811126
0.0724177
0.0640841
0.0576506
0.0592383
0.0863248
0.242055
0.176465
0.093656
0.0874904
0.101314
0.115936
0.126126
0.130432
0.129114
0.123504
0.115553
0.107234
0.0996217
0.0921755
0.0817702
0.0728995
0.0645904
0.0578439
0.0587
0.0851689
0.241716
0.175147
0.0933734
0.0879324
0.102095
0.116856
0.127057
0.131283
0.129832
0.124067
0.115985
0.107617
0.100092
0.0928975
0.0824933
0.0734037
0.0650918
0.0580712
0.0582181
0.0840593
0.241427
0.173827
0.0930684
0.0883783
0.102893
0.117799
0.128009
0.132148
0.130548
0.124608
0.116375
0.107945
0.100503
0.0934087
0.0832119
0.0739261
0.0655881
0.0583291
0.0577917
0.082996
0.241183
0.172505
0.0927396
0.0888276
0.103708
0.118765
0.128984
0.133027
0.131259
0.125121
0.116714
0.108204
0.100835
0.0938337
0.0839034
0.0744582
0.0660784
0.0586131
0.0574191
0.0819805
0.240988
0.17118
0.0923857
0.0892802
0.104541
0.119755
0.129982
0.133917
0.131962
0.1256
0.116993
0.108387
0.101081
0.0941216
0.0845482
0.0749927
0.0665613
0.0589184
0.0570978
0.081014
0.240843
0.169853
0.0920056
0.0897364
0.105392
0.120769
0.131001
0.134818
0.132653
0.126037
0.117202
0.108481
0.101241
0.0943892
0.0851791
0.0755267
0.0670358
0.0592408
0.056825
0.0800972
0.240746
0.168525
0.091598
0.0901967
0.106261
0.121808
0.132043
0.135726
0.133328
0.126428
0.117334
0.108477
0.101306
0.0946894
0.085798
0.0760592
0.0675014
0.0595762
0.0565977
0.0792305
0.240698
0.167198
0.0911622
0.0906606
0.107147
0.12287
0.133104
0.136641
0.133984
0.126766
0.117376
0.108362
0.101266
0.0949662
0.0863828
0.0765879
0.067958
0.059921
0.0564129
0.0784138
0.240696
0.16587
0.0906978
0.0911281
0.108049
0.123953
0.134184
0.137558
0.134614
0.127041
0.117317
0.108119
0.101102
0.0951485
0.0869125
0.0771095
0.0684058
0.0602724
0.0562676
0.077647
0.240738
0.164543
0.0902035
0.0915985
0.108967
0.125057
0.13528
0.138474
0.135213
0.127242
0.11714
0.107728
0.100791
0.0951928
0.0873694
0.0776207
0.0688458
0.0606284
0.0561591
0.0769298
0.240825
0.163216
0.0896786
0.0920714
0.109897
0.126179
0.136388
0.139384
0.135773
0.127358
0.116829
0.107166
0.100304
0.0950806
0.0877432
0.0781181
0.0692793
0.0609874
0.0560847
0.0762619
0.240953
0.161891
0.089125
0.0925466
0.110838
0.127315
0.137505
0.140284
0.136287
0.127379
0.116366
0.106411
0.0996147
0.0948077
0.0880305
0.0785979
0.0697068
0.061348
0.0560413
0.0756423
0.241124
0.160567
0.088545
0.0930235
0.111788
0.128463
0.138627
0.141168
0.136746
0.12729
0.115734
0.105441
0.0987018
0.0943699
0.0882256
0.0790541
0.0701279
0.0617082
0.0560255
0.0750696
0.241333
0.159246
0.0879416
0.0935014
0.112742
0.129617
0.139748
0.14203
0.137143
0.12708
0.114915
0.104233
0.0975456
0.0937564
0.088314
0.0794769
0.0705398
0.0620654
0.0560335
0.0745419
0.24158
0.157927
0.0873178
0.0939797
0.113698
0.130773
0.140863
0.142862
0.137468
0.126738
0.113894
0.102766
0.096124
0.092946
0.0882742
0.0798528
0.0709377
0.0624162
0.0560612
0.0740569
0.241862
0.156612
0.0866773
0.0944564
0.11465
0.131924
0.141966
0.143659
0.137715
0.126254
0.112655
0.101019
0.0944113
0.0919076
0.0880821
0.080166
0.0713149
0.0627565
0.056104
0.0736117
0.242174
0.155301
0.0860251
0.0949293
0.115592
0.133064
0.143048
0.144413
0.137877
0.12562
0.111185
0.0989742
0.0923815
0.0906118
0.0877164
0.0804002
0.0716637
0.0630821
0.0561574
0.0732041
0.242516
0.153996
0.0853668
0.0953961
0.116519
0.134185
0.144104
0.145119
0.137948
0.124829
0.109477
0.0966172
0.0900117
0.0890355
0.0871629
0.0805416
0.0719761
0.0633885
0.0562173
0.0728318
0.242885
0.152695
0.0847086
0.0958535
0.117422
0.135279
0.145124
0.145769
0.137926
0.123881
0.107528
0.0939431
0.0872869
0.0871653
0.0864167
0.08058
0.0722443
0.0636717
0.0562797
0.0724929
0.243284
0.151402
0.0840565
0.0962975
0.118295
0.136335
0.146099
0.146359
0.137809
0.12278
0.105345
0.0909597
0.0842063
0.0850045
0.0854825
0.0805102
0.0724623
0.0639279
0.0563411
0.0721861
0.243711
0.150116
0.0834163
0.096723
0.119128
0.137343
0.147023
0.146884
0.137599
0.121536
0.102946
0.0876909
0.0807882
0.0825737
0.0843735
0.0803312
0.0726248
0.0641538
0.056398
0.0719098
0.24417
0.148837
0.082794
0.0971245
0.119912
0.138295
0.147886
0.147344
0.137305
0.120166
0.100361
0.0841811
0.0770739
0.0799081
0.0831103
0.0800466
0.0727283
0.0643464
0.0564474
0.0716629
0.244661
0.147568
0.0821957
0.0974959
0.120639
0.139181
0.148684
0.147736
0.136935
0.118697
0.097634
0.0804977
0.0731347
0.077058
0.0817209
0.079664
0.0727708
0.0645033
0.0564865
0.0714439
0.245187
0.146307
0.0816275
0.0978318
0.121299
0.139993
0.149409
0.148063
0.136503
0.117161
0.0948245
0.0767338
0.069081
0.0740934
0.080243
0.0791956
0.0727524
0.0646227
0.0565131
0.0712519
0.24575
0.145055
0.0810953
0.0981266
0.121887
0.140723
0.150059
0.148328
0.136027
0.115599
0.092005
0.0730072
0.0650699
0.0711078
0.0787233
0.078658
0.0726754
0.0647042
0.0565257
0.0710859
0.246352
0.143814
0.0806034
0.0983752
0.122395
0.141364
0.150628
0.148536
0.135527
0.114056
0.0892591
0.0694559
0.0613048
0.0682174
0.0772153
0.0780705
0.0725442
0.0647484
0.0565235
0.0709453
0.246995
0.142585
0.0801544
0.0985726
0.122818
0.14191
0.151115
0.148692
0.135023
0.112579
0.0866758
0.0662254
0.0580174
0.0655468
0.0757725
0.0774532
0.0723645
0.0647567
0.0565062
0.0708298
0.247683
0.141368
0.0797497
0.0987141
0.123149
0.142358
0.15152
0.148803
0.134538
0.111215
0.0843416
0.0634501
0.0554194
0.0632047
0.0744425
0.076825
0.0721428
0.0647313
0.0564741
0.0707389
0.248417
0.140164
0.0793892
0.0987962
0.123388
0.142705
0.151843
0.148878
0.134091
0.110005
0.0823306
0.0612303
0.053632
0.0612613
0.0732615
0.0762022
0.0718858
0.0646751
0.0564279
0.0706721
0.249199
0.138972
0.0790725
0.0988166
0.123531
0.142951
0.152085
0.148923
0.133699
0.108981
0.0806962
0.0596117
0.0526331
0.0597407
0.0722535
0.0755967
0.0715997
0.0645911
0.0563684
0.0706284
0.250026
0.137794
0.0787987
0.0987748
0.12358
0.143096
0.152251
0.148944
0.133374
0.108163
0.0794648
0.0585781
0.0522742
0.0586237
0.0714246
0.0750156
0.0712902
0.0644829
0.0562972
0.070607
0.250898
0.136629
0.0785661
0.0986715
0.123536
0.143145
0.152343
0.148946
0.133123
0.107557
0.0786359
0.0580633
0.0523708
0.0578614
0.0707425
0.0744593
0.0709628
0.0643545
0.0562162
0.0706064
0.25181
0.135479
0.0783719
0.0985088
0.123404
0.143099
0.152365
0.148935
0.132948
0.107161
0.0781862
0.0579772
0.0528017
0.0572098
0.0701967
0.0739237
0.0706221
0.0642099
0.0561277
0.0706251
0.252759
0.134345
0.0782125
0.0982892
0.123185
0.142962
0.152321
0.148911
0.132848
0.106959
0.0781093
0.05816
0.0533032
0.0567307
0.0697323
0.0734054
0.0702715
0.0640532
0.056034
0.070662
0.253741
0.133227
0.0780623
0.0979891
0.122866
0.142754
0.152249
0.148919
0.132842
0.106903
0.0780923
0.0583948
0.0537815
0.0566372
0.0692511
0.0729006
0.0699119
0.0638878
0.0559373
0.0707162
0.254753
0.132159
0.0778462
0.0976014
0.122461
0.142479
0.152151
0.148948
0.132906
0.106946
0.0781645
0.0586618
0.0542711
0.0567506
0.0687716
0.0723858
0.0695562
0.0637146
0.055837
0.0707874
0.255797
0.131132
0.077591
0.0971381
0.121969
0.142135
0.152022
0.148993
0.133031
0.107074
0.078309
0.0589505
0.0547676
0.0569847
0.0682932
0.0718565
0.0691902
0.0635371
0.0557521
0.0710359
0.256832
0.130142
0.0773028
0.0966045
0.121395
0.141724
0.15186
0.14905
0.133211
0.107281
0.0785194
0.0592586
0.0552649
0.0573102
0.0678228
0.0713159
0.0688163
0.0633568
0.0556924
0.0714027
0.257873
0.129188
0.0769859
0.096006
0.120744
0.141247
0.151664
0.149117
0.133441
0.107565
0.078796
0.0595871
0.0557625
0.0577198
0.0673667
0.0707671
0.0684363
0.0631747
0.0556583
0.071894
0.258924
0.128266
0.0766446
0.0953474
0.120017
0.140705
0.151434
0.149192
0.133724
0.107926
0.0791421
0.0599371
0.0562578
0.0582018
0.0669272
0.0702123
0.0680518
0.0629917
0.0556505
0.0725079
0.259993
0.127378
0.076283
0.0946338
0.119218
0.140099
0.151169
0.149275
0.134059
0.108369
0.0795622
0.0603092
0.0567412
0.0587278
0.0665022
0.0696533
0.0676639
0.0628082
0.0556701
0.0732451
0.261084
0.126521
0.0759049
0.0938696
0.11835
0.139429
0.150869
0.149367
0.134449
0.108898
0.0800618
0.0607026
0.0571963
0.0592552
0.0660872
0.0690918
0.0672737
0.0626245
0.0557187
0.0741089
0.262202
0.125695
0.0755142
0.0930589
0.117414
0.138695
0.150533
0.149468
0.134896
0.109519
0.0806473
0.0611177
0.0576068
0.0597402
0.0656788
0.0685298
0.066882
0.0624408
0.0557983
0.0751036
0.263351
0.124899
0.0751143
0.0922055
0.116413
0.137897
0.150161
0.149578
0.135405
0.110238
0.0813273
0.0615573
0.0579622
0.06015
0.0652757
0.0679695
0.0664899
0.0622576
0.0559117
0.076233
0.264536
0.124132
0.0747087
0.0913132
0.115348
0.137034
0.14975
0.149698
0.135978
0.111063
0.0821128
0.0620277
0.0582595
0.0604673
0.0648785
0.0674135
0.0660984
0.0620755
0.056062
0.0775006
0.26576
0.123396
0.0743003
0.0903852
0.114219
0.136105
0.149299
0.149827
0.136621
0.112005
0.0830177
0.0625396
0.0585013
0.0606879
0.0644887
0.0668648
0.065709
0.0618954
0.0562534
0.0789092
0.267027
0.122688
0.0738922
0.0894252
0.113029
0.135109
0.148808
0.149968
0.137337
0.113074
0.0840579
0.0631071
0.0586928
0.0608134
0.0641067
0.0663264
0.0653232
0.0617184
0.0564907
0.0804621
0.268338
0.12201
0.0734875
0.0884367
0.111778
0.134045
0.148272
0.150118
0.138131
0.114281
0.0852515
0.0637481
0.0588413
0.0608501
0.0637334
0.0658016
0.0649421
0.061546
0.0567798
0.0821631
0.269697
0.121363
0.0730891
0.0874234
0.110466
0.13291
0.14769
0.150276
0.139006
0.115637
0.0866178
0.0644845
0.0589582
0.0608148
0.0633699
0.0652927
0.064567
0.0613803
0.0571278
0.0840146
0.271105
0.120747
0.0727003
0.0863888
0.109096
0.131701
0.147057
0.15044
0.139965
0.117152
0.0881767
0.0653425
0.0590597
0.0607315
0.0630171
0.0648014
0.0641993
0.0612238
0.057543
0.0860194
0.272563
0.120163
0.0723235
0.0853363
0.107666
0.130416
0.146367
0.150605
0.141008
0.118835
0.0899487
0.0663523
0.0591639
0.0606168
0.0626751
0.0643293
0.06384
0.0610791
0.0580351
0.0881821
0.274073
0.119613
0.071961
0.0842685
0.106176
0.129046
0.145612
0.150764
0.142134
0.120695
0.0919533
0.0675465
0.0592895
0.0604789
0.0623434
0.0638771
0.0634899
0.0609495
0.0586161
0.090509
0.275632
0.119099