/*--------------------------------*- C++ -*----------------------------------*\
  =========                 |
  \\      /  F ield         | OpenFOAM: The Open Source CFD Toolbox
   \\    /   O peration     | Website:  https://openfoam.org
    \\  /    A nd           | Version:  8
     \\/     M anipulation  |
\*---------------------------------------------------------------------------*/
FoamFile
{
    version     2.0;
    format      ascii;
    class       volScalarField;
    location    "500";
    object      k;
}
// * * * * * * * * * * * * * * * * * * * * * * * * * * * * * * * * * * * * * //

dimensions      [0 2 -2 0 0 0 0];

internalField   nonuniform List<scalar> 
8400
(
0.0144471
0.0143049
0.0141677
0.0140351
0.0139069
0.0137827
0.0136624
0.0135456
0.0134321
0.0133217
0.0132142
0.0131096
0.0130077
0.0129085
0.012812
0.0127182
0.0126272
0.0125389
0.0124533
0.0123705
0.0122904
0.0122131
0.0121385
0.0120664
0.0119964
0.0119285
0.0118623
0.0117974
0.0117336
0.0116704
0.0116074
0.0115443
0.0114808
0.0114168
0.0113523
0.0112873
0.011222
0.0111564
0.0110908
0.0110255
0.0109608
0.010897
0.0108347
0.010774
0.0107155
0.0106598
0.0106074
0.0105594
0.0105168
0.0104815
0.00424239
0.00425035
0.0042584
0.00426655
0.00427485
0.00428332
0.00429202
0.00430096
0.00431016
0.00431965
0.00432945
0.0043396
0.00435009
0.00436092
0.00437211
0.00438367
0.00439559
0.00440785
0.00442043
0.00443338
0.00444673
0.00446043
0.00447446
0.00448885
0.00450365
0.00451889
0.00453462
0.0045509
0.00456775
0.00458521
0.00460329
0.00462205
0.00464151
0.0046617
0.00468261
0.00470422
0.00472648
0.00474931
0.00477265
0.00479644
0.00482063
0.00484516
0.00486994
0.00489485
0.00491982
0.00494475
0.00496952
0.004994
0.00501812
0.00504166
0.00467448
0.00468569
0.00469708
0.00470865
0.00472039
0.00473228
0.00474434
0.00475657
0.00476897
0.00478157
0.00479435
0.00480732
0.00482054
0.00483394
0.00484757
0.00486143
0.00487549
0.00488976
0.00490426
0.00491891
0.00493369
0.00494867
0.00496389
0.00497933
0.004995
0.00501091
0.00502705
0.00504345
0.00506017
0.00507725
0.00509473
0.00511265
0.00513103
0.00514987
0.00516921
0.00518903
0.00520932
0.00523006
0.00525123
0.00527277
0.00529463
0.00531675
0.00533907
0.0053615
0.00538402
0.00540658
0.00542907
0.00545143
0.00547358
0.00549537
0.00466877
0.00468498
0.00470194
0.00471953
0.00473766
0.00475622
0.00477516
0.0047944
0.00481393
0.00483372
0.00485372
0.00487393
0.00489436
0.00491503
0.00493595
0.00495715
0.00497864
0.00500041
0.00502244
0.00504476
0.00506736
0.00509024
0.00511334
0.00513661
0.00516
0.00518344
0.00520685
0.00523018
0.00525339
0.00527642
0.00529921
0.00532172
0.00534396
0.00536592
0.00538764
0.00540916
0.00543058
0.00545198
0.00547339
0.00549486
0.00551648
0.00553835
0.00556053
0.00558311
0.00560618
0.00562978
0.005654
0.00567892
0.00570456
0.00573108
0.00411851
0.00413758
0.00415803
0.00417957
0.00420206
0.00422534
0.00424926
0.00427378
0.0042988
0.00432428
0.0043502
0.00437656
0.00440337
0.0044307
0.00445859
0.00448705
0.00451613
0.00454589
0.00457633
0.00460741
0.00463915
0.00467151
0.00470444
0.00473781
0.00477151
0.00480539
0.00483926
0.00487292
0.00490609
0.00493853
0.00497007
0.00500058
0.00502995
0.00505812
0.00508511
0.00511103
0.00513608
0.00516045
0.00518438
0.00520813
0.005232
0.00525622
0.00528102
0.00530666
0.00533338
0.00536143
0.00539113
0.00542268
0.00545651
0.00549274
0.00338647
0.00340116
0.00341722
0.00343438
0.00345247
0.00347139
0.00349105
0.0035114
0.00353241
0.00355402
0.0035763
0.00359924
0.00362291
0.00364736
0.00367269
0.00369892
0.00372611
0.00375432
0.00378363
0.00381401
0.00384545
0.00387792
0.0039114
0.0039458
0.00398097
0.00401673
0.0040528
0.00408887
0.00412462
0.00415976
0.004194
0.00422704
0.00425861
0.00428855
0.00431686
0.00434374
0.00436945
0.00439429
0.00441858
0.00444268
0.00446695
0.00449172
0.00451737
0.00454427
0.00457277
0.00460323
0.004636
0.00467152
0.00471017
0.00475245
0.00291261
0.00291781
0.00292368
0.00293012
0.0029371
0.00294456
0.00295249
0.00296092
0.00296986
0.00297932
0.00298937
0.00300003
0.00301133
0.00302337
0.0030362
0.0030499
0.00306454
0.00308014
0.00309667
0.0031142
0.00313278
0.00315246
0.00317322
0.00319503
0.00321783
0.00324151
0.00326593
0.00329084
0.00331596
0.00334102
0.00336573
0.0033898
0.00341299
0.00343514
0.00345625
0.00347639
0.00349569
0.00351437
0.00353274
0.00355118
0.00356999
0.00358944
0.00360987
0.00363153
0.00365471
0.00367969
0.00370676
0.00373638
0.0037688
0.00380458
0.00278651
0.00278406
0.002782
0.00278026
0.00277875
0.00277741
0.00277621
0.00277521
0.00277439
0.00277372
0.00277328
0.00277312
0.00277319
0.00277361
0.00277439
0.00277552
0.00277703
0.00277903
0.00278155
0.00278466
0.00278835
0.00279262
0.00279744
0.00280286
0.00280892
0.00281563
0.00282292
0.00283076
0.00283912
0.00284793
0.00285714
0.00286661
0.00287618
0.00288568
0.00289505
0.00290423
0.00291325
0.00292225
0.00293137
0.00294073
0.00295041
0.00296056
0.00297133
0.00298279
0.00299508
0.00300831
0.00302278
0.00303857
0.00305595
0.00307511
0.00282002
0.00281189
0.002806
0.00280129
0.00279728
0.00279381
0.00279072
0.00278787
0.0027853
0.00278274
0.00278017
0.00277764
0.00277514
0.00277263
0.00276998
0.00276729
0.00276462
0.00276195
0.00275924
0.00275647
0.00275356
0.00275048
0.0027472
0.00274371
0.00273999
0.00273603
0.00273185
0.00272747
0.00272306
0.00271886
0.00271509
0.00271194
0.00270958
0.00270819
0.00270778
0.00270816
0.00270915
0.00271072
0.00271287
0.00271549
0.00271856
0.00272207
0.00272583
0.00272976
0.00273404
0.00273858
0.00274328
0.0027483
0.0027537
0.00275944
0.00288893
0.00286957
0.00285759
0.00284839
0.00284056
0.00283465
0.00283085
0.00282765
0.00282592
0.0028249
0.00282432
0.00282362
0.00282343
0.00282368
0.00282369
0.00282353
0.00282329
0.00282286
0.00282242
0.002822
0.0028214
0.00282037
0.00281881
0.00281668
0.00281388
0.00281023
0.00280538
0.00279901
0.0027911
0.00278179
0.00277103
0.00275901
0.00274668
0.00273518
0.00272487
0.00271587
0.00270813
0.0027016
0.00269658
0.00269292
0.00269055
0.00268988
0.0026906
0.00269203
0.0026943
0.00269761
0.0027009
0.00270388
0.00270705
0.00271042
0.00296223
0.00294313
0.00292974
0.00291862
0.0029037
0.00288971
0.00288445
0.00287487
0.00286769
0.00286459
0.00286197
0.00285813
0.00285671
0.00285801
0.00285877
0.00285971
0.00286074
0.00286164
0.00286286
0.00286441
0.00286577
0.00286678
0.00286787
0.00286924
0.00287073
0.00287186
0.00287187
0.00286985
0.00286584
0.00286103
0.00285569
0.00284882
0.00283995
0.00283009
0.00281929
0.00280748
0.0027946
0.00278105
0.00276926
0.00275699
0.00274047
0.00272681
0.00272235
0.00271111
0.00270467
0.00270789
0.00270922
0.00271103
0.00271556
0.00271943
0.0029924
0.00298448
0.00297674
0.00296941
0.00296232
0.00295463
0.00294742
0.00294081
0.00293414
0.00292772
0.00292194
0.00291705
0.0029126
0.00290833
0.0029045
0.00290135
0.00289886
0.00289689
0.00289544
0.00289457
0.00289426
0.00289447
0.00289521
0.00289635
0.00289757
0.00289855
0.0028989
0.00289839
0.00289699
0.00289469
0.00289123
0.0028865
0.00288066
0.00287386
0.00286617
0.00285763
0.00284848
0.0028391
0.00282951
0.00281964
0.00280997
0.00280073
0.00279172
0.00278362
0.00277701
0.00277088
0.00276573
0.00276253
0.00276052
0.00275867
0.00299559
0.00299102
0.00298651
0.00298189
0.00297732
0.00297277
0.00296825
0.00296387
0.0029592
0.00295488
0.00295073
0.00294674
0.00294303
0.00293951
0.00293618
0.00293304
0.00293011
0.00292745
0.0029252
0.00292343
0.00292218
0.0029215
0.00292141
0.00292187
0.00292276
0.00292387
0.0029249
0.00292553
0.00292546
0.00292445
0.00292234
0.00291914
0.00291488
0.00290969
0.00290378
0.00289732
0.00289049
0.00288334
0.00287582
0.00286813
0.00286058
0.00285314
0.00284596
0.00283932
0.00283308
0.00282745
0.0028223
0.00281815
0.00281463
0.00281165
0.00299691
0.00299372
0.00299052
0.00298731
0.00298404
0.00298082
0.00297754
0.00297419
0.00297105
0.00296797
0.00296487
0.00296187
0.00295895
0.00295611
0.00295341
0.00295086
0.00294845
0.00294625
0.00294435
0.00294288
0.00294198
0.00294183
0.00294255
0.00294417
0.00294659
0.00294954
0.00295261
0.0029553
0.00295718
0.0029579
0.00295727
0.00295522
0.00295183
0.00294734
0.00294196
0.00293594
0.00292947
0.00292269
0.00291571
0.00290875
0.00290193
0.00289527
0.00288893
0.00288292
0.00287725
0.00287201
0.00286724
0.00286295
0.00285917
0.00285588
0.00299763
0.00299518
0.00299271
0.00299025
0.00298771
0.00298519
0.0029828
0.00298036
0.00297789
0.00297543
0.00297301
0.00297064
0.00296833
0.0029661
0.00296398
0.002962
0.00296021
0.00295872
0.0029577
0.00295738
0.00295808
0.00296009
0.00296365
0.00296888
0.00297564
0.00298348
0.00299166
0.0029993
0.00300555
0.00300978
0.00301162
0.00301103
0.0030082
0.00300349
0.0029973
0.00299006
0.00298214
0.00297384
0.00296544
0.00295722
0.0029493
0.0029417
0.00293451
0.00292763
0.00292125
0.00291535
0.00291003
0.00290522
0.00290098
0.00289723
0.00299808
0.00299613
0.00299412
0.00299216
0.00299023
0.00298823
0.00298614
0.0029841
0.00298213
0.00298022
0.00297838
0.00297663
0.00297502
0.00297358
0.00297236
0.00297143
0.00297095
0.00297117
0.00297248
0.00297535
0.00298037
0.00298811
0.00299902
0.00301327
0.00303052
0.00304986
0.00306982
0.0030887
0.00310483
0.0031169
0.00312416
0.00312643
0.0031241
0.00311784
0.00310852
0.00309703
0.00308419
0.00307137
0.00305875
0.00304636
0.00303423
0.00302264
0.00301168
0.00300143
0.00299198
0.00298325
0.00297528
0.00296811
0.00296173
0.00295608
0.00299836
0.00299672
0.00299502
0.0029933
0.00299164
0.00299
0.0029884
0.00298692
0.00298567
0.00298476
0.00298431
0.0029844
0.00298507
0.0029864
0.0029885
0.00299155
0.0029959
0.00300205
0.00301069
0.00302268
0.00303903
0.0030608
0.00308882
0.00312338
0.0031639
0.00320869
0.003255
0.00329951
0.00333882
0.00337006
0.00339137
0.00340206
0.00340255
0.00339408
0.00337842
0.003358
0.00333715
0.00331532
0.00329301
0.00327068
0.00324873
0.00322748
0.00320707
0.00318787
0.00316997
0.00315353
0.00313863
0.00312542
0.00311389
0.00310398
0.00299924
0.00299871
0.00299818
0.00299756
0.00299723
0.00299735
0.00299818
0.00300041
0.00300468
0.0030113
0.00302027
0.00303135
0.00304426
0.00305885
0.00307523
0.00309367
0.00311477
0.00313899
0.00316708
0.00320029
0.00324069
0.00329108
0.00335386
0.00343029
0.00351984
0.00361936
0.00372343
0.00382534
0.00391835
0.00399667
0.00405614
0.00409464
0.00411197
0.00410941
0.00408919
0.00406028
0.00402609
0.00398844
0.00394879
0.00390829
0.00386788
0.00382819
0.00378983
0.00375334
0.0037192
0.00368785
0.00365953
0.00363439
0.00361225
0.00359275
0.00305803
0.00308471
0.00309993
0.00311535
0.00313206
0.00315041
0.00317121
0.00319577
0.00322566
0.00326211
0.00330528
0.00335448
0.00340846
0.00346572
0.00352471
0.00358416
0.00365884
0.00373793
0.0038137
0.00388405
0.00396198
0.00407174
0.00422497
0.00442013
0.00464783
0.00489238
0.00513721
0.0053681
0.00557417
0.00574776
0.00588457
0.00598388
0.00604782
0.00607993
0.00608475
0.00607547
0.00604791
0.00600625
0.00595617
0.00590232
0.00584812
0.00579588
0.00574736
0.00570301
0.00566295
0.00562698
0.00559427
0.00556412
0.00553617
0.00551029
0.0169579
0.0162945
0.0154333
0.0146194
0.013957
0.0134274
0.0130108
0.0126857
0.0124342
0.0122629
0.0121949
0.012263
0.0125018
0.012928
0.0134985
0.0140975
0.0145863
0.0150388
0.0154098
0.015637
0.0156889
0.0156097
0.015481
0.0153636
0.0152794
0.0152135
0.0151476
0.0150697
0.0149719
0.0148489
0.0146966
0.0145122
0.0142939
0.0140404
0.0137499
0.0134193
0.0130909
0.0127719
0.0124689
0.0121844
0.011917
0.011668
0.0114392
0.0112354
0.0110601
0.0109161
0.0108002
0.0107062
0.0106228
0.010543
0.0589323
0.0574906
0.0561267
0.0548333
0.0536016
0.0524233
0.0512906
0.0502004
0.0491503
0.0481382
0.0471625
0.0462217
0.0453142
0.0444389
0.0435943
0.0427793
0.0419925
0.0412326
0.0404983
0.0397885
0.0391019
0.0384374
0.0377941
0.037171
0.0365676
0.035983
0.0354167
0.034868
0.0343363
0.033821
0.0333215
0.0328371
0.0323674
0.0319118
0.0314699
0.0310411
0.0306251
0.0302215
0.02983
0.0294487
0.0290761
0.0287117
0.0283546
0.0280042
0.0276594
0.027319
0.026981
0.0266423
0.0262975
0.0259359
0.0580918
0.0554639
0.0530119
0.0507167
0.0485685
0.0465572
0.0446748
0.0429102
0.0412539
0.0396972
0.0382324
0.0368525
0.0355513
0.0343229
0.033162
0.0320638
0.0310235
0.030037
0.0291003
0.0282099
0.0273625
0.0265552
0.0257855
0.025051
0.0243496
0.0236795
0.0230389
0.022426
0.0218391
0.0212768
0.0207375
0.02022
0.0197228
0.0192448
0.0187847
0.0183414
0.0179139
0.017501
0.0171018
0.0167167
0.0163458
0.0159882
0.0156432
0.0153103
0.0149886
0.0146777
0.0143767
0.014085
0.0138015
0.0135251
0.0580881
0.0554512
0.0529825
0.0506727
0.0485094
0.0464812
0.0445774
0.042788
0.041104
0.0395175
0.0380211
0.0366084
0.0352734
0.0340106
0.0328151
0.031682
0.0306071
0.0295862
0.0286158
0.0276923
0.0268127
0.0259741
0.025174
0.0244101
0.0236804
0.022983
0.0223161
0.0216779
0.021067
0.0204818
0.0199208
0.0193828
0.0188665
0.0183707
0.0178945
0.017437
0.0169972
0.0165742
0.0161672
0.0157755
0.0153983
0.0150349
0.0146848
0.0143474
0.0140222
0.0137087
0.0134065
0.0131151
0.0128341
0.0125631
0.0580881
0.05547
0.0530229
0.050733
0.0485869
0.0465723
0.0446785
0.0428961
0.0412166
0.0396324
0.0381367
0.0367233
0.0353864
0.034121
0.0329221
0.0317852
0.030706
0.0296807
0.0287056
0.0277773
0.0268928
0.0260494
0.0252445
0.024476
0.0237417
0.0230397
0.0223684
0.021726
0.0211109
0.0205216
0.0199567
0.0194149
0.0188949
0.0183957
0.0179161
0.0174553
0.0170122
0.0165861
0.0161762
0.0157815
0.0154014
0.0150353
0.0146826
0.0143427
0.014015
0.013699
0.0133944
0.0131007
0.0128174
0.0125441
0.0580881
0.0554704
0.0530223
0.0507298
0.0485801
0.0465619
0.0446648
0.0428796
0.0411979
0.0396123
0.0381158
0.0367021
0.0353654
0.0341005
0.0329024
0.0317664
0.0306884
0.0296644
0.0286905
0.0277637
0.0268806
0.0260387
0.0252353
0.0244683
0.0237355
0.0230351
0.0223652
0.0217242
0.0211105
0.0205224
0.0199587
0.0194178
0.0188987
0.0184003
0.0179215
0.0174613
0.0170189
0.0165933
0.0161837
0.0157894
0.0154097
0.0150438
0.0146912
0.0143513
0.0140235
0.0137074
0.0134025
0.0131083
0.0128244
0.0125502
0.0580881
0.0554718
0.0530266
0.0507378
0.0485923
0.0465783
0.0446854
0.0429042
0.0412261
0.0396435
0.0381495
0.0367378
0.0354027
0.0341388
0.0329413
0.0318056
0.0307275
0.0297031
0.0287288
0.0278013
0.0269175
0.0260748
0.0252707
0.0245029
0.0237694
0.0230682
0.0223977
0.0217559
0.0211414
0.0205525
0.0199878
0.019446
0.018926
0.0184266
0.0179468
0.0174856
0.0170421
0.0166155
0.0162049
0.0158096
0.0154287
0.0150618
0.0147081
0.014367
0.014038
0.0137206
0.0134143
0.0131186
0.0128331
0.0125572
0.0580881
0.0554721
0.0530274
0.0507388
0.0485931
0.0465787
0.0446851
0.042903
0.0412239
0.0396403
0.0381452
0.0367324
0.0353963
0.0341314
0.032933
0.0317965
0.0307177
0.0296928
0.028718
0.0277901
0.0269062
0.0260635
0.0252596
0.0244921
0.023759
0.0230583
0.0223883
0.021747
0.021133
0.0205445
0.0199802
0.0194388
0.0189192
0.0184201
0.0179406
0.0174797
0.0170365
0.0166101
0.0161997
0.0158045
0.0154238
0.015057
0.0147033
0.0143622
0.0140331
0.0137155
0.0134088
0.0131127
0.0128267
0.0125501
0.0580881
0.0554722
0.0530277
0.0507395
0.0485945
0.046581
0.0446884
0.0429075
0.0412296
0.0396471
0.0381531
0.0367412
0.0354059
0.0341417
0.0329437
0.0318076
0.030729
0.0297041
0.0287294
0.0278015
0.0269177
0.026075
0.0252711
0.0245037
0.0237707
0.0230701
0.0224001
0.0217587
0.0211445
0.0205558
0.0199913
0.0194496
0.0189296
0.0184301
0.0179502
0.0174888
0.017045
0.0166181
0.0162071
0.0158113
0.01543
0.0150625
0.014708
0.0143661
0.014036
0.0137174
0.0134098
0.0131125
0.0128252
0.0125473
0.058088
0.055472
0.0530274
0.0507393
0.0485945
0.0465811
0.0446888
0.0429079
0.04123
0.0396474
0.0381531
0.0367409
0.035405
0.0341402
0.0329417
0.0318048
0.0307256
0.0297
0.0287248
0.0277965
0.0269123
0.0260694
0.0252655
0.0244981
0.0237652
0.0230647
0.0223947
0.0217534
0.0211393
0.0205507
0.0199863
0.0194446
0.0189246
0.0184251
0.0179452
0.0174837
0.0170399
0.016613
0.0162019
0.0158061
0.0154246
0.0150568
0.0147021
0.0143598
0.0140294
0.0137103
0.0134021
0.0131043
0.0128163
0.0125377
0.058088
0.0554718
0.0530271
0.0507389
0.0485942
0.0465811
0.044689
0.0429085
0.0412309
0.0396485
0.0381544
0.0367424
0.0354066
0.0341418
0.0329432
0.0318062
0.0307268
0.0297012
0.0287258
0.0277976
0.0269134
0.0260707
0.0252669
0.0244996
0.0237668
0.0230664
0.0223965
0.0217554
0.0211412
0.0205526
0.0199881
0.0194464
0.0189263
0.0184266
0.0179464
0.0174848
0.0170408
0.0166135
0.0162022
0.0158059
0.015424
0.0150557
0.0147003
0.0143574
0.0140264
0.0137066
0.0133976
0.0130989
0.01281
0.0125303
0.0580879
0.0554715
0.0530266
0.0507384
0.0485937
0.0465806
0.0446886
0.0429081
0.0412306
0.0396483
0.0381542
0.036742
0.0354061
0.0341411
0.0329422
0.031805
0.0307253
0.0296995
0.028724
0.0277957
0.0269115
0.0260688
0.025265
0.0244979
0.0237651
0.0230648
0.0223949
0.0217538
0.0211396
0.020551
0.0199865
0.0194447
0.0189245
0.0184247
0.0179444
0.0174826
0.0170384
0.0166109
0.0161993
0.0158026
0.0154203
0.0150515
0.0146957
0.0143522
0.0140206
0.0137002
0.0133906
0.0130911
0.0128014
0.0125209
0.0580878
0.0554713
0.0530262
0.0507377
0.0485928
0.0465796
0.0446874
0.0429068
0.0412292
0.0396467
0.0381524
0.03674
0.0354037
0.0341383
0.0329389
0.0318013
0.0307213
0.0296952
0.0287195
0.0277909
0.0269067
0.0260639
0.0252601
0.0244929
0.0237602
0.0230599
0.0223901
0.0217489
0.0211348
0.0205462
0.0199817
0.0194399
0.0189197
0.0184199
0.0179396
0.0174778
0.0170335
0.0166058
0.0161939
0.015797
0.0154143
0.0150452
0.014689
0.0143451
0.0140131
0.0136922
0.0133821
0.0130821
0.0127918
0.0125106
0.0580878
0.0554711
0.0530256
0.0507368
0.0485915
0.0465781
0.0446859
0.0429055
0.041228
0.0396458
0.0381518
0.0367397
0.0354036
0.0341384
0.0329393
0.0318019
0.0307221
0.0296962
0.0287207
0.0277924
0.0269083
0.0260657
0.0252621
0.0244951
0.0237625
0.0230622
0.0223924
0.0217512
0.021137
0.0205483
0.0199836
0.0194416
0.0189213
0.0184213
0.0179407
0.0174786
0.0170338
0.0166057
0.0161933
0.0157957
0.0154124
0.0150427
0.0146858
0.0143413
0.0140086
0.013687
0.013376
0.0130752
0.012784
0.0125019
0.0580877
0.0554707
0.0530245
0.0507348
0.0485887
0.0465744
0.0446814
0.0429
0.0412216
0.0396384
0.0381434
0.0367303
0.0353932
0.0341271
0.0329271
0.031789
0.0307086
0.0296823
0.0287064
0.0277778
0.0268936
0.026051
0.0252474
0.0244805
0.0237479
0.0230478
0.0223781
0.0217371
0.0211231
0.0205345
0.0199701
0.0194284
0.0189083
0.0184086
0.0179282
0.0174662
0.0170216
0.0165935
0.016181
0.0157835
0.0154001
0.0150303
0.0146734
0.0143288
0.0139959
0.0136742
0.0133631
0.013062
0.0127705
0.012488
0.0580877
0.0554701
0.0530232
0.050733
0.0485868
0.0465729
0.0446806
0.0429003
0.0412231
0.039641
0.0381471
0.0367349
0.0353987
0.0341333
0.0329339
0.0317963
0.0307162
0.02969
0.0287143
0.0277859
0.0269017
0.026059
0.0252553
0.0244881
0.0237553
0.0230548
0.0223847
0.0217432
0.0211287
0.0205397
0.0199748
0.0194326
0.018912
0.0184117
0.0179308
0.0174681
0.0170228
0.0165939
0.0161806
0.0157823
0.0153981
0.0150274
0.0146697
0.0143243
0.0139906
0.013668
0.013356
0.013054
0.0127615
0.0124778
0.0580876
0.0554685
0.0530185
0.0507245
0.048574
0.0465558
0.0446593
0.042875
0.0411943
0.0396093
0.0381128
0.0366985
0.0353607
0.0340941
0.0328939
0.0317557
0.0306755
0.0296494
0.028674
0.027746
0.0268625
0.0260205
0.0252175
0.0244512
0.0237192
0.0230195
0.0223503
0.0217097
0.0210961
0.020508
0.019944
0.0194027
0.018883
0.0183835
0.0179033
0.0174413
0.0169966
0.0165682
0.0161554
0.0157575
0.0153737
0.0150035
0.0146461
0.0143011
0.0139678
0.0136456
0.0133338
0.013032
0.0127395
0.0124559
0.0580876
0.0554679
0.0530188
0.0507275
0.0485805
0.0465659
0.0446727
0.0428912
0.0412125
0.0396288
0.038133
0.0367189
0.0353807
0.0341134
0.0329122
0.0317729
0.0306913
0.0296638
0.0286869
0.0277574
0.0268723
0.0260287
0.0252242
0.0244562
0.0237227
0.0230217
0.0223511
0.0217092
0.0210945
0.0205053
0.0199402
0.0193979
0.0188771
0.0183768
0.0178957
0.0174328
0.0169872
0.0165581
0.0161446
0.015746
0.0153617
0.014991
0.0146333
0.0142881
0.0139547
0.0136326
0.0133211
0.0130198
0.0127281
0.0124458
0.0580875
0.055449
0.0529782
0.0506669
0.0485027
0.0464744
0.0445711
0.0427825
0.0410993
0.0395133
0.0380168
0.0366034
0.035267
0.0340024
0.0328046
0.0316691
0.0305918
0.0295688
0.0285967
0.0276721
0.0267919
0.0259533
0.0251537
0.0243907
0.0236621
0.022966
0.0223003
0.0216633
0.0210534
0.020469
0.0199086
0.0193711
0.0188551
0.0183594
0.017883
0.0174249
0.0169841
0.01656
0.0161516
0.0157583
0.0153796
0.0150149
0.0146638
0.0143256
0.0140001
0.0136868
0.0133853
0.0130957
0.012818
0.0125532
0.0580912
0.0554614
0.053007
0.05071
0.0485608
0.0465495
0.0446678
0.0429044
0.0412494
0.0396938
0.0382295
0.0368495
0.0355476
0.0343179
0.0331553
0.0320551
0.031013
0.0300249
0.0290871
0.0281963
0.0273492
0.026543
0.0257751
0.025043
0.0243447
0.023678
0.0230411
0.0224321
0.0218495
0.0212917
0.0207575
0.0202456
0.0197547
0.0192837
0.0188318
0.018398
0.0179815
0.0175816
0.0171979
0.0168297
0.0164768
0.0161389
0.015816
0.0155079
0.0152147
0.0149367
0.0146745
0.0144297
0.0142054
0.0140083
0.058932
0.0574894
0.0561243
0.0548298
0.0535974
0.0524188
0.0512858
0.0501953
0.0491449
0.0481325
0.0471563
0.0462148
0.0453065
0.0444301
0.0435843
0.0427678
0.0419793
0.0412178
0.0404819
0.0397705
0.0390825
0.0384169
0.0377728
0.0371493
0.0365456
0.0359606
0.0353937
0.0348441
0.0343111
0.0337939
0.0332919
0.0328044
0.0323307
0.0318704
0.0314227
0.0309871
0.0305631
0.0301502
0.029748
0.0293561
0.0289741
0.0286015
0.0282378
0.0278824
0.0275347
0.027194
0.0268594
0.0265302
0.0262054
0.0258835
0.0263592
0.00684239
0.00555917
0.0073798
0.00978473
0.0117639
0.0127333
0.01255
0.0114765
0.00999178
0.0085247
0.00727368
0.0061628
0.00499117
0.00413653
0.0032786
0.00266329
0.00277615
0.00568742
0.0454254
0.0259894
0.00681401
0.00561231
0.00748265
0.00992267
0.0119171
0.0128816
0.0126792
0.0115815
0.0100749
0.00859486
0.00734264
0.00623516
0.00504043
0.0042043
0.00336787
0.00268142
0.0026633
0.00533803
0.0447682
0.0256205
0.00678268
0.0056666
0.00758883
0.0100653
0.0120753
0.0130341
0.0128109
0.0116868
0.0101567
0.00866275
0.00740976
0.00631955
0.00509817
0.00424027
0.00341338
0.00270166
0.00262524
0.00521327
0.0446949
0.0252528
0.00674926
0.00572218
0.00769855
0.0102129
0.0122387
0.0131909
0.012945
0.0117921
0.0102364
0.00872776
0.00747396
0.00639233
0.00515961
0.00427706
0.0034574
0.00272381
0.00259163
0.00509677
0.0446455
0.0248864
0.00671391
0.00577908
0.00781197
0.0103657
0.0124077
0.013352
0.0130812
0.011897
0.0103137
0.0087895
0.00753574
0.00646317
0.00522356
0.0043145
0.00349995
0.00274758
0.00256219
0.00498787
0.0446172
0.0245214
0.00667657
0.00583731
0.00792921
0.0105239
0.0125823
0.0135175
0.0132194
0.012001
0.0103877
0.00884711
0.00759449
0.00653159
0.00528842
0.00435255
0.00354116
0.00277283
0.00253668
0.0048859
0.0446059
0.024158
0.00663716
0.0058969
0.00805041
0.0106878
0.0127628
0.0136874
0.0133592
0.0121035
0.0104576
0.00889948
0.00764932
0.00659585
0.00535325
0.00439112
0.00358108
0.0027993
0.00251487
0.0047905
0.0446097
0.0237962
0.00659551
0.00595789
0.00817574
0.0108576
0.0129494
0.0138618
0.0135004
0.0122036
0.0105221
0.00894525
0.00769882
0.00666012
0.00541824
0.00443014
0.00361971
0.00282672
0.00249649
0.00470143
0.0446277
0.0234363
0.00655143
0.0060203
0.00830532
0.0110334
0.0131422
0.0140405
0.0136424
0.0123005
0.0105799
0.00898282
0.00774109
0.00672062
0.00548297
0.00446964
0.00365714
0.00285483
0.00248131
0.00461844
0.0446591
0.0230781
0.00650478
0.00608416
0.0084393
0.0112156
0.0133415
0.0142236
0.0137848
0.012393
0.0106295
0.00901033
0.00777427
0.00677653
0.00554754
0.00450979
0.00369347
0.00288346
0.00246908
0.00454122
0.0447027
0.022722
0.00645539
0.00614951
0.00857785
0.0114043
0.0135473
0.0144107
0.0139268
0.0124799
0.0106691
0.00902579
0.00779644
0.00682285
0.00561086
0.00455071
0.00372887
0.00291246
0.00245959
0.00446948
0.0447575
0.022368
0.00640316
0.00621641
0.00872106
0.0115998
0.0137597
0.0146018
0.0140678
0.0125599
0.0106968
0.00902715
0.00780552
0.00685956
0.00567172
0.00459241
0.00376351
0.0029417
0.00245263
0.00440292
0.044822
0.0220162
0.00634803
0.0062849
0.00886906
0.0118021
0.0139789
0.0147964
0.0142069
0.0126315
0.0107108
0.00901212
0.00779954
0.00688521
0.00572889
0.00463475
0.00379752
0.00297107
0.002448
0.00434123
0.0448951
0.0216667
0.00628996
0.00635504
0.0090219
0.0120113
0.0142046
0.0149943
0.014343
0.0126931
0.0107087
0.00897818
0.00777609
0.00689866
0.00578124
0.00467745
0.003831
0.00300045
0.00244549
0.00428413
0.0449756
0.0213197
0.00622895
0.00642685
0.00917958
0.0122275
0.0144368
0.0151947
0.0144752
0.0127429
0.0106882
0.0089225
0.00773237
0.00689853
0.00582759
0.00472007
0.00386398
0.00302972
0.00244489
0.0042313
0.0450623
0.0209752
0.00616509
0.00650037
0.00934204
0.0124504
0.0146751
0.0153972
0.0146022
0.012779
0.0106465
0.008842
0.00766513
0.00688227
0.00586644
0.00476198
0.00389642
0.00305875
0.00244601
0.00418247
0.0451541
0.0206335
0.00609852
0.0065756
0.00950916
0.0126799
0.0149192
0.015601
0.0147225
0.0127991
0.010581
0.00873342
0.00757094
0.00684664
0.00589579
0.00480228
0.00392814
0.00308738
0.00244864
0.00413733
0.0452502
0.0202945
0.00602949
0.00665254
0.00968071
0.0129156
0.0151685
0.0158049
0.0148347
0.0128011
0.0104887
0.0085935
0.00744635
0.00678816
0.00591322
0.00483983
0.00395889
0.00311543
0.00245255
0.00409565
0.0453497
0.0199585
0.00595834
0.00673115
0.00985634
0.013157
0.0154222
0.0160081
0.0149372
0.0127827
0.0103669
0.00841912
0.00728805
0.00670358
0.00591621
0.00487332
0.0039883
0.00314272
0.00245756
0.00405716
0.0454524
0.0196256
0.00588549
0.00681133
0.0100356
0.0134034
0.0156794
0.0162093
0.0150283
0.0127419
0.010213
0.00820751
0.00709304
0.00659017
0.00590239
0.00490129
0.00401594
0.00316905
0.00246346
0.00402169
0.0455582
0.0192959
0.00581144
0.00689294
0.0102178
0.0136538
0.015939
0.016407
0.0151063
0.0126767
0.010025
0.00795651
0.00685879
0.0064458
0.00586974
0.00492232
0.00404128
0.0031942
0.00247005
0.00398906
0.0456676
0.0189695
0.00573679
0.00697572
0.0104022
0.013907
0.0161996
0.0165999
0.01517
0.0125857
0.00980154
0.00766486
0.00658354
0.00626884
0.00581664
0.004935
0.00406377
0.00321794
0.00247715
0.00395914
0.0457814
0.0186467
0.00566218
0.00705938
0.0105878
0.0141617
0.0164597
0.0167866
0.015218
0.012468
0.00954215
0.00733258
0.00626665
0.00605842
0.00574201
0.0049381
0.00408282
0.00324003
0.00248455
0.00393185
0.0459008
0.0183275
0.00558834
0.00714348
0.0107735
0.0144164
0.0167176
0.0169655
0.0152494
0.0123234
0.00924767
0.0069614
0.00590909
0.00581476
0.0056454
0.00493059
0.00409782
0.00326023
0.00249206
0.00390711
0.0460274
0.0180121
0.00551604
0.00722751
0.0109578
0.014669
0.0169714
0.0171354
0.0152638
0.0121529
0.00892051
0.00655524
0.00551405
0.00553948
0.00552715
0.00491177
0.00410823
0.00327829
0.00249948
0.00388487
0.0461632
0.0177007
0.00544604
0.00731079
0.0111394
0.0149176
0.0172192
0.017295
0.0152616
0.0119586
0.00856495
0.00612055
0.00508759
0.00523608
0.00538862
0.00488138
0.00411359
0.00329394
0.00250661
0.00386512
0.0463103
0.0173933
0.00537909
0.00739257
0.0113164
0.01516
0.0174589
0.0174436
0.0152437
0.0117439
0.00818725
0.00566653
0.00463917
0.00491047
0.0052325
0.00483969
0.00411356
0.00330699
0.00251327
0.00384784
0.0464713
0.0170901
0.00531591
0.00747198
0.0114871
0.0153938
0.0176887
0.0175805
0.0152119
0.0115136
0.00779573
0.00520507
0.00418207
0.00457124
0.00506285
0.0047876
0.00410799
0.00331725
0.00251927
0.00383306
0.0466488
0.0167912
0.00525715
0.00754808
0.0116497
0.0156168
0.0179066
0.0177055
0.0151686
0.0112739
0.00740045
0.00475027
0.00373324
0.00422954
0.00488509
0.00472659
0.00409696
0.00332461
0.00252447
0.00382081
0.0468458
0.0164967
0.00520339
0.00761989
0.0118024
0.0158268
0.0181111
0.0178188
0.0151173
0.0110319
0.00701285
0.00431747
0.00331237
0.0038983
0.00470555
0.00465868
0.00408073
0.00332902
0.00252873
0.00381112
0.0470647
0.0162068
0.00515511
0.00768645
0.0119435
0.0160215
0.0183006
0.0179211
0.0150615
0.0107956
0.00664492
0.00392187
0.00293988
0.00359101
0.00453095
0.00458618
0.00405976
0.0033305
0.00253194
0.00380402
0.0473083
0.0159214
0.00511262
0.00774678
0.0120712
0.0161992
0.0184741
0.018013
0.0150055
0.0105729
0.0063083
0.0035769
0.00263371
0.00331995
0.00436771
0.00451148
0.00403463
0.00332915
0.00253404
0.00379953
0.0475786
0.0156408
0.00507608
0.00780002
0.0121843
0.0163582
0.0186306
0.0180958
0.0149533
0.0103715
0.00601324
0.00329265
0.00240551
0.00309432
0.0042213
0.00443682
0.00400601
0.00332513
0.00253501
0.00379767
0.0478772
0.0153651
0.00504551
0.00784536
0.0122815
0.0164971
0.0187694
0.0181705
0.0149087
0.0101979
0.00576769
0.00307473
0.00225764
0.00291876
0.00409568
0.00436399
0.00397458
0.00331869
0.00253489
0.00379842
0.048205
0.0150943
0.00502074
0.00788217
0.0123619
0.0166151
0.0188905
0.0182384
0.0148749
0.010057
0.00557656
0.00292392
0.00218296
0.00279236
0.00399271
0.00429418
0.00394105
0.00331017
0.00253378
0.00380172
0.0485623
0.0148284
0.00500153
0.00790997
0.0124249
0.0167115
0.0189936
0.0183006
0.0148542
0.00995175
0.00544141
0.00283656
0.00216822
0.00270933
0.00391002
0.00422773
0.00390608
0.00329997
0.00253186
0.00380752
0.0489485
0.0145675
0.00498752
0.00792847
0.0124703
0.0167862
0.019079
0.0183577
0.0148481
0.00988299
0.00536042
0.00280523
0.00219837
0.00263979
0.00384425
0.00416429
0.00387028
0.00328855
0.00252934
0.00381572
0.0493626
0.0143118
0.00497829
0.00793754
0.0124979
0.0168392
0.0191471
0.0184106
0.0148568
0.0098495
0.00533282
0.00281574
0.00223805
0.00259713
0.00378307
0.00410342
0.00383414
0.00327632
0.00252642
0.00382625
0.0498036
0.0140611
0.00497269
0.00793614
0.0125065
0.0168717
0.0192016
0.0184653
0.0148868
0.0098508
0.00532973
0.00283349
0.00227312
0.00258215
0.00372281
0.00404394
0.003798
0.00326359
0.00252327
0.00383904
0.0502708
0.0138188
0.00496418
0.00792066
0.0124955
0.0168867
0.0192486
0.0185266
0.0149345
0.00987264
0.00534076
0.00285621
0.00230882
0.00258374
0.00366421
0.00398427
0.0037623
0.00325055
0.00252016
0.00385406
0.050764
0.013587
0.00495008
0.00789133
0.0124653
0.0168845
0.0192879
0.018593
0.0149972
0.00991194
0.00536358
0.00288268
0.00234594
0.00259663
0.00360715
0.00392452
0.00372626
0.00323721
0.00251796
0.0038757
0.0512798
0.0133654
0.00493058
0.00784862