/*--------------------------------*- C++ -*----------------------------------*\
  =========                 |
  \\      /  F ield         | OpenFOAM: The Open Source CFD Toolbox
   \\    /   O peration     | Website:  https://openfoam.org
    \\  /    A nd           | Version:  8
     \\/     M anipulation  |
\*---------------------------------------------------------------------------*/
FoamFile
{
    version     2.0;
    format      ascii;
    class       volScalarField;
    location    "500";
    object      nut;
}
// * * * * * * * * * * * * * * * * * * * * * * * * * * * * * * * * * * * * * //

dimensions      [0 2 -1 0 0 0 0];

internalField   nonuniform List<scalar> 
8400
(
0.000139044
0.000138453
0.000137886
0.000137341
0.000136813
0.000136301
0.0001358
0.000135309
0.000134825
0.000134348
0.000133877
0.000133412
0.000132955
0.000132507
0.000132068
0.00013164
0.000131223
0.000130817
0.000130423
0.000130043
0.000129675
0.000129321
0.000128982
0.000128653
0.000128336
0.000128027
0.000127725
0.000127428
0.000127135
0.000126843
0.000126548
0.000126249
0.000125943
0.000125631
0.000125311
0.000124986
0.000124655
0.00012432
0.000123982
0.000123643
0.000123304
0.000122968
0.000122639
0.000122317
0.000122005
0.000121703
0.000121418
0.000121154
0.000120917
0.000120721
7.39039e-05
7.39847e-05
7.40661e-05
7.4149e-05
7.42339e-05
7.43214e-05
7.44121e-05
7.45063e-05
7.46041e-05
7.47058e-05
7.48115e-05
7.49213e-05
7.50351e-05
7.51532e-05
7.52756e-05
7.54016e-05
7.55307e-05
7.56625e-05
7.57971e-05
7.59355e-05
7.60767e-05
7.62203e-05
7.63657e-05
7.65135e-05
7.66636e-05
7.68164e-05
7.6973e-05
7.71341e-05
7.72998e-05
7.74699e-05
7.76444e-05
7.78231e-05
7.8006e-05
7.81939e-05
7.83869e-05
7.85843e-05
7.8785e-05
7.89878e-05
7.91921e-05
7.93983e-05
7.96058e-05
7.98136e-05
8.00225e-05
8.02306e-05
8.04352e-05
8.06383e-05
8.08394e-05
8.10359e-05
8.12301e-05
8.14208e-05
7.72245e-05
7.73307e-05
7.74386e-05
7.75484e-05
7.76597e-05
7.77721e-05
7.7886e-05
7.80017e-05
7.81198e-05
7.82395e-05
7.83607e-05
7.84845e-05
7.86115e-05
7.87398e-05
7.88704e-05
7.90038e-05
7.91375e-05
7.92743e-05
7.94127e-05
7.95519e-05
7.969e-05
7.98303e-05
7.9973e-05
8.01182e-05
8.02657e-05
8.04143e-05
8.05645e-05
8.07167e-05
8.08707e-05
8.10268e-05
8.11855e-05
8.13466e-05
8.15109e-05
8.16782e-05
8.18473e-05
8.2018e-05
8.21909e-05
8.23664e-05
8.25441e-05
8.27229e-05
8.2902e-05
8.30821e-05
8.32618e-05
8.34402e-05
8.36192e-05
8.37981e-05
8.39744e-05
8.41502e-05
8.43264e-05
8.45018e-05
7.65765e-05
7.67357e-05
7.69028e-05
7.70754e-05
7.72516e-05
7.74295e-05
7.76084e-05
7.77876e-05
7.79665e-05
7.81457e-05
7.8324e-05
7.85015e-05
7.86796e-05
7.8858e-05
7.90369e-05
7.92176e-05
7.94006e-05
7.95845e-05
7.97705e-05
7.99567e-05
8.01457e-05
8.03378e-05
8.05316e-05
8.07267e-05
8.09227e-05
8.11186e-05
8.13136e-05
8.15077e-05
8.17013e-05
8.18933e-05
8.2083e-05
8.22698e-05
8.24536e-05
8.26337e-05
8.28097e-05
8.29829e-05
8.31554e-05
8.33281e-05
8.35001e-05
8.36709e-05
8.38421e-05
8.40156e-05
8.4191e-05
8.43687e-05
8.45509e-05
8.47374e-05
8.4929e-05
8.51258e-05
8.53279e-05
8.55385e-05
7.14017e-05
7.16047e-05
7.18225e-05
7.20502e-05
7.22848e-05
7.25229e-05
7.27619e-05
7.3001e-05
7.32391e-05
7.34759e-05
7.37115e-05
7.39457e-05
7.41794e-05
7.44138e-05
7.46508e-05
7.48879e-05
7.51283e-05
7.53722e-05
7.56199e-05
7.58693e-05
7.61223e-05
7.63793e-05
7.6639e-05
7.69008e-05
7.71648e-05
7.74304e-05
7.76963e-05
7.79599e-05
7.8218e-05
7.84688e-05
7.87118e-05
7.89466e-05
7.91729e-05
7.93901e-05
7.95986e-05
7.98001e-05
7.9996e-05
8.01879e-05
8.03778e-05
8.05687e-05
8.07634e-05
8.09619e-05
8.11646e-05
8.13737e-05
8.15906e-05
8.18169e-05
8.20551e-05
8.23042e-05
8.25708e-05
8.28502e-05
6.46307e-05
6.48012e-05
6.49884e-05
6.51869e-05
6.53932e-05
6.56045e-05
6.5819e-05
6.60353e-05
6.62524e-05
6.64693e-05
6.66878e-05
6.69073e-05
6.71287e-05
6.73524e-05
6.75804e-05
6.78118e-05
6.80444e-05
6.8283e-05
6.85256e-05
6.87722e-05
6.90245e-05
6.9283e-05
6.95466e-05
6.98143e-05
7.0087e-05
7.03639e-05
7.06416e-05
7.09173e-05
7.11898e-05
7.14577e-05
7.17188e-05
7.19716e-05
7.22141e-05
7.24448e-05
7.2665e-05
7.28775e-05
7.3086e-05
7.32928e-05
7.34999e-05
7.37099e-05
7.3924e-05
7.4143e-05
7.437e-05
7.46074e-05
7.48557e-05
7.51173e-05
7.53926e-05
7.56853e-05
7.59968e-05
7.63301e-05
6.02029e-05
6.02619e-05
6.03305e-05
6.04071e-05
6.04902e-05
6.05779e-05
6.06696e-05
6.07659e-05
6.08658e-05
6.09691e-05
6.10775e-05
6.11897e-05
6.1305e-05
6.14254e-05
6.15498e-05
6.16785e-05
6.18105e-05
6.19463e-05
6.20847e-05
6.22262e-05
6.23716e-05
6.25225e-05
6.26792e-05
6.28424e-05
6.30131e-05
6.31907e-05
6.33733e-05
6.35597e-05
6.37481e-05
6.39366e-05
6.41245e-05
6.43103e-05
6.44909e-05
6.46657e-05
6.4838e-05
6.50095e-05
6.518e-05
6.53498e-05
6.55221e-05
6.57009e-05
6.58871e-05
6.6081e-05
6.62836e-05
6.64949e-05
6.67163e-05
6.69482e-05
6.71908e-05
6.745e-05
6.77233e-05
6.80182e-05
5.90779e-05
5.90389e-05
5.9007e-05
5.89809e-05
5.89596e-05
5.8943e-05
5.8929e-05
5.89205e-05
5.89164e-05
5.8914e-05
5.8916e-05
5.89235e-05
5.89328e-05
5.89457e-05
5.89671e-05
5.89881e-05
5.90122e-05
5.9037e-05
5.90628e-05
5.90918e-05
5.91224e-05
5.91526e-05
5.91824e-05
5.92118e-05
5.92413e-05
5.92713e-05
5.93025e-05
5.93352e-05
5.93708e-05
5.94123e-05
5.94611e-05
5.9516e-05
5.95767e-05
5.9645e-05
5.97203e-05
5.97986e-05
5.98788e-05
5.99637e-05
6.0056e-05
6.0155e-05
6.02589e-05
6.03684e-05
6.04844e-05
6.0604e-05
6.07274e-05
6.08546e-05
6.09906e-05
6.11306e-05
6.1283e-05
6.14428e-05
5.94084e-05
5.93133e-05
5.92413e-05
5.91815e-05
5.9132e-05
5.90954e-05
5.90646e-05
5.90366e-05
5.90184e-05
5.90012e-05
5.89843e-05
5.89704e-05
5.89654e-05
5.89618e-05
5.89615e-05
5.89645e-05
5.89752e-05
5.89917e-05
5.90101e-05
5.90263e-05
5.90363e-05
5.90389e-05
5.90334e-05
5.90172e-05
5.8989e-05
5.89476e-05
5.889e-05
5.88131e-05
5.87215e-05
5.8624e-05
5.85255e-05
5.84305e-05
5.83468e-05
5.82806e-05
5.82321e-05
5.81997e-05
5.81807e-05
5.81728e-05
5.81764e-05
5.81903e-05
5.82145e-05
5.82536e-05
5.82943e-05
5.83343e-05
5.83822e-05
5.84309e-05
5.84785e-05
5.85308e-05
5.85851e-05
5.86388e-05
6.00458e-05
5.98807e-05
5.97688e-05
5.96605e-05
5.95579e-05
5.95072e-05
5.9492e-05
5.94618e-05
5.94557e-05
5.94683e-05
5.94791e-05
5.94838e-05
5.94953e-05
5.95165e-05
5.95319e-05
5.95503e-05
5.95721e-05
5.9599e-05
5.96363e-05
5.96845e-05
5.97379e-05
5.97899e-05
5.98341e-05
5.98717e-05
5.99064e-05
5.99356e-05
5.99431e-05
5.99169e-05
5.98584e-05
5.97616e-05
5.96144e-05
5.9429e-05
5.92343e-05
5.90446e-05
5.88631e-05
5.86967e-05
5.8524e-05
5.83632e-05
5.82369e-05
5.81251e-05
5.8042e-05
5.80064e-05
5.79973e-05
5.79791e-05
5.7985e-05
5.80278e-05
5.80698e-05
5.81027e-05
5.81501e-05
5.82019e-05
6.06758e-05
6.06299e-05
6.05669e-05
6.05035e-05
6.02498e-05
6.0123e-05
6.0284e-05
6.02187e-05
6.00429e-05
6.00446e-05
6.00114e-05
5.98817e-05
5.99465e-05
5.99271e-05
5.99278e-05
5.99671e-05
5.99888e-05
6.00013e-05
6.00245e-05
6.00534e-05
6.00814e-05
6.01079e-05
6.01321e-05
6.01676e-05
6.02366e-05
6.0323e-05
6.03857e-05
6.04189e-05
6.04307e-05
6.04065e-05
6.03687e-05
6.03532e-05
6.02795e-05
6.01138e-05
6.00036e-05
5.99399e-05
5.9748e-05
5.95931e-05
5.95565e-05
5.94183e-05
5.90644e-05
5.87806e-05
5.88648e-05
5.84745e-05
5.81556e-05
5.82074e-05
5.81588e-05
5.80835e-05
5.81849e-05
5.81806e-05
6.14182e-05
6.13353e-05
6.12426e-05
6.11686e-05
6.11044e-05
6.10109e-05
6.09277e-05
6.08611e-05
6.07846e-05
6.0696e-05
6.06378e-05
6.058e-05
6.05345e-05
6.04858e-05
6.04425e-05
6.04093e-05
6.03839e-05
6.03701e-05
6.03585e-05
6.03445e-05
6.03402e-05
6.03448e-05
6.03543e-05
6.03773e-05
6.04161e-05
6.04555e-05
6.04908e-05
6.0527e-05
6.05567e-05
6.05766e-05
6.05894e-05
6.05788e-05
6.05388e-05
6.04933e-05
6.04332e-05
6.03453e-05
6.02554e-05
6.01643e-05
6.00509e-05
5.99226e-05
5.97951e-05
5.96707e-05
5.95255e-05
5.93753e-05
5.9255e-05
5.91119e-05
5.8972e-05
5.8886e-05
5.88237e-05
5.87261e-05
6.14544e-05
6.1408e-05
6.13625e-05
6.13129e-05
6.12656e-05
6.12165e-05
6.11701e-05
6.11254e-05
6.10673e-05
6.10227e-05
6.09772e-05
6.09291e-05
6.08887e-05
6.08491e-05
6.08108e-05
6.07765e-05
6.0744e-05
6.07121e-05
6.06829e-05
6.06598e-05
6.06431e-05
6.06315e-05
6.06278e-05
6.06358e-05
6.06547e-05
6.06839e-05
6.07238e-05
6.07689e-05
6.08104e-05
6.08439e-05
6.08636e-05
6.08651e-05
6.08509e-05
6.08211e-05
6.07751e-05
6.07187e-05
6.06542e-05
6.05807e-05
6.0495e-05
6.03979e-05
6.02985e-05
6.01944e-05
6.00846e-05
5.9985e-05
5.98819e-05
5.97856e-05
5.96887e-05
5.96068e-05
5.95313e-05
5.94622e-05
6.1468e-05
6.14359e-05
6.14032e-05
6.13695e-05
6.13353e-05
6.13031e-05
6.12668e-05
6.12279e-05
6.11956e-05
6.11647e-05
6.11305e-05
6.10967e-05
6.10642e-05
6.10327e-05
6.10021e-05
6.0974e-05
6.09478e-05
6.09215e-05
6.08955e-05
6.08712e-05
6.08498e-05
6.08343e-05
6.08294e-05
6.08397e-05
6.0869e-05
6.09187e-05
6.09846e-05
6.10588e-05
6.11331e-05
6.11983e-05
6.12459e-05
6.12715e-05
6.12725e-05
6.12502e-05
6.12101e-05
6.11562e-05
6.10907e-05
6.10133e-05
6.0926e-05
6.08366e-05
6.07486e-05
6.06553e-05
6.05662e-05
6.04793e-05
6.03919e-05
6.03076e-05
6.02253e-05
6.01497e-05
6.00798e-05
6.00202e-05
6.14762e-05
6.14514e-05
6.14259e-05
6.14008e-05
6.13733e-05
6.13454e-05
6.13217e-05
6.12976e-05
6.12719e-05
6.12439e-05
6.12167e-05
6.11897e-05
6.11635e-05
6.11392e-05
6.11156e-05
6.10927e-05
6.10703e-05
6.1047e-05
6.10224e-05
6.09981e-05
6.09772e-05
6.09651e-05
6.09701e-05
6.10022e-05
6.107e-05
6.11754e-05
6.13125e-05
6.14683e-05
6.16252e-05
6.17656e-05
6.18762e-05
6.19482e-05
6.19788e-05
6.19724e-05
6.19341e-05
6.18682e-05
6.17835e-05
6.16855e-05
6.15789e-05
6.14724e-05
6.13664e-05
6.12605e-05
6.11576e-05
6.10511e-05
6.09507e-05
6.08527e-05
6.07635e-05
6.06765e-05
6.05983e-05
6.05243e-05
6.14806e-05
6.14612e-05
6.14398e-05
6.14207e-05
6.14027e-05
6.13822e-05
6.13579e-05
6.13348e-05
6.13129e-05
6.12901e-05
6.12683e-05
6.12476e-05
6.12276e-05
6.12094e-05
6.11933e-05
6.11773e-05
6.11594e-05
6.11386e-05
6.11158e-05
6.10938e-05
6.10793e-05
6.10843e-05
6.11256e-05
6.12213e-05
6.13847e-05
6.16189e-05
6.1913e-05
6.22425e-05
6.25756e-05
6.28804e-05
6.31298e-05
6.33059e-05
6.34034e-05
6.34258e-05
6.33821e-05
6.32868e-05
6.31535e-05
6.30232e-05
6.28806e-05
6.27294e-05
6.25688e-05
6.24093e-05
6.22524e-05
6.20989e-05
6.19515e-05
6.18063e-05
6.1666e-05
6.153e-05
6.14009e-05
6.12758e-05
6.14832e-05
6.14666e-05
6.14479e-05
6.14282e-05
6.14104e-05
6.13912e-05
6.13702e-05
6.13474e-05
6.13228e-05
6.12973e-05
6.12744e-05
6.12578e-05
6.12503e-05
6.12532e-05
6.12659e-05
6.12843e-05
6.1303e-05
6.1318e-05
6.13286e-05
6.13404e-05
6.13681e-05
6.14375e-05
6.158e-05
6.18241e-05
6.2189e-05
6.26772e-05
6.32701e-05
6.39294e-05
6.46035e-05
6.52355e-05
6.57741e-05
6.61827e-05
6.64418e-05
6.65501e-05
6.65209e-05
6.63952e-05
6.62431e-05
6.60376e-05
6.58079e-05
6.55625e-05
6.53115e-05
6.50604e-05
6.48048e-05
6.4554e-05
6.43037e-05
6.40559e-05
6.38112e-05
6.3574e-05
6.33454e-05
6.31273e-05
6.14898e-05
6.14676e-05
6.14427e-05
6.14103e-05
6.13802e-05
6.13476e-05
6.13012e-05
6.1247e-05
6.11967e-05
6.11634e-05
6.11614e-05
6.12015e-05
6.12894e-05
6.14265e-05
6.16078e-05
6.1818e-05
6.20438e-05
6.2259e-05
6.24463e-05
6.26103e-05
6.27855e-05
6.30428e-05
6.34506e-05
6.40371e-05
6.48185e-05
6.57856e-05
6.68965e-05
6.80907e-05
6.92969e-05
7.0441e-05
7.14545e-05
7.22815e-05
7.28845e-05
7.32433e-05
7.33499e-05
7.33004e-05
7.31208e-05
7.28593e-05
7.25423e-05
7.21901e-05
7.18199e-05
7.14384e-05
7.10502e-05
7.06557e-05
7.0256e-05
6.98536e-05
6.94528e-05
6.90619e-05
6.86838e-05
6.83174e-05
6.19015e-05
6.1435e-05
6.14192e-05
6.15105e-05
6.15607e-05
6.16189e-05
6.16536e-05
6.16226e-05
6.15327e-05
6.14384e-05
6.14223e-05
6.15291e-05
6.17745e-05
6.21543e-05
6.26474e-05
6.32205e-05
6.43819e-05
6.57148e-05
6.6897e-05
6.7795e-05
6.84677e-05
6.95235e-05
7.12514e-05
7.32198e-05
7.52328e-05
7.72435e-05
7.92002e-05
8.10484e-05
8.27255e-05
8.41701e-05
8.53392e-05
8.62133e-05
8.67934e-05
8.7092e-05
8.71397e-05
8.73301e-05
8.74828e-05
8.74774e-05
8.72721e-05
8.69394e-05
8.65327e-05
8.60877e-05
8.56525e-05
8.52544e-05
8.492e-05
8.46582e-05
8.44515e-05
8.4297e-05
8.42037e-05
8.41919e-05
0.000137632
0.00012897
0.000119371
0.000112544
0.000108872
0.000107649
0.000108426
0.000110755
0.000114289
0.000118735
0.000123826
0.000129601
0.000136766
0.000145983
0.000156198
0.000164413
0.000167203
0.000166749
0.000163212
0.00015733
0.000151352
0.000147072
0.000145038
0.000144752
0.000144954
0.000144981
0.000144658
0.000143959
0.000142907
0.000141521
0.000139822
0.000137841
0.000135597
0.000133082
0.000130256
0.000127048
0.000124224
0.000121888
0.000120069
0.000118656
0.000117598
0.000116918
0.000116628
0.000116806
0.000117465
0.000118529
0.000119723
0.000120737
0.00012125
0.000121149
0.000272578
0.000269199
0.000265974
0.000262892
0.000259928
0.000257062
0.000254279
0.000251571
0.000248936
0.000246368
0.000243864
0.000241421
0.000239039
0.000236714
0.000234447
0.000232237
0.000230084
0.000227985
0.000225941
0.000223949
0.000222008
0.000220115
0.000218269
0.000216466
0.000214704
0.000212981
0.000211298
0.000209652
0.000208045
0.000206476
0.000204943
0.000203448
0.000201987
0.000200561
0.000199167
0.000197806
0.000196476
0.000195176
0.000193906
0.000192665
0.000191443
0.00019024
0.000189053
0.000187881
0.000186719
0.000185563
0.000184408
0.000183244
0.000182051
0.000180794
0.00027061
0.000264383
0.00025846
0.000252807
0.000247407
0.000242249
0.000237321
0.000232608
0.000228092
0.000223761
0.0002196
0.000215601
0.000211754
0.000208053
0.000204491
0.000201063
0.000197763
0.000194587
0.000191527
0.000188577
0.000185731
0.00018298
0.000180318
0.000177738
0.000175236
0.000172809
0.000170453
0.000168167
0.000165948
0.000163795
0.000161704
0.000159672
0.000157696
0.000155774
0.000153901
0.000152072
0.000150287
0.000148542
0.000146835
0.000145166
0.000143543
0.000141963
0.000140421
0.000138916
0.000137446
0.000136009
0.000134603
0.000133227
0.000131877
0.00013055
0.000270605
0.000264361
0.000258397
0.000252704
0.000247261
0.000242052
0.000237061
0.000232272
0.000227671
0.000223244
0.000218982
0.000214875
0.000210915
0.000207096
0.000203412
0.000199858
0.000196428
0.000193119
0.000189924
0.000186836
0.000183851
0.00018096
0.000178159
0.000175441
0.000172802
0.00017024
0.00016775
0.000165331
0.000162982
0.000160699
0.00015848
0.000156324
0.000154227
0.000152186
0.0001502
0.000148265
0.000146381
0.000144545
0.000142757
0.000141016
0.00013932
0.000137666
0.000136053
0.000134479
0.000132944
0.000131447
0.000129987
0.000128563
0.000127177
0.000125827
0.000270606
0.000264408
0.000258498
0.000252856
0.000247459
0.00024229
0.00023733
0.000232565
0.000227982
0.000223568
0.000219314
0.000215211
0.000211252
0.000207432
0.000203744
0.000200185
0.000196748
0.00019343
0.000190224
0.000187125
0.000184127
0.000181223
0.000178408
0.000175676
0.000173024
0.000170447
0.000167944
0.000165511
0.000163147
0.000160851
0.000158621
0.000156452
0.000154343
0.00015229
0.000150291
0.000148343
0.000146446
0.000144598
0.000142798
0.000141044
0.000139335
0.000137668
0.000136043
0.000134457
0.00013291
0.000131401
0.000129929
0.000128494
0.000127096
0.000125733
0.000270606
0.00026441
0.000258496
0.000252848
0.000247442
0.000242263
0.000237294
0.000232521
0.00022793
0.000223511
0.000219254
0.00021515
0.000211191
0.000207372
0.000203686
0.00020013
0.000196697
0.000193382
0.00019018
0.000187084
0.000184089
0.000181189
0.000178377
0.000175649
0.000173
0.000170427
0.000167927
0.000165499
0.000163141
0.000160851
0.000158626
0.000156463
0.000154358
0.000152309
0.000150313
0.000148368
0.000146474
0.000144629
0.000142831
0.000141079
0.000139372
0.000137706
0.000136082
0.000134497
0.000132951
0.000131442
0.000129969
0.000128532
0.000127131
0.000125765
0.000270607
0.000264413
0.000258508
0.000252869
0.000247475
0.000242308
0.00023735
0.000232588
0.000228008
0.000223599
0.000219351
0.000215255
0.000211304
0.000207491
0.000203811
0.000200258
0.000196828
0.000193515
0.000190314
0.000187218
0.000184221
0.000181318
0.000178504
0.000175774
0.000173122
0.000170546
0.000168045
0.000165616
0.000163257
0.000160966
0.00015874
0.000156575
0.000154468
0.000152417
0.000150418
0.000148472
0.000146575
0.000144727
0.000142925
0.000141169
0.000139457
0.000137787
0.000136159
0.00013457
0.000133019
0.000131505
0.000130027
0.000128584
0.000127175
0.000125801
0.000270607
0.000264415
0.000258512
0.000252875
0.00024748
0.000242311
0.00023735
0.000232583
0.000228
0.000223588
0.000219338
0.00021524
0.000211287
0.000207472
0.00020379
0.000200236
0.000196804
0.000193489
0.000190285
0.000187187
0.000184187
0.000181282
0.000178466
0.000175733
0.00017308
0.000170505
0.000168005
0.000165577
0.000163221
0.000160933
0.000158709
0.000156545
0.000154439
0.000152389
0.000150393
0.000148447
0.000146551
0.000144703
0.000142902
0.000141145
0.000139433
0.000137764
0.000136136
0.000134547
0.000132996
0.000131481
0.000130001
0.000128556
0.000127145
0.000125768
0.000270607
0.000264419
0.000258518
0.000252881
0.000247487
0.000242318
0.000237357
0.000232593
0.000228013
0.000223605
0.000219359
0.000215266
0.000211317
0.000207506
0.000203828
0.000200277
0.000196848
0.000193535
0.000190331
0.000187232
0.000184231
0.000181325
0.000178507
0.000175773
0.00017312
0.000170545
0.000168045
0.000165619
0.000163264
0.000160975
0.000158751
0.000156587
0.000154481
0.000152431
0.000150433
0.000148487
0.000146588
0.000144738
0.000142933
0.000141174
0.00013946
0.000137788
0.000136157
0.000134565
0.00013301
0.000131491
0.000130006
0.000128556
0.000127139
0.000125755
0.000270608
0.000264424
0.000258524
0.000252886
0.000247489
0.000242318
0.000237356
0.000232591
0.000228012
0.000223604
0.000219359
0.000215265
0.000211316
0.000207506
0.000203828
0.000200276
0.000196845
0.000193529
0.000190323
0.00018722
0.000184216
0.000181306
0.000178486
0.00017575
0.000173096
0.000170521
0.000168022
0.000165597
0.000163241
0.000160953
0.000158729
0.000156566
0.00015446
0.00015241
0.000150413
0.000148465
0.000146566
0.000144714
0.000142909
0.00014115
0.000139435
0.000137762
0.00013613
0.000134536
0.000132979
0.000131457
0.00012997
0.000128517
0.000127097
0.000125709
0.000270609
0.000264429
0.000258529
0.000252889
0.00024749
0.000242317
0.000237355
0.000232591
0.000228012
0.000223606
0.000219362
0.000215271
0.000211324
0.000207516
0.000203839
0.000200288
0.000196857
0.00019354
0.000190332
0.000187228
0.000184222
0.000181311
0.000178489
0.000175754
0.0001731
0.000170526
0.000168028
0.000165602
0.000163247
0.000160959
0.000158735
0.000156572
0.000154467
0.000152416
0.000150418
0.000148469
0.000146569
0.000144716
0.00014291
0.00014115
0.000139433
0.000137758
0.000136123
0.000134526
0.000132966
0.00013144
0.000129949
0.000128492
0.000127067
0.000125673
0.000270611
0.000264433
0.000258532
0.000252891
0.000247491
0.000242317
0.000237354
0.00023259
0.000228011
0.000223605
0.000219362
0.000215272
0.000211326
0.000207519
0.000203842
0.00020029
0.000196858
0.000193539
0.00019033
0.000187224
0.000184217
0.000181304
0.000178482
0.000175746
0.000173092
0.000170518
0.00016802
0.000165594
0.00016324
0.000160952
0.000158728
0.000156564
0.000154458
0.000152407
0.000150408
0.000148459
0.000146558
0.000144705
0.000142898
0.000141137
0.000139418
0.000137741
0.000136103
0.000134503
0.000132938
0.00013141
0.000129915
0.000128454
0.000127024
0.000125625
0.000270612
0.000264436
0.000258536
0.000252893
0.000247491
0.000242316
0.000237352
0.000232587
0.000228007
0.000223601
0.000219358
0.000215268
0.000211323
0.000207515
0.000203837
0.000200284
0.000196849
0.000193529
0.000190317
0.000187209
0.0001842
0.000181286
0.000178464
0.000175727
0.000173073
0.000170499
0.000168
0.000165575
0.000163221
0.000160933
0.000158708
0.000156544
0.000154437
0.000152386
0.000150386
0.000148437
0.000146537
0.000144684
0.000142877
0.000141115
0.000139395
0.000137715
0.000136074
0.000134471
0.000132903
0.000131371
0.000129873
0.000128408
0.000126975
0.000125571
0.000270613
0.00026444
0.000258539
0.000252895
0.000247492
0.000242315
0.00023735
0.000232583
0.000228003
0.000223598
0.000219357
0.00021527
0.000211326
0.00020752
0.000203842
0.000200289
0.000196855
0.000193534
0.000190322
0.000187214
0.000184206
0.000181292
0.000178469
0.000175733
0.00017308
0.000170506
0.000168009
0.000165584
0.000163229
0.00016094
0.000158715
0.000156549
0.000154442
0.00015239
0.00015039
0.00014844
0.00014654
0.000144686
0.000142878
0.000141114
0.00013939
0.000137707
0.000136062
0.000134453
0.000132882
0.000131345
0.000129842
0.000128372
0.000126933
0.000125524
0.000270615
0.000264444
0.000258543
0.000252896
0.000247489
0.000242308
0.000237339
0.000232568
0.000227985
0.000223578
0.000219334
0.000215244
0.000211298
0.000207488
0.000203808
0.000200251
0.000196814
0.000193491
0.000190276
0.000187165
0.000184155
0.000181239
0.000178416
0.00017568
0.000173026
0.000170453
0.000167956
0.000165531
0.000163176
0.000160886
0.00015866
0.000156495
0.000154388
0.000152336
0.000150337
0.000148388
0.000146489
0.000144637
0.000142829
0.000141064
0.000139339
0.000137653
0.000136006
0.000134395
0.000132821
0.000131281
0.000129776
0.000128303
0.000126862
0.000125451
0.000270616
0.000264448
0.000258546
0.000252897
0.000247488
0.000242306
0.000237337
0.000232569
0.000227989
0.000223586
0.000219346
0.00021526
0.000211317
0.000207509
0.000203831
0.000200276
0.00019684
0.000193517
0.000190302
0.000187191
0.00018418
0.000181265
0.000178442
0.000175706
0.000173053
0.000170479
0.000167981
0.000165555
0.000163198
0.000160906
0.000158678
0.000156511
0.000154401
0.000152347
0.000150347
0.000148397
0.000146497
0.000144643
0.000142832
0.000141064
0.000139334
0.000137644
0.000135991
0.000134375
0.000132794
0.000131249
0.000129737
0.000128259
0.000126813
0.000125397
0.000270618
0.000264448
0.000258539
0.000252879
0.000247458
0.000242263
0.000237281
0.000232501
0.000227911
0.000223498
0.00021925
0.000215155
0.000211206
0.000207392
0.000203709
0.00020015
0.00019671
0.000193384
0.000190167
0.000187055
0.000184044
0.00018113
0.000178308
0.000175573
0.000172922
0.000170349
0.000167852
0.000165428
0.000163072
0.000160782
0.000158555
0.000156389
0.000154281
0.00015223
0.000150232
0.000148286
0.000146388
0.000144535
0.000142726
0.000140957
0.000139228
0.000137537
0.000135883
0.000134266
0.000132684
0.000131138
0.000129626
0.000128147
0.000126701
0.000125284
0.000270619
0.000264449
0.000258542
0.000252889
0.000247476
0.000242291
0.000237319
0.000232547
0.000227963
0.000223555
0.00021931
0.000215217
0.000211267
0.000207452
0.000203767
0.000200204
0.00019676
0.000193429
0.000190207
0.000187091
0.000184076
0.000181158
0.000178331
0.000175592
0.000172935
0.000170357
0.000167855
0.000165425
0.000163065
0.00016077
0.000158538
0.000156368
0.000154257
0.000152202
0.000150201
0.000148252
0.00014635
0.000144495
0.000142682
0.00014091
0.000139177
0.000137483
0.000135825
0.000134204
0.00013262
0.000131073
0.000129561
0.000128085
0.000126642
0.000125231
0.000270619
0.000264405
0.000258444
0.000252739
0.00024728
0.000242054
0.00023705
0.000232254
0.000227652
0.000223231
0.000218977
0.00021488
0.000210928
0.000207115
0.000203433
0.000199876
0.000196439
0.000193117
0.000189906
0.000186802
0.0001838
0.000180896
0.000178083
0.000175358
0.000172715
0.000170151
0.000167665
0.000165251
0.000162906
0.000160627
0.000158412
0.00015626
0.000154167
0.000152131
0.00015015
0.00014822
0.000146339
0.000144505
0.000142716
0.000140968
0.000139261
0.000137594
0.000135967
0.00013438
0.000132834
0.000131331
0.000129871
0.000128455
0.000127086
0.000125768
0.000270628
0.000264435
0.000258515
0.000252848
0.000247429
0.00024225
0.000237307
0.000232583
0.000228066
0.000223738
0.000219587
0.000215599
0.000211764
0.000208072
0.000204517
0.00020109
0.000197787
0.000194602
0.00019153
0.000188567
0.000185708
0.000182947
0.000180277
0.000177694
0.000175194
0.000172775
0.000170433
0.000168164
0.000165963
0.000163828
0.000161758
0.000159751
0.000157805
0.000155917
0.000154085
0.000152307
0.000150581
0.000148904
0.000147276
0.000145693
0.000144154
0.000142662
0.000141217
0.000139822
0.000138482
0.0001372
0.000135984
0.000134841
0.000133789
0.000132861
0.000272579
0.000269222
0.000266003
0.000262915
0.000259943
0.000257072
0.000254283
0.00025157
0.000248931
0.000246359
0.000243852
0.000241408
0.000239023
0.000236698
0.00023443
0.000232219
0.000230064
0.000227963
0.000225916
0.00022392
0.000221972
0.000220072
0.000218216
0.000216405
0.000214636
0.000212909
0.000211222
0.000209573
0.000207962
0.000206387
0.000204848
0.000203344
0.000201873
0.000200434
0.000199025
0.000197644
0.000196291
0.000194963
0.000193657
0.000192373
0.00019111
0.000189869
0.000188649
0.00018745
0.000186271
0.00018511
0.000183966
0.000182835
0.000181715
0.000180598
0.000182649
9.50798e-05
8.62142e-05
9.88669e-05
0.000113057
0.000123242
0.00012781
0.000126891
0.000121702
0.000114077
0.000105836
9.79242e-05
8.98137e-05
7.9792e-05
7.09785e-05
6.23398e-05
5.77084e-05
6.24968e-05
9.241e-05
0.000246193
0.000181343
9.48799e-05
8.66424e-05
9.95883e-05
0.000113897
0.000124096
0.000128608
0.000127597
0.000122307
0.000114603
0.000106332
9.84587e-05
9.01254e-05
8.0366e-05
7.17853e-05
6.33019e-05
5.76155e-05
6.07449e-05
8.9169e-05
0.000243974
0.000180028
9.46552e-05
8.70738e-05
0.000100324
0.000114757
0.000124968
0.000129419
0.000128308
0.000122907
0.000115114
0.000106814
9.90058e-05
9.10192e-05
8.09224e-05
7.22526e-05
6.38345e-05
5.77357e-05
6.00864e-05
8.79005e-05
0.000243489
0.000178711
9.44116e-05
8.75101e-05
0.000101077
0.000115638
0.000125861
0.000130246
0.000129023
0.0001235
0.000115605
0.000107272
9.95347e-05
9.1747e-05
8.14501e-05
7.27165e-05
6.43515e-05
5.78935e-05
5.94873e-05
8.66882e-05
0.000243086
0.000177389
9.41488e-05
8.79508e-05
0.000101846
0.000116541
0.000126775
0.000131087
0.000129742
0.00012408
0.000116071
0.000107699
0.000100047
9.25665e-05
8.21106e-05
7.32e-05
6.48594e-05
5.80873e-05
5.89464e-05
8.55271e-05
0.000242745
0.000176064
9.38646e-05
8.83952e-05
0.000102631
0.000117465
0.00012771
0.000131942
0.000130463
0.000124646
0.000116505
0.000108084
0.000100519
9.32917e-05
8.28369e-05
7.37061e-05
6.53625e-05
5.8315e-05
5.84622e-05
8.44127e-05
0.000242454
0.000174737
9.35581e-05
8.88434e-05
0.000103433
0.000118413
0.000128668
0.000132812
0.000131182
0.000125189
0.000116897
0.000108414
0.000100932
9.38053e-05
8.35587e-05
7.42304e-05
6.58603e-05
5.85736e-05
5.80337e-05
8.33447e-05
0.000242209
0.000173408
9.32276e-05
8.92951e-05
0.000104253
0.000119384
0.000129647
0.000133696
0.000131897
0.000125705
0.000117238
0.000108675
0.000101266
9.42321e-05
8.42531e-05
7.47646e-05
6.63522e-05
5.88583e-05
5.76592e-05
8.23246e-05
0.000242013
0.000172076
9.28717e-05
8.975e-05
0.00010509
0.000120379
0.00013065
0.00013459
0.000132603
0.000126186
0.000117517
0.000108858
0.000101513
9.45213e-05
8.49008e-05
7.5301e-05
6.68367e-05
5.91645e-05
5.73362e-05
8.13538e-05
0.000241867
0.000170743
9.24897e-05
9.02087e-05
0.000105945
0.000121399
0.000131675
0.000135495
0.000133297
0.000126625
0.000117727
0.000108952
0.000101673
9.47899e-05
8.55343e-05
7.58371e-05
6.73127e-05
5.94878e-05
5.70619e-05
8.0433e-05
0.00024177
0.000169408
9.208e-05
9.06714e-05
0.000106819
0.000122443
0.000132722
0.000136408
0.000133976
0.000127018
0.000117859
0.000108948
0.000101738
9.50913e-05
8.61559e-05
7.63717e-05
6.77799e-05
5.98242e-05
5.68334e-05
7.95625e-05
0.000241721
0.000168073
9.16418e-05
9.11377e-05
0.000107709
0.00012351
0.000133789
0.000137327
0.000134634
0.000127357
0.000117901
0.000108832
0.000101698
9.5369e-05
8.67431e-05
7.69024e-05
6.82379e-05
6.017e-05
5.66475e-05
7.87422e-05
0.000241719
0.000166739
9.1175e-05
9.16076e-05
0.000108616
0.0001246
0.000134874
0.000138248
0.000135267
0.000127632
0.000117841
0.000108587
0.000101532
9.55518e-05
8.7275e-05
7.74259e-05
6.86872e-05
6.05224e-05
5.65013e-05
7.7972e-05
0.000241762
0.000165404
9.06782e-05
9.20806e-05
0.000109539
0.000125709
0.000135975
0.000139168
0.000135868
0.000127833
0.000117662
0.000108194
0.00010122
9.55959e-05
8.77338e-05
7.79391e-05
6.91286e-05
6.08794e-05
5.63921e-05
7.72516e-05
0.000241848
0.000164071
9.01505e-05
9.25559e-05
0.000110474
0.000126836
0.000137088
0.000140083
0.00013643
0.000127949
0.000117349
0.000107629
0.00010073
9.54827e-05
8.81091e-05
7.84384e-05
6.95634e-05
6.12396e-05
5.63171e-05
7.65807e-05
0.000241978
0.000162739
8.95939e-05
9.30336e-05
0.000111419
0.000127978
0.00013821
0.000140986
0.000136945
0.000127968
0.000116883
0.00010687
0.000100037
9.52081e-05
8.83975e-05
7.892e-05
6.99923e-05
6.16012e-05
5.62732e-05
7.59584e-05
0.000242148
0.000161409
8.9011e-05
9.3513e-05
0.000112374
0.000129131
0.000139337
0.000141874
0.000137405
0.000127878
0.000116247
0.000105894
9.91198e-05
9.47679e-05
8.85931e-05
7.93779e-05
7.04148e-05
6.19625e-05
5.62571e-05
7.53832e-05
0.000242359
0.00016008
8.84043e-05
9.39934e-05
0.000113334
0.000130292
0.000140464
0.000142738
0.000137802
0.000127665
0.000115424
0.00010468
9.79578e-05
9.41511e-05
8.86816e-05
7.98023e-05
7.0828e-05
6.23208e-05
5.62649e-05
7.48532e-05
0.000242607
0.000158754
8.77773e-05
9.44742e-05
0.000114294
0.000131453
0.000141584
0.000143573
0.000138128
0.00012732
0.000114396
0.000103205
9.65292e-05
9.33366e-05
8.86414e-05
8.01796e-05
7.12272e-05
6.26726e-05
5.62924e-05
7.43659e-05
0.00024289
0.000157433
8.71334e-05
9.49533e-05
0.000115251
0.00013261
0.000142691
0.000144373
0.000138374
0.000126832
0.00011315
0.00010145
9.48083e-05
9.2293e-05
8.84481e-05
8.04938e-05
7.16056e-05
6.30139e-05
5.63351e-05
7.39189e-05
0.000243203
0.000156115
8.64778e-05
9.54287e-05
0.000116198
0.000133756
0.000143779
0.00014513
0.000138535
0.000126193
0.000111671
9.93947e-05
9.27688e-05
9.09908e-05
8.80804e-05
8.07288e-05
7.19555e-05
6.33405e-05
5.63885e-05
7.35094e-05
0.000243546
0.000154802
8.58161e-05
9.58979e-05
0.000117129
0.000134882
0.000144838
0.000145837
0.000138604
0.000125396
0.000109953
9.7026e-05
9.03877e-05
8.94069e-05
8.75241e-05
8.08705e-05
7.22688e-05
6.36478e-05
5.64484e-05
7.31354e-05
0.000243918
0.000153495
8.51544e-05
9.63577e-05
0.000118037
0.00013598
0.000145862
0.000146488
0.000138579
0.000124441
0.000107994
9.43389e-05
8.76502e-05
8.75278e-05
8.67743e-05
8.09089e-05
7.25379e-05
6.39317e-05
5.65108e-05
7.2795e-05
0.000244318
0.000152195
8.44988e-05
9.68039e-05
0.000118915
0.000137041
0.000146841