/*--------------------------------*- C++ -*----------------------------------*\
  =========                 |
  \\      /  F ield         | OpenFOAM: The Open Source CFD Toolbox
   \\    /   O peration     | Website:  https://openfoam.org
    \\  /    A nd           | Version:  8
     \\/     M anipulation  |
\*---------------------------------------------------------------------------*/
FoamFile
{
    version     2.0;
    format      ascii;
    class       volScalarField;
    location    "500";
    object      p;
}
// * * * * * * * * * * * * * * * * * * * * * * * * * * * * * * * * * * * * * //

dimensions      [1 -1 -2 0 0 0 0];

internalField   nonuniform List<scalar> 
8400
(
44983.7
84857.8
123929
160671
195738
229742
263313
296992
331125
365838
401060
436550
472015
507189
541927
576227
610370
644831
680181
717041
755985
797381
841375
887878
936507
986619
1.03742e+06
1.08802e+06
1.13754e+06
1.18522e+06
1.23053e+06
1.27316e+06
1.31308e+06
1.35045e+06
1.38553e+06
1.41867e+06
1.45022e+06
1.48052e+06
1.50983e+06
1.53837e+06
1.5662e+06
1.59331e+06
1.61965e+06
1.64526e+06
1.67038e+06
1.69527e+06
1.72028e+06
1.74669e+06
1.7777e+06
1.8156e+06
44429.5
84575.7
124129
161308
196658
230740
264162
297470
331065
365146
399707
434569
469478
504221
538658
572803
606900
641375
676809
713805
752878
794394
838518
885146
933885
984103
1.03501e+06
1.08572e+06
1.13538e+06
1.18327e+06
1.22885e+06
1.2718e+06
1.31204e+06
1.34967e+06
1.38492e+06
1.4181e+06
1.44954e+06
1.47957e+06
1.50845e+06
1.53638e+06
1.56342e+06
1.58955e+06
1.61476e+06
1.63914e+06
1.66283e+06
1.68599e+06
1.70886e+06
1.73215e+06
1.75753e+06
1.78659e+06
44616.8
85935.8
126586
164672
200591
234841
268015
300697
333355
366294
399644
433362
467271
501249
535196
569113
603231
637913
673654
711057
750638
792699
837335
884418
933566
984175
1.03549e+06
1.08669e+06
1.13696e+06
1.18556e+06
1.23195e+06
1.27578e+06
1.3169e+06
1.35537e+06
1.39138e+06
1.42519e+06
1.45708e+06
1.48735e+06
1.51624e+06
1.54394e+06
1.57059e+06
1.59623e+06
1.62097e+06
1.64494e+06
1.66832e+06
1.69131e+06
1.71419e+06
1.73736e+06
1.76162e+06
1.78759e+06
44044.9
86944.2
129049
168308
204923
239300
272023
303718
334967
366192
397697
429626
461973
494681
527700
561069
594946
629664
665688
703520
743569
786108
831237
878809
928436
979533
1.03138e+06
1.08317e+06
1.1341e+06
1.18346e+06
1.23067e+06
1.27535e+06
1.31727e+06
1.35643e+06
1.39294e+06
1.42703e+06
1.45889e+06
1.48876e+06
1.51689e+06
1.54348e+06
1.56866e+06
1.59258e+06
1.61541e+06
1.63733e+06
1.65857e+06
1.67944e+06
1.7002e+06
1.72116e+06
1.74292e+06
1.76606e+06
43914.4
89347.9
133464
174215
211670
246173
278340
308853
338420
367663
397068
426981
457566
488862
520847
553614
587291
622105
658445
696763
737435
780711
826672
875158
925776
977940
1.03092e+06
1.08392e+06
1.13615e+06
1.1869e+06
1.23555e+06
1.28162e+06
1.32482e+06
1.36507e+06
1.40247e+06
1.43718e+06
1.4694e+06
1.49932e+06
1.52717e+06
1.55313e+06
1.57736e+06
1.60007e+06
1.62147e+06
1.6418e+06
1.66138e+06
1.68052e+06
1.69949e+06
1.71854e+06
1.738e+06
1.75851e+06
43220.1
91673.6
137958
180077
218054
252270
283399
312267
339748
366703
393801
421577
450350
480254
511268
543431
576834
611630
648130
686731
727811
771656
818363
867776
919496
972920
1.0273e+06
1.08182e+06
1.13565e+06
1.18796e+06
1.23805e+06
1.28534e+06
1.3295e+06
1.37043e+06
1.40822e+06
1.44304e+06
1.47506e+06
1.50451e+06
1.53157e+06
1.55646e+06
1.57937e+06
1.60054e+06
1.62022e+06
1.63871e+06
1.65637e+06
1.67357e+06
1.69063e+06
1.70776e+06
1.72522e+06
1.74349e+06
43485.1
96092.2
144892
188314
226540
260159
290035
317156
342583
367372
392399
418355
445674
474491
504772
536439
569447
603910
640169
678671
719849
764047
811422
861867
914996
970170
1.02656e+06
1.08323e+06
1.13924e+06
1.19364e+06
1.24559e+06
1.29443e+06
1.33974e+06
1.38139e+06
1.41947e+06
1.45421e+06
1.48589e+06
1.5148e+06
1.54113e+06
1.56507e+06
1.58681e+06
1.6066e+06
1.62471e+06
1.64148e+06
1.6573e+06
1.67256e+06
1.68765e+06
1.70278e+06
1.71818e+06
1.73417e+06
44092.9
101351
152648
197092
235375
268436
297361
323252
347268
370580
394180
418810
444965
472734
501993
532593
564448
597693
632723
670083
710363
754067
801481
852572
906948
963896
1.02247e+06
1.08161e+06
1.14015e+06
1.19699e+06
1.25113e+06
1.30175e+06
1.34833e+06
1.39067e+06
1.42896e+06
1.46364e+06
1.49509e+06
1.52361e+06
1.54937e+06
1.57254e+06
1.59336e+06
1.61205e+06
1.62892e+06
1.64433e+06
1.65865e+06
1.67234e+06
1.68571e+06
1.69911e+06
1.71267e+06
1.72668e+06
48114.4
109695
161708
205714
243087
275014
302695
327337
350082
372091
394363
417672
442503
468987
497040
526482
557181
589279
623212
659621
699230
742684
790376
842327
898138
957021
1.0179e+06
1.07953e+06
1.14061e+06
1.19985e+06
1.25615e+06
1.30857e+06
1.35644e+06
1.39947e+06
1.43798e+06
1.47266e+06
1.50404e+06
1.53238e+06
1.55781e+06
1.58052e+06
1.60072e+06
1.61864e+06
1.63463e+06
1.64908e+06
1.66233e+06
1.67482e+06
1.68692e+06
1.69897e+06
1.71118e+06
1.72376e+06
56618.9
121785
171594
214058
250470
281344
307635
330491
351061
370632
390257
410891
433200
457482
483794
512063
542196
574249
608486
645406
685695
730037
778872
832231
889683
950367
1.01311e+06
1.07655e+06
1.13928e+06
1.19998e+06
1.25754e+06
1.31105e+06
1.35978e+06
1.40328e+06
1.44195e+06
1.47674e+06
1.50821e+06
1.53654e+06
1.5618e+06
1.5842e+06
1.60397e+06
1.62142e+06
1.63696e+06
1.65091e+06
1.66362e+06
1.67546e+06
1.68682e+06
1.69811e+06
1.70958e+06
1.72142e+06
54301.6
123109
173680
215719
251907
282839
309336
332567
353406
372718
391540
410883
431582
454203
478945
505861
535044
566643
600850
638021
678747
723653
773139
827215
885434
946909
1.01042e+06
1.07453e+06
1.13777e+06
1.19878e+06
1.25643e+06
1.30988e+06
1.35854e+06
1.40201e+06
1.4407e+06
1.47561e+06
1.50732e+06
1.53587e+06
1.5613e+06
1.58382e+06
1.60368e+06
1.62125e+06
1.63699e+06
1.65119e+06
1.66409e+06
1.676e+06
1.68732e+06
1.69844e+06
1.70966e+06
1.72127e+06
47942.3
121600
175051
217294
253263
284584
311728
335645
357205
376960
395802
414725
434648
456263
479914
505787
534038
564827
598375
635059
675416
720005
769204
823039
881096
942508
1.00604e+06
1.07024e+06
1.13359e+06
1.19472e+06
1.2525e+06
1.30611e+06
1.35503e+06
1.39905e+06
1.43839e+06
1.47371e+06
1.50563e+06
1.53435e+06
1.56e+06
1.58279e+06
1.60296e+06
1.62084e+06
1.6368e+06
1.65113e+06
1.66415e+06
1.67622e+06
1.6877e+06
1.69889e+06
1.71015e+06
1.72178e+06
42340.1
113372
171855
217523
255190
288760
319353
347051
371835
393736
413498
432157
450834
470545
491974
515554
541578
570286
601967
637039
676041
719492
767707
820639
877796
938243
1.00069e+06
1.06364e+06
1.12562e+06
1.18534e+06
1.24178e+06
1.29426e+06
1.3424e+06
1.38615e+06
1.42575e+06
1.46166e+06
1.49428e+06
1.52388e+06
1.55064e+06
1.57472e+06
1.59634e+06
1.61579e+06
1.63334e+06
1.64922e+06
1.66375e+06
1.67718e+06
1.68978e+06
1.7018e+06
1.71354e+06
1.72521e+06
26336.7
94218
158246
209768
252021
290614
327684
362760
394479
421891
444914
464331
481572
498189
515496
534488
555879
580223
608062
639980
676562
718257
765217
817156
873316
932516
993285
1.05406e+06
1.11341e+06
1.1702e+06
1.2237e+06
1.2735e+06
1.31951e+06
1.36185e+06
1.40083e+06
1.43686e+06
1.4703e+06
1.5014e+06
1.53032e+06
1.55715e+06
1.58203e+06
1.60512e+06
1.62651e+06
1.64635e+06
1.66473e+06
1.68173e+06
1.69743e+06
1.71188e+06
1.72514e+06
1.73728e+06
15207.5
74059.7
142027
200635
250330
297611
345399
393027
437812
476942
508631
532669
550250
563355
574145
584595
596381
610923
629477
653190
683022
719544
762737
811916
865801
922731
980889
1.03854e+06
1.09423e+06
1.14703e+06
1.19645e+06
1.2424e+06
1.28504e+06
1.32472e+06
1.36186e+06
1.39692e+06
1.43029e+06
1.46222e+06
1.49293e+06
1.52257e+06
1.55125e+06
1.57894e+06
1.60564e+06
1.63135e+06
1.65592e+06
1.67925e+06
1.70102e+06
1.72094e+06
1.73864e+06
1.7538e+06
-19987
29047.5
98105.1
162055
219558
277084
337937
401452
464404
522338
571160
608458
633928
648961
655919
657582
656859
656616
659651
668681
686073
713285
750388
795960
847493
902105
957179
1.01072e+06
1.06152e+06
1.1091e+06
1.15355e+06
1.1953e+06
1.23482e+06
1.27259e+06
1.30897e+06
1.34427e+06
1.37873e+06
1.41246e+06
1.44577e+06
1.47898e+06
1.51204e+06
1.54476e+06
1.5771e+06
1.6089e+06
1.63997e+06
1.6699e+06
1.69808e+06
1.7237e+06
1.74596e+06
1.76416e+06
-18410.2
4075.7
70669.9
143319
215126
289604
368476
450829
533340
610796
677503
728928
762883
779656
781359
771110
752553
729671
706902
689347
682396
690490
715537
755864
806756
862327
917453
968955
1.01576e+06
1.05833e+06
1.09792e+06
1.13592e+06
1.17344e+06
1.21106e+06
1.24905e+06
1.2873e+06
1.32589e+06
1.36516e+06
1.40497e+06
1.44495e+06
1.48492e+06
1.52487e+06
1.56479e+06
1.60436e+06
1.64339e+06
1.68108e+06
1.7162e+06
1.747e+06
1.77189e+06
1.78974e+06
-101748
-101548
-42061.7
38815.8
135044
244220
362803
486734
611096
729294
833347
915773
971620
999629
1.00175e+06
981833
944330
893981
836197
777997
727974
694908
685348
700269
734098
778015
824116
867655
907262
943917
979622
1.01631e+06
1.05525e+06
1.09703e+06
1.14187e+06
1.18965e+06
1.23943e+06
1.29044e+06
1.34226e+06
1.39445e+06
1.44678e+06
1.4995e+06
1.55291e+06
1.60727e+06
1.66238e+06
1.71711e+06
1.76905e+06
1.81441e+06
1.84917e+06
1.86937e+06
-95771
-157877
-165297
-119139
-22726
113301
276118
452032
629281
797809
947541
1.06945e+06
1.15792e+06
1.21192e+06
1.23242e+06
1.22098e+06
1.18029e+06
1.11515e+06
1.03329e+06
946549
868808
811322
780218
773658
782668
797923
814127
829887
846253
865343
889262
919325
955710
997704
1.04401e+06
1.09371e+06
1.14693e+06
1.20389e+06
1.26366e+06
1.3249e+06
1.38697e+06
1.45005e+06
1.51479e+06
1.58234e+06
1.65319e+06
1.72649e+06
1.79897e+06
1.86444e+06
1.91577e+06
1.94485e+06
-44485.6
-123807
-157089
-129162
-38219.2
102258
276088
466185
656871
834755
987723
1.10707e+06
1.19072e+06
1.24197e+06
1.26332e+06
1.25434e+06
1.2149e+06
1.14809e+06
1.06091e+06
964573
875628
810294
775353
766934
774819
788398
801869
814187
826945
842615
863623
891684
927176
969088
1.01584e+06
1.06636e+06
1.12039e+06
1.17831e+06
1.24032e+06
1.30527e+06
1.37195e+06
1.44032e+06
1.5112e+06
1.58563e+06
1.66427e+06
1.746e+06
1.82655e+06
1.89858e+06
1.954e+06
1.98469e+06
3.67179e+06
3.67127e+06
3.67102e+06
3.67092e+06
3.67086e+06
3.67081e+06
3.67078e+06
3.67074e+06
3.67071e+06
3.67068e+06
3.67065e+06
3.67062e+06
3.67059e+06
3.67056e+06
3.67053e+06
3.6705e+06
3.67047e+06
3.67044e+06
3.67041e+06
3.67038e+06
3.67035e+06
3.67032e+06
3.67028e+06
3.67025e+06
3.6702e+06
3.67016e+06
3.67012e+06
3.67007e+06
3.67002e+06
3.66998e+06
3.66993e+06
3.66989e+06
3.66985e+06
3.66981e+06
3.66977e+06
3.66973e+06
3.6697e+06
3.66967e+06
3.66963e+06
3.6696e+06
3.66956e+06
3.66951e+06
3.66947e+06
3.66942e+06
3.66936e+06
3.66929e+06
3.66922e+06
3.66913e+06
3.66903e+06
3.6689e+06
3.67009e+06
3.67038e+06
3.67047e+06
3.6705e+06
3.67052e+06
3.67053e+06
3.67053e+06
3.67053e+06
3.67052e+06
3.6705e+06
3.67048e+06
3.67046e+06
3.67044e+06
3.67041e+06
3.67039e+06
3.67036e+06
3.67033e+06
3.67031e+06
3.67028e+06
3.67025e+06
3.67023e+06
3.6702e+06
3.67016e+06
3.67013e+06
3.67009e+06
3.67005e+06
3.67e+06
3.66996e+06
3.66991e+06
3.66987e+06
3.66982e+06
3.66978e+06
3.66974e+06
3.6697e+06
3.66966e+06
3.66963e+06
3.66959e+06
3.66956e+06
3.66953e+06
3.66949e+06
3.66945e+06
3.66941e+06
3.66937e+06
3.66932e+06
3.66926e+06
3.6692e+06
3.66913e+06
3.66905e+06
3.66895e+06
3.66885e+06
3.67045e+06
3.67058e+06
3.67066e+06
3.67066e+06
3.67064e+06
3.67062e+06
3.6706e+06
3.67057e+06
3.67054e+06
3.67051e+06
3.67048e+06
3.67045e+06
3.67041e+06
3.67038e+06
3.67035e+06
3.67031e+06
3.67028e+06
3.67025e+06
3.67022e+06
3.67019e+06
3.67016e+06
3.67012e+06
3.67009e+06
3.67005e+06
3.67001e+06
3.66997e+06
3.66992e+06
3.66988e+06
3.66983e+06
3.66978e+06
3.66974e+06
3.6697e+06
3.66966e+06
3.66962e+06
3.66958e+06
3.66954e+06
3.66951e+06
3.66948e+06
3.66944e+06
3.66941e+06
3.66937e+06
3.66933e+06
3.66929e+06
3.66924e+06
3.66919e+06
3.66913e+06
3.66906e+06
3.66899e+06
3.6689e+06
3.66881e+06
3.67037e+06
3.67039e+06
3.6704e+06
3.6704e+06
3.67038e+06
3.67037e+06
3.67036e+06
3.67034e+06
3.67032e+06
3.67031e+06
3.67028e+06
3.67026e+06
3.67023e+06
3.67021e+06
3.67018e+06
3.67015e+06
3.67012e+06
3.67009e+06
3.67006e+06
3.67004e+06
3.67001e+06
3.66998e+06
3.66994e+06
3.66991e+06
3.66987e+06
3.66983e+06
3.66979e+06
3.66974e+06
3.6697e+06
3.66966e+06
3.66962e+06
3.66958e+06
3.66954e+06
3.6695e+06
3.66946e+06
3.66943e+06
3.6694e+06
3.66937e+06
3.66934e+06
3.6693e+06
3.66927e+06
3.66923e+06
3.66919e+06
3.66914e+06
3.66909e+06
3.66904e+06
3.66898e+06
3.66891e+06
3.66884e+06
3.66876e+06
3.6703e+06
3.67032e+06
3.67033e+06
3.67034e+06
3.67035e+06
3.67034e+06
3.67033e+06
3.67032e+06
3.6703e+06
3.67028e+06
3.67025e+06
3.67023e+06
3.6702e+06
3.67016e+06
3.67013e+06
3.6701e+06
3.67006e+06
3.67003e+06
3.67e+06
3.66997e+06
3.66993e+06
3.6699e+06
3.66987e+06
3.66983e+06
3.66979e+06
3.66975e+06
3.66971e+06
3.66967e+06
3.66962e+06
3.66958e+06
3.66954e+06
3.6695e+06
3.66946e+06
3.66942e+06
3.66939e+06
3.66935e+06
3.66932e+06
3.66929e+06
3.66926e+06
3.66923e+06
3.6692e+06
3.66916e+06
3.66912e+06
3.66908e+06
3.66903e+06
3.66898e+06
3.66893e+06
3.66887e+06
3.66881e+06
3.66874e+06
3.67021e+06
3.67021e+06
3.67022e+06
3.67022e+06
3.67021e+06
3.6702e+06
3.67019e+06
3.67017e+06
3.67015e+06
3.67013e+06
3.6701e+06
3.67007e+06
3.67004e+06
3.67001e+06
3.66997e+06
3.66994e+06
3.66991e+06
3.66987e+06
3.66984e+06
3.66981e+06
3.66978e+06
3.66975e+06
3.66972e+06
3.66968e+06
3.66965e+06
3.66961e+06
3.66957e+06
3.66953e+06
3.66949e+06
3.66945e+06
3.66941e+06
3.66937e+06
3.66934e+06
3.6693e+06
3.66927e+06
3.66924e+06
3.66921e+06
3.66918e+06
3.66915e+06
3.66912e+06
3.66909e+06
3.66906e+06
3.66903e+06
3.66899e+06
3.66895e+06
3.6689e+06
3.66885e+06
3.6688e+06
3.66875e+06
3.66869e+06
3.67011e+06
3.67011e+06
3.67012e+06
3.67012e+06
3.67011e+06
3.67011e+06
3.6701e+06
3.67008e+06
3.67007e+06
3.67005e+06
3.67002e+06
3.66999e+06
3.66996e+06
3.66993e+06
3.66989e+06
3.66986e+06
3.66982e+06
3.66979e+06
3.66976e+06
3.66972e+06
3.66969e+06
3.66966e+06
3.66962e+06
3.66959e+06
3.66956e+06
3.66952e+06
3.66948e+06
3.66944e+06
3.6694e+06
3.66937e+06
3.66933e+06
3.66929e+06
3.66925e+06
3.66922e+06
3.66919e+06
3.66916e+06
3.66913e+06
3.6691e+06
3.66908e+06
3.66905e+06
3.66902e+06
3.66899e+06
3.66896e+06
3.66893e+06
3.66889e+06
3.66885e+06
3.6688e+06
3.66876e+06
3.66871e+06
3.66866e+06
3.67001e+06
3.67001e+06
3.67001e+06
3.67001e+06
3.67e+06
3.67e+06
3.66998e+06
3.66997e+06
3.66995e+06
3.66993e+06
3.6699e+06
3.66987e+06
3.66984e+06
3.6698e+06
3.66976e+06
3.66972e+06
3.66969e+06
3.66965e+06
3.66962e+06
3.66958e+06
3.66955e+06
3.66952e+06
3.66948e+06
3.66945e+06
3.66942e+06
3.66939e+06
3.66935e+06
3.66932e+06
3.66928e+06
3.66924e+06
3.66921e+06
3.66917e+06
3.66914e+06
3.66911e+06
3.66908e+06
3.66905e+06
3.66902e+06
3.669e+06
3.66897e+06
3.66895e+06
3.66893e+06
3.6689e+06
3.66888e+06
3.66884e+06
3.66881e+06
3.66878e+06
3.66874e+06
3.6687e+06
3.66866e+06
3.66862e+06
3.66991e+06
3.66991e+06
3.66991e+06
3.6699e+06
3.6699e+06
3.66989e+06
3.66988e+06
3.66986e+06
3.66985e+06
3.66982e+06
3.6698e+06
3.66977e+06
3.66973e+06
3.6697e+06
3.66966e+06
3.66962e+06
3.66958e+06
3.66954e+06
3.66951e+06
3.66947e+06
3.66944e+06
3.66941e+06
3.66938e+06
3.66935e+06
3.66931e+06
3.66928e+06
3.66925e+06
3.66922e+06
3.66918e+06
3.66915e+06
3.66911e+06
3.66908e+06
3.66905e+06
3.66902e+06
3.66899e+06
3.66896e+06
3.66894e+06
3.66891e+06
3.66889e+06
3.66887e+06
3.66885e+06
3.66883e+06
3.66881e+06
3.66878e+06
3.66875e+06
3.66872e+06
3.66868e+06
3.66865e+06
3.66862e+06
3.66858e+06
3.6698e+06
3.6698e+06
3.6698e+06
3.6698e+06
3.66979e+06
3.66978e+06
3.66977e+06
3.66975e+06
3.66974e+06
3.66971e+06
3.66969e+06
3.66965e+06
3.66962e+06
3.66958e+06
3.66954e+06
3.6695e+06
3.66945e+06
3.66942e+06
3.66938e+06
3.66934e+06
3.66931e+06
3.66928e+06
3.66925e+06
3.66922e+06
3.66919e+06
3.66916e+06
3.66913e+06
3.6691e+06
3.66907e+06
3.66903e+06
3.669e+06
3.66897e+06
3.66894e+06
3.66891e+06
3.66888e+06
3.66886e+06
3.66884e+06
3.66882e+06
3.6688e+06
3.66878e+06
3.66877e+06
3.66875e+06
3.66873e+06
3.6687e+06
3.66868e+06
3.66865e+06
3.66862e+06
3.66859e+06
3.66856e+06
3.66853e+06
3.66969e+06
3.66969e+06
3.66969e+06
3.66969e+06
3.66968e+06
3.66967e+06
3.66966e+06
3.66965e+06
3.66963e+06
3.6696e+06
3.66957e+06
3.66954e+06
3.6695e+06
3.66946e+06
3.66942e+06
3.66938e+06
3.66933e+06
3.66929e+06
3.66925e+06
3.66922e+06
3.66919e+06
3.66916e+06
3.66913e+06
3.6691e+06
3.66907e+06
3.66905e+06
3.66902e+06
3.66899e+06
3.66896e+06
3.66893e+06
3.6689e+06
3.66887e+06
3.66884e+06
3.66881e+06
3.66879e+06
3.66876e+06
3.66874e+06
3.66873e+06
3.66871e+06
3.6687e+06
3.66868e+06
3.66867e+06
3.66865e+06
3.66863e+06
3.66861e+06
3.66859e+06
3.66856e+06
3.66854e+06
3.66851e+06
3.66849e+06
3.66958e+06
3.66958e+06
3.66958e+06
3.66958e+06
3.66958e+06
3.66957e+06
3.66956e+06
3.66954e+06
3.66952e+06
3.6695e+06
3.66947e+06
3.66943e+06
3.66939e+06
3.66935e+06
3.66931e+06
3.66926e+06
3.66922e+06
3.66918e+06
3.66914e+06
3.6691e+06
3.66907e+06
3.66904e+06
3.66902e+06
3.66899e+06
3.66896e+06
3.66894e+06
3.66891e+06
3.66888e+06
3.66886e+06
3.66883e+06
3.6688e+06
3.66877e+06
3.66874e+06
3.66872e+06
3.66869e+06
3.66867e+06
3.66865e+06
3.66864e+06
3.66863e+06
3.66861e+06
3.6686e+06
3.66859e+06
3.66858e+06
3.66856e+06
3.66854e+06
3.66852e+06
3.6685e+06
3.66848e+06
3.66846e+06
3.66845e+06
3.66948e+06
3.66948e+06
3.66948e+06
3.66947e+06
3.66947e+06
3.66946e+06
3.66945e+06
3.66943e+06
3.66941e+06
3.66938e+06
3.66935e+06
3.66931e+06
3.66927e+06
3.66923e+06
3.66918e+06
3.66913e+06
3.66909e+06
3.66904e+06
3.66901e+06
3.66897e+06
3.66894e+06
3.66891e+06
3.66889e+06
3.66886e+06
3.66884e+06
3.66881e+06
3.66879e+06
3.66876e+06
3.66874e+06
3.66871e+06
3.66868e+06
3.66866e+06
3.66863e+06
3.66861e+06
3.66859e+06
3.66857e+06
3.66855e+06
3.66854e+06
3.66853e+06
3.66852e+06
3.66851e+06
3.6685e+06
3.66849e+06
3.66848e+06
3.66846e+06
3.66845e+06
3.66844e+06
3.66842e+06
3.66841e+06
3.6684e+06
3.66937e+06
3.66937e+06
3.66937e+06
3.66937e+06
3.66936e+06
3.66936e+06
3.66935e+06
3.66933e+06
3.66931e+06
3.66928e+06
3.66925e+06
3.66922e+06
3.66917e+06
3.66913e+06
3.66908e+06
3.66903e+06
3.66899e+06
3.66895e+06
3.66891e+06
3.66887e+06
3.66884e+06
3.66882e+06
3.66879e+06
3.66877e+06
3.66874e+06
3.66872e+06
3.6687e+06
3.66867e+06
3.66865e+06
3.66862e+06
3.66859e+06
3.66857e+06
3.66854e+06
3.66852e+06
3.6685e+06
3.66849e+06
3.66847e+06
3.66846e+06
3.66845e+06
3.66844e+06
3.66843e+06
3.66843e+06
3.66842e+06
3.66841e+06
3.6684e+06
3.66839e+06
3.66838e+06
3.66837e+06
3.66836e+06
3.66835e+06
3.66925e+06
3.66926e+06
3.66926e+06
3.66926e+06
3.66925e+06
3.66924e+06
3.66922e+06
3.6692e+06
3.66918e+06
3.66915e+06
3.66912e+06
3.66908e+06
3.66903e+06
3.66898e+06
3.66894e+06
3.66889e+06
3.66884e+06
3.6688e+06
3.66876e+06
3.66873e+06
3.6687e+06
3.66867e+06
3.66865e+06
3.66863e+06
3.66861e+06
3.66859e+06
3.66857e+06
3.66854e+06
3.66852e+06
3.6685e+06
3.66847e+06
3.66845e+06
3.66843e+06
3.66841e+06
3.66839e+06
3.66838e+06
3.66836e+06
3.66835e+06
3.66835e+06
3.66834e+06
3.66833e+06
3.66833e+06
3.66832e+06
3.66832e+06
3.66831e+06
3.66831e+06
3.6683e+06
3.6683e+06
3.6683e+06
3.6683e+06
3.66914e+06
3.66915e+06
3.66917e+06
3.66918e+06
3.66918e+06
3.66917e+06
3.66916e+06
3.66914e+06
3.66912e+06
3.66909e+06
3.66906e+06
3.66902e+06
3.66897e+06
3.66892e+06
3.66887e+06
3.66882e+06
3.66877e+06
3.66873e+06
3.66869e+06
3.66865e+06
3.66862e+06
3.6686e+06
3.66857e+06
3.66855e+06
3.66853e+06
3.66851e+06
3.66849e+06
3.66846e+06
3.66844e+06
3.66842e+06
3.66839e+06
3.66837e+06
3.66835e+06
3.66833e+06
3.66831e+06
3.6683e+06
3.66829e+06
3.66828e+06
3.66827e+06
3.66826e+06
3.66826e+06
3.66825e+06
3.66825e+06
3.66825e+06
3.66824e+06
3.66824e+06
3.66824e+06
3.66824e+06
3.66825e+06
3.66826e+06
3.669e+06
3.66902e+06
3.66903e+06
3.66902e+06
3.66901e+06
3.66899e+06
3.66898e+06
3.66896e+06
3.66894e+06
3.66891e+06
3.66888e+06
3.66884e+06
3.66879e+06
3.66875e+06
3.6687e+06
3.66865e+06
3.66861e+06
3.66857e+06
3.66853e+06
3.6685e+06
3.66848e+06
3.66845e+06
3.66843e+06
3.66841e+06
3.66839e+06
3.66837e+06
3.66835e+06
3.66833e+06
3.66831e+06
3.66829e+06
3.66827e+06
3.66825e+06
3.66823e+06
3.66821e+06
3.6682e+06
3.66819e+06
3.66818e+06
3.66817e+06
3.66816e+06
3.66816e+06
3.66815e+06
3.66815e+06
3.66815e+06
3.66815e+06
3.66815e+06
3.66815e+06
3.66816e+06
3.66816e+06
3.66818e+06
3.6682e+06
3.66888e+06
3.66901e+06
3.66908e+06
3.66908e+06
3.66906e+06
3.66904e+06
3.66901e+06
3.66898e+06
3.66895e+06
3.66891e+06
3.66886e+06
3.66882e+06
3.66876e+06
3.66871e+06
3.66866e+06
3.66861e+06
3.66856e+06
3.66851e+06
3.66847e+06
3.66844e+06
3.66841e+06
3.66839e+06
3.66836e+06
3.66834e+06
3.66832e+06
3.6683e+06
3.66828e+06
3.66826e+06
3.66823e+06
3.66821e+06
3.66819e+06
3.66817e+06
3.66815e+06
3.66813e+06
3.66812e+06
3.66811e+06
3.6681e+06
3.66809e+06
3.66808e+06
3.66808e+06
3.66807e+06
3.66807e+06
3.66807e+06
3.66807e+06
3.66807e+06
3.66808e+06
3.66809e+06
3.6681e+06
3.66812e+06
3.66815e+06
3.66832e+06
3.6686e+06
3.66869e+06
3.66872e+06
3.66874e+06
3.66875e+06
3.66875e+06
3.66874e+06
3.66872e+06
3.6687e+06
3.66867e+06
3.66863e+06
3.66859e+06
3.66854e+06
3.66849e+06
3.66845e+06
3.6684e+06
3.66837e+06
3.66833e+06
3.6683e+06
3.66827e+06
3.66825e+06
3.66823e+06
3.66821e+06
3.66819e+06
3.66817e+06
3.66816e+06
3.66814e+06
3.66811e+06
3.66809e+06
3.66807e+06
3.66806e+06
3.66804e+06
3.66802e+06
3.66801e+06
3.668e+06
3.66799e+06
3.66798e+06
3.66797e+06
3.66797e+06
3.66797e+06
3.66797e+06
3.66797e+06
3.66797e+06
3.66797e+06
3.66798e+06
3.668e+06
3.66802e+06
3.66804e+06
3.66808e+06
3.66982e+06
3.6693e+06
3.66905e+06
3.66894e+06
3.66888e+06
3.66883e+06
3.66879e+06
3.66876e+06
3.66872e+06
3.66868e+06
3.66863e+06
3.66859e+06
3.66854e+06
3.66849e+06
3.66843e+06
3.66839e+06
3.66834e+06
3.6683e+06
3.66826e+06
3.66823e+06
3.6682e+06
3.66818e+06
3.66815e+06
3.66813e+06
3.66811e+06
3.66809e+06
3.66807e+06
3.66805e+06
3.66803e+06
3.66801e+06
3.66799e+06
3.66797e+06
3.66795e+06
3.66794e+06
3.66792e+06
3.66791e+06
3.6679e+06
3.66789e+06
3.66789e+06
3.66788e+06
3.66788e+06
3.66788e+06
3.66788e+06
3.66788e+06
3.66789e+06
3.6679e+06
3.66791e+06
3.66794e+06
3.66797e+06
3.66802e+06
3.53995e+06
3.54528e+06
3.54597e+06
3.5503e+06
3.5516e+06
3.55472e+06
3.55617e+06
3.55813e+06
3.55918e+06
3.5601e+06
3.56051e+06
3.5607e+06
3.5607e+06
3.56073e+06
3.56067e+06
3.56121e+06
3.56127e+06
3.56285e+06
3.56301e+06
3.56604e+06
3.53882e+06
3.5442e+06
3.54488e+06
3.54925e+06
3.55056e+06
3.55371e+06
3.55518e+06
3.55715e+06
3.55822e+06
3.55914e+06
3.55956e+06
3.55975e+06
3.55975e+06
3.55979e+06
3.55972e+06
3.56024e+06
3.56028e+06
3.56184e+06
3.56202e+06
3.56515e+06
3.53763e+06
3.54306e+06
3.54373e+06
3.54814e+06
3.54947e+06
3.55264e+06
3.55414e+06
3.55611e+06
3.55719e+06
3.55811e+06
3.55854e+06
3.55873e+06
3.55874e+06
3.55878e+06
3.55872e+06
3.55923e+06
3.5593e+06
3.56094e+06
3.56122e+06
3.56452e+06
3.53637e+06
3.54185e+06
3.54252e+06
3.54697e+06
3.54832e+06
3.55151e+06
3.55303e+06
3.55501e+06
3.5561e+06
3.55702e+06
3.55744e+06
3.55763e+06
3.55764e+06
3.55769e+06
3.55763e+06
3.55817e+06
3.55827e+06
3.56e+06
3.56037e+06
3.5638e+06
3.53503e+06
3.54058e+06
3.54124e+06
3.54574e+06
3.54711e+06
3.55032e+06
3.55186e+06
3.55384e+06
3.55494e+06
3.55585e+06
3.55627e+06
3.55646e+06
3.55647e+06
3.55652e+06
3.55646e+06
3.557e+06
3.55709e+06
3.5588e+06
3.55915e+06
3.56263e+06
3.53362e+06
3.53923e+06
3.5399e+06
3.54444e+06
3.54582e+06
3.54906e+06
3.55061e+06
3.5526e+06
3.5537e+06
3.55461e+06
3.55503e+06
3.55521e+06
3.55522e+06
3.55526e+06
3.55521e+06
3.55575e+06
3.55583e+06
3.55753e+06
3.55784e+06
3.56135e+06
3.53213e+06
3.53781e+06
3.53847e+06
3.54306e+06
3.54447e+06
3.54772e+06
3.5493e+06
3.55129e+06
3.55239e+06
3.5533e+06
3.55371e+06
3.55388e+06
3.55389e+06
3.55393e+06
3.55388e+06
3.55443e+06
3.55452e+06
3.55623e+06
3.55653e+06
3.56008e+06
3.53056e+06
3.53631e+06
3.53697e+06
3.54161e+06
3.54303e+06
3.54631e+06
3.5479e+06
3.54989e+06
3.55101e+06
3.55191e+06
3.55232e+06
3.55248e+06
3.55248e+06
3.55253e+06
3.55247e+06
3.55304e+06
3.55313e+06
3.55487e+06
3.55518e+06
3.55877e+06
3.52891e+06
3.53473e+06
3.53539e+06
3.54008e+06
3.54152e+06
3.54481e+06
3.54642e+06
3.54842e+06
3.54954e+06
3.55043e+06
3.55084e+06
3.551e+06
3.551e+06
3.55104e+06
3.55099e+06
3.55157e+06
3.55167e+06
3.55343e+06
3.55374e+06
3.55739e+06
3.52716e+06
3.53306e+06
3.53372e+06
3.53846e+06
3.53991e+06
3.54323e+06
3.54485e+06
3.54685e+06
3.54798e+06
3.54887e+06
3.54928e+06
3.54943e+06
3.54944e+06
3.54948e+06
3.54943e+06
3.55002e+06
3.55012e+06
3.55191e+06
3.55222e+06
3.55593e+06
3.52533e+06
3.53131e+06
3.53197e+06
3.53675e+06
3.53821e+06
3.54155e+06
3.54318e+06
3.54519e+06
3.54632e+06
3.54722e+06
3.54763e+06
3.54779e+06
3.54779e+06
3.54783e+06
3.54779e+06
3.54838e+06
3.54849e+06
3.5503e+06
3.55062e+06
3.55438e+06
3.52341e+06
3.52946e+06
3.53012e+06
3.53494e+06
3.53642e+06
3.53977e+06
3.54141e+06
3.54343e+06
3.54457e+06
3.54548e+06
3.54589e+06
3.54605e+06
3.54605e+06
3.54609e+06
3.54605e+06
3.54666e+06
3.54677e+06
3.54861e+06
3.54894e+06
3.55276e+06
3.52139e+06
3.52752e+06
3.52817e+06
3.53304e+06
3.53452e+06
3.53789e+06
3.53955e+06
3.54157e+06
3.54273e+06
3.54363e+06
3.54405e+06
3.54421e+06
3.54421e+06
3.54426e+06
3.54422e+06
3.54485e+06
3.54497e+06
3.54684e+06
3.54717e+06
3.55106e+06
3.51927e+06
3.52548e+06
3.52613e+06
3.53103e+06
3.53253e+06
3.53591e+06
3.53758e+06
3.53961e+06
3.54077e+06
3.54168e+06
3.5421e+06
3.54226e+06
3.54226e+06
3.54232e+06
3.54229e+06
3.54294e+06
3.54307e+06
3.54498e+06
3.54532e+06
3.54927e+06
3.51706e+06
3.52334e+06
3.52399e+06
3.52894e+06
3.53044e+06
3.53384e+06
3.53552e+06
3.53755e+06
3.53872e+06
3.53962e+06
3.54004e+06
3.5402e+06
3.54021e+06
3.54026e+06
3.54024e+06
3.54092e+06
3.54106e+06
3.54302e+06
3.54337e+06
3.54739e+06
3.51476e+06
3.52112e+06
3.52177e+06
3.52675e+06
3.52826e+06
3.53167e+06
3.53336e+06
3.53539e+06
3.53656e+06
3.53745e+06
3.53787e+06
3.53802e+06
3.53803e+06
3.53809e+06
3.53809e+06
3.53878e+06
3.53895e+06
3.54095e+06
3.54131e+06
3.5454e+06
3.51237e+06
3.51881e+06
3.51946e+06
3.52448e+06
3.526e+06
3.52942e+06
3.53111e+06
3.53314e+06
3.53429e+06
3.53517e+06
3.53558e+06
3.53572e+06
3.53573e+06
3.5358e+06
3.53581e+06
3.53654e+06
3.53672e+06
3.53877e+06
3.53915e+06
3.54331e+06
3.50991e+06
3.51643e+06
3.51708e+06
3.52213e+06
3.52365e+06
3.52708e+06
3.52877e+06
3.53079e+06
3.53192e+06
3.53278e+06
3.53317e+06
3.53331e+06
3.53332e+06
3.53339e+06
3.53342e+06
3.53418e+06
3.53438e+06
3.53648e+06
3.53687e+06
3.54111e+06
3.5074e+06
3.51398e+06
3.51463e+06
3.51971e+06
3.52124e+06
3.52467e+06
3.52634e+06
3.52834e+06
3.52945e+06
3.53029e+06
3.53065e+06
3.53078e+06
3.53079e+06
3.53087e+06
3.53092e+06
3.53171e+06
3.53194e+06
3.53408e+06
3.5345e+06
3.53881e+06
3.50484e+06
3.51149e+06
3.51215e+06
3.51724e+06
3.51877e+06
3.5222e+06
3.52385e+06
3.52582e+06
3.5269e+06
3.5277e+06
3.52803e+06
3.52814e+06
3.52816e+06
3.52824e+06
3.52832e+06
3.52914e+06
3.5294e+06
3.5316e+06
3.53203e+06
3.53643e+06
3.50226e+06
3.50897e+06
3.50963e+06
3.51474e+06
3.51627e+06
3.51968e+06
3.5213e+06
3.52324e+06
3.52426e+06
3.52503e+06
3.52532e+06
3.52542e+06
3.52543e+06
3.52553e+06
3.52563e+06
3.5265e+06
3.52678e+06
3.52904e+06
3.5295e+06
3.53398e+06
3.49968e+06
3.50645e+06
3.50711e+06
3.51223e+06
3.51375e+06
3.51714e+06
3.51872e+06
3.52061e+06
3.52158e+06
3.52229e+06
3.52255e+06
3.52262e+06
3.52263e+06
3.52274e+06
3.52287e+06
3.52379e+06
3.5241e+06
3.52643e+06
3.52692e+06
3.53148e+06
3.49713e+06
3.50395e+06
3.50462e+06
3.50974e+06
3.51123e+06
3.51459e+06
3.51612e+06
3.51795e+06
3.51886e+06
3.51952e+06
3.51973e+06
3.51977e+06
3.51978e+06
3.51991e+06
3.52007e+06
3.52104e+06
3.52139e+06
3.52379e+06
3.52431e+06
3.52896e+06
3.49464e+06
3.5015e+06
3.50217e+06
3.50728e+06
3.50875e+06
3.51206e+06
3.51353e+06
3.5153e+06
3.51613e+06
3.51673e+06
3.51689e+06
3.51691e+06
3.51691e+06
3.51705e+06
3.51726e+06
3.51828e+06
3.51868e+06
3.52115e+06
3.5217e+06
3.52645e+06
3.49221e+06
3.49911e+06
3.49979e+06
3.50488e+06
3.50632e+06
3.50958e+06
3.51098e+06
3.51268e+06
3.51344e+06
3.51397e+06
3.51408e+06
3.51407e+06
3.51406e+06
3.51422e+06
3.51447e+06
3.51555e+06
3.51599e+06
3.51853e+06
3.51913e+06
3.52396e+06
3.48989e+06
3.49681e+06
3.4975e+06
3.50256e+06
3.50397e+06
3.50717e+06
3.5085e+06
3.51013e+06
3.51081e+06
3.51127e+06
3.51132e+06
3.51128e+06
3.51127e+06
3.51145e+06
3.51174e+06
3.51288e+06
3.51336e+06
3.51598e+06
3.51661e+06
3.52153e+06
3.48768e+06
3.49461e+06
3.49532e+06
3.50035e+06
3.50173e+06
3.50487e+06
3.50612e+06
3.50768e+06
3.50828e+06
3.50868e+06
3.50867e+06
3.5086e+06
3.50858e+06
3.50878e+06
3.50912e+06
3.51031e+06
3.51083e+06
3.51353e+06
3.5142e+06
3.5192e+06
3.4856e+06
3.49255e+06
3.49327e+06
3.49826e+06
3.49961e+06
3.50268e+06
3.50388e+06
3.50537e+06
3.5059e+06
3.50624e+06
3.50617e+06
3.50607e+06
3.50604e+06
3.50626e+06
3.50664e+06
3.50788e+06
3.50844e+06
3.51121e+06
3.51191e+06
3.517e+06
3.48367e+06
3.49062e+06
3.49137e+06
3.49631e+06
3.49763e+06
3.50066e+06
3.5018e+06
3.50323e+06
3.5037e+06
3.50398e+06
3.50387e+06
3.50374e+06
3.50369e+06
3.50394e+06
3.50435e+06
3.50563e+06
3.50622e+06
3.50905e+06
3.50979e+06
3.51495e+06
3.4819e+06
3.48884e+06
3.48962e+06
3.49452e+06
3.49583e+06
3.49881e+06
3.49991e+06
3.50129e+06
3.50172e+06
3.50195e+06
3.50179e+06
3.50164e+06
3.50158e+06
3.50184e+06
3.50227e+06
3.50359e+06
3.50421e+06
3.5071e+06
3.50787e+06
3.51309e+06
3.4803e+06
3.48724e+06
3.48804e+06
3.4929e+06
3.49421e+06
3.49715e+06
3.49824e+06
3.49958e+06
3.49997e+06
3.50016e+06
3.49998e+06
3.49981e+06
3.49973e+06
3.5e+06
3.50045e+06
3.5018e+06
3.50243e+06
3.50537e+06
3.50616e+06
3.51144e+06
3.47888e+06
3.48581e+06
3.48665e+06
3.49147e+06
3.49279e+06
3.49571e+06
3.49679e+06
3.49811e+06
3.49849e+06
3.49865e+06
3.49845e+06
3.49826e+06
3.49817e+06
3.49845e+06
3.4989e+06
3.50026e+06
3.50091e+06
3.50388e+06
3.50468e+06
3.51001e+06
3.47766e+06
3.48456e+06
3.48545e+06
3.49024e+06
3.49158e+06
3.49448e+06
3.49558e+06
3.49689e+06
3.49726e+06
3.49741e+06
3.49721e+06
3.49701e+06
3.49691e+06
3.49719e+06
3.49764e+06
3.49899e+06
3.49964e+06
3.50263e+06
3.50345e+06
3.50881e+06
3.47662e+06
3.48351e+06
3.48444e+06
3.4892e+06
3.49058e+06
3.49347e+06
3.49461e+06
3.49592e+06
3.4963e+06
3.49645e+06
3.49626e+06
3.49606e+06
3.49595e+06
3.49623e+06
3.49666e+06
3.498e+06
3.49863e+06
3.50163e+06
3.50245e+06