/*--------------------------------*- C++ -*----------------------------------*\
  =========                 |
  \\      /  F ield         | OpenFOAM: The Open Source CFD Toolbox
   \\    /   O peration     | Website:  https://openfoam.org
    \\  /    A nd           | Version:  8
     \\/     M anipulation  |
\*---------------------------------------------------------------------------*/
FoamFile
{
    version     2.0;
    format      ascii;
    class       surfaceScalarField;
    location    "500";
    object      phi;
}
// * * * * * * * * * * * * * * * * * * * * * * * * * * * * * * * * * * * * * //

dimensions      [1 0 -1 0 0 0 0];

internalField   nonuniform List<scalar> 
16360
(
-7.66668
-0.0494651
-7.61679
-0.0498836
-7.56649
-0.0502855
-7.51594
-0.0505339
-7.46529
-0.0506191
-7.41468
-0.0505807
-7.36419
-0.0504624
-7.31387
-0.0503004
-7.26369
-0.0501456
-7.21362
-0.0500396
-7.16358
-0.0500076
-7.11349
-0.0500668
-7.06323
-0.0502124
-7.01271
-0.0504638
-6.96179
-0.0508122
-6.91046
-0.0512632
-6.85867
-0.0517832
-6.80632
-0.0523226
-6.7534
-0.0528959
-6.69995
-0.05347
-6.64595
-0.0539681
-6.59151
-0.054369
-6.53681
-0.054672
-6.48201
-0.0548193
-6.42732
-0.0547505
-6.37296
-0.054436
-6.31917
-0.0538484
-6.26619
-0.0529742
-6.21428
-0.051842
-6.16369
-0.0505068
-6.11463
-0.0490189
-6.06722
-0.0474239
-6.02147
-0.0457753
-5.97735
-0.0441375
-5.93473
-0.0425849
-5.89346
-0.0411941
-5.85336
-0.0400323
-5.81418
-0.039152
-5.77562
-0.0385854
-5.73734
-0.0383467
-5.69895
-0.0384458
-5.66004
-0.0389074
-5.62021
-0.0397871
-5.57904
-0.0411709
-5.53592
-0.0431478
-5.49008
-0.0458487
-5.44058
-0.0495216
-5.38625
-0.0543755
-5.32549
-0.0607175
-0.0711697
-5.2542
-7.56469
-0.0979722
-7.51511
-0.0994431
-7.465
-0.100368
-7.41467
-0.100846
-7.36432
-0.100936
-7.31409
-0.100754
-7.26407
-0.100419
-7.21429
-0.100035
-7.16473
-0.0996712
-7.11534
-0.0993938
-7.06602
-0.0992699
-7.01666
-0.0993518
-6.96718
-0.0996281
-6.91745
-0.100125
-6.86735
-0.100835
-6.81681
-0.101724
-6.76577
-0.102773
-6.7142
-0.103914
-6.66204
-0.105053
-6.60928
-0.106177
-6.55595
-0.107266
-6.50218
-0.108209
-6.4481
-0.108873
-6.39388
-0.109159
-6.33973
-0.108986
-6.28591
-0.108301
-6.23266
-0.107079
-6.18025
-0.105333
-6.12898
-0.103101
-6.07908
-0.100434
-6.03075
-0.0973969
-5.98412
-0.0940932
-5.93923
-0.0906656
-5.89604
-0.0872776
-5.85445
-0.0840961
-5.81431
-0.0812711
-5.77543
-0.0789096
-5.73755
-0.0770707
-5.70038
-0.0757986
-5.6636
-0.0751457
-5.62688
-0.0751624
-5.58987
-0.0758952
-5.55228
-0.0774076
-5.51375
-0.0797774
-5.47385
-0.0831001
-5.4322
-0.0875674
-5.38834
-0.093456
-5.3416
-0.101055
-5.29096
-0.111176
-0.125726
-5.2362
-7.37953
-0.145966
-7.33083
-0.148138
-7.2818
-0.149388
-7.23274
-0.149904
-7.18388
-0.149814
-7.13535
-0.149308
-7.0872
-0.148582
-7.03943
-0.147797
-6.99199
-0.147098
-6.94483
-0.146563
-6.89781
-0.146278
-6.85077
-0.146318
-6.80365
-0.146737
-6.75627
-0.147502
-6.70849
-0.148588
-6.66026
-0.149985
-6.61146
-0.151594
-6.56202
-0.153369
-6.51197
-0.155256
-6.46127
-0.157134
-6.4099
-0.158839
-6.35794
-0.160253
-6.30554
-0.16128
-6.25289
-0.161788
-6.20023
-0.161647
-6.14781
-0.160759
-6.09592
-0.159059
-6.04482
-0.156528
-5.9948
-0.1532
-5.94612
-0.149165
-5.89899
-0.144562
-5.85356
-0.139574
-5.80988
-0.134417
-5.76791
-0.129332
-5.72753
-0.124567
-5.68855
-0.120333
-5.65072
-0.116777
-5.61379
-0.11401
-5.57748
-0.112134
-5.54144
-0.111218
-5.50534
-0.111303
-5.46887
-0.112434
-5.43171
-0.114678
-5.39348
-0.118095
-5.35382
-0.122802
-5.31245
-0.129011
-5.269
-0.136916
-5.22315
-0.146827
-5.17477
-0.159453
-0.176362
-5.12413
-7.04389
-0.19126
-6.99751
-0.19453
-6.95093
-0.195996
-6.90462
-0.196236
-6.85889
-0.195594
-6.81384
-0.194403
-6.76948
-0.192979
-6.72577
-0.191539
-6.68257
-0.190271
-6.63979
-0.18934
-6.5973
-0.188827
-6.55487
-0.188802
-6.51236
-0.189304
-6.46957
-0.190317
-6.42639
-0.191781
-6.38266
-0.193692
-6.3383
-0.195973
-6.29328
-0.198482
-6.24752
-0.201096
-6.20095
-0.203702
-6.15358
-0.206156
-6.1055
-0.208293
-6.05683
-0.209922
-6.00775
-0.210852
-5.9585
-0.210908
-5.90938
-0.209931
-5.86067
-0.207803
-5.81268
-0.204504
-5.76574
-0.200116
-5.72014
-0.194781
-5.6761
-0.188672
-5.6338
-0.182005
-5.59332
-0.175076
-5.55464
-0.168229
-5.51761
-0.161799
-5.48201
-0.156071
-5.44758
-0.151276
-5.41411
-0.147579
-5.38132
-0.145075
-5.34888
-0.143793
-5.31652
-0.143759
-5.284
-0.145032
-5.25102
-0.14767
-5.21731
-0.151737
-5.18264
-0.157383
-5.14677
-0.16478
-5.10945
-0.174117
-5.0705
-0.185725
-5.02982
-0.200021
-0.218008
-4.98823
-6.50721
-0.233583
-6.46434
-0.237427
-6.42197
-0.238432
-6.38057
-0.237675
-6.34038
-0.235808
-6.30146
-0.233379
-6.26367
-0.230769
-6.22689
-0.228305
-6.19093
-0.226208
-6.15559
-0.224683
-6.12066
-0.223797
-6.08589
-0.223606
-6.05103
-0.224149
-6.01586
-0.22542
-5.98027
-0.227347
-5.94407
-0.229832
-5.9071
-0.232811
-5.86933
-0.236161
-5.83066
-0.239728
-5.79101
-0.243328
-5.75035
-0.246774
-5.70872
-0.249865
-5.66625
-0.252351
-5.6231
-0.253958
-5.5795
-0.254429
-5.53574
-0.253557
-5.49217
-0.251232
-5.44917
-0.247444
-5.40709
-0.242247
-5.36619
-0.235752
-5.32672
-0.228173
-5.28889
-0.21984
-5.25283
-0.21117
-5.21851
-0.202629
-5.18575
-0.194656
-5.15431
-0.187607
-5.12394
-0.181736
-5.09439
-0.177211
-5.06538
-0.174116
-5.03665
-0.172482
-5.00801
-0.17234
-4.97928
-0.173725
-4.95025
-0.176649
-4.92077
-0.181163
-4.89073
-0.187377
-4.85999
-0.195416
-4.82854
-0.205526
-4.79625
-0.217867
-4.76349
-0.232876
-0.251129
-4.73036
-5.73186
-0.270356
-5.69477
-0.274546
-5.65923
-0.274016
-5.62574
-0.271189
-5.59436
-0.267183
-5.56492
-0.262773
-5.53716
-0.258481
-5.51079
-0.254637
-5.48553
-0.251489
-5.46099
-0.249187
-5.43694
-0.247842
-5.41305
-0.247492
-5.38901
-0.248172
-5.36453
-0.249813
-5.33949
-0.252365
-5.31368
-0.255678
-5.28687
-0.25956
-5.25897
-0.263907
-5.22988
-0.268645
-5.19947
-0.2736
-5.16768
-0.278515
-5.13452
-0.283061
-5.10006
-0.28688
-5.06445
-0.289617
-5.02799
-0.290951
-4.99105
-0.290609
-4.95401
-0.288411
-4.91729
-0.284294
-4.88125
-0.278322
-4.84622
-0.27068
-4.81253
-0.261683
-4.78046
-0.25176
-4.75018
-0.241425
-4.72166
-0.231221
-4.69467
-0.221667
-4.66893
-0.213235
-4.64417
-0.206288
-4.62017
-0.201028
-4.59667
-0.197475
-4.57351
-0.195573
-4.55057
-0.195291
-4.52772
-0.196611
-4.50486
-0.199529
-4.48192
-0.204108
-4.45886
-0.210416
-4.43568
-0.218596
-4.41236
-0.228812
-4.38906
-0.241192
-4.366
-0.256007
-0.273607
-4.34358
-4.73284
-0.300537
-4.70487
-0.302522
-4.68054
-0.298302
-4.65969
-0.291947
-4.64186
-0.284956
-4.62652
-0.278102
-4.61309
-0.271882
-4.60109
-0.266605
-4.59011
-0.262455
-4.57968
-0.259575
-4.56946
-0.258055
-4.55914
-0.257879
-4.5483
-0.259068
-4.53668
-0.261508
-4.52407
-0.26503
-4.51023
-0.269491
-4.495
-0.274756
-4.47824
-0.280739
-4.45972
-0.287297
-4.43921
-0.294196
-4.41662
-0.301134
-4.39193
-0.307726
-4.36527
-0.31351
-4.33686
-0.317998
-4.30705
-0.320729
-4.27629
-0.321343
-4.24509
-0.319624
-4.21397
-0.315494
-4.18337
-0.309016
-4.1537
-0.300422
-4.12535
-0.290101
-4.09866
-0.278557
-4.07378
-0.266368
-4.05068
-0.254231
-4.02919
-0.242951
-4.00903
-0.233231
-3.9899
-0.225413
-3.9715
-0.219498
-3.95364
-0.215362
-3.93629
-0.212944
-3.91944
-0.212201
-3.90304
-0.213059
-3.88709
-0.215519
-3.8716
-0.219659
-3.85656
-0.225537
-3.84206
-0.233271
-3.82804
-0.242871
-3.81479
-0.254584
-3.80244
-0.268395
-0.284678
-3.79133
-3.58704
-0.321574
-3.57241
-0.317111
-3.56458
-0.306041
-3.56162
-0.294817
-3.56197
-0.284556
-3.5646
-0.275522
-3.56855
-0.267909
-3.57317
-0.261989
-3.57797
-0.257757
-3.58242
-0.255205
-3.5861
-0.254356
-3.58883
-0.255252
-3.59013
-0.257756
-3.5898
-0.261782
-3.58771
-0.267213
-3.5836
-0.273761
-3.57724
-0.281219
-3.56837
-0.289587
-3.55664
-0.298826
-3.54181
-0.308724
-3.52381
-0.318849
-3.50278
-0.328576
-3.47899
-0.337197
-3.45287
-0.344032
-3.42505
-0.348505
-3.39626
-0.35017
-3.36728
-0.348753
-3.33881
-0.344173
-3.31142
-0.33657
-3.28563
-0.326302
-3.26182
-0.313921
-3.24026
-0.300106
-3.22104
-0.285588
-3.20412
-0.271177
-3.18926
-0.257906
-3.17597
-0.246684
-3.16377
-0.237763
-3.15241
-0.230934
-3.14186
-0.225958
-3.13218
-0.222711
-3.1234
-0.221062
-3.11554
-0.22095
-3.10863
-0.222508
-3.10261
-0.225812
-3.09751
-0.230833
-3.09321
-0.237594
-3.08989
-0.246271
-3.08759
-0.25687
-3.08658
-0.269479
-0.284146
-3.08718
-2.41418
-0.345702
-2.41419
-0.317036
-2.4262
-0.293956
-2.44361
-0.277401
-2.46335
-0.264865
-2.48407
-0.25492
-2.50455
-0.247533
-2.52368
-0.242791
-2.54116
-0.240307
-2.55665
-0.239762
-2.56989
-0.24101
-2.58071
-0.244237
-2.58883
-0.24941
-2.59416
-0.256304
-2.59653
-0.264695
-2.5957
-0.274359
-2.59135
-0.285398
-2.58284
-0.298067
-2.56954
-0.312236
-2.55112
-0.327342
-2.52763
-0.342555
-2.49943
-0.356944
-2.46717
-0.369554
-2.43176
-0.379463
-2.39436
-0.385864
-2.35633
-0.388149
-2.31914
-0.385955
-2.28416
-0.379196
-2.25261
-0.368105
-2.22556
-0.353305
-2.20371
-0.335787
-2.1872
-0.316716
-2.17557
-0.297284
-2.16827
-0.278465
-2.16457
-0.261604
-2.16332
-0.248024
-2.16364
-0.237547
-2.16523
-0.229375
-2.16816
-0.223027
-2.17244
-0.218368
-2.178
-0.215362
-2.18481
-0.21419
-2.19247
-0.215023
-2.20055
-0.217761
-2.20912
-0.222319
-2.2182
-0.228603
-2.22782
-0.236599
-2.23812
-0.246485
-2.24929
-0.258252
-0.271653
-2.2616
-1.24601
-0.410515
-1.26253
-0.300476
-1.2924
-0.264061
-1.32793
-0.241965
-1.36657
-0.226255
-1.40616
-0.215297
-1.4422
-0.211562
-1.47027
-0.21433
-1.49167
-0.218589
-1.50853
-0.222642
-1.52205
-0.227623
-1.53253
-0.233863
-1.54015
-0.24171
-1.54502
-0.251434
-1.54684
-0.26288
-1.54561
-0.275515
-1.54097
-0.289936
-1.53152
-0.307266
-1.51581
-0.327489
-1.49305
-0.349593
-1.46311
-0.372134
-1.4263
-0.393582
-1.38323
-0.412465
-1.33488
-0.427514
-1.28264
-0.437681
-1.22822
-0.442169
-1.17348
-0.44045
-1.1204
-0.432269
-1.07114
-0.417619
-1.02805
-0.396831
-0.993523
-0.370698
-0.969646
-0.340698
-0.956803
-0.309934
-0.954551
-0.28044
-0.961963
-0.254057
-0.975724
-0.234296
-0.993457
-0.219846
-1.01483
-0.207893
-1.03997
-0.197659
-1.06858
-0.189411
-1.1004
-0.183341
-1.13439
-0.180203
-1.1673
-0.181931
-1.19688
-0.188225
-1.22381
-0.195315
-1.2494
-0.202881
-1.2745
-0.211699
-1.29934
-0.221726
-1.32418
-0.233167
-0.246184
-1.34974
-0.159984
-0.432617
-0.13913
-0.321238
-0.122903
-0.280226
-0.115521
-0.249825
-0.117649
-0.224115
-0.124017
-0.208221
-0.134382
-0.201646
-0.151022
-0.19787
-0.174321
-0.194998
-0.200628
-0.196375
-0.227024
-0.20156
-0.250283
-0.210261
-0.269445
-0.22201
-0.284814
-0.235774
-0.295967
-0.251563
-0.302423
-0.269123
-0.30449
-0.288104
-0.303206
-0.308795
-0.299149
-0.331822
-0.291929
-0.357196
-0.280802
-0.383676
-0.265267
-0.409386
-0.245264
-0.432515
-0.221246
-0.451468
-0.194193
-0.464834
-0.165317
-0.471492
-0.135791
-0.470702
-0.106631
-0.462133
-0.0785676
-0.446082
-0.0520213
-0.423509
-0.0271837
-0.39565
-0.00403585
-0.364042
0.0169313
-0.331117
0.0370498
-0.30073
0.0581606
-0.275374
0.0763716
-0.252813
0.0862236
-0.229888
0.0863086
-0.208144
0.0777506
-0.189742
0.0627322
-0.175161
0.0437229
-0.164375
0.0209206
-0.157244
-0.00850565
-0.153272
-0.0447135
-0.152309
-0.0850731
-0.154471
-0.127999
-0.160083
-0.171931
-0.167912
-0.216214
-0.177101
-0.261426
-0.187965
-0.200196
-0.307386
1.36763
-0.381883
1.36032
-0.313941
1.34475
-0.26442
1.32561
-0.230616
1.30461
-0.203245
1.27945
-0.182605
1.24743
-0.169365
1.21146
-0.162021
1.17619
-0.159713
1.14227
-0.162314
1.11042
-0.169775
1.08123
-0.181423
1.05527
-0.196393
1.03337
-0.213975
1.01552
-0.233668
1.00144
-0.254999
0.991095
-0.277756
0.984467
-0.302185
0.981406
-0.328766
0.981923
-0.357668
0.986592
-0.388263
0.996376
-0.419081
1.01197
-0.448067
1.0333
-0.47286
1.05944
-0.491172
1.08886
-0.501136
1.11963
-0.501591
1.14977
-0.492266
1.17745
-0.47378
1.20121
-0.447438
1.22031
-0.415011
1.23465
-0.378598
1.244
-0.340551
1.24646
-0.303258
1.23941
-0.268325
1.22286
-0.236015
1.19959
-0.206298
1.17152
-0.179942
1.13955
-0.157713
1.10446
-0.139872
1.06673
-0.126547
1.02713
-0.117712
0.986956
-0.113007
0.946947
-0.112218
0.907362
-0.115166
0.868553
-0.121113
0.830541
-0.129449
0.792751
-0.139202
0.754519
-0.149702
-0.159789
0.71471
2.67704
-0.346067
2.64977
-0.286693
2.62436
-0.239089
2.59751
-0.203643
2.56996
-0.17562
2.54165
-0.154243
2.51231
-0.140031
2.48272
-0.132623
2.45456
-0.131199
2.4279
-0.135656
2.40327
-0.145215
2.38085
-0.159019
2.36067
-0.176342
2.34298
-0.1964
2.32789
-0.218601
2.31552
-0.242563
2.30609
-0.268181
2.29987
-0.29573
2.29701
-0.325677
2.2977
-0.358199
2.30224
-0.392718
2.3109
-0.427707
2.32364
-0.460763
2.33975
-0.488958
2.35798
-0.509383
2.37659
-0.519706
2.39363
-0.518598
2.40724
-0.505884
2.41588
-0.482461
2.41845
-0.450078
2.41446
-0.411054
2.40385
-0.367976
2.38677
-0.32342
2.36328
-0.279694
2.33353
-0.238523
2.29838
-0.200911
2.25931
-0.167473
2.21779
-0.138752
2.17505
-0.115132
2.13193
-0.0967688
2.08894
-0.0836663
2.04678
-0.0755626
2.0059
-0.0720318
1.96634
-0.0727143
1.92819
-0.0769398
1.89114
-0.0839914
1.85493
-0.0929124
1.81851
-0.10278
1.78125
-0.112368
-0.120573
1.74221
3.98673
-0.299712
3.94901
-0.248987
3.91388
-0.203959
3.87929
-0.169036
3.84537
-0.141595
3.81257
-0.121482
3.78159
-0.108916
3.75312
-0.103825
3.72743
-0.105528
3.70462
-0.112987
3.68456
-0.12515
3.66675
-0.141211
3.6509
-0.160466
3.63694
-0.182366
3.62492
-0.206511
3.615
-0.232583
3.60741
-0.260504
3.6023
-0.290554
3.59988
-0.323194
3.60037
-0.358655
3.60406
-0.396407
3.61106
-0.43477
3.62107
-0.470875
3.63313
-0.501135
3.64568
-0.522035
3.65676
-0.530877
3.66436
-0.526251
3.6667
-0.508208
3.66237
-0.478099
3.65056
-0.438259
3.63108
-0.391594
3.60431
-0.341189
3.57094
-0.289966
3.53179
-0.240434
3.48785
-0.194506
3.44035
-0.153436
3.3907
-0.117955
3.34027
-0.0884287
3.29023
-0.0650544
3.24134
-0.0478666
3.19415
-0.036586
3.14914
-0.0305962
3.10636
-0.0293626
3.06576
-0.0322776
3.02712
-0.0383742
2.99003
-0.0469158
2.95384
-0.0566919
2.91772
-0.066612
2.88071
-0.0753505
-0.0817576
2.84176
5.27988
-0.260286
5.23708
-0.206192
5.19859
-0.165446
5.16066
-0.131147
5.12373
-0.104485
5.08885
-0.0864504
5.05688
-0.0771788
5.02878
-0.0758786
5.00472
-0.0815306
4.98441
-0.0926531
4.96712
-0.107811
4.95205
-0.126043
4.93863
-0.146916
4.92667
-0.17029
4.91624
-0.195979
4.90742
-0.223687
4.90024
-0.25327
4.8947
-0.284956
4.89086
-0.319322
4.88905
-0.356864
4.88982
-0.397264
4.89366
-0.438689
4.90047
-0.477693
4.90926
-0.509853
4.91816
-0.530843
4.92481
-0.537463
4.92685
-0.528268
4.9223
-0.503658
4.90982
-0.465611
4.88879
-0.417211
4.85934
-0.362111
4.82222
-0.304023
4.7786
-0.246298
4.72984
-0.191658
4.67737
-0.142066
4.62262
-0.0987364
4.56697
-0.06236
4.51157
-0.0330782
4.4574
-0.0109557
4.40521
0.00414684
4.35558
0.0129366
4.30863
0.016259
4.26422
0.0148281
4.22233
0.009633
4.18236
0.00146217
4.14405
-0.00852715
4.10658
-0.019189
4.06922
-0.0290827
4.03084
-0.0369198
-0.0414153
3.99051
6.63631
-0.199671
6.58608
-0.156041
6.53635
-0.115579
6.48823
-0.0831545
6.44213
-0.058707
6.39934
-0.0438283
6.36112
-0.0387409
6.32798
-0.0426205
6.29991
-0.0534751
6.27613
-0.068891
6.2553
-0.0870068
6.23615
-0.106945
6.21809
-0.128925
6.20127
-0.153568
6.18621
-0.181013
6.17316
-0.210697
6.16191
-0.241976
6.15184
-0.274758
6.14238
-0.309718
6.13358
-0.347967
6.12636
-0.389991
6.12211
-0.434366
6.12171
-0.477167
6.12473
-0.512709
6.12934
-0.535285
6.1328
-0.540803
6.13223
-0.52761
6.12518
-0.496527
6.10996
-0.450326
6.0858
-0.393018
6.05284
-0.329149
6.01196
-0.263168
5.96451
-0.198909
5.91207
-0.139293
5.85631
-0.0863466
5.79878
-0.0412159
5.7411
-0.00470235
5.68524
0.0227636
5.63233
0.0419048
5.58233
0.054163
5.53504
0.0604196
5.48999
0.0613606
5.44702
0.0578335
5.40574
0.0509216
5.36581
0.041363
5.3269
0.0303424
5.28854
0.0191287
5.25002
0.00937058
5.2105
0.00256295
1.37742e-05
5.16937
7.76049
-0.165836
7.70391
-0.0995554
7.65283
-0.0643142
7.60264
-0.03266
7.55579
-0.0118406
7.51543
-0.00347937
7.48378
-0.00701364
7.46176
-0.0205713
7.44852
-0.0402098
7.44139
-0.0617158
7.4368
-0.0823712
7.43153
-0.101642
7.42387
-0.121266
7.41392
-0.143685
7.40283
-0.169995
7.39136
-0.199251
7.37923
-0.229773
7.36519
-0.260613
7.34781
-0.292306
7.32669
-0.326906
7.30312
-0.366497
7.27961
-0.410905
7.25879
-0.456374
7.24195
-0.495917
7.22834
-0.521757
7.21579
-0.528327
7.20181
-0.513674
7.18442
-0.479167
7.16238
-0.428349
7.13516
-0.365874
7.10279
-0.296826
7.06571
-0.226104
7.02464
-0.157823
6.98038
-0.0949924
6.93397
-0.0398755
6.88699
0.00581288
6.84066
0.041648
6.79487
0.0685511
6.74961
0.087145
6.70541
0.0984417
6.66238
0.10347
6.62049
0.103132
6.57998
0.098523
6.54046
0.0902989
6.50231
0.0794515
6.46561
0.0669772
6.43056
0.0543136
6.39656
0.0433838
6.36272
0.036345
0.0360043
6.32667
8.8848
-0.100838
8.85205
-0.066856
8.81156
-0.023968
8.77037
0.00856816
8.73528
0.0232706
8.71049
0.0211866
8.69793
0.00530976
8.6963
-0.0191287
8.7015
-0.0455093
8.70822
-0.0684987
8.71143
-0.0856213
8.7074
-0.0976803
8.69474
-0.108691
8.67456
-0.12359
8.64868
-0.14414
8.61751
-0.168038
8.57945
-0.191637
8.53183
-0.212962
8.47248
-0.232998
8.40169
-0.256162
8.32277
-0.287559
8.24065
-0.328693
8.15984
-0.375462
8.08235
-0.418369
8.00735
-0.446765
7.93345
-0.454483
7.86063
-0.440881
7.7904
-0.408901
7.72508
-0.362928
7.66675
-0.307455
7.61678
-0.246834
7.57575
-0.185095
7.54331
-0.12542
7.51807
-0.0697611
7.49702
-0.0188028
7.47656
0.0262891
7.45534
0.0628809
7.43452
0.089406
7.41517
0.10655
7.39761
0.116079
7.38152
0.11944
7.36664
0.117971
7.35226
0.112835
7.33779
0.10469
7.32305
0.0941262
7.30818
0.0817598
7.29367
0.0688208
7.27945
0.0574827
7.2657
0.0499923
0.04945
7.25231
11.65
-0.0474376
11.5953
-0.0120805
11.5319
0.039597
11.4595
0.0808865
11.382
0.100722
11.3004
0.10283
11.2143
0.0916197
11.1221
0.0732396
11.021
0.0556953
10.9078
0.0446685
10.7792
0.0430453
10.6325
0.0490641
10.4693
0.0544777
10.297
0.0486147
10.124
0.0289649
9.95299
0.00296219
9.78061
-0.0192417
9.59939
-0.0317681
9.40141
-0.0350618
9.17803
-0.0328134
8.92756
-0.0371375
8.6602
-0.061409
8.38331
-0.0986778
8.09952
-0.134636
7.81414
-0.161346
7.53433
-0.174575
7.26813
-0.17459
7.0233
-0.164082
6.80636
-0.146096
6.62187
-0.12311
6.47227
-0.0973699
6.35821
-0.0711178
6.27878
-0.045997
6.23164
-0.0225373
6.21406
-0.00112667
6.22272
0.0176688
6.25158
0.0340082
6.2935
0.0474562
6.34389
0.0561295
6.39995
0.0599891
6.45885
0.0604859
6.51851
0.0585136
6.57704
0.0541939
6.63378
0.0479772
6.68843
0.0395503
6.741
0.0290303
6.79245
0.017566
6.84316
0.00657162
6.89563
-0.00252878
-0.00911218
6.95399
-2.13037
-2.14258
-2.10299
-2.02209
-1.92134
-1.81851
-1.72692
-1.65371
-1.59801
-1.55332
-1.51025
-1.46116
-1.40665
-1.35797
-1.32892
-1.32592
-1.3452
-1.3771
-1.41229
-1.44516
-1.48225
-1.54348
-1.64196
-1.77647
-1.93775
-2.11225
-2.2867
-2.45064
-2.59664
-2.71969
-2.817
-2.88802
-2.93388
-2.95624
-2.95725
-2.93953
-2.90554
-2.85817
-2.8021
-2.74219
-2.68164
-2.62338
-2.56915
-2.52121
-2.48158
-2.45272
-2.43527
-2.42869
-2.4312
-2.44015
0.406426
-0.00852145
0.40941
-0.00297685
0.411568
-0.00214967
0.412618
-0.00104324
0.412951
-0.000327163
0.412911
4.43049e-05
0.412669
0.000243967
0.412308
0.000362104
0.411873
0.000434231
0.411392
0.000477519
0.410884
0.000502682
0.410361
0.000516461
0.40983
0.000522963
0.409295
0.000524588
0.408761
0.000522882
0.40823
0.000518856
0.407705
0.000513151
0.407186
0.000506226
0.406675
0.000498423
0.406172
0.000489979
0.40568
0.000481036
0.405197
0.000471656
0.404725
0.000461797
0.404265
0.000451342
0.403816
0.000440133
0.403381
0.000427984
0.402959
0.000414697
0.402553
0.000400056
0.402163
0.000383802
0.401792
0.000365625
0.401441
0.000345175
0.401114
0.000322074
0.400812
0.000295891
0.40054
0.000265866
0.400302
0.000231257
0.400102
0.000191214
0.399949
0.000144733
0.399849
9.06677e-05
0.399811
2.77248e-05
0.399847
-4.59986e-05
0.39997
-0.000133019
0.400196
-0.00023661
0.400547
-0.000361232
0.401049
-0.000513187
0.40174
-0.000701762
0.402671
-0.000941635
0.40392
-0.00125817
0.405611
-0.00169914
0.407967
-0.00236341
-0.00346581
0.411426
0.393841
-0.00445113
0.393
-0.00212202
0.391592
-0.000729263
0.390855
-0.00029702
0.390506
2.83681e-05
0.390324
0.000230302
0.390243
0.000325788
0.390232
0.000370137
0.390269
0.000391405
0.390337
0.000399809
0.390427
0.000400561
0.390531
0.00039694
0.390646
0.000390932
0.390767
0.000383586
0.390893
0.000375517
0.391023
0.000367052
0.391155
0.000358334
0.391289
0.000349434
0.391425
0.0003404
0.391563
0.000331213
0.391703
0.00032178
0.391845
0.00031194
0.391989
0.000301396
0.392135
0.0002898
0.392285
0.000276757
0.392439
0.000261833
0.392597
0.000244555
0.392762
0.000224396
0.392935
0.000200756
0.393118
0.000172956
0.393313
0.000140251
0.393523
0.00010185
0.393751
5.67328e-05
0.394
3.75329e-06
0.394275
-5.84105e-05
0.394581
-0.00013136
0.394926
-0.000217039
0.395316
-0.000317762
0.395762
-0.000436313
0.396274
-0.000576586
0.396866
-0.000743111
0.397552
-0.000941863
0.398352
-0.00118081
0.399291
-0.00147084
0.400399
-0.00182726
0.401713
-0.00227246
0.40328
-0.00284071
0.405153
-0.00358606
0.407372
-0.00459531
-0.00600453
0.409897
0.394407
-0.000947906
0.393259
-0.000962454
0.393065
-0.000523894
0.393096
-0.000319188
0.393327
-0.000196339
0.393636
-7.49437e-05
0.39394
2.24219e-05
0.394216
9.25419e-05
0.394458
0.00014328
0.39467
0.000180433
0.394852
0.000206922
0.395011
0.000225103
0.395149
0.00023697
0.395271
0.000244046
0.39538
0.000247484
0.39548
0.000248116
0.395572
0.000246483
0.395659
0.000242983
0.395742
0.000237989
0.395824
0.00023167
0.395905
0.00022403
0.395986
0.000214928
0.396069
0.000204097
0.396155
0.000191134
0.396244
0.000175543
0.396338
0.000156753
0.396439
0.000134131
0.396547
0.00010697
0.396664
7.4466e-05
0.396793
3.56691e-05
0.396935
-1.04651e-05
0.397092
-6.51422e-05
0.397269
-0.000129767
0.397467
-0.000205827
0.397691
-0.000295289
0.397946
-0.000400499
0.398238
-0.000524236
0.398575
-0.000669848
0.398964
-0.000841417
0.399416
-0.00104407
0.399941
-0.00128409
0.400552
-0.0015695
0.401265
-0.00191067
0.402099
-0.00232128
0.403076
-0.0028197
0.40422
-0.00343114
0.405558
-0.00419083
0.407108
-0.00514825
0.408873
-0.00637155
-0.00794971
0.410807
0.397498
-0.000536134
0.397319
-0.00077164
0.397395
-0.000589915
0.397462
-0.000377821
0.39749
-0.000218249
0.397499
-8.08114e-05
0.39749
3.23101e-05
0.397465
0.000115467
0.39743
0.000172949
0.397391
0.000211337
0.397352
0.000235585
0.397314
0.00024932
0.397281
0.000255319
0.397252
0.00025577
0.397229
0.000252235
0.397213
0.000245806
0.397203
0.000237288
0.3972
0.000227225
0.397204
0.000215939
0.397215
0.000203567
0.397233
0.000190028
0.397258
0.000175028
0.39729
0.000158157
0.39733
0.000138844
0.397377
0.000116391
0.397433
8.9998e-05
0.397498
5.88325e-05
0.397574
2.19468e-05
0.397661
-2.17111e-05
0.397761
-7.33056e-05
0.397876
-0.000134146
0.398008
-0.000205811
0.398157
-0.000290079
0.398329
-0.000389
0.398526
-0.000505057
0.398752
-0.000641231
0.399014
-0.000801056
0.399318
-0.000988731
0.39967
-0.00120931
0.400079
-0.00146896
0.400554
-0.00177522
0.401106
-0.00213747
0.401746
-0.00256749
0.402489
-0.0030802
0.403349
-0.00369479
0.40434
-0.00443596
0.405472
-0.00533543
0.406746
-0.00643362
0.408143
-0.00777938
-0.00942645
0.409609
0.397552
-0.000178176
0.397112
-0.000319953
0.396809
-0.000277393
0.396611
-0.000171218
0.396484
-8.54515e-05
0.396423
-1.64904e-05
0.396414
4.14916e-05
0.396441
8.6188e-05
0.39649
0.000117784
0.396555
0.0001388
0.396628
0.000151668
0.396706
0.000158201
0.396786
0.000159812
0.396867
0.000157706
0.396949
0.000152775
0.397031
0.00014567
0.397113
0.000136947
0.397194
0.000127003
0.397277
0.000115972
0.39736
0.000103817
0.397444
9.03226e-05
0.39753
7.50819e-05
0.397617
5.75294e-05
0.397706
3.69487e-05
0.397799
1.24757e-05
0.397894
-1.68481e-05
0.397995
-5.20749e-05
0.398102
-9.43694e-05
0.398216
-0.000144995
0.398338
-0.000205302
0.398472
-0.000276832
0.398618
-0.000361366
0.398778
-0.000460974
0.398955
-0.000578112
0.399152
-0.000715713
0.399373
-0.000877247
0.399624
-0.00106682
0.399909
-0.0012893
0.400234
-0.00155048
0.400607
-0.00185731
0.401034
-0.0022181
0.401523
-0.002643
0.402084
-0.00314439
0.402726
-0.00373741
0.403457
-0.00444068
0.404284
-0.00527707
0.40521
-0.00627391
0.406228
-0.00746309
0.407319
-0.00888066
-0.0105622
0.408444
0.397787
-5.551e-05
0.397638
-0.000159513
0.397567
-0.000196335
0.397569
-0.000165438
0.397607
-0.000118204
0.397663
-6.915e-05
0.397726
-2.1149e-05
0.397787
2.15338e-05
0.397844
5.58349e-05
0.397893
8.13006e-05
0.397934
9.87724e-05
0.39797
0.000109346
0.398001
0.000114179
0.398027
0.00011433
0.398052
0.000110714
0.398076
0.000104143
0.398099
9.52941e-05
0.398124
8.46487e-05
0.39815
7.24436e-05
0.39818
5.86965e-05
0.398212
4.32054e-05
0.398247
2.55454e-05
0.398287
5.09534e-06
0.39833
-1.89291e-05
0.398378
-4.74407e-05
0.398432
-8.14694e-05
0.398491
-0.000122218
0.398557
-0.000170999
0.398632
-0.000229246
0.398716
-0.000298513
0.39881
-0.000380545
0.398915
-0.000477339
0.399034
-0.000591231
0.399169
-0.000724992
0.399321
-0.000881909
0.399494
-0.00106586
0.399693
-0.00128139
0.399922
-0.00153389
0.400185
-0.00182967
0.400488
-0.00217617
0.400836
-0.00258213
0.401235
-0.00305799
0.401691
-0.00361619
0.40221
-0.00427152
0.402795
-0.00504142
0.403451
-0.0059462
0.404174
-0.00700921
0.404954
-0.0082554
0.405774
-0.00971041
-0.0113974
0.406599
0.397839
1.51056e-05
0.397735
-4.43345e-05
0.397641
-9.23741e-05
0.39757
-8.74586e-05
0.397517
-6.02222e-05
0.397479
-2.76619e-05
0.397453
4.09235e-06
0.39744
3.15346e-05
0.397437
5.2447e-05
0.397444
6.62624e-05
0.397458
7.36078e-05
0.397478
7.54241e-05
0.397505
7.2725e-05
0.397536
6.64053e-05
0.397573
5.72843e-05
0.397613
4.6077e-05
0.397658
3.33219e-05
0.397706
1.93585e-05
0.397758
4.31873e-06
0.397814
-1.18935e-05
0.397872
-2.96234e-05
0.397934
-4.94456e-05
0.397998
-7.21234e-05
0.398066
-9.85784e-05
0.398136
-0.000129842
0.39821
-0.000167088
0.398289
-0.000211634
0.398372
-0.000264931
0.398461
-0.000328557
0.398557
-0.000404228
0.39866
-0.000493848
0.398772
-0.000599595
0.398893
-0.000724016
0.399025
-0.000870123
0.39917
-0.00104147
0.399331
-0.00124223
0.39951
-0.0014773
0.399712
-0.00175239
0.399941
-0.00207413
0.400199
-0.00245022
0.40049
-0.00288963
0.400819
-0.00340278
0.40119
-0.00400185
0.401604
-0.00470096
0.402064
-0.00551632
0.40257
-0.00646601
0.403118
-0.00756953
0.403698
-0.00884757
0.404296
-0.0103194
-0.0120022
0.404891
0.397871
5.33311e-05
0.397818
1.92384e-05
0.39777
-3.44522e-05
0.39774
-5.01549e-05
0.397729
-4.50283e-05
0.397736
-3.1665e-05
0.397755
-1.61148e-05
0.397785
-1.57317e-06
0.397821
9.90498e-06
0.397861
1.73424e-05
0.397903
2.06363e-05
0.397945
2.0111e-05
0.397987
1.62309e-05
0.398027
9.501e-06
0.398068
4.63807e-07
0.398107
-1.0388e-05
0.398147
-2.26863e-05
0.398186
-3.62102e-05
0.398226
-5.09135e-05
0.398267
-6.69684e-05
0.398308
-8.47838e-05
0.398351
-0.000104975
0.398395
-0.000128335
0.39844
-0.000155815
0.398486
-0.000188518
0.398535
-0.000227697
0.398587
-0.000274756
0.398642
-0.000331225
0.398702
-0.000398758
0.398766
-0.000479144
0.398836
-0.000574382
0.398912
-0.000686767
0.398995
-0.000818994
0.399085
-0.000974235
0.399185
-0.0011562
0.399296
-0.00136925
0.399421
-0.00161847
0.399561
-0.00190977
0.39972
-0.00224992
0.399901
-0.00264674
0.400105
-0.00310924
0.400335
-0.0036477
0.400592
-0.00427392
0.400877
-0.00500135
0.401191
-0.00584471
0.401532
-0.00682051
0.401895
-0.00794546
0.402272
-0.00923646
0.402651
-0.0107088
-0.0123742
0.403013
0.397885
7.76792e-05
0.397852
6.21563e-05
0.397816
1.04904e-05
0.397786
-1.31255e-05
0.397765
-1.93907e-05
0.397752
-1.71563e-05
0.397747
-1.18298e-05
0.397748
-6.45794e-06
0.397754
-2.95433e-06
0.397765
-2.28668e-06
0.397779
-4.78744e-06
0.397796
-1.03067e-05
0.397816
-1.85304e-05
0.397839
-2.90339e-05
0.397865
-4.13452e-05
0.397894
-5.50446e-05
0.397925
-6.98169e-05
0.397959
-8.54909e-05
0.397996
-0.000102089
0.398035
-0.000119861
0.398077
-0.000139272
0.39812
-0.000160973
0.398165
-0.000185796
0.398212
-0.000214752
0.398261
-0.00024901
0.398311
-0.000289898
0.398363
-0.000338883
0.398418
-0.000397555
0.398475
-0.000467623
0.398536
-0.00055094
0.3986
-0.000649576
0.398668
-0.000765909
0.398738
-0.000902722
0.398813
-0.00106326
0.398893
-0.00125131
0.398978
-0.00147131
0.399071
-0.00172844
0.399172
-0.00202869
0.399284
-0.0023789
0.399408
-0.00278685
0.399545
-0.00326147
0.399696
-0.00381286
0.399859
-0.00445241
0.400037
-0.00519293
0.400226
-0.00604833
0.400425
-0.00703335
0.40063
-0.00816344
0.400834
-0.00945298
0.401029
-0.010915
-0.0125602
0.401205
0.397893
9.45269e-05
0.397871
9.36828e-05
0.397844
4.57266e-05
0.39782
1.70022e-05
0.397804
6.52199e-07
0.397797
-8.67175e-06
0.397799
-1.4631e-05
0.397807
-1.96444e-05
0.397823
-2.51445e-05
0.397843
-3.18934e-05
0.397867
-4.024e-05
0.397894
-5.02492e-05
0.397923
-6.18225e-05
0.397953
-7.47297e-05
0.397985
-8.86972e-05
0.398018
-0.000103481
0.398052
-0.00011891
0.398087
-0.000134941
0.398123
-0.000151715
0.39816
-0.000169566
0.398197
-0.000189
0.398235
-0.000210704
0.398273
-0.000235551
0.398311
-0.000264582
0.398348
-0.000298996
0.398386
-0.000340135
0.398424
-0.000389472
0.398463
-0.000448601
0.398503
-0.000519245
0.398544
-0.000603284
0.398585
-0.000702812
0.398627
-0.000820226
0.398669
-0.000958301
0.398711
-0.00112026
0.398754
-0.00130987
0.398797
-0.00153159
0.398841
-0.00179057
0.398888
-0.00209277
0.398937
-0.00244499
0.398988
-0.0028549
0.399043
-0.00333127
0.3991
-0.00388395
0.399157
-0.00452407
0.399214
-0.00526385
0.399268
-0.00611681
0.399318
-0.00709659
0.399359
-0.00821749
0.399387
-0.00949307
0.399395
-0.0109348
-0.0125517
0.399376
0.397895
0.000108693
0.397875
0.000122693
0.397849
7.98633e-05
0.397825
4.68469e-05
0.397809
2.08514e-05
0.397801
2.12177e-07
0.397801
-1.6916e-05
0.397809
-3.221e-05
0.397823
-4.65904e-05
0.397843
-6.06082e-05
0.397866
-7.46042e-05
0.397891
-8.88547e-05
0.397919
-0.000103489
0.397948
-0.000118485
0.397978
-0.000133766
0.398009
-0.000149261
0.398041
-0.000164957
0.398074
-0.000180949
0.398106
-0.000197478
0.39814
-0.000214935
0.398173
-0.000233863
0.398205
-0.000254987
0.398237
-0.000279203
0.398268
-0.00030756
0.398298
-0.000341243
0.398327
-0.000381571
0.398355
-0.000429994
0.398381
-0.000488093
0.398407