/*--------------------------------*- C++ -*----------------------------------*\
  =========                 |
  \\      /  F ield         | OpenFOAM: The Open Source CFD Toolbox
   \\    /   O peration     | Website:  https://openfoam.org
    \\  /    A nd           | Version:  8
     \\/     M anipulation  |
\*---------------------------------------------------------------------------*/
FoamFile
{
    version     2.0;
    format      ascii;
    class       volScalarField;
    location    "300";
    object      k;
}
// * * * * * * * * * * * * * * * * * * * * * * * * * * * * * * * * * * * * * //

dimensions      [0 2 -2 0 0 0 0];

internalField   nonuniform List<scalar> 
1200
(
0.803137
0.676148
0.578985
0.502973
0.442848
0.39474
0.355693
0.323564
0.297758
0.27866
0.267402
0.249103
0.220464
0.18948
0.162033
0.139716
0.122531
0.109717
0.0999858
0.0923219
0.0861968
0.0812543
0.0771297
0.0735701
0.070993
0.0696362
0.0688567
0.0679548
0.0666621
0.0647722
0.0620558
0.0582958
0.0536192
0.0485817
0.0440374
0.0402003
0.0373277
0.0354638
0.0343796
0.0337945
0.0334797
0.0332926
0.0330564
0.0326169
0.0319203
0.0310551
0.0301982
0.0294695
0.02861
0.0267676
0.0235961
0.0196103
0.0158233
0.0129752
0.0111091
0.00994685
0.0092944
0.00897321
0.00883902
0.00891156
0.695246
0.512426
0.391056
0.307134
0.247275
0.202948
0.169347
0.143623
0.124133
0.116309
0.121996
0.124775
0.118394
0.106126
0.0922048
0.0795621
0.0694444
0.0613532
0.054782
0.0493197
0.0447167
0.04079
0.0373799
0.0343462
0.031633
0.0293222
0.0274631
0.0260005
0.024984
0.0245935
0.0246261
0.024685
0.0243297
0.0233046
0.0217213
0.0200202
0.018493
0.0171457
0.0159614
0.0149139
0.0139746
0.0131131
0.0123169
0.0115854
0.0109207
0.0103233
0.00978773
0.00930901
0.00897021
0.00917331
0.00965045
0.00968919
0.00904262
0.00798366
0.00688032
0.00600128
0.00533915
0.0048383
0.00444396
0.00411498
0.694936
0.510902
0.388881
0.304459
0.244095
0.199764
0.166471
0.140924
0.121062
0.105822
0.0963917
0.0905886
0.0846881
0.0777367
0.0704282
0.0637377
0.0578434
0.0526872
0.0481737
0.0441913
0.0406758
0.0375777
0.0348366
0.0323585
0.0301226
0.0280379
0.0261323
0.0244519
0.0229466
0.0215777
0.0203534
0.0192603
0.0182718
0.0173163
0.0163497
0.0154355
0.0146192
0.013887
0.0132208
0.0126074
0.01204
0.0115184
0.0110404
0.0105982
0.0101843
0.00979344
0.00942372
0.00907036
0.00873376
0.00844562
0.00826016
0.00809769
0.00781411
0.00740496
0.00695294
0.00649388
0.0060384
0.00559917
0.00517126
0.00477565
0.694933
0.511413
0.389592
0.305242
0.244784
0.200283
0.166788
0.141144
0.121283
0.10554
0.0932175
0.0837974
0.0761328
0.0693776
0.0632526
0.0577816
0.0529057
0.0485734
0.0446808
0.0411699
0.0380114
0.0351622
0.0325815
0.0302598
0.0281861
0.0263292
0.0246707
0.0232131
0.0219331
0.0207803
0.0197136
0.0187271
0.0178079
0.0169448
0.0161326
0.0153705
0.0146661
0.0140171
0.0134104
0.0128361
0.0122874
0.0117602
0.0112549
0.0107731
0.0103157
0.00988322
0.00947302
0.00907323
0.00867626
0.00828833
0.00794071
0.00763977
0.00734258
0.00701711
0.00666215
0.00628332
0.00587659
0.00545319
0.00500017
0.00456688
0.694939
0.511449
0.389537
0.305115
0.244619
0.200076
0.166547
0.140947
0.121261
0.105734
0.0932063
0.0830761
0.0747643
0.0677652
0.0617472
0.0564977
0.051854
0.0476671
0.0438889
0.0405067
0.0374569
0.0347004
0.0322503
0.0301102
0.0282266
0.0265588
0.0251001
0.0238461
0.0227267
0.0217024
0.0207398
0.0197915
0.0188605
0.0179685
0.017125
0.0163265
0.0155606
0.0148179
0.0140962
0.0133959
0.012721
0.012081
0.0114836
0.0109308
0.0104239
0.00995849
0.00952274
0.00908875
0.0086546
0.0082108
0.00776442
0.00733365
0.00692026
0.00650695
0.00607066
0.0056107
0.00513432
0.00464912
0.00413635
0.00367516
0.694936
0.511467
0.389556
0.30509
0.244563
0.199996
0.166454
0.140994
0.121653
0.106454
0.09411
0.0840007
0.0756239
0.0685751
0.0625305
0.0572462
0.0525534
0.0483324
0.0444893
0.0409824
0.0377934
0.0348966
0.0322673
0.029888
0.027761
0.0258804
0.0242457
0.0228743
0.0217039
0.0207189
0.0199098
0.0192043
0.0185007
0.0177971
0.0170982
0.016408
0.0157345
0.0150825
0.0144439
0.0138126
0.0131863
0.0125697
0.0119732
0.0113936
0.0108129
0.0102197
0.00964157
0.00911629
0.00861228
0.00806758
0.00749255
0.00691009
0.00634046
0.00579193
0.00525518
0.00474004
0.00425604
0.00382174
0.0034115
0.00307115
0.694922
0.511496
0.38968
0.305294
0.244774
0.200118
0.166472
0.141735
0.123536
0.108886
0.0965674
0.0862366
0.0776324
0.0703695
0.064114
0.0585999
0.0536369
0.049097
0.0448913
0.0409614
0.0372549
0.0337617
0.0305138
0.0275957
0.0250646
0.0229316
0.0211698
0.0197505
0.0185834
0.0175967
0.0167839
0.0161448
0.0156386
0.0151774
0.0147089
0.0142112
0.0136891
0.0131603
0.0126271
0.0120894
0.0115455
0.0110009
0.0104727
0.00996778
0.00942276
0.00885309
0.00832825
0.00783252
0.0073582
0.00690752
0.00644817
0.00596564
0.00546979
0.0049877
0.00452837
0.00410107
0.00370203
0.00333822
0.00299261
0.00270642
0.69493
0.51103
0.388927
0.304414
0.243863
0.199282
0.166704
0.147616
0.133738
0.119249
0.104692
0.0928759
0.0829561
0.0741581
0.0660496
0.0585725
0.0517338
0.0455239
0.0401273
0.035736
0.0322198
0.0293043
0.026763
0.0244666
0.0224655
0.0208145
0.0195505
0.0186134
0.0178992
0.0169651
0.01582
0.0147025
0.0137231
0.0128548
0.0120653
0.0113355
0.0106585
0.0100268
0.00945901
0.0089686
0.00855905
0.00817009
0.00782997
0.00754446
0.00737581
0.00754192
0.00755308
0.00721218
0.0067575
0.00627903
0.0057928
0.00530107
0.00481156
0.00434826
0.00392063
0.00353597
0.00318715
0.00287951
0.00260086
0.00238177
0.695255
0.512778
0.391542
0.307797
0.247845
0.204723
0.181221
0.18421
0.178719
0.162252
0.141918
0.122342
0.106307
0.093631
0.0833087
0.0745914
0.0672175
0.0605904
0.0543011
0.0485611
0.0435447
0.0392868
0.0356423
0.0324514
0.0296327
0.0278705
0.0274778
0.0274432
0.0262901
0.0233097
0.0198588
0.0168095
0.0143992
0.0126171
0.0113105
0.0103218
0.00954007
0.00890289
0.00837037
0.00791802
0.0075288
0.00719856
0.00693362
0.00693177
0.00850512
0.00986039
0.00930758
0.00805394
0.00690083
0.00596945
0.00522163
0.00459501
0.0040557
0.00360888
0.00324921
0.00296719
0.00273815
0.00254963
0.00238488
0.00225346
0.803452
0.676527
0.579018
0.502663
0.441658
0.391809
0.35224
0.345099
0.329138
0.296349
0.25931
0.224877
0.194673
0.16844
0.145647
0.126163
0.110432
0.0988535
0.0905847
0.0844017
0.0795043
0.075375
0.0717403
0.0686243
0.0663774
0.0648124
0.0620096
0.0554418
0.0434462
0.0316904
0.0248721
0.0217438
0.0204569
0.0199919
0.0198912
0.0199495
0.0200721
0.0202174
0.020394
0.0206893
0.0210119
0.0215622
0.0226569
0.0242295
0.0238731
0.0194175
0.0132029
0.00913852
0.00737479
0.0066103
0.00621871
0.00599907
0.00585268
0.00568908
0.00549561
0.00530199
0.00515244
0.00508463
0.00514434
0.00545006
0.803425
0.677023
0.579683
0.503175
0.442604
0.394389
0.355279
0.323161
0.297405
0.277946
0.266745
0.249833
0.22227
0.191563
0.163935
0.141331
0.123772
0.110657
0.10071
0.0929021
0.0866819
0.081669
0.0774727
0.073824
0.0711183
0.0696404
0.0688239
0.0679823
0.0668441
0.0651202
0.0625716
0.0589688
0.0543947
0.0493635
0.0447411
0.0408021
0.0377644
0.035746
0.0345463
0.0338816
0.0335151
0.0333032
0.0330761
0.0326686
0.0320116
0.0311788
0.0303429
0.029638
0.0288492
0.0271502
0.0240941
0.0201348
0.0162761
0.0133146
0.0113516
0.0101183
0.00941551
0.00906136
0.00890557
0.00896134
0.695245
0.512735
0.39113
0.306921
0.246818
0.202574
0.169129
0.143451
0.123772
0.114801
0.120093
0.123766
0.118385
0.106684
0.0929439
0.0801729
0.0699101
0.061699
0.0550388
0.0495161
0.0448732
0.0409193
0.0374879
0.0344348
0.0316994
0.0293534
0.0274394
0.0259068
0.0247839
0.0243112
0.0243275
0.0244532
0.0242258
0.0233414
0.0218503
0.020146
0.0186029
0.0172382
0.0160397
0.0149814
0.0140335
0.0131652
0.0123634
0.011626
0.0109546
0.0103503
0.00980874
0.00932522
0.0089655
0.00911361
0.00960412
0.00971459
0.009136
0.00810909
0.00700088
0.00610006
0.00541991
0.00490583
0.00450196
0.00416636
0.69494
0.511233
0.389149
0.304638
0.244172
0.199774
0.166395
0.140812
0.120976
0.105592
0.0958379
0.0900658
0.0844444
0.0777393
0.0705543
0.0638724
0.0579728
0.0527955
0.0482535
0.0442536
0.0407305
0.0376378
0.0349032
0.0324342
0.0301696
0.0280893
0.0262001
0.024523
0.0230201
0.0216565
0.0204309
0.0193302
0.0183336
0.0173771
0.016413
0.0154863
0.0146524
0.013904
0.0132253
0.0126028
0.0120286
0.0115009
0.0110176
0.0105723
0.0101577
0.00976822
0.0094018
0.00905339
0.00872081
0.00843009
0.00824039
0.00808854
0.00782687
0.00743458
0.00699076
0.00653832
0.00608821
0.00565321
0.00522877
0.00483498
0.694933
0.51157
0.389736
0.305317
0.244821
0.200321
0.166793
0.141193
0.121392
0.105665
0.0931937
0.0836315
0.0759309
0.0692067
0.0631189
0.057654
0.0528417
0.0485519
0.0446537
0.0411321
0.0379719
0.0351257
0.0325481
0.0302328
0.0281695
0.0263234
0.0246784
0.0232366
0.0219678
0.0208194
0.0197549
0.0187693
0.017848
0.016982
0.0161673
0.0154027
0.014696
0.0140434
0.0134319
0.0128524
0.012299
0.0117676
0.0112585
0.0107731
0.0103122
0.00987644
0.00946697
0.00907587
0.00869022
0.00830789
0.00795609
0.00765045
0.00735557
0.00703687
0.00668962
0.00631921
0.00592104
0.0055055
0.00506002
0.00463103
0.694921
0.511494
0.38958
0.305127
0.244631
0.200114
0.166593
0.141033
0.121393
0.105887
0.0933532
0.0831921
0.0748559
0.0678491
0.0618296
0.0565701
0.051894
0.0476665
0.0438766
0.0404983
0.0374475
0.0346921
0.0322549
0.0301353
0.0282701
0.0266177
0.0251747
0.0239355
0.0228234
0.021796
0.0208192
0.0198526
0.0189091
0.0180083
0.0171566
0.0163487
0.0155713
0.0148176
0.014086
0.0133776
0.0126966
0.0120524
0.0114528
0.0108992
0.0103919
0.00992698
0.00949981
0.00908865
0.00867724
0.00825115
0.00781261
0.00738139
0.00696653
0.00655535
0.00612498
0.00567175
0.00520239
0.00472219
0.0042115
0.00374734
0.694933
0.511484
0.389527
0.305062
0.244546
0.200012
0.166482
0.141077
0.12177
0.106575
0.094225
0.084106
0.0757219
0.0686603
0.0625993
0.0572983
0.0525897
0.0483502
0.0444876
0.040969
0.0377741
0.0348737
0.0322431
0.029866
0.0277486
0.0258869
0.0242846
0.0229571
0.0218261
0.0208692
0.0200733
0.0193551
0.0186324
0.0179104
0.017195
0.0164899
0.015802
0.015135
0.0144808
0.013834
0.0131927
0.0125642
0.0119588
0.0113722
0.0107908
0.010208
0.00965048
0.00914794
0.00866863
0.0081426
0.00757733
0.00699647
0.00642463
0.00587368
0.0053344
0.00481503
0.00432446
0.00388286
0.00346472
0.00311674
0.694943
0.511537
0.389689
0.305281
0.244747
0.200115
0.166484
0.141873
0.123704
0.10903
0.0966818
0.0863272
0.0777118
0.0704368
0.0641644
0.0586292
0.0536413
0.049078
0.0448509
0.0408957
0.037159
0.033638
0.0303727
0.0274566
0.0249442
0.022848
0.0211338
0.0197634
0.0186323
0.0176751
0.016896
0.0162909
0.0157929
0.0153242
0.0148394
0.0143222
0.0137819
0.0132367
0.0126868
0.0121307
0.0115685
0.0110093
0.0104715
0.00996129
0.00942698
0.00886758
0.0083548
0.00787431
0.00740978
0.00696767
0.00651474
0.00603501
0.00553852
0.00505327
0.00458913
0.00415617
0.00375125
0.00338171
0.0030301
0.00273812
0.694937
0.510989
0.388916
0.304358
0.243814
0.199241
0.166776
0.147674
0.133783
0.119196
0.104632
0.092843
0.0829107
0.0740604
0.0658968
0.058384
0.0515273
0.0453227
0.0399565
0.0356123
0.0321394
0.0292515
0.0267232
0.0244304
0.0224433
0.0207966
0.0195285
0.0185587
0.0177956
0.0168744
0.0157388
0.014611
0.0136277
0.0127521
0.0119554
0.0112224
0.0105522
0.00994261
0.00941194
0.00896444
0.00859128
0.00821653
0.00784384
0.00751632
0.00730977
0.00746113
0.00751559
0.00721415
0.00678184
0.00631833
0.00584098
0.0053536
0.00486512
0.00440034
0.00396952
0.00358035
0.00322587
0.00291156
0.00262534
0.00239953
0.695239
0.512591
0.391177
0.306864
0.24663
0.203099
0.178762
0.181553
0.177785
0.162462
0.142577
0.122973
0.106775
0.0939928
0.0835961
0.0749215
0.0674453
0.0605289
0.0540827
0.0483224
0.0433468
0.0391485
0.0355467
0.0323741
0.0295604
0.0279606
0.0276558
0.0277303
0.026575
0.023748
0.0203883
0.0173224
0.0148234
0.0129329
0.0115311
0.0104691
0.00963374
0.00895966
0.00840145
0.00793082
0.0075282
0.00718659
0.00691199
0.00686843
0.00832748
0.00979054
0.00936184
0.00814183
0.00698679
0.00604602
0.00528798
0.00465213
0.00410425
0.00364895
0.00328101
0.0029916
0.00275632
0.00256288
0.00239405
0.00225925
0.803168
0.676106
0.578837
0.502503
0.441539
0.391865
0.351452
0.342975
0.329126
0.297759
0.261122
0.226664
0.196335
0.169965
0.147039
0.127395
0.111494
0.09973
0.0912769
0.0849417
0.0799615
0.0758243
0.0722245
0.0691551
0.0668518
0.0651539
0.0625237
0.0565741
0.045074
0.0329938
0.0256156
0.0221173
0.0206327
0.0200663
0.0199124
0.0199421
0.0200482
0.0201804
0.0203437
0.0206208
0.0209287
0.0214495
0.0224947
0.0240763
0.023978
0.0198129
0.0136245
0.00939993
0.00751201
0.00668931
0.00627192
0.00603909
0.00588804
0.00572571
0.00553338
0.00533773
0.00518246
0.00510692
0.00515937
0.00545961
)
;

boundaryField
{
    wall
    {
        type            kqRWallFunction;
        value           nonuniform List<scalar> 
1200
(
0.803137
0.695246
0.694936
0.694933
0.694939
0.694936
0.694922
0.69493
0.695255
0.803452
0.676148
0.512426
0.510902
0.511413
0.511449
0.511467
0.511496
0.51103
0.512778
0.676527
0.578985
0.391056
0.388881
0.389592
0.389537
0.389556
0.38968
0.388927
0.391542
0.579018
0.502973
0.307134
0.304459
0.305242
0.305115
0.30509
0.305294
0.304414
0.307797
0.502663
0.442848
0.247275
0.244095
0.244784
0.244619
0.244563
0.244774
0.243863
0.247845
0.441658
0.39474
0.202948
0.199764
0.200283
0.200076
0.199996
0.200118
0.199282
0.204723
0.391809
0.355693
0.169347
0.166471
0.166788
0.166547
0.166454
0.166472
0.166704
0.181221
0.35224
0.323564
0.143623
0.140924
0.141144
0.140947
0.140994
0.141735
0.147616
0.18421
0.345099
0.297758
0.124133
0.121062
0.121283
0.121261
0.121653
0.123536
0.133738
0.178719
0.329138
0.27866
0.116309
0.105822
0.10554
0.105734
0.106454
0.108886
0.119249
0.162252
0.296349
0.267402
0.121996
0.0963917
0.0932175
0.0932063
0.09411
0.0965674
0.104692
0.141918
0.25931
0.249103
0.124775
0.0905886
0.0837974
0.0830761
0.0840007
0.0862366
0.0928759
0.122342
0.224877
0.220464
0.118394
0.0846881
0.0761328
0.0747643
0.0756239
0.0776324
0.0829561
0.106307
0.194673
0.18948
0.106126
0.0777367
0.0693776
0.0677652
0.0685751
0.0703695
0.0741581
0.093631
0.16844
0.162033
0.0922048
0.0704282
0.0632526
0.0617472
0.0625305
0.064114
0.0660496
0.0833087
0.145647
0.139716
0.0795621
0.0637377
0.0577816
0.0564977
0.0572462
0.0585999
0.0585725
0.0745914
0.126163
0.122531
0.0694444
0.0578434
0.0529057
0.051854
0.0525534
0.0536369
0.0517338
0.0672175
0.110432
0.109717
0.0613532
0.0526872
0.0485734
0.0476671
0.0483324
0.049097
0.0455239
0.0605904
0.0988535
0.0999858
0.054782
0.0481737
0.0446808
0.0438889
0.0444893
0.0448913
0.0401273
0.0543011
0.0905847
0.0923219
0.0493197
0.0441913
0.0411699
0.0405067
0.0409824
0.0409614
0.035736
0.0485611
0.0844017
0.0861968
0.0447167
0.0406758
0.0380114
0.0374569
0.0377934
0.0372549
0.0322198
0.0435447
0.0795043
0.0812543
0.04079
0.0375777
0.0351622
0.0347004
0.0348966
0.0337617
0.0293043
0.0392868
0.075375
0.0771297
0.0373799
0.0348366
0.0325815
0.0322503
0.0322673
0.0305138
0.026763
0.0356423
0.0717403
0.0735701
0.0343462
0.0323585
0.0302598
0.0301102
0.029888
0.0275957
0.0244666
0.0324514
0.0686243
0.070993
0.031633
0.0301226
0.0281861
0.0282266
0.027761
0.0250646
0.0224655
0.0296327
0.0663774
0.0696362
0.0293222
0.0280379
0.0263292
0.0265588
0.0258804
0.0229316
0.0208145
0.0278705
0.0648124
0.0688567
0.0274631
0.0261323
0.0246707
0.0251001
0.0242457
0.0211698
0.0195505
0.0274778
0.0620096
0.0679548
0.0260005
0.0244519
0.0232131
0.0238461
0.0228743
0.0197505
0.0186134
0.0274432
0.0554418
0.0666621
0.024984
0.0229466
0.0219331
0.0227267
0.0217039
0.0185834
0.0178992
0.0262901
0.0434462
0.0647722
0.0245935
0.0215777
0.0207803
0.0217024
0.0207189
0.0175967
0.0169651
0.0233097
0.0316904
0.0620558
0.0246261
0.0203534
0.0197136
0.0207398
0.0199098
0.0167839
0.01582
0.0198588
0.0248721
0.0582958
0.024685
0.0192603
0.0187271
0.0197915
0.0192043
0.0161448
0.0147025
0.0168095
0.0217438
0.0536192
0.0243297
0.0182718
0.0178079
0.0188605
0.0185007
0.0156386
0.0137231
0.0143992
0.0204569
0.0485817
0.0233046
0.0173163
0.0169448
0.0179685
0.0177971
0.0151774
0.0128548
0.0126171
0.0199919
0.0440374
0.0217213
0.0163497
0.0161326
0.017125
0.0170982
0.0147089
0.0120653
0.0113105
0.0198912
0.0402003
0.0200202
0.0154355
0.0153705
0.0163265
0.016408
0.0142112
0.0113355
0.0103218
0.0199495
0.0373277
0.018493
0.0146192
0.0146661
0.0155606
0.0157345
0.0136891
0.0106585
0.00954007
0.0200721
0.0354638
0.0171457
0.013887
0.0140171
0.0148179
0.0150825
0.0131603
0.0100268
0.00890289
0.0202174
0.0343796
0.0159614
0.0132208
0.0134104
0.0140962
0.0144439
0.0126271
0.00945901
0.00837037
0.020394
0.0337945
0.0149139
0.0126074
0.0128361
0.0133959
0.0138126
0.0120894
0.0089686
0.00791802
0.0206893
0.0334797
0.0139746
0.01204
0.0122874
0.012721
0.0131863
0.0115455
0.00855905
0.0075288
0.0210119
0.0332926
0.0131131
0.0115184
0.0117602
0.012081
0.0125697
0.0110009
0.00817009
0.00719856
0.0215622
0.0330564
0.0123169
0.0110404
0.0112549
0.0114836
0.0119732
0.0104727
0.00782997
0.00693362
0.0226569
0.0326169
0.0115854
0.0105982
0.0107731
0.0109308
0.0113936
0.00996778
0.00754446
0.00693177
0.0242295
0.0319203
0.0109207
0.0101843
0.0103157
0.0104239
0.0108129
0.00942276
0.00737581
0.00850512
0.0238731
0.0310551
0.0103233
0.00979344
0.00988322
0.00995849
0.0102197
0.00885309
0.00754192
0.00986039
0.0194175
0.0301982
0.00978773
0.00942372
0.00947302
0.00952274
0.00964157
0.00832825
0.00755308
0.00930758
0.0132029
0.0294695
0.00930901
0.00907036
0.00907323
0.00908875
0.00911629
0.00783252
0.00721218
0.00805394
0.00913852
0.02861
0.00897021
0.00873376
0.00867626
0.0086546
0.00861228
0.0073582
0.0067575
0.00690083
0.00737479
0.0267676
0.00917331
0.00844562
0.00828833
0.0082108
0.00806758
0.00690752
0.00627903
0.00596945
0.0066103
0.0235961
0.00965045
0.00826016
0.00794071
0.00776442
0.00749255
0.00644817
0.0057928
0.00522163
0.00621871
0.0196103
0.00968919
0.00809769
0.00763977
0.00733365
0.00691009
0.00596564
0.00530107
0.00459501
0.00599907
0.0158233
0.00904262
0.00781411
0.00734258
0.00692026
0.00634046
0.00546979
0.00481156
0.0040557
0.00585268
0.0129752
0.00798366
0.00740496
0.00701711
0.00650695
0.00579193
0.0049877
0.00434826
0.00360888
0.00568908
0.0111091
0.00688032
0.00695294
0.00666215
0.00607066
0.00525518
0.00452837
0.00392063
0.00324921
0.00549561
0.00994685
0.00600128
0.00649388
0.00628332
0.0056107
0.00474004
0.00410107
0.00353597
0.00296719
0.00530199
0.0092944
0.00533915
0.0060384
0.00587659
0.00513432
0.00425604
0.00370203
0.00318715
0.00273815
0.00515244
0.00897321
0.0048383
0.00559917
0.00545319
0.00464912
0.00382174
0.00333822
0.00287951
0.00254963
0.00508463
0.00883902
0.00444396
0.00517126
0.00500017
0.00413635
0.0034115
0.00299261
0.00260086
0.00238488
0.00514434
0.00891156
0.00411498
0.00477565
0.00456688
0.00367516
0.00307115
0.00270642
0.00238177
0.00225346
0.00545006
0.803425
0.695245
0.69494
0.694933
0.694921
0.694933
0.694943
0.694937
0.695239
0.803168
0.677023
0.512735
0.511233
0.51157
0.511494
0.511484
0.511537
0.510989
0.512591
0.676106
0.579683
0.39113
0.389149
0.389736
0.38958
0.389527
0.389689
0.388916
0.391177
0.578837
0.503175
0.306921
0.304638
0.305317
0.305127
0.305062
0.305281
0.304358
0.306864
0.502503
0.442604
0.246818
0.244172
0.244821
0.244631
0.244546
0.244747
0.243814
0.24663
0.441539
0.394389
0.202574
0.199774
0.200321
0.200114
0.200012
0.200115
0.199241
0.203099
0.391865
0.355279
0.169129
0.166395
0.166793
0.166593
0.166482
0.166484
0.166776
0.178762
0.351452
0.323161
0.143451
0.140812
0.141193
0.141033
0.141077
0.141873
0.147674
0.181553
0.342975
0.297405
0.123772
0.120976
0.121392
0.121393
0.12177
0.123704
0.133783
0.177785
0.329126
0.277946
0.114801
0.105592
0.105665
0.105887
0.106575
0.10903
0.119196
0.162462
0.297759
0.266745
0.120093
0.0958379
0.0931937
0.0933532
0.094225
0.0966818
0.104632
0.142577
0.261122
0.249833
0.123766
0.0900658
0.0836315
0.0831921
0.084106
0.0863272
0.092843
0.122973
0.226664
0.22227
0.118385
0.0844444
0.0759309
0.0748559
0.0757219
0.0777118
0.0829107
0.106775
0.196335
0.191563
0.106684
0.0777393
0.0692067
0.0678491
0.0686603
0.0704368
0.0740604
0.0939928
0.169965
0.163935
0.0929439
0.0705543
0.0631189
0.0618296
0.0625993
0.0641644
0.0658968
0.0835961
0.147039
0.141331
0.0801729
0.0638724
0.057654
0.0565701
0.0572983
0.0586292
0.058384
0.0749215
0.127395
0.123772
0.0699101
0.0579728
0.0528417
0.051894
0.0525897
0.0536413
0.0515273
0.0674453
0.111494
0.110657
0.061699
0.0527955
0.0485519
0.0476665
0.0483502
0.049078
0.0453227
0.0605289
0.09973
0.10071
0.0550388
0.0482535
0.0446537
0.0438766
0.0444876
0.0448509
0.0399565
0.0540827
0.0912769
0.0929021
0.0495161
0.0442536
0.0411321
0.0404983
0.040969
0.0408957
0.0356123
0.0483224
0.0849417
0.0866819
0.0448732
0.0407305
0.0379719
0.0374475
0.0377741
0.037159
0.0321394
0.0433468
0.0799615
0.081669
0.0409193
0.0376378
0.0351257
0.0346921
0.0348737
0.033638
0.0292515
0.0391485
0.0758243
0.0774727
0.0374879
0.0349032
0.0325481
0.0322549
0.0322431
0.0303727
0.0267232
0.0355467
0.0722245
0.073824
0.0344348
0.0324342
0.0302328
0.0301353
0.029866
0.0274566
0.0244304
0.0323741
0.0691551
0.0711183
0.0316994
0.0301696
0.0281695
0.0282701
0.0277486
0.0249442
0.0224433
0.0295604
0.0668518
0.0696404
0.0293534
0.0280893
0.0263234
0.0266177
0.0258869
0.022848
0.0207966
0.0279606
0.0651539
0.0688239
0.0274394
0.0262001
0.0246784
0.0251747
0.0242846
0.0211338
0.0195285
0.0276558
0.0625237
0.0679823
0.0259068
0.024523
0.0232366
0.0239355
0.0229571
0.0197634
0.0185587
0.0277303
0.0565741
0.0668441
0.0247839
0.0230201
0.0219678
0.0228234
0.0218261
0.0186323
0.0177956
0.026575
0.045074
0.0651202
0.0243112
0.0216565
0.0208194
0.021796
0.0208692
0.0176751
0.0168744
0.023748
0.0329938
0.0625716
0.0243275
0.0204309
0.0197549
0.0208192
0.0200733
0.016896
0.0157388
0.0203883
0.0256156
0.0589688
0.0244532
0.0193302
0.0187693
0.0198526
0.0193551
0.0162909
0.014611
0.0173224
0.0221173
0.0543947
0.0242258
0.0183336
0.017848
0.0189091
0.0186324
0.0157929
0.0136277
0.0148234
0.0206327
0.0493635
0.0233414
0.0173771
0.016982
0.0180083
0.0179104
0.0153242
0.0127521
0.0129329
0.0200663
0.0447411
0.0218503
0.016413
0.0161673
0.0171566
0.017195
0.0148394
0.0119554
0.0115311
0.0199124
0.0408021
0.020146
0.0154863
0.0154027
0.0163487
0.0164899
0.0143222
0.0112224
0.0104691
0.0199421
0.0377644
0.0186029
0.0146524
0.014696
0.0155713
0.015802
0.0137819
0.0105522
0.00963374
0.0200482
0.035746
0.0172382
0.013904
0.0140434
0.0148176
0.015135
0.0132367
0.00994261
0.00895966
0.0201804
0.0345463
0.0160397
0.0132253
0.0134319
0.014086
0.0144808
0.0126868
0.00941194
0.00840145
0.0203437
0.0338816
0.0149814
0.0126028
0.0128524
0.0133776
0.013834
0.0121307
0.00896444
0.00793082
0.0206208
0.0335151
0.0140335
0.0120286
0.012299
0.0126966
0.0131927
0.0115685
0.00859128
0.0075282
0.0209287
0.0333032
0.0131652
0.0115009
0.0117676
0.0120524
0.0125642
0.0110093
0.00821653
0.00718659
0.0214495
0.0330761
0.0123634
0.0110176
0.0112585
0.0114528
0.0119588
0.0104715
0.00784384
0.00691199
0.0224947
0.0326686
0.011626
0.0105723
0.0107731
0.0108992
0.0113722
0.00996129
0.00751632
0.00686843
0.0240763
0.0320116
0.0109546
0.0101577
0.0103122
0.0103919
0.0107908
0.00942698
0.00730977
0.00832748
0.023978
0.0311788
0.0103503
0.00976822
0.00987644
0.00992698
0.010208
0.00886758
0.00746113
0.00979054
0.0198129
0.0303429
0.00980874
0.0094018
0.00946697
0.00949981
0.00965048
0.0083548
0.00751559
0.00936184
0.0136245
0.029638
0.00932522
0.00905339
0.00907587
0.00908865
0.00914794
0.00787431
0.00721415
0.00814183
0.00939993
0.0288492
0.0089655
0.00872081
0.00869022
0.00867724
0.00866863
0.00740978
0.00678184
0.00698679
0.00751201
0.0271502
0.00911361
0.00843009
0.00830789
0.00825115
0.0081426
0.00696767
0.00631833
0.00604602
0.00668931
0.0240941
0.00960412
0.00824039
0.00795609
0.00781261
0.00757733
0.00651474
0.00584098
0.00528798
0.00627192
0.0201348
0.00971459
0.00808854
0.00765045
0.00738139
0.00699647
0.00603501
0.0053536
0.00465213
0.00603909
0.0162761
0.009136
0.00782687
0.00735557
0.00696653
0.00642463
0.00553852
0.00486512
0.00410425
0.00588804
0.0133146
0.00810909
0.00743458
0.00703687
0.00655535
0.00587368
0.00505327
0.00440034
0.00364895
0.00572571
0.0113516
0.00700088
0.00699076
0.00668962
0.00612498
0.0053344
0.00458913
0.00396952
0.00328101
0.00553338
0.0101183
0.00610006
0.00653832
0.00631921
0.00567175
0.00481503
0.00415617
0.00358035
0.0029916
0.00533773
0.00941551
0.00541991
0.00608821
0.00592104
0.00520239
0.00432446
0.00375125
0.00322587
0.00275632
0.00518246
0.00906136
0.00490583
0.00565321
0.0055055
0.00472219
0.00388286
0.00338171
0.00291156
0.00256288
0.00510692
0.00890557
0.00450196
0.00522877
0.00506002
0.0042115
0.00346472
0.0030301
0.00262534
0.00239405
0.00515937
0.00896134
0.00416636
0.00483498
0.00463103
0.00374734
0.00311674
0.00273812
0.00239953
0.00225925
0.00545961
)
;
    }
    inlet
    {
        type            turbulentIntensityKineticEnergyInlet;
        intensity       0.05;
        value           uniform 0.96;
    }
    outlet
    {
        type            inletOutlet;
        inletValue      uniform 0.003;
        value           nonuniform List<scalar> 
20
(
0.00891156
0.00411498
0.00477565
0.00456688
0.00367516
0.00307115
0.00270642
0.00238177
0.00225346
0.00545006
0.00896134
0.00416636
0.00483498
0.00463103
0.00374734
0.00311674
0.00273812
0.00239953
0.00225925
0.00545961
)
;
    }
    heatWall
    {
        type            kqRWallFunction;
        value           nonuniform List<scalar> 
240
(
0.803452
0.803168
0.676527
0.676106
0.579018
0.578837
0.502663
0.502503
0.441658
0.441539
0.391809
0.391865
0.35224
0.351452
0.345099
0.342975
0.329138
0.329126
0.296349
0.297759
0.25931
0.261122
0.224877
0.226664
0.194673
0.196335
0.16844
0.169965
0.145647
0.147039
0.126163
0.127395
0.110432
0.111494
0.0988535
0.09973
0.0905847
0.0912769
0.0844017
0.0849417
0.0795043
0.0799615
0.075375
0.0758243
0.0717403
0.0722245
0.0686243
0.0691551
0.0663774
0.0668518
0.0648124
0.0651539
0.0620096
0.0625237
0.0554418
0.0565741
0.0434462
0.045074
0.0316904
0.0329938
0.0248721
0.0256156
0.0217438
0.0221173
0.0204569
0.0206327
0.0199919
0.0200663
0.0198912
0.0199124
0.0199495
0.0199421
0.0200721
0.0200482
0.0202174
0.0201804
0.020394
0.0203437
0.0206893
0.0206208
0.0210119
0.0209287
0.0215622
0.0214495
0.0226569
0.0224947
0.0242295
0.0240763
0.0238731
0.023978
0.0194175
0.0198129
0.0132029
0.0136245
0.00913852
0.00939993
0.00737479
0.00751201
0.0066103
0.00668931
0.00621871
0.00627192
0.00599907
0.00603909
0.00585268
0.00588804
0.00568908
0.00572571
0.00549561
0.00553338
0.00530199
0.00533773
0.00515244
0.00518246
0.00508463
0.00510692
0.00514434
0.00515937
0.00545006
0.00545961
0.803137
0.803425
0.676148
0.677023
0.578985
0.579683
0.502973
0.503175
0.442848
0.442604
0.39474
0.394389
0.355693
0.355279
0.323564
0.323161
0.297758
0.297405
0.27866
0.277946
0.267402
0.266745
0.249103
0.249833
0.220464
0.22227
0.18948
0.191563
0.162033
0.163935
0.139716
0.141331
0.122531
0.123772
0.109717
0.110657
0.0999858
0.10071
0.0923219
0.0929021
0.0861968
0.0866819
0.0812543
0.081669
0.0771297
0.0774727
0.0735701
0.073824
0.070993
0.0711183
0.0696362
0.0696404
0.0688567
0.0688239
0.0679548
0.0679823
0.0666621
0.0668441
0.0647722
0.0651202
0.0620558
0.0625716
0.0582958
0.0589688
0.0536192
0.0543947
0.0485817
0.0493635
0.0440374
0.0447411
0.0402003
0.0408021
0.0373277
0.0377644
0.0354638
0.035746
0.0343796
0.0345463
0.0337945
0.0338816
0.0334797
0.0335151
0.0332926
0.0333032
0.0330564
0.0330761
0.0326169
0.0326686
0.0319203
0.0320116
0.0310551
0.0311788
0.0301982
0.0303429
0.0294695
0.029638
0.02861
0.0288492
0.0267676
0.0271502
0.0235961
0.0240941
0.0196103
0.0201348
0.0158233
0.0162761
0.0129752
0.0133146
0.0111091
0.0113516
0.00994685
0.0101183
0.0092944
0.00941551
0.00897321
0.00906136
0.00883902
0.00890557
0.00891156
0.00896134
)
;
    }
}


// ************************************************************************* //
