/*--------------------------------*- C++ -*----------------------------------*\
  =========                 |
  \\      /  F ield         | OpenFOAM: The Open Source CFD Toolbox
   \\    /   O peration     | Website:  https://openfoam.org
    \\  /    A nd           | Version:  8
     \\/     M anipulation  |
\*---------------------------------------------------------------------------*/
FoamFile
{
    version     2.0;
    format      ascii;
    class       surfaceScalarField;
    location    "300";
    object      phi;
}
// * * * * * * * * * * * * * * * * * * * * * * * * * * * * * * * * * * * * * //

dimensions      [1 0 -1 0 0 0 0];

internalField   nonuniform List<scalar> 
2860
(
1.6017
-0.0142146
-0.722799
1.60651
0.00552599
0.000276168
1.60785
0.00318716
0.373046
1.61296
0.00560782
1.19832
1.6252
0.00802469
2.41763
1.6435
0.00382023
2.75928
1.66895
-0.000355776
2.44314
1.69821
-0.00474778
1.90851
1.73212
0.00273946
2.31489
1.80889
0.07028
4.45102
1.89626
0.214651
10.4157
1.87322
0.254999
16.5661
1.74802
0.207607
19.2394
1.59996
0.127891
18.8749
1.48425
0.0505688
17.0009
1.41664
-0.00812769
14.5712
1.38749
-0.0397241
12.06
1.38183
-0.0538184
9.73827
1.38951
-0.0585571
7.97254
1.40373
-0.0579458
7.00664
1.41819
-0.0544144
6.17684
1.4297
-0.0503429
5.32353
1.44152
-0.0486992
4.96481
1.46159
-0.0513033
5.81322
1.48933
-0.0531702
7.38095
1.51066
-0.0442073
7.68307
1.51863
-0.0264505
7.02063
1.51153
-0.0110474
5.67156
1.48873
-3.129e-05
4.67327
1.44805
0.0156877
4.44337
1.39014
0.0356751
4.84979
1.31888
0.0533441
5.46626
1.2427
0.0613866
5.99646
1.17661
0.0519669
6.35468
1.13452
0.0240752
6.18924
1.12101
-0.00528867
6.05487
1.12758
-0.0240999
5.75765
1.14566
-0.0303753
5.40975
1.16951
-0.0307778
4.87343
1.19646
-0.0293947
4.37842
1.22738
-0.0296493
4.20203
1.26486
-0.0322077
4.72085
1.30753
-0.0375889
5.32381
1.35449
-0.0452015
5.74592
1.40624
-0.0547718
6.01698
1.46167
-0.0628185
6.30091
1.51447
-0.0619437
6.87936
1.55357
-0.0453658
7.65631
1.57074
-0.0155845
8.41934
1.5577
0.0280483
9.48627
1.49912
0.0846173
10.8821
1.39077
0.125811
12.0911
1.26214
0.121341
12.5659
1.15969
0.0725173
12.0547
1.1112
0.00926111
11.002
1.11008
-0.0361973
9.72337
1.13577
-0.0578427
8.39483
1.17343
-0.0641369
7.08855
1.21873
-0.0677385
6.05368
-0.0462091
5.20677
1.588
-0.0169857
-0.243256
1.59152
0.00267151
0.230381
1.59076
0.00146382
0.446463
1.59435
0.00515311
0.923824
1.60609
0.00999237
1.70141
1.62548
0.00173924
2.0124
1.65244
-0.00976848
1.70964
1.68573
-0.0217865
1.25271
1.72074
-0.009302
1.68022
1.78433
0.0608897
3.0186
1.8977
0.214353
5.5701
1.98978
0.265781
8.45818
2.0211
0.215007
10.2689
2.0073
0.122855
10.7294
1.973
0.0323631
10.2502
1.93475
-0.0335354
9.19052
1.90297
-0.0710618
7.8493
1.88167
-0.0908934
6.40032
1.86917
-0.0992205
5.19736
1.86135
-0.0986534
4.55655
1.85271
-0.0915187
4.00239
1.84013
-0.0820996
3.41649
1.8241
-0.0748006
3.1547
1.81057
-0.0733999
3.80264
1.80852
-0.0801938
5.08192
1.81891
-0.0781297
5.4511
1.83935
-0.0617318
5.05679
1.86177
-0.0416506
4.17955
1.88053
-0.0248375
3.81515
1.89161
-0.00336413
4.07744
1.89605
0.0198963
4.63081
1.89749
0.0391424
5.19346
1.89974
0.047795
5.63196
1.90337
0.0395394
5.96962
1.90055
0.0153343
6.0765
1.8859
-0.00939853
6.15902
1.86355
-0.0262411
6.00649
1.84067
-0.0347965
5.66129
1.8197
-0.0400734
5.16558
1.80002
-0.0429914
4.7009
1.77957
-0.0446702
4.4331
1.75812
-0.0458907
4.59065
1.7364
-0.0517745
4.81231
1.71815
-0.0641554
4.90518
1.70834
-0.0826466
4.89994
1.70959
-0.100314
4.94226
1.71973
-0.103675
5.31044
1.7314
-0.0812471
5.93671
1.73785
-0.0377355
6.59802
1.73931
0.0209408
7.50304
1.73658
0.0925169
8.63189
1.72476
0.1436
9.69167
1.70086
0.141489
10.3426
1.66603
0.0904023
10.3789
1.62531
0.0210585
9.99334
1.58931
-0.0366202
9.25986
1.56683
-0.0733142
8.32452
1.55813
-0.0911213
7.32162
1.56246
-0.10418
6.55645
-0.080335
5.82037
1.58153
-0.006393
-0.243683
1.58404
0.00584122
0.12156
1.58575
0.00558457
0.434081
1.59117
0.00612514
0.733016
1.60357
0.00729702
0.997621
1.62295
-0.00477347
1.13079
1.64742
-0.0243765
0.710341
1.6829
-0.0502722
0.154615
1.72213
-0.0384934
0.350361
1.77731
0.0254396
1.12066
1.87077
0.159997
2.12031
1.96326
0.220192
3.11247
2.02235
0.186717
3.90267
2.04297
0.109894
4.22253
2.03503
0.0322166
4.03378
2.01341
-0.0242966
3.45731
1.98882
-0.0599479
2.57794
1.96643
-0.0814479
1.50141
1.95022
-0.0959706
0.603491
1.94316
-0.105514
0.232617
1.94009
-0.109071
-0.116777
1.93545
-0.103407
-0.5571
1.92334
-0.0902847
-0.762876
1.91135
-0.0798324
-0.140645
1.91097
-0.0713286
1.24442
1.90945
-0.0663904
1.81546
1.90514
-0.0548416
1.4557
1.90031
-0.0473328
0.522667
1.90002
-0.0478736
0.113845
1.89267
-0.0339949
0.22451
1.87888
0.00343435
0.668726
1.86617
0.0403755
1.26253
1.85647
0.0611406
1.80723
1.845
0.0581803
2.20624
1.82725
0.0343026
2.36512
1.8074
0.00528505
2.48293
1.78984
-0.0203008
2.3248
1.7778
-0.0373032
1.93625
1.77097
-0.0495017
1.50601
1.76787
-0.057094
1.17364
1.76664
-0.0605029
1.04123
1.76644
-0.0599451
1.30391
1.76353
-0.0624893
1.66762
1.75814
-0.0734787
1.90338
1.75467
-0.0952014
2.02314
1.75681
-0.119083
2.16128
1.764
-0.125984
2.59124
1.77234
-0.101059
3.20709
1.78288
-0.054161
3.79142
1.80235
0.00718992
4.60418
1.83157
0.080204
5.66855
1.86173
0.133432
6.79173
1.88189
0.134846
7.65027
1.88705
0.0885903
8.00996
1.87741
0.0263136
8.04503
1.85705
-0.0257935
7.79984
1.83366
-0.0633416
7.33633
1.81216
-0.08467
6.72993
1.79722
-0.103409
6.36817
-0.0865102
5.75358
1.58867
-0.00299418
-0.0982088
1.59137
0.00227218
0.036839
1.5937
0.00429756
0.134074
1.59682
0.00374527
0.103038
1.60513
0.000763731
0.00933321
1.62068
-0.0117243
0.0943877
1.64483
-0.0418326
-0.198921
1.68647
-0.0873988
-0.656697
1.72785
-0.0754522
-0.539864
1.77432
-0.00890623
-0.00457459
1.84932
0.102819
0.485639
1.92682
0.164147
0.716679
1.98525
0.147741
0.87858
2.01567
0.0918723
0.869341
2.0185
0.0362732
0.584491
1.99909
0.00245783
0.020339
1.97947
-0.0308636
-0.822585
1.96684
-0.059229
-1.93407
1.95788
-0.0752671
-2.88445
1.94523
-0.0796742
-3.22457
1.92414
-0.0770954
-3.49421
1.89704
-0.0676321
-3.8426
1.87048
-0.0550672
-4.08994
1.84966
-0.0478866
-3.57585
1.839
-0.0452136
-2.3503
1.83506
-0.0475635
-1.7677
1.84263
-0.0516631
-2.07083
1.8599
-0.0577514
-2.88863
1.88093
-0.0637577
-3.12777
1.89478
-0.048371
-3.00443
1.90067
-0.013075
-2.6963
1.90449
0.0256697
-2.22361
1.90821
0.0497103
-1.76228
1.91093
0.052797
-1.42477
1.91014
0.0364885
-1.22345
1.90639
0.012487
-1.06807
1.89928
-0.010399
-1.15415
1.89043
-0.0274226
-1.47739
1.88035
-0.0386457
-1.76667
1.86897
-0.0453007
-1.94583
1.85576
-0.0483053
-1.96473
1.84142
-0.0481714
-1.63834
1.82521
-0.0498179
-1.1614
1.8083
-0.0610493
-0.780947
1.79601
-0.0887342
-0.494912
1.79258
-0.123913
-0.189206
1.79226
-0.131736
0.432159
1.78522
-0.0944346
1.24733
1.77171
-0.0365349
2.00823
1.76609
0.0249996
2.90124
1.78078
0.0845963
3.93862
1.81121
0.123805
4.99933
1.83975
0.122442
5.8143
1.85283
0.0846249
6.21048
1.84967
0.0338455
6.39899
1.83524
-0.00846745
6.3871
1.81566
-0.0411257
6.23577
1.79528
-0.0597696
5.96397
1.78008
-0.0784213
6.10694
-0.0671982
5.72253
1.58905
0.000477636
-0.0720649
1.58981
0.00178296
-0.0647174
1.59155
0.00366605
-0.0896733
1.59433
0.00248864
-0.221785
1.6007
-0.00360054
-0.416887
1.61487
-0.0174404
-0.315612
1.64056
-0.0535182
-0.539154
1.6939
-0.12624
-1.06284
1.74757
-0.116529
-1.11197
1.79712
-0.045506
-0.706379
1.85753
0.0540095
-0.320834
1.91835
0.112826
-0.260376
1.96592
0.109555
-0.286532
1.99314
0.0721313
-0.419728
1.99821
0.035403
-0.751449
1.98734
0.0168621
-1.34925
1.9692
-0.0079397
-2.21174
1.94942
-0.0365322
-3.45488
1.93057
-0.0516377
-4.6421
1.91118
-0.0525269
-5.14198
1.88968
-0.0445871
-5.47646
1.87116
-0.0336263
-5.84318
1.86187
-0.0270724
-6.1902
1.86275
-0.02966
-5.96049
1.87303
-0.0368791
-5.082
1.89022
-0.0491471
-4.56531
1.91522
-0.066773
-4.71479
1.94471
-0.0827552
-5.17801
1.97474
-0.0904193
-4.98069
1.99502
-0.0678135
-4.6252
2.00291
-0.0240345
-4.33762
2.00251
0.0194163
-3.96262
1.998
0.0480321
-3.56063
1.98977
0.0567557
-3.25004
1.97631
0.0473679
-2.99871
1.95662
0.0291405
-2.76076
1.92986
0.0104382
-2.71246
1.89828
-0.00333084
-2.9027
1.86501
-0.0121116
-3.05271
1.83204
-0.018126
-3.10626
1.80072
-0.0226029
-3.00066
1.7721
-0.0262637
-2.55487
1.74539
-0.0311317
-1.93645
1.72254
-0.0475118
-1.41854
1.71135
-0.0875944
-0.981766
1.71633
-0.139956
-0.541592
1.72603
-0.150428
0.134006
1.72375
-0.0944962
0.903319
1.71107
-0.0201637
1.56404
1.69795
0.0507541
2.36831
1.69544
0.106408
3.30872
1.70731
0.132925
4.30386
1.72368
0.122576
5.07597
1.73121
0.087848
5.45663
1.72646
0.0478364
5.73126
1.71314
0.0177899
5.88775
1.69646
-0.00464822
6.03406
1.67983
-0.015912
6.08509
1.66793
-0.0310105
6.75659
-0.0267822
6.52015
1.58921
0.0030515
-0.0927967
1.58989
0.00200618
-0.16196
1.59103
0.00120339
-0.348379
1.59335
-0.00086669
-0.667904
1.59904
-0.00953368
-1.10058
1.61217
-0.0277168
-1.20123
1.64098
-0.0750042
-1.59347
1.70791
-0.184326
-2.33333
1.77477
-0.175916
-2.72763
1.83305
-0.0968469
-2.74608
1.88957
0.00285328
-2.61424
1.94375
0.0614006
-2.60295
1.98778
0.0675652
-2.64386
2.01361
0.0482508
-2.78583
2.01663
0.0346061
-3.07855
1.99906
0.0376227
-3.56149
1.97265
0.0250015
-4.25622
1.94514
-0.00241351
-5.38119
1.91833
-0.0158155
-6.48948
1.89279
-0.0135879
-6.90802
1.86922
-0.00500981
-7.11536
1.85052
-0.000600917
-7.26572
1.83794
-0.0052905
-7.35416
1.83076
-0.0180392
-7.04104
1.82956
-0.0334128
-6.25157
1.83369
-0.052245
-5.5873
1.84567
-0.0793434
-5.32639
1.8659
-0.104486
-5.21667
1.89518
-0.118522
-4.53016
1.92297
-0.0949848
-3.92251
1.94532
-0.0480674
-3.64817
1.96187
-0.000887615
-3.41387
1.97215
0.0323515
-3.14166
1.9762
0.04552
-2.93169
1.97381
0.0417465
-2.72958
1.96535
0.0292022
-2.5115
1.95134
0.0154178
-2.41144
1.93309
0.00542581
-2.54107
1.91231
0.000611612
-2.64755
1.88945
-0.00154245
-2.70116
1.86488
-0.002638
-2.63007
1.83969
-0.00557665
-2.19862
1.81158
-0.00847062
-1.57982
1.7804
-0.0235755
-1.02893
1.75569
-0.0711488
-0.505883
1.74958
-0.139458
0.0774483
1.7439
-0.14137
0.871787
1.72564
-0.0655954
1.69098
1.6948
0.0253963
2.40867
1.66359
0.0970476
3.2491
1.64429
0.139396
4.14232
1.6402
0.148529
5.0464
1.6435
0.127902
5.73801
1.64292
0.0944252
6.06054
1.63491
0.0615304
6.35356
1.62178
0.0375591
6.56486
1.60836
0.0177557
6.82756
1.59847
0.00650717
6.95127
1.59467
-0.0083859
7.80625
-0.00724247
7.47789
1.58974
0.00368211
-0.127446
1.59187
6.14735e-05
-0.251809
1.59409
-0.0037651
-0.419352
1.59621
-0.00658818
-0.750197
1.59924
-0.0139749
-1.24722
1.60751
-0.0327464
-1.43196
1.63395
-0.0912781
-2.05584
1.71681
-0.25761
-2.94617
1.79811
-0.246325
-3.47035
1.86537
-0.150542
-3.74536
1.92079
-0.0452966
-3.87467
1.96849
0.0131785
-3.91763
2.00619
0.0265973
-4.00635
2.02624
0.0239649
-4.20388
2.02154
0.0355386
-4.56523
1.99157
0.0674465
-5.14431
1.94925
0.0696041
-6.02537
1.90986
0.0384552
-7.46183
1.87497
0.0225078
-8.79644
1.83941
0.0237164
-9.137
1.79898
0.031477
-8.93706
1.75462
0.0348762
-8.48991
1.70989
0.0286363
-8.00116
1.66852
0.0134996
-7.40266
1.63455
-0.00595642
-6.57334
1.60983
-0.0304852
-5.75725
1.59789
-0.0664452
-5.2078
1.60084
-0.100645
-4.70403
1.62198
-0.123448
-3.7154
1.64542
-0.0969458
-2.98711
1.6661
-0.0470847
-2.82972
1.68641
-0.00429238
-2.80378
1.70486
0.024928
-2.73363
1.7178
0.0387061
-2.70658
1.72257
0.0399564
-2.66418
1.71867
0.0340475
-2.56778
1.70782
0.0251917
-2.4812
1.69294
0.0168924
-2.55333
1.67675
0.012694
-2.58285
1.65992
0.0110162
-2.57492
1.64189
0.0113715
-2.48598
1.62397
0.00819627
-1.89883
1.60079
0.00786484
-1.11774
1.56929
-0.000321411
-0.443992
1.54667
-0.0496723
0.26505
1.5459
-0.125777
1.2047
1.55512
-0.126467
2.28007
1.55557
-0.0376397
3.06141
1.55068
0.0588208
3.63185
1.55095
0.120835
4.35038
1.55897
0.148297
5.16879
1.57385
0.143808
6.04698
1.59124
0.115921
6.74917
1.60492
0.0835208
7.05909
1.61203
0.0576841
7.35535
1.61131
0.0434622
7.61518
1.60243
0.0339859
8.05559
1.58517
0.0313601
8.35454
1.56047
0.0251489
9.38273
0.0111136
8.93263
1.58362
0.0112953
-0.143662
1.58361
0.000749213
-0.51387
1.58474
-0.00272442
-0.763295
1.58632
-0.00641542
-1.25941
1.58887
-0.0128168
-1.95081
1.59573
-0.0308016
-2.08723
1.619
-0.120571
-2.5377
1.7248
-0.363923
-2.74109
1.81568
-0.317415
-2.86042
1.88728
-0.154675
-4.05839
1.94867
-0.000567004
-6.5991
1.99739
0.0806831
-9.28458
2.0154
0.0999686
-11.5519
1.99009
0.0930424
-12.9853
1.92602
0.0955456
-13.4894
1.8388
0.119005
-13.319
1.74731
0.109246
-12.9943
1.67268
0.0598239
-12.9993
1.61706
0.0283517
-12.8221
1.57426
0.0186938
-11.8413
1.53628
0.0241669
-10.6278
1.49795
0.0310375
-9.43359
1.45719
0.0307856
-8.33042
1.41677
0.0189744
-7.35302
1.38263
-0.00413176
-6.2834
1.35589
-0.0325689
-5.04276
1.3381
-0.0728738
-3.97167
1.33303
-0.110334
-2.84302
1.35492
-0.14311
-1.42389
1.36909
-0.102393
-0.396315
1.36425
-0.0344133
-0.152339
1.358
0.0142054
-0.141217
1.35716
0.0430709
-0.163127
1.36077
0.0552626
-0.274609
1.36438
0.0569197
-0.409087
1.36382
0.0542528
-0.488458
1.35875
0.0510554
-0.499152
1.35231
0.0483261
-0.612403
1.3483
0.046729
-0.699613
1.34871
0.0426913
-0.806779
1.34583
0.0438767
-0.94525
1.34491
0.0413962
-0.316253
1.33286
0.0364373
0.616675
1.30241
0.0276975
1.40312
1.29389
-0.027185
2.36202
1.35166
-0.133053
4.23536
1.44176
-0.16628
6.36579
1.50751
-0.0775083
7.61723
1.53872
0.0304922
7.90721
1.55321
0.0961793
8.01451
1.56644
0.118996
8.19804
1.58404
0.108914
8.58281
1.6017
0.0814131
8.96666
1.6088
0.0582671
8.99346
1.59796
0.0487296
8.96354
1.56685
0.0546064
8.88549
1.51874
0.0668296
9.17579
1.45927
0.0831719
9.5511
1.39348
0.0946336
10.9964
0.0483018
10.6546
1.59456
0.0050183
-0.023928
1.59162
-0.0038948
-0.308423
1.59249
-0.0068659
-0.264236
1.59207
-0.0104289
-0.414364
1.58915
-0.0141348
-0.71913
1.5886
-0.027104
-0.436123
1.6175
-0.134444
-0.332012
1.77663
-0.370211
2.30406
1.88622
-0.312418
5.43708
1.94118
-0.183594
6.78018
1.97121
-0.0786548
6.50773
1.99925
-0.021778
5.24606
2.02741
-0.00195559
3.84771
2.0496
0.00191938
2.57675
2.0698
0.0124802
1.29532
2.04409
0.0398112
-0.0914921
1.97129
0.0811158
-1.66076
1.94192
0.104078
-4.0492
1.92267
0.103333
-6.30265
1.88858
0.0967466
-7.52102
1.83375
0.0916372
-7.83176
1.75921
0.0882155
-7.4297
1.67077
0.0829163
-6.59108
1.57721
0.0695228
-5.65533
1.49338
0.0379979
-4.52292
1.42545
-0.0175461
-2.9871
1.37253
-0.07356
-1.57227
1.33574
-0.121026
-0.122689
1.31464
-0.129321
1.67675
1.2856
-0.0810696
2.92147
1.24595
-0.0142893
3.18762
1.20837
0.02676
3.09703
1.18237
0.0428303
2.91645
1.16687
0.0457305
2.68201
1.15706
0.0431352
2.44166
1.14894
0.0395843
2.25538
1.14146
0.0375278
2.17678
1.13563
0.0371868
2.10368
1.13252
0.0381677
2.1288
1.13168
0.0365046
2.18122
1.12591
0.037978
1.95187
1.11486
0.0421628
2.65888
1.09999
0.0434449
3.71063
1.11381
0.0219198
4.74045
1.18465
-0.0625661
6.58738
1.26915
-0.187875
9.09674
1.32135
-0.216513
10.7567
1.3395
-0.109635
10.9686
1.33361
0.0101122
10.3749
1.32328
0.0701616
9.80975
1.31965
0.0819963
9.53676
1.31838
0.0693879
9.66851
1.31095
0.0498479
9.91788
1.29116
0.0402189
9.74337
1.26179
0.0424888
9.4724
1.23033
0.0541412
9.16936
1.20446
0.0684174
9.51301
1.18866
0.0830557
10.1132
1.18329
0.0940025
11.9611
0.0464492
11.9864
1.60598
0.174915
1.60385
-0.330216
1.60547
-0.212128
1.60359
-0.205731
1.59548
-0.328246
1.58322
0.158661
1.67921
1.45475
1.84634
12.965
1.85157
22.9969
1.7757
26.8347
1.69804
26.9005
1.62982
25.4105
1.55985
23.2506
1.4827
20.7263
1.41006
17.9135
1.36463
14.8864
1.35369
11.3377
1.36766
7.2955
1.39299
4.15626
1.42245
2.48719
1.44723
1.56246
1.46227
1.13477
1.46539
1.10182
1.45093
1.2228
1.41744
1.76263
1.35624
2.85345
1.25343
3.63379
1.11856
4.57349
0.999308
6.37877
0.92217
7.98462
0.886766
8.2076
0.882193
7.68251
0.893862
7.03271
0.910859
6.3957
0.92738
5.81047
0.94148
5.31494
0.954432
4.9666
0.969101
4.70021
0.989138
4.62933
1.01411
4.69145
1.04142
4.29893
1.07889
4.96062
1.12937
6.17165
1.18124
7.6136
1.17614
10.0408
1.04404
13.3754
0.837417
15.4751
0.68416
14.2339
0.630655
11.1301
0.641954
8.99172
0.670699
8.12618
0.694835
8.32391
0.712609
9.04409
0.729369
9.18397
0.750778
9.09146
0.78302
8.79093
0.830695
9.43229
0.896947
10.4124
0.980638
12.8531
13.1692
1.61191
-0.00780317
1.60936
0.00501389
1.61338
0.000971626
1.61501
-0.00467954
1.62192
-0.00705728
1.63875
-0.00407002
1.66437
-0.00421433
1.69764
-0.00557421
1.72969
0.000107654
1.79938
0.0552872
1.89312
0.197033
1.88104
0.245403
1.76215
0.207156
1.61367
0.132612
1.49349
0.0569174
1.42065
-0.00335163
1.3876
-0.0368962
1.37975
-0.0525895
1.38671
-0.0588474
1.40008
-0.058615
1.41422
-0.0546746
1.42634
-0.0500279
1.43889
-0.0491052
1.457
-0.0533509
1.48185
-0.0555383
1.50377
-0.0461187
1.51425
-0.0292859
1.51215
-0.0141551
1.49476
-0.00133401
1.45814
0.0140591
1.40261
0.0324221
1.33282
0.0502048
1.2567
0.0601239
1.18794
0.0541463
1.14116
0.029847
1.12239
0.000450128
1.1257
-0.0208844
1.14153
-0.0297041
1.16417
-0.0306304
1.19071
-0.028966
1.22151
-0.0293034
1.25755
-0.0324877
1.29914
-0.0374703
1.3456
-0.0447536
1.39733
-0.0543413
1.45317
-0.062905
1.50643
-0.0629969
1.5467
-0.0479336
1.56663
-0.0198618
1.55781
0.0213159
1.50525
0.076239
1.40255
0.119705
1.27568
0.12073
1.17014
0.0771791
1.11632
0.0153984
1.11073
-0.0317767
1.13377
-0.0550052
1.16971
-0.062233
1.21393
-0.0656205
-0.0460736
1.59342
-0.0092637
1.5927
-0.00229808
1.59387
-0.00462206
1.59599
-0.0109657
1.60386
-0.014718
1.62075
-0.0121196
1.6477
-0.0162492
1.68536
-0.0244683
1.71953
-0.0145505
1.77573
0.043086
1.88905
0.194991
1.9851
0.256539
2.02119
0.216137
2.01016
0.129664
1.97658
0.0406557
1.93741
-0.0268126
1.90342
-0.0658816
1.8804
-0.0881667
1.86771
-0.0981949
1.85962
-0.0964936
1.85173
-0.0879399
1.84109
-0.0778656
1.82712
-0.071964
1.81181
-0.0729474
1.8048
-0.0786275
1.81169
-0.07585
1.82961
-0.0607703
1.85318
-0.0408389
1.87381
-0.0202574
1.88617
0.00039303
1.89128
0.0190255
1.89297
0.0357167
1.89522
0.0443321
1.89886
0.0376244
1.89809
0.0165908
1.88566
-0.00705223
1.86453
-0.024323
1.84215
-0.0344449
1.82163
-0.0388187
1.80271
-0.0404841
1.78329
-0.0421323
1.76175
-0.0446841
1.73964
-0.0502492
1.72074
-0.0620042
1.70998
-0.0801828
1.71006
-0.098343
1.71826
-0.102939
1.72826
-0.082941
1.7348
-0.0418962
1.73702
0.0139468
1.7356
0.0839613
1.72559
0.137833
1.70335
0.140883
1.67013
0.0941106
1.63055
0.0270574
1.59455
-0.0309048
1.57141
-0.0686378
1.56165
-0.0874815
1.5649
-0.0999593
-0.0799131
1.58646
-0.00124315
1.58623
-0.000820834
1.58767
-0.00367163
1.59153
-0.0102768
1.60221
-0.017247
1.61795
-0.0210792
1.64279
-0.0318076
1.68433
-0.0532157
1.72194
-0.0432271
1.76928
0.0121795
1.86117
0.142661
1.95584
0.207563
2.01841
0.181569
2.04223
0.110413
2.03553
0.0351732
2.01304
-0.0208816
1.98545
-0.0587335
1.96212
-0.0855291
1.94884
-0.101666
1.94255
-0.107052
1.94443
-0.104657
1.94754
-0.0944185
1.94308
-0.0823505
1.92573
-0.0765021
1.90793
-0.0730573
1.89908
-0.0649842
1.89413
-0.0514715
1.89655
-0.0403731
1.90096
-0.0354051
1.89803
-0.0226159
1.88769
0.00967957
1.87537
0.0432392
1.86484
0.0629972
1.85289
0.0597922
1.83538
0.0377138
1.81397
0.00849348
1.79421
-0.0185405
1.78018
-0.0375463
1.77155
-0.0483594
1.76727
-0.0542596
1.76559
-0.0571623
1.76368
-0.057444
1.76022
-0.0592584
1.75581
-0.0697629
1.75388
-0.0913694
1.75734
-0.115536
1.76351
-0.123076
1.76936
-0.101226
1.77796
-0.0581666
1.7958
-0.000862364
1.82467
0.0696846
1.85603
0.125177
1.87835
0.131996
1.88593
0.0906744
1.87839
0.0310507
1.85959
-0.0206487
1.83726
-0.0583169
1.8162
-0.0803266
1.80124
-0.0981032
-0.0857857
1.59072
-0.00140016
1.5922
-0.00254933
1.59367
-0.00661346
1.59657
-0.0112992
1.60617
-0.0188037
1.61834
-0.0300718
1.64535
-0.0533006
1.69237
-0.0947767
1.736
-0.0822468
1.77579
-0.0181774
1.84419
0.0913805
1.91926
0.155697
1.97656
0.143285
2.00668
0.0900855
2.0078
0.0353343
1.99132
-0.000877525
1.98074
-0.0399371
1.97473
-0.0713819
1.96502
-0.0862208
1.94634
-0.0855127
1.92086
-0.0767429
1.89303
-0.0624641
1.86943
-0.0498055
1.85179
-0.0476792
1.84007
-0.0509379
1.83768
-0.0518333
1.84894
-0.0527974
1.86985
-0.0550215
1.88876
-0.0562794
1.89972
-0.0399236
1.9046
-0.00536543
1.90834
0.0320892
1.91242
0.0545592
1.91565
0.0548611
1.9154
0.0370113
1.9102
0.0119777
1.90192
-0.0103371
1.89246
-0.0272103
1.88117
-0.0372566
1.86862
-0.042824
1.8551
-0.0447483
1.83962
-0.0440555
1.82176
-0.0454759
1.80387
-0.0571315
1.7912
-0.0842064
1.78962
-0.118281
1.79113
-0.127997
1.78576
-0.0953117
1.77436
-0.0402014
1.76796
0.0199473
1.77972
0.0784442
1.80787
0.118699
1.83652
0.120437
1.8515
0.0857937
1.85022
0.0371602
1.8372
-0.00430071
1.81875
-0.0363236
1.79902
-0.0556174
1.78357
-0.0734153
-0.0664398
1.58979
-0.00041566
1.58996
-0.00244466
1.59102
-0.00651871
1.59412
-0.0105449
1.60276
-0.0193167
1.61471
-0.0342659
1.64321
-0.0727005
1.70043
-0.14344
1.75659
-0.13109
1.8048
-0.0586225
1.86143
0.0439088
1.92132
0.106762
1.9681
0.105206
1.99499
0.0685161
2.0004
0.0321699
1.9902
0.00879282
1.97158
-0.0220609
1.95184
-0.049166
1.93266
-0.058563
1.91077
-0.0534973
1.8879
-0.0407871
1.87059
-0.0275608
1.86499
-0.0225892
1.86944
-0.0307533
1.88063
-0.043873
1.89909
-0.0558252
1.92611
-0.0691252
1.95742
-0.078879
1.98448
-0.0821934
2.00099
-0.058702
2.00609
-0.0165248
2.00365
0.0250247
1.99755
0.0511166
1.98786
0.0562451
1.97252
0.0438786
1.94993
0.0240406
1.92085
0.0072115
1.8884
-0.00412096
1.85452
-0.0108694
1.82137
-0.016125
1.79046
-0.0203023
1.76151
-0.0227463
1.73406
-0.0276197
1.71139
-0.044391
1.70074
-0.0826362
1.70769
-0.130508
1.72129
-0.142579
1.72254
-0.094786
1.71339
-0.0276135
1.702
0.0408225
1.69898
0.0981852
1.70882
0.128655
1.72407
0.12236
1.73222
0.0899122
1.72835
0.0508259
1.71573
0.0208391
1.69967
-0.000999683
1.68336
-0.0125626
1.6708
-0.026851
-0.0254794
1.58957
0.00146257
1.58925
-0.00260905
1.59
-0.00446341
1.59272
-0.00914264
1.60051
-0.0208106
1.61262
-0.039953
1.64498
-0.0959234
1.7137
-0.202397
1.78201
-0.188641
1.8398
-0.108169
1.8949
-0.00706349
1.94827
0.0533675
1.99085
0.0600828
2.0144
0.0408734
2.01511
0.0262559
1.99712
0.0202411
1.97129
-0.00234577
1.945
-0.0217918
1.91864
-0.022412
1.89173
-0.0119727
1.86775
0.000519439
1.85012
0.005374
1.83968
-0.00195736
1.83457
-0.0208959
1.83435
-0.043029
1.84036
-0.0636258
1.85578
-0.0878683
1.87986
-0.105982
1.90815
-0.114868
1.9345
-0.0883033
1.95576
-0.0414142
1.97026
0.00394835
1.97818
0.0342369
1.9803
0.0442827
1.97595
0.0375294
1.96502
0.0233583
1.94868
0.0119505
1.92925
0.00614359
1.90698
0.00413061
1.88272
0.0028715
1.85735
0.000927428
1.83049
-0.000418919
1.8007
-0.00402035
1.76952
-0.0202356
1.74547
-0.064764
1.74476
-0.130198
1.74596
-0.138831
1.73216
-0.0701938
1.70461
0.0173658
1.67315
0.0896011
1.65142
0.134944
1.64436
0.147856
1.646
0.130129
1.64548
0.0974091
1.63768
0.0643433
1.62446
0.0401887
1.61077
0.021188
1.60056
0.00990449
1.59568
-0.0046024
-0.00534682
1.59014
0.0037996
1.59176
-0.00500239
1.59312
-0.00397594
1.59537
-0.00663057
1.60007
-0.0159013
1.60667
-0.0336335
1.63855
-0.109584
1.72243
-0.274141
1.80557
-0.262469
1.87213
-0.166889
1.92605
-0.0582414
1.97209
0.00305036
2.00765
0.0175021
2.02468
0.0158948
2.01659
0.0264146
1.98582
0.043922
1.94558
0.0313412
1.9087
0.0139322
1.87459
0.0153891
1.8373
0.0249515
1.79509
0.0356004
1.74961
0.0384333
1.70473
0.0297626
1.66421
0.00945283
1.63164
-0.015612
1.61
-0.0422895
1.60308
-0.0769333
1.61119
-0.103869
1.63177
-0.12105
1.65464
-0.0925151
1.67642
-0.0430292
1.69657
-0.00156156
1.71325
0.0252077
1.72409
0.0368644
1.72655
0.0356357
1.72026
0.0279491
1.70742
0.0210881
1.69188
0.0180847
1.67481
0.0174107
1.65709
0.0168054
1.63921
0.0143567
1.61959
0.0115617
1.59489
0.0121157
1.56376
0.00361807
1.54304
-0.0420295
1.54791
-0.115319
1.55968
-0.121651
1.55837
-0.0418168
1.55173
0.0511811
1.55056
0.114067
1.55787
0.144611
1.57233
0.143831
1.58969
0.118755
1.60398
0.086741
1.61159
0.0599269
1.6115
0.0446804
1.6036
0.0355097
1.58774
0.0330874
1.5638
0.0271142
0.0134089
1.58281
0.0161748
1.58379
-0.00121238
1.58333
0.00141998
1.58531
0.000662115
1.58947
-0.00605218
1.59333
-0.0201778
1.62353
-0.114679
1.72712
-0.345705
1.82093
-0.313969
1.89338
-0.156256
1.95408
-0.00103356
1.99987
0.0821535
2.01337
0.101536
1.98292
0.0939817
1.91458
0.0935926
1.82748
0.101949
1.74112
0.0734639
1.67036
0.0318362
1.61607
0.01721
1.57257
0.0165342
1.53357
0.025115
1.49437
0.0317944
1.45289
0.0292643
1.41281
0.0129529
1.3795
-0.0145982
1.35411
-0.0457294
1.33941
-0.0853679
1.33741
-0.115059
1.35468
-0.140116
1.3654
-0.101185
1.36178
-0.0348987
1.35776
0.0122403
1.3595
0.0403587
1.36595
0.0533249
1.37102
0.0553085
1.37025
0.0520837
1.3641
0.0492657
1.35853
0.0499451
1.35551
0.0512826
1.35694
0.0490307
1.35843
0.0450839
1.35292
0.0418827
1.33315
0.0361445
1.30164
0.0286541
1.29307
-0.0173427
1.34666
-0.119795
1.43245
-0.162848
1.49782
-0.0821471
1.5315
0.0238556
1.54817
0.0906027
1.56275
0.116166
1.58099
0.109087
1.5994
0.083545
1.60833
0.0601422
1.59987
0.049005
1.57133
0.053407
1.52523
0.0657209
1.4668
0.0829394
1.40082
0.0948471
0.0502574
1.59282
0.0110568
1.59304
-0.00274325
1.59119
-0.00200637
1.59082
-0.000710195
1.59084
-0.00271087
1.58442
-0.0134676
1.60489
-0.107038
1.76749
-0.353959
1.87852
-0.306884
1.93716
-0.185209
1.96853
-0.0808881
1.99743
-0.0216575
2.02659
0.000382194
2.05089
0.00479769
2.07241
0.0152026
2.03555
0.0426902
1.96993
0.0754113
1.95023
0.0964779
1.92787
0.103482
1.88701
0.100136
1.82674
0.0925815
1.74719
0.0852216
1.65386
0.077069
1.55721
0.0609726
1.47251
0.0294225
1.40651
-0.0212917
1.35848
-0.0765209
1.32973
-0.127325
1.31873
-0.134519
1.29309
-0.0890495
1.25603
-0.0209817
1.21851
0.0234603
1.19009
0.0407978
1.17202
0.0443267
1.16017
0.0418409
1.15048
0.0379721
1.14143
0.0357071
1.13488
0.0361973
1.13084
0.0383662
1.12927
0.0378719
1.12684
0.0372892
1.11615
0.0420726
1.09911
0.0445373
1.10763
0.0256562
1.1744
-0.0508559
1.26041
-0.173361
1.31546
-0.211644
1.33589
-0.116662
1.33262
0.0018157
1.32362
0.0654275
1.32072
0.0799387
1.32013
0.0693986
1.31371
0.0510172
1.29545
0.04112
1.26716
0.0423805
1.23596
0.0532071
1.20935
0.0675997
1.19216
0.0829903
1.18454
0.094332
0.0481534
1.60135
1.60598
1.60445
1.60278
1.59942
1.58022
1.66042
1.84076
1.856
1.78269
1.70385
1.63516
1.56608
1.49068
1.41978
1.37247
1.35223
1.35896
1.38223
1.41117
1.43712
1.45362
1.458
1.44747
1.41939
1.36313
1.26914
1.14001
1.01928
0.933938
0.891486
0.882773
0.892228
0.908062
0.92394
0.937566
0.949832
0.963953
0.982917
1.00657
1.035
1.07101
1.11894
1.1714
1.17388
1.05323
0.851343
0.693311
0.633864
0.642959
0.671681
0.696329
0.714303
0.731106
0.752115
0.783605
0.830021
0.894702
0.975934
)
;

boundaryField
{
    wall
    {
        type            calculated;
        value           nonuniform List<scalar> 
1200
(
0.726959
0.249615
0.243167
0.0977589
0.0711141
0.0926088
0.12877
0.144066
0.0271987
-0.184298
-0.0106262
-0.231084
-0.127272
-0.0359185
0.0644613
0.161006
0.25161
0.513203
0.315943
0.328405
-0.377581
-0.443976
-0.43991
-0.135076
0.088609
0.349647
0.42205
0.761169
0.26759
0.203647
-1.20905
-0.926897
-0.73938
-0.10384
0.220291
0.669058
0.753887
1.25759
0.418712
0.197198
-2.43792
-1.71511
-1.00735
-0.011157
0.414963
1.10087
1.24861
1.94711
0.723413
0.322233
-2.78142
-2.02966
-1.14357
-0.103041
0.307043
1.19835
1.42874
2.07842
0.4331
-0.173456
-2.46823
-1.7272
-0.720309
0.192253
0.52529
1.58622
2.04567
2.54375
0.316904
-1.68524
-1.93303
-1.26903
-0.161673
0.652183
1.04834
2.32449
2.9366
2.74163
-2.45685
-13.5023
-2.35154
-1.70319
-0.360407
0.535446
1.09948
2.7202
3.45945
2.8406
-5.55168
-23.3146
-4.59811
-3.07271
-1.14035
-0.0076036
0.693373
2.73915
3.7318
3.9909
-6.80623
-26.9424
-10.7177
-5.68321
-2.15942
-0.503409
0.30921
2.60887
3.86738
6.49299
-6.45968
-26.9015
-16.7981
-8.56106
-3.15935
-0.738056
0.250859
2.60017
3.91813
9.1684
-5.17166
-25.3641
-19.3218
-10.3076
-3.9335
-0.898018
0.277157
2.64187
4.00963
11.4604
-3.77395
-23.1825
-18.8547
-10.7105
-4.2302
-0.881732
0.412283
2.78385
4.2081
12.9415
-2.50781
-20.6472
-16.9357
-10.1977
-4.0257
-0.591332
0.747242
3.0763
4.56904
13.4936
-1.23255
-17.8284
-14.4955
-9.12689
-3.4449
-0.0275976
1.34571
3.55827
5.14448
13.3547
0.19634
-14.8012
-11.9912
-7.78617
-2.56447
0.813123
2.20689
4.24965
6.0231
13.0461
1.76167
-11.2456
-9.67879
-6.34191
-1.48854
1.92445
3.45195
5.37458
7.46036
13.0526
4.03427
-7.2054
-7.92166
-5.14415
-0.590647
2.87279
4.63723
6.48044
8.79308
12.8718
6.2469
-4.07825
-6.96291
-4.50804
-0.218726
3.2115
5.13419
6.8946
9.13527
11.8891
7.47706
-2.41991
-6.13688
-3.95668
0.137365
3.48336
5.46547
7.09934
8.94099
10.6731
7.81914
-1.49555
-5.2847
-3.37213
0.583007
3.83393
5.82773
7.25139
8.49881
9.47575
7.44707
-1.06152
-4.92794
-3.11257
0.790459
4.0813
6.1715
7.34491
8.01194
8.36908
6.62742
-1.022
-5.78199
-3.76701
0.159024
3.56472
5.94138
7.03663
7.41245
7.38798
5.69835
-1.13881
-7.35553
-5.05284
-1.25296
2.33483
5.06334
6.2494
6.57985
6.31567
4.56456
-1.69113
-7.66019
-5.42755
-1.82571
1.75275
4.5497
5.58633
5.7602
5.07154
3.03993
-2.80978
-7.00215
-5.04194
-1.45833
2.06006
4.70492
5.32697
5.20686
3.99589
1.62583
-3.60451
-5.6534
-4.17139
-0.512116
2.88179
5.17355
5.21817
4.69725
2.85778
0.170163
-4.55967
-4.65044
-3.80911
-0.0905137
3.12262
4.97735
4.52896
3.69922
1.42167
-1.66941
-6.38884
-4.41838
-4.06949
-0.186549
3.00499
4.62438
3.9219
2.9656
0.387673
-2.9138
-7.98856
-4.82756
-4.61947
-0.638508
2.70692
4.34073
3.64981
2.80806
0.144429
-3.16809
-8.18648
-5.44835
-5.1807
-1.25106
2.23452
3.96926
3.41761
2.78685
0.128954
-3.07203
-7.65117
-5.98167
-5.62059
-1.81084
1.77
3.56686
3.14704
2.72257
0.1458
-2.89021
-7.00156
-6.34056
-5.96082
-2.2134
1.42746
3.25434
2.93886
2.70043
0.25444
-2.65697
-6.36697
-6.17122
-6.06495
-2.36634
1.22209
3.00128
2.7376
2.66117
0.388514
-2.41809
-5.78386
-6.03607
-6.14026
-2.47776
1.06462
2.7638
2.51992
2.56684
0.46884
-2.2326
-5.28947
-5.74012
-5.98199
-2.3132
1.15134
2.71837
2.42049
2.48226
0.478357
-2.15578
-4.94202
-5.39744
-5.634
-1.92173
1.47636
2.91018
2.55058
2.55674
0.587426
-2.08669
-4.67769
-4.8665
-5.1353
-1.48977
1.7659
3.05942
2.65561
2.58695
0.669594
-2.11712
-4.61119
-4.37598
-4.66761
-1.15646
1.94539
3.11203
2.70743
2.57917
0.77468
-2.17418
-4.67991
-4.2033
-4.39762
-1.02418
1.96572