/*--------------------------------*- C++ -*----------------------------------*\
  =========                 |
  \\      /  F ield         | OpenFOAM: The Open Source CFD Toolbox
   \\    /   O peration     | Website:  https://openfoam.org
    \\  /    A nd           | Version:  8
     \\/     M anipulation  |
\*---------------------------------------------------------------------------*/
FoamFile
{
    version     2.0;
    format      ascii;
    class       volScalarField;
    location    "900";
    object      p;
}
// * * * * * * * * * * * * * * * * * * * * * * * * * * * * * * * * * * * * * //

dimensions      [1 -1 -2 0 0 0 0];

internalField   nonuniform List<scalar> 
8400
(
11663.4
11682.2
11698
11713.3
11728.4
11743.4
11758.6
11774.1
11789.9
11806.2
11823
11840.5
11858.8
11878.1
11898.5
11920.2
11943.4
11968.3
11995.3
12024.7
12056.8
12092.1
12131.2
12174.5
12223
12277.3
12338.2
12406.5
12483.6
12570.8
12669.8
12782.4
12910.7
13057.2
13224.7
13416.6
13636.7
13889.4
14180.1
14514.8
14900.7
15346.4
15862.4
16462.8
17163.9
17979.9
18925.8
20062.6
21556.7
23502.6
11555.1
11568.9
11582.5
11596.6
11610.8
11625
11639.4
11654
11668.9
11684.2
11700
11716.4
11733.6
11751.5
11770.5
11790.7
11812.3
11835.4
11860.5
11887.7
11917.4
11950.1
11986.2
12026.2
12070.8
12120.6
12176.6
12239.7
12311.1
12391.9
12483.7
12588.2
12707.4
12843.5
12999.3
13177.7
13382.3
13617.2
13887
14197.1
14553.6
14963.8
15436.1
15980.9
16609.5
17330.3
18150.5
19100.9
20264.8
21693.1
11488.8
11507
11523
11538.3
11553.4
11568.7
11584.1
11599.9
11616.2
11632.9
11650.1
11668.1
11686.9
11706.7
11727.5
11749.7
11773.3
11798.7
11826.1
11855.8
11888.2
11923.7
11962.8
12005.9
12053.6
12106.7
12166
12232.5
12307.4
12391.8
12487.4
12595.7
12718.9
12859
13018.8
13201.4
13410.1
13648.9
13922.6
14236.3
14596
15008.6
15481.8
16024.8
16646.6
17354.4
18153.8
19060
20103.3
21279.1
11354
11358.3
11368.2
11380.2
11392.9
11405.9
11419.2
11432.7
11446.5
11460.6
11475.1
11490.2
11505.8
11522.2
11539.3
11557.5
11576.8
11597.5
11619.7
11643.7
11669.8
11698.5
11730
11765.1
11804.1
11847.6
11896.5
11951.5
12013.7
12084
12163.9
12254.8
12358.5
12477
12612.5
12767.8
12945.9
13150.3
13384.9
13654.4
13963.8
14319
14726.5
15193.5
15727.3
16334.1
17019.2
17792
18666.9
19640.6
11308.9
11330.5
11347.5
11362.5
11377.2
11392
11407.1
11422.4
11438.2
11454.4
11471.1
11488.3
11506.3
11525.1
11544.8
11565.5
11587.5
11611
11636.1
11663
11692.1
11723.5
11757.8
11795.4
11836.8
11882.6
11933.4
11990
12053.4
12124.5
12204.5
12294.7
12396.8
12512.5
12643.8
12793
12962.8
13156.3
13376.6
13627.7
13913.6
14238.7
14607.9
15026
15497.7
16026.1
16612.7
17259.5
17972.8
18751.3
11150.6
11150.9
11158.9
11169.7
11181.5
11193.8
11206.2
11219
11232
11245.2
11258.8
11272.9
11287.4
11302.4
11318.1
11334.6
11352
11370.5
11390.3
11411.5
11434.5
11459.5
11486.7
11516.6
11549.6
11586.2
11627
11672.5
11723.6
11781.2
11846.3
11920
12003.8
12099.1
12207.7
12331.7
12473.4
12635.4
12820.7
13032.5
13274.4
13550.3
13864
14219.7
14620.8
15069.8
15566.7
16110.7
16703.7
17346.4
11121.1
11144.9
11162.1
11176.6
11190.5
11204.4
11218.4
11232.5
11247
11261.7
11276.8
11292.3
11308.2
11324.7
11341.7
11359.4
11377.9
11397.3
11417.7
11439.3
11462.3
11487
11513.5
11542.3
11573.5
11607.7
11645.2
11686.6
11732.6
11783.7
11840.7
11904.7
11976.6
12057.7
12149.3
12253.1
12370.7
12504.2
12655.9
12828.3
13023.9
13245.7
13496.6
13779.5
14097
14450.6
14840.1
15264.1
15724.3
16223
10950.9
10949.3
10956.4
10966.7
10978
10989.8
11001.8
11014
11026.3
11039
11051.9
11065
11078.5
11092.5
11106.9
11121.8
11137.4
11153.7
11170.8
11188.8
11208
11228.4
11250.3
11273.9
11299.4
11327.2
11357.6
11391
11427.9
11468.8
11514.3
11565.1
11622.1
11686.2
11758.5
11840.1
11932.4
12037
12155.5
12289.9
12442.2
12614.4
12808.8
13027.3
13271.9
13543.5
13841.8
14165.6
14516.3
14897.3
10928.1
10952.4
10969.1
10982.7
10995.6
11008.3
11021
11033.7
11046.6
11059.6
11072.7
11085.9
11099.3
11112.9
11126.7
11140.8
11155.2
11169.9
11185.1
11200.8
11217
11234
11251.7
11270.4
11290.2
11311.3
11333.8
11358.1
11384.4
11413.1
11444.5
11479
11517.3
11559.9
11607.4
11660.7
11720.7
11788.2
11864.6
11951
12048.8
12159.5
12284.6
12425.6
12584
12760.7
12955.9
13169.2
13402.6
13659.9
10754.6
10752.3
10758.9
10768.6
10779.4
10790.6
10802
10813.5
10825.1
10836.9
10848.8
10860.8
10872.9
10885.2
10897.7
10910.4
10923.3
10936.4
10949.9
10963.6
10977.7
10992.1
11007.1
11022.5
11038.5
11055.2
11072.6
11090.8
11110
11130.4
11151.9
11174.9
11199.6
11226.1
11254.8
11286
11320
11357.3
11398.4
11443.9
11494.4
11550.7
11613.6
11684.1
11763.2
11851.9
11950.8
12060.8
12184.3
12326
10732
10755.6
10771.5
10784.3
10796.3
10807.9
10819.6
10831.1
10842.7
10854.2
10865.6
10877
10888.3
10899.4
10910.5
10921.4
10932.2
10942.8
10953.3
10963.5
10973.5
10983.2
10992.6
11001.7
11010.5
11018.8
11026.7
11034
11040.8
11047
11052.4
11057.1
11060.9
11063.7
11065.5
11066.2
11065.7
11063.8
11060.6
11056
11050.2
11043.1
11035.1
11026.7
11018.6
11011.8
11007.7
11008.3
11016.9
11039
10560.6
10558.1
10564.2
10573.3
10583.3
10593.7
10604.1
10614.5
10624.9
10635.3
10645.6
10655.8
10665.9
10675.9
10685.6
10695.2
10704.5
10713.5
10722.1
10730.4
10738.1
10745.3
10751.8
10757.6
10762.4
10766.2
10768.8
10770
10769.5
10767
10762.4
10755.1
10744.9
10731.2
10713.6
10691.5
10664.1
10630.9
10591
10543.8
10488.4
10424.1
10350.5
10267.2
10174.4
10073
9964.63
9852.26
9740.45
9636.43
10533.5
10555.7
10570.7
10582.9
10594.3
10605.3
10616.3
10627.2
10637.9
10648.4
10658.8
10668.9
10678.7
10688.2
10697.3
10705.9
10713.9
10721.4
10728.1
10733.9
10738.8
10742.6
10745
10745.9
10745.1
10742.3
10737.1
10729.3
10718.3
10703.7
10685.1
10661.6
10632.8
10597.6
10555.2
10504.6
10444.7
10374.1
10291.5
10195.4
10084.4
9957.06
9812.09
9648.61
9466.32
9265.8
9049.09
8820.31
8586.02
8355.4
10369
10367
10372.7
10381.1
10390.2
10399.5
10408.8
10417.9
10426.9
10435.7
10444.1
10452.2
10459.9
10467.1
10473.8
10479.8
10485
10489.4
10492.8
10495.1
10496
10495.3
10492.9
10488.4
10481.6
10472
10459.2
10442.8
10422.2
10396.6
10365.5
10327.9
10282.8
10229.1
10165.5
10090.5
10002.5
9899.6
9779.71
9640.57
9479.75
9294.7
9082.95
8842.27
8571.02
8268.47
7935.54
7576.07
7197.93
6815.29
10331.6
10351.5
10365.5
10377.2
10388.1
10398.8
10409.4
10419.7
10429.9
10439.8
10449.4
10458.6
10467.4
10475.6
10483.2
10490.1
10496.1
10501.1
10505
10507.4
10508.3
10507.4
10504.3
10498.7
10490.2
10478.3
10462.6
10442.3
10416.7
10385.1
10346.4
10299.4
10243
10175.6
10095.4
10000.6
9888.8
9757.52
9603.86
9424.65
9216.39
8975.36
8697.75
8380.02
8019.36
7613.94
7163.65
6672.25
6150.92
5620.11
10180.6
10180.4
10186.3
10194.4
10203
10211.6
10220
10228.2
10236.1
10243.5
10250.4
10256.8
10262.5
10267.4
10271.4
10274.4
10276.2
10276.7
10275.6
10272.6
10267.5
10260.1
10249.8
10236.3
10219.1
10197.6
10171.1
10138.9
10100.2
10053.8
9998.61
9933.29
9856.27
9765.73
9659.61
9535.52
9390.73
9222.12
9026.16
8798.86
8535.77
8231.98
7882.17
7481
7023.63
6505.69
5922.76
5272.68
4564.34
3828.73
10123.9
10141.1
10153.8
10164.9
10175.5
10185.8
10195.8
10205.6
10215.2
10224.3
10233
10241.2
10248.8
10255.8
10261.9
10267
10271
10273.7
10274.8
10274.2
10271.5
10266.5
10258.6
10247.4
10232.5
10213.2
10188.8
10158.5
10121.3
10076.1
10021.7
9956.52
9878.88
9786.75
9677.8
9549.32
9398.17
9220.68
9012.61
8769.05
8484.37
8151.99
7764.39
7313.29
6790.48
6187.52
5493.52
4696.76
3803.78
2865.18
9993.79
9998.14
10005.9
10014.7
10023.5
10032.2
10040.5
10048.4
10055.9
10062.9
10069.3
10074.9
10079.7
10083.6
10086.4
10087.9
10088
10086.4
10082.8
10077
10068.5
10057.1
10042.2
10023.2
9999.67
9970.73
9935.58
9893.24
9842.58
9782.3
9710.87
9626.51
9527.16
9410.44
9273.52
9113.16
8925.54
8706.19
8449.88
8150.5
7800.91
7392.7
6915.88
6358.94
5710.1
4957.97
4087.13
3072.3
1900.47
635.641
9907.28
9926.04
9938.12
9948.87
9958.98
9968.71
9978.09
9987.11
9995.72
10003.9
10011.5
10018.4
10024.6
10030
10034.3
10037.5
10039.3
10039.6
10038
10034.3
10028.1
10019
10006.6
9990.38
9969.67
9943.78
9911.87
9873.01
9826.06
9769.75
9702.57
9622.79
9528.38
9416.99
9285.86
9131.79
8951.04
8739.18
8491.03
8200.49
7860.39
7462.13
6995.07
6446.15
5801.32
5047.82
4166.26
3102.76
1771.36
197.338
9807.43
9817.06
9826.82
9836.57
9846.05
9855.2
9863.98
9872.35
9880.26
9887.63
9894.39
9900.44
9905.66
9909.92
9913.07
9914.93
9915.31
9913.95
9910.59
9904.91
9896.55
9885.07
9870
9850.75
9826.67
9797
9760.84
9717.16
9664.78
9602.29
9528.07
9440.24
9336.6
9214.56
9071.1
8902.68
8705.08
8473.33
8201.46
7882.31
7507.24
7065.55
6543.36
5922.33
5180.56
4295.35
3231.11
1883.76
43.9141
-2333.02
19427.4
11265.3
7232.33
5713.89
4879.45
4270.64
3846.99
3562.69
3362.51
3211.42
3091.71
2993.51
2910.28
2837.54
2772.22
2712.21
2655.96
2602.28
2550.23
2499.04
2448
2396.49
2343.87
2289.54
2232.81
2172.99
2109.29
2040.84
1966.62
1885.48
1796.08
1696.92
1586.24
1462.06
1321.89
1162.78
981.31
773.464
534.426
258.256
-62.1983
-435.55
-872.47
-1386.46
-1995
-2721.56
-3599.09
-4676.83
-6035.22
-7810.91
-6205.12
-1615.91
-114.189
452.078
886.37
1211.98
1436.37
1596.47
1715.32
1804.16
1870.22
1918.95
1954.27
1978.89
1994.75
2003.28
2005.56
2002.34
1994.18
1981.46
1964.39
1943.07
1917.47
1887.44
1852.75
1813
1767.71
1716.23
1657.77
1591.29
1515.57
1429.22
1330.53
1217.47
1087.8
938.827
767.28
569.246
340.134
74.5146
-234.285
-594.436
-1015.92
-1511.08
-2095.35
-2788.3
-3614.87
-4606.57
-5800.94
-7231.85
1026.76
3196.81
4379.94
4482.61
4325.97
4154.33
3968.03
3776.83
3598.46
3439.34
3298.55
3173.62
3062.14
2961.9
2870.9
2787.37
2709.83
2637.02
2567.85
2501.38
2436.76
2373.2
2309.95
2246.28
2181.44
2114.66
2045.14
1972.04
1894.41
1811.16
1721.05
1622.57
1513.97
1393.18
1257.9
1105.51
932.883
736.34
511.483
253.156
-44.7041
-389.35
-789.455
-1255.39
-1799.57
-2436.67
-3183.73
-4059.27
-5080.52
-6255.77
1277.82
1686.89
1878.37
1806.72
1704.5
1661.12
1649.51
1647.27
1651.53
1661.41
1674.03
1686.8
1698.19
1707.35
1713.78
1717.15
1717.32
1714.19
1707.73
1697.88
1684.59
1667.75
1647.22
1622.78
1594.11
1560.81
1522.4
1478.26
1427.69
1369.96
1304.13
1228.96
1143.05
1044.78
932.132
802.744
653.844
482.177
283.919
54.6131
-210.947
-518.858
-876.221
-1291.2
-1773.01
-2331.69
-2977.4
-3718.85
-4559.9
-5493.74
1719.26
1968.35
2284.98
2516.65
2656.55
2745.82
2798.15
2817.09
2810.72
2787.76
2754.02
2713.1
2667.48
2618.94
2568.66
2517.39
2465.59
2413.47
2361.13
2308.51
2255.48
2201.86
2147.36
2091.71
2034.5
1975.31
1913.54
1848.49
1779.37
1705.31
1625.29
1538.2
1442.74
1337.36
1220.25
1089.29
942.03
775.646
586.848
371.847
126.294
-154.773
-476.935
-846.336
-1269.49
-1752.88
-2302.14
-2920.59
-3606.88
-4352.23
1825.39
1911.02
2019.14
2081.18
2083.83
2055.72
2017.31
1975.04
1931.91
1890.65
1852.71
1818.3
1787.03
1758.38
1731.78
1706.66
1682.48
1658.76
1635.07
1611
1586.16
1560.18
1532.72
1503.35
1471.74
1437.49
1400.11
1359.11
1313.88
1263.69
1207.71
1145.02
1074.52
994.936
904.778
802.313
685.545
552.169
399.539
224.646
24.098
-205.874
-469.361
-770.653
-1113.97
-1503.04
-1940.3
-2425.83
-2955.58
-3520.04
1840.94
1885.33
1957.05
2029.27
2084.62
2125.53
2157.13
2180.13
2194.19
2200.03
2198.82
2191.58
2179.12
2162.17
2141.39
2117.34
2090.46
2061.14
2029.65
1996.2
1960.93
1923.91
1885.12
1844.46
1801.78
1756.89
1709.53
1659.38
1606.03
1548.94
1487.51
1421.02
1348.63
1269.34
1182
1085.27
977.59
857.198
722.076
569.963
398.355
204.541
-14.3256
-261.079
-538.298
-847.926
-1190.7
-1565.39
-1967.83
-2390.72
1801.87
1824.07
1861.86
1901.85
1930
1942.9
1943.05
1933.1
1915.06
1890.98
1862.83
1832.2
1800.2
1767.61
1734.94
1702.51
1670.47
1638.85
1607.61
1576.65
1545.84
1514.98
1483.87
1452.29
1419.98
1386.64
1351.95
1315.57
1277.1
1236.1
1192.05
1144.39
1092.46
1035.51
972.691
903.032
825.425
738.623
641.235
531.726
408.44
269.637
113.575
-61.3683
-256.492
-472.484
-709.027
-964.295
-1234.33
-1512.99
1735.72
1749.32
1774.38
1805.01
1832.5
1852.79
1865.99
1873.16
1875.01
1872.17
1865.32
1855.09
1841.96
1826.33
1808.53
1788.82
1767.41
1744.48
1720.18
1694.63
1667.89
1640.04
1611.1
1581.08
1549.95
1517.66
1484.11
1449.19
1412.74
1374.57
1334.42
1292.02
1247.01
1199
1147.51
1092.01
1031.88
966.44
894.922
816.504
730.321
635.502
531.228
416.827
291.904
156.521
11.4299
-141.668
-299.863
-459.298
1652.25
1662.35
1681.53
1706.08
1729
1745.69
1754.96
1757.16
1753.01
1743.29
1728.99
1711.05
1690.36
1667.62
1643.39
1618.14
1592.18
1565.79
1539.12
1512.29
1485.38
1458.43
1431.44
1404.42
1377.33
1350.15
1322.81
1295.26
1267.42
1239.22
1210.57
1181.35
1151.45
1120.74
1089.08
1056.32
1022.29
986.82
949.735
910.876
870.105
827.339
782.572
735.932
687.738
638.577
589.405
541.643
497.299
458.904
1555.85
1565.97
1585.2
1609.82
1632.86
1649.7
1659.15
1661.59
1657.72
1648.35
1634.46
1617.03
1596.93
1574.89
1551.49
1527.21
1502.4
1477.34
1452.24
1427.24
1402.46
1377.98
1353.89
1330.22
1307.04
1284.4
1262.35
1240.94
1220.26
1200.37
1181.39
1163.42
1146.62
1131.15
1117.21
1105.05
1094.95
1087.26
1082.38
1080.79
1083.04
1089.78
1101.75
1119.77
1144.76
1177.7
1219.57
1271.36
1333.93
1408.03
1446.48
1460.14
1485.35
1516.22
1544.04
1564.77
1578.52
1586.36
1589.04
1587.18
1581.49
1572.63
1561.12
1547.39
1531.81
1514.71
1496.36
1477.01
1456.91
1436.27
1415.29
1394.19
1373.15
1352.38
1332.09
1312.48
1293.78
1276.23
1260.11
1245.69
1233.33
1223.4
1216.32
1212.59
1212.79
1217.55
1227.63
1243.89
1267.32
1299.02
1340.23
1392.32
1456.76
1535.06
1628.73
1739.14
1867.34
2013.91
2178.65
2360.77
1319.72
1342.02
1380.03
1420.41
1449.12
1462.73
1463.8
1454.98
1438.32
1415.9
1389.73
1361.45
1332.22
1302.89
1274.06
1246.13
1219.36
1193.93
1169.93
1147.44
1126.51
1107.19
1089.56
1073.68
1059.68
1047.71
1037.96
1030.67
1026.13
1024.71
1026.85
1033.06
1043.96
1060.29
1082.88
1112.73
1151
1199
1258.24
1330.43
1417.48
1521.46
1644.6
1789.17
1957.36
2151.06
2371.62
2619.41
2893.44
3191.73
1165.72
1210.25
1282.29
1355.04
1411.14
1453.03
1485.86
1510.37
1526.25
1534.28
1535.69
1531.54
1522.73
1510.09
1494.38
1476.27
1456.37
1435.21
1413.27
1390.99
1368.77
1346.99
1326.03
1306.25
1288.04
1271.8
1257.96
1247
1239.46
1235.92
1237.08
1243.72
1256.73
1277.15
1306.18
1345.19
1395.75
1459.67
1539.02
1636.11
1753.52
1894.11
2060.89
2256.98
2485.42
2748.85
3049.07
3386.51
3759.32
4163.58
956.911
1042.71
1151.22
1213.91
1217.5
1190.62
1153.77
1113.43
1072.64
1034.19
999.601
969.15
942.554
919.395
899.236
881.666
866.332
852.963
841.373
831.455
823.181
816.591
811.796
808.973
808.369
810.301
815.161
823.426
835.664
852.549
874.871
903.558
939.69
984.527
1039.53
1106.39
1187.07
1283.8
1399.17
1536.09
1697.85
1888.1
2110.78
2370.09
2670.22
3015.03
3407.55
3849.1
4338.17
4870.71
657.272
906.564
1223.66
1456.11
1597.1
1687.81
1741.96
1763.07
1759.34
1739.57
1709.66
1673.28
1633.04
1590.83
1548.01
1505.49
1463.94
1423.85
1385.57
1349.43
1315.67
1284.57
1256.4
1231.45
1210.07
1192.65
1179.67
1171.66
1169.27
1173.28
1184.58
1204.21
1233.42
1273.65
1326.58
1394.17
1478.69
1582.78
1709.45
1862.19
2044.94
2262.15
2518.76
2820.11
3171.82
3579.38
4047.55
4579.25
5173.62
5825.25
22.0314
431.332
623.316
552.516
451.508
409.75
400.159
400.424
407.74
421.263
438.221
456.124
473.565
489.846
504.628
517.809
529.464
539.79
549.066
557.633
565.872
574.209
583.105
593.066
604.647
618.458
635.18
655.579
680.516
710.972
748.068
793.088
847.508
913.031
991.622
1085.55
1197.44
1330.33
1487.71
1673.62
1892.7
2150.24
2452.26
2805.54
3217.51
3696.08
4249.08
4883.16
5601.52
6402.57
-423.128
1747.17
2930.86
3034.45
2879.12
2709.18
2525.01
2336.58
2161.55
2006.41
1870.35
1751.02
1646.15
1553.7
1471.83
1399.02
1334.04
1275.93
1223.98
1177.65
1136.57
1100.54
1069.47
1043.41
1022.52
1007.09
997.539
994.407
998.386
1010.33
1031.26
1062.41
1105.25
1161.5
1233.21
1322.74
1432.9
1566.94
1728.67
1922.53
2153.7
2428.21
2753.08
3136.47
3587.8
4117.83
4738.46
5461.97
6298.45
7253.2
-7849.49
-3260.02
-1757.71
-1190.47
-754.815
-427.466
-200.809
-37.908
84.3559
177.285
248.228
302.757
344.913
377.583
402.91
422.558
437.858
449.898
459.602
467.776
475.155
482.426
490.258
499.326
510.327
524
541.149
562.66
589.525
622.862
663.947
714.239
775.419
849.426
938.503
1045.25
1172.7
1324.36
1504.34
1717.45
1969.3
2266.54
2617.02
3030.14
3517.22
4092.02
4771.42
5575.96
6529.3
7657.57
17588.2
9426.31
5393.93
3876.48
3043.48
2436.63
2015.41
1734.03
1537.4
1390.58
1275.95
1183.77
1107.65
1043.26
987.757
939.259
896.497
858.619
825.067
795.506
769.769
747.835
729.803
715.885
706.404
701.795
702.613
709.541
723.404
745.192
776.075
817.436
870.902
938.38
1022.1
1124.69
1249.2
1399.23
1578.97
1793.39
2048.33
2350.75
2709.03
3133.34
3636.35
4234.3
4948.87
5810.85
6867.16
8199.94
-20202
-15586.9
-14016.4
-10058.6
-8092.06
-4674.45
-2573.05
482.186
2587.08
5395.88
7426.69
10070.3
11969
14516.6
16224.1
18747.4
20179.4
22763.2
23763.8
26397.5
-20228.2
-15626.1
-14065.6
-10109.8
-8150.23
-4731.19
-2635.52
421.86
2522.33
5333.27
7360.58
10006.8
11902.8
14454.2
16160.5
18690.8
20125.6
22724.3
23738.7
26411.1
-20262.6
-15663.3
-14112.4
-10157.8
-8205.04
-4785.05
-2694.62
364.503
2460.89
5273.98
7298.15
9947.08
11841.1
14396.4
16102.6
18639
20077.5
22686.8
23711
26400.8
-20301.4
-15701.1
-14158.1
-10203.8
-8257.45
-4836.46
-2751.08
309.754
2402.18
5217.47
7238.65
9890.39
11782.6
14341.7
16047.8
18589.4
20030.8
22647.2
23676.4
26373.9
-20342.4
-15739.6
-14203.2
-10248.5
-8308.07
-4885.89
-2805.38
257.204
2345.74
5163.25
7181.5
9835.99
11726.3
14288.9
15994.6
18540.5
19983.4
22604.5
23635.6
26337.5
-20384.4
-15778.4
-14247.8
-10292.2
-8357.33
-4933.73
-2857.96
206.453
2291.15
5110.85
7126.14
9783.25
11671.6
14237.2
15942.2
18491.4
19934.6
22558.9
23590
26294.9
-20426.8
-15817.4
-14292
-10335
-8405.51
-4980.3
-2909.16
157.144
2238.02
5059.86
7072.14
9731.67
11617.8
14186
15889.9
18441.6
19884.2
22510.8
23540.8
26248.1
-20469.3
-15856.3
-14335.8
-10377.3
-8452.82
-5025.86
-2959.24
108.97
2186.03
5009.94
7019.11
9680.86
11564.6
14135.1
15837.3
18391.1
19832.2
22460.6
23488.9
26198.2
-20511.7
-15895
-14379.2
-10418.9
-8499.43
-5070.61
-3008.46
61.6795
2134.9
4960.79
6966.77
9630.54
11511.7
14084.1
15784.3
18339.7
19778.9
22408.6
23434.8
26146
-20553.9
-15933.4
-14422.2
-10460.1
-8545.45
-5114.7
-3056.99
15.0681
2084.43
4912.21
6914.89
9580.49
11458.9
14032.9
15730.8
18287.6
19724.5
22355.3
23379.1
26092.1
-20595.8
-15971.5
-14464.9
-10500.9
-8590.99
-5158.27
-3104.97
-31.0269
2034.44
4864.01
6863.31
9530.58
11406
13981.5
15676.8
18234.8
19669.2
22300.8
23322.1
26036.8
-20637.5
-16009.3
-14507.3
-10541.2
-8636.13
-5201.43
-3152.54
-76.7339
1984.82
4816.07
6811.92
9480.7
11353.1
13929.9
15622.4
18181.4
19613
22245.3
23264.1
25980.5
-20678.9
-16046.8
-14549.3
-10581.3
-8680.94
-5244.24
-3199.77
-122.153
1935.44
4768.31
6760.64
9430.8
11300.1
13878
15567.6
18127.4
19556.2
22189.2
23205.2
25923.3
-20720
-16084
-14591.2
-10621.1
-8725.48
-5286.79
-3246.75
-167.361
1886.25
4720.64
6709.4
9380.83
11246.9
13825.8
15512.4
18073
19498.8
22132.4
23145.6
25865.4
-20761
-16121
-14632.8
-10660.6
-8769.79
-5329.13
-3293.54
-212.419
1837.19
4673.02
6658.18
9330.78
11193.6
13773.3
15456.9
18018.2
19441
22075
23085.5
25807
-20801.7
-16157.8
-14674.2
-10699.9
-8813.92
-5371.3
-3340.17
-257.369
1788.22
4625.41
6606.94
9280.62
11140.1
13720.7
15401.1
17963
19382.7
22017.3
23024.9
25748.1
-20842.3
-16194.4
-14715.4
-10739.1
-8857.9
-5413.34
-3386.68
-302.248
1739.3
4577.8
6555.67
9230.36
11086.5
13667.8
15345
17907.6
19324.2
21959.2
22964
25688.8
-20882.7
-16230.8
-14756.5
-10778.1
-8901.76
-5455.28
-3433.1
-347.08
1690.43
4530.16
6504.37
9179.99
11032.8
13614.8
15288.8
17851.9
19265.3
21900.7
22902.7
25629.3
-20923
-16267.1
-14797.5
-10817.1
-8945.52
-5497.14
-3479.45
-391.884
1641.58
4482.48
6453.04
9129.52
10978.9
13561.6
15232.3
17795.9
19206.2
21842.1
22841.2
25569.4
-20963.2
-16303.3
-14838.4
-10855.9
-8989.21
-5538.93
-3525.74
-436.671
1592.74
4434.77
6401.67
9078.96
10925
13508.2
15175.8
17739.8
19146.9
21783.2
22779.4
25509.4
-21003.3
-16339.4
-14879.3
-10894.6
-9032.82
-5580.68
-3571.99
-481.453
1543.93
4387.02
6350.27
9028.32
10871
13454.7
15119.1
17683.6
19087.5
21724.2
22717.5
25449.2
-21043.4
-16375.3
-14920
-10933.3
-9076.38
-5622.4
-3618.2
-526.233
1495.12
4339.24
6298.85
8977.6
10816.9
13401.2
15062.3
17627.2
19027.9
21665
22655.4
25388.9
-21083.3
-16411.2
-14960.7
-10971.9
-9119.89
-5664.08
-3664.37
-571.015
1446.33
4291.42
6247.41
8926.82
10762.8
13347.5
15005.4
17570.7
18968.3
21605.7
22593.2
25328.5
-21123.3
-16447.1
-15001.4
-11010.4
-9163.35
-5705.74
-3710.51
-615.801
1397.55
4243.56
6195.97
8875.98
10708.6
13293.8
14948.5
17514.1
18908.6
21546.4
22531
25268
-21163.2
-16482.8
-15042.1
-11049
-9206.78
-5747.37
-3756.62
-660.589
1348.79
4195.68
6144.53
8825.1
10654.5
13240
14891.5
17457.5
18848.8
21487
22468.6
25207.5
-21203
-16518.5
-15082.6
-11087.4
-9250.18
-5788.99
-3802.69
-705.378
1300.06
4147.79
6093.1
8774.18
10600.3
13186.1
14834.5
17400.9
18789
21427.6
22406.3
25147
-21242.8
-16554.2
-15123.2
-11125.9
-9293.53
-5830.58
-3848.73
-750.164
1251.36
4099.88
6041.7
8723.25
10546.1
13132.3
14777.5
17344.2
18729.2
21368.1
22343.9
25086.4
-21282.6
-16589.8
-15163.8
-11164.3
-9336.85
-5872.16
-3894.73
-794.944
1202.69
4051.96
5990.32
8672.29
10492
13078.4
14720.6
17287.5
18669.3
21308.6
22281.5
25025.9
-21322.4
-16625.4
-15204.3
-11202.6
-9380.13
-5913.71
-3940.69
-839.714
1154.07
4004.04
5938.98
8621.34
10437.9
13024.5
14663.6
17230.8
18609.5
21249.2
22219.1
24965.4
-21362.1
-16660.9
-15244.7
-11241
-9423.37
-5955.23
-3986.59
-884.469
1105.5
3956.13
5887.7
8570.38
10383.8
12970.7
14606.7
17174.1
18549.8
21189.8
22156.8
24904.9
-21401.9
-16696.3
-15285.2
-11279.3
-9466.56
-5996.73
-4032.44
-929.204
1056.99
3908.24
5836.47
8519.45
10329.8
12916.8
14549.9
17117.4
18490
21130.4
22094.5
24844.5
-21441.5
-16731.7
-15325.6
-11317.5
-9509.7
-6038.19
-4078.23
-973.912
1008.55
3860.36
5785.31
8468.53
10275.9
12863
14493.1
17060.8
18430.4
21071.1
22032.3
24784.2
-21481.2
-16767.1
-15365.9
-11355.7
-9552.78
-6079.61
-4123.96
-1018.59
960.179
3812.52
5734.23
8417.65
10222
12809.2
14436.3
17004.3
18370.8
21011.9
21970.1
24723.9
-21520.8
-16802.4
-15406.3
-11393.8
-9595.8
-6120.99
-4169.6
-1063.23
911.895
3764.71
5683.24
8366.81
10168.2
12755.5
14379.7
16947.8
18311.3
20952.7
21908
24663.8
-21560.4
-16837.6
-15446.5
-11431.9
-9638.76
-6162.32
-4215.17
-1107.82
863.701
3716.95
5632.35
8316.02
10114.6
12701.8
14323.2
16891.4
18251.9
20893.7
21846
24603.8
-21599.9
-16872.8
-15486.7
-11470
-9681.64
-6203.6
-4260.65
-1152.37
815.608
3669.24
5581.56
8265.28
10061
12648.2
14266.8
16835
18192.6
20834.7
21784.1
24543.9
-21639.4
-16907.9
-15526.9
-11507.9
-9724.44
-6244.81
-4306.03
-1196.85
767.623
3621.59
5530.88
8214.62
10007.5
12594.7
14210.4
16778.8
18133.4
20775.8
21722.4
24484.1
-21678.8
-16942.9
-15567
-11545.8
-9767.16
-6285.96
-4351.31
-1241.27
719.754
3574.01
5480.34
8164.02
9954.23
12541.3
14154.3
16722.7
18074.4
20717.1
21660.7
24424.4
-21718.2
-16977.9
-15607
-11583.6
-9809.78
-6327.04
-4396.47
-1285.63
672.012
3526.5
5429.93
8113.51
9901.05
12487.9
14098.2
16666.7
18015.5
20658.5
21599.2
24365
-21757.5
-17012.7
-15646.9
-11621.4
-9852.3
-6368.04
-4441.52
-1329.9
624.404
3479.07
5379.66
8063.1
9848.02
12434.7
14042.4
16610.8
17956.7
20600.1
21537.8
24305.6
-21796.7
-17047.5
-15686.7
-11659
-9894.71
-6408.95
-4486.43
-1374.09
576.94
3431.73
5329.54
8012.78
9795.15
12381.6
13986.6
16555
17898.1
20541.8
21476.6
24246.5
-21835.8
-17082.1
-15726.5
-11696.6
-9937
-6449.78
-4531.21
-1418.19
529.627
3384.49
5279.59
7962.56
9742.45
12328.6
13931.1
16499.4
17839.7
20483.7
21415.6
24187.6
-21874.9
-17116.7
-15766.2
-11734
-9979.17
-6490.5
-4575.85
-1462.19
482.475
3337.35
5229.8
7912.47
9689.92
12275.8
13875.7
16444
17781.4
20425.8
21354.7
24128.8
-21913.8
-17151.1
-15805.7
-11771.4
-10021.2
-6531.13
-4620.33
-1506.09
435.492
3290.32
5180.2
7862.49
9637.58
12223
13820.5
16388.7
17723.3
20368
21294.1
24070.2
-21952.7
-17185.4
-15845.1
-11808.6
-10063.1
-6571.64
-4664.65
-1549.87
388.687
3243.4
5130.79
7812.65
9585.44
12170.5
13765.5
16333.6
17665.5
20310.5
21233.6
24011.9
-21991.5
-17219.6
-15884.4
-11845.7
-10104.9
-6612.03
-4708.8
-1593.54
342.069
3196.62
5081.58
7762.94
9533.5
12118.1
13710.7
16278.6
17607.8
20253.1
21173.3
23953.8
-22030.1
-17253.6
-15923.6
-11882.7
-10146.4
-6652.3
-4752.77
-1637.08
295.648
3149.96
5032.57
7713.38
9481.78
12065.8
13656.2
16223.8
17550.4
20195.9
21113.3
23895.9
-22068.6
-17287.6
-15962.6
-11919.5
-10187.9
-6692.44
-4796.56
-1680.49
249.431
3103.45
4983.78
7663.98
9430.28
12013.8
13601.8
16169.3
17493.2
20139
21053.5
23838.2
-22107
-17321.3
-16001.5
-11956.2
-10229.1
-6732.44
-4840.15
-1723.76
203.427
3057.08
4935.22
7614.73
9379.01
11961.9
13547.7
16114.9
17436.2
20082.3
20993.9
23780.8
-22145.3
-17354.9
-16040.3
-11992.8
-10270.2
-6772.3
-4883.54
-1766.88
157.646
3010.87
4886.89
7565.65
9327.99
11910.2
13493.9
16060.8
17379.4
20025.9
20934.5
23723.7
-22183.4
-17388.4
-16078.9
-12029.2
-10311.1
-6812
-4926.71
-1809.85
112.096
2964.82
4838.8
7516.75
9277.21
11858.6
13440.3
16006.9
17323
19969.6
20875.4
23666.8
-22221.3
-17421.7
-16117.3
-12065.4
-10351.8
-6851.55
-4969.66
-1852.66
66.7859
2918.93
4790.97
7468.03
9226.7
11807.3
13386.9
15953.2
17266.7
19913.7
20816.6
23610.3
-22259.1
-17454.8
-16155.5
-12101.5
-10392.3
-6890.94
-5012.39
-1895.31
21.7246
2873.22
4743.4
7419.51
9176.45
11756.3
13333.9
15899.7
17210.8
19858
20758
23554
-22296.8
-17487.7
-16193.6
-12137.4
-10432.6
-6930.15
-5054.87
-1937.79
-23.0792
2827.69
4696.1
7371.18
9126.48
11705.4
13281.1
15846.5
17155.1
19802.6
20699.7
23498
-22334.2
-17520.4
-16231.5
-12173.1
-10472.6
-6969.19
-5097.11
-1980.08
-67.6167
2782.36
4649.08
7323.05
9076.8
11654.7
13228.6
15793.5
17099.8
19747.4
20641.7
23442.3
-22371.5
-17553
-16269.1
-12208.6
-10512.5
-7008.05
-5139.1
-2022.19
-111.879
2737.21
4602.35
7275.14
9027.41
11604.3
13176.4
15740.8
17044.7
19692.6
20584
23386.9
-22408.6
-17585.3
-16306.6
-12244
-10552.1
-7046.71
-5180.82
-2064.11
-155.858
2692.27
4555.92
7227.45
8978.32
11554.2
13124.5
15688.4
16989.9
19638
20526.6
23331.8
-22445.5
-17617.5
-16343.9
-12279.1
-10591.4
-7085.18
-5222.27
-2105.83
-199.543
2647.54
4509.79
7179.99
8929.55
11504.3
13072.9
15636.3
16935.4
19583.8
20469.5
23277.1
-22482.2
-17649.4
-16380.9
-12314.1
-10630.5
-7123.45
-5263.43
-2147.34
-242.928
2603.02
4463.97
7132.76
8881.1
11454.6
13021.6
15584.4
16881.3
19529.9
20412.7
23222.7
-22518.7
-17681.1
-16417.7
-12348.8
-10669.3
-7161.51
-5304.31
-2188.64
-286.002
2558.73
4418.48
7085.77
8832.99
11405.2
12970.7
15532.8
16827.5
19476.3
20356.3
23168.7
-22555
-17712.6
-16454.3
-12383.3
-10707.9
-7199.36
-5344.89
-2229.73
-328.758
2514.66
4373.33
7039.04
8785.2
11356.1
12920.1
15481.6
16774
19423
20300.2
23115
-22591.1
-17743.8
-16490.6
-12417.6
-10746.2
-7236.98
-5385.16
-2270.59
-371.186
2470.83
4328.51
6992.55
8737.77
11307.3
12869.9
15430.6
16720.9
19370.1
20244.4
23061.7
-22626.9
-17774.8
-16526.7
-12451.6
-10784.2
-7274.38
-5425.12
-2311.22
-413.278
2427.25
4284.04
6946.33
8690.7
11258.7
12820
15380
16668.2
19317.5
20189.1
23008.7
-22662.5
-17805.5
-16562.5
-12485.4
-10821.9
-7311.54
-5464.75
-2351.61
-455.025
2383.91
4239.93
6900.38
8643.98
11210.5
12770.5
15329.7
16615.8
19265.3
20134
22956.1
-22697.9
-17836
-16598
-12519
-10859.3
-7348.47
-5504.06
-2391.77
-496.419
2340.83
4196.19
6854.7
8597.65
11162.6
12721.3
15279.7
16563.8
19213.4
20079.4
22904
-22733
-17866.3
-16633.3
-12552.3
-10896.4
-7385.15
-5543.02
-2431.67
-537.45
2298.01
4152.82
6809.31
8551.69
11114.9
12672.6
15230.1
16512.2
19161.9
20025.1
22852.2
-22767.8
-17896.2
-16668.3
-12585.4
-10933.1
-7421.58
-5581.63
-2471.32
-578.111
2255.45
4109.84
6764.21
8506.12
11067.6
12624.2
15180.8
16460.9
19110.8
19971.2
22800.8
-22802.4
-17925.9
-16703
-12618.2
-10969.6
-7457.76
-5619.88
-2510.71
-618.393
2213.18
4067.25
6719.4
8460.95
11020.6
12576.3
15131.9
16410.1
19060.1
19917.7
22749.9
-22836.7
-17955.3
-16737.4
-12650.7
-11005.7
-7493.67
-5657.77
-2549.83
-658.286
2171.18
4025.06
6674.9
8416.19
10974
12528.7
15083.3
16359.7
19009.8
19864.6
22699.4
-22870.7
-17984.4
-16771.5
-12682.9
-11041.5
-7529.32
-5695.28
-2588.68
-697.784
2129.47
3983.27
6630.71
8371.85
10927.6
12481.6
15035.1
16309.6
18959.9
19812
22649.3
-22904.4
-18013.3
-16805.3
-12714.9
-11076.9
-7564.69
-5732.41
-2627.26
-736.876
2088.05
3941.91
6586.84
8327.93
10881.7
12434.9
14987.3
16260.1
18910.4
19759.7
22599.6
-22937.8
-18041.8
-16838.8
-12746.6
-11111.9
-7599.79
-5769.15
-2665.55
-775.555
2046.93
3900.97
6543.28
8284.44
10836.1
12388.6
14939.9
16210.9
18861.3
19707.9
22550.4
-22971
-18070
-16871.9
-12778
-11146.6
-7634.6
-5805.49
-2703.55
-813.813
2006.11
3860.47
6500.06
8241.39
10790.8
12342.7
14892.8
16162.2
18812.7
19656.5
22501.7
-23003.8
-18097.9
-16904.7
-12809.1
-11180.9
-7669.12
-5841.42
-2741.26
-851.64
1965.61
3820.41
6457.18
8198.78
10745.9
12297.4
14846.2
16113.9
18764.5
19605.6
22453.4
-23036.3
-18125.5
-16937.2
-12839.9
-11214.8
-7703.35
-5876.93
-2778.66
-889.028
1925.42
3780.8
6414.63
8156.64
10701.4
12252.4
14800
16066.1
18716.7
19555.1
22405.6
-23068.5
-18152.8
-16969.3
-12870.4
-11248.3
-7737.28
-5912.01
-2815.77
-925.969
1885.56
3741.65
6372.44
8114.95
10657.3
12208
14754.2
16018.8
18669.4
19505.1
22358.2
-23100.3
-18179.8
-17001
-12900.6
-11281.5
-7770.91
-5946.66
-2852.56
-962.455
1846.02
3702.97
6330.6
8073.74
10613.5
12164
14708.8
15971.9
18622.5
19455.5
22311.4
-23131.8
-18206.4
-17032.4
-12930.5
-11314.2
-7804.22
-5980.87
-2889.03
-998.477
1806.82
3664.76
6289.13
8033.01
10570.1
12120.5
14663.8
15925.5
18576.1
19406.4
22265.1
-23163
-18232.7
-17063.4
-12960.1
-11346.5
-7837.23
-6014.63
-2925.19
-1034.03
1767.96
3627.04
6248.02
7992.77
10527.2
12077.5
14619.3
15879.6
18530.2
19357.9
22219.2
-23193.8
-18258.6
-17094
-12989.3
-11378.3
-7869.91
-6047.92
-2961.01
-1069.1
1729.45
3589.8
6207.28
7953.02
10484.7
12034.9
14575.2
15834.2
18484.8
19309.8
22173.9
-23224.3
-18284.2
-17124.3
-13018.2
-11409.8
-7902.27
-6080.75
-2996.51
-1103.68
1691.28
3553.07
6166.93
7913.78
10442.5
11992.9
14531.6
15789.3
18439.8
19262.2
22129
-23254.4
-18309.4
-17154.1
-13046.8
-11440.8
-7934.3
-6113.1
-3031.67
-1137.76
1653.48
3516.84
6126.96
7875.05
10400.8
11951.4
14488.4
15744.9