/*--------------------------------*- C++ -*----------------------------------*\
  =========                 |
  \\      /  F ield         | OpenFOAM: The Open Source CFD Toolbox
   \\    /   O peration     | Website:  https://openfoam.org
    \\  /    A nd           | Version:  8
     \\/     M anipulation  |
\*---------------------------------------------------------------------------*/
FoamFile
{
    version     2.0;
    format      ascii;
    class       surfaceScalarField;
    location    "900";
    object      phi;
}
// * * * * * * * * * * * * * * * * * * * * * * * * * * * * * * * * * * * * * //

dimensions      [1 0 -1 0 0 0 0];

internalField   nonuniform List<scalar> 
16360
(
-1.36725
0.000231613
-1.36752
0.000262883
-1.36779
0.000274726
-1.36807
0.000279413
-1.36835
0.000280967
-1.36863
0.000280848
-1.36891
0.000279632
-1.36919
0.00027756
-1.36946
0.00027472
-1.36974
0.000271128
-1.37
0.000266754
-1.37026
0.000261533
-1.37052
0.000255376
-1.37077
0.000248165
-1.37101
0.000239757
-1.37124
0.000229982
-1.37146
0.000218638
-1.37166
0.000205491
-1.37185
0.00019026
-1.37202
0.000172608
-1.37218
0.000152135
-1.3723
0.000128402
-1.37241
0.000100929
-1.37247
6.90346e-05
-1.37251
3.18269e-05
-1.37249
-1.22836e-05
-1.37243
-6.55504e-05
-1.3723
-0.000129075
-1.3721
-0.000203291
-1.37181
-0.000289482
-1.37142
-0.000389371
-1.37091
-0.000505057
-1.37027
-0.000639032
-1.36948
-0.000794225
-1.3685
-0.000974083
-1.36732
-0.00118267
-1.3659
-0.00142483
-1.36419
-0.00170632
-1.36216
-0.00203412
-1.35974
-0.00241682
-1.35687
-0.00286514
-1.35348
-0.00339271
-1.34947
-0.00401714
-1.3447
-0.00476212
-1.33904
-0.00566258
-1.33227
-0.00677249
-1.3241
-0.0081634
-1.3142
-0.00990164
-1.30211
-0.0120966
-0.0153413
-1.28676
-1.56501
0.000503488
-1.56525
0.00050413
-1.56548
0.000505127
-1.56571
0.000507957
-1.56594
0.000509142
-1.56616
0.000508489
-1.56639
0.000506174
-1.56662
0.000502365
-1.56684
0.000497138
-1.56706
0.000490489
-1.56727
0.000482346
-1.56748
0.000472581
-1.56769
0.000461018
-1.56789
0.000447432
-1.56808
0.000431545
-1.56826
0.000413028
-1.56844
0.000391496
-1.5686
0.000366495
-1.56875
0.00033749
-1.56888
0.000303834
-1.56899
0.000264744
-1.56908
0.000219367
-1.56915
0.000166961
-1.56918
0.000106222
-1.56919
3.55791e-05
-1.56915
-4.68224e-05
-1.56908
-0.000142709
-1.56895
-0.000253867
-1.56877
-0.00038273
-1.56853
-0.000531988
-1.56821
-0.000704771
-1.56781
-0.000904732
-1.56732
-0.00113613
-1.56671
-0.00140393
-1.56597
-0.00171394
-1.56508
-0.00207294
-1.56401
-0.0024889
-1.56275
-0.00297126
-1.56125
-0.00353124
-1.55948
-0.00418236
-1.55741
-0.00494111
-1.55497
-0.0058279
-1.55212
-0.00686822
-1.54879
-0.00809533
-1.5449
-0.00955565
-1.54035
-0.0113148
-1.53506
-0.0134549
-1.52889
-0.0160738
-1.52162
-0.0193679
-0.0237967
-1.51316
-1.60397
0.000331247
-1.60386
0.000394751
-1.60377
0.000419617
-1.6037
0.000428153
-1.60362
0.000430039
-1.60354
0.000428345
-1.60345
0.000424171
-1.60337
0.000417913
-1.60328
0.000409682
-1.60319
0.000399446
-1.6031
0.00038708
-1.603
0.000372387
-1.60289
0.000355103
-1.60278
0.000334898
-1.60266
0.000311369
-1.60253
0.000284037
-1.60239
0.000252343
-1.60224
0.000215646
-1.60207
0.000173171
-1.60189
0.000123998
-1.6017
6.69931e-05
-1.60148
8.9948e-07
-1.60123
-7.61788e-05
-1.60096
-0.000166029
-1.60066
-0.000270236
-1.60031
-0.000390791
-1.59992
-0.000530169
-1.59949
-0.000691427
-1.59899
-0.000878041
-1.59843
-0.00109396
-1.59779
-0.00134374
-1.59706
-0.00163267
-1.59623
-0.00196692
-1.59528
-0.00235363
-1.5942
-0.00280113
-1.59295
-0.00331915
-1.59152
-0.00391907
-1.58988
-0.00461426
-1.58799
-0.00542049
-1.58581
-0.00635655
-1.58331
-0.00744496
-1.58042
-0.00871289
-1.5771
-0.0101935
-1.57327
-0.0119283
-1.56885
-0.0139715
-1.56377
-0.0163923
-1.55795
-0.0192724
-1.55132
-0.0227113
-1.5438
-0.0268846
-0.0321469
-1.53545
-1.64889
0.000490951
-1.64892
0.000427907
-1.64891
0.00040725
-1.64888
0.000401784
-1.64885
0.000398854
-1.64882
0.000395063
-1.64878
0.000389437
-1.64875
0.000381687
-1.64871
0.000371672
-1.64867
0.000359238
-1.64862
0.000344181
-1.64858
0.000326229
-1.64853
0.000305036
-1.64847
0.000280178
-1.64841
0.000251142
-1.64835
0.000217312
-1.64827
0.00017797
-1.64819
0.000132338
-1.6481
7.94341e-05
-1.64799
1.80967e-05
-1.64787
-5.28699e-05
-1.64773
-0.000134935
-1.64758
-0.000229835
-1.64741
-0.000339442
-1.64721
-0.000466271
-1.64699
-0.00061301
-1.64674
-0.000782775
-1.64645
-0.000979235
-1.64612
-0.00120661
-1.64574
-0.00146974
-1.64531
-0.00177421
-1.64482
-0.00212649
-1.64425
-0.00253408
-1.6436
-0.00300566
-1.64285
-0.00355133
-1.64199
-0.00418281
-1.64099
-0.00491375
-1.63985
-0.0057601
-1.63853
-0.00674052
-1.63701
-0.007877
-1.63526
-0.00919548
-1.63324
-0.0107268
-1.63093
-0.0125078
-1.62827
-0.0145834
-1.62523
-0.017009
-1.62178
-0.0198514
-1.61786
-0.0231874
-1.61346
-0.0271098
-1.60859
-0.0317566
-0.0373233
-1.60341
-1.63382
0.000166131
-1.63365
0.000250508
-1.63352
0.000280662
-1.63341
0.000288473
-1.6333
0.000288265
-1.63318
0.00028401
-1.63307
0.000276879
-1.63296
0.000267152
-1.63284
0.000254801
-1.63272
0.000239662
-1.6326
0.000221478
-1.63247
0.000199912
-1.63234
0.00017455
-1.63221
0.000144888
-1.63207
0.000110313
-1.63192
7.00939e-05
-1.63176
2.33669e-05
-1.6316
-3.08849e-05
-1.63143
-9.38764e-05
-1.63124
-0.000166891
-1.63104
-0.000251428
-1.63083
-0.00034938
-1.6306
-0.000462783
-1.63034
-0.000593967
-1.63006
-0.000745724
-1.62975
-0.000921255
-1.62941
-0.00112428
-1.62903
-0.0013591
-1.62861
-0.00163071
-1.62813
-0.00194486
-1.6276
-0.00230819
-1.627
-0.00272836
-1.62632
-0.00321424
-1.62555
-0.00377611
-1.62467
-0.00442583
-1.62368
-0.00517716
-1.62255
-0.00604603
-1.62125
-0.0070509
-1.61978
-0.00821322
-1.6181
-0.00955792
-1.61618
-0.0111141
-1.61399
-0.0129155
-1.6115
-0.015002
-1.60866
-0.0174202
-1.60545
-0.0202258
-1.60181
-0.0234829
-1.59774
-0.0272643
-1.59319
-0.0316541
-1.58819
-0.0367569
-0.0427053
-1.58281
-1.64881
0.000380536
-1.64884
0.00028595
-1.64882
0.000252081
-1.64877
0.00024033
-1.64871
0.000233433
-1.64866
0.000226399
-1.6486
0.000217593
-1.64854
0.000206397
-1.64847
0.000192467
-1.64841
0.000175501
-1.64834
0.000155153
-1.64827
0.00013102
-1.6482
0.000102615
-1.64813
6.93721e-05
-1.64805
3.05662e-05
-1.64796
-1.45908e-05
-1.64787
-6.70018e-05
-1.64777
-0.00012778
-1.64767
-0.000198187
-1.64756
-0.00027971
-1.64743
-0.00037412
-1.6473
-0.000483449
-1.64715
-0.00061001
-1.64699
-0.00075648
-1.64681
-0.000925978
-1.64661
-0.00112211
-1.64639
-0.00134903
-1.64613
-0.00161159
-1.64585
-0.00191534
-1.64553
-0.00226674
-1.64516
-0.0026732
-1.64475
-0.00314332
-1.64427
-0.00368701
-1.64373
-0.00431571
-1.64312
-0.00504263
-1.64241
-0.00588301
-1.6416
-0.00685443
-1.64068
-0.00797712
-1.63962
-0.00927444
-1.6384
-0.0107732
-1.63701
-0.0125043
-1.63542
-0.0145031
-1.63361
-0.0168101
-1.63156
-0.0194716
-1.62925
-0.0225403
-1.62666
-0.0260751
-1.62378
-0.0301398
-1.62063
-0.0348038
-1.61724
-0.0401438
-0.0462423
-1.61371
-1.64014
-2.71437e-07
-1.63996
9.99795e-05
-1.63984
0.000133778
-1.63974
0.000140893
-1.63965
0.000138816
-1.63955
0.000132318
-1.63946
0.000122713
-1.63936
0.000110236
-1.63926
9.47635e-05
-1.63916
7.60268e-05
-1.63906
5.36532e-05
-1.63896
2.72031e-05
-1.63885
-3.86769e-06
-1.63874
-4.02356e-05
-1.63863
-8.2655e-05
-1.63851
-0.000131992
-1.63839
-0.000189307
-1.63826
-0.00025585
-1.63813
-0.000332991
-1.63798
-0.00042236
-1.63783
-0.000525867
-1.63767
-0.000645717
-1.6375
-0.000784448
-1.63731
-0.000945
-1.6371
-0.00113078
-1.63688
-0.00134574
-1.63663
-0.00159443
-1.63636
-0.00188213
-1.63606
-0.00221495
-1.63573
-0.00259992
-1.63536
-0.00304518
-1.63494
-0.00356012
-1.63447
-0.00415556
-1.63394
-0.004844
-1.63335
-0.00563983
-1.63267
-0.00655962
-1.6319
-0.00762243
-1.63103
-0.00885012
-1.63004
-0.0102678
-1.62891
-0.011904
-1.62762
-0.0137915
-1.62615
-0.0159671
-1.62449
-0.0184727
-1.62261
-0.0213547
-1.62048
-0.024665
-1.6181
-0.0284593
-1.61544
-0.0327968
-1.61251
-0.0377371
-1.60931
-0.0433389
-0.0496614
-1.6059
-1.6462
0.000248343
-1.64624
0.000141167
-1.64621
0.000101681
-1.64616
8.67438e-05
-1.6461
7.73483e-05
-1.64603
6.79744e-05
-1.64597
5.67772e-05
-1.6459
4.30195e-05
-1.64583
2.62619e-05
-1.64576
6.11288e-06
-1.64569
-1.78447e-05
-1.64562
-4.61077e-05
-1.64554
-7.92744e-05
-1.64546
-0.000118037
-1.64538
-0.000163177
-1.6453
-0.000215658
-1.64521
-0.000276595
-1.64512
-0.000347284
-1.64502
-0.000429211
-1.64492
-0.000524114
-1.64481
-0.00063401
-1.6447
-0.000761236
-1.64457
-0.000908492
-1.64444
-0.0010789
-1.64429
-0.00127608
-1.64414
-0.00150422
-1.64396
-0.00176815
-1.64377
-0.00207346
-1.64356
-0.00242664
-1.64332
-0.00283513
-1.64306
-0.00330757
-1.64277
-0.00385389
-1.64244
-0.00448556
-1.64207
-0.00521581
-1.64165
-0.00605982
-1.64117
-0.00703509
-1.64063
-0.00816164
-1.64002
-0.00946241
-1.63932
-0.0109636
-1.63853
-0.0126948
-1.63763
-0.0146899
-1.63661
-0.0169864
-1.63546
-0.0196264
-1.63416
-0.0226562
-1.6327
-0.0261261
-1.63107
-0.0300891
-1.62927
-0.0345998
-1.62729
-0.0397105
-1.62516
-0.0454688
-0.05192
-1.6229
-1.64243
-0.000148051
-1.64225
-4.22728e-05
-1.64214
-7.49495e-06
-1.64205
-1.09437e-06
-1.64197
-4.44862e-06
-1.64189
-1.24362e-05
-1.64181
-2.36493e-05
-1.64173
-3.78551e-05
-1.64164
-5.52124e-05
-1.64156
-7.60422e-05
-1.64148
-0.000100769
-1.6414
-0.000129925
-1.64131
-0.000164124
-1.64122
-0.000204086
-1.64114
-0.000250648
-1.64105
-0.000304805
-1.64096
-0.000367712
-1.64086
-0.000440709
-1.64077
-0.000525349
-1.64067
-0.000623433
-1.64056
-0.000737054
-1.64046
-0.000868636
-1.64034
-0.00102098
-1.64023
-0.00119734
-1.6401
-0.00140146
-1.63997
-0.0016377
-1.63982
-0.00191108
-1.63967
-0.00222743
-1.6395
-0.00259345
-1.63932
-0.00301692
-1.63912
-0.0035068
-1.6389
-0.00407344
-1.63866
-0.00472876
-1.63839
-0.00548652
-1.63809
-0.00636252
-1.63775
-0.00737492
-1.63736
-0.00854454
-1.63693
-0.00989518
-1.63644
-0.0114539
-1.63588
-0.0132515
-1.63525
-0.0153226
-1.63453
-0.0177058
-1.63371
-0.020444
-1.63279
-0.0235839
-1.63174
-0.0271756
-1.63055
-0.0312717
-1.62923
-0.0359247
-1.62776
-0.0411839
-1.62613
-0.0470921
-0.0536881
-1.62436
-1.64367
0.000107755
-1.64371
-8.45315e-07
-1.64368
-4.14563e-05
-1.64362
-5.75949e-05
-1.64356
-6.82397e-05
-1.64349
-7.8881e-05
-1.64342
-9.13523e-05
-1.64335
-0.000106401
-1.64328
-0.000124488
-1.64321
-0.00014604
-1.64314
-0.000171523
-1.64307
-0.00020148
-1.643
-0.000236545
-1.64292
-0.000277455
-1.64285
-0.000325072
-1.64277
-0.000380405
-1.6427
-0.000444628
-1.64262
-0.000519104
-1.64254
-0.00060541
-1.64246
-0.00070538
-1.64237
-0.000821135
-1.64229
-0.000955136
-1.6422
-0.00111023
-1.64211
-0.0012897
-1.64201
-0.00149738
-1.64191
-0.00173766
-1.6418
-0.00201566
-1.6417
-0.00233728
-1.64158
-0.00270933
-1.64146
-0.00313972
-1.64133
-0.00363754
-1.64119
-0.00421332
-1.64104
-0.00487919
-1.64087
-0.00564915
-1.6407
-0.00653931
-1.6405
-0.00756818
-1.64029
-0.008757
-1.64006
-0.0101301
-1.63979
-0.0117151
-1.6395
-0.0135436
-1.63917
-0.0156509
-1.6388
-0.0180767
-1.63838
-0.0208649
-1.6379
-0.0240636
-1.63735
-0.0277239
-1.63673
-0.0318996
-1.63601
-0.0366447
-1.63518
-0.0420094
-1.63424
-0.048037
-0.0547634
-1.63316
-1.64368
-0.000277625
-1.64351
-0.000173896
-1.64341
-0.000140484
-1.64333
-0.000135089
-1.64326
-0.000139315
-1.64319
-0.00014807
-1.64312
-0.000159949
-1.64306
-0.000174721
-1.64299
-0.000192557
-1.64292
-0.000213796
-1.64285
-0.000238882
-1.64279
-0.00026835
-1.64272
-0.000302831
-1.64265
-0.00034306
-1.64259
-0.000389897
-1.64252
-0.000444342
-1.64246
-0.000507558
-1.6424
-0.000580897
-1.64234
-0.000665923
-1.64228
-0.000764453
-1.64222
-0.000878591
-1.64217
-0.00101077
-1.64211
-0.00116383
-1.64206
-0.00134101
-1.64201
-0.00154612
-1.64197
-0.00178353
-1.64193
-0.00205831
-1.64189
-0.00237632
-1.64185
-0.00274435
-1.64182
-0.00317024
-1.6418
-0.00366306
-1.64178
-0.00423328
-1.64176
-0.00489302
-1.64175
-0.00565623
-1.64175
-0.00653901
-1.64176
-0.0075599
-1.64178
-0.00874021
-1.64181
-0.0101043
-1.64184
-0.0116802
-1.64188
-0.0134996
-1.64194
-0.0155985
-1.642
-0.0180172
-1.64206
-0.0208009
-1.64212
-0.0239988
-1.64218
-0.0276642
-1.64223
-0.0318533
-1.64225
-0.0366232
-1.64223
-0.042028
-1.64216
-0.0481147
-0.0549243
-1.642
-1.64058
-3.47634e-05
-1.64062
-0.000137939
-1.64058
-0.000176991
-1.64052
-0.000193122
-1.64046
-0.0002041
-1.64039
-0.000215037
-1.64032
-0.000227637
-1.64026
-0.000242604
-1.64019
-0.000260391
-1.64012
-0.00028142
-1.64005
-0.000306157
-1.63999
-0.000335141
-1.63992
-0.000368992
-1.63985
-0.000408438
-1.63979
-0.00045432
-1.63973
-0.000507617
-1.63966
-0.000569466
-1.6396
-0.000641184
-1.63955
-0.000724299
-1.63949
-0.000820581
-1.63944
-0.000932081
-1.63939
-0.00106118
-1.63934
-0.00121061
-1.6393
-0.00138358
-1.63926
-0.00158377
-1.63923
-0.00181545
-1.6392
-0.00208357
-1.63918
-0.00239384
-1.63918
-0.00275289
-1.63918
-0.00316839
-1.63919
-0.00364921
-1.63922
-0.00420561
-1.63926
-0.00484947
-1.63932
-0.00559451
-1.63941
-0.00645658
-1.63951
-0.00745402
-1.63964
-0.00860794
-1.63981
-0.00994267
-1.64
-0.0114862
-1.64023
-0.0132705
-1.6405
-0.0153322
-1.6408
-0.0177129
-1.64114
-0.0204594
-1.64152
-0.0236239
-1.64192
-0.0272638
-1.64233
-0.0314409
-1.64273
-0.03622
-1.64309
-0.0416661
-1.64337
-0.0478389
-0.0547831
-1.64351
-1.64477
-0.000387144
-1.64462
-0.000292526
-1.64453
-0.000262989
-1.64447
-0.000259153
-1.64441
-0.000264055
-1.64435
-0.000272974
-1.64429
-0.000284613
-1.64424
-0.000298776
-1.64418
-0.00031564
-1.64413
-0.000335537
-1.64407
-0.000358894
-1.64402
-0.00038622
-1.64397
-0.000418107
-1.64393
-0.000455244
-1.64388
-0.000498427
-1.64384
-0.000548583
-1.64381
-0.000606784
-1.64377
-0.000674274
-1.64374
-0.000752494
-1.64372
-0.000843113
-1.64371
-0.000948065
-1.6437
-0.00106959
-1.6437
-0.00121028
-1.64371
-0.00137315
-1.64373
-0.00156167
-1.64377
-0.00177987
-1.64382
-0.00203243
-1.64389
-0.00232474
-1.64398
-0.00266309
-1.64409
-0.00305471
-1.64423
-0.00350802
-1.6444
-0.00403276
-1.64461
-0.00464021
-1.64486
-0.00534347
-1.64516
-0.00615769
-1.64552
-0.00710044
-1.64593
-0.00819208
-1.64642
-0.00945618
-1.64698
-0.01092
-1.64764
-0.0126151
-1.64839
-0.0145779
-1.64926
-0.0168501
-1.65024
-0.0194796
-1.65134
-0.0225209
-1.65257
-0.0260351
-1.65392
-0.0300893
-1.65538
-0.0347564
-1.65694
-0.0401135
-1.65854
-0.0462352
-0.0531882
-1.66013
-1.63562
-0.00017998
-1.63564
-0.000271544
-1.63559
-0.000306964
-1.63553
-0.000322417
-1.63546
-0.00033316
-1.63539
-0.000343622
-1.63532
-0.000355312
-1.63525
-0.000368889
-1.63518
-0.000384786
-1.63511
-0.000403408
-1.63505
-0.000425188
-1.63498
-0.000450618
-1.63492
-0.000480259
-1.63486
-0.000514758
-1.6348
-0.000554862
-1.63475
-0.000601435
-1.6347
-0.000655477
-1.63466
-0.000718147
-1.63462
-0.000790788
-1.63459
-0.000874955
-1.63456
-0.000972449
-1.63455
-0.00108536
-1.63454
-0.0012161
-1.63455
-0.00136747
-1.63457
-0.00154272
-1.6346
-0.00174561
-1.63465
-0.00198051
-1.63472
-0.00225245
-1.63482
-0.00256731
-1.63494
-0.00293187
-1.6351
-0.00335403
-1.63529
-0.00384293
-1.63552
-0.00440921
-1.6358
-0.00506522
-1.63613
-0.00582533
-1.63652
-0.00670626
-1.63699
-0.0077275
-1.63753
-0.00891177
-1.63817
-0.0102856
-1.6389
-0.01188
-1.63975
-0.0137311
-1.64072
-0.0158813
-1.64182
-0.0183801
-1.64305
-0.0212855
-1.64442
-0.0246645
-1.64592
-0.0285934
-1.64752
-0.0331588
-1.64917
-0.0384608
-1.65079
-0.0446096
-0.0516946
-1.65229
-1.64635
-0.00046578
-1.64623
-0.000390829
-1.64617
-0.000369464
-1.64612
-0.000368509
-1.64608
-0.000374147
-1.64604
-0.000382641
-1.646
-0.000393053
-1.64597
-0.000405319
-1.64593
-0.000419653
-1.6459
-0.000436379
-1.64587
-0.000455882
-1.64584
-0.000478603
-1.64581
-0.000505048
-1.64579
-0.000535794
-1.64578
-0.000571507
-1.64577
-0.000612956
-1.64576
-0.000661028
-1.64576
-0.00071675
-1.64577
-0.000781311
-1.64579
-0.000856088
-1.64582
-0.000942674
-1.64586
-0.00104292
-1.64592
-0.00115895
-1.64599
-0.00129326
-1.64609
-0.00144872
-1.6462
-0.00162864
-1.64635
-0.00183689
-1.64652
-0.00207794
-1.64673
-0.00235698
-1.64698
-0.00268003
-1.64728
-0.00305408
-1.64764
-0.00348727
-1.64806
-0.00398905
-1.64855
-0.00457045
-1.64914
-0.00524433
-1.64982
-0.00602572
-1.65061
-0.00693224
-1.65154
-0.00798456
-1.65262
-0.00920707
-1.65387
-0.0106286
-1.65532
-0.0122833
-1.65699
-0.0142118
-1.6589
-0.016463
-1.66109
-0.0190957
-1.66358
-0.0221805
-1.66637
-0.0258006
-1.66948
-0.0300533
-1.67288
-0.0350588
-1.67652
-0.0409656
-0.0479273
-1.68029
-1.62379
-0.000325248
-1.62378
-0.000402251
-1.62372
-0.000432958
-1.62364
-0.000447535
-1.62355
-0.000457617
-1.62347
-0.000466867
-1.62339
-0.000476648
-1.6233
-0.000487607
-1.62322
-0.000500168
-1.62314
-0.000514701
-1.62307
-0.000531576
-1.623
-0.000551195
-1.62293
-0.000574003
-1.62286
-0.000600509
-1.6228
-0.000631292
-1.62275
-0.000667021
-1.6227
-0.000708467
-1.62266
-0.000756522
-1.62263
-0.000812219
-1.62261
-0.000876752
-1.6226
-0.000951506
-1.62261
-0.00103809
-1.62263
-0.00113835
-1.62267
-0.00125446
-1.62273
-0.00138891
-1.62281
-0.00154459
-1.62292
-0.00172488
-1.62307
-0.00193366
-1.62325
-0.00217549
-1.62347
-0.00245563
-1.62375
-0.00278021
-1.62408
-0.00315639
-1.62447
-0.0035925
-1.62494
-0.00409831
-1.6255
-0.00468526
-1.62616
-0.00536679
-1.62694
-0.00615878
-1.62784
-0.00708004
-1.62889
-0.008153
-1.63012
-0.00940459
-1.63153
-0.0108673
-1.63317
-0.0125805
-1.63504
-0.0145927
-1.63717
-0.0169646
-1.63958
-0.0197722
-1.64227
-0.0231086
-1.64524
-0.0270848
-1.64845
-0.0318482
-1.65179
-0.0376198
-0.0446552
-1.65506
-1.64191
-0.000468873
-1.64189
-0.00043077
-1.6419
-0.000423094
-1.64192
-0.00042599
-1.64194
-0.000431689
-1.64197
-0.000438479
-1.642
-0.000446123
-1.64203
-0.000454782
-1.64207
-0.000464708
-1.64211
-0.000476182
-1.64215
-0.000489499
-1.6422
-0.000504983
-1.64225
-0.000522991
-1.6423
-0.000543926
-1.64237
-0.00056825
-1.64244
-0.000596491
-1.64252
-0.000629259
-1.64261
-0.000667258
-1.64271
-0.000711304
-1.64282
-0.00076234
-1.64295
-0.000821456
-1.6431
-0.000889919
-1.64327
-0.000969194
-1.64346
-0.00106098
-1.64368
-0.00116724
-1.64394
-0.00129027
-1.64423
-0.00143272
-1.64457
-0.00159766
-1.64495
-0.00178867
-1.6454
-0.00200991
-1.64591
-0.00226623
-1.64651
-0.00256329
-1.64719
-0.00290768
-1.64798
-0.00330717
-1.6489
-0.00377084
-1.64995
-0.00430944
-1.65118
-0.00493571
-1.65259
-0.00566483
-1.65423
-0.00651506
-1.65613
-0.00750851
-1.65832
-0.0086723
-1.66086
-0.0100399
-1.6638
-0.0116531
-1.6672
-0.0135661
-1.67112
-0.0158505
-1.67563
-0.0185988
-1.68079
-0.0219234
-1.68666
-0.0259774
-1.69324
-0.0310411
-0.0375784
-1.70032
-1.56412
-0.000380773
-1.5641
-0.000453303
-1.56405
-0.000476215
-1.56399
-0.000487252
-1.56392
-0.00049453
-1.56386
-0.000500855
-1.5638
-0.000507236
-1.56374
-0.000514145
-1.56368
-0.000521877
-1.56363
-0.000530672
-1.56358
-0.00054076
-1.56353
-0.000552379
-1.56349
-0.000565787
-1.56345
-0.000581277
-1.56342
-0.000599179
-1.5634
-0.000619873
-1.56338
-0.000643796
-1.56338
-0.000671451
-1.56339
-0.000703424
-1.56341
-0.00074039
-1.56345
-0.000783132
-1.5635
-0.000832557
-1.56358
-0.000889716
-1.56369
-0.000955827
-1.56382
-0.0010323
-1.56399
-0.00112079
-1.5642
-0.00122319
-1.56446
-0.0013417
-1.56477
-0.00147892
-1.56514
-0.00163782
-1.56558
-0.0018219
-1.56611
-0.00203523
-1.56674
-0.00228259
-1.56748
-0.00256958
-1.56834
-0.00290281
-1.56936
-0.00329009
-1.57056
-0.00374076
-1.57196
-0.00426602
-1.57359
-0.00487948
-1.5755
-0.00559789
-1.57773
-0.00644215
-1.58033
-0.00743877
-1.58337
-0.0086219
-1.58689
-0.0100375
-1.59099
-0.0117512
-1.59574
-0.0138568
-1.60118
-0.0164741
-1.6074
-0.0197589
-1.6144
-0.0240415
-0.0300697
-1.62191
-1.52362
-9.2498e-05
-1.52403
-4.33022e-05
-1.52447
-3.42495e-05
-1.52492
-3.27623e-05
-1.52538
-3.34502e-05
-1.52585
-3.47675e-05
-1.52632
-3.64193e-05
-1.5268
-3.84205e-05
-1.52728
-4.08617e-05
-1.52777
-4.38502e-05
-1.52826
-4.75002e-05
-1.52876
-5.1934e-05
-1.52927
-5.7286e-05
-1.52978
-6.37073e-05
-1.53031
-7.13691e-05
-1.53085
-8.04684e-05
-1.5314
-9.12315e-05
-1.53197
-0.00010392
-1.53256
-0.000118837
-1.53316
-0.000136333
-1.53379
-0.000156815
-1.53444
-0.000180752
-1.53512
-0.000208692
-1.53583
-0.000241268
-1.53659
-0.000279215
-1.53739
-0.000323388
-1.53823
-0.000374779
-1.53914
-0.000434542
-1.54012
-0.000504022
-1.54117
-0.000584785
-1.54231
-0.000678664
-1.54356
-0.000787803
-1.54493
-0.00091472
-1.54643
-0.00106238
-1.5481
-0.00123432
-1.54996
-0.00143471
-1.55203
-0.00166861
-1.55435
-0.00194215
-1.55697
-0.00226285
-1.55993
-0.00264018
-1.56328
-0.0030862
-1.56711
-0.00361662
-1.57148
-0.00425228
-1.57649
-0.00502219
-1.58227
-0.00597019
-1.58897
-0.00716422
-1.59674
-0.00869515
-1.60584
-0.0106587
-1.61665
-0.0132396
-0.0172486
-1.62947
-1.2277
-1.22775
-1.22778
-1.22781
-1.22785
-1.22788
-1.22792
-1.22796
-1.228
-1.22804
-1.22809
-1.22814
-1.2282
-1.22826
-1.22833
-1.22841
-1.2285
-1.22861
-1.22873
-1.22886
-1.22902
-1.2292
-1.22941
-1.22965
-1.22993
-1.23025
-1.23063
-1.23106
-1.23157
-1.23215
-1.23283
-1.23362
-1.23453
-1.23559
-1.23683
-1.23826
-1.23993
-1.24187
-1.24414
-1.24678
-1.24986
-1.25348
-1.25773
-1.26275
-1.26873
-1.27589
-1.28458
-1.29524
-1.30848
-1.32573
1.62587
-0.0342497
1.638
-0.0121347
1.64684
-0.00883955
1.65127
-0.00442636
1.65284
-0.00157505
1.65294
-9.96576e-05
1.65225
0.000692141
1.65109
0.00116072
1.64964
0.00144691
1.64802
0.0016192
1.6463
0.00172046
1.64453
0.00177774
1.64272
0.00180709
1.6409
0.00181801
1.63908
0.00181633
1.63728
0.00180576
1.63549
0.00178871
1.63372
0.0017667
1.63198
0.00174072
1.63027
0.00171134
1.62859
0.00167888
1.62695
0.00164344
1.62534
0.00160493
1.62378
0.00156313
1.62226
0.00151769
1.62079
0.00146813
1.61938
0.00141382
1.61803
0.00135393
1.61674
0.00128748
1.61553
0.00121344
1.61439
0.0011306
1.61336
0.00103749
1.61242
0.000932502
1.61161
0.000812347
1.61094
0.000674579
1.61042
0.00051606
1.61009
0.000333106
1.60997
0.000121565
1.61009
-0.000124234
1.6105
-0.000412493
1.61126
-0.000753432
1.61242
-0.00115983
1.61407
-0.00164894
1.61631
-0.00224528
1.6193
-0.00298556
1.62323
-0.00392862
1.6284
-0.00517638
1.63532
-0.00692126
1.64489
-0.00956263
-0.0139726
1.65886
1.57532
-0.0179535
1.5719
-0.00871262
1.5662
-0.00314182
1.56319
-0.00141561
1.56174
-0.000121733
1.56096
0.000679402
1.56059
0.00105645
1.56052
0.00123021
1.56066
0.00131316
1.56093
0.00134686
1.5613
0.00135225
1.56173
0.0013423
1.56222
0.00132428
1.56273
0.00130188
1.56327
0.00127682
1.56383
0.00124991
1.5644
0.00122137
1.56497
0.00119114
1.56555
0.0011589
1.56614
0.0011242
1.56673
0.00108647
1.56733
0.001045
1.56794
0.000998984
1.56855
0.000947465
1.56918
0.000889357
1.56983
0.00082342
1.57049
0.000748159
1.57118
0.000661653
1.57191
0.000561577
1.57268
0.000445839
1.5735
0.000312055
1.57438
0.000156634
1.57533
-2.4616e-05
1.57638
-0.000236155
1.57754
-0.000483085
1.57883
-0.000771757
1.58027
-0.00110988
1.5819
-0.0015068
1.58375
-0.00197472
1.58587
-0.0025286
1.5883
-0.00318653
1.59111
-0.00397235
1.59438
-0.00491768
1.5982
-0.00606575
1.60269
-0.00747776
1.60801
-0.00924373
1.61433
-0.0115011
1.62188
-0.0144664
1.6308
-0.0184888
-0.0241166
1.64095
1.57763
-0.00396691
1.573
-0.00408413
1.57217
-0.00230633
1.57223
-0.00147708
1.57309
-0.000985805
1.57428
-0.000505059
1.57545
-0.000120411
1.57653
0.000155078
1.57749
0.000356697
1.57833
0.000506967
1.57906
0.000617656
1.5797
0.000697665
1.58027
0.000754153
1.58078
0.000792376
1.58124
0.000816032
1.58167
0.000827712
1.58206
0.000829195
1.58243
0.000821636
1.58278
0.000805689
1.58312
0.000781604
1.58346
0.000749291
1.5838
0.000708346
1.58414
0.000658073
1.58449
0.000597476
1.58485
0.000525353
1.58524
0.000440268
1.58564
0.000340466
1.58608
0.000223295
1.58656
8.55864e-05
1.58708
-7.59753e-05
1.58766
-0.00026537
1.5883
-0.00048733
1.58902
-0.000747497
1.58984
-0.00105143
1.59076
-0.00140729
1.59182
-0.00182441
1.59302
-0.00231399
1.5944
-0.00288965
1.596
-0.00356815
1.59784
-0.00437003
1.59997
-0.00532055
1.60245
-0.00645184
1.60534
-0.00780542
1.60871
-0.00943596
1.61265
-0.011417
1.61725
-0.0138496
1.62263
-0.0168747
1.62885
-0.0206904
1.63593
-0.0255712
-0.031875
1.64369
1.59001
-0.00235607
1.58927
-0.00334332
1.58952
-0.00256435
1.58974
-0.00169093
1.5898
-0.00104513
1.58979
-0.000497098
1.58972
-4.90454e-05
1.58959
0.000280047
1.58944
0.000508915
1.58928
0.000665434
1.58913
0.000769308
1.58899
0.000834216
1.58888
0.000870408
1.58878
0.000885391
1.58872
0.000884386
1.58867
0.000870891
1.58865
0.000847159
1.58866
0.000814527
1.58869
0.00077363
1.58875
0.00072456
1.58883
0.000666963
1.58894
0.000600086
1.58908
0.000522774
1.58924
0.000433366
1.58944
0.00033012
1.58967
0.000211106
1.58993
7.35422e-05
1.59024
-8.56324e-05
1.5906
-0.000269896
1.591
-0.000483859
1.59147
-0.000733133
1.59201
-0.00102368
1.59262
-0.00136256
1.59333
-0.00175791
1.59414
-0.00221983
1.59508
-0.00276023
1.59616
-0.00339332
1.5974
-0.00413612
1.59885
-0.0050092
1.60051
-0.00603754
1.60244
-0.00725165
1.60468
-0.00868929
1.60727
-0.0103978
1.61027
-0.012437
1.61374
-0.0148835
1.61773
-0.0178361
1.62228
-0.0214219
1.62739
-0.0258022
1.63299
-0.0311734
-0.0377525
1.63887
1.59022
-0.000962887
1.58845
-0.00156465
1.58719
-0.00131323
1.58635
-0.000847006
1.58579
-0.000487359
1.5855
-0.000208409
1.58543
2.08359e-05
1.58552
0.000197112
1.5857
0.000323567
1.58596
0.000411804
1.58625
0.000471801
1.58658
0.0005101
1.58692
0.000531331
1.58726
0.000538916
1.58761
0.000535235
1.58796
0.000521794
1.58831
0.000499426
1.58866
0.000468438
1.589
0.000428707
1.58934
0.000379745
1.58969
0.000320763
1.59004
0.000250638
1.5904
0.000167979
1.59076
7.05671e-05
1.59113
-4.38163e-05
1.59152
-0.000177939
1.59193
-0.000335101
1.59236
-0.000518783
1.59283
-0.000733114
1.59333
-0.00098353
1.59387
-0.0012763
1.59446
-0.0016186
1.59512
-0.00201886
1.59585
-0.00248698
1.59666
-0.00303473
1.59758
-0.00367606
1.59861
-0.00442749
1.59979
-0.00530871
1.60112
-0.0063432
1.60264
-0.00755913
1.60438
-0.00899035
1.60637
-0.0106778
1.60864
-0.0126715
1.61124
-0.0150321
1.61419
-0.0178342
1.61752
-0.0211686
1.62124
-0.0251447
1.62533
-0.0298907
1.62971
-0.0355493
-0.0422646
1.63422
1.59117
-0.000510671
1.59055
-0.000953409
1.59023
-0.000991486
1.59019
-0.000809882
1.5903
-0.000595085
1.59049
-0.000390918
1.5907
-0.00019858
1.59093
-2.88575e-05
1.59114
0.000109746
1.59134
0.000217118
1.59151
0.000296958
1.59167
0.000353104
1.59181
0.000388942
1.59194
0.000407435
1.59207
0.000410998
1.59219
0.000401417
1.59231
0.000379867
1.59243
0.000346962
1.59256
0.000302824
1.59269
0.000247092
1.59283
0.000179148
1.59298
9.7833e-05
1.59315
1.61211e-06
1.59333
-0.000111351
1.59353
-0.000243649
1.59375
-0.000398547
1.594
-0.000579561
1.59427
-0.000790803
1.59457
-0.00103719
1.59491
-0.00132468
1.5953
-0.00166028
1.59573
-0.00205216
1.59622
-0.00250985
1.59678
-0.00304457
1.59741
-0.00366952
1.59814
-0.00440025
1.59897
-0.00525512
1.59991
-0.00625575
1.601
-0.00742772
1.60224
-0.00880126
1.60366
-0.0104121
1.60529
-0.0123028
1.60714
-0.0145234
1.60924
-0.0171333
1.61161
-0.0202022
1.61425
-0.0238112
1.61716
-0.0280521
1.62029
-0.0330258
1.62358
-0.0388347
-0.045571
1.62688
1.59137
-0.000263432
1.59094
-0.000521093
1.59052
-0.000578435
1.5902
-0.000484948
1.58995
-0.000340952
1.58975
-0.000197338
1.58962
-6.69773e-05
1.58955
4.36693e-05
1.58953
0.000130101
1.58955
0.000192259
1.58962
0.000233018
1.58971
0.000255722
1.58984
0.000263229
1.58999
0.000257827
1.59016
0.000241229
1.59035
0.000214565
1.59055
0.000178406
1.59076
0.000132781
1.59099
7.73117e-05
1.59122
1.11884e-05
1.59147
-6.68222e-05
1.59172
-0.000158302
1.59199
-0.000265338
1.59227
-0.000390047
1.59256
-0.00053541
1.59287
-0.00070494
1.59319
-0.000902658
1.59353
-0.00113326
1.5939
-0.00140228
1.59429
-0.00171623
1.59471
-0.00208277
1.59517
-0.00251083
1.59567
-0.00301084
1.59622
-0.00359499
1.59683
-0.00427759
1.59751
-0.00507537
1.59826
-0.00600797
1.5991
-0.00709835
1.60005
-0.00837338
1.60111
-0.00986447
1.60231
-0.0116083
1.60365
-0.0136474
1.60516
-0.0160312
1.60684
-0.0188163
1.60871
-0.0220673
1.61075
-0.0258558
1.61296
-0.03026
1.6153
-0.0353608
1.6177
-0.0412366
-0.0479565
1.62008
1.59149
-0.000139573
1.59126
-0.000289978
1.59103
-0.000348127
1.59087
-0.000323321
1.59079
-0.000259327
1.59078
-0.000187449
1.59083
-0.000118843
1.59093
-5.77855e-05
1.59107
-7.54611e-06
1.59123
3.0325e-05
1.59141
5.60233e-05
1.59159
7.04219e-05
1.59178
7.43672e-05
1.59197
6.85105e-05
1.59216
5.32748e-05
1.59235
2.88139e-05
1.59253
-5.01109e-06
1.59271
-4.86321e-05
1.59289
-0.000102794
1.59307
-0.00016851
1.59325
-0.000247266
1.59343
-0.000340817
1.59362
-0.000451284
1.59381
-0.000581144
1.59401
-0.000733462
1.59422
-0.000911882
1.59443
-0.00112066
1.59467
-0.00136478
1.59491
-0.00165007
1.59518
-0.00198341
1.59547
-0.00237284
1.59579
-0.00282776
1.59614
-0.00335916
1.59652
-0.00397986
1.59695
-0.00470486
1.59742
-0.00555163
1.59796
-0.00654055
1.59855
-0.00769536
1.59922
-0.00904358
1.59998
-0.0106171
1.60082
-0.0124527
1.60177
-0.0145924
1.60282
-0.0170842
1.60398
-0.0199819
1.60526
-0.023345
1.60664
-0.0272377
1.60811
-0.0317274
1.60963
-0.0368805
1.61115
-0.0427579
-0.049408
1.6126
1.59154
-6.24912e-05
1.59138
-0.000133387
1.5912
-0.000166814
1.59104
-0.000162606
1.59092
-0.000136974
1.59084
-0.000104957
1.59079
-7.39202e-05
1.59078
-4.72176e-05
1.5908
-2.71714e-05
1.59085
-1.51532e-05
1.59091
-1.15074e-05
1.591
-1.60273e-05
1.5911
-2.84041e-05
1.59122
-4.8418e-05
1.59135
-7.60114e-05
1.59149
-0.000111344
1.59164
-0.00015483
1.5918
-0.000207111
1.59196
-0.000269143
1.59214
-0.000342177
1.59232
-0.000427815
1.59251
-0.000527984
1.5927
-0.00064499
1.5929
-0.000781554
1.59311
-0.000940913
1.59332
-0.00112688
1.59355
-0.00134394
1.59378
-0.00159729
1.59402
-0.00189302
1.59428
-0.00223828
1.59454
-0.00264139
1.59483
-0.00311206
1.59513
-0.00366161
1.59545
-0.00430325
1.5958
-0.00505233
1.59618
-0.00592672
1.59658
-0.00694714
1.59703
-0.0081376
1.59751
-0.00952583
1.59803
-0.0111437
1.59861
-0.0130276
1.59924
-0.0152187
1.59992
-0.0177636
1.60065
-0.0207133
1.60143
-0.0241237
1.60224
-0.0280535
1.60308
-0.032563
1.60391
-0.0377101
1.6047
-0.0435469
-0.0501163
1.6054
1.59156
-5.03074e-06
1.59144
-1.25246e-05
1.59129
-2.03022e-05
1.59116
-2.85733e-05
1.59106
-3.75466e-05