/*--------------------------------*- C++ -*----------------------------------*\
  =========                 |
  \\      /  F ield         | OpenFOAM: The Open Source CFD Toolbox
   \\    /   O peration     | Website:  https://openfoam.org
    \\  /    A nd           | Version:  8
     \\/     M anipulation  |
\*---------------------------------------------------------------------------*/
FoamFile
{
    version     2.0;
    format      ascii;
    class       volScalarField;
    location    "800";
    object      alphat;
}
// * * * * * * * * * * * * * * * * * * * * * * * * * * * * * * * * * * * * * //

dimensions      [1 -1 -1 0 0 0 0];

internalField   nonuniform List<scalar> 
1200
(
0.800864
0.73481
0.679835
0.633445
0.593829
0.559653
0.529897
0.503794
0.480742
0.460275
0.442026
0.425665
0.410926
0.397594
0.385487
0.374459
0.364405
0.355207
0.346748
0.33892
0.331661
0.324923
0.318657
0.312808
0.307371
0.302357
0.297755
0.293493
0.289506
0.285764
0.282262
0.278993
0.275926
0.272995
0.270166
0.267524
0.265198
0.263287
0.261898
0.26127
0.261271
0.262419
0.264202
0.264833
0.263026
0.258666
0.252422
0.245366
0.238619
0.232961
0.228646
0.225418
0.22277
0.220278
0.217945
0.215518
0.21271
0.20965
0.206323
0.203984
0.465664
0.399891
0.349412
0.309673
0.277709
0.251486
0.229602
0.211111
0.195326
0.181718
0.169857
0.159431
0.1502
0.141939
0.134481
0.12772
0.121561
0.115945
0.110826
0.106157
0.101879
0.0979457
0.0943162
0.0909585
0.0878466
0.0849573
0.0822691
0.0797622
0.0774159
0.0752167
0.0731521
0.0712119
0.0693853
0.067661
0.0660318
0.0645046
0.0631157
0.0620398
0.0621139
0.0661269
0.0765059
0.0879525
0.0950853
0.0971947
0.0957177
0.0921469
0.0874573
0.0821588
0.0764742
0.0705225
0.0645588
0.0591443
0.054991
0.052398
0.0507017
0.0494405
0.0483921
0.0474662
0.0466115
0.0459265
0.465561
0.39923
0.348298
0.308152
0.275823
0.249307
0.2272
0.208515
0.192541
0.178747
0.166731
0.156177
0.146839
0.13852
0.131065
0.124346
0.118263
0.112735
0.107694
0.10308
0.0988412
0.0949346
0.0913229
0.0879752
0.0848655
0.0819715
0.0792713
0.0767437
0.0743721
0.0721441
0.070048
0.0680743
0.0662138
0.064458
0.0628001
0.0612345
0.0597557
0.0583628
0.0571402
0.0564478
0.0573618
0.0606242
0.0647747
0.067767
0.0688789
0.0683579
0.0666937
0.0643141
0.0615309
0.0585726
0.0556494
0.052956
0.0506201
0.0486305
0.0469212
0.0454472
0.0441487
0.0429957
0.04196
0.0410874
0.46556
0.399401
0.348582
0.308506
0.276205
0.24969
0.227579
0.208881
0.192885
0.179065
0.167022
0.156443
0.147083
0.138745
0.131272
0.124538
0.118441
0.112899
0.107844
0.103217
0.0989684
0.0950531
0.091435
0.0880826
0.0849687
0.0820699
0.0793641
0.0768322
0.0744585
0.0722288
0.0701303
0.0681524
0.0662862
0.0645235
0.0628593
0.0612892
0.059807
0.0584041
0.0570721
0.0558276
0.0548006
0.0543206
0.0545316
0.0550658
0.0554509
0.0554452
0.0550079
0.0541861
0.0530462
0.0516566
0.0500969
0.0484564
0.0468216
0.0452755
0.0438684
0.0426212
0.0415604
0.0407038
0.0400594
0.0395614
0.46556
0.399401
0.348551
0.308447
0.276124
0.249594
0.227476
0.208779
0.192788
0.178977
0.166943
0.156372
0.147018
0.138685
0.131215
0.124484
0.118391
0.112853
0.107803
0.103182
0.0989384
0.0950295
0.0914191
0.0880762
0.0849724
0.0820841
0.0793896
0.0768704
0.0745104
0.0722937
0.0702072
0.0682398
0.0663821
0.0646286
0.0629796
0.0614366
0.0599917
0.0586277
0.0573235
0.0560504
0.054843
0.0537281
0.0527462
0.0519121
0.0511925
0.0505455
0.0499419
0.0493528
0.048736
0.0480478
0.0472632
0.0463842
0.0454332
0.0444471
0.0434796
0.0426127
0.0418973
0.0413549
0.0409998
0.0407302
0.46556
0.399404
0.348552
0.308445
0.276119
0.249586
0.227466
0.208768
0.19278
0.178971
0.166939
0.156369
0.147015
0.138681
0.131211
0.124481
0.11839
0.112854
0.107807
0.103189
0.0989497
0.0950465
0.0914441
0.0881117
0.0850224
0.082152
0.0794801
0.0769888
0.0746609
0.0724812
0.070437
0.0685209
0.066735
0.0651033
0.0636643
0.0624194
0.0613235
0.0603122
0.0593137
0.0582518
0.0570744
0.0558436
0.0546581
0.0535589
0.0525523
0.0516198
0.0507147
0.0498603
0.049051
0.0482793
0.047533
0.0468017
0.0460817
0.0453779
0.0447036
0.0440947
0.0436111
0.0432493
0.0430183
0.0427952
0.46556
0.399412
0.348591
0.308516
0.276213
0.249694
0.227584
0.208892
0.1929
0.179083
0.16704
0.15646
0.147097
0.138755
0.131277
0.124539
0.118438
0.112894
0.107839
0.103214
0.0989712
0.0950674
0.0914702
0.0881529
0.0850924
0.0822711
0.0796779
0.0773069
0.0751509
0.0732014
0.0714539
0.0699056
0.0685565
0.0674145
0.0665003
0.065811
0.0652717
0.0647745
0.0642221
0.0635367
0.0626773
0.0616627
0.0605691
0.0594973
0.0584993
0.0575644
0.0566417
0.0555834
0.0544795
0.0533899
0.0523442
0.0513482
0.0504131
0.0495479
0.0487571
0.0480219
0.0473737
0.0467985
0.0462812
0.0457197
0.46556
0.399244
0.34831
0.30816
0.275822
0.249293
0.227187
0.208508
0.192542
0.178757
0.166746
0.156194
0.146855
0.138534
0.131076
0.124356
0.118275
0.11275
0.107713
0.103107
0.0988793
0.0949893
0.0914031
0.0880947
0.085044
0.0822371
0.0796705
0.0773465
0.0752611
0.0734029
0.0717562
0.0703016
0.0690276
0.0680403
0.0677129
0.068138
0.0687665
0.0690994
0.0689896
0.0684981
0.0677544
0.0669089
0.0661009
0.0654112
0.0648195
0.0642209
0.0635064
0.062591
0.0613037
0.0599845
0.0586775
0.0574159
0.0562169
0.0550914
0.0540422
0.053058
0.052055
0.0510041
0.0498199
0.0484454
0.465664
0.399857
0.349322
0.30953
0.27751
0.251262
0.229396
0.210904
0.195075
0.181397
0.169483
0.159025
0.149764
0.141492
0.134046
0.127303
0.121159
0.115571
0.110486
0.105841
0.101581
0.0976614
0.0940466
0.0907069
0.0876157
0.0847735
0.0821494
0.0798187
0.0777513
0.0758829
0.0741741
0.0726708
0.0718822
0.0737014
0.0798969
0.0872752
0.0923113
0.0941644
0.0936606
0.0921454
0.0907969
0.0901926
0.090181
0.090196
0.0896642
0.0882044
0.0856496
0.0819482
0.0771059
0.0716688
0.0669124
0.0630269
0.0598033
0.0570861
0.0547496
0.0527275
0.0510454
0.0498763
0.0494041
0.0492473
0.800857
0.73485
0.679878
0.633491
0.593875
0.559695
0.529959
0.503887
0.480872
0.460432
0.442185
0.425818
0.411072
0.397734
0.385633
0.374639
0.364675
0.355644
0.347417
0.339828
0.332737
0.326055
0.319732
0.313784
0.308299
0.303362
0.298809
0.294626
0.290813
0.287372
0.284274
0.281474
0.27909
0.278251
0.28137
0.287608
0.292573
0.293951
0.291981
0.287647
0.281754
0.274735
0.26677
0.257936
0.248288
0.237928
0.227055
0.21601
0.205195
0.194922
0.185604
0.178258
0.173298
0.170461
0.168945
0.167483
0.165029
0.160725
0.154686
0.147227
0.800874
0.734871
0.679873
0.633457
0.59381
0.559596
0.529834
0.503765
0.480764
0.460326
0.442062
0.425675
0.410912
0.397558
0.385441
0.374421
0.364384
0.355183
0.346713
0.338881
0.331625
0.324893
0.318644
0.312834
0.307413
0.302388
0.297786
0.293556
0.289599
0.285842
0.282293
0.278986
0.2759
0.272967
0.270139
0.267485
0.265126
0.263157
0.261668
0.26087
0.260851
0.261874
0.263695
0.264655
0.263308
0.259353
0.253352
0.246349
0.239501
0.233668
0.22918
0.225832
0.223128
0.2206
0.218222
0.215783
0.212989
0.209942
0.206595
0.204191
0.465665
0.39989
0.349368
0.309589
0.277601
0.251401
0.229568
0.211102
0.195304
0.181643
0.169732
0.159269
0.150014
0.141767
0.134352
0.12763
0.12149
0.1159
0.110806
0.106148
0.101875
0.0979427
0.0943148
0.090959
0.0878468
0.0849549
0.0822638
0.0797547
0.0774105
0.0752131
0.0731489
0.0712081
0.0693811
0.0676565
0.0660266
0.0644959
0.063093
0.061953
0.0617363
0.0648764
0.0743629
0.0861142
0.0940938
0.0969641
0.0959973
0.0927225
0.0881883
0.0829626
0.0772989
0.0713225
0.0652771
0.0597084
0.0553385
0.0525563
0.050775
0.0494738
0.0484052
0.0474671
0.0466013
0.045901
0.465561
0.39926
0.348327
0.308172
0.275827
0.249289
0.227168
0.20849
0.192534
0.178755
0.166738
0.156179
0.146834
0.138509
0.13105
0.124333
0.118255
0.112732
0.107694
0.103082
0.0988441
0.0949377
0.0913269
0.0879805
0.0848701
0.0819724
0.079267
0.0767358
0.0743645
0.0721376
0.0700432
0.0680707
0.0662104
0.0644545
0.0627966
0.061231
0.0597519
0.0583565
0.0571052
0.0562834
0.056847
0.0597611
0.0639355
0.0672311
0.0686833
0.068424
0.0669263
0.0646356
0.0618841
0.0589151
0.0559507
0.0531991
0.050802
0.0487671
0.0470205
0.0455176
0.0441975
0.0430275
0.0419767
0.0410878
0.46556
0.399422
0.348603
0.308521
0.276212
0.249684
0.227561
0.208868
0.192888
0.17908
0.167039
0.156455
0.147087
0.138742
0.131264
0.124529
0.118435
0.112896
0.107844
0.10322
0.0989709
0.0950558
0.0914381
0.0880862
0.0849721
0.0820716
0.0793643
0.0768326
0.0744604
0.0722321
0.070134
0.0681559
0.0662892
0.0645258
0.0628602
0.0612887
0.059805
0.0584012
0.0570688
0.0558174
0.0547477
0.0541645
0.0542796
0.0548059
0.0552603
0.0553519
0.0550059
0.0542554
0.0531641
0.0518015
0.0502505
0.0486054
0.0469576
0.0453907
0.0439647
0.0426977
0.041615
0.0407347
0.0400666
0.0395512
0.465561
0.399418
0.348571
0.308465
0.276138
0.249598
0.227466
0.208769
0.19279
0.178989
0.166956
0.156381
0.14702
0.138681
0.131208
0.124477
0.118386
0.112851
0.107804
0.103184
0.0989408
0.0950323
0.0914223
0.0880798
0.0849764
0.0820877
0.079393
0.0768744
0.0745149
0.0722984
0.0702115
0.0682435
0.0663853
0.0646319
0.0629841
0.061443
0.0599991
0.0586342
0.0573253
0.0560509
0.0548441
0.0537286
0.0527348
0.0518801
0.051146
0.050497
0.0499026
0.0493307
0.0487354
0.048069
0.0473032
0.0464385
0.0454975
0.0445165
0.0435457
0.0426639
0.0419265
0.0413582
0.0409766
0.0406919
0.46556
0.399413
0.348566
0.308459
0.276131
0.249592
0.22746
0.208762
0.192782
0.178981
0.166949
0.156375
0.147016
0.138677
0.131206
0.124476
0.118386
0.112853
0.107808
0.103191
0.0989522
0.0950494
0.0914476
0.0881162
0.0850278
0.0821581
0.0794872
0.076997
0.0746702
0.0724914
0.0704485
0.0685345
0.0667534
0.0651332
0.0637119
0.062484
0.0613986
0.0603879
0.0593769
0.0582849
0.0570762
0.0558285
0.0546522
0.0535587
0.0525473
0.0516132
0.0507108
0.0498565
0.0490463
0.0482737
0.0475279
0.0467984
0.0460805
0.045378
0.0447028
0.0440851
0.0435886
0.0432119
0.0429665
0.0427426
0.46556
0.39942
0.348608
0.308534
0.276232
0.249711
0.227588
0.208891
0.192905
0.179094
0.167052
0.156468
0.147099
0.138751
0.13127
0.124532
0.118434
0.112892
0.107839
0.103216
0.0989737
0.0950705
0.0914746
0.0881593
0.0851018
0.0822846
0.0796977
0.0773356
0.0751911
0.0732557
0.0715249
0.0699962
0.0686698
0.067555
0.0666711
0.0660056
0.0654755
0.0649716
0.0643969
0.063675
0.06277
0.0617101
0.0605774
0.0594875
0.0584854
0.0575461
0.0566148
0.0555492
0.0544438
0.0533548
0.0523109
0.0513254
0.0504033
0.0495466
0.048759
0.0480307
0.0473732
0.0467919
0.0462751
0.0457308
0.46556
0.399241
0.348314
0.308165
0.275829
0.249302
0.227187
0.208506
0.192545
0.178764
0.166754
0.156198
0.146855
0.13853
0.131072
0.124353
0.118273
0.11275
0.107715
0.103109
0.098882
0.0949926
0.0914078
0.0881017
0.0850547
0.0822544
0.0796985
0.0773906
0.0753269
0.0734943
0.0718751
0.0704483
0.0692028
0.0682559
0.0679736
0.0684095
0.0690177
0.0693193
0.0691762
0.0686516
0.0678783
0.0670082
0.0661828
0.0654796
0.0648747
0.0642632
0.0635413
0.0626424
0.0613348
0.0599978
0.0586832
0.0574224
0.0562295
0.0551119
0.0540707
0.0530958
0.0521147
0.0510889
0.0499436
0.0486225
0.465663
0.399867
0.349363
0.309598
0.277599
0.251343
0.229432
0.210908
0.195082
0.181422
0.169509
0.159024
0.149731
0.141441
0.133992
0.127256
0.121124
0.115555
0.110478
0.105836
0.101577
0.0976577
0.0940435
0.0907045
0.0876138
0.0847476
0.0821044
0.0797741
0.0777096
0.0758432
0.0741647
0.0727712
0.0719717
0.0733847
0.0790637
0.0863952
0.0917376
0.093942
0.0936681
0.0922243
0.0908347
0.0901632
0.0901276
0.0901802
0.0897315
0.0883749
0.0859264
0.08233
0.0775795
0.072129
0.0672619
0.0632956
0.060015
0.0572565
0.0548885
0.0528376
0.051119
0.0498962
0.0493594
0.0491743
0.800857
0.734853
0.679907
0.633525
0.593911
0.559732
0.529978
0.503897
0.48089
0.46046
0.442213
0.425835
0.411072
0.397719
0.385612
0.374623
0.364665
0.355628
0.347396
0.339798
0.332696
0.326
0.319662
0.313691
0.308159
0.303125
0.298666
0.294562
0.290792
0.287367
0.284275
0.281478
0.279063
0.278007
0.280693
0.286802
0.292069
0.293869
0.292245
0.288149
0.282412
0.2755
0.267613
0.258838
0.249232
0.238893
0.228019
0.216948
0.206084
0.195753
0.186345
0.178857
0.173766
0.170828
0.169259
0.167804
0.165409
0.161193
0.155253
0.147897
)
;

boundaryField
{
    wall
    {
        type            compressible::alphatJayatillekeWallFunction;
        Prt             0.85;
        value           uniform 0;
    }
    inlet
    {
        type            calculated;
        value           uniform 37.903;
    }
    outlet
    {
        type            calculated;
        value           nonuniform List<scalar> 
20
(
0.203984
0.0459266
0.0410874
0.0395614
0.0407304
0.0427955
0.0457202
0.048446
0.0492476
0.147227
0.204191
0.0459011
0.0410878
0.0395513
0.040692
0.0427429
0.0457314
0.0486231
0.0491746
0.147897
)
;
    }
    heatWall
    {
        type            compressible::alphatJayatillekeWallFunction;
        Prt             0.85;
        value           nonuniform List<scalar> 
240
(
0
0
0
0
0
0
0
0
0.0602356
0.0602396
0.0568643
0.0568682
0.0539279
0.0539296
0.0513501
0.0513511
0.0490716
0.0490737
0.0470458
0.0470489
0.0452354
0.0452383
0.04361
0.0436116
0.0421443
0.042144
0.0408174
0.0408156
0.0396128
0.0396103
0.0385185
0.0385164
0.0375268
0.0375255
0.0366289
0.0366272
0.0358105
0.0358085
0.0350531
0.0350503
0.0343429
0.0343389
0.0336715
0.0336661
0.0330346
0.0330277
0.0324348
0.0324257
0.0318829
0.0318688
0.0313881
0.0313639
0.0309329
0.0309181
0.0305154
0.0305087
0.0301358
0.0301336
0.0297943
0.0297937
0.0294869
0.029487
0.0292087
0.029209
0.0289781
0.028974
0.0289382
0.0289074
0.0293359
0.0292597
0.0300185
0.0299342
0.0305221
0.0304726
0.0306357
0.0306306
0.0304031
0.0304334
0.0299331
0.0299872
0.0293096
0.0293792
0.0285773
0.0286575
0.0277518
0.0278397
0.0268393
0.026933
0.0258461
0.0259436
0.0247828
0.0248823
0.0236697
0.0237689
0.0225404
0.0226368
0.0214356
0.0215269
0.0203884
0.0204737
0.019447
0.0195222
0.0187137
0.0187744
0.0182244
0.0182717
0.0179492
0.0179862
0.0178051
0.0178369
0.0176586
0.0176915
0.0174057
0.0174449
0.0169522
0.0170009
0.016324
0.0163834
0.0155266
0.015597
0
0
0
0
0
0
0.0641336
0.0641345
0.0602312
0.0602289
0.0568603
0.056854
0.0539215
0.0539151
0.0513402
0.0513379
0.0490577
0.0490608
0.0470295
0.0470349
0.0452193
0.0452228
0.0435947
0.0435953
0.0421297
0.0421278
0.0408033
0.0407992
0.0395977
0.0395927
0.038499
0.0384949
0.0374968
0.0374946
0.0365795
0.0365772
0.0357348
0.0357316
0.034952
0.0349484
0.0342252
0.0342217
0.0335499
0.0335472
0.0329216
0.0329209
0.0323352
0.0323384
0.0317918
0.0317955
0.031291
0.0312932
0.0308305
0.0308329
0.0304033
0.0304094
0.0300038
0.0300133
0.0296295
0.0296373
0.0292798
0.0292828
0.0289537
0.0289527
0.0286474
0.0286445
0.0283542
0.0283512
0.028072
0.0280689
0.027811
0.0278063
0.0275842
0.0275757
0.0274022
0.0273872
0.0272767
0.0272512
0.0272214
0.0271861
0.0272428
0.0271989
0.0273877
0.0273305
0.0275682
0.0275205
0.0275948
0.0275855
0.0273577
0.0273962
0.0268674
0.026945
0.0262054
0.026304
0.0254837
0.0255843
0.0248109
0.0248991
0.0242573
0.0243271
0.0238398
0.0238923
0.0235264
0.0235675
0.023264
0.0233001
0.0230167
0.0230481
0.0227829
0.0228099
0.0225338
0.02256
0.0222439
0.0222714
0.0219309
0.0219591
0.0215957
0.0216209
0.0213741
0.021392
)
;
    }
}


// ************************************************************************* //
