/*--------------------------------*- C++ -*----------------------------------*\
  =========                 |
  \\      /  F ield         | OpenFOAM: The Open Source CFD Toolbox
   \\    /   O peration     | Website:  https://openfoam.org
    \\  /    A nd           | Version:  8
     \\/     M anipulation  |
\*---------------------------------------------------------------------------*/
FoamFile
{
    version     2.0;
    format      ascii;
    class       volScalarField;
    location    "100";
    object      alphat;
}
// * * * * * * * * * * * * * * * * * * * * * * * * * * * * * * * * * * * * * //

dimensions      [1 -1 -1 0 0 0 0];

internalField   nonuniform List<scalar> 
8400
(
0.0289182
0.0275414
0.0281457
0.0294972
0.0309374
0.0319681
0.0327737
0.0335158
0.0342748
0.035081
0.0359395
0.0368442
0.0367895
0.0355326
0.033238
0.0302529
0.0272166
0.0250162
0.0236601
0.0223506
0.0210509
0.0199905
0.019385
0.0192688
0.0194321
0.0197452
0.0200722
0.0203513
0.0205544
0.0206752
0.0207198
0.020698
0.0206207
0.0205344
0.0204382
0.0203348
0.0202237
0.0201024
0.0199707
0.0198309
0.0196808
0.0195201
0.0193508
0.019173
0.0189855
0.0187896
0.0185862
0.0183754
0.0181583
0.0179355
0.0308075
0.0275332
0.0291572
0.0328606
0.0368955
0.0400717
0.0427026
0.0450585
0.0472769
0.049338
0.0510832
0.0522089
0.0512146
0.0490548
0.0461319
0.0423861
0.0380712
0.0346243
0.0327827
0.0303146
0.0270432
0.0232629
0.0195431
0.0172959
0.015746
0.0149239
0.0146152
0.0145305
0.0145682
0.0146768
0.0148273
0.0150048
0.0152017
0.0153534
0.0154685
0.0155581
0.0156258
0.0156771
0.0157169
0.015745
0.015764
0.0157778
0.0157857
0.0157887
0.0157878
0.0157835
0.0157763
0.0157672
0.0157564
0.0157435
0.0296825
0.0302028
0.0351296
0.0389985
0.0425229
0.0464277
0.0500904
0.053465
0.0565434
0.0591596
0.0605079
0.0581177
0.0567604
0.0556272
0.0542173
0.0521497
0.0492239
0.0463059
0.0451583
0.0427537
0.0390188
0.0339157
0.0266642
0.0230287
0.0196308
0.0173343
0.0164372
0.015993
0.0158064
0.0157818
0.0158659
0.0160343
0.0162607
0.0164855
0.0167213
0.0169655
0.0172162
0.0174732
0.0177335
0.0179946
0.0182562
0.0185175
0.0187749
0.0190272
0.0192723
0.019507
0.01973
0.0199388
0.0201295
0.0202983
0.0611578
0.0603688
0.0604232
0.0597871
0.0588458
0.0579754
0.0572972
0.0568716
0.0567478
0.0568546
0.0564427
0.0561057
0.055999
0.0560314
0.0560404
0.055926
0.0561883
0.0558695
0.0555673
0.0537618
0.0512109
0.0479587
0.0344345
0.0312158
0.0259487
0.0207014
0.0191466
0.0184085
0.0181502
0.0180947
0.0181866
0.0183918
0.0186023
0.0188845
0.0192091
0.0195649
0.0199442
0.0203384
0.0207428
0.0211545
0.0215678
0.0219774
0.0223799
0.0227733
0.0231543
0.0235187
0.0238645
0.0241885
0.0244868
0.0247562
0.061159
0.0610343
0.0609089
0.0607267
0.060454
0.0601123
0.0597532
0.0594324
0.0591976
0.059065
0.0589956
0.0589803
0.0588874
0.0587529
0.0586412
0.0585462
0.0584819
0.0583353
0.0581275
0.057865
0.058105
0.0693832
0.0409058
0.0424413
0.037228
0.0248164
0.0221808
0.0205806
0.0203264
0.0203013
0.0204193
0.0206418
0.0209009
0.0212343
0.0216234
0.0220527
0.0225124
0.0229927
0.0234859
0.0239841
0.0244804
0.0249712
0.0254518
0.0259171
0.0263658
0.026795
0.0272007
0.0275807
0.0279326
0.028254
0.0611533
0.061056
0.0609535
0.0608399
0.0607065
0.0605462
0.0603655
0.0601765
0.0599967
0.0598375
0.0596988
0.0595751
0.0594554
0.0593313
0.0591984
0.0590495
0.0588801
0.0586741
0.0584344
0.0581573
0.0577783
0.0567032
0.0565406
0.062471
0.0669571
0.0319363
0.0277973
0.0223715
0.0219962
0.0220965
0.0223118
0.0224799
0.0227852
0.0231674
0.0236071
0.0240866
0.024596
0.0251258
0.025663
0.0261989
0.0267284
0.0272469
0.0277486
0.028229
0.0286869
0.029119
0.0295218
0.0298964
0.0302404
0.0305519
0.0611426
0.0610347
0.0609252
0.0608134
0.0606989
0.0605777
0.0604479
0.0603107
0.0601683
0.0600243
0.0598809
0.0597388
0.0595949
0.059448
0.0592944
0.0591295
0.058945
0.058734
0.058487
0.0581936
0.057825
0.057287
0.0567956
0.056275
0.0517825
0.068645
0.0508
0.0251538
0.0229677
0.0232481
0.0234657
0.0237592
0.0241341
0.0245666
0.0250462
0.0255643
0.0261026
0.026649
0.0271928
0.0277284
0.0282496
0.0287482
0.0292203
0.0296623
0.0300714
0.0304458
0.0307843
0.0310889
0.0313583
0.0315937
0.0611276
0.0610003
0.0608733
0.0607469
0.0606217
0.060497
0.0603713
0.0602429
0.0601106
0.0599746
0.0598343
0.0596899
0.0595433
0.0593907
0.0592332
0.0590662
0.0588843
0.0586776
0.0584342
0.0581448
0.0577912
0.0573442
0.056837
0.0561831
0.0546403
0.054494
0.0480357
0.0814352
0.0236129
0.023704
0.0240216
0.0244522
0.0249196
0.0254182
0.0259453
0.0264916
0.0270371
0.0275785
0.0281109
0.0286203
0.0290979
0.029541
0.029947
0.030308
0.0306221
0.0308923
0.0311163
0.0312945
0.031429
0.0315255
0.0611059
0.0609507
0.0607957
0.0606447
0.060498
0.0603556
0.0602176
0.0600797
0.0599426
0.059803
0.059663
0.0595191
0.0593734
0.0592249
0.0590714
0.0589107
0.0587359
0.0585383
0.0583063
0.0580262
0.057684
0.0572657
0.0567724
0.0561488
0.0552024
0.0542087
0.0514018
0.0500023
0.0421676
0.0467552
0.0240945
0.0246004
0.0251884
0.025772
0.0263462
0.0269124
0.0274649
0.0280013
0.0285118
0.0289815
0.0294062
0.0297834
0.0301084
0.0303737
0.030579
0.0307253
0.0308062
0.0308264
0.0307923
0.0307083
0.0610721
0.0608719
0.0606761
0.060491
0.0603128
0.0601445
0.0599828
0.0598306
0.0596823
0.0595374
0.0593943
0.0592538
0.0591135
0.058973
0.0588302
0.0586825
0.05852
0.0583343
0.0581136
0.0578436
0.0575122
0.0571068
0.0566235
0.0560303
0.0552553
0.0542453
0.0524145
0.0501366
0.0454324
0.0409383
0.0351364
0.0256271
0.0249981
0.0256652
0.0262954
0.026889
0.0274615
0.0280014
0.0284937
0.0289365
0.0293289
0.0296601
0.0299241
0.0301159
0.0302326
0.0302737
0.0302319
0.0301157
0.0299294
0.0296739
0.0610181
0.0607373
0.0604775
0.0602405
0.0600206
0.0598221
0.0596405
0.0594715
0.0593174
0.0591706
0.0590307
0.0588976
0.0587703
0.0586456
0.0585204
0.0583898
0.0582441
0.0580732
0.0578635
0.0576017
0.0572761
0.0568782
0.0563994
0.0558249
0.0551167
0.0541809
0.052742
0.0506501
0.0472789
0.0430555
0.0377392
0.0309934
0.0269915
0.025645
0.0257671
0.0264649
0.0270636
0.0276133
0.0281103
0.0285574
0.0289506
0.0292701
0.0295199
0.0296988
0.0297822
0.029778
0.0296883
0.0295142
0.0292561
0.0289195
0.0609163
0.060473
0.0601119
0.0598155
0.0595605
0.0593408
0.0591481
0.0589749
0.0588265
0.0586912
0.0585698
0.0584577
0.0583527
0.0582535
0.0581528
0.0580429
0.0579154
0.0577567
0.0575543
0.0572968
0.0569727
0.0565759
0.0560995
0.0555329
0.0548579
0.0539872
0.0527529
0.0509509
0.048298
0.0447558
0.0402832
0.0350539
0.0305534
0.0275332
0.026246
0.0261658
0.0265101
0.0269865
0.027478
0.0279342
0.0283439
0.028688
0.0289622
0.0291669
0.0292805
0.0293061
0.0292494
0.0291016
0.0288629
0.0285445
0.0603905
0.0598512
0.0594551
0.0591454
0.0588888
0.0586809
0.0585074
0.0583571
0.0582355
0.0581294
0.0580399
0.0579577
0.0578856
0.0578137
0.0577399
0.0576457
0.0575324
0.0573805
0.0571796
0.0569179
0.0565911
0.0561907
0.0557141
0.0551526
0.0544952
0.0536751
0.0525718
0.0510142
0.0488297
0.0459216
0.0422966
0.0381605
0.0341673
0.0308222
0.0285003
0.0272373
0.0267371
0.0267041
0.0269193
0.0272421
0.0276005
0.0279474
0.0282539
0.0285053
0.0286892
0.0287975
0.0288245
0.0287655
0.0286237
0.0284011
0.059424
0.0589198
0.0585744
0.0583183
0.0581164
0.0579608
0.0578386
0.0577382
0.0576576
0.0575899
0.0575337
0.0574815
0.0574305
0.0573741
0.0573054
0.057213
0.0570935
0.0569325
0.0567208
0.0564508
0.0561411
0.0557533
0.0552266
0.0546704
0.0540269
0.053247
0.0522383
0.0508743
0.0490413
0.046673
0.0437984
0.0405813
0.0373522
0.0343924
0.0319119
0.0300149
0.0286831
0.0278394
0.027384
0.0272135
0.0272407
0.0273871
0.0275916
0.0278136
0.0280239
0.0281981
0.0283186
0.0283759
0.0283669
0.0282873
0.0582443
0.0579036
0.0576791
0.0575188
0.0573995
0.0573129
0.057246
0.0571933
0.0571514
0.0571116
0.0570746
0.0570341
0.0569844
0.0569212
0.0568376
0.0567261
0.0565811
0.0563929
0.0561557
0.0558707
0.0555397
0.0551316
0.0546504
0.0541849
0.0534439
0.0526972
0.0517675
0.0505663
0.0490241
0.0471135
0.0448766
0.0424357
0.0399715
0.0376301
0.0355057
0.0336457
0.032058
0.0307395
0.0296864
0.0288865
0.0283227
0.027964
0.0277724
0.0277085
0.0277323
0.0278051
0.0278962
0.0279828
0.0280478
0.028077
0.0571667
0.0570012
0.056893
0.0568184
0.056767
0.0567288
0.0566996
0.0566735
0.0566475
0.056617
0.0565778
0.0565271
0.0564614
0.0563749
0.0562623
0.0561209
0.0559421
0.0557216
0.0554563
0.0551467
0.0547873
0.0543703
0.0539099
0.0534402
0.0529038
0.05201
0.051157
0.0501046
0.0488158
0.0472984
0.0456003
0.0438023
0.0420037
0.0402758
0.0386534
0.0371485
0.0357552
0.0344629
0.0332698
0.0321793
0.0312045
0.0303628
0.029668
0.029124
0.028722
0.0284431
0.0282646
0.0281619
0.0281106
0.0280879
0.0562448
0.0561871
0.0561498
0.0561246
0.0561067
0.0560913
0.0560738
0.0560517
0.0560219
0.0559809
0.055926
0.0558538
0.0557605
0.0556429
0.0554975
0.0553206
0.0551077
0.0548563
0.0545638
0.05423
0.0538517
0.0534329
0.0529799
0.0524974
0.0520624
0.051312
0.0503927
0.0494799
0.0484316
0.0472586
0.0460046
0.0447229
0.0434604
0.042244
0.0410837
0.0399808
0.0389237
0.0378932
0.0368766
0.0358673
0.0348668
0.0338891
0.032956
0.0320902
0.0313126
0.0306382
0.0300737
0.0296164
0.0292567
0.0289811
0.0552423
0.0552301
0.0552217
0.0552138
0.055205
0.0551914
0.0551707
0.0551405
0.0550971
0.0550388
0.0549629
0.0548658
0.0547455
0.0545988
0.0544237
0.0542164
0.0539744
0.0536978
0.0533841
0.0530343
0.0526485
0.0522316
0.0517887
0.0513193
0.0508914
0.0504992
0.0494094
0.0486571
0.0478398
0.0469705
0.0460816
0.0452003
0.0443399
0.0435102
0.0427146
0.0419447
0.0411874
0.0404295
0.0396592
0.0388681
0.0380483
0.0372002
0.0363318
0.0354555
0.0345896
0.0337545
0.0329693
0.0322484
0.0316016
0.0310341
0.0537144
0.0537175
0.0537193
0.0537182
0.0537128
0.0536998
0.0536761
0.0536406
0.0535893
0.0535199
0.0534307
0.0533175
0.05318
0.0530148
0.0528196
0.0525934
0.0523343
0.0520431
0.0517192
0.051363
0.0509772
0.0505712
0.0501543
0.049734
0.049319
0.0493049
0.0480002
0.0474874
0.0469062
0.0463127
0.0457282
0.0451562
0.044597
0.0440541
0.0435251
0.0429985
0.042466
0.0419242
0.0413657
0.040784
0.0401725
0.0395272
0.0388488
0.0381404
0.0374094
0.0366655
0.0359202
0.0351858
0.0344746
0.0337972
0.059928
0.0595502
0.0591757
0.0587941
0.0584042
0.058005
0.0575954
0.057174
0.0567386
0.0562886
0.0558229
0.0553388
0.0548358
0.0543137
0.0537709
0.0532076
0.0526244
0.0520227
0.0514056
0.0507753
0.0501362
0.0494985
0.0488744
0.0482801
0.0476452
0.0471795
0.045981
0.0457486
0.0456755
0.0456732
0.0457149
0.045788
0.0458866
0.0460022
0.0461246
0.0462451
0.0463572
0.0464558
0.0465325
0.0465796
0.0465917
0.0465641
0.0464944
0.0463822
0.0462291
0.0460385
0.0458161
0.045569
0.0453032
0.0450213
0.00545296
0.00546667
0.0055024
0.00545823
0.00538971
0.00533881
0.00530964
0.00528909
0.00526777
0.00524422
0.0052205
0.00519816
0.00517743
0.00515788
0.0051391
0.00512074
0.00510253
0.00508419
0.00506559
0.00504672
0.00502756
0.00499084
0.00496187
0.0049368
0.00491375
0.00489186
0.00487073
0.00485021
0.00483875
0.00482091
0.00480018
0.00477845
0.00475664
0.00473518
0.00471428
0.00469399
0.00467434
0.00465534
0.00463707
0.00461966
0.004603
0.00458714
0.00457211
0.00455771
0.00454364
0.00452968
0.00451545
0.00450068
0.00448504
0.00446763
0.00536117
0.00512785
0.00502794
0.00496781
0.00489457
0.00480234
0.00470399
0.00461059
0.00452498
0.00444558
0.00437064
0.00429956
0.00423236
0.00416883
0.00410835
0.00405008
0.00399334
0.00393777
0.00388328
0.00382963
0.0037781
0.0160593
0.0161138
0.0161127
0.0160711
0.0160044
0.0159253
0.0158427
0.0157074
0.0156254
0.0155904
0.0155858
0.0155949
0.0156048
0.0156072
0.0155977
0.0155755
0.0155418
0.0154993
0.0154511
0.0154012
0.0153511
0.0153011
0.0152508
0.0151991
0.0151457
0.0150901
0.0150314
0.0149699
0.0149038
0.00542489
0.00527009
0.00511683
0.00499893
0.00489753
0.00479825
0.00469846
0.00460115
0.00450872
0.00442156
0.0043391
0.00426077
0.00418621
0.00411501
0.00404665
0.00398055
0.00391625
0.00385347
0.00379219
0.0159347
0.0158119
0.0156936
0.0155768
0.0154609
0.0153464
0.0152337
0.015123
0.0150144
0.0149067
0.0148028
0.0147024
0.0146046
0.0145084
0.0144131
0.014318
0.0142228
0.0141277
0.0140334
0.0139408
0.0138508
0.013764
0.0136807
0.0136002
0.013522
0.0134454
0.0133691
0.0132921
0.0132142
0.0131361
0.0130609
0.00539461
0.00528775
0.0051532
0.0050259
0.00491218
0.00480743
0.00470723
0.00461051
0.00451789
0.00442993
0.00434661
0.00426759
0.0041924
0.00412053
0.00405143
0.00398458
0.00391958
0.00385614
0.00379423
0.0159525
0.0158259
0.0156904
0.0155517
0.0154152
0.0152837
0.0151583
0.0150386
0.0149234
0.0148112
0.0147004
0.0145896
0.0144781
0.0143653
0.0142511
0.014136
0.0140205
0.0139054
0.0137919
0.0136807
0.0135729
0.013469
0.013369
0.0132721
0.0131774
0.0130845
0.012993
0.0129015
0.0128093
0.0127154
0.0126222
0.00537568
0.00526796
0.0051512
0.00503102
0.00491611
0.00480865
0.00470731
0.00461068
0.00451836
0.00443047
0.00434705
0.00426789
0.00419258
0.00412056
0.00405128
0.00398423
0.00391903
0.00385537
0.00379314
0.0159271
0.0158027
0.0156774
0.0155519
0.0154274
0.0153048
0.0151843
0.0150661
0.0149497
0.0148343
0.0147192
0.0146033
0.0144863
0.0143678
0.0142481
0.0141274
0.0140065
0.0138863
0.0137679
0.0136522
0.0135403
0.0134323
0.0133282
0.0132275
0.0131292
0.0130321
0.0129363
0.0128413
0.0127469
0.0126515
0.0125552
0.00537722
0.00525646
0.00514297
0.00502924
0.00491767
0.00481077
0.00470927
0.00461279
0.00452093
0.00443348
0.00435037
0.00427135
0.00419604
0.00412392
0.00405447
0.00398718
0.00392168
0.00385765
0.00379391
0.00365696
0.0154764
0.0154626
0.0154067
0.0153245
0.0152272
0.0151221
0.0150136
0.0149041
0.0147943
0.0146839
0.0145725
0.0144596
0.0143448
0.0142283
0.0141103
0.0139916
0.0138731
0.0137559
0.0136412
0.0135301
0.013423
0.0133197
0.0132193
0.0131215
0.0130251
0.0129292
0.0128333
0.0127377
0.0126419
0.0125453
0.00538365
0.00525764
0.00514069
0.00502801
0.00491837
0.00481244
0.00471103
0.00461444
0.00452257
0.00443522
0.00435215
0.00427306
0.00419756
0.00412515
0.00405533
0.00398763
0.00392164
0.00385708
0.00379387
0.0159408
0.015808
0.0156687
0.0155273
0.0153887
0.0152556
0.0151293
0.0150095
0.0148948
0.0147834
0.0146735
0.0145634
0.014452
0.0143385
0.0142228
0.0141051
0.0139861
0.013867
0.0137494
0.0136345
0.0135232
0.0134158
0.0133126
0.0132128
0.0131153
0.0130198
0.0129249
0.01283
0.0127344
0.0126381
0.012541
0.00538626
0.00526232
0.00514324
0.00502943
0.00491996
0.00481454
0.00471343
0.00461696
0.00452517
0.00443789
0.00435485
0.0042757
0.00420003
0.00412737
0.00405723
0.00398913
0.00392268
0.00385758
0.00379383
0.0159406
0.0158096
0.0156755
0.0155394
0.015404
0.0152716
0.015144
0.0150215
0.0149037
0.0147892
0.0146764
0.0145639
0.0144505
0.0143353
0.014218
0.0140989
0.0139787
0.0138587
0.0137404
0.0136251
0.013514
0.0134069
0.0133036
0.0132042
0.0131075
0.0130129
0.012919
0.0128251
0.0127304
0.0126346
0.0125376
0.00538573
0.00526495
0.00514634
0.00503193
0.00492212
0.00481677
0.00471587
0.00461954
0.00452778
0.00444043
0.00435725
0.0042779
0.00420197
0.00412898
0.00405844
0.00398986
0.00392283
0.00385713
0.00379282
0.015939
0.0158049
0.0156621
0.0155172
0.015376
0.0152418
0.0151159
0.0149973
0.0148844
0.0147749
0.0146667
0.0145578
0.0144467
0.0143327
0.0142156
0.014096
0.0139748
0.0138536
0.0137342
0.0136178
0.0135054
0.0133978
0.0132946
0.0131952
0.0130987
0.0130045
0.0129115
0.0128186
0.0127247
0.0126295
0.0125329
0.00538492
0.00526562
0.00514831
0.00503424
0.00492442
0.00481911
0.00471837
0.00462216
0.00453041
0.00444299
0.00435966
0.00428014
0.004204
0.00413073
0.0040598
0.00399073
0.00392316
0.00385689
0.00379204
0.0159331
0.0157973
0.0156531
0.015507
0.0153651
0.015231
0.0151056
0.0149881
0.0148765
0.0147684
0.0146614
0.0145534
0.0144427
0.0143286
0.0142109
0.0140905
0.0139686
0.0138467
0.0137264
0.0136095
0.0134965
0.0133882
0.013285
0.013186
0.0130903
0.0129968
0.0129043
0.0128122
0.0127192
0.0126247
0.0125287
0.00538495
0.00526598
0.00514958
0.00503613
0.00492664
0.00482151
0.00472088
0.00462471
0.00453293
0.00444542
0.00436199
0.00428233
0.00420597
0.00413238
0.00406101
0.0039914
0.00392325
0.00385641
0.00379106
0.015926
0.0157894
0.0156452
0.0154996
0.0153582
0.0152244
0.0150992
0.014982
0.0148708
0.0147631
0.0146564
0.0145486
0.0144379
0.0143236
0.0142057
0.0140851
0.0139628
0.0138406
0.0137197
0.0136021
0.0134892
0.0133811
0.0132782
0.0131797
0.0130847
0.012992
0.0129004
0.0128091
0.0127168
0.012623
0.0125273
0.00538544
0.00526677
0.00515081
0.00503786
0.00492876
0.00482386
0.00472331
0.00462715
0.00453534
0.0044478
0.00436432
0.00428452
0.0042079
0.0041339
0.00406202
0.00399184
0.00392311
0.00385573
0.00378988
0.0159112
0.0157755
0.0156388
0.0155018
0.0153669
0.0152366
0.0151122
0.0149939
0.0148806
0.0147705
0.0146615
0.0145517
0.0144394
0.0143238
0.014205
0.0140839
0.0139612
0.0138385
0.0137179
0.0136001
0.0134871
0.0133791
0.0132765
0.0131784
0.0130839
0.0129918
0.0129009
0.0128102
0.0127185
0.0126251
0.0125294
0.0053859
0.00526778
0.00515215
0.00503954
0.00493075
0.00482606
0.00472563
0.00462954
0.00453781
0.00445033
0.00436682
0.00428686
0.00420993
0.0041355
0.00406311
0.00399242
0.00392318
0.00385531
0.00378904
0.0159058
0.0157691
0.015632
0.0154952
0.0153608
0.0152312
0.0151075
0.0149898
0.0148769
0.0147668
0.0146574
0.014547
0.0144343
0.0143183
0.0141988
0.0140768
0.0139536
0.0138299
0.0137083
0.0135904
0.0134773
0.0133695
0.013267
0.0131693
0.0130755
0.0129842
0.0128944
0.0128048
0.0127141
0.0126217
0.0125269
0.00538616
0.00526869
0.00515342
0.00504107
0.0049325
0.00482797
0.00472766
0.00463168
0.00454003
0.00445253
0.00436887
0.0042886
0.00421124
0.00413631
0.00406339
0.00399216
0.00392238
0.00385401
0.00378732
0.0158937
0.0157563
0.0156189
0.0154822
0.0153485
0.0152199
0.0150975
0.0149808
0.0148685
0.0147588
0.0146497
0.0145393
0.0144262
0.0143098
0.01419
0.0140671
0.013943
0.0138193
0.0136974
0.0135792
0.013466
0.0133583
0.0132562
0.0131591
0.0130662
0.0129762
0.0128877
0.0127996
0.0127104
0.012619
0.0125248
0.00538632
0.00526936
0.00515448
0.0050424
0.00493406
0.00482977
0.00472973
0.00463399
0.00454251
0.00445506
0.0043713
0.00429082
0.00421317
0.0041379
0.00406459
0.00399291
0.00392268
0.00385391
0.00378685
0.0158913
0.0157524
0.0156144
0.0154785
0.0153465
0.0152201
0.0150997
0.0149845
0.0148732
0.014764
0.0146551
0.0145449
0.0144316
0.0143143
0.0141937
0.0140703
0.013945
0.0138201
0.0136975
0.013579
0.0134657
0.0133582
0.0132564
0.0131597
0.0130673
0.012978
0.0128902
0.0128029
0.0127146
0.0126243
0.0125306
0.00538646
0.00526978
0.00515512
0.00504314
0.00493484
0.00483057
0.00473053
0.00463475
0.00454312
0.00445542
0.00437135
0.00429052
0.00421248
0.00413677
0.00406299
0.00399082
0.00392015
0.00385099
0.00378362
0.0158647
0.0157246
0.0155893
0.01546
0.015337
0.0152199
0.0151078
0.0149994
0.0148935
0.0147883
0.0146814
0.0145716
0.0144583
0.0143405
0.0142182
0.0140933
0.013967
0.0138411
0.0137174
0.0135982
0.0134843
0.0133765
0.0132745
0.013178
0.0130862
0.0129979
0.0129118
0.0128262
0.0127399
0.012652
0.0125612
0.00538658
0.0052701
0.00515574
0.00504413
0.00493623
0.00483236
0.00473267
0.00463714
0.00454564
0.00445798
0.00437387
0.00429291
0.00421463
0.00413858
0.00406436
0.00399175
0.00392067
0.00385116
0.0037835
0.015866
0.0157261
0.0155908
0.0154606
0.0153357
0.0152162
0.0151016
0.0149909
0.014883
0.0147768
0.0146704
0.0145615
0.0144495
0.0143346
0.0142164
0.0140956
0.013974
0.0138536
0.0137361
0.0136233
0.0135161
0.0134151
0.0133203
0.0132313
0.0131477
0.0130682
0.0129916
0.0129166
0.0128417
0.0127663
0.0126897
0.00538667
0.00526951
0.00515432
0.00504194
0.00493336
0.00482894
0.0047288
0.00463293
0.00454121
0.00445345
0.0043693
0.00428834
0.0042101
0.0041341
0.00406001
0.00398766
0.00391694
0.00384787
0.00378075
0.0158511
0.0157175
0.0155827
0.0154525
0.0153308
0.015223
0.0151282
0.0150411
0.0149569
0.0148714
0.0147828
0.0146907
0.0145949
0.0144959
0.0143952
0.0142935
0.0141923
0.0140932
0.0139977
0.0139072
0.0138226
0.0137443
0.0136729
0.0136084
0.0135506
0.0134982
0.0134498
0.0134046
0.0133614
0.0133197
0.0132798
0.00538707
0.00527097
0.00515753
0.00504721
0.00494088
0.00483942
0.00474284
0.00465112
0.00456411
0.0044816
0.00440319
0.00432843
0.00425675
0.00418766
0.00412075
0.00405568
0.00399223
0.00393034
0.00387012
0.00381209
0.016392
0.0162493
0.016058
0.0158724
0.0157189
0.015699
0.0157335
0.0157807
0.0158138
0.0158245
0.0158156
0.0157927
0.0157595
0.0157198
0.0156765
0.0156319
0.0155871
0.0155439
0.0155029
0.0154655
0.0154328
0.0154056
0.0153841
0.0153682
0.0153567
0.0153484
0.0153418
0.0153364
0.0153321
0.015331
0.00545606
0.00543438
0.00541188
0.00538943
0.00536745
0.00534541
0.00532337
0.00530138
0.00527947
0.00525759
0.00523565
0.00521351
0.0051911
0.00516839
0.00514539
0.00512214
0.00509877
0.00507545
0.0050524
0.00502989
0.00500891
0.00500229
0.00498881
0.00497129
0.00493115
0.00489754
0.00486875
0.00484337
0.00482124
0.00480087
0.00478084
0.00476058
0.00473973
0.00471836
0.00469681
0.00467559
0.00465496
0.00463532
0.00461679
0.00459943
0.00458333
0.00456847
0.00455455
0.00454118
0.00452802
0.00451478
0.00450115
0.00448684
0.00447163
0.00445533
0.00991442
0.00570174
0.00761053
0.00965323
0.0110747
0.0117904
0.0118938
0.0113954
0.0102625
0.00890439
0.00826722
0.00828464
0.00858451
0.00875819
0.00879293
0.00877907
0.00874938
0.00867946
0.009201
0.0237897
0.00968617
0.00566885
0.00764028
0.00969861
0.0111286
0.0118457
0.0119386
0.0114025
0.0101824
0.00869003
0.00798283
0.00806374
0.0084772
0.00871685
0.00879281
0.00881113
0.00881305
0.00877625
0.0093613
0.0243323
0.00945711
0.00564302
0.00767126
0.00974394
0.011182
0.0119008
0.0119835
0.0114098
0.0101017
0.00846867
0.00767405
0.00783567
0.0083559
0.00865807
0.00876716
0.00880522
0.00882334
0.00880256
0.00942997
0.0246916
0.00923142
0.00562305
0.00770339
0.00978903
0.0112349
0.0119556
0.0120286
0.0114178
0.0100228
0.0082476
0.00735471
0.00760203
0.00823744
0.00859993
0.00874111
0.00879901
0.00883354
0.00882887
0.00950088
0.0250634
0.00900715
0.00560919
0.00773638
0.00983366
0.0112869
0.01201
0.0120739
0.011427
0.00994862
0.00803577
0.00704159
0.0073721
0.00812422
0.00854387
0.00871536
0.00879281
0.00884384
0.00885529
0.00957416
0.025448
0.00878485
0.00560126
0.00777002
0.00987768
0.011338
0.0120639
0.0121193
0.0114383
0.0098821
0.00784185
0.00675158
0.00715724
0.00801965
0.00849096
0.00869034
0.00878683
0.0088543
0.0088818
0.00964979
0.0258443
0.008565
0.00559888
0.00780415
0.00992096
0.0113879
0.0121171
0.0121651
0.0114523
0.00982522
0.00767249
0.00649289
0.00696587
0.00792623
0.00844177
0.00866626
0.00878113
0.00886493
0.00890837
0.00972771
0.0262512
0.00834802
0.00560164
0.00783865
0.00996344
0.0114367
0.0121697
0.0122113
0.0114692
0.00977916
0.00753134
0.0062618
0.00680136
0.00784404
0.00839618
0.00864318
0.00877573
0.00887573
0.00893501
0.0098079
0.0266678
0.00813435
0.00560912
0.00787343
0.0100051
0.0114844
0.0122218
0.0122579
0.0114891
0.00974405
0.00741886
0.0060491
0.00666264
0.00777094
0.00835362
0.00862099
0.00877064
0.00888672
0.00896175
0.00989041
0.0270931
0.00792441
0.00562086
0.00790845
0.0100461
0.0115311
0.0122732
0.0123049
0.0115118
0.00971948
0.0073336
0.00585795
0.0065431
0.00770525
0.0083136
0.00859962
0.00876593
0.00889799
0.00898867
0.00997531
0.0275264
0.00771864
0.00563645
0.00794368
0.0100864
0.0115767
0.0123242
0.0123522
0.011537
0.00970491
0.00727345
0.00570414
0.00644025
0.00764564
0.00827594
0.00857911
0.00876171
0.00890967
0.00901587
0.0100627
0.0279671
0.00751751
0.00565548
0.00797914
0.0101264
0.0116214
0.0123748
0.0123998
0.0115641
0.00969678
0.0072472
0.00560988
0.00636966
0.0075924
0.00824044
0.00855956
0.0087581
0.00892185
0.00904342
0.0101525
0.0284147
0.00732148
0.00567755
0.0080148
0.0101663
0.0116664
0.0124241
0.0124458
0.011592
0.00969764
0.00724265
0.00569518
0.00628318
0.00755625
0.00820798
0.00854103
0.00875522
0.00893459
0.00907134
0.010245
0.0288689
0.00713106
0.00570435
0.0080529
0.0102046
0.0117095
0.0124736
0.0124942
0.0116247
0.00970634
0.00724727
0.00577672
0.00621824
0.00751619
0.00818068
0.00852382
0.00875318
0.00894791
0.00909959
0.01034
0.0293294
0.00694663
0.0057333
0.00808977
0.0102425
0.0117528
0.012524
0.0125449
0.0116621
0.00972296
0.00726069
0.00584552
0.0061848
0.00747935
0.00815082
0.00850856
0.00875243
0.0089618
0.0091281
0.0104377
0.0297959
0.00676866
0.00576347
0.00812624
0.0102802
0.0117963
0.0125755
0.0125979
0.0117043
0.00974753
0.0072824
0.00591023
0.00617912
0.00744644
0.00812225
0.00849306
0.00875258
0.0089764
0.00915686
0.0105381
0.0302683
0.00659817
0.00579381
0.00816232
0.0103176
0.0118401
0.012628
0.0126532
0.0117513
0.00978008
0.0073121
0.00597524
0.00619693
0.00741801
0.00809562
0.00847886
0.00875267
0.00899147
0.00918605
0.0106446
0.0307451
0.00643554
0.00582427
0.00819799
0.0103548
0.0118841
0.0126813
0.0127108
0.0118031
0.0098206
0.00734955
0.00604313
0.00623397
0.00739453
0.00807134
0.00846636
0.00875378
0.00900702
0.00921533
0.0107657
0.0312237
0.00628115
0.00585481
0.00823323
0.0103916
0.0119281
0.0127355
0.0127706
0.0118597
0.00986899
0.00739429
0.00611419
0.00628585
0.00737629
0.00804973
0.00845575
0.00875623
0.00902331
0.00924445
0.0109015
0.0317038
0.00613543
0.00588541
0.00826805
0.0104281
0.0119724
0.0127906
0.0128328
0.0119212
0.00992495
0.0074456
0.00618709
0.0063477
0.00736334
0.00803106
0.00844719
0.00876011
0.00904038
0.00927491
0.0110504
0.0321855
0.00599881
0.00591608
0.00830256
0.0104645
0.0120169
0.0128469
0.0128973
0.0119873
0.00998803
0.00750247
0.00625919
0.00641474
0.00735538
0.00801548
0.00844077
0.00876543
0.00905818
0.00930682
0.0112111
0.0326688
0.00587179
0.00594693
0.00833693
0.0105009
0.012062
0.0129043
0.0129642
0.0120579
0.0100577
0.00756388
0.00632716
0.00648296
0.00735203
0.00800303
0.00843648
0.00877214
0.00907662
0.00934011
0.0113821
0.0331535
0.0057549
0.00597806
0.00837132
0.0105376
0.0121078
0.012963
0.0130335
0.0121327
0.0101336
0.00762927
0.00638834
0.0065494
0.00735298
0.00799374
0.00843428
0.00878011
0.00909557
0.00937457
0.0115611
0.0336396
0.00564866
0.00600959
0.00840587
0.0105745
0.0121542
0.013023
0.0131051
0.0122116
0.0102156
0.00769891
0.00644244
0.00661252
0.00735805
0.00798757
0.00843409
0.0087892
0.00911485
0.00940989
0.0117453
0.034127
0.0055536
0.00604155
0.00844059
0.0106117
0.0122012
0.013084
0.0131788
0.0122947
0.0103041
0.00777386
0.00649158
0.00667252
0.00736723
0.00798449
0.00843579
0.00879925
0.0091343
0.00944569
0.0119319
0.0346159
0.00547021
0.0060739
0.00847539
0.010649
0.0122485
0.0131459
0.0132545
0.0123818
0.0103994
0.00785573
0.00653933
0.00673061
0.00738048
0.00798439
0.00843926
0.00881008
0.00915375
0.00948148
0.0121177
0.0351061
0.00539892
0.00610653
0.00851012
0.0106863
0.0122959
0.0132086
0.0133322
0.0124732
0.0105019
0.00794597
0.00658889
0.00678781
0.00739748
0.00798704
0.00844427
0.00882148
0.00917301
0.00951671
0.0122994
0.0355978
0.00534014
0.00613932
0.00854464
0.0107232
0.0123435
0.0132719
0.0134119
0.0125688
0.0106117
0.00804521
0.0066416
0.00684418
0.00741744
0.00799198
0.0084505
0.00883316
0.00919184
0.00955072
0.0124733
0.0360911
0.00529419
0.0061722
0.00857893
0.01076
0.0123911
0.013336
0.0134936
0.0126686
0.0107283
0.0081531
0.00669618
0.00689852
0.00743912
0.00799854
0.00845749
0.00884474
0.00920989
0.0095826
0.0126356
0.0365863
0.00526134
0.00620521
0.00861307
0.0107967
0.0124389
0.013401
0.0135773
0.0127721
0.0108511
0.00826861
0.00674975
0.00694846
0.00746093
0.0080059
0.00846467
0.00885575
0.00922669
0.00961105
0.0127828
0.0370841
0.00524179
0.00623845
0.00864726
0.0108335
0.0124872
0.013467
0.013663
0.0128791
0.0109792
0.00839068
0.00679935
0.00699123
0.00748119
0.00801311
0.00847136
0.00886558
0.00924157
0.00963435
0.0129127
0.0375854
0.00523551
0.00627209
0.0086817
0.0108707
0.0125361
0.0135341
0.0137507
0.0129895
0.0111124
0.0085188
0.0068437
0.00702469
0.00749845
0.00801918
0.00847678
0.00887352
0.00925365
0.00965033
0.0130257
0.0380914
0.00524226
0.00630625
0.00871653
0.0109083
0.0125857
0.0136023
0.0138404
0.0131032
0.0112506
0.00865357
0.00688496
0.00704807
0.00751159
0.00802316
0.00848006
0.00887867
0.00926171
0.00965656
0.0131259
0.0386032
0.00526133
0.00634098
0.00875175
0.0109463
0.0126358
0.0136716
0.0139321
0.0132205
0.0113945
0.00879665
0.00692831
0.00706205
0.00751985
0.00802407
0.00848021
0.00887995
0.00926409
0.00965082
0.0132229
0.0391223
0.00529148
0.00637619
0.0087872
0.0109845
0.0126862
0.0137417
0.0140258
0.0133417
0.0115451
0.00895012
0.00698042
0.00706834
0.00752266
0.00802086
0.00847606
0.00887601
0.00925872
0.00963204
0.013332
0.0396497
0.00533074
0.00641168
0.00882264
0.0110226
0.0127367
0.0138126
0.0141217
0.0134675
0.0117033
0.00911588
0.00704725
0.00706874
0.0075194
0.00801234
0.00846619
0.00886516
0.00924314
0.00960194
0.0134737
0.0401865
0.00537634
0.0064472
0.00885777
0.0110603
0.0127871
0.0138842
0.01422
0.0135981
0.0118699
0.00929509
0.00713236
0.00706473
0.0075095
0.00799726
0.00844899
0.0088455
0.00921502
0.00956714
0.0136716
0.0407332
0.00542473
0.00648255
0.00889242
0.0110974
0.0128372
0.0139563
0.0143206
0.0137341
0.0120455
0.00948839
0.00723793
0.00705812
0.00749277
0.00797449
0.00842289
0.00881529
0.00917332
0.00954129
0.0139497
0.0412898
0.00547184
0.00651757
0.00892645
0.0111339
0.012887
0.0140291
0.0144239
0.0138757
0.0122307
0.0096965
0.00736575
0.00705197
0.00747013
0.00794365
0.00838692
0.00877381
0.00912032
0.0095459
0.014329
0.0418558
0.00551345
0.00655215
0.00895982
0.0111696
0.0129364
0.0141026
0.0145298
0.0140233
0.0124263
0.00992078
0.00751836
0.0070517
0.00744466
0.00790606
0.00834188
0.00872296
0.00906424
0.00960896
0.0148255
0.0424303
0.00554592
0.00658618
0.00899249
0.0112047
0.0129854
0.0141766
0.0146384
0.0141774
0.0126336
0.0101636
0.00769976
0.00706621
0.00742318
0.00786628
0.00829202
0.00866951
0.00902174
0.00976105
0.015448
0.0430116
0.0055672
0.00661953
0.00902436
0.0112388
0.0130337
0.0142509
0.0147498
0.0143385
0.0128543
0.0104286
0.00791694
0.00710936
0.00741759
0.00783396
0.00824726
0.0086274
0.00901844
0.0100302
0.0161987
0.0435974
0.00557772
0.00665196
0.00905519
0.0112717
0.0130809
0.0143252
0.0148636
0.014507
0.0130902
0.0107203
0.00817885
0.00719914
0.0074454
0.00782519
0.00822476
0.00861871
0.00908642
0.0104373
0.017073
0.044185
0.00558086