/*--------------------------------*- C++ -*----------------------------------*\
  =========                 |
  \\      /  F ield         | OpenFOAM: The Open Source CFD Toolbox
   \\    /   O peration     | Website:  https://openfoam.org
    \\  /    A nd           | Version:  8
     \\/     M anipulation  |
\*---------------------------------------------------------------------------*/
FoamFile
{
    version     2.0;
    format      ascii;
    class       volScalarField;
    location    "100";
    object      epsilon;
}
// * * * * * * * * * * * * * * * * * * * * * * * * * * * * * * * * * * * * * //

dimensions      [0 2 -3 0 0 0 0];

internalField   nonuniform List<scalar> 
8400
(
0.00265585
0.00206085
0.00163987
0.00139152
0.00126286
0.00120886
0.0011901
0.00118913
0.00119896
0.00121724
0.00124346
0.00127773
0.00131898
0.00132202
0.00125278
0.00110336
0.000905668
0.000725856
0.000605076
0.000516034
0.000441211
0.000387533
0.000359083
0.000349737
0.000353436
0.000364067
0.000376768
0.000388477
0.000397592
0.000403386
0.000405788
0.000405134
0.00040192
0.00039776
0.000393671
0.000389498
0.000385187
0.000380719
0.00037601
0.000371001
0.000365697
0.000360062
0.000354065
0.000347699
0.000340976
0.000333902
0.000326488
0.000318756
0.000310729
0.000302439
0.00539599
0.00347131
0.00245446
0.00193838
0.00174975
0.00175034
0.0018574
0.00203532
0.00226874
0.00255087
0.00287477
0.00322488
0.00352523
0.00363558
0.00347765
0.0030451
0.00241211
0.00179559
0.00141136
0.00110128
0.000786223
0.000520074
0.000349573
0.000247264
0.00019067
0.000163759
0.000150224
0.000144176
0.000142393
0.000143258
0.000145815
0.000149516
0.000154097
0.000158471
0.000162085
0.000165163
0.00016788
0.000170372
0.00017273
0.000175051
0.000177385
0.000179745
0.000182179
0.000184717
0.000187354
0.000190094
0.000192931
0.000195862
0.000198886
0.00020198
0.0119068
0.00595174
0.00415371
0.00350036
0.00329416
0.00335255
0.00363642
0.00410859
0.00474806
0.00553194
0.00640758
0.00717336
0.00748592
0.00748151
0.00717924
0.00652532
0.0054594
0.00423409
0.00365015
0.003022
0.00221015
0.00140112
0.000884396
0.000550604
0.000352085
0.000267198
0.000222263
0.000198865
0.000185959
0.000180154
0.000179441
0.000182504
0.000188604
0.000195976
0.000204432
0.000213986
0.000224634
0.000236385
0.000249255
0.000263235
0.000278277
0.000294299
0.000311225
0.000328925
0.000347229
0.000365947
0.000384823
0.000403565
0.000421836
0.000439215
0.0131255
0.0129653
0.0127278
0.0124054
0.0119609
0.0114523
0.0109622
0.0105492
0.0102487
0.0100821
0.0100264
0.00996823
0.00990123
0.009822
0.00972467
0.00955754
0.0089319
0.00710246
0.00720109
0.00640153
0.00502325
0.00316172
0.00209873
0.00128074
0.000680952
0.00047974
0.000371883
0.000328003
0.000303426
0.000291155
0.000288038
0.000292149
0.000301529
0.000314138
0.000330123
0.000349276
0.000371423
0.000396452
0.000424213
0.000454528
0.000487229
0.000522065
0.000558735
0.000596868
0.000636021
0.000675736
0.000715472
0.000754606
0.000792494
0.000828381
0.0131214
0.0130611
0.012988
0.0128944
0.0127692
0.0126092
0.0124226
0.0122256
0.0120359
0.0118685
0.0117299
0.0116131
0.0115081
0.0114002
0.0112702
0.0111124
0.0109152
0.0106999
0.0104612
0.0101703
0.00961404
0.00604366
0.00458787
0.00301946
0.0012425
0.000859772
0.000567082
0.000498635
0.000465674
0.000450786
0.000448043
0.000455402
0.000468239
0.000487915
0.000513673
0.000544996
0.000581417
0.000622594
0.000668149
0.000717703
0.00077083
0.000826956
0.000885524
0.000945896
0.00100722
0.00106874
0.00112968
0.00118908
0.00124605
0.00129962
0.0131168
0.0130551
0.0129915
0.0129247
0.0128514
0.0127685
0.0126743
0.0125697
0.0124576
0.0123415
0.0122236
0.0121035
0.0119779
0.0118424
0.0116905
0.0115161
0.0113157
0.0110934
0.0108525
0.0105793
0.0102487
0.00994794
0.00957837
0.00763867
0.00210459
0.00178066
0.000795597
0.000682804
0.000635721
0.000625645
0.000628233
0.000641459
0.000660635
0.000689302
0.000726284
0.000770725
0.000821871
0.000879085
0.000941705
0.00100893
0.00107994
0.00115381
0.00122958
0.00130625
0.00138266
0.00145778
0.00153066
0.00160023
0.00166568
0.00172619
0.0131092
0.0130385
0.0129675
0.0128966
0.0128252
0.0127522
0.0126766
0.0125969
0.0125126
0.0124231
0.012328
0.0122258
0.0121148
0.0119915
0.0118519
0.0116908
0.0115043
0.0112912
0.0110527
0.0107856
0.0104836
0.0101614
0.00979356
0.00918769
0.00870821
0.00529474
0.00109402
0.000932804
0.000779294
0.000781768
0.000796
0.00081338
0.000841885
0.000881004
0.000929284
0.000985477
0.00104872
0.00111801
0.00119218
0.00127
0.00135035
0.00143181
0.00151286
0.00159232
0.00166895
0.00174153
0.0018092
0.00187119
0.00192709
0.00197672
0.0130984
0.0130142
0.0129307
0.0128485
0.0127681
0.0126894
0.0126114
0.0125337
0.0124549
0.012374
0.0122899
0.0122005
0.0121037
0.0119964
0.0118744
0.0117324
0.0115654
0.0113698
0.0111444
0.0108874
0.0105967
0.0102754
0.00991522
0.00945909
0.00892916
0.00773872
0.00629544
0.00196537
0.000892362
0.000880406
0.000906556
0.000938276
0.00097924
0.00102923
0.00108729
0.00115232
0.00122313
0.00129822
0.00137608
0.00145523
0.00153408
0.00161073
0.00168326
0.00175044
0.00181103
0.00186385
0.00190845
0.00194467
0.00197281
0.00199368
0.0130827
0.0129778
0.0128759
0.0127775
0.0126833
0.0125934
0.0125071
0.0124242
0.0123434
0.0122639
0.0121839
0.012102
0.0120156
0.0119215
0.0118152
0.0116911
0.0115433
0.0113663
0.0111566
0.0109123
0.0106323
0.010317
0.0099624
0.00954644
0.00904903
0.00825387
0.00710586
0.00514434
0.00329626
0.000921071
0.00094829
0.000998881
0.00105456
0.00111543
0.00118174
0.00125265
0.00132661
0.00140211
0.00147774
0.00155139
0.00162076
0.00168397
0.001739
0.00178435
0.00181884
0.00184173
0.00185301
0.00185319
0.00184347
0.00182571
0.0130585
0.0129205
0.012791
0.0126701
0.0125581
0.0124545
0.0123586
0.0122693
0.0121856
0.0121063
0.0120299
0.0119542
0.0118769
0.0117946
0.0117024
0.011594
0.011463
0.0113028
0.0111082
0.0108766
0.0106066
0.0102984
0.00994984
0.00955004
0.00907813
0.0084311
0.0075062
0.00611357
0.00449987
0.00260305
0.0013321
0.000994311
0.00106337
0.0011351
0.00120869
0.00128335
0.00135837
0.00143257
0.00150436
0.00157106
0.00162984
0.00167924
0.00171711
0.0017415
0.00175147
0.00174652
0.00172681
0.00169346
0.00164838
0.00159411
0.0130169
0.0128178
0.0126474
0.0124991
0.0123685
0.012253
0.0121506
0.0120592
0.0119766
0.0119015
0.011832
0.0117654
0.011699
0.0116292
0.0115505
0.0114565
0.0113398
0.0111931
0.0110109
0.0107897
0.0105283
0.0102267
0.00988398
0.00949384
0.0090393
0.00846223
0.00767628
0.0065749
0.0052098
0.00362245
0.00221844
0.00138262
0.00110085
0.00109447
0.0011706
0.00124805
0.00132462
0.00139855
0.00146812
0.00153128
0.00158479
0.00162748
0.00165699
0.001671
0.00166917
0.00165068
0.00161526
0.00156465
0.00150081
0.00142613
0.0129302
0.0126032
0.0123888
0.0122231
0.0120858
0.0119699
0.0118722
0.0117889
0.0117165
0.0116526
0.011596
0.011543
0.0114904
0.0114343
0.0113689
0.0112874
0.0111819
0.0110451
0.0108715
0.0106574
0.010402
0.0101057
0.00976793
0.0093852
0.00894406
0.00840776
0.00771183
0.00678794
0.00563816
0.004313
0.00302291
0.00202602
0.00144129
0.00119926
0.00115372
0.0011877
0.00125019
0.00131979
0.00138752
0.00145032
0.00150488
0.00154866
0.00157966
0.00159598
0.00159673
0.00158116
0.0015488
0.00150094
0.00143939
0.00136631
0.0125366
0.0121998
0.0119933
0.0118388
0.0117159
0.0116176
0.0115384
0.0114744
0.011421
0.0113751
0.0113357
0.0112994
0.0112615
0.0112189
0.0111642
0.0110912
0.0109924
0.0108603
0.0106908
0.01048
0.0102278
0.00993546
0.0096023
0.00922642
0.00879757
0.00829002
0.00765828
0.00685882
0.00588702
0.00478558
0.00367666
0.00271601
0.00200689
0.00156478
0.00133502
0.00124161
0.00122693
0.00125398
0.00130033
0.00135368
0.00140632
0.00145296
0.0014904
0.00151619
0.00152857
0.0015266
0.00150992
0.00147884
0.00143453
0.00137889
0.0119354
0.0116713
0.0115094
0.0113923
0.011305
0.0112387
0.0111883
0.0111502
0.0111196
0.0110942
0.0110719
0.0110489
0.0110219
0.0109864
0.0109362
0.0108657
0.0107678
0.0106365
0.0104693
0.0102627
0.0100108
0.00971269
0.00938498
0.00901686
0.00860115
0.00811901
0.0075397
0.00683831
0.00601484
0.00510481
0.00418418
0.00334291
0.00264582
0.00211882
0.00175309
0.00151921
0.00138411
0.00131871
0.00129967
0.00130971
0.00133626
0.00137011
0.00140473
0.00143525
0.00145818
0.00147135
0.00147351
0.00146411
0.00144341
0.00141251
0.0112748
0.0111182
0.0110191
0.0109515
0.010905
0.0108731
0.0108517
0.0108369
0.0108258
0.0108158
0.0108041
0.0107877
0.0107632
0.0107264
0.0106722
0.0105955
0.0104917
0.0103563
0.010187
0.00998081
0.00973439
0.00945079
0.00913344
0.00875428
0.00835374
0.00789845
0.0073682
0.00675187
0.00605611
0.00531027
0.00456253
0.00386345
0.00324805
0.00273247
0.00231846
0.00199858
0.00176128
0.00159375
0.00148277
0.00141593
0.00138221
0.00137196
0.00137704
0.00139062
0.00140734
0.00142313
0.00143505
0.00144111
0.00144023
0.00143219
0.0106817
0.010611
0.010567
0.0105404
0.0105256
0.0105186
0.0105161
0.0105154
0.0105142
0.01051
0.0105003
0.0104824
0.0104529
0.0104083
0.0103447
0.010258
0.0101451
0.010003
0.00982948
0.0096235
0.00938481
0.00911603
0.00881475
0.0084645
0.00805818
0.0076287
0.00714935
0.00661357
0.00603189
0.0054272
0.0048295
0.00426593
0.00375355
0.00329955
0.00290473
0.00256665
0.0022821
0.00204801
0.0018607
0.00171586
0.0016085
0.00153292
0.00148318
0.00145344
0.00143832
0.00143308
0.00143371
0.00143697
0.00144043
0.0014425
0.0101569
0.0101342
0.0101223
0.0101183
0.0101193
0.0101229
0.0101271
0.0101297
0.0101286
0.0101219
0.010107
0.0100817
0.0100431
0.00998834
0.00991429
0.00981833
0.00969789
0.00955116
0.00937715
0.00917573
0.00894834
0.00869574
0.00841555
0.00810135
0.00773039
0.00730564
0.00688353
0.00642809
0.00595082
0.00546842
0.00499774
0.00455206
0.00413908
0.0037609
0.00341644
0.00310381
0.00282152
0.00256903
0.00234635
0.00215361
0.00199066
0.00185641
0.00174886
0.00166533
0.00160265
0.00155733
0.00152589
0.00150513
0.00149228
0.00148498
0.00958232
0.00957603
0.0095741
0.00957545
0.00957854
0.00958188
0.00958391
0.00958278
0.00957681
0.00956403
0.00954237
0.00950983
0.00946393
0.00940246
0.00932308
0.0092239
0.00910332
0.00896008
0.00879406
0.00860582
0.00839707
0.00816796
0.00791753
0.00764354
0.00733053
0.00692633
0.00656149
0.00618796
0.00580886
0.00543337
0.0050697
0.00472368
0.0043981
0.00409254
0.00380554
0.00353605
0.00328303
0.00304595
0.00282518
0.00262173
0.00243689
0.00227173
0.00212678
0.00200209
0.00189706
0.00181036
0.00174027
0.00168484
0.00164206
0.00160991
0.00874145
0.00873451
0.00873055
0.00872903
0.00872896
0.00872914
0.00872823
0.00872457
0.00871664
0.00870266
0.00868065
0.008649
0.00860563
0.00854871
0.00847665
0.00838784
0.00828111
0.00815581
0.0080119
0.0078501
0.00767197
0.0074782
0.00726913
0.00704339
0.00679763
0.00645584
0.00615198
0.00586443
0.00558039
0.00530203
0.00503254
0.00477374
0.00452581
0.00428813
0.00406004
0.00384112
0.00363077
0.00342851
0.00323466
0.00304996
0.00287538
0.00271205
0.00256107
0.00242339
0.00229967
0.00219012
0.00209463
0.00201273
0.00194359
0.00188614
0.0118648
0.0115986
0.0113432
0.0110936
0.0108504
0.0106133
0.010382
0.0101562
0.0099351
0.00971772
0.00950284
0.00928912
0.00907495
0.00885862
0.00863859
0.00841324
0.00818116
0.00794133
0.00769269
0.00743496
0.00717007
0.00690353
0.00664449
0.00639921
0.00617534
0.00594944
0.00581474
0.00573457
0.00566851
0.00561136
0.00556101
0.00551547
0.00547296
0.00543211
0.00539136
0.00534905
0.00530379
0.00525472
0.00520174
0.00514539
0.00508661
0.00502707
0.00496891
0.00491455
0.00486656
0.00482751
0.00479974
0.00478505
0.00478414
0.00479571
9.32895e-06
9.20521e-06
9.08931e-06
8.97668e-06
8.86718e-06
8.75932e-06
8.65305e-06
8.54773e-06
8.44294e-06
8.33865e-06
8.23499e-06
8.1321e-06
8.03008e-06
7.92903e-06
7.82906e-06
7.73037e-06
7.63318e-06
7.53772e-06
7.44415e-06
7.35259e-06
7.26299e-06
7.16623e-06
7.06671e-06
6.96677e-06
6.86754e-06
6.76964e-06
6.67347e-06
6.5792e-06
6.46805e-06
6.3664e-06
6.27189e-06
6.18281e-06
6.09809e-06
6.0171e-06
5.93945e-06
5.86493e-06
5.79341e-06
5.72481e-06
5.65906e-06
5.59592e-06
5.53521e-06
5.47688e-06
5.42071e-06
5.3665e-06
5.3141e-06
5.2632e-06
5.21352e-06
5.16463e-06
5.11596e-06
5.0667e-06
8.97777e-06
8.37375e-06
7.83129e-06
7.33879e-06
6.88976e-06
6.48077e-06
6.10716e-06
5.76503e-06
5.4509e-06
5.1617e-06
4.89477e-06
4.64786e-06
4.41909e-06
4.20686e-06
4.00982e-06
3.8268e-06
3.65676e-06
3.49876e-06
3.35198e-06
3.21533e-06
3.09003e-06
7.28916e-07
7.245e-07
7.20023e-07
7.15907e-07
7.12287e-07
7.09128e-07
7.06385e-07
7.09759e-07
7.13631e-07
7.16897e-07
7.19101e-07
7.20161e-07
7.20181e-07
7.19357e-07
7.17906e-07
7.1603e-07
7.13903e-07
7.11649e-07
7.09365e-07
7.07104e-07
7.04873e-07
7.02679e-07
7.00523e-07
6.984e-07
6.96285e-07
6.94113e-07
6.91748e-07
6.88903e-07
6.85256e-07
8.97846e-06
8.37235e-06
7.81986e-06
7.31685e-06
6.85706e-06
6.43539e-06
6.04765e-06
5.69037e-06
5.36055e-06
5.0555e-06
4.77289e-06
4.51063e-06
4.26696e-06
4.04033e-06
3.82941e-06
3.63302e-06
3.45007e-06
3.27957e-06
3.12093e-06
7.31697e-07
7.26065e-07
7.20543e-07
7.1511e-07
7.09753e-07
7.04469e-07
6.99257e-07
6.94118e-07
6.89046e-07
6.84253e-07
6.79599e-07
6.75035e-07
6.70519e-07
6.66031e-07
6.6157e-07
6.57143e-07
6.52764e-07
6.48452e-07
6.44224e-07
6.40094e-07
6.36076e-07
6.32171e-07
6.28375e-07
6.24682e-07
6.2108e-07
6.17565e-07
6.14154e-07
6.1089e-07
6.07819e-07
6.04878e-07
6.01678e-07
8.97729e-06
8.37706e-06
7.82975e-06
7.33023e-06
6.87296e-06
6.45306e-06
6.0664e-06
5.70955e-06
5.37959e-06
5.07393e-06
4.79035e-06
4.52687e-06
4.28178e-06
4.05361e-06
3.84104e-06
3.64294e-06
3.45825e-06
3.28599e-06
3.1255e-06
7.30983e-07
7.24184e-07
7.17862e-07
7.12006e-07
7.06494e-07
7.01191e-07
6.95989e-07
6.90815e-07
6.85621e-07
6.80386e-07
6.75106e-07
6.6979e-07
6.64455e-07
6.59126e-07
6.53824e-07
6.4857e-07
6.4338e-07
6.38271e-07
6.33255e-07
6.28336e-07
6.23513e-07
6.18784e-07
6.14146e-07
6.09598e-07
6.0514e-07
6.00749e-07
5.96388e-07
5.92064e-07
5.87832e-07
5.83816e-07
5.79884e-07
8.97658e-06
8.37648e-06
7.82963e-06
7.32982e-06
6.87182e-06
6.45116e-06
6.06393e-06
5.7067e-06
5.3765e-06
5.07071e-06
4.78707e-06
4.5236e-06
4.27857e-06
4.0505e-06
3.83807e-06
3.64013e-06
3.45561e-06
3.28354e-06
3.12335e-06
7.31743e-07
7.2597e-07
7.20253e-07
7.14591e-07
7.08975e-07
7.03393e-07
6.97831e-07
6.92274e-07
6.86709e-07
6.8113e-07
6.7554e-07
6.69949e-07
6.64372e-07
6.58828e-07
6.53332e-07
6.479e-07
6.42544e-07
6.37275e-07
6.32103e-07
6.27031e-07
6.22053e-07
6.17162e-07
6.12354e-07
6.07621e-07
6.02979e-07
5.98448e-07
5.93999e-07
5.89585e-07
5.85172e-07
5.80831e-07
5.76561e-07
8.97667e-06
8.37655e-06
7.83051e-06
7.33171e-06
6.87466e-06
6.45486e-06
6.0684e-06
5.71186e-06
5.38219e-06
5.07679e-06
4.79337e-06
4.52998e-06
4.28493e-06
4.05675e-06
3.84414e-06
3.64596e-06
3.46118e-06
3.28883e-06
3.12834e-06
3.08867e-06
7.25797e-07
7.19499e-07
7.13385e-07
7.0749e-07
7.01791e-07
6.96242e-07
6.90789e-07
6.85383e-07
6.79989e-07
6.74588e-07
6.69177e-07
6.63763e-07
6.58357e-07
6.52973e-07
6.4763e-07
6.42344e-07
6.37131e-07
6.32002e-07
6.26963e-07
6.22007e-07
6.17127e-07
6.12313e-07
6.07559e-07
6.02861e-07
5.98237e-07
5.93716e-07
5.89278e-07
5.84874e-07
5.80501e-07
5.76161e-07
8.97697e-06
8.37692e-06
7.83097e-06
7.33232e-06
6.87538e-06
6.4556e-06
6.06908e-06
5.71238e-06
5.38251e-06
5.07684e-06
4.79315e-06
4.52947e-06
4.28413e-06
4.05566e-06
3.84279e-06
3.64439e-06
3.45943e-06
3.28696e-06
3.12637e-06
7.31081e-07
7.24186e-07
7.17731e-07
7.11741e-07
7.0612e-07
7.00741e-07
6.95491e-07
6.90286e-07
6.85066e-07
6.798e-07
6.7448e-07
6.69111e-07
6.63712e-07
6.58302e-07
6.52904e-07
6.47544e-07
6.42245e-07
6.37024e-07
6.31895e-07
6.2686e-07
6.21913e-07
6.17049e-07
6.12254e-07
6.0752e-07
6.02846e-07
5.9822e-07
5.93664e-07
5.8919e-07
5.84774e-07
5.80395e-07
5.76031e-07
8.97714e-06
8.37743e-06
7.83163e-06
7.33316e-06
6.87645e-06
6.45693e-06
6.07063e-06
5.71409e-06
5.38433e-06
5.07872e-06
4.79504e-06
4.53132e-06
4.28589e-06
4.0573e-06
3.84428e-06
3.64571e-06
3.4606e-06
3.28802e-06
3.12741e-06
7.31976e-07
7.25559e-07
7.19198e-07
7.13037e-07
7.07118e-07
7.01417e-07
6.9588e-07
6.90443e-07
6.85054e-07
6.79672e-07
6.74279e-07
6.68869e-07
6.63448e-07
6.58029e-07
6.52633e-07
6.47286e-07
6.42008e-07
6.36814e-07
6.31714e-07
6.26711e-07
6.21789e-07
6.16948e-07
6.12183e-07
6.07474e-07
6.02825e-07
5.98227e-07
5.93676e-07
5.89181e-07
5.84744e-07
5.8035e-07
5.75972e-07
8.97721e-06
8.37787e-06
7.83228e-06
7.33395e-06
6.87736e-06
6.45793e-06
6.07165e-06
5.71509e-06
5.38523e-06
5.0795e-06
4.79563e-06
4.53169e-06
4.28598e-06
4.05709e-06
3.84376e-06
3.64492e-06
3.45959e-06
3.28685e-06
3.12611e-06
7.31012e-07
7.2408e-07
7.17614e-07
7.11647e-07
7.06067e-07
7.00731e-07
6.95512e-07
6.90318e-07
6.85087e-07
6.7979e-07
6.74422e-07
6.68995e-07
6.6353e-07
6.58055e-07
6.526e-07
6.47199e-07
6.41883e-07
6.36662e-07
6.31544e-07
6.26533e-07
6.21613e-07
6.16774e-07
6.12014e-07
6.07316e-07
6.02675e-07
5.98092e-07
5.93564e-07
5.89076e-07
5.84633e-07
5.80229e-07
5.7584e-07
8.97728e-06
8.37823e-06
7.83287e-06
7.33469e-06
6.87822e-06
6.45885e-06
6.07262e-06
5.71607e-06
5.38622e-06
5.08044e-06
4.79648e-06
4.53237e-06
4.28646e-06
4.05733e-06
3.84379e-06
3.64475e-06
3.45927e-06
3.28645e-06
3.12567e-06
7.30925e-07
7.23968e-07
7.17489e-07
7.11527e-07
7.05967e-07
7.00657e-07
6.95464e-07
6.90286e-07
6.8506e-07
6.79757e-07
6.74373e-07
6.6892e-07
6.63426e-07
6.57924e-07
6.52446e-07
6.47026e-07
6.41693e-07
6.3647e-07
6.31358e-07
6.26353e-07
6.21452e-07
6.16632e-07
6.11887e-07
6.07202e-07
6.02569e-07
5.97986e-07
5.9346e-07
5.8898e-07
5.84536e-07
5.80123e-07
5.75716e-07
8.97739e-06
8.37858e-06
7.8334e-06
7.33534e-06
6.87894e-06
6.45962e-06
6.07342e-06
5.7169e-06
5.38705e-06
5.08121e-06
4.79711e-06
4.5328e-06
4.28664e-06
4.05727e-06
3.8435e-06
3.64429e-06
3.45867e-06
3.28575e-06
3.12493e-06
7.30818e-07
7.23898e-07
7.17436e-07
7.11469e-07
7.05892e-07
7.00564e-07
6.95357e-07
6.9017e-07
6.8494e-07
6.79636e-07
6.74252e-07
6.68801e-07
6.63311e-07
6.57813e-07
6.52343e-07
6.46941e-07
6.4163e-07
6.36422e-07
6.31333e-07
6.2635e-07
6.21458e-07
6.16653e-07
6.11916e-07
6.07235e-07
6.02607e-07
5.98028e-07
5.93494e-07
5.89e-07
5.84538e-07
5.80104e-07
5.75672e-07
8.97749e-06
8.3789e-06
7.83385e-06
7.33587e-06
6.87953e-06
6.46026e-06
6.07412e-06
5.71762e-06
5.38773e-06
5.08178e-06
4.79749e-06
4.53293e-06
4.28653e-06
4.05693e-06
3.84296e-06
3.64358e-06
3.45781e-06
3.28478e-06
3.12394e-06
7.31452e-07
7.25123e-07
7.18854e-07
7.12785e-07
7.06959e-07
7.01351e-07
6.95897e-07
6.90525e-07
6.85174e-07
6.79803e-07
6.74392e-07
6.68943e-07
6.63475e-07
6.58009e-07
6.52569e-07
6.47191e-07
6.4191e-07
6.36727e-07
6.31652e-07
6.26688e-07
6.21801e-07
6.1699e-07
6.12242e-07
6.07544e-07
6.02888e-07
5.98282e-07
5.93723e-07
5.892e-07
5.84697e-07
5.80206e-07
5.75709e-07
8.97758e-06
8.37921e-06
7.83429e-06
7.33638e-06
6.88011e-06
6.46093e-06
6.07485e-06
5.7184e-06
5.38849e-06
5.08244e-06
4.79802e-06
4.53333e-06
4.28682e-06
4.05713e-06
3.84308e-06
3.6436e-06
3.45775e-06
3.28466e-06
3.1238e-06
7.31438e-07
7.25131e-07
7.18878e-07
7.12807e-07
7.06966e-07
7.01333e-07
6.95847e-07
6.90441e-07
6.85058e-07
6.79661e-07
6.7423e-07
6.68761e-07
6.63272e-07
6.57801e-07
6.52371e-07
6.47e-07
6.41728e-07
6.36564e-07
6.31502e-07
6.26551e-07
6.21682e-07
6.16885e-07
6.12149e-07
6.07476e-07
6.02839e-07
5.98239e-07
5.93677e-07
5.89147e-07
5.84638e-07
5.80131e-07
5.75602e-07
8.97767e-06
8.37954e-06
7.83474e-06
7.33685e-06
6.88056e-06
6.46131e-06
6.07511e-06
5.71845e-06
5.38825e-06
5.08189e-06
4.79716e-06
4.53221e-06
4.28546e-06
4.05555e-06
3.84127e-06
3.6416e-06
3.45561e-06
3.28242e-06
3.12151e-06
7.31087e-07
7.24792e-07
7.18552e-07
7.12496e-07
7.06666e-07
7.01037e-07
6.95549e-07
6.90138e-07
6.84747e-07
6.79342e-07
6.73904e-07
6.68435e-07
6.62947e-07
6.57468e-07
6.52041e-07
6.46692e-07
6.41432e-07
6.36283e-07
6.31245e-07
6.26312e-07
6.2147e-07
6.16706e-07
6.11994e-07
6.07339e-07
6.02729e-07
5.98153e-07
5.93611e-07
5.89083e-07
5.84559e-07
5.80031e-07
5.75477e-07
8.97777e-06
8.37995e-06
7.83529e-06
7.33749e-06
6.8813e-06
6.46217e-06
6.07607e-06
5.71947e-06
5.38931e-06
5.08298e-06
4.79829e-06
4.53338e-06
4.28664e-06
4.05669e-06
3.84235e-06
3.6426e-06
3.45654e-06
3.2833e-06
3.12233e-06
7.31202e-07
7.24937e-07
7.18753e-07
7.12757e-07
7.06972e-07
7.0137e-07
6.95893e-07
6.90481e-07
6.85083e-07
6.79665e-07
6.74204e-07
6.68703e-07
6.63198e-07
6.57715e-07
6.52268e-07
6.46908e-07
6.41653e-07
6.36497e-07
6.3146e-07
6.26532e-07
6.21691e-07
6.16931e-07
6.12236e-07
6.0759e-07
6.0298e-07
5.98395e-07
5.93843e-07
5.89311e-07
5.84778e-07
5.80233e-07
5.75662e-07
8.97792e-06
8.38021e-06
7.8352e-06
7.33679e-06
6.87984e-06
6.45988e-06
6.07293e-06
5.71555e-06
5.38471e-06
5.07784e-06
4.79274e-06
4.52751e-06
4.28053e-06
4.0504e-06
3.83597e-06
3.63623e-06
3.45025e-06
3.27714e-06
3.11639e-06
7.30651e-07
7.24983e-07
7.19422e-07
7.13947e-07
7.08533e-07
7.03153e-07
6.97779e-07
6.92377e-07
6.86928e-07
6.81429e-07
6.75882e-07
6.70283e-07
6.64668e-07
6.59094e-07
6.53576e-07
6.48137e-07
6.42821e-07
6.3762e-07
6.32539e-07
6.27578e-07
6.22719e-07
6.17939e-07
6.13234e-07
6.08592e-07
6.04002e-07
5.99447e-07
5.94918e-07
5.90414e-07
5.85931e-07
5.81452e-07
5.76966e-07
8.9781e-06
8.38071e-06
7.83615e-06
7.33839e-06
6.88214e-06
6.46277e-06
6.07628e-06
5.71917e-06
5.38848e-06
5.08163e-06
4.79642e-06
4.53098e-06
4.28371e-06
4.05328e-06
3.83855e-06
3.63852e-06
3.45228e-06
3.2789e-06
3.11786e-06
7.30755e-07
7.24873e-07
7.19044e-07
7.13298e-07
7.07651e-07
7.02108e-07
6.96649e-07
6.91246e-07
6.8586e-07
6.80468e-07
6.7508e-07
6.69705e-07
6.64338e-07
6.59008e-07
6.5375e-07
6.48578e-07
6.43518e-07
6.38583e-07
6.33774e-07
6.2908e-07
6.24506e-07
6.20026e-07
6.1563e-07
6.11312e-07
6.07061e-07
6.02877e-07
5.98758e-07
5.94693e-07
5.90687e-07
5.86745e-07
5.82865e-07
8.97827e-06
8.37707e-06
7.82818e-06
7.3266e-06
6.86726e-06
6.4457e-06
6.05785e-06
5.70014e-06
5.36944e-06
5.06304e-06
4.77865e-06
4.5143e-06
4.26834e-06
4.0394e-06
3.8263e-06
3.62796e-06
3.44341e-06
3.27173e-06
3.1124e-06
7.30311e-07
7.24753e-07
7.19372e-07
7.14255e-07
7.09274e-07
7.04524e-07
6.99711e-07
6.94828e-07
6.89887e-07
6.84937e-07
6.80047e-07
6.75271e-07
6.70634e-07
6.66124e-07
6.6174e-07
6.57495e-07
6.53388e-07
6.49418e-07
6.45599e-07
6.41919e-07
6.38383e-07
6.34987e-07
6.31726e-07
6.28594e-07
6.25579e-07
6.22672e-07
6.19885e-07
6.17218e-07
6.14674e-07
6.12274e-07
6.10058e-07
8.98017e-06
8.38411e-06
7.84308e-06
7.34962e-06
6.89947e-06
6.48989e-06
6.11586e-06
5.77317e-06
5.45818e-06
5.16779e-06
4.89937e-06
4.65069e-06
4.41992e-06
4.20553e-06
4.00627e-06
3.82105e-06
3.64894e-06
3.48911e-06
3.34091e-06
3.20329e-06
7.30481e-07
7.21082e-07
7.15063e-07
7.1082e-07
7.19053e-07
7.23403e-07
7.25017e-07
7.24746e-07
7.23737e-07
7.22635e-07
7.2167e-07
7.20896e-07
7.20252e-07
7.19617e-07
7.18935e-07
7.18167e-07
7.17284e-07
7.16305e-07
7.15259e-07
7.14169e-07
7.13046e-07
7.11914e-07
7.10794e-07
7.09705e-07
7.08643e-07
7.07621e-07
7.06656e-07
7.05767e-07
7.05012e-07
7.04525e-07
9.33006e-06
9.20802e-06
9.09179e-06
8.98091e-06
8.87384e-06
8.76723e-06
8.66082e-06
8.55444e-06
8.448e-06
8.34156e-06
8.23525e-06
8.12932e-06
8.02409e-06
7.91996e-06
7.81735e-06
7.71667e-06
7.6183e-06
7.52248e-06
7.42936e-06
7.33887e-06
7.24996e-06
7.1313e-06
7.01923e-06
6.91291e-06
6.81202e-06
6.71499e-06
6.62087e-06
6.52881e-06
6.4368e-06
6.34522e-06
6.25492e-06
6.1667e-06
6.08164e-06
6.00005e-06
5.92203e-06
5.84754e-06
5.77631e-06
5.70788e-06
5.64187e-06
5.57801e-06
5.51588e-06
5.45509e-06
5.39539e-06
5.33666e-06
5.27878e-06
5.22149e-06
5.16456e-06
5.1077e-06
5.05049e-06
4.99232e-06
6.5619e-05
1.07494e-05
2.66708e-05
5.49551e-05
8.24211e-05
9.78288e-05
9.941e-05
8.8314e-05
6.53082e-05
4.07187e-05
3.07875e-05
3.25878e-05
3.67303e-05
3.94333e-05
4.08122e-05
4.18755e-05
4.28897e-05
4.33695e-05
5.36361e-05
0.000902928
6.16352e-05
1.0525e-05
2.6795e-05
5.54101e-05
8.32496e-05
9.88882e-05
0.000100404
8.8654e-05
6.42226e-05
3.80822e-05
2.75461e-05
3.03096e-05
3.54031e-05
3.88675e-05
4.08257e-05
4.23961e-05
4.3923e-05
4.49214e-05
5.66356e-05
0.000970425
5.78146e-05
1.03311e-05
2.6927e-05
5.58609e-05
8.40706e-05
9.9954e-05
0.000101419
8.90138e-05
6.31725e-05
3.55483e-05
2.42752e-05
2.80419e-05
3.40571e-05
3.81417e-05
4.04859e-05
4.23259e-05
4.40941e-05
4.53329e-05
5.79281e-05
0.00101573
5.416e-05
1.01674e-05
2.70654e-05
5.63047e-05
8.48803e-05
0.000101023
0.000102455
8.94026e-05
6.21927e-05
3.31986e-05
2.10747e-05
2.58886e-05
3.27977e-05
3.74472e-05
4.01543e-05
4.22595e-05
4.4268e-05
4.57469e-05
5.92798e-05
0.00106387
5.06646e-05
1.00334e-05
2.72094e-05
5.67401e-05
8.56766e-05
0.000102095
0.000103512
8.98312e-05
6.13199e-05
3.11094e-05
1.81036e-05
2.39053e-05
3.16451e-05
3.67937e-05
3.98356e-05
4.21992e-05
4.44463e-05
4.61642e-05
6.06944e-05
0.00111496
4.73281e-05
9.92773e-06
2.73583e-05
5.71667e-05
8.64582e-05
0.000103168
0.000104592
9.03095e-05
6.05846e-05
2.93373e-05
1.55222e-05
2.21461e-05
3.06081e-05
3.61848e-05
3.95327e-05
4.21467e-05
4.46299e-05
4.65855e-05
6.21737e-05
0.00116901
4.41494e-05
9.84896e-06
2.75122e-05
5.75846e-05
8.72255e-05
0.000104242
0.000105697
9.0847e-05
6.00113e-05
2.79183e-05
1.34846e-05
2.06362e-05
2.96797e-05
3.56185e-05
3.92465e-05
4.21034e-05
4.48197e-05
4.70115e-05
6.37208e-05
0.00122606
4.11273e-05
9.79534e-06
2.76714e-05
5.79949e-05
8.79792e-05
0.000105318
0.000106827
9.145e-05
5.96146e-05
2.68647e-05
1.20965e-05
1.93676e-05
2.88453e-05
3.50916e-05
3.89775e-05
4.207e-05
4.50162e-05
4.74422e-05
6.53392e-05
0.00128616
3.82602e-05
9.76511e-06
2.78364e-05
5.83987e-05
8.87205e-05
0.000106396
0.000107984
9.21224e-05
5.94e-05
2.61662e-05
1.13696e-05
1.83082e-05
2.80958e-05
3.46024e-05
3.8726e-05
4.20471e-05
4.52196e-05
4.78777e-05
6.7032e-05
0.0013494
3.55462e-05
9.75644e-06
2.80075e-05
5.87971e-05
8.94509e-05
0.000107477
0.000109167
9.28648e-05
5.93632e-05
2.57925e-05
1.12135e-05
1.74414e-05
2.7432e-05
3.41513e-05
3.84929e-05
4.20351e-05
4.54298e-05
4.83178e-05
6.88032e-05
0.00141585
3.29828e-05
9.76754e-06
2.81853e-05
5.91912e-05
9.01716e-05
0.000108561
0.000110376
9.36765e-05
5.94932e-05
2.57004e-05
1.14713e-05
1.6767e-05
2.68576e-05
3.3739e-05
3.82789e-05
4.20348e-05
4.56469e-05
4.87622e-05
7.06574e-05
0.00148563
3.05674e-05
9.79674e-06
2.83702e-05
5.95819e-05
9.08841e-05
0.000109648
0.000111609
9.45579e-05
5.9798e-05
2.58092e-05
1.20141e-05
1.6195e-05
2.63771e-05
3.3367e-05
3.8085e-05
4.20468e-05
4.58711e-05
4.92111e-05
7.26e-05
0.00155885
2.82967e-05
9.84258e-06
2.85626e-05
5.99685e-05
9.15812e-05
0.000110747
0.000112905
9.55718e-05
6.02507e-05
2.60039e-05
1.25329e-05
1.57664e-05
2.59476e-05
3.3034e-05
3.79125e-05
4.20722e-05
4.61028e-05
4.96647e-05
7.46371e-05
0.00163566
2.61674e-05
9.90029e-06
2.87531e-05
6.0341e-05
9.22868e-05
0.00011188
0.000114272
9.67081e-05
6.08507e-05
2.62958e-05
1.3008e-05
1.55479e-05
2.55694e-05
3.27187e-05
3.77622e-05
4.21117e-05
4.63423e-05
5.01231e-05
7.67754e-05
0.00171617
2.41761e-05
9.96388e-06
2.89423e-05
6.07125e-05
9.30027e-05
0.000113047
0.000115711
9.79667e-05
6.15971e-05
2.6679e-05
1.34692e-05
1.55149e-05
2.52558e-05
3.24316e-05
3.76283e-05
4.21632e-05
4.65896e-05
5.05863e-05
7.90213e-05
0.00180052
2.23221e-05
1.003e-05
2.91316e-05
6.10849e-05
9.37308e-05
0.00011425
0.000117223
9.93471e-05
6.2489e-05
2.71506e-05
1.393e-05
1.56392e-05
2.50064e-05
3.21809e-05
3.75184e-05
4.22221e-05
4.68433e-05
5.1054e-05
8.13818e-05
0.00188882
2.05994e-05
1.00991e-05
2.93221e-05
6.14599e-05
9.44723e-05
0.000115489
0.000118806
0.000100849
6.35257e-05
2.77086e-05
1.4394e-05
1.58901e-05
2.48187e-05
3.19676e-05
3.74341e-05
4.22955e-05
4.71008e-05
5.15238e-05
8.39873e-05
0.00198084
1.90024e-05
1.01714e-05
2.95148e-05
6.18383e-05
9.52273e-05
0.000116764
0.000120462
0.000102471
6.47071e-05
2.83524e-05
1.48589e-05
1.62357e-05
2.46891e-05
3.17916e-05
3.73749e-05
4.23839e-05
4.7364e-05
5.19938e-05
8.68972e-05
0.00207653
1.75254e-05
1.02471e-05
2.971e-05
6.22207e-05
9.59958e-05
0.000118073
0.000122188
0.000104214
6.60335e-05
2.90825e-05
1.53231e-05
1.66458e-05
2.46136e-05
3.16523e-05
3.73398e-05
4.2486e-05
4.76321e-05
5.24677e-05
9.00914e-05
0.00217605
1.61624e-05
1.03263e-05
2.99081e-05
6.26071e-05
9.67774e-05
0.000119417
0.000123984
0.000106076
6.75057e-05
2.99016e-05
1.57878e-05
1.70951e-05
2.45883e-05
3.15483e-05
3.73274e-05
4.26003e-05
4.79038e-05
5.29542e-05
9.35374e-05
0.00227955
1.4908e-05
1.04089e-05
3.01092e-05
6.29979e-05
9.75724e-05
0.000120796
0.000125851
0.000108057
6.9125e-05
3.08135e-05
1.62568e-05
1.75659e-05
2.46089e-05
3.14781e-05
3.73362e-05
4.2725e-05
4.81778e-05
5.34524e-05
9.72108e-05
0.00238721
1.37566e-05
1.0495e-05
3.03136e-05
6.33935e-05
9.83814e-05
0.00012221
0.00012779
0.00011016
7.0893e-05
3.18227e-05
1.6733e-05
1.80455e-05
2.46707e-05
3.1439e-05
3.73639e-05
4.28583e-05
4.84528e-05
5.39603e-05
0.000101086
0.00249922
1.27027e-05
1.05847e-05
3.05218e-05
6.37949e-05
9.92058e-05
0.000123661
0.000129802
0.000112383
7.28107e-05
3.29336e-05
1.72166e-05
1.85233e-05
2.47674e-05
3.14277e-05
3.74078e-05
4.29978e-05
4.87276e-05
5.44759e-05
0.000105139
0.00261577
1.17411e-05
1.0678e-05
3.07342e-05
6.4203e-05
0.000100047
0.00012515
0.000131888
0.000114729
7.48794e-05
3.41507e-05
1.7705e-05
1.89882e-05
2.4891e-05
3.14396e-05
3.74645e-05
4.3141e-05
4.90007e-05
5.49971e-05
0.000109352
0.00273709
1.08666e-05
1.07752e-05
3.09512e-05
6.46186e-05
0.000100905
0.000126678
0.000134049
0.000117196
7.71017e-05
3.54805e-05
1.81944e-05
1.94279e-05
2.50326e-05
3.14695e-05
3.75302e-05
4.32852e-05
4.92709e-05
5.55227e-05
0.000113716
0.00286345
1.00742e-05
1.08761e-05
3.1173e-05
6.50416e-05
0.000101781
0.000128245
0.000136284
0.000119787
7.94822e-05
3.69327e-05
1.8685e-05
1.98307e-05
2.51834e-05
3.15123e-05
3.76013e-05
4.3428e-05
4.95373e-05
5.60528e-05
0.000118244
0.00299516
9.35906e-06
1.09809e-05
3.13991e-05
6.54711e-05
0.000102672
0.000129849
0.000138594
0.000122504
8.20291e-05
3.85221e-05
1.91871e-05
2.01899e-05
2.53368e-05
3.15636e-05
3.76746e-05
4.35677e-05
4.98002e-05
5.65907e-05
0.000122976
0.00313258
8.71636e-06
1.10891e-05
3.16287e-05
6.59053e-05
0.000103577
0.000131489
0.00014098
0.000125352
8.47542e-05
4.02693e-05
1.97225e-05
2.0508e-05
2.54891e-05
3.16205e-05
3.77483e-05
4.37041e-05
5.00611e-05
5.7144e-05
0.000128005
0.00327611
8.14153e-06
1.12002e-05