/*--------------------------------*- C++ -*----------------------------------*\
  =========                 |
  \\      /  F ield         | OpenFOAM: The Open Source CFD Toolbox
   \\    /   O peration     | Website:  https://openfoam.org
    \\  /    A nd           | Version:  8
     \\/     M anipulation  |
\*---------------------------------------------------------------------------*/
FoamFile
{
    version     2.0;
    format      ascii;
    class       volScalarField;
    location    "100";
    object      k;
}
// * * * * * * * * * * * * * * * * * * * * * * * * * * * * * * * * * * * * * //

dimensions      [0 2 -2 0 0 0 0];

internalField   nonuniform List<scalar> 
8400
(
0.000925274
0.000795355
0.00071715
0.000676224
0.000659689
0.000656059
0.000659081
0.000666219
0.000676496
0.000689602
0.000705474
0.000724081
0.000735137
0.000723311
0.000681007
0.000609728
0.000523949
0.000449692
0.000399289
0.000358389
0.000321607
0.000293718
0.000278416
0.000273943
0.000276552
0.000282932
0.000290199
0.000296715
0.00030167
0.000304752
0.000305988
0.00030558
0.000303796
0.000301587
0.00029933
0.000296984
0.000294529
0.000291936
0.000289173
0.000286234
0.000283102
0.000279763
0.000276218
0.000272463
0.000268494
0.00026432
0.000259951
0.000255393
0.000250663
0.000245774
0.00136171
0.0010324
0.000893236
0.000842577
0.000848146
0.000883961
0.000939955
0.00101069
0.00109303
0.00118401
0.00127902
0.00136956
0.00141829
0.00140967
0.00133703
0.00119922
0.00101149
0.000832208
0.000717898
0.000609795
0.000486627
0.000367067
0.000275827
0.000218232
0.000182848
0.000164971
0.000156363
0.000152739
0.000151988
0.000153016
0.000155165
0.000158059
0.000161512
0.000164604
0.000167093
0.00016916
0.000170916
0.000172462
0.000173872
0.000175193
0.000176463
0.000177711
0.000178954
0.000180214
0.000181491
0.000182788
0.000184105
0.000185445
0.000186806
0.000188177
0.00198589
0.00141613
0.00127575
0.00123381
0.00124969
0.00131721
0.00142483
0.00156462
0.00172971
0.00190981
0.00207884
0.00215587
0.00217661
0.00215421
0.00208333
0.00194787
0.00173083
0.0014782
0.00135531
0.00119985
0.000980178
0.000727542
0.000512489
0.000375781
0.000277436
0.00022711
0.000201703
0.000188195
0.000180921
0.000177936
0.000178056
0.00018052
0.000184803
0.000189677
0.000195107
0.000201066
0.000207525
0.000214466
0.000221861
0.00022967
0.000237852
0.000246348
0.000255087
0.000263996
0.000272984
0.000281947
0.000290775
0.000299342
0.000307504
0.000315087
0.00299293
0.00295536
0.00292948
0.00287685
0.0028025
0.00272187
0.00264732
0.00258727
0.00254733
0.0025289
0.00251277
0.00249797
0.00248718
0.00247791
0.00246579
0.00244198
0.00236612
0.0021035
0.00211234
0.00195887
0.00169335
0.00129985
0.00089728
0.000667315
0.000443609
0.000332565
0.00028159
0.000259308
0.000247647
0.000242215
0.000241527
0.000244613
0.000249927
0.000257026
0.000265739
0.000275859
0.000287214
0.000299652
0.000313032
0.000327224
0.000342084
0.000357449
0.00037316
0.000389059
0.000404963
0.000420686
0.000436049
0.000450845
0.000464865
0.000477881
0.00299249
0.00298256
0.00297115
0.00295599
0.00293499
0.00290828
0.00287804
0.00284745
0.00281967
0.00279685
0.00277883
0.00276459
0.00274989
0.00273382
0.00271559
0.0026943
0.00266879
0.00263899
0.00260469
0.00256237
0.00249635
0.00216219
0.00144631
0.00119494
0.000717788
0.000487473
0.000374272
0.000338059
0.000324669
0.000319239
0.000319189
0.000323548
0.000330128
0.00033967
0.000351699
0.000365842
0.000381786
0.000399267
0.000418029
0.000437824
0.00045841
0.000479542
0.000500985
0.000522493
0.000543811
0.000564713
0.000584968
0.000604328
0.000622572
0.000639459
0.00299183
0.0029824
0.00297264
0.00296222
0.00295056
0.00293715
0.00292192
0.00290528
0.00288797
0.00287066
0.0028536
0.00283659
0.002819
0.00280007
0.00277892
0.00275463
0.00272661
0.00269493
0.00266003
0.00262005
0.00257032
0.00250862
0.002458
0.0023068
0.00125298
0.00079591
0.000496289
0.000412453
0.000394624
0.000392373
0.000395094
0.000400731
0.000409429
0.000421711
0.000436965
0.000454683
0.000474466
0.00049596
0.000518779
0.000542554
0.000566965
0.000591694
0.000616412
0.000640814
0.000664616
0.000687552
0.000709386
0.000729916
0.000748966
0.000766365
0.00299069
0.00297999
0.0029692
0.00295835
0.00294737
0.00293604
0.00292418
0.00291166
0.00289847
0.00288464
0.00287013
0.00285482
0.0028384
0.00282043
0.00280033
0.00277735
0.00275079
0.00272028
0.00268569
0.00264635
0.00260071
0.00254846
0.0024911
0.00240163
0.00224275
0.00201278
0.000786776
0.000511198
0.00044647
0.000449898
0.000456094
0.000463919
0.000475686
0.000490953
0.000509125
0.000529686
0.000552141
0.000576027
0.000600867
0.000626246
0.000651792
0.000677064
0.000701654
0.000725271
0.000747622
0.000768445
0.000787577
0.000804911
0.000820378
0.00083399
0.0029891
0.00297637
0.00296372
0.00295121
0.00293894
0.00292684
0.00291481
0.00290272
0.0028904
0.00287774
0.00286459
0.0028507
0.00283588
0.00281965
0.00280155
0.00278081
0.00275667
0.00272845
0.00269563
0.00265772
0.00261397
0.00256402
0.00250746
0.0024349
0.0023329
0.00216869
0.00183617
0.00133527
0.000484438
0.000482106
0.000492479
0.00050549
0.000521319
0.000539781
0.000560519
0.000583082
0.000606886
0.000631467
0.000656375
0.000681078
0.000705098
0.000727981
0.000749291
0.000768693
0.000785927
0.000800819
0.000813281
0.000823314
0.000831034
0.000836705
0.00298678
0.002971
0.00295554
0.00294057
0.00292617
0.00291234
0.00289903
0.0028861
0.00287341
0.00286081
0.00284812
0.00283511
0.00282151
0.00280692
0.00279074
0.00277226
0.00275058
0.0027248
0.00269417
0.00265807
0.00261595
0.00256746
0.002512
0.00244538
0.00236057
0.00223392
0.00201813
0.00169331
0.00124449
0.000692565
0.00050446
0.000523149
0.000543918
0.00056584
0.000588871
0.000612762
0.000637035
0.000661279
0.000685044
0.000707669
0.000728602
0.000747428
0.000763681
0.000776982
0.00078711
0.000793946
0.00079743
0.000797737
0.000795212
0.0007903
0.00298319
0.00296252
0.00294289
0.00292448
0.00290723
0.00289117
0.00287614
0.00286209
0.00284878
0.00283604
0.00282369
0.00281146
0.00279902
0.00278599
0.00277172
0.00275538
0.00273596
0.00271244
0.00268388
0.00264954
0.0026089
0.0025616
0.00250713
0.00244326
0.00236549
0.00225855
0.00209459
0.00184854
0.00150945
0.00108962
0.000722043
0.000532739
0.000544127
0.000569636
0.000594984
0.00061997
0.000644592
0.000668444
0.000690988
0.000711611
0.000729706
0.000744861
0.000756567
0.000764367
0.000768047
0.000767494
0.000762637
0.000753796
0.000741405
0.000725992
0.00297711
0.00294746
0.00292153
0.00289866
0.0028782
0.00285998
0.00284369
0.00282896
0.0028156
0.00280328
0.00279178
0.00278077
0.00276991
0.0027587
0.00274641
0.00273216
0.0027148
0.00269321
0.00266635
0.00263342
0.00259392
0.00254754
0.00249386
0.00243157
0.00235743
0.00226134
0.00212479
0.00192684
0.00165691
0.00131829
0.000965756
0.000690885
0.000575294
0.000559132
0.00057963
0.000606553
0.000631916
0.000655878
0.000678019
0.000697943
0.000714911
0.000728473
0.000738188
0.000743557
0.000744204
0.000740033
0.000730961
0.000717322
0.000699474
0.000677928
0.0029647
0.00291631
0.00288275
0.00285634
0.00283419
0.00281536
0.0027993
0.00278537
0.00277331
0.00276255
0.00275298
0.00274406
0.00273533
0.00272633
0.00271617
0.00270384
0.00268821
0.00266804
0.00264233
0.00261028
0.00257147
0.00252568
0.00247256
0.00241126
0.00233943
0.00224998
0.00212988
0.0019636
0.00174217
0.00146664
0.00116477
0.000889463
0.000700371
0.000606463
0.000580766
0.00058836
0.000607603
0.000629877
0.000651699
0.0006718
0.000689328
0.000703525
0.000713929
0.00072015
0.000721732
0.000718535
0.00071047
0.000697653
0.000680406
0.000659257
0.00290661
0.00285447
0.00282083
0.00279529
0.0027747
0.00275816
0.00274467
0.00273354
0.00272433
0.00271637
0.00270956
0.0027033
0.00269709
0.00269032
0.00268203
0.00267106
0.00265651
0.002637
0.00261172
0.00257989
0.00254129
0.00249576
0.00244304
0.00238254
0.00231246
0.00222764
0.00211877
0.00197501
0.00178997
0.00156491
0.00131631
0.00107455
0.000873986
0.000732973
0.000651023
0.000613768
0.000604505
0.00061076
0.000624453
0.000640952
0.000657585
0.000672598
0.000684943
0.000693924
0.000699007
0.000699888
0.000696394
0.0006885
0.000676448
0.000660632
0.00281327
0.00277015
0.00274279
0.00272283
0.00270768
0.00269611
0.00268722
0.00268031
0.00267476
0.00267014
0.00266615
0.00266217
0.00265773
0.00265214
0.00264448
0.00263381
0.00261917
0.00259947
0.00257413
0.00254248
0.00250415
0.00245797
0.00240461
0.00234495
0.00227659
0.00219567
0.00209556
0.0019693
0.00181319
0.00162943
0.00142896
0.00122939
0.00104927
0.000900988
0.000789435
0.000712715
0.000665026
0.000639511
0.000629671
0.000630138
0.000636818
0.000646575
0.000657144
0.00066692
0.000674778
0.000679934
0.000681898
0.000680423
0.000675505
0.000667314
0.00270704
0.00268029
0.00266314
0.00265127
0.00264289
0.00263702
0.00263289
0.00262988
0.00262757
0.00262545
0.00262317
0.00262025
0.00261613
0.0026102
0.00260167
0.00258976
0.00257373
0.00255279
0.00252648
0.00249438
0.00245603
0.002411
0.0023597
0.00230021
0.00223139
0.00215435
0.00206217
0.00195083
0.00181905
0.00166972
0.00151043
0.00135152
0.00120267
0.00107028
0.000957629
0.000865513
0.00079311
0.000738777
0.000700286
0.000675048
0.000660429
0.000653808
0.00065278
0.00065525
0.000659473
0.000664045
0.000667927
0.00067039
0.000670977
0.000669468
0.00261037
0.00259795
0.0025901
0.00258514
0.00258215
0.00258042
0.00257945
0.00257876
0.00257802
0.00257681
0.00257473
0.00257138
0.00256626
0.00255881
0.00254841
0.00253451
0.00251648
0.00249383
0.00246619
0.00243334
0.00239506
0.00235144
0.00230233
0.00224614
0.00218038
0.00210331
0.00201923
0.00192187
0.00181152
0.00169131
0.00156649
0.00144289
0.00132536
0.00121678
0.00111843
0.00103066
0.000953457
0.000886768
0.000830495
0.000784349
0.000747837
0.000720156
0.000700237
0.00068681
0.000678511
0.000673994
0.000672037
0.000671593
0.000671805
0.000672031
0.00252482
0.00252069
0.00251838
0.0025173
0.00251702
0.00251712
0.00251725
0.00251707
0.00251627
0.0025145
0.00251141
0.00250664
0.00249974
0.00249027
0.00247776
0.00246178
0.0024419
0.00241778
0.00238922
0.00235612
0.00231854
0.00227659
0.00223
0.00217786
0.00211843
0.00204435
0.00196642
0.00188283
0.00179219
0.001697
0.0016006
0.0015061
0.00141572
0.00133047
0.00125054
0.00117585
0.00110619
0.00104148
0.000981891
0.000927752
0.000879449
0.000837302
0.000801436
0.000771738
0.000747863
0.000729248
0.000715185
0.000704901
0.000697627
0.00069265
0.00243036
0.00242928
0.00242885
0.00242884
0.00242903
0.00242915
0.00242894
0.00242812
0.0024264
0.00242349
0.00241906
0.00241278
0.0024043
0.00239324
0.00237927
0.00236204
0.00234127
0.00231678
0.00228845
0.00225633
0.00222061
0.00218134
0.00213842
0.00209144
0.00203949
0.00197467
0.00190099
0.00183188
0.00175983
0.00168641
0.00161346
0.00154244
0.00147409
0.00140859
0.00134583
0.00128557
0.0012275
0.00117144
0.00111741
0.00106565
0.00101653
0.000970494
0.000928016
0.000889497
0.00085523
0.000825332
0.000799748
0.000778277
0.000760607
0.000746346
0.00228884
0.00228799
0.0022875
0.00228726
0.00228712
0.00228686
0.00228622
0.00228497
0.00228282
0.0022795
0.0022747
0.00226812
0.00225948
0.00224847
0.00223482
0.00221828
0.00219865
0.00217583
0.00214978
0.00212057
0.00208842
0.00205359
0.00201624
0.00197628
0.00193329
0.00188369
0.00181424
0.00176177
0.00170797
0.00165423
0.00160142
0.0015499
0.00149974
0.00145092
0.00140332
0.0013567
0.00131085
0.00126569
0.00122119
0.00117747
0.00113469
0.00109313
0.00105314
0.00101508
0.000979326
0.000946185
0.000915893
0.000888601
0.000864354
0.000843091
0.00281635
0.00277577
0.00273637
0.00269734
0.00265873
0.00262048
0.00258258
0.00254496
0.00250748
0.00247001
0.0024324
0.00239441
0.00235584
0.00231645
0.00227601
0.00223429
0.00219112
0.00214635
0.00209988
0.00205167
0.00200203
0.00195189
0.00190276
0.00185588
0.00181105
0.00176885
0.0017263
0.00170998
0.00169872
0.00169008
0.00168325
0.00167769
0.00167302
0.00166889
0.00166485
0.0016605
0.00165549
0.0016496
0.00164265
0.00163459
0.00162547
0.00161548
0.00160493
0.00159423
0.00158384
0.00157424
0.00156594
0.00155934
0.00155466
0.00155171
2.3837e-05
2.37081e-05
2.36353e-05
2.33939e-05
2.31044e-05
2.28547e-05
2.26535e-05
2.24716e-05
2.22883e-05
2.21007e-05
2.19131e-05
2.17292e-05
2.15493e-05
2.13728e-05
2.1199e-05
2.10273e-05
2.08575e-05
2.06893e-05
2.05229e-05
2.03582e-05
2.01954e-05
1.9987e-05
1.979e-05
1.95999e-05
1.94143e-05
1.92324e-05
1.9054e-05
1.88791e-05
1.86968e-05
1.85151e-05
1.83376e-05
1.81656e-05
1.79995e-05
1.78392e-05
1.76845e-05
1.75354e-05
1.73916e-05
1.72532e-05
1.71201e-05
1.69923e-05
1.68694e-05
1.67514e-05
1.66379e-05
1.65284e-05
1.64221e-05
1.63181e-05
1.62154e-05
1.61128e-05
1.60088e-05
1.59006e-05
2.31864e-05
2.19002e-05
2.09716e-05
2.01797e-05
1.94079e-05
1.86449e-05
1.79132e-05
1.72305e-05
1.65982e-05
1.60096e-05
1.54582e-05
1.49403e-05
1.44536e-05
1.39961e-05
1.35649e-05
1.31574e-05
1.27713e-05
1.24051e-05
1.20578e-05
1.17276e-05
1.14192e-05
1.14346e-05
1.14192e-05
1.13835e-05
1.13363e-05
1.12841e-05
1.12312e-05
1.11803e-05
1.1159e-05
1.11602e-05
1.11732e-05
1.11886e-05
1.12002e-05
1.12039e-05
1.11983e-05
1.11836e-05
1.1161e-05
1.11324e-05
1.10996e-05
1.10645e-05
1.1029e-05
1.09937e-05
1.09587e-05
1.09238e-05
1.08888e-05
1.08532e-05
1.08163e-05
1.07768e-05
1.07326e-05
1.06805e-05
2.33247e-05
2.22e-05
2.11407e-05
2.02125e-05
1.93677e-05
1.85716e-05
1.78152e-05
1.71011e-05
1.64305e-05
1.58012e-05
1.52093e-05
1.46515e-05
1.4125e-05
1.36274e-05
1.31563e-05
1.27094e-05
1.22848e-05
1.1881e-05
1.14976e-05
1.14119e-05
1.1324e-05
1.12386e-05
1.11544e-05
1.10711e-05
1.09889e-05
1.09079e-05
1.08282e-05
1.07497e-05
1.06738e-05
1.06003e-05
1.05287e-05
1.04585e-05
1.03891e-05
1.03202e-05
1.02516e-05
1.01833e-05
1.01156e-05
1.00489e-05
9.98355e-06
9.91997e-06
9.85846e-06
9.79901e-06
9.74139e-06
9.68532e-06
9.63046e-06
9.57654e-06
9.52353e-06
9.47165e-06
9.42076e-06
9.36889e-06
2.3258e-05
2.22434e-05
2.12291e-05
2.02855e-05
1.94191e-05
1.86148e-05
1.78594e-05
1.71473e-05
1.64764e-05
1.58449e-05
1.52503e-05
1.46896e-05
1.416e-05
1.36589e-05
1.3184e-05
1.27332e-05
1.23046e-05
1.18968e-05
1.15091e-05
1.14127e-05
1.13143e-05
1.12165e-05
1.11212e-05
1.10293e-05
1.09409e-05
1.08554e-05
1.07722e-05
1.06904e-05
1.06094e-05
1.05286e-05
1.04475e-05
1.03659e-05
1.0284e-05
1.02017e-05
1.01195e-05
1.00377e-05
9.95668e-06
9.87688e-06
9.79872e-06
9.72251e-06
9.64843e-06
9.57645e-06
9.5063e-06
9.43762e-06
9.3701e-06
9.30333e-06
9.23686e-06
9.17085e-06
9.10588e-06
9.04186e-06
2.32162e-05
2.22009e-05
2.12248e-05
2.02952e-05
1.94252e-05
1.86144e-05
1.78559e-05
1.71433e-05
1.64725e-05
1.58409e-05
1.52459e-05
1.46848e-05
1.4155e-05
1.36537e-05
1.31787e-05
1.27277e-05
1.2299e-05
1.18912e-05
1.15035e-05
1.14095e-05
1.132e-05
1.12305e-05
1.11414e-05
1.1053e-05
1.09656e-05
1.08791e-05
1.07934e-05
1.07083e-05
1.06235e-05
1.05387e-05
1.04536e-05
1.03682e-05
1.02826e-05
1.01968e-05
1.01112e-05
1.00262e-05
9.94206e-06
9.85931e-06
9.77836e-06
9.69945e-06
9.62266e-06
9.54787e-06
9.47491e-06
9.40351e-06
9.33341e-06
9.2644e-06
9.19595e-06
9.12776e-06
9.05974e-06
8.99195e-06
2.32197e-05
2.21768e-05
2.12091e-05
2.02943e-05
1.94323e-05
1.86239e-05
1.78662e-05
1.7155e-05
1.64859e-05
1.58557e-05
1.52617e-05
1.47011e-05
1.41713e-05
1.36698e-05
1.31943e-05
1.27426e-05
1.23131e-05
1.19042e-05
1.15138e-05
1.12322e-05
1.12011e-05
1.11474e-05
1.10799e-05
1.10046e-05
1.09253e-05
1.08444e-05
1.0763e-05
1.06817e-05
1.06003e-05
1.05186e-05
1.04366e-05
1.03539e-05
1.02706e-05
1.01869e-05
1.0103e-05
1.00193e-05
9.93618e-06
9.85424e-06
9.77388e-06
9.69543e-06
9.61904e-06
9.54451e-06
9.4715e-06
9.39981e-06
9.32924e-06
9.25964e-06
9.1907e-06
9.12212e-06
9.05373e-06
8.98529e-06
2.32339e-05
2.21798e-05
2.1205e-05
2.02926e-05
1.94347e-05
1.86282e-05
1.78706e-05
1.71588e-05
1.64894e-05
1.58589e-05
1.52645e-05
1.47032e-05
1.41726e-05
1.367e-05
1.31934e-05
1.27406e-05
1.23099e-05
1.19e-05
1.15101e-05
1.14093e-05
1.13079e-05
1.12077e-05
1.11104e-05
1.10169e-05
1.09273e-05
1.08411e-05
1.07576e-05
1.06759e-05
1.05949e-05
1.05141e-05
1.04328e-05
1.03508e-05
1.0268e-05
1.01844e-05
1.01005e-05
1.00165e-05
9.9332e-06
9.85109e-06
9.77068e-06
9.69222e-06
9.61584e-06
9.54149e-06
9.46885e-06
9.3975e-06
9.32721e-06
9.25771e-06
9.18884e-06
9.12017e-06
9.05154e-06
8.98271e-06
2.32398e-05
2.21903e-05
2.12111e-05
2.02966e-05
1.94394e-05
1.86342e-05
1.78774e-05
1.71661e-05
1.64969e-05
1.58666e-05
1.52722e-05
1.47108e-05
1.41797e-05
1.36765e-05
1.3199e-05
1.27453e-05
1.23136e-05
1.19027e-05
1.1512e-05
1.14162e-05
1.13192e-05
1.12216e-05
1.11248e-05
1.10302e-05
1.09383e-05
1.08494e-05
1.07632e-05
1.06789e-05
1.0596e-05
1.05135e-05
1.04311e-05
1.03482e-05
1.02647e-05
1.01806e-05
1.00962e-05
1.0012e-05
9.92856e-06
9.84644e-06
9.76615e-06
9.68795e-06
9.61186e-06
9.53771e-06
9.4654e-06
9.39452e-06
9.32479e-06
9.2557e-06
9.18702e-06
9.1185e-06
9.04993e-06
8.98104e-06
2.32387e-05
2.21964e-05
2.12184e-05
2.03028e-05
1.94449e-05
1.86399e-05
1.78836e-05
1.71724e-05
1.6503e-05
1.58724e-05
1.52774e-05
1.47151e-05
1.41831e-05
1.36788e-05
1.32001e-05
1.27451e-05
1.23121e-05
1.18999e-05
1.15081e-05
1.14081e-05
1.1306e-05
1.12044e-05
1.1106e-05
1.10119e-05
1.09223e-05
1.08365e-05
1.07535e-05
1.06723e-05
1.05918e-05
1.05112e-05
1.04299e-05
1.03475e-05
1.0264e-05
1.01795e-05
1.00945e-05
1.00097e-05
9.92557e-06
9.8429e-06
9.76212e-06
9.68351e-06
9.60726e-06
9.53317e-06
9.46093e-06
9.3902e-06
9.32074e-06
9.25213e-06
9.18386e-06
9.11557e-06
9.04715e-06
8.97833e-06
2.32371e-05
2.21983e-05
2.12233e-05
2.03085e-05
1.94507e-05
1.86458e-05
1.78897e-05
1.71787e-05
1.65094e-05
1.58784e-05
1.5283e-05
1.47201e-05
1.41873e-05
1.36821e-05
1.32024e-05
1.27462e-05
1.2312e-05
1.18987e-05
1.15061e-05
1.14053e-05
1.13024e-05
1.12002e-05
1.11014e-05
1.10073e-05
1.09178e-05
1.08324e-05
1.075e-05
1.06693e-05
1.05892e-05
1.05089e-05
1.04277e-05
1.03452e-05
1.02614e-05
1.01766e-05
1.00912e-05
1.0006e-05
9.92158e-06
9.83865e-06
9.75777e-06
9.67907e-06
9.60272e-06
9.52873e-06
9.45677e-06
9.38638e-06
9.31714e-06
9.24875e-06
9.18083e-06
9.11285e-06
9.04461e-06
8.97586e-06
2.32373e-05
2.21996e-05
2.12266e-05
2.03132e-05
1.94561e-05
1.86515e-05
1.78957e-05
1.71847e-05
1.65152e-05
1.5884e-05
1.5288e-05
1.47246e-05
1.41909e-05
1.36847e-05
1.32038e-05
1.27464e-05
1.23111e-05
1.18968e-05
1.15032e-05
1.14019e-05
1.1299e-05
1.1197e-05
1.10983e-05
1.10042e-05
1.09147e-05
1.08293e-05
1.07469e-05
1.06663e-05
1.05864e-05
1.05062e-05
1.04251e-05
1.03426e-05
1.02588e-05
1.01739e-05
1.00886e-05
1.00034e-05
9.91903e-06
9.83606e-06
9.75508e-06
9.6765e-06
9.60032e-06
9.52654e-06
9.45476e-06
9.38465e-06
9.31574e-06
9.24759e-06
9.17985e-06
9.11203e-06
9.04386e-06
8.97504e-06
2.32385e-05
2.22016e-05
2.12297e-05
2.03174e-05
1.94611e-05
1.8657e-05
1.79013e-05
1.71903e-05
1.65207e-05
1.58891e-05
1.52927e-05
1.47285e-05
1.4194e-05
1.36867e-05
1.32045e-05
1.27459e-05
1.23094e-05
1.18939e-05
1.14996e-05
1.14016e-05
1.13036e-05
1.12058e-05
1.11094e-05
1.10157e-05
1.09252e-05
1.08382e-05
1.07539e-05
1.06716e-05
1.05903e-05
1.05091e-05
1.04273e-05
1.03444e-05
1.02604e-05
1.01754e-05
1.00901e-05
1.0005e-05
9.92065e-06
9.83789e-06
9.757e-06
9.67842e-06
9.60221e-06
9.52845e-06
9.4567e-06
9.38655e-06
9.31766e-06
9.24958e-06
9.18182e-06
9.11386e-06
9.0454e-06
8.97608e-06
2.32396e-05
2.22042e-05
2.12331e-05
2.03215e-05
1.94659e-05
1.86622e-05
1.79068e-05
1.71959e-05
1.65263e-05
1.58947e-05
1.52979e-05
1.47332e-05
1.41979e-05
1.36897e-05
1.32065e-05
1.27468e-05
1.23094e-05
1.18931e-05
1.14981e-05
1.13995e-05
1.13014e-05
1.12035e-05
1.11072e-05
1.10135e-05
1.09232e-05
1.08361e-05
1.07518e-05
1.06694e-05
1.05879e-05
1.05063e-05
1.04242e-05
1.0341e-05
1.02568e-05
1.01717e-05
1.00861e-05
1.00009e-05
9.91631e-06
9.83329e-06
9.75244e-06
9.67398e-06
9.59796e-06
9.52434e-06
9.4529e-06
9.38317e-06
9.31462e-06
9.24687e-06
9.17948e-06
9.11183e-06
9.04361e-06
8.97435e-06
2.32403e-05
2.22065e-05
2.12363e-05
2.03252e-05
1.947e-05
1.86665e-05
1.7911e-05
1.72e-05
1.653e-05
1.58977e-05
1.53002e-05
1.47344e-05
1.41979e-05
1.36883e-05
1.32039e-05
1.27429e-05
1.23043e-05
1.1887e-05
1.14913e-05
1.13924e-05
1.12941e-05
1.11963e-05
1.11001e-05
1.10068e-05
1.09168e-05
1.08302e-05
1.07462e-05
1.0664e-05
1.05825e-05
1.05011e-05
1.04189e-05
1.03356e-05
1.02512e-05
1.01659e-05
1.00802e-05
9.99477e-06
9.91031e-06
9.82736e-06
9.74657e-06
9.66826e-06
9.59254e-06
9.51926e-06
9.44818e-06
9.37898e-06
9.31108e-06
9.24395e-06
9.17709e-06
9.10988e-06
9.04186e-06
8.9726e-06
2.32407e-05
2.22085e-05
2.12392e-05
2.03288e-05
1.94741e-05
1.86712e-05
1.79163e-05
1.72058e-05
1.65361e-05
1.5904e-05
1.53062e-05
1.47401e-05
1.42031e-05
1.36929e-05
1.32077e-05
1.27459e-05
1.23064e-05
1.18884e-05
1.14921e-05
1.13925e-05
1.12939e-05
1.11963e-05
1.11008e-05
1.10084e-05
1.09195e-05
1.08336e-05
1.07502e-05
1.06683e-05
1.05869e-05
1.05053e-05
1.0423e-05
1.03395e-05
1.02547e-05
1.0169e-05
1.0083e-05
9.9972e-06
9.91229e-06
9.82908e-06
9.74822e-06
9.66989e-06
9.59427e-06
9.5212e-06
9.45035e-06
9.38131e-06
9.31359e-06
9.24667e-06
9.18005e-06
9.11311e-06
9.04532e-06
8.97613e-06
2.32412e-05
2.22097e-05
2.12405e-05
2.03293e-05
1.94736e-05
1.86694e-05
1.79132e-05
1.72013e-05
1.65302e-05
1.58966e-05
1.52975e-05
1.473e-05
1.41918e-05
1.36804e-05
1.31941e-05
1.27314e-05
1.22912e-05
1.18728e-05
1.14762e-05
1.13786e-05
1.12843e-05
1.11924e-05
1.11034e-05
1.10171e-05
1.09333e-05
1.08512e-05
1.07703e-05
1.06899e-05
1.06093e-05
1.05278e-05
1.04448e-05
1.03605e-05
1.02749e-05
1.0188e-05
1.01009e-05
1.00142e-05
9.92855e-06
9.84463e-06
9.76325e-06
9.68457e-06
9.60868e-06
9.53547e-06
9.46471e-06
9.39605e-06
9.32891e-06
9.26276e-06
9.19703e-06
9.13116e-06
9.06474e-06
8.99726e-06
2.32417e-05
2.22111e-05
2.1243e-05
2.03335e-05
1.94795e-05
1.86771e-05
1.79222e-05
1.72112e-05
1.65406e-05
1.59071e-05
1.53077e-05
1.47398e-05
1.42007e-05
1.36883e-05
1.32008e-05
1.27369e-05
1.22957e-05
1.18762e-05
1.14787e-05
1.13799e-05
1.12839e-05
1.119e-05
1.10986e-05
1.10099e-05
1.09238e-05
1.08402e-05
1.07584e-05
1.06778e-05
1.05978e-05
1.05176e-05
1.04367e-05
1.03548e-05
1.02721e-05
1.01887e-05
1.01051e-05
1.00221e-05
9.94054e-06
9.86094e-06
9.78395e-06
9.70986e-06
9.63875e-06
9.57052e-06
9.505e-06
9.44194e-06
9.38085e-06
9.32129e-06
9.26275e-06
9.20471e-06
9.14696e-06
9.08928e-06
2.32421e-05
2.2205e-05
2.12293e-05
2.03128e-05
1.94528e-05
1.86458e-05
1.78877e-05
1.71747e-05
1.65033e-05
1.58699e-05
1.52714e-05
1.47048e-05
1.41676e-05
1.36574e-05
1.31726e-05
1.27119e-05
1.2274e-05
1.18582e-05
1.14645e-05
1.13711e-05
1.12799e-05
1.11897e-05
1.11031e-05
1.10207e-05
1.0945e-05
1.08736e-05
1.08043e-05
1.07356e-05
1.06665e-05
1.05966e-05
1.05264e-05
1.04559e-05
1.03853e-05
1.03151e-05
1.02456e-05
1.01773e-05
1.01108e-05
1.00468e-05
9.98573e-06
9.92782e-06
9.87331e-06
9.82231e-06
9.77481e-06
9.73059e-06
9.68916e-06
9.65012e-06
9.61313e-06
9.57783e-06
9.5442e-06
9.51262e-06
2.32454e-05
2.22174e-05
2.12561e-05
2.03553e-05
1.95132e-05
1.87299e-05
1.79998e-05
1.73183e-05
1.6681e-05
1.60838e-05
1.55229e-05
1.49949e-05
1.44966e-05
1.40254e-05
1.35793e-05
1.31566e-05
1.27559e-05
1.23763e-05
1.20175e-05
1.16788e-05
1.15649e-05
1.14401e-05
1.1325e-05
1.12259e-05
1.1236e-05
1.12628e-05
1.12877e-05
1.13025e-05
1.13065e-05
1.13017e-05
1.12909e-05
1.12767e-05
1.12598e-05
1.12407e-05
1.12199e-05
1.11979e-05
1.1175e-05
1.11519e-05
1.1129e-05
1.11071e-05
1.10866e-05
1.1068e-05
1.10516e-05
1.10374e-05
1.10251e-05
1.10141e-05
1.10042e-05
1.09954e-05
1.09879e-05
1.09838e-05
2.38452e-05
2.36416e-05
2.34432e-05
2.32515e-05
2.30653e-05
2.28792e-05
2.26929e-05
2.25065e-05
2.23198e-05
2.21327e-05
2.19453e-05
2.17575e-05
2.15697e-05
2.13824e-05
2.11961e-05
2.10115e-05
2.08295e-05
2.06507e-05
2.04758e-05
2.03053e-05
2.01398e-05
1.99611e-05
1.97769e-05
1.95921e-05
1.93699e-05
1.91658e-05
1.89749e-05
1.87934e-05
1.86178e-05
1.84458e-05
1.82758e-05
1.8108e-05
1.79432e-05
1.77822e-05
1.76258e-05
1.7475e-05
1.73299e-05
1.71906e-05
1.70567e-05
1.69279e-05
1.68039e-05
1.6684e-05
1.65671e-05
1.64525e-05
1.63393e-05
1.62266e-05
1.61135e-05
1.59991e-05
1.58822e-05
1.57617e-05
8.51152e-05
2.6125e-05
4.7543e-05
7.68601e-05
0.00010082
0.000113334
0.000114746
0.000105862
8.63916e-05
6.3542e-05
5.32388e-05
5.4831e-05
5.9256e-05
6.20155e-05
6.32156e-05
6.39833e-05
6.46439e-05
6.47441e-05
7.41323e-05
0.000489078
8.1536e-05
2.57762e-05
4.77465e-05
7.73588e-05
0.000101571
0.000114212
0.000115535
0.000106099
8.53358e-05
6.07062e-05
4.94846e-05
5.21699e-05
5.78108e-05
6.14236e-05
6.32256e-05
6.44972e-05
6.56556e-05
6.62587e-05
7.68376e-05
0.000512778
7.80291e-05
2.54794e-05
4.7961e-05
7.78542e-05
0.000102316
0.000115093
0.000116336
0.000106348
8.42988e-05
5.79e-05
4.55466e-05
4.94656e-05
5.6294e-05
6.06419e-05
6.287e-05
6.44222e-05
6.58216e-05
6.66612e-05
7.7994e-05
0.00052847
7.46161e-05
2.52319e-05
4.81847e-05
7.83434e-05
0.00010305
0.000115973
0.000117148
0.000106617
8.33152e-05
5.52186e-05
4.15457e-05
4.68145e-05
5.48504e-05
5.98852e-05
6.2519e-05
6.4349e-05
6.59895e-05
6.70649e-05
7.91948e-05
0.000544904
7.12861e-05
2.50342e-05
4.8416e-05
7.88249e-05
0.000103772
0.000116851
0.000117972
0.000106915
8.2422e-05
5.2762e-05
3.76773e-05
4.43001e-05
5.35065e-05
5.91666e-05
6.21786e-05
6.42803e-05
6.61607e-05
6.74708e-05
8.04425e-05
0.000562099
6.80433e-05
2.48845e-05
4.86538e-05
7.92975e-05
0.00010448
0.000117727
0.000118809
0.000107253
8.1652e-05
5.06153e-05
3.41619e-05
4.2013e-05
5.22827e-05
5.8493e-05
6.18527e-05
6.42185e-05
6.63364e-05
6.78794e-05
8.17378e-05
0.000580027
6.4891e-05
2.47803e-05
4.88975e-05
7.9761e-05
0.000105173
0.000118599
0.00011966
0.000107637
8.10305e-05
4.88399e-05
3.12249e-05
4.00096e-05
5.11829e-05
5.78651e-05
6.1543e-05
6.41647e-05
6.65173e-05
6.82909e-05
8.3082e-05
0.000598668
6.18323e-05
2.47188e-05
4.9147e-05
8.02158e-05
0.000105853
0.000119468
0.000120526
0.000108073
8.05728e-05
4.74667e-05
2.9043e-05
3.82999e-05
5.01961e-05
5.72803e-05
6.125e-05
6.41195e-05
6.67035e-05
6.87056e-05
8.44764e-05
0.000618012
5.88699e-05
2.46971e-05
4.94025e-05
8.06628e-05
0.000106519
0.000120334
0.000121408
0.000108564
8.02831e-05
4.64944e-05
2.76746e-05
3.68561e-05
4.93083e-05
5.67353e-05
6.09737e-05
6.40834e-05
6.68954e-05
6.91234e-05
8.59229e-05
0.000638051
5.60065e-05
2.4712e-05
4.96642e-05
8.1103e-05
0.000107173
0.000121199
0.000122305
0.000109108
8.0157e-05
4.58952e-05
2.70462e-05
3.56488e-05
4.85159e-05
5.6229e-05
6.07145e-05
6.40571e-05
6.70932e-05
6.95445e-05
8.74235e-05
0.000658778
5.32443e-05
2.47603e-05
4.99325e-05
8.15376e-05
0.000107817
0.000122061
0.000123216
0.000109704
8.01845e-05
4.56249e-05
2.69938e-05
3.4677e-05
4.78193e-05
5.57618e-05
6.04732e-05
6.40414e-05
6.72974e-05
6.99692e-05
8.89807e-05
0.000680196
5.05854e-05
2.48391e-05
5.02077e-05
8.1968e-05
0.000108451
0.000122922
0.000124141
0.000110348
8.0356e-05
4.56388e-05
2.73959e-05
3.38931e-05
4.72243e-05
5.53345e-05
6.02511e-05
6.40374e-05
6.75086e-05
7.03979e-05
9.05974e-05
0.000702311
4.80315e-05
2.49457e-05
5.049e-05
8.23957e-05
0.000109077
0.000123782
0.000125091
0.000111072
8.06631e-05
4.57963e-05
2.8193e-05
3.32138e-05
4.67266e-05
5.49491e-05
6.00494e-05
6.40462e-05
6.77272e-05
7.08306e-05
9.2277e-05
0.000725131
4.55843e-05
2.50777e-05
5.07784e-05
8.28064e-05
0.000109698
0.000124661
0.000126091
0.000111888
8.11001e-05
4.60672e-05
2.89273e-05
3.2812e-05
4.62617e-05
5.45953e-05
5.98698e-05
6.40688e-05
6.79535e-05
7.12675e-05
9.40226e-05
0.000748663
4.32453e-05
2.52219e-05
5.10617e-05
8.32152e-05
0.000110326
0.000125563
0.000127139
0.000112794
8.16658e-05
4.64447e-05
2.96104e-05
3.26888e-05
4.58643e-05
5.4256e-05
5.97101e-05
6.41052e-05
6.81874e-05
7.17081e-05
9.58374e-05
0.000772915
4.10182e-05
2.53719e-05
5.13437e-05
8.36235e-05
0.000110962
0.000126488
0.000128237
0.000113792
8.23588e-05
4.69233e-05
3.02789e-05
3.28044e-05
4.55368e-05
5.3951e-05
5.95685e-05
6.41505e-05
6.84285e-05
7.21522e-05
9.77249e-05
0.000797891
3.89043e-05
2.55261e-05
5.16256e-05
8.40323e-05
0.000111607
0.000127437
0.000129384
0.000114878
8.31777e-05
4.74997e-05
3.09478e-05
3.31142e-05
4.52789e-05
5.36837e-05
5.94517e-05
6.42066e-05
6.86739e-05
7.25989e-05
9.97773e-05
0.000823507
3.69025e-05
2.56846e-05
5.1908e-05
8.44422e-05
0.000112259
0.000128409
0.000130578
0.000116054
8.41213e-05
4.81711e-05
3.16218e-05
3.35723e-05
4.5089e-05
5.34554e-05
5.93609e-05
6.42777e-05
6.8925e-05
7.30453e-05
0.000102067
0.0008497
3.50116e-05
2.58475e-05
5.21912e-05
8.48533e-05
0.00011292
0.000129403
0.000131819
0.000117317
8.51882e-05
4.89357e-05
3.23002e-05
3.41347e-05
4.49645e-05
5.32667e-05
5.92958e-05
6.43641e-05
6.91823e-05
7.34934e-05
0.000104579
0.000876485
3.32303e-05
2.60148e-05
5.24755e-05
8.52658e-05
0.000113589
0.000130418
0.000133107
0.000118666
8.63765e-05
4.97919e-05
3.29812e-05
3.47621e-05
4.49018e-05
5.31175e-05
5.9256e-05
6.44649e-05
6.94449e-05
7.39548e-05
0.000107285
0.000903877
3.15574e-05
2.61867e-05
5.27614e-05
8.56805e-05
0.000114267
0.000131457
0.000134443
0.000120101
8.76836e-05
5.07381e-05
3.36619e-05
3.54231e-05
4.48964e-05
5.30068e-05
5.92405e-05
6.45788e-05
6.97117e-05
7.44296e-05
0.000110164
0.000931893
2.99916e-05
2.63632e-05
5.30497e-05
8.60985e-05
0.000114955
0.000132519
0.000135825
0.00012162
8.91069e-05
5.17729e-05
3.43363e-05
3.60938e-05
4.49425e-05
5.29327e-05
5.92474e-05
6.47042e-05
6.99816e-05
7.4916e-05
0.000113192
0.000960551
2.85315e-05
2.65448e-05
5.33412e-05
8.65213e-05
0.000115654
0.000133607
0.000137256
0.000123222
9.06441e-05
5.2896e-05
3.4997e-05
3.67555e-05
4.50333e-05
5.28924e-05
5.92745e-05
6.48389e-05
7.02529e-05
7.54118e-05
0.000116343
0.000989871
2.7176e-05
2.67318e-05
5.36368e-05
8.69497e-05
0.000116365
0.000134719
0.000138734
0.000124906
9.22942e-05
5.41098e-05
3.56398e-05
3.73928e-05
4.51612e-05
5.2882e-05
5.93187e-05
6.49804e-05
7.05241e-05
7.59143e-05
0.000119593
0.00101988
2.59234e-05
2.69244e-05
5.39369e-05
8.7384e-05
0.000117089
0.000135856
0.000140258
0.00012667
9.40583e-05
5.54211e-05
3.62665e-05
3.79945e-05
4.53176e-05
5.2897e-05
5.93767e-05
6.51261e-05
7.07937e-05
7.64211e-05
0.000122921
0.0010506
2.47723e-05
2.71226e-05
5.42413e-05
8.78235e-05
0.000117824
0.000137017
0.000141828
0.000128516
9.59398e-05
5.68408e-05
3.68871e-05
3.8553e-05
4.54948e-05
5.29326e-05
5.9445e-05
6.52735e-05