/*--------------------------------*- C++ -*----------------------------------*\
  =========                 |
  \\      /  F ield         | OpenFOAM: The Open Source CFD Toolbox
   \\    /   O peration     | Website:  https://openfoam.org
    \\  /    A nd           | Version:  8
     \\/     M anipulation  |
\*---------------------------------------------------------------------------*/
FoamFile
{
    version     2.0;
    format      ascii;
    class       volScalarField;
    location    "100";
    object      nut;
}
// * * * * * * * * * * * * * * * * * * * * * * * * * * * * * * * * * * * * * //

dimensions      [0 2 -1 0 0 0 0];

internalField   nonuniform List<scalar> 
8400
(
2.90122e-05
2.7626e-05
2.82262e-05
2.95757e-05
3.10147e-05
3.20445e-05
3.28499e-05
3.35927e-05
3.43532e-05
3.51613e-05
3.60223e-05
3.69298e-05
3.68758e-05
3.56168e-05
3.33173e-05
3.03248e-05
2.72804e-05
2.5074e-05
2.37142e-05
2.24013e-05
2.10983e-05
2.00353e-05
1.94283e-05
1.93118e-05
1.94753e-05
1.97891e-05
2.01169e-05
2.03965e-05
2.06001e-05
2.07212e-05
2.07659e-05
2.0744e-05
2.06666e-05
2.058e-05
2.04837e-05
2.038e-05
2.02687e-05
2.01471e-05
2.00151e-05
1.98751e-05
1.97246e-05
1.95635e-05
1.93938e-05
1.92156e-05
1.90277e-05
1.88314e-05
1.86276e-05
1.84163e-05
1.81987e-05
1.79753e-05
3.09274e-05
2.76342e-05
2.92563e-05
3.29626e-05
3.70005e-05
4.01779e-05
4.28106e-05
4.517e-05
4.73938e-05
4.94616e-05
5.12143e-05
5.23473e-05
5.13552e-05
4.91932e-05
4.62632e-05
4.25051e-05
3.81741e-05
3.47136e-05
3.28647e-05
3.03886e-05
2.71075e-05
2.33167e-05
1.95875e-05
1.73348e-05
1.57812e-05
1.49573e-05
1.46478e-05
1.45629e-05
1.46007e-05
1.47095e-05
1.48603e-05
1.50382e-05
1.52356e-05
1.53877e-05
1.5503e-05
1.55928e-05
1.56606e-05
1.5712e-05
1.57519e-05
1.57801e-05
1.57991e-05
1.5813e-05
1.58208e-05
1.58238e-05
1.5823e-05
1.58186e-05
1.58114e-05
1.58023e-05
1.57915e-05
1.57786e-05
2.98097e-05
3.03254e-05
3.52647e-05
3.91402e-05
4.26684e-05
4.65778e-05
5.02449e-05
5.36253e-05
5.6712e-05
5.93396e-05
6.07002e-05
5.83129e-05
5.69586e-05
5.58252e-05
5.44104e-05
5.23311e-05
4.9386e-05
4.64464e-05
4.52907e-05
4.28745e-05
3.91229e-05
3.40005e-05
2.67279e-05
2.30819e-05
1.96753e-05
1.73733e-05
1.64741e-05
1.60287e-05
1.58417e-05
1.5817e-05
1.59013e-05
1.60701e-05
1.6297e-05
1.65223e-05
1.67586e-05
1.70033e-05
1.72546e-05
1.75121e-05
1.7773e-05
1.80347e-05
1.82969e-05
1.85588e-05
1.88167e-05
1.90696e-05
1.93152e-05
1.95505e-05
1.9774e-05
1.99833e-05
2.01744e-05
2.03435e-05
6.14213e-05
6.06289e-05
6.06832e-05
6.00437e-05
5.90974e-05
5.82215e-05
5.75384e-05
5.71091e-05
5.69832e-05
5.70896e-05
5.6676e-05
5.63376e-05
5.623e-05
5.6262e-05
5.62701e-05
5.61541e-05
5.64122e-05
5.60684e-05
5.57662e-05
5.39474e-05
5.13752e-05
4.80956e-05
3.45256e-05
3.12927e-05
2.60092e-05
2.07486e-05
1.91898e-05
1.84499e-05
1.81909e-05
1.81352e-05
1.82273e-05
1.8433e-05
1.8644e-05
1.89267e-05
1.9252e-05
1.96087e-05
1.99887e-05
2.03838e-05
2.07892e-05
2.12018e-05
2.16159e-05
2.20265e-05
2.24298e-05
2.28241e-05
2.3206e-05
2.35712e-05
2.39178e-05
2.42425e-05
2.45414e-05
2.48114e-05
6.14225e-05
6.12972e-05
6.11713e-05
6.09883e-05
6.07143e-05
6.0371e-05
6.001e-05
5.96875e-05
5.94513e-05
5.93177e-05
5.92477e-05
5.9232e-05
5.91384e-05
5.90027e-05
5.88898e-05
5.87933e-05
5.87271e-05
5.85782e-05
5.83677e-05
5.81023e-05
5.83373e-05
6.96193e-05
4.10348e-05
4.25605e-05
3.73198e-05
2.48748e-05
2.22316e-05
2.06274e-05
2.03724e-05
2.03471e-05
2.04653e-05
2.06883e-05
2.09479e-05
2.1282e-05
2.1672e-05
2.21022e-05
2.25629e-05
2.30443e-05
2.35386e-05
2.40379e-05
2.45353e-05
2.50273e-05
2.55089e-05
2.59753e-05
2.64249e-05
2.68551e-05
2.72617e-05
2.76425e-05
2.79952e-05
2.83174e-05
6.14168e-05
6.13191e-05
6.12161e-05
6.11021e-05
6.09681e-05
6.0807e-05
6.06256e-05
6.04357e-05
6.0255e-05
6.0095e-05
5.99556e-05
5.98312e-05
5.97106e-05
5.95856e-05
5.94515e-05
5.93011e-05
5.91297e-05
5.89214e-05
5.86791e-05
5.8399e-05
5.80162e-05
5.69351e-05
5.67695e-05
6.26966e-05
6.71369e-05
3.20176e-05
2.78624e-05
2.24231e-05
2.20466e-05
2.21469e-05
2.23626e-05
2.2531e-05
2.2837e-05
2.32201e-05
2.36607e-05
2.41413e-05
2.46518e-05
2.51829e-05
2.57213e-05
2.62583e-05
2.67891e-05
2.73087e-05
2.78116e-05
2.8293e-05
2.87521e-05
2.91852e-05
2.95889e-05
2.99644e-05
3.03092e-05
3.06215e-05
6.1406e-05
6.12977e-05
6.11877e-05
6.10754e-05
6.09605e-05
6.08387e-05
6.07084e-05
6.05705e-05
6.04275e-05
6.02829e-05
6.01388e-05
5.9996e-05
5.98513e-05
5.97036e-05
5.95489e-05
5.93827e-05
5.91964e-05
5.89834e-05
5.87338e-05
5.84375e-05
5.80654e-05
5.75232e-05
5.70274e-05
5.64998e-05
5.19846e-05
6.88637e-05
5.09238e-05
2.52133e-05
2.30211e-05
2.3302e-05
2.352e-05
2.38141e-05
2.41897e-05
2.46232e-05
2.51039e-05
2.56232e-05
2.61628e-05
2.67105e-05
2.72556e-05
2.77925e-05
2.83149e-05
2.88148e-05
2.9288e-05
2.97312e-05
3.01413e-05
3.05167e-05
3.08562e-05
3.11616e-05
3.14317e-05
3.16679e-05
6.1391e-05
6.12631e-05
6.11356e-05
6.10087e-05
6.08829e-05
6.07577e-05
6.06314e-05
6.05025e-05
6.03696e-05
6.0233e-05
6.00921e-05
5.9947e-05
5.97998e-05
5.96463e-05
5.94879e-05
5.93197e-05
5.91363e-05
5.89277e-05
5.8682e-05
5.83898e-05
5.80329e-05
5.75819e-05
5.707e-05
5.64101e-05
5.48558e-05
5.46974e-05
4.81996e-05
8.16457e-05
2.36689e-05
2.37599e-05
2.40781e-05
2.45096e-05
2.49782e-05
2.54779e-05
2.60064e-05
2.6554e-05
2.71009e-05
2.76436e-05
2.81774e-05
2.86882e-05
2.91672e-05
2.96115e-05
3.00187e-05
3.03809e-05
3.06959e-05
3.09671e-05
3.1192e-05
3.1371e-05
3.15062e-05
3.16033e-05
6.13692e-05
6.12133e-05
6.10576e-05
6.0906e-05
6.07587e-05
6.06156e-05
6.0477e-05
6.03386e-05
6.02009e-05
6.00607e-05
5.99201e-05
5.97755e-05
5.96291e-05
5.94799e-05
5.93256e-05
5.91638e-05
5.89877e-05
5.87884e-05
5.85543e-05
5.82716e-05
5.79261e-05
5.75039e-05
5.70058e-05
5.63762e-05
5.5421e-05
5.44153e-05
5.15852e-05
5.01633e-05
4.2287e-05
4.68674e-05
2.41521e-05
2.46592e-05
2.52487e-05
2.58337e-05
2.64095e-05
2.69772e-05
2.75313e-05
2.80692e-05
2.85812e-05
2.90524e-05
2.94785e-05
2.9857e-05
3.01833e-05
3.04498e-05
3.06562e-05
3.08034e-05
3.08851e-05
3.09061e-05
3.08726e-05
3.0789e-05
6.13352e-05
6.11342e-05
6.09375e-05
6.07516e-05
6.05727e-05
6.04036e-05
6.02413e-05
6.00884e-05
5.99394e-05
5.9794e-05
5.96503e-05
5.95091e-05
5.93682e-05
5.9227e-05
5.90834e-05
5.89348e-05
5.87712e-05
5.85839e-05
5.83613e-05
5.80887e-05
5.77541e-05
5.73447e-05
5.68564e-05
5.6257e-05
5.54737e-05
5.44524e-05
5.26042e-05
5.03046e-05
4.55703e-05
4.10494e-05
3.52235e-05
2.56891e-05
2.50588e-05
2.57277e-05
2.63597e-05
2.6955e-05
2.75293e-05
2.80708e-05
2.85648e-05
2.90092e-05
2.94032e-05
2.97358e-05
3.00011e-05
3.01942e-05
3.03121e-05
3.03542e-05
3.03133e-05
3.01979e-05
3.00121e-05
2.97568e-05
6.1281e-05
6.0999e-05
6.07381e-05
6.05e-05
6.02792e-05
6.00798e-05
5.98975e-05
5.97278e-05
5.9573e-05
5.94256e-05
5.92851e-05
5.91514e-05
5.90235e-05
5.88982e-05
5.87723e-05
5.86409e-05
5.84941e-05
5.83219e-05
5.81102e-05
5.78459e-05
5.75172e-05
5.71151e-05
5.66311e-05
5.605e-05
5.53334e-05
5.43865e-05
5.29325e-05
5.08213e-05
4.74261e-05
4.3178e-05
3.78381e-05
3.10707e-05
2.70578e-05
2.5708e-05
2.58307e-05
2.65306e-05
2.71312e-05
2.76828e-05
2.81815e-05
2.86304e-05
2.90252e-05
2.93463e-05
2.95976e-05
2.97778e-05
2.98625e-05
2.98594e-05
2.97706e-05
2.95974e-05
2.93399e-05
2.90035e-05
6.11788e-05
6.07336e-05
6.03709e-05
6.00733e-05
5.98172e-05
5.95965e-05
5.9403e-05
5.9229e-05
5.90799e-05
5.89441e-05
5.88222e-05
5.87096e-05
5.86041e-05
5.85044e-05
5.84032e-05
5.82925e-05
5.81641e-05
5.8004e-05
5.77997e-05
5.75397e-05
5.72123e-05
5.68111e-05
5.63292e-05
5.57556e-05
5.50717e-05
5.419e-05
5.29416e-05
5.11223e-05
4.84492e-05
4.48858e-05
4.03925e-05
3.51443e-05
3.06301e-05
2.76018e-05
2.63114e-05
2.62314e-05
2.6577e-05
2.70551e-05
2.75484e-05
2.80064e-05
2.84178e-05
2.87637e-05
2.90394e-05
2.92456e-05
2.93605e-05
2.93874e-05
2.93318e-05
2.91848e-05
2.89467e-05
2.86288e-05
6.06507e-05
6.01091e-05
5.97113e-05
5.94002e-05
5.91425e-05
5.89338e-05
5.87595e-05
5.86085e-05
5.84865e-05
5.83798e-05
5.829e-05
5.82074e-05
5.81349e-05
5.80627e-05
5.79884e-05
5.78936e-05
5.77792e-05
5.7626e-05
5.74232e-05
5.71588e-05
5.68285e-05
5.64235e-05
5.59409e-05
5.53718e-05
5.47053e-05
5.38739e-05
5.27571e-05
5.11838e-05
4.8982e-05
4.60559e-05
4.24136e-05
3.82615e-05
3.42553e-05
3.09005e-05
2.85724e-05
2.73064e-05
2.68054e-05
2.67727e-05
2.69891e-05
2.73135e-05
2.76734e-05
2.80221e-05
2.83302e-05
2.85833e-05
2.87687e-05
2.88785e-05
2.89068e-05
2.88488e-05
2.87079e-05
2.8486e-05
5.96801e-05
5.91737e-05
5.88267e-05
5.85696e-05
5.83668e-05
5.82105e-05
5.80877e-05
5.79869e-05
5.7906e-05
5.7838e-05
5.77815e-05
5.7729e-05
5.76778e-05
5.7621e-05
5.75518e-05
5.74586e-05
5.73381e-05
5.71756e-05
5.69618e-05
5.66891e-05
5.63757e-05
5.5983e-05
5.54496e-05
5.48853e-05
5.42321e-05
5.34408e-05
5.24192e-05
5.10409e-05
4.9193e-05
4.68096e-05
4.39208e-05
4.06906e-05
3.74503e-05
3.44815e-05
3.19941e-05
3.00923e-05
2.87573e-05
2.7912e-05
2.74561e-05
2.72859e-05
2.73139e-05
2.74615e-05
2.76675e-05
2.7891e-05
2.8103e-05
2.82787e-05
2.84008e-05
2.84595e-05
2.84517e-05
2.83733e-05
5.84952e-05
5.8153e-05
5.79275e-05
5.77666e-05
5.76466e-05
5.75597e-05
5.74925e-05
5.74395e-05
5.73974e-05
5.73574e-05
5.73201e-05
5.72794e-05
5.72293e-05
5.71657e-05
5.70813e-05
5.69689e-05
5.68226e-05
5.66326e-05
5.63931e-05
5.6105e-05
5.577e-05
5.53566e-05
5.48685e-05
5.43946e-05
5.36432e-05
5.28852e-05
5.19432e-05
5.07292e-05
4.91742e-05
4.72512e-05
4.50027e-05
4.25514e-05
4.00784e-05
3.77295e-05
3.55989e-05
3.37341e-05
3.21425e-05
3.08211e-05
2.9766e-05
2.89647e-05
2.84002e-05
2.80415e-05
2.78504e-05
2.77874e-05
2.78123e-05
2.78865e-05
2.7979e-05
2.80672e-05
2.81337e-05
2.81644e-05
5.74127e-05
5.72464e-05
5.71377e-05
5.70627e-05
5.7011e-05
5.69725e-05
5.69431e-05
5.69169e-05
5.68907e-05
5.68599e-05
5.68203e-05
5.67693e-05
5.6703e-05
5.66157e-05
5.65022e-05
5.63595e-05
5.6179e-05
5.59563e-05
5.56883e-05
5.53752e-05
5.50112e-05
5.45887e-05
5.41213e-05
5.36432e-05
5.30969e-05
5.21914e-05
5.13271e-05
5.02635e-05
4.89639e-05
4.74364e-05
4.57292e-05
4.39232e-05
4.21178e-05
4.03842e-05
3.8757e-05
3.72483e-05
3.58517e-05
3.45566e-05
3.3361e-05
3.22685e-05
3.12921e-05
3.04491e-05
2.97535e-05
2.92091e-05
2.88072e-05
2.85287e-05
2.83509e-05
2.82493e-05
2.81992e-05
2.81778e-05
5.64859e-05
5.64279e-05
5.63902e-05
5.63647e-05
5.63466e-05
5.63309e-05
5.63132e-05
5.62908e-05
5.62606e-05
5.62192e-05
5.61638e-05
5.60908e-05
5.59967e-05
5.5878e-05
5.57312e-05
5.55526e-05
5.53375e-05
5.50835e-05
5.47877e-05
5.44499e-05
5.40668e-05
5.36423e-05
5.31825e-05
5.2692e-05
5.2248e-05
5.14869e-05
5.05571e-05
4.96346e-05
4.85775e-05
4.73965e-05
4.61357e-05
4.48481e-05
4.35807e-05
4.23603e-05
4.11967e-05
4.00911e-05
3.90317e-05
3.79992e-05
3.69808e-05
3.59699e-05
3.49677e-05
3.39885e-05
3.30541e-05
3.21871e-05
3.14086e-05
3.07336e-05
3.01687e-05
2.97114e-05
2.9352e-05
2.90769e-05
5.54769e-05
5.54643e-05
5.54555e-05
5.54472e-05
5.5438e-05
5.54241e-05
5.54029e-05
5.53721e-05
5.53281e-05
5.52692e-05
5.51923e-05
5.50942e-05
5.49727e-05
5.48244e-05
5.46475e-05
5.4438e-05
5.41934e-05
5.39137e-05
5.35964e-05
5.32423e-05
5.28517e-05
5.24293e-05
5.19801e-05
5.15038e-05
5.10683e-05
5.06675e-05
4.95678e-05
4.88078e-05
4.79836e-05
4.71084e-05
4.62146e-05
4.53293e-05
4.44657e-05
4.36334e-05
4.28358e-05
4.20645e-05
4.1306e-05
4.05469e-05
3.97758e-05
3.89838e-05
3.8163e-05
3.73139e-05
3.64444e-05
3.5567e-05
3.46999e-05
3.38638e-05
3.30775e-05
3.23557e-05
3.17083e-05
3.11403e-05
5.39376e-05
5.39401e-05
5.39414e-05
5.39397e-05
5.39337e-05
5.39201e-05
5.38956e-05
5.38593e-05
5.3807e-05
5.37365e-05
5.3646e-05
5.35315e-05
5.33922e-05
5.32251e-05
5.30277e-05
5.2799e-05
5.25372e-05
5.22427e-05
5.19153e-05
5.15552e-05
5.1165e-05
5.07543e-05
5.03323e-05
4.99065e-05
4.94858e-05
4.9466e-05
4.81522e-05
4.7634e-05
4.7048e-05
4.64506e-05
4.58631e-05
4.52888e-05
4.47279e-05
4.41838e-05
4.36541e-05
4.31271e-05
4.25943e-05
4.20523e-05
4.14937e-05
4.09118e-05
4.03001e-05
3.96544e-05
3.89754e-05
3.82664e-05
3.75345e-05
3.67896e-05
3.60433e-05
3.53078e-05
3.45955e-05
3.3917e-05
6.01666e-05
5.97865e-05
5.94096e-05
5.90256e-05
5.86332e-05
5.82314e-05
5.78191e-05
5.73949e-05
5.69567e-05
5.65037e-05
5.60349e-05
5.55475e-05
5.50413e-05
5.45157e-05
5.39693e-05
5.34023e-05
5.28154e-05
5.22097e-05
5.15885e-05
5.09541e-05
5.03107e-05
4.96686e-05
4.904e-05
4.84412e-05
4.78018e-05
4.73314e-05
4.61259e-05
4.58908e-05
4.5816e-05
4.58131e-05
4.58547e-05
4.59284e-05
4.60281e-05
4.61452e-05
4.62694e-05
4.63919e-05
4.65061e-05
4.66069e-05
4.66857e-05
4.67349e-05
4.67489e-05
4.67229e-05
4.66548e-05
4.65439e-05
4.63918e-05
4.62022e-05
4.59804e-05
4.57338e-05
4.54684e-05
4.51866e-05
5.48168e-06
5.49545e-06
5.53137e-06
5.48696e-06
5.41807e-06
5.3669e-06
5.33757e-06
5.31691e-06
5.29547e-06
5.27179e-06
5.24794e-06
5.22548e-06
5.20463e-06
5.18498e-06
5.16609e-06
5.14764e-06
5.12932e-06
5.11088e-06
5.09218e-06
5.07321e-06
5.05394e-06
5.01703e-06
4.9879e-06
4.96269e-06
4.93952e-06
4.91751e-06
4.89626e-06
4.87563e-06
4.86411e-06
4.84618e-06
4.82533e-06
4.80349e-06
4.78156e-06
4.75999e-06
4.73897e-06
4.71858e-06
4.69882e-06
4.67972e-06
4.66134e-06
4.64384e-06
4.62709e-06
4.61115e-06
4.59603e-06
4.58156e-06
4.56742e-06
4.55338e-06
4.53907e-06
4.52422e-06
4.5085e-06
4.491e-06
5.3894e-06
5.15486e-06
5.05442e-06
4.99397e-06
4.92035e-06
4.82763e-06
4.72877e-06
4.63487e-06
4.54881e-06
4.46899e-06
4.39365e-06
4.3222e-06
4.25465e-06
4.19079e-06
4.12998e-06
4.0714e-06
4.01437e-06
3.9585e-06
3.90373e-06
3.8498e-06
3.79799e-06
1.61439e-05
1.61986e-05
1.61976e-05
1.61557e-05
1.60886e-05
1.60091e-05
1.5926e-05
1.57901e-05
1.57077e-05
1.56725e-05
1.56678e-05
1.5677e-05
1.5687e-05
1.56893e-05
1.56798e-05
1.56574e-05
1.56236e-05
1.55808e-05
1.55324e-05
1.54822e-05
1.54318e-05
1.53816e-05
1.5331e-05
1.52791e-05
1.52254e-05
1.51694e-05
1.51105e-05
1.50487e-05
1.49822e-05
5.45346e-06
5.29785e-06
5.14378e-06
5.02526e-06
4.92333e-06
4.82352e-06
4.72321e-06
4.62538e-06
4.53247e-06
4.44485e-06
4.36196e-06
4.28322e-06
4.20826e-06
4.13668e-06
4.06796e-06
4.00152e-06
3.93688e-06
3.87377e-06
3.81216e-06
1.60186e-05
1.58952e-05
1.57763e-05
1.56588e-05
1.55424e-05
1.54273e-05
1.53139e-05
1.52026e-05
1.50935e-05
1.49852e-05
1.48807e-05
1.47798e-05
1.46815e-05
1.45848e-05
1.4489e-05
1.43934e-05
1.42977e-05
1.42021e-05
1.41073e-05
1.40142e-05
1.39237e-05
1.38365e-05
1.37527e-05
1.36718e-05
1.35932e-05
1.35162e-05
1.34395e-05
1.33621e-05
1.32837e-05
1.32052e-05
1.31297e-05
5.42303e-06
5.3156e-06
5.18034e-06
5.05237e-06
4.93805e-06
4.83275e-06
4.73202e-06
4.63479e-06
4.54168e-06
4.45326e-06
4.3695e-06
4.29006e-06
4.21448e-06
4.14223e-06
4.07276e-06
4.00557e-06
3.94022e-06
3.87645e-06
3.81421e-06
1.60365e-05
1.59093e-05
1.5773e-05
1.56337e-05
1.54963e-05
1.53642e-05
1.52381e-05
1.51178e-05
1.5002e-05
1.48892e-05
1.47778e-05
1.46665e-05
1.45543e-05
1.44409e-05
1.43262e-05
1.42104e-05
1.40943e-05
1.39787e-05
1.38645e-05
1.37528e-05
1.36444e-05
1.35399e-05
1.34394e-05
1.3342e-05
1.32468e-05
1.31534e-05
1.30614e-05
1.29695e-05
1.28768e-05
1.27823e-05
1.26887e-05
5.404e-06
5.2957e-06
5.17833e-06
5.05751e-06
4.94201e-06
4.83398e-06
4.7321e-06
4.63497e-06
4.54216e-06
4.4538e-06
4.36994e-06
4.29037e-06
4.21466e-06
4.14226e-06
4.07261e-06
4.00522e-06
3.93967e-06
3.87568e-06
3.81312e-06
1.6011e-05
1.5886e-05
1.57599e-05
1.56338e-05
1.55087e-05
1.53854e-05
1.52643e-05
1.51454e-05
1.50284e-05
1.49124e-05
1.47967e-05
1.46803e-05
1.45626e-05
1.44435e-05
1.43231e-05
1.42018e-05
1.40803e-05
1.39594e-05
1.38404e-05
1.37241e-05
1.36116e-05
1.35031e-05
1.33984e-05
1.32972e-05
1.31984e-05
1.31008e-05
1.30044e-05
1.29089e-05
1.28141e-05
1.27182e-05
1.26213e-05
5.40554e-06
5.28415e-06
5.17006e-06
5.05573e-06
4.94357e-06
4.83611e-06
4.73407e-06
4.63709e-06
4.54474e-06
4.45683e-06
4.37328e-06
4.29385e-06
4.21814e-06
4.14564e-06
4.07582e-06
4.00818e-06
3.94234e-06
3.87796e-06
3.81389e-06
3.67622e-06
1.55579e-05
1.5544e-05
1.54878e-05
1.54053e-05
1.53074e-05
1.52017e-05
1.50927e-05
1.49826e-05
1.48722e-05
1.47612e-05
1.46493e-05
1.45357e-05
1.44204e-05
1.43032e-05
1.41846e-05
1.40653e-05
1.39461e-05
1.38283e-05
1.37131e-05
1.36013e-05
1.34937e-05
1.33899e-05
1.3289e-05
1.31906e-05
1.30937e-05
1.29972e-05
1.29009e-05
1.28048e-05
1.27085e-05
1.26114e-05
5.412e-06
5.28533e-06
5.16777e-06
5.05449e-06
4.94428e-06
4.83778e-06
4.73584e-06
4.63874e-06
4.54639e-06
4.45858e-06
4.37507e-06
4.29557e-06
4.21966e-06
4.14687e-06
4.07669e-06
4.00863e-06
3.9423e-06
3.87739e-06
3.81385e-06
1.60248e-05
1.58913e-05
1.57512e-05
1.56091e-05
1.54697e-05
1.5336e-05
1.5209e-05
1.50885e-05
1.49732e-05
1.48613e-05
1.47508e-05
1.46401e-05
1.45281e-05
1.4414e-05
1.42977e-05
1.41794e-05
1.40597e-05
1.39401e-05
1.38219e-05
1.37063e-05
1.35944e-05
1.34865e-05
1.33827e-05
1.32824e-05
1.31844e-05
1.30884e-05
1.2993e-05
1.28976e-05
1.28015e-05
1.27047e-05
1.2607e-05
5.41463e-06
5.29004e-06
5.17033e-06
5.05592e-06
4.94588e-06
4.8399e-06
4.73826e-06
4.64128e-06
4.549e-06
4.46126e-06
4.37779e-06
4.29822e-06
4.22215e-06
4.14911e-06
4.0786e-06
4.01014e-06
3.94334e-06
3.87789e-06
3.81381e-06
1.60245e-05
1.58929e-05
1.57581e-05
1.56213e-05
1.54851e-05
1.5352e-05
1.52237e-05
1.51006e-05
1.49822e-05
1.4867e-05
1.47537e-05
1.46406e-05
1.45266e-05
1.44108e-05
1.42929e-05
1.41731e-05
1.40523e-05
1.39317e-05
1.38128e-05
1.36969e-05
1.35851e-05
1.34775e-05
1.33737e-05
1.32737e-05
1.31765e-05
1.30814e-05
1.29871e-05
1.28927e-05
1.27974e-05
1.27011e-05
1.26036e-05
5.41409e-06
5.29268e-06
5.17345e-06
5.05843e-06
4.94804e-06
4.84213e-06
4.74071e-06
4.64387e-06
4.55162e-06
4.46382e-06
4.3802e-06
4.30043e-06
4.2241e-06
4.15073e-06
4.07981e-06
4.01087e-06
3.94349e-06
3.87744e-06
3.81279e-06
1.6023e-05
1.58881e-05
1.57446e-05
1.55989e-05
1.54569e-05
1.53221e-05
1.51955e-05
1.50763e-05
1.49628e-05
1.48527e-05
1.47439e-05
1.46344e-05
1.45228e-05
1.44082e-05
1.42905e-05
1.41702e-05
1.40484e-05
1.39266e-05
1.38066e-05
1.36895e-05
1.35765e-05
1.34684e-05
1.33646e-05
1.32647e-05
1.31677e-05
1.3073e-05
1.29795e-05
1.28861e-05
1.27917e-05
1.2696e-05
1.25989e-05
5.41328e-06
5.29335e-06
5.17543e-06
5.06075e-06
4.95035e-06
4.8445e-06
4.74322e-06
4.64651e-06
4.55427e-06
4.46639e-06
4.38262e-06
4.30268e-06
4.22614e-06
4.15248e-06
4.08119e-06
4.01175e-06
3.94382e-06
3.8772e-06
3.81202e-06
1.6017e-05
1.58805e-05
1.57356e-05
1.55887e-05
1.54461e-05
1.53112e-05
1.51851e-05
1.5067e-05
1.49549e-05
1.48462e-05
1.47386e-05
1.463e-05
1.45188e-05
1.4404e-05
1.42857e-05
1.41647e-05
1.40422e-05
1.39196e-05
1.37987e-05
1.36812e-05
1.35676e-05
1.34588e-05
1.33549e-05
1.32555e-05
1.31593e-05
1.30652e-05
1.29723e-05
1.28797e-05
1.27861e-05
1.26912e-05
1.25946e-05
5.41331e-06
5.29372e-06
5.1767e-06
5.06266e-06
4.95259e-06
4.84691e-06
4.74574e-06
4.64907e-06
4.5568e-06
4.46883e-06
4.38496e-06
4.30488e-06
4.22813e-06
4.15415e-06
4.0824e-06
4.01242e-06
3.94391e-06
3.87672e-06
3.81103e-06
1.60099e-05
1.58726e-05
1.57276e-05
1.55812e-05
1.54391e-05
1.53046e-05
1.51788e-05
1.50609e-05
1.49491e-05
1.48409e-05
1.47336e-05
1.46252e-05
1.45139e-05
1.4399e-05
1.42805e-05
1.41592e-05
1.40363e-05
1.39135e-05
1.3792e-05
1.36738e-05
1.35602e-05
1.34516e-05
1.33482e-05
1.32491e-05
1.31536e-05
1.30604e-05
1.29683e-05
1.28765e-05
1.27838e-05
1.26895e-05
1.25933e-05
5.41381e-06
5.29451e-06
5.17794e-06
5.06439e-06
4.95472e-06
4.84926e-06
4.74819e-06
4.65152e-06
4.55923e-06
4.47123e-06
4.3873e-06
4.30708e-06
4.23006e-06
4.15568e-06
4.08341e-06
4.01286e-06
3.94378e-06
3.87604e-06
3.80984e-06
1.5995e-05
1.58586e-05
1.57211e-05
1.55835e-05
1.54479e-05
1.53168e-05
1.51918e-05
1.50728e-05
1.4959e-05
1.48483e-05
1.47387e-05
1.46283e-05
1.45154e-05
1.43992e-05
1.42798e-05
1.41581e-05
1.40347e-05
1.39113e-05
1.37901e-05
1.36718e-05
1.35581e-05
1.34495e-05
1.33464e-05
1.32478e-05
1.31528e-05
1.30602e-05
1.29689e-05
1.28776e-05
1.27855e-05
1.26916e-05
1.25954e-05
5.41426e-06
5.29553e-06
5.17929e-06
5.06608e-06
4.95672e-06
4.85148e-06
4.75052e-06
4.65393e-06
4.56171e-06
4.47376e-06
4.38982e-06
4.30944e-06
4.2321e-06
4.15728e-06
4.08451e-06
4.01344e-06
3.94384e-06
3.87561e-06
3.80899e-06
1.59896e-05
1.58521e-05
1.57143e-05
1.55768e-05
1.54417e-05
1.53114e-05
1.51871e-05
1.50688e-05
1.49553e-05
1.48446e-05
1.47346e-05
1.46236e-05
1.45103e-05
1.43938e-05
1.42736e-05
1.4151e-05
1.40271e-05
1.39027e-05
1.37805e-05
1.3662e-05
1.35483e-05
1.34399e-05
1.33369e-05
1.32387e-05
1.31444e-05
1.30526e-05
1.29623e-05
1.28723e-05
1.27811e-05
1.26882e-05
1.25929e-05
5.41453e-06
5.29644e-06
5.18057e-06
5.06762e-06
4.95848e-06
4.8534e-06
4.75256e-06
4.65607e-06
4.56394e-06
4.47598e-06
4.39188e-06
4.31119e-06
4.23342e-06
4.15809e-06
4.0848e-06
4.01318e-06
3.94304e-06
3.87431e-06
3.80727e-06
1.59774e-05
1.58393e-05
1.57011e-05
1.55637e-05
1.54293e-05
1.53001e-05
1.5177e-05
1.50597e-05
1.49468e-05
1.48365e-05
1.47269e-05
1.46159e-05
1.45022e-05
1.43852e-05
1.42647e-05
1.41412e-05
1.40164e-05
1.38921e-05
1.37695e-05
1.36507e-05
1.35369e-05
1.34286e-05
1.33261e-05
1.32284e-05
1.3135e-05
1.30446e-05
1.29555e-05
1.2867e-05
1.27773e-05
1.26855e-05
1.25907e-05
5.41469e-06
5.29711e-06
5.18162e-06
5.06895e-06
4.96004e-06
4.85521e-06
4.75464e-06
4.6584e-06
4.56644e-06
4.47852e-06
4.39432e-06
4.31342e-06
4.23536e-06
4.15969e-06
4.086e-06
4.01394e-06
3.94334e-06
3.8742e-06
3.8068e-06
1.5975e-05
1.58354e-05
1.56967e-05
1.556e-05
1.54273e-05
1.53003e-05
1.51792e-05
1.50634e-05
1.49516e-05
1.48418e-05
1.47322e-05
1.46215e-05
1.45076e-05
1.43897e-05
1.42684e-05
1.41444e-05
1.40184e-05
1.38929e-05
1.37696e-05
1.36506e-05
1.35366e-05
1.34286e-05
1.33262e-05
1.3229e-05
1.31361e-05
1.30463e-05
1.29581e-05
1.28703e-05
1.27816e-05
1.26908e-05
1.25966e-05
5.41483e-06
5.29754e-06
5.18227e-06
5.0697e-06
4.96083e-06
4.85602e-06
4.75545e-06
4.65916e-06
4.56705e-06
4.47889e-06
4.39437e-06
4.31311e-06
4.23466e-06
4.15856e-06
4.08439e-06
4.01184e-06
3.94079e-06
3.87128e-06
3.80355e-06
1.59483e-05
1.58074e-05
1.56714e-05
1.55414e-05
1.54177e-05
1.53001e-05
1.51874e-05
1.50784e-05
1.49719e-05
1.48661e-05
1.47587e-05
1.46483e-05
1.45345e-05
1.4416e-05
1.4293e-05
1.41675e-05
1.40406e-05
1.3914e-05
1.37897e-05
1.36698e-05
1.35553e-05
1.3447e-05
1.33444e-05
1.32474e-05
1.31551e-05
1.30663e-05
1.29798e-05
1.28938e-05
1.2807e-05
1.27186e-05
1.26274e-05
5.41495e-06
5.29786e-06
5.18289e-06
5.0707e-06
4.96223e-06
4.85781e-06
4.7576e-06
4.66156e-06
4.56958e-06
4.48146e-06
4.39691e-06
4.31552e-06
4.23683e-06
4.16037e-06
4.08577e-06
4.01277e-06
3.94132e-06
3.87144e-06
3.80343e-06
1.59496e-05
1.58089e-05
1.56729e-05
1.5542e-05
1.54165e-05
1.52963e-05
1.51811e-05
1.50698e-05
1.49614e-05
1.48547e-05
1.47476e-05
1.46382e-05
1.45256e-05
1.44101e-05
1.42912e-05
1.41698e-05
1.40476e-05
1.39266e-05
1.38085e-05
1.36951e-05
1.35873e-05
1.34857e-05
1.33904e-05
1.3301e-05
1.3217e-05
1.3137e-05
1.306e-05
1.29846e-05
1.29094e-05
1.28335e-05
1.27566e-05
5.41504e-06
5.29726e-06
5.18147e-06
5.0685e-06
4.95934e-06
4.85437e-06
4.75371e-06
4.65733e-06
4.56513e-06
4.4769e-06
4.39231e-06
4.31093e-06
4.23227e-06
4.15587e-06
4.0814e-06
4.00866e-06
3.93757e-06
3.86814e-06
3.80066e-06
1.59345e-05
1.58003e-05
1.56648e-05
1.55339e-05
1.54115e-05
1.53032e-05
1.52078e-05
1.51203e-05
1.50356e-05
1.49497e-05
1.48606e-05
1.47681e-05
1.46717e-05
1.45723e-05
1.4471e-05
1.43688e-05
1.4267e-05
1.41674e-05
1.40715e-05
1.39805e-05
1.38954e-05
1.38167e-05
1.37449e-05
1.36801e-05
1.36219e-05
1.35693e-05
1.35206e-05
1.34751e-05
1.34317e-05
1.33898e-05
1.33497e-05
5.41544e-06
5.29873e-06
5.18469e-06
5.07379e-06
4.9669e-06
4.8649e-06
4.76782e-06
4.67561e-06
4.58815e-06
4.5052e-06
4.42638e-06
4.35122e-06
4.27917e-06
4.20972e-06
4.14245e-06
4.07704e-06
4.01326e-06
3.95104e-06
3.8905e-06
3.83216e-06
1.64783e-05
1.63348e-05
1.61425e-05
1.5956e-05
1.58017e-05
1.57816e-05
1.58163e-05
1.58637e-05
1.5897e-05
1.59078e-05
1.58988e-05
1.58758e-05
1.58424e-05
1.58025e-05
1.5759e-05
1.57141e-05
1.56692e-05
1.56257e-05
1.55845e-05
1.55468e-05
1.55139e-05
1.54866e-05
1.5465e-05
1.5449e-05
1.54375e-05
1.54291e-05
1.54225e-05
1.5417e-05
1.54127e-05
1.54116e-05
5.48479e-06
5.463e-06
5.44037e-06
5.4178e-06
5.3957e-06
5.37354e-06
5.35137e-06
5.32927e-06
5.30724e-06
5.28524e-06
5.26317e-06
5.24091e-06
5.21838e-06
5.19554e-06
5.17241e-06
5.14904e-06
5.12555e-06
5.1021e-06
5.07892e-06
5.05629e-06
5.0352e-06
5.02853e-06
5.01498e-06
4.99737e-06
4.95702e-06
4.92322e-06
4.89428e-06
4.86876e-06
4.84651e-06
4.82603e-06
4.80589e-06
4.78552e-06
4.76456e-06
4.74308e-06
4.72141e-06
4.70008e-06
4.67934e-06
4.65959e-06
4.64096e-06
4.62351e-06
4.60732e-06
4.59239e-06
4.57838e-06
4.56495e-06
4.55171e-06
4.5384e-06
4.52469e-06
4.51031e-06
4.49502e-06
4.47863e-06
9.93637e-06
5.7144e-06
7.62744e-06
9.67468e-06
1.10993e-05
1.18166e-05
1.19202e-05
1.14207e-05
1.02853e-05
8.92421e-06
8.28563e-06
8.30309e-06
8.60364e-06
8.77771e-06
8.81253e-06
8.79864e-06
8.76888e-06
8.6988e-06
9.22147e-06
2.38422e-05
9.70761e-06
5.68144e-06
7.65725e-06
9.72015e-06
1.11533e-05
1.1872e-05
1.19651e-05
1.14279e-05
1.02051e-05
8.70938e-06
8.00061e-06
8.08171e-06
8.49609e-06
8.73627e-06
8.81241e-06
8.83077e-06
8.83269e-06
8.7958e-06
9.38212e-06
2.4386e-05
9.47804e-06
5.65555e-06
7.6883e-06
9.76559e-06
1.12069e-05
1.19272e-05
1.20101e-05
1.14352e-05
1.01241e-05
8.48753e-06
7.69114e-06
7.85313e-06
8.37452e-06
8.67736e-06
8.7867e-06
8.82486e-06
8.84301e-06
8.82216e-06
9.45094e-06
2.4746e-05
9.25185e-06
5.63554e-06
7.72051e-06
9.81077e-06
1.12598e-05
1.19822e-05
1.20553e-05
1.14431e-05
1.0045e-05
8.26597e-06
7.37109e-06
7.61896e-06
8.2558e-06
8.6191e-06
8.7606e-06
8.81863e-06
8.85323e-06
8.84854e-06
9.522e-06
2.51186e-05
9.02708e-06
5.62165e-06
7.75357e-06
9.85551e-06
1.1312e-05
1.20367e-05
1.21006e-05
1.14524e-05
9.97075e-06
8.05366e-06
7.05728e-06
7.38853e-06
8.14233e-06
8.56292e-06
8.73479e-06
8.81242e-06
8.86355e-06
8.87501e-06
9.59545e-06
2.5504e-05
8.80429e-06
5.6137e-06
7.78729e-06
9.89962e-06
1.13631e-05
1.20907e-05
1.21462e-05
1.14637e-05
9.90408e-06
7.85932e-06
6.76663e-06
7.17319e-06
8.03752e-06
8.50989e-06
8.70971e-06
8.80642e-06
8.87403e-06
8.90158e-06
9.67124e-06
2.59012e-05
8.58395e-06
5.61132e-06
7.82149e-06
9.94299e-06
1.14132e-05
1.2144e-05
1.21921e-05
1.14777e-05
9.84707e-06
7.68958e-06
6.50737e-06
6.9814e-06
7.9439e-06
8.46059e-06
8.68558e-06
8.80071e-06
8.88469e-06
8.92821e-06
9.74933e-06
2.6309e-05
8.36649e-06
5.61408e-06
7.85606e-06
9.98557e-06
1.14621e-05
1.21967e-05
1.22384e-05
1.14947e-05
9.80091e-06
7.54811e-06
6.27575e-06
6.81651e-06
7.86152e-06
8.41489e-06
8.66245e-06
8.79529e-06
8.89551e-06
8.95491e-06
9.8297e-06
2.67265e-05
8.15235e-06
5.62158e-06
7.89092e-06
1.00274e-05
1.15099e-05
1.22489e-05
1.22851e-05
1.15146e-05
9.76572e-06
7.43538e-06
6.06259e-06
6.67749e-06
7.78827e-06
8.37224e-06
8.64021e-06
8.7902e-06
8.90652e-06
8.9817e-06
9.91239e-06
2.71527e-05
7.94194e-06
5.63335e-06
7.92602e-06
1.00684e-05
1.15566e-05
1.23004e-05
1.23322e-05
1.15374e-05
9.74109e-06
7.34993e-06
5.87101e-06
6.55768e-06
7.72243e-06
8.33214e-06
8.61879e-06
8.78548e-06
8.91782e-06
9.00868e-06
9.99747e-06
2.75869e-05
7.73572e-06
5.64897e-06
7.96133e-06
1.01088e-05
1.16024e-05
1.23515e-05
1.23796e-05
1.15626e-05
9.72649e-06
7.28965e-06
5.71685e-06
6.45461e-06
7.66269e-06
8.29439e-06
8.59824e-06
8.78124e-06
8.92952e-06
9.03594e-06
1.0085e-05
2.80285e-05
7.53414e-06
5.66804e-06
7.99687e-06
1.01488e-05
1.16472e-05
1.24022e-05
1.24273e-05
1.15898e-05
9.71834e-06
7.26334e-06
5.62239e-06
6.38386e-06
7.60933e-06
8.25881e-06
8.57865e-06
8.77762e-06
8.94173e-06
9.06356e-06
1.01751e-05
2.84771e-05
7.33768e-06
5.69016e-06
8.03261e-06
1.01889e-05
1.16923e-05
1.24517e-05
1.24734e-05
1.16177e-05
9.7192e-06
7.25878e-06
5.70787e-06
6.29719e-06
7.5731e-06
8.22628e-06
8.56007e-06
8.77474e-06
8.9545e-06
9.09154e-06
1.02677e-05
2.89323e-05
7.14684e-06
5.71702e-06
8.0708e-06
1.02272e-05
1.17354e-05
1.25012e-05
1.25219e-05
1.16505e-05
9.72792e-06
7.26342e-06
5.7896e-06
6.2321e-06
7.53295e-06
8.19893e-06
8.54283e-06
8.77269e-06
8.96785e-06
9.11984e-06
1.0363e-05
2.93937e-05
6.962e-06
5.74604e-06
8.10775e-06
1.02652e-05
1.17788e-05
1.25518e-05
1.25727e-05
1.1688e-05
9.74458e-06
7.27687e-06
5.85855e-06
6.19859e-06
7.49603e-06
8.169e-06
8.52753e-06
8.77194e-06
8.98176e-06
9.14842e-06
1.04609e-05
2.98613e-05
6.78363e-06
5.77627e-06
8.14429e-06
1.0303e-05
1.18225e-05
1.26034e-05
1.26258e-05
1.17302e-05
9.76921e-06
7.29862e-06
5.9234e-06
6.1929e-06
7.46305e-06
8.14036e-06
8.512e-06
8.77209e-06
8.9964e-06
9.17724e-06
1.05615e-05
3.03347e-05
6.61277e-06
5.80668e-06
8.18046e-06
1.03406e-05
1.18664e-05
1.26559e-05
1.26813e-05
1.17773e-05
9.80182e-06
7.32839e-06
5.98856e-06
6.21075e-06
7.43455e-06
8.11368e-06
8.49776e-06
8.77218e-06
9.0115e-06
9.2065e-06
1.06682e-05
3.08126e-05
6.44977e-06
5.83721e-06
8.21621e-06
1.03778e-05
1.19104e-05
1.27094e-05
1.27389e-05
1.18293e-05
9.84243e-06
7.36592e-06
6.0566e-06
6.24787e-06
7.41102e-06
8.08934e-06
8.48523e-06
8.77329e-06
9.02709e-06
9.23584e-06
1.07896e-05
3.12921e-05
6.29505e-06
5.86782e-06
8.25152e-06
1.04147e-05
1.19546e-05
1.27637e-05
1.27989e-05
1.1886e-05
9.89093e-06
7.41075e-06
6.12782e-06
6.29987e-06
7.39274e-06
8.06768e-06
8.4746e-06
8.77575e-06
9.04342e-06
9.26502e-06
1.09257e-05
3.17733e-05
6.149e-06
5.89848e-06
8.28642e-06
1.04513e-05
1.19989e-05
1.2819e-05
1.28612e-05
1.19476e-05
9.94702e-06
7.46218e-06
6.20088e-06
6.36186e-06
7.37976e-06
8.04897e-06
8.46602e-06
8.77964e-06
9.06052e-06
9.29554e-06
1.10749e-05
3.22561e-05
6.01209e-06
5.92923e-06
8.32101e-06
1.04877e-05
1.20436e-05
1.28753e-05
1.29258e-05
1.20139e-05
1.00102e-05
7.51918e-06
6.27314e-06
6.42904e-06
7.37179e-06
8.03335e-06
8.45959e-06
8.78497e-06
9.07835e-06
9.32753e-06
1.1236e-05
3.27404e-05
5.88478e-06
5.96014e-06
8.35545e-06
1.05242e-05
1.20888e-05
1.29329e-05
1.29929e-05
1.20846e-05
1.008e-05
7.58072e-06
6.34126e-06
6.49741e-06
7.36843e-06
8.02088e-06
8.45529e-06
8.79169e-06
9.09684e-06
9.36089e-06
1.14074e-05
3.32261e-05
5.76763e-06
5.99134e-06
8.38992e-06
1.05609e-05
1.21346e-05
1.29917e-05
1.30624e-05
1.21596e-05
1.01561e-05
7.64626e-06
6.40258e-06
6.56401e-06
7.36938e-06
8.01156e-06
8.45309e-06
8.79968e-06
9.11583e-06
9.39543e-06
1.15867e-05
3.37133e-05
5.66116e-06
6.02294e-06
8.42455e-06
1.0598e-05
1.21811e-05
1.30518e-05
1.31341e-05