/*--------------------------------*- C++ -*----------------------------------*\
  =========                 |
  \\      /  F ield         | OpenFOAM: The Open Source CFD Toolbox
   \\    /   O peration     | Website:  https://openfoam.org
    \\  /    A nd           | Version:  8
     \\/     M anipulation  |
\*---------------------------------------------------------------------------*/
FoamFile
{
    version     2.0;
    format      ascii;
    class       volScalarField;
    location    "100";
    object      p;
}
// * * * * * * * * * * * * * * * * * * * * * * * * * * * * * * * * * * * * * //

dimensions      [1 -1 -2 0 0 0 0];

internalField   nonuniform List<scalar> 
8400
(
18038.8
18934.5
19264
19425.4
19396.7
19343.5
19471.5
20128.6
21920.2
25608.9
31912.4
41175.9
53001.4
65850
77441.3
85993.7
91135
94195.3
96859.5
99395.1
101518
103084
104166
104900
105365
105638
105783
105846
105853
105823
105767
105691
105602
105501
105392
105277
105155
105028
104895
104756
104612
104461
104305
104144
103979
103814
103650
103490
103342
103210
21480.8
22318.5
19879.9
19304.1
19160.1
19048.2
18959.9
19185.9
20347.5
23293.1
28954.1
38031.8
50290.7
63985.6
76504.6
85791.7
91047.2
93647.6
96151
98835
101212
102939
104051
104825
105314
105587
105728
105784
105784
105748
105687
105607
105513
105409
105296
105177
105052
104921
104785
104644
104497
104344
104185
104022
103855
103686
103516
103350
103188
103034
20086.6
26657.9
21951.5
19200.4
18342.1
17722.5
16875.2
16098.4
16148.9
18198.7
23830.3
34232.1
48304.1
63387.4
77065.7
87221.9
92182.8
93434.3
95339.7
98358.3
101276
103174
104114
104883
105389
105623
105741
105774
105756
105706
105634
105546
105447
105337
105221
105098
104969
104837
104699
104557
104409
104256
104098
103936
103770
103603
103435
103268
103105
102944
9850.79
25426.5
24378
21345.2
20004.1
19452.1
18908.7
18427.7
18773.2
21402.2
28139.2
39394.7
53491.1
67885
80264.1
88689.7
91926.3
92920.9
94654.2
98428
102034
103770
104196
105019
105567
105693
105786
105781
105736
105667
105580
105481
105372
105255
105131
105002
104867
104728
104585
104437
104285
104127
103966
103800
103630
103459
103286
103114
102943
102774
7923.07
16758.5
20050.4
19970.1
20362.2
21793.6
23640.2
25662.7
28320.7
32569.9
39344.5
48635.4
59287.6
69729.6
78569.3
85000
89115.1
92311.2
95705.9
99834.4
103101
103929
104258
105310
105821
105761
105858
105801
105727
105636
105534
105424
105308
105184
105054
104919
104780
104637
104489
104338
104183
104023
103859
103692
103522
103348
103173
102997
102821
102645
6347.09
12791.1
18147.6
20908.3
23241.3
25999.2
29076.9
32416.9
36271
41068.9
47145.2
54415.4
62315.3
70066.9
76984
82754.3
87544.1
91825.4
95684.4
99028
101528
103030
104549
105735
105853
105794
105926
105794
105697
105586
105471
105353
105229
105098
104962
104822
104679
104531
104380
104225
104066
103902
103735
103564
103390
103212
103032
102850
102667
102485
7418.46
12734.8
18572.4
22556.3
25839
29217.5
32852.6
36783
41107.5
45955.5
51403.8
57382.2
63651.3
69882
75780.2
81207.3
86169.3
90650.3
94535.9
97809.4
100451
102452
103938
104907
105541
105970
105898
105740
105636
105514
105395
105272
105140
105003
104863
104720
104574
104425
104272
104115
103953
103788
103618
103444
103266
103084
102899
102712
102523
102335
8438.2
13540
19384.2
23841.6
27650.2
31442.4
35406.2
39580.1
43985.1
48643.9
53573.1
58753.3
64106.9
69513.4
74837.8
79970.8
84807.7
89216
93097.9
96436.7
99187
101334
102963
104157
105039
105469
105692
105681
105527
105418
105297
105168
105031
104892
104750
104607
104461
104312
104158
104000
103838
103671
103498
103321
103139
102953
102763
102571
102378
102185
9822.25
15089.7
20780.9
25331.2
29342.3
33283
37299.9
41428.2
45675.9
50054.3
54582.4
59273.7
64112.2
69046.6
73994.2
78850.3
83492.8
87794.4
91663
95043.1
97875.3
100160
101953
103294
104268
104907
105322
105378
105381
105304
105172
105040
104902
104763
104623
104482
104339
104192
104040
103884
103722
103554
103380
103201
103016
102827
102633
102438
102240
102043
11267.9
16929
22349.7
26760.1
30749.2
34651.1
38573.7
42551.8
46603
50746.1
55006.3
59402.7
63932.9
68563.9
73233.5
77854.3
82322.9
86530
90378.8
93790.1
96702.5
99105.4
101023
102486
103562
104311
104812
105052
105157
105110
105011
104889
104755
104621
104486
104350
104211
104068
103920
103766
103606
103438
103264
103084
102898
102706
102510
102311
102111
101911
12608.1
18656.3
23696
27885.3
31770.2
35570.8
39368.3
43201.3
47094
51072
55158.4
59367.7
63696.7
68120.7
72592.3
77044.2
81389.9
85530
89363
92799.8
95775.8
98265.4
100275
101833
102992
103813
104368
104689
104851
104866
104805
104707
104592
104471
104346
104217
104083
103945
103801
103650
103492
103326
103153
102973
102785
102592
102395
102194
101992
101790
14060.7
19939.2
24534.7
28562.8
32372.5
36096.6
39804.5
43539.3
47331.9
51208.9
55189.3
59283.7
63489.4
67787.6
72141.9
76499.3
80778.7
84882.8
88707.5
92159.4
95170.9
97708.9
99771.5
101384
102593
103458
104042
104398
104585
104633
104596
104519
104424
104318
104204
104083
103957
103824
103684
103536
103381
103218
103046
102867
102680
102487
102289
102088
101885
101682
14840.8
20528.1
24915.7
28904.1
32690.2
36379.4
40042.2
43727.8
47471.4
51298.9
55227.5
59267.2
63418.1
67667.2
71983.9
76311.7
80567.2
84655.6
88472.2
91920.2
94931.5
97474.9
99543.6
101165
102385
103261
103854
104221
104417
104480
104455
104382
104288
104186
104077
103961
103839
103710
103573
103429
103276
103115
102945
102767
102582
102390
102192
101991
101787
101584
14910.3
20455.8
24967.9
29038.7
32865.7
36571.5
40236.7
43916.7
47649
51459.6
55366.9
59383.6
63513.7
67749.4
72067.7
76408.7
80683.9
84792.9
88624
92070.6
95057.8
97564.1
99592.3
101179
102370
103225
103804
104162
104354
104419
104396
104321
104221
104111
103995
103875
103751
103620
103483
103338
103185
103024
102855
102678
102493
102301
102104
101903
101698
101493
14665.6
20098.1
24820.4
29043.8
32987.6
36782.2
40516.5
44250.2
48022.7
51864.1
55794.6
59829
63973.7
68222.5
72552
76900.7
81179.5
85285
89104.9
92532.1
95491.8
97952
99902
101401
102529
103336
103878
104211
104383
104436
104405
104321
104209
104085
103957
103826
103693
103556
103414
103266
103110
102948
102777
102599
102414
102222
102024
101822
101616
101409
14490.6
19828
24709.3
29104
33210.4
37149
41006.5
44845.2
48708.2
52627
56623.7
60711.4
64893.5
69161.4
73487.7
77811.7
82049.3
86100.7
89860.4
93230.3
96139.5
98545.9
100423
101809
102827
103560
104049
104343
104486
104517
104467
104366
104236
104094
103948
103802
103656
103509
103359
103204
103045
102879
102707
102527
102340
102148
101949
101745
101538
101329
14447
19692.7
24682.1
29237.4
33516.7
37618.7
41623.2
45591
49567.9
53588.1
57673.6
61834.3
66068.5
70360
74674.2
78951.9
83114.3
87070.9
90731.3
94015.8
96863.2
99223
101045
102340
103225
103851
104275
104524
104634
104636
104562
104439
104287
104124
103958
103793
103631
103471
103310
103148
102982
102811
102635
102452
102264
102069
101869
101664
101455
101243
14539.6
19726.9
24802.1
29500.5
33942.2
38202.6
42348.1
46435.2
50513
54619.6
58780.1
63003
67279.7
71586
75880
80101.7
84175
88017.3
91555
94732.8
97509.9
99836.7
101640
102883
103655
104164
104513
104715
104793
104769
104672
104526
104352
104167
103981
103799
103622
103449
103277
103105
102931
102753
102571
102384
102191
101993
101790
101581
101368
101150
14595.9
19742
24878.2
29687.2
34257.6
38642.6
42895.6
47067.9
51213.3
55377.1
59589
63857.4
68167.3
72487.3
76770.5
80953.4
84957.2
88698.2
92114.2
95183.7
97905.6
100240
102080
103328
104033
104443
104711
104868
104918
104871
104752
104585
104393
104190
103988
103792
103603
103420
103240
103060
102879
102694
102506
102313
102115
101912
101704
101491
101272
101046
14734.4
19909
25090.3
29965.3
34610.7
39068.5
43383.2
47604.6
51790.4
55990.8
60237.6
64538.1
68872.8
73204
77481.4
81638.1
85588.6
89242.7
92547
95517
98196.3
100550
102423
103665
104311
104623
104834
104978
105021
104961
104824
104639
104428
104209
103992
103784
103585
103393
103206
103020
102832
102642
102447
102249
102046
101839
101627
101408
101182
100940
84801.9
84801.7
84801.5
84801.5
84801.6
84801.6
84801.5
84801.5
84801.5
84801.4
84801.4
84801.3
84801.3
84801.2
84801.1
84801
84800.9
84800.8
84800.7
84800.6
84800.5
84800.4
84800.3
84800.2
84800.1
84800
84799.9
84799.8
84799.7
84799.6
84799.6
84799.5
84799.4
84799.4
84799.3
84799.3
84799.3
84799.3
84799.3
84799.3
84799.3
84799.3
84799.3
84799.4
84799.4
84799.4
84799.5
84799.5
84799.6
84799.6
84703.7
84703.9
84703.9
84703.8
84703.9
84703.9
84703.9
84703.9
84703.9
84703.8
84703.8
84703.7
84703.7
84703.6
84703.5
84703.4
84703.3
84703.2
84703.1
84703
84702.9
84702.8
84702.7
84702.6
84702.5
84702.4
84702.3
84702.2
84702.1
84702.1
84702
84701.9
84701.8
84701.8
84701.7
84701.7
84701.7
84701.7
84701.7
84701.7
84701.7
84701.7
84701.8
84701.8
84701.8
84701.9
84701.9
84702
84702
84702
84606.2
84606.3
84606.4
84606.4
84606.4
84606.4
84606.3
84606.3
84606.3
84606.3
84606.2
84606.2
84606.1
84606
84605.9
84605.8
84605.7
84605.6
84605.5
84605.4
84605.3
84605.2
84605.1
84605
84605
84604.9
84604.8
84604.7
84604.6
84604.5
84604.4
84604.3
84604.3
84604.2
84604.2
84604.1
84604.1
84604.1
84604.1
84604.1
84604.1
84604.2
84604.2
84604.2
84604.3
84604.3
84604.3
84604.4
84604.4
84604.5
84508.6
84508.7
84508.7
84508.7
84508.7
84508.7
84508.7
84508.7
84508.7
84508.6
84508.6
84508.5
84508.5
84508.4
84508.3
84508.2
84508.1
84508
84507.9
84507.8
84507.7
84507.6
84507.5
84507.4
84507.4
84507.3
84507.2
84507.1
84507
84506.9
84506.8
84506.7
84506.7
84506.6
84506.6
84506.5
84506.5
84506.5
84506.5
84506.6
84506.6
84506.6
84506.6
84506.7
84506.7
84506.7
84506.8
84506.8
84506.9
84507
84411.1
84411.1
84411.1
84411.1
84411.1
84411.1
84411.1
84411.1
84411.1
84411
84411
84410.9
84410.9
84410.8
84410.7
84410.6
84410.5
84410.4
84410.3
84410.2
84410.1
84410
84410
84409.9
84409.8
84409.7
84409.6
84409.5
84409.4
84409.3
84409.2
84409.2
84409.1
84409
84409
84409
84409
84409
84409
84409
84409
84409
84409.1
84409.1
84409.2
84409.2
84409.3
84409.3
84409.4
84409.4
84313.5
84313.5
84313.5
84313.5
84313.5
84313.5
84313.5
84313.5
84313.4
84313.4
84313.4
84313.3
84313.2
84313.2
84313.1
84313
84312.9
84312.8
84312.7
84312.6
84312.5
84312.5
84312.4
84312.3
84312.2
84312.1
84312
84311.9
84311.8
84311.7
84311.7
84311.6
84311.5
84311.5
84311.4
84311.4
84311.4
84311.4
84311.4
84311.4
84311.5
84311.5
84311.5
84311.6
84311.6
84311.7
84311.7
84311.8
84311.8
84311.9
84215.8
84215.8
84215.8
84215.9
84215.9
84215.9
84215.9
84215.9
84215.8
84215.8
84215.8
84215.7
84215.6
84215.6
84215.5
84215.4
84215.3
84215.2
84215.1
84215
84215
84214.9
84214.8
84214.7
84214.6
84214.5
84214.5
84214.4
84214.3
84214.2
84214.1
84214
84214
84213.9
84213.9
84213.9
84213.9
84213.9
84213.9
84213.9
84213.9
84214
84214
84214
84214.1
84214.1
84214.2
84214.3
84214.3
84214.4
84118.2
84118.2
84118.2
84118.2
84118.2
84118.2
84118.2
84118.2
84118.2
84118.2
84118.1
84118.1
84118
84117.9
84117.9
84117.8
84117.7
84117.6
84117.5
84117.4
84117.4
84117.3
84117.2
84117.1
84117.1
84117
84116.9
84116.8
84116.7
84116.6
84116.5
84116.5
84116.4
84116.3
84116.3
84116.3
84116.3
84116.3
84116.3
84116.4
84116.4
84116.4
84116.5
84116.5
84116.5
84116.6
84116.7
84116.7
84116.8
84116.9
84020.6
84020.6
84020.6
84020.6
84020.6
84020.6
84020.6
84020.6
84020.6
84020.6
84020.5
84020.5
84020.4
84020.3
84020.3
84020.2
84020.1
84020
84019.9
84019.8
84019.8
84019.7
84019.6
84019.6
84019.5
84019.4
84019.3
84019.2
84019.1
84019
84019
84018.9
84018.8
84018.8
84018.8
84018.7
84018.7
84018.8
84018.8
84018.8
84018.8
84018.9
84018.9
84019
84019
84019.1
84019.1
84019.2
84019.3
84019.4
83922.9
83922.9
83922.9
83923
83923
83923
83923
83923
83923
83922.9
83922.9
83922.8
83922.8
83922.7
83922.6
83922.6
83922.5
83922.4
83922.3
83922.2
83922.2
83922.1
83922
83922
83921.9
83921.8
83921.7
83921.7
83921.6
83921.5
83921.4
83921.3
83921.3
83921.2
83921.2
83921.2
83921.2
83921.2
83921.2
83921.3
83921.3
83921.3
83921.4
83921.4
83921.5
83921.6
83921.6
83921.7
83921.8
83921.9
83825.3
83825.3
83825.3
83825.3
83825.3
83825.3
83825.3
83825.3
83825.3
83825.3
83825.3
83825.2
83825.2
83825.1
83825
83824.9
83824.9
83824.8
83824.7
83824.7
83824.6
83824.5
83824.5
83824.4
83824.3
83824.2
83824.2
83824.1
83824
83823.9
83823.8
83823.8
83823.7
83823.7
83823.6
83823.6
83823.6
83823.7
83823.7
83823.7
83823.8
83823.8
83823.9
83823.9
83824
83824
83824.1
83824.2
83824.3
83824.4
83727.7
83727.7
83727.7
83727.7
83727.7
83727.7
83727.7
83727.7
83727.7
83727.7
83727.7
83727.6
83727.6
83727.5
83727.4
83727.3
83727.3
83727.2
83727.1
83727.1
83727
83726.9
83726.9
83726.8
83726.8
83726.7
83726.6
83726.5
83726.4
83726.3
83726.3
83726.2
83726.1
83726.1
83726.1
83726.1
83726.1
83726.1
83726.2
83726.2
83726.2
83726.3
83726.3
83726.4
83726.4
83726.5
83726.6
83726.7
83726.8
83726.9
83630
83630
83630.1
83630.1
83630.1
83630.1
83630.1
83630.1
83630.1
83630.1
83630
83630
83629.9
83629.9
83629.8
83629.7
83629.7
83629.6
83629.5
83629.5
83629.4
83629.3
83629.3
83629.2
83629.2
83629.1
83629
83628.9
83628.8
83628.8
83628.7
83628.6
83628.6
83628.5
83628.5
83628.5
83628.5
83628.6
83628.6
83628.7
83628.7
83628.7
83628.8
83628.9
83628.9
83629
83629.1
83629.2
83629.3
83629.4
83532.4
83532.4
83532.4
83532.4
83532.4
83532.5
83532.5
83532.5
83532.5
83532.4
83532.4
83532.4
83532.3
83532.3
83532.2
83532.1
83532.1
83532
83531.9
83531.9
83531.8
83531.8
83531.7
83531.7
83531.6
83531.5
83531.4
83531.4
83531.3
83531.2
83531.1
83531.1
83531
83531
83531
83531
83531
83531
83531.1
83531.1
83531.2
83531.2
83531.3
83531.3
83531.4
83531.5
83531.5
83531.6
83531.7
83531.8
83434.8
83434.8
83434.8
83434.8
83434.8
83434.8
83434.8
83434.8
83434.8
83434.8
83434.8
83434.7
83434.7
83434.6
83434.6
83434.5
83434.4
83434.4
83434.3
83434.3
83434.2
83434.2
83434.1
83434.1
83434
83433.9
83433.9
83433.8
83433.7
83433.6
83433.5
83433.5
83433.4
83433.4
83433.4
83433.4
83433.4
83433.5
83433.5
83433.6
83433.6
83433.7
83433.7
83433.8
83433.9
83433.9
83434
83434.1
83434.2
83434.3
83337.2
83337.2
83337.2
83337.2
83337.2
83337.2
83337.2
83337.2
83337.2
83337.2
83337.2
83337.2
83337.1
83337.1
83337
83336.9
83336.9
83336.8
83336.7
83336.7
83336.6
83336.6
83336.5
83336.5
83336.4
83336.4
83336.3
83336.2
83336.1
83336.1
83336
83335.9
83335.9
83335.9
83335.8
83335.9
83335.9
83335.9
83336
83336
83336.1
83336.1
83336.2
83336.3
83336.3
83336.4
83336.5
83336.6
83336.7
83336.8
83239.5
83239.6
83239.6
83239.6
83239.6
83239.6
83239.6
83239.6
83239.6
83239.6
83239.6
83239.5
83239.5
83239.4
83239.4
83239.3
83239.2
83239.2
83239.1
83239.1
83239
83239
83238.9
83238.9
83238.8
83238.8
83238.7
83238.6
83238.5
83238.5
83238.4
83238.3
83238.3
83238.3
83238.3
83238.3
83238.3
83238.4
83238.4
83238.5
83238.5
83238.6
83238.6
83238.7
83238.8
83238.9
83238.9
83239
83239.2
83239.3
83141.9
83142
83142
83142
83142
83142.1
83142.1
83142.1
83142
83142
83142
83142
83141.9
83141.9
83141.8
83141.7
83141.7
83141.6
83141.6
83141.5
83141.5
83141.4
83141.4
83141.3
83141.3
83141.2
83141.1
83141.1
83141
83140.9
83140.8
83140.8
83140.7
83140.7
83140.7
83140.7
83140.8
83140.8
83140.8
83140.9
83141
83141
83141.1
83141.1
83141.2
83141.3
83141.4
83141.5
83141.6
83141.7
83044.2
83044.3
83044.3
83044.3
83044.4
83044.4
83044.4
83044.4
83044.4
83044.4
83044.4
83044.3
83044.3
83044.2
83044.2
83044.1
83044.1
83044
83044
83043.9
83043.9
83043.8
83043.8
83043.7
83043.7
83043.6
83043.5
83043.5
83043.4
83043.3
83043.2
83043.2
83043.2
83043.1
83043.1
83043.1
83043.2
83043.2
83043.3
83043.3
83043.4
83043.4
83043.5
83043.6
83043.7
83043.7
83043.8
83043.9
83044.1
83044.2
82947.2
82947
82946.9
82946.9
82946.9
82946.9
82946.9
82946.9
82946.8
82946.8
82946.8
82946.8
82946.7
82946.7
82946.6
82946.5
82946.5
82946.4
82946.4
82946.3
82946.3
82946.2
82946.2
82946.1
82946.1
82946
82946
82945.9
82945.8
82945.7
82945.7
82945.6
82945.6
82945.6
82945.6
82945.6
82945.6
82945.6
82945.7
82945.7
82945.8
82945.9
82945.9
82946
82946.1
82946.2
82946.3
82946.4
82946.5
82946.6
93417.4
93457.4
93459.8
93486.6
93490.6
93504.7
93506.5
93510.4
93509
93507.6
93505.5
93504.4
93504.5
93507.8
93512.2
93523.9
93531.2
93554.7
93560.7
93596.8
93304.1
93343.3
93344.9
93370.7
93373.8
93386.7
93387.4
93390.2
93387.7
93385
93381.8
93379.5
93378.5
93381
93384.6
93395.8
93402.2
93425.3
93430.9
93467.8
93192.2
93230.4
93231.2
93256
93258.1
93270
93269.6
93271.4
93267.9
93264.2
93259.9
93256.7
93255.1
93257.3
93260.5
93271.7
93278
93301.6
93307.4
93345.5
93081.4
93118.6
93118.7
93142.4
93143.7
93154.6
93153.4
93154.2
93149.8
93145.1
93139.9
93136
93134.1
93136.2
93139.2
93150.6
93157
93180.9
93186.8
93225.4
92971.7
93008.1
93007.5
93030.2
93030.8
93040.8
93038.8
93038.8
93033.4
93027.8
93021.8
93017.1
93014.3
93015.7
93018
93028.7
93034.3
93057.7
93062.6
93100.6
92863.4
92898.8
92897.6
92919.4
92919.3
92928.5
92925.8
92925
92918.8
92912.5
92905.7
92900.2
92896.3
92896.7
92897.8
92907.6
92912
92934.5
92938.2
92975.7
92756.4
92790.9
92789
92810
92809.3
92817.7
92814.5
92813
92806.1
92799.1
92791.5
92785.2
92780.2
92779.4
92779.3
92788
92791.3
92813
92815.6
92852.6
92650.7
92684.4
92681.9
92702
92700.6
92708.4
92704.6
92702.4
92695
92687.5
92679.2
92671.9
92665.7
92663.7
92662.3
92670
92672.1
92693
92694.6
92731
92546.4
92579.1
92576
92595.3
92593.2
92600.3
92596
92593.3
92585.4
92577.4
92568.3
92560
92552.6
92549.3
92546.6
92553.3
92554.2
92574.3
92574.9
92610.6
92443.3
92475.1
92471.3
92489.7
92487.1
92493.4
92488.6
92485.3
92477
92468.4
92458.3
92448.9
92440.5
92436.1
92432.1
92437.7
92437.3
92456.6
92456.1
92491.1
92341.5
92372.3
92367.7
92385.3
92382
92387.6
92382.4
92378.4
92369.6
92360.2
92349.1
92338.8
92329.2
92323.8
92318.6
92323.1
92321.6
92340
92338.4
92372.6
92240.8
92270.7
92265.3
92282
92278.1
92283
92277.2
92272.5
92263
92252.7
92240.7
92229.6
92218.9
92212.4
92206
92209.5
92206.7
92224.2
92221.6
92255.1
92141.2
92170.2
92164.1
92179.9
92175.4
92179.5
92173
92167.5
92157.3
92146
92133
92121.1
92109.5
92101.9
92094.3
92096.7
92092.8
92109.4
92105.8
92138.4
92042.7
92070.9
92063.9
92078.9
92073.8
92077
92069.8
92063.4
92052.4
92040.1
92026.3
92013.4
92000.8
91992.3
91983.4
91984.9
91979.7
91995.4
91990.8
92022.6
91945.4
91972.6
91964.9
91978.9
91973.1
91975.5
91967.5
91960.2
91948.3
91935
91920.3
91906.6
91892.8
91883.5
91873.4
91873.9
91867.6
91882.4
91876.7
91907.7
91849.1
91875.3
91866.8
91879.9
91873.4
91874.8
91866
91857.7
91845
91830.8
91815.2
91800.5
91785.7
91775.5
91764.3
91763.9
91756.3
91770.2
91763.4
91793.6
91753.8
91779
91769.7
91781.8
91774.6
91775
91765.4
91756.1
91742.5
91727.4
91710.9
91695.3
91679.5
91668.4
91656
91654.8
91646
91658.9
91651
91680.3
91659.5
91683.7
91673.5
91684.6
91676.6
91675.9
91665.5
91655.3
91640.8
91624.8
91607.4
91590.9
91574.1
91562.1
91548.6
91546.5
91536.5
91548.5
91539.5
91567.8
91566.2
91589.2
91578.2
91588.2
91579.4
91577.7
91566.4
91555.2
91539.9
91523
91504.7
91487.3
91469.5
91456.7
91442
91439.1
91427.9
91439.1
91428.9
91456.3
91473.7
91495.6
91483.8
91492.7
91483.1
91480.3
91468.1
91456
91439.7
91422
91402.9
91384.5
91365.6
91351.9
91336.2
91332.5
91320
91330.4
91319.1
91345.5
91382.1
91402.9
91390.2
91398
91387.5
91383.6
91370.6
91357.5
91340.4
91321.7
91301.8
91282.4
91262.6
91248
91231.1
91226.6
91212.9
91222.4
91210
91235.6
91291.3
91311
91297.4
91304.1
91292.8
91287.8
91273.9
91259.9
91241.9
91222.3
91201.4
91181.2
91160.2
91144.7
91126.7
91121.3
91106.3
91115.1
91101.6
91126.3
91201.4
91220
91205.5
91210.9
91198.8
91192.7
91178
91163
91144.2
91123.6
91101.9
91080.6
91058.7
91042.2
91022.9
91016.7
91000.5
91008.4
90993.7
91017.6
91112.3
91129.7
91114.3
91118.6
91105.5
91098.3
91082.8
91067
91047.2
91025.7
91003.1
90980.8
90957.9
90940.4
90919.9
90912.7
90895.2
90902.3
90886.4
90909.4
91024
91040.1
91023.9
91026.9
91013
91004.7
90988.4
90971.6
90951
90928.6
90905
90881.8
90857.9
90839.4
90817.6
90809.5
90790.6
90796.8
90779.7
90801.8
90936.4
90951.3
90934.2
90936
90921.2
90911.8
90894.7
90877
90855.5
90832.1
90807.6
90783.5
90758.6
90739.1
90716.2
90707.1
90686.8
90692
90673.6
90694.8
90849.5
90863.2
90845.2
90845.8
90830.1
90819.7
90801.7
90783.1
90760.7
90736.4
90710.9
90685.8
90660
90639.5
90615.4
90605.4
90583.7
90588
90568.4
90588.5
90763.4
90775.9
90757
90756.4
90739.8
90728.2
90709.4
90689.8
90666.4
90641.2
90614.8
90588.8
90562.1
90540.6
90515.4
90504.4
90481.5
90484.8
90464
90483.2
90678.1
90689.3
90669.5
90667.6
90650.2
90637.5
90617.8
90597.1
90572.8
90546.6
90519.3
90492.4
90464.7
90442.4
90416.1
90404.3
90380.1
90382.5
90360.5
90378.7
90593.5
90603.5
90582.8
90579.7
90561.3
90547.4
90526.7
90505
90479.7
90452.6
90424.4
90396.5
90367.9
90344.8
90317.5
90304.9
90279.5
90281
90258
90275.2
90509.7
90518.4
90496.9
90492.4
90473.1
90457.9
90436.2
90413.4
90387.1
90359.1
90330
90301.2
90271.7
90247.7
90219.5
90206.1
90179.7
90180.3
90156.3
90172.5
90426.6
90434.1
90411.6
90405.7
90385.4
90369
90346.2
90322.2
90295
90266.1
90236.2
90206.4
90176.1
90151.2
90122.1
90107.9
90080.5
90080.3
90055.2
90070.5
90344.2
90350.3
90326.9
90319.6
90298.3
90280.7
90256.8
90231.6
90203.5
90173.7
90142.9
90112.2
90081
90055.2
90025.2
90010.2
89981.8
89980.7
89954.7
89969.1
90262.4
90267.2
90242.8
90234.1
90211.8
90192.9
90167.9
90141.6
90112.5
90081.8
90050.1
90018.4
89986.4
89959.7
89928.7
89912.9
89883.4
89881.4
89854.5
89868
90181.3
90184.7
90159.3
90149.3
90125.9
90105.7
90079.5
90052.1
90022
89990.5
89957.8
89925.1
89892.2
89864.6
89832.7
89815.8
89785.4
89782.4
89754.6
89767.1
90101
90103
90076.6
90065.1
90040.7
90019.1
89991.8
89963.2
89932.2
89899.6
89865.9
89832.3
89798.5
89769.9
89737
89719.1
89687.6
89683.5
89654.8
89666.5
90021.5
90022.1
89994.8
89981.8
89956.3
89933.3
89904.8
89875
89842.9
89809.3
89774.6
89739.9
89705.3
89675.6
89641.7
89622.7
89590.2
89585
89555.4
89566.2
89943.1
89942.2
89913.9
89899.4
89872.7
89848.3
89818.5
89787.5
89754.3
89719.5
89683.7
89648.1
89612.6
89581.9
89547
89526.7
89493.2
89486.9
89456.3
89466.3
89865.8
89863.6
89834.2
89818.1
89790.2
89764.2
89733.1
89700.8
89666.4
89630.3
89593.5
89556.8
89520.6
89488.7
89452.9
89431.4
89396.9
89389.5
89357.9
89367.1
89790
89786.2
89755.8
89738
89708.8
89681.3
89648.8
89615
89579.3
89541.9
89503.9
89466.4
89429.3
89396.3
89359.7
89336.9
89301.6
89293
89260.4
89268.9
89715.6
89710.3
89678.7
89659.3
89628.7
89599.5
89565.5
89530.3
89493.1
89454.4
89415.3
89376.8
89339
89305
89267.6
89243.6
89207.4
89197.9
89164.2
89172
89642.9
89635.8
89603.2
89582
89550
89519.1
89483.6
89446.9
89408.1
89368
89327.8
89288.4
89250
89214.8
89176.8
89151.6
89114.7
89104.3
89069.6
89076.7
89571.9
89563.1
89529.2
89506.3
89472.8
89440.3
89403.2
89364.9
89324.6
89283.1
89241.7
89201.5
89162.3
89126
89087.6
89061.2
89023.8
89012.6
88976.9
88983.3
89502.6
89492
89457
89432.4
89397.4
89363.2
89324.6
89284.6
89242.8
89199.8
89157.4
89116.3
89076.4
89039
89000.2
88972.8
88934.9
88923
88886.3
88892
89435.2
89422.9
89386.7
89360.3
89323.9
89288
89247.9
89206.4
89162.9
89118.6
89075.1
89033.2
88992.5
88954.1
88915
88886.5
88848.5
88835.8
88798.3
88803.1
89369.7
89355.6
89318.3
89290.2
89252.5
89215
89173.4
89130.3
89085.4
89039.8
88995.2
88952.5
88910.9
88871.6
88832.2
88802.7
88764.6
88751.2
88712.8
88716.6
89306.2
89290.3
89252
89222.2
89183.2
89144.2
89101.2
89056.7
89010.4
88963.5
88917.9
88874.3
88831.9
88791.7
88752.1
88721.6
88683.4
88669.2
88630.1
88632.6
89244.6
89227.1
89187.7
89156.3
89116.1
89075.6
89031.4
88985.5
88937.9
88890
88843.4
88799
88755.7
88714.6
88674.8
88643.3
88605.2
88590
88550.1
88551.2
89185
89165.8
89125.3
89092.5
89051.1
89009.4
88963.9
88916.9
88868.2
88819.3
88771.8
88726.5
88682.4
88640.5
88600.4
88567.8
88529.7
88513.4
88472.8
88472.2
89127.3
89106.3
89064.9
89030.6
88988.1
88945.2
88898.7
88850.7
88801.1
88751.3
88703
88656.9
88611.9
88569.2
88528.8
88495.1
88456.9
88439.3
88398
88395.5
89071.2
89048.5
89006.2
88970.6
88927.1
88883.1
88835.7
88786.8
88736.5
88686
88636.9
88589.9
88544.2
88500.7
88459.8
88425
88386.6
88367.5
88325.5
88320.9
89016.7
88992.3
88949.1
88912.1
88867.7
88822.9
88774.7
88725
88674.1
88623
88573.3
88525.5
88478.9
88434.6
88393.1
88357.2
88318.6
88297.7
88255
88248.1
88963.6
88937.4
88893.4
88855.2
88810
88764.3
88715.5
88665.2
88613.7
88562.1
88511.7
88463.1
88415.8
88370.7
88328.6
88291.5
88252.4
88229.7
88186.3
88176.9
88911.6
88883.8
88838.9
88799.6
88753.7
88707.2
88657.8
88607
88555
88503
88452
88402.6
88354.5
88308.7
88265.8
88227.5
88187.8
88163.2
88119
88107
88860.8
88831.3
88785.6
88745.2
88698.5
88651.3
88601.4
88550.1
88497.8
88445.3
88393.7
88343.6
88294.7
88248.1
88204.4
88164.9
88124.5
88097.9
88052.8
88038.2
88810.9
88779.7
88733.2
88691.8
88644.4
88596.5
88546.1
88494.4
88441.6
88388.7
88336.6
88285.8
88236.1
88188.7
88144.1
88103.3
88062.2
88033.5
87987.6
87970.2
88761.9
88729
88681.7
88639.2
88591.1
88542.6
88491.7
88439.5
88386.4
88333
88280.3
88228.7
88178.4
88130.2
88084.6
88042.6
88000.6
87969.8
87922.9
87902.8
88713.5
88679
88630.9
88587.3
88538.5
88489.3
88437.8
88385.2
88331.6
88277.8
88224.5
88172.3
88121.2
88072.2
88025.7
87982.5
87939.4
87906.5
87858.8
87835.8
88665.6
88629.5
88580.5
88535.9
88486.4
88436.5
88384.4
88331.3
88277.3
88223
88169.1
88116.1
88064.3
88014.5
87967.1
87922.6
87878.5
87843.5
87794.8
87769.1
88618
88580.3
88530.5
88484.8
88434.5
88383.9
88331.2
88277.6
88223.1
88168.2
88113.7
88060.1
88007.6
87956.9
87908.6
87862.9
87817.7
87780.7
87731
87702.6
88570.7
88531.3
88480.7
88433.8
88382.8
88331.4
88278.1
88223.9
88168.8
88113.5
88058.4
88004
87950.8
87899.3
87850
87803.1
87756.8
87717.8
87667.2
87636.1
88523.4
88482.4
88430.9
88382.9
88331.1
88278.8
88224.9
88170
88114.4
88058.5
88002.8
87947.8
87893.7
87841.5
87791.2
87743.2
87695.8
87654.8
87603.2
87569.6
88476
88433.4
88381
88331.9
88279.2
88226.1
88171.4
88115.9
88059.7
88003.2
87946.9
87891.2
87836.4
87783.4
87732.2
87683
87634.5
87591.7
87539.2
87503.1
88428.4
88384.3
88330.9
88280.6
88227.1
88173.1
88117.7
88061.5
88004.7
87947.6
87890.6
87834.2
87778.7
87724.9
87672.8
87622.5
87572.9
87528.4
87474.9
87436.4
88380.6
88334.8
88280.6
88229.2
88174.7
88119.8
88063.6
88006.7
87949.2
87891.5
87833.8
87776.7
87720.5
87665.9
87612.9
87561.6
87511
87464.8
87410.4
87369.6
88332.4
88285.1
88229.9
88177.4
88121.9
88066.2
88009.1
87951.5
87893.3
87834.9
87776.6
87718.8
87661.9
87606.5
87552.7
87500.4
87448.7
87400.9
87345.7
87302.7
88283.8
88235.1
88178.9
88125.2
88068.8
88012.1
87954.2
87895.8
87836.9
87777.8
87718.8
87660.3
87602.7
87546.6
87491.9
87438.7
87386
87336.8
87280.7
87235.6
88234.9
88184.6
88127.5
88072.6
88015.3
87957.6
87898.9
87839.6
87780
87720.2
87660.5
87601.4
87543.1
87486.2
87430.8
87376.6
87323
87272.3
87215.4
87168.3
88185.5
88133.8
88075.7
88019.7
87961.4
87902.8
87843.2
87783.1
87722.6
87662.1
87601.8
87542
87483
87425.4
87369.1
87314.1
87259.6
87207.6
87149.8
87100.8
88135.7
88082.6
88023.5
87966.4
87907.1
87847.5
87787
87726
87664.8
87603.6
87542.6
87482
87422.4
87364.1
87307.1
87251.2
87195.8
87142.5
87084
87033
88085.5
88030.9
87970.9
87912.6
87852.4
87791.8
87730.4
87668.6
87606.6
87544.6
87482.9
87421.7
87361.3
87302.3
87244.6
87187.9
87131.6
87077.1
87017.8
86965.1
88034.8
87978.9
87918
87858.5
87797.3
87735.7
87673.4
87610.8
87548
87485.3
87422.9
87361
87299.9
87240.2
87181.8
87124.3
87067.2
87011.5
86951.4
86897
87983.8
87926.5
87864.6
87804
87741.8
87679.3
87616.1
87552.7
87489.1
87425.6
87362.4
87299.9
87238.2
87177.8
87118.6
87060.4
87002.5
86945.7
86884.9
86828.8
87932.4
87873.7
87810.9
87749.2
87686
87622.5
87558.5
87494.2
87429.8
87365.6
87301.7
87238.5
87176.1
87115.1
87055.2
86996.2
86937.5
86879.7
86818.2
86760.6
87880.6
87820.5
87756.8
87694
87629.9
87565.5
87500.5
87435.4
87370.2
87305.3
87240.7
87176.8
87113.7
87052.1
86991.6
86931.9
86872.4
86813.6
86751.4
86692.3
87828.3
87767.1
87702.4
87638.5
87573.4
87508.1
87442.3
87376.3
87310.4
87244.7
87179.5
87114.9
87051.2
86988.9
86927.8
86867.4
86807.2
86747.5
86684.6
86624.1
87775.7
87713.3
87647.7
87582.7
87516.7
87450.5
87383.8
87317.1
87250.3
87183.9
87118
87052.8
86988.5
86925.6
86863.8
86802.8
86742
86681.3
86617.7
86555.9
87722.8
87659.2
87592.7
87526.7
87459.7
87392.6
87325.1
87257.5
87190.1
87123
87056.4
86990.5
86925.6
86862.1
86799.8
86738.2
86676.7
86615.1
86550.9
86487.8
87669.6
87604.8
87537.4
87470.3
87402.5
87334.5
87266.2
87197.9
87129.7
87061.8
86994.6
86928.1
86862.6
86798.6
86735.6
86673.4
86611.3
86549
86484.1
86419.7
87616.1
87550.1
87481.8
87413.8
87345
87276.2
87207.1
87138
87069.1
87000.6
86932.7
86865.5
86799.5
86734.9
86671.4
86608.6
86545.9
86482.8
86417.3
86351.7
87562.3
87495.1
87425.9
87357
87287.4
87217.7
87147.9
87078
87008.4
86939.2
86870.6
86802.9
86736.2
86671
86607
86543.6
86480.3
86416.5
86350.4
86283.7
87508.2
87439.9
87369.9
87300
87229.6
87159.1
87088.5
87017.9
86947.6
86877.7
86808.5
86740.1
86672.8
86607.1
86542.4
86478.5
86414.7
86350.2
86283.4
86215.6
87453.8
87384.4
87313.5
87242.7
87171.5
87100.3
87028.9
86957.7
86886.7
86816.1
86746.2
86677.1
86609.3
86542.9
86477.7
86413.2
86348.7
86283.6
86216.2
86147.3
87399
87328.6
87256.9
87185.2
87113.3
87041.3
86969.3
86897.4
86825.7
86754.4
86683.8
86614.1
86545.6
86478.5
86412.7
86347.5
86282.4
86216.6
86148.6
86078.5
87343.9
87272.4
87199.9
87127.5
87054.8
86982.1
86909.4
86836.9
86764.5
86692.6
86621.3
86550.9
86481.7
86413.9
86347.3
86281.4
86215.6
86149
86080.2
86009
87288.3
87215.8
87142.6
87069.4
86996
86922.7
86849.4
86776.2
86703.3
86630.7
86558.7
86487.5
86417.5
86348.9
86281.4
86214.6
86147.9
86080.5
86010.8
85938.4
87232.2
87158.9
87084.9
87011
86937
86863
86789.2
86715.5
86641.9
86568.6
86495.9
86424
86353.1
86283.5
86214.8
86146.9
86079.1
86010.5
85939.8
85866.2
87175.7
87101.5
87026.9
86952.3
86877.7
86803.1
86728.7
86654.5
86580.4
86506.5
86433
86360.2
86288.4
86217.6
86147.5
86078
86008.6
85938.4
85866.1
85791.5
87118.6
87043.6
86968.4
86893.2
86818.1
86743
86668.1
86593.3
86518.7
86444.2
86370
86296.3
86223.4
86151.2
86079.4
86007.9
85936.1
85863.4
85789.2
85714.5
87061.1
86985.4
86909.6
86833.8
86758.2
86682.6
86607.2
86532
86456.8
86381.7
86306.8
86232.2
86158.1
86084.4
86010.8
85936.9
85862.5
85787.3
85712
85636.6
87003.1
86926.8
86850.4
86774.1
86698
86622
86546.1
86470.4
86394.7
86319.1
86243.4
86167.9
86092.7
86017.5
85942
85866
85789.5
85712.8