/*--------------------------------*- C++ -*----------------------------------*\
  =========                 |
  \\      /  F ield         | OpenFOAM: The Open Source CFD Toolbox
   \\    /   O peration     | Website:  https://openfoam.org
    \\  /    A nd           | Version:  8
     \\/     M anipulation  |
\*---------------------------------------------------------------------------*/
FoamFile
{
    version     2.0;
    format      ascii;
    class       volScalarField;
    location    "100";
    object      p_rgh;
}
// * * * * * * * * * * * * * * * * * * * * * * * * * * * * * * * * * * * * * //

dimensions      [1 -1 -2 0 0 0 0];

internalField   nonuniform List<scalar> 
8400
(
9580.94
17789.3
22245.8
24195.3
24733.2
24627.1
24431
24586.9
25526
27708.6
31598.3
37549.8
45589.5
55130.4
64926
73513.8
79894.6
84227.7
87589.6
90520.2
92915.5
94700.6
95981.9
96882.5
97486.6
97883.4
98135.7
98289.5
98374.5
98410
98409.2
98380.8
98331.2
98264.5
98183.3
98089.5
97984.5
97869
97744
97610.1
97468.1
97319.4
97165.4
97008.1
96849.4
96691.7
96537.7
96391.2
96258.7
96145.6
12549.4
22213.1
24516.2
25159.1
25055.5
24611.5
24172.1
24050.8
24626.1
26346.1
29739.6
35354
43389.2
53314.2
63810
73202.3
80016.3
84099.2
87180.7
90178.6
92750.3
94632.8
95951.6
96897.1
97524
97928.6
98180.6
98330.7
98410.4
98440.2
98433.5
98399.4
98344.6
98273.3
98188.1
98090.7
97982.3
97863.9
97736
97599.3
97454.7
97303.3
97146.6
96986.1
96823.6
96661.1
96501.1
96346.2
96199.1
96062.2
11696.9
23987.8
26546.6
26473.2
25594.3
24345
23067.4
22055.2
21706.8
22575.8
25492.5
31366.5
40321.2
51462.2
63328.4
74049.2
81368.1
84485.7
86702.9
89912.4
92885.7
94838.6
96072.6
97044.3
97675.2
98064.1
98297.6
98429.4
98492.8
98508.6
98489.9
98446.4
98384.4
98307.4
98217.4
98116.1
98004.8
97884.1
97754.7
97617
97471.9
97320.3
97163.7
97003.3
96840.6
96677.7
96516.9
96360.6
96209.8
96064.1
-670.728
19172.1
25850.2
26443.6
25511.8
24374.1
23417.8
22788.6
22826.3
24204.7
27947.1
34768.2
44479.3
55980.6
67610.6
77373.4
82957.8
84791.1
86246.3
90019.6
93578.9
95319.6
96250.9
97300.2
97914.1
98253.8
98454.4
98555.5
98593
98587.4
98551.7
98494.8
98421.9
98335.3
98236.8
98127.9
98009.6
97882.5
97747.3
97604.2
97454
97297.6
97136.1
96970.5
96802.3
96633
96465.1
96300.7
96140.6
95985
-1412.37
11015.9
18306.4
20729
21781.4
22948.1
24378.3
26050.9
28220.1
31400.1
36191
42895
51226
60353.2
69136.5
76404.9
81168.9
84139.5
87571.2
91921.1
94740.1
95690.3
96548.1
97747.2
98233.8
98486.8
98646.3
98705.4
98710.8
98680.8
98626.7
98556.7
98473.5
98377.5
98271.1
98155.3
98031.2
97899.1
97759.4
97612.6
97459.2
97300.1
97135.8
96967.4
96795.8
96622.5
96449.5
96278.8
96111
95946.5
-3212.03
5898.02
13397
17703.4
20749
23619.6
26519.8
29551.3
32965.4
37087.5
42189.7
48344.5
55326.6
62632.1
69603.6
75633.5
80423.6
84469.7
88283.2
91635
93920.4
95664.9
97383.8
98244.4
98491.1
98726.1
98836.1
98844.3
98815.5
98761.1
98690.6
98609.1
98515.9
98410.9
98296.4
98173.6
98043.1
97905.1
97760
97608.1
97449.8
97285.7
97116.3
96942.3
96764.7
96584.9
96404.6
96225.9
96049.6
95876.9
-2452.95
4808.45
11961.3
16947.3
20827.1
24413
27986.9
31716.8
35783.1
40338.4
45464.6
51138.4
57205.2
63392.7
69370.1
74861.9
79750.1
84105
87936.7
91139.5
93679.4
95668.6
97075
97991.8
98701.7
98972
98971.5
98948.6
98891.9
98822
98742.8
98653.2
98550.8
98438.3
98317.5
98189.4
98054.1
97911.9
97762.8
97607
97444.7
97276.3
97102.4
96923.5
96740.5
96554.7
96367.9
96182.2
95998.6
95818.7
-1580.58
4881.43
11543.6
16636.1
20884.9
24893.9
28907.6
33059.8
37448.5
42129.3
47118.6
52390.8
57866.6
63415.4
68874.2
74089.7
78940.1
83329.3
87180.1
90446
93102.7
95158.2
96652.2
97741.4
98467.1
98852.4
99033.7
99007.4
98924.8
98856.7
98773.6
98677.4
98568.7
98451.4
98326.8
98195.6
98057.7
97912.9
97761.1
97602.3
97436.5
97264
97085.4
96901.4
96712.9
96521.2
96328.1
96135.6
95945.2
95758.6
-368.737
5827.03
12032.4
17012.2
21379.9
25569
29754.6
34032.2
38458.1
43058.1
47842.8
52806.5
57917.4
63108.6
68281.1
73314.2
78077.3
82444
86318.8
89641.7
92369.8
94514.6
96130.9
97301
98111.3
98617.9
98885.7
98948.2
98933.4
98868
98779.4
98678.5
98566.8
98447.8
98322.6
98191.2
98053.2
97908.1
97755.4
97595.1
97427.2
97251.9
97069.8
96881.7
96688.7
96492
96293.5
96095.2
95898.8
95706.4
932.772
7204.03
12976.4
17734.9
22057.9
26247.7
30430.6
34678.2
39029
43504.7
48120.6
52883.2
57777.7
62758.9
67749
72642.1
77315.6
81646.3
85530.5
88891.4
91680.8
93906.1
95610.6
96858.3
97734.3
98313.4
98669.7
98831.4
98870.8
98832.7
98755.2
98655.4
98544.9
98428.3
98305.8
98177.1
98041.3
97897.9
97746.1
97585.9
97417.4
97240.7
97056.4
96865.4
96668.9
96468.3
96265.5
96062.6
95861.7
95665.1
2281.35
8637.08
13947
18474.3
22699.8
26826.2
30951.5
35131.7
39398.4
43775.1
48279.4
52919.2
57682.4
62530.1
67394
72181.2
76780.1
81072.3
84949.1
88326.4
91154.8
93433.6
95197.8
96505.8
97432.6
98059
98456
98671.9
98757.1
98751.2
98692.9
98607.1
98506.9
98397.9
98281.4
98157.4
98025.3
97884.7
97735.1
97576.2
97408.2
97231.3
97046.1
96853.6
96655.1
96452.2
96246.6
96040.8
95837.1
95638.2
3611.37
9712.03
14613.5
19004.4
23175.8
27265.4
31353.7
35489.5
39706.1
44029
48475.2
53050.3
57740.8
62509.7
67294.6
72013.1
76558.3
80812.9
84666.9
88036.2
90872.6
93170.1
94960.1
96297.8
97252.9
97902.1
98315.9
98550.4
98652.2
98661.6
98617
98545.5
98458.7
98360.2
98251.5
98133.5
98006.4
97869.9
97723.5
97567.1
97400.9
97225.3
97040.9
96848.6
96649.9
96446.3
96239.9
96033
95828.3
95628.4
4362.86
10236.2
14988.3
19362.8
23538.7
27632.9
31717.9
35843.9
40048.7
44358.9
48790.8
53347.9
58016
62758.4
67515.4
72202.7
76711.4
80925.6
84738.7
88071.2
90880.4
93157.7
94934.1
96264.7
97217.2
97865.2
98277.8
98512.5
98616.3
98628.1
98583.3
98509.9
98423.4
98328.3
98224.5
98111.6
97989.1
97856.5
97713.6
97560.4
97396.8
97223.5
97040.9
96850.2
96652.6
96449.9
96244.1
96037.5
95832.8
95632.6
4522.83
10299.1
15191.3
19663.2
23909.1
28051.1
32168.4
36317.9
40540.8
44864.6
49305.1
53865.6
58532.3
63270.5
68024.5
72705.2
77198.1
81385.2
85158.6
88437.6
91185.6
93402.9
95127.1
96415.2
97333
97954.8
98347.6
98568.3
98663
98668.8
98617.7
98535.6
98439.3
98336.2
98227.5
98112.1
97988.9
97856.7
97714.9
97563.1
97401.2
97229.5
97048.6
96859.4
96663.3
96461.7
96256.7
96050.5
95845.7
95644.5
4464.1
10189.2
15292.8
19928.3
24308.8
28559.1
32766.3
36992.7
41280.5
45658.3
50142.3
54734.9
59421.6
64168.2
68917.1
73576
78030.6
82166.4
85880.6
89094.2
91766.6
93895.8
95524.5
96733.6
97589.3
98162.2
98517.8
98710.6
98784.5
98774.8
98710.7
98615.4
98505
98388
98267.4
98142.9
98013.3
97877
97732.7
97579.8
97417.6
97246.2
97066
96877.8
96682.6
96481.9
96277.4
96071.1
95865.4
95662.7
4476.62
10156.5
15433.8
20251.1
24804.4
29210.2
33556
37905.3
42301.4
46772.4
51332.8
55981.8
60701.8
65455.2
70181.8
74790.7
79174.1
83224.4
86846.5
89968.3
92551.4
94588.8
96104.1
97195.2
97957.8
98463.6
98768.3
98922.5
98966.4
98932.7
98848.1
98734
98605.1
98470.5
98334.1
98196.4
98056.5
97912.8
97763.5
97607.3
97443.4
97271.3
97091.2
96903.4
96708.8
96508.5
96303.9
96097
95889.9
95684.6
4595.8
10228.1
15634.3
20621.5
25351.7
29925.8
34426.5
38916.5
43439.9
48024.5
52681.1
57403.2
62167.2
66929.8
71627.1
76171.9
80464.3
84407
87917.5
90935.8
93428.1
95380.3
96794.3
97758
98401.1
98821.1
99066.8
99177.1
99186.3
99123.4
99013.2
98875.5
98724.4
98569.1
98414.1
98260.6
98108
97954.6
97798.3
97637.4
97470.5
97296.8
97116
96928.2
96733.7
96533.4
96328.3
96120.1
95910.4
95701.1
4831.69
10448
15959.8
21094.6
25983.6
30710.4
35350.2
39965.3
44601.9
49288.1
54032
58820.4
63622.1
68388.1
73051.5
77527.8
81723.5
85550.5
88941.3
91853.6
94263.5
96148.9
97488
98344.1
98866
99191.4
99375.7
99443.4
99419.5
99328.1
99192
99030.2
98856.6
98680.5
98506.7
98337.2
98171.5
98007.9
97844.1
97677.6
97506.8
97330.4
97147.8
96958.7
96763.2
96561.7
96355
96144
95929.7
95713.1
4999.21
10600.4
16184.5
21428.9
26436.8
31276.7
36017.5
40722.1
45441.4
50205
55018.4
59862.3
64697.9
69471.9
74115.7
78545.5
82668
86398.3
89684.6
92514.7
94885.1
96758.5
98072
98856.8
99280.2
99517.1
99641.3
99669.8
99615.6
99497.6
99337.5
99154.1
98961
98767.4
98578.4
98396.1
98220.4
98049.3
97879.9
97709.5
97535.9
97357.4
97173.1
96982.6
96785.6
96582.5
96373.4
96158.6
95938.2
95711.6
5236.74
10878.3
16512.5
21822
26898.7
31805
36607.5
41369.7
46145.7
50965.6
55831.3
60718.3
65582.2
70365.8
74999.2
79396.7
83460.6
87105
90295.1
93054.8
95402
97267.5
98545.3
99254.7
99595.9
99768.5
99858.8
99869
99795.6
99656.1
99474.6
99271.3
99060.5
98851.2
98648.9
98455.9
98271.7
98094.1
97920
97746.2
97570
97389.5
97203.5
97011.3
96812.7
96607.7
96396.1
96177.1
95948.7
95704.8
100397
100397
100397
100397
100397
100397
100397
100397
100396
100396
100396
100396
100396
100396
100396
100396
100396
100396
100396
100396
100396
100396
100396
100396
100396
100396
100396
100396
100396
100395
100395
100395
100395
100395
100395
100395
100395
100395
100395
100395
100395
100395
100395
100395
100395
100395
100394
100394
100394
100394
100396
100396
100396
100396
100396
100396
100396
100396
100396
100396
100396
100396
100396
100396
100396
100396
100396
100396
100396
100396
100396
100396
100396
100396
100396
100396
100395
100395
100395
100395
100395
100395
100395
100395
100395
100395
100395
100395
100395
100395
100395
100394
100394
100394
100394
100394
100394
100394
100394
100394
100396
100396
100396
100396
100396
100396
100396
100396
100396
100396
100396
100396
100396
100396
100396
100396
100396
100396
100396
100396
100396
100396
100396
100396
100396
100396
100395
100395
100395
100395
100395
100395
100395
100395
100395
100395
100395
100395
100395
100395
100394
100394
100394
100394
100394
100394
100394
100394
100394
100394
100396
100396
100396
100396
100396
100396
100396
100396
100396
100396
100396
100396
100396
100396
100396
100396
100396
100396
100396
100396
100396
100396
100396
100396
100396
100396
100395
100395
100395
100395
100395
100395
100395
100395
100395
100395
100395
100395
100395
100395
100394
100394
100394
100394
100394
100394
100394
100394
100394
100394
100396
100396
100396
100396
100396
100396
100396
100396
100396
100396
100396
100396
100396
100396
100396
100396
100396
100396
100396
100396
100396
100396
100396
100396
100396
100396
100395
100395
100395
100395
100395
100395
100395
100395
100395
100395
100395
100395
100395
100395
100394
100394
100394
100394
100394
100394
100394
100394
100394
100394
100396
100396
100396
100396
100396
100396
100396
100396
100396
100396
100396
100396
100396
100396
100396
100396
100396
100396
100396
100396
100396
100396
100396
100396
100396
100396
100395
100395
100395
100395
100395
100395
100395
100395
100395
100395
100395
100395
100395
100395
100395
100394
100394
100394
100394
100394
100394
100394
100394
100394
100396
100396
100396
100396
100396
100396
100396
100396
100396
100396
100396
100396
100396
100396
100396
100396
100396
100396
100396
100396
100396
100396
100396
100396
100396
100396
100395
100395
100395
100395
100395
100395
100395
100395
100395
100395
100395
100395
100395
100395
100395
100394
100394
100394
100394
100394
100394
100394
100394
100394
100396
100396
100396
100396
100396
100396
100396
100396
100396
100396
100396
100396
100396
100396
100396
100396
100396
100396
100396
100396
100396
100396
100396
100396
100396
100396
100395
100395
100395
100395
100395
100395
100395
100395
100395
100395
100395
100395
100395
100395
100395
100394
100394
100394
100394
100394
100394
100394
100394
100394
100396
100396
100396
100396
100396
100396
100396
100396
100396
100396
100396
100396
100396
100396
100396
100396
100396
100396
100396
100396
100396
100396
100396
100396
100396
100396
100396
100395
100395
100395
100395
100395
100395
100395
100395
100395
100395
100395
100395
100395
100395
100395
100394
100394
100394
100394
100394
100394
100394
100394
100396
100396
100396
100396
100396
100396
100396
100396
100396
100396
100396
100396
100396
100396
100396
100396
100396
100396
100396
100396
100396
100396
100396
100396
100396
100396
100396
100395
100395
100395
100395
100395
100395
100395
100395
100395
100395
100395
100395
100395
100395
100395
100394
100394
100394
100394
100394
100394
100394
100394
100396
100396
100396
100396
100396
100396
100396
100396
100396
100396
100396
100396
100396
100396
100396
100396
100396
100396
100396
100396
100396
100396
100396
100396
100396
100396
100396
100395
100395
100395
100395
100395
100395
100395
100395
100395
100395
100395
100395
100395
100395
100395
100395
100394
100394
100394
100394
100394
100394
100394
100396
100396
100396
100396
100396
100396
100396
100396
100396
100396
100396
100396
100396
100396
100396
100396
100396
100396
100396
100396
100396
100396
100396
100396
100396
100396
100396
100395
100395
100395
100395
100395
100395
100395
100395
100395
100395
100395
100395
100395
100395
100395
100395
100394
100394
100394
100394
100394
100394
100394
100396
100396
100396
100396
100396
100396
100396
100396
100396
100396
100396
100396
100396
100396
100396
100396
100396
100396
100396
100396
100396
100396
100396
100396
100396
100396
100396
100395
100395
100395
100395
100395
100395
100395
100395
100395
100395
100395
100395
100395
100395
100395
100395
100395
100394
100394
100394
100394
100394
100394
100396
100396
100396
100396
100396
100396
100396
100396
100396
100396
100396
100396
100396
100396
100396
100396
100396
100396
100396
100396
100396
100396
100396
100396
100396
100396
100396
100395
100395
100395
100395
100395
100395
100395
100395
100395
100395
100395
100395
100395
100395
100395
100395
100395
100394
100394
100394
100394
100394
100394
100396
100396
100396
100396
100396
100396
100396
100396
100396
100396
100396
100396
100396
100396
100396
100396
100396
100396
100396
100396
100396
100396
100396
100396
100396
100396
100396
100395
100395
100395
100395
100395
100395
100395
100395
100395
100395
100395
100395
100395
100395
100395
100395
100395
100395
100394
100394
100394
100394
100394
100396
100396
100396
100396
100396
100396
100396
100396
100396
100396
100396
100396
100396
100396
100396
100396
100396
100396
100396
100396
100396
100396
100396
100396
100396
100396
100396
100395
100395
100395
100395
100395
100395
100395
100395
100395
100395
100395
100395
100395
100395
100395
100395
100395
100395
100394
100394
100394
100394
100394
100396
100396
100396
100396
100396
100396
100396
100396
100396
100396
100396
100396
100396
100396
100396
100396
100396
100396
100396
100396
100396
100396
100396
100396
100396
100396
100396
100395
100395
100395
100395
100395
100395
100395
100395
100395
100395
100395
100395
100395
100395
100395
100395
100395
100395
100395
100394
100394
100394
100394
100396
100396
100396
100396
100396
100396
100396
100396
100396
100396
100396
100396
100396
100396
100396
100396
100396
100396
100396
100396
100396
100396
100396
100396
100396
100396
100396
100395
100395
100395
100395
100395
100395
100395
100395
100395
100395
100395
100395
100395
100395
100395
100395
100395
100395
100395
100395
100395
100394
100394
100396
100396
100396
100396
100396
100396
100396
100396
100396
100396
100396
100396
100396
100396
100396
100396
100396
100396
100396
100396
100396
100396
100396
100396
100396
100396
100396
100396
100395
100395
100395
100395
100395
100395
100395
100395
100395
100395
100395
100395
100395
100395
100395
100395
100395
100395
100395
100395
100395
100395
100397
100396
100396
100396
100396
100396
100396
100396
100396
100396
100396
100396
100396
100396
100396
100396
100396
100396
100396
100396
100396
100396
100396
100396
100396
100396
100396
100396
100396
100396
100396
100396
100395
100395
100395
100395
100395
100395
100395
100395
100395
100395
100395
100395
100395
100395
100395
100395
100395
100395
99054.6
99095.1
99098.3
99125.6
99130.2
99144.8
99147.2
99151.7
99150.9
99149.9
99148.4
99148.2
99149.4
99154
99159.3
99172.6
99181.1
99206.7
99213.8
99252.2
99041.2
99081.8
99085.2
99112.4
99117.1
99131.5
99133.8
99138.1
99137.2
99136
99134.5
99134.1
99135.3
99139.9
99145.3
99158.9
99167.3
99193.2
99200.8
99240.8
99029.3
99069.8
99073.4
99100.5
99105.2
99119.6
99121.9
99126.1
99125.1
99123.8
99122.2
99121.9
99123.3
99128.5
99134.3
99148.6
99157.7
99184.9
99193.6
99235.8
99018.4
99059
99062.8
99089.8
99094.8
99109.1
99111.5
99115.8
99114.7
99113.4
99111.9
99111.8
99113.5
99119.3
99125.7
99141
99151
99179.4
99189.1
99232.6
99008.8
99049.5
99053.5
99080.6
99085.7
99100.1
99102.7
99107.1
99106.1
99104.9
99103.6
99103.6
99105.3
99111.2
99117.7
99133.1
99143.1
99171.7
99181.2
99225.1
99000.5
99041.2
99045.5
99072.6
99078
99092.6
99095.5
99100
99099.3
99098.3
99097.2
99097.3
99098.9
99104.7
99110.8
99126.1
99135.7
99164.3
99173.4
99217.7
98993.4
99034.2
99038.8
99066
99071.7
99086.5
99089.8
99094.5
99094.2
99093.6
99092.7
99092.8
99094.2
99099.7
99105.5
99120.6
99129.9
99158.5
99167.5
99212.1
98987.5
99028.3
99033.2
99060.6
99066.6
99081.6
99085.3
99090.4
99090.6
99090.4
99089.7
99089.7
99090.9
99096.1
99101.6
99116.6
99125.6
99154.3
99163.1
99208
98982.8
99023.7
99028.8
99056.3
99062.6
99077.9
99082
99087.4
99088.1
99088.4
99087.7
99087.7
99088.7
99093.7
99098.8
99113.7
99122.4
99151.2
99159.9
99205
98979.2
99020.1
99025.5
99053
99059.7
99075.2
99079.7
99085.5
99086.6
99087.1
99086.4
99086.4
99087.2
99092.1
99097
99111.8
99120.3
99149.1
99157.6
99203
98976.7
99017.6
99023.2
99050.8
99057.9
99073.4
99078.4
99084.4
99085.8
99086.4
99085.6
99085.7
99086.5
99091.3
99096
99110.7
99119
99147.9
99156.3
99201.9
98975.3
99016.2
99021.9
99049.6
99057
99072.7
99077.9
99084.1
99085.7
99086.3
99085.5
99085.8
99086.4
99091.3
99095.7
99110.5
99118.5
99147.5
99155.9
99201.6
98974.8
99015.7
99021.6
99049.4
99057
99072.8
99078.3
99084.6
99086.3
99086.8
99086.1
99086.5
99087.1
99092
99096.2
99111.1
99118.9
99147.9
99156.2
99202.1
98975.3
99016.2
99022.3
99050
99058
99073.8
99079.5
99085.8
99087.6
99088.1
99087.5
99087.9
99088.4
99093.3
99097.4
99112.3
99120
99149.1
99157.3
99203.3
98976.7
99017.6
99023.8
99051.5
99059.7
99075.5
99081.4
99087.7
99089.6
99090.2
99089.6
99090
99090.3
99095.3
99099.2
99114.3
99121.7
99150.9
99159.1
99205.3
98979
99019.8
99026.1
99053.8
99062.2
99078
99084
99090.3
99092.3
99092.9
99092.4
99092.8
99093
99098
99101.7
99116.9
99124.1
99153.5
99161.6
99207.8
98982.1
99022.8
99029.2
99056.8
99065.4
99081.1
99087.2
99093.6
99095.7
99096.3
99095.8
99096.3
99096.4
99101.4
99104.9
99120.1
99127.1
99156.6
99164.6
99210.9
98985.9
99026.5
99033.1
99060.5
99069.2
99084.9
99091.2
99097.5
99099.7
99100.4
99100
99100.5
99100.5
99105.6
99108.8
99124.1
99130.7
99160.4
99168.2
99214.6
98990.5
99030.9
99037.6
99064.8
99073.7
99089.3
99095.7
99102.1
99104.4
99105.2
99104.8
99105.3
99105.2
99110.4
99113.3
99128.8
99135.1
99164.8
99172.4
99218.8
98995.7
99035.9
99042.7
99069.8
99078.8
99094.3
99100.9
99107.3
99109.7
99110.5
99110.2
99110.7
99110.6
99115.8
99118.5
99134.1
99140
99169.8
99177.2
99223.7
99001.6
99041.6
99048.4
99075.4
99084.5
99099.9
99106.6
99113.1
99115.6
99116.4
99116.2
99116.6
99116.4
99121.7
99124.3
99139.9
99145.5
99175.4
99182.6
99229.1
99008
99047.9
99054.8
99081.5
99090.8
99106
99112.9
99119.4
99122
99122.9
99122.6
99123
99122.8
99128.1
99130.5
99146.3
99151.5
99181.5
99188.5
99235
99015.1
99054.7
99061.7
99088.2
99097.6
99112.7
99119.7
99126.2
99128.8
99129.7
99129.6
99129.9
99129.7
99135
99137.2
99153
99158
99188
99194.8
99241.4
99022.7
99062
99069.1
99095.4
99104.8
99119.8
99126.9
99133.4
99136.1
99137.1
99136.9
99137.2
99136.9
99142.3
99144.2
99160.1
99164.7
99194.9
99201.4
99248.1
99030.9
99069.9
99077.1
99103.1
99112.6
99127.4
99134.6
99141.1
99143.8
99144.8
99144.6
99144.9
99144.6
99149.9
99151.6
99167.5
99171.8
99201.9
99208.3
99255
99039.5
99078.3
99085.5
99111.2
99120.8
99135.4
99142.7
99149.1
99151.8
99152.8
99152.7
99153
99152.6
99157.9
99159.3
99175.2
99179.1
99209.3
99215.4
99262.1
99048.7
99087.2
99094.4
99119.7
99129.3
99143.8
99151.1
99157.4
99160.2
99161.2
99161.1
99161.4
99161
99166.2
99167.4
99183.2
99186.7
99216.8
99222.7
99269.4
99058.4
99096.5
99103.7
99128.7
99138.3
99152.6
99159.8
99166
99168.7
99169.8
99169.7
99170
99169.6
99174.7
99175.7
99191.5
99194.6
99224.7
99230.3
99277
99068.6
99106.3
99113.6
99138.1
99147.7
99161.7
99168.8
99174.9
99177.6
99178.7
99178.6
99178.9
99178.5
99183.6
99184.4
99200.1
99202.9
99232.8
99238.3
99284.9
99079.2
99116.6
99123.8
99148
99157.5
99171.1
99178.2
99184
99186.7
99187.7
99187.7
99188
99187.6
99192.6
99193.3
99208.9
99211.5
99241.3
99246.6
99293.3
99090.4
99127.3
99134.6
99158.2
99167.7
99180.9
99187.8
99193.4
99196
99197
99197
99197.2
99196.9
99201.9
99202.6
99218.1
99220.5
99250.2
99255.4
99302.1
99102.2
99138.6
99145.8
99169
99178.3
99191.1
99197.7
99203
99205.5
99206.5
99206.5
99206.7
99206.5
99211.5
99212.1
99227.6
99229.8
99259.5
99264.7
99311.4
99114.5
99150.5
99157.6
99180.2
99189.3
99201.6
99208
99213
99215.3
99216.2
99216.2
99216.4
99216.2
99221.2
99221.8
99237.3
99239.5
99269.2
99274.3
99321.2
99127.4
99162.9
99169.9
99191.9
99200.8
99212.6
99218.6
99223.3
99225.5
99226.3
99226.2
99226.3
99226.2
99231.2
99231.9
99247.4
99249.6
99279.3
99284.4
99331.4
99141
99175.9
99182.8
99204.2
99212.8
99224.1
99229.8
99234.1
99236.1
99236.6
99236.4
99236.5
99236.5
99241.5
99242.3
99257.7
99260
99289.7
99294.9
99342
99155.4
99189.7
99196.5
99217.1
99225.5
99236.2
99241.4
99245.4
99247.1
99247.4
99247
99247
99247.2
99252
99253
99268.3
99270.8
99300.5
99305.7
99353.1
99170.6
99204.3
99210.9
99230.9
99238.9
99248.9
99253.8
99257.3
99258.7
99258.6
99258.1
99258
99258.3
99263
99264.2
99279.4
99282.1
99311.8
99317
99364.6
99186.8
99219.9
99226.3
99245.6
99253.1
99262.5
99266.9
99270
99270.9
99270.5
99269.7
99269.6
99270
99274.6
99276
99291
99293.9
99323.7
99328.9
99376.6
99204.1
99236.5
99242.8
99261.3
99268.4
99277.1
99281
99283.5
99283.9
99283.1
99282.1
99281.9
99282.5
99286.9
99288.5
99303.3
99306.5
99336.4
99341.6
99389.5
99222.7
99254.4
99260.4
99278.1
99284.8
99292.8
99296.1
99298
99297.9
99296.6
99295.4
99295.2
99295.8
99300
99302
99316.6
99320.1
99350
99355.2
99403.2
99242.5
99273.4
99279.3
99296.2
99302.3
99309.6
99312.3
99313.7
99313
99311.2
99309.8
99309.6
99310.4
99314.4
99316.7
99331
99334.9
99364.9
99370
99418
99263.8
99293.8
99299.4
99315.5
99321.3
99327.8
99330
99330.7
99329.5
99327.3
99325.6
99325.4
99326.3
99330.1
99332.8
99346.9
99351.2
99381.2
99386.2
99434.2
99286.5
99315.7
99321
99336.3
99341.6
99347.5
99349.1
99349.2
99347.5
99344.9
99343.1
99342.8
99343.8
99347.4
99350.6
99364.4
99369.2
99399.1
99404.1
99451.9
99310.5
99338.9
99344
99358.6
99363.4
99368.7
99369.8
99369.4
99367.2
99364.3
99362.3
99362.1
99363.1
99366.6
99370.2
99383.6
99389.1
99418.9
99423.8
99471.2
99335.9
99363.5
99368.4
99382.3
99386.8
99391.5
99392.2
99391.4
99388.8
99385.6
99383.5
99383.3
99384.3
99387.7
99391.7
99404.9
99410.9
99440.5
99445.4
99492.2
99362.7
99389.5
99394.3
99407.5
99411.6
99415.9
99416.3
99415.2
99412.3
99408.9
99406.8
99406.6
99407.6
99410.8
99415.3
99428.2
99434.8
99464
99468.9
99515
99390.9
99416.8
99421.5
99434.1
99438
99442
99442.1
99440.7
99437.7
99434.3
99432.1
99431.9
99432.9
99436.1
99441
99453.5
99460.7
99489.5
99494.4
99539.5
99420.4
99445.4
99450
99462.1
99465.9
99469.5
99469.5
99468
99465
99461.6
99459.5
99459.3
99460.2
99463.4
99468.7
99480.9
99488.6
99516.8
99521.7
99565.7
99451
99475.2
99479.7
99491.3
99495
99498.5
99498.5
99497
99494
99490.8
99488.7
99488.5
99489.5
99492.7
99498.2
99510
99518.3
99545.7
99550.6
99593.3
99482.6
99506
99510.5
99521.7
99525.3
99528.7
99528.7
99527.3
99524.5
99521.5
99519.6
99519.4
99520.4
99523.7
99529.4
99540.9
99549.5
99576.1
99581
99622.2
99515.2
99537.8
99542.2
99553
99556.6
99560
99560.2
99558.9
99556.4
99553.7
99551.9
99551.8
99552.9
99556.1
99562.1
99573.2
99582.1
99607.7
99612.6
99652.2
99548.5
99570.2
99574.6
99585.1
99588.8
99592.2
99592.5
99591.5
99589.3
99586.9
99585.4
99585.3
99586.5
99589.8
99595.8
99606.5
99615.7
99640.2
99645.1
99683
99582.3
99603.3
99607.7
99617.9
99621.6
99625
99625.6
99624.9
99623
99621
99619.7
99619.7
99620.9
99624.3
99630.4
99640.7
99650
99673.4
99678.3
99714.3
99616.6
99636.7
99641.1
99651
99654.8
99658.3
99659.2
99658.8
99657.3
99655.5
99654.5
99654.6
99655.9
99659.3
99665.4
99675.4
99684.7
99706.9
99711.8
99746
99651.1
99670.4
99674.8
99684.4
99688.3
99691.9
99693
99692.9
99691.8
99690.4
99689.5
99689.8
99691.2
99694.6
99700.6
99710.3
99719.6
99740.6
99745.5
99777.8
99685.7
99704.2
99708.6
99717.9
99721.9
99725.6
99726.9
99727.1
99726.3
99725.2
99724.6
99724.9
99726.4
99729.9
99735.8
99745.1
99754.3
99774.2
99779
99809.4
99720.3
99737.9
99742.3
99751.3
99755.4
99759.1
99760.6
99761.1
99760.6
99759.8
99759.4
99759.8
99761.4
99764.9
99770.7
99779.6
99788.7
99807.4
99812.2
99840.7
99754.5
99771.4
99775.7
99784.5
99788.6
99792.3
99794
99794.7
99794.5
99794
99793.8
99794.3
99795.9
99799.4
99805.2
99813.7
99822.6
99840.2
99844.8
99871.6
99788.4
99804.5
99808.8
99817.2
99821.3
99825.1
99827
99827.9
99827.9
99827.6
99827.5
99828.2
99829.9
99833.3
99839
99847.2
99855.8
99872.3
99876.9
99901.9
99821.8
99837.1
99841.3
99849.5
99853.5
99857.3
99859.3
99860.4
99860.6
99860.5
99860.6
99861.3
99863
99866.5
99872
99879.9
99888.3
99903.7
99908.2
99931.4
99854.5
99869.1
99873.2
99881.1
99885.1
99888.8
99890.9
99892.1
99892.5
99892.6
99892.8
99893.6
99895.4
99898.8
99904.2
99911.8
99919.8
99934.3
99938.6
99960.2
99886.6
99900.4
99904.4
99911.9
99915.9
99919.5
99921.7
99923
99923.5
99923.8
99924.1
99925
99926.8
99930.2
99935.4
99942.7
99950.4
99964
99968.1
99988.2
99917.8
99930.9
99934.8
99942
99945.8
99949.4
99951.5
99952.9
99953.6
99954
99954.4
99955.3
99957.2
99960.6
99965.6
99972.6
99980.1
99992.7
99996.7
100015
99948.2
99960.6
99964.3
99971.1
99974.9
99978.3
99980.5
99981.9
99982.7
99983.1
99983.7
99984.7
99986.5
99989.9
99994.8
100001
100009
100020
100024
100041
99977.6
99989.3
99992.9
99999.4
100003
100006
100008
100010
100011
100011
100012
100013
100015
100018
100023
100029
100036
100047
100051
100067
100006
100017
100021
100027
100030
100033
100035
100037
100038
100038
100039
100040
100042
100045
100050
100056
100063
100073
100077
100091
100034
100044
100047
100053
100056
100059
100061
100063
100064
100064
100065
100066
100068
100071
100076
100082
100088
100098
100101
100115
100060
100070
100073
100078
100081
100084
100086
100087
100088
100089
100090
100091
100093
100096
100101
100106
100112
100121
100125
100137
100085
100094
100097
100102
100105
100108
100110
100111
100112
100113
100114
100115
100117
100120
100124
100130
100136
100144
100148
100159
100110
100118
100121
100126
100128
100131
100133
100134
100135
100136
100136
100138
100140
100143
100147
100152
100158
100166
100169
100179
100133
100141
100143
100148
100150
100153
100154
100156
100156
100157
100158
100159
100161
100164
100169
100174
100180
100187
100190
100199
100155
100163
100165
100169
100171
100174
100175
100176
100177
100178
100179
100180
100182
100185
100189
100194
100200
100207
100210
100218
100177
100183
100186
100189
100191
100193
100195
100196
100197
100197
100198
100200
100202
100205
100209
100214
100219
100226
100229
100237
100197
100203
100205
100209
100211
100212
100214
100215
100215
100216
100217
100218
100220
100224
100228
100233
100238
100244
100247
100254
100216
100222
100224
100227
100229
100230
100231
100232
100233
100234
100235
100236
100238
100241
100245
100250
100256
100262
100265
100271
100235
100240
100242
100244
100246
100247
100248
100249
100250
100250
100251
100253
100255
100258
100262
100267
100272
100278
100281
100287
100252
100257
100259
100261
100262
100263
100264
100265
100265
100266
100267
100269
100271
100274
100278
100283
100288
100294
100297
100302
100269
100273
100274
100276
100278
100279
100279
100280
100280
100281
100282
100284
100286
100289
100294
100299
100304
100309
100312
100316
100285
100288
100290
100291
100292
100293
100294
100294
100295
100295
100296
100298
100300
100304
100308
100313
100318
100323
100326
100330
100300
100303
100304
100305
100306
100307
100307
100307
100308
100308
100310
100311
100314
100317
100322
100327
100332
100337
100340
100344
100313
100316
100317
100318
100319
100319
100320
100320
100320
100321
100322
100324
100326
100330
100334
100340
100345
100350
100353
100356
100327
100329
100330
100330
100331
100331
100331
100332
100332
100333
100334
100336
100338
100342
100346
100352
100357
100362
100365
100368
100339
100341
100341
100342
100342
100342
100343
100343
100343
100344
100345
100347
100349
100353
100358
100363
100368
100373
100377
100379
100350
100352
100352
100353
100353
100353
100353
100353
100353
100354
100355
100357
100360
100363
100368
100373
100379
100384
100387
100389
100361
100362
100362
100363
100362
100362
100362
100363
100363
100364
100365
100366
100369
100373
100378
100383
100388
100393
100397
100398
100370
100371
100372
100372
100371
100371
100371
100371
100372
100372
100373
100375
100378
100381
100386
100391
100397
100402
100405
100406
100379
100380
100380
100380
100380
100380
100379
100380
100380
100380
100381
100383
100386
100389
100394
100399
100404
100409
100412
100413
100387
100388
100387
100387
100387
100387
100387
100387
100387
100388
100389
100390
100393
100396
100400
100405
100409
100414
100416
100417
100394
100394
100394
100394
100394
100393
100393
100394
100394
100395
100395
100397
100399
100402
100405
100409
100413
100416
100418
100419
100400
100400
100400
100400
100399
100399
100399
100399
100400
100400
100401
100402
100404
100407
100409
100412
100415
100417
100418
100419
100405
100405
100405
100404
100404
100404
100404
100405
100405
100406
100406
100407
100409
100410
100412
100414
100416
100417
100418
100418
100409
100409
100409
100409
100408
100408
100409
100409
100410
100410
100411
100412
100413
100414
100415
100416
100416
100417
100417
100418
100412
100412
100412
100412
100412
100412
100412
100413
100413
100414
100414
100415
100416
100416
100416
100417
100417
100417
100417
100417
100414
100414
100414
100414
100414
100414
100415
100415
100416
100417
100417
100418
100418
100418
100418
100417
100417
100417
100417
100417
100416
100416
100416
100416
100416
100416
100417
100417
100418
100418
100419
100419
100419
100419
100418
100418
100417
100417
100417
100417
100417
100417
100417
100417
100417
100417
100418
100418
100419
100419
100420
100420
100420
100420
100419
100418
100418