/*--------------------------------*- C++ -*----------------------------------*\
  =========                 |
  \\      /  F ield         | OpenFOAM: The Open Source CFD Toolbox
   \\    /   O peration     | Website:  https://openfoam.org
    \\  /    A nd           | Version:  8
     \\/     M anipulation  |
\*---------------------------------------------------------------------------*/
FoamFile
{
    version     2.0;
    format      ascii;
    class       surfaceScalarField;
    location    "100";
    object      phi;
}
// * * * * * * * * * * * * * * * * * * * * * * * * * * * * * * * * * * * * * //

dimensions      [1 0 -1 0 0 0 0];

internalField   nonuniform List<scalar> 
16360
(
-1.02036
-0.113814
-0.946648
-0.0737069
-0.912788
-0.033866
-0.908458
-0.00432619
-0.923478
0.0150237
-0.949614
0.0261339
-0.981471
0.0318563
-1.01472
0.0332514
-1.04504
0.0303147
-1.06709
0.0220468
-1.07369
0.00660506
-1.05598
-0.0177003
-1.00705
-0.0489397
-0.927673
-0.0793708
-0.827188
-0.100483
-0.722127
-0.105066
-0.632732
-0.0893896
-0.566772
-0.0659635
-0.508991
-0.0577705
-0.451179
-0.0578081
-0.395547
-0.0556308
-0.34615
-0.0494045
-0.30484
-0.0413112
-0.270891
-0.0339499
-0.244192
-0.0266863
-0.224059
-0.0201407
-0.209358
-0.0147072
-0.199
-0.010361
-0.192084
-0.00692163
-0.187856
-0.00422364
-0.185732
-0.00211576
-0.185262
-0.000465348
-0.186093
0.000835576
-0.187976
0.00188031
-0.190701
0.00272049
-0.194098
0.00339791
-0.198029
0.00393151
-0.202379
0.0043445
-0.207037
0.0046609
-0.211919
0.00488473
-0.216948
0.00502747
-0.222042
0.00510025
-0.227132
0.00509844
-0.23216
0.0050247
-0.237043
0.0048814
-0.241703
0.0046587
-0.246048
0.00434238
-0.249971
0.00392474
-0.253359
0.00338934
0.00260459
-0.255965
-0.793793
-0.221529
-0.772881
-0.0946199
-0.774357
-0.0323878
-0.793895
0.0152055
-0.818845
0.0399754
-0.845151
0.0524436
-0.87154
0.0582386
-0.895991
0.0577073
-0.915609
0.0499332
-0.926056
0.0324972
-0.920208
0.000751532
-0.888852
-0.0490511
-0.83233
-0.105463
-0.76033
-0.15137
-0.68009
-0.180722
-0.599726
-0.185428
-0.534549
-0.154565
-0.495224
-0.105292
-0.457949
-0.0950518
-0.414052
-0.101714
-0.367597
-0.102084
-0.324171
-0.0928291
-0.288203
-0.0772795
-0.257471
-0.0646844
-0.232527
-0.0516289
-0.213914
-0.0387458
-0.200404
-0.0282038
-0.191033
-0.0197312
-0.184917
-0.0130471
-0.181335
-0.00781585
-0.179726
-0.00373199
-0.179665
-0.000527052
-0.180832
0.00200926
-0.182996
0.00404047
-0.185943
0.00567998
-0.189532
0.00699054
-0.193625
0.00802863
-0.198111
0.00883815
-0.202899
0.00944885
-0.207902
0.00988514
-0.213045
0.0101691
-0.218263
0.0103126
-0.223483
0.0103203
-0.22865
0.0101935
-0.2337
0.00993196
-0.238568
0.00952553
-0.243187
0.00896443
-0.247486
0.00823174
-0.251379
0.00728202
0.00603202
-0.25481
-0.313729
-0.0566358
-0.447672
0.0393233
-0.497969
0.0179097
-0.523578
0.0408109
-0.543575
0.0599724
-0.557361
0.0662321
-0.561122
0.0620009
-0.552783
0.0493642
-0.53108
0.0282349
-0.494756
-0.0038345
-0.44551
-0.0484908
-0.399647
-0.0949117
-0.370279
-0.134842
-0.353218
-0.168431
-0.343778
-0.190159
-0.336013
-0.193201
-0.329677
-0.160897
-0.34006
-0.094915
-0.340431
-0.094683
-0.325053
-0.117077
-0.300261
-0.126877
-0.272393
-0.120703
-0.251551
-0.0981071
-0.230136
-0.0861072
-0.209564
-0.0722006
-0.194919
-0.0533948
-0.184096
-0.0390353
-0.176889
-0.0269346
-0.17246
-0.0174568
-0.170176
-0.0101136
-0.169523
-0.00439419
-0.170141
9.48633e-05
-0.171778
0.00365383
-0.174265
0.00652669
-0.177429
0.00884779
-0.181145
0.0107068
-0.185295
0.0121824
-0.189786
0.0133304
-0.194538
0.0141969
-0.199473
0.0148229
-0.20453
0.01523
-0.209651
0.0154314
-0.21477
0.0154386
-0.219835
0.0152558
-0.22479
0.0148807
-0.229574
0.0143071
-0.234132
0.0135253
-0.238417
0.0125178
-0.242386
0.0112524
0.00965859
-0.246009
1.63362
0.0437295
1.57812
0.094813
1.48235
0.113684
1.39021
0.132947
1.30146
0.148733
1.21418
0.153511
1.13037
0.145807
1.05267
0.12706
0.981777
0.0991356
0.912687
0.0652514
0.832243
0.0319586
0.732835
0.00450033
0.61385
-0.0158551
0.473403
-0.0279805
0.312753
-0.0295123
0.139938
-0.020389
-0.007084
-0.0138611
-0.079753
-0.0222545
-0.108427
-0.0659963
-0.137013
-0.0884885
-0.161634
-0.102263
-0.176214
-0.106111
-0.18843
-0.0858817
-0.185985
-0.0885512
-0.174169
-0.0840196
-0.167604
-0.0599528
-0.160767
-0.0458748
-0.156747
-0.030947
-0.154691
-0.019509
-0.154172
-0.0106407
-0.154835
-0.00372133
-0.156436
0.00171005
-0.158827
0.00603396
-0.161871
0.009572
-0.165452
0.0124334
-0.169473
0.014731
-0.173853
0.0165579
-0.17852
0.0179927
-0.18341
0.0190912
-0.188469
0.0198892
-0.193652
0.0204128
-0.198908
0.0206835
-0.20418
0.0207142
-0.209424
0.0205025
-0.214592
0.0200463
-0.219625
0.0193432
-0.224476
0.0183788
-0.229093
0.0171352
-0.233428
0.0155891
0.0137135
-0.237478
1.5178
0.1016
1.48883
0.123794
1.45774
0.144774
1.42779
0.162898
1.39947
0.177052
1.36902
0.183956
1.33323
0.181603
1.29024
0.170052
1.2385
0.150871
1.17662
0.127136
1.10533
0.103244
1.02703
0.0828029
0.943444
0.067726
0.856131
0.0593338
0.768718
0.0578997
0.686344
0.0619876
0.60668
0.0658026
0.520758
0.0636707
0.403056
0.0516926
0.269246
0.0453327
0.116259
0.0507258
-0.0135778
0.0237027
-0.0779042
-0.0215531
-0.111382
-0.0550593
-0.124286
-0.0711211
-0.132682
-0.0515496
-0.131424
-0.0471369
-0.132121
-0.0302475
-0.133211
-0.018417
-0.134946
-0.00888902
-0.137243
-0.00142406
-0.140031
0.00449715
-0.143294
0.00930467
-0.146976
0.0132554
-0.151015
0.0164695
-0.15535
0.019064
-0.159928
0.0211396
-0.164709
0.0227799
-0.169656
0.0240409
-0.174732
0.0249624
-0.179898
0.0255767
-0.185116
0.0259027
-0.190347
0.0259447
-0.195552
0.0257041
-0.200688
0.0251817
-0.205712
0.0243685
-0.210589
0.0232527
-0.215277
0.0218246
-0.219751
0.0200654
0.0179568
-0.223993
1.37635
0.155911
1.34115
0.158992
1.31472
0.171203
1.29428
0.183335
1.27803
0.193296
1.26275
0.199247
1.24456
0.199792
1.22004
0.194575
1.18649
0.184416
1.14238
0.171247
1.08794
0.15768
1.02469
0.146062
0.954454
0.137956
0.879558
0.13423
0.802668
0.134784
0.726305
0.138349
0.650388
0.141722
0.573767
0.140289
0.493124
0.132339
0.415097
0.123366
0.352183
0.113641
0.276585
0.0993027
0.170135
0.0848904
0.0414527
0.0736242
-0.0559274
0.0262725
-0.085288
-0.0221845
-0.095387
-0.0370364
-0.102923
-0.0227083
-0.107643
-0.013697
-0.111919
-0.00460897
-0.115952
0.00259825
-0.119952
0.00849778
-0.124156
0.0135202
-0.128517
0.0176205
-0.133016
0.0209598
-0.137636
0.0236785
-0.14236
0.025875
-0.147195
0.0276214
-0.152135
0.0289761
-0.157159
0.0299833
-0.16225
0.0306709
-0.167394
0.0310474
-0.172562
0.0311131
-0.177723
0.0308682
-0.182848
0.0303066
-0.187901
0.0294193
-0.192844
0.0281976
-0.197645
0.0266288
-0.20228
0.0246976
0.0224098
-0.206734
1.18211
0.200588
1.14904
0.192065
1.12615
0.194093
1.11013
0.19936
1.09858
0.204842
1.0888
0.209029
1.0777
0.210891
1.06235
0.209928
1.04036
0.206402
1.01026
0.201347
0.971724
0.196224
0.925349
0.192435
0.872311
0.190996
0.814193
0.192346
0.752756
0.196218
0.689662
0.201443
0.625977
0.205415
0.561619
0.204642
0.495669
0.198291
0.430072
0.188958
0.367332
0.176378
0.306622
0.160016
0.249762
0.141749
0.200132
0.123232
0.118942
0.107471
0.0176063
0.0791542
-0.0519635
0.0325409
-0.0687463
-0.00593883
-0.0783535
-0.00410029
-0.084951
0.0019825
-0.0907886
0.00844598
-0.0963438
0.0140546
-0.10161
0.018778
-0.106669
0.0226748
-0.11158
0.0258796
-0.116406
0.0285108
-0.121188
0.0306593
-0.125969
0.0323957
-0.130774
0.033778
-0.135607
0.0348296
-0.140483
0.0355551
-0.145404
0.0359638
-0.150349
0.0360565
-0.155298
0.0358186
-0.160232
0.0352376
-0.165122
0.0343077
-0.169937
0.0330155
-0.174655
0.0313455
-0.179254
0.0292943
0.0268838
-0.183725
0.971917
0.240476
0.943074
0.220913
0.923487
0.213672
0.910379
0.21247
0.901424
0.213799
0.894383
0.216067
0.886975
0.218305
0.877033
0.219869
0.862753
0.220686
0.842876
0.221222
0.816827
0.222267
0.784672
0.2246
0.746921
0.228738
0.7045
0.234776
0.658534
0.24218
0.610285
0.249695
0.560644
0.255053
0.509507
0.255771
0.456696
0.251111
0.403683
0.241973
0.351891
0.228166
0.301542
0.210366
0.252985
0.190312
0.207461
0.16875
0.167364
0.147565
0.123426
0.123089
0.0548588
0.101104
-0.0112486
0.0601654
-0.0454331
0.0301075
-0.0543433
0.0108968
-0.0625408
0.0166469
-0.0696288
0.0211408
-0.0759176
0.0250566
-0.0815729
0.0283316
-0.0867563
0.0310732
-0.0916227
0.0333681
-0.0962698
0.035301
-0.10078
0.0369171
-0.105235
0.0382367
-0.109673
0.0392668
-0.114115
0.0400024
-0.118585
0.0404357
-0.123088
0.0405547
-0.127612
0.0403407
-0.132143
0.0397755
-0.13667
0.0388422
-0.141175
0.0375213
-0.145638
0.0358048
-0.150041
0.0337
0.0312423
-0.154394
0.753521
0.275145
0.730355
0.244079
0.715336
0.228699
0.705713
0.222097
0.699623
0.21989
0.695307
0.220385
0.691086
0.222514
0.685425
0.225529
0.676988
0.22912
0.664791
0.233423
0.648254
0.238801
0.627225
0.245632
0.60189
0.254075
0.572746
0.263913
0.540538
0.274395
0.506083
0.284152
0.469921
0.291218
0.432053
0.29364
0.392651
0.290512
0.352684
0.281941
0.312825
0.268029
0.273476
0.249714
0.23555
0.228237
0.199581
0.204723
0.166383
0.180768
0.133701
0.15576
0.103736
0.131068
0.0634417
0.100472
0.0179672
0.075582
-0.0160627
0.0449184
-0.0313508
0.0319401
-0.0404386
0.0302237
-0.0477822
0.0323942
-0.0538877
0.0344233
-0.0591333
0.0363094
-0.063777
0.0380042
-0.068014
0.0395413
-0.0719905
0.0409061
-0.0758272
0.0420701
-0.0795927
0.0430213
-0.083325
0.0437366
-0.0870679
0.0441836
-0.0908483
0.0443358
-0.0946674
0.0441663
-0.0985253
0.0436442
-0.102431
0.0427441
-0.106368
0.0414519
-0.11032
0.0397587
-0.114282
0.0376664
0.0352405
-0.118281
0.531747
0.304852
0.516127
0.259689
0.506992
0.237842
0.501858
0.227218
0.499388
0.222359
0.498232
0.221532
0.497244
0.223517
0.495349
0.227419
0.491645
0.232826
0.48543
0.239639
0.476262
0.247969
0.463966
0.257924
0.44862
0.269424
0.430513
0.28202
0.410106
0.294801
0.387899
0.306356
0.364214
0.314908
0.339117
0.318739
0.31279
0.316835
0.285724
0.309008
0.258276
0.295474
0.230856
0.277134
0.204035
0.25506
0.178137
0.23062
0.153742
0.205166
0.130209
0.179301
0.107651
0.153626
0.0819107
0.126209
0.056445
0.101046
0.0271831
0.0741898
0.00430655
0.0548209
-0.00994045
0.0444661
-0.0185178
0.040981
-0.0248208
0.0407216
-0.0298365
0.0413116
-0.0339261
0.0421055
-0.0374375
0.043065
-0.040581
0.0440516
-0.0434913
0.0449828
-0.0462699
0.0458005
-0.048982
0.0464534
-0.0516824
0.0468884
-0.0544149
0.0470663
-0.0572007
0.0469522
-0.0600542
0.0465003
-0.062997
0.0456784
-0.0660195
0.0444755
-0.0691231
0.0428703
-0.0723102
0.0408546
0.0385438
-0.0756165
0.30916
0.32885
0.304765
0.264079
0.302979
0.239636
0.303089
0.227102
0.304521
0.220945
0.306537
0.219522
0.308519
0.221527
0.309878
0.226069
0.310047
0.23265
0.30862
0.241064
0.305322
0.251266
0.300064
0.263189
0.29291
0.276579
0.284074
0.290856
0.273855
0.305025
0.262575
0.317636
0.250431
0.327054
0.237458
0.331709
0.223698
0.330592
0.209281
0.323426
0.194321
0.310435
0.178997
0.292455
0.163535
0.270529
0.148144
0.246003
0.133088
0.220219
0.118279
0.194119
0.103621
0.168282
0.0874442
0.142384
0.0705957
0.117896
0.0511787
0.0936075
0.0329859
0.0730087
0.0191049
0.0583421
0.00987468
0.0502034
0.00380779
0.0467822
-0.000474455
0.0456027
-0.00367403
0.0453115
-0.00618957
0.0455684
-0.00823848
0.0460913
-0.00996623
0.0467179
-0.0115011
0.0473384
-0.0129279
0.0478778
-0.014298
0.0482631
-0.015666
0.0484365
-0.0170788
0.0483522
-0.0185529
0.0479652
-0.0201159
0.0472379
-0.0217845
0.0461481
-0.0235848
0.0446738
-0.0255343
0.0428039
0.0406581
-0.0276454
0.0993474
0.328577
0.103896
0.259517
0.108327
0.235215
0.112937
0.222487
0.117513
0.216363
0.122061
0.21497
0.126441
0.217141
0.130423
0.222099
0.133721
0.22935
0.136161
0.238636
0.137629
0.249794
0.138169
0.262646
0.13793
0.276825
0.137123
0.29166
0.135922
0.30622
0.134636
0.318923
0.133348
0.328336
0.131987
0.33307
0.13038
0.332196
0.128334
0.325471
0.125674
0.313094
0.122305
0.295821
0.118163
0.274676
0.113299
0.250874
0.107798
0.225714
0.101698
0.200219
0.094926
0.17506
0.0868785
0.150437
0.0777502
0.12702
0.0666292
0.104708
0.0546438
0.0849897
0.043737
0.0692646
0.0355244
0.0584133
0.0303056
0.0520012
0.0272737
0.0486387
0.02553
0.047056
0.0245801
0.0465234
0.0241059
0.0465661
0.0239315
0.0468982
0.0239339
0.0473415
0.0240207
0.0477819
0.0241488
0.0481302
0.0242719
0.0483151
0.0243414
0.048278
0.0243368
0.0479725
0.0242263
0.0473537
0.0239777
0.0463919
0.0235692
0.0450777
0.0229596
0.0434148
0.0414443
0.022173
-0.111213
0.294826
-0.0987799
0.247071
-0.0889106
0.225346
-0.0801547
0.213725
-0.0719717
0.208194
-0.0640639
0.207063
-0.0563095
0.209383
-0.0487279
0.214519
-0.0414179
0.222032
-0.0344211
0.231638
-0.0277278
0.243097
-0.0212018
0.256121
-0.0146364
0.270254
-0.00777701
0.2848
-0.000422705
0.298873
0.00771664
0.310788
0.0167888
0.319262
0.0266442
0.323217
0.0368624
0.321972
0.0468772
0.315461
0.0561535
0.303816
0.064433
0.287536
0.0712981
0.267809
0.0766798
0.245498
0.0805417
0.221851
0.0829326
0.197827
0.083883
0.174111
0.0832173
0.151097
0.0810054
0.129233
0.0769487
0.108767
0.0714645
0.0904727
0.0655234
0.0752011
0.0603558
0.0635782
0.0567938
0.0555642
0.0549305
0.0504989
0.0544247
0.0475615
0.0548924
0.0460626
0.0559851
0.0454726
0.0574578
0.0454226
0.059143
0.0456585
0.0609133
0.0460078
0.062698
0.0463439
0.064442
0.0465724
0.0660985
0.0466236
0.0676276
0.0464445
0.0689872
0.0459911
0.0701347
0.0452397
0.0710314
0.0441865
0.0716099
0.0428421
0.0412328
0.0718178
-0.332033
0.254266
-0.311453
0.226491
-0.296176
0.210076
-0.283169
0.200718
-0.271119
0.196142
-0.25944
0.195385
-0.247813
0.197758
-0.236065
0.202765
-0.224074
0.210041
-0.211691
0.219264
-0.198736
0.230143
-0.184948
0.242338
-0.170049
0.255356
-0.1538
0.268545
-0.136016
0.281085
-0.116809
0.29158
-0.0964228
0.298874
-0.0752521
0.302052
-0.0538077
0.300527
-0.0324868
0.294134
-0.0114996
0.282825
0.00828971
0.267747
0.0256159
0.250479
0.0407351
0.230379
0.0534691
0.20912
0.0638857
0.18741
0.0721158
0.165881
0.0782216
0.144981
0.0823351
0.125119
0.0844529
0.106651
0.0848281
0.0900928
0.0840355
0.0759928
0.0828744
0.064739
0.0820895
0.0563508
0.0821031
0.0504891
0.0830111
0.0466498
0.0847369
0.04433
0.0871089
0.0430939
0.0899424
0.0425888
0.0930763
0.0425357
0.0963617
0.0427261
0.0996991
0.0430058
0.103013
0.0432592
0.106242
0.0433984
0.109325
0.0433578
0.112215
0.0430946
0.114862
0.0425894
0.117212
0.0418401
0.119196
0.0408604
0.0396876
0.120737
-0.552105
0.214752
-0.525302
0.199691
-0.503843
0.188616
-0.484866
0.181739
-0.467064
0.178348
-0.449712
0.17803
-0.432347
0.180389
-0.414636
0.185066
-0.396345
0.191741
-0.377204
0.200126
-0.356954
0.209899
-0.33531
0.220693
-0.311983
0.232031
-0.286743
0.243299
-0.259415
0.253753
-0.230152
0.26232
-0.199328
0.268045
-0.167486
0.270206
-0.135278
0.268331
-0.103407
0.262261
-0.0727127
0.252126
-0.0439659
0.238999
-0.0170331
0.223553
0.00727746
0.206064
0.0282213
0.18817
0.046014
0.169618
0.0609003
0.150997
0.0731375
0.132738
0.0829558
0.115295
0.0905104
0.0990901
0.0960547
0.0845457
0.100014
0.0720369
0.102949
0.0618026
0.105442
0.0538552
0.107944
0.0479846
0.110724
0.0438634
0.113917
0.041138
0.117542
0.0394738
0.121547
0.0385838
0.12586
0.0382268
0.130382
0.0382041
0.135024
0.0383623
0.139704
0.0385787
0.144344
0.0387563
0.148871
0.0388241
0.153224
0.0387379
0.157339
0.0384756
0.161145
0.0380367
0.164562
0.0374428
0.0367367
0.167509
-0.763239
0.175963
-0.731347
0.167801
-0.703508
0.16077
-0.67786
0.156099
-0.653369
0.15385
-0.629284
0.153946
-0.605084
0.156183
-0.580343
0.160328
-0.554728
0.166129
-0.527928
0.173319
-0.499639
0.181611
-0.469587
0.190647
-0.437539
0.199985
-0.403331
0.209089
-0.366886
0.217316
-0.328437
0.223867
-0.288417
0.228024
-0.247437
0.229224
-0.206182
0.227084
-0.165404
0.221477
-0.125959
0.21268
-0.0885837
0.201622
-0.0539241
0.18889
-0.0223636
0.174497
0.00592314
0.159879
0.0303456
0.145196
0.0511545
0.13019
0.0688303
0.115057
0.0837179
0.100408
0.096054
0.0867545
0.106104
0.0744898
0.114246
0.0638959
0.120935
0.0551151
0.126648
0.0481354
0.131812
0.042815
0.136741
0.0389318
0.141656
0.0362276
0.146689
0.0344475
0.151899
0.0333707
0.157308
0.0328119
0.162896
0.0326096
0.168625
0.0326315
0.174438
0.0327658
0.18027
0.0329234
0.18605
0.0330411
0.191711
0.033077
0.197179
0.0330103
0.20237
0.0328461
0.207194
0.032618
0.0323818
0.211548
-0.955359
0.135954
-0.918833
0.131279
-0.885028
0.126961
-0.852936
0.124012
-0.821777
0.122695
-0.790884
0.123054
-0.759712
0.125012
-0.727802
0.128423
-0.69477
0.133096
-0.660271
0.138821
-0.624004
0.145347
-0.58573
0.152369
-0.54527
0.159523
-0.502553
0.166373
-0.457646
0.172414
-0.410861
0.177081
-0.362705
0.17987
-0.313844
0.180361
-0.26501
0.178245
-0.216967
0.173429
-0.170498
0.166212
-0.12622
0.157344
-0.0847625
0.147436
-0.0469422
0.136689
-0.0128795
0.125822
0.0174893
0.114818
0.0434422
0.10424
0.0658492
0.0926596
0.0851855
0.0810733
0.101708
0.0702319
0.115678
0.0605218
0.127439
0.0521359
0.137405
0.0451413
0.146016
0.0395154
0.153683
0.0351547
0.16073
0.0318912
0.167414
0.0295395
0.173933
0.0279235
0.180415
0.026883
0.186941
0.0262795
0.193556
0.0259901
0.200272
0.0259119
0.207074
0.0259602
0.21393
0.0260671
0.22079
0.0261821
0.227596
0.0262723
0.234279
0.0263272
0.240761
0.0263646
0.246943
0.0264353
0.0266252
0.2527
-1.11879
0.0930965
-1.07798
0.0904771
-1.03904
0.0880148
-1.00136
0.0863302
-0.964328
0.0856631
-0.927357
0.0860859
-0.889909
0.087569
-0.851522
0.0900329
-0.811776
0.0933514
-0.770328
0.097372
-0.726893
0.101912
-0.68127
0.106745
-0.633361
0.111612
-0.583189
0.116202
-0.530946
0.120165
-0.477018
0.12315
-0.42198
0.124834
-0.366565
0.124944
-0.311566
0.123247
-0.257765
0.119634
-0.20588
0.114321
-0.156443
0.107895
-0.109978
0.10097
-0.0670881
0.0937993
-0.0277211
0.0864532
0.00755093
0.0795337
0.0377829
0.074001
0.0642217
0.0662225
0.0874587
0.0578302
0.107657
0.0500334
0.125031
0.0431519
0.139907
0.0372545
0.1527
0.0323426
0.163844
0.0283764
0.173737
0.0252687
0.182722
0.0229033
0.191088
0.0211644
0.199068
0.0199415
0.20683
0.0191256
0.214489
0.0186212
0.222133
0.0183464
0.229813
0.0182323
0.23755
0.0182244
0.245344
0.0182771
0.253172
0.0183564
0.261002
0.0184431
0.268788
0.0185398
0.276477
0.0186771
0.283988
0.0189254
0.0194159
0.291197
-1.24506
0.0479509
-1.201
0.0464199
-1.1582
0.0452123
-1.11629
0.0444317
-1.0748
0.0441695
-1.03318
0.0444539
-0.990883
0.0452804
-0.947458
0.0466049
-0.902467
0.0483599
-0.855564
0.0504667
-0.80649
0.052832
-0.755074
0.0553337
-0.701289
0.0578281
-0.645242
0.0601562
-0.587208
0.0621365
-0.527653
0.063594
-0.467208
0.0643909
-0.406668
0.064407
-0.346931
0.0635047
-0.288841
0.0615439
-0.233078
0.0585599
-0.180081
0.054903
-0.130241
0.051132
-0.0838137
0.0473643
-0.0401304
0.0427721
-0.000256766
0.0396755
0.0338155
0.0399183
0.0638372
0.0361832
0.0906046
0.0310603
0.114021
0.0266273
0.134283
0.0228908
0.151768
0.019762
0.166928
0.017185
0.180203
0.0151048
0.192002
0.0134621
0.202693
0.012201
0.212592
0.0112651
0.221943
0.0105961
0.230939
0.0101367
0.239721
0.00983769
0.248404
0.00966133
0.257063
0.00957423
0.265742
0.00954835
0.274463
0.00955985
0.283226
0.009592
0.292029
0.00963972
0.300857
0.00971178
0.309693
0.0098425
0.318502
0.0101186
0.0107407
0.327178
-1.32907
-1.28265
-1.23744
-1.19301
-1.14884
-1.10439
-1.0591
-1.0125
-0.964145
-0.913671
-0.860843
-0.805513
-0.747683
-0.687528
-0.625392
-0.561799
-0.497409
-0.432998
-0.369495
-0.307954
-0.249392
-0.194485
-0.143353
-0.0959964
-0.053233
-0.0135563
0.0263542
0.0625339
0.0935976
0.120223
0.14311
0.162875
0.180065
0.195166
0.208624
0.220827
0.232101
0.242702
0.252839
0.262675
0.272337
0.281915
0.291465
0.301025
0.310617
0.320256
0.32997
0.339813
0.349932
0.360673
0.00814587
-0.000187787
0.00820822
-0.000137604
0.00817909
-0.000107707
0.00818568
-2.96369e-05
0.0082056
1.61546e-05
0.00821418
2.48585e-05
0.00820754
1.95132e-05
0.00819397
1.59755e-05
0.0081806
1.69339e-05
0.00816906
1.93918e-05
0.00815788
2.10344e-05
0.00814545
2.15884e-05
0.00813103
2.16271e-05
0.00811451
2.15139e-05
0.00809609
2.12388e-05
0.00807613
2.06968e-05
0.00805513
1.98871e-05
0.00803364
1.89173e-05
0.00801197
1.80314e-05
0.00799063
1.69173e-05
0.00796946
1.61927e-05
0.00794905
1.51449e-05
0.00792932
1.45297e-05
0.00791027
1.40976e-05
0.00789187
1.37944e-05
0.00787388
1.36262e-05
0.00785604
1.34994e-05
0.00783818
1.32924e-05
0.00782041
1.28325e-05
0.00780297
1.21606e-05
0.00778632
1.12261e-05
0.00777092
1.01428e-05
0.00775715
8.96551e-06
0.00774529
7.70241e-06
0.00773551
6.34564e-06
0.00772787
4.93205e-06
0.00772233
3.53184e-06
0.00771871
2.20762e-06
0.00771671
9.65361e-07
0.00771587
-2.49545e-07
0.0077158
-1.52536e-06
0.00771631
-3.03616e-06
0.00771754
-5.02072e-06
0.00772013
-7.70473e-06
0.00772519
-1.1371e-05
0.00773431
-1.63627e-05
0.00774976
-2.3163e-05
0.00777457
-3.25428e-05
0.00781306
-4.59336e-05
-6.74473e-05
0.00787387
0.00785617
-2.81646e-05
0.00790826
1.91943e-05
0.00785791
-7.00679e-06
0.00781302
-9.91323e-06
0.00779938
9.08221e-06
0.00780524
2.43241e-05
0.00781568
2.87843e-05
0.00782469
2.74202e-05
0.00783288
2.55091e-05
0.00784184
2.47062e-05
0.00785159
2.44144e-05
0.00786097
2.38162e-05
0.00786878
2.26359e-05
0.00787443
2.09793e-05
0.00787794
1.90269e-05
0.00787972
1.68992e-05
0.00788045
1.46211e-05
0.00788092
1.20415e-05
0.0078821
9.08657e-06
0.0078828
7.53062e-06
0.00788319
6.70709e-06
0.00788348
5.89099e-06
0.00788413
5.39271e-06
0.00788518
5.08333e-06
0.00788646
4.8904e-06
0.0078877
4.76449e-06
0.00788861
4.61367e-06
0.00788899
4.39313e-06
0.00788893
3.92555e-06
0.00788879
3.20944e-06
0.00788897
2.28415e-06
0.00788993
1.16856e-06
0.00789209
-1.74919e-07
0.00789573
-1.76851e-06
0.00790105
-3.59907e-06
0.00790811
-5.63475e-06
0.00791684
-7.83123e-06
0.00792702
-1.01505e-05
0.00793829
-1.26109e-05
0.00795019
-1.52941e-05
0.00796229
-1.83442e-05
0.0079744
-2.19582e-05
0.0079867
-2.6325e-05
0.00799972
-3.16221e-05
0.0080143
-3.81211e-05
0.00803142
-4.63726e-05
0.00805239
-5.71874e-05
0.00807905
-7.16217e-05
0.00811299
-9.12669e-05
-0.000118387
0.00815391
0.00784108
-1.16128e-05
0.00785526
3.12351e-05
0.00787177
2.94384e-05
0.00786613
1.63237e-05
0.00786279
1.41543e-05
0.00786935
1.98094e-05
0.0078823
2.50674e-05
0.00789664
2.70458e-05
0.00791005
2.68436e-05
0.00792233
2.59933e-05
0.0079336
2.50288e-05
0.00794351
2.37833e-05
0.00795144
2.20163e-05
0.007957
1.96996e-05
0.00796025
1.69796e-05
0.0079616
1.40373e-05
0.00796154
1.09915e-05
0.00796036
7.8788e-06
0.00795795
4.95147e-06
0.00795599
2.31602e-06
0.00795477
6.76673e-07
0.00795399
-2.78698e-07
0.00795398
-1.10279e-06
0.0079546
-1.6114e-06
0.0079555
-1.89008e-06
0.00795634
-2.07131e-06
0.00795685
-2.28345e-06
0.00795695
-2.59029e-06
0.00795666
-3.06518e-06
0.00795633
-3.88658e-06
0.00795645
-5.02545e-06
0.00795747
-6.48407e-06
0.00795978
-8.30385e-06
0.00796368
-1.05006e-05
0.00796938
-1.30575e-05
0.00797696
-1.59221e-05
0.00798635
-1.90381e-05
0.00799726
-2.2403e-05
0.00800927
-2.60578e-05
0.00802185
-3.00825e-05
0.00803452
-3.46195e-05
0.00804707
-3.98493e-05
0.00805969
-4.60302e-05
0.00807287
-5.34984e-05
0.00808735
-6.25625e-05
0.00810396
-7.36651e-05
0.0081236
-8.75955e-05
0.00814695
-0.000105374
0.00817444
-0.000128402
-0.000158054
0.00820557
0.00793438
-1.30597e-05
0.0079227
8.38231e-06
0.00793802
2.58738e-05
0.00794524
2.75025e-05
0.00794535
2.57222e-05
0.00794567
2.68312e-05
0.00794935
2.96551e-05
0.0079557
3.16985e-05
0.00796309
3.2107e-05
0.00797044
3.12385e-05
0.00797718
2.95852e-05
0.00798285
2.73427e-05
0.00798699
2.45255e-05
0.00798933
2.11757e-05
0.00798991
1.74302e-05
0.00798901
1.34698e-05
0.00798705
9.46173e-06
0.00798432
5.55742e-06
0.00798121
2.04113e-06
0.00797842
-1.23756e-06
0.00797658
-3.70522e-06
0.00797579
-5.33853e-06
0.00797577
-6.48856e-06
0.00797633
-7.23417e-06
0.00797713
-7.69996e-06
0.00797784
-8.03336e-06
0.00797822
-8.36666e-06
0.00797819
-8.80355e-06
0.00797788
-9.45638e-06
0.00797755
-1.04749e-05
0.00797765
-1.19134e-05
0.00797865
-1.37967e-05
0.00798096
-1.61501e-05
0.00798492
-1.89782e-05
0.00799075
-2.22605e-05
0.00799853
-2.59427e-05
0.00800811
-2.99706e-05
0.00801918
-3.4324e-05
0.00803127
-3.90371e-05
0.00804379
-4.4224e-05
0.00805621
-5.00551e-05
0.00806824
-5.6716e-05
0.00807991
-6.43992e-05
0.00809167
-7.34421e-05
0.00810406
-8.43648e-05
0.00811775
-9.76695e-05
0.0081337
-0.000113962
0.00815225
-0.000134119
0.00817365
-0.000159214
-0.000190039
0.00819725
0.00795676
9.58383e-06
0.00793
1.45115e-05
0.00792196
2.65739e-05
0.00792207
3.36807e-05
0.0079229
3.49782e-05
0.00792447
3.46955e-05
0.00792841
3.48436e-05
0.00793508
3.51008e-05
0.00794363
3.47023e-05
0.00795285
3.33364e-05
0.00796171
3.10608e-05
0.00796947
2.80195e-05
0.00797562
2.43347e-05
0.00797995
2.01308e-05
0.00798252
1.5561e-05
0.00798361
1.07968e-05
0.00798364
6.00897e-06
0.00798309
1.35857e-06
0.00798275
-3.03536e-06
0.007983
-6.89649e-06
0.00798377
-9.54253e-06
0.00798522
-1.1394e-05
0.0079872
-1.26403e-05
0.00798942
-1.34124e-05
0.00799158
-1.38754e-05
0.00799336
-1.41878e-05
0.00799455
-1.44983e-05
0.00799509
-1.49544e-05
0.00799515
-1.56999e-05
0.00799504
-1.68674e-05
0.00799518
-1.85404e-05
0.0079961
-2.07629e-05
0.00799824
-2.35647e-05
0.00800198
-2.69424e-05
0.00800758
-3.08487e-05
0.00801513
-3.52288e-05
0.00802446
-4.00313e-05
0.0080352
-4.52292e-05
0.0080468
-5.08738e-05
0.00805863
-5.7058e-05
0.00807016
-6.39152e-05
0.0080811
-7.16813e-05
0.00809139
-8.06329e-05
0.00810123
-9.10108e-05
0.0081111
-0.000103231
0.00812146
-0.000117944
0.00813307
-0.000135728
0.00814616
-0.000157332
0.00816104
-0.000183447
-0.000214623
0.00817752
0.00796106
2.38788e-05
0.00794896
2.77986e-05
0.00793977
3.00589e-05
0.00793864
3.49082e-05
0.00794145
3.76653e-05
0.00794581
3.83668e-05
0.0079513
3.82586e-05
0.00795805
3.78511e-05
0.00796579
3.6954e-05
0.00797381
3.52532e-05
0.00798128
3.26118e-05
0.00798751
2.90746e-05
0.0079921
2.47817e-05
0.00799492
1.99116e-05
0.00799609
1.46622e-05
0.00799591
9.23284e-06
0.00799482
3.82424e-06
0.00799326
-1.31763e-06
0.00799165
-5.94969e-06
0.0079907
-1.01534e-05
0.0079907
-1.32355e-05
0.00799157
-1.54289e-05
0.00799309
-1.69485e-05
0.00799494
-1.7936e-05
0.00799676
-1.85552e-05
0.0079982
-1.89826e-05
0.00799902
-1.9406e-05
0.00799913
-2.00046e-05
0.0079987
-2.09356e-05
0.00799805
-2.23358e-05
0.00799763
-2.43002e-05
0.00799795
-2.68861e-05
0.00799952
-3.01308e-05
0.00800274
-3.40231e-05
0.00800788
-3.85083e-05
0.00801503
-4.35211e-05
0.00802399
-4.89878e-05
0.0080343
-5.48773e-05
0.00804538
-6.12529e-05
0.00805655
-6.82476e-05
0.00806714
-7.60084e-05
0.00807686
-8.46589e-05
0.00808567
-9.44656e-05
0.00809365
-0.00010585
0.00810105
-0.000119125
0.00810835
-0.000134834
0.00811616
-0.000153482
0.00812481
-0.000175776
0.00813444
-0.000202265
-0.000233274
0.00814516
0.0079555
2.78002e-05
0.00795104
3.83261e-05
0.00794332
3.74987e-05
0.00793877
3.91775e-05
0.00793799
4.11288e-05
0.00793994
4.20589e-05
0.00794375
4.19373e-05
0.00794896
4.1045e-05
0.0079552
3.94471e-05
0.00796187
3.70331e-05
0.00796829
3.37126e-05
0.00797381
2.95106e-05
0.00797802
2.45528e-05
0.00798076
1.90177e-05
0.00798213
1.31174e-05
0.00798246
7.07096e-06
0.00798219
1.10601e-06
0.0079819
-4.53474e-06
0.00798228
-9.73811e-06
0.00798362
-1.43467e-05
0.00798574
-1.7561e-05
0.00798856
-1.98813e-05
0.00799182
-2.14957e-05
0.00799516
-2.25381e-05
0.0079982
-2.31808e-05
0.00800059
-2.36263e-05
0.00800208
-2.40896e-05
0.00800261
-2.4764e-05
0.00800235
-2.58145e-05
0.00800168
-2.73778e-05
0.00800108
-2.95627e-05
0.00800112
-3.24499e-05
0.00800234
-3.60596e-05
0.00800521
-4.03451e-05
0.00801
-4.52405e-05
0.00801682
-5.0686e-05
0.00802544
-5.66369e-05
0.0080353
-6.3072e-05
0.00804577
-7.00277e-05
0.00805614
-7.75964e-05
0.00806576
-8.59516e-05
0.00807418
-9.53054e-05
0.00808122
-0.000105792
0.00808707
-0.000117776
0.00809178
-0.000131692
0.00809584
-0.000148031
0.00809971
-0.000167233
0.00810404
-0.000189717
0.008109
-0.000216006
-0.000246477
0.00811486
0.00795327
2.75128e-05
0.00794982
4.23948e-05
0.00794522
4.26738e-05
0.00794172
4.294e-05
0.00794085
4.35665e-05
0.00794275
4.39154e-05
0.00794681
4.35433e-05
0.00795232
4.233e-05
0.00795866
4.02662e-05
0.00796522
3.73352e-05
0.00797139
3.35297e-05
0.00797664
2.88925e-05
0.00798058
2.35313e-05
0.0079831
1.76063e-05
0.00798433
1.13261e-05
0.00798463
4.92841e-06
0.0079845
-1.31878e-06
0.00798445
-7.13467e-06
0.00798486
-1.2355e-05
0.00798611
-1.70296e-05
0.00798827
-2.03966e-05
0.00799117
-2.28332e-05
0.00799449
-2.45465e-05
0.00799786
-2.56782e-05
0.00800084
-2.64088e-05
0.00800304
-2.69517e-05
0.00800421
-2.75266e-05
0.00800429
-2.83384e-05
0.00800347
-2.95598e-05
0.00800214
-3.13267e-05
0.00800081
-3.37587e-05
0.00800009
-3.6935e-05
0.00800059
-4.08533e-05
0.00800279
-4.54536e-05
0.00800697
-5.06545e-05
0.00801321
-5.64025e-05
0.00802126
-6.26929e-05
0.00803051
-6.9529e-05
0.00804027
-7.69497e-05
0.00804975
-8.5017e-05
0.00805827
-9.37567e-05
0.00806544
-0.000103411
0.00807084
-0.000114309
0.00807459
-0.000126706
0.00807669
-0.000140975
0.00807769
-0.000157518
0.00807803
-0.000176868
0.00807838
-0.000199387
0.00807914
-0.000225367
-0.000255164
0.00808067
0.00795425
2.75432e-05
0.00794878
4.32152e-05
0.00794453
4.49712e-05
0.00794147
4.53902e-05
0.00794023
4.54503e-05
0.00794118
4.52358e-05
0.00794409
4.44784e-05
0.00794842
4.29387e-05
0.00795356
4.05132e-05
0.00795893
3.71942e-05
0.00796397
3.30141e-05
0.0079682
2.80296e-05
0.00797132
2.23352e-05
0.00797325
1.60896e-05
0.00797416
9.50881e-06
0.00797447
2.85773e-06
0.00797469
-3.57428e-06
0.00797534
-9.52082e-06
0.0079769
-1.48898e-05
0.00797951
-1.96593e-05
0.00798303
-2.30474e-05
0.00798725
-2.55125e-05
0.00799181
-2.72444e-05
0.00799626
-2.83954e-05
0.00800011
-2.91592e-05
0.00800295
-2.97515e-05
0.0080045
-3.03956e-05
0.00800474
-3.13028e-05
0.00800388
-3.26524e-05
0.00800233
-3.45944e-05
0.00800065
-3.72357e-05
0.00799951
-4.06149e-05
0.00799959
-4.47165e-05
0.0080014
-4.94806e-05
0.00800518
-5.48335e-05
0.00801099
-6.07434e-05
0.00801855
-6.72232e-05
0.00802724
-7.42752e-05
0.00803633
-8.18781e-05
0.00804507
-9.01553e-05
0.00805257
-9.91818e-05
0.00805837
-0.000109023
0.00806211
-0.00012002
0.0080638
-0.000132513
0.00806343
-0.000146916
0.0080614
-0.000163512
0.00805828
-0.000182711
0.00805486
-0.000204947
0.00805163
-0.000230517