/*--------------------------------*- C++ -*----------------------------------*\
  =========                 |
  \\      /  F ield         | OpenFOAM: The Open Source CFD Toolbox
   \\    /   O peration     | Website:  https://openfoam.org
    \\  /    A nd           | Version:  8
     \\/     M anipulation  |
\*---------------------------------------------------------------------------*/
FoamFile
{
    version     2.0;
    format      ascii;
    class       volScalarField;
    location    "100";
    object      T;
}
// * * * * * * * * * * * * * * * * * * * * * * * * * * * * * * * * * * * * * //

dimensions      [0 0 0 1 0 0 0];

internalField   nonuniform List<scalar> 
8400
(
296.51
295.925
295.236
294.573
294.035
293.677
293.468
293.367
293.337
293.349
293.389
293.45
293.534
293.615
293.655
293.626
293.529
293.414
293.336
293.279
293.226
293.183
293.157
293.142
293.135
293.132
293.13
293.129
293.128
293.128
293.128
293.129
293.129
293.129
293.129
293.13
293.13
293.13
293.13
293.13
293.13
293.13
293.129
293.129
293.129
293.129
293.129
293.128
293.128
293.128
298.631
297.894
297.005
296.039
295.177
294.537
294.138
293.957
293.946
294.056
294.258
294.536
294.851
295.099
295.186
295.053
294.707
294.295
294.044
293.847
293.626
293.423
293.294
293.215
293.176
293.158
293.15
293.146
293.144
293.142
293.142
293.141
293.141
293.141
293.141
293.141
293.141
293.141
293.141
293.141
293.141
293.141
293.141
293.141
293.141
293.141
293.141
293.14
293.14
293.14
299.921
299.183
298.482
297.775
297.081
296.455
295.972
295.684
295.627
295.826
296.278
296.872
297.309
297.539
297.539
297.266
296.652
295.801
295.463
295.11
294.597
294.037
293.671
293.413
293.268
293.207
293.18
293.167
293.16
293.155
293.153
293.151
293.15
293.15
293.149
293.148
293.148
293.147
293.147
293.146
293.146
293.145
293.145
293.144
293.143
293.143
293.142
293.142
293.141
293.141
300
299.995
299.981
299.95
299.886
299.791
299.677
299.564
299.472
299.424
299.425
299.418
299.399
299.366
299.316
299.241
298.935
297.534
297.6
297.18
296.371
295.215
294.525
293.912
293.486
293.314
293.241
293.211
293.194
293.183
293.176
293.173
293.17
293.168
293.167
293.165
293.164
293.162
293.161
293.16
293.158
293.157
293.156
293.155
293.154
293.153
293.152
293.151
293.151
293.15
300
300
299.999
299.997
299.992
299.982
299.966
299.945
299.923
299.903
299.885
299.866
299.845
299.815
299.772
299.709
299.62
299.524
299.422
299.315
298.973
297.015
296.189
295.061
293.927
293.556
293.347
293.286
293.254
293.235
293.224
293.217
293.213
293.209
293.206
293.204
293.202
293.2
293.198
293.196
293.194
293.193
293.192
293.19
293.19
293.189
293.189
293.189
293.19
293.19
300.001
300.001
300.001
300.001
300.001
300
299.998
299.995
299.99
299.983
299.975
299.964
299.949
299.926
299.892
299.843
299.775
299.692
299.601
299.499
299.371
299.281
299.142
297.707
294.65
294.186
293.526
293.4
293.346
293.319
293.303
293.295
293.288
293.284
293.281
293.278
293.277
293.276
293.275
293.275
293.275
293.276
293.277
293.279
293.282
293.285
293.288
293.292
293.297
293.302
300.001
300.001
300.001
300.001
300.002
300.002
300.002
300.001
300
299.999
299.996
299.991
299.982
299.968
299.946
299.911
299.859
299.791
299.708
299.613
299.504
299.393
299.25
298.967
298.666
296.302
293.83
293.596
293.466
293.436
293.421
293.409
293.402
293.399
293.398
293.399
293.401
293.405
293.41
293.416
293.423
293.431
293.44
293.451
293.463
293.476
293.49
293.505
293.52
293.535
300.001
300.001
300.001
300.001
300.001
300.002
300.002
300.002
300.002
300.002
300
299.998
299.994
299.985
299.971
299.945
299.906
299.85
299.777
299.689
299.584
299.465
299.317
299.116
298.799
298.103
297.047
294.322
293.624
293.572
293.556
293.546
293.543
293.545
293.551
293.56
293.571
293.585
293.601
293.62
293.641
293.664
293.69
293.719
293.75
293.783
293.818
293.854
293.891
293.927
300.001
300.001
300.001
300.001
300.001
300.001
300.002
300.002
300.002
300.002
300.002
300
299.998
299.992
299.982
299.963
299.932
299.885
299.82
299.737
299.635
299.509
299.35
299.146
298.848
298.363
297.562
296.413
295.132
293.709
293.681
293.679
293.686
293.698
293.716
293.737
293.762
293.791
293.823
293.86
293.901
293.947
293.998
294.053
294.113
294.178
294.246
294.316
294.387
294.458
300.001
300.001
300.001
300.001
300.001
300.001
300.001
300.002
300.002
300.002
300.002
300.001
299.999
299.995
299.987
299.972
299.945
299.903
299.844
299.765
299.662
299.53
299.357
299.134
298.828
298.386
297.728
296.843
295.806
294.744
293.978
293.774
293.796
293.823
293.854
293.89
293.93
293.975
294.025
294.08
294.143
294.212
294.289
294.373
294.466
294.567
294.674
294.787
294.903
295.019
300
300
300.001
300.001
300.001
300.001
300.001
300.001
300.001
300.002
300.001
300.001
300
299.996
299.989
299.975
299.95
299.911
299.854
299.776
299.67
299.529
299.339
299.09
298.759
298.313
297.709
296.943
296.065
295.179
294.443
294.026
293.891
293.893
293.934
293.982
294.034
294.09
294.152
294.221
294.296
294.38
294.473
294.576
294.689
294.812
294.944
295.086
295.232
295.38
300
300
300.001
300.001
300.001
300.001
300.001
300.001
300.001
300.001
300.001
300.001
299.999
299.996
299.988
299.974
299.949
299.91
299.852
299.771
299.659
299.505
299.295
299.015
298.651
298.182
297.592
296.891
296.126
295.377
294.741
294.304
294.076
294.006
294.017
294.06
294.115
294.177
294.245
294.319
294.401
294.49
294.588
294.695
294.812
294.939
295.076
295.222
295.375
295.529
300
300
300
300.001
300.001
300.001
300.001
300.001
300.001
300.001
300.001
300
299.998
299.994
299.985
299.969
299.941
299.899
299.838
299.751
299.628
299.457
299.219
298.905
298.503
298.007
297.419
296.763
296.084
295.447
294.912
294.521
294.28
294.166
294.138
294.161
294.21
294.273
294.346
294.427
294.514
294.608
294.71
294.82
294.938
295.066
295.202
295.346
295.496
295.651
300
300
300
300
300
300
300
299.999
299.999
299.998
299.997
299.995
299.991
299.983
299.971
299.95
299.918
299.872
299.806
299.712
299.575
299.377
299.107
298.754
298.316
297.797
297.213
296.598
295.995
295.453
295.007
294.676
294.458
294.337
294.29
294.295
294.334
294.396
294.472
294.558
294.652
294.753
294.862
294.977
295.1
295.23
295.367
295.511
295.662
295.817
299.997
299.996
299.995
299.994
299.993
299.992
299.991
299.989
299.987
299.984
299.98
299.974
299.966
299.953
299.934
299.906
299.866
299.81
299.732
299.624
299.468
299.254
298.959
298.558
298.089
297.557
296.99
296.421
295.891
295.433
295.065
294.793
294.61
294.503
294.458
294.458
294.494
294.554
294.633
294.725
294.827
294.937
295.054
295.179
295.31
295.447
295.59
295.739
295.893
296.052
299.982
299.978
299.974
299.97
299.966
299.962
299.957
299.952
299.946
299.939
299.93
299.918
299.902
299.881
299.852
299.812
299.758
299.686
299.588
299.455
299.276
299.041
298.728
298.325
297.828
297.299
296.764
296.253
295.797
295.415
295.117
294.9
294.756
294.674
294.642
294.651
294.692
294.757
294.841
294.94
295.051
295.17
295.298
295.433
295.574
295.721
295.873
296.029
296.189
296.351
299.93
299.92
299.91
299.9
299.89
299.88
299.869
299.857
299.844
299.829
299.811
299.789
299.761
299.726
299.681
299.623
299.549
299.452
299.328
299.169
298.967
298.716
298.401
298.018
297.554
297.034
296.551
296.11
295.73
295.423
295.19
295.026
294.923
294.872
294.864
294.89
294.944
295.021
295.115
295.224
295.344
295.473
295.61
295.754
295.903
296.057
296.214
296.374
296.536
296.697
299.794
299.774
299.754
299.734
299.714
299.693
299.671
299.647
299.621
299.592
299.559
299.521
299.475
299.42
299.353
299.272
299.173
299.053
298.907
298.731
298.523
298.276
297.984
297.647
297.26
296.785
296.37
296.009
295.712
295.48
295.313
295.204
295.148
295.135
295.158
295.21
295.285
295.379
295.488
295.608
295.737
295.874
296.016
296.163
296.314
296.467
296.621
296.776
296.928
297.078
299.493
299.459
299.426
299.391
299.355
299.318
299.279
299.237
299.191
299.142
299.087
299.026
298.957
298.879
298.791
298.69
298.576
298.446
298.298
298.132
297.945
297.734
297.497
297.236
296.951
296.572
296.24
295.974
295.767
295.617
295.522
295.476
295.474
295.507
295.57
295.656
295.759
295.874
295.999
296.131
296.266
296.405
296.544
296.685
296.825
296.964
297.102
297.236
297.366
297.49
298.927
298.879
298.83
298.778
298.723
298.665
298.603
298.538
298.469
298.396
298.318
298.236
298.15
298.059
297.964
297.864
297.759
297.649
297.533
297.409
297.276
297.129
296.97
296.801
296.634
296.412
296.187
296.042
295.946
295.894
295.883
295.908
295.965
296.047
296.149
296.265
296.39
296.521
296.654
296.787
296.918
297.046
297.171
297.291
297.406
297.516
297.622
297.722
297.816
297.904
303.148
303.144
303.141
303.138
303.135
303.132
303.129
303.126
303.122
303.119
303.116
303.113
303.11
303.107
303.105
303.102
303.099
303.096
303.093
303.09
303.087
303.085
303.082
303.08
303.077
303.075
303.073
303.07
303.068
303.066
303.064
303.062
303.06
303.058
303.056
303.054
303.052
303.05
303.048
303.046
303.045
303.043
303.041
303.039
303.037
303.036
303.034
303.032
303.031
303.03
303.15
303.15
303.15
303.15
303.15
303.15
303.149
303.149
303.149
303.149
303.148
303.148
303.148
303.147
303.147
303.147
303.146
303.146
303.146
303.145
303.145
303.144
303.143
303.143
303.142
303.141
303.14
303.14
303.139
303.138
303.137
303.136
303.135
303.134
303.134
303.133
303.132
303.131
303.13
303.129
303.129
303.128
303.127
303.126
303.125
303.124
303.124
303.123
303.122
303.121
303.15
303.15
303.15
303.15
303.15
303.15
303.15
303.15
303.15
303.15
303.15
303.15
303.15
303.15
303.15
303.15
303.15
303.15
303.15
303.15
303.15
303.15
303.149
303.149
303.149
303.149
303.149
303.149
303.149
303.148
303.148
303.148
303.148
303.148
303.147
303.147
303.147
303.147
303.146
303.146
303.146
303.145
303.145
303.145
303.145
303.144
303.144
303.143
303.143
303.142
303.15
303.15
303.15
303.15
303.15
303.15
303.15
303.15
303.15
303.15
303.15
303.15
303.15
303.15
303.15
303.15
303.15
303.15
303.15
303.15
303.15
303.15
303.15
303.15
303.15
303.15
303.15
303.15
303.15
303.15
303.15
303.15
303.15
303.15
303.15
303.15
303.15
303.15
303.149
303.149
303.149
303.149
303.149
303.149
303.149
303.149
303.149
303.148
303.148
303.148
303.15
303.15
303.15
303.15
303.15
303.15
303.15
303.15
303.15
303.15
303.15
303.15
303.15
303.15
303.15
303.15
303.15
303.15
303.15
303.15
303.15
303.15
303.15
303.15
303.15
303.15
303.15
303.15
303.15
303.15
303.15
303.15
303.15
303.15
303.15
303.15
303.15
303.15
303.15
303.15
303.15
303.15
303.15
303.15
303.15
303.15
303.15
303.149
303.149
303.148
303.15
303.15
303.15
303.15
303.15
303.15
303.15
303.15
303.15
303.15
303.15
303.15
303.15
303.15
303.15
303.15
303.15
303.15
303.15
303.15
303.15
303.15
303.15
303.15
303.15
303.15
303.15
303.15
303.15
303.15
303.15
303.15
303.15
303.15
303.15
303.15
303.15
303.15
303.15
303.15
303.15
303.15
303.15
303.15
303.15
303.15
303.15
303.149
303.149
303.149
303.15
303.15
303.15
303.15
303.15
303.15
303.15
303.15
303.15
303.15
303.15
303.15
303.15
303.15
303.15
303.15
303.15
303.15
303.15
303.15
303.15
303.15
303.15
303.15
303.15
303.15
303.15
303.15
303.15
303.15
303.15
303.15
303.15
303.15
303.15
303.15
303.15
303.15
303.15
303.15
303.15
303.15
303.15
303.15
303.15
303.15
303.15
303.149
303.149
303.148
303.15
303.15
303.15
303.15
303.15
303.15
303.15
303.15
303.15
303.15
303.15
303.15
303.15
303.15
303.15
303.15
303.15
303.15
303.15
303.15
303.15
303.15
303.15
303.15
303.15
303.15
303.15
303.15
303.15
303.15
303.15
303.15
303.15
303.15
303.15
303.15
303.15
303.15
303.15
303.15
303.15
303.15
303.15
303.15
303.15
303.15
303.15
303.149
303.149
303.148
303.15
303.15
303.15
303.15
303.15
303.15
303.15
303.15
303.15
303.15
303.15
303.15
303.15
303.15
303.15
303.15
303.15
303.15
303.15
303.15
303.15
303.15
303.15
303.15
303.15
303.15
303.15
303.15
303.15
303.15
303.15
303.15
303.15
303.15
303.15
303.15
303.15
303.15
303.15
303.15
303.15
303.15
303.15
303.15
303.15
303.15
303.15
303.149
303.149
303.148
303.15
303.15
303.15
303.15
303.15
303.15
303.15
303.15
303.15
303.15
303.15
303.15
303.15
303.15
303.15
303.15
303.15
303.15
303.15
303.15
303.15
303.15
303.15
303.15
303.15
303.15
303.15
303.15
303.15
303.15
303.15
303.15
303.15
303.15
303.15
303.15
303.15
303.15
303.15
303.15
303.15
303.15
303.15
303.15
303.15
303.15
303.15
303.149
303.149
303.148
303.15
303.15
303.15
303.15
303.15
303.15
303.15
303.15
303.15
303.15
303.15
303.15
303.15
303.15
303.15
303.15
303.15
303.15
303.15
303.15
303.15
303.15
303.15
303.15
303.15
303.15
303.15
303.15
303.15
303.15
303.15
303.15
303.15
303.15
303.15
303.15
303.15
303.15
303.15
303.15
303.15
303.15
303.15
303.15
303.15
303.15
303.15
303.149
303.149
303.148
303.15
303.15
303.15
303.15
303.15
303.15
303.15
303.15
303.15
303.15
303.15
303.15
303.15
303.15
303.15
303.15
303.15
303.15
303.15
303.15
303.15
303.15
303.15
303.15
303.15
303.15
303.15
303.15
303.15
303.15
303.15
303.15
303.15
303.15
303.15
303.15
303.15
303.15
303.15
303.15
303.15
303.15
303.15
303.15
303.15
303.15
303.15
303.149
303.149
303.148
303.15
303.15
303.15
303.15
303.15
303.15
303.15
303.15
303.15
303.15
303.15
303.15
303.15
303.15
303.15
303.15
303.15
303.15
303.15
303.15
303.15
303.15
303.15
303.15
303.15
303.15
303.15
303.15
303.15
303.15
303.15
303.15
303.15
303.15
303.15
303.15
303.15
303.15
303.15
303.15
303.15
303.15
303.15
303.15
303.15
303.15
303.15
303.149
303.149
303.148
303.15
303.15
303.15
303.15
303.15
303.15
303.15
303.15
303.15
303.15
303.15
303.15
303.15
303.15
303.15
303.15
303.15
303.15
303.15
303.15
303.15
303.15
303.15
303.15
303.15
303.15
303.15
303.15
303.15
303.15
303.15
303.15
303.15
303.15
303.15
303.15
303.15
303.15
303.15
303.15
303.15
303.15
303.15
303.15
303.15
303.15
303.15
303.149
303.149
303.148
303.15
303.15
303.15
303.15
303.15
303.15
303.15
303.15
303.15
303.15
303.15
303.15
303.15
303.15
303.15
303.15
303.15
303.15
303.15
303.15
303.15
303.15
303.15
303.15
303.15
303.15
303.15
303.15
303.15
303.15
303.15
303.15
303.15
303.15
303.15
303.15
303.15
303.15
303.15
303.15
303.15
303.15
303.15
303.15
303.15
303.15
303.15
303.149
303.149
303.148
303.15
303.15
303.15
303.15
303.15
303.15
303.15
303.15
303.15
303.15
303.15
303.15
303.15
303.15
303.15
303.15
303.15
303.15
303.15
303.15
303.15
303.15
303.15
303.15
303.15
303.15
303.15
303.15
303.15
303.15
303.15
303.15
303.15
303.15
303.15
303.15
303.15
303.15
303.15
303.15
303.15
303.15
303.15
303.15
303.15
303.15
303.149
303.149
303.149
303.148
303.15
303.15
303.15
303.15
303.15
303.15
303.15
303.15
303.15
303.15
303.15
303.15
303.15
303.15
303.15
303.15
303.15
303.15
303.15
303.15
303.15
303.15
303.15
303.15
303.15
303.15
303.15
303.15
303.15
303.15
303.15
303.15
303.15
303.15
303.15
303.15
303.15
303.149
303.149
303.149
303.149
303.149
303.149
303.149
303.149
303.149
303.148
303.148
303.148
303.147
303.15
303.15
303.15
303.15
303.15
303.15
303.15
303.15
303.15
303.15
303.15
303.15
303.15
303.15
303.15
303.15
303.15
303.15
303.15
303.15
303.15
303.15
303.149
303.149
303.149
303.149
303.149
303.149
303.148
303.148
303.148
303.148
303.148
303.147
303.147
303.147
303.147
303.146
303.146
303.146
303.145
303.145
303.145
303.144
303.144
303.143
303.143
303.142
303.141
303.14
303.15
303.15
303.15
303.15
303.15
303.15
303.149
303.149
303.149
303.149
303.148
303.148
303.148
303.148
303.147
303.147
303.146
303.146
303.146
303.145
303.145
303.144
303.143
303.143
303.142
303.141
303.14
303.139
303.138
303.137
303.137
303.136
303.135
303.134
303.133
303.132
303.131
303.13
303.129
303.128
303.127
303.126
303.125
303.124
303.123
303.122
303.121
303.12
303.118
303.117
303.148
303.144
303.141
303.138
303.135
303.132
303.129
303.126
303.122
303.119
303.116
303.113
303.11
303.107
303.105
303.102
303.099
303.096
303.093
303.09
303.087
303.085
303.082
303.08
303.077
303.075
303.073
303.071
303.068
303.066
303.064
303.062
303.06
303.058
303.056
303.054
303.052
303.05
303.048
303.046
303.044
303.042
303.04
303.038
303.037
303.035
303.033
303.031
303.029
303.027
293.092
293.117
293.12
293.12
293.118
293.115
293.115
293.119
293.127
293.135
293.138
293.138
293.14
293.142
293.144
293.145
293.144
293.14
293.128
293.067
293.092
293.117
293.12
293.12
293.117
293.114
293.114
293.119
293.127
293.135
293.138
293.139
293.141
293.143
293.144
293.145
293.144
293.139
293.127
293.064
293.092
293.117
293.12
293.12
293.116
293.113
293.113
293.118
293.127
293.136
293.139
293.14
293.141
293.143
293.145
293.145
293.144
293.139
293.126
293.061
293.091
293.117
293.12
293.119
293.116
293.112
293.112
293.118
293.128
293.137
293.141
293.141
293.142
293.143
293.145
293.145
293.144
293.138
293.125
293.058
293.091
293.117
293.12
293.119
293.115
293.111
293.111
293.117
293.128
293.137
293.142
293.141
293.142
293.144
293.145
293.145
293.143
293.138
293.124
293.055
293.09
293.117
293.121
293.119
293.114
293.11
293.11
293.117
293.128
293.138
293.143
293.142
293.143
293.144
293.145
293.145
293.143
293.138
293.123
293.053
293.09
293.117
293.121
293.119
293.114
293.109
293.11
293.117
293.128
293.138
293.144
293.143
293.143
293.145
293.146
293.145
293.143
293.137
293.122
293.05
293.089
293.117
293.121
293.119
293.113
293.108
293.109
293.116
293.128
293.138
293.145
293.143
293.144
293.145
293.146
293.145
293.143
293.137
293.122
293.047
293.089
293.118
293.121
293.118
293.112
293.107
293.108
293.116
293.128
293.138
293.145
293.144
293.144
293.145
293.146
293.145
293.143
293.136
293.121
293.045
293.089
293.118
293.121
293.118
293.112
293.106
293.107
293.115
293.128
293.139
293.146
293.144
293.145
293.146
293.146
293.145
293.142
293.136
293.12
293.042
293.088
293.118
293.121
293.118
293.111
293.105
293.106
293.115
293.127
293.139
293.146
293.145
293.145
293.146
293.146
293.145
293.142
293.135
293.119
293.039
293.088
293.118
293.121
293.118
293.11
293.104
293.105
293.114
293.127
293.139
293.146
293.145
293.146
293.146
293.147
293.145
293.142
293.135
293.118
293.037
293.088
293.118
293.121
293.117
293.11
293.103
293.105
293.114
293.127
293.139
293.146
293.145
293.146
293.147
293.147
293.145
293.141
293.135
293.117
293.034
293.088
293.118
293.121
293.117
293.109
293.102
293.104
293.113
293.127
293.138
293.146
293.146
293.146
293.147
293.147
293.145
293.141
293.134
293.116
293.032
293.088
293.118
293.121
293.117
293.108
293.101
293.103
293.113
293.127
293.138
293.146
293.146
293.147
293.147
293.147
293.145
293.141
293.134
293.115
293.029
293.088
293.119
293.121
293.116
293.107
293.101
293.102
293.112
293.126
293.138
293.146
293.147
293.147
293.147
293.147
293.145
293.141
293.133
293.114
293.027
293.088
293.119
293.121
293.116
293.107
293.1
293.101
293.112
293.126
293.138
293.146
293.147
293.147
293.147
293.147
293.144
293.14
293.133
293.114
293.025
293.088
293.119
293.121
293.115
293.106
293.099
293.1
293.111
293.126
293.138
293.146
293.147
293.147
293.147
293.147
293.144
293.14
293.132
293.113
293.023
293.088
293.119
293.121
293.115
293.105
293.098
293.099
293.111
293.125
293.137
293.146
293.147
293.147
293.147
293.147
293.144
293.139
293.132
293.112
293.021
293.089
293.12
293.121
293.115
293.104
293.097
293.099
293.11
293.125
293.137
293.145
293.147
293.147
293.147
293.146
293.144
293.139
293.131
293.111
293.019
293.089
293.12
293.121
293.114
293.103
293.096
293.098
293.109
293.124
293.137
293.145
293.147
293.147
293.147
293.146
293.143
293.139
293.131
293.11
293.017
293.09
293.12
293.121
293.114
293.103
293.095
293.097
293.109
293.124
293.136
293.145
293.147
293.147
293.147
293.146
293.143
293.138
293.13
293.109
293.016
293.09
293.121
293.121
293.113
293.102
293.094
293.096
293.108
293.123
293.136
293.145
293.147
293.147
293.147
293.146
293.143
293.138
293.13
293.108
293.014
293.091
293.121
293.121
293.113
293.101
293.093
293.095
293.108
293.123
293.135
293.144
293.147
293.147
293.147
293.145
293.142
293.137
293.129
293.107
293.013
293.091
293.121
293.121
293.113
293.1
293.092
293.094
293.107
293.122
293.135
293.144
293.147
293.147
293.147
293.145
293.142
293.137
293.128
293.106
293.012
293.092
293.122
293.121
293.112
293.1
293.091
293.094
293.106
293.122
293.134
293.143
293.147
293.147
293.146
293.145
293.142
293.136
293.128
293.105
293.01
293.093
293.122
293.121
293.112
293.099
293.09
293.093
293.106
293.121
293.134
293.143
293.146
293.146
293.146
293.144
293.141
293.136
293.127
293.104
293.009
293.093
293.122
293.121
293.111
293.098
293.09
293.092
293.105
293.121
293.133
293.142
293.146
293.146
293.145
293.144
293.141
293.135
293.126
293.102
293.008
293.094
293.122
293.121
293.111
293.098
293.089
293.091
293.104
293.12
293.133
293.141
293.145
293.146
293.145
293.143
293.14
293.135
293.125
293.101
293.007
293.094
293.122
293.12
293.111
293.097
293.088
293.09
293.104
293.12
293.132
293.141
293.145
293.145
293.144
293.143
293.14
293.134
293.124
293.1
293.007
293.094
293.123
293.12
293.11
293.097
293.087
293.09
293.103
293.119
293.132
293.14
293.144
293.144
293.144
293.142
293.139
293.133
293.123
293.098
293.006
293.095
293.123
293.12
293.11
293.096
293.087
293.089
293.102
293.118
293.131
293.139
293.143
293.144
293.143
293.142
293.138
293.133
293.122
293.096
293.005
293.095
293.123
293.12
293.109
293.095
293.086
293.088
293.101
293.118
293.13
293.139
293.143
293.143
293.143
293.141
293.137
293.132
293.121
293.095
293.005
293.096
293.123
293.12
293.109
293.095
293.085
293.087
293.101
293.117
293.13
293.138
293.142
293.142
293.142
293.14
293.137
293.131
293.12
293.093
293.004
293.096
293.123
293.12
293.109
293.094
293.084
293.087
293.1
293.116
293.129
293.137
293.141
293.141
293.141
293.139
293.136
293.13
293.118
293.091
293.004
293.096
293.123
293.12
293.108
293.094
293.084
293.086
293.099
293.116
293.128
293.136
293.14
293.14
293.14
293.138
293.135
293.128
293.116
293.089
293.003
293.096
293.123
293.119
293.108
293.093
293.083
293.085
293.098
293.115
293.127
293.135
293.139
293.14
293.139
293.137
293.134
293.127
293.115
293.087
293.003
293.096
293.123
293.119
293.107
293.093
293.082
293.084
293.097
293.114
293.127
293.134
293.138
293.139
293.138
293.136
293.132
293.126
293.113
293.085
293.002
293.096
293.123
293.119
293.107
293.092
293.082
293.083
293.097
293.113
293.126
293.133
293.137
293.137
293.137
293.135
293.131
293.124
293.111
293.083
293.002
293.096
293.122
293.118
293.106
293.092
293.081
293.083
293.096
293.112
293.125
293.132
293.136
293.136
293.136
293.134
293.13
293.123
293.109
293.081
293.002
293.096
293.122
293.118
293.106
293.091
293.08
293.082
293.095
293.111
293.124
293.131
293.135
293.135
293.135
293.133
293.128
293.121
293.107
293.079
293.001
293.096
293.122
293.118
293.105
293.091
293.08
293.081
293.094
293.11
293.123
293.13
293.134
293.134
293.133
293.131
293.127
293.12
293.105
293.077
293.001
293.096
293.122
293.117
293.105
293.09
293.079
293.08
293.093
293.109
293.122
293.129
293.132
293.133
293.132
293.13
293.126
293.118
293.103
293.075
293.001
293.096
293.122
293.117
293.104
293.089
293.078
293.079
293.091
293.108
293.121
293.128
293.131
293.132
293.131
293.129
293.124
293.117
293.102
293.073
293
293.096
293.121
293.116
293.104
293.089
293.078
293.078
293.09
293.106
293.119
293.127
293.13
293.13
293.13
293.127
293.123
293.115
293.1
293.071
292.999
293.096
293.121
293.116
293.103
293.088
293.077
293.077
293.089
293.105
293.118
293.125
293.129
293.129
293.128
293.126
293.121
293.113
293.098
293.07
292.999
293.096
293.121
293.115
293.103
293.088
293.076
293.076
293.087
293.104
293.117
293.124
293.127
293.128
293.127
293.125
293.12
293.112
293.097
293.068
292.998
293.096
293.12
293.115
293.102
293.087
293.075
293.075
293.086
293.102
293.115
293.123
293.126
293.126
293.126
293.123
293.119
293.11
293.095
293.066
292.997
293.096
293.12
293.114
293.102
293.087
293.075
293.073
293.084
293.1
293.113
293.121
293.124
293.125
293.124
293.122
293.117
293.109
293.093
293.065
292.996
293.096
293.12
293.114
293.101
293.086
293.074
293.072
293.083
293.098
293.112
293.119
293.123
293.123
293.123
293.121
293.116
293.107
293.092
293.063
292.995
293.096
293.119
293.113
293.101
293.086
293.073
293.071
293.081
293.096
293.11
293.118
293.121
293.122
293.121
293.119
293.114
293.106
293.09
293.061
292.994
293.096
293.119
293.113
293.1
293.085
293.073
293.07
293.079
293.094
293.108
293.116
293.119
293.12
293.12
293.118
293.113
293.104
293.089
293.06
292.993
293.097
293.119
293.112
293.1
293.085
293.072
293.069
293.077
293.092
293.106
293.114
293.118
293.118
293.118
293.116
293.111
293.103
293.087
293.058
292.991
293.097
293.119
293.112
293.1
293.085
293.072
293.067
293.075
293.09
293.103
293.112
293.116
293.116
293.116
293.114
293.11
293.101
293.086
293.056
292.989
293.098
293.119
293.112
293.099
293.085
293.071
293.066
293.073
293.088
293.101
293.109
293.113
293.114
293.114
293.112
293.108
293.099
293.084
293.054
292.988
293.098
293.119
293.112
293.099
293.085
293.071
293.065
293.071
293.085
293.098
293.107
293.111
293.112
293.112
293.11
293.106
293.097
293.082
293.052
292.986
293.099
293.119
293.111
293.099
293.085
293.071
293.064
293.069
293.083
293.096
293.105
293.109
293.11
293.11
293.108
293.104
293.095
293.08
293.05
292.983
293.1
293.119
293.111
293.099
293.085
293.07
293.063
293.067
293.08
293.093
293.102
293.106
293.108
293.108
293.106
293.102
293.093
293.078
293.048
292.981
293.101
293.119
293.111
293.099
293.085
293.07
293.062
293.065
293.078
293.09
293.099
293.104
293.105
293.105
293.103
293.099
293.091
293.075
293.045
292.978
293.102
293.119
293.111
293.099
293.085
293.07
293.061
293.063
293.075
293.088
293.096
293.101
293.102
293.102
293.101
293.097
293.088
293.073
293.043
292.976
293.103
293.119
293.111
293.099
293.085
293.07
293.06
293.061
293.072
293.085
293.093
293.098
293.099
293.1
293.098
293.094
293.086
293.07
293.04
292.973
293.104
293.119
293.111
293.099
293.086
293.07
293.059
293.059
293.069
293.082
293.09
293.095
293.096
293.097
293.095
293.091
293.083
293.067
293.037
292.97
293.105
293.119
293.11
293.099
293.086
293.07
293.058
293.057
293.066
293.078
293.087
293.092
293.093
293.094
293.092
293.088
293.08
293.064
293.033
292.966
293.106
293.12
293.11
293.099
293.086
293.07
293.057
293.055
293.064
293.075
293.084
293.088
293.09
293.09
293.089
293.085
293.076
293.06
293.03
292.963
293.107
293.12
293.11
293.099
293.087
293.071
293.057
293.053
293.061
293.072
293.08
293.085
293.087
293.087
293.086
293.081
293.073
293.057
293.026
292.959
293.108
293.12
293.11
293.1
293.087
293.071
293.056
293.051
293.058
293.069
293.077
293.082
293.083
293.083
293.082
293.078
293.069
293.053
293.022
292.956
293.109
293.12
293.11
293.1
293.088
293.071
293.056
293.049
293.055
293.065
293.074
293.078
293.08
293.08
293.078
293.074
293.066
293.049
293.018
292.952
293.11
293.12
293.11
293.1
293.088
293.072
293.055
293.048
293.052
293.062
293.07
293.074
293.076
293.076
293.075
293.07
293.062
293.045
293.014
292.948
293.112
293.12
293.109
293.1
293.089
293.072
293.055
293.046
293.049
293.058
293.066
293.071
293.072
293.073
293.071
293.067
293.058
293.041
293.01
292.943
293.113
293.12
293.109
293.1
293.089
293.073
293.055
293.045
293.046
293.055
293.063
293.067
293.069
293.069
293.067
293.063
293.054
293.037
293.006
292.939
293.114
293.12
293.109
293.1
293.089
293.073
293.055
293.043
293.044
293.051
293.059
293.063
293.065
293.065
293.063
293.059
293.049
293.033
293.001
292.935
293.115
293.12
293.109
293.1
293.09
293.074
293.055
293.042
293.041
293.048
293.055
293.059
293.061
293.061
293.059
293.054
293.045
293.028
292.996
292.93
293.116
293.12
293.108
293.099
293.09
293.075
293.055
293.041
293.038
293.044
293.051
293.056
293.057
293.057
293.055
293.05
293.041
293.024
292.992
292.925
293.117
293.12
293.108
293.099
293.09
293.075
293.055
293.04
293.036
293.041
293.048
293.052
293.053
293.053
293.051
293.046
293.036
293.019
292.987
292.92
293.118
293.12
293.107
293.099
293.09
293.075
293.055
293.039
293.033
293.037
293.044
293.048
293.049
293.049
293.047
293.042
293.032
293.014
292.982
292.916
293.12
293.12
293.107
293.099
293.09
293.076
293.056
293.038
293.031
293.034
293.04
293.044
293.045
293.045
293.043
293.038
293.028
293.01
292.977
292.911
293.121
293.12
293.107
293.098
293.09
293.076
293.056
293.037
293.029
293.031
293.036
293.04
293.041
293.041
293.039
293.033
293.023
293.005
292.972
292.905
293.123
293.12
293.106
293.098
293.09
293.076
293.056
293.037
293.027
293.028
293.032
293.036
293.037
293.037
293.035
293.029
293.019
293
292.967
292.9
293.124
293.12
293.106
293.097
293.09
293.077
293.056
293.036
293.025
293.025
293.028
293.032
293.033
293.033
293.03
293.025
293.014
292.995
292.961
292.895
293.127
293.121
293.106
293.097
293.09
293.076
293.056
293.036
293.024
293.022
293.025
293.028
293.029
293.029
293.026
293.02
293.009
292.99
292.956
292.889
293.129
293.122
293.106
293.097
293.089
293.076
293.056
293.036
293.022
293.019
293.021
293.024
293.025
293.024
293.022
293.016
293.004
292.985
292.95
292.883
293.132
293.123
293.106
293.096
293.089
293.076
293.056
293.035
293.021
293.016
293.018
293.02
293.021
293.02
293.017
293.011
292.999
292.979
292.944
292.877
293.135
293.125
293.107
293.096
293.088
293.076
293.056
293.035
293.02
293.014
293.014
293.016
293.017
293.016
293.013
293.006
292.994
292.973
292.937
292.871
293.139
293.127
293.107
293.096
293.087
293.075
293.056
293.035
293.019
293.012
293.011
293.012
293.012
293.011
293.008
293.001
292.988
292.967
292.93
292.864
293.144
293.13
293.109
293.096
293.087
293.074
293.056
293.035
293.019
293.01
293.008
293.009
293.009
293.007
293.003
292.996
292.982
292.96
292.922
292.856
293.15
293.134
293.111
293.096
293.086
293.074
293.056
293.035
293.018
293.009
293.006
293.005
293.005
293.003
292.998
292.99
292.976
292.952
292.913
292.848
293.157
293.139
293.114
293.097
293.086
293.073
293.055
293.035
293.018
293.007
293.003
293.002
293.001
292.998
292.993
292.984
292.969
292.943
292.902
292.837
293.166
293.145
293.118
293.099
293.086
293.072
293.055
293.035
293.018
293.006
293.001
292.999
292.997
292.994
292.988
292.978
292.961
292.933
292.889
292.821
293.176
293.153
293.123
293.101
293.086
293.072
293.055
293.035
293.018
293.006
293
292.997
292.994
292.99
292.983
292.971
292.952
292.922
292.877
292.83
293.188
293.163
293.13
293.106
293.088
293.072
293.054
293.035
293.018
293.005
292.998
292.994
292.991
292.986
292.978
292.965
292.944
292.912
292.875
292.861
293.202
293.175
293.139
293.112
293.091
293.073
293.055