/*--------------------------------*- C++ -*----------------------------------*\
  =========                 |
  \\      /  F ield         | OpenFOAM: The Open Source CFD Toolbox
   \\    /   O peration     | Website:  https://openfoam.org
    \\  /    A nd           | Version:  8
     \\/     M anipulation  |
\*---------------------------------------------------------------------------*/
FoamFile
{
    version     2.0;
    format      ascii;
    class       volVectorField;
    location    "100";
    object      U;
}
// * * * * * * * * * * * * * * * * * * * * * * * * * * * * * * * * * * * * * //

dimensions      [0 1 -1 0 0 0 0];

internalField   nonuniform List<vector> 
8400
(
(-11.4371 -0.920222 8.07903e-19)
(-10.1427 -0.739872 1.33938e-18)
(-9.4494 -0.448832 2.06092e-18)
(-9.16425 -0.23096 2.69901e-18)
(-9.17208 -0.10283 3.32493e-18)
(-9.35691 -0.0349681 3.9712e-18)
(-9.64658 -0.00734762 4.40742e-18)
(-9.96764 -0.00544715 4.6988e-18)
(-10.2634 -0.0228341 4.84775e-18)
(-10.485 -0.0600589 4.68721e-18)
(-10.5793 -0.123355 4.62409e-18)
(-10.4854 -0.220487 4.73013e-18)
(-10.1376 -0.351786 4.73505e-18)
(-9.5423 -0.496033 4.90755e-18)
(-8.7365 -0.607915 5.35317e-18)
(-7.80611 -0.639873 5.93168e-18)
(-6.88597 -0.570667 7.01888e-18)
(-6.09939 -0.452352 8.60154e-18)
(-5.44762 -0.385187 9.89668e-18)
(-4.8463 -0.364132 1.10609e-17)
(-4.26559 -0.335266 1.23726e-17)
(-3.73687 -0.287631 1.38688e-17)
(-3.28159 -0.236949 1.54364e-17)
(-2.90317 -0.191784 1.69832e-17)
(-2.5999 -0.150022 1.84086e-17)
(-2.36644 -0.115506 1.95429e-17)
(-2.19194 -0.0879887 2.05741e-17)
(-2.06565 -0.0669408 2.11965e-17)
(-1.97768 -0.05093 2.09555e-17)
(-1.92012 -0.0387557 2.03723e-17)
(-1.88653 -0.0294882 1.97658e-17)
(-1.87177 -0.0224568 1.90961e-17)
(-1.87176 -0.0171159 1.85874e-17)
(-1.88349 -0.0131963 1.81861e-17)
(-1.90474 -0.0106026 1.7561e-17)
(-1.93368 -0.00913575 1.68178e-17)
(-1.96878 -0.00866625 1.6404e-17)
(-2.00888 -0.00907372 1.61753e-17)
(-2.05298 -0.0102493 1.60116e-17)
(-2.10016 -0.0121245 1.61006e-17)
(-2.1496 -0.0146529 1.624e-17)
(-2.2005 -0.0177985 1.66559e-17)
(-2.25201 -0.0215364 1.70454e-17)
(-2.30335 -0.02587 1.73726e-17)
(-2.35376 -0.0308574 1.78837e-17)
(-2.40246 -0.0366102 1.86388e-17)
(-2.44865 -0.0432815 1.96421e-17)
(-2.49127 -0.051064 2.15854e-17)
(-2.5286 -0.0603985 2.20859e-17)
(-2.55888 -0.072494 2.15178e-17)
(-8.88407 -1.07155 -5.60443e-19)
(-8.58955 -0.625991 -1.07934e-18)
(-7.90403 -0.382612 -2.01117e-18)
(-7.88548 -0.00145291 -3.43266e-18)
(-8.06621 0.328036 -3.87073e-18)
(-8.31258 0.539477 -3.67154e-18)
(-8.58785 0.646718 -3.50296e-18)
(-8.84477 0.662966 -3.44075e-18)
(-9.04353 0.590571 -3.6804e-18)
(-9.14427 0.420838 -4.76607e-18)
(-9.09633 0.137089 -4.90754e-18)
(-8.82713 -0.26543 -4.07896e-18)
(-8.31937 -0.732231 -3.76822e-18)
(-7.73954 -1.15074 -3.43091e-18)
(-7.12356 -1.43074 -3.13992e-18)
(-6.46726 -1.49401 -3.14055e-18)
(-5.82554 -1.29611 -2.49066e-18)
(-5.27891 -0.975306 -1.61373e-18)
(-4.83648 -0.841889 -1.12745e-18)
(-4.40217 -0.85429 -7.34838e-19)
(-3.93108 -0.826492 -3.3327e-19)
(-3.48989 -0.723645 1.18568e-19)
(-3.09223 -0.602839 6.3209e-19)
(-2.75441 -0.497677 1.32953e-18)
(-2.47534 -0.389004 2.34301e-18)
(-2.25849 -0.292779 3.82238e-18)
(-2.09738 -0.211875 5.49208e-18)
(-1.98194 -0.146712 6.74349e-18)
(-1.9026 -0.0942868 7.94456e-18)
(-1.85198 -0.0522785 9.2341e-18)
(-1.82407 -0.0188253 1.07035e-17)
(-1.81395 0.007591 1.23194e-17)
(-1.81761 0.0284035 1.34653e-17)
(-1.83238 0.0452707 1.46367e-17)
(-1.85612 0.0592179 1.43429e-17)
(-1.8871 0.0708255 1.42581e-17)
(-1.92394 0.0805206 1.49044e-17)
(-1.96552 0.0886579 1.52598e-17)
(-2.01092 0.0955394 1.55593e-17)
(-2.05929 0.101361 1.55207e-17)
(-2.10987 0.106268 1.54697e-17)
(-2.16189 0.110383 1.61269e-17)
(-2.21454 0.113765 1.71235e-17)
(-2.26713 0.116406 1.9494e-17)
(-2.31901 0.118223 2.17273e-17)
(-2.36952 0.119044 2.25919e-17)
(-2.41793 0.118643 2.32499e-17)
(-2.46348 0.116751 2.29892e-17)
(-2.50546 0.112774 2.11629e-17)
(-2.54336 0.105009 1.40322e-17)
(-1.63642 -2.33396 3.45578e-19)
(-7.4455 0.401476 1.93365e-18)
(-5.79052 -4.52494e-05 3.89897e-19)
(-5.2496 0.106352 -1.48454e-18)
(-5.28953 0.245055 -2.33148e-18)
(-5.4831 0.286814 -2.42072e-18)
(-5.61599 0.231146 -2.66788e-18)
(-5.60966 0.093984 -3.0893e-18)
(-5.42113 -0.121449 -3.54356e-18)
(-5.01064 -0.42195 -4.09053e-18)
(-4.31016 -0.804115 -3.69841e-18)
(-3.45374 -1.22275 -2.64271e-18)
(-3.13721 -1.64772 -2.28912e-18)
(-3.16309 -2.01824 -2.23364e-18)
(-3.34628 -2.23218 -2.41076e-18)
(-3.55502 -2.1851 -2.62827e-18)
(-3.72709 -1.78587 -2.70219e-18)
(-3.61356 -1.22987 -2.10527e-18)
(-3.44219 -1.13323 -1.9662e-18)
(-3.35115 -1.23871 -1.76253e-18)
(-3.12369 -1.23285 -1.50009e-18)
(-2.93335 -1.09526 -1.26986e-18)
(-2.67069 -0.922014 -1.72403e-18)
(-2.44344 -0.79235 -2.68613e-18)
(-2.23339 -0.632295 -3.98472e-18)
(-2.0544 -0.479829 -4.98e-18)
(-1.92451 -0.352322 -5.48242e-18)
(-1.83264 -0.251078 -5.71597e-18)
(-1.77158 -0.171362 -5.98816e-18)
(-1.7352 -0.108926 -5.61661e-18)
(-1.71816 -0.059806 -3.88814e-18)
(-1.71596 -0.0208 -1.95338e-18)
(-1.72498 0.0107097 -2.15385e-18)
(-1.74368 0.0359107 -2.27557e-18)
(-1.77007 0.0558169 -2.31888e-18)
(-1.80273 0.0713248 -2.23249e-18)
(-1.84048 0.0831544 -1.68533e-18)
(-1.88233 0.0918639 -1.24014e-18)
(-1.92749 0.0979047 -9.50089e-19)
(-1.97527 0.101634 -8.43123e-19)
(-2.02499 0.103333 -9.08431e-19)
(-2.07593 0.10323 -8.1305e-19)
(-2.12742 0.101459 -4.1067e-19)
(-2.17886 0.098072 1.26058e-18)
(-2.22967 0.093069 3.45064e-18)
(-2.27924 0.0864104 4.33248e-18)
(-2.32687 0.0780402 6.31287e-18)
(-2.37189 0.067899 8.31658e-18)
(-2.414 0.0558605 8.72899e-18)
(-2.45364 0.0414511 8.93606e-18)
(17.1672 0.325099 -3.81777e-19)
(15.869 0.713303 -2.96069e-19)
(15.0346 0.973054 -3.35765e-19)
(14.3242 1.18403 -3.23826e-19)
(13.5317 1.33589 -1.27975e-19)
(12.656 1.40393 9.85998e-20)
(11.7686 1.37945 2.94854e-19)
(10.9394 1.2652 3.25046e-19)
(10.2158 1.06727 -2.98897e-19)
(9.62527 0.791742 -1.7698e-19)
(9.09901 0.444291 8.8467e-19)
(8.3106 0.0239399 7.71492e-19)
(7.20653 -0.443937 5.8541e-19)
(5.77446 -0.924244 2.51093e-19)
(4.04815 -1.35593 -5.4922e-19)
(2.07611 -1.67838 -1.46197e-18)
(-0.34738 -1.67705 -1.92207e-18)
(-1.2026 -0.907149 -6.57099e-19)
(-0.638187 -1.11182 -4.81779e-19)
(-1.13629 -1.28736 -7.5346e-19)
(-1.41211 -1.25747 -2.51718e-19)
(-1.95179 -1.20489 7.74195e-19)
(-1.9146 -1.05146 1.62723e-18)
(-1.90505 -0.953695 1.93351e-18)
(-1.87241 -0.796247 1.00812e-18)
(-1.75164 -0.601382 -1.39295e-18)
(-1.67851 -0.438847 -2.47348e-18)
(-1.62047 -0.302694 -2.90055e-18)
(-1.58512 -0.194699 -4.98024e-18)
(-1.56836 -0.110426 -6.27793e-18)
(-1.56605 -0.0446499 -6.30374e-18)
(-1.57465 0.00694206 -5.04401e-18)
(-1.59203 0.0479666 -3.50969e-18)
(-1.61711 0.081409 -2.55357e-18)
(-1.64824 0.108619 -1.93914e-18)
(-1.68444 0.130632 -1.01413e-18)
(-1.72481 0.1483 4.60572e-20)
(-1.76866 0.162299 1.03536e-18)
(-1.81538 0.173161 2.5118e-18)
(-1.86443 0.181335 3.80418e-18)
(-1.91526 0.187172 5.2246e-18)
(-1.96732 0.190913 6.89035e-18)
(-2.02007 0.192689 7.75044e-18)
(-2.07303 0.192508 8.62999e-18)
(-2.1257 0.19027 1.03991e-17)
(-2.17753 0.185812 1.16749e-17)
(-2.22788 0.178886 1.26626e-17)
(-2.2761 0.169146 1.29575e-17)
(-2.32195 0.156173 1.25817e-17)
(-2.36575 0.139466 1.33451e-17)
(15.5722 0.635937 -1.39735e-18)
(14.9587 1.02108 -1.3146e-18)
(14.5942 1.3923 -1.65612e-18)
(14.393 1.69343 -1.56514e-18)
(14.1954 1.8891 -1.00397e-18)
(13.9347 1.96318 -9.26693e-19)
(13.6016 1.92242 -8.27881e-19)
(13.2038 1.78021 -7.22165e-19)
(12.7457 1.54831 -8.1621e-19)
(12.2221 1.24025 -8.79328e-19)
(11.6148 0.882559 -5.43847e-19)
(10.8944 0.516771 -4.37882e-19)
(10.0557 0.198405 -4.05999e-19)
(9.12039 -0.010575 -2.14306e-19)
(8.13398 -0.0618879 -6.22453e-19)
(7.21154 0.053695 -9.0709e-19)
(6.42118 0.215972 -5.20536e-19)
(5.69086 0.246307 -7.10086e-19)
(4.71912 0.0396142 -9.90857e-19)
(3.51577 -0.220782 -1.60957e-18)
(2.28025 -0.411692 -1.99544e-18)
(-0.342232 -0.905962 -6.13435e-19)
(-0.581576 -0.861612 1.49484e-18)
(-0.903922 -0.83788 3.8101e-18)
(-1.39636 -0.847772 6.55117e-18)
(-1.32802 -0.636878 7.21743e-18)
(-1.3736 -0.489152 7.36792e-18)
(-1.35865 -0.335403 5.89967e-18)
(-1.35898 -0.213901 3.74871e-18)
(-1.36793 -0.119445 9.46426e-19)
(-1.38402 -0.0453299 -1.11643e-18)
(-1.40517 0.0140831 -1.26985e-18)
(-1.43302 0.0624905 -8.82112e-19)
(-1.46518 0.102018 4.17594e-20)
(-1.50155 0.134008 -3.69737e-19)
(-1.54147 0.159696 -7.2734e-19)
(-1.58436 0.180076 -5.28284e-19)
(-1.6298 0.195943 8.14169e-20)
(-1.67738 0.207915 8.19648e-19)
(-1.72672 0.216477 1.52015e-18)
(-1.77742 0.222016 2.23416e-18)
(-1.82906 0.224801 3.15296e-18)
(-1.88124 0.224971 3.61456e-18)
(-1.93361 0.222578 4.36383e-18)
(-1.98581 0.217601 5.53073e-18)
(-2.03737 0.209959 6.75165e-18)
(-2.08779 0.199522 7.59799e-18)
(-2.13655 0.186131 7.62668e-18)
(-2.18357 0.169588 7.26219e-18)
(-2.22918 0.149732 7.15079e-18)
(14.1069 1.37754 -1.48683e-18)
(13.5728 1.54943 -1.46825e-18)
(13.2024 1.77149 -1.82206e-18)
(13.0142 1.95281 -1.73454e-18)
(12.8897 2.06766 -1.28817e-18)
(12.7655 2.11219 -1.2983e-18)
(12.613 2.08805 -1.24517e-18)
(12.4093 1.99737 -1.15814e-18)
(12.1319 1.8449 -1.60496e-18)
(11.7618 1.64272 -1.51562e-18)
(11.2855 1.41442 -8.51694e-19)
(10.6982 1.19306 -7.87307e-19)
(10.0084 1.01527 -6.73378e-19)
(9.24175 0.91306 -5.06179e-19)
(8.44018 0.901211 -8.62144e-19)
(7.65704 0.962158 -1.06574e-18)
(6.91406 1.01685 -7.6563e-19)
(6.1713 0.968641 -9.91595e-19)
(5.37673 0.850389 -1.21017e-18)
(4.5699 0.793053 -1.4073e-18)
(3.80052 0.743259 -1.6094e-18)
(3.14243 0.640696 -2.26645e-18)
(2.43185 0.391859 -2.41403e-18)
(1.30253 -0.0208551 -1.14773e-18)
(-0.830388 -0.71293 4.69454e-18)
(-0.673875 -0.484607 5.00391e-18)
(-1.02173 -0.462963 6.99844e-18)
(-1.04352 -0.306598 6.38027e-18)
(-1.09202 -0.185663 4.00858e-18)
(-1.12964 -0.0889008 1.57429e-18)
(-1.16535 -0.0123942 -3.13667e-19)
(-1.19931 0.0500772 -2.07383e-18)
(-1.23777 0.101633 -2.46726e-18)
(-1.2775 0.144132 -2.50381e-18)
(-1.3192 0.178945 -2.962e-18)
(-1.36258 0.207296 -3.89188e-18)
(-1.40751 0.230203 -3.9744e-18)
(-1.45389 0.248453 -3.47782e-18)
(-1.50165 0.262661 -3.02047e-18)
(-1.55061 0.273308 -2.52066e-18)
(-1.60057 0.280747 -1.87327e-18)
(-1.65133 0.28517 -1.3923e-18)
(-1.70268 0.286628 -1.05931e-18)
(-1.75441 0.285132 -9.73344e-19)
(-1.80627 0.280645 4.43203e-19)
(-1.85794 0.273036 2.07576e-18)
(-1.90894 0.262152 3.17304e-18)
(-1.95877 0.247833 3.44709e-18)
(-2.00736 0.22991 3.40574e-18)
(-2.05491 0.208342 3.8245e-18)
(12.0908 1.80373 -1.13266e-18)
(11.6661 1.81969 -1.00441e-18)
(11.3297 1.91805 -1.23106e-18)
(11.1555 2.02359 -1.5261e-18)
(11.057 2.1069 -1.39557e-18)
(10.9793 2.15805 -1.29366e-18)
(10.8926 2.17044 -1.17976e-18)
(10.7712 2.13964 -1.09505e-18)
(10.5915 2.0675 -1.58455e-18)
(10.3357 1.96442 -1.61705e-18)
(9.99404 1.84863 -1.03208e-18)
(9.56479 1.7428 -1.00282e-18)
(9.05536 1.6691 -8.42056e-19)
(8.48255 1.64258 -6.2601e-19)
(7.87054 1.66366 -9.65321e-19)
(7.24519 1.71091 -1.00726e-18)
(6.61761 1.73571 -6.67817e-19)
(5.97858 1.69876 -9.12115e-19)
(5.3196 1.61665 -1.19278e-18)
(4.6568 1.52672 -1.47842e-18)
(4.0039 1.39261 -1.69337e-18)
(3.38582 1.22033 -1.93367e-18)
(2.79985 1.06374 -2.24505e-18)
(2.21745 0.907858 -2.35992e-18)
(1.81242 0.77525 -2.72361e-18)
(0.754378 0.21377 -2.50468e-19)
(-0.622171 -0.347475 6.03374e-18)
(-0.661217 -0.212577 6.07127e-18)
(-0.793678 -0.130456 5.37051e-18)
(-0.855213 -0.0438539 3.49146e-18)
(-0.905656 0.0302537 2.26681e-18)
(-0.959662 0.0918833 1.09652e-18)
(-1.00872 0.144091 1.15518e-19)
(-1.05619 0.187081 -7.46646e-19)
(-1.10277 0.222431 -2.29321e-18)
(-1.14884 0.251444 -3.94476e-18)
(-1.19483 0.275126 -4.83721e-18)
(-1.24105 0.294226 -4.8713e-18)
(-1.28775 0.309314 -5.43262e-18)
(-1.33499 0.320778 -5.64787e-18)
(-1.38285 0.328833 -6.03172e-18)
(-1.43136 0.333569 -5.64699e-18)
(-1.48045 0.334976 -5.22066e-18)
(-1.52997 0.333022 -4.87342e-18)
(-1.57983 0.327669 -3.848e-18)
(-1.62979 0.318858 -2.79164e-18)
(-1.67944 0.306512 -2.06862e-18)
(-1.72834 0.290544 -1.90424e-18)
(-1.77645 0.270896 -2.11706e-18)
(-1.82391 0.247695 -2.02088e-18)
(9.94712 2.23586 2.43069e-19)
(9.59638 2.1358 2.16188e-19)
(9.30095 2.13203 -3.17394e-19)
(9.14732 2.16776 -6.6336e-19)
(9.06469 2.20919 -4.92778e-19)
(9.00647 2.24151 -5.5803e-19)
(8.94774 2.25643 -5.87418e-19)
(8.86781 2.24989 -6.1561e-19)
(8.74868 2.22414 -1.22245e-18)
(8.57725 2.18759 -1.53671e-18)
(8.34567 2.15244 -1.15888e-18)
(8.0514 2.13156 -1.09874e-18)
(7.69718 2.13508 -9.35106e-19)
(7.29113 2.16679 -6.68153e-19)
(6.84553 2.22052 -1.00505e-18)
(6.37424 2.27832 -1.19502e-18)
(5.88641 2.31134 -7.91752e-19)
(5.38248 2.29695 -9.20808e-19)
(4.86119 2.23471 -1.08988e-18)
(4.33066 2.13378 -1.34354e-18)
(3.802 1.98759 -1.62624e-18)
(3.29151 1.81097 -1.90068e-18)
(2.79914 1.61927 -2.17878e-18)
(2.32183 1.40702 -2.37821e-18)
(1.91652 1.20054 -2.80681e-18)
(1.46183 0.968922 -3.19916e-18)
(1.08431 0.753289 -1.54019e-18)
(-0.00207694 0.114917 4.05266e-18)
(-0.444976 -0.0361751 5.43781e-18)
(-0.546801 0.0259414 4.42395e-18)
(-0.621564 0.0925576 3.50535e-18)
(-0.690005 0.149814 3.19633e-18)
(-0.749371 0.197881 2.66801e-18)
(-0.80344 0.237666 1.32492e-18)
(-0.853339 0.270702 4.31621e-19)
(-0.900281 0.298218 -2.38103e-18)
(-0.945311 0.32113 -3.87863e-18)
(-0.989225 0.340083 -5.64335e-18)
(-1.03265 0.355503 -7.03622e-18)
(-1.07602 0.367573 -7.8472e-18)
(-1.11964 0.376317 -8.76362e-18)
(-1.16375 0.381729 -8.13723e-18)
(-1.20843 0.383748 -7.87046e-18)
(-1.25366 0.382256 -8.14465e-18)
(-1.29944 0.377173 -7.58392e-18)
(-1.34566 0.368448 -6.67307e-18)
(-1.39202 0.356001 -6.30769e-18)
(-1.4382 0.339737 -6.6756e-18)
(-1.48419 0.319603 -7.3486e-18)
(-1.53012 0.29578 -7.32e-18)
(7.72593 2.61714 4.88454e-19)
(7.44097 2.40546 5.37038e-19)
(7.19955 2.30794 9.31713e-20)
(7.08176 2.27572 8.92793e-20)
(7.02275 2.27214 3.54174e-19)
(6.98539 2.28067 2.00969e-19)
(6.95123 2.29254 1.04587e-19)
(6.90507 2.30338 1.00381e-20)
(6.83425 2.31387 -7.74939e-19)
(6.72944 2.32855 -1.18062e-18)
(6.58429 2.35352 -8.72382e-19)
(6.39543 2.39424 -9.40085e-19)
(6.16275 2.45342 -8.41366e-19)
(5.88965 2.52921 -6.64603e-19)
(5.58272 2.61354 -1.21483e-18)
(5.25043 2.69176 -1.49352e-18)
(4.89969 2.74365 -9.19258e-19)
(4.53244 2.75081 -1.00387e-18)
(4.14883 2.70586 -1.07431e-18)
(3.75413 2.61053 -1.22846e-18)
(3.3557 2.46636 -1.48796e-18)
(2.96303 2.28323 -1.82078e-18)
(2.57889 2.0698 -2.19016e-18)
(2.20626 1.84022 -2.47811e-18)
(1.86554 1.60651 -2.9316e-18)
(1.53577 1.35567 -3.41986e-18)
(1.23637 1.10202 -2.54574e-18)
(0.822577 0.802211 -1.55469e-18)
(0.483686 0.536525 -6.3836e-19)
(-0.178496 0.145601 -2.337e-18)
(-0.308102 0.176064 -2.18376e-18)
(-0.397403 0.220838 1.67064e-18)
(-0.467358 0.259886 1.3903e-18)
(-0.526363 0.292488 7.34097e-19)
(-0.577211 0.320118 1.8282e-19)
(-0.622308 0.343751 -1.39338e-18)
(-0.6635 0.364134 -3.2646e-18)
(-0.702207 0.381635 -2.13307e-18)
(-0.739542 0.396374 -5.45184e-18)
(-0.776278 0.408304 -6.16234e-18)
(-0.812901 0.417265 -7.01032e-18)
(-0.849819 0.423105 -6.73979e-18)
(-0.887312 0.425654 -7.59074e-18)
(-0.925496 0.424688 -8.72118e-18)
(-0.964467 0.42003 -8.33905e-18)
(-1.00428 0.411559 -7.52488e-18)
(-1.04482 0.399172 -6.45656e-18)
(-1.08581 0.382778 -6.42029e-18)
(-1.12738 0.362353 -6.49176e-18)
(-1.16956 0.338283 -5.94947e-18)
(5.47969 2.93179 4.86117e-19)
(5.24935 2.60176 5.36468e-19)
(5.07757 2.42376 9.88971e-20)
(5.0124 2.33612 -1.87396e-20)
(4.98878 2.29675 4.10372e-19)
(4.9799 2.28769 3.79891e-19)
(4.97374 2.29831 3.78889e-19)
(4.96018 2.32267 3.79079e-19)
(4.93109 2.35916 -4.43506e-19)
(4.88019 2.40875 -6.04834e-19)
(4.80261 2.47331 -3.67545e-19)
(4.69526 2.55411 -6.28765e-19)
(4.55746 2.65041 -6.75591e-19)
(4.39109 2.75813 -5.88313e-19)
(4.20032 2.86867 -1.15667e-18)
(3.99069 2.96861 -1.40412e-18)
(3.76674 3.04047 -1.05561e-18)
(3.52969 3.06709 -1.12252e-18)
(3.27942 3.03857 -1.13892e-18)
(3.01883 2.95359 -1.22239e-18)
(2.75156 2.81456 -1.42769e-18)
(2.48267 2.63003 -1.74673e-18)
(2.21485 2.40938 -2.11184e-18)
(1.9507 2.16785 -2.44998e-18)
(1.6989 1.91704 -2.94184e-18)
(1.4585 1.6595 -3.44119e-18)
(1.23203 1.39635 -3.21057e-18)
(0.972278 1.11047 -3.04959e-18)
(0.72392 0.846065 -2.16007e-18)
(0.387588 0.560154 -2.7867e-18)
(0.10208 0.364633 -5.31703e-18)
(-0.0973416 0.312459 -1.77991e-18)
(-0.176639 0.329729 -1.78834e-19)
(-0.237907 0.348937 5.12908e-19)
(-0.286257 0.367563 -2.2408e-19)
(-0.325852 0.385086 -1.78146e-18)
(-0.359632 0.40139 -2.35339e-18)
(-0.38977 0.416267 -8.78956e-19)
(-0.417749 0.429436 -2.89051e-18)
(-0.444606 0.440608 -4.09101e-18)
(-0.471013 0.449431 -4.44256e-18)
(-0.497528 0.455556 -6.05842e-18)
(-0.524608 0.458661 -8.58295e-18)
(-0.552504 0.458404 -1.05521e-17)
(-0.581447 0.454465 -7.58471e-18)
(-0.611657 0.446621 -7.34514e-18)
(-0.643168 0.434752 -6.11814e-18)
(-0.675868 0.418765 -7.00528e-18)
(-0.709958 0.39865 -8.3659e-18)
(-0.74533 0.375164 -8.96464e-18)
(3.22481 3.20456 5.01996e-19)
(3.05562 2.72409 5.48343e-19)
(2.98257 2.48133 1.33018e-20)
(2.98304 2.35354 4.51399e-20)
(3.00056 2.28902 5.32924e-19)
(3.02266 2.26743 3.92639e-19)
(3.0442 2.27628 4.00784e-19)
(3.06033 2.30843 4.90235e-19)
(3.06676 2.36051 -1.75572e-19)
(3.05967 2.43097 -2.77779e-19)
(3.03586 2.51927 -2.89938e-19)
(2.99348 2.6247 -5.61669e-19)
(2.93266 2.74512 -6.52282e-19)
(2.85539 2.87548 -6.53529e-19)
(2.76492 3.00667 -1.32531e-18)
(2.66482 3.12488 -1.51909e-18)
(2.55766 3.21326 -1.15854e-18)
(2.44356 3.25538 -1.32345e-18)
(2.32128 3.24069 -1.34548e-18)
(2.19108 3.16634 -1.36557e-18)
(2.05329 3.03438 -1.44984e-18)
(1.90928 2.85304 -1.64315e-18)
(1.75984 2.63222 -1.92541e-18)
(1.60647 2.38612 -2.4586e-18)
(1.45249 2.12821 -2.92047e-18)
(1.30003 1.86619 -3.23796e-18)
(1.1503 1.60319 -3.35242e-18)
(0.98747 1.33535 -3.25426e-18)
(0.817992 1.07884 -2.18233e-18)
(0.611094 0.822169 -1.81133e-18)
(0.405721 0.60813 -3.48984e-18)
(0.227758 0.470335 -2.48337e-18)
(0.116092 0.416198 -6.77774e-19)
(0.0469899 0.409391 2.80644e-18)
(0.0024771 0.415906 1.45174e-18)
(-0.0269363 0.423662 -2.47587e-18)
(-0.0496512 0.433141 -3.0816e-18)
(-0.0679814 0.443278 -7.83066e-19)
(-0.0834933 0.453221 -2.49613e-18)
(-0.0974593 0.462342 -2.05438e-18)
(-0.110729 0.470055 -2.42706e-18)
(-0.123883 0.475749 -3.92279e-18)
(-0.137468 0.478945 -5.43477e-18)
(-0.15188 0.479189 -1.01111e-17)
(-0.167449 0.475998 -6.75616e-18)
(-0.184505 0.469024 -5.11182e-18)
(-0.203276 0.458096 -5.67119e-18)
(-0.223901 0.443064 -1.35223e-17)
(-0.246789 0.423821 -1.88028e-17)
(-0.271695 0.401758 -1.89461e-17)
(1.03192 3.48775 4.88927e-19)
(0.928588 2.71101 6.55581e-19)
(0.968588 2.43382 9.60014e-20)
(1.02527 2.29675 1.79562e-19)
(1.07576 2.22698 5.48838e-19)
(1.12306 2.20288 3.17246e-19)
(1.16786 2.21331 3.64351e-19)
(1.2093 2.25186 5.45284e-19)
(1.24554 2.31412 -1.4326e-20)
(1.27456 2.39728 -4.39129e-19)
(1.2951 2.49967 -4.03199e-19)
(1.30726 2.61991 -6.26163e-19)
(1.31285 2.75523 -6.49383e-19)
(1.31466 2.89986 -5.99523e-19)
(1.31513 3.04392 -1.46087e-18)
(1.31624 3.17327 -1.86545e-18)
(1.3195 3.27166 -1.45899e-18)
(1.32362 3.32358 -1.62458e-18)
(1.32533 3.31869 -1.66114e-18)
(1.32192 3.25344 -1.67357e-18)
(1.31062 3.1293 -1.68025e-18)
(1.28958 2.95459 -1.79002e-18)
(1.25713 2.73928 -1.9533e-18)
(1.21336 2.4966 -2.12854e-18)
(1.1592 2.24019 -2.33565e-18)
(1.09638 1.98042 -2.27748e-18)
(1.02613 1.72321 -2.06086e-18)
(0.944401 1.46976 -2.11811e-18)
(0.85035 1.22752 -7.87146e-19)
(0.733357 0.997245 6.61717e-20)
(0.604549 0.794985 -2.5452e-19)
(0.480084 0.635575 1.01675e-18)
(0.382788 0.531575 3.25492e-18)
(0.317514 0.478735 5.55316e-18)
(0.280178 0.458536 5.50531e-18)
(0.261132 0.453363 1.90121e-18)
(0.252009 0.455084 -8.95208e-19)
(0.248498 0.45999 7.63657e-19)
(0.248211 0.466196 -5.56326e-19)
(0.249607 0.472613 1.07186e-19)
(0.251633 0.478468 3.34219e-19)
(0.253704 0.483021 1.09857e-18)
(0.255307 0.485669 -1.47201e-18)
(0.255974 0.485873 -9.74107e-18)
(0.25537 0.48309 -1.02443e-17)
(0.253144 0.47688 -3.496e-18)
(0.24892 0.466988 -1.30679e-18)
(0.242345 0.453282 -1.24196e-17)
(0.233173 0.435604 -2.38062e-17)
(0.22054 0.414655 -2.80474e-17)
(-1.24669 3.15327 4.57138e-19)
(-1.16292 2.55142 5.34757e-19)
(-1.02604 2.32002 2.06068e-19)
(-0.935809 2.19435 2.51966e-19)
(-0.855435 2.12886 3.30253e-19)
(-0.780358 2.10751 2.10451e-19)
(-0.70686 2.1218 3.89666e-19)
(-0.634624 2.1655 5.10696e-19)
(-0.564378 2.23363 -1.27794e-19)
(-0.496437 2.32314 -8.57629e-19)
(-0.430146 2.43211 -5.93284e-19)
(-0.363309 2.55878 -7.57494e-19)
(-0.292518 2.69971 -6.94596e-19)
(-0.214337 2.84839 -6.34043e-19)
(-0.123899 2.99805 -1.7565e-18)
(-0.023402 3.12978 -1.70769e-18)
(0.0887548 3.22847 -1.66515e-18)
(0.209761 3.28111 -1.90013e-18)
(0.333173 3.27891 -1.92246e-18)
(0.453037 3.21916 -1.95496e-18)
(0.564131 3.10292 -1.93655e-18)
(0.662234 2.93823 -1.91093e-18)
(0.742812 2.73399 -1.81112e-18)
(0.804667 2.5022 -1.64461e-18)
(0.847611 2.25621 -1.55485e-18)
(0.872537 2.00662 -1.16562e-18)
(0.88106 1.76055 -1.14351e-18)
(0.873837 1.52171 -1.22939e-18)
(0.850279 1.2947 -2.08063e-19)
(0.806784 1.08342 2.079e-19)
(0.747347 0.896758 1.21943e-19)
(0.681617 0.743036 1.55357e-18)
(0.622519 0.627831 3.01408e-18)
(0.578637 0.550624 4.43594e-18)
(0.553384 0.504533 5.10813e-18)
(0.544515 0.480068 3.22078e-18)
(0.547483 0.469141 7.16421e-19)
(0.558068 0.466044 -4.98438e-19)
(0.573169 0.467148 -1.39497e-18)
(0.590691 0.470195 -1.71366e-18)
(0.609179 0.47377 4.47531e-20)
(0.627715 0.476862 2.09462e-19)
(0.645653 0.47869 -2.55908e-18)
(0.662471 0.478599 -9.21066e-18)
(0.677774 0.47603 -1.03374e-17)
(0.691169 0.470526 -5.87722e-18)
(0.70222 0.461789 -1.62969e-18)
(0.71046 0.449674 -3.41957e-18)
(0.715579 0.434204 -1.15297e-17)
(0.716443 0.415623 -1.9652e-17)
(-3.56901 2.73746 2.50744e-19)
(-3.27615 2.36796 2.74686e-19)
(-3.10041 2.17816 2.21667e-19)
(-2.96565 2.07113 -5.33796e-20)
(-2.8445 2.01669 -3.04863e-19)
(-2.72958 2.00332 -4.09701e-20)
(-2.61616 2.02326 5.1223e-20)
(-2.50256 2.07072 -4.47328e-20)
(-2.38748 2.14157 -5.41555e-19)
(-2.26914 2.23299 -1.21038e-18)
(-2.1451 2.3427 -1.06912e-18)
(-2.01182 2.46803 -1.03516e-18)
(-1.86523 2.60471 -9.75588e-19)
(-1.70159 2.74631 -1.09694e-18)
(-1.51699 2.88413 -1.87296e-18)
(-1.31402 3.00268 -1.63487e-18)
(-1.09327 3.08941 -1.43342e-18)
(-0.859473 3.13355 -2.14784e-18)
(-0.620921 3.12812 -2.09828e-18)
(-0.386039 3.07125 -2.15091e-18)
(-0.157927 2.96171 -2.14491e-18)
(0.0593976 2.80628 -2.16225e-18)
(0.246306 2.62047 -2.07351e-18)
(0.407318 2.4075 -2.01531e-18)
(0.541557 2.18043 -1.42342e-18)
(0.648902 1.94927 -3.75994e-19)
(0.731767 1.72105 -4.72888e-19)
(0.79306 1.50032 -5.87943e-19)
(0.833965 1.2909 3.91542e-19)
(0.854328 1.09706 9.68938e-19)
(0.856615 0.924911 9.35935e-19)
(0.846742 0.780243 1.52033e-18)
(0.832605 0.666251 2.10345e-18)
(0.82134 0.582279 3.18277e-18)
(0.817891 0.524505 3.78991e-18)
(0.824054 0.487581 3.11284e-18)
(0.839311 0.466033 1.6464e-18)
(0.861922 0.455065 1.56219e-19)
(0.889825 0.450884 -1.11016e-18)
(0.921185 0.45065 -1.62233e-18)
(0.954448 0.452349 -1.70533e-18)
(0.98839 0.454546 -1.52556e-18)
(1.02209 0.456174 -3.18736e-18)
(1.05485 0.456428 -7.25194e-18)
(1.0861 0.454718 -1.02516e-17)
(1.11534 0.450625 -9.28984e-18)
(1.14207 0.443913 -5.31147e-18)
(1.16574 0.434507 -1.10745e-18)
(1.18589 0.422516 -8.42095e-19)
(1.20145 0.408235 -3.4466e-18)
(-5.82372 2.33795 -7.98688e-20)
(-5.42437 2.13587 -9.5504e-20)
(-5.20344 1.99928 -1.66272e-19)
(-5.00631 1.91746 -8.48909e-19)
(-4.82652 1.87674 -1.10056e-18)
(-4.65388 1.8706 -6.06064e-19)
(-4.48312 1.89342 -6.59032e-19)
(-4.31079 1.94089 -7.85548e-19)
(-4.13395 2.00973 -1.07858e-18)
(-3.94975 2.09711 -1.6679e-18)
(-3.75488 2.20016 -1.74711e-18)
(-3.5455 2.3154 -1.49672e-18)
(-3.31766 2.43809 -1.38188e-18)
(-3.06759 2.56197 -1.58722e-18)
(-2.79189 2.67926 -2.18971e-18)
(-2.49194 2.7778 -2.61446e-18)
(-2.17024 2.847 -2.9879e-18)
(-1.83291 2.87828 -2.97978e-18)
(-1.48886 2.86603 -2.35511e-18)
(-1.14699 2.80873 -2.44232e-18)
(-0.813302 2.70747 -2.53351e-18)
(-0.498948 2.57298 -2.57379e-18)
(-0.220522 2.41358 -2.46458e-18)
(0.0425183 2.2174 -2.27413e-18)
(0.25972 2.01854 -1.46816e-18)
(0.441719 1.81394 -3.74832e-19)
(0.591991 1.61049 9.17266e-19)
(0.714995 1.41301 9.33507e-19)
(0.813612 1.22537 1.39569e-18)
(0.889684 1.05158 1.42224e-18)
(0.945799 0.896212 1.66248e-18)
(0.986199 0.763467 2.34474e-18)
(1.01625 0.655679 2.84905e-18)
(1.04137 0.572528 3.75624e-18)
(1.06604 0.511505 4.50543e-18)
(1.0932 0.469003 4.3546e-18)
(1.12435 0.441173 3.58384e-18)
(1.15988 0.424419 2.69906e-18)
(1.19945 0.415623 1.11522e-18)
(1.24233 0.412178 -7.42048e-19)
(1.28759 0.411984 -1.82002e-18)
(1.33426 0.413383 -3.17506e-18)
(1.38143 0.415082 -5.23066e-18)
(1.42828 0.416107 -8.61757e-18)
(1.4741 0.415777 -1.25967e-17)
(1.51822 0.413657 -1.41393e-17)
(1.56002 0.409537 -1.31521e-17)
(1.59881 0.403411 -6.03259e-18)
(1.63394 0.395453 -1.93324e-19)
(1.66422 0.386016 2.75863e-18)
(-7.96721 1.96098 -6.23529e-19)
(-7.51234 1.85189 -6.89656e-19)
(-7.23416 1.76234 -8.41966e-19)
(-6.96968 1.70446 -1.59371e-18)
(-6.72259 1.67601 -1.6257e-18)
(-6.48259 1.67462 -1.23516e-18)
(-6.24395 1.69725 -1.36236e-18)
(-6.00204 1.74105 -1.57185e-18)
(-5.75293 1.80331 -1.84199e-18)
(-5.4931 1.88138 -2.06244e-18)
(-5.21892 1.97236 -2.07445e-18)
(-4.9267 2.07262 -1.9847e-18)
(-4.61292 2.17746 -1.73555e-18)
(-4.2745 2.28089 -1.69222e-18)
(-3.90935 2.37552 -2.40658e-18)
(-3.51862 2.45209 -4.21193e-18)
(-3.10604 2.50221 -3.92086e-18)
(-2.67822 2.51941 -3.08184e-18)
(-2.24365 2.49972 -2.6812e-18)
(-1.81076 2.44271 -2.81759e-18)
(-1.3868 2.35195 -2.92242e-18)
(-0.983632 2.23788 -2.96248e-18)
(-0.619234 2.10674 -2.83493e-18)
(-0.29031 1.95284 -3.20686e-18)
(0.0144787 1.7799 -3.12195e-18)
(0.262871 1.60806 1.43398e-19)
(0.471979 1.43564 7.29179e-19)
(0.649046 1.26637 1.21015e-18)
(0.798368 1.10472 1.6448e-18)
(0.922867 0.954794 1.28368e-18)
(1.02537 0.820263 1.6576e-18)
(1.10945 0.704114 2.79947e-18)
(1.17928 0.607987 3.45664e-18)
(1.23916 0.531735 4.52586e-18)
(1.29298 0.473664 5.64471e-18)
(1.34381 0.431223 6.08511e-18)
(1.39388 0.401578 6.22437e-18)
(1.44466 0.381996 6.22635e-18)
(1.49697 0.370069 5.1874e-18)
(1.55115 0.363736 3.22646e-18)
(1.60712 0.361235 1.61809e-18)
(1.66452 0.36108 -1.02578e-18)
(1.72284 0.362033 -3.92598e-18)
(1.78146 0.363125 -7.19754e-18)
(1.83972 0.363654 -1.15885e-17)
(1.89694 0.363162 -1.5189e-17)
(1.95239 0.361431 -5.52386e-18)
(2.00529 0.358489 2.21848e-18)
(2.05483 0.354589 8.74824e-18)
(2.09962 0.350158 1.35583e-17)
(-9.91946 1.56502 -1.31593e-18)
(-9.41885 1.5027 -1.41002e-18)
(-9.08372 1.44646 -1.51438e-18)
(-8.75551 1.40867 -2.46775e-18)
(-8.44203 1.39136 -2.5184e-18)
(-8.13435 1.39428 -1.99898e-18)
(-7.82671 1.41587 -2.06792e-18)
(-7.51397 1.45406 -2.12712e-18)
(-7.19163 1.50667 -2.28085e-18)
(-6.85564 1.57148 -2.976e-18)
(-6.50231 1.64607 -3.24606e-18)
(-6.12831 1.72737 -2.94089e-18)
(-5.73082 1.81132 -2.83127e-18)
(-5.30772 1.89279 -3.02711e-18)
(-4.85829 1.96553 -3.41928e-18)
(-4.3843 2.02244 -4.31013e-18)
(-3.89032 2.05706 -4.37199e-18)
(-3.38319 2.06444 -3.78818e-18)
(-2.87087 2.04161 -3.23196e-18)
(-2.36131 1.98861 -2.95717e-18)
(-1.86198 1.91011 -2.89143e-18)
(-1.38384 1.81621 -3.33852e-18)
(-0.946724 1.71531 -3.79725e-18)
(-0.557962 1.60628 -4.94967e-18)
(-0.201546 1.48091 -4.82236e-18)
(0.121653 1.33968 -1.89315e-19)
(0.378469 1.20367 1.29989e-19)
(0.601151 1.066 8.21651e-19)
(0.794158 0.933011 1.63438e-18)
(0.96058 0.809437 1.8249e-18)
(1.10304 0.698478 1.88226e-18)
(1.22464 0.602246 2.98137e-18)
(1.32894 0.521746 3.54454e-18)
(1.41966 0.456802 3.77911e-18)
(1.50033 0.406232 5.4905e-18)
(1.57404 0.368222 6.53173e-18)
(1.64329 0.340675 7.23174e-18)
(1.71011 0.321509 8.12077e-18)
(1.77598 0.308875 8.38982e-18)
(1.84192 0.301198 7.76598e-18)
(1.90852 0.297131 6.90557e-18)
(1.97597 0.295529 4.76139e-18)
(2.04422 0.295418 2.2403e-18)
(2.11303 0.296016 -1.32121e-18)
(2.182 0.296735 -8.67674e-18)
(2.2506 0.297183 -1.37934e-17)
(2.31817 0.2972 -1.52748e-17)
(2.38396 0.296898 -5.1544e-18)
(2.44713 0.296675 2.50779e-18)
(2.50613 0.297177 8.09104e-18)
(-11.5879 1.16575 -2.14437e-18)
(-11.0395 1.13003 -2.20093e-18)
(-10.6542 1.09712 -2.27621e-18)
(-10.2709 1.07523 -2.89842e-18)
(-9.89918 1.06695 -3.0461e-18)
(-9.53143 1.07256 -2.59107e-18)
(-9.16213 1.09112 -2.56529e-18)
(-8.78585 1.12109 -2.59639e-18)
(-8.39763 1.16085 -2.85653e-18)
(-7.99306 1.20883 -3.59479e-18)
(-7.56848 1.26332 -3.87387e-18)
(-7.12105 1.32208 -3.50028e-18)
(-6.64886 1.38206 -3.36151e-18)
(-6.15093 1.4393 -3.39691e-18)
(-5.6277 1.48917 -3.4992e-18)
(-5.08181 1.52677 -3.44297e-18)
(-4.51845 1.54763 -3.57495e-18)
(-3.94483 1.54793 -3.62595e-18)
(-3.36868 1.52455 -3.20948e-18)
(-2.79693 1.47659 -3.09434e-18)
(-2.23551 1.4086 -3.49247e-18)
(-1.69408 1.33202 -4.05817e-18)
(-1.19487 1.25945 -4.75091e-18)
(-0.759208 1.19463 -5.64812e-18)
(-0.37341 1.12228 -5.87423e-18)
(0.0160954 1.02417 -1.16833e-18)
(0.312825 0.927702 1.76322e-19)
(0.572279 0.824998 6.29265e-19)
(0.802066 0.724107 8.26373e-19)
(1.00455 0.630591 1.14967e-18)
(1.18141 0.547049 1.22168e-18)
(1.3352 0.474709 1.77206e-18)
(1.46908 0.413971 1.79475e-18)
(1.58652 0.364565 2.36273e-18)
(1.69092 0.325615 3.90852e-18)
(1.78535 0.295804 4.9647e-18)
(1.87252 0.273616 6.29679e-18)
(1.9548 0.257549 7.67448e-18)
(2.0341 0.246265 8.79783e-18)
(2.1119 0.238647 9.04483e-18)
(2.18918 0.233762 8.83326e-18)
(2.26656 0.230857 8.53783e-18)
(2.34436 0.229321 7.31438e-18)
(2.42266 0.228654 5.82828e-18)
(2.50134 0.228479 3.35187e-18)
(2.58013 0.228569 -8.90931e-18)
(2.65862 0.228905 -3.37534e-18)
(2.73627 0.229739 -4.6331e-18)
(2.81245 0.231662 -3.40832e-18)
(2.88573 0.235668 -1.11906e-18)
(-12.8748 0.698745 -2.24731e-18)
(-12.2913 0.677289 -2.27576e-18)
(-11.8681 0.658715 -2.33477e-18)
(-11.4434 0.646553 -2.86651e-18)
(-11.0275 0.642426 -2.96208e-18)
(-10.6141 0.646496 -2.46586e-18)
(-10.1976 0.658178 -2.50501e-18)
(-9.77252 0.67655 -2.64589e-18)
(-9.33328 0.700649 -2.79164e-18)
(-8.87518 0.729671 -3.52491e-18)
(-8.39461 0.762703 -3.75583e-18)
(-7.88929 0.798394 -3.15787e-18)
(-7.35811 0.834807 -3.06285e-18)
(-6.80102 0.869413 -3.04024e-18)
(-6.2193 0.899356 -3.19037e-18)
(-5.61633 0.921757 -3.80451e-18)