/*--------------------------------*- C++ -*----------------------------------*\
  =========                 |
  \\      /  F ield         | OpenFOAM: The Open Source CFD Toolbox
   \\    /   O peration     | Website:  https://openfoam.org
    \\  /    A nd           | Version:  8
     \\/     M anipulation  |
\*---------------------------------------------------------------------------*/
FoamFile
{
    version     2.0;
    format      ascii;
    class       volScalarField;
    location    "400";
    object      p;
}
// * * * * * * * * * * * * * * * * * * * * * * * * * * * * * * * * * * * * * //

dimensions      [1 -1 -2 0 0 0 0];

internalField   nonuniform List<scalar> 
8400
(
11682
11688.3
11691
11693
11694.6
11695.9
11697.2
11698.5
11700
11701.7
11703.7
11706.3
11709.5
11713.4
11718.3
11724.4
11731.8
11740.9
11752
11765.3
11781.3
11800.5
11823.4
11850.5
11882.8
11921
11965.7
12018
12079.2
12150.5
12233.7
12330.7
12443.5
12574.6
12727
12903.9
13109.3
13347.5
13623.9
13944.6
14316.8
14749
15251.9
15839.4
16528
17331.7
18265.9
19391.1
20874.1
22809
11572.9
11574.6
11575.3
11576.1
11576.8
11577.4
11577.8
11578.3
11578.8
11579.6
11580.6
11582.1
11584.1
11586.8
11590.3
11594.9
11600.7
11608
11617
11628.2
11641.9
11658.4
11678.3
11702.2
11730.6
11764.2
11804.1
11851.2
11906.6
11971.5
12047.6
12136.5
12240.2
12361
12501.7
12665.2
12855.1
13075.5
13331
13627.1
13970
14366.7
14825.9
15357.9
15974
16682.6
17491
18430
19583
21000.6
11505.9
11512.1
11515.2
11517.3
11519
11520.5
11522.1
11523.8
11525.7
11527.8
11530.3
11533.3
11537
11541.4
11546.8
11553.3
11561.2
11570.7
11582.1
11595.8
11612.1
11631.4
11654.3
11681.2
11712.8
11749.7
11792.9
11843.3
11902.2
11970.8
12050.6
12143.3
12251
12375.8
12520.5
12688.1
12882.1
13106.5
13366
13665.7
14011.7
14410.9
14871.1
15401.3
16010.6
16706.3
17494
18388.7
19421.1
20586.5
11371
11363.4
11360.4
11359.2
11358.5
11357.9
11357.2
11356.6
11356.1
11355.6
11355.4
11355.5
11356
11357
11358.7
11361.2
11364.8
11369.5
11375.8
11383.7
11393.8
11406.2
11421.7
11440.5
11463.3
11490.7
11523.5
11562.5
11608.6
11663.1
11727.2
11802.6
11890.8
11994
12114.4
12254.8
12418.3
12608.2
12828.6
13084.2
13380
13721.8
14116.2
14570.4
15091.9
15686.5
16360
17121.4
17985.5
18948.7
11325.3
11335
11339
11340.9
11342.2
11343.4
11344.6
11345.8
11347.2
11348.8
11350.7
11353
11355.8
11359.3
11363.5
11368.6
11374.8
11382.4
11391.5
11402.3
11415.3
11430.6
11448.7
11470
11495.2
11524.8
11559.5
11600.1
11647.5
11702.7
11767
11841.6
11928.3
12028.7
12144.9
12279.3
12434.5
12613.5
12819.7
13056.9
13329.2
13641
13997.2
14402.7
14862
15378.4
15953.4
16589
17291.5
18059.6
11167
11155.4
11150.6
11148.3
11146.7
11145.3
11144
11142.6
11141.2
11139.9
11138.7
11137.8
11137.1
11136.8
11137
11137.8
11139.4
11142
11145.8
11151
11157.8
11166.6
11177.7
11191.3
11208.1
11228.6
11253.2
11282.7
11317.8
11359.6
11408.9
11467
11535.3
11615.4
11709
11818.1
11945.2
12092.9
12264.1
12462
12690.4
12952.9
13253.7
13596.8
13985.6
14422.6
14907.9
15440.7
16022.9
16655.3
11136.9
11148.8
11153.1
11154.5
11155
11155.3
11155.4
11155.5
11155.6
11155.8
11156.1
11156.6
11157.3
11158.4
11159.9
11161.9
11164.6
11168.1
11172.5
11178
11184.9
11193.3
11203.7
11216.2
11231.2
11249.2
11270.6
11296
11326
11361.2
11402.6
11451
11507.5
11573.4
11650
11739
11842
11961.3
12098.9
12257.5
12439.7
12648.3
12886.3
13156.7
13461.9
13803.7
14181.7
14594.6
15044.1
15532.6
10966.8
10953.4
10947.7
10944.9
10942.8
10941
10939.1
10937.2
10935.2
10933.3
10931.3
10929.5
10927.8
10926.4
10925.3
10924.5
10924.3
10924.6
10925.7
10927.6
10930.6
10934.8
10940.4
10947.8
10957.1
10968.7
10982.9
11000.3
11021.2
11046.2
11076
11111.3
11152.9
11201.8
11259.1
11325.9
11403.7
11494
11598.6
11719.3
11858.1
12017.2
12198.8
12404.8
12637.2
12897
13183.8
13496.5
13836.7
14207.5
10943.4
10955.7
10959.6
10960.2
10959.7
10958.8
10957.6
10956.3
10954.8
10953.2
10951.5
10949.7
10947.9
10946.1
10944.4
10942.8
10941.3
10940.1
10939.3
10938.8
10938.9
10939.6
10941.1
10943.6
10947.1
10952
10958.4
10966.7
10977.1
10989.9
11005.6
11024.7
11047.6
11075.1
11107.7
11146.3
11191.7
11245.1
11307.6
11380.3
11464.8
11562.4
11674.8
11803.4
11949.7
12114.7
12298.5
12500.9
12723.7
12970.9
10770
10755.9
10749.7
10746.4
10743.9
10741.5
10739
10736.4
10733.7
10730.9
10727.9
10724.9
10721.8
10718.7
10715.6
10712.6
10709.6
10706.8
10704.1
10701.6
10699.5
10697.7
10696.3
10695.5
10695.2
10695.7
10697
10699.1
10702.4
10706.9
10712.8
10720.3
10729.6
10741
10754.8
10771.3
10790.9
10814
10841.3
10873.2
10910.4
10953.7
11004
11062.2
11129.3
11206.4
11294.1
11393.1
11506.2
11637.8
10746.9
10758.5
10761.6
10761.4
10760
10758.1
10755.9
10753.4
10750.6
10747.5
10744.1
10740.4
10736.5
10732.2
10727.7
10722.9
10717.8
10712.4
10706.8
10700.8
10694.6
10688.1
10681.2
10674.1
10666.5
10658.7
10650.4
10641.7
10632.6
10622.9
10612.8
10601.9
10590.5
10578.2
10565.2
10551.2
10536.3
10520.4
10503.4
10485.3
10466.3
10446.3
10425.8
10405.2
10385.2
10366.8
10351.5
10341.2
10339.5
10351.7
10575.6
10561.4
10554.7
10550.8
10547.6
10544.3
10540.9
10537.2
10533.2
10529
10524.4
10519.6
10514.4
10508.9
10503
10496.8
10490.1
10483.1
10475.6
10467.6
10459.1
10450
10440.2
10429.6
10418.2
10405.8
10392.2
10377.3
10360.9
10342.6
10322.3
10299.6
10274.2
10245.4
10213
10176.3
10134.6
10087.4
10033.8
9973.16
9904.65
9827.61
9741.51
9646.1
9541.57
9428.7
9309.25
9186.16
9064.06
8950.24
10547.9
10558.3
10560.6
10559.8
10557.9
10555.4
10552.5
10549.3
10545.6
10541.6
10537
10532.1
10526.6
10520.6
10514
10506.8
10498.9
10490.3
10480.9
10470.5
10459.1
10446.5
10432.7
10417.3
10400.2
10381.1
10359.8
10335.9
10309
10278.7
10244.4
10205.5
10161.4
10111.2
10054.1
9988.96
9914.75
9830.19
9733.92
9624.51
9500.49
9360.43
9203.09
9027.58
8833.6
8621.73
8394.02
8154.61
7910.1
7669.74
10383.5
10370
10363
10358.4
10354.3
10350
10345.5
10340.5
10335.1
10329.1
10322.7
10315.6
10308
10299.7
10290.6
10280.8
10270
10258.3
10245.5
10231.5
10216.1
10199.1
10180.3
10159.5
10136.4
10110.5
10081.6
10049.1
10012.6
9971.31
9924.58
9871.56
9811.28
9742.62
9664.31
9574.9
9472.72
9355.93
9222.47
9070.08
8896.32
8698.68
8474.67
8222.08
7939.26
7625.5
7281.7
6911.74
6523.53
6131.28
10345.7
10354.1
10355.5
10354.2
10351.9
10349.1
10345.8
10342.1
10337.8
10333.1
10327.7
10321.8
10315.2
10307.9
10299.7
10290.7
10280.7
10269.5
10257.1
10243.3
10227.8
10210.5
10191
10169
10144.2
10116.1
10084.1
10047.8
10006.3
9958.85
9904.52
9842.19
9770.57
9688.19
9593.35
9484.07
9358.14
9213.01
9045.81
8853.39
8632.25
8378.68
8088.89
7759.34
7387.2
6970.66
6509.62
6007.83
5476.53
4936.21
10194.8
10183.2
10176.6
10171.8
10167.2
10162.2
10156.8
10150.8
10144.2
10136.9
10128.9
10120
10110.3
10099.6
10087.9
10074.9
10060.7
10044.9
10027.5
10008.2
9986.77
9962.88
9936.21
9906.33
9872.79
9835.03
9792.42
9744.22
9689.56
9627.45
9556.74
9476.09
9383.95
9278.55
9157.82
9019.39
8860.56
8678.21
8468.83
8228.43
7952.59
7636.39
7274.52
6861.65
6392.95
5864.03
5270.49
4610.19
3892.04
3147.08
10138.2
10144
10144.2
10142.5
10139.9
10136.7
10132.9
10128.5
10123.6
10118
10111.7
10104.6
10096.8
10088
10078.3
10067.4
10055.3
10041.7
10026.6
10009.5
9990.4
9968.83
9944.48
9916.89
9885.58
9849.96
9809.35
9762.93
9709.8
9648.85
9578.84
9498.29
9405.49
9298.45
9174.85
9032.01
8866.78
8675.52
8454.01
8197.35
7899.9
7555.12
7155.47
6692.72
6158.61
5544.76
4840.24
4033.39
3130.76
2182.96
10008.1
10001.2
9996.56
9992.52
9988.15
9983.22
9977.64
9971.36
9964.33
9956.49
9947.79
9938.15
9927.47
9915.64
9902.55
9888.04
9871.94
9854.04
9834.11
9811.86
9786.97
9759.07
9727.7
9692.35
9652.41
9607.19
9555.87
9497.5
9430.96
9354.97
9268.03
9168.37
9053.97
8922.43
8770.98
8596.37
8394.8
8161.82
7892.21
7579.87
7217.67
6797.22
6308.52
5740.11
5080.17
4317.35
3436.21
2411.51
1230.26
-43.5386
9922.01
9929.41
9929.09
9927.03
9923.94
9920.1
9915.57
9910.36
9904.43
9897.75
9890.27
9881.91
9872.58
9862.19
9850.62
9837.73
9823.34
9807.26
9789.27
9769.08
9746.38
9720.8
9691.92
9659.21
9622.09
9579.87
9531.76
9476.8
9413.93
9341.86
9259.13
9164.01
9054.5
8928.25
8782.54
8614.18
8419.42
8193.88
7932.38
7628.83
7276.06
6865.49
6386.51
5826.06
5170.08
4405.84
3513.94
2440.56
1099.83
-482.945
9822.28
9820.26
9817.54
9814.44
9810.7
9806.26
9801.12
9795.24
9788.6
9781.14
9772.81
9763.52
9753.19
9741.71
9728.94
9714.73
9698.9
9681.23
9661.48
9639.35
9614.5
9586.53
9554.98
9519.29
9478.84
9432.87
9380.53
9320.81
9252.54
9174.33
9084.61
8981.49
8862.79
8725.95
8567.97
8385.3
8173.77
7928.41
7643.26
7311.18
6923.54
6469.65
5935.65
5303.23
4550.49
3654.76
2580.48
1223.65
-624.866
-3009.59
18578.8
10416.7
6383.73
4865.29
4030.86
3422.04
2998.38
2714.08
2513.9
2362.81
2243.1
2144.9
2061.67
1988.93
1923.61
1863.6
1807.34
1753.67
1701.62
1650.43
1599.39
1547.88
1495.27
1440.93
1384.2
1324.38
1260.68
1192.23
1118.01
1036.87
947.471
848.31
737.636
613.464
473.297
314.192
132.721
-75.1219
-314.158
-590.326
-910.779
-1284.13
-1721.05
-2235.04
-2843.58
-3570.15
-4447.67
-5525.42
-6883.81
-8659.5
-7053.72
-2464.51
-962.783
-396.518
37.7718
363.381
587.765
747.862
866.714
955.545
1021.6
1070.34
1105.66
1130.27
1146.13
1154.67
1156.95
1153.73
1145.57
1132.85
1115.78
1094.46
1068.86
1038.83
1004.14
964.389
919.096
867.623
809.162
742.682
666.966
580.617
481.93
368.869
239.206
90.2348
-81.3086
-279.34
-508.449
-774.067
-1082.87
-1443.02
-1864.51
-2359.67
-2943.94
-3636.88
-4463.45
-5455.16
-6649.53
-8080.44
178.17
2348.21
3531.35
3634.01
3477.37
3305.73
3119.43
2928.23
2749.85
2590.73
2449.94
2325
2213.52
2113.29
2022.28
1938.75
1861.21
1788.4
1719.24
1652.77
1588.15
1524.59
1461.34
1397.67
1332.83
1266.05
1196.53
1123.43
1045.79
962.545
872.437
773.959
665.371
544.584
409.307
256.914
84.2943
-112.245
-337.1
-595.425
-893.285
-1237.93
-1638.04
-2103.98
-2648.15
-3285.26
-4032.32
-4907.86
-5929.11
-7104.36
429.222
838.293
1029.77
958.126
855.904
812.522
800.904
798.661
802.925
812.797
825.418
838.189
849.579
858.74
865.162
868.539
868.707
865.583
859.121
849.276
835.984
819.145
798.611
774.167
745.497
712.196
673.787
629.648
579.083
521.354
455.517
380.353
294.445
196.179
83.5364
-45.8484
-194.745
-366.409
-564.663
-793.968
-1059.53
-1367.44
-1724.8
-2139.78
-2621.59
-3180.27
-3825.99
-4567.44
-5408.49
-6342.33
870.668
1119.75
1436.39
1668.06
1807.95
1897.22
1949.54
1968.48
1962.11
1939.15
1905.41
1864.48
1818.87
1770.32
1720.05
1668.78
1616.98
1564.86
1512.52
1459.9
1406.88
1353.25
1298.76
1243.1
1185.89
1126.7
1064.93
999.876
930.758
856.696
776.681
689.596
594.134
488.762
371.654
240.695
93.442
-72.9392
-261.734
-476.733
-722.286
-1003.35
-1325.52
-1694.92
-2118.08
-2601.47
-3150.72
-3769.18
-4455.47
-5200.82
976.801
1062.42
1170.54
1232.58
1235.23
1207.12
1168.71
1126.43
1083.3
1042.04
1004.1
969.687
938.419
909.77
883.168
858.046
833.87
810.156
786.463
762.389
737.548
711.576
684.109
654.745
623.13
588.875
551.501
510.496
465.264
415.074
359.102
296.413
225.916
146.337
56.1822
-46.2779
-163.042
-296.416
-449.042
-623.934
-824.481
-1054.45
-1317.94
-1619.23
-1962.56
-2351.62
-2788.89
-3274.41
-3804.17
-4368.63
992.348
1036.74
1108.46
1180.68
1236.03
1276.93
1308.53
1331.52
1345.58
1351.42
1350.21
1342.97
1330.51
1313.56
1292.78
1268.73
1241.85
1212.53
1181.04
1147.59
1112.32
1075.3
1036.51
995.847
953.174
908.28
860.919
810.77
757.414
700.33
638.903
572.415
500.024
420.74
333.405
236.676
129.003
8.61381
-126.505
-278.617
-450.224
-644.038
-862.905
-1109.66
-1386.88
-1696.51
-2039.29
-2413.97
-2816.42
-3239.31
953.28
975.48
1013.26
1053.25
1081.41
1094.3
1094.45
1084.5
1066.45
1042.37
1014.22
983.591
951.591
919
886.332
853.9
821.857
790.239
759.001
728.045
697.23
666.374
635.263
603.684
571.369
538.023
503.335
466.957
428.492
387.49
343.445
295.783
243.853
186.909
124.097
54.442
-23.1613
-109.96
-207.346
-316.853
-440.138
-578.941
-735.004
-909.949
-1105.07
-1321.07
-1557.61
-1812.88
-2082.92
-2361.58
887.122
900.722
925.785
956.417
983.905
1004.19
1017.39
1024.55
1026.4
1023.56
1016.71
1006.48
993.349
977.724
959.921
940.207
918.799
895.874
871.577
846.023
819.289
791.433
762.491
732.47
701.342
669.046
635.497
600.576
564.128
525.955
485.813
443.412
398.408
350.4
298.917
243.421
183.297
117.858
46.3418
-32.0744
-118.257
-213.076
-317.351
-431.753
-556.679
-692.064
-837.157
-990.257
-1148.45
-1307.89
803.66
813.752
832.934
857.482
880.4
897.092
906.354
908.56
904.399
894.686
880.376
862.442
841.748
819.006
794.785
769.53
743.579
717.182
690.512
663.687
636.776
609.82
582.833
555.809
528.723
501.534
474.193
446.641
418.808
390.611
361.956
332.739
302.844
272.141
240.489
207.733
173.706
138.238
101.156
62.2981
21.5287
-21.2383
-66.006
-112.648
-160.844
-210.007
-259.182
-306.945
-351.291
-389.686
707.258
717.371
736.601
761.227
784.258
801.098
810.548
812.986
809.112
799.746
785.853
768.418
748.317
726.277
702.884
678.605
653.799
628.741
603.636
578.635
553.854
529.38
505.28
481.615
458.434
435.789
413.734
392.328
371.643
351.761
332.78
314.819
298.019
282.55
268.616
256.458
246.364
238.676
233.799
232.209
234.462
241.204
253.172
271.194
296.183
329.113
370.985
422.772
485.343
559.444
597.886
611.549
636.753
667.62
695.444
716.168
729.921
737.761
740.429
738.571
732.885
724.021
712.51
698.784
683.209
666.104
647.753
628.409
608.307
587.664
566.689
545.583
524.545
503.776
483.479
463.867
445.166
427.618
411.492
397.082
384.724
374.792
367.719
363.997
364.193
368.959
379.046
395.313
418.742
450.441
491.653
543.744
608.179
686.482
780.153
890.556
1018.75
1165.32
1330.06
1512.18
471.122
493.427
531.44
571.813
600.519
614.131
615.197
606.379
589.716
567.291
541.126
512.84
483.614
454.287
425.456
397.525
370.759
345.325
321.328
298.838
277.907
258.59
240.95
225.074
211.074
199.101
189.347
182.053
177.516
176.099
178.238
184.453
195.361
211.689
234.287
264.146
302.415
350.417
409.662
481.856
568.904
672.888
796.026
940.592
1108.78
1302.48
1523.03
1770.82
2044.85
2343.14
317.125
361.657
433.694
506.441
562.542
604.432
637.259
661.766
677.648
685.674
687.078
682.93
674.124
661.485
645.772
627.665
607.765
586.606
564.668
542.387
520.165
498.385
477.419
457.639
439.426
423.184
409.345
398.387
390.841
387.309
388.472
395.113
408.13
428.558
457.589
496.598
547.164
611.092
690.441
787.53
904.948
1045.53
1212.31
1408.4
1636.84
1900.26
2200.49
2537.92
2910.73
3314.99
108.316
194.116
302.626
365.316
368.898
342.021
305.171
264.825
224.031
185.58
150.995
120.544
93.9483
70.7904
50.6333
33.0642
17.7311
4.36284
-7.22727
-17.1452
-25.421
-32.0129
-36.8104
-39.6354
-40.2418
-38.3121
-33.4532
-25.1885
-12.9494
3.93708
26.2622
54.9525
91.089
135.93
190.938
257.805
338.485
435.225
550.596
687.519
849.279
1039.52
1262.2
1521.51
1821.63
2166.45
2558.96
3000.51
3489.58
4022.12
-191.322
57.9698
375.063
607.509
748.5
839.215
893.355
914.464
910.735
890.967
861.054
824.679
784.437
742.231
699.405
656.889
615.343
575.248
536.974
500.825
467.07
435.968
407.793
382.842
361.459
344.04
331.051
323.043
320.662
324.671
335.968
355.607
384.822
425.054
477.989
545.583
630.109
734.198
860.876
1013.62
1196.37
1413.58
1670.18
1971.53
2323.24
2730.8
3198.97
3730.66
4325.03
4976.66
-826.563
-417.263
-225.28
-296.081
-397.09
-438.85
-448.442
-448.179
-440.864
-427.342
-410.384
-392.481
-375.039
-358.757
-343.974
-330.791
-319.135
-308.809
-299.533
-290.967
-282.729
-274.395
-265.501
-255.542
-243.964
-230.155
-213.434
-193.035
-168.097
-137.639
-100.54
-55.5166
-1.09207
64.4357
143.032
236.966
348.862
481.753
639.138
825.05
1044.12
1301.66
1603.69
1956.96
2368.93
2847.49
3400.49
4034.58
4752.93
5553.98
-1271.72
898.57
2082.26
2185.86
2030.52
1860.58
1676.41
1487.98
1312.95
1157.81
1021.75
902.417
797.551
705.096
623.227
550.416
485.437
427.334
375.382
329.049
287.971
251.936
220.863
194.798
173.907
158.479
148.925
145.793
149.773
161.715
182.648
213.806
256.65
312.909
384.616
474.155
584.316
718.36
880.094
1073.96
1305.13
1579.63
1904.5
2287.89
2739.22
3269.24
3889.87
4613.38
5449.86
6404.61
-8698.08
-4108.61
-2606.31
-2039.07
-1603.41
-1276.07
-1049.41
-886.51
-764.247
-671.319
-600.376
-545.847
-503.69
-471.019
-445.691
-426.041
-410.741
-398.701
-388.998
-380.824
-373.447
-366.178
-358.348
-349.282
-338.284
-324.613
-307.464
-285.953
-259.088
-225.749
-184.661
-134.365
-73.1808
0.830344
89.9121
196.667
324.117
475.782
655.767
868.87
1120.72
1417.96
1768.44
2181.57
2668.64
3243.44
3922.83
4727.37
5680.71
6808.98
16739.6
8577.72
4545.33
3027.88
2194.88
1588.03
1166.81
885.429
688.797
541.972
427.349
335.168
259.043
194.656
139.156
90.6593
47.898
10.0199
-23.5322
-53.0949
-78.8326
-100.769
-118.803
-132.724
-142.207
-146.817
-146
-139.072
-125.208
-103.419
-72.5327
-31.1675
22.3028
89.7853
173.514
276.105
400.62
550.646
730.392
944.81
1199.75
1502.18
1860.45
2284.76
2787.77
3385.71
4100.29
4962.26
6018.57
7351.35
-21050.5
-16435.4
-14865
-10907.2
-8940.61
-5523
-3421.6
-366.365
1738.53
4547.33
6578.14
9221.77
11120.4
13668.1
15375.5
17898.8
19330.8
21914.6
22915.2
25548.9
-21076.7
-16474.6
-14914.1
-10958.4
-8998.78
-5579.74
-3484.07
-426.691
1673.78
4484.72
6512.03
9158.22
11054.2
13605.7
15311.9
17842.2
19277
21875.7
22890.1
25562.5
-21111.2
-16511.8
-14960.9
-11006.4
-9053.59
-5633.6
-3543.17
-484.048
1612.34
4425.43
6449.59
9098.52
10992.5
13547.9
15254
17790.4
19228.9
21838.2
22862.4
25552.2
-21150
-16549.7
-15006.7
-11052.4
-9106
-5685.01
-3599.63
-538.798
1553.63
4368.91
6390.09
9041.83
10934
13493.1
15199.2
17740.8
19182.2
21798.7
22827.9
25525.3
-21191
-16588.1
-15051.7
-11097
-9156.62
-5734.44
-3653.94
-591.349
1497.19
4314.69
6332.94
8987.43
10877.8
13440.3
15146.1
17691.9
19134.9
21756
22787.1
25488.9
-21232.9
-16627
-15096.3
-11140.7
-9205.88
-5782.28
-3706.51
-642.1
1442.6
4262.29
6277.59
8934.69
10823
13388.6
15093.6
17642.8
19086
21710.4
22741.5
25446.3
-21275.4
-16666
-15140.5
-11183.6
-9254.06
-5828.85
-3757.71
-691.411
1389.46
4211.3
6223.58
8883.11
10769.3
13337.4
15041.3
17593.1
19035.6
21662.2
22692.2
25399.5
-21317.9
-16704.8
-15184.3
-11225.8
-9301.37
-5874.41
-3807.8
-739.586
1337.47
4161.38
6170.55
8832.3
10716
13286.5
14988.7
17542.5
18983.6
21612
22640.3
25349.6
-21360.2
-16743.5
-15227.8
-11267.5
-9347.98
-5919.16
-3857.02
-786.877
1286.34
4112.23
6118.2
8781.98
10663.1
13235.5
14935.7
17491.1
18930.4
21560
22586.2
25297.4
-21402.4
-16781.9
-15270.8
-11308.7
-9394
-5963.26
-3905.54
-833.49
1235.87
4063.64
6066.32
8731.93
10610.3
13184.3
14882.2
17439
18876
21506.7
22530.5
25243.5
-21444.4
-16820
-15313.5
-11349.4
-9439.54
-6006.83
-3953.53
-879.586
1185.88
4015.45
6014.75
8682.01
10557.5
13133
14828.2
17386.2
18820.6
21452.2
22473.5
25188.2
-21486
-16857.8
-15355.8
-11389.8
-9484.68
-6049.98
-4001.1
-925.294
1136.25
3967.51
5963.36
8632.13
10504.6
13081.3
14773.8
17332.8
18764.5
21396.8
22415.5
25131.9
-21527.4
-16895.3
-15397.9
-11429.8
-9529.49
-6092.8
-4048.33
-970.714
1086.88
3919.74
5912.07
8582.23
10451.5
13029.4
14719
17278.9
18707.6
21340.6
22356.6
25074.7
-21568.6
-16932.6
-15439.7
-11469.6
-9574.03
-6135.35
-4095.31
-1015.92
1037.69
3872.07
5860.84
8532.27
10398.4
12977.2
14663.8
17224.5
18650.3
21283.8
22297.1
25016.8
-21609.5
-16969.6
-15481.3
-11509.2
-9618.35
-6177.69
-4142.1
-1060.98
988.628
3824.45
5809.61
8482.21
10345
12924.8
14608.3
17169.6
18592.4
21226.5
22236.9
24958.4
-21650.3
-17006.4
-15522.7
-11548.5
-9662.48
-6219.86
-4188.73
-1105.93
939.654
3776.85
5758.37
8432.05
10291.5
12872.1
14552.5
17114.5
18534.2
21168.7
22176.4
24899.5
-21690.8
-17043
-15564
-11587.7
-9706.46
-6261.9
-4235.24
-1150.81
890.739
3729.23
5707.1
8381.79
10237.9
12819.2
14496.4
17059
18475.6
21110.6
22115.4
24840.2
-21731.3
-17079.4
-15605.1
-11626.7
-9750.32
-6303.84
-4281.66
-1195.64
841.863
3681.59
5655.8
8331.42
10184.2
12766.2
14440.2
17003.3
18416.7
21052.2
22054.1
24780.7
-21771.6
-17115.7
-15646.1
-11665.6
-9794.08
-6345.7
-4328.01
-1240.44
793.014
3633.92
5604.47
8280.96
10130.4
12713
14383.8
16947.4
18357.6
20993.5
21992.6
24720.9
-21811.8
-17151.8
-15687
-11704.4
-9837.77
-6387.49
-4374.3
-1285.23
744.182
3586.21
5553.1
8230.4
10076.4
12659.6
14327.2
16891.3
18298.4
20934.6
21930.8
24660.8
-21851.9
-17187.9
-15727.8
-11743.2
-9881.38
-6429.24
-4420.55
-1330.01
695.363
3538.46
5501.7
8179.75
10022.4
12606.2
14270.5
16835
18238.9
20875.6
21868.9
24600.6
-21891.9
-17223.9
-15768.6
-11781.8
-9924.94
-6470.96
-4466.76
-1374.79
646.557
3490.67
5450.28
8129.03
9968.34
12552.6
14213.7
16778.6
18179.4
20816.4
21806.8
24540.3
-21931.9
-17259.8
-15809.3
-11820.4
-9968.45
-6512.64
-4512.93
-1419.58
597.763
3442.85
5398.85
8078.25
9914.22
12498.9
14156.8
16722.1
18119.7
20757.2
21744.6
24479.9
-21971.8
-17295.6
-15850
-11859
-10011.9
-6554.3
-4559.07
-1464.36
548.985
3395
5347.4
8027.41
9860.07
12445.2
14099.9
16665.6
18060
20697.8
21682.4
24419.5
-22011.7
-17331.4
-15890.6
-11897.5
-10055.3
-6595.93
-4605.18
-1509.15
500.226
3347.12
5295.96
7976.53
9805.9
12391.4
14042.9
16608.9
18000.2
20638.4
21620.1
24358.9
-22051.6
-17367.1
-15931.2
-11936
-10098.7
-6637.55
-4651.26
-1553.94
451.493
3299.22
5244.54
7925.62
9751.72
12337.6
13985.9
16552.3
17940.4
20579
21557.7
24298.4
-22091.4
-17402.8
-15971.8
-11974.4
-10142.1
-6679.15
-4697.3
-1598.73
402.79
3251.31
5193.13
7874.68
9697.56
12283.7
13929
16495.6
17880.6
20519.5
21495.3
24237.8
-22131.2
-17438.4
-16012.3
-12012.8
-10185.4
-6720.72
-4743.3
-1643.51
354.125
3203.39
5141.75
7823.72
9643.42
12229.8
13872
16438.9
17820.8
20460.1
21432.9
24177.3
-22171
-17473.9
-16052.8
-12051.2
-10228.7
-6762.27
-4789.25
-1688.28
305.503
3155.47
5090.41
7772.77
9589.31
12176
13815
16382.2
17761
20400.6
21370.6
24116.8
-22210.7
-17509.4
-16093.3
-12089.5
-10271.9
-6803.79
-4835.16
-1733.04
256.934
3107.56
5039.13
7721.81
9535.24
12122.1
13758.1
16325.5
17701.2
20341.2
21308.2
24056.3
-22250.4
-17544.9
-16133.7
-12127.8
-10315.1
-6845.29
-4881.01
-1777.77
208.423
3059.67
4987.9
7670.88
9481.23
12068.2
13701.3
16268.9
17641.5
20281.8
21245.9
23995.9
-22290.1
-17580.3
-16174.1
-12166.1
-10358.3
-6886.75
-4926.8
-1822.48
159.98
3011.8
4936.74
7619.96
9427.29
12014.4
13644.5
16212.3
17581.8
20222.5
21183.7
23935.6
-22329.8
-17615.7
-16214.5
-12204.3
-10401.3
-6928.17
-4972.52
-1867.15
111.613
2963.95
4885.66
7569.08
9373.43
11960.6
13587.8
16155.7
17522.2
20163.3
21121.5
23875.4
-22369.4
-17651
-16254.8
-12242.4
-10444.4
-6969.55
-5018.17
-1911.79
63.3283
2916.15
4834.67
7518.24
9319.66
11906.9
13531.1
16099.2
17462.7
20104.1
21059.4
23815.2
-22408.9
-17686.2
-16295.1
-12280.5
-10487.3
-7010.88
-5063.73
-1956.39
15.1358
2868.39
4783.78
7467.45
9265.99
11853.3
13474.6
16042.8
17403.3
20045.1
20997.4
23755.2
-22448.5
-17721.4
-16335.3
-12318.5
-10530.2
-7052.16
-5109.21
-2000.93
-32.9569
2820.68
4732.99
7416.71
9212.42
11799.7
13418.2
15986.5
17344
19986.1
20935.5
23695.3
-22488
-17756.5
-16375.4
-12356.5
-10573
-7093.37
-5154.59
-2045.41
-80.9415
2773.03
4682.32
7366.05
9158.97
11746.1
13361.9
15930.2
17284.8
19927.3
20873.8
23635.5
-22527.4
-17791.5
-16415.5
-12394.4
-10615.7
-7134.52
-5199.87
-2089.84
-128.81
2725.44
4631.77
7315.45
9105.66
11692.7
13305.7
15874.1
17225.8
19868.6
20812.1
23575.9
-22566.7
-17826.4
-16455.5
-12432.2
-10658.3
-7175.6
-5245.03
-2134.19
-176.553
2677.93
4581.36
7264.94
9052.48
11639.4
13249.7
15818.1
17166.9
19810
20750.6
23516.4
-22606
-17861.3
-16495.5
-12469.9
-10700.9
-7216.6
-5290.08
-2178.46
-224.162
2630.5
4531.09
7214.52
8999.45
11586.1
13193.8
15762.2
17108.1
19751.5
20689.3
23457.1
-22645.2
-17896
-16535.3
-12507.6
-10743.3
-7257.52
-5335
-2222.65
-271.627
2583.16
4480.97
7164.2
8946.58
11533
13138.1
15706.5
17049.5
19693.2
20628.1
23397.9
-22684.4
-17930.7
-16575.1
-12545.1
-10785.6
-7298.34
-5379.78
-2266.75
-318.94
2535.92
4431.02
7113.99
8893.87
11480
13082.5
15650.9
16991.1
19635.1
20567
23339
-22723.4
-17965.2
-16614.7
-12582.6
-10827.7
-7339.07
-5424.41
-2310.75
-366.092
2488.78
4381.23
7063.9
8841.35
11427.2
13027.1
15595.4
16932.8
19577.2
20506.2
23280.2
-22762.4
-17999.6
-16654.2
-12619.9
-10869.8
-7379.69
-5468.89
-2354.65
-413.074
2441.75
4331.63
7013.92
8789.01
11374.5
12971.9
15540.1
16874.8
19519.4
20445.5
23221.7
-22801.3
-18034
-16693.7
-12657.1
-10911.7
-7420.2
-5513.21
-2398.43
-459.878
2394.84
4282.22
6964.08
8736.87
11321.9
12917
15485
16816.9
19461.9
20385
23163.3
-22840
-18068.1
-16733
-12694.2
-10953.4
-7460.59
-5557.36
-2442.1
-506.495
2348.05
4233.01
6914.37
8684.93
11269.5
12862.2
15430
16759.2
19404.5
20324.7
23105.2
-22878.6
-18102.2
-16772.2
-12731.2
-10995
-7500.86
-5601.33
-2485.64
-552.917
2301.4
4184
6864.81
8633.21
11217.2
12807.6
15375.3
16701.8
19347.4
20264.7
23047.3
-22917.2
-18136.1
-16811.2
-12768.1
-11036.4
-7541
-5645.12
-2529.05
-599.134
2254.88
4135.21
6815.4
8581.71
11165.2
12753.3
15320.7
16644.6
19290.4
20204.9
22989.6
-22955.6
-18169.9
-16850.1
-12804.8
-11077.7
-7581
-5688.71
-2572.32
-645.138
2208.52
4086.65
6766.16
8530.44
11113.3
12699.2
15266.3
16587.6
19233.7
20145.3
22932.3
-22993.8
-18203.5
-16888.8
-12841.3
-11118.8
-7620.85
-5732.1
-2615.44
-690.92
2162.3
4038.32
6717.08
8479.41
11061.6
12645.3
15212.2
16530.9
19177.3
20085.9
22875.1
-23031.9
-18236.9
-16927.4
-12877.7
-11159.7
-7660.56
-5775.27
-2658.41
-736.47
2116.25
3990.23
6668.18
8428.63
11010.1
12591.7
15158.3
16474.4
19121.1
20026.8
22818.3
-23069.9
-18270.2
-16965.8
-12914
-11200.4
-7700.1
-5818.22
-2701.23
-781.78
2070.36
3942.4
6619.46
8378.12
10958.8
12538.4
15104.6
16418.2
19065.1
19968
22761.7
-23107.7
-18303.3
-17004.1
-12950
-11240.8
-7739.49
-5860.95
-2743.87
-826.841
2024.65
3894.83
6570.93
8327.87
10907.7
12485.3
15051.1
16362.2
19009.4
19909.4
22705.4
-23145.3
-18336.2
-17042.1
-12985.9
-11281.1
-7778.7
-5903.43
-2786.35
-871.645
1979.12
3847.53
6522.6
8277.9
10856.8
12432.5
14997.9
16306.5
18954
19851.1
22649.4
-23182.8
-18369
-17080
-13021.7
-11321.2
-7817.74
-5945.67
-2828.64
-916.183
1933.79
3800.51
6474.48
8228.22
10806.2
12380
14944.9
16251.2
18898.9
19793.1
22593.7
-23220.1
-18401.5
-17117.7
-13057.2
-11361
-7856.6
-5987.66
-2870.75
-960.446
1888.64
3753.78
6426.57
8178.83
10755.8
12327.8
14892.3
16196.1
18844
19735.4
22538.3
-23257.2
-18433.9
-17155.2
-13092.5
-11400.6
-7895.27
-6029.38
-2912.67
-1004.43
1843.7
3707.34
6378.88
8129.74
10705.6
12275.9
14839.8
16141.3
18789.5
19678
22483.2
-23294.1
-18466
-17192.4
-13127.7
-11440
-7933.74
-6070.83
-2954.39
-1048.11
1798.97
3661.21
6331.41
8080.97
10655.7
12224.3
14787.7
16086.8
18735.2
19620.9
22428.5
-23330.8
-18497.9
-17229.4
-13162.6
-11479
-7972.01
-6111.99
-2995.9
-1091.49
1754.45
3615.4
6284.19
8032.52
10606
12173
14735.8
16032.7
18681.3
19564.1
22374.1
-23367.3
-18529.6
-17266.3
-13197.3
-11517.9
-8010.07
-6152.87
-3037.2
-1134.57
1710.16
3569.91
6237.2
7984.41
10556.6
12122.1
14684.3
15978.9
18627.7
19507.7
22320.1
-23403.6
-18561.1
-17302.8
-13231.8
-11556.4
-8047.91
-6193.45
-3078.29
-1177.32
1666.1
3524.76
6190.46
7936.63
10507.5
12071.5
14633
15925.5
18574.4
19451.6
22266.4
-23439.6
-18592.3
-17339.1
-13266.1
-11594.7
-8085.53
-6233.72
-3119.15
-1219.75
1622.27
3479.94
6143.98
7889.2
10458.7
12021.3
14582
15872.3
18521.5
19395.9
22213.1
-23475.5
-18623.3
-17375.2
-13300.2
-11632.7
-8122.93
-6273.67
-3159.78
-1261.84
1578.69
3435.47
6097.76
7842.12
10410.2
11971.4
14531.4
15819.6
18468.9
19340.5
22160.1
-23511.1
-18654.1
-17411
-13334
-11670.4
-8160.09
-6313.31
-3200.17
-1303.58
1535.35
3391.37
6051.81
7795.41
10361.9
11921.9
14481.1
15767.2
18416.7
19285.4
22107.6
-23546.4
-18684.6
-17446.6
-13367.5
-11707.8
-8197.02
-6352.61
-3240.32
-1344.98
1492.27
3347.63
6006.14
7749.08
10314
11872.8
14431.1
15715.2
18364.8
19230.8
22055.4
-23581.5
-18714.8
-17481.9
-13400.8
-11744.9
-8233.7
-6391.57
-3280.23
-1386.01
1449.45
3304.26
5960.75
7703.12
10266.4
11824
14381.5
15663.6
18313.4
19176.5
22003.6
-23616.3
-18744.8
-17516.9
-13433.9
-11781.7
-8270.14
-6430.18
-3319.88
-1426.67
1406.9
3261.28
5915.65
7657.56
10219
11775.7
14332.2
15612.3
18262.3
19122.6
21952.3
-23650.9
-18774.5
-17551.6
-13466.7
-11818.1
-8306.31
-6468.44
-3359.26
-1466.95
1364.62
3218.69
5870.85
7612.39
10172.1
11727.7
14283.3
15561.5
18211.6
19069.1
21901.3
-23685.2
-18803.9
-17586
-13499.2
-11854.2
-8342.23
-6506.33
-3398.39
-1506.84
1322.62
3176.5
5826.35
7567.63
10125.4
11680.1
14234.7
15511.1
18161.2
19016.1
21850.8
-23719.2
-18833
-17620.1
-13531.5
-11890
-8377.87
-6543.84
-3437.24
-1546.34
1280.91
3134.72
5782.16
7523.29
10079.1
11633
14186.6
15461.1
18111.3
18963.4
21800.7
-23753
-18861.8
-17653.9
-13563.5
-11925.4
-8413.25
-6580.97
-3475.81
-1585.43
1239.49
3093.36
5738.28
7479.37
10033.1
11586.3
14138.7
15411.5
18061.8
18911.2
21751.1
-23786.4
-18890.4
-17687.3
-13595.2
-11960.5
-8448.34
-6617.7
-3514.1
-1624.11
1198.38
3052.42
5694.73
7435.89
9987.5
11540
14091.3
15362.3
18012.8
18859.3
21701.9
-23819.5
-18918.6
-17720.5
-13626.6
-11995.1
-8483.15
-6654.04
-3552.1
-1662.36
1157.56
3011.92
5651.51
7392.84
9942.25
11494.2
14044.3
15313.6
17964.1
18808
21653.1
-23852.3
-18946.5
-17753.3
-13657.7
-12029.5
-8517.68
-6689.97
-3589.81
-1700.19
1117.06
2971.87
5608.63
7350.24
9897.36
11448.8
13997.7
15265.4
17915.9
18757
21604.8
-23884.8
-18974.1
-17785.7
-13688.5
-12063.4
-8551.91
-6725.48
-3627.21
-1737.58
1076.88
2932.26
5566.09
7308.09
9852.84
11403.9
13951.4
15217.6
17868.2
18706.5
21557
-23917
-19001.4
-17817.8
-13719
-12096.9
-8585.84
-6760.56
-3664.32
-1774.52
1037.01
2893.11
5523.9
7266.41
9808.71
11359.4
13905.6
15170.2
17820.8
18656.5
21509.7
-23948.9
-19028.3
-17849.6
-13749.2
-12130
-8619.47
-6795.22
-3701.11
-1811
997.476
2854.42
5482.06
7225.2
9764.96
11315.4
13860.3
15123.4
17774
18607
21462.9
-23980.4
-19054.9
-17881
-13779.1
-12162.7
-8652.78
-6829.43
-3737.59
-1847.03
958.274
2816.22
5440.58
7184.47
9721.61
11271.9
13815.3
15077
17727.6
18557.9
21416.5
-24011.6
-19081.2
-17912
-13808.6
-12195
-8685.79
-6863.19
-3773.74
-1882.58
919.412
2778.49
5399.47
7144.23
9678.65
11228.9
13770.8
15031.1
17681.7
18509.3
21370.7
-24042.4
-19107.2
-17942.6
-13837.9
-12226.9
-8718.48
-6896.49
-3809.57
-1917.65
880.896
2741.26
5358.74
7104.48
9636.11
11186.4
13726.7
14985.7
17636.2
18461.2
21325.3
-24072.9
-19132.7
-17972.8
-13866.8
-12258.3
-8750.84
-6929.32
-3845.07
-1952.24
842.732
2704.52
5318.38
7065.24
9593.98
11144.4
13683.1
14940.8
17591.3
18413.6
21280.5
-24102.9