/*--------------------------------*- C++ -*----------------------------------*\
  =========                 |
  \\      /  F ield         | OpenFOAM: The Open Source CFD Toolbox
   \\    /   O peration     | Website:  https://openfoam.org
    \\  /    A nd           | Version:  8
     \\/     M anipulation  |
\*---------------------------------------------------------------------------*/
FoamFile
{
    version     2.0;
    format      ascii;
    class       surfaceScalarField;
    location    "400";
    object      phi;
}
// * * * * * * * * * * * * * * * * * * * * * * * * * * * * * * * * * * * * * //

dimensions      [1 0 -1 0 0 0 0];

internalField   nonuniform List<scalar> 
16360
(
-1.36692
0.000237618
-1.36719
0.000265761
-1.36747
0.000276528
-1.36775
0.000280615
-1.36803
0.000281817
-1.36831
0.000281474
-1.36859
0.000280106
-1.36887
0.000277935
-1.36914
0.00027503
-1.36941
0.000271414
-1.36968
0.000267053
-1.36994
0.000261873
-1.3702
0.000255774
-1.37045
0.000248659
-1.37069
0.000240363
-1.37092
0.000230731
-1.37114
0.000219558
-1.37134
0.000206603
-1.37154
0.000191593
-1.37171
0.000174186
-1.37186
0.000153976
-1.37199
0.000130544
-1.3721
0.000103387
-1.37217
7.18333e-05
-1.37221
3.50261e-05
-1.3722
-8.55068e-06
-1.37214
-6.12418e-05
-1.37201
-0.000124215
-1.37181
-0.000197874
-1.37153
-0.000283507
-1.37115
-0.000382826
-1.37065
-0.000497933
-1.37002
-0.000631337
-1.36923
-0.000785973
-1.36827
-0.000965286
-1.36709
-0.00117335
-1.36568
-0.001415
-1.36398
-0.00169603
-1.36196
-0.00202342
-1.35955
-0.00240576
-1.3567
-0.00285376
-1.35332
-0.00338108
-1.34931
-0.00400531
-1.34456
-0.00475019
-1.33891
-0.00565062
-1.33215
-0.00676058
-1.324
-0.00815162
-1.31411
-0.00989005
-1.30202
-0.0120854
-0.0153305
-1.28669
-1.5649
0.000510379
-1.56515
0.000509135
-1.56538
0.000508816
-1.56561
0.00051063
-1.56584
0.00051103
-1.56607
0.000509761
-1.56629
0.000506948
-1.56652
0.000502728
-1.56674
0.000497179
-1.56696
0.000490278
-1.56718
0.000481948
-1.56739
0.000472077
-1.56759
0.000460447
-1.56779
0.000446866
-1.56798
0.000431048
-1.56816
0.000412658
-1.56833
0.000391313
-1.56849
0.000366567
-1.56864
0.000337874
-1.56877
0.000304592
-1.56888
0.00026593
-1.56897
0.000221063
-1.56904
0.000169221
-1.56907
0.000109104
-1.56908
3.91494e-05
-1.56905
-4.25095e-05
-1.56897
-0.00013761
-1.56885
-0.000247918
-1.56867
-0.000375881
-1.56843
-0.000524205
-1.56811
-0.000696036
-1.56772
-0.000895036
-1.56722
-0.00112548
-1.56662
-0.00139233
-1.56588
-0.00170142
-1.56499
-0.00205953
-1.56393
-0.00247465
-1.56267
-0.00295623
-1.56118
-0.0035155
-1.55942
-0.004166
-1.55735
-0.00492424
-1.55492
-0.0058106
-1.55208
-0.00685062
-1.54875
-0.00807756
-1.54486
-0.00953786
-1.54032
-0.0112971
-1.53504
-0.0134375
-1.52887
-0.0160569
-1.52161
-0.0193516
-0.0237814
-1.51315
-1.60428
0.000337547
-1.60417
0.000398876
-1.60408
0.000422071
-1.604
0.00042919
-1.60392
0.000429867
-1.60383
0.00042712
-1.60375
0.000422026
-1.60366
0.000414962
-1.60357
0.000406019
-1.60348
0.000395183
-1.60338
0.000382304
-1.60327
0.00036718
-1.60316
0.000349571
-1.60304
0.000329117
-1.60292
0.000305425
-1.60278
0.000278021
-1.60264
0.000246348
-1.60248
0.000209767
-1.60231
0.000167501
-1.60212
0.000118622
-1.60192
6.19857e-05
-1.60169
-3.65409e-06
-1.60145
-8.01911e-05
-1.60117
-0.000169375
-1.60086
-0.000272811
-1.60051
-0.000392514
-1.60011
-0.000530939
-1.59967
-0.000691145
-1.59917
-0.000876627
-1.5986
-0.00109135
-1.59796
-0.00133989
-1.59722
-0.00162755
-1.59639
-0.00196052
-1.59544
-0.00234595
-1.59434
-0.00279219
-1.5931
-0.00330897
-1.59166
-0.0039077
-1.59002
-0.00460177
-1.58813
-0.00540698
-1.58595
-0.00634211
-1.58344
-0.0074297
-1.58056
-0.00869693
-1.57723
-0.010177
-1.5734
-0.0119114
-1.56898
-0.0139543
-1.5639
-0.016375
-1.55809
-0.0192553
-1.55145
-0.0226945
-1.54393
-0.0268684
-0.0321315
-1.53558
-1.64922
0.000493646
-1.64925
0.000429094
-1.64923
0.000406707
-1.6492
0.000399552
-1.64917
0.000395058
-1.64913
0.000389834
-1.64909
0.000382898
-1.64905
0.00037398
-1.64901
0.000362923
-1.64896
0.000349562
-1.64891
0.000333713
-1.64886
0.000315086
-1.64881
0.00029334
-1.64875
0.000268056
-1.64868
0.000238704
-1.64861
0.00020467
-1.64852
0.000165267
-1.64843
0.000119723
-1.64833
6.70094e-05
-1.64822
6.00049e-06
-1.64809
-6.44819e-05
-1.64795
-0.000145929
-1.64779
-0.000240099
-1.64761
-0.00034888
-1.64741
-0.000474787
-1.64718
-0.000620487
-1.64692
-0.000789091
-1.64663
-0.000984286
-1.6463
-0.0012103
-1.64592
-0.00147197
-1.64548
-0.00177494
-1.64498
-0.00212569
-1.64441
-0.00253173
-1.64376
-0.00300176
-1.643
-0.00354589
-1.64214
-0.00417588
-1.64114
-0.00490539
-1.63999
-0.00575038
-1.63867
-0.00672955
-1.63715
-0.0078649
-1.63539
-0.00918239
-1.63338
-0.0107129
-1.63106
-0.0124932
-1.6284
-0.0145683
-1.62536
-0.0169935
-1.6219
-0.0198359
-1.61799
-0.023172
-1.61359
-0.0270947
-1.60871
-0.0317422
-0.0373097
-1.60353
-1.63421
0.000167032
-1.63403
0.000249056
-1.6339
0.000277093
-1.63378
0.000282935
-1.63367
0.000280891
-1.63355
0.000274944
-1.63343
0.000266264
-1.63332
0.000255119
-1.63319
0.000241505
-1.63307
0.000225228
-1.63294
0.000206045
-1.63281
0.000183624
-1.63267
0.000157557
-1.63253
0.000127316
-1.63239
9.22927e-05
-1.63223
5.17417e-05
-1.63207
4.8458e-06
-1.63191
-4.94678e-05
-1.63173
-0.000112379
-1.63153
-0.000185122
-1.63133
-0.000269226
-1.63111
-0.000366623
-1.63087
-0.000479307
-1.63061
-0.000609631
-1.63032
-0.000760388
-1.63001
-0.000934781
-1.62966
-0.00113653
-1.62928
-0.00136994
-1.62885
-0.00164003
-1.62837
-0.00195255
-1.62783
-0.00231417
-1.62722
-0.0027326
-1.62653
-0.00321672
-1.62576
-0.00377681
-1.62488
-0.00442478
-1.62388
-0.0051744
-1.62275
-0.0060416
-1.62145
-0.00704489
-1.61998
-0.00820574
-1.61829
-0.0095491
-1.61637
-0.011104
-1.61418
-0.0129045
-1.61168
-0.01499
-1.60884
-0.0174076
-1.60562
-0.0202127
-1.60199
-0.0234696
-1.59791
-0.027251
-1.59336
-0.0316409
-1.58836
-0.0367442
-0.0426932
-1.58298
-1.64915
0.000377578
-1.64918
0.000280894
-1.64915
0.000244765
-1.6491
0.000230782
-1.64904
0.00022175
-1.64898
0.000212709
-1.64891
0.000202056
-1.64885
0.000189161
-1.64878
0.000173689
-1.64871
0.000155339
-1.64864
0.000133778
-1.64856
0.000108594
-1.64849
7.93228e-05
-1.6484
4.53493e-05
-1.64832
5.97863e-06
-1.64823
-3.95314e-05
-1.64813
-9.21318e-05
-1.64803
-0.000152945
-1.64791
-0.000223184
-1.6478
-0.000304391
-1.64767
-0.000398313
-1.64753
-0.00050699
-1.64737
-0.000632732
-1.6472
-0.000778223
-1.64702
-0.000946586
-1.64681
-0.00114142
-1.64658
-0.0013669
-1.64632
-0.00162785
-1.64603
-0.00192987
-1.64571
-0.00227943
-1.64534
-0.00268397
-1.64492
-0.00315212
-1.64444
-0.00369381
-1.6439
-0.00432051
-1.64328
-0.00504545
-1.64257
-0.00588388
-1.64175
-0.00685342
-1.64082
-0.00797434
-1.63976
-0.00926999
-1.63854
-0.0107673
-1.63715
-0.012497
-1.63556
-0.0144946
-1.63375
-0.0168005
-1.63169
-0.0194613
-1.62938
-0.0225295
-1.62678
-0.0260638
-1.62391
-0.0301285
-1.62075
-0.0347927
-1.61737
-0.040133
-0.046232
-1.61383
-1.64049
-5.01716e-06
-1.6403
9.21674e-05
-1.64018
0.000123192
-1.64007
0.000127717
-1.63998
0.000123214
-1.63988
0.000114452
-1.63978
0.000102742
-1.63968
8.83408e-05
-1.63957
7.11039e-05
-1.63947
5.07851e-05
-1.63936
2.70101e-05
-1.63925
-6.46294e-07
-1.63914
-3.27806e-05
-1.63903
-7.00228e-05
-1.63891
-0.000113099
-1.63878
-0.000162914
-1.63866
-0.000220549
-1.63852
-0.000287195
-1.63838
-0.000364232
-1.63823
-0.000453296
-1.63807
-0.000556302
-1.63791
-0.000675458
-1.63772
-0.000813311
-1.63753
-0.000972807
-1.63732
-0.00115735
-1.63709
-0.00137089
-1.63684
-0.00161799
-1.63656
-0.00190394
-1.63626
-0.00223486
-1.63592
-0.0026178
-1.63554
-0.00306095
-1.63512
-0.00357371
-1.63465
-0.00416696
-1.63411
-0.00485319
-1.63351
-0.00564683
-1.63283
-0.00656447
-1.63206
-0.0076252
-1.63118
-0.00885092
-1.63019
-0.0102667
-1.62905
-0.0119013
-1.62776
-0.0137872
-1.6263
-0.0159615
-1.62463
-0.0184659
-1.62275
-0.021347
-1.62062
-0.0246565
-1.61823
-0.0284504
-1.61557
-0.0327876
-1.61264
-0.0377279
-1.60944
-0.0433299
-0.0496528
-1.60602
-1.64652
0.000239839
-1.64656
0.000129788
-1.64652
8.73372e-05
-1.64646
6.95053e-05
-1.6464
5.73545e-05
-1.64633
4.53996e-05
-1.64626
3.18076e-05
-1.64619
1.58491e-05
-1.64611
-2.90884e-06
-1.64604
-2.4842e-05
-1.64596
-5.03726e-05
-1.64588
-8.00254e-05
-1.6458
-0.000114365
-1.64571
-0.000154074
-1.64563
-0.000199956
-1.64554
-0.00025297
-1.64544
-0.000314238
-1.64534
-0.000385041
-1.64524
-0.000466851
-1.64513
-0.000561411
-1.64502
-0.000670749
-1.6449
-0.000797204
-1.64477
-0.000943477
-1.64463
-0.0011127
-1.64448
-0.0013085
-1.64431
-0.00153507
-1.64413
-0.00179724
-1.64394
-0.00210062
-1.64372
-0.0024517
-1.64348
-0.00285796
-1.64321
-0.00332808
-1.64291
-0.00387202
-1.64258
-0.00450128
-1.6422
-0.00522911
-1.64178
-0.00607073
-1.6413
-0.00704364
-1.64076
-0.00816791
-1.64014
-0.00946652
-1.63944
-0.0109656
-1.63865
-0.0126951
-1.63775
-0.0146884
-1.63673
-0.0169834
-1.63557
-0.0196221
-1.63427
-0.0226508
-1.6328
-0.0261198
-1.63117
-0.0300823
-1.62937
-0.0345926
-1.62739
-0.0397031
-1.62526
-0.0454615
-0.051913
-1.623
-1.64274
-0.00015813
-1.64255
-5.63406e-05
-1.64244
-2.51732e-05
-1.64235
-2.21236e-05
-1.64226
-2.86078e-05
-1.64218
-3.95161e-05
-1.64209
-5.34368e-05
-1.64201
-7.01308e-05
-1.64192
-8.9749e-05
-1.64183
-0.000112618
-1.64174
-0.00013917
-1.64165
-0.000169917
-1.64156
-0.000205467
-1.64147
-0.000246525
-1.64138
-0.000293963
-1.64128
-0.000348757
-1.64118
-0.000412054
-1.64108
-0.000485197
-1.64098
-0.000569731
-1.64087
-0.000667458
-1.64076
-0.000780478
-1.64065
-0.000911214
-1.64053
-0.00106248
-1.64041
-0.00123754
-1.64027
-0.00144015
-1.64014
-0.00167466
-1.63999
-0.00194611
-1.63983
-0.00226034
-1.63965
-0.00262407
-1.63947
-0.00304511
-1.63926
-0.00353246
-1.63904
-0.0040965
-1.63879
-0.00474919
-1.63852
-0.00550431
-1.63821
-0.0063777
-1.63786
-0.00738754
-1.63748
-0.00855468
-1.63704
-0.00990295
-1.63655
-0.0114595
-1.63599
-0.013255
-1.63535
-0.0153242
-1.63463
-0.0177057
-1.63381
-0.0204424
-1.63288
-0.0235811
-1.63183
-0.0271718
-1.63064
-0.0312671
-1.62931
-0.0359196
-1.62784
-0.0411786
-1.62621
-0.0470867
-0.0536828
-1.62444
-1.64396
9.43202e-05
-1.64399
-1.80962e-05
-1.64396
-6.25249e-05
-1.6439
-8.23484e-05
-1.64383
-9.64707e-05
-1.64376
-0.000110364
-1.64369
-0.000125845
-1.64361
-0.000143663
-1.64354
-0.000164274
-1.64346
-0.000188097
-1.64339
-0.000215607
-1.64331
-0.000247324
-1.64323
-0.000283895
-1.64315
-0.000326042
-1.64307
-0.000374628
-1.64299
-0.000430667
-1.6429
-0.000495332
-1.64282
-0.000569975
-1.64273
-0.000656176
-1.64264
-0.000755766
-1.64255
-0.000870867
-1.64246
-0.00100395
-1.64237
-0.00115788
-1.64227
-0.00133595
-1.64217
-0.00154197
-1.64206
-0.00178039
-1.64195
-0.0020563
-1.64183
-0.00237564
-1.64171
-0.00274523
-1.64159
-0.00317301
-1.64145
-0.00366811
-1.64131
-0.00424112
-1.64115
-0.00490418
-1.64098
-0.00567132
-1.6408
-0.00655869
-1.64061
-0.00758482
-1.64039
-0.00877099
-1.64015
-0.0101415
-1.63989
-0.0117242
-1.63959
-0.0135504
-1.63926
-0.0156557
-1.63888
-0.0180797
-1.63846
-0.0208663
-1.63798
-0.0240636
-1.63743
-0.0277228
-1.6368
-0.0318976
-1.63607
-0.0366419
-1.63525
-0.0420062
-1.6343
-0.0480336
-0.0547599
-1.63322
-1.64393
-0.000292191
-1.64375
-0.000193434
-1.64365
-0.000164478
-1.64357
-0.000163187
-1.64349
-0.000171221
-1.64342
-0.000183514
-1.64335
-0.000198662
-1.64327
-0.000216443
-1.6432
-0.000237012
-1.64313
-0.00026072
-1.64306
-0.000287993
-1.64298
-0.000319375
-1.64291
-0.000355482
-1.64284
-0.000397051
-1.64277
-0.000444937
-1.6427
-0.000500148
-1.64263
-0.00056384
-1.64257
-0.000637353
-1.6425
-0.000722258
-1.64244
-0.000820375
-1.64237
-0.000933812
-1.64231
-0.00106501
-1.64225
-0.0012168
-1.6422
-0.00139247
-1.64214
-0.00159581
-1.64209
-0.00183122
-1.64204
-0.00210378
-1.642
-0.00241936
-1.64196
-0.00278478
-1.64193
-0.00320792
-1.6419
-0.00369787
-1.64187
-0.00426517
-1.64185
-0.00492195
-1.64184
-0.0056822
-1.64184
-0.00656206
-1.64185
-0.00758009
-1.64186
-0.00875762
-1.64188
-0.0101191
-1.64191
-0.0116925
-1.64195
-0.0135096
-1.642
-0.0156063
-1.64206
-0.0180231
-1.64212
-0.0208051
-1.64218
-0.0240015
-1.64224
-0.0276657
-1.64228
-0.0318538
-1.6423
-0.0366229
-1.64228
-0.0420271
-1.6422
-0.0481134
-0.0549228
-1.64204
-1.64085
-5.12459e-05
-1.64088
-0.000159245
-1.64084
-0.000202998
-1.64078
-0.000223602
-1.64071
-0.000238789
-1.64064
-0.000253644
-1.64057
-0.000269888
-1.6405
-0.000288208
-1.64043
-0.000309067
-1.64036
-0.000332869
-1.64028
-0.000360085
-1.64021
-0.00039124
-1.64014
-0.000426949
-1.64007
-0.000467944
-1.64
-0.000515062
-1.63993
-0.000569275
-1.63986
-0.00063172
-1.6398
-0.000703715
-1.63973
-0.000786787
-1.63967
-0.000882702
-1.63961
-0.000993517
-1.63955
-0.00112162
-1.6395
-0.00126978
-1.63945
-0.00144118
-1.63941
-0.00163955
-1.63937
-0.00186915
-1.63934
-0.00213495
-1.63932
-0.0024427
-1.6393
-0.00279904
-1.6393
-0.00321168
-1.63931
-0.00368952
-1.63933
-0.00424287
-1.63937
-0.00488365
-1.63942
-0.00562561
-1.6395
-0.00648464
-1.6396
-0.00747908
-1.63973
-0.0086301
-1.63989
-0.00996206
-1.64008
-0.011503
-1.6403
-0.0132849
-1.64056
-0.0153443
-1.64086
-0.017723
-1.6412
-0.0204676
-1.64157
-0.0236305
-1.64197
-0.0272691
-1.64238
-0.031445
-1.64278
-0.0362232
-1.64313
-0.0416685
-1.64341
-0.0478408
-0.0547845
-1.64355
-1.64496
-0.000403851
-1.6448
-0.000315086
-1.64471
-0.000290758
-1.64464
-0.000291683
-1.64458
-0.000300995
-1.64452
-0.00031401
-1.64446
-0.000329444
-1.6444
-0.000347111
-1.64434
-0.000367176
-1.64429
-0.000389966
-1.64423
-0.000415909
-1.64418
-0.000445504
-1.64413
-0.000479338
-1.64408
-0.000518091
-1.64403
-0.000562567
-1.64398
-0.000613684
-1.64394
-0.00067251
-1.64391
-0.000740297
-1.64387
-0.000818482
-1.64385
-0.000908731
-1.64383
-0.00101299
-1.64382
-0.00113351
-1.64381
-0.00127289
-1.64382
-0.00143417
-1.64384
-0.00162083
-1.64387
-0.00183692
-1.64392
-0.00208714
-1.64399
-0.00237691
-1.64407
-0.00271253
-1.64418
-0.00310127
-1.64432
-0.0035516
-1.64449
-0.0040733
-1.6447
-0.00467769
-1.64494
-0.00537787
-1.64524
-0.00618906
-1.64559
-0.00712885
-1.646
-0.00821761
-1.64648
-0.00947897
-1.64705
-0.0109402
-1.6477
-0.0126329
-1.64845
-0.0145935
-1.64931
-0.0168636
-1.65029
-0.0194913
-1.65139
-0.022531
-1.65261
-0.0260438
-1.65396
-0.0300969
-1.65542
-0.034763
-1.65697
-0.0401192
-1.65857
-0.0462403
-0.0531927
-1.66016
-1.63587
-0.000196016
-1.63589
-0.000293273
-1.63585
-0.000334176
-1.63579
-0.000354824
-1.63572
-0.000370462
-1.63565
-0.000385535
-1.63557
-0.000401545
-1.6355
-0.000419136
-1.63543
-0.00043874
-1.63536
-0.000460758
-1.63529
-0.000485599
-1.63522
-0.00051375
-1.63516
-0.000545768
-1.63509
-0.000582288
-1.63503
-0.000624055
-1.63497
-0.000671933
-1.63492
-0.000726919
-1.63487
-0.000790164
-1.63482
-0.000863012
-1.63479
-0.000947025
-1.63475
-0.00104401
-1.63473
-0.00115606
-1.63472
-0.00128561
-1.63472
-0.00143549
-1.63473
-0.00160895
-1.63476
-0.00180978
-1.6348
-0.00204236
-1.63487
-0.00231176
-1.63496
-0.00262388
-1.63507
-0.00298554
-1.63522
-0.00340468
-1.6354
-0.00389049
-1.63562
-0.00445362
-1.6359
-0.00510648
-1.63622
-0.00586346
-1.63661
-0.00674132
-1.63707
-0.00775959
-1.63761
-0.00894099
-1.63823
-0.0103121
-1.63896
-0.0119039
-1.6398
-0.0137527
-1.64077
-0.0159007
-1.64186
-0.0183975
-1.64309
-0.0213012
-1.64445
-0.0246787
-1.64595
-0.0286062
-1.64754
-0.0331704
-1.64919
-0.0384713
-1.65081
-0.0446192
-0.0517033
-1.6523
-1.64642
-0.000482239
-1.6463
-0.000413563
-1.64624
-0.000397784
-1.64619
-0.000401978
-1.64615
-0.000412425
-1.64611
-0.00042543
-1.64607
-0.000440063
-1.64603
-0.000456258
-1.646
-0.000474223
-1.64596
-0.000494265
-1.64593
-0.000516754
-1.64591
-0.000542125
-1.64588
-0.000570879
-1.64586
-0.000603588
-1.64584
-0.000640905
-1.64583
-0.000683597
-1.64582
-0.00073256
-1.64583
-0.000788821
-1.64584
-0.000853564
-1.64585
-0.00092817
-1.64588
-0.00101424
-1.64593
-0.00111363
-1.64598
-0.00122851
-1.64606
-0.00136137
-1.64615
-0.0015151
-1.64627
-0.00169305
-1.64641
-0.0018991
-1.64659
-0.00213774
-1.6468
-0.00241419
-1.64705
-0.00273452
-1.64735
-0.00310574
-1.6477
-0.00353604
-1.64812
-0.0040349
-1.64861
-0.00461338
-1.64919
-0.00528437
-1.64987
-0.00606294
-1.65066
-0.00696672
-1.65159
-0.00801643
-1.65266
-0.00923647
-1.65391
-0.0106557
-1.65535
-0.0123082
-1.65702
-0.0142348
-1.65893
-0.0164842
-1.66112
-0.0191153
-1.6636
-0.0221987
-1.66639
-0.0258176
-1.66949
-0.0300692
-1.67289
-0.0350737
-1.67653
-0.0409796
-0.0479404
-1.68029
-1.624
-0.000337412
-1.624
-0.000419737
-1.62394
-0.000456078
-1.62387
-0.000476147
-1.62379
-0.000491553
-1.62371
-0.000505935
-1.62363
-0.000520603
-1.62355
-0.000536187
-1.62347
-0.000553085
-1.62339
-0.000571647
-1.62331
-0.000592233
-1.62324
-0.000615213
-1.62317
-0.000641024
-1.6231
-0.000670165
-1.62304
-0.000703204
-1.62298
-0.000740809
-1.62293
-0.000783749
-1.62289
-0.000832906
-1.62285
-0.00088931
-1.62283
-0.000954166
-1.62281
-0.00102887
-1.62281
-0.00111502
-1.62283
-0.00121452
-1.62286
-0.00132952
-1.62291
-0.00146255
-1.62299
-0.00161653
-1.62309
-0.00179486
-1.62323
-0.00200145
-1.6234
-0.00224086
-1.62362
-0.00251842
-1.62388
-0.00284028
-1.6242
-0.00321365
-1.62459
-0.00364689
-1.62506
-0.0041498
-1.62561
-0.00473385
-1.62626
-0.00541251
-1.62702
-0.0062017
-1.62792
-0.00712025
-1.62896
-0.00819063
-1.63018
-0.00943975
-1.63159
-0.0109001
-1.63321
-0.0126112
-1.63507
-0.0146214
-1.6372
-0.0169914
-1.6396
-0.0197974
-1.64228
-0.0231323
-1.64525
-0.0271071
-1.64845
-0.0318692
-1.65179
-0.0376395
-0.0446735
-1.65506
-1.64165
-0.00048674
-1.64161
-0.000453405
-1.64162
-0.000450366
-1.64164
-0.000457685
-1.64166
-0.000467632
-1.64169
-0.000478462
-1.64172
-0.000489937
-1.64175
-0.000502187
-1.64179
-0.000515444
-1.64183
-0.000529965
-1.64188
-0.000546032
-1.64193
-0.00056397
-1.64199
-0.000584122
-1.64205
-0.000606879
-1.64212
-0.000632712
-1.6422
-0.000662149
-1.64229
-0.000695792
-1.64238
-0.000734353
-1.6425
-0.000778654
-1.64262
-0.000829639
-1.64276
-0.000888415
-1.64292
-0.000956262
-1.6431
-0.00103466
-1.6433
-0.00112532
-1.64354
-0.00123024
-1.6438
-0.00135173
-1.6441
-0.00149246
-1.64445
-0.00165553
-1.64484
-0.00184453
-1.6453
-0.00206367
-1.64582
-0.0023178
-1.64642
-0.00261263
-1.64712
-0.00295478
-1.64791
-0.00335203
-1.64883
-0.00381349
-1.6499
-0.00434993
-1.65112
-0.00497412
-1.65254
-0.00570125
-1.65418
-0.00654959
-1.65608
-0.00754128
-1.65828
-0.00870344
-1.66082
-0.0100695
-1.66376
-0.0116814
-1.66716
-0.0135931
-1.67108
-0.0158765
-1.67559
-0.0186238
-1.68075
-0.0219475
-1.68662
-0.0260006
-1.69319
-0.0310635
-0.0375998
-1.70027
-1.56384
-0.000394622
-1.56382
-0.000469937
-1.56377
-0.00049642
-1.56372
-0.000511132
-1.56367
-0.000522118
-1.56361
-0.000532075
-1.56356
-0.000541953
-1.56351
-0.00055218
-1.56346
-0.00056303
-1.56342
-0.000574725
-1.56338
-0.000587478
-1.56334
-0.000601515
-1.56331
-0.000617082
-1.56328
-0.000634469
-1.56326
-0.00065401
-1.56324
-0.000676074
-1.56324
-0.000701096
-1.56324
-0.000729588
-1.56326
-0.000762131
-1.56329
-0.00079941
-1.56334
-0.000842216
-1.5634
-0.000891459
-1.56349
-0.000948208
-1.5636
-0.0010137
-1.56374
-0.00108936
-1.56391
-0.00117685
-1.56413
-0.00127809
-1.56439
-0.0013953
-1.5647
-0.00153108
-1.56508
-0.00168845
-1.56552
-0.00187092
-1.56605
-0.00208258
-1.56668
-0.00232822
-1.56742
-0.00261348
-1.56829
-0.00294498
-1.56931
-0.00333055
-1.5705
-0.00377954
-1.5719
-0.00430317
-1.57353
-0.00491506
-1.57544
-0.00563196
-1.57767
-0.00647481
-1.58027
-0.00747008
-1.5833
-0.00865195
-1.58683
-0.0100664
-1.59093
-0.011779
-1.59567
-0.0138835
-1.60111
-0.0164997
-1.60733
-0.0197834
-1.61433
-0.0240648
-0.0300913
-1.62184
-1.52222
-0.000108878
-1.52263
-5.87655e-05
-1.52308
-5.05604e-05
-1.52354
-5.01949e-05
-1.52401
-5.2066e-05
-1.52448
-5.45356e-05
-1.52497
-5.72692e-05
-1.52546
-6.0265e-05
-1.52596
-6.36012e-05
-1.52647
-6.73829e-05
-1.52698
-7.17261e-05
-1.52751
-7.67512e-05
-1.52804
-8.2594e-05
-1.52859
-8.94057e-05
-1.52914
-9.73577e-05
-1.52971
-0.000106655
-1.5303
-0.000117529
-1.5309
-0.000130238
-1.53151
-0.000145092
-1.53215
-0.000162451
-1.53281
-0.000182717
-1.5335
-0.000206373
-1.53421
-0.000233976
-1.53496
-0.000266159
-1.53574
-0.000303667
-1.53657
-0.000347359
-1.53745
-0.000398234
-1.53839
-0.00045746
-1.5394
-0.000526372
-1.54048
-0.000606552
-1.54165
-0.000699842
-1.54292
-0.000808397
-1.54432
-0.000934737
-1.54585
-0.00108183
-1.54754
-0.00125321
-1.54942
-0.00145308
-1.55151
-0.00168647
-1.55385
-0.00195952
-1.55649
-0.00227978
-1.55946
-0.00265669
-1.56284
-0.00310232
-1.56667
-0.00363238
-1.57106
-0.00426771
-1.57609
-0.00503731
-1.58188
-0.00598501
-1.58859
-0.00717873
-1.59638
-0.00870929
-1.60549
-0.0106724
-1.6163
-0.0132528
-0.0172608
-1.62913
-1.22623
-1.22629
-1.22634
-1.22639
-1.22644
-1.2265
-1.22655
-1.22661
-1.22668
-1.22675
-1.22682
-1.22689
-1.22698
-1.22707
-1.22716
-1.22727
-1.22739
-1.22752
-1.22766
-1.22783
-1.22801
-1.22821
-1.22845
-1.22871
-1.22902
-1.22937
-1.22976
-1.23022
-1.23075
-1.23135
-1.23205
-1.23286
-1.2338
-1.23488
-1.23613
-1.23759
-1.23927
-1.24123
-1.24351
-1.24617
-1.24927
-1.2529
-1.25717
-1.26221
-1.26819
-1.27537
-1.28408
-1.29475
-1.30801
-1.32527
1.62587
-0.0342497
1.638
-0.0121347
1.64684
-0.00883955
1.65127
-0.00442636
1.65284
-0.00157505
1.65294
-9.96573e-05
1.65225
0.000692142
1.65109
0.00116072
1.64964
0.00144692
1.64802
0.0016192
1.6463
0.00172046
1.64453
0.00177774
1.64272
0.00180709
1.6409
0.00181801
1.63908
0.00181633
1.63728
0.00180576
1.63549
0.00178871
1.63372
0.0017667
1.63198
0.00174072
1.63027
0.00171134
1.62859
0.00167888
1.62695
0.00164344
1.62534
0.00160493
1.62378
0.00156313
1.62226
0.00151769
1.62079
0.00146813
1.61938
0.00141382
1.61803
0.00135393
1.61674
0.00128748
1.61553
0.00121344
1.61439
0.0011306
1.61336
0.00103749
1.61242
0.000932502
1.61161
0.000812347
1.61094
0.000674578
1.61042
0.00051606
1.61009
0.000333105
1.60997
0.000121564
1.61009
-0.000124234
1.6105
-0.000412494
1.61126
-0.000753432
1.61242
-0.00115983
1.61407
-0.00164895
1.61631
-0.00224528
1.6193
-0.00298556
1.62323
-0.00392862
1.6284
-0.00517638
1.63532
-0.00692126
1.64489
-0.00956263
-0.0139726
1.65886
1.57532
-0.0179535
1.5719
-0.00871262
1.5662
-0.00314182
1.56319
-0.00141561
1.56174
-0.000121732
1.56096
0.000679402
1.56059
0.00105645
1.56052
0.00123021
1.56066
0.00131316
1.56093
0.00134686
1.5613
0.00135225
1.56173
0.00134229
1.56222
0.00132428
1.56273
0.00130188
1.56327
0.00127682
1.56383
0.0012499
1.5644
0.00122137
1.56497
0.00119114
1.56555
0.0011589
1.56614
0.0011242
1.56673
0.00108647
1.56733
0.001045
1.56794
0.000998984
1.56855
0.000947464
1.56918
0.000889357
1.56983
0.00082342
1.57049
0.00074816
1.57118
0.000661654
1.57191
0.000561577
1.57268
0.00044584
1.5735
0.000312055
1.57438
0.000156634
1.57533
-2.4616e-05
1.57638
-0.000236155
1.57754
-0.000483085
1.57883
-0.000771757
1.58027
-0.00110988
1.5819
-0.0015068
1.58375
-0.00197472
1.58587
-0.0025286
1.5883
-0.00318653
1.59111
-0.00397235
1.59438
-0.00491769
1.5982
-0.00606575
1.60269
-0.00747777
1.60801
-0.00924373
1.61433
-0.0115011
1.62188
-0.0144664
1.6308
-0.0184888
-0.0241166
1.64095
1.57763
-0.00396691
1.573
-0.00408413
1.57217
-0.00230633
1.57223
-0.00147709
1.57309
-0.000985805
1.57428
-0.000505059
1.57545
-0.00012041
1.57653
0.000155078
1.57749
0.000356697
1.57833
0.000506967
1.57906
0.000617656
1.5797
0.000697665
1.58027
0.000754152
1.58078
0.000792375
1.58124
0.000816031
1.58167
0.00082771
1.58206
0.000829194
1.58243
0.000821634
1.58278
0.000805687
1.58312
0.000781602
1.58346
0.000749289
1.5838
0.000708345
1.58414
0.000658072
1.58449
0.000597475
1.58485
0.000525352
1.58524
0.000440268
1.58564
0.000340467
1.58608
0.000223296
1.58656
8.55871e-05
1.58708
-7.59747e-05
1.58766
-0.00026537
1.5883
-0.00048733
1.58902
-0.000747497
1.58984
-0.00105143
1.59076
-0.00140729
1.59182
-0.00182441
1.59302
-0.00231399
1.5944
-0.00288965
1.596
-0.00356816
1.59784
-0.00437003
1.59997
-0.00532055
1.60245
-0.00645184
1.60534
-0.00780542
1.60871
-0.00943596
1.61265
-0.011417
1.61725
-0.0138496
1.62263
-0.0168747
1.62885
-0.0206904
1.63594
-0.0255712
-0.031875
1.64369
1.59001
-0.00235607
1.58927
-0.00334332
1.58952
-0.00256435
1.58974
-0.00169093
1.5898
-0.00104513
1.58979
-0.000497098
1.58972
-4.90452e-05
1.58959
0.000280047
1.58944
0.000508915
1.58928
0.000665434
1.58913
0.000769308
1.58899
0.000834216
1.58888
0.000870407
1.58878
0.00088539
1.58872
0.000884384
1.58867
0.000870889
1.58865
0.000847157
1.58866
0.000814524
1.58869
0.000773628
1.58875
0.000724558
1.58883
0.000666961
1.58894
0.000600084
1.58908
0.000522773
1.58924
0.000433365
1.58944
0.00033012
1.58967
0.000211106
1.58993
7.35425e-05
1.59024
-8.56318e-05
1.5906
-0.000269896
1.591
-0.000483859
1.59147
-0.000733132
1.59201
-0.00102368
1.59262
-0.00136256
1.59333
-0.00175792
1.59414
-0.00221983
1.59508
-0.00276024
1.59616
-0.00339332
1.5974
-0.00413612
1.59885
-0.0050092
1.60051
-0.00603754
1.60244
-0.00725165
1.60468
-0.00868929
1.60727
-0.0103978
1.61027
-0.012437
1.61374
-0.0148835
1.61773
-0.0178361
1.62228
-0.0214219
1.62739
-0.0258022
1.63299
-0.0311734
-0.0377525
1.63887
1.59022
-0.000962887
1.58845
-0.00156465
1.58719
-0.00131323
1.58635
-0.000847005
1.58579
-0.000487359
1.5855
-0.000208409
1.58543
2.0836e-05
1.58552
0.000197112
1.5857
0.000323566
1.58596
0.000411804
1.58625
0.0004718
1.58658
0.000510099
1.58692
0.00053133
1.58726
0.000538915
1.58761
0.000535233
1.58796
0.000521791
1.58831
0.000499423
1.58866
0.000468435
1.589
0.000428704
1.58934
0.000379742
1.58969
0.000320761
1.59004
0.000250636
1.5904
0.000167978
1.59076
7.05661e-05
1.59113
-4.38169e-05
1.59152
-0.000177939
1.59193
-0.0003351
1.59236
-0.000518782
1.59283
-0.000733113
1.59333
-0.000983529
1.59387
-0.0012763
1.59446
-0.0016186
1.59512
-0.00201886
1.59585
-0.00248699
1.59666
-0.00303473
1.59758
-0.00367606
1.59861
-0.0044275
1.59979
-0.00530871
1.60112
-0.0063432
1.60264
-0.00755913
1.60438
-0.00899035
1.60637
-0.0106778
1.60864
-0.0126715
1.61124
-0.0150321
1.61419
-0.0178342
1.61752
-0.0211686
1.62124
-0.0251447
1.62533
-0.0298907
1.62971
-0.0355493
-0.0422646
1.63422
1.59117
-0.000510671
1.59055
-0.000953409
1.59023
-0.000991486
1.59019
-0.000809881
1.5903
-0.000595085
1.59049
-0.000390917
1.5907
-0.00019858
1.59093
-2.88575e-05
1.59114
0.000109746
1.59134
0.000217118
1.59151
0.000296957
1.59167
0.000353103
1.59181
0.00038894
1.59194
0.000407433
1.59207
0.000410996
1.59219
0.000401414
1.59231
0.000379863
1.59243
0.000346958
1.59256
0.000302821
1.59269
0.000247089
1.59283
0.000179145
1.59298
9.78308e-05
1.59315
1.61034e-06
1.59333
-0.000111352
1.59353
-0.000243649
1.59375
-0.000398547
1.594
-0.000579561
1.59427
-0.000790803
1.59457
-0.00103719
1.59491
-0.00132468
1.5953
-0.00166028
1.59573
-0.00205216
1.59622
-0.00250985
1.59678
-0.00304457
1.59741
-0.00366952
1.59814
-0.00440025
1.59897
-0.00525512
1.59991
-0.00625576
1.601
-0.00742773
1.60224
-0.00880126
1.60366
-0.0104122
1.60529
-0.0123028
1.60714
-0.0145234
1.60924
-0.0171333
1.61161
-0.0202022
1.61425
-0.0238112
1.61716
-0.0280521
1.62029
-0.0330258
1.62358
-0.0388347
-0.045571
1.62688
1.59137
-0.000263432
1.59094
-0.000521093
1.59052
-0.000578435
1.5902
-0.000484948
1.58995
-0.000340952
1.58975
-0.000197338
1.58962
-6.69771e-05
1.58955
4.36693e-05
1.58953
0.000130101
1.58955
0.000192258
1.58962
0.000233017
1.58971
0.000255721
1.58984
0.000263227
1.58999
0.000257825
1.59016
0.000241227
1.59035
0.000214561
1.59055
0.000178402
1.59076
0.000132777
1.59099
7.73082e-05
1.59122
1.11852e-05
1.59147
-6.68251e-05
1.59172
-0.000158304
1.59199
-0.00026534
1.59227
-0.000390049
1.59256
-0.000535411
1.59287
-0.000704941
1.59319
-0.000902657
1.59353
-0.00113326
1.5939
-0.00140228
1.59429
-0.00171623
1.59471
-0.00208277
1.59517
-0.00251083
1.59567
-0.00301084
1.59622
-0.00359499
1.59683
-0.00427759
1.59751
-0.00507537
1.59826
-0.00600797
1.5991
-0.00709835
1.60005
-0.00837338
1.60111
-0.00986447
1.60231
-0.0116083
1.60365
-0.0136474
1.60516
-0.0160312
1.60684
-0.0188163
1.60871
-0.0220673
1.61075
-0.0258559
1.61296
-0.03026
1.6153
-0.0353608
1.6177
-0.0412366
-0.0479565
1.62008
1.59149
-0.000139573
1.59126
-0.000289978
1.59103
-0.000348126
1.59087
-0.000323321
1.59079
-0.000259327
1.59078
-0.000187449
1.59083
-0.000118843
1.59093
-5.77857e-05
1.59107
-7.54655e-06
1.59123
3.03242e-05
1.59141
5.60222e-05
1.59159
7.04203e-05
1.59178
7.43652e-05
1.59197
6.85079e-05
1.59216
5.32717e-05
1.59235
2.88103e-05
1.59253
-5.01487e-06
1.59271
-4.8636e-05
1.59289
-0.000102798
1.59307
-0.000168513
1.59325
-0.000247269
1.59343
-0.000340819
1.59362
-0.000451285
1.59381
-0.000581145
1.59401
-0.000733463
1.59422
-0.000911882
1.59443
-0.00112066
1.59467
-0.00136478
1.59491
-0.00165007
1.59518
-0.00198341
1.59547
-0.00237284
1.59579
-0.00282776
1.59614
-0.00335916
1.59652
-0.00397986
1.59695
-0.00470486
1.59742
-0.00555163
1.59796
-0.00654056
1.59855
-0.00769536
1.59922
-0.00904359
1.59998
-0.0106171
1.60082
-0.0124527
1.60177
-0.0145924
1.60282
-0.0170842
1.60398
-0.0199819
1.60526
-0.023345
1.60664
-0.0272377
1.60811
-0.0317274
1.60963
-0.0368805
1.61115
-0.0427579
-0.049408
1.6126
1.59154
-6.2491e-05
1.59138
-0.000133386
1.5912
-0.000166813
1.59104
-0.000162606
1.59092
-0.000136973
1.59084
-0.000104956
1.59079
-7.39202e-05
1.59078
-4.72179e-05
1.5908
-2.71719e-05
1.59085
-1.51541e-05
1.59091
-1.15087e-05
1.591
-1.60291e-05
1.5911
-2.84064e-05
1.59122
-4.84208e-05
1.59135
-7.60148e-05
1.59149
-0.000111348
1.59164
-0.000154834
1.5918
-0.000207115
1.59196
-0.000269147
1.59214
-0.00034218
1.59232
-0.000427818
1.59251
-0.000527987
1.5927
-0.000644992
1.5929
-0.000781556
1.59311
-0.000940914
1.59332
-0.00112688
1.59355
-0.00134394
1.59378
-0.00159728
1.59402
-0.00189302
1.59428
-0.00223828
1.59454
-0.00264139
1.59483
-0.00311206
1.59513
-0.00366162
1.59545
-0.00430326
1.5958
-0.00505234
1.59618
-0.00592672
1.59658
-0.00694714
1.59703
-0.00813761
1.59751
-0.00952584
1.59803
-0.0111437
1.59861
-0.0130276
1.59924
-0.0152187
1.59992
-0.0177636
1.60065
-0.0207133
1.60143
-0.0241237
1.60224
-0.0280535
1.60308
-0.032563
1.60391
-0.0377101
1.6047
-0.0435469
-0.0501163
1.6054
1.59156
-5.03048e-06
1.59144
-1.25243e-05
1.59129
-2.0302e-05
1.59116
-2.85731e-05
1.59106