/*--------------------------------*- C++ -*----------------------------------*\
  =========                 |
  \\      /  F ield         | OpenFOAM: The Open Source CFD Toolbox
   \\    /   O peration     | Website:  https://openfoam.org
    \\  /    A nd           | Version:  8
     \\/     M anipulation  |
\*---------------------------------------------------------------------------*/
FoamFile
{
    version     2.0;
    format      ascii;
    class       volScalarField;
    location    "400";
    object      T;
}
// * * * * * * * * * * * * * * * * * * * * * * * * * * * * * * * * * * * * * //

dimensions      [0 0 0 1 0 0 0];

internalField   nonuniform List<scalar> 
8400
(
294.708
294.803
294.901
295.002
295.106
295.213
295.323
295.435
295.55
295.667
295.787
295.909
296.034
296.161
296.29
296.42
296.553
296.687
296.822
296.959
297.097
297.236
297.376
297.517
297.658
297.799
297.941
298.083
298.224
298.365
298.505
298.645
298.784
298.921
299.058
299.193
299.326
299.458
299.587
299.715
299.84
299.963
300.084
300.202
300.317
300.43
300.539
300.645
300.749
300.848
294.981
295.077
295.176
295.278
295.382
295.49
295.6
295.713
295.829
295.947
296.068
296.191
296.316
296.443
296.572
296.704
296.836
296.971
297.107
297.244
297.382
297.522
297.662
297.802
297.944
298.085
298.227
298.368
298.509
298.65
298.79
298.93
299.068
299.205
299.341
299.476
299.609
299.74
299.869
299.996
300.121
300.244
300.364
300.481
300.596
300.708
300.818
300.924
301.027
301.127
295.11
295.207
295.307
295.41
295.516
295.625
295.736
295.85
295.966
296.085
296.207
296.33
296.456
296.584
296.714
296.846
296.979
297.114
297.25
297.388
297.526
297.666
297.806
297.947
298.088
298.229
298.371
298.512
298.653
298.794
298.933
299.073
299.211
299.348
299.483
299.617
299.75
299.88
300.009
300.136
300.26
300.382
300.502
300.619
300.734
300.846
300.955
301.061
301.164
301.265
295.149
295.247
295.348
295.451
295.558
295.667
295.779
295.893
296.01
296.13
296.251
296.376
296.502
296.63
296.76
296.892
297.026
297.161
297.298
297.435
297.574
297.714
297.854
297.995
298.136
298.278
298.419
298.56
298.701
298.842
298.982
299.121
299.259
299.395
299.531
299.665
299.797
299.927
300.056
300.182
300.307
300.428
300.548
300.665
300.78
300.891
301
301.106
301.21
301.31
295.158
295.256
295.357
295.461
295.568
295.677
295.789
295.904
296.021
296.14
296.262
296.386
296.513
296.641
296.771
296.904
297.037
297.172
297.309
297.447
297.586
297.725
297.866
298.007
298.148
298.289
298.431
298.572
298.713
298.853
298.993
299.132
299.27
299.407
299.542
299.676
299.808
299.939
300.067
300.194
300.318
300.44
300.56
300.677
300.791
300.903
301.012
301.118
301.222
301.323
295.165
295.263
295.364
295.468
295.574
295.684
295.796
295.911
296.028
296.148
296.27
296.394
296.52
296.649
296.779
296.911
297.045
297.18
297.317
297.455
297.593
297.733
297.874
298.014
298.156
298.297
298.439
298.58
298.721
298.861
299.001
299.14
299.278
299.415
299.55
299.684
299.816
299.946
300.075
300.201
300.325
300.447
300.567
300.684
300.798
300.91
301.019
301.126
301.229
301.33
295.166
295.265
295.366
295.47
295.576
295.686
295.798
295.913
296.03
296.15
296.272
296.396
296.522
296.651
296.781
296.913
297.047
297.182
297.319
297.457
297.595
297.735
297.876
298.016
298.158
298.299
298.441
298.582
298.723
298.863
299.003
299.142
299.28
299.417
299.552
299.686
299.818
299.948
300.077
300.203
300.327
300.449
300.569
300.686
300.801
300.913
301.022
301.128
301.232
301.333
295.169
295.267
295.369
295.473
295.579
295.689
295.801
295.916
296.033
296.153
296.275
296.399
296.526
296.654
296.785
296.917
297.051
297.186
297.322
297.46
297.599
297.739
297.879
298.02
298.161
298.303
298.444
298.586
298.727
298.867
299.007
299.146
299.284
299.42
299.556
299.689
299.822
299.952
300.08
300.207
300.331
300.453
300.573
300.69
300.804
300.916
301.025
301.132
301.235
301.336
295.17
295.268
295.37
295.473
295.58
295.69
295.802
295.917
296.034
296.154
296.276
296.4
296.527
296.655
296.786
296.918
297.052
297.187
297.324
297.461
297.6
297.74
297.881
298.021
298.163
298.304
298.446
298.587
298.728
298.868
299.008
299.147
299.285
299.422
299.557
299.691
299.823
299.954
300.082
300.208
300.333
300.455
300.574
300.691
300.806
300.918
301.027
301.134
301.238
301.338
295.17
295.268
295.369
295.473
295.58
295.689
295.801
295.916
296.033
296.153
296.275
296.399
296.526
296.654
296.785
296.917
297.051
297.186
297.323
297.461
297.6
297.739
297.88
298.021
298.162
298.304
298.445
298.587
298.728
298.868
299.008
299.147
299.285
299.422
299.557
299.691
299.823
299.954
300.082
300.209
300.333
300.455
300.575
300.692
300.807
300.919
301.028
301.135
301.238
301.339
295.166
295.264
295.365
295.469
295.576
295.685
295.797
295.912
296.029
296.149
296.271
296.396
296.522
296.65
296.781
296.913
297.047
297.182
297.319
297.457
297.596
297.735
297.876
298.017
298.158
298.3
298.441
298.583
298.724
298.865
299.004
299.143
299.281
299.418
299.554
299.688
299.82
299.951
300.079
300.206
300.33
300.452
300.572
300.69
300.804
300.917
301.026
301.133
301.237
301.338
295.161
295.259
295.36
295.463
295.57
295.679
295.791
295.906
296.023
296.143
296.265
296.389
296.515
296.644
296.774
296.906
297.04
297.175
297.312
297.45
297.589
297.728
297.869
298.01
298.151
298.293
298.435
298.576
298.717
298.858
298.998
299.137
299.275
299.412
299.547
299.682
299.814
299.945
300.073
300.2
300.325
300.447
300.567
300.684
300.799
300.912
301.021
301.128
301.232
301.333
295.156
295.253
295.354
295.458
295.564
295.674
295.785
295.9
296.017
296.137
296.258
296.383
296.509
296.637
296.768
296.9
297.033
297.169
297.305
297.443
297.582
297.722
297.862
298.004
298.145
298.287
298.428
298.57
298.711
298.852
298.992
299.131
299.269
299.406
299.542
299.676
299.809
299.939
300.068
300.195
300.32
300.442
300.562
300.68
300.795
300.907
301.017
301.124
301.228
301.329
295.149
295.246
295.347
295.45
295.557
295.666
295.777
295.892
296.009
296.128
296.25
296.374
296.5
296.628
296.759
296.891
297.024
297.16
297.296
297.434
297.573
297.713
297.853
297.994
298.136
298.277
298.419
298.561
298.702
298.843
298.983
299.122
299.261
299.398
299.533
299.668
299.8
299.931
300.06
300.187
300.312
300.435
300.555
300.672
300.788
300.9
301.01
301.117
301.221
301.323
295.143
295.24
295.341
295.444
295.55
295.659
295.771
295.885
296.002
296.121
296.243
296.367
296.493
296.621
296.752
296.884
297.017
297.153
297.289
297.427
297.566
297.706
297.846
297.987
298.129
298.271
298.412
298.554
298.695
298.836
298.976
299.116
299.254
299.391
299.527
299.662
299.794
299.925
300.055
300.182
300.306
300.429
300.549
300.667
300.782
300.895
301.005
301.112
301.216
301.318
295.13
295.227
295.327
295.43
295.536
295.645
295.756
295.87
295.987
296.106
296.227
296.351
296.477
296.605
296.735
296.867
297.001
297.136
297.272
297.41
297.549
297.688
297.829
297.97
298.112
298.253
298.395
298.537
298.678
298.819
298.96
299.099
299.238
299.375
299.511
299.646
299.779
299.91
300.039
300.167
300.292
300.415
300.535
300.653
300.769
300.881
300.992
301.099
301.204
301.306
295.111
295.208
295.307
295.41
295.516
295.624
295.735
295.849
295.965
296.084
296.205
296.328
296.454
296.582
296.712
296.843
296.977
297.112
297.248
297.386
297.524
297.664
297.804
297.946
298.087
298.229
298.371
298.512
298.654
298.795
298.935
299.075
299.214
299.351
299.488
299.622
299.756
299.887
300.017
300.144
300.27
300.393
300.514
300.632
300.748
300.861
300.972
301.08
301.185
301.287
295.054
295.149
295.248
295.35
295.455
295.562
295.673
295.786
295.901
296.019
296.14
296.263
296.388
296.515
296.644
296.775
296.908
297.043
297.179
297.316
297.455
297.594
297.734
297.875
298.017
298.158
298.3
298.442
298.584
298.725
298.866
299.006
299.145
299.283
299.419
299.554
299.688
299.82
299.95
300.079
300.205
300.328
300.45
300.569
300.686
300.8
300.912
301.021
301.127
301.231
294.938
295.033
295.132
295.233
295.337
295.443
295.553
295.665
295.78
295.898
296.018
296.14
296.264
296.391
296.52
296.651
296.783
296.917
297.053
297.19
297.328
297.468
297.608
297.749
297.89
298.032
298.174
298.315
298.457
298.599
298.739
298.879
299.019
299.157
299.294
299.429
299.563
299.695
299.826
299.954
300.081
300.205
300.327
300.446
300.563
300.678
300.79
300.899
301.005
301.109
294.709
294.804
294.903
295.004
295.108
295.215
295.325
295.438
295.553
295.671
295.791
295.914
296.039
296.166
296.295
296.426
296.559
296.694
296.83
296.968
297.106
297.246
297.387
297.528
297.67
297.812
297.955
298.097
298.24
298.381
298.523
298.663
298.803
298.942
299.079
299.215
299.349
299.482
299.612
299.741
299.868
299.992
300.114
300.233
300.35
300.463
300.574
300.683
300.788
300.89
303.15
303.15
303.151
303.151
303.148
303.146
303.144
303.141
303.139
303.137
303.135
303.132
303.13
303.128
303.126
303.124
303.122
303.12
303.118
303.116
303.114
303.112
303.11
303.108
303.106
303.105
303.103
303.101
303.099
303.097
303.096
303.094
303.092
303.091
303.089
303.087
303.086
303.084
303.082
303.081
303.079
303.078
303.076
303.075
303.073
303.072
303.071
303.069
303.068
303.068
303.15
303.15
303.149
303.149
303.149
303.149
303.149
303.149
303.149
303.149
303.149
303.149
303.149
303.148
303.148
303.148
303.148
303.148
303.148
303.147
303.147
303.147
303.147
303.146
303.146
303.146
303.146
303.146
303.145
303.145
303.145
303.145
303.144
303.144
303.144
303.144
303.143
303.143
303.143
303.143
303.142
303.142
303.142
303.142
303.141
303.141
303.141
303.141
303.141
303.141
303.15
303.15
303.15
303.15
303.15
303.15
303.15
303.15
303.15
303.15
303.15
303.15
303.15
303.15
303.15
303.15
303.15
303.15
303.15
303.15
303.15
303.15
303.15
303.15
303.15
303.15
303.15
303.15
303.15
303.15
303.15
303.15
303.15
303.15
303.15
303.15
303.15
303.15
303.149
303.149
303.149
303.149
303.149
303.149
303.149
303.149
303.149
303.149
303.149
303.149
303.15
303.15
303.15
303.15
303.15
303.15
303.15
303.15
303.15
303.15
303.15
303.15
303.15
303.15
303.15
303.15
303.15
303.15
303.15
303.15
303.15
303.15
303.15
303.15
303.15
303.15
303.15
303.15
303.15
303.15
303.15
303.15
303.15
303.15
303.15
303.15
303.15
303.15
303.15
303.15
303.15
303.15
303.15
303.15
303.15
303.15
303.15
303.15
303.15
303.15
303.15
303.15
303.15
303.15
303.15
303.15
303.15
303.15
303.15
303.15
303.15
303.15
303.15
303.15
303.15
303.15
303.15
303.15
303.15
303.15
303.15
303.15
303.15
303.15
303.15
303.15
303.15
303.15
303.15
303.15
303.15
303.15
303.15
303.15
303.15
303.15
303.15
303.15
303.15
303.15
303.15
303.15
303.15
303.15
303.15
303.15
303.15
303.15
303.15
303.15
303.15
303.15
303.15
303.15
303.15
303.15
303.15
303.15
303.15
303.15
303.15
303.15
303.15
303.15
303.15
303.15
303.15
303.15
303.15
303.15
303.15
303.15
303.15
303.15
303.15
303.15
303.15
303.15
303.15
303.15
303.15
303.15
303.15
303.15
303.15
303.15
303.15
303.15
303.15
303.15
303.15
303.15
303.15
303.15
303.15
303.15
303.15
303.15
303.15
303.15
303.15
303.15
303.15
303.15
303.15
303.15
303.15
303.15
303.15
303.15
303.15
303.15
303.15
303.15
303.15
303.15
303.15
303.15
303.15
303.15
303.15
303.15
303.15
303.15
303.15
303.15
303.15
303.15
303.15
303.15
303.15
303.15
303.15
303.15
303.15
303.15
303.15
303.15
303.15
303.15
303.15
303.15
303.15
303.15
303.15
303.15
303.15
303.15
303.15
303.15
303.15
303.15
303.15
303.15
303.15
303.15
303.15
303.15
303.15
303.15
303.15
303.15
303.15
303.15
303.15
303.15
303.15
303.15
303.15
303.15
303.15
303.15
303.15
303.15
303.15
303.15
303.15
303.15
303.15
303.15
303.15
303.15
303.15
303.15
303.15
303.15
303.15
303.15
303.15
303.15
303.15
303.15
303.15
303.15
303.15
303.15
303.15
303.15
303.15
303.15
303.15
303.15
303.15
303.15
303.15
303.15
303.15
303.15
303.15
303.15
303.15
303.15
303.15
303.15
303.15
303.15
303.15
303.15
303.15
303.15
303.15
303.15
303.15
303.15
303.15
303.15
303.15
303.15
303.15
303.15
303.15
303.15
303.15
303.15
303.15
303.15
303.15
303.15
303.15
303.15
303.15
303.15
303.15
303.15
303.15
303.15
303.15
303.15
303.15
303.15
303.15
303.15
303.15
303.15
303.15
303.15
303.15
303.15
303.15
303.15
303.15
303.15
303.15
303.15
303.15
303.15
303.15
303.15
303.15
303.15
303.15
303.15
303.15
303.15
303.15
303.15
303.15
303.15
303.15
303.15
303.15
303.15
303.15
303.15
303.15
303.15
303.15
303.15
303.15
303.15
303.15
303.15
303.15
303.15
303.15
303.15
303.15
303.15
303.15
303.15
303.15
303.15
303.15
303.15
303.15
303.15
303.15
303.15
303.15
303.15
303.15
303.15
303.15
303.15
303.15
303.15
303.15
303.15
303.15
303.15
303.15
303.15
303.15
303.15
303.15
303.15
303.15
303.15
303.15
303.15
303.15
303.15
303.15
303.15
303.15
303.15
303.15
303.15
303.15
303.15
303.15
303.15
303.15
303.15
303.15
303.15
303.15
303.15
303.15
303.15
303.15
303.15
303.15
303.15
303.15
303.15
303.15
303.15
303.15
303.15
303.15
303.15
303.15
303.15
303.15
303.15
303.15
303.15
303.15
303.15
303.15
303.15
303.15
303.15
303.15
303.15
303.15
303.15
303.15
303.15
303.15
303.15
303.15
303.15
303.15
303.15
303.15
303.15
303.15
303.15
303.15
303.15
303.15
303.15
303.15
303.15
303.15
303.15
303.15
303.15
303.15
303.15
303.15
303.15
303.15
303.15
303.15
303.15
303.15
303.15
303.15
303.15
303.15
303.15
303.15
303.15
303.15
303.15
303.15
303.15
303.15
303.15
303.15
303.15
303.15
303.15
303.15
303.15
303.15
303.15
303.15
303.15
303.15
303.15
303.15
303.15
303.15
303.15
303.15
303.15
303.15
303.15
303.15
303.15
303.15
303.15
303.15
303.15
303.15
303.15
303.15
303.15
303.15
303.15
303.15
303.15
303.15
303.15
303.15
303.15
303.15
303.15
303.15
303.15
303.15
303.15
303.15
303.15
303.15
303.15
303.15
303.15
303.15
303.15
303.15
303.15
303.15
303.15
303.15
303.15
303.15
303.15
303.15
303.15
303.15
303.15
303.15
303.15
303.15
303.15
303.15
303.15
303.15
303.15
303.15
303.15
303.15
303.15
303.15
303.15
303.15
303.15
303.15
303.15
303.15
303.15
303.15
303.15
303.15
303.15
303.15
303.15
303.15
303.15
303.15
303.15
303.15
303.15
303.15
303.15
303.15
303.15
303.15
303.15
303.15
303.15
303.15
303.15
303.15
303.15
303.15
303.15
303.15
303.15
303.15
303.15
303.15
303.15
303.15
303.15
303.15
303.15
303.15
303.15
303.15
303.15
303.15
303.15
303.15
303.15
303.15
303.15
303.15
303.15
303.15
303.15
303.15
303.15
303.15
303.15
303.15
303.15
303.15
303.15
303.15
303.15
303.15
303.15
303.15
303.15
303.15
303.15
303.15
303.15
303.15
303.15
303.15
303.15
303.15
303.15
303.15
303.15
303.15
303.15
303.15
303.15
303.15
303.15
303.15
303.15
303.15
303.15
303.15
303.15
303.15
303.15
303.15
303.15
303.15
303.15
303.15
303.15
303.15
303.15
303.15
303.15
303.15
303.15
303.15
303.15
303.15
303.15
303.15
303.15
303.15
303.15
303.15
303.15
303.15
303.15
303.15
303.15
303.15
303.15
303.15
303.15
303.15
303.15
303.15
303.15
303.15
303.15
303.15
303.15
303.15
303.15
303.15
303.15
303.15
303.15
303.15
303.15
303.15
303.15
303.15
303.15
303.15
303.15
303.15
303.15
303.15
303.15
303.15
303.15
303.15
303.15
303.15
303.15
303.15
303.15
303.15
303.15
303.15
303.15
303.15
303.15
303.15
303.15
303.15
303.15
303.15
303.15
303.15
303.15
303.15
303.15
303.15
303.15
303.15
303.15
303.15
303.15
303.15
303.15
303.15
303.149
303.149
303.149
303.149
303.149
303.149
303.149
303.149
303.149
303.149
303.149
303.149
303.149
303.149
303.148
303.15
303.15
303.149
303.149
303.149
303.149
303.149
303.149
303.149
303.149
303.149
303.149
303.149
303.148
303.148
303.148
303.148
303.148
303.148
303.147
303.147
303.147
303.147
303.146
303.146
303.146
303.146
303.145
303.145
303.145
303.145
303.144
303.144
303.144
303.144
303.143
303.143
303.143
303.142
303.142
303.141
303.141
303.141
303.14
303.14
303.139
303.139
303.138
303.137
303.137
303.15
303.15
303.151
303.151
303.148
303.146
303.144
303.141
303.139
303.137
303.135
303.132
303.13
303.128
303.126
303.124
303.122
303.12
303.118
303.116
303.114
303.112
303.11
303.108
303.106
303.105
303.103
303.101
303.099
303.097
303.096
303.094
303.092
303.09
303.089
303.087
303.085
303.084
303.082
303.081
303.079
303.077
303.076
303.074
303.073
303.071
303.07
303.068
303.067
303.065
302.912
303.084
303.141
303.148
303.151
303.15
303.151
303.15
303.151
303.15
303.151
303.15
303.15
303.151
303.15
303.15
303.147
303.133
303.063
302.865
302.913
303.085
303.141
303.148
303.151
303.15
303.151
303.15
303.151
303.15
303.151
303.15
303.15
303.151
303.15
303.15
303.147
303.133
303.063
302.866
302.914
303.085
303.141
303.148
303.151
303.15
303.151
303.15
303.151
303.15
303.151
303.15
303.15
303.151
303.15
303.15
303.147
303.133
303.064
302.867
302.915
303.086
303.141
303.148
303.151
303.15
303.151
303.15
303.151
303.15
303.151
303.15
303.15
303.151
303.15
303.15
303.147
303.133
303.064
302.868
302.916
303.086
303.141
303.148
303.151
303.15
303.151
303.15
303.151
303.15
303.151
303.15
303.15
303.151
303.15
303.15
303.147
303.133
303.064
302.869
302.916
303.086
303.141
303.148
303.151
303.15
303.151
303.15
303.151
303.15
303.15
303.15
303.15
303.151
303.15
303.15
303.147
303.133
303.065
302.87
302.917
303.087
303.141
303.148
303.151
303.15
303.151
303.15
303.151
303.15
303.15
303.15
303.15
303.151
303.15
303.15
303.147
303.133
303.065
302.871
302.918
303.087
303.142
303.148
303.151
303.15
303.151
303.15
303.151
303.15
303.15
303.15
303.15
303.151
303.15
303.15
303.147
303.134
303.066
302.872
302.919
303.087
303.142
303.148
303.151
303.15
303.151
303.15
303.151
303.15
303.15
303.15
303.15
303.151
303.15
303.15
303.147
303.134
303.066
302.873
302.92
303.088
303.142
303.148
303.151
303.15
303.151
303.15
303.151
303.15
303.15
303.15
303.15
303.151
303.15
303.15
303.147
303.134
303.067
302.874
302.921
303.088
303.142
303.148
303.151
303.15
303.151
303.15
303.151
303.15
303.15
303.15
303.15
303.151
303.15
303.15
303.147
303.134
303.067
302.875
302.921
303.088
303.142
303.148
303.151
303.15
303.151
303.15
303.151
303.15
303.15
303.15
303.15
303.151
303.15
303.15
303.147
303.134
303.067
302.876
302.922
303.089
303.142
303.148
303.151
303.15
303.151
303.15
303.151
303.15
303.15
303.15
303.15
303.151
303.15
303.15
303.147
303.134
303.068
302.877
302.923
303.089
303.142
303.148
303.151
303.15
303.151
303.15
303.151
303.15
303.15
303.15
303.15
303.151
303.15
303.15
303.147
303.134
303.068
302.878
302.924
303.09
303.142
303.148
303.151
303.15
303.151
303.15
303.151
303.15
303.15
303.15
303.15
303.151
303.15
303.15
303.147
303.134
303.069
302.879
302.925
303.09
303.142
303.148
303.151
303.15
303.151
303.15
303.151
303.15
303.15
303.15
303.15
303.151
303.15
303.15
303.147
303.134
303.069
302.88
302.926
303.09
303.142
303.148
303.151
303.15
303.151
303.15
303.151
303.15
303.15
303.15
303.15
303.151
303.15
303.15
303.147
303.135
303.07
302.881
302.926
303.091
303.142
303.148
303.151
303.15
303.151
303.15
303.151
303.15
303.15
303.15
303.15
303.151
303.15
303.15
303.147
303.135
303.07
302.882
302.927
303.091
303.142
303.148
303.151
303.15
303.151
303.15
303.151
303.15
303.15
303.15
303.15
303.151
303.15
303.15
303.147
303.135
303.07
302.883
302.928
303.091
303.143
303.148
303.151
303.15
303.151
303.15
303.151
303.15
303.15
303.15
303.15
303.151
303.15
303.15
303.147
303.135
303.071
302.884
302.929
303.092
303.143
303.148
303.151
303.15
303.151
303.15
303.151
303.15
303.15
303.15
303.15
303.151
303.15
303.15
303.147
303.135
303.071
302.885
302.93
303.092
303.143
303.149
303.151
303.15
303.151
303.15
303.151
303.15
303.15
303.15
303.15
303.151
303.15
303.15
303.147
303.135
303.072
302.886
302.931
303.093
303.143
303.149
303.151
303.15
303.151
303.15
303.151
303.15
303.15
303.15
303.15
303.151
303.15
303.15
303.147
303.135
303.072
302.887
302.932
303.093
303.143
303.149
303.151
303.15
303.151
303.15
303.151
303.15
303.15
303.15
303.15
303.151
303.15
303.15
303.147
303.135
303.073
302.888
302.932
303.093
303.143
303.149
303.151
303.15
303.151
303.15
303.151
303.15
303.15
303.15
303.15
303.151
303.15
303.15
303.147
303.135
303.073
302.889
302.933
303.094
303.143
303.149
303.151
303.15
303.151
303.15
303.151
303.15
303.15
303.15
303.15
303.151
303.15
303.15
303.147
303.135
303.074
302.89
302.934
303.094
303.143
303.149
303.151
303.15
303.151
303.15
303.151
303.15
303.15
303.15
303.15
303.151
303.15
303.15
303.147
303.136
303.074
302.891
302.935
303.094
303.143
303.149
303.151
303.15
303.151
303.15
303.151
303.15
303.15
303.15
303.15
303.151
303.15
303.15
303.147
303.136
303.074
302.892
302.936
303.095
303.143
303.149
303.151
303.15
303.151
303.15
303.151
303.15
303.15
303.15
303.15
303.151
303.15
303.15
303.147
303.136
303.075
302.893
302.937
303.095
303.143
303.149
303.151
303.15
303.151
303.15
303.151
303.15
303.15
303.15
303.15
303.151
303.15
303.15
303.147
303.136
303.075
302.894
302.938
303.095
303.143
303.149
303.151
303.15
303.151
303.15
303.151
303.15
303.15
303.15
303.15
303.151
303.15
303.15
303.147
303.136
303.076
302.895
302.938
303.096
303.143
303.149
303.151
303.15
303.151
303.15
303.151
303.15
303.15
303.15
303.15
303.151
303.15
303.15
303.147
303.136
303.076
302.896
302.939
303.096
303.144
303.149
303.151
303.15
303.151
303.15
303.151
303.15
303.15
303.15
303.15
303.151
303.15
303.15
303.147
303.136
303.077
302.897
302.94
303.097
303.144
303.149
303.151
303.15
303.151
303.15
303.151
303.15
303.15
303.15
303.15
303.151
303.15
303.15
303.147
303.136
303.077
302.898
302.941
303.097
303.144
303.149
303.151
303.15
303.151
303.15
303.151
303.15
303.15
303.15
303.15
303.15
303.15
303.15
303.147
303.136
303.078
302.899
302.942
303.097
303.144
303.149
303.151
303.15
303.151
303.15
303.151
303.15
303.15
303.15
303.15
303.15
303.15
303.15
303.147
303.137
303.078
302.9
302.943
303.098
303.144
303.149
303.151
303.15
303.151
303.15
303.151
303.15
303.15
303.15
303.15
303.15
303.15
303.15
303.148
303.137
303.078
302.901
302.944
303.098
303.144
303.149
303.151
303.15
303.151
303.15
303.151
303.15
303.15
303.15
303.15
303.15
303.15
303.15
303.148
303.137
303.079
302.902
302.945
303.098
303.144
303.149
303.151
303.15
303.151
303.15
303.151
303.15
303.15
303.15
303.15
303.15
303.15
303.15
303.148
303.137
303.079
302.903
302.945
303.099
303.144
303.149
303.151
303.15
303.151
303.15
303.151
303.15
303.15
303.15
303.15
303.15
303.15
303.15
303.148
303.137
303.08
302.904
302.946
303.099
303.144
303.149
303.151
303.15
303.151
303.15
303.151
303.15
303.15
303.15
303.15
303.15
303.15
303.15
303.148
303.137
303.08
302.905
302.947
303.1
303.144
303.149
303.151
303.15
303.151
303.15
303.151
303.15
303.15
303.15
303.15
303.15
303.15
303.15
303.148
303.137
303.081
302.906
302.948
303.1
303.144
303.149
303.151
303.15
303.151
303.15
303.151
303.15
303.15
303.15
303.15
303.15
303.15
303.15
303.148
303.137
303.081
302.907
302.949
303.1
303.144
303.149
303.151
303.15
303.151
303.15
303.15
303.15
303.15
303.15
303.15
303.15
303.15
303.15
303.148
303.137
303.082
302.908
302.95
303.101
303.144
303.149
303.151
303.15
303.151
303.15
303.15
303.15
303.15
303.15
303.15
303.15
303.15
303.15
303.148
303.138
303.082
302.909
302.951
303.101
303.144
303.149
303.151
303.15
303.151
303.15
303.15
303.15
303.15
303.15
303.15
303.15
303.15
303.15
303.148
303.138
303.083
302.91
302.952
303.101
303.145
303.149
303.151
303.15
303.151
303.15
303.15
303.15
303.15
303.15
303.15
303.15
303.15
303.15
303.148
303.138
303.083
302.911
302.952
303.102
303.145
303.149
303.151
303.15
303.151
303.15
303.15
303.15
303.15
303.15
303.15
303.15
303.15
303.15
303.148
303.138
303.083
302.912
302.953
303.102
303.145
303.149
303.151
303.15
303.151
303.15
303.15
303.15
303.15
303.15
303.15
303.15
303.15
303.15
303.148
303.138
303.084
302.914
302.954
303.103
303.145
303.149
303.151
303.15
303.151
303.15
303.15
303.15
303.15
303.15
303.15
303.15
303.15
303.15
303.148
303.138
303.084
302.915
302.955
303.103
303.145
303.149
303.151
303.15
303.151
303.15
303.15
303.15
303.15
303.15
303.15
303.15
303.15
303.15
303.148
303.138
303.085
302.916
302.956
303.103
303.145
303.149
303.151
303.15
303.151
303.15
303.15
303.15
303.15
303.15
303.15
303.15
303.15
303.15
303.148
303.138
303.085
302.917
302.957
303.104
303.145
303.149
303.151
303.15
303.151
303.15
303.15
303.15
303.15
303.15
303.15
303.15
303.15
303.15
303.148
303.138
303.086
302.918
302.958
303.104
303.145
303.149
303.151
303.15
303.151
303.15
303.15
303.15
303.15
303.15
303.15
303.15
303.15
303.15
303.148
303.138
303.086
302.919
302.959
303.104
303.145
303.149
303.151
303.15
303.151
303.15
303.15
303.15
303.15
303.15
303.15
303.15
303.15
303.15
303.148
303.139
303.087
302.92
302.96
303.105
303.145
303.149
303.151
303.15
303.151
303.15
303.15
303.15
303.15
303.15
303.15
303.15
303.15
303.15
303.148
303.139
303.087
302.921
302.961
303.105
303.145
303.149
303.151
303.15
303.151
303.15
303.15
303.15
303.15
303.15
303.15
303.15
303.15
303.15
303.148
303.139
303.087
302.922
302.961
303.106
303.145
303.149
303.151
303.15
303.151
303.15
303.15
303.15
303.15
303.15
303.15
303.15
303.15
303.15
303.148
303.139
303.088
302.923
302.962
303.106
303.145
303.149
303.151
303.15
303.151
303.15
303.15
303.15
303.15
303.15
303.15
303.15
303.15
303.15
303.148
303.139
303.088
302.924
302.963
303.106
303.145
303.149
303.151
303.15
303.151
303.15
303.15
303.15
303.15
303.15
303.15
303.15
303.15
303.15
303.148
303.139
303.089
302.925
302.964
303.107
303.145
303.149
303.151
303.15
303.151
303.15
303.15
303.15
303.15
303.15
303.15
303.15
303.15
303.15
303.148
303.139
303.089
302.927
302.965
303.107
303.146
303.149
303.151
303.15
303.151
303.15
303.15
303.15
303.15
303.15
303.15
303.15
303.15
303.15
303.148
303.139
303.09
302.928
302.966
303.107
303.146
303.149
303.151
303.15
303.151
303.15
303.15
303.15
303.15
303.15
303.15
303.15
303.15
303.15
303.148
303.139
303.09
302.929
302.967
303.108
303.146
303.149
303.151
303.15
303.151
303.15
303.15
303.15
303.15
303.15
303.15
303.15
303.15
303.15
303.148
303.139
303.091
302.93
302.968
303.108
303.146
303.149
303.151
303.15
303.151
303.15
303.15
303.15
303.15
303.15
303.15
303.15
303.15
303.15
303.148
303.14
303.091
302.931
302.969
303.109
303.146
303.149
303.151
303.15
303.151
303.15
303.15
303.15
303.15
303.15
303.15
303.15
303.15
303.15
303.148
303.14
303.092
302.932
302.97
303.109
303.146
303.149
303.151
303.15
303.151
303.15
303.15
303.15
303.15
303.15
303.15
303.15
303.15
303.15
303.148
303.14
303.092
302.933
302.971
303.109
303.146
303.149
303.151
303.15
303.151
303.15
303.15
303.15
303.15
303.15
303.15
303.15
303.15
303.15
303.148
303.14
303.092
302.934
302.972
303.11
303.146
303.149
303.151
303.15
303.151
303.15
303.15
303.15
303.15
303.15
303.15
303.15
303.15
303.15
303.148
303.14
303.093
302.935
302.973
303.11
303.146
303.149
303.151
303.15
303.151
303.15
303.15
303.15
303.15
303.15
303.15
303.15
303.15
303.15
303.148
303.14
303.093
302.937
302.973
303.11
303.146
303.149
303.151
303.15
303.15
303.15
303.15
303.15
303.15
303.15
303.15
303.15
303.15
303.15
303.148
303.14
303.094
302.938
302.974
303.111
303.146
303.149
303.151
303.15
303.15
303.15
303.15
303.15
303.15
303.15
303.15
303.15
303.15
303.15
303.148
303.14
303.094
302.939
302.975
303.111
303.146
303.149
303.151
303.15
303.15
303.15
303.15
303.15
303.15
303.15
303.15
303.15
303.15
303.15
303.148
303.14
303.095
302.94
302.976
303.112
303.146
303.149
303.151
303.15
303.15
303.15
303.15
303.15
303.15
303.15
303.15
303.15
303.15
303.15
303.148
303.14
303.095
302.941
302.977
303.112
303.146
303.149
303.151
303.15
303.15
303.15
303.15
303.15
303.15
303.15
303.15
303.15
303.15
303.15
303.148
303.14
303.096
302.942
302.978
303.112
303.146
303.149
303.151
303.15
303.15
303.15
303.15
303.15
303.15
303.15
303.15
303.15
303.15
303.15
303.148
303.141
303.096
302.944
302.979
303.113
303.146
303.149
303.151
303.15
303.15
303.15
303.15
303.15
303.15
303.15
303.15
303.15
303.15
303.15
303.148
303.141
303.096
302.945
302.98
303.113
303.147
303.149
303.151
303.15
303.15
303.15
303.15
303.15
303.15
303.15
303.15
303.15
303.15
303.15
303.148
303.141
303.097
302.946
302.981
303.113
303.147
303.149
303.151
303.15
303.15
303.15
303.15
303.15
303.15
303.15
303.15
303.15
303.15
303.15
303.148
303.141
303.097
302.947
302.982
303.114
303.147
303.149
303.151
303.15
303.15
303.15
303.15
303.15
303.15
303.15
303.15
303.15
303.15
303.15
303.148
303.141
303.098
302.948
302.983
303.114
303.147
303.149
303.151
303.15
303.15
303.15
303.15
303.15
303.15
303.15
303.15
303.15
303.15
303.15
303.148
303.141
303.098
302.949
302.984
303.115
303.147
303.149
303.151
303.15
303.15
303.15
303.15
303.15
303.15
303.15
303.15
303.15
303.15
303.15
303.148
303.141
303.099
302.951
302.985
303.115
303.147
303.149
303.151
303.15
303.15
303.15
303.15
303.15
303.15
303.15
303.15
303.15
303.15
303.15
303.148
303.141
303.099
302.952
302.986
303.115
303.147
303.149
303.151
303.15
303.15
303.15
303.15
303.15
303.15
303.15
303.15
303.15
303.15
303.15
303.148
303.141
303.1
302.953
302.987
303.116
303.147
303.149
303.151
303.15
303.15
303.15
303.15
303.15
303.15
303.15
303.15
303.15
303.15
303.15
303.148
303.141
303.1
302.954
302.988
303.116
303.147
303.149
303.151
303.15
303.15
303.15
303.15
303.15
303.15
303.15
303.15
303.15
303.15
303.15
303.148
303.141
303.101
302.955
302.989
303.116
303.147
303.149
303.151
303.15
303.15
303.15
303.15
303.15
303.15
303.15
303.15
303.15
303.15
303.15
303.148
303.142
303.101
302.956
302.99
303.117
303.147
303.149
303.151
303.15
303.15
303.15
303.15
303.15
303.15
303.15
303.15
303.15
303.15
303.15
303.148
303.142
303.101
302.958
302.991
303.117
303.147
303.149
303.151
303.15
303.15
303.15
303.15
303.15
303.15
303.15
303.15
303.15
303.15
303.15
303.148
303.142
303.102
302.959
302.992
303.118
303.147
303.149
303.151
303.15
303.15
303.15
303.15
303.15
303.15
303.15
303.15
303.15
303.15
303.15
303.149
303.142
303.102
302.96
302.993
303.118
303.147
303.149
303.15
303.15
303.15
303.15
303.15
303.15
303.15
303.15
303.15
303.15
303.15
303.15
303.149
303.142
303.103
302.961
302.994
303.118
303.147
303.149
303.15
303.15
303.15
303.15
303.15
303.15
303.15
303.15
303.15
303.15
303.15
303.15
303.149
303.142
303.103
302.963
302.994
303.119
303.147
303.149
303.15
303.15
303.15
303.15
303.15
303.15
303.15
303.15
303.15
303.15
303.15
303.15
303.149
303.142
303.104
302.964
302.995
303.119
303.147
303.149
303.15
303.15
303.15
303.15
303.15
303.15
303.15
303.15
303.15
303.15
303.15
303.15
303.149
303.142
303.104
302.965
302.996
303.12
303.147
303.15
303.15
303.15
303.15
303.15
303.15
303.15
303.15
303.15
303.15
303.15
303.15
303.15
303.149
303.142