/*--------------------------------*- C++ -*----------------------------------*\
  =========                 |
  \\      /  F ield         | OpenFOAM: The Open Source CFD Toolbox
   \\    /   O peration     | Website:  https://openfoam.org
    \\  /    A nd           | Version:  8
     \\/     M anipulation  |
\*---------------------------------------------------------------------------*/
FoamFile
{
    version     2.0;
    format      ascii;
    class       volVectorField;
    location    "400";
    object      U;
}
// * * * * * * * * * * * * * * * * * * * * * * * * * * * * * * * * * * * * * //

dimensions      [0 1 -1 0 0 0 0];

internalField   nonuniform List<vector> 
8400
(
(-13.7046 -0.0751188 -5.80191e-16)
(-13.7084 -0.0758731 -5.8243e-16)
(-13.7115 -0.0768161 -5.84438e-16)
(-13.7148 -0.0778402 -5.90458e-16)
(-13.718 -0.0789115 -5.93798e-16)
(-13.7213 -0.08002 -5.924e-16)
(-13.7246 -0.0811633 -5.93377e-16)
(-13.7279 -0.0823415 -5.94554e-16)
(-13.7311 -0.0835557 -5.96166e-16)
(-13.7344 -0.0848079 -6.01398e-16)
(-13.7376 -0.0861003 -6.03613e-16)
(-13.7407 -0.0874355 -6.01789e-16)
(-13.7439 -0.0888165 -6.0241e-16)
(-13.7469 -0.0902468 -6.03365e-16)
(-13.7499 -0.0917299 -6.06353e-16)
(-13.7528 -0.0932701 -6.12394e-16)
(-13.7557 -0.0948721 -6.1053e-16)
(-13.7584 -0.0965411 -6.08812e-16)
(-13.7609 -0.0982829 -6.09412e-16)
(-13.7634 -0.100104 -6.10323e-16)
(-13.7656 -0.102013 -6.11555e-16)
(-13.7676 -0.104017 -6.12876e-16)
(-13.7694 -0.106125 -6.14246e-16)
(-13.7708 -0.10835 -6.15619e-16)
(-13.772 -0.110705 -6.16852e-16)
(-13.7727 -0.11321 -6.18377e-16)
(-13.773 -0.115891 -6.15948e-16)
(-13.7727 -0.11877 -6.15756e-16)
(-13.7717 -0.121859 -6.20226e-16)
(-13.7699 -0.125182 -6.22558e-16)
(-13.7671 -0.128766 -6.24707e-16)
(-13.7634 -0.132643 -6.26979e-16)
(-13.7583 -0.136849 -6.2513e-16)
(-13.7518 -0.14143 -6.25713e-16)
(-13.7437 -0.146435 -6.31057e-16)
(-13.7336 -0.151925 -6.34311e-16)
(-13.7212 -0.157971 -6.37466e-16)
(-13.7062 -0.164659 -6.40659e-16)
(-13.6882 -0.172093 -6.43932e-16)
(-13.6667 -0.1804 -6.46212e-16)
(-13.641 -0.189741 -6.49431e-16)
(-13.6104 -0.200317 -6.5039e-16)
(-13.5741 -0.212393 -6.53747e-16)
(-13.531 -0.226323 -6.62075e-16)
(-13.4796 -0.242609 -6.68712e-16)
(-13.4184 -0.261967 -6.74671e-16)
(-13.3458 -0.285372 -6.77538e-16)
(-13.2583 -0.314159 -6.84853e-16)
(-13.1461 -0.350885 -7.01385e-16)
(-12.9977 -0.401458 -7.18047e-16)
(-15.6908 0.0786614 -4.3882e-17)
(-15.6948 0.0796643 -4.35352e-17)
(-15.6976 0.0806702 -4.32207e-17)
(-15.7004 0.081695 -4.6267e-17)
(-15.7032 0.082726 -4.80201e-17)
(-15.706 0.083766 -4.63175e-17)
(-15.7089 0.0848183 -4.48027e-17)
(-15.7117 0.0858859 -4.29601e-17)
(-15.7145 0.0869708 -4.38364e-17)
(-15.7173 0.0880747 -4.78064e-17)
(-15.72 0.0891985 -4.86527e-17)
(-15.7227 0.0903432 -4.58451e-17)
(-15.7254 0.0915092 -4.25271e-17)
(-15.7281 0.0926971 -3.74621e-17)
(-15.7306 0.0939069 -4.0788e-17)
(-15.7331 0.0951386 -5.53096e-17)
(-15.7355 0.096392 -5.55807e-17)
(-15.7379 0.0976666 -5.25934e-17)
(-15.7401 0.0989615 -4.96233e-17)
(-15.7421 0.100275 -4.6809e-17)
(-15.744 0.101606 -4.40423e-17)
(-15.7457 0.102952 -4.12647e-17)
(-15.7471 0.10431 -3.84285e-17)
(-15.7483 0.105675 -3.55157e-17)
(-15.7492 0.107037 -3.25733e-17)
(-15.7498 0.108382 -3.00506e-17)
(-15.7499 0.109699 -2.55751e-17)
(-15.7496 0.110989 -2.10363e-17)
(-15.7488 0.112249 -1.82756e-17)
(-15.7473 0.113467 -1.54304e-17)
(-15.7453 0.114632 -1.22017e-17)
(-15.7424 0.115727 -8.78109e-18)
(-15.7386 0.116732 -2.71097e-18)
(-15.7338 0.117624 2.67389e-18)
(-15.7277 0.118376 5.48679e-18)
(-15.7203 0.118952 9.24771e-18)
(-15.7112 0.119311 1.34333e-17)
(-15.7002 0.119405 1.78312e-17)
(-15.6871 0.11917 2.47621e-17)
(-15.6715 0.118529 3.01383e-17)
(-15.653 0.117379 3.33995e-17)
(-15.6311 0.115585 4.13089e-17)
(-15.6053 0.112967 4.8625e-17)
(-15.575 0.109261 5.33618e-17)
(-15.5395 0.104057 6.16162e-17)
(-15.498 0.0967285 6.85587e-17)
(-15.4499 0.0864341 7.61144e-17)
(-15.3939 0.0720512 8.57806e-17)
(-15.3262 0.0509803 9.27313e-17)
(-15.2421 0.0161701 9.89808e-17)
(-16.0894 -0.0660108 -3.92702e-16)
(-16.0884 -0.0664406 -3.92828e-16)
(-16.0879 -0.0671629 -3.92874e-16)
(-16.0876 -0.0680022 -3.94752e-16)
(-16.0873 -0.0689084 -3.95856e-16)
(-16.087 -0.0698618 -3.94456e-16)
(-16.0867 -0.0708548 -3.93391e-16)
(-16.0864 -0.0718849 -3.92536e-16)
(-16.0861 -0.0729517 -3.91829e-16)
(-16.0858 -0.074056 -3.92893e-16)
(-16.0854 -0.0752 -3.93086e-16)
(-16.085 -0.076386 -3.90734e-16)
(-16.0845 -0.0776175 -3.88469e-16)
(-16.084 -0.0788983 -3.85894e-16)
(-16.0834 -0.080233 -3.83347e-16)
(-16.0828 -0.0816269 -3.83914e-16)
(-16.082 -0.083086 -3.83889e-16)
(-16.0812 -0.0846171 -3.81822e-16)
(-16.0802 -0.0862283 -3.79777e-16)
(-16.0791 -0.0879288 -3.77857e-16)
(-16.0778 -0.0897297 -3.75979e-16)
(-16.0763 -0.0916436 -3.74085e-16)
(-16.0747 -0.0936843 -3.72131e-16)
(-16.0727 -0.0958725 -3.70125e-16)
(-16.0704 -0.098224 -3.68061e-16)
(-16.0678 -0.100758 -3.66047e-16)
(-16.0648 -0.103502 -3.62068e-16)
(-16.0613 -0.106491 -3.58554e-16)
(-16.0573 -0.109759 -3.57341e-16)
(-16.0526 -0.113345 -3.55769e-16)
(-16.0472 -0.117292 -3.53958e-16)
(-16.041 -0.121653 -3.52114e-16)
(-16.0339 -0.126484 -3.48293e-16)
(-16.0256 -0.131852 -3.44954e-16)
(-16.016 -0.137836 -3.43995e-16)
(-16.005 -0.144525 -3.42775e-16)
(-15.9922 -0.152023 -3.41445e-16)
(-15.9775 -0.160451 -3.40116e-16)
(-15.9604 -0.169949 -3.38843e-16)
(-15.9407 -0.180683 -3.36771e-16)
(-15.9179 -0.192851 -3.35573e-16)
(-15.8916 -0.206683 -3.34008e-16)
(-15.8611 -0.222463 -3.33107e-16)
(-15.8259 -0.240538 -3.35012e-16)
(-15.7851 -0.261366 -3.3701e-16)
(-15.7382 -0.285543 -3.3859e-16)
(-15.6843 -0.313749 -3.39374e-16)
(-15.6226 -0.346734 -3.4254e-16)
(-15.5511 -0.385965 -3.50843e-16)
(-15.4685 -0.435166 -3.60467e-16)
(-16.5383 0.0694096 8.73037e-17)
(-16.5402 0.070021 8.76759e-17)
(-16.5406 0.0707428 8.80355e-17)
(-16.5409 0.0714959 8.66304e-17)
(-16.5411 0.0722476 8.57836e-17)
(-16.5413 0.0729908 8.71716e-17)
(-16.5415 0.0737243 8.82193e-17)
(-16.5417 0.0744482 8.90403e-17)
(-16.5419 0.075162 8.97552e-17)
(-16.542 0.0758647 8.87975e-17)
(-16.5422 0.0765547 8.86217e-17)
(-16.5423 0.0772294 9.07954e-17)
(-16.5424 0.0778857 9.28595e-17)
(-16.5424 0.0785195 9.45499e-17)
(-16.5425 0.0791259 9.55194e-17)
(-16.5424 0.0796991 9.55136e-17)
(-16.5423 0.0802323 9.59455e-17)
(-16.5422 0.0807175 9.84382e-17)
(-16.5419 0.0811452 1.00675e-16)
(-16.5415 0.0815033 1.02733e-16)
(-16.541 0.0817775 1.04695e-16)
(-16.5404 0.081955 1.06602e-16)
(-16.5396 0.082016 1.08485e-16)
(-16.5386 0.0819463 1.10373e-16)
(-16.5374 0.0817252 1.1227e-16)
(-16.5359 0.0813289 1.14072e-16)
(-16.5342 0.0807304 1.17711e-16)
(-16.5322 0.0798966 1.20878e-16)
(-16.5297 0.0787877 1.21821e-16)
(-16.5269 0.0773579 1.23079e-16)
(-16.5235 0.0755541 1.24569e-16)
(-16.5195 0.0733147 1.26088e-16)
(-16.5149 0.0705677 1.295e-16)
(-16.5094 0.0672296 1.32489e-16)
(-16.5031 0.0632023 1.3323e-16)
(-16.4956 0.0583713 1.34191e-16)
(-16.487 0.052602 1.3528e-16)
(-16.4769 0.0457353 1.36225e-16)
(-16.4652 0.0375834 1.38888e-16)
(-16.4516 0.027922 1.39932e-16)
(-16.4358 0.0164828 1.3874e-16)
(-16.4176 0.00294212 1.40676e-16)
(-16.3965 -0.0130923 1.41876e-16)
(-16.3722 -0.0321048 1.40173e-16)
(-16.3443 -0.0547027 1.39972e-16)
(-16.3122 -0.0816336 1.37586e-16)
(-16.2759 -0.113762 1.34399e-16)
(-16.2347 -0.152086 1.31533e-16)
(-16.1881 -0.198 1.25006e-16)
(-16.1356 -0.253657 1.17646e-16)
(-16.3907 -0.0552066 3.79326e-16)
(-16.3883 -0.0556387 3.80612e-16)
(-16.3874 -0.0561895 3.81892e-16)
(-16.3867 -0.0567966 3.8133e-16)
(-16.3861 -0.0574385 3.81233e-16)
(-16.3855 -0.0581078 3.8329e-16)
(-16.3849 -0.058802 3.84963e-16)
(-16.3843 -0.0595201 3.86292e-16)
(-16.3837 -0.0602621 3.8745e-16)
(-16.383 -0.061029 3.86821e-16)
(-16.3824 -0.061822 3.86726e-16)
(-16.3817 -0.0626432 3.88937e-16)
(-16.381 -0.0634954 3.91034e-16)
(-16.3803 -0.0643819 3.93065e-16)
(-16.3795 -0.0653071 3.9508e-16)
(-16.3786 -0.0662758 3.9509e-16)
(-16.3777 -0.0672941 3.95407e-16)
(-16.3768 -0.0683685 3.98015e-16)
(-16.3757 -0.0695098 4.00155e-16)
(-16.3745 -0.0707269 4.02077e-16)
(-16.3732 -0.0720297 4.03883e-16)
(-16.3718 -0.0734365 4.05643e-16)
(-16.3702 -0.074965 4.07411e-16)
(-16.3684 -0.076637 4.0921e-16)
(-16.3664 -0.0784781 4.11066e-16)
(-16.3641 -0.0805163 4.12884e-16)
(-16.3614 -0.0827837 4.16609e-16)
(-16.3585 -0.0853182 4.19952e-16)
(-16.3551 -0.0881628 4.21164e-16)
(-16.3512 -0.0913677 4.22795e-16)
(-16.3468 -0.0949907 4.24794e-16)
(-16.3418 -0.0990989 4.2698e-16)
(-16.336 -0.10377 4.31256e-16)
(-16.3294 -0.109094 4.35268e-16)
(-16.3218 -0.115175 4.37229e-16)
(-16.313 -0.122135 4.39736e-16)
(-16.303 -0.130115 4.42707e-16)
(-16.2915 -0.139281 4.46086e-16)
(-16.2783 -0.149824 4.4991e-16)
(-16.2631 -0.161972 4.55143e-16)
(-16.2457 -0.175991 4.60191e-16)
(-16.2257 -0.192199 4.66388e-16)
(-16.2028 -0.210975 4.73004e-16)
(-16.1767 -0.232779 4.77973e-16)
(-16.1469 -0.258176 4.84158e-16)
(-16.113 -0.287851 4.92373e-16)
(-16.0749 -0.322612 5.03269e-16)
(-16.0322 -0.363447 5.14345e-16)
(-15.9844 -0.411674 5.2309e-16)
(-15.9311 -0.469043 5.34217e-16)
(-16.5374 0.0534291 2.49245e-17)
(-16.5396 0.0537449 2.5143e-17)
(-16.54 0.0541365 2.5404e-17)
(-16.5401 0.05454 2.38636e-17)
(-16.5401 0.05493 2.28035e-17)
(-16.54 0.0552975 2.39582e-17)
(-16.5399 0.0556382 2.47539e-17)
(-16.5399 0.0559489 2.52037e-17)
(-16.5398 0.0562265 2.54943e-17)
(-16.5397 0.0564671 2.38977e-17)
(-16.5396 0.0566664 2.29586e-17)
(-16.5395 0.056819 2.4286e-17)
(-16.5394 0.0569184 2.53837e-17)
(-16.5392 0.0569573 2.63231e-17)
(-16.539 0.0569265 2.7375e-17)
(-16.5388 0.0568156 2.6438e-17)
(-16.5385 0.0566141 2.61063e-17)
(-16.5382 0.0563081 2.77198e-17)
(-16.5378 0.0558852 2.89895e-17)
(-16.5374 0.0553289 3.00419e-17)
(-16.5368 0.0546202 3.09433e-17)
(-16.5362 0.0537385 3.17768e-17)
(-16.5354 0.0526605 3.2555e-17)
(-16.5345 0.0513586 3.33224e-17)
(-16.5334 0.0498005 3.40699e-17)
(-16.5322 0.0479489 3.47203e-17)
(-16.5307 0.0457608 3.71584e-17)
(-16.529 0.0431867 3.9092e-17)
(-16.5269 0.0401694 3.8781e-17)
(-16.5245 0.0366434 3.87963e-17)
(-16.5218 0.0325333 3.90273e-17)
(-16.5185 0.0277525 3.92976e-17)
(-16.5147 0.0222018 4.14833e-17)
(-16.5103 0.015767 4.32434e-17)
(-16.5051 0.008317 4.27173e-17)
(-16.4992 -0.000298803 4.24731e-17)
(-16.4922 -0.0102535 4.23706e-17)
(-16.4842 -0.021746 4.21802e-17)
(-16.4748 -0.0350044 4.37187e-17)
(-16.464 -0.0502903 4.37278e-17)
(-16.4516 -0.0679034 4.16126e-17)
(-16.4373 -0.0881863 4.27056e-17)
(-16.4208 -0.111531 4.31355e-17)
(-16.402 -0.138385 4.07592e-17)
(-16.3807 -0.169258 3.99931e-17)
(-16.3565 -0.204717 3.69831e-17)
(-16.3296 -0.24538 3.34003e-17)
(-16.2998 -0.291914 3.04716e-17)
(-16.2672 -0.345092 2.41807e-17)
(-16.2317 -0.405825 1.52878e-17)
(-16.4541 -0.0401566 1.74624e-16)
(-16.4513 -0.0404307 1.74908e-16)
(-16.4504 -0.0407559 1.75209e-16)
(-16.4498 -0.0411056 1.73593e-16)
(-16.4493 -0.0414712 1.72423e-16)
(-16.4489 -0.0418507 1.73507e-16)
(-16.4485 -0.0422439 1.74247e-16)
(-16.4481 -0.0426511 1.7473e-16)
(-16.4476 -0.0430734 1.75079e-16)
(-16.4472 -0.0435119 1.73425e-16)
(-16.4467 -0.0439687 1.72096e-16)
(-16.4463 -0.0444459 1.72966e-16)
(-16.4458 -0.0449467 1.73718e-16)
(-16.4453 -0.0454761 1.74299e-16)
(-16.4448 -0.0460388 1.74778e-16)
(-16.4442 -0.0466403 1.7353e-16)
(-16.4437 -0.0472902 1.72664e-16)
(-16.443 -0.0479982 1.74006e-16)
(-16.4423 -0.0487763 1.75033e-16)
(-16.4416 -0.0496389 1.75823e-16)
(-16.4407 -0.0506027 1.76496e-16)
(-16.4398 -0.0516874 1.77097e-16)
(-16.4387 -0.0529154 1.77688e-16)
(-16.4375 -0.0543129 1.78285e-16)
(-16.4362 -0.0559104 1.7892e-16)
(-16.4347 -0.0577434 1.79502e-16)
(-16.433 -0.0598535 1.81972e-16)
(-16.4311 -0.0622892 1.84039e-16)
(-16.4289 -0.0651073 1.83967e-16)
(-16.4263 -0.0683738 1.84339e-16)
(-16.4235 -0.0721656 1.85103e-16)
(-16.4202 -0.0765718 1.86095e-16)
(-16.4164 -0.0816964 1.89229e-16)
(-16.412 -0.0876598 1.92181e-16)
(-16.407 -0.0946015 1.93181e-16)
(-16.4013 -0.102684 1.94826e-16)
(-16.3946 -0.112094 1.97077e-16)
(-16.387 -0.123049 1.99869e-16)
(-16.3783 -0.1358 2.03275e-16)
(-16.3683 -0.150635 2.07395e-16)
(-16.3568 -0.167888 2.12911e-16)
(-16.3436 -0.187939 2.20622e-16)
(-16.3285 -0.211223 2.27738e-16)
(-16.3112 -0.238235 2.3459e-16)
(-16.2917 -0.269531 2.42764e-16)
(-16.2696 -0.305724 2.51394e-16)
(-16.2448 -0.347473 2.64017e-16)
(-16.2172 -0.39546 2.78927e-16)
(-16.1868 -0.450382 2.93383e-16)
(-16.1532 -0.512972 3.10615e-16)
(-16.5108 0.0339606 -2.13011e-16)
(-16.5133 0.0340678 -2.12996e-16)
(-16.5137 0.0341921 -2.12911e-16)
(-16.5137 0.0343047 -2.14915e-16)
(-16.5136 0.0343934 -2.16429e-16)
(-16.5135 0.0344526 -2.15492e-16)
(-16.5133 0.0344781 -2.14912e-16)
(-16.5132 0.034466 -2.14553e-16)
(-16.5131 0.0344121 -2.14343e-16)
(-16.5129 0.0343116 -2.16108e-16)
(-16.5128 0.0341597 -2.17728e-16)
(-16.5126 0.0339497 -2.17133e-16)
(-16.5124 0.0336739 -2.16777e-16)
(-16.5123 0.0333252 -2.1704e-16)
(-16.5121 0.0328941 -2.17099e-16)
(-16.5118 0.0323696 -2.18864e-16)
(-16.5116 0.0317399 -2.20289e-16)
(-16.5113 0.0309913 -2.19585e-16)
(-16.511 0.030108 -2.19303e-16)
(-16.5106 0.0290716 -2.19331e-16)
(-16.5102 0.0278608 -2.19591e-16)
(-16.5097 0.0264508 -2.20018e-16)
(-16.5092 0.0248135 -2.20587e-16)
(-16.5085 0.0229165 -2.21274e-16)
(-16.5078 0.0207224 -2.22074e-16)
(-16.5069 0.0181886 -2.23087e-16)
(-16.5059 0.015266 -2.22381e-16)
(-16.5047 0.0118984 -2.22297e-16)
(-16.5033 0.00802096 -2.24591e-16)
(-16.5017 0.0035595 -2.26684e-16)
(-16.4999 -0.00157123 -2.28671e-16)
(-16.4978 -0.00746891 -2.30768e-16)
(-16.4953 -0.0142455 -2.31061e-16)
(-16.4924 -0.0220291 -2.31981e-16)
(-16.4891 -0.0309667 -2.35376e-16)
(-16.4852 -0.0412261 -2.38683e-16)
(-16.4808 -0.0529994 -2.42049e-16)
(-16.4756 -0.0665058 -2.45631e-16)
(-16.4697 -0.0819946 -2.49633e-16)
(-16.4628 -0.0997489 -2.51263e-16)
(-16.455 -0.120088 -2.55519e-16)
(-16.4459 -0.143372 -2.61615e-16)
(-16.4356 -0.170002 -2.65143e-16)
(-16.4239 -0.200422 -2.73235e-16)
(-16.4105 -0.235116 -2.83825e-16)
(-16.3955 -0.274601 -2.93291e-16)
(-16.3788 -0.319413 -3.02827e-16)
(-16.3604 -0.370072 -3.13442e-16)
(-16.3402 -0.427064 -3.29812e-16)
(-16.318 -0.490863 -3.50581e-16)
(-16.4768 -0.0228447 1.40163e-16)
(-16.4739 -0.0229727 1.41921e-16)
(-16.473 -0.0231151 1.438e-16)
(-16.4726 -0.0232703 1.43645e-16)
(-16.4722 -0.0234383 1.43799e-16)
(-16.4719 -0.0236199 1.46354e-16)
(-16.4717 -0.0238164 1.4868e-16)
(-16.4714 -0.0240294 1.50808e-16)
(-16.4711 -0.0242609 1.52891e-16)
(-16.4708 -0.0245134 1.53042e-16)
(-16.4706 -0.024791 1.53353e-16)
(-16.4703 -0.0250979 1.55899e-16)
(-16.47 -0.0254392 1.58072e-16)
(-16.4697 -0.0258214 1.59961e-16)
(-16.4695 -0.0262523 1.62022e-16)
(-16.4692 -0.0267409 1.6212e-16)
(-16.4689 -0.027298 1.62629e-16)
(-16.4686 -0.0279362 1.65342e-16)
(-16.4682 -0.0286698 1.67655e-16)
(-16.4679 -0.0295158 1.69685e-16)
(-16.4675 -0.0304941 1.71526e-16)
(-16.4671 -0.0316278 1.73234e-16)
(-16.4666 -0.0329438 1.74856e-16)
(-16.4661 -0.0344735 1.76409e-16)
(-16.4655 -0.0362533 1.7792e-16)
(-16.4648 -0.0383257 1.79288e-16)
(-16.4641 -0.0407399 1.8247e-16)
(-16.4632 -0.0435534 1.85131e-16)
(-16.4623 -0.046833 1.85557e-16)
(-16.4612 -0.0506561 1.86323e-16)
(-16.4599 -0.0551127 1.87374e-16)
(-16.4585 -0.0603069 1.88524e-16)
(-16.4568 -0.0663589 1.91707e-16)
(-16.4548 -0.0734079 1.94532e-16)
(-16.4526 -0.081614 1.95231e-16)
(-16.45 -0.0911618 1.96456e-16)
(-16.447 -0.102263 1.98108e-16)
(-16.4435 -0.115161 2.00006e-16)
(-16.4395 -0.130133 2.04076e-16)
(-16.4348 -0.147491 2.07137e-16)
(-16.4295 -0.167591 2.08654e-16)
(-16.4233 -0.190829 2.14053e-16)
(-16.4161 -0.217645 2.19872e-16)
(-16.4079 -0.248518 2.24182e-16)
(-16.3986 -0.283965 2.31543e-16)
(-16.3879 -0.32453 2.3836e-16)
(-16.3758 -0.370762 2.46562e-16)
(-16.3623 -0.423182 2.58161e-16)
(-16.3472 -0.482256 2.69808e-16)
(-16.3303 -0.548426 2.85414e-16)
(-16.4851 0.0132895 -1.20504e-16)
(-16.4876 0.013248 -1.19346e-16)
(-16.488 0.0131871 -1.18074e-16)
(-16.488 0.0131042 -1.18729e-16)
(-16.4878 0.0129976 -1.19004e-16)
(-16.4877 0.0128655 -1.1684e-16)
(-16.4876 0.0127056 -1.14889e-16)
(-16.4874 0.0125151 -1.13099e-16)
(-16.4873 0.0122906 -1.11219e-16)
(-16.4871 0.0120283 -1.11241e-16)
(-16.487 0.0117237 -1.10969e-16)
(-16.4868 0.0113713 -1.08587e-16)
(-16.4867 0.0109649 -1.06517e-16)
(-16.4865 0.0104973 -1.04658e-16)
(-16.4864 0.00995962 -1.02809e-16)
(-16.4862 0.00934186 -1.0295e-16)
(-16.4861 0.00863221 -1.0265e-16)
(-16.4859 0.00781696 -1.00192e-16)
(-16.4857 0.00688023 -9.81522e-17)
(-16.4855 0.00580352 -9.64348e-17)
(-16.4853 0.00456534 -9.49533e-17)
(-16.4851 0.00314085 -9.36537e-17)
(-16.4849 0.00150124 -9.25237e-17)
(-16.4846 -0.000386732 -9.15298e-17)
(-16.4843 -0.0025614 -9.07001e-17)
(-16.484 -0.00506708 -9.01063e-17)
(-16.4836 -0.00795499 -8.78727e-17)
(-16.4832 -0.0112842 -8.63076e-17)
(-16.4827 -0.0151231 -8.7199e-17)
(-16.4821 -0.0195505 -8.79262e-17)
(-16.4815 -0.0246572 -8.86508e-17)
(-16.4808 -0.0305482 -8.95408e-17)
(-16.48 -0.0373439 -8.87636e-17)
(-16.479 -0.0451829 -8.87107e-17)
(-16.4779 -0.0542245 -9.12631e-17)
(-16.4767 -0.0646511 -9.38027e-17)
(-16.4753 -0.0766718 -9.65352e-17)
(-16.4737 -0.0905254 -9.96347e-17)
(-16.4718 -0.106483 -1.03164e-16)
(-16.4696 -0.124852 -1.06237e-16)
(-16.4671 -0.145977 -1.10757e-16)
(-16.4641 -0.170245 -1.15455e-16)
(-16.4607 -0.198079 -1.21354e-16)
(-16.4568 -0.229944 -1.31006e-16)
(-16.4522 -0.266332 -1.4174e-16)
(-16.4468 -0.307756 -1.5335e-16)
(-16.4406 -0.354728 -1.65752e-16)
(-16.4334 -0.407714 -1.82322e-16)
(-16.425 -0.467109 -2.06937e-16)
(-16.4152 -0.533252 -2.36478e-16)
(-16.4885 -0.005057 2.55935e-16)
(-16.4858 -0.00506924 2.58315e-16)
(-16.4851 -0.00508146 2.60717e-16)
(-16.4847 -0.00510628 2.61229e-16)
(-16.4845 -0.00514882 2.62242e-16)
(-16.4843 -0.00521194 2.65642e-16)
(-16.4841 -0.00529825 2.68906e-16)
(-16.484 -0.00541076 2.72068e-16)
(-16.4839 -0.00555302 2.75311e-16)
(-16.4837 -0.00572935 2.76662e-16)
(-16.4836 -0.00594483 2.78471e-16)
(-16.4835 -0.00620539 2.82539e-16)
(-16.4834 -0.00651796 2.86336e-16)
(-16.4834 -0.00689057 2.90013e-16)
(-16.4833 -0.00733252 2.93708e-16)
(-16.4833 -0.00785465 2.95551e-16)
(-16.4833 -0.00846938 2.97902e-16)
(-16.4832 -0.00919101 3.02529e-16)
(-16.4833 -0.0100361 3.06842e-16)
(-16.4833 -0.0110238 3.10963e-16)
(-16.4833 -0.0121761 3.14987e-16)
(-16.4834 -0.0135186 3.18961e-16)
(-16.4835 -0.0150807 3.22951e-16)
(-16.4836 -0.0168964 3.26945e-16)
(-16.4838 -0.0190048 3.31014e-16)
(-16.484 -0.0214512 3.3501e-16)
(-16.4842 -0.0242876 3.40984e-16)
(-16.4844 -0.0275743 3.46493e-16)
(-16.4847 -0.0313808 3.49895e-16)
(-16.485 -0.0357874 3.5376e-16)
(-16.4854 -0.0408867 3.58119e-16)
(-16.4858 -0.0467857 3.62709e-16)
(-16.4863 -0.0536074 3.6963e-16)
(-16.4868 -0.0614935 3.76401e-16)
(-16.4874 -0.0706072 3.81394e-16)
(-16.4881 -0.0811362 3.87243e-16)
(-16.4888 -0.0932958 3.94014e-16)
(-16.4896 -0.107333 4.01516e-16)
(-16.4905 -0.123529 4.1192e-16)
(-16.4915 -0.142203 4.22004e-16)
(-16.4926 -0.163718 4.31388e-16)
(-16.4937 -0.18848 4.4598e-16)
(-16.4949 -0.216939 4.62332e-16)
(-16.4961 -0.249589 4.78637e-16)
(-16.4973 -0.286961 5.00164e-16)
(-16.4984 -0.329616 5.23797e-16)
(-16.4993 -0.378118 5.52319e-16)
(-16.4998 -0.433003 5.88456e-16)
(-16.4999 -0.494744 6.2969e-16)
(-16.4992 -0.56375 6.78449e-16)
(-16.4539 -0.00700732 -5.45593e-16)
(-16.4564 -0.00717692 -5.46559e-16)
(-16.4567 -0.00738725 -5.47391e-16)
(-16.4567 -0.00762252 -5.50152e-16)
(-16.4566 -0.00787563 -5.52415e-16)
(-16.4564 -0.00814505 -5.52263e-16)
(-16.4563 -0.00843124 -5.52331e-16)
(-16.4561 -0.00873566 -5.52552e-16)
(-16.456 -0.00906046 -5.52747e-16)
(-16.4559 -0.00940845 -5.54809e-16)
(-16.4558 -0.0097831 -5.56329e-16)
(-16.4557 -0.0101887 -5.55565e-16)
(-16.4556 -0.0106303 -5.55119e-16)
(-16.4555 -0.011114 -5.54875e-16)
(-16.4555 -0.0116471 -5.54619e-16)
(-16.4554 -0.0122383 -5.56268e-16)
(-16.4554 -0.0128978 -5.57436e-16)
(-16.4554 -0.0136374 -5.5641e-16)
(-16.4554 -0.0144714 -5.55772e-16)
(-16.4555 -0.0154163 -5.5543e-16)
(-16.4556 -0.0164916 -5.55322e-16)
(-16.4557 -0.0177201 -5.5539e-16)
(-16.4558 -0.0191284 -5.55664e-16)
(-16.456 -0.0207477 -5.56101e-16)
(-16.4563 -0.0226144 -5.56801e-16)
(-16.4565 -0.0247708 -5.57815e-16)
(-16.4569 -0.0272663 -5.57319e-16)
(-16.4573 -0.0301583 -5.57653e-16)
(-16.4578 -0.0335138 -5.60765e-16)
(-16.4584 -0.0374107 -5.63908e-16)
(-16.4591 -0.0419395 -5.67454e-16)
(-16.46 -0.0472051 -5.71525e-16)
(-16.461 -0.0533291 -5.74468e-16)
(-16.4621 -0.0604525 -5.7867e-16)
(-16.4634 -0.0687379 -5.86235e-16)
(-16.465 -0.0783732 -5.94515e-16)
(-16.4668 -0.0895748 -6.03978e-16)
(-16.4688 -0.102591 -6.14849e-16)
(-16.4712 -0.117707 -6.27449e-16)
(-16.4739 -0.135247 -6.41012e-16)
(-16.4769 -0.155579 -6.57834e-16)
(-16.4804 -0.179114 -6.76834e-16)
(-16.4842 -0.206315 -6.99492e-16)
(-16.4883 -0.237687 -7.28754e-16)
(-16.4928 -0.273777 -7.62531e-16)
(-16.4974 -0.31516 -8.0131e-16)
(-16.5021 -0.362423 -8.45833e-16)
(-16.5065 -0.416129 -9.00623e-16)
(-16.5104 -0.476766 -9.70614e-16)
(-16.5131 -0.544722 -1.05486e-15)
(-16.4986 0.0119401 8.71603e-16)
(-16.4962 0.0120442 8.74745e-16)
(-16.4956 0.0121658 8.77876e-16)
(-16.4954 0.0122793 8.79222e-16)
(-16.4953 0.0123742 8.81231e-16)
(-16.4952 0.0124461 8.85563e-16)
(-16.4952 0.0124915 8.89694e-16)
(-16.4952 0.0125065 8.93715e-16)
(-16.4952 0.0124869 8.97866e-16)
(-16.4952 0.0124277 9.00212e-16)
(-16.4953 0.012323 9.03239e-16)
(-16.4953 0.0121663 9.08659e-16)
(-16.4954 0.0119499 9.13863e-16)
(-16.4956 0.0116651 9.19014e-16)
(-16.4957 0.0113018 9.24311e-16)
(-16.4959 0.0108488 9.27878e-16)
(-16.4962 0.0102928 9.32138e-16)
(-16.4965 0.00961888 9.38888e-16)
(-16.4968 0.00880997 9.45474e-16)
(-16.4972 0.00784645 9.52066e-16)
(-16.4977 0.0067058 9.58779e-16)
(-16.4982 0.00536218 9.65671e-16)
(-16.4988 0.00378599 9.72827e-16)
(-16.4995 0.00194329 9.80239e-16)
(-16.5004 -0.000204845 9.88003e-16)
(-16.5013 -0.00270303 9.95955e-16)
(-16.5024 -0.00560247 1.00622e-15)
(-16.5037 -0.00896201 1.01628e-15)
(-16.5051 -0.0128493 1.0246e-15)
(-16.5068 -0.017342 1.03374e-15)
(-16.5088 -0.0225297 1.04382e-15)
(-16.511 -0.0285152 1.05455e-15)
(-16.5135 -0.0354169 1.06813e-15)
(-16.5165 -0.0433707 1.08185e-15)
(-16.5198 -0.0525334 1.0943e-15)
(-16.5237 -0.0630853 1.10836e-15)
(-16.5282 -0.0752341 1.12407e-15)
(-16.5333 -0.0892188 1.14127e-15)
(-16.5392 -0.105314 1.16237e-15)
(-16.5459 -0.123835 1.18416e-15)
(-16.5535 -0.145144 1.20654e-15)
(-16.5622 -0.169652 1.2356e-15)
(-16.572 -0.197829 1.26831e-15)
(-16.583 -0.230204 1.30318e-15)
(-16.5952 -0.267364 1.34605e-15)
(-16.6087 -0.309953 1.39435e-15)
(-16.6234 -0.358659 1.45166e-15)
(-16.6392 -0.414194 1.52158e-15)
(-16.6557 -0.47724 1.60264e-15)
(-16.6724 -0.548371 1.70119e-15)
(-16.4042 -0.0256434 -9.03036e-16)
(-16.4063 -0.0259701 -9.06011e-16)
(-16.4066 -0.0263659 -9.08951e-16)
(-16.4065 -0.026794 -9.13709e-16)
(-16.4064 -0.027238 -9.17886e-16)
(-16.4062 -0.0276936 -9.19646e-16)
(-16.4061 -0.02816 -9.21718e-16)
(-16.4059 -0.0286382 -9.23902e-16)
(-16.4058 -0.0291299 -9.26072e-16)
(-16.4057 -0.0296373 -9.30036e-16)
(-16.4056 -0.0301632 -9.33387e-16)
(-16.4055 -0.0307111 -9.34405e-16)
(-16.4055 -0.031285 -9.35707e-16)
(-16.4055 -0.0318898 -9.37165e-16)
(-16.4055 -0.0325314 -9.38552e-16)
(-16.4055 -0.0332166 -9.41834e-16)
(-16.4056 -0.0339539 -9.44515e-16)
(-16.4058 -0.0347529 -9.44885e-16)
(-16.406 -0.0356252 -9.45584e-16)
(-16.4063 -0.0365846 -9.46528e-16)
(-16.4066 -0.037647 -9.47606e-16)
(-16.407 -0.0388317 -9.48816e-16)
(-16.4075 -0.0401609 -9.50141e-16)
(-16.4082 -0.0416608 -9.51598e-16)
(-16.4089 -0.0433623 -9.53254e-16)
(-16.4098 -0.0453015 -9.55227e-16)
(-16.4109 -0.0475204 -9.55646e-16)
(-16.4121 -0.0500684 -9.56948e-16)
(-16.4136 -0.0530034 -9.61064e-16)
(-16.4153 -0.0563929 -9.65317e-16)
(-16.4173 -0.0603158 -9.7007e-16)
(-16.4196 -0.0648646 -9.75564e-16)
(-16.4223 -0.0701468 -9.80114e-16)
(-16.4254 -0.0762883 -9.86266e-16)
(-16.4291 -0.0834361 -9.96176e-16)
(-16.4333 -0.0917618 -1.00729e-15)
(-16.4382 -0.101466 -1.0202e-15)
(-16.4438 -0.112784 -1.03529e-15)
(-16.4502 -0.125988 -1.0531e-15)
(-16.4577 -0.1414 -1.07306e-15)
(-16.4661 -0.159391 -1.09772e-15)
(-16.4758 -0.180395 -1.12626e-15)
(-16.4867 -0.204916 -1.16072e-15)
(-16.4989 -0.233533 -1.20416e-15)
(-16.5125 -0.266906 -1.25518e-15)
(-16.5275 -0.305771 -1.31482e-15)
(-16.5436 -0.350933 -1.38469e-15)
(-16.5606 -0.403261 -1.47035e-15)
(-16.5779 -0.463631 -1.57838e-15)
(-16.5945 -0.532766 -1.70932e-15)
(-16.5128 0.0268158 1.56129e-15)
(-16.511 0.027061 1.56626e-15)
(-16.5107 0.0273614 1.57122e-15)
(-16.5107 0.0276746 1.57431e-15)
(-16.5108 0.027983 1.57806e-15)
(-16.511 0.0282796 1.58416e-15)
(-16.5112 0.02856 1.59006e-15)
(-16.5114 0.0288202 1.59587e-15)
(-16.5116 0.0290561 1.60182e-15)
(-16.5118 0.0292631 1.60609e-15)
(-16.5121 0.0294359 1.61112e-15)
(-16.5125 0.0295688 1.61866e-15)
(-16.5128 0.029655 1.62605e-15)
(-16.5132 0.0296869 1.63352e-15)
(-16.5137 0.029656 1.64121e-15)
(-16.5142 0.029552 1.64732e-15)
(-16.5148 0.0293637 1.65421e-15)
(-16.5154 0.0290779 1.66373e-15)
(-16.5162 0.0286796 1.67314e-15)
(-16.517 0.0281515 1.68271e-15)
(-16.5179 0.0274737 1.69246e-15)
(-16.519 0.0266234 1.70255e-15)
(-16.5202 0.0255743 1.71301e-15)
(-16.5216 0.0242962 1.72393e-15)
(-16.5231 0.0227543 1.73534e-15)
(-16.5248 0.0209087 1.7472e-15)
(-16.5268 0.0187133 1.76155e-15)
(-16.5291 0.0161154 1.77598e-15)
(-16.5317 0.0130537 1.78886e-15)
(-16.5347 0.00945774 1.80291e-15)
(-16.5382 0.00524622 1.81816e-15)
(-16.5421 0.000325171 1.83447e-15)
(-16.5467 -0.00541401 1.85408e-15)
(-16.5519 -0.0120969 1.87465e-15)
(-16.5579 -0.0198689 1.8947e-15)
(-16.5649 -0.0288986 1.91719e-15)
(-16.5729 -0.0393817 1.94238e-15)
(-16.5821 -0.0515458 1.97036e-15)
(-16.5927 -0.0656556 2.00367e-15)
(-16.6049 -0.0820196 2.03944e-15)
(-16.619 -0.100997 2.07787e-15)
(-16.6352 -0.123009 2.12523e-15)
(-16.6537 -0.148545 2.17897e-15)
(-16.6748 -0.178182 2.23793e-15)
(-16.6988 -0.212588 2.3089e-15)
(-16.7258 -0.252525 2.38983e-15)
(-16.756 -0.298862 2.48546e-15)
(-16.7893 -0.352622 2.6005e-15)
(-16.8255 -0.414994 2.73512e-15)
(-16.8636 -0.487115 2.89684e-15)
(-16.2855 -0.0409143 -1.91933e-15)
(-16.287 -0.0414649 -1.93021e-15)
(-16.2871 -0.0421074 -1.94146e-15)
(-16.2869 -0.042791 -1.95498e-15)
(-16.2867 -0.0434921 -1.9681e-15)
(-16.2864 -0.0442061 -1.97911e-15)
(-16.2862 -0.0449335 -1.99098e-15)
(-16.2859 -0.0456761 -2.00344e-15)
(-16.2857 -0.0464365 -2.01625e-15)
(-16.2855 -0.0472172 -2.03138e-15)
(-16.2854 -0.0480214 -2.04615e-15)
(-16.2852 -0.0488524 -2.05893e-15)
(-16.2851 -0.0497143 -2.07223e-15)
(-16.2851 -0.0506115 -2.08603e-15)
(-16.2851 -0.0515494 -2.09988e-15)
(-16.2851 -0.0525342 -2.11593e-15)
(-16.2853 -0.0535731 -2.13111e-15)
(-16.2854 -0.0546745 -2.14386e-15)
(-16.2857 -0.0558484 -2.15701e-15)
(-16.2861 -0.0571062 -2.17034e-15)
(-16.2866 -0.0584614 -2.18362e-15)
(-16.2872 -0.0599296 -2.19689e-15)
(-16.2879 -0.0615292 -2.21002e-15)
(-16.2888 -0.0632814 -2.22309e-15)
(-16.2899 -0.0652109 -2.236e-15)
(-16.2913 -0.0673466 -2.24893e-15)
(-16.2929 -0.0697219 -2.2598e-15)
(-16.2947 -0.0723756 -2.27125e-15)
(-16.297 -0.075353 -2.28517e-15)
(-16.2996 -0.0787067 -2.29892e-15)
(-16.3027 -0.082498 -2.31295e-15)
(-16.3063 -0.0867981 -2.32769e-15)
(-16.3105 -0.0916902 -2.34147e-15)
(-16.3154 -0.0972715 -2.35713e-15)
(-16.3212 -0.103655 -2.37701e-15)
(-16.3278 -0.110975 -2.39865e-15)
(-16.3355 -0.119389 -2.42283e-15)
(-16.3444 -0.129081 -2.45007e-15)
(-16.3548 -0.140274 -2.48101e-15)
(-16.3667 -0.153233 -2.51539e-15)
(-16.3804 -0.168275 -2.55571e-15)
(-16.3962 -0.18579 -2.60147e-15)
(-16.4142 -0.206253 -2.65494e-15)
(-16.4348 -0.230255 -2.71985e-15)
(-16.458 -0.258537 -2.79496e-15)
(-16.4841 -0.292002 -2.88238e-15)
(-16.5131 -0.331757 -2.98439e-15)
(-16.5449 -0.379237 -3.10789e-15)
(-16.579 -0.436346 -3.26126e-15)
(-16.6136 -0.505129 -3.44558e-15)
(-16.4638 0.0377417 2.32558e-15)
(-16.4634 0.0380898 2.33901e-15)
(-16.4639 0.0385743 2.35306e-15)
(-16.4645 0.0391164 2.36564e-15)
(-16.4653 0.0396838 2.37937e-15)
(-16.4661 0.0402633 2.39602e-15)
(-16.467 0.0408483 2.41282e-15)
(-16.4679 0.041435 2.43003e-15)
(-16.4688 0.0420202 2.44768e-15)
(-16.4698 0.0426011 2.46399e-15)
(-16.4709 0.0431746 2.48131e-15)
(-16.472 0.0437375 2.50154e-15)
(-16.4731 0.0442859 2.5217e-15)
(-16.4744 0.0448157 2.54215e-15)
(-16.4757 0.0453218 2.56294e-15)
(-16.4771 0.0457983 2.5822e-15)
(-16.4786 0.0462385 2.60242e-15)
(-16.4802 0.0466344 2.62551e-15)
(-16.4819 0.0469768 2.64858e-15)
(-16.4838 0.0472548 2.67197e-15)
(-16.4858 0.0474559 2.69573e-15)
(-16.488 0.0475655 2.72004e-15)
(-16.4904 0.0475664 2.74492e-15)
(-16.493 0.0474387 2.77049e-15)
(-16.4959 0.0471593 2.7968e-15)
(-16.4991 0.0467013 2.82386e-15)
(-16.5026 0.0460333 2.8538e-15)
(-16.5066 0.0451187 2.88428e-15)
(-16.511 0.0439151 2.91361e-15)
(-16.5159 0.0423725 2.94484e-15)
(-16.5215 0.0404329 2.97788e-15)
(-16.5278 0.0380279 3.01279e-15)
(-16.5349 0.0350776 3.05167e-15)
(-16.5431 0.0314878 3.09213e-15)
(-16.5523 0.0271472 3.13227e-15)
(-16.5629 0.021924 3.17503e-15)
(-16.575 0.0156612 3.22018e-15)
(-16.5888 0.00817074 3.26753e-15)
(-16.6047 -0.00077382 3.31912e-15)
(-16.623 -0.0114474 3.37152e-15)
(-16.6441 -0.0241857 3.4242e-15)
(-16.6684 -0.0394015 3.48334e-15)
(-16.6964 -0.0576077 3.54551e-15)
(-16.7286 -0.0794512 3.60899e-15)
(-16.7658 -0.105756 3.68005e-15)
(-16.8085 -0.137542 3.75538e-15)
(-16.8575 -0.176028 3.83946e-15)
(-16.9136 -0.222742 3.93539e-15)
(-16.9773 -0.279876 4.0419e-15)
(-17.0473 -0.350231 4.16726e-15)
(-15.682 -0.0500479 -3.50942e-16)
(-15.6832 -0.0509588 -3.59485e-16)
(-15.6832 -0.0518327 -3.68513e-16)
(-15.6832 -0.0527314 -3.80172e-16)
(-15.6832 -0.053645 -3.91566e-16)
(-15.6832 -0.054576 -4.0069e-16)
(-15.6832 -0.0555274 -4.10841e-16)
(-15.6832 -0.0565029 -4.21629e-16)
(-15.6833 -0.0575056 -4.32858e-16)
(-15.6834 -0.0585392 -4.46782e-16)
(-15.6835 -0.0596071 -4.60351e-16)
(-15.6837 -0.0607133 -4.71788e-16)
(-15.684 -0.061862 -4.84249e-16)
(-15.6843 -0.0630581 -4.97439e-16)
(-15.6846 -0.0643071 -5.11061e-16)
(-15.6851 -0.0656151 -5.27443e-16)
(-15.6856 -0.066989 -5.43851e-16)
(-15.6862 -0.0684371 -5.58333e-16)
(-15.687 -0.0699683 -5.73865e-16)
(-15.6879 -0.0715932 -5.90331e-16)
(-15.6889 -0.0733238 -6.07636e-16)