/*--------------------------------*- C++ -*----------------------------------*\
  =========                 |
  \\      /  F ield         | OpenFOAM: The Open Source CFD Toolbox
   \\    /   O peration     | Website:  https://openfoam.org
    \\  /    A nd           | Version:  8
     \\/     M anipulation  |
\*---------------------------------------------------------------------------*/
FoamFile
{
    version     2.0;
    format      ascii;
    class       volScalarField;
    location    "500";
    object      alphat;
}
// * * * * * * * * * * * * * * * * * * * * * * * * * * * * * * * * * * * * * //

dimensions      [1 -1 -1 0 0 0 0];

internalField   nonuniform List<scalar> 
8400
(
0.0586969
0.0579805
0.0573383
0.0566749
0.0560149
0.0553973
0.0548582
0.0544207
0.0541009
0.0539079
0.0538442
0.0538989
0.054047
0.0542491
0.0544856
0.0547779
0.0551853
0.0557724
0.0564894
0.0569431
0.0568442
0.0566845
0.0567155
0.056786
0.0568477
0.0568903
0.0569106
0.0569078
0.0568809
0.0568289
0.0567514
0.0566473
0.0565152
0.0563522
0.056154
0.055916
0.0556344
0.0553057
0.054873
0.054348
0.0537267
0.0529778
0.0520595
0.0509279
0.0495419
0.0478574
0.0457937
0.0431974
0.0398271
0.0359808
0.0526576
0.0511766
0.050167
0.0495541
0.0491368
0.0487726
0.0483937
0.0480043
0.0476115
0.0472206
0.0468379
0.0464717
0.0462103
0.0461352
0.046097
0.0458086
0.0451407
0.0451087
0.0459685
0.0478893
0.0495808
0.0503996
0.050777
0.0511009
0.0514401
0.0517915
0.0521472
0.0524988
0.052838
0.0531592
0.0534568
0.0537255
0.053962
0.0541623
0.0543175
0.0544159
0.0544462
0.0543825
0.0543966
0.0544621
0.0545512
0.0546229
0.0546423
0.0545806
0.0544033
0.0540494
0.0534251
0.0521885
0.0494185
0.0439395
0.0610403
0.060773
0.0604768
0.0601735
0.0598617
0.0595287
0.0591162
0.0587435
0.0584514
0.0581982
0.0578793
0.0573943
0.056914
0.05626
0.055243
0.0519477
0.0357453
0.0326058
0.0383752
0.0428069
0.0463197
0.0482913
0.0492829
0.0499435
0.0504917
0.0509755
0.0514062
0.0517878
0.0521271
0.052437
0.0527305
0.0530105
0.053264
0.0534637
0.053583
0.0536156
0.0536721
0.0538132
0.054027
0.0542615
0.0545259
0.0547681
0.0549504
0.055066
0.0551334
0.0550352
0.054899
0.0547416
0.0545316
0.0542709
0.0611707
0.0610983
0.0610215
0.0609375
0.0608433
0.0607462
0.0606734
0.0606083
0.0605436
0.0604773
0.0604073
0.0603363
0.0602204
0.0600868
0.0599189
0.0596827
0.0593481
0.0585022
0.0576145
0.0569105
0.0561283
0.0552697
0.0544099
0.0535548
0.052722
0.0519311
0.0511896
0.0504801
0.0497463
0.0489404
0.050778
0.0517287
0.0519559
0.0522652
0.0531329
0.0547942
0.0551224
0.0547318
0.0546878
0.0547607
0.0549973
0.0552348
0.0554099
0.0555146
0.0555552
0.0555344
0.0554515
0.0553057
0.0550842
0.0547508
0.0612005
0.0611628
0.0611249
0.0610857
0.0610469
0.0610096
0.0609726
0.0609362
0.0608994
0.0608611
0.0608214
0.0607745
0.0607237
0.0606675
0.0606039
0.0605293
0.0604385
0.0603114
0.0601382
0.0599165
0.0596272
0.0592578
0.0588095
0.0582903
0.0577149
0.0571048
0.0564834
0.0558744
0.055298
0.0547568
0.0544302
0.0542524
0.0541599
0.0541508
0.0541763
0.0544499
0.0548811
0.0552897
0.055627
0.0558752
0.0560504
0.0561688
0.0562377
0.0562619
0.0562455
0.0561895
0.0560927
0.0559487
0.0557455
0.0555979
0.0611748
0.0611075
0.0610402
0.0609745
0.0609092
0.0608421
0.0607722
0.0607003
0.0606275
0.0605583
0.0604946
0.060438
0.0603883
0.0603446
0.0603037
0.0602649
0.0602255
0.0601813
0.0601262
0.0600535
0.0599551
0.0598215
0.0596443
0.0594196
0.0591487
0.0588382
0.0585001
0.05815
0.0578046
0.057481
0.0572113
0.0570088
0.0568853
0.0568541
0.0569271
0.0569066
0.0569379
0.0569807
0.057023
0.0570541
0.0570682
0.0570631
0.0570376
0.0569917
0.0569267
0.0568424
0.0567376
0.0566077
0.0564833
0.0562793
0.0611753
0.0611076
0.061038
0.060969
0.0608973
0.060825
0.060752
0.0606778
0.0606035
0.0605282
0.0604523
0.0603761
0.0603004
0.060227
0.0601577
0.060093
0.0600333
0.0599792
0.0599301
0.0598834
0.059834
0.0597746
0.0596981
0.0595992
0.0594745
0.0593236
0.0591497
0.0589593
0.0587616
0.0585678
0.0583911
0.0582426
0.0581321
0.058067
0.0580494
0.0580147
0.0579546
0.0578945
0.0578319
0.0577645
0.0576896
0.0576072
0.0575176
0.0574211
0.0573206
0.0572174
0.0571133
0.0570063
0.0568654
0.0566886
0.0611638
0.0610812
0.0609992
0.0609173
0.0608339
0.0607499
0.0606654
0.0605801
0.0604941
0.060408
0.0603223
0.0602357
0.0601506
0.0600656
0.0599824
0.0599036
0.0598307
0.0597648
0.0597056
0.0596539
0.0596081
0.0595644
0.0595187
0.0594662
0.0594023
0.0593241
0.0592305
0.0591227
0.0590046
0.0588818
0.0587611
0.0586488
0.0585495
0.0584667
0.0584012
0.0583473
0.0582533
0.0581525
0.0580458
0.057933
0.0578138
0.0576894
0.0575626
0.057436
0.0573157
0.0572041
0.0571067
0.0569948
0.0568812
0.0567577
0.0611474
0.0610456
0.0609429
0.0608399
0.0607359
0.0606333
0.0605311
0.0604285
0.060325
0.0602213
0.0601172
0.0600141
0.059912
0.0598132
0.0597197
0.0596315
0.0595497
0.0594757
0.0594102
0.0593545
0.0593082
0.0592689
0.0592331
0.0591971
0.0591574
0.0591103
0.0590527
0.0589844
0.0589062
0.0588193
0.0587263
0.0586309
0.0585359
0.0584413
0.0583469
0.0582496
0.0581508
0.0580236
0.0578851
0.057738
0.0575842
0.0574272
0.0572709
0.0571226
0.0569921
0.0568846
0.0567627
0.0566841
0.0566229
0.0565638
0.0611165
0.0609814
0.0608456
0.0607081
0.0605733
0.0604379
0.0603047
0.0601758
0.0600442
0.059915
0.0597897
0.0596663
0.0595479
0.059431
0.0593205
0.0592208
0.0591332
0.0590577
0.058995
0.0589438
0.0589035
0.0588729
0.0588477
0.0588243
0.0587991
0.0587693
0.0587309
0.058682
0.0586222
0.0585516
0.0584713
0.0583802
0.0582798
0.0581704
0.058053
0.0579235
0.0577783
0.0576513
0.0574787
0.057295
0.0571003
0.0569023
0.0567115
0.0565342
0.0564
0.0562622
0.0561783
0.0561433
0.0561484
0.0561706
0.061054
0.060831
0.0606257
0.0604349
0.0602529
0.0600743
0.0598991
0.0597356
0.0595735
0.0594201
0.0592713
0.0591227
0.0589843
0.058856
0.058737
0.0586314
0.0585438
0.0584752
0.058426
0.0583939
0.0583736
0.0583634
0.0583597
0.0583563
0.0583475
0.058332
0.058307
0.0582695
0.0582184
0.0581529
0.0580723
0.0579768
0.0578668
0.0577397
0.0575953
0.0574293
0.0572381
0.0570253
0.0568492
0.0566281
0.0563553
0.0560785
0.0558688
0.0556614
0.0553583
0.0551663
0.0551759
0.0553168
0.0555056
0.0556757
0.0608225
0.0604058
0.0601342
0.0598993
0.0596631
0.0594415
0.0592623
0.0591061
0.0589316
0.0587349
0.0585574
0.0583846
0.0581785
0.0580058
0.0578733
0.0577767
0.0577162
0.0576906
0.0576948
0.0577154
0.0577447
0.0577763
0.0578009
0.0578203
0.0578329
0.0578306
0.0578121
0.05778
0.0577304
0.0576608
0.057572
0.0574621
0.0573269
0.0571665
0.05698
0.0567604
0.0564963
0.0561758
0.0557737
0.0553249
0.0548366
0.0542142
0.0532665
0.052486
0.0526383
0.0534716
0.054271
0.0547533
0.0550604
0.0553131
0.059672
0.0593192
0.0590403
0.0587914
0.0585554
0.0583224
0.0580787
0.0578268
0.057584
0.0573572
0.0571718
0.05705
0.0569751
0.0569374
0.0569305
0.0569485
0.0569852
0.0570343
0.0570863
0.0571389
0.0571965
0.0572519
0.057291
0.0573214
0.0573419
0.0573308
0.0572888
0.0572455
0.0571797
0.0570839
0.0569631
0.056814
0.0566324
0.0564041
0.056118
0.055759
0.0552851
0.0546453
0.0537145
0.0520104
0.0505291
0.0518583
0.0523981
0.0526765
0.0530434
0.0535405
0.0540192
0.0544033
0.054711
0.0549726
0.0566629
0.0562664
0.0559458
0.0557047
0.0555309
0.0554152
0.0553478
0.0553266
0.0553474
0.0554078
0.0554979
0.0556131
0.0557453
0.055886
0.0560274
0.0561646
0.0562928
0.0564082
0.0565103
0.0565976
0.0566673
0.0567211
0.0567574
0.0567729
0.0567625
0.0567183
0.0566532
0.0565692
0.0564526
0.0562936
0.0560841
0.0558054
0.0554482
0.0550021
0.0544743
0.0539064
0.0533547
0.0528722
0.0525057
0.0523078
0.0523828
0.0526521
0.0528578
0.0530599
0.0533077
0.0535965
0.0538923
0.054174
0.0544301
0.0546599
0.0535127
0.0533569
0.0532788
0.0532699
0.0533148
0.0534005
0.0535206
0.0536687
0.0538392
0.0540279
0.0542294
0.0544378
0.0546476
0.0548547
0.0550539
0.0552411
0.0554137
0.0555679
0.0556993
0.0558059
0.0558859
0.0559393
0.0559646
0.0559604
0.0559261
0.0558588
0.0557606
0.0556305
0.0554641
0.0552575
0.0550069
0.0547135
0.0543843
0.0540321
0.0536794
0.0533527
0.0530758
0.0528685
0.0527447
0.0527112
0.0527695
0.0528846
0.0530115
0.0531574
0.053326
0.0535149
0.0537184
0.0539251
0.0541271
0.054319
0.0525554
0.0526048
0.0526753
0.0527592
0.052851
0.052949
0.053054
0.0531664
0.0532873
0.0534164
0.0535534
0.0536977
0.0538481
0.0540021
0.0541566
0.0543082
0.0544526
0.054586
0.0547039
0.0548024
0.0548788
0.0549305
0.0549551
0.0549507
0.0549174
0.0548549
0.054764
0.0546455
0.0544991
0.0543257
0.0541292
0.0539138
0.0536862
0.0534573
0.0532385
0.0530417
0.0528778
0.0527545
0.0526757
0.0526403
0.052647
0.0526853
0.0527474
0.0528346
0.0529489
0.0530868
0.0532462
0.0534175
0.0535953
0.053772
0.0523015
0.0523641
0.052433
0.0525067
0.0525855
0.0526696
0.0527594
0.0528538
0.0529517
0.0530525
0.0531547
0.0532575
0.0533602
0.0534618
0.053561
0.0536563
0.0537465
0.0538299
0.0539037
0.0539658
0.0540135
0.0540441
0.0540554
0.054046
0.0540145
0.0539601
0.0538834
0.0537855
0.053666
0.0535256
0.0533674
0.0531941
0.0530087
0.0528168
0.0526254
0.0524399
0.0522669
0.0521119
0.051981
0.0518782
0.0518066
0.0517686
0.0517663
0.0518026
0.0518773
0.0519871
0.0521282
0.0522923
0.0524733
0.0526614
0.051012
0.0510277
0.051061
0.0511131
0.0511854
0.051277
0.0513864
0.0515096
0.0516428
0.0517827
0.0519254
0.0520674
0.0522053
0.0523366
0.0524593
0.0525718
0.0526722
0.0527586
0.0528297
0.0528844
0.0529213
0.0529387
0.052936
0.0529113
0.052864
0.0527937
0.0526997
0.0525817
0.0524393
0.0522731
0.0520838
0.0518729
0.0516427
0.0513961
0.0511377
0.050873
0.0506103
0.0503585
0.0501266
0.0499244
0.0497597
0.0496397
0.0495697
0.0495519
0.0495866
0.049672
0.0498013
0.0499674
0.0501603
0.0503745
0.0479723
0.0479093
0.0478749
0.0478726
0.047904
0.0479689
0.0480653
0.0481894
0.0483369
0.0485037
0.0486838
0.048872
0.0490635
0.0492531
0.0494362
0.0496084
0.0497652
0.0499035
0.0500204
0.0501127
0.0501783
0.0502154
0.0502222
0.0501971
0.0501394
0.0500481
0.0499231
0.0497643
0.0495717
0.0493454
0.0490869
0.0487976
0.0484797
0.0481381
0.0477789
0.0474103
0.0470427
0.046687
0.0463554
0.0460594
0.0458094
0.0456139
0.0454782
0.0454055
0.0453954
0.0454467
0.0455527
0.0457092
0.0459061
0.0461389
0.0712097
0.0704803
0.0697342
0.0689651
0.0681746
0.0673668
0.0665485
0.0657279
0.0649135
0.0641137
0.0633356
0.0625851
0.0618661
0.0611813
0.0605317
0.0599171
0.0593354
0.0587837
0.0582585
0.0577558
0.0572704
0.0567972
0.0563313
0.0558679
0.0554023
0.0549306
0.0544486
0.0539539
0.0534448
0.0529195
0.0523774
0.0518186
0.0512433
0.0506524
0.0500478
0.0494325
0.0488102
0.0481853
0.0475634
0.0469518
0.0463571
0.045786
0.0452451
0.0447403
0.044278
0.0438637
0.0435003
0.0431952
0.0429509
0.0427708
0.00545301
0.00540922
0.00537366
0.00534919
0.00533202
0.00532014
0.00531204
0.00530591
0.00529983
0.00529186
0.00528023
0.00526352
0.00524093
0.00521245
0.00517892
0.00514191
0.00510366
0.00506666
0.00503331
0.0050056
0.00498517
0.00495302
0.00494597
0.00493983
0.00493439
0.00492919
0.00492134
0.00490825
0.00488827
0.00486117
0.00482815
0.0047924
0.00475562
0.00472091
0.00469074
0.00466646
0.00464816
0.00463485
0.00462474
0.00461573
0.00460589
0.00459328
0.00457732
0.00455964
0.00454219
0.00452691
0.00451514
0.00450731
0.00450285
0.00450041
0.00537189
0.00522282
0.00509701
0.00499123
0.0049011
0.00482333
0.00475373
0.00468823
0.00462299
0.00455475
0.00448105
0.00440069
0.00431383
0.00422206
0.00412819
0.00403594
0.00394926
0.0038717
0.0038058
0.00375295
0.016236
0.0162516
0.0162347
0.0162579
0.00373079
0.00365154
0.00359596
0.00355114
0.00351049
0.00347178
0.00343761
0.0148756
0.0150955
0.0152271
0.0153126
0.0153754
0.0154245
0.0154595
0.0154755
0.0154667
0.0154303
0.0153696
0.0152949
0.0152141
0.0151374
0.015073
0.0150245
0.0149894
0.0149595
0.0149252
0.00537361
0.00522702
0.00510076
0.00499254
0.00489775
0.00481302
0.00473497
0.00466033
0.00458611
0.00450978
0.00442958
0.00434469
0.00425532
0.00416269
0.00406884
0.00397647
0.00388839
0.00380714
0.00373488
0.0156718
0.0155829
0.0155231
0.0154774
0.0154398
0.015392
0.0153295
0.0152465
0.0151385
0.0150055
0.0148517
0.0146858
0.0145267
0.0143805
0.0142532
0.0141481
0.0140643
0.0139971
0.0139389
0.013881
0.013816
0.0137388
0.0136509
0.0135555
0.0134585
0.0133672
0.0132878
0.0132242
0.0131755
0.0131336
0.0130827
0.00537417
0.00523039
0.00510607
0.00499862
0.00490361
0.00481791
0.00473843
0.00466218
0.00458643
0.00450894
0.00442814
0.00434334
0.00425474
0.00416341
0.00407118
0.00398045
0.00389377
0.00381347
0.00374169
0.0157073
0.0156103
0.0155355
0.0154751
0.0154203
0.0153613
0.0152889
0.0151954
0.0150762
0.0149315
0.0147658
0.0145877
0.0144085
0.0142391
0.0140879
0.0139589
0.0138516
0.0137615
0.0136813
0.0136029
0.013519
0.0134258
0.0133228
0.0132135
0.0131036
0.0129994
0.0129064
0.012828
0.0127656
0.0127157
0.0126641
0.0053747
0.00523262
0.00510892
0.00500099
0.00490474
0.0048173
0.00473583
0.00465761
0.00458016
0.00450148
0.00442022
0.00433579
0.00424837
0.0041589
0.00406893
0.00398056
0.00389604
0.00381747
0.00374679
0.0157223
0.0156271
0.0155504
0.0154853
0.0154236
0.015357
0.0152771
0.0151772
0.0150537
0.0149068
0.014741
0.0145646
0.0143883
0.0142221
0.0140736
0.0139463
0.0138394
0.0137482
0.0136657
0.013584
0.0134964
0.013399
0.0132919
0.0131788
0.0130655
0.0129585
0.0128622
0.0127782
0.0127066
0.0126461
0.0125883
0.00537535
0.00523517
0.00511225
0.00500395
0.00490652
0.00481732
0.00473382
0.00465362
0.00457458
0.00449502
0.00441379
0.00433035
0.00424482
0.00415784
0.00407064
0.00398496
0.00390274
0.00382583
0.00375491
0.00361293
0.0153218
0.0153569
0.0153614
0.0153418
0.0152993
0.0152324
0.0151393
0.0150194
0.014875
0.0147117
0.0145383
0.0143654
0.0142027
0.0140571
0.0139318
0.0138258
0.0137346
0.0136514
0.0135686
0.0134801
0.0133824
0.0132754
0.0131626
0.0130499
0.0129438
0.0128488
0.0127663
0.0126939
0.0126293
0.0125668
0.00537613
0.00523798
0.00511567
0.00500661
0.00490744
0.0048159
0.00472983
0.00464724
0.0045664
0.0044859
0.0044048
0.00432259
0.00423917
0.00415492
0.00407071
0.00398786
0.00390796
0.00383259
0.00376337
0.0157988
0.0156822
0.0155876
0.0155053
0.0154263
0.015343
0.0152486
0.0151379
0.015008
0.0148593
0.014696
0.0145256
0.0143571
0.0141989
0.0140572
0.0139343
0.0138294
0.013738
0.0136537
0.0135698
0.0134803
0.0133821
0.0132754
0.0131632
0.0130508
0.0129443
0.0128483
0.0127647
0.012691
0.0126235
0.0125568
0.00537701
0.00524093
0.00511914
0.00500915
0.00490808
0.00481404
0.00472533
0.00464041
0.00455795
0.00447684
0.00439629
0.00431573
0.00423483
0.00415365
0.00407263
0.00399271
0.0039151
0.00384111
0.00377288
0.0159755
0.0156917
0.0155203
0.0154075
0.0153214
0.0152422
0.0151573
0.0150587
0.0149423
0.0148079
0.014659
0.0145024
0.0143461
0.0141977
0.014063
0.0139445
0.0138414
0.0137502
0.013665
0.0135797
0.0134891
0.0133903
0.0132834
0.0131718
0.0130599
0.012953
0.0128553
0.0127689
0.012692
0.0126206
0.0125497
0.00537796
0.00524394
0.00512256
0.00501154
0.00490842
0.00481177
0.00472037
0.00463314
0.00454917
0.00446763
0.0043878
0.00430901
0.00423071
0.00415258
0.0040747
0.00399754
0.00392195
0.00384899
0.00378061
0.0160057
0.0157094
0.015524
0.0153981
0.0153008
0.0152137
0.0151245
0.0150257
0.0149129
0.0147852
0.014645
0.0144977
0.0143498
0.0142082
0.0140777
0.0139611
0.0138578
0.0137648
0.0136772
0.0135896
0.0134972
0.0133976
0.0132908
0.0131796
0.0130685
0.0129617
0.012863
0.0127739
0.0126932
0.0126177
0.0125426
0.0053789
0.00524688
0.00512588
0.00501378
0.00490863
0.0048094
0.00471541
0.00462605
0.00454078
0.00445904
0.00438013
0.00430326
0.00422762
0.00415255
0.00407767
0.00400307
0.00392922
0.00385692
0.00378805
0.0160281
0.0157282
0.0155365
0.0154007
0.0152935
0.0151985
0.0151051
0.0150061
0.014897
0.014776
0.0146442
0.0145053
0.0143648
0.0142282
0.0141001
0.0139833
0.0138777
0.0137811
0.0136894
0.0135983
0.0135036
0.0134029
0.0132961
0.0131855
0.0130748
0.0129682
0.0128682
0.0127765
0.0126919
0.012612
0.012533
0.00537984
0.00524975
0.00512913
0.00501596
0.00490881
0.00480713
0.00471071
0.00461942
0.00453309
0.00445133
0.00437345
0.00429851
0.00422546
0.00415324
0.00408108
0.00400865
0.00393608
0.00386399
0.00379233
0.00364289
0.0154121
0.0153967
0.0153471
0.0152781
0.0151979
0.0151098
0.0150136
0.014908
0.014792
0.0146661
0.0145329
0.0143966
0.0142619
0.0141332
0.014013
0.0139021
0.0137993
0.0137016
0.0136055
0.0135075
0.0134053
0.0132986
0.0131888
0.0130787
0.0129718
0.0128705
0.012776
0.0126877
0.0126038
0.0125209
0.00538077
0.00525251
0.00513218
0.00501798
0.00490892
0.00480497
0.00470639
0.00461347
0.00452634
0.00444473
0.00436796
0.00429493
0.00422429
0.00415463
0.00408477
0.004014
0.00394218
0.00386982
0.00379811
0.0159338
0.0157794
0.0156253
0.0154779
0.0153429
0.0152219
0.0151124
0.0150089
0.0149057
0.0147975
0.0146816
0.0145579
0.0144286
0.0142974
0.0141682
0.0140444
0.0139275
0.0138176
0.0137132
0.0136116
0.0135101
0.0134062
0.0132994
0.0131903
0.0130808
0.0129736
0.0128707
0.0127734
0.0126813
0.0125935
0.0125075
0.00538164
0.00525498
0.0051348
0.00501958
0.00490881
0.00480288
0.0047025
0.00460834
0.00452073
0.00443951
0.00436394
0.00429276
0.0042243
0.00415682
0.00408878
0.00401915
0.0039476
0.0038746
0.00380146
0.0159485
0.0157854
0.0156196
0.0154624
0.0153218
0.0152001
0.0150944
0.0149986
0.0149054
0.0148082
0.0147026
0.014587
0.0144627
0.0143328
0.0142011
0.0140718
0.0139478
0.0138301
0.0137187
0.013612
0.0135072
0.0134024
0.0132957
0.0131874
0.0130787
0.0129714
0.0128673
0.0127676
0.0126725
0.0125812
0.0124929
0.00538244
0.00525698
0.00513679
0.0050206
0.00490834
0.0048008
0.00469903
0.00460396
0.00451612
0.0044354
0.00436098
0.0042914
0.0042247
0.00415883
0.00409196
0.00402283
0.00395102
0.00387703
0.00380221
0.015966
0.0157759
0.0155784
0.0154027
0.0152586
0.0151444
0.015053
0.0149748
0.0148996
0.0148189
0.0147266
0.0146204
0.0145008
0.014371
0.0142358
0.0140999
0.0139676
0.0138419
0.0137233
0.0136111
0.0135029
0.0133964
0.0132897
0.0131822
0.0130742
0.0129671
0.012862
0.0127602
0.0126624
0.0125687
0.0124784
0.00538307
0.00525838
0.00513804
0.00502105
0.00490768
0.00479902
0.00469639
0.00460091
0.00451322
0.00443321
0.00435997
0.00429178
0.00422648
0.00416174
0.00409554
0.00402649
0.00395416
0.00387909
0.00380275
0.0159625
0.0157653
0.0155615
0.0153822
0.0152381
0.0151276
0.015043
0.0149738
0.0149089
0.014838
0.0147542
0.0146538
0.0145367
0.014406
0.0142668
0.0141249
0.0139857
0.0138526
0.0137279
0.0136109
0.0134997
0.0133919
0.0132852
0.0131785
0.0130712
0.012964
0.0128578
0.0127543
0.0126542
0.0125586
0.0124675
0.00538351
0.00525915
0.00513845
0.00502067
0.00490632
0.00479671
0.00469336
0.00459756
0.00451001
0.00443057
0.00435817
0.00429089
0.00422635
0.00416208
0.00409592
0.00402646
0.00395328
0.00387699
0.00379925
0.0159337
0.0157327
0.015527
0.0153483
0.0152074
0.0151026
0.0150262
0.0149668
0.0149123
0.0148517
0.0147766
0.0146822
0.0145685
0.0144382
0.0142967
0.0141507
0.0140062
0.013868
0.0137384
0.0136177
0.0135044
0.013396
0.0132898
0.013184
0.0130778
0.0129712
0.0128651
0.0127613
0.0126612
0.0125666
0.0124779
0.00538375
0.00525947
0.00513856
0.00502049
0.00490587
0.00479611
0.00469281
0.00459734
0.00451039
0.00443171
0.00436006
0.0042934
0.00422922
0.00416496
0.00409847
0.00402835
0.00395418
0.0038767
0.00379781
0.0159258
0.0157238
0.0155202
0.0153454
0.0152091
0.0151095
0.0150385
0.0149847
0.0149356
0.0148797
0.0148082
0.0147163
0.0146034
0.014473
0.0143305
0.0141832
0.0140374
0.0138984
0.0137693
0.0136505
0.0135407
0.0134371
0.013337
0.0132378
0.0131384
0.0130388
0.0129402
0.0128443
0.0127533
0.0126697
0.012595
0.00538385
0.00525854
0.00513626
0.00501684
0.00490108
0.00479053
0.0046869
0.00459156
0.00450507
0.004427
0.00435598
0.00428985
0.004226
0.00416188
0.00409536
0.004025
0.00395044
0.00387262
0.00379361
0.0158695
0.0156846
0.0155226
0.0153858
0.0152799
0.015202
0.0151458
0.0151016
0.0150587
0.0150063
0.0149376
0.014851
0.0147475
0.0146302
0.0145046
0.0143769
0.0142527
0.0141368
0.014032
0.0139386
0.0138547
0.0137771
0.0137027
0.013629
0.0135548
0.0134803
0.0134069
0.0133372
0.0132743
0.0132215
0.013182
0.00538418
0.00525962
0.00513863
0.00502091
0.00490701
0.0047989
0.00469845
0.00460708
0.00452548
0.00445338
0.0043895
0.00433161
0.00427691
0.00422245
0.00416541
0.00410369
0.00403641
0.00396419
0.00388913
0.00381375
0.00374219
0.0158443
0.0158269
0.0158394
0.0158796
0.015936
0.0159949
0.0160427
0.0160503
0.0160265
0.0159828
0.0159277
0.0158658
0.015801
0.0157374
0.015679
0.0156294
0.01559
0.0155598
0.0155358
0.0155138
0.0154894
0.0154595
0.015423
0.0153807
0.0153351
0.0152902
0.0152515
0.0152246
0.0152164
0.00545308
0.00542658
0.00539953
0.00537224
0.00534587
0.00532117
0.00529905
0.00528016
0.00526456
0.00525167
0.0052403
0.00522894
0.00521601
0.0052
0.00517986
0.00515529
0.00512684
0.00509591
0.00506453
0.00503485
0.00500887
0.00496952
0.00495204
0.00493553
0.00492211
0.00491126
0.00490124
0.00488998
0.00487853
0.00486327
0.00484295
0.00481807
0.00479017
0.00476104
0.00473243
0.00470571
0.00468165
0.00466038
0.00464146
0.00462407
0.00460746
0.00459098
0.00457425
0.0045572
0.00453998
0.00452296
0.00450661
0.00449143
0.00447773
0.00446556
0.00747966
0.00488755
0.00522757
0.00503269
0.00447106
0.00384131
0.013928
0.0117589
0.0102248
0.00881825
0.00734846
0.00766889
0.00832553
0.00971843
0.0114793
0.0131111
0.0144126
0.0154085
0.00412282
0.0107619
0.00737492
0.00489419
0.00524172
0.00504127
0.00447369
0.00384332
0.0139101
0.011747
0.0102093
0.00876061
0.00719059
0.00751222
0.00822435
0.00959809
0.0113441
0.0130003
0.0143455
0.015381
0.00412511
0.0108852
0.00727057
0.00490118
0.00525464
0.00504832
0.00447528
0.00384574
0.0138947
0.0117396
0.0101994
0.00871945
0.00711921
0.00737587
0.00814494
0.00952177
0.0112683
0.0129394
0.0143049
0.0153601
0.00413031
0.0110138
0.00716621
0.00490836
0.00526597
0.00505459
0.00447889
0.00384975
0.0138891
0.0117403
0.0101989
0.00870115
0.0071653
0.00728606
0.00809879
0.00946542
0.0112053
0.0128868
0.014269
0.0153411
0.00413502
0.0111486
0.00706115
0.00491579
0.00527635
0.00506165
0.00448373
0.00385548
0.0138958
0.0117533
0.0102109
0.00870388
0.00727456
0.00724457
0.00807342
0.00942747
0.0111557
0.0128434
0.0142382
0.0153246
0.00413513
0.0112931
0.0069553
0.00492371
0.00528642
0.00506994
0.00449102
0.00386388
0.0139169
0.0117798
0.0102379
0.00873186
0.00737355
0.00726611
0.00805793
0.00939506
0.0111187
0.0128093
0.0142135
0.015312
0.00412423
0.0114502
0.0068502
0.00493056
0.00529664
0.00508
0.00450132
0.00387526
0.0139527
0.0118185
0.010278
0.008779
0.00744506
0.00729573
0.00805183
0.00937258
0.0110852
0.0127852
0.0141968
0.0153042
0.00413094
0.0116103
0.006746
0.00493647
0.0053072
0.00509192
0.00451452
0.00388934
0.0140017
0.0118678
0.01033
0.00884357
0.00750263
0.00730845
0.00805128
0.00935957
0.0110635
0.0127699
0.01419
0.0153101
0.00415632
0.0117724
0.00664249
0.00494125
0.00531787
0.00510546
0.00453025
0.00390569
0.0140623
0.0119265
0.0103943
0.00892859
0.00757585
0.00731204
0.00805889
0.00935856
0.0110565
0.012768
0.0141924
0.0153335
0.00420104
0.0119354
0.00653933
0.00494464
0.00532823
0.00512018
0.00454813
0.00392394
0.0141338
0.0119941
0.0104717
0.00903755
0.00768825
0.00733116
0.00808132
0.00937275
0.0110659
0.0127791
0.0142029
0.0153769
0.00426413
0.0120983
0.00643594
0.00494623
0.00533795
0.00513577
0.00456794
0.00394394
0.014216
0.0120712
0.010562
0.00916971
0.00784376
0.00738571
0.00812258
0.00940446
0.0110917
0.0128014
0.0142197
0.0154432
0.00434297
0.0122601
0.00633196
0.00494584
0.00534698
0.00515224
0.00458974
0.00396584
0.0143096
0.0121577
0.0106633
0.0093189
0.00802797
0.00747931
0.00818295
0.00945416
0.0111328
0.0128327
0.0142421
0.0155378
0.00443457
0.0124207
0.0062272
0.00494365
0.00535553
0.00516986
0.00461379
0.00398989
0.0144149
0.0122527
0.0107728
0.00947798
0.00822325
0.00759877
0.00826156
0.00952219
0.0111884
0.0128722
0.0142705
0.0156712
0.00453721
0.0125802
0.00612165
0.00493996
0.00536386
0.00518887
0.00464019
0.00401614
0.0145315
0.0123548
0.0108874
0.00964216
0.00842198
0.00773299
0.00836098
0.00961049
0.011259
0.0129197
0.0143007
0.015834
0.00465641
0.0127386
0.00601539
0.00493499
0.00537217
0.00520938
0.00466895
0.00404455
0.0146585
0.0124631
0.0110057
0.00981072
0.00863114
0.00788727
0.00848836
0.00972191
0.0113458
0.0129761
0.0143356
0.00375574
0.00478674
0.012896
0.00590842
0.00492875
0.00538046
0.00523129
0.00469992
0.00407495
0.0147952
0.012577
0.0111272
0.00998472
0.00886243
0.00808177
0.00865204
0.00985867
0.0114493
0.013042
0.0143793
0.00376434
0.00492817
0.0130519
0.00580053
0.00492105
0.00538846
0.0052543
0.00473286
0.00410723
0.0149408
0.0126964
0.0112517
0.0101636
0.0091184
0.00833249
0.00885503
0.0100206
0.0115684
0.0131171
0.0144332
0.00378056
0.00508006
0.0132061
0.00569135
0.00491152
0.00539581
0.00527817
0.00476759
0.00414135
0.0150949
0.0128215
0.0113788
0.0103436
0.00938786
0.00863481
0.00909157
0.0102042
0.0117004
0.0131998
0.014498
0.00380479
0.00524113
0.0133578
0.00558054
0.00489983
0.00540227
0.00530275
0.00480407
0.00417739
0.015257
0.0129523
0.0115071
0.010519
0.00965045
0.00896148
0.0093484
0.0104035
0.0118411
0.0132878
0.0145741
0.00383714
0.00540955
0.0135066
0.00546785
0.00488584
0.00540783
0.00532808
0.00484239
0.00421554
0.0154263
0.0130892
0.0116363
0.0106865
0.00988973
0.00927553
0.00961206
0.0106121
0.0119867
0.0133794
0.014662
0.00387744
0.00558321
0.013652
0.00535316
0.00486969
0.00541265
0.00535428
0.00488267
0.00425606
0.0156018
0.0132331
0.0117674
0.0108476
0.0101051
0.00955678
0.00987575
0.0108251
0.0121342
0.0134736
0.0147628
0.00392542
0.00576022
0.0137938
0.00523657
0.00485168
0.00541691
0.00538148
0.00492504
0.00429931
0.0157811
0.0133856
0.0119026
0.0110086
0.0103121
0.00981472
0.0101397
0.0110395
0.0122823
0.0135707
0.0148778
0.00398072
0.00593923
0.0139319
0.00511825
0.00483204
0.00542067
0.00540967
0.00496953
0.00434571
0.00377668
0.0135486
0.012045
0.0111762
0.0105294
0.0100743
0.0104074
0.0112541
0.0124306
0.0136709
0.0150086
0.004043
0.00611905
0.0140659
0.00499836
0.00481083
0.00542387
0.00543874
0.00501609
0.00439595
0.00383153
0.013725
0.0121965
0.0113528
0.0107653
0.0103545
0.0106801
0.0114677
0.0125782
0.0137744
0.0151566
0.00411177
0.00629854
0.014196
0.00487692
0.00478791
0.00542628
0.0054685
0.00506465
0.00444798
0.00387188
0.0139207
0.0123578
0.0115357
0.0110135
0.0106552
0.010953
0.0116778
0.0127239
0.0138814
0.0153235
0.00418652
0.00647702
0.014322
0.00475387
0.00476308
0.00542766
0.00549881
0.0051153
0.0045033
0.00391554
0.0141334
0.0125286
0.0117197
0.0112575
0.0109577
0.0112162
0.0118808
0.0128661
0.0139924
0.0155115
0.00426693
0.00665441
0.014444
0.00462917
0.00473617
0.00542784
0.00552963
0.0051683
0.0045624
0.0039632
0.0143657
0.0127098
0.0119004
0.0114802
0.0112344
0.0114603
0.012074
0.0130046
0.0141086
0.0157237
0.00435295
0.00683105
0.0145618
0.00450276
0.00470705
0.00542673
0.00556107
0.00522397
0.00462585
0.0040156
0.0146204
0.0129036
0.0120776
0.0116751
0.0114686
0.0116811
0.0122567
0.0131399
0.0142321
0.0159645
0.00444501
0.00700748
0.014675
0.00437474
0.00467572
0.00542432
0.00559323
0.0052826
0.00469425
0.00407357
0.0149002
0.0131134
0.0122557
0.0118497
0.0116634
0.0118812
0.0124299
0.0132728
0.0143553
0.0038153
0.00454461
0.00718391
0.0147834
0.0042453
0.00464215
0.00542046
0.00562599
0.00534434
0.0047681
0.00413799
0.015207
0.0133441
0.0124422
0.0120183
0.0118353
0.0120684
0.0125963
0.0134057
0.0144877
0.00384689
0.00465064
0.00736093
0.0148866
0.00411478
0.00460609
0.00541472
0.00565898
0.00540906
0.0048477
0.00420991
0.015541
0.0136015
0.0126445
0.0121952
0.0120053
0.0122525
0.0127602
0.013543
0.0146371
0.00388581
0.00476433
0.00753957
0.0149845
0.00398371
0.00456703
0.00540633
0.00569152
0.00547641
0.0049333
0.00429101
0.00376609
0.0138914
0.0128684
0.0123911
0.0121929
0.0124407
0.012926
0.0136894
0.0148113
0.0039334
0.00488723
0.00772117
0.015077
0.00385305
0.00452425
0.00539437
0.00572278
0.00554599
0.00502519
0.00438415
0.00385706
0.0142215
0.0131189
0.0126091
0.0124019
0.0126358
0.0130984
0.0138505
0.0150205
0.00399126
0.00502116
0.00790751
0.0151642
0.00372468
0.004477
0.00537788
0.005752
0.00561758
0.00512367
0.00448567
0.00393735
0.0146056
0.0134019
0.0128478
0.0126265
0.0128397
0.0132824
0.0140342
0.0152786
0.00406142
0.00516833
0.00810079
0.0152457
0.00360238
0.00442461
0.00535601
0.0057786
0.00569124
0.00522971
0.00459936
0.0040306
0.0150524
0.0137258
0.0131085
0.012867
0.0130552
0.0134846
0.0142513
0.0156047
0.00414646
0.00533134
0.00830304
0.0153208
0.00712018
0.0043666
0.00532805
0.0058021
0.00576709
0.0053443
0.00472751
0.00414084
0.0155791
0.0141034
0.0133983
0.0131218
0.0132868
0.013715
0.0145179
0.0160241
0.00424975
0.00551307
0.00851603
0.0153888
0.0137796
0.00430253
0.00529309
0.0058217
0.00584487
0.00546812
0.00487221
0.00427312
0.00383994
0.0145527
0.0137323
0.0133927
0.013543
0.013982
0.0148307
0.00386702
0.00437601
0.00571644
0.00874139
0.0154486
0.0135214
0.00423494
0.00524964
0.00583583
0.00592354
0.00560112
0.00503472
0.00442953
0.00396445
0.0151098
0.0141416
0.0137307
0.0138453
0.0143079
0.0152327
0.00394528
0.00452893
0.00594452
0.00898035
0.0154986
0.0132051
0.00415836
0.00519514
0.0058417
0.00600083
0.00574226
0.00521578
0.00461283
0.00410984
0.0157975
0.014652
0.0141452
0.0142308
0.0147322
0.0157786
0.00405204
0.00471389
0.00620048
0.00923333
0.0155377
0.0128662
0.00407145
0.00512597
0.00583516
0.00607316
0.00588949
0.00541587
0.00482782
0.00429466
0.00391485
0.0153059
0.0146857
0.0147256
0.0152624
0.00386186
0.00419581
0.00493666
0.00648703
0.00950031
0.0155648
0.0125271
0.0039725
0.00503769
0.00581093
0.00613564
0.00603922
0.00563362
0.00507697
0.0045286
0.0040993
0.0161643
0.0154101
0.0154133
0.0160213
0.00398493
0.00438463
0.00520293
0.00680623
0.00978144
0.0155781
0.0121935
0.00385988
0.00492546
0.00576283
0.00618196
0.00618597
0.00586548
0.00535958
0.0048142
0.00433765
0.00399886
0.016295
0.00380718
0.0039356
0.00416272
0.00462752
0.00551748
0.00715942
0.0100763
0.0155755
0.0118719
0.00373313
0.00478453
0.0056839
0.00620407
0.0063221
0.00610534
0.00567236
0.00515524
0.00465898
0.00425457
0.00401101
0.00399037
0.00413081
0.00440655
0.00493251
0.00588371
0.00754682
0.0103824
0.0155551
0.0115717
0.0151183
0.00461072
0.00556612
0.00619178
0.00643696