/*--------------------------------*- C++ -*----------------------------------*\
  =========                 |
  \\      /  F ield         | OpenFOAM: The Open Source CFD Toolbox
   \\    /   O peration     | Website:  https://openfoam.org
    \\  /    A nd           | Version:  8
     \\/     M anipulation  |
\*---------------------------------------------------------------------------*/
FoamFile
{
    version     2.0;
    format      ascii;
    class       volScalarField;
    location    "500";
    object      epsilon;
}
// * * * * * * * * * * * * * * * * * * * * * * * * * * * * * * * * * * * * * //

dimensions      [0 2 -3 0 0 0 0];

internalField   nonuniform List<scalar> 
8400
(
0.0125575
0.012107
0.0116687
0.0112059
0.0107351
0.0102762
0.00983905
0.00942948
0.00905175
0.00870945
0.00840533
0.00814127
0.00791706
0.00772968
0.00757428
0.00744868
0.00735566
0.0073016
0.00729458
0.00734009
0.00740674
0.00743604
0.00743295
0.00742853
0.00742923
0.00743421
0.0074417
0.00745017
0.00745849
0.00746567
0.00747086
0.00747337
0.00747262
0.00746805
0.00745893
0.0074443
0.00742303
0.00739373
0.0073525
0.00728027
0.00715895
0.00697263
0.00670461
0.00633889
0.00586399
0.00527788
0.00459269
0.00383932
0.00307444
0.0023915
0.00932914
0.00875967
0.00845591
0.00831656
0.00820985
0.00808029
0.0079052
0.00767788
0.0074014
0.00708926
0.00676168
0.0064416
0.00615158
0.00592038
0.005763
0.00565242
0.00553721
0.00536907
0.00513857
0.00499742
0.00501963
0.00516905
0.00535173
0.00552639
0.00569455
0.00586396
0.00604006
0.0062256
0.00642126
0.00662623
0.00683906
0.00705828
0.00728238
0.0075099
0.00773862
0.00796392
0.00817751
0.00836647
0.00851327
0.00862929
0.00871877
0.00877979
0.00880055
0.00875934
0.00862441
0.00835024
0.00787038
0.00709211
0.00590441
0.00427909
0.0130577
0.0129107
0.0127597
0.0126047
0.0124551
0.0123114
0.0121906
0.0120969
0.012023
0.0119549
0.0118787
0.0117802
0.0116557
0.0115216
0.0113718
0.0111969
0.0109644
0.0100413
0.00681503
0.00560518
0.00510868
0.00504529
0.00517548
0.00537194
0.00559677
0.00583981
0.00609602
0.00636052
0.00662822
0.00689486
0.00715818
0.00741856
0.00767702
0.00793164
0.00817579
0.0083972
0.00857986
0.00871926
0.00883405
0.00895395
0.00907712
0.00920541
0.00933166
0.00944375
0.00952988
0.0095813
0.00958651
0.0095386
0.00941285
0.00913661
0.0131287
0.0130807
0.0130324
0.0129842
0.012936
0.0128911
0.0128491
0.0128093
0.0127705
0.0127318
0.0126919
0.0126504
0.0126061
0.0125528
0.01249
0.0124163
0.0123286
0.0122192
0.0119857
0.0116222
0.0111622
0.0106244
0.0100399
0.00945251
0.00889663
0.00839377
0.0079527
0.00757183
0.00724092
0.00694263
0.00675386
0.00697996
0.00727466
0.00753037
0.00775796
0.00800837
0.00832924
0.00863302
0.00878688
0.00895018
0.00910948
0.00927314
0.00943222
0.00957304
0.00968488
0.00976166
0.00980029
0.00979801
0.00974942
0.00964145
0.0131478
0.0131235
0.0130989
0.0130743
0.0130495
0.0130245
0.0129989
0.0129726
0.0129457
0.0129185
0.0128909
0.0128629
0.0128331
0.012801
0.0127662
0.0127278
0.0126849
0.0126361
0.0125751
0.0124933
0.0123811
0.0122281
0.0120276
0.0117799
0.0114931
0.0111792
0.0108511
0.0105202
0.0101954
0.009883
0.00959036
0.00935352
0.00917332
0.00904311
0.00895809
0.00890337
0.00891409
0.0090002
0.00913987
0.0093094
0.00948687
0.00965563
0.0098044
0.00992601
0.0100166
0.0100746
0.0100998
0.010092
0.0100496
0.00997221
0.0131315
0.0130885
0.0130454
0.0130017
0.0129571
0.0129121
0.0128665
0.0128205
0.0127743
0.0127278
0.0126822
0.012639
0.0125992
0.0125636
0.0125322
0.0125043
0.0124786
0.0124537
0.0124276
0.0123979
0.0123606
0.0123109
0.0122437
0.0121546
0.0120419
0.011906
0.01175
0.0115781
0.0113952
0.0112068
0.0110192
0.0108419
0.0106831
0.0105508
0.0104535
0.0104
0.010367
0.0103576
0.0103683
0.0103936
0.0104271
0.0104622
0.0104931
0.0105149
0.0105245
0.0105202
0.0105008
0.0104657
0.0104133
0.0103525
0.0131314
0.0130879
0.0130438
0.0129986
0.012953
0.0129068
0.0128602
0.0128131
0.0127654
0.0127173
0.0126688
0.0126201
0.0125715
0.0125231
0.0124754
0.0124295
0.0123864
0.0123466
0.0123102
0.0122764
0.0122442
0.0122114
0.0121753
0.0121327
0.012081
0.0120182
0.0119437
0.0118581
0.0117628
0.0116601
0.011553
0.0114458
0.0113434
0.0112513
0.0111752
0.0111201
0.0110778
0.0110423
0.0110123
0.0109858
0.0109607
0.0109345
0.0109054
0.0108723
0.0108348
0.0107927
0.0107461
0.0106951
0.0106406
0.010571
0.0131233
0.013071
0.0130176
0.0129634
0.0129092
0.012854
0.0127982
0.0127417
0.0126847
0.0126272
0.0125695
0.012512
0.0124554
0.0124005
0.0123477
0.0122973
0.0122498
0.0122053
0.0121643
0.0121269
0.0120926
0.0120608
0.0120305
0.0119997
0.0119668
0.01193
0.011888
0.0118403
0.0117867
0.0117277
0.0116642
0.0115981
0.0115314
0.0114669
0.011407
0.011354
0.011308
0.0112614
0.0112135
0.0111637
0.0111118
0.0110574
0.0110006
0.0109421
0.0108827
0.0108238
0.0107667
0.0107087
0.0106467
0.0105805
0.0131132
0.0130477
0.0129814
0.0129145
0.012847
0.0127786
0.0127094
0.012639
0.0125679
0.0124965
0.0124255
0.0123556
0.0122873
0.0122217
0.0121595
0.0121016
0.0120487
0.0120011
0.0119585
0.0119206
0.0118869
0.0118568
0.0118294
0.0118036
0.0117781
0.0117515
0.0117229
0.0116913
0.0116562
0.0116174
0.0115748
0.011529
0.0114803
0.0114299
0.0113786
0.0113268
0.0112742
0.0112208
0.0111633
0.0111015
0.0110356
0.0109663
0.0108948
0.0108228
0.0107522
0.0106858
0.01062
0.0105539
0.0104956
0.0104435
0.0130943
0.0130028
0.0129122
0.0128226
0.012732
0.0126413
0.0125496
0.0124568
0.0123635
0.0122701
0.0121775
0.0120873
0.0120012
0.0119222
0.0118509
0.0117877
0.011733
0.0116871
0.0116494
0.0116189
0.0115941
0.0115734
0.0115555
0.011539
0.0115226
0.0115051
0.0114858
0.011464
0.0114389
0.0114102
0.0113778
0.0113417
0.0113019
0.0112581
0.0112099
0.0111571
0.0110994
0.0110359
0.0109707
0.0108993
0.0108225
0.0107414
0.0106581
0.0105758
0.0104995
0.0104143
0.0103343
0.0102773
0.0102414
0.0102195
0.0130474
0.0128973
0.0127573
0.012623
0.0124906
0.0123599
0.0122286
0.0120963
0.0119639
0.0118332
0.0117077
0.0115911
0.0114853
0.0113944
0.0113214
0.0112672
0.0112303
0.0112077
0.0111961
0.0111926
0.0111942
0.011198
0.0112018
0.0112042
0.011204
0.0112002
0.0111924
0.0111803
0.0111636
0.0111425
0.0111165
0.0110855
0.0110489
0.0110068
0.0109583
0.0109029
0.0108397
0.0107673
0.010685
0.0105987
0.0105079
0.0104119
0.0103089
0.0101959
0.0100739
0.00998613
0.0099385
0.00992636
0.0099387
0.00996204
0.0127307
0.0125409
0.0123526
0.0121584
0.0119724
0.0117815
0.0115828
0.0113833
0.0111976
0.0110266
0.0108771
0.0107608
0.0106853
0.0106411
0.0106242
0.0106297
0.01065
0.0106794
0.0107133
0.0107481
0.0107814
0.0108112
0.0108365
0.0108565
0.0108704
0.010878
0.0108797
0.010875
0.0108635
0.0108456
0.0108218
0.0107921
0.0107558
0.0107123
0.0106601
0.0105975
0.0105235
0.0104369
0.0103362
0.0102193
0.0100831
0.00992659
0.00976084
0.00960918
0.00950293
0.00946682
0.00950301
0.0095763
0.00965556
0.00972508
0.0118185
0.0115068
0.01119
0.0108836
0.0106049
0.0103591
0.010154
0.00999386
0.00988038
0.00981111
0.00978279
0.00978841
0.0098224
0.00987782
0.00994891
0.0100283
0.0101097
0.0101898
0.0102654
0.0103341
0.0103947
0.0104469
0.0104906
0.0105257
0.0105521
0.0105692
0.010577
0.0105731
0.0105604
0.010541
0.0105138
0.0104781
0.0104328
0.0103775
0.0103103
0.0102285
0.0101286
0.0100065
0.00985684
0.00966955
0.0094244
0.00918465
0.0091432
0.00915471
0.00918727
0.00923761
0.0093088
0.00939035
0.00947142
0.0095431
0.0100142
0.0096708
0.00936637
0.00912642
0.00895725
0.0088541
0.00880782
0.00880768
0.00884266
0.0089037
0.00898373
0.00907675
0.00917852
0.00928546
0.00939479
0.00950378
0.00961002
0.00971166
0.00980688
0.0098941
0.00997215
0.0100402
0.0100978
0.0101445
0.0101799
0.0102032
0.0102137
0.0102112
0.0101978
0.0101743
0.0101394
0.0100914
0.0100278
0.00994676
0.00984709
0.00972923
0.0095973
0.0094602
0.00932886
0.00921404
0.00912732
0.0090841
0.00908173
0.00909859
0.00912729
0.00916674
0.00921584
0.00927004
0.00932448
0.00937315
0.00867871
0.0085297
0.00842951
0.00837965
0.00837079
0.0083919
0.00843311
0.0084874
0.00855034
0.00861968
0.00869427
0.00877339
0.00885652
0.00894294
0.00903182
0.00912202
0.00921215
0.00930081
0.00938647
0.0094675
0.0095423
0.00960937
0.00966728
0.00971483
0.00975116
0.00977556
0.00978772
0.00978783
0.0097764
0.0097535
0.00971865
0.00967168
0.00961258
0.00954248
0.00946379
0.0093801
0.00929616
0.00921723
0.00914793
0.00909167
0.00905133
0.00902909
0.00902236
0.00902553
0.00903571
0.00905202
0.00907283
0.00909611
0.00911861
0.00913643
0.00833393
0.00832713
0.00834037
0.00836858
0.00840565
0.00844701
0.00848996
0.00853333
0.00857703
0.0086215
0.00866723
0.00871469
0.00876429
0.00881622
0.00887046
0.00892677
0.0089846
0.00904323
0.00910168
0.00915871
0.00921295
0.009263
0.00930751
0.00934524
0.00937518
0.00939656
0.00940893
0.00941214
0.00940627
0.00939131
0.00936724
0.00933458
0.00929411
0.00924685
0.00919444
0.00913894
0.00908256
0.00902755
0.00897584
0.00892888
0.00888781
0.00885342
0.00882528
0.00880232
0.00878373
0.00876906
0.00875706
0.00874659
0.00873462
0.00871818
0.00825525
0.00826821
0.00828517
0.00830494
0.00832681
0.00835051
0.00837622
0.00840419
0.00843464
0.00846767
0.00850312
0.00854074
0.00858025
0.0086213
0.00866353
0.00870655
0.0087499
0.00879304
0.00883537
0.00887617
0.00891467
0.00895006
0.00898151
0.00900818
0.00902932
0.00904419
0.00905215
0.00905279
0.00904592
0.00903137
0.00900888
0.00897843
0.00894027
0.00889473
0.00884234
0.00878398
0.00872083
0.00865428
0.00858574
0.00851674
0.00844879
0.00838316
0.0083207
0.008262
0.00820735
0.00815653
0.00810855
0.00806193
0.00801361
0.00796082
0.00780027
0.00777638
0.0077549
0.00773747
0.00772544
0.00771991
0.00772168
0.00773115
0.00774823
0.00777248
0.00780318
0.00783951
0.00788051
0.00792507
0.00797211
0.00802053
0.00806927
0.00811735
0.00816379
0.00820768
0.00824818
0.00828444
0.00831561
0.00834086
0.00835949
0.00837086
0.0083744
0.00836959
0.00835594
0.008333
0.00830034
0.00825777
0.00820527
0.00814301
0.00807136
0.00799097
0.00790291
0.00780868
0.00771004
0.007609
0.00750766
0.00740796
0.00731142
0.00721916
0.0071317
0.00704873
0.00696943
0.00689203
0.00681401
0.00673186
0.0067596
0.00668888
0.0066223
0.00656217
0.00651018
0.00646764
0.00643539
0.00641381
0.00640288
0.00640227
0.00641135
0.00642924
0.00645494
0.00648728
0.00652501
0.00656685
0.00661145
0.00665747
0.00670351
0.00674819
0.00679021
0.00682829
0.00686123
0.00688792
0.00690734
0.00691858
0.00692073
0.00691308
0.00689508
0.00686628
0.00682629
0.00677493
0.00671223
0.00663844
0.00655416
0.00646035
0.00635842
0.00625014
0.00613762
0.00602309
0.00590872
0.00579636
0.00568755
0.00558337
0.00548434
0.00539016
0.00530023
0.00521278
0.00512633
0.00503842
0.0212417
0.0206511
0.0200613
0.0194612
0.0188481
0.0182225
0.0175876
0.0169485
0.0163108
0.015681
0.0150652
0.0144687
0.0138961
0.013351
0.0128356
0.0123512
0.0118984
0.0114767
0.0110848
0.0107212
0.0103838
0.0100701
0.00977756
0.00950333
0.00924468
0.00899896
0.0087636
0.00853614
0.00831442
0.00809656
0.00788086
0.00766588
0.00745052
0.00723404
0.00701593
0.00679606
0.00657469
0.00635237
0.00612987
0.00590807
0.00568792
0.00547043
0.00525659
0.00504734
0.00484354
0.00464595
0.00445551
0.00427224
0.0040963
0.00392728
9.32897e-06
9.20739e-06
9.09117e-06
8.97963e-06
8.87108e-06
8.76266e-06
8.65404e-06
8.54516e-06
8.43616e-06
8.32732e-06
8.21901e-06
8.11161e-06
8.00554e-06
7.90122e-06
7.79902e-06
7.69927e-06
7.6022e-06
7.50791e-06
7.41642e-06
7.32758e-06
7.24103e-06
7.14957e-06
7.03248e-06
6.92366e-06
6.81919e-06
6.71711e-06
6.61696e-06
6.51882e-06
6.42292e-06
6.32948e-06
6.23866e-06
6.15062e-06
6.06547e-06
5.98332e-06
5.90424e-06
5.82827e-06
5.75542e-06
5.68564e-06
5.61888e-06
5.555e-06
5.49385e-06
5.43529e-06
5.3788e-06
5.32385e-06
5.27034e-06
5.21824e-06
5.16744e-06
5.1174e-06
5.06634e-06
5.01038e-06
8.98109e-06
8.38617e-06
7.84461e-06
7.3499e-06
6.89852e-06
6.4872e-06
6.11102e-06
5.76593e-06
5.44855e-06
5.15609e-06
4.8862e-06
4.63691e-06
4.40654e-06
4.19361e-06
3.99676e-06
3.81471e-06
3.64622e-06
3.49008e-06
3.34517e-06
3.2103e-06
7.31832e-07
7.28732e-07
7.30181e-07
7.31412e-07
3.08951e-06
3.09343e-06
3.09602e-06
3.09717e-06
3.0965e-06
3.09371e-06
3.08863e-06
7.30989e-07
7.29515e-07
7.27773e-07
7.25814e-07
7.23689e-07
7.21436e-07
7.19079e-07
7.16608e-07
7.14014e-07
7.11284e-07
7.08402e-07
7.05402e-07
7.02326e-07
6.99166e-07
6.9593e-07
6.92682e-07
6.89626e-07
6.87117e-07
6.85433e-07
8.979e-06
8.37861e-06
7.82883e-06
7.32559e-06
6.8643e-06
6.4406e-06
6.05054e-06
5.69069e-06
5.3581e-06
5.05028e-06
4.76508e-06
4.5007e-06
4.25552e-06
4.02811e-06
3.81715e-06
3.62142e-06
3.43971e-06
3.27088e-06
3.11414e-06
7.30811e-07
7.25137e-07
7.1948e-07
7.1413e-07
7.09036e-07
7.04166e-07
6.99462e-07
6.94865e-07
6.90319e-07
6.85782e-07
6.81233e-07
6.76666e-07
6.72093e-07
6.67533e-07
6.63009e-07
6.58543e-07
6.5415e-07
6.49838e-07
6.45604e-07
6.41454e-07
6.37372e-07
6.33339e-07
6.29339e-07
6.25363e-07
6.21412e-07
6.1748e-07
6.13522e-07
6.09436e-07
6.05131e-07
6.00782e-07
5.97172e-07
8.97897e-06
8.38261e-06
7.83723e-06
7.33776e-06
6.87939e-06
6.45767e-06
6.06876e-06
5.70938e-06
5.37674e-06
5.06847e-06
4.78253e-06
4.51717e-06
4.27082e-06
4.0421e-06
3.8297e-06
3.63241e-06
3.44905e-06
3.27852e-06
3.12003e-06
7.31385e-07
7.25539e-07
7.19663e-07
7.13886e-07
7.08255e-07
7.02758e-07
6.9735e-07
6.91979e-07
6.86606e-07
6.81208e-07
6.75781e-07
6.70337e-07
6.64899e-07
6.59495e-07
6.54153e-07
6.48894e-07
6.43737e-07
6.38688e-07
6.33743e-07
6.2889e-07
6.24114e-07
6.19392e-07
6.14707e-07
6.10049e-07
6.05429e-07
6.00887e-07
5.96481e-07
5.92212e-07
5.87916e-07
5.83362e-07
5.78948e-07
8.97896e-06
8.38267e-06
7.83701e-06
7.33688e-06
6.87772e-06
6.45522e-06
6.06567e-06
5.70583e-06
5.37293e-06
5.06461e-06
4.77879e-06
4.51368e-06
4.26769e-06
4.03937e-06
3.82738e-06
3.63048e-06
3.44747e-06
3.2772e-06
3.11891e-06
7.31235e-07
7.25398e-07
7.19521e-07
7.13734e-07
7.0809e-07
7.02581e-07
6.97164e-07
6.91787e-07
6.86407e-07
6.80998e-07
6.75552e-07
6.70079e-07
6.64597e-07
6.59132e-07
6.53712e-07
6.4836e-07
6.43094e-07
6.37921e-07
6.32838e-07
6.27838e-07
6.22904e-07
6.18021e-07
6.13171e-07
6.08333e-07
6.03489e-07
5.98643e-07
5.93853e-07
5.89236e-07
5.84828e-07
5.80394e-07
5.75974e-07
8.97896e-06
8.38297e-06
7.83787e-06
7.33841e-06
6.87995e-06
6.45816e-06
6.06926e-06
5.71003e-06
5.37769e-06
5.06987e-06
4.7845e-06
4.51979e-06
4.27412e-06
4.04604e-06
3.8342e-06
3.63733e-06
3.45425e-06
3.28381e-06
3.12524e-06
3.08866e-06
7.26211e-07
7.20185e-07
7.142e-07
7.08315e-07
7.02536e-07
6.96838e-07
6.91187e-07
6.85559e-07
6.79937e-07
6.74322e-07
6.68725e-07
6.63165e-07
6.57666e-07
6.52248e-07
6.46929e-07
6.41719e-07
6.36618e-07
6.31618e-07
6.26706e-07
6.2186e-07
6.17064e-07
6.12305e-07
6.07576e-07
6.02864e-07
5.98142e-07
5.93398e-07
5.88695e-07
5.84164e-07
5.79735e-07
5.75366e-07
8.97896e-06
8.38302e-06
7.83798e-06
7.33852e-06
6.87994e-06
6.45795e-06
6.06884e-06
5.70941e-06
5.37693e-06
5.06903e-06
4.78368e-06
4.51904e-06
4.27349e-06
4.04554e-06
3.83382e-06
3.63703e-06
3.45397e-06
3.28348e-06
3.12478e-06
7.31902e-07
7.25995e-07
7.19965e-07
7.13948e-07
7.08013e-07
7.02173e-07
6.96412e-07
6.90703e-07
6.85024e-07
6.79365e-07
6.73728e-07
6.68123e-07
6.62569e-07
6.57088e-07
6.51698e-07
6.46413e-07
6.41241e-07
6.36181e-07
6.31226e-07
6.26358e-07
6.21556e-07
6.16795e-07
6.12058e-07
6.07341e-07
6.02653e-07
5.97998e-07
5.93346e-07
5.88692e-07
5.84122e-07
5.79658e-07
5.75287e-07
8.97896e-06
8.38305e-06
7.83805e-06
7.33862e-06
6.88008e-06
6.45815e-06
6.06913e-06
5.70985e-06
5.37759e-06
5.06998e-06
4.78496e-06
4.52069e-06
4.2755e-06
4.04787e-06
3.83641e-06
3.63979e-06
3.45679e-06
3.28625e-06
3.12668e-06
7.19558e-07
7.17902e-07
7.14647e-07
7.10431e-07
7.05662e-07
7.00575e-07
6.953e-07
6.8991e-07
6.84445e-07
6.78936e-07
6.73409e-07
6.67891e-07
6.62409e-07
6.56987e-07
6.51646e-07
6.46401e-07
6.4126e-07
6.36224e-07
6.31286e-07
6.26433e-07
6.21647e-07
6.16905e-07
6.12181e-07
6.0746e-07
6.02748e-07
5.98069e-07
5.93427e-07
5.888e-07
5.84222e-07
5.79729e-07
5.7533e-07
8.97895e-06
8.38302e-06
7.838e-06
7.33852e-06
6.87989e-06
6.45787e-06
6.06878e-06
5.70947e-06
5.37723e-06
5.06972e-06
4.78486e-06
4.52078e-06
4.27579e-06
4.04835e-06
3.83701e-06
3.64046e-06
3.45744e-06
3.28679e-06
3.12702e-06
7.19401e-07
7.17642e-07
7.14334e-07
7.1009e-07
7.05303e-07
7.00207e-07
6.94933e-07
6.89553e-07
6.84109e-07
6.78633e-07
6.73147e-07
6.67676e-07
6.62244e-07
6.56871e-07
6.51575e-07
6.4637e-07
6.41263e-07
6.36254e-07
6.31338e-07
6.26502e-07
6.21731e-07
6.17008e-07
6.12313e-07
6.07626e-07
6.02935e-07
5.98256e-07
5.93613e-07
5.89003e-07
5.84437e-07
5.79941e-07
5.7552e-07
8.97896e-06
8.38301e-06
7.83796e-06
7.33842e-06
6.87973e-06
6.45765e-06
6.06852e-06
5.70924e-06
5.37711e-06
5.06978e-06
4.78514e-06
4.52133e-06
4.27662e-06
4.04943e-06
3.83828e-06
3.64183e-06
3.45882e-06
3.28809e-06
3.12815e-06
7.19704e-07
7.17827e-07
7.14416e-07
7.10085e-07
7.05227e-07
7.00077e-07
6.94768e-07
6.89371e-07
6.83928e-07
6.78466e-07
6.73006e-07
6.67568e-07
6.62171e-07
6.56831e-07
6.51564e-07
6.46382e-07
6.41292e-07
6.36295e-07
6.31388e-07
6.26559e-07
6.21793e-07
6.17074e-07
6.12389e-07
6.07724e-07
6.03064e-07
5.98405e-07
5.93768e-07
5.89165e-07
5.84608e-07
5.80109e-07
5.75676e-07
8.97895e-06
8.383e-06
7.83788e-06
7.33826e-06
6.87947e-06
6.45728e-06
6.0681e-06
5.70881e-06
5.37674e-06
5.06954e-06
4.78511e-06
4.52152e-06
4.27705e-06
4.05006e-06
3.83907e-06
3.64271e-06
3.45969e-06
3.28887e-06
3.12949e-06
3.09055e-06
7.26153e-07
7.1981e-07
7.13558e-07
7.07451e-07
7.01494e-07
6.95665e-07
6.89938e-07
6.84288e-07
6.787e-07
6.73167e-07
6.67688e-07
6.62269e-07
6.56916e-07
6.51638e-07
6.46444e-07
6.41341e-07
6.3633e-07
6.3141e-07
6.2657e-07
6.21797e-07
6.17077e-07
6.12392e-07
6.07734e-07
6.03092e-07
5.98456e-07
5.93834e-07
5.89239e-07
5.84684e-07
5.80177e-07
5.75733e-07
8.97893e-06
8.38294e-06
7.83776e-06
7.33802e-06
6.8791e-06
6.4568e-06
6.06752e-06
5.7082e-06
5.37617e-06
5.06908e-06
4.7848e-06
4.52141e-06
4.27713e-06
4.05031e-06
3.83944e-06
3.64313e-06
3.4601e-06
3.28918e-06
3.12959e-06
7.31885e-07
7.24948e-07
7.18326e-07
7.12134e-07
7.06292e-07
7.00676e-07
6.95182e-07
6.89737e-07
6.84302e-07
6.78864e-07
6.73424e-07
6.67994e-07
6.62587e-07
6.57221e-07
6.51912e-07
6.46676e-07
6.41523e-07
6.3646e-07
6.3149e-07
6.26608e-07
6.21803e-07
6.17061e-07
6.12367e-07
6.07706e-07
6.03069e-07
5.98447e-07
5.93839e-07
5.89254e-07
5.84701e-07
5.80189e-07
5.75726e-07
8.97894e-06
8.38291e-06
7.83767e-06
7.33783e-06
6.87879e-06
6.45639e-06
6.06705e-06
5.70775e-06
5.3758e-06
5.06886e-06
4.7848e-06
4.52165e-06
4.27761e-06
4.05101e-06
3.84031e-06
3.64409e-06
3.46107e-06
3.29009e-06
3.13037e-06
7.31923e-07
7.24875e-07
7.18232e-07
7.12068e-07
7.06266e-07
7.0069e-07
6.95229e-07
6.89812e-07
6.844e-07
6.78979e-07
6.7355e-07
6.68122e-07
6.6271e-07
6.57331e-07
6.52001e-07
6.46736e-07
6.4155e-07
6.36453e-07
6.31448e-07
6.26536e-07
6.21711e-07
6.1696e-07
6.12267e-07
6.07617e-07
6.02995e-07
5.98393e-07
5.93806e-07
5.89239e-07
5.84694e-07
5.80186e-07
5.7571e-07
8.97894e-06
8.38286e-06
7.83748e-06
7.33746e-06
6.8782e-06
6.45557e-06
6.06602e-06
5.70654e-06
5.37447e-06
5.06748e-06
4.78341e-06
4.52029e-06
4.2763e-06
4.04974e-06
3.83906e-06
3.64282e-06
3.45973e-06
3.28865e-06
3.12881e-06
7.29232e-07
7.21862e-07
7.15951e-07
7.10707e-07
7.05677e-07
7.00642e-07
6.95509e-07
6.9026e-07
6.84907e-07
6.79478e-07
6.74003e-07
6.68511e-07
6.63026e-07
6.57571e-07
6.52168e-07
6.46832e-07
6.41582e-07
6.36429e-07
6.31378e-07
6.26431e-07
6.21583e-07
6.16825e-07
6.12137e-07
6.07504e-07
6.02908e-07
5.98337e-07
5.93785e-07
5.89247e-07
5.84726e-07
5.80232e-07
5.75762e-07
8.97892e-06
8.38276e-06
7.83723e-06
7.33708e-06
6.87776e-06
6.45515e-06
6.0657e-06
5.70639e-06
5.37456e-06
5.06784e-06
4.78407e-06
4.52125e-06
4.27752e-06
4.05117e-06
3.84062e-06
3.64444e-06
3.46134e-06
3.29017e-06
3.13019e-06
7.2941e-07
7.21956e-07
7.16011e-07
7.10773e-07
7.05777e-07
7.00789e-07
6.95708e-07
6.90507e-07
6.85194e-07
6.79795e-07
6.74336e-07
6.68845e-07
6.63348e-07
6.57868e-07
6.52428e-07
6.47049e-07
6.4175e-07
6.36548e-07
6.31452e-07
6.26469e-07
6.21594e-07
6.16819e-07
6.1213e-07
6.07506e-07
6.0293e-07
5.98384e-07
5.93862e-07
5.89356e-07
5.84868e-07
5.80399e-07
5.75957e-07
8.97892e-06
8.38244e-06
7.83628e-06
7.33536e-06
6.8752e-06
6.45175e-06
6.06155e-06
5.7016e-06
5.36927e-06
5.0622e-06
4.7782e-06
4.51526e-06
4.27149e-06
4.04516e-06
3.83466e-06
3.63855e-06
3.45553e-06
3.28445e-06
3.12458e-06
7.28541e-07
7.21145e-07
7.1529e-07
7.10178e-07
7.05341e-07
7.00537e-07
6.95651e-07
6.90641e-07
6.855e-07
6.80243e-07
6.74892e-07
6.69472e-07
6.64011e-07
6.58537e-07
6.53077e-07
6.4766e-07
6.42312e-07
6.37057e-07
6.31911e-07
6.26886e-07
6.21984e-07
6.17196e-07
6.1251e-07
6.07909e-07
6.03376e-07
5.98891e-07
5.94446e-07
5.90032e-07
5.85655e-07
5.81319e-07
5.77033e-07
8.97893e-06
8.38234e-06
7.83641e-06
7.33606e-06
6.87658e-06
6.4538e-06
6.06415e-06
5.70464e-06
5.37261e-06
5.06572e-06
4.78178e-06
4.51881e-06
4.27494e-06
4.04842e-06
3.83768e-06
3.64127e-06
3.45792e-06
3.2865e-06
3.12627e-06
7.28829e-07
7.21496e-07
7.1567e-07
7.1054e-07
7.05677e-07
7.00858e-07
6.95976e-07
6.90992e-07
6.85896e-07
6.80704e-07
6.75436e-07
6.70113e-07
6.64758e-07
6.59393e-07
6.54047e-07
6.48747e-07
6.43521e-07
6.38397e-07
6.33398e-07
6.28537e-07
6.23823e-07
6.19253e-07
6.14817e-07
6.10501e-07
6.06291e-07
6.02174e-07
5.98139e-07
5.94187e-07
5.90325e-07
5.86574e-07
5.82957e-07
8.97891e-06
8.37817e-06
7.82774e-06
7.32349e-06
6.86095e-06
6.43605e-06
6.04519e-06
5.68519e-06
5.35327e-06
5.04695e-06
4.76394e-06
4.50215e-06
4.25964e-06
4.03463e-06
3.82548e-06
3.63072e-06
3.44906e-06
3.27933e-06
3.12085e-06
7.31679e-07
7.25956e-07
7.2035e-07
7.14961e-07
7.09669e-07
7.04443e-07
6.99272e-07
6.9416e-07
6.89113e-07
6.84227e-07
6.79576e-07
6.75108e-07
6.70762e-07
6.66486e-07
6.62254e-07
6.5806e-07
6.53918e-07
6.4985e-07
6.45885e-07
6.42049e-07
6.38362e-07
6.34837e-07
6.31478e-07
6.28284e-07
6.25246e-07
6.22359e-07
6.1962e-07
6.17042e-07
6.14643e-07
6.12464e-07
6.10567e-07
8.98064e-06
8.3848e-06
7.84209e-06
7.34594e-06
6.89297e-06
6.48029e-06
6.1033e-06
5.7582e-06
5.44174e-06
5.15106e-06
4.88367e-06
4.63731e-06
4.40992e-06
4.19966e-06
4.00482e-06
3.82391e-06
3.65555e-06
3.49856e-06
3.35194e-06
3.21455e-06
3.08819e-06
7.28893e-07
7.29149e-07
7.28456e-07
7.26818e-07
7.24481e-07
7.21705e-07
7.18736e-07
7.17325e-07
7.17394e-07
7.18374e-07
7.19693e-07
7.20923e-07
7.21799e-07
7.22198e-07
7.221e-07
7.21552e-07
7.20632e-07
7.19442e-07
7.18072e-07
7.16601e-07
7.15093e-07
7.13592e-07
7.12134e-07
7.1074e-07
7.09434e-07
7.08244e-07
7.07212e-07
7.06431e-07
7.06051e-07
9.33039e-06
9.208e-06
9.0904e-06
8.97738e-06
8.86705e-06
8.75676e-06
8.64655e-06
8.53676e-06
8.42784e-06
8.32023e-06
8.21429e-06
8.11025e-06
8.0082e-06
7.9081e-06
7.80985e-06
7.71326e-06
7.61816e-06
7.52442e-06
7.43191e-06
7.34057e-06
7.25014e-06
7.15229e-06
7.03296e-06
6.92308e-06
6.8189e-06
6.71849e-06
6.62095e-06
6.5259e-06
6.42806e-06
6.33064e-06
6.23595e-06
6.14495e-06
6.05792e-06
5.97473e-06
5.89517e-06
5.81894e-06
5.74574e-06
5.67529e-06
5.60725e-06
5.54137e-06
5.47729e-06
5.4147e-06
5.35325e-06
5.29264e-06
5.2326e-06
5.17292e-06
5.11336e-06
5.05374e-06
4.99376e-06
4.93256e-06
2.39143e-05
6.54993e-06
8.15806e-06
7.37287e-06
5.22646e-06
3.32675e-06
6.40412e-07
5.39187e-07
4.68159e-07
4.08264e-07
3.47407e-07
3.49699e-07
3.77678e-07
4.38604e-07
5.17464e-07
5.93695e-07
6.55986e-07
7.03516e-07
4.07258e-06
7.3669e-05
2.28932e-05
6.57951e-06
8.23172e-06
7.42887e-06
5.25566e-06
3.34001e-06
6.39795e-07
5.38825e-07
4.68491e-07
4.0788e-07
3.4226e-07
3.44832e-07
3.73736e-07
4.34108e-07
5.12788e-07
5.90416e-07
6.54359e-07
7.03074e-07
4.11764e-06
7.71436e-05
2.19131e-05
6.61284e-06
8.305e-06
7.48437e-06
5.28547e-06
3.35533e-06
6.39439e-07
5.38832e-07
4.69059e-07
4.07677e-07
3.38476e-07
3.40196e-07
3.71063e-07
4.31523e-07
5.10309e-07
5.88572e-07
6.53174e-07
7.02511e-07
4.1533e-06
8.04076e-05
2.09712e-05
6.65062e-06
8.37749e-06
7.53919e-06
5.31607e-06
3.37385e-06
6.39414e-07
5.39086e-07
4.6979e-07
4.0774e-07
3.36862e-07
3.35722e-07
3.69087e-07
4.29725e-07
5.08545e-07
5.8729e-07
6.52346e-07
7.02165e-07
4.19771e-06
8.38804e-05
2.00657e-05
6.69301e-06
8.4489e-06
7.59525e-06
5.34935e-06
3.39397e-06
6.39629e-07
5.39584e-07
4.70575e-07
4.07849e-07
3.38313e-07
3.32219e-07
3.67506e-07
4.28545e-07
5.07438e-07
5.86543e-07
6.51862e-07
7.02051e-07
4.25948e-06
8.75381e-05
1.91946e-05
6.73903e-06
8.52072e-06
7.65318e-06
5.38516e-06
3.41584e-06
6.40132e-07
5.40347e-07
4.71618e-07
4.08358e-07
3.40263e-07
3.30093e-07
3.66572e-07
4.27624e-07
5.06912e-07
5.86311e-07
6.51707e-07
7.02237e-07
4.36478e-06
9.13037e-05
1.83571e-05
6.78734e-06
8.59286e-06
7.71342e-06
5.42405e-06
3.43991e-06
6.40986e-07
5.4145e-07
4.7302e-07
4.09508e-07
3.42775e-07
3.29197e-07
3.66312e-07
4.27278e-07
5.06801e-07
5.86549e-07
6.51884e-07
7.02924e-07
4.51495e-06
9.51632e-05
1.75553e-05
6.83466e-06
8.66522e-06
7.77646e-06
5.46681e-06
3.46682e-06
6.4225e-07
5.42951e-07
4.74894e-07
4.11549e-07
3.46129e-07
3.29452e-07
3.66715e-07
4.27633e-07
5.07365e-07
5.87224e-07
6.52325e-07
7.04306e-07
4.70932e-06
9.911e-05
1.67874e-05
6.88044e-06
8.73784e-06
7.84277e-06
5.51417e-06
3.49719e-06
6.43984e-07
5.44899e-07
4.77307e-07
4.14573e-07
3.5056e-07
3.30939e-07
3.67864e-07
4.28773e-07
5.0864e-07
5.88357e-07
6.53019e-07
7.06508e-07
4.94908e-06
0.000103137
1.6051e-05
6.92405e-06
8.81064e-06
7.91291e-06
5.56692e-06
3.53164e-06
6.46238e-07
5.47322e-07
4.80285e-07
4.18592e-07
3.56203e-07
3.33791e-07
3.6988e-07
4.30798e-07
5.10654e-07
5.89933e-07
6.53971e-07
7.09651e-07
5.23607e-06
0.000107239
1.53441e-05
6.96497e-06
8.88348e-06
7.98747e-06
5.62585e-06
3.57077e-06
6.49045e-07
5.50232e-07
4.83817e-07
4.23553e-07
3.63107e-07
3.38211e-07
3.7293e-07
4.33801e-07
5.13414e-07
5.9193e-07
6.55182e-07
7.13768e-07
5.57288e-06
0.000111407
1.46646e-05
7.00265e-06
8.95619e-06
8.06688e-06
5.69162e-06
3.6151e-06
6.52426e-07
5.53622e-07
4.87862e-07
4.29349e-07
3.71226e-07
3.44326e-07
3.77181e-07
4.37851e-07
5.16907e-07
5.94315e-07
6.56623e-07
7.18631e-07
5.96298e-06
0.000115636
1.40102e-05
7.03641e-06
9.02862e-06
8.15151e-06
5.76487e-06
3.66515e-06
6.56389e-07
5.57471e-07
4.92355e-07
4.35832e-07
3.80451e-07
3.52233e-07
3.82774e-07
4.42979e-07
5.21086e-07
5.97039e-07
6.58195e-07
7.23316e-07
6.41043e-06
0.000119918
1.33792e-05
7.06567e-06
9.10061e-06
8.24173e-06
5.84621e-06
3.72143e-06
6.60938e-07
5.61754e-07
4.97229e-07
4.42851e-07
3.906e-07
3.6192e-07
3.89787e-07
4.49158e-07
5.25881e-07
6.00051e-07
6.59949e-07
7.26458e-07
6.91106e-06
0.000124245
1.27695e-05
7.08985e-06
9.17186e-06
8.33782e-06
5.9362e-06
3.78441e-06
6.66072e-07
5.66445e-07
5.02417e-07
4.50258e-07
4.01447e-07
3.73228e-07
3.98212e-07
4.56304e-07
5.31197e-07
6.03299e-07
6.61942e-07
3.09548e-06
7.46481e-06
0.000128609
1.21792e-05
7.10837e-06
9.24204e-06
8.44001e-06
6.03532e-06
3.85458e-06
6.71784e-07
5.71519e-07
5.07859e-07
4.57925e-07
4.12755e-07
3.85854e-07
4.07934e-07
4.64281e-07
5.36927e-07
6.06729e-07
6.64198e-07
3.1388e-06
8.07079e-06
0.000133001
1.16068e-05
7.12065e-06
9.31087e-06
8.54847e-06
6.14405e-06
3.93244e-06
6.78074e-07
5.76953e-07
5.13502e-07
4.65736e-07
4.2429e-07
3.99379e-07
4.18733e-07
4.7291e-07
5.42951e-07
6.10287e-07
6.66739e-07
3.19444e-06
8.72727e-06
0.000137412
1.10508e-05
7.12614e-06
9.37802e-06
8.6633e-06
6.26285e-06
4.01856e-06
6.84938e-07
5.82732e-07
5.19301e-07
4.73585e-07
4.35825e-07
4.1334e-07
4.30313e-07
4.81988e-07
5.49147e-07
6.13925e-07
6.69593e-07
3.26254e-06
9.43193e-06
0.000141833
1.05098e-05
7.12433e-06
9.44304e-06
8.78453e-06
6.39218e-06
4.11357e-06
6.92382e-07
5.88846e-07
5.25219e-07
4.81381e-07
4.47168e-07
4.27313e-07
4.42347e-07
4.91305e-07
5.55401e-07
6.17603e-07
6.72785e-07
3.34315e-06
1.01822e-05
0.000146257
9.9826e-06
7.11472e-06
9.50547e-06
8.91219e-06
6.53256e-06
4.2182e-06
7.0042e-07
5.953e-07
5.3124e-07
4.89056e-07
4.58175e-07
4.4098e-07
4.54526e-07
5.00669e-07
5.61613e-07
6.21289e-07
6.76341e-07
3.43628e-06
1.09757e-05
0.000150674
9.46836e-06
7.09679e-06
9.56483e-06
9.04629e-06
6.68457e-06
4.33338e-06
7.09077e-07
6.02112e-07
5.37366e-07
4.96576e-07
4.68751e-07
4.54137e-07
4.66587e-07
5.09921e-07
5.67707e-07
6.24969e-07
6.80295e-07
3.54202e-06
1.18103e-05
0.000155077
8.96629e-06
7.07005e-06
9.6206e-06
9.18688e-06
6.84888e-06
4.46021e-06
7.18392e-07
6.09319e-07
5.43624e-07
5.03944e-07
4.7885e-07
4.66671e-07
4.78336e-07
5.18936e-07
5.73629e-07
6.28637e-07
6.84683e-07
3.66062e-06
1.26851e-05
0.000159458
8.47577e-06
7.03404e-06
9.67225e-06
9.33397e-06
7.02626e-06
4.60006e-06
3.07834e-06
6.16973e-07
5.50056e-07
5.11192e-07
4.88464e-07
4.78535e-07
4.89637e-07
5.27631e-07
5.79347e-07
6.32302e-07
6.89555e-07
3.79263e-06
1.35999e-05
0.000163809
7.99637e-06
6.98831e-06
9.71916e-06
9.48757e-06
7.21758e-06
4.75466e-06
3.14711e-06
6.25141e-07
5.56721e-07
5.18376e-07
4.97624e-07
4.89714e-07
5.00407e-07
5.35953e-07
5.84846e-07
6.35986e-07
6.94975e-07
3.93895e-06
1.45562e-05
0.000168121
7.52783e-06
6.93243e-06
9.76069e-06
9.64768e-06
7.42372e-06
4.92363e-06
3.24879e-06
6.34124e-07
5.63682e-07
5.25564e-07
5.06391e-07
5.00215e-07
5.106e-07
5.43877e-07
5.90133e-07
6.39725e-07
7.0103e-07
4.10105e-06
1.55574e-05
0.000172386
7.07001e-06
6.86593e-06
9.79605e-06
9.81429e-06
7.64585e-06
5.10926e-06
3.3613e-06
6.43828e-07
5.71017e-07
5.32832e-07
5.14852e-07
5.10077e-07
5.20206e-07
5.51406e-07
5.95229e-07
6.43573e-07
7.07842e-07
4.28111e-06
1.66088e-05
0.000176596
6.62285e-06
6.78831e-06
9.82439e-06
9.98736e-06
7.88542e-06
5.31386e-06
3.48668e-06
6.54386e-07
5.78813e-07
5.40254e-07
5.23112e-07
5.19375e-07
5.29252e-07
5.58566e-07
6.00176e-07
6.47607e-07
7.15575e-07
4.48223e-06
1.77186e-05
0.000180741
6.18639e-06
6.69905e-06
9.84467e-06
1.01667e-05
8.14394e-06
5.53998e-06
3.62727e-06
6.65959e-07
5.87174e-07
5.47904e-07
5.31279e-07
5.2822e-07
5.378e-07
5.65409e-07
6.05041e-07
6.51935e-07
7.24446e-07
4.70886e-06
1.88981e-05
0.000184813
5.76071e-06
6.59759e-06
9.85567e-06
1.03521e-05
8.42304e-06
5.79065e-06
3.78606e-06
6.78743e-07
5.96231e-07
5.5586e-07
5.39456e-07
5.36749e-07
5.45946e-07
5.72009e-07
6.09887e-07
6.56377e-07
3.09384e-06
4.96852e-06
2.01604e-05
0.0001888
5.3459e-06
6.48334e-06
9.85592e-06
1.05428e-05
8.72443e-06
6.06942e-06
3.96677e-06
6.92973e-07
6.0615e-07