/*--------------------------------*- C++ -*----------------------------------*\
  =========                 |
  \\      /  F ield         | OpenFOAM: The Open Source CFD Toolbox
   \\    /   O peration     | Website:  https://openfoam.org
    \\  /    A nd           | Version:  8
     \\/     M anipulation  |
\*---------------------------------------------------------------------------*/
FoamFile
{
    version     2.0;
    format      ascii;
    class       volScalarField;
    location    "500";
    object      k;
}
// * * * * * * * * * * * * * * * * * * * * * * * * * * * * * * * * * * * * * //

dimensions      [0 2 -2 0 0 0 0];

internalField   nonuniform List<scalar> 
8400
(
0.00286755
0.00279841
0.00273204
0.00266179
0.00259008
0.00252012
0.00245392
0.00239272
0.00233742
0.00228871
0.00224708
0.00221263
0.00218495
0.00216297
0.00214578
0.00213362
0.00212812
0.00213152
0.00214414
0.00215943
0.00216731
0.00216853
0.00216866
0.00216936
0.00217064
0.00217218
0.00217366
0.00217485
0.00217555
0.00217561
0.00217489
0.00217327
0.00217063
0.00216685
0.00216173
0.00215504
0.00214654
0.00213598
0.00212168
0.00210112
0.00207161
0.00203018
0.00197346
0.00189791
0.00180042
0.00167878
0.00153188
0.00136032
0.00116884
0.000979831
0.00234124
0.00223652
0.00217561
0.0021444
0.00212161
0.002097
0.00206609
0.00202796
0.00198295
0.00193271
0.00187986
0.00182764
0.001781
0.00174578
0.00172171
0.00169976
0.00167004
0.00164389
0.00162347
0.00163411
0.00166639
0.0017049
0.00174124
0.00177505
0.00180782
0.00184076
0.0018746
0.00190958
0.00194562
0.00198243
0.00201966
0.00205693
0.00209394
0.00213036
0.00216566
0.00219897
0.0022289
0.00225321
0.0022732
0.00229002
0.00230376
0.00231333
0.00231648
0.00230974
0.00228816
0.00224416
0.0021661
0.00203227
0.00180441
0.00144844
0.00298232
0.00295898
0.00293445
0.00290925
0.00288443
0.00285976
0.00283582
0.00281597
0.00280037
0.00278637
0.00276986
0.00274678
0.00272077
0.00268948
0.00264768
0.00254767
0.00209128
0.0019114
0.00170829
0.00163624
0.00162491
0.0016488
0.00168698
0.00173017
0.00177567
0.00182248
0.00186988
0.00191709
0.00196342
0.00200848
0.0020522
0.00209475
0.00213603
0.00217524
0.00221095
0.00224139
0.00226684
0.0022882
0.00230779
0.00232844
0.0023501
0.0023719
0.00239209
0.00240894
0.00242139
0.00242575
0.0024234
0.00241387
0.00239331
0.00235228
0.00299361
0.00298636
0.00297897
0.00297141
0.00296359
0.00295609
0.00294949
0.00294334
0.00293732
0.00293125
0.00292497
0.00291847
0.00291055
0.00290116
0.00288985
0.00287563
0.00285741
0.00282436
0.00277594
0.00271676
0.00264409
0.00255979
0.00246895
0.00237672
0.00228777
0.00220544
0.00213132
0.00206518
0.00200481
0.00194711
0.00195617
0.00200717
0.00205361
0.00209561
0.00214465
0.00221281
0.00226346
0.0022962
0.00231564
0.00233862
0.00236444
0.00239073
0.00241497
0.00243524
0.00245032
0.00245955
0.00246258
0.00245905
0.00244803
0.00242706
0.00299651
0.00299282
0.0029891
0.00298533
0.00298155
0.00297778
0.00297395
0.00297006
0.00296608
0.00296203
0.0029579
0.00295355
0.00294889
0.00294384
0.00293829
0.00293206
0.00292493
0.00291622
0.00290499
0.00289019
0.00287023
0.00284359
0.00280948
0.00276811
0.00272067
0.00266903
0.00261522
0.00256112
0.00250823
0.00245738
0.00241349
0.00237961
0.00235456
0.00233759
0.00232712
0.00232586
0.00233646
0.00235644
0.00238189
0.00240924
0.00243591
0.00246008
0.00248048
0.00249636
0.00250736
0.00251336
0.00251433
0.00251014
0.00250031
0.00248736
0.00299403
0.00298748
0.00298092
0.00297431
0.00296761
0.00296082
0.00295389
0.00294686
0.00293978
0.00293275
0.00292596
0.0029196
0.0029138
0.00290862
0.002904
0.00289983
0.00289591
0.00289195
0.00288761
0.00288241
0.00287571
0.00286673
0.00285465
0.00283889
0.00281924
0.00279593
0.00276956
0.00274098
0.00271116
0.00268111
0.00265233
0.00262625
0.00260412
0.00258723
0.00257693
0.00256987
0.00256648
0.00256629
0.00256857
0.0025724
0.00257686
0.00258109
0.00258431
0.00258596
0.00258567
0.00258322
0.00257846
0.0025712
0.00256194
0.00254983
0.00299402
0.00298741
0.00298067
0.00297383
0.00296686
0.0029598
0.00295268
0.00294547
0.00293818
0.00293081
0.00292339
0.00291593
0.00290848
0.00290111
0.00289391
0.00288703
0.00288058
0.00287466
0.00286924
0.00286419
0.00285924
0.00285399
0.00284795
0.00284061
0.00283158
0.00282063
0.00280776
0.00279317
0.00277725
0.00276054
0.00274369
0.00272745
0.00271264
0.0027001
0.00269054
0.0026831
0.0026766
0.00267092
0.00266585
0.00266109
0.00265632
0.00265125
0.00264566
0.00263944
0.00263256
0.00262508
0.00261702
0.00260837
0.00259849
0.00258596
0.00299282
0.00298483
0.00297673
0.00296854
0.00296029
0.00295192
0.00294346
0.00293489
0.00292623
0.00291751
0.00290878
0.00290004
0.00289142
0.002883
0.00287486
0.00286711
0.00285982
0.00285305
0.00284684
0.00284123
0.00283612
0.00283136
0.0028267
0.00282185
0.00281646
0.00281027
0.00280311
0.00279493
0.00278581
0.00277594
0.00276558
0.00275509
0.00274483
0.0027352
0.00272652
0.00271892
0.00271122
0.00270329
0.00269506
0.00268646
0.00267745
0.00266801
0.00265822
0.00264823
0.00263826
0.00262856
0.00261938
0.00260976
0.0025996
0.00258868
0.00299127
0.0029813
0.00297122
0.00296104
0.00295077
0.00294043
0.00292997
0.00291938
0.00290866
0.00289789
0.00288715
0.00287654
0.00286614
0.00285613
0.00284662
0.00283773
0.00282959
0.00282223
0.00281567
0.00280988
0.00280481
0.00280033
0.00279625
0.00279235
0.00278839
0.00278414
0.00277939
0.00277404
0.00276804
0.00276138
0.00275414
0.00274645
0.00273842
0.0027302
0.00272186
0.00271339
0.00270479
0.00269542
0.0026853
0.00267445
0.00266295
0.00265096
0.0026387
0.00262656
0.00261499
0.00260443
0.00259362
0.00258376
0.00257522
0.00256748
0.00298836
0.0029746
0.00296093
0.00294729
0.00293361
0.00291986
0.00290605
0.00289219
0.00287818
0.00286421
0.00285039
0.00283688
0.00282396
0.00281188
0.00280085
0.00279102
0.00278249
0.00277526
0.00276932
0.00276449
0.00276058
0.0027574
0.00275468
0.00275216
0.00274962
0.00274684
0.00274363
0.00273988
0.0027355
0.00273042
0.00272466
0.00271822
0.00271111
0.00270331
0.00269479
0.00268544
0.00267513
0.00266453
0.00265267
0.0026398
0.002626
0.00261161
0.0025971
0.00258301
0.00257062
0.00255704
0.00254529
0.00253747
0.00253316
0.00253094
0.00298147
0.00295886
0.00293778
0.00291768
0.00289796
0.00287849
0.00285898
0.00283959
0.00282017
0.0028011
0.00278272
0.00276536
0.00274948
0.00273561
0.00272407
0.00271509
0.00270862
0.0027043
0.00270177
0.00270061
0.00270033
0.00270055
0.00270093
0.00270113
0.0027009
0.00270009
0.00269858
0.00269624
0.00269305
0.00268899
0.002684
0.00267804
0.00267108
0.00266305
0.00265386
0.00264333
0.00263126
0.00261759
0.00260352
0.00258794
0.00257063
0.00255256
0.00253515
0.00251654
0.00249461
0.00247941
0.00247371
0.00247535
0.00248111
0.00248783
0.00293948
0.00290747
0.00287908
0.00285077
0.00282329
0.00279549
0.00276763
0.00274007
0.00271362
0.00268832
0.00266599
0.00264779
0.00263383
0.00262447
0.00261938
0.00261788
0.002619
0.00262203
0.00262629
0.00263103
0.00263576
0.00264013
0.00264377
0.00264665
0.00264864
0.00264952
0.00264929
0.00264799
0.00264545
0.00264168
0.00263674
0.00263061
0.00262309
0.00261412
0.00260347
0.00259082
0.00257574
0.00255784
0.00253635
0.00251179
0.00248396
0.00245058
0.00240871
0.00237235
0.00236261
0.00237671
0.00239899
0.0024189
0.00243569
0.00245005
0.00280529
0.00275986
0.0027152
0.00267212
0.00263238
0.00259651
0.0025653
0.00253947
0.00251971
0.00250591
0.00249824
0.0024963
0.00249898
0.0025052
0.00251404
0.00252446
0.0025355
0.00254662
0.00255721
0.00256693
0.00257575
0.00258346
0.00258974
0.00259475
0.00259847
0.00260033
0.00260033
0.00259888
0.00259582
0.00259126
0.00258517
0.0025774
0.00256771
0.00255572
0.00254096
0.00252277
0.00249971
0.00247019
0.00243068
0.00236898
0.00230521
0.00230544
0.00231217
0.00231977
0.00233197
0.00234928
0.00236883
0.00238763
0.00240468
0.00241953
0.00251634
0.00246415
0.00241814
0.00238182
0.00235596
0.00233991
0.00233237
0.0023319
0.00233697
0.0023463
0.00235873
0.00237337
0.00238948
0.00240639
0.00242357
0.00244057
0.00245698
0.00247247
0.00248681
0.00249977
0.00251115
0.00252091
0.00252894
0.00253512
0.00253931
0.00254122
0.00254106
0.00253888
0.00253459
0.0025281
0.00251906
0.00250684
0.00249091
0.00247083
0.0024466
0.0024192
0.00239042
0.00236253
0.00233792
0.00231911
0.00230983
0.00231027
0.00231447
0.00232104
0.00233012
0.00234147
0.0023542
0.00236727
0.00237982
0.00239105
0.0022765
0.00225359
0.00223868
0.00223186
0.00223162
0.00223622
0.00224423
0.00225455
0.00226649
0.00227965
0.00229375
0.00230859
0.00232397
0.0023397
0.00235556
0.00237132
0.00238672
0.00240151
0.0024154
0.00242812
0.00243944
0.00244917
0.00245709
0.00246304
0.00246688
0.00246848
0.00246784
0.00246497
0.00245985
0.00245238
0.00244244
0.00243003
0.00241529
0.00239866
0.00238094
0.00236317
0.00234646
0.00233191
0.0023204
0.00231252
0.00230866
0.00230833
0.00231024
0.00231382
0.00231879
0.00232499
0.00233208
0.00233955
0.00234682
0.00235327
0.00221079
0.00221092
0.00221416
0.00221967
0.00222651
0.00223405
0.00224194
0.00225004
0.00225836
0.00226695
0.00227587
0.00228516
0.00229486
0.00230494
0.00231532
0.00232591
0.00233653
0.00234701
0.00235712
0.00236663
0.00237528
0.00238284
0.00238909
0.00239384
0.00239694
0.00239831
0.00239789
0.00239571
0.00239175
0.00238604
0.00237867
0.00236979
0.00235965
0.00234862
0.00233715
0.00232578
0.00231501
0.00230529
0.00229696
0.00229017
0.00228504
0.00228144
0.00227915
0.00227807
0.00227812
0.00227917
0.00228103
0.00228332
0.00228555
0.00228716
0.002195
0.00219804
0.00220174
0.00220591
0.00221047
0.00221539
0.00222068
0.00222638
0.00223247
0.00223897
0.00224581
0.00225294
0.00226033
0.00226788
0.00227554
0.00228321
0.00229081
0.00229823
0.00230533
0.00231198
0.00231801
0.00232326
0.00232758
0.00233084
0.00233289
0.00233363
0.002333
0.00233096
0.00232748
0.00232257
0.00231624
0.00230857
0.00229964
0.00228961
0.00227872
0.00226718
0.00225529
0.00224333
0.00223162
0.00222043
0.00221002
0.00220061
0.00219235
0.00218537
0.00217969
0.00217523
0.00217176
0.00216892
0.00216614
0.00216286
0.00210719
0.00210428
0.00210206
0.00210077
0.00210062
0.00210175
0.00210423
0.00210804
0.00211309
0.00211926
0.00212637
0.00213422
0.00214262
0.00215137
0.00216028
0.00216915
0.00217781
0.00218607
0.00219379
0.00220082
0.00220701
0.00221222
0.00221632
0.00221917
0.00222065
0.00222068
0.00221917
0.00221604
0.00221124
0.00220469
0.00219638
0.0021863
0.0021745
0.00216105
0.00214611
0.00212986
0.00211261
0.00209475
0.00207668
0.00205886
0.00204172
0.00202567
0.00201101
0.00199792
0.00198647
0.00197658
0.00196799
0.00196029
0.00195292
0.00194526
0.00190225
0.00189103
0.00188092
0.00187231
0.0018655
0.00186065
0.00185787
0.00185714
0.0018584
0.00186151
0.00186628
0.00187249
0.00187991
0.00188825
0.00189725
0.00190663
0.00191611
0.00192544
0.00193435
0.00194257
0.00194988
0.00195607
0.00196091
0.00196423
0.00196586
0.00196567
0.00196352
0.00195931
0.00195296
0.00194443
0.00193367
0.00192069
0.00190555
0.00188836
0.00186932
0.00184872
0.00182695
0.00180447
0.00178179
0.00175944
0.00173792
0.00171764
0.0016989
0.00168193
0.00166676
0.00165332
0.00164138
0.00163058
0.00162048
0.00161059
0.00410842
0.0040301
0.00395106
0.00386999
0.00378665
0.00370115
0.00361395
0.00352573
0.00343728
0.00334944
0.00326302
0.00317877
0.00309729
0.00301908
0.00294447
0.00287369
0.00280679
0.00274375
0.00268444
0.00262862
0.00257603
0.00252632
0.00247912
0.00243404
0.00239066
0.00234861
0.0023075
0.00226699
0.00222677
0.00218658
0.00214618
0.00210538
0.00206404
0.00202207
0.00197943
0.00193616
0.00189234
0.00184812
0.00180371
0.00175936
0.0017153
0.00167179
0.00162908
0.0015874
0.00154697
0.00150798
0.00147062
0.001435
0.00140116
0.00136907
2.38371e-05
2.3586e-05
2.33595e-05
2.31628e-05
2.29854e-05
2.2819e-05
2.26599e-05
2.25039e-05
2.2347e-05
2.21857e-05
2.20167e-05
2.18377e-05
2.16479e-05
2.14478e-05
2.124e-05
2.10282e-05
2.08173e-05
2.06127e-05
2.04192e-05
2.02405e-05
2.00795e-05
1.98879e-05
1.97103e-05
1.9545e-05
1.93863e-05
1.92305e-05
1.90714e-05
1.89042e-05
1.87265e-05
1.85381e-05
1.8342e-05
1.81446e-05
1.79492e-05
1.77621e-05
1.75879e-05
1.7429e-05
1.72858e-05
1.7156e-05
1.70364e-05
1.69228e-05
1.68114e-05
1.66987e-05
1.65828e-05
1.64659e-05
1.63516e-05
1.62432e-05
1.61429e-05
1.60506e-05
1.59624e-05
1.58697e-05
2.32139e-05
2.21184e-05
2.11331e-05
2.02425e-05
1.94332e-05
1.86948e-05
1.80133e-05
1.73763e-05
1.67734e-05
1.61961e-05
1.56385e-05
1.50971e-05
1.45713e-05
1.40629e-05
1.35754e-05
1.31136e-05
1.26823e-05
1.22854e-05
1.19248e-05
1.16005e-05
1.15203e-05
1.15014e-05
1.15068e-05
1.15247e-05
1.13466e-05
1.12325e-05
1.11514e-05
1.10837e-05
1.10189e-05
1.0953e-05
1.089e-05
1.10207e-05
1.10907e-05
1.11256e-05
1.11418e-05
1.11483e-05
1.11487e-05
1.1143e-05
1.11296e-05
1.11063e-05
1.1072e-05
1.10278e-05
1.09776e-05
1.09247e-05
1.08726e-05
1.08243e-05
1.07816e-05
1.07452e-05
1.0715e-05
1.06895e-05
2.32149e-05
2.21173e-05
2.11196e-05
2.02116e-05
1.93783e-05
1.86076e-05
1.78886e-05
1.72112e-05
1.65671e-05
1.59498e-05
1.53545e-05
1.47788e-05
1.4222e-05
1.36854e-05
1.31712e-05
1.26826e-05
1.22227e-05
1.17937e-05
1.1398e-05
1.13105e-05
1.12345e-05
1.11691e-05
1.11111e-05
1.1058e-05
1.10028e-05
1.09437e-05
1.08781e-05
1.0804e-05
1.07211e-05
1.06305e-05
1.05355e-05
1.04428e-05
1.03548e-05
1.02739e-05
1.02014e-05
1.01372e-05
1.00795e-05
1.00257e-05
9.9727e-06
9.91758e-06
9.85851e-06
9.79586e-06
9.73068e-06
9.66512e-06
9.60174e-06
9.54246e-06
9.48786e-06
9.43686e-06
9.3879e-06
9.34152e-06
2.3216e-05
2.21297e-05
2.11419e-05
2.02407e-05
1.94112e-05
1.86418e-05
1.7922e-05
1.72428e-05
1.65965e-05
1.5977e-05
1.53801e-05
1.48035e-05
1.42466e-05
1.37103e-05
1.31966e-05
1.27082e-05
1.22477e-05
1.18173e-05
1.14191e-05
1.13277e-05
1.12475e-05
1.1175e-05
1.11084e-05
1.10449e-05
1.09809e-05
1.09127e-05
1.08373e-05
1.07528e-05
1.06589e-05
1.05572e-05
1.0451e-05
1.03444e-05
1.02416e-05
1.01457e-05
1.00585e-05
9.97984e-06
9.90823e-06
9.841e-06
9.77511e-06
9.70786e-06
9.63766e-06
9.56427e-06
9.4888e-06
9.41339e-06
9.34065e-06
9.27299e-06
9.21166e-06
9.15581e-06
9.10244e-06
9.04954e-06
2.32172e-05
2.21345e-05
2.11475e-05
2.02443e-05
1.94111e-05
1.8637e-05
1.79125e-05
1.7229e-05
1.65793e-05
1.59577e-05
1.53603e-05
1.47849e-05
1.42307e-05
1.36983e-05
1.3189e-05
1.2705e-05
1.22485e-05
1.18211e-05
1.14248e-05
1.1332e-05
1.12524e-05
1.11792e-05
1.11108e-05
1.10448e-05
1.09779e-05
1.0907e-05
1.08293e-05
1.07432e-05
1.06484e-05
1.05466e-05
1.04407e-05
1.03348e-05
1.02326e-05
1.01371e-05
1.00498e-05
9.97046e-06
9.89751e-06
9.82837e-06
9.76016e-06
9.69032e-06
9.61739e-06
9.54121e-06
9.46297e-06
9.38465e-06
9.30852e-06
9.23669e-06
9.17064e-06
9.11061e-06
9.05439e-06
8.9992e-06
2.32186e-05
2.21403e-05
2.11556e-05
2.02524e-05
1.94177e-05
1.86413e-05
1.7914e-05
1.7228e-05
1.65765e-05
1.59545e-05
1.53583e-05
1.47856e-05
1.42355e-05
1.37078e-05
1.32035e-05
1.2724e-05
1.2271e-05
1.1846e-05
1.14488e-05
1.11644e-05
1.11482e-05
1.11146e-05
1.10699e-05
1.10172e-05
1.0957e-05
1.08885e-05
1.08111e-05
1.07243e-05
1.06287e-05
1.05265e-05
1.04208e-05
1.03155e-05
1.02143e-05
1.01198e-05
1.00335e-05
9.95491e-06
9.88251e-06
9.81375e-06
9.74583e-06
9.67637e-06
9.60398e-06
9.52855e-06
9.45127e-06
9.37418e-06
9.29933e-06
9.22836e-06
9.16213e-06
9.10091e-06
9.04325e-06
8.98677e-06
2.32203e-05
2.21463e-05
2.11628e-05
2.02579e-05
1.94196e-05
1.86383e-05
1.79058e-05
1.72152e-05
1.65605e-05
1.5937e-05
1.53414e-05
1.47711e-05
1.4225e-05
1.37022e-05
1.32029e-05
1.27281e-05
1.22787e-05
1.18559e-05
1.14609e-05
1.13647e-05
1.12769e-05
1.1196e-05
1.11197e-05
1.10451e-05
1.09697e-05
1.0891e-05
1.08068e-05
1.0716e-05
1.06187e-05
1.05163e-05
1.04115e-05
1.03079e-05
1.02084e-05
1.01156e-05
1.00304e-05
9.95248e-06
9.88033e-06
9.81155e-06
9.74355e-06
9.67408e-06
9.6018e-06
9.52662e-06
9.44966e-06
9.37285e-06
9.29839e-06
9.22774e-06
9.16154e-06
9.09954e-06
9.04057e-06
8.98259e-06
2.32222e-05
2.21526e-05
2.117e-05
2.02632e-05
1.9421e-05
1.8635e-05
1.78978e-05
1.72032e-05
1.65462e-05
1.59224e-05
1.53286e-05
1.47621e-05
1.4221e-05
1.3704e-05
1.32105e-05
1.27406e-05
1.2295e-05
1.1874e-05
1.14788e-05
1.13313e-05
1.12173e-05
1.11305e-05
1.10572e-05
1.09892e-05
1.09212e-05
1.08497e-05
1.07723e-05
1.0688e-05
1.05969e-05
1.05005e-05
1.04014e-05
1.03027e-05
1.02072e-05
1.01173e-05
1.00339e-05
9.95697e-06
9.88503e-06
9.81606e-06
9.74769e-06
9.67793e-06
9.60557e-06
9.53048e-06
9.45366e-06
9.37684e-06
9.30207e-06
9.2309e-06
9.16388e-06
9.10067e-06
9.04006e-06
8.98036e-06
2.32242e-05
2.21589e-05
2.11771e-05
2.02679e-05
1.94214e-05
1.86302e-05
1.78878e-05
1.71892e-05
1.65297e-05
1.59056e-05
1.53136e-05
1.47508e-05
1.42146e-05
1.37031e-05
1.32149e-05
1.27495e-05
1.23069e-05
1.18872e-05
1.14912e-05
1.13408e-05
1.12215e-05
1.11294e-05
1.10512e-05
1.0979e-05
1.09081e-05
1.08351e-05
1.07577e-05
1.06749e-05
1.05864e-05
1.04935e-05
1.0398e-05
1.03027e-05
1.02101e-05
1.0122e-05
1.00397e-05
9.96286e-06
9.89053e-06
9.82085e-06
9.75179e-06
9.68151e-06
9.60902e-06
9.53416e-06
9.45777e-06
9.38139e-06
9.30667e-06
9.23512e-06
9.16726e-06
9.10278e-06
9.04068e-06
8.97932e-06
2.32262e-05
2.21651e-05
2.11839e-05
2.02723e-05
1.94216e-05
1.86253e-05
1.78781e-05
1.71757e-05
1.65143e-05
1.58904e-05
1.53007e-05
1.47418e-05
1.42108e-05
1.37048e-05
1.32219e-05
1.27607e-05
1.23207e-05
1.19018e-05
1.15046e-05
1.13511e-05
1.12297e-05
1.11345e-05
1.10521e-05
1.09758e-05
1.09017e-05
1.08268e-05
1.07493e-05
1.06678e-05
1.05818e-05
1.04921e-05
1.03999e-05
1.03075e-05
1.02169e-05
1.013e-05
1.00477e-05
9.97025e-06
9.89669e-06
9.82563e-06
9.75536e-06
9.68427e-06
9.6114e-06
9.53663e-06
9.46064e-06
9.38468e-06
9.31016e-06
9.2382e-06
9.16946e-06
9.10365e-06
9.03996e-06
8.97709e-06
2.32283e-05
2.21712e-05
2.11905e-05
2.02765e-05
1.94216e-05
1.86203e-05
1.78685e-05
1.71627e-05
1.64997e-05
1.58763e-05
1.52889e-05
1.4734e-05
1.42078e-05
1.3707e-05
1.32288e-05
1.27712e-05
1.2333e-05
1.19141e-05
1.15135e-05
1.1214e-05
1.11806e-05
1.11261e-05
1.10598e-05
1.09876e-05
1.09125e-05
1.08355e-05
1.07564e-05
1.06745e-05
1.05894e-05
1.05012e-05
1.04108e-05
1.03197e-05
1.02297e-05
1.01424e-05
1.00589e-05
9.9794e-06
9.90351e-06
9.83016e-06
9.758e-06
9.68569e-06
9.6123e-06
9.53757e-06
9.46191e-06
9.38629e-06
9.31185e-06
9.23954e-06
9.16984e-06
9.10274e-06
9.03753e-06
8.97321e-06
2.32302e-05
2.21769e-05
2.11966e-05
2.02802e-05
1.94213e-05
1.86154e-05
1.78595e-05
1.71507e-05
1.64865e-05
1.58638e-05
1.52788e-05
1.47277e-05
1.4206e-05
1.37098e-05
1.32354e-05
1.27804e-05
1.23433e-05
1.19236e-05
1.15225e-05
1.1413e-05
1.13036e-05
1.11968e-05
1.10957e-05
1.10018e-05
1.09147e-05
1.08327e-05
1.07531e-05
1.06738e-05
1.05927e-05
1.05087e-05
1.04221e-05
1.03336e-05
1.02448e-05
1.01572e-05
1.0072e-05
9.98991e-06
9.91107e-06
9.83495e-06
9.76048e-06
9.68667e-06
9.61251e-06
9.53765e-06
9.46222e-06
9.38684e-06
9.3124e-06
9.23963e-06
9.16903e-06
9.10057e-06
9.03394e-06
8.96836e-06
2.32322e-05
2.21821e-05
2.12019e-05
2.02832e-05
1.94206e-05
1.86108e-05
1.78514e-05
1.71405e-05
1.64758e-05
1.58541e-05
1.52718e-05
1.47243e-05
1.42068e-05
1.37146e-05
1.32434e-05
1.27903e-05
1.23535e-05
1.19326e-05
1.1529e-05
1.14186e-05
1.13052e-05
1.1194e-05
1.10897e-05
1.09941e-05
1.0907e-05
1.08266e-05
1.075e-05
1.06745e-05
1.05974e-05
1.05172e-05
1.04335e-05
1.03468e-05
1.02583e-05
1.01696e-05
1.00823e-05
9.9974e-06
9.91551e-06
9.83661e-06
9.7601e-06
9.68495e-06
9.61034e-06
9.53552e-06
9.46049e-06
9.38554e-06
9.31122e-06
9.23816e-06
9.16682e-06
9.09734e-06
9.02953e-06
8.96298e-06
2.32339e-05
2.21862e-05
2.12057e-05
2.02848e-05
1.94189e-05
1.86056e-05
1.78433e-05
1.71306e-05
1.64653e-05
1.58446e-05
1.52644e-05
1.47198e-05
1.42053e-05
1.37157e-05
1.32464e-05
1.27939e-05
1.23565e-05
1.19338e-05
1.15273e-05
1.14038e-05
1.12783e-05
1.11615e-05
1.10577e-05
1.09668e-05
1.08866e-05
1.08139e-05
1.0745e-05
1.06763e-05
1.06051e-05
1.05294e-05
1.04485e-05
1.03629e-05
1.02739e-05
1.01833e-05
1.00931e-05
1.00047e-05
9.91956e-06
9.83771e-06
9.75895e-06
9.6824e-06
9.60714e-06
9.53239e-06
9.45774e-06
9.38324e-06
9.30923e-06
9.23609e-06
9.16424e-06
9.09396e-06
9.02536e-06
8.95818e-06
2.32352e-05
2.21891e-05
2.1208e-05
2.02851e-05
1.94169e-05
1.86015e-05
1.78378e-05
1.71247e-05
1.64602e-05
1.58413e-05
1.52637e-05
1.4722e-05
1.42103e-05
1.37229e-05
1.32549e-05
1.28026e-05
1.23643e-05
1.19397e-05
1.15306e-05
1.1404e-05
1.12752e-05
1.11559e-05
1.10508e-05
1.09602e-05
1.08817e-05
1.08118e-05
1.07466e-05
1.06819e-05
1.06144e-05
1.05418e-05
1.0463e-05
1.03782e-05
1.02887e-05
1.01965e-05
1.01037e-05
1.00125e-05
9.92432e-06
9.83992e-06
9.75915e-06
9.68134e-06
9.6055e-06
9.53071e-06
9.45643e-06
9.38232e-06
9.30847e-06
9.2352e-06
9.16297e-06
9.09211e-06
9.02306e-06
8.9558e-06
2.32361e-05
2.21903e-05
2.12076e-05
2.0282e-05
1.94106e-05
1.85922e-05
1.7826e-05
1.71112e-05
1.64462e-05
1.58277e-05
1.52512e-05
1.47107e-05
1.42001e-05
1.37133e-05
1.32452e-05
1.27922e-05
1.23525e-05
1.19261e-05
1.1515e-05
1.13869e-05
1.12573e-05
1.11379e-05
1.1034e-05
1.09458e-05
1.08708e-05
1.08054e-05
1.07451e-05
1.06855e-05
1.06228e-05
1.05541e-05
1.04781e-05
1.03948e-05
1.03054e-05
1.02122e-05
1.01177e-05
1.00243e-05
9.93379e-06
9.84726e-06
9.76486e-06
9.68606e-06
9.6099e-06
9.53533e-06
9.46154e-06
9.38815e-06
9.31501e-06
9.24235e-06
9.17073e-06
9.10077e-06
9.03307e-06
8.9679e-06
2.32367e-05
2.21908e-05
2.1208e-05
2.02826e-05
1.94117e-05
1.8594e-05
1.78288e-05
1.71154e-05
1.6452e-05
1.58353e-05
1.52602e-05
1.47208e-05
1.42107e-05
1.37236e-05
1.32545e-05
1.28e-05
1.23582e-05
1.19294e-05
1.15159e-05
1.13863e-05
1.12568e-05
1.11384e-05
1.10358e-05
1.0949e-05
1.08758e-05
1.08123e-05
1.07542e-05
1.06969e-05
1.06364e-05
1.05697e-05
1.04953e-05
1.0413e-05
1.03245e-05
1.02319e-05
1.01378e-05
1.00449e-05
9.95513e-06
9.86991e-06
9.78947e-06
9.71338e-06
9.64065e-06
9.57019e-06
9.50102e-06
9.4326e-06
9.36482e-06
9.29802e-06
9.23284e-06
9.17015e-06
9.11097e-06
9.056e-06
2.32369e-05
2.21833e-05
2.11915e-05
2.02579e-05
1.93801e-05
1.85576e-05
1.77896e-05
1.70754e-05
1.64127e-05
1.57975e-05
1.52246e-05
1.46876e-05
1.41798e-05
1.36951e-05
1.32284e-05
1.27761e-05
1.23365e-05
1.19101e-05
1.14996e-05
1.13884e-05
1.12775e-05
1.11757e-05
1.10846e-05
1.10054e-05
1.09369e-05
1.08765e-05
1.08208e-05
1.07661e-05
1.07092e-05
1.06483e-05
1.05824e-05
1.05114e-05
1.04361e-05
1.03582e-05
1.02798e-05
1.0203e-05
1.01298e-05
1.00614e-05
9.99799e-06
9.93918e-06
9.88392e-06
9.83107e-06
9.77976e-06
9.7295e-06
9.68029e-06
9.63263e-06
9.58756e-06
9.54633e-06
9.51042e-06
9.48146e-06
2.32398e-05
2.21944e-05
2.12158e-05
2.02971e-05
1.94371e-05
1.86375e-05
1.7897e-05
1.72138e-05
1.65852e-05
1.60071e-05
1.54739e-05
1.49788e-05
1.45144e-05
1.40737e-05
1.36502e-05
1.32391e-05
1.28379e-05
1.24463e-05
1.20668e-05
1.17019e-05
1.13615e-05
1.13576e-05
1.13534e-05
1.13525e-05
1.13541e-05
1.13559e-05
1.1355e-05
1.13486e-05
1.13401e-05
1.13323e-05
1.13245e-05
1.13153e-05
1.1303e-05
1.12867e-05
1.12671e-05
1.12454e-05
1.12233e-05
1.1202e-05
1.11819e-05
1.11627e-05
1.11433e-05
1.11228e-05
1.11004e-05
1.1076e-05
1.10499e-05
1.10234e-05
1.0998e-05
1.09761e-05
1.09603e-05
1.09544e-05
2.38391e-05
2.36246e-05
2.34147e-05
2.32098e-05
2.301e-05
2.28136e-05
2.26224e-05
2.24382e-05
2.22616e-05
2.20919e-05
2.1927e-05
2.17641e-05
2.15999e-05
2.14315e-05
2.12567e-05
2.10746e-05
2.08864e-05
2.06948e-05
2.05038e-05
2.03176e-05
2.01399e-05
1.99247e-05
1.9723e-05
1.95357e-05
1.93618e-05
1.91975e-05
1.90382e-05
1.88793e-05
1.87153e-05
1.85438e-05
1.83661e-05
1.81847e-05
1.80031e-05
1.78246e-05
1.76523e-05
1.74882e-05
1.73333e-05
1.71876e-05
1.70495e-05
1.69173e-05
1.67889e-05
1.66628e-05
1.65378e-05
1.64132e-05
1.6289e-05
1.61654e-05
1.6043e-05
1.59223e-05
1.58034e-05
1.56849e-05
4.46817e-05
1.88947e-05
2.18013e-05
2.03322e-05
1.61339e-05
1.19304e-05
9.96695e-06
8.40287e-06
7.30113e-06
6.33177e-06
5.33188e-06
5.46482e-06
5.91739e-06
6.88966e-06
8.13323e-06
9.31053e-06
1.02615e-05
1.09888e-05
1.36782e-05
9.40075e-05
4.34104e-05
1.89503e-05
2.19292e-05
2.04267e-05
1.61837e-05
1.19573e-05
9.95575e-06
8.39578e-06
7.29819e-06
6.30807e-06
5.23508e-06
5.37094e-06
5.85054e-06
6.81168e-06
8.04859e-06
9.24549e-06
1.0225e-05
1.09756e-05
1.37577e-05
9.67501e-05
4.21696e-05
1.90119e-05
2.20538e-05
2.05172e-05
1.62324e-05
1.19885e-05
9.94745e-06
8.39318e-06
7.29906e-06
6.29167e-06
5.18015e-06
5.28608e-06
5.80137e-06
6.76432e-06
8.00224e-06
9.2094e-06
1.02013e-05
1.09638e-05
1.38259e-05
9.93586e-05
4.09563e-05
1.90801e-05
2.21738e-05
2.06051e-05
1.62859e-05
1.20278e-05
9.94526e-06
8.39543e-06
7.30457e-06
6.28555e-06
5.18448e-06
5.21914e-06
5.76948e-06
6.7302e-06
7.96605e-06
9.18067e-06
1.0182e-05
1.09544e-05
1.39078e-05
0.000102102
3.97677e-05
1.91554e-05
2.22901e-05
2.06961e-05
1.63457e-05
1.20726e-05
9.94931e-06
8.40395e-06
7.31499e-06
6.28738e-06
5.23511e-06
5.17703e-06
5.74809e-06
6.70747e-06
7.93974e-06
9.15939e-06
1.01673e-05
1.09477e-05
1.401e-05
0.00010498
3.86023e-05
1.92367e-05
2.24061e-05
2.07919e-05
1.64137e-05
1.21246e-05
9.96078e-06
8.41935e-06
7.33277e-06
6.30141e-06
5.28577e-06
5.16811e-06
5.73527e-06
6.68874e-06
7.92243e-06
9.14541e-06
1.01573e-05
1.09447e-05
1.41636e-05
0.000107958
3.74646e-05
1.9319e-05
2.25226e-05
2.08943e-05
1.64917e-05
1.21852e-05
9.98024e-06
8.4418e-06
7.35803e-06
6.32729e-06
5.33091e-06
5.17159e-06
5.73107e-06
6.67803e-06
7.90964e-06
9.13867e-06
1.01528e-05
1.09474e-05
1.44171e-05
0.000110986
3.63577e-05
1.93979e-05
2.26398e-05
2.10042e-05
1.65809e-05
1.22549e-05
1.00076e-05
8.47111e-06
7.39121e-06
6.36632e-06
5.3776e-06
5.17811e-06
5.73402e-06
6.67616e-06
7.9063e-06
9.13849e-06
1.01538e-05
1.09603e-05
1.47695e-05
0.000114053
3.52799e-05
1.94723e-05
2.27575e-05
2.11217e-05
1.66815e-05
1.23344e-05
1.00428e-05
8.50721e-06
7.43299e-06
6.42031e-06
5.43825e-06
5.19106e-06
5.74571e-06
6.68469e-06
7.91373e-06
9.14665e-06
1.01601e-05
1.09859e-05
1.52222e-05
0.000117152
3.42285e-05
1.95407e-05
2.28744e-05
2.12465e-05
1.67942e-05
1.24239e-05
1.00858e-05
8.55026e-06
7.48385e-06
6.49061e-06
5.52237e-06
5.22019e-06
5.76945e-06
6.70554e-06
7.93277e-06
9.16293e-06
1.01714e-05
1.1026e-05
1.57746e-05
0.000120272
3.32008e-05
1.96016e-05
2.29898e-05
2.13789e-05
1.69196e-05
1.25243e-05
1.01371e-05
8.60049e-06
7.54363e-06
6.57652e-06
5.63174e-06
5.27415e-06
5.80796e-06
6.74025e-06
7.96347e-06
9.18645e-06
1.01869e-05
1.10818e-05
1.6424e-05
0.000123406
3.21941e-05
1.96538e-05
2.31033e-05
2.15194e-05
1.70588e-05
1.26368e-05
1.01969e-05
8.65778e-06
7.61135e-06
6.67501e-06
5.76083e-06
5.35523e-06
5.86264e-06
6.78952e-06
8.0053e-06
9.21623e-06
1.02061e-05
1.11536e-05
1.71676e-05
0.000126548
3.12064e-05
1.96969e-05
2.32152e-05
2.1669e-05
1.72132e-05
1.27625e-05
1.02654e-05
8.72169e-06
7.68549e-06
6.78239e-06
5.90248e-06
5.45945e-06
5.93425e-06
6.8537e-06
8.05766e-06
9.25155e-06
1.02286e-05
1.1238e-05
1.8005e-05
0.000129696
3.0236e-05
1.97305e-05
2.33258e-05
2.18287e-05
1.73837e-05
1.29023e-05
1.03424e-05
8.79157e-06
7.76443e-06
6.89575e-06
6.05253e-06
5.58268e-06
6.02429e-06
6.93326e-06
8.12018e-06
9.29201e-06
1.02531e-05
1.13208e-05
1.89391e-05
0.000132845
2.92816e-05
1.97544e-05
2.34351e-05
2.1999e-05
1.75713e-05
1.3057e-05
1.04278e-05
8.86682e-06
7.84711e-06
7.0137e-06
6.21172e-06
5.7255e-06
6.13526e-06
7.02861e-06
8.19254e-06
9.33747e-06
1.02811e-05
1.13813e-05
1.99569e-05
0.000135991
2.83415e-05
1.97677e-05
2.35429e-05
2.218e-05
1.7776e-05
1.32269e-05
1.05211e-05
8.94704e-06
7.93292e-06
7.13561e-06
6.38245e-06
5.89289e-06
6.26929e-06
7.13948e-06
8.27411e-06
9.38777e-06
1.03144e-05
1.14738e-05
2.10557e-05
0.000139128
2.74137e-05
1.97694e-05
2.3648e-05
2.23711e-05
1.79982e-05
1.34127e-05
1.06222e-05
9.03207e-06
8.02141e-06
7.2604e-06
6.5638e-06
6.08757e-06
6.42582e-06
7.26446e-06
8.36359e-06
9.44236e-06
1.03535e-05
1.16001e-05
2.22303e-05
0.00014225
2.64962e-05
1.97579e-05
2.37494e-05
2.25721e-05
1.8238e-05
1.3615e-05
1.07307e-05
9.1218e-06
8.11199e-06
7.38586e-06
6.75001e-06
6.30441e-06
6.6005e-06
7.40074e-06
8.45905e-06
9.50031e-06
1.0399e-05
1.17607e-05
2.34741e-05
0.000145349
2.55868e-05
1.9732e-05
2.3846e-05
2.27824e-05
1.84957e-05
1.38348e-05
1.08467e-05
9.21618e-06
8.20398e-06
7.50929e-06
6.93226e-06
6.53022e-06
6.78604e-06
7.54458e-06
8.55814e-06
9.56049e-06
1.04511e-05
1.19557e-05
2.47788e-05
0.000148418
2.46838e-05
1.96906e-05
2.39371e-05
2.30021e-05
1.87721e-05
1.40735e-05
1.09699e-05
9.31542e-06
8.29709e-06
7.62895e-06
7.10353e-06
6.74908e-06
6.97516e-06
7.69215e-06
8.65863e-06
9.62201e-06
1.05103e-05
1.21846e-05
2.6136e-05
0.000151452
2.37862e-05
1.96333e-05
2.40225e-05
2.32315e-05
1.90681e-05
1.43327e-05
1.11e-05
9.41996e-06
8.39168e-06
7.74514e-06
7.26287e-06
6.95209e-06
7.1634e-06
7.84041e-06
8.7589e-06
9.68444e-06
1.05772e-05
1.2447e-05
2.75381e-05
0.000154446
2.28936e-05
1.95601e-05
2.4102e-05
2.34707e-05
1.93846e-05
1.46147e-05
1.12368e-05
9.53062e-06
8.48878e-06
7.8601e-06
7.41551e-06
7.14186e-06
7.34933e-06
7.98739e-06
8.85807e-06
9.74777e-06
1.06526e-05
1.27426e-05
2.89799e-05
0.000157394
2.20057e-05
1.94708e-05
2.41751e-05
2.37198e-05
1.97226e-05
1.49219e-05
1.1379e-05
9.64854e-06
8.58979e-06
7.97646e-06
7.5681e-06
7.32711e-06
7.53318e-06
8.13194e-06
8.9557e-06
9.81221e-06
1.07373e-05
1.30714e-05
3.04577e-05
0.000160293
2.11225e-05
1.93648e-05
2.42409e-05
2.39784e-05
2.00828e-05
1.52581e-05
1.15887e-05
9.77523e-06
8.69588e-06
8.09553e-06
7.72382e-06
7.51457e-06
7.7147e-06
8.27325e-06
9.05142e-06
9.87799e-06
1.08325e-05
1.34341e-05
3.19693e-05
0.000163137
2.02439e-05
1.92413e-05
2.42981e-05
2.4246e-05
2.04659e-05
1.56185e-05
1.18363e-05
9.91519e-06
8.80774e-06
8.2169e-06
7.8809e-06
7.70422e-06
7.89181e-06
8.4102e-06
9.14476e-06
9.94543e-06
1.09394e-05
1.38318e-05
3.35155e-05
0.000165925
1.93696e-05
1.90991e-05
2.43452e-05
2.45222e-05
2.08735e-05
1.60088e-05
1.21073e-05
1.00668e-05
8.92594e-06
8.33926e-06
8.03404e-06
7.88948e-06
8.0609e-06
8.54154e-06
9.23539e-06
1.00151e-05
1.10597e-05
1.42673e-05
3.51006e-05
0.000168653
1.84996e-05
1.89372e-05
2.43809e-05
2.48068e-05
2.13075e-05
1.6433e-05
1.24058e-05
1.02322e-05
9.05146e-06
8.46166e-06
8.17795e-06
8.06097e-06
8.21868e-06
8.66647e-06
9.32348e-06
1.00881e-05
1.11958e-05
1.47451e-05
3.67324e-05
0.000171314
1.76338e-05
1.87544e-05
2.44036e-05
2.50997e-05
2.17704e-05
1.68953e-05
1.27369e-05
1.04134e-05