/*--------------------------------*- C++ -*----------------------------------*\
  =========                 |
  \\      /  F ield         | OpenFOAM: The Open Source CFD Toolbox
   \\    /   O peration     | Website:  https://openfoam.org
    \\  /    A nd           | Version:  8
     \\/     M anipulation  |
\*---------------------------------------------------------------------------*/
FoamFile
{
    version     2.0;
    format      ascii;
    class       volScalarField;
    location    "500";
    object      p_rgh;
}
// * * * * * * * * * * * * * * * * * * * * * * * * * * * * * * * * * * * * * //

dimensions      [1 -1 -2 0 0 0 0];

internalField   nonuniform List<scalar> 
8400
(
12346.6
25923.8
33356.3
36633.6
38517.8
40799.7
44490.4
49927
56871.4
64695.5
72629.3
79979.4
86316.2
91622.2
96262.7
100708
105186
109452
112894
115069
115923
115670
114584
112931
110909
108664
106305
103894
101442
98915.8
96286.3
93617.1
91163.1
89397.6
88991.3
90768.7
95656.9
104608
118312
136591
158079
180644
202114
220841
235951
247359
255505
261011
264493
266519
15833
30415.9
34815.8
35838.2
36541.5
38449.9
42324.5
48294.3
55925
64409.1
72826.1
80365.1
86516.1
91328.5
95430.5
99621.3
104345
109255
113267
115701
116588
116277
115070
113271
111105
108733
106274
103789
101273
98662.5
95871.9
92903.6
89989.9
87610.6
86460.9
87409.1
91464.2
99791.3
113254
131630
153443
176465
198490
217875
233736
245921
254761
260799
264625
266815
13817.1
27936.4
33963.1
36111.1
37535.3
39889.4
43927.8
49881.5
57436.1
65879.1
74325.4
81904.7
87991.6
92737.5
97001.3
101617
106825
111918
116002
118028
118266
117378
115623
113298
110681
107987
105374
102912
100567
98191.4
95527.2
92398.2
89025.1
85950.8
83961.2
84031.7
87292.8
95146.9
108610
127266
149518
172940
195246
214949
231318
244201
253803
260461
264699
267133
-4573.4
16353.4
28581
32982.2
35106.9
37815.4
42093.1
48103.7
55543
63777.3
72012
79440.6
85684
91000.1
95959.2
101047
106340
111227
114973
117017
117661
117229
115872
113879
111558
109122
106699
104320
101911
99296.8
96211.3
92581.1
88672
85129.6
82844.7
82857.3
86143.3
93714.2
107067
126145
148845
172346
194247
213353
229267
241997
251749
258745
263388
266130
-11994.8
8267.93
22966.1
29701.3
33865.6
38174.2
43098.9
48456.2
53979.1
59449.5
64768.4
70043.1
75446.2
81018.6
86749.5
92604.9
98421.8
103800
108304
111618
113780
114869
114941
114139
112654
110670
108351
105811
103084
100111
96750.7
93135.2
89558.6
86455.4
84556.6
84835.6
88462.8
97040.8
111724
131534
153866
175841
195508
212238
226079
237371
246435
253425
258497
261875
-2695.8
9035.12
20077.3
27226.8
32476.5
37351.9
42135.8
46765
51168.4
55177.6
58607.5
61548.2
64412.2
67682.4
71659.4
76337
81457.7
86649.7
91586.8
96060.2
99992.2
103339
106044
108062
109383
110041
110104
109647
108713
107309
105476
103442
101558
100294
100350
102740
108580
118586
132610
149296
166643
182915
197231
209511
220047
229132
236900
243383
248669
253013
-5189.8
6123.12
16905.3
24706.3
30799.5
36194.7
41129.7
45622.2
49706.7
53410
56765
59908.5
63085.3
66538.3
70382.4
74561.4
78910.6
83255.5
87483.5
91556
95472.8
99217.8
102735
105946
108787
111228
113267
114909
116146
116976
117455
117761
118190
119147
121157
124847
130814
139294
149929
161820
173893
185309
195664
204912
213150
220456
226900
232615
237798
242575
-1349.59
9189.48
19286.3
26771.3
32675
37726.6
42106.5
45913.3
49281.4
52325.6
55144.1
57860.6
60625.9
63582.9
66815
70326.6
74063
77953.4
81946
86018.8
90165.8
94373.3
98608
102822
106965
110991
114852
118492
121855
124906
127667
130246
132835
135698
139142
143467
148885
155474
163087
171329
179698
187754
195208
201946
207979
213403
218404
223186
227817
232379
-727.369
10129.2
19557.5
26492.6
32104.4
36908.7
41027.3
44581.2
47715.4
50554.5
53207.5
55783.6
58394.9
61143.3
64104.1
67317.8
70795.2
74533
78524.1
82762.1
87238
91934.2
96820
101852
106977
112131
117245
122243
127055
131634
135975
140122
144175
148264
152531
157092
161979
167182
172675
178338
183993
189435
194507
199149
203410
207457
211417
215336
219399
223858
1601.36
12505.1
21330
27935.9
33364.1
37949.4
41814.3
45105.7
47977.1
50559.4
52970.4
55319.1
57707.9
60228.7
62959.7
65961.3
69276.5
72932.2
76942.4
81309.2
86021.3
91054.2
96369.8
101918
107639
113464
119318
125125
130815
136333
141651
146769
151711
156521
161236
165879
170432
174827
179050
183117
187009
190686
194108
197305
200395
203443
206517
209846
213671
218145
4795.52
14807.4
22690.7
28922.9
34076.2
38376.8
41990.3
45072.7
47763.7
50186
52451.9
54666.5
56927.1
59323.5
61937.7
64841.6
68094.9
71738.8
75799.5
80285.7
85186.5
90475.5
96106.5
102020
108148
114418
120750
127067
133299
139384
145277
150947
156379
161560
166477
171107
175419
179373
182936
186139
189030
191658
194080
196365
198587
200902
203529
206657
210435
214939
5979.13
15599.1
23079.8
29209.5
34261.4
38486
42057.2
45117.8
47794.8
50206
52460
54659.1
56899
59268.6
61850.9
64722
67947.2
71576.2
75644.2
80167.6
85141.7
90543
96325.3
102425
108768
115275
121859
128441
134949
141312
147473
153385
159011
164311
169249
173787
177890
181540
184740
187532
189971
192094
193982
195777
197643
199758
202307
205442
209263
213811
6236.53
15417.1
22878.3
29016.2
34078.2
38327.8
41929.3
45021.1
47727.8
50165.8
52443.5
54663.5
56922.2
59310.2
61911.9
64805.7
68058.9
71725.3
75842.9
80427.4
85474.6
90957.5
96826.2
103015
109444
116026
122678
129328
135905
142333
148545
154489
160119
165386
170245
174655
178588
182038
185031
187632
189927
191955
193752
195459
197287
199429
202058
205311
209267
213943
6145.58
14865.6
22310.4
28469.8
33607.2
37932.1
41602.6
44758.1
47527.2
50027.9
52370.3
54657.1
56984.1
59441.3
62112.3
65073.2
68390
72116
76288.4
80923.6
86018.2
91544.9
97453.8
103678
110136
116741
123406
130049
136593
142966
149111
154978
160522
165697
170459
174768
178601
181960
184874
187407
189642
191655
193543
195476
197610
200076
203001
206488
210604
215363
6006.34
14191.5
21453.8
27591.4
32790.8
37209.6
40991.2
44267.4
47161.3
49787.6
52253.8
54661.5
57105.9
59675.5
62452.7
65511.3
68914.6
72713.3
76941.7
81615.6
86730.1
92257.9
98150.2
104341
110751
117292
123879
130428
136865
143126
149157
154907
160332
165389
170042
174268
178062
181441
184448
187146
189612
191931
194187
196489
198951
201693
204838
208491
212720
217515
5707.53
13351.7
20375.7
26458.7
31712.2
36245.6
40175.6
43618.5
46687.1
49489
52127.5
54701.1
57302.2
60017.6
62927.2
66102.1
69602.6
73475.8
77752.4
82445.3
87548.1
93034.4
98858.9
104961
111267
117698
124172
130611
136943
143103
149036
154691
160028
165014
169627
173858
177713
181213
184396
187312
190022
192595
195108
197656
200348
203305
206648
210480
214856
219727
5431.03
12573
19326.2
25309
30577.9
35201.9
39269.3
42878.2
46129.2
49120.4
51949
54708.4
57486.6
60366.6
63424.2
66727.2
70332.3
74282.8
78607
83315.3
88400.4
93837.5
99586.3
105594
111797
118128
124513
130879
137150
143255
149130
154721
159987
164905
169467
173681
177563
181142
184449
187523
190410
193163
195856
198583
201460
204613
208159
212192
216746
221723
5300.47
12017.4
18513.6
24375.6
29628.8
34311.2
38487.6
42238
45650
48813.2
51818.5
54753.6
57701.5
60740.5
63942.3
67370.6
71078.9
75108.2
79484.4
84216
89294.7
94696.4
100384
106313
112431
118682
124999
131313
137544
143609
149432
154950
160125
164946
169426
173597
177495
181149
184582
187807
190843
193730
196537
199375
202378
205690
209432
213677
218415
223504
5243.02
11627.2
17923
23681.1
28907.8
33620.9
37868.6
41718.1
45247.3
48538.4
51676.5
54744.6
57821.3
60981.5
64293.2
67817.5
71606.2
75698
80117
84871.4
89952.6
95335.9
100986
106864
112925
119121
125395
131677
137883
143918
149692
155138
160221
164947
169356
173503
177437
181184
184744
188099
191241
194195
197043
199923
203007
206459
210397
214853
219743
224881
5288.3
11487.2
17666.7
23358
28560.2
33282.6
37564.6
41465.5
45057.7
48419.8
51632.9
54776.6
57927.5
61158.1
64534.2
68115
71951.5
76082.5
80532.6
85309.4
90403.3
95789
101432
107294
113337
119515
125775
132047
138242
144258
149999
155392
160410
165072
169434
173568
177527
181331
184959
188373
191547
194504
197339
200215
203329
206861
210915
215474
220384
225450
268517
268516
268516
268516
268516
268516
268516
268516
268516
268516
268516
268516
268516
268516
268516
268516
268516
268516
268516
268516
268516
268515
268515
268515
268515
268515
268515
268515
268515
268515
268515
268515
268515
268515
268515
268515
268515
268515
268515
268515
268515
268515
268515
268514
268514
268514
268514
268514
268514
268513
268516
268516
268516
268516
268516
268516
268516
268516
268516
268516
268516
268516
268516
268516
268516
268516
268516
268515
268515
268515
268515
268515
268515
268515
268515
268515
268515
268515
268515
268515
268515
268515
268515
268515
268515
268515
268515
268515
268515
268515
268514
268514
268514
268514
268514
268514
268514
268513
268513
268513
268516
268516
268516
268516
268516
268516
268516
268516
268516
268516
268516
268516
268516
268516
268516
268516
268516
268515
268515
268515
268515
268515
268515
268515
268515
268515
268515
268515
268515
268515
268515
268515
268515
268515
268515
268515
268515
268515
268515
268514
268514
268514
268514
268514
268514
268514
268514
268513
268513
268513
268516
268516
268516
268516
268516
268516
268516
268516
268516
268516
268516
268516
268516
268516
268516
268516
268516
268515
268515
268515
268515
268515
268515
268515
268515
268515
268515
268515
268515
268515
268515
268515
268515
268515
268515
268515
268515
268515
268515
268514
268514
268514
268514
268514
268514
268514
268513
268513
268513
268513
268516
268516
268516
268516
268516
268516
268516
268516
268516
268516
268516
268516
268516
268516
268516
268516
268516
268515
268515
268515
268515
268515
268515
268515
268515
268515
268515
268515
268515
268515
268515
268515
268515
268515
268515
268515
268515
268515
268515
268514
268514
268514
268514
268514
268514
268514
268514
268513
268513
268513
268516
268516
268516
268516
268516
268516
268516
268516
268516
268516
268516
268516
268516
268516
268516
268516
268515
268515
268515
268515
268515
268515
268515
268515
268515
268515
268515
268515
268515
268515
268515
268515
268515
268515
268515
268515
268515
268515
268515
268514
268514
268514
268514
268514
268514
268514
268514
268513
268513
268513
268516
268516
268516
268516
268516
268516
268516
268516
268516
268516
268516
268516
268516
268516
268516
268516
268515
268515
268515
268515
268515
268515
268515
268515
268515
268515
268515
268515
268515
268515
268515
268515
268515
268515
268515
268515
268515
268515
268515
268514
268514
268514
268514
268514
268514
268514
268514
268513
268513
268513
268516
268516
268516
268516
268516
268516
268516
268516
268516
268516
268516
268516
268516
268516
268516
268515
268515
268515
268515
268515
268515
268515
268515
268515
268515
268515
268515
268515
268515
268515
268515
268515
268515
268515
268515
268515
268515
268515
268515
268514
268514
268514
268514
268514
268514
268514
268514
268513
268513
268513
268516
268516
268516
268516
268516
268516
268516
268516
268516
268516
268516
268516
268516
268516
268516
268515
268515
268515
268515
268515
268515
268515
268515
268515
268515
268515
268515
268515
268515
268515
268515
268515
268515
268515
268515
268515
268515
268515
268514
268514
268514
268514
268514
268514
268514
268514
268514
268513
268513
268513
268516
268516
268516
268516
268516
268516
268516
268516
268516
268516
268516
268516
268516
268516
268515
268515
268515
268515
268515
268515
268515
268515
268515
268515
268515
268515
268515
268515
268515
268515
268515
268515
268515
268515
268515
268515
268515
268515
268514
268514
268514
268514
268514
268514
268514
268514
268514
268514
268513
268513
268516
268516
268516
268516
268516
268516
268516
268516
268516
268516
268516
268516
268516
268516
268515
268515
268515
268515
268515
268515
268515
268515
268515
268515
268515
268515
268515
268515
268515
268515
268515
268515
268515
268515
268515
268515
268515
268515
268514
268514
268514
268514
268514
268514
268514
268514
268514
268514
268513
268513
268516
268516
268516
268516
268516
268516
268516
268516
268516
268516
268516
268516
268516
268516
268515
268515
268515
268515
268515
268515
268515
268515
268515
268515
268515
268515
268515
268515
268515
268515
268515
268515
268515
268515
268515
268515
268515
268515
268514
268514
268514
268514
268514
268514
268514
268514
268514
268514
268513
268513
268516
268516
268516
268516
268516
268516
268516
268516
268516
268516
268516
268516
268516
268516
268515
268515
268515
268515
268515
268515
268515
268515
268515
268515
268515
268515
268515
268515
268515
268515
268515
268515
268515
268515
268515
268515
268515
268515
268514
268514
268514
268514
268514
268514
268514
268514
268514
268514
268514
268513
268516
268516
268516
268516
268516
268516
268516
268516
268516
268516
268516
268516
268516
268516
268515
268515
268515
268515
268515
268515
268515
268515
268515
268515
268515
268515
268515
268515
268515
268515
268515
268515
268515
268515
268515
268515
268515
268515
268514
268514
268514
268514
268514
268514
268514
268514
268514
268514
268514
268513
268516
268516
268516
268516
268516
268516
268516
268516
268516
268516
268516
268516
268516
268515
268515
268515
268515
268515
268515
268515
268515
268515
268515
268515
268515
268515
268515
268515
268515
268515
268515
268515
268515
268515
268515
268515
268515
268514
268514
268514
268514
268514
268514
268514
268514
268514
268514
268514
268514
268513
268516
268516
268516
268516
268516
268516
268516
268516
268516
268516
268516
268516
268516
268516
268515
268515
268515
268515
268515
268515
268515
268515
268515
268515
268515
268515
268515
268515
268515
268515
268515
268515
268515
268515
268515
268515
268515
268514
268514
268514
268514
268514
268514
268514
268514
268514
268514
268514
268514
268513
268516
268516
268516
268516
268516
268516
268516
268516
268516
268516
268516
268516
268516
268515
268515
268515
268515
268515
268515
268515
268515
268515
268515
268515
268515
268515
268515
268515
268515
268515
268515
268515
268515
268515
268515
268515
268515
268514
268514
268514
268514
268514
268514
268514
268514
268514
268514
268514
268514
268514
268516
268516
268516
268516
268516
268516
268516
268516
268516
268516
268516
268516
268516
268516
268515
268515
268515
268515
268515
268515
268515
268515
268515
268515
268515
268515
268515
268515
268515
268515
268515
268515
268515
268515
268515
268515
268515
268515
268514
268514
268514
268514
268514
268514
268514
268514
268514
268514
268514
268514
268516
268516
268516
268516
268516
268516
268516
268516
268516
268516
268516
268516
268516
268515
268515
268515
268515
268515
268515
268515
268515
268515
268515
268515
268515
268515
268515
268515
268515
268515
268515
268515
268515
268515
268515
268515
268515
268515
268515
268514
268514
268514
268514
268514
268514
268514
268514
268514
268514
268514
268517
268516
268516
268516
268516
268516
268516
268516
268516
268516
268516
268516
268516
268516
268516
268516
268516
268516
268516
268516
268516
268516
268516
268516
268515
268515
268515
268515
268515
268515
268515
268515
268515
268515
268515
268515
268515
268515
268515
268515
268515
268515
268515
268515
268515
268515
268514
268514
268514
268514
268264
268273
268275
268281
268283
268287
268288
268289
268290
268290
268290
268290
268290
268290
268291
268293
268293
268297
268298
268303
268264
268273
268275
268281
268283
268287
268288
268289
268290
268290
268290
268290
268290
268291
268291
268293
268293
268297
268298
268303
268264
268273
268275
268282
268283
268287
268288
268290
268290
268291
268290
268290
268290
268291
268291
268293
268294
268298
268298
268305
268264
268274
268276
268282
268284
268287
268289
268290
268291
268291
268291
268291
268291
268292
268292
268294
268295
268299
268300
268306
268265
268274
268276
268283
268285
268288
268289
268291
268291
268292
268291
268291
268292
268292
268293
268295
268296
268300
268301
268307
268265
268275
268277
268283
268285
268289
268290
268292
268292
268292
268292
268292
268292
268293
268294
268296
268297
268301
268302
268308
268266
268276
268278
268284
268286
268290
268291
268292
268293
268293
268293
268293
268293
268294
268295
268297
268298
268302
268303
268309
268267
268277
268279
268285
268287
268291
268292
268293
268294
268294
268294
268294
268294
268295
268296
268298
268299
268303
268304
268310
268269
268278
268280
268287
268289
268292
268293
268295
268295
268295
268295
268295
268296
268296
268297
268299
268300
268304
268305
268311
268270
268280
268282
268288
268290
268293
268295
268296
268297
268297
268297
268297
268297
268298
268298
268301
268302
268305
268306
268312
268272
268281
268284
268290
268292
268295
268296
268298
268298
268298
268298
268298
268298
268299
268300
268302
268303
268307
268307
268313
268273
268283
268285
268291
268293
268297
268298
268299
268300
268300
268300
268300
268300
268301
268301
268303
268304
268308
268309
268315
268275
268285
268287
268293
268295
268298
268300
268301
268302
268302
268302
268302
268302
268302
268303
268305
268306
268310
268310
268316
268278
268287
268290
268296
268298
268301
268302
268303
268304
268304
268304
268303
268303
268304
268305
268307
268307
268311
268312
268317
268280
268290
268292
268298
268300
268303
268304
268305
268306
268306
268306
268305
268305
268306
268307
268309
268309
268313
268313
268319
268283
268292
268295
268300
268302
268305
268306
268308
268308
268308
268308
268308
268308
268308
268309
268311
268311
268315
268315
268321
268285
268295
268297
268303
268305
268308
268309
268310
268310
268310
268310
268310
268310
268311
268311
268313
268314
268318
268318
268323
268288
268298
268300
268306
268308
268310
268312
268313
268313
268313
268313
268313
268313
268313
268314
268316
268316
268320
268320
268326
268291
268300
268303
268309
268311
268313
268315
268316
268316
268316
268316
268316
268316
268316
268317
268319
268319
268323
268323
268328
268294
268304
268306
268312
268314
268316
268318
268319
268319
268319
268319
268319
268319
268319
268320
268322
268322
268326
268326
268331
268298
268307
268310
268315
268317
268320
268321
268322
268322
268322
268322
268322
268322
268322
268323
268325
268325
268329
268329
268334
268302
268311
268313
268319
268321
268323
268324
268325
268325
268325
268325
268325
268325
268326
268326
268328
268329
268332
268332
268337
268305
268314
268317
268322
268324
268327
268328
268329
268329
268329
268329
268329
268329
268329
268330
268332
268332
268336
268335
268340
268310
268318
268321
268326
268328
268331
268332
268332
268333
268333
268332
268332
268332
268333
268334
268336
268336
268339
268339
268344
268314
268323
268326
268330
268332
268334
268336
268336
268337
268336
268336
268336
268336
268337
268338
268339
268340
268343
268343
268348
268319
268327
268330
268335
268337
268339
268340
268340
268341
268340
268340
268340
268340
268341
268342
268343
268344
268347
268347
268351
268324
268332
268335
268339
268341
268343
268344
268345
268345
268344
268344
268344
268344
268345
268346
268348
268348
268351
268351
268355
268329
268337
268340
268344
268346
268348
268348
268349
268349
268349
268348
268349
268349
268349
268350
268352
268352
268355
268355
268359
268334
268342
268345
268349
268351
268352
268353
268353
268353
268353
268353
268353
268353
268354
268355
268356
268357
268360
268359
268364
268340
268347
268350
268354
268356
268357
268358
268358
268358
268358
268357
268358
268358
268358
268359
268361
268361
268364
268364
268368
268346
268353
268356
268359
268361
268362
268363
268363
268363
268362
268362
268362
268363
268363
268364
268366
268366
268369
268369
268373
268352
268359
268362
268365
268367
268368
268368
268368
268368
268367
268367
268367
268368
268368
268369
268371
268371
268374
268374
268378
268358
268365
268368
268371
268372
268373
268373
268373
268373
268373
268372
268372
268373
268373
268374
268376
268377
268379
268379
268383
268365
268371
268374
268377
268378
268379
268379
268379
268378
268378
268378
268378
268378
268379
268380
268382
268382
268385
268385
268389
268372
268378
268381
268384
268385
268385
268385
268385
268384
268383
268383
268383
268384
268384
268385
268387
268388
268391
268390
268394
268379
268385
268388
268390
268391
268391
268391
268391
268390
268389
268389
268389
268390
268390
268391
268393
268394
268397
268397
268400
268387
268392
268395
268397
268398
268398
268397
268397
268396
268395
268395
268395
268396
268397
268398
268399
268400
268403
268403
268407
268395
268400
268402
268404
268405
268405
268404
268403
268402
268402
268401
268401
268402
268403
268404
268406
268407
268410
268410
268413
268403
268408
268410
268412
268412
268412
268411
268410
268409
268408
268408
268408
268408
268410
268411
268413
268414
268417
268417
268421
268411
268415
268418
268419
268419
268419
268418
268417
268416
268415
268414
268415
268415
268417
268418
268420
268422
268424
268425
268428
268419
268423
268425
268427
268427
268426
268425
268424
268423
268422
268422
268422
268422
268424
268425
268427
268429
268432
268433
268436
268427
268431
268433
268435
268435
268434
268433
268432
268430
268429
268429
268429
268430
268431
268433
268435
268437
268440
268441
268444
268435
268439
268441
268442
268442
268442
268440
268439
268438
268437
268437
268437
268438
268439
268441
268443
268446
268449
268449
268452
268443
268446
268449
268450
268450
268449
268448
268447
268446
268445
268444
268445
268446
268447
268449
268452
268454
268457
268458
268461
268451
268454
268456
268457
268457
268457
268456
268455
268454
268453
268452
268453
268454
268455
268458
268460
268463
268466
268467
268469
268458
268460
268463
268464
268465
268464
268464
268463
268462
268461
268461
268461
268462
268464
268466
268469
268472
268475
268476
268478
268465
268467
268469
268470
268471
268471
268471
268470
268469
268469
268469
268469
268471
268472
268475
268477
268480
268483
268484
268486
268471
268472
268474
268476
268477
268478
268478
268477
268477
268477
268477
268478
268479
268481
268483
268486
268489
268491
268493
268494
268476
268477
268479
268481
268483
268484
268484
268484
268484
268484
268485
268486
268487
268489
268491
268494
268496
268499
268500
268501
268481
268482
268483
268485
268487
268488
268490
268490
268491
268491
268492
268493
268494
268496
268499
268501
268503
268506
268507
268507
268484
268485
268487
268488
268490
268492
268494
268495
268497
268498
268499
268500
268501
268503
268505
268507
268509
268511
268512
268512
268488
268488
268489
268491
268493
268495
268497
268499
268501
268502
268504
268505
268507
268509
268510
268512
268514
268515
268516
268516
268491
268491
268492
268493
268495
268497
268499
268501
268504
268506
268508
268510
268511
268513
268515
268516
268517
268518
268519
268518
268493
268493
268494
268495
268496
268498
268500
268502
268505
268507
268510
268512
268514
268516
268517
268519
268519
268520
268520
268519
268495
268495
268495
268496
268497
268498
268500
268502
268504
268507
268509
268512
268514
268517
268518
268520
268520
268520
268520
268518
268496
268496
268497
268497
268498
268499
268500
268501
268503
268505
268507
268509
268511
268513
268514
268516
268516
268516
268515
268514
268497
268497
268498
268498
268499
268500
268500
268501
268502
268504
268505
268506
268508
268508
268509
268510
268510
268510
268510
268510
268498
268498
268499
268499
268500
268500
268501
268502
268502
268503
268504
268505
268506
268507
268507
268508
268508
268508
268509
268509
268499
268499
268499
268500
268500
268501
268501
268502
268503
268503
268504
268505
268505
268506
268507
268507
268507
268508
268508
268508
268500
268500
268500
268500
268501
268501
268502
268502
268503
268504
268504
268505
268505
268506
268506
268507
268507
268507
268508
268508
268500
268500
268501
268501
268501
268502
268502
268503
268503
268504
268504
268505
268505
268506
268506
268506
268507
268507
268507
268508
268501
268501
268501
268501
268502
268502
268502
268503
268503
268504
268504
268505
268505
268505
268506
268506
268507
268507
268507
268507
268501
268501
268501
268502
268502
268502
268503
268503
268503
268504
268504
268505
268505
268505
268506
268506
268506
268507
268507
268507
268502
268502
268502
268502
268502
268502
268503
268503
268504
268504
268504
268505
268505
268505
268505
268506
268506
268506
268507
268507
268502
268502
268502
268502
268502
268503
268503
268503
268504
268504
268504
268505
268505
268505
268505
268506
268506
268506
268506
268507
268502
268502
268502
268502
268503
268503
268503
268503
268504
268504
268504
268504
268505
268505
268505
268505
268506
268506
268506
268507
268503
268502
268502
268503
268503
268503
268503
268504
268504
268504
268504
268504
268505
268505
268505
268505
268506
268506
268506
268507
268503
268503
268503
268503
268503
268503
268503
268504
268504
268504
268504
268504
268505
268505
268505
268505
268505
268506
268506
268506
268503
268503
268503
268503
268503
268503
268503
268504
268504
268504
268504
268504
268505
268505
268505
268505
268505
268506
268506
268506
268503
268503
268503
268503
268503
268503
268504
268504
268504
268504
268504
268504
268505
268505
268505
268505
268505
268506
268506
268506
268503
268503
268503
268503
268503
268503
268504
268504
268504
268504
268504
268505
268505
268505
268505
268505
268505
268506
268506
268506
268504
268503
268503
268503
268503
268504
268504
268504
268504
268504
268504
268505
268505
268505
268505
268505
268505
268506
268506
268506
268504
268503
268503
268503
268504
268504
268504
268504
268504
268504
268504
268505
268505
268505
268505
268505
268505
268506
268506
268506
268504
268504
268503
268504
268504
268504
268504
268504
268504
268504
268505
268505
268505
268505
268505
268505
268505
268506
268506
268506
268504
268504
268504
268504
268504
268504
268504
268504
268504
268504
268505
268505
268505
268505
268505
268505
268505
268506
268506
268507
268504
268504
268504
268504
268504
268504
268504
268504
268504
268505
268505
268505
268505
268505
268505
268505
268506
268506
268506
268507
268504
268504
268504
268504
268504
268504
268504
268504
268505
268505
268505
268505
268505
268505
268505
268506
268506
268506
268506
268507
268504
268504
268504
268504
268504
268504
268504
268504
268505
268505
268505
268505
268505
268505
268505
268506
268506
268506
268506
268507
268504
268504
268504
268504
268504
268504
268504
268505
268505
268505
268505
268505
268505
268505
268506
268506
268506
268506
268506
268507
268505
268504
268504
268504
268504
268505
268505
268505
268505
268505
268505
268505
268505
268506
268506
268506
268506
268506
268506
268507
268505
268504
268504
268504
268505
268505
268505
268505
268505
268505
268505
268505
268506
268506
268506
268506
268506
268506
268507
268507
268505
268505
268505
268505
268505
268505
268505
268505
268505
268505
268505
268506
268506
268506
268506
268506
268506
268506
268507
268507
268505
268505
268505
268505
268505
268505
268505
268505
268505
268505
268506
268506
268506
268506
268506
268506
268506
268506
268507
268507
268505
268505
268505
268505
268505
268505
268505
268505
268505
268506
268506
268506
268506
268506
268506
268506
268506
268507
268507
268507
268505
268505
268505
268505
268505
268505
268505
268505
268506
268506
268506
268506
268506
268506
268506
268506
268506
268507
268507
268508
268506
268505
268505
268505
268505
268505
268505
268506
268506
268506
268506
268506
268506
268506
268506
268506
268507
268507
268507
268508
268506
268505
268505
268505
268505
268506
268506
268506
268506
268506
268506
268506
268506
268506
268506
268507
268507
268507
268507
268508
268506
268506
268505
268506
268506
268506
268506
268506
268506
268506
268506
268506
268506
268507
268507
268507
268507
268507
268507
268508
268506
268506
268506
268506
268506
268506
268506
268506
268506
268506
268506
268506
268507
268507
268507
268507
268507
268507
268507
268508
268506
268506
268506
268506
268506
268506
268506
268506
268506
268506
268507
268507
268507
268507
268507
268507
268507
268507
268508
268508
268507
268506
268506
268506
268506
268506
268506
268506
268507
268507
268507
268507
268507
268507
268507
268507
268507
268507
268508
268508
268507
268506
268506
268506
268506
268506
268507
268507
268507
268507
268507
268507
268507
268507
268507
268507
268507
268507
268508
268508
268507
268507
268506
268506
268507
268507
268507
268507
268507
268507
268507
268507
268507
268507
268507
268507
268507
268508
268508
268508
268507
268507
268507
268507
268507
268507
268507
268507
268507
268507
268507
268507
268507
268507
268507
268507
268508
268508
268508
268509
268507
268507
268507
268507
268507
268507
268507
268507
268507
268507
268507
268507
268507
268507
268507
268508
268508
268508
268508
268509
268507
268507
268507
268507
268507
268507
268507
268507
268507
268507
268507
268507
268508
268508
268508
268508
268508
268508
268508
268509
268507
268507
268507
268507
268507
268507
268507
268507
268507
268507
268508
268508
268508
268508
268508
268508
268508
268508
268508
268509
268507
268507
268507
268507
268507
268507
268507
268507
268507
268508
268508
268508
268508
268508
268508
268508
268508
268508
268509
268509
268508
268507
268507
268507
268507
268507
268507
268507
268508
268508
268508
268508
268508
268508
268508
268508
268508
268508
268509
268509
268508
268507
268507
268507
268507
268507
268507
268508
268508
268508
268508
268508
268508
268508
268508
268508
268508
268508
268509
268509
268508
268507
268507
268507
268507
268508
268508
268508
268508
268508
268508
268508
268508
268508
268508
268508
268508
268509
268509
268510
268508
268508
268507
268507
268508
268508
268508
268508
268508
268508
268508
268508
268508
268508
268508
268508
268509
268509
268509
268510
268508
268508
268508
268508
268508
268508
268508
268508
268508
268508
268508
268508
268508
268508
268508
268509
268509
268509
268509
268510
268508
268508
268508
268508
268508
268508
268508
268508
268508
268508
268508
268508
268508
268508
268508
268509
268509
268509
268509
268510
268508
268508
268508
268508
268508
268508
268508
268508
268508
268508
268508
268508
268508
268508
268509
268509
268509
268509
268509
268510
268508
268508
268508
268508
268508
268508
268508
268508
268508
268508
268508
268508
268508
268509
268509
268509
268509
268509
268509
268510
268508
268508
268508
268508
268508
268508
268508
268508
268508
268508
268508
268508
268509