/*--------------------------------*- C++ -*----------------------------------*\
  =========                 |
  \\      /  F ield         | OpenFOAM: The Open Source CFD Toolbox
   \\    /   O peration     | Website:  https://openfoam.org
    \\  /    A nd           | Version:  8
     \\/     M anipulation  |
\*---------------------------------------------------------------------------*/
FoamFile
{
    version     2.0;
    format      ascii;
    class       volScalarField;
    location    "500";
    object      T;
}
// * * * * * * * * * * * * * * * * * * * * * * * * * * * * * * * * * * * * * //

dimensions      [0 0 0 1 0 0 0];

internalField   nonuniform List<scalar> 
8400
(
299.068
299.083
299.107
299.14
299.178
299.218
299.257
299.293
299.326
299.356
299.38
299.4
299.414
299.421
299.422
299.416
299.402
299.379
299.347
299.307
299.264
299.229
299.205
299.19
299.184
299.185
299.191
299.203
299.22
299.241
299.265
299.292
299.322
299.354
299.389
299.426
299.465
299.507
299.551
299.592
299.627
299.653
299.669
299.674
299.67
299.656
299.632
299.599
299.556
299.507
299.726
299.7
299.703
299.721
299.742
299.762
299.779
299.791
299.801
299.807
299.81
299.811
299.808
299.802
299.793
299.779
299.76
299.731
299.69
299.637
299.577
299.522
299.476
299.44
299.416
299.404
299.402
299.411
299.428
299.452
299.482
299.518
299.559
299.604
299.654
299.708
299.762
299.815
299.859
299.893
299.917
299.933
299.942
299.946
299.945
299.937
299.922
299.893
299.847
299.775
300
299.999
299.999
299.998
299.998
299.998
299.997
299.997
299.997
299.996
299.996
299.995
299.992
299.989
299.984
299.977
299.966
299.939
299.842
299.763
299.699
299.651
299.612
299.58
299.556
299.543
299.541
299.549
299.568
299.594
299.627
299.666
299.71
299.76
299.814
299.869
299.919
299.954
299.973
299.983
299.989
299.994
299.999
300.005
300.01
300.015
300.019
300.022
300.02
300.011
300.003
300.003
300.003
300.002
300.002
300.002
300.002
300.003
300.004
300.005
300.006
300.006
300.006
300.006
300.006
300.005
300.003
300
299.994
299.984
299.97
299.952
299.93
299.905
299.877
299.847
299.817
299.787
299.756
299.723
299.688
299.691
299.723
299.769
299.822
299.879
299.92
299.939
299.951
299.961
299.971
299.98
299.99
299.999
300.008
300.015
300.021
300.025
300.029
300.031
300.003
300.004
300.004
300.005
300.007
300.01
300.013
300.016
300.019
300.022
300.024
300.026
300.027
300.029
300.03
300.03
300.031
300.031
300.031
300.03
300.028
300.026
300.021
300.016
300.009
300.001
299.992
299.982
299.971
299.959
299.946
299.935
299.927
299.922
299.921
299.923
299.927
299.936
299.946
299.958
299.971
299.982
299.993
300.002
300.01
300.017
300.022
300.026
300.03
300.032
300
300
299.999
299.999
299.999
299.999
299.998
299.997
299.996
299.995
299.994
299.993
299.993
299.993
299.994
299.996
299.998
300
300.002
300.004
300.006
300.008
300.01
300.011
300.012
300.012
300.011
300.01
300.009
300.006
300.004
300.001
299.998
299.996
299.995
299.995
299.997
299.999
300.002
300.005
300.009
300.013
300.016
300.02
300.024
300.027
300.029
300.032
300.034
300.036
300.002
300.002
300.002
300.002
300.002
300.002
300.002
300.002
300.002
300.002
300.002
300.002
300.001
300.001
300.001
300
300
300
300
300
300.001
300.002
300.003
300.005
300.006
300.007
300.008
300.009
300.01
300.01
300.01
300.01
300.01
300.01
300.011
300.011
300.012
300.012
300.013
300.015
300.016
300.018
300.02
300.021
300.023
300.025
300.027
300.029
300.031
300.033
300.001
300.001
300.001
300.001
300.001
300.001
300.001
300.001
300.001
300.001
300.001
300.001
300.001
300.001
300.001
300
300
300
300
300
300.001
300.001
300.002
300.002
300.003
300.004
300.005
300.006
300.006
300.007
300.008
300.008
300.009
300.01
300.01
300.011
300.011
300.012
300.012
300.013
300.014
300.015
300.016
300.018
300.02
300.021
300.023
300.025
300.027
300.029
300.001
300.001
300.001
300.001
300.001
300.001
300.001
300.001
300.001
300.001
300.001
300.001
300.001
300.001
300.001
300.001
300
300
300
300
300.001
300.001
300.001
300.001
300.002
300.002
300.003
300.004
300.004
300.005
300.005
300.006
300.006
300.007
300.007
300.008
300.009
300.009
300.01
300.01
300.011
300.012
300.013
300.015
300.016
300.018
300.02
300.022
300.024
300.026
300.001
300.001
300.001
300.001
300.001
300.001
300.001
300.001
300.001
300.001
300.001
300.001
300.001
300.001
300.001
300
300
300
300
300
300
300.001
300.001
300.001
300.001
300.002
300.002
300.002
300.003
300.003
300.004
300.004
300.005
300.005
300.005
300.006
300.006
300.007
300.008
300.008
300.009
300.01
300.011
300.013
300.014
300.016
300.018
300.021
300.023
300.024
300
300
300.001
300.001
300
300
300
300
300
300
300
300
300
300
300
300
300
300
300
300
300
300
300.001
300.001
300.001
300.001
300.002
300.002
300.002
300.003
300.003
300.003
300.004
300.004
300.004
300.005
300.005
300.006
300.006
300.007
300.008
300.009
300.01
300.012
300.014
300.016
300.018
300.02
300.021
300.022
300
300
300
300
300
300
300
300
300.001
300.001
300.001
300.001
300.001
300.001
300.001
300.001
300.001
300.001
300.001
300.001
300.001
300.001
300.001
300.001
300.001
300.001
300.002
300.002
300.002
300.002
300.003
300.003
300.003
300.003
300.004
300.004
300.005
300.005
300.006
300.007
300.008
300.009
300.01
300.012
300.014
300.016
300.018
300.02
300.021
300.02
300
300
300
300
300
300
300
300.001
300.001
300.001
300.001
300.001
300.001
300.001
300.001
300.001
300.002
300.002
300.002
300.002
300.002
300.002
300.002
300.002
300.002
300.002
300.002
300.002
300.002
300.002
300.003
300.003
300.003
300.003
300.004
300.004
300.004
300.005
300.006
300.006
300.008
300.01
300.013
300.015
300.016
300.017
300.016
300.015
300.012
300.008
300.001
300.001
300.001
300.001
300.001
300.002
300.002
300.002
300.002
300.003
300.003
300.003
300.003
300.003
300.003
300.003
300.003
300.003
300.003
300.003
300.003
300.003
300.003
300.003
300.003
300.003
300.003
300.003
300.003
300.003
300.003
300.003
300.004
300.004
300.005
300.006
300.007
300.008
300.009
300.01
300.011
300.011
300.011
300.01
300.007
300.003
299.998
299.992
299.986
299.978
300.004
300.004
300.004
300.005
300.005
300.005
300.006
300.006
300.006
300.007
300.007
300.007
300.007
300.007
300.007
300.007
300.007
300.006
300.006
300.006
300.006
300.006
300.005
300.005
300.005
300.005
300.005
300.005
300.005
300.005
300.005
300.005
300.005
300.006
300.006
300.006
300.006
300.005
300.004
300.002
299.999
299.995
299.989
299.983
299.976
299.968
299.96
299.952
299.944
299.936
300.008
300.008
300.009
300.009
300.009
300.009
300.01
300.01
300.009
300.009
300.009
300.008
300.008
300.007
300.007
300.006
300.006
300.005
300.005
300.004
300.004
300.003
300.003
300.002
300.002
300.001
300.001
300
300
299.999
299.998
299.997
299.996
299.995
299.993
299.991
299.987
299.983
299.978
299.972
299.965
299.958
299.949
299.941
299.932
299.923
299.915
299.908
299.901
299.895
300.011
300.01
300.011
300.01
300.01
300.009
300.009
300.008
300.007
300.006
300.005
300.003
300.002
300.001
299.999
299.998
299.996
299.995
299.994
299.992
299.991
299.99
299.988
299.987
299.986
299.984
299.982
299.981
299.979
299.977
299.975
299.972
299.969
299.965
299.961
299.957
299.951
299.945
299.938
299.931
299.924
299.916
299.908
299.901
299.894
299.887
299.882
299.877
299.873
299.87
300.009
300.007
300.007
300.006
300.004
300.003
300.001
299.999
299.998
299.996
299.994
299.992
299.99
299.988
299.986
299.983
299.981
299.979
299.977
299.974
299.972
299.97
299.967
299.965
299.962
299.959
299.956
299.953
299.95
299.947
299.943
299.939
299.935
299.931
299.926
299.921
299.916
299.911
299.905
299.899
299.894
299.889
299.884
299.88
299.876
299.873
299.87
299.868
299.867
299.865
299.999
299.997
299.995
299.993
299.991
299.989
299.987
299.985
299.983
299.981
299.979
299.976
299.974
299.972
299.97
299.967
299.965
299.963
299.96
299.957
299.955
299.952
299.949
299.946
299.943
299.939
299.936
299.933
299.929
299.926
299.922
299.918
299.915
299.911
299.907
299.904
299.9
299.897
299.894
299.891
299.888
299.886
299.884
299.882
299.881
299.88
299.88
299.879
299.879
299.879
299.974
299.971
299.969
299.967
299.965
299.963
299.961
299.96
299.958
299.956
299.955
299.953
299.951
299.95
299.948
299.947
299.945
299.943
299.942
299.94
299.938
299.936
299.933
299.931
299.929
299.926
299.924
299.921
299.919
299.916
299.914
299.912
299.909
299.907
299.906
299.904
299.903
299.901
299.9
299.899
299.899
299.898
299.898
299.898
299.899
299.899
299.899
299.899
299.9
299.9
303.147
303.142
303.137
303.132
303.127
303.123
303.118
303.113
303.109
303.104
303.1
303.095
303.091
303.086
303.082
303.077
303.073
303.069
303.064
303.06
303.056
303.052
303.048
303.045
303.041
303.038
303.035
303.031
303.028
303.025
303.022
303.018
303.015
303.012
303.009
303.006
303.003
303
302.997
302.994
302.991
302.989
302.986
302.983
302.98
302.978
302.976
302.974
302.972
302.97
303.15
303.15
303.15
303.15
303.15
303.149
303.149
303.149
303.148
303.148
303.148
303.147
303.147
303.146
303.146
303.145
303.145
303.144
303.143
303.143
303.142
303.141
303.14
303.139
303.138
303.136
303.135
303.134
303.133
303.131
303.13
303.129
303.128
303.126
303.125
303.124
303.123
303.121
303.12
303.119
303.118
303.117
303.116
303.115
303.114
303.113
303.112
303.111
303.11
303.109
303.15
303.15
303.15
303.15
303.15
303.15
303.15
303.15
303.15
303.15
303.15
303.15
303.15
303.15
303.15
303.15
303.15
303.15
303.15
303.15
303.15
303.149
303.149
303.149
303.149
303.149
303.148
303.148
303.148
303.148
303.147
303.147
303.147
303.146
303.146
303.146
303.145
303.145
303.145
303.144
303.144
303.143
303.143
303.143
303.142
303.142
303.142
303.141
303.141
303.141
303.15
303.15
303.15
303.15
303.15
303.15
303.15
303.15
303.15
303.15
303.15
303.15
303.15
303.15
303.15
303.15
303.15
303.15
303.15
303.15
303.15
303.15
303.15
303.15
303.15
303.15
303.15
303.15
303.15
303.15
303.15
303.15
303.15
303.15
303.149
303.149
303.149
303.149
303.149
303.149
303.149
303.149
303.149
303.149
303.149
303.149
303.149
303.149
303.148
303.148
303.15
303.15
303.15
303.15
303.15
303.15
303.15
303.15
303.15
303.15
303.15
303.15
303.15
303.15
303.15
303.15
303.15
303.15
303.15
303.15
303.15
303.15
303.15
303.15
303.15
303.15
303.15
303.15
303.15
303.15
303.15
303.15
303.15
303.15
303.15
303.15
303.15
303.15
303.15
303.15
303.15
303.15
303.15
303.15
303.15
303.15
303.15
303.15
303.15
303.15
303.15
303.15
303.15
303.15
303.15
303.15
303.15
303.15
303.15
303.15
303.15
303.15
303.15
303.15
303.15
303.15
303.15
303.15
303.15
303.15
303.15
303.15
303.15
303.15
303.15
303.15
303.15
303.15
303.15
303.15
303.15
303.15
303.15
303.15
303.15
303.15
303.15
303.15
303.15
303.15
303.15
303.15
303.15
303.15
303.15
303.15
303.15
303.15
303.15
303.15
303.15
303.15
303.15
303.15
303.15
303.15
303.15
303.15
303.15
303.15
303.15
303.15
303.15
303.15
303.15
303.15
303.15
303.15
303.15
303.15
303.15
303.15
303.15
303.15
303.15
303.15
303.15
303.15
303.15
303.15
303.15
303.15
303.15
303.15
303.15
303.15
303.15
303.15
303.15
303.15
303.15
303.15
303.15
303.15
303.15
303.15
303.15
303.15
303.15
303.15
303.15
303.15
303.15
303.15
303.15
303.15
303.15
303.15
303.15
303.15
303.15
303.15
303.15
303.15
303.15
303.15
303.15
303.15
303.15
303.15
303.15
303.15
303.15
303.15
303.15
303.15
303.15
303.15
303.15
303.15
303.15
303.15
303.15
303.15
303.15
303.15
303.15
303.15
303.15
303.15
303.15
303.15
303.15
303.15
303.15
303.15
303.15
303.15
303.15
303.15
303.15
303.15
303.15
303.15
303.15
303.15
303.15
303.15
303.15
303.15
303.15
303.15
303.15
303.15
303.15
303.15
303.15
303.15
303.15
303.15
303.15
303.15
303.15
303.15
303.15
303.15
303.15
303.15
303.15
303.15
303.15
303.15
303.15
303.15
303.15
303.15
303.15
303.15
303.15
303.15
303.15
303.15
303.15
303.15
303.15
303.15
303.15
303.15
303.15
303.15
303.15
303.15
303.15
303.15
303.15
303.15
303.15
303.15
303.15
303.15
303.15
303.15
303.15
303.15
303.15
303.15
303.15
303.15
303.15
303.15
303.15
303.15
303.15
303.15
303.15
303.15
303.15
303.15
303.15
303.15
303.15
303.15
303.15
303.15
303.15
303.15
303.15
303.15
303.15
303.15
303.15
303.15
303.15
303.15
303.15
303.15
303.15
303.15
303.15
303.15
303.15
303.15
303.15
303.15
303.15
303.15
303.15
303.15
303.15
303.15
303.15
303.15
303.15
303.15
303.15
303.15
303.15
303.15
303.15
303.15
303.15
303.15
303.15
303.15
303.15
303.15
303.15
303.15
303.15
303.15
303.15
303.15
303.15
303.15
303.15
303.15
303.15
303.15
303.15
303.15
303.15
303.15
303.15
303.15
303.15
303.15
303.15
303.15
303.15
303.15
303.15
303.15
303.15
303.15
303.15
303.15
303.15
303.15
303.15
303.15
303.15
303.15
303.15
303.15
303.15
303.15
303.15
303.15
303.15
303.15
303.15
303.15
303.15
303.15
303.15
303.15
303.15
303.15
303.15
303.15
303.15
303.15
303.15
303.15
303.15
303.15
303.15
303.15
303.15
303.15
303.15
303.15
303.15
303.15
303.15
303.15
303.15
303.15
303.15
303.15
303.15
303.15
303.15
303.15
303.15
303.15
303.15
303.15
303.15
303.15
303.15
303.15
303.15
303.15
303.15
303.15
303.15
303.15
303.15
303.15
303.15
303.15
303.15
303.15
303.15
303.15
303.15
303.15
303.15
303.15
303.15
303.15
303.15
303.15
303.15
303.15
303.15
303.15
303.15
303.15
303.15
303.15
303.15
303.15
303.15
303.15
303.15
303.15
303.15
303.15
303.15
303.15
303.15
303.15
303.15
303.15
303.15
303.15
303.15
303.15
303.15
303.15
303.15
303.15
303.15
303.15
303.15
303.15
303.15
303.15
303.15
303.15
303.15
303.15
303.15
303.15
303.15
303.15
303.15
303.15
303.15
303.15
303.15
303.15
303.15
303.15
303.15
303.15
303.15
303.15
303.15
303.15
303.15
303.15
303.15
303.15
303.15
303.15
303.15
303.15
303.15
303.15
303.15
303.15
303.15
303.15
303.15
303.15
303.15
303.15
303.15
303.15
303.15
303.15
303.15
303.15
303.15
303.15
303.15
303.15
303.15
303.15
303.15
303.15
303.15
303.15
303.15
303.15
303.15
303.15
303.15
303.15
303.15
303.15
303.15
303.15
303.15
303.15
303.15
303.15
303.15
303.15
303.15
303.15
303.15
303.15
303.15
303.15
303.15
303.15
303.15
303.15
303.15
303.15
303.15
303.15
303.15
303.15
303.15
303.15
303.15
303.15
303.15
303.15
303.15
303.15
303.15
303.15
303.15
303.15
303.15
303.15
303.15
303.15
303.15
303.15
303.15
303.15
303.15
303.15
303.15
303.15
303.15
303.15
303.15
303.15
303.15
303.15
303.15
303.15
303.15
303.15
303.15
303.15
303.15
303.15
303.15
303.15
303.149
303.149
303.15
303.15
303.15
303.15
303.15
303.15
303.15
303.15
303.15
303.15
303.15
303.15
303.15
303.15
303.15
303.15
303.15
303.15
303.15
303.15
303.15
303.15
303.15
303.15
303.15
303.15
303.15
303.15
303.15
303.15
303.15
303.15
303.15
303.15
303.149
303.149
303.149
303.149
303.149
303.149
303.149
303.149
303.149
303.148
303.148
303.148
303.148
303.148
303.147
303.147
303.15
303.15
303.15
303.15
303.15
303.15
303.15
303.15
303.15
303.15
303.15
303.15
303.15
303.15
303.15
303.15
303.15
303.15
303.15
303.15
303.149
303.149
303.149
303.149
303.149
303.149
303.148
303.148
303.148
303.147
303.147
303.147
303.146
303.146
303.146
303.145
303.145
303.144
303.144
303.143
303.143
303.142
303.142
303.141
303.14
303.14
303.139
303.138
303.137
303.136
303.15
303.15
303.15
303.15
303.15
303.149
303.149
303.149
303.148
303.148
303.148
303.147
303.147
303.146
303.146
303.145
303.145
303.144
303.143
303.143
303.142
303.141
303.14
303.139
303.137
303.136
303.135
303.134
303.133
303.131
303.13
303.129
303.127
303.126
303.125
303.123
303.122
303.12
303.119
303.117
303.116
303.114
303.113
303.111
303.109
303.108
303.106
303.104
303.102
303.099
303.147
303.142
303.137
303.132
303.127
303.123
303.118
303.113
303.109
303.104
303.1
303.095
303.091
303.086
303.082
303.077
303.073
303.069
303.064
303.06
303.056
303.052
303.049
303.045
303.041
303.038
303.034
303.031
303.028
303.024
303.021
303.018
303.015
303.012
303.009
303.006
303.003
303
302.997
302.994
302.991
302.988
302.985
302.982
302.979
302.976
302.974
302.971
302.968
302.965
300.73
297.942
295.83
294.713
294.165
293.817
293.537
293.33
293.209
293.162
293.149
293.151
293.156
293.16
293.188
293.313
293.624
294.212
295.187
296.383
300.751
297.968
295.857
294.734
294.178
293.82
293.535
293.326
293.209
293.162
293.149
293.149
293.154
293.158
293.189
293.323
293.652
294.267
295.284
296.513
300.771
297.994
295.884
294.755
294.19
293.823
293.532
293.324
293.209
293.163
293.149
293.149
293.153
293.157
293.19
293.332
293.673
294.307
295.352
296.601
300.79
298.019
295.911
294.776
294.202
293.826
293.531
293.323
293.21
293.164
293.149
293.148
293.152
293.156
293.193
293.341
293.696
294.35
295.424
296.689
300.808
298.043
295.939
294.798
294.214
293.829
293.529
293.321
293.211
293.165
293.149
293.148
293.152
293.155
293.195
293.353
293.722
294.396
295.498
296.776
300.825
298.068
295.966
294.819
294.225
293.832
293.527
293.321
293.212
293.167
293.15
293.147
293.151
293.155
293.199
293.366
293.75
294.444
295.575
296.862
300.841
298.094
295.993
294.84
294.236
293.834
293.526
293.32
293.213
293.168
293.15
293.147
293.151
293.155
293.204
293.381
293.781
294.495
295.653
296.945
300.858
298.12
296.02
294.86
294.246
293.836
293.525
293.32
293.216
293.17
293.151
293.147
293.151
293.157
293.211
293.4
293.814
294.548
295.73
297.025
300.874
298.146
296.048
294.881
294.257
293.838
293.524
293.321
293.218
293.173
293.152
293.148
293.151
293.159
293.221
293.42
293.85
294.602
295.807
297.103
300.89
298.172
296.075
294.901
294.267
293.84
293.524
293.323
293.221
293.175
293.154
293.148
293.151
293.163
293.232
293.444
293.888
294.658
295.882
297.177
300.906
298.199
296.103
294.921
294.276
293.843
293.524
293.325
293.225
293.179
293.156
293.149
293.153
293.168
293.246
293.469
293.927
294.713
295.956
297.247
300.923
298.226
296.13
294.941
294.286
293.845
293.525
293.328
293.23
293.182
293.159
293.15
293.155
293.175
293.261
293.496
293.967
294.769
296.028
297.313
300.939
298.253
296.158
294.961
294.295
293.848
293.527
293.333
293.235
293.187
293.162
293.153
293.158
293.183
293.279
293.525
294.006
294.824
296.098
297.375
300.956
298.281
296.186
294.98
294.304
293.851
293.53
293.338
293.241
293.192
293.166
293.156
293.162
293.193
293.297
293.554
294.045
294.877
296.166
297.432
300.973
298.309
296.214
295
294.314
293.855
293.534
293.344
293.248
293.198
293.17
293.16
293.168
293.204
293.317
293.584
294.085
294.929
296.23
297.483
300.99
298.337
296.242
295.019
294.323
293.86
293.539
293.351
293.256
293.204
293.176
293.166
293.175
293.217
293.338
293.614
294.123
294.98
296.29
297.529
301.007
298.365
296.27
295.038
294.332
293.865
293.545
293.359
293.265
293.212
293.182
293.172
293.183
293.23
293.359
293.644
294.162
295.029
296.346
297.57
301.024
298.393
296.298
295.056
294.342
293.871
293.552
293.369
293.275
293.22
293.189
293.18
293.192
293.244
293.381
293.674
294.199
295.076
296.397
297.604
301.04
298.421
296.325
295.074
294.351
293.877
293.56
293.379
293.286
293.229
293.197
293.188
293.201
293.259
293.402
293.703
294.235
295.12
296.442
297.633
301.056
298.448
296.351
295.092
294.361
293.884
293.569
293.391
293.298
293.24
293.206
293.197
293.212
293.274
293.424
293.731
294.27
295.161
296.483
297.656
301.072
298.475
296.377
295.109
294.37
293.893
293.58
293.404
293.311
293.251
293.216
293.207
293.223
293.289
293.445
293.759
294.303
295.2
296.519
297.672
301.087
298.5
296.402
295.126
294.38
293.902
293.592
293.419
293.326
293.264
293.227
293.218
293.235
293.305
293.466
293.786
294.335
295.236
296.55
297.683
301.101
298.525
296.426
295.142
294.39
293.912
293.606
293.435
293.341
293.278
293.239
293.23
293.248
293.322
293.488
293.813
294.366
295.269
296.576
297.688
301.115
298.548
296.448
295.158
294.401
293.924
293.621
293.452
293.359
293.294
293.253
293.243
293.261
293.339
293.511
293.84
294.397
295.3
296.597
297.686
301.128
298.569
296.47
295.173
294.412
293.937
293.638
293.471
293.378
293.311
293.268
293.258
293.277
293.357
293.534
293.867
294.426
295.329
296.613
297.679
301.139
298.59
296.49
295.188
294.424
293.951
293.657
293.492
293.398
293.33
293.285
293.274
293.293
293.377
293.558
293.895
294.456
295.356
296.624
297.666
301.151
298.609
296.51
295.203
294.437
293.967
293.678
293.515
293.421
293.351
293.305
293.292
293.312
293.398
293.583
293.924
294.485
295.381
296.631
297.648
301.162
298.628
296.529
295.218
294.451
293.985
293.701
293.54
293.445
293.374
293.326
293.313
293.332
293.422
293.61
293.953
294.515
295.405
296.634
297.625
301.173
298.647
296.549
295.235
294.467
294.006
293.726
293.568
293.472
293.4
293.351
293.336
293.355
293.447
293.639
293.984
294.545
295.429
296.633
297.597
301.184
298.668
296.57
295.253
294.486
294.029
293.755
293.598
293.502
293.429
293.378
293.362
293.381
293.476
293.67
294.016
294.576
295.451
296.628
297.565
301.197
298.69
296.593
295.273
294.507
294.055
293.786
293.631
293.534
293.46
293.409
293.392
293.411
293.507
293.704
294.051
294.608
295.474
296.621
297.529
301.213
298.716
296.619
295.297
294.532
294.085
293.821
293.667
293.57
293.495
293.443
293.426
293.444
293.542
293.742
294.088
294.642
295.495
296.61
297.488
301.231
298.748
296.651
295.326
294.561
294.119
293.86
293.707
293.609
293.534
293.481
293.463
293.481
293.58
293.782
294.128
294.678
295.517
296.596
297.445
301.254
298.787
296.69
295.361
294.596
294.157
293.903
293.751
293.652
293.577
293.524
293.505
293.522
293.623
293.826
294.171
294.717
295.538
296.58
297.398
301.282
298.836
296.739
295.404
294.637
294.201
293.95
293.8
293.7
293.625
293.572
293.552
293.569
293.67
293.874
294.218
294.757
295.56
296.563
297.349
301.318
298.899
296.8
295.457
294.685
294.251
294.002
293.853
293.753
293.677
293.624
293.605
293.621
293.723
293.927
294.269
294.8
295.583
296.543
297.298
301.362
298.978
296.877
295.522
294.743
294.308
294.06
293.912
293.811
293.735
293.683
293.663
293.679
293.781
293.984
294.324
294.848
295.606
296.523
297.245
301.418
299.075
296.974
295.603
294.812
294.373
294.125
293.977
293.876
293.8
293.747
293.727
293.744
293.845
294.047
294.383
294.898
295.629
296.501
297.19
301.487
299.194
297.095
295.703
294.895
294.447
294.196
294.048
293.947
293.871
293.819
293.799
293.816
293.915
294.116
294.449
294.952
295.654
296.479
297.135
301.57
299.338
297.244
295.827
294.994
294.532
294.276
294.126
294.026
293.95
293.899
293.879
293.895
293.993
294.193
294.52
295.009
295.681
296.457
297.078
301.666
299.512
297.428
295.98
295.114
294.632
294.366
294.212
294.112
294.038
293.987
293.968
293.984
294.08
294.277
294.598
295.071
295.708
296.436
297.021
301.776
299.719
297.653
296.168
295.26
294.748
294.467
294.308
294.207
294.135
294.086
294.067
294.083
294.176
294.37
294.683
295.137
295.738
296.415
296.965
301.899
299.961
297.924
296.399
295.437
294.885
294.582
294.413
294.312
294.242
294.196
294.178
294.194
294.284
294.472
294.774
295.207
295.769
296.395
296.908
302.033
300.239
298.248
296.682
295.656
295.05
294.714
294.531
294.426
294.358
294.315
294.3
294.317
294.402
294.583
294.872
295.28
295.802
296.376
296.852
302.175
300.551
298.629
297.027
295.927
295.252
294.869
294.663
294.55
294.484
294.445
294.432
294.451
294.53
294.703
294.976
295.357
295.836
296.358
296.796
302.323
300.892
299.069
297.446
296.264
295.503
295.056
294.814
294.687
294.62
294.584
294.576
294.596
294.668
294.83
295.085
295.437
295.872
296.343
296.741
302.469
301.255
299.567
297.948
296.684
295.82
295.287
294.99
294.839
294.765
294.733
294.728
294.751
294.815
294.964
295.199
295.519
295.909
296.328
296.687
302.604
301.625
300.115
298.54
297.207
296.227
295.583
295.206
295.01
294.921
294.888
294.886
294.912
294.967
295.102
295.314
295.601
295.946
296.316
296.634
302.723
301.984
300.696
299.22
297.849
296.753
295.974
295.484
295.216
295.092
295.048
295.047
295.072
295.123
295.241
295.43
295.682
295.984
296.304
296.581
302.819
302.315
301.28
299.967
298.618
297.43
296.503
295.863
295.481
295.29
295.218
295.209
295.233
295.279
295.38
295.543
295.761
296.02
296.294
296.53
302.889
302.594
301.829
300.743
299.502
298.28
297.22
296.405
295.859
295.55
295.411
295.375
295.39
295.432
295.515
295.653
295.837
296.055
296.283
296.478
302.934
302.808
302.302
301.486
300.448
299.297
298.17
297.191
296.442
295.948
295.677
295.566
295.55
295.582
295.644
295.756
295.907
296.086
296.272
296.426
302.956
302.952
302.664
302.126
301.36
300.409
299.348
298.292
297.359
296.633
296.144
295.864
295.743
295.726
295.764
295.85
295.97
296.113
296.258
296.371
302.961
303.037
302.905
302.604
302.124
301.464
300.635
299.684
298.706
297.809
297.071
296.524
296.16
295.958
295.891
295.938
296.03
296.148
296.285
296.443
302.956
303.077
303.04
302.902
302.658
302.29
301.783
301.13
300.359
299.533
298.734
298.013
297.388
296.855
296.431
296.165
296.206
296.428
297.024
299.278
302.946
303.091
303.103
303.055
302.956
302.798
302.567
302.249
301.836
301.345
300.826
300.338
299.915
299.557
299.24
298.961
298.74
299.068
300.335
300.939
302.933
303.093
303.126
303.118
303.086
303.033
302.956
302.848
302.703
302.519
302.307
302.1
301.933
301.84
301.831
301.888
301.963
302.063
302.165
302.121
302.92
303.089
303.132
303.139
303.131
303.116
303.095
303.067
303.031
302.987
302.932
302.871
302.809
302.755
302.717
302.697
302.679
302.657
302.617
302.541
302.906
303.083
303.131
303.144
303.145
303.141
303.135
303.126
303.115
303.102
303.085
303.065
303.04
303.013
302.982
302.947
302.908
302.86
302.797
302.704
302.893
303.076
303.129
303.145
303.148
303.147
303.146
303.142
303.138
303.131
303.122
303.109
303.092
303.07
303.043
303.008
302.965
302.91
302.84
302.739
302.882
303.07
303.126
303.144
303.149
303.149
303.149
303.147
303.145
303.141
303.135
303.126
303.114
303.096
303.071
303.038
302.993
302.935
302.857
302.747
302.871
303.064
303.123
303.143
303.148
303.15
303.149
303.149
303.148
303.146
303.142
303.136
303.127
303.112
303.091
303.059
303.015
302.953
302.87
302.752
302.861
303.058
303.12
303.142
303.148
303.15
303.15
303.15
303.149
303.148
303.145
303.141
303.135
303.123
303.105
303.076
303.032
302.969
302.881
302.756
302.852
303.052
303.117
303.141
303.148
303.15
303.15
303.15
303.149
303.149
303.147
303.145
303.14
303.131
303.115
303.089
303.047
302.983
302.891
302.759
302.844
303.047
303.115
303.14
303.148
303.15
303.15
303.15
303.15
303.149
303.149
303.147
303.143
303.136
303.123
303.099
303.059
302.995
302.9
302.762
302.837
303.043
303.112
303.139
303.147
303.149
303.15
303.15
303.15
303.15
303.149
303.148
303.145
303.139
303.128
303.107
303.069
303.006
302.907
302.765
302.831
303.039
303.11
303.139
303.147
303.149
303.15
303.15
303.15
303.15
303.149
303.149
303.147
303.142
303.133
303.113
303.078
303.015
302.914
302.768
302.826
303.036
303.108
303.138
303.147
303.149
303.15
303.15
303.15
303.15
303.15
303.149
303.147
303.144
303.136
303.118
303.084
303.022
302.92
302.77
302.822
303.033
303.106
303.137
303.147
303.149
303.15
303.15
303.15
303.15
303.15
303.149
303.148
303.145
303.138
303.122
303.09
303.029
302.926
302.772
302.819
303.03
303.105
303.136
303.147
303.149
303.15
303.15
303.15
303.15
303.15
303.149
303.149
303.146
303.14
303.126
303.095
303.034
302.93
302.774
302.816
303.028
303.104
303.136
303.146
303.149
303.15
303.15
303.15
303.15
303.15
303.15
303.149
303.147
303.141
303.128
303.099
303.039
302.935
302.776
302.814
303.027
303.103
303.135
303.146
303.149
303.15
303.15
303.15
303.15
303.15
303.15
303.149
303.147
303.142
303.13
303.102
303.044
302.938
302.778
302.812
303.025
303.102
303.135
303.146
303.149
303.15
303.15
303.15
303.15
303.15
303.15
303.149
303.148
303.143
303.132
303.105
303.047
302.942
302.78
302.811
303.024
303.101
303.135
303.146
303.149
303.15
303.15
303.15
303.15
303.15
303.15
303.149
303.148
303.144
303.133
303.107
303.051
302.945
302.782
302.81
303.024
303.1
303.135
303.146
303.149
303.15
303.15
303.15
303.15
303.15
303.15
303.149
303.148
303.144
303.134
303.109
303.054
302.948
302.783
302.81
303.023
303.1
303.134
303.146
303.149
303.15
303.15
303.15
303.15
303.15
303.15
303.15
303.148
303.145
303.135
303.111
303.056
302.95
302.785
302.81
303.023
303.1
303.134
303.146
303.149
303.15
303.15
303.15
303.15
303.15
303.15
303.15
303.149
303.145
303.136
303.113
303.059
302.953
302.787
302.81
303.023
303.1
303.134
303.146
303.149
303.15
303.15
303.15
303.15
303.15
303.15
303.15
303.149
303.146
303.137
303.114
303.061
302.955
302.788
302.811
303.023
303.1
303.134
303.146
303.149
303.15
303.15
303.15
303.15
303.15
303.15
303.15
303.149
303.146
303.137
303.115
303.063
302.957
302.79
302.811
303.024
303.1
303.134
303.146
303.149
303.15
303.15
303.15
303.15
303.15
303.15
303.15
303.149
303.146
303.138
303.116
303.065
302.959
302.791
302.812
303.024
303.1
303.134
303.146
303.149
303.15
303.15
303.15
303.15
303.15
303.15
303.15
303.149
303.146
303.138
303.117
303.066
302.961
302.793
302.813
303.024
303.1
303.134
303.146
303.149
303.15
303.15
303.15
303.15
303.15
303.15
303.15
303.149
303.146
303.139
303.118
303.068
302.963
302.794
302.815
303.025
303.101
303.134
303.146
303.149
303.15
303.15
303.15
303.15
303.15
303.15
303.15
303.149
303.147
303.139
303.119
303.069
302.965
302.795
302.816
303.026
303.101
303.135
303.146
303.149
303.15
303.15
303.15
303.15
303.15
303.15
303.15
303.149
303.147
303.14
303.12
303.071
302.967
302.797
302.817
303.026
303.101
303.135
303.146
303.149
303.15
303.15
303.15
303.15
303.15
303.15
303.15
303.149
303.147
303.14
303.121
303.072
302.969
302.798
302.819
303.027
303.102
303.135
303.146
303.149
303.15
303.15
303.15
303.15
303.15
303.15
303.15
303.149
303.147
303.14
303.121
303.073
302.971
302.799
302.82
303.028
303.102
303.135
303.146
303.149
303.15
303.15
303.15
303.15
303.15
303.15
303.15
303.149
303.147
303.141
303.122
303.075
302.972
302.801
302.822
303.029
303.102
303.135
303.146
303.149
303.15
303.15
303.15
303.15
303.15
303.15
303.15
303.149
303.147
303.141
303.122
303.076
302.974
302.802
302.823
303.029
303.103
303.135
303.146
303.149
303.15
303.15
303.15
303.15
303.15
303.15
303.15
303.149
303.147
303.141
303.123
303.077
302.976
302.803
302.825
303.03
303.103
303.135
303.146
303.149
303.15
303.15
303.15
303.15
303.15
303.15
303.15
303.149
303.147
303.141
303.124
303.078
302.978
302.804
302.827
303.031
303.104
303.136
303.146
303.149
303.15
303.15
303.15
303.15
303.15
303.15
303.15
303.149
303.147
303.141
303.124
303.079
302.98
302.804
302.829
303.032
303.104
303.136
303.146
303.149
303.15
303.15
303.15
303.15
303.15
303.15
303.15
303.149
303.148
303.142
303.124
303.08
302.982
302.805
302.831
303.033
303.104
303.136
303.146
303.149