/*--------------------------------*- C++ -*----------------------------------*\
  =========                 |
  \\      /  F ield         | OpenFOAM: The Open Source CFD Toolbox
   \\    /   O peration     | Website:  https://openfoam.org
    \\  /    A nd           | Version:  8
     \\/     M anipulation  |
\*---------------------------------------------------------------------------*/
FoamFile
{
    version     2.0;
    format      ascii;
    class       volScalarField;
    location    "600";
    object      p_rgh;
}
// * * * * * * * * * * * * * * * * * * * * * * * * * * * * * * * * * * * * * //

dimensions      [1 -1 -2 0 0 0 0];

internalField   nonuniform List<scalar> 
8400
(
0.438319
19.2317
35.029
50.3186
65.3816
80.4405
95.6387
111.091
126.899
143.167
159.999
177.511
195.83
215.099
235.482
257.165
280.361
305.316
332.314
361.688
393.82
429.15
468.185
511.549
560
614.316
675.186
743.538
820.63
907.863
1006.84
1119.41
1247.71
1394.19
1561.72
1753.61
1973.69
2226.44
2517.1
2851.79
3237.72
3683.39
4199.45
4799.83
5500.94
6316.9
7262.87
8399.6
9893.74
11839.6
-9.34863
4.43987
18.0678
32.1455
46.2923
60.5181
74.8889
89.4866
104.397
119.71
135.522
151.938
169.076
187.068
206.066
226.242
247.796
270.954
295.98
323.182
352.923
385.614
421.705
461.729
506.296
556.115
612.101
675.239
746.584
827.415
919.219
1023.72
1142.9
1279.05
1434.82
1613.25
1817.87
2052.72
2322.5
2632.59
2989.17
3399.34
3871.62
4416.44
5045.06
5765.84
6585.97
7536.37
8700.33
10128.6
22.2807
40.4833
56.5617
71.7966
86.9235
102.172
117.655
133.46
149.668
166.367
183.655
201.637
220.436
240.189
261.051
283.203
306.852
332.231
359.61
389.308
421.704
457.223
496.288
539.379
587.103
640.172
699.475
766.009
840.872
925.338
1020.89
1129.24
1252.35
1392.51
1552.34
1734.86
1943.55
2182.42
2456.07
2769.76
3129.49
3542.05
4015.31
4558.28
5180.12
5887.86
6687.33
7593.44
8636.78
9812.6
-14.7491
-10.4547
-0.576704
11.3927
24.0836
37.1072
50.3679
63.8701
77.6558
91.785
106.33
121.375
137.015
153.361
170.538
188.696
208.004
228.653
250.861
274.88
301.014
329.64
361.234
396.276
435.266
478.831
527.702
582.714
644.834
715.186
795.07
885.99
989.684
1108.15
1243.71
1399
1577.09
1781.45
2016.1
2285.57
2594.99
2950.16
3357.62
3824.63
4358.46
4965.23
5650.41
6423.12
7298.11
8271.76
37.746
59.3432
76.2778
91.3196
106.033
120.841
135.89
151.253
166.991
183.166
199.853
217.133
235.103
253.872
273.565
294.331
316.343
339.783
364.856
391.793
420.849
452.329
486.628
524.212
565.589
611.347
662.162
718.805
782.161
853.251
933.249
1023.51
1125.58
1241.24
1372.53
1521.78
1691.62
1885.05
2105.42
2356.47
2642.32
2967.45
3336.63
3754.8
4226.47
4754.83
5341.43
5988.26
6701.58
7480.04
-23.0284
-22.7255
-14.7146
-3.87305
7.93056
20.1541
32.6428
45.3684
58.3483
71.6205
85.2361
99.2571
113.755
128.813
144.527
161.012
178.408
196.892
216.655
237.908
260.883
285.841
313.092
343.005
376.005
412.588
453.325
498.878
550.01
607.602
672.673
746.398
830.128
925.419
1034.05
1158.07
1299.78
1461.8
1647.09
1858.89
2100.79
2376.61
2690.36
3046.03
3447.18
3896.15
4393.09
4937.03
5530.04
6172.76
45.0414
68.9199
86.1178
100.619
114.505
128.347
142.331
156.528
170.98
185.727
200.812
216.287
232.213
248.657
265.689
283.396
301.87
321.234
341.64
363.262
386.294
410.954
437.501
466.229
497.48
531.646
569.179
610.602
656.514
707.609
764.682
828.652
900.574
981.655
1073.28
1177.01
1294.65
1428.19
1579.89
1752.21
1947.85
2169.65
2420.55
2703.45
3020.9
3374.5
3764.01
4188.06
4648.21
5146.92
-27.5639
-29.1215
-21.9906
-11.7083
-0.394256
11.3437
23.3283
35.5174
47.9128
60.5339
73.4107
86.5842
100.103
114.029
128.426
143.366
158.931
175.21
192.315
210.371
229.526
249.948
271.834
295.41
320.94
348.727
379.121
412.525
449.404
490.293
535.81
586.663
643.668
707.757
779.994
861.591
953.917
1058.51
1177.07
1311.48
1463.74
1635.98
1830.33
2048.86
2293.4
2564.99
2863.28
3187.1
3537.86
3918.83
47.2813
71.5355
88.2456
101.894
114.742
127.417
140.109
152.878
165.747
178.728
191.833
205.077
218.479
232.068
245.878
259.951
274.331
289.075
304.244
319.915
336.172
353.116
370.862
389.546
409.326
430.384
452.932
477.217
503.525
532.187
563.588
598.171
636.451
679.02
726.56
779.852
839.784
907.366
983.73
1070.13
1167.94
1278.63
1403.71
1544.72
1703.08
1879.8
2074.99
2288.35
2521.71
2778.97
-28.6972
-30.9819
-24.3966
-14.6145
-3.81743
7.36392
18.7376
30.2464
41.8756
53.625
65.5002
77.5084
89.6602
101.969
114.454
127.132
140.028
153.168
166.583
180.308
194.383
208.855
223.775
239.204
255.21
271.872
289.279
307.533
326.751
347.069
368.641
391.648
416.295
442.824
471.511
502.679
536.703
574.015
615.119
660.593
711.098
767.387
830.305
900.8
979.906
1068.59
1167.54
1277.53
1401.03
1542.65
46.3416
69.9142
85.8306
98.6395
110.585
122.276
133.89
145.466
157.008
168.504
179.941
191.306
202.584
213.762
224.824
235.755
246.538
257.154
267.584
277.804
287.79
297.514
306.944
316.045
324.781
333.106
340.974
348.332
355.119
361.273
366.72
371.385
375.184
378.03
379.832
380.5
379.946
378.097
374.901
370.342
364.466
357.408
349.439
341.031
332.916
326.121
322.009
322.558
331.236
353.314
-27.5218
-29.9479
-23.8764
-14.7755
-4.75192
5.57119
15.9897
26.4271
36.8453
47.2175
57.5197
67.7278
77.8162
87.7573
97.5203
107.07
116.368
125.366
134.014
142.249
150
157.186
163.711
169.463
174.315
178.115
180.692
181.845
181.342
178.917
174.261
167.022
156.798
143.13
125.503
103.337
75.9899
42.7644
2.91443
-44.3318
-99.7374
-163.998
-237.648
-320.942
-413.703
-515.128
-623.5
-735.867
-847.68
-951.698
42.9585
65.1715
80.2268
92.3998
103.757
114.845
125.803
136.652
147.369
157.922
168.274
178.382
188.2
197.676
206.751
215.359
223.424
230.858
237.562
243.42
248.3
252.048
254.487
255.414
254.595
251.757
246.588
238.728
227.763
213.217
194.544
171.117
142.224
107.053
64.6875
14.0954
-45.8712
-116.475
-199.084
-295.142
-406.129
-533.481
-678.451
-841.929
-1024.22
-1224.74
-1441.45
-1670.23
-1904.52
-2135.14
-23.9407
-25.8965
-20.2204
-11.8638
-2.73399
6.5797
15.8649
25.0253
33.9994
42.7347
51.179
59.2764
66.9651
74.1761
80.8309
86.8403
92.1019
96.4983
99.8943
102.134
103.039
102.4
99.9802
95.5027
88.6491
79.052
66.2868
49.8642
29.2195
3.70198
-27.4375
-65.0607
-110.157
-163.858
-227.459
-302.432
-390.44
-493.353
-613.243
-752.381
-913.204
-1098.25
-1310.01
-1550.69
-1821.94
-2124.49
-2457.42
-2816.89
-3195.02
-3577.66
36.2338
56.2169
70.2027
81.83
92.7865
103.493
114.039
124.416
134.584
144.494
154.088
163.304
172.067
180.298
187.901
194.77
200.778
205.784
209.619
212.092
212.979
212.021
208.919
203.323
194.832
182.978
167.219
146.927
121.376
89.7238
50.9961
4.06755
-52.3614
-119.788
-199.935
-294.775
-406.561
-537.847
-691.504
-870.719
-1078.98
-1320.01
-1597.62
-1915.34
-2276.01
-2681.43
-3131.72
-3623.12
-4144.45
-4675.26
-17.1419
-17.3849
-11.4325
-3.38719
5.19807
13.8168
22.27
30.4542
38.2936
45.7172
52.6501
59.0102
64.7047
69.6283
73.6606
76.6636
78.4787
78.9236
77.7884
74.831
69.7724
62.2908
52.0145
38.5148
21.2963
-0.212762
-26.6731
-58.8477
-97.6179
-144.001
-199.173
-264.49
-341.516
-432.053
-538.176
-662.268
-807.059
-975.666
-1171.63
-1398.93
-1662.01
-1965.81
-2315.62
-2716.79
-3174.16
-3692.1
-4275.03
-4925.11
-5633.45
-6369.06
23.7229
40.9064
53.6189
64.7155
75.2788
85.5706
95.6332
105.442
114.95
124.097
132.817
141.029
148.643
155.555
161.644
166.771
170.774
173.465
174.629
174.013
171.328
166.236
158.345
147.202
132.281
112.972
88.5676
58.2464
21.0562
-24.1085
-78.5305
-143.699
-221.345
-313.475
-422.424
-550.902
-702.058
-879.551
-1087.62
-1331.17
-1615.86
-1948.24
-2335.84
-2786.93
-3309.75
-3912.7
-4606.71
-5403.47
-6296.44
-7235.04
-8.95385
-4.59823
3.17061
11.9372
20.781
29.4259
37.758
45.7046
53.1979
60.1645
66.5202
72.1686
76.9985
80.8816
83.6702
85.1937
85.2556
83.629
80.0518
74.2214
65.788
54.3473
39.4313
20.499
-3.07649
-32.0208
-67.1749
-109.514
-160.168
-220.45
-291.885
-376.244
-475.588
-592.317
-729.23
-889.589
-1077.21
-1296.56
-1552.87
-1852.25
-2201.84
-2610.05
-3086.87
-3643.8
-4292.64
-5044.77
-5915.61
-6930.43
-8102.26
-9367.09
1.79685
20.5597
32.6455
43.3925
53.508
63.2359
72.6195
81.6399
90.2517
98.393
105.988
112.947
119.165
124.519
128.869
132.049
133.869
134.11
132.516
128.792
122.598
113.536
101.15
84.9088
64.1973
38.3031
6.40038
-32.4686
-79.4147
-135.727
-202.904
-282.685
-377.094
-488.487
-619.612
-773.677
-954.435
-1166.29
-1414.44
-1704.97
-2045.08
-2443.34
-2910.39
-3459.31
-4104.14
-4857.63
-5739.19
-6802.69
-8134.08
-9708.1
-1.15831
8.47571
18.2341
27.9849
37.4673
46.6207
55.4063
63.781
71.69
79.0652
85.8247
91.8715
97.0924
101.355
104.508
106.373
106.746
105.391
102.033
96.3555
87.9926
76.5194
61.4446
42.1986
18.1215
-11.552
-47.7098
-91.3824
-143.767
-206.256
-280.47
-368.296
-471.939
-593.976
-737.431
-905.858
-1103.45
-1335.2
-1607.07
-1926.21
-2301.28
-2742.97
-3265.16
-3886.19
-4627.96
-5513.16
-6577.4
-7924.75
-9764.6
-12141.5
29234.8
21072.7
17039.7
15521.3
14686.9
14078.1
13654.4
13370.1
13169.9
13018.9
12899.2
12801
12717.7
12645
12579.7
12519.7
12463.4
12409.8
12357.7
12306.5
12255.5
12204
12151.4
12097.1
12040.3
11980.5
11916.8
11848.4
11774.2
11693
11603.6
11504.5
11393.8
11269.6
11129.5
10970.4
10788.9
10581.1
10342
10065.9
9745.41
9372.06
8935.14
8421.16
7812.62
7086.07
6208.54
5130.8
3772.42
1996.73
3699.86
8289.07
9790.8
10357.1
10791.4
11117
11341.4
11501.5
11620.3
11709.1
11775.2
11823.9
11859.3
11883.9
11899.7
11908.3
11910.5
11907.3
11899.2
11886.5
11869.4
11848.1
11822.5
11792.4
11757.7
11718
11672.7
11621.2
11562.8
11496.3
11420.6
11334.2
11235.5
11122.5
10992.8
10843.8
10672.3
10474.2
10245.1
9979.52
9670.72
9310.57
8889.08
8393.92
7809.65
7116.71
6290.14
5298.44
4104.07
2673.15
11029.3
13199.4
14382.5
14485.2
14328.5
14156.9
13970.6
13779.4
13601
13441.9
13301.1
13176.2
13064.7
12964.5
12873.5
12789.9
12712.4
12639.6
12570.4
12504
12439.3
12375.8
12312.5
12248.8
12184
12117.2
12047.7
11974.6
11897
11813.7
11723.6
11625.1
11516.5
11395.8
11260.5
11108.1
10935.5
10738.9
10514.1
10255.7
9957.86
9613.22
9213.11
8747.17
8203
7565.89
6818.84
5943.3
4922.04
3746.8
11378
11787
11978.5
11906.9
11804.7
11761.3
11749.7
11747.4
11751.7
11761.6
11774.2
11787
11798.4
11807.5
11813.9
11817.3
11817.5
11814.4
11807.9
11798
11784.7
11767.9
11747.4
11722.9
11694.3
11661
11622.6
11578.4
11527.9
11470.1
11404.3
11329.1
11243.2
11144.9
11032.3
10902.9
10754
10582.3
10384.1
10154.8
9889.21
9581.29
9223.93
8808.95
8327.14
7768.47
7122.75
6381.3
5540.25
4606.41
11917
12166.1
12482.7
12714.4
12854.3
12943.6
12995.9
13014.8
13008.5
12985.5
12951.8
12910.8
12865.2
12816.7
12766.4
12715.1
12663.3
12611.2
12558.9
12506.2
12453.2
12399.6
12345.1
12289.4
12232.2
12173.1
12111.3
12046.2
11977.1
11903
11823
11735.9
11640.5
11535.1
11418
11287
11139.8
10973.4
10784.6
10569.6
10324
10043
9720.8
9351.4
8928.24
8444.85
7895.6
7277.15
6590.85
5845.5
12120.7
12206.3
12314.5
12376.5
12379.2
12351.1
12312.6
12270.4
12227.2
12186
12148
12113.6
12082.4
12053.7
12027.1
12002
11977.8
11954.1
11930.4
11906.3
11881.5
11855.5
11828
11798.7
11767.1
11732.8
11695.4
11654.4
11609.2
11559
11503
11440.3
11369.8
11290.3
11200.1
11097.6
10980.9
10847.5
10694.9
10520
10319.4
10089.5
9825.96
9524.67
9181.35
8792.29
8355.02
7869.5
7339.74
6775.29
12233.9
12278.2
12350
12422.2
12477.5
12518.4
12550
12573
12587.1
12592.9
12591.7
12584.5
12572
12555.1
12534.3
12510.3
12483.4
12454.1
12422.6
12389.1
12353.8
12316.8
12278
12237.4
12194.7
12149.8
12102.4
12052.3
11998.9
11941.9
11880.4
11813.9
11741.5
11662.3
11574.9
11478.2
11370.5
11250.1
11115
10962.9
10791.3
10597.5
10378.6
10131.8
9854.61
9544.98
9202.21
8827.52
8425.08
8002.19
12292.4
12314.6
12352.4
12392.3
12420.5
12433.4
12433.6
12423.6
12405.6
12381.5
12353.3
12322.7
12290.7
12258.1
12225.4
12193
12161
12129.3
12098.1
12067.2
12036.3
12005.5
11974.4
11942.8
11910.5
11877.1
11842.4
11806.1
11767.6
11726.6
11682.6
11634.9
11583
11526
11463.2
11393.5
11315.9
11229.1
11131.7
11022.2
10898.9
10760.1
10604.1
10429.1
10234
10018
9781.47
9526.2
9256.16
8977.5
12323.8
12337.4
12362.5
12393.1
12420.6
12440.9
12454.1
12461.2
12463.1
12460.3
12453.4
12443.2
12430
12414.4
12396.6
12376.9
12355.5
12332.6
12308.3
12282.7
12256
12228.1
12199.2
12169.2
12138
12105.7
12072.2
12037.3
12000.8
11962.7
11922.5
11880.1
11835.1
11787.1
11735.6
11680.1
11620
11554.5
11483
11404.6
11318.4
11223.6
11119.3
11004.9
10880
10744.6
10599.5
10446.4
10288.2
10128.8
12337.9
12348
12367.2
12391.8
12414.7
12431.4
12440.6
12442.8
12438.7
12429
12414.7
12396.7
12376
12353.3
12329.1
12303.8
12277.9
12251.5
12224.8
12198
12171.1
12144.1
12117.1
12090.1
12063
12035.8
12008.5
11980.9
11953.1
11924.9
11896.2
11867
11837.1
11806.4
11774.8
11742
11708
11672.5
11635.4
11596.5
11555.8
11513
11468.2
11421.6
11373.4
11324.2
11275.1
11227.3
11183
11144.6
12339.1
12349.2
12368.5
12393.1
12416.1
12433
12442.4
12444.9
12441
12431.6
12417.7
12400.3
12380.2
12358.1
12334.8
12310.5
12285.7
12260.6
12235.5
12210.5
12185.7
12161.2
12137.1
12113.5
12090.3
12067.7
12045.6
12024.2
12003.5
11983.6
11964.6
11946.7
11929.9
11914.4
11900.5
11888.3
11878.2
11870.5
11865.6
11864
11866.3
11873
11885
11903
11928
11961
12002.8
12054.6
12117.2
12191.3
12327.3
12341
12366.2
12397.1
12424.9
12445.6
12459.4
12467.2
12469.9
12468
12462.3
12453.5
12442
12428.2
12412.7
12395.6
12377.2
12357.9
12337.8
12317.1
12296.1
12275
12254
12233.2
12212.9
12193.3
12174.6
12157.1
12140.9
12126.5
12114.2
12104.2
12097.2
12093.4
12093.6
12098.4
12108.5
12124.7
12148.2
12179.9
12221.1
12273.2
12337.6
12415.9
12509.6
12620
12748.2
12894.7
13059.5
13241.6
12298.1
12320.5
12358.5
12398.8
12427.5
12441.2
12442.2
12433.4
12416.8
12394.3
12368.2
12339.9
12310.7
12281.3
12252.5
12224.6
12197.8
12172.4
12148.4
12125.9
12104.9
12085.6
12068
12052.1
12038.1
12026.1
12016.4
12009.1
12004.6
12003.1
12005.3
12011.5
12022.4
12038.7
12061.3
12091.2
12129.4
12177.4
12236.7
12308.9
12395.9
12499.9
12623
12767.6
12935.8
13129.5
13350
13597.8
13871.9
14170.2
12241.7
12286.3
12358.3
12431.1
12487.2
12529
12561.9
12586.4
12602.3
12610.3
12611.7
12607.6
12598.7
12586.1
12570.4
12552.3
12532.4
12511.2
12489.3
12467
12444.8
12423
12402
12382.3
12364.1
12347.8
12334
12323
12315.5
12311.9
12313.1
12319.7
12332.7
12353.2
12382.2
12421.2
12471.8
12535.7
12615
12712.1
12829.5
12970.1
13136.9
13333
13561.4
13824.9
14125.1
14462.5
14835.3
15239.6
12130.5
12216.3
12324.8
12387.5
12391.1
12364.2
12327.4
12287
12246.2
12207.8
12173.2
12142.8
12116.2
12093
12072.8
12055.3
12039.9
12026.6
12015
12005.1
11996.8
11990.2
11985.4
11982.6
11982
11983.9
11988.8
11997
12009.3
12026.1
12048.5
12077.2
12113.3
12158.1
12213.1
12280
12360.7
12457.4
12572.8
12709.7
12871.5
13061.7
13284.4
13543.7
13843.8
14188.6
14581.1
15022.7
15511.8
16044.3
11928.5
12177.8
12494.8
12727.3
12868.3
12959
13013.1
13034.3
13030.5
13010.8
12980.8
12944.5
12904.2
12862
12819.2
12776.7
12735.1
12695
12656.8
12620.6
12586.9
12555.8
12527.6
12502.6
12481.3
12463.8
12450.9
12442.8
12440.5
12444.5
12455.8
12475.4
12504.6
12544.8
12597.8
12665.4
12749.9
12854
12980.6
13133.4
13316.1
13533.3
13789.9
14091.3
14443
14850.6
15318.7
15850.4
16444.8
17096.4
11390.8
11800.1
11992.1
11921.3
11820.3
11778.5
11768.9
11769.2
11776.5
11790
11807
11824.9
11842.3
11858.6
11873.4
11886.6
11898.2
11908.6
11917.8
11926.4
11934.6
11943
11951.9
11961.8
11973.4
11987.2
12004
12024.4
12049.3
12079.7
12116.8
12161.9
12216.3
12281.8
12360.4
12454.3
12566.2
12699.1
12856.5
13042.4
13261.5
13519
13821
14174.3
14586.3
15064.8
15617.8
16251.9
16970.3
17771.3
11043.2
13213.5
14397.2
14500.8
14345.5
14175.5
13991.4
13802.9
13627.9
13472.8
13336.7
13217.4
13112.5
13020.1
12938.2
12865.4
12800.4
12742.3
12690.3
12644
12602.9
12566.9
12535.8
12509.8
12488.9
12473.5
12463.9
12460.8
12464.7
12476.7
12497.6
12528.8
12571.6
12627.9
12699.6
12789.1
12899.3
13033.3
13195
13388.9
13620.1
13894.6
14219.4
14602.8
15054.2
15584.2
16204.8
16928.3
17764.8
18719.6
3714.46
8303.93
9806.24
10373.5
10809.1
11136.5
11363.1
11526
11648.3
11741.2
11812.2
11866.7
11908.9
11941.5
11966.9
11986.5
12001.8
12013.9
12023.6
12031.7
12039.1
12046.4
12054.2
12063.3
12074.3
12088
12105.1
12126.6
12153.5
12186.8
12227.9
12278.2
12339.4
12413.4
12502.5
12609.2
12736.7
12888.3
13068.3
13281.4
13533.3
13830.5
14181
14594.1
15081.2
15656
16335.4
17139.9
18093.3
19221.6
29249.7
21087.8
17055.5
15538
14705
14098.2
13677
13395.6
13199
13052.2
12937.5
12845.4
12769.2
12704.9
12649.4
12600.9
12558.1
12520.3
12486.7
12457.2
12431.4
12409.5
12391.5
12377.6
12368.1
12363.5
12364.3
12371.2
12385.1
12406.9
12437.8
12479.2
12532.6
12600.1
12683.9
12786.4
12911
13061
13240.7
13455.2
13710.1
14012.5
14370.8
14795.1
15298.2
15896.1
16610.7
17472.7
18529
19861.8
-20153.9
-15538.2
-13967.3
-10009
-8042
-4623.91
-2522.03
533.685
2639.06
5448.34
7479.63
10123.7
12022.9
14571
16278.9
18802.7
20235.2
22819.5
23820.6
26454.8
-20083.8
-15480.2
-13918.3
-9961.1
-8000.06
-4579.58
-2482.47
576.353
2678.26
5490.65
7519.4
10167
12064.5
14617.4
16325.1
18856.8
20293
22893.2
23909.1
26582.9
-20021.9
-15420.2
-13866.9
-9909.97
-7954.78
-4532.38
-2439.55
621.977
2720.77
5536.26
7562.83
10214.2
12110.5
14668.3
16376.9
18915.7
20356.5
22968.3
23994.9
26687.1
-19964.5
-15360.8
-13814.5
-9856.86
-7907.11
-4482.76
-2394.01
670.183
2765.97
5584.62
7609.17
10264.3
12159.8
14722.3
16431.8
18976.7
20421.5
23041.3
24073.9
26774.7
-19909.3
-15302.2
-13761.4
-9802.43
-7857.69
-4431.18
-2346.36
720.555
2813.42
5635.24
7657.81
10316.6
12211.3
14778.2
16488.2
19038.4
20485.7
23111.1
24146.6
26852.7
-19855.1
-15243.9
-13708
-9747.06
-7806.95
-4378.06
-2297.02
772.68
2862.66
5687.64
7708.22
10370.6
12264.2
14835.1
16545.4
19099.9
20548.4
23178
24214.4
26924.6
-19801.4
-15185.8
-13654.2
-9690.96
-7755.18
-4323.73
-2246.35
826.193
2913.31
5741.4
7759.91
10425.7
12318.1
14892.5
16602.6
19160.6
20609.4
23242.3
24278.5
26992.1
-19747.8
-15127.7
-13600
-9634.27
-7702.62
-4268.45
-2194.64
880.777
2965.03
5796.15
7812.52
10481.5
12372.4
14950.1
16659.5
19220.5
20668.8
23304.4
24339.9
27056.4
-19694.3
-15069.4
-13545.5
-9577.09
-7649.41
-4212.43
-2142.13
936.171
3017.55
5851.6
7865.73
10537.7
12427
15007.5
16715.9
19279.5
20726.8
23364.7
24399.1
27118.5
-19640.5
-15010.9
-13490.7
-9519.5
-7595.71
-4155.84
-2089.01
992.16
3070.64
5907.53
7919.33
10594.1
12481.5
15064.7
16771.7
19337.6
20783.7
23423.5
24456.5
27178.6
-19586.7
-14952.3
-13435.7
-9461.57
-7541.61
-4098.82
-2035.45
1048.57
3124.11
5963.75
7973.13
10650.5
12536
15121.6
16826.9
19395
20839.4
23481.1
24512.5
27237.4
-19532.6
-14893.4
-13380.4
-9403.36
-7487.22
-4041.48
-1981.57
1105.27
3177.84
6020.13
8027.01
10706.8
12590.3
15178.1
16881.6
19451.6
20894.3
23537.6
24567.4
27294.9
-19478.4
-14834.4
-13325
-9344.94
-7432.6
-3983.92
-1927.47
1162.14
3231.71
6076.56
8080.88
10763
12644.3
15234.1
16935.7
19507.6
20948.4
23593.3
24621.3
27351.5
-19424.1
-14775.2
-13269.4
-9286.37
-7377.84
-3926.21
-1873.24
1219.09
3285.64
6132.97
8134.67
10819
12698.1
15289.8
16989.4
19563
21001.7
23648.2
24674.4
27407.3
-19369.6
-14715.8
-13213.7
-9227.68
-7322.98
-3868.43
-1818.94
1276.07
3339.57
6189.28
8188.33
10874.8
12751.5
15345.2
17042.6
19617.8
21054.5
23702.4
24726.8
27462.3
-19315.1
-14656.5
-13158
-9168.94
-7268.07
-3810.61
-1764.64
1333
3393.43
6245.47
8241.84
10930.4
12804.7
15400.1
17095.3
19672.1
21106.7
23756.1
24778.6
27516.7
-19260.6
-14597
-13102.3
-9110.17
-7213.17
-3752.82
-1710.36
1389.86
3447.2
6301.49
8295.15
10985.6
12857.6
15454.7
17147.7
19726
21158.4
23809.2
24829.8
27570.6
-19206.1
-14537.6
-13046.5
-9051.42
-7158.3
-3695.08
-1656.16
1446.6
3500.85
6357.32
8348.27
11040.6
12910.1
15508.9
17199.6
19779.5
21209.6
23861.8
24880.6
27624
-19151.6
-14478.1
-12990.9
-8992.72
-7103.51
-3637.43
-1602.06
1503.2
3554.34
6412.94
8401.18
11095.4
12962.4
15562.8
17251.2
19832.5
21260.5
23914
24930.8
27676.9
-19097.2
-14418.8
-12935.3
-8934.1
-7048.81
-3579.9
-1548.08
1559.63
3607.67
6468.34
8453.86
11149.8
13014.4
15616.3
17302.5
19885.2
21310.9
23965.8
24980.7
27729.5
-19042.9
-14359.5
-12879.8
-8875.59
-6994.23
-3522.51
-1494.24
1615.87
3660.82
6523.5
8506.32
11203.9
13066.2
15669.5
17353.4
19937.5
21361
24017.3
25030.2
27781.6
-18988.7
-14300.3
-12824.5
-8817.2
-6939.79
-3465.29
-1440.57
1671.91
3713.78
6578.42
8558.54
11257.8
13117.6
15722.4
17404
19989.5
21410.8
24068.3
25079.3
27833.5
-18934.6
-14241.2
-12769.3
-8758.96
-6885.5
-3408.24
-1387.07
1727.74
3766.54
6633.09
8610.54
11311.4
13168.8
15775
17454.4
20041.1
21460.2
24119.1
25128.1
27885
-18880.7
-14182.2
-12714.2
-8700.88
-6831.4
-3351.38
-1333.76
1783.34
3819.09
6687.5
8662.3
11364.7
13219.8
15827.3
17504.4
20092.5
21509.3
24169.5
25176.5
27936.1
-18827
-14123.5
-12659.4
-8642.98
-6777.47
-3294.73
-1280.65
1838.72
3871.43
6741.65
8713.83
11417.7
13270.4
15879.3
17554.1
20143.5
21558.1
24219.6
25224.6
27987
-18773.5
-14064.8
-12604.7
-8585.27
-6723.75
-3238.29
-1227.74
1893.85
3923.54
6795.54
8765.12
11470.5
13320.8
15931
17603.6
20194.2
21606.6
24269.4
25272.5
28037.6
-18720.1
-14006.4
-12550.3
-8527.76
-6670.23
-3182.08
-1175.04
1948.73
3975.44
6849.16
8816.17
11522.9
13371
15982.3
17652.8
20244.6
21654.8
24319
25320
28087.9
-18667
-13948.2
-12496.1
-8470.47
-6616.93
-3126.11
-1122.56
2003.35
4027.11
6902.5
8866.99
11575.1
13420.9
16033.5
17701.7
20294.8
21702.7
24368.2
25367.2
28137.9
-18614.1
-13890.2
-12442.1
-8413.4
-6563.85
-3070.37
-1070.3
2057.72
4078.56
6955.58
8917.57
11627
13470.6
16084.3
17750.4
20344.6
21750.4
24417.1
25414.2
28187.7
-18561.5
-13832.4
-12388.3
-8356.57
-6511
-3014.88
-1018.27
2111.83
4129.77
7008.37
8967.91
11678.6
13520
16134.8
17798.8
20394.2
21797.8
24465.8
25460.9
28237.2
-18509.1
-13774.8
-12334.8
-8299.97
-6458.38
-2959.65
-966.474
2165.66
4180.75
7060.89
9018.02
11729.9
13569.1
16185
17847
20443.5
21845
24514.2
25507.3
28286.4
-18456.9
-13717.4
-12281.5
-8243.61
-6406
-2904.68
-914.91
2219.23
4231.5
7113.13
9067.89
11780.9
13618.1
16235
17894.9
20492.5
21891.8
24562.4
25553.4
28335.4
-18405
-13660.3
-12228.5
-8187.51
-6353.87
-2849.96
-863.584
2272.51
4282.01
7165.08
9117.52
11831.7
13666.7
16284.7
17942.5
20541.2
21938.5
24610.3
25599.3
28384.1
-18353.3
-13603.4
-12175.7
-8131.66
-6301.98
-2795.52
-812.497
2325.52
4332.28
7216.75
9166.91
11882.1
13715.2
16334.1
17989.9
20589.7
21984.8
24657.9
25644.9
28432.5
-18302
-13546.8
-12123.2
-8076.06
-6250.34
-2741.35
-761.652
2378.25
4382.32
7268.12
9216.07
11932.3
13763.4
16383.2
18037.1
20637.8
22030.9
24705.2
25690.2
28480.7
-18250.8
-13490.4
-12071
-8020.73
-6198.96
-2687.45
-711.051
2430.69
4432.12
7319.21
9264.98
11982.2
13811.3
16432
18084
20685.8
22076.8
24752.3
25735.3
28528.7
-18200
-13434.3
-12019
-7965.67
-6147.83
-2633.84
-660.696
2482.84
4481.68
7370
9313.66
12031.7
13859
16480.6
18130.7
20733.4
22122.3
24799.2
25780.1
28576.4
-18149.4
-13378.4
-11967.3
-7910.88
-6096.96
-2580.5
-610.588
2534.7
4530.99
7420.5
9362.09
12081
13906.5
16528.8
18177.1
20780.7
22167.7
24845.7
25824.6
28623.8
-18099.1
-13322.8
-11915.8
-7856.36
-6046.35
-2527.45
-560.728
2586.27
4580.07
7470.71
9410.29
12130
13953.7
16576.8
18223.2
20827.8
22212.8
24892
25868.9
28671.1
-18049.1
-13267.5
-11864.7
-7802.12
-5995.99
-2474.69
-511.118
2637.55
4628.9
7520.61
9458.25
12178.7
14000.7
16624.5
18269.1
20874.6
22257.6
24938.1
25912.9
28718
-17999.4
-13212.4
-11813.8
-7748.16
-5945.91
-2422.22
-461.758
2688.52
4677.49
7570.22
9505.97
12227.1
14047.5
16671.8
18314.8
20921.2
22302.1
24983.8
25956.7
28764.7
-17950
-13157.6
-11763.2
-7694.48
-5896.08
-2370.04
-412.65
2739.2
4725.84
7619.52
9553.44
12275.2
14094
16718.9
18360.2
20967.4
22346.5
25029.4
26000.1
28811.2
-17900.8
-13103.1
-11712.9
-7641.08
-5846.53
-2318.15
-363.794
2789.57
4773.94
7668.52
9600.68
12323
14140.2
16765.8
18405.4
21013.4
22390.5
25074.6
26043.4
28857.4
-17852
-13048.8
-11662.9
-7587.97
-5797.23
-2266.57
-315.191
2839.64
4821.8
7717.21
9647.68
12370.5
14186.2
16812.3
18450.3
21059.1
22434.3
25119.6
26086.3
28903.3
-17803.4
-12994.8
-11613.1
-7535.15
-5748.21
-2215.28
-266.841
2889.4
4869.41
7765.59
9694.43
12417.7
14232
16858.5
18495
21104.5
22477.9
25164.3
26129
28949
-17755.1
-12941.1
-11563.7
-7482.62
-5699.45
-2164.3
-218.745
2938.85
4916.78
7813.66
9740.94
12464.6
14277.5
16904.4
18539.4
21149.6
22521.2
25208.8
26171.4
28994.4
-17707.1
-12887.7
-11514.5
-7430.38
-5650.97
-2113.62
-170.904
2987.99
4963.91
7861.42
9787.22
12511.2
14322.8
16950.1
18583.6
21194.5
22564.2
25253
26213.6
29039.6
-17659.4
-12834.5
-11465.6
-7378.44
-5602.75
-2063.25
-123.318
3036.81
5010.78
7908.86
9833.25
12557.5
14367.9
16995.4
18627.5
21239
22607
25296.9
26255.5
29084.6
-17612.1
-12781.7
-11417
-7326.79
-5554.8
-2013.19
-75.9866
3085.32
5057.42
7955.99
9879.03
12603.5
14412.7
17040.4
18671.2
21283.3
22649.5
25340.5
26297.1
29129.3
-17565
-12729.1
-11368.7
-7275.45
-5507.12
-1963.43
-28.9108
3133.51
5103.81
8002.8
9924.58
12649.1
14457.2
17085.1
18714.6
21327.3
22691.7
25383.9
26338.4
29173.7
-17518.2
-12676.8
-11320.7
-7224.4
-5459.72
-1914
17.9095
3181.39
5149.95
8049.28
9969.89
12694.5
14501.5
17129.6
18757.8
21371
22733.7
25427.1
26379.5
29217.9
-17471.7
-12624.8
-11273
-7173.66
-5412.59
-1864.87
64.474
3228.94
5195.84
8095.45
10015
12739.5
14545.6
17173.7
18800.8
21414.4
22775.5
25469.9
26420.3
29261.8
-17425.5
-12573
-11225.6
-7123.22
-5365.72
-1816.06
110.783
3276.16
5241.5
8141.29
10059.8
12784.2
14589.4
17217.5
18843.4
21457.6
22817
25512.5
26460.9
29305.4
-17379.6
-12521.6
-11178.4
-7073.09
-5319.13
-1767.57
156.836
3323.06
5286.9
8186.81
10104.4
12828.6
14633
17261
18885.9
21500.4
22858.2
25554.8
26501.1
29348.8
-17334
-12470.5
-11131.6
-7023.26
-5272.82
-1719.41
202.633
3369.63
5332.06
8232
10148.7
12872.6
14676.3
17304.2
18928
21543
22899.2
25596.8
26541.1
29392
-17288.7
-12419.6
-11085
-6973.74
-5226.77
-1671.56
248.175
3415.87
5376.97
8276.86
10192.8
12916.4
14719.4
17347.1
18970
21585.2
22939.9
25638.6
26580.9
29434.8
-17243.7
-12369
-11038.8
-6924.54
-5181
-1624.04
293.461
3461.78
5421.64
8321.38
10236.6
12959.8
14762.3
17389.7
19011.6
21627.2
22980.3
25680.1
26620.3
29477.5
-17199
-12318.8
-10992.8
-6875.65
-5135.5
-1576.85
338.491
3507.36
5466.07
8365.57
10280.3
13002.9
14804.9
17432
19053
21668.9
23020.5
25721.3
26659.5
29519.8
-17154.7
-12268.8
-10947.1
-6827.07
-5090.27
-1529.99
383.267
3552.6
5510.25
8409.43
10323.6
13045.6
14847.2
17474
19094.2
21710.2
23060.4
25762.2
26698.4
29561.9
-17110.6
-12219.1
-10901.8
-6778.81
-5045.32
-1483.45
427.787
3597.5
5554.18
8452.95
10366.8
13088.1
14889.3
17515.6
19135.1
21751.3
23100
25802.9
26737
29603.7
-17066.8
-12169.8
-10856.7
-6730.87
-5000.63
-1437.25
472.053
3642.06
5597.87
8496.13
10409.6
13130.2
14931.2
17557
19175.8
21792.1
23139.4
25843.2
26775.4
29645.3
-17023.4
-12120.7
-10811.9
-6683.24
-4956.22
-1391.39
516.065
3686.28
5641.32
8538.97
10452.3
13172
14972.8
17598
19216.2
21832.6
23178.5
25883.3
26813.4
29686.6
-16980.2
-12071.9
-10767.4
-6635.94
-4912.08
-1345.86
559.823
3730.15
5684.52
8581.47
10494.7
13213.4
15014.2
17638.7
19256.3
21872.8
23217.4
25923.2
26851.2
29727.6
-16937.4
-12023.4
-10723.2
-6588.96
-4868.21
-1300.67
603.328
3773.68
5727.48
8623.62
10536.9
13254.5
15055.3
17679.1
19296.2
21912.7
23256
25962.7
26888.8
29768.4
-16894.8
-11975.3
-10679.3
-6542.31
-4824.62
-1255.82
646.58
3816.86
5770.2
8665.43
10578.8
13295.3
15096.2
17719.1
19335.9
21952.2
23294.3
26002
26926
29808.9
-16852.6
-11927.4
-10635.8
-6495.98
-4781.29
-1211.31
689.58
3859.69
5812.67
8706.89
10620.5
13335.7
15136.9
17758.8
19375.3
21991.5
23332.4
26040.9
26962.9
29849.2
-16810.7
-11879.8
-10592.4
-6449.98
-4738.24
-1167.15
732.329
3902.17
5854.9
8748
10661.9
13375.8
15177.2
17798.3
19414.4
22030.5
23370.2
26079.6
26999.6
29889.1
-16769.1
-11832.6
-10549.4
-6404.31
-4695.45
-1123.34
774.827
3944.29
5896.9
8788.75
10703.1
13415.6
15217.4
17837.4
19453.3
22069.2
23407.7
26118
27036
29928.8
-16727.7
-11785.6
-10506.7
-6358.97
-4652.93
-1079.87
817.074
3986.06
5938.65
8829.16
10744.1
13455
15257.3
17876.1
19491.9
22107.6
23444.9
26156.2
27072.1
29968.3
-16686.7
-11739
-10464.3
-6313.97
-4610.68
-1036.76
859.072
4027.47
5980.16
8869.2
10784.8
13494
15297
17914.6
19530.3
22145.6
23481.9
26194
27108
30007.4
-16646
-11692.6
-10422.2
-6269.3
-4568.7
-993.994
900.822
4068.52
6021.43
8908.89
10825.3
13532.8
15336.4
17952.7
19568.4
22183.4
23518.7
26231.6
27143.5
30046.3
-16605.7
-11646.6
-10380.4
-6224.96
-4526.98
-951.587
942.324
4109.2
6062.47
8948.23
10865.5
13571.1
15375.6
17990.4
19606.3
22220.8
23555.1
26268.8
27178.8
30085
-16565.6
-11600.9
-10338.8
-6180.97
-4485.54
-909.538
983.58
4149.52
6103.27
8987.2
10905.6
13609.2
15414.5
18027.9
19643.9
22258
23591.3
26305.8
27213.8
30123.3
-16525.8
-11555.5
-10297.6
-6137.31
-4444.35
-867.847
1024.59
4189.48
6143.83
9025.81
10945.3
13646.8
15453.2
18065
19681.2
22294.8
23627.2
26342.5
27248.5
30161.4
-16486.3
-11510.4
-10256.7
-6094
-4403.43
-826.518
1065.36
4229.07
6184.15
9064.05
10984.9
13684.2
15491.6
18101.8
19718.3
22331.3
23662.9
26378.9
27282.9
30199.2
-16447.2
-11465.7
-10216
-6051.04
-4362.77
-785.553
1105.88
4268.29
6224.24
9101.93
11024.2
13721.1
15529.8
18138.3
19755.1
22367.5
23698.3
26415.1
27317
30236.7
-16408.3
-11421.2
-10175.7
-6008.42
-4322.38
-744.954
1146.16
4307.13
6264.1
9139.44
11063.3
13757.8
15567.8
18174.4
19791.7
22403.4
23733.4
26450.9
27350.9
30274
-16369.8
-11377.1
-10135.6
-5966.14
-4282.24
-704.723
1186.2
4345.6
6303.72
9176.59
11102.1
13794
15605.5
18210.2
19828.1
22439
23768.2
26486.4
27384.4
30311
-16331.6
-11333.2
-10095.8
-5924.22
-4242.37
-664.862
1226
4383.69
6343.11
9213.36
11140.7
13829.9
15642.9
18245.6
19864.1
22474.3
23802.8
26521.7
27417.7
30347.7
-16293.6
-11289.7
-10056.3
-5882.65
-4202.75
-625.374
1265.56
4421.41
6382.27
9249.76
11179.1
13865.5
15680.2
18280.7
19900
22509.2
23837.1
26556.7
27450.7
30384.1
-16256
-11246.6
-10017.1
-5841.43
-4163.39
-586.26
1304.88
4458.74
6421.2
9285.79
11217.2
13900.7
15717.2
18315.5
19935.5
22543.9
23871.2
26591.3
27483.4
30420.3
-16218.7
-11203.7
-9978.19
-5800.57
-4124.28
-547.525
1343.97
4495.7
6459.9
9321.44
11255.1
13935.5
15753.9
18350
19970.8
22578.2
23904.9
26625.7
27515.8
30456.2
-16181.7
-11161.2
-9939.57
-5760.07
-4085.42
-509.168
1382.83
4532.26
6498.37
9356.71