/*--------------------------------*- C++ -*----------------------------------*\
  =========                 |
  \\      /  F ield         | OpenFOAM: The Open Source CFD Toolbox
   \\    /   O peration     | Website:  https://openfoam.org
    \\  /    A nd           | Version:  8
     \\/     M anipulation  |
\*---------------------------------------------------------------------------*/
FoamFile
{
    version     2.0;
    format      ascii;
    class       surfaceScalarField;
    location    "600";
    object      phi;
}
// * * * * * * * * * * * * * * * * * * * * * * * * * * * * * * * * * * * * * //

dimensions      [1 0 -1 0 0 0 0];

internalField   nonuniform List<scalar> 
16360
(
-1.36726
0.000231469
-1.36752
0.000262753
-1.36779
0.000274604
-1.36807
0.000279298
-1.36835
0.00028086
-1.36863
0.000280747
-1.36891
0.000279538
-1.36919
0.000277471
-1.36947
0.000274636
-1.36974
0.00027105
-1.37
0.00026668
-1.37026
0.000261463
-1.37052
0.00025531
-1.37077
0.000248102
-1.37101
0.000239698
-1.37124
0.000229926
-1.37146
0.000218586
-1.37166
0.000205442
-1.37185
0.000190213
-1.37202
0.000172564
-1.37218
0.000152093
-1.37231
0.000128363
-1.37241
0.000100892
-1.37248
6.89986e-05
-1.37251
3.17924e-05
-1.37249
-1.23177e-05
-1.37243
-6.55841e-05
-1.3723
-0.000129107
-1.3721
-0.000203321
-1.37181
-0.000289511
-1.37142
-0.000389398
-1.37091
-0.000505083
-1.37027
-0.000639056
-1.36948
-0.000794247
-1.36851
-0.000974104
-1.36732
-0.00118269
-1.3659
-0.00142485
-1.36419
-0.00170633
-1.36216
-0.00203414
-1.35974
-0.00241683
-1.35688
-0.00286515
-1.35348
-0.00339272
-1.34947
-0.00401715
-1.3447
-0.00476213
-1.33904
-0.00566259
-1.33227
-0.00677249
-1.3241
-0.00816341
-1.3142
-0.00990164
-1.30211
-0.0120966
-0.0153413
-1.28677
-1.56501
0.000503194
-1.56525
0.000503852
-1.56548
0.000504867
-1.56571
0.000507715
-1.56594
0.000508917
-1.56617
0.000508279
-1.56639
0.000505978
-1.56662
0.000502182
-1.56684
0.000496967
-1.56706
0.000490329
-1.56727
0.000482196
-1.56749
0.000472441
-1.56769
0.000460887
-1.56789
0.000447309
-1.56808
0.00043143
-1.56826
0.00041292
-1.56844
0.000391394
-1.5686
0.0003664
-1.56875
0.0003374
-1.56888
0.00030375
-1.56899
0.000264664
-1.56908
0.000219292
-1.56915
0.000166891
-1.56918
0.000106156
-1.56919
3.55163e-05
-1.56915
-4.68822e-05
-1.56908
-0.000142766
-1.56895
-0.000253921
-1.56877
-0.000382781
-1.56853
-0.000532037
-1.56821
-0.000704817
-1.56781
-0.000904775
-1.56732
-0.00113617
-1.56671
-0.00140397
-1.56597
-0.00171397
-1.56508
-0.00207297
-1.56401
-0.00248893
-1.56275
-0.00297129
-1.56125
-0.00353126
-1.55948
-0.00418238
-1.55741
-0.00494113
-1.55497
-0.00582791
-1.55212
-0.00686823
-1.54879
-0.00809534
-1.5449
-0.00955565
-1.54035
-0.0113148
-1.53506
-0.0134549
-1.52889
-0.0160738
-1.52162
-0.0193679
-0.0237967
-1.51316
-1.60397
0.000330833
-1.60386
0.000394363
-1.60378
0.000419256
-1.6037
0.000427817
-1.60362
0.000429727
-1.60354
0.000428056
-1.60345
0.000423903
-1.60337
0.000417664
-1.60328
0.000409451
-1.60319
0.000399231
-1.6031
0.00038688
-1.603
0.0003722
-1.60289
0.000354929
-1.60278
0.000334735
-1.60266
0.000311217
-1.60253
0.000283895
-1.60239
0.000252211
-1.60224
0.000215523
-1.60207
0.000173055
-1.60189
0.000123889
-1.6017
6.68916e-05
-1.60148
8.04448e-07
-1.60123
-7.62685e-05
-1.60096
-0.000166114
-1.60066
-0.000270315
-1.60031
-0.000390865
-1.59992
-0.000530238
-1.59949
-0.000691492
-1.59899
-0.000878103
-1.59843
-0.00109402
-1.59779
-0.00134379
-1.59706
-0.00163272
-1.59623
-0.00196697
-1.59528
-0.00235367
-1.5942
-0.00280117
-1.59295
-0.00331919
-1.59152
-0.00391911
-1.58988
-0.00461429
-1.58799
-0.00542052
-1.58581
-0.00635658
-1.58331
-0.00744498
-1.58042
-0.0087129
-1.5771
-0.0101935
-1.57327
-0.0119283
-1.56885
-0.0139715
-1.56377
-0.0163923
-1.55795
-0.0192724
-1.55132
-0.0227113
-1.5438
-0.0268846
-0.0321469
-1.53545
-1.64889
0.000490454
-1.64892
0.000427442
-1.64891
0.000406818
-1.64888
0.000401385
-1.64885
0.000398484
-1.64882
0.00039472
-1.64878
0.00038912
-1.64875
0.000381393
-1.64871
0.0003714
-1.64867
0.000358986
-1.64863
0.000343947
-1.64858
0.000326011
-1.64853
0.000304833
-1.64847
0.00027999
-1.64841
0.000250967
-1.64835
0.000217149
-1.64827
0.000177818
-1.64819
0.000132196
-1.6481
7.93025e-05
-1.64799
1.7974e-05
-1.64787
-5.2984e-05
-1.64773
-0.000135042
-1.64758
-0.000229934
-1.64741
-0.000339533
-1.64721
-0.000466357
-1.64699
-0.000613089
-1.64674
-0.000782849
-1.64645
-0.000979304
-1.64612
-0.00120667
-1.64574
-0.0014698
-1.64531
-0.00177427
-1.64482
-0.00212654
-1.64425
-0.00253413
-1.6436
-0.00300571
-1.64285
-0.00355137
-1.64199
-0.00418285
-1.64099
-0.00491379
-1.63985
-0.00576013
-1.63853
-0.00674055
-1.63701
-0.00787702
-1.63526
-0.0091955
-1.63324
-0.0107268
-1.63093
-0.0125078
-1.62827
-0.0145834
-1.62523
-0.017009
-1.62178
-0.0198514
-1.61786
-0.0231874
-1.61346
-0.0271098
-1.60859
-0.0317566
-0.0373233
-1.60341
-1.63382
0.000165567
-1.63365
0.000249989
-1.63352
0.000280184
-1.63341
0.000288031
-1.6333
0.000287857
-1.63318
0.000283632
-1.63307
0.000276529
-1.63296
0.000266828
-1.63284
0.000254501
-1.63272
0.000239384
-1.6326
0.00022122
-1.63247
0.000199673
-1.63234
0.000174328
-1.63221
0.000144682
-1.63207
0.000110121
-1.63192
6.99153e-05
-1.63176
2.32009e-05
-1.6316
-3.10397e-05
-1.63143
-9.40209e-05
-1.63124
-0.000167025
-1.63104
-0.000251553
-1.63083
-0.000349496
-1.6306
-0.00046289
-1.63034
-0.000594067
-1.63006
-0.000745817
-1.62975
-0.000921341
-1.62941
-0.00112436
-1.62903
-0.00135918
-1.62861
-0.00163078
-1.62813
-0.00194493
-1.6276
-0.00230825
-1.627
-0.00272841
-1.62632
-0.00321429
-1.62555
-0.00377616
-1.62467
-0.00442588
-1.62368
-0.00517721
-1.62255
-0.00604607
-1.62125
-0.00705093
-1.61978
-0.00821325
-1.6181
-0.00955794
-1.61618
-0.0111141
-1.61399
-0.0129155
-1.6115
-0.015002
-1.60866
-0.0174202
-1.60545
-0.0202258
-1.60181
-0.0234829
-1.59774
-0.0272643
-1.59319
-0.0316541
-1.58819
-0.0367569
-0.0427052
-1.58281
-1.64881
0.000379916
-1.64885
0.000285375
-1.64882
0.00025155
-1.64877
0.00023984
-1.64871
0.000232982
-1.64866
0.000225982
-1.6486
0.000217207
-1.64854
0.00020604
-1.64847
0.000192138
-1.64841
0.000175196
-1.64834
0.000154871
-1.64827
0.000130758
-1.6482
0.000102373
-1.64813
6.9147e-05
-1.64805
3.03572e-05
-1.64796
-1.47846e-05
-1.64787
-6.71818e-05
-1.64777
-0.000127948
-1.64767
-0.000198343
-1.64756
-0.000279854
-1.64744
-0.000374254
-1.6473
-0.000483573
-1.64715
-0.000610125
-1.64699
-0.000756587
-1.64681
-0.000926077
-1.64661
-0.0011222
-1.64639
-0.00134912
-1.64613
-0.00161166
-1.64585
-0.00191541
-1.64553
-0.0022668
-1.64516
-0.00267327
-1.64475
-0.00314338
-1.64427
-0.00368707
-1.64373
-0.00431576
-1.64312
-0.00504268
-1.64241
-0.00588305
-1.6416
-0.00685446
-1.64068
-0.00797716
-1.63962
-0.00927447
-1.6384
-0.0107732
-1.63701
-0.0125043
-1.63542
-0.0145031
-1.63361
-0.0168101
-1.63156
-0.0194716
-1.62925
-0.0225403
-1.62666
-0.0260751
-1.62378
-0.0301398
-1.62063
-0.0348038
-1.61724
-0.0401438
-0.0462423
-1.61371
-1.64015
-9.61385e-07
-1.63996
9.93479e-05
-1.63984
0.000133198
-1.63974
0.000140359
-1.63965
0.000138323
-1.63955
0.000131864
-1.63946
0.000122294
-1.63936
0.000109849
-1.63926
9.4406e-05
-1.63916
7.56963e-05
-1.63906
5.33471e-05
-1.63896
2.69197e-05
-1.63885
-4.13051e-06
-1.63874
-4.04795e-05
-1.63863
-8.28814e-05
-1.63851
-0.000132203
-1.63839
-0.000189502
-1.63826
-0.000256031
-1.63813
-0.00033316
-1.63798
-0.000422517
-1.63783
-0.000526012
-1.63767
-0.000645851
-1.6375
-0.000784572
-1.63731
-0.000945116
-1.6371
-0.00113089
-1.63688
-0.00134583
-1.63663
-0.00159452
-1.63636
-0.00188222
-1.63606
-0.00221503
-1.63573
-0.00259999
-1.63536
-0.00304525
-1.63494
-0.00356018
-1.63447
-0.00415561
-1.63394
-0.00484405
-1.63335
-0.00563987
-1.63267
-0.00655966
-1.6319
-0.00762247
-1.63103
-0.00885016
-1.63004
-0.0102678
-1.62891
-0.011904
-1.62762
-0.0137915
-1.62615
-0.0159671
-1.62449
-0.0184727
-1.62261
-0.0213547
-1.62048
-0.024665
-1.6181
-0.0284593
-1.61544
-0.0327968
-1.61251
-0.0377371
-1.60931
-0.0433389
-0.0496614
-1.6059
-1.6462
0.000247602
-1.64624
0.000140485
-1.64621
0.000101052
-1.64616
8.61647e-05
-1.6461
7.68149e-05
-1.64603
6.7483e-05
-1.64597
5.63244e-05
-1.6459
4.2602e-05
-1.64583
2.58765e-05
-1.64576
5.75695e-06
-1.64569
-1.81733e-05
-1.64562
-4.64112e-05
-1.64554
-7.95553e-05
-1.64546
-0.000118297
-1.64538
-0.000163418
-1.6453
-0.000215881
-1.64521
-0.000276803
-1.64512
-0.000347477
-1.64502
-0.00042939
-1.64492
-0.00052428
-1.64481
-0.000634164
-1.6447
-0.000761379
-1.64457
-0.000908625
-1.64444
-0.00107902
-1.64429
-0.0012762
-1.64414
-0.00150432
-1.64396
-0.00176824
-1.64377
-0.00207355
-1.64356
-0.00242672
-1.64332
-0.00283521
-1.64306
-0.00330764
-1.64277
-0.00385395
-1.64244
-0.00448562
-1.64207
-0.00521586
-1.64165
-0.00605987
-1.64117
-0.00703513
-1.64063
-0.00816168
-1.64002
-0.00946245
-1.63932
-0.0109636
-1.63853
-0.0126949
-1.63763
-0.0146899
-1.63661
-0.0169864
-1.63546
-0.0196264
-1.63416
-0.0226563
-1.6327
-0.0261261
-1.63107
-0.0300891
-1.62927
-0.0345998
-1.62729
-0.0397105
-1.62516
-0.0454688
-0.05192
-1.6229
-1.64243
-0.000148864
-1.64225
-4.30171e-05
-1.64214
-8.17768e-06
-1.64205
-1.72154e-06
-1.64197
-5.02514e-06
-1.64189
-1.29665e-05
-1.64181
-2.41374e-05
-1.64173
-3.83047e-05
-1.64164
-5.56264e-05
-1.64156
-7.64237e-05
-1.64148
-0.000101121
-1.6414
-0.00013025
-1.64131
-0.000164425
-1.64122
-0.000204364
-1.64114
-0.000250905
-1.64105
-0.000305043
-1.64096
-0.000367933
-1.64086
-0.000440915
-1.64077
-0.00052554
-1.64067
-0.00062361
-1.64056
-0.000737219
-1.64046
-0.000868788
-1.64034
-0.00102112
-1.64023
-0.00119747
-1.6401
-0.00140158
-1.63997
-0.00163781
-1.63982
-0.00191119
-1.63967
-0.00222752
-1.6395
-0.00259354
-1.63932
-0.003017
-1.63912
-0.00350688
-1.6389
-0.00407351
-1.63866
-0.00472883
-1.63839
-0.00548658
-1.63809
-0.00636257
-1.63775
-0.00737497
-1.63736
-0.00854459
-1.63693
-0.00989522
-1.63644
-0.011454
-1.63588
-0.0132516
-1.63525
-0.0153226
-1.63453
-0.0177058
-1.63371
-0.020444
-1.63279
-0.0235839
-1.63174
-0.0271756
-1.63055
-0.0312717
-1.62923
-0.0359247
-1.62776
-0.0411839
-1.62613
-0.0470921
-0.0536881
-1.62436
-1.64367
0.000106887
-1.64371
-1.64515e-06
-1.64368
-4.21916e-05
-1.64362
-5.82705e-05
-1.64356
-6.88606e-05
-1.64349
-7.94514e-05
-1.64342
-9.18766e-05
-1.64335
-0.000106882
-1.64328
-0.000124931
-1.64321
-0.000146448
-1.64314
-0.000171898
-1.64307
-0.000201826
-1.643
-0.000236864
-1.64293
-0.000277749
-1.64285
-0.000325344
-1.64278
-0.000380656
-1.6427
-0.000444861
-1.64262
-0.00051932
-1.64254
-0.000605611
-1.64246
-0.000705566
-1.64237
-0.000821308
-1.64229
-0.000955296
-1.6422
-0.00111038
-1.64211
-0.00128984
-1.64201
-0.00149751
-1.64191
-0.00173778
-1.64181
-0.00201577
-1.6417
-0.00233738
-1.64158
-0.00270943
-1.64146
-0.0031398
-1.64133
-0.00363762
-1.64119
-0.00421339
-1.64104
-0.00487926
-1.64087
-0.00564922
-1.6407
-0.00653937
-1.6405
-0.00756823
-1.64029
-0.00875705
-1.64006
-0.0101301
-1.63979
-0.0117152
-1.6395
-0.0135436
-1.63917
-0.0156509
-1.6388
-0.0180767
-1.63838
-0.020865
-1.6379
-0.0240636
-1.63735
-0.0277239
-1.63673
-0.0318996
-1.63601
-0.0366447
-1.63518
-0.0420094
-1.63424
-0.048037
-0.0547634
-1.63316
-1.64368
-0.000278544
-1.64351
-0.000174737
-1.64341
-0.000141254
-1.64333
-0.000135796
-1.64326
-0.000139964
-1.64319
-0.000148666
-1.64312
-0.000160495
-1.64306
-0.000175222
-1.64299
-0.000193017
-1.64292
-0.000214219
-1.64285
-0.00023927
-1.64279
-0.000268708
-1.64272
-0.00030316
-1.64265
-0.000343363
-1.64259
-0.000390176
-1.64252
-0.000444599
-1.64246
-0.000507797
-1.6424
-0.000581118
-1.64234
-0.000666128
-1.64228
-0.000764643
-1.64222
-0.000878767
-1.64217
-0.00101094
-1.64211
-0.00116398
-1.64206
-0.00134116
-1.64201
-0.00154625
-1.64197
-0.00178365
-1.64193
-0.00205842
-1.64189
-0.00237643
-1.64185
-0.00274445
-1.64182
-0.00317033
-1.6418
-0.00366314
-1.64178
-0.00423336
-1.64176
-0.00489309
-1.64175
-0.00565629
-1.64175
-0.00653907
-1.64176
-0.00755996
-1.64178
-0.00874026
-1.64181
-0.0101044
-1.64184
-0.0116803
-1.64188
-0.0134996
-1.64194
-0.0155985
-1.642
-0.0180173
-1.64206
-0.0208009
-1.64212
-0.0239988
-1.64218
-0.0276642
-1.64223
-0.0318533
-1.64225
-0.0366232
-1.64223
-0.042028
-1.64216
-0.0481147
-0.0549243
-1.642
-1.64058
-3.57404e-05
-1.64062
-0.000138842
-1.64058
-0.000177821
-1.64052
-0.000193884
-1.64046
-0.000204799
-1.64039
-0.000215678
-1.64032
-0.000228225
-1.64026
-0.000243143
-1.64019
-0.000260884
-1.64012
-0.000281871
-1.64005
-0.000306571
-1.63999
-0.000335519
-1.63992
-0.000369339
-1.63985
-0.000408756
-1.63979
-0.000454612
-1.63973
-0.000507886
-1.63966
-0.000569714
-1.6396
-0.000641413
-1.63955
-0.00072451
-1.63949
-0.000820777
-1.63944
-0.000932262
-1.63939
-0.00106134
-1.63934
-0.00121077
-1.6393
-0.00138373
-1.63926
-0.00158391
-1.63923
-0.00181558
-1.6392
-0.00208368
-1.63918
-0.00239395
-1.63918
-0.00275299
-1.63918
-0.00316849
-1.63919
-0.0036493
-1.63922
-0.00420569
-1.63926
-0.00484954
-1.63932
-0.00559458
-1.63941
-0.00645665
-1.63951
-0.00745408
-1.63964
-0.00860799
-1.63981
-0.00994272
-1.64
-0.0114862
-1.64023
-0.0132705
-1.6405
-0.0153323
-1.6408
-0.0177129
-1.64114
-0.0204594
-1.64152
-0.0236239
-1.64192
-0.0272638
-1.64233
-0.0314409
-1.64273
-0.03622
-1.64309
-0.0416661
-1.64337
-0.0478389
-0.0547831
-1.64351
-1.64477
-0.000388138
-1.64462
-0.000293432
-1.64453
-0.00026382
-1.64447
-0.000259916
-1.64441
-0.000264754
-1.64435
-0.000273615
-1.64429
-0.0002852
-1.64424
-0.000299313
-1.64418
-0.00031613
-1.64413
-0.000335985
-1.64407
-0.000359304
-1.64402
-0.000386595
-1.64397
-0.00041845
-1.64393
-0.000455557
-1.64388
-0.000498713
-1.64384
-0.000548846
-1.6438
-0.000607025
-1.64377
-0.000674496
-1.64374
-0.000752699
-1.64372
-0.000843302
-1.64371
-0.000948239
-1.6437
-0.00106975
-1.6437
-0.00121043
-1.64371
-0.00137329
-1.64373
-0.0015618
-1.64377
-0.00177999
-1.64382
-0.00203254
-1.64389
-0.00232485
-1.64398
-0.00266318
-1.64409
-0.0030548
-1.64423
-0.0035081
-1.6444
-0.00403284
-1.64461
-0.00464029
-1.64486
-0.00534354
-1.64516
-0.00615775
-1.64552
-0.0071005
-1.64593
-0.00819213
-1.64642
-0.00945623
-1.64698
-0.0109201
-1.64764
-0.0126152
-1.64839
-0.0145779
-1.64926
-0.0168501
-1.65024
-0.0194796
-1.65134
-0.0225209
-1.65257
-0.0260351
-1.65392
-0.0300893
-1.65538
-0.0347565
-1.65694
-0.0401135
-1.65854
-0.0462352
-0.0531882
-1.66013
-1.63562
-0.000181037
-1.63564
-0.000272531
-1.63559
-0.000307875
-1.63553
-0.000323255
-1.63546
-0.000333928
-1.63539
-0.000344325
-1.63532
-0.000355955
-1.63525
-0.000369476
-1.63518
-0.000385321
-1.63511
-0.000403895
-1.63505
-0.000425631
-1.63498
-0.000451021
-1.63492
-0.000480626
-1.63486
-0.000515092
-1.6348
-0.000555165
-1.63475
-0.000601711
-1.6347
-0.000655729
-1.63466
-0.000718378
-1.63462
-0.000791
-1.63459
-0.000875149
-1.63456
-0.000972627
-1.63455
-0.00108552
-1.63454
-0.00121625
-1.63455
-0.00136761
-1.63457
-0.00154285
-1.6346
-0.00174574
-1.63465
-0.00198062
-1.63472
-0.00225256
-1.63482
-0.00256741
-1.63494
-0.00293197
-1.6351
-0.00335412
-1.63529
-0.00384301
-1.63552
-0.00440929
-1.6358
-0.00506529
-1.63613
-0.00582539
-1.63652
-0.00670632
-1.63699
-0.00772756
-1.63753
-0.00891182
-1.63817
-0.0102856
-1.6389
-0.01188
-1.63975
-0.0137311
-1.64072
-0.0158813
-1.64182
-0.0183801
-1.64305
-0.0212855
-1.64442
-0.0246645
-1.64592
-0.0285934
-1.64752
-0.0331588
-1.64917
-0.0384608
-1.65079
-0.0446097
-0.0516946
-1.65229
-1.64635
-0.000466783
-1.64623
-0.000391745
-1.64617
-0.000370306
-1.64612
-0.000369283
-1.64608
-0.000374856
-1.64604
-0.00038329
-1.646
-0.000393646
-1.64597
-0.000405859
-1.64593
-0.000420145
-1.6459
-0.000436826
-1.64587
-0.000456288
-1.64584
-0.000478972
-1.64581
-0.000505382
-1.64579
-0.000536097
-1.64578
-0.000571783
-1.64577
-0.000613206
-1.64576
-0.000661255
-1.64576
-0.000716957
-1.64577
-0.0007815
-1.64579
-0.00085626
-1.64582
-0.000942832
-1.64586
-0.00104306
-1.64592
-0.00115909
-1.64599
-0.00129339
-1.64609
-0.00144883
-1.6462
-0.00162875
-1.64635
-0.00183699
-1.64652
-0.00207804
-1.64673
-0.00235707
-1.64698
-0.00268011
-1.64728
-0.00305416
-1.64764
-0.00348734
-1.64806
-0.00398912
-1.64855
-0.00457051
-1.64914
-0.00524439
-1.64982
-0.00602578
-1.65061
-0.00693229
-1.65154
-0.00798461
-1.65262
-0.00920711
-1.65387
-0.0106286
-1.65532
-0.0122833
-1.65699
-0.0142119
-1.6589
-0.0164631
-1.66109
-0.0190957
-1.66358
-0.0221805
-1.66637
-0.0258006
-1.66948
-0.0300533
-1.67288
-0.0350588
-1.67652
-0.0409656
-0.0479273
-1.68029
-1.62379
-0.000326295
-1.62378
-0.000403258
-1.62372
-0.000433894
-1.62364
-0.000448398
-1.62355
-0.000458409
-1.62347
-0.000467591
-1.62339
-0.000477308
-1.6233
-0.000488207
-1.62322
-0.000500712
-1.62314
-0.000515194
-1.62307
-0.000532022
-1.623
-0.000551598
-1.62293
-0.000574367
-1.62286
-0.000600837
-1.6228
-0.000631587
-1.62275
-0.000667287
-1.6227
-0.000708707
-1.62266
-0.000756739
-1.62263
-0.000812414
-1.62261
-0.000876929
-1.6226
-0.000951667
-1.62261
-0.00103823
-1.62263
-0.00113849
-1.62267
-0.00125458
-1.62273
-0.00138902
-1.62281
-0.00154469
-1.62292
-0.00172497
-1.62307
-0.00193375
-1.62325
-0.00217557
-1.62347
-0.00245571
-1.62375
-0.00278028
-1.62408
-0.00315646
-1.62447
-0.00359257
-1.62494
-0.00409837
-1.6255
-0.00468532
-1.62616
-0.00536684
-1.62694
-0.00615883
-1.62784
-0.00708009
-1.62889
-0.00815305
-1.63012
-0.00940463
-1.63153
-0.0108673
-1.63317
-0.0125805
-1.63504
-0.0145928
-1.63717
-0.0169646
-1.63958
-0.0197722
-1.64227
-0.0231086
-1.64524
-0.0270848
-1.64845
-0.0318482
-1.65179
-0.0376198
-0.0446553
-1.65506
-1.64191
-0.000469653
-1.64188
-0.000431481
-1.64189
-0.000423747
-1.64191
-0.00042659
-1.64194
-0.000432239
-1.64197
-0.00043898
-1.642
-0.00044658
-1.64203
-0.000455197
-1.64207
-0.000465084
-1.64211
-0.000476522
-1.64215
-0.000489806
-1.6422
-0.00050526
-1.64225
-0.00052324
-1.6423
-0.00054415
-1.64237
-0.000568452
-1.64244
-0.000596672
-1.64252
-0.000629422
-1.64261
-0.000667406
-1.64271
-0.000711438
-1.64282
-0.00076246
-1.64295
-0.000821566
-1.6431
-0.000890018
-1.64327
-0.000969284
-1.64346
-0.00106106
-1.64368
-0.00116732
-1.64394
-0.00129034
-1.64423
-0.00143278
-1.64457
-0.00159772
-1.64495
-0.00178873
-1.6454
-0.00200997
-1.64591
-0.00226628
-1.64651
-0.00256334
-1.64719
-0.00290773
-1.64798
-0.00330721
-1.6489
-0.00377088
-1.64995
-0.00430948
-1.65118
-0.00493575
-1.65259
-0.00566487
-1.65423
-0.00651509
-1.65613
-0.00750855
-1.65832
-0.00867233
-1.66086
-0.0100399
-1.6638
-0.0116531
-1.6672
-0.0135661
-1.67112
-0.0158505
-1.67563
-0.0185989
-1.68079
-0.0219234
-1.68666
-0.0259774
-1.69324
-0.0310411
-0.0375785
-1.70032
-1.56412
-0.00038137
-1.5641
-0.000453876
-1.56405
-0.000476745
-1.56399
-0.000487739
-1.56392
-0.000494976
-1.56386
-0.000501262
-1.5638
-0.000507606
-1.56374
-0.000514481
-1.56368
-0.000522181
-1.56363
-0.000530947
-1.56358
-0.000541008
-1.56353
-0.000552601
-1.56349
-0.000565987
-1.56345
-0.000581456
-1.56342
-0.00059934
-1.5634
-0.000620017
-1.56338
-0.000643924
-1.56338
-0.000671567
-1.56339
-0.000703527
-1.56341
-0.000740483
-1.56345
-0.000783215
-1.5635
-0.000832631
-1.56358
-0.000889782
-1.56369
-0.000955888
-1.56382
-0.00103236
-1.56399
-0.00112084
-1.5642
-0.00122323
-1.56446
-0.00134175
-1.56477
-0.00147896
-1.56514
-0.00163786
-1.56558
-0.00182193
-1.56611
-0.00203527
-1.56674
-0.00228263
-1.56748
-0.00256961
-1.56834
-0.00290284
-1.56936
-0.00329012
-1.57056
-0.00374079
-1.57196
-0.00426605
-1.57359
-0.00487951
-1.5755
-0.00559791
-1.57773
-0.00644217
-1.58033
-0.00743879
-1.58337
-0.00862192
-1.58689
-0.0100375
-1.59099
-0.0117513
-1.59574
-0.0138568
-1.60118
-0.0164741
-1.6074
-0.0197589
-1.6144
-0.0240415
-0.0300698
-1.62191
-1.52361
-9.27016e-05
-1.52402
-4.34575e-05
-1.52447
-3.43859e-05
-1.52492
-3.28854e-05
-1.52538
-3.35623e-05
-1.52585
-3.48696e-05
-1.52632
-3.65122e-05
-1.52679
-3.85048e-05
-1.52728
-4.0938e-05
-1.52776
-4.39192e-05
-1.52826
-4.75624e-05
-1.52876
-5.199e-05
-1.52927
-5.73365e-05
-1.52978
-6.37527e-05
-1.53031
-7.14101e-05
-1.53085
-8.05052e-05
-1.5314
-9.12647e-05
-1.53197
-0.00010395
-1.53256
-0.000118864
-1.53316
-0.000136358
-1.53379
-0.000156837
-1.53444
-0.000180773
-1.53512
-0.000208711
-1.53583
-0.000241285
-1.53659
-0.000279232
-1.53738
-0.000323403
-1.53823
-0.000374793
-1.53914
-0.000434556
-1.54012
-0.000504035
-1.54117
-0.000584798
-1.54231
-0.000678676
-1.54356
-0.000787814
-1.54493
-0.000914731
-1.54643
-0.0010624
-1.5481
-0.00123433
-1.54996
-0.00143472
-1.55203
-0.00166862
-1.55435
-0.00194216
-1.55697
-0.00226286
-1.55993
-0.00264019
-1.56328
-0.0030862
-1.56711
-0.00361662
-1.57148
-0.00425229
-1.57649
-0.0050222
-1.58227
-0.0059702
-1.58897
-0.00716422
-1.59674
-0.00869515
-1.60584
-0.0106587
-1.61665
-0.0132397
-0.0172486
-1.62947
-1.2277
-1.22774
-1.22778
-1.22781
-1.22784
-1.22788
-1.22792
-1.22795
-1.228
-1.22804
-1.22809
-1.22814
-1.2282
-1.22826
-1.22833
-1.22841
-1.2285
-1.22861
-1.22873
-1.22886
-1.22902
-1.2292
-1.22941
-1.22965
-1.22993
-1.23025
-1.23063
-1.23106
-1.23157
-1.23215
-1.23283
-1.23362
-1.23453
-1.23559
-1.23683
-1.23826
-1.23993
-1.24187
-1.24414
-1.24678
-1.24986
-1.25348
-1.25773
-1.26275
-1.26873
-1.27589
-1.28458
-1.29524
-1.30848
-1.32573
1.62587
-0.0342497
1.638
-0.0121347
1.64684
-0.00883955
1.65127
-0.00442636
1.65284
-0.00157505
1.65294
-9.96576e-05
1.65225
0.000692141
1.65109
0.00116072
1.64964
0.00144691
1.64802
0.0016192
1.6463
0.00172046
1.64453
0.00177774
1.64272
0.00180709
1.6409
0.00181801
1.63908
0.00181633
1.63728
0.00180576
1.63549
0.00178871
1.63372
0.0017667
1.63198
0.00174072
1.63027
0.00171134
1.62859
0.00167888
1.62695
0.00164344
1.62534
0.00160493
1.62378
0.00156313
1.62226
0.00151769
1.62079
0.00146813
1.61938
0.00141382
1.61803
0.00135393
1.61674
0.00128748
1.61553
0.00121344
1.61439
0.0011306
1.61336
0.00103749
1.61242
0.000932502
1.61161
0.000812347
1.61094
0.000674579
1.61042
0.00051606
1.61009
0.000333106
1.60997
0.000121565
1.61009
-0.000124233
1.6105
-0.000412493
1.61126
-0.000753432
1.61242
-0.00115983
1.61407
-0.00164894
1.61631
-0.00224528
1.6193
-0.00298556
1.62323
-0.00392862
1.6284
-0.00517638
1.63532
-0.00692126
1.64489
-0.00956263
-0.0139726
1.65886
1.57532
-0.0179535
1.5719
-0.00871262
1.5662
-0.00314182
1.56319
-0.00141561
1.56174
-0.000121732
1.56096
0.000679402
1.56059
0.00105645
1.56052
0.00123021
1.56066
0.00131316
1.56093
0.00134686
1.5613
0.00135225
1.56173
0.0013423
1.56222
0.00132429
1.56273
0.00130188
1.56327
0.00127682
1.56383
0.00124991
1.5644
0.00122137
1.56497
0.00119114
1.56555
0.0011589
1.56614
0.0011242
1.56673
0.00108647
1.56733
0.001045
1.56794
0.000998985
1.56855
0.000947465
1.56918
0.000889357
1.56983
0.00082342
1.57049
0.00074816
1.57118
0.000661653
1.57191
0.000561577
1.57268
0.000445839
1.5735
0.000312055
1.57438
0.000156634
1.57533
-2.46159e-05
1.57638
-0.000236155
1.57754
-0.000483085
1.57883
-0.000771757
1.58027
-0.00110988
1.5819
-0.0015068
1.58375
-0.00197472
1.58587
-0.0025286
1.5883
-0.00318653
1.59111
-0.00397235
1.59438
-0.00491768
1.5982
-0.00606575
1.60269
-0.00747776
1.60801
-0.00924373
1.61433
-0.0115011
1.62188
-0.0144664
1.6308
-0.0184888
-0.0241166
1.64095
1.57763
-0.00396691
1.573
-0.00408413
1.57217
-0.00230633
1.57223
-0.00147709
1.57309
-0.000985805
1.57428
-0.000505059
1.57545
-0.000120411
1.57653
0.000155078
1.57749
0.000356697
1.57833
0.000506968
1.57906
0.000617656
1.5797
0.000697665
1.58027
0.000754153
1.58078
0.000792376
1.58124
0.000816033
1.58167
0.000827712
1.58206
0.000829195
1.58243
0.000821636
1.58278
0.000805689
1.58312
0.000781604
1.58346
0.000749291
1.5838
0.000708346
1.58414
0.000658073
1.58449
0.000597476
1.58485
0.000525353
1.58524
0.000440268
1.58564
0.000340466
1.58608
0.000223295
1.58656
8.55866e-05
1.58708
-7.59752e-05
1.58766
-0.00026537
1.5883
-0.00048733
1.58902
-0.000747497
1.58984
-0.00105143
1.59076
-0.00140729
1.59182
-0.00182441
1.59302
-0.00231399
1.5944
-0.00288965
1.596
-0.00356815
1.59784
-0.00437003
1.59997
-0.00532055
1.60245
-0.00645184
1.60534
-0.00780542
1.60871
-0.00943596
1.61265
-0.011417
1.61725
-0.0138496
1.62263
-0.0168747
1.62885
-0.0206904
1.63593
-0.0255712
-0.031875
1.64369
1.59001
-0.00235607
1.58927
-0.00334332
1.58952
-0.00256435
1.58974
-0.00169093
1.5898
-0.00104513
1.58979
-0.000497098
1.58972
-4.90454e-05
1.58959
0.000280047
1.58944
0.000508915
1.58928
0.000665434
1.58913
0.000769308
1.58899
0.000834216
1.58888
0.000870408
1.58878
0.000885392
1.58872
0.000884386
1.58867
0.000870891
1.58865
0.000847159
1.58866
0.000814527
1.58869
0.00077363
1.58875
0.00072456
1.58883
0.000666963
1.58894
0.000600086
1.58908
0.000522774
1.58924
0.000433366
1.58944
0.000330121
1.58967
0.000211106
1.58993
7.35423e-05
1.59024
-8.56322e-05
1.5906
-0.000269896
1.591
-0.000483859
1.59147
-0.000733133
1.59201
-0.00102368
1.59262
-0.00136256
1.59333
-0.00175791
1.59414
-0.00221983
1.59508
-0.00276023
1.59616
-0.00339332
1.5974
-0.00413612
1.59885
-0.0050092
1.60051
-0.00603754
1.60244
-0.00725165
1.60468
-0.00868929
1.60727
-0.0103978
1.61027
-0.012437
1.61374
-0.0148835
1.61773
-0.0178361
1.62228
-0.0214219
1.62739
-0.0258022
1.63299
-0.0311734
-0.0377525
1.63887
1.59022
-0.000962887
1.58845
-0.00156465
1.58719
-0.00131323
1.58635
-0.000847006
1.58579
-0.000487359
1.5855
-0.000208409
1.58543
2.08358e-05
1.58552
0.000197112
1.5857
0.000323567
1.58596
0.000411804
1.58625
0.000471801
1.58658
0.0005101
1.58692
0.000531331
1.58726
0.000538917
1.58761
0.000535235
1.58796
0.000521794
1.58831
0.000499426
1.58866
0.000468438
1.589
0.000428707
1.58934
0.000379745
1.58969
0.000320763
1.59004
0.000250638
1.5904
0.00016798
1.59076
7.05673e-05
1.59113
-4.38162e-05
1.59152
-0.000177939
1.59193
-0.000335101
1.59236
-0.000518783
1.59283
-0.000733114
1.59333
-0.000983529
1.59387
-0.0012763
1.59446
-0.0016186
1.59512
-0.00201886
1.59585
-0.00248698
1.59666
-0.00303473
1.59758
-0.00367606
1.59861
-0.00442749
1.59979
-0.00530871
1.60112
-0.0063432
1.60264
-0.00755913
1.60438
-0.00899035
1.60637
-0.0106778
1.60864
-0.0126715
1.61124
-0.0150321
1.61419
-0.0178342
1.61752
-0.0211686
1.62124
-0.0251447
1.62533
-0.0298907
1.62971
-0.0355493
-0.0422646
1.63422
1.59117
-0.000510671
1.59055
-0.000953409
1.59023
-0.000991486
1.59019
-0.000809882
1.5903
-0.000595085
1.59049
-0.000390918
1.5907
-0.00019858
1.59093
-2.88575e-05
1.59114
0.000109746
1.59134
0.000217119
1.59151
0.000296958
1.59167
0.000353104
1.59181
0.000388942
1.59194
0.000407435
1.59207
0.000410998
1.59219
0.000401417
1.59231
0.000379867
1.59243
0.000346962
1.59256
0.000302824
1.59269
0.000247092
1.59283
0.000179148
1.59298
9.78332e-05
1.59315
1.61226e-06
1.59333
-0.000111351
1.59353
-0.000243648
1.59375
-0.000398547
1.594
-0.000579561
1.59427
-0.000790803
1.59457
-0.00103719
1.59491
-0.00132468
1.5953
-0.00166028
1.59573
-0.00205216
1.59622
-0.00250985
1.59678
-0.00304457
1.59741
-0.00366952
1.59814
-0.00440025
1.59897
-0.00525512
1.59991
-0.00625575
1.601
-0.00742772
1.60224
-0.00880126
1.60366
-0.0104121
1.60529
-0.0123028
1.60714
-0.0145234
1.60924
-0.0171333
1.61161
-0.0202022
1.61425
-0.0238112
1.61716
-0.0280521
1.62029
-0.0330258
1.62358
-0.0388347
-0.045571
1.62688
1.59137
-0.000263432
1.59094
-0.000521093
1.59052
-0.000578435
1.5902
-0.000484948
1.58995
-0.000340952
1.58975
-0.000197338
1.58962
-6.69773e-05
1.58955
4.36693e-05
1.58953
0.000130101
1.58955
0.000192259
1.58962
0.000233018
1.58971
0.000255722
1.58984
0.000263229
1.58999
0.000257827
1.59016
0.00024123
1.59035
0.000214565
1.59055
0.000178406
1.59076
0.000132781
1.59099
7.73118e-05
1.59122
1.11885e-05
1.59147
-6.68221e-05
1.59172
-0.000158302
1.59199
-0.000265338
1.59227
-0.000390047
1.59256
-0.00053541
1.59287
-0.00070494
1.59319
-0.000902657
1.59353
-0.00113326
1.5939
-0.00140228
1.59429
-0.00171623
1.59471
-0.00208277
1.59517
-0.00251083
1.59567
-0.00301084
1.59622
-0.00359499
1.59683
-0.00427759
1.59751
-0.00507537
1.59826
-0.00600797
1.5991
-0.00709835
1.60005
-0.00837338
1.60111
-0.00986447
1.60231
-0.0116083
1.60365
-0.0136474
1.60516
-0.0160312
1.60684
-0.0188163
1.60871
-0.0220673
1.61075
-0.0258558
1.61296
-0.03026
1.6153
-0.0353608
1.6177
-0.0412366
-0.0479565
1.62008
1.59149
-0.000139573
1.59126
-0.000289978
1.59103
-0.000348127
1.59087
-0.000323321
1.59079
-0.000259327
1.59078
-0.000187449
1.59083
-0.000118843
1.59093
-5.77856e-05
1.59107
-7.54608e-06
1.59123
3.03251e-05
1.59141
5.60235e-05
1.59159
7.04222e-05
1.59178
7.43675e-05
1.59197
6.85108e-05
1.59216
5.3275e-05
1.59235
2.88141e-05
1.59253
-5.0109e-06
1.59271
-4.8632e-05
1.59289
-0.000102794
1.59307
-0.00016851
1.59325
-0.000247266
1.59343
-0.000340817
1.59362
-0.000451283
1.59381
-0.000581143
1.59401
-0.000733462
1.59422
-0.000911881
1.59443
-0.00112066
1.59467
-0.00136478
1.59491
-0.00165007
1.59518
-0.00198341
1.59547
-0.00237284
1.59579
-0.00282776
1.59614
-0.00335916
1.59652
-0.00397986
1.59695
-0.00470486
1.59742
-0.00555163
1.59796
-0.00654055
1.59855
-0.00769536
1.59922
-0.00904358
1.59998
-0.0106171
1.60082
-0.0124527
1.60177
-0.0145924
1.60282
-0.0170842
1.60398
-0.0199819
1.60526
-0.023345
1.60664
-0.0272377
1.60811
-0.0317274
1.60963
-0.0368805
1.61115
-0.0427579
-0.049408
1.6126
1.59154
-6.24911e-05
1.59138
-0.000133386
1.5912
-0.000166814
1.59104
-0.000162606
1.59092
-0.000136974
1.59084
-0.000104957
1.59079
-7.39203e-05
1.59078
-4.72177e-05
1.5908
-2.71714e-05
1.59085
-1.51531e-05
1.59091
-1.15072e-05
1.591
-1.60271e-05
1.5911
-2.84039e-05
1.59122
-4.84177e-05
1.59135
-7.60112e-05
1.59149
-0.000111344
1.59164
-0.00015483
1.5918
-0.000207111
1.59196
-0.000269143
1.59214
-0.000342177
1.59232
-0.000427814
1.59251
-0.000527984
1.5927
-0.000644989
1.5929
-0.000781554
1.59311
-0.000940913
1.59332
-0.00112688
1.59355
-0.00134394
1.59378
-0.00159729
1.59402
-0.00189302
1.59428
-0.00223828
1.59454
-0.00264139
1.59483
-0.00311206
1.59513
-0.00366161
1.59545
-0.00430325
1.5958
-0.00505233
1.59618
-0.00592672
1.59658
-0.00694714
1.59703
-0.0081376
1.59751
-0.00952583
1.59803
-0.0111437
1.59861
-0.0130276
1.59924
-0.0152187
1.59992
-0.0177636
1.60065
-0.0207133
1.60143
-0.0241237
1.60224
-0.0280535
1.60308
-0.032563
1.60391
-0.0377101
1.6047
-0.0435469
-0.0501163
1.6054
1.59156
-5.0306e-06
1.59144
-1.25245e-05
1.59129
-2.03022e-05
1.59116
-2.85734e-05
1.59106