/*--------------------------------*- C++ -*----------------------------------*\
  =========                 |
  \\      /  F ield         | OpenFOAM: The Open Source CFD Toolbox
   \\    /   O peration     | Website:  https://openfoam.org
    \\  /    A nd           | Version:  8
     \\/     M anipulation  |
\*---------------------------------------------------------------------------*/
FoamFile
{
    version     2.0;
    format      ascii;
    class       volVectorField;
    location    "600";
    object      U;
}
// * * * * * * * * * * * * * * * * * * * * * * * * * * * * * * * * * * * * * //

dimensions      [0 1 -1 0 0 0 0];

internalField   nonuniform List<vector> 
8400
(
(-13.741 -0.0754699 -1.01087e-15)
(-13.7442 -0.0762111 -1.01325e-15)
(-13.7468 -0.0771555 -1.01544e-15)
(-13.7496 -0.0781841 -1.02168e-15)
(-13.7525 -0.0792614 -1.02528e-15)
(-13.7553 -0.0803766 -1.02409e-15)
(-13.7581 -0.0815268 -1.02522e-15)
(-13.7609 -0.0827118 -1.02654e-15)
(-13.7637 -0.0839329 -1.02829e-15)
(-13.7664 -0.0851916 -1.03365e-15)
(-13.7691 -0.0864903 -1.03601e-15)
(-13.7718 -0.0878314 -1.03431e-15)
(-13.7744 -0.0892179 -1.03504e-15)
(-13.7769 -0.090653 -1.0361e-15)
(-13.7794 -0.0921404 -1.03918e-15)
(-13.7818 -0.0936842 -1.04531e-15)
(-13.784 -0.0952891 -1.04353e-15)
(-13.7862 -0.0969602 -1.0419e-15)
(-13.7882 -0.0987033 -1.04256e-15)
(-13.79 -0.100525 -1.04352e-15)
(-13.7916 -0.102433 -1.04478e-15)
(-13.7931 -0.104435 -1.04612e-15)
(-13.7942 -0.106542 -1.04751e-15)
(-13.7951 -0.108763 -1.04891e-15)
(-13.7956 -0.111115 -1.05019e-15)
(-13.7957 -0.113616 -1.0518e-15)
(-13.7954 -0.116293 -1.04952e-15)
(-13.7944 -0.119165 -1.04952e-15)
(-13.7928 -0.122248 -1.05413e-15)
(-13.7904 -0.125564 -1.05657e-15)
(-13.787 -0.12914 -1.05881e-15)
(-13.7825 -0.133007 -1.06116e-15)
(-13.7768 -0.137205 -1.05938e-15)
(-13.7697 -0.141775 -1.06001e-15)
(-13.7609 -0.146769 -1.06538e-15)
(-13.7501 -0.152248 -1.06864e-15)
(-13.7371 -0.158282 -1.0718e-15)
(-13.7215 -0.164958 -1.075e-15)
(-13.7029 -0.172379 -1.07832e-15)
(-13.6807 -0.180674 -1.08073e-15)
(-13.6543 -0.190001 -1.08422e-15)
(-13.6231 -0.200564 -1.08834e-15)
(-13.5862 -0.212626 -1.09255e-15)
(-13.5424 -0.226544 -1.09898e-15)
(-13.4904 -0.242816 -1.10616e-15)
(-13.4286 -0.262162 -1.11271e-15)
(-13.3555 -0.285556 -1.1162e-15)
(-13.2673 -0.314332 -1.12401e-15)
(-13.1546 -0.35105 -1.13847e-15)
(-13.0056 -0.401619 -1.15504e-15)
(-15.7298 0.0789156 -4.18716e-16)
(-15.7331 0.0799507 -4.18615e-16)
(-15.7354 0.0809756 -4.18552e-16)
(-15.7377 0.0820154 -4.2185e-16)
(-15.74 0.083059 -4.23861e-16)
(-15.7423 0.0841098 -4.22422e-16)
(-15.7446 0.0851718 -4.21169e-16)
(-15.7468 0.0862481 -4.19588e-16)
(-15.7491 0.0873409 -4.20725e-16)
(-15.7513 0.0884516 -4.24952e-16)
(-15.7535 0.0895814 -4.26037e-16)
(-15.7557 0.090731 -4.23474e-16)
(-15.7578 0.091901 -4.20385e-16)
(-15.7598 0.0930917 -4.15529e-16)
(-15.7618 0.0943032 -4.19031e-16)
(-15.7637 0.0955354 -4.3471e-16)
(-15.7654 0.096788 -4.3549e-16)
(-15.7671 0.0980604 -4.32081e-16)
(-15.7687 0.0993516 -4.29408e-16)
(-15.7701 0.10066 -4.26894e-16)
(-15.7713 0.101984 -4.24432e-16)
(-15.7724 0.103322 -4.21966e-16)
(-15.7732 0.10467 -4.1945e-16)
(-15.7737 0.106023 -4.1687e-16)
(-15.7739 0.107372 -4.1428e-16)
(-15.7738 0.108701 -4.12139e-16)
(-15.7732 0.110001 -4.07056e-16)
(-15.7722 0.111273 -4.02564e-16)
(-15.7707 0.112512 -4.00787e-16)
(-15.7686 0.11371 -3.98207e-16)
(-15.7659 0.114852 -3.95243e-16)
(-15.7623 0.115924 -3.92086e-16)
(-15.7578 0.116905 -3.86281e-16)
(-15.7523 0.117772 -3.81159e-16)
(-15.7456 0.118497 -3.78603e-16)
(-15.7374 0.119047 -3.75098e-16)
(-15.7277 0.11938 -3.71166e-16)
(-15.7161 0.119447 -3.67018e-16)
(-15.7023 0.119185 -3.60332e-16)
(-15.686 0.118517 -3.55195e-16)
(-15.6668 0.11734 -3.52162e-16)
(-15.6443 0.11552 -3.44475e-16)
(-15.6179 0.112875 -3.37348e-16)
(-15.587 0.109143 -3.32775e-16)
(-15.5508 0.103914 -3.24657e-16)
(-15.5087 0.09656 -3.17798e-16)
(-15.46 0.0862396 -3.10258e-16)
(-15.4035 0.0718304 -3.00518e-16)
(-15.3352 0.050732 -2.93354e-16)
(-15.2505 0.0158891 -2.86699e-16)
(-16.1252 -0.0663762 -7.63677e-16)
(-16.1234 -0.0667915 -7.64163e-16)
(-16.1225 -0.067505 -7.6457e-16)
(-16.1217 -0.0683387 -7.66812e-16)
(-16.1209 -0.0692416 -7.68284e-16)
(-16.1201 -0.0701933 -7.67258e-16)
(-16.1193 -0.0711859 -7.66568e-16)
(-16.1184 -0.0722164 -7.66092e-16)
(-16.1176 -0.0732842 -7.65766e-16)
(-16.1167 -0.0743903 -7.67212e-16)
(-16.1157 -0.0755363 -7.67782e-16)
(-16.1147 -0.0767249 -7.65815e-16)
(-16.1137 -0.077959 -7.63935e-16)
(-16.1126 -0.0792427 -7.61745e-16)
(-16.1114 -0.0805803 -7.59582e-16)
(-16.1102 -0.0819771 -7.60533e-16)
(-16.1089 -0.0834391 -7.60896e-16)
(-16.1074 -0.0849732 -7.59212e-16)
(-16.1058 -0.0865871 -7.57547e-16)
(-16.1041 -0.0882901 -7.56004e-16)
(-16.1022 -0.0900932 -7.54499e-16)
(-16.1001 -0.0920089 -7.52973e-16)
(-16.0978 -0.0940508 -7.5138e-16)
(-16.0952 -0.09624 -7.49748e-16)
(-16.0923 -0.0985923 -7.48073e-16)
(-16.0891 -0.101127 -7.46465e-16)
(-16.0854 -0.103872 -7.42922e-16)
(-16.0813 -0.106861 -7.39882e-16)
(-16.0766 -0.110129 -7.39188e-16)
(-16.0714 -0.113716 -7.38187e-16)
(-16.0653 -0.117663 -7.37007e-16)
(-16.0585 -0.122023 -7.35864e-16)
(-16.0507 -0.126853 -7.32825e-16)
(-16.0418 -0.13222 -7.30359e-16)
(-16.0316 -0.138202 -7.30381e-16)
(-16.02 -0.144889 -7.30268e-16)
(-16.0066 -0.152384 -7.30189e-16)
(-15.9912 -0.160808 -7.3028e-16)
(-15.9736 -0.170302 -7.30622e-16)
(-15.9533 -0.181032 -7.30394e-16)
(-15.9299 -0.193193 -7.31312e-16)
(-15.9029 -0.207019 -7.32182e-16)
(-15.8719 -0.222792 -7.34091e-16)
(-15.8361 -0.240858 -7.39252e-16)
(-15.7948 -0.261677 -7.4504e-16)
(-15.7473 -0.285844 -7.51054e-16)
(-15.6929 -0.314039 -7.5705e-16)
(-15.6307 -0.347011 -7.66382e-16)
(-15.5587 -0.386229 -7.82004e-16)
(-15.4755 -0.435415 -8.00386e-16)
(-16.5748 0.069641 1.30012e-16)
(-16.576 0.0702758 1.30464e-16)
(-16.576 0.0710208 1.3091e-16)
(-16.5758 0.071796 1.29596e-16)
(-16.5755 0.0725684 1.28837e-16)
(-16.5752 0.0733308 1.30312e-16)
(-16.5748 0.0740822 1.31448e-16)
(-16.5745 0.0748225 1.32356e-16)
(-16.5741 0.0755514 1.33156e-16)
(-16.5737 0.0762678 1.32283e-16)
(-16.5733 0.07697 1.32192e-16)
(-16.5728 0.0776554 1.34446e-16)
(-16.5724 0.0783208 1.3659e-16)
(-16.5718 0.0789621 1.38357e-16)
(-16.5713 0.0795743 1.39401e-16)
(-16.5706 0.0801514 1.39467e-16)
(-16.5699 0.0806864 1.39965e-16)
(-16.5691 0.0811713 1.42521e-16)
(-16.5682 0.0815964 1.44817e-16)
(-16.5672 0.0819499 1.4693e-16)
(-16.5661 0.0822171 1.48942e-16)
(-16.5648 0.0823846 1.50894e-16)
(-16.5634 0.0824329 1.52814e-16)
(-16.5617 0.0823481 1.54738e-16)
(-16.5599 0.0821094 1.5667e-16)
(-16.5578 0.0816932 1.58507e-16)
(-16.5554 0.0810725 1.62181e-16)
(-16.5527 0.080214 1.65381e-16)
(-16.5496 0.0790781 1.66354e-16)
(-16.5461 0.0776193 1.67637e-16)
(-16.5421 0.0757847 1.69148e-16)
(-16.5375 0.0735128 1.70682e-16)
(-16.5322 0.0707321 1.741e-16)
(-16.5261 0.067359 1.77089e-16)
(-16.5191 0.0632959 1.77823e-16)
(-16.511 0.0584282 1.78766e-16)
(-16.5017 0.0526215 1.79828e-16)
(-16.491 0.0457173 1.80734e-16)
(-16.4787 0.0375277 1.83346e-16)
(-16.4645 0.0278288 1.84324e-16)
(-16.4481 0.0163522 1.83052e-16)
(-16.4293 0.0027744 1.84893e-16)
(-16.4077 -0.0132969 1.85967e-16)
(-16.3828 -0.0323457 1.84146e-16)
(-16.3543 -0.0549795 1.83837e-16)
(-16.3217 -0.0819462 1.81105e-16)
(-16.2848 -0.114111 1.77416e-16)
(-16.2431 -0.15247 1.74093e-16)
(-16.196 -0.19842 1.66991e-16)
(-16.143 -0.254115 1.58912e-16)
(-16.4264 -0.0554601 4.50299e-16)
(-16.4232 -0.0558781 4.51605e-16)
(-16.4218 -0.0564152 4.52902e-16)
(-16.4207 -0.0570097 4.5236e-16)
(-16.4195 -0.0576403 4.52278e-16)
(-16.4184 -0.0582998 4.54351e-16)
(-16.4173 -0.0589855 4.56043e-16)
(-16.4162 -0.0596965 4.57392e-16)
(-16.415 -0.0604326 4.5857e-16)
(-16.4138 -0.0611945 4.57964e-16)
(-16.4126 -0.0619838 4.57889e-16)
(-16.4113 -0.0628022 4.6012e-16)
(-16.4101 -0.0636525 4.62239e-16)
(-16.4087 -0.064538 4.64292e-16)
(-16.4073 -0.0654628 4.66331e-16)
(-16.4059 -0.0664317 4.66364e-16)
(-16.4044 -0.0674509 4.66708e-16)
(-16.4028 -0.068527 4.69339e-16)
(-16.4011 -0.0696695 4.71501e-16)
(-16.3993 -0.0708887 4.73446e-16)
(-16.3974 -0.0721944 4.75277e-16)
(-16.3953 -0.0736036 4.77064e-16)
(-16.3931 -0.0751347 4.78864e-16)
(-16.3906 -0.0768096 4.807e-16)
(-16.388 -0.0786539 4.826e-16)
(-16.385 -0.0806957 4.84469e-16)
(-16.3818 -0.0829673 4.88251e-16)
(-16.3781 -0.0855064 4.91664e-16)
(-16.3741 -0.0883562 4.92955e-16)
(-16.3696 -0.0915666 4.94675e-16)
(-16.3646 -0.0951952 4.96777e-16)
(-16.3589 -0.099309 4.99079e-16)
(-16.3525 -0.103986 5.03489e-16)
(-16.3452 -0.109315 5.07654e-16)
(-16.337 -0.115401 5.09792e-16)
(-16.3276 -0.122366 5.125e-16)
(-16.317 -0.130351 5.15702e-16)
(-16.3049 -0.139521 5.19344e-16)
(-16.2911 -0.150067 5.23468e-16)
(-16.2753 -0.162218 5.29045e-16)
(-16.2573 -0.176239 5.34486e-16)
(-16.2367 -0.192448 5.41131e-16)
(-16.2133 -0.211224 5.48262e-16)
(-16.1866 -0.233027 5.5382e-16)
(-16.1562 -0.258423 5.60683e-16)
(-16.1219 -0.288094 5.69666e-16)
(-16.0832 -0.322851 5.81459e-16)
(-16.04 -0.363681 5.93572e-16)
(-15.9917 -0.411902 6.03514e-16)
(-15.9379 -0.469263 6.16029e-16)
(-16.5738 0.053637 4.0992e-17)
(-16.5753 0.0539798 4.12054e-17)
(-16.5752 0.0543986 4.14619e-17)
(-16.5748 0.0548286 3.99196e-17)
(-16.5743 0.0552442 3.88615e-17)
(-16.5737 0.055636 4.00225e-17)
(-16.5731 0.0559996 4.08371e-17)
(-16.5725 0.0563318 4.13251e-17)
(-16.5719 0.0566292 4.16873e-17)
(-16.5712 0.0568882 4.02191e-17)
(-16.5706 0.057104 3.92402e-17)
(-16.5699 0.0572712 4.04521e-17)
(-16.5692 0.0573833 4.15637e-17)
(-16.5685 0.0574328 4.25189e-17)
(-16.5677 0.0574107 4.35886e-17)
(-16.5669 0.0573065 4.26715e-17)
(-16.566 0.0571083 4.23613e-17)
(-16.565 0.0568036 4.40019e-17)
(-16.564 0.0563782 4.53069e-17)
(-16.5629 0.0558165 4.63983e-17)
(-16.5618 0.0550994 4.73426e-17)
(-16.5605 0.0542063 4.82231e-17)
(-16.5591 0.0531139 4.90528e-17)
(-16.5575 0.0517948 4.98759e-17)
(-16.5558 0.0502167 5.0685e-17)
(-16.5539 0.0483423 5.14027e-17)
(-16.5518 0.0461286 5.39129e-17)
(-16.5494 0.0435261 5.5928e-17)
(-16.5467 0.0404777 5.57083e-17)
(-16.5437 0.0369182 5.58233e-17)
(-16.5402 0.0327725 5.61658e-17)
(-16.5363 0.0279544 5.65614e-17)
(-16.5319 0.0223649 5.8889e-17)
(-16.5268 0.01589 6.0806e-17)
(-16.521 0.00839898 6.04627e-17)
(-16.5144 -0.000258721 6.04269e-17)
(-16.5069 -0.0102559 6.05623e-17)
(-16.4982 -0.0217909 6.06428e-17)
(-16.4882 -0.0350917 6.24876e-17)
(-16.4769 -0.0504198 6.28412e-17)
(-16.4638 -0.0680746 6.11114e-17)
(-16.4489 -0.0883987 6.26321e-17)
(-16.4319 -0.111784 6.35544e-17)
(-16.4125 -0.138677 6.17456e-17)
(-16.3906 -0.169588 6.16418e-17)
(-16.366 -0.205086 5.9403e-17)
(-16.3385 -0.245785 5.67424e-17)
(-16.3082 -0.292355 5.49381e-17)
(-16.2751 -0.345567 4.99672e-17)
(-16.2391 -0.406335 4.26458e-17)
(-16.4903 -0.040272 1.47764e-16)
(-16.4867 -0.0405247 1.4802e-16)
(-16.4853 -0.0408296 1.48294e-16)
(-16.4843 -0.0411605 1.4665e-16)
(-16.4833 -0.0415088 1.45451e-16)
(-16.4824 -0.0418726 1.46501e-16)
(-16.4814 -0.0422518 1.47206e-16)
(-16.4804 -0.0426469 1.47652e-16)
(-16.4795 -0.0430586 1.47963e-16)
(-16.4785 -0.0434882 1.4627e-16)
(-16.4775 -0.0439376 1.44896e-16)
(-16.4764 -0.0444091 1.4572e-16)
(-16.4754 -0.0449057 1.46427e-16)
(-16.4743 -0.0454314 1.46954e-16)
(-16.4732 -0.045992 1.47378e-16)
(-16.472 -0.0465931 1.46074e-16)
(-16.4708 -0.0472424 1.45148e-16)
(-16.4696 -0.0479508 1.46429e-16)
(-16.4682 -0.0487302 1.47395e-16)
(-16.4669 -0.0495949 1.48122e-16)
(-16.4654 -0.0505617 1.48731e-16)
(-16.4638 -0.0516504 1.49267e-16)
(-16.4621 -0.0528834 1.49788e-16)
(-16.4603 -0.0542868 1.50309e-16)
(-16.4583 -0.0558912 1.5086e-16)
(-16.4562 -0.0577322 1.5135e-16)
(-16.4538 -0.0598513 1.53717e-16)
(-16.4513 -0.0622972 1.55675e-16)
(-16.4484 -0.0651264 1.55497e-16)
(-16.4452 -0.0684048 1.55756e-16)
(-16.4417 -0.072209 1.56401e-16)
(-16.4378 -0.0766282 1.57265e-16)
(-16.4333 -0.0817659 1.60259e-16)
(-16.4283 -0.0877425 1.6306e-16)
(-16.4227 -0.0946976 1.63894e-16)
(-16.4163 -0.102793 1.65357e-16)
(-16.4091 -0.112216 1.67408e-16)
(-16.4009 -0.123184 1.69978e-16)
(-16.3916 -0.135947 1.73135e-16)
(-16.3809 -0.150795 1.76979e-16)
(-16.3688 -0.168059 1.82178e-16)
(-16.3551 -0.18812 1.89539e-16)
(-16.3394 -0.211414 1.96256e-16)
(-16.3216 -0.238435 2.02664e-16)
(-16.3015 -0.269738 2.1034e-16)
(-16.2789 -0.305938 2.18423e-16)
(-16.2536 -0.347692 2.30431e-16)
(-16.2255 -0.395681 2.44665e-16)
(-16.1946 -0.450605 2.58375e-16)
(-16.1605 -0.513195 2.74825e-16)
(-16.5474 0.0341267 -2.03901e-16)
(-16.5491 0.0342687 -2.03885e-16)
(-16.549 0.0344272 -2.03757e-16)
(-16.5486 0.034573 -2.05652e-16)
(-16.548 0.0346937 -2.07223e-16)
(-16.5473 0.0347834 -2.06429e-16)
(-16.5467 0.0348379 -2.05876e-16)
(-16.546 0.0348532 -2.05544e-16)
(-16.5453 0.034825 -2.0536e-16)
(-16.5446 0.0347485 -2.0715e-16)
(-16.5439 0.0346179 -2.08788e-16)
(-16.5432 0.0344271 -2.08212e-16)
(-16.5425 0.0341685 -2.07873e-16)
(-16.5417 0.0338336 -2.08148e-16)
(-16.5409 0.0334135 -2.0822e-16)
(-16.5401 0.0328973 -2.1e-16)
(-16.5392 0.0322727 -2.11437e-16)
(-16.5383 0.0315259 -2.10749e-16)
(-16.5374 0.0306413 -2.10483e-16)
(-16.5364 0.0296004 -2.10531e-16)
(-16.5353 0.0283817 -2.10814e-16)
(-16.5342 0.0269608 -2.11271e-16)
(-16.533 0.0253094 -2.11878e-16)
(-16.5317 0.023395 -2.12613e-16)
(-16.5303 0.0211805 -2.13477e-16)
(-16.5288 0.0186232 -2.14568e-16)
(-16.5271 0.0156739 -2.13959e-16)
(-16.5253 0.0122765 -2.13987e-16)
(-16.5233 0.00836642 -2.16407e-16)
(-16.521 0.00386966 -2.18652e-16)
(-16.5186 -0.00129864 -2.20826e-16)
(-16.5158 -0.0072358 -2.23153e-16)
(-16.5127 -0.0140534 -2.23086e-16)
(-16.5091 -0.0218795 -2.24081e-16)
(-16.5052 -0.0308604 -2.28177e-16)
(-16.5007 -0.041164 -2.31774e-16)
(-16.4956 -0.052982 -2.35476e-16)
(-16.4899 -0.0665332 -2.39446e-16)
(-16.4833 -0.0820666 -2.43897e-16)
(-16.4759 -0.099865 -2.46047e-16)
(-16.4674 -0.120248 -2.50905e-16)
(-16.4578 -0.143575 -2.57696e-16)
(-16.4469 -0.170247 -2.62031e-16)
(-16.4346 -0.200707 -2.71061e-16)
(-16.4207 -0.23544 -2.82742e-16)
(-16.4052 -0.274964 -2.93487e-16)
(-16.388 -0.319813 -3.04505e-16)
(-16.369 -0.370508 -3.16893e-16)
(-16.3483 -0.427536 -3.35295e-16)
(-16.3257 -0.49137 -3.5844e-16)
(-16.5133 -0.022811 2.16591e-16)
(-16.5097 -0.0229097 2.18348e-16)
(-16.5084 -0.0230248 2.20222e-16)
(-16.5074 -0.0231548 2.20066e-16)
(-16.5066 -0.0232997 2.2022e-16)
(-16.5058 -0.0234605 2.22777e-16)
(-16.5049 -0.0236384 2.25111e-16)
(-16.5041 -0.0238351 2.27252e-16)
(-16.5033 -0.0240526 2.29352e-16)
(-16.5025 -0.0242935 2.29527e-16)
(-16.5017 -0.0245609 2.29862e-16)
(-16.5008 -0.0248594 2.32441e-16)
(-16.5 -0.0251942 2.34659e-16)
(-16.4991 -0.0255715 2.36612e-16)
(-16.4983 -0.0259992 2.38758e-16)
(-16.4974 -0.0264861 2.38341e-16)
(-16.4965 -0.0270433 2.38738e-16)
(-16.4955 -0.0276831 2.41916e-16)
(-16.4946 -0.0284201 2.44253e-16)
(-16.4936 -0.0292713 2.46306e-16)
(-16.4926 -0.0302565 2.48167e-16)
(-16.4915 -0.0313987 2.49891e-16)
(-16.4904 -0.0327248 2.51523e-16)
(-16.4893 -0.0342661 2.53076e-16)
(-16.488 -0.036059 2.54571e-16)
(-16.4867 -0.0381458 2.55901e-16)
(-16.4854 -0.040576 2.59663e-16)
(-16.4839 -0.0434069 2.62492e-16)
(-16.4823 -0.0467051 2.62495e-16)
(-16.4805 -0.050548 2.63289e-16)
(-16.4786 -0.0550251 2.64366e-16)
(-16.4765 -0.0602403 2.6554e-16)
(-16.4742 -0.0663137 2.68741e-16)
(-16.4716 -0.0733842 2.71581e-16)
(-16.4688 -0.081612 2.72291e-16)
(-16.4655 -0.0911814 2.73516e-16)
(-16.4619 -0.102304 2.75162e-16)
(-16.4579 -0.115223 2.77044e-16)
(-16.4532 -0.130215 2.81091e-16)
(-16.448 -0.147593 2.84125e-16)
(-16.442 -0.167712 2.85617e-16)
(-16.4353 -0.190967 2.90986e-16)
(-16.4276 -0.2178 2.96771e-16)
(-16.4188 -0.248688 3.01015e-16)
(-16.4089 -0.28415 3.08275e-16)
(-16.3977 -0.324728 3.14968e-16)
(-16.3851 -0.37097 3.23016e-16)
(-16.3711 -0.423399 3.34411e-16)
(-16.3556 -0.48248 3.4584e-16)
(-16.3382 -0.548654 3.61158e-16)
(-16.5219 0.0134001 -3.74695e-17)
(-16.5237 0.0134036 -3.62866e-17)
(-16.5236 0.0133865 -3.4988e-17)
(-16.5231 0.0133457 -3.5615e-17)
(-16.5224 0.0132795 -3.58639e-17)
(-16.5218 0.0131861 -3.36761e-17)
(-16.5211 0.0130628 -3.17001e-17)
(-16.5204 0.0129069 -2.98861e-17)
(-16.5197 0.0127148 -2.79816e-17)
(-16.519 0.0124826 -2.79781e-17)
(-16.5183 0.0122053 -2.76816e-17)
(-16.5176 0.0118776 -2.52763e-17)
(-16.5169 0.0114929 -2.31805e-17)
(-16.5162 0.0110439 -2.12955e-17)
(-16.5154 0.0105219 -1.94196e-17)
(-16.5147 0.00991665 -1.95326e-17)
(-16.5139 0.00921623 -1.92032e-17)
(-16.5131 0.00840685 -1.67146e-17)
(-16.5123 0.00747248 -1.46422e-17)
(-16.5115 0.00639454 -1.2891e-17)
(-16.5107 0.00515151 -1.13749e-17)
(-16.5098 0.00371851 -1.00412e-17)
(-16.5089 0.00206679 -8.8782e-18)
(-16.508 0.000163145 -7.85365e-18)
(-16.5071 -0.00203079 -6.99644e-18)
(-16.5061 -0.00455932 -6.37746e-18)
(-16.5051 -0.00747357 -4.11955e-18)
(-16.504 -0.0108326 -2.52453e-18)
(-16.5029 -0.0147045 -3.37765e-18)
(-16.5017 -0.0191678 -4.05955e-18)
(-16.5004 -0.0243131 -4.73444e-18)
(-16.499 -0.0302449 -5.56975e-18)
(-16.4976 -0.0370831 -4.7332e-18)
(-16.496 -0.0449663 -4.61374e-18)
(-16.4943 -0.0540532 -7.09131e-18)
(-16.4925 -0.0645261 -9.54933e-18)
(-16.4904 -0.0765938 -1.21917e-17)
(-16.4882 -0.0904945 -1.51914e-17)
(-16.4857 -0.106499 -1.86106e-17)
(-16.4829 -0.124915 -2.15613e-17)
(-16.4798 -0.146086 -2.59463e-17)
(-16.4763 -0.1704 -3.04952e-17)
(-16.4724 -0.198279 -3.62395e-17)
(-16.4679 -0.230188 -4.57135e-17)
(-16.4627 -0.266619 -5.62548e-17)
(-16.4568 -0.308086 -6.76486e-17)
(-16.4501 -0.355098 -7.98275e-17)
(-16.4424 -0.408125 -9.61218e-17)
(-16.4336 -0.467561 -1.20486e-16)
(-16.4232 -0.533743 -1.49774e-16)
(-16.5258 -0.00487648 3.27573e-16)
(-16.5223 -0.00485034 3.2999e-16)
(-16.5211 -0.0048274 3.32423e-16)
(-16.5203 -0.00482004 3.32964e-16)
(-16.5195 -0.0048333 3.34006e-16)
(-16.5188 -0.00486999 3.37437e-16)
(-16.5181 -0.00493268 3.40734e-16)
(-16.5174 -0.0050243 3.43938e-16)
(-16.5168 -0.00514839 3.47234e-16)
(-16.5161 -0.00530919 3.48023e-16)
(-16.5154 -0.00551175 3.49673e-16)
(-16.5147 -0.00576203 3.54171e-16)
(-16.514 -0.00606693 3.5795e-16)
(-16.5134 -0.00643447 3.6161e-16)
(-16.5127 -0.00687391 3.65286e-16)
(-16.5121 -0.00739601 3.67111e-16)
(-16.5114 -0.00801315 3.69443e-16)
(-16.5108 -0.00873966 3.7405e-16)
(-16.5102 -0.00959204 3.78346e-16)
(-16.5096 -0.0105894 3.82451e-16)
(-16.509 -0.0117536 3.86462e-16)
(-16.5084 -0.0131103 3.90424e-16)
(-16.5079 -0.0146885 3.94406e-16)
(-16.5074 -0.0165223 3.98396e-16)
(-16.5069 -0.0186506 4.02466e-16)
(-16.5064 -0.0211186 4.06466e-16)
(-16.5059 -0.0239782 4.1245e-16)
(-16.5055 -0.0272895 4.17976e-16)
(-16.5052 -0.031122 4.21402e-16)
(-16.5048 -0.0355555 4.25298e-16)
(-16.5045 -0.0406825 4.29698e-16)
(-16.5043 -0.0466095 4.34339e-16)
(-16.5041 -0.0534593 4.41324e-16)
(-16.504 -0.0613735 4.48177e-16)
(-16.504 -0.0705151 4.5327e-16)
(-16.504 -0.0810716 4.5924e-16)
(-16.5042 -0.093258 4.66158e-16)
(-16.5044 -0.107321 4.73838e-16)
(-16.5047 -0.123542 4.84456e-16)
(-16.5051 -0.14224 4.94797e-16)
(-16.5056 -0.163778 5.04489e-16)
(-16.5061 -0.188561 5.19448e-16)
(-16.5068 -0.21704 5.36237e-16)
(-16.5074 -0.249709 5.53061e-16)
(-16.5081 -0.287099 5.75204e-16)
(-16.5086 -0.329769 5.9957e-16)
(-16.509 -0.378284 6.28963e-16)
(-16.5091 -0.433181 6.66149e-16)
(-16.5087 -0.49493 7.08611e-16)
(-16.5075 -0.563942 7.58856e-16)
(-16.4909 -0.00696205 -5.09496e-16)
(-16.4926 -0.00707718 -5.10501e-16)
(-16.4924 -0.00723533 -5.11364e-16)
(-16.4919 -0.00742065 -5.14131e-16)
(-16.4913 -0.007626 -5.16343e-16)
(-16.4906 -0.00784985 -5.16138e-16)
(-16.49 -0.0080927 -5.16186e-16)
(-16.4893 -0.00835609 -5.16381e-16)
(-16.4886 -0.0086423 -5.16543e-16)
(-16.4879 -0.00895427 -5.18568e-16)
(-16.4872 -0.00929564 -5.20044e-16)
(-16.4866 -0.00967079 -5.19234e-16)
(-16.4859 -0.010085 -5.18737e-16)
(-16.4852 -0.0105445 -5.18437e-16)
(-16.4846 -0.0110567 -5.18122e-16)
(-16.4839 -0.0116304 -5.1971e-16)
(-16.4833 -0.0122758 -5.20814e-16)
(-16.4827 -0.0130052 -5.19724e-16)
(-16.4821 -0.0138328 -5.19022e-16)
(-16.4815 -0.0147752 -5.18616e-16)
(-16.481 -0.0158521 -5.18445e-16)
(-16.4804 -0.0170861 -5.18451e-16)
(-16.48 -0.0185041 -5.18667e-16)
(-16.4795 -0.0201371 -5.1905e-16)
(-16.4791 -0.0220214 -5.19698e-16)
(-16.4788 -0.0241993 -5.20668e-16)
(-16.4785 -0.0267202 -5.20132e-16)
(-16.4782 -0.0296414 -5.20435e-16)
(-16.4781 -0.0330296 -5.23524e-16)
(-16.4781 -0.0369624 -5.26655e-16)
(-16.4781 -0.04153 -5.302e-16)
(-16.4783 -0.0468369 -5.34286e-16)
(-16.4787 -0.0530044 -5.3726e-16)
(-16.4792 -0.060173 -5.41513e-16)
(-16.4799 -0.0685051 -5.49151e-16)
(-16.4809 -0.0781882 -5.57533e-16)
(-16.4821 -0.0894384 -5.6713e-16)
(-16.4835 -0.102504 -5.78172e-16)
(-16.4853 -0.117669 -5.90986e-16)
(-16.4874 -0.135258 -6.04803e-16)
(-16.4899 -0.155639 -6.21935e-16)
(-16.4928 -0.179223 -6.41301e-16)
(-16.496 -0.206472 -6.64375e-16)
(-16.4997 -0.237892 -6.94124e-16)
(-16.5036 -0.274029 -7.28456e-16)
(-16.5077 -0.315459 -7.67842e-16)
(-16.5119 -0.362769 -8.13025e-16)
(-16.5159 -0.416521 -8.68519e-16)
(-16.5192 -0.477206 -9.39943e-16)
(-16.5215 -0.545209 -1.02603e-15)
(-16.5366 0.0122348 9.51278e-16)
(-16.5334 0.0123873 9.54434e-16)
(-16.5323 0.0125526 9.57582e-16)
(-16.5316 0.0127057 9.58306e-16)
(-16.531 0.0128368 9.60089e-16)
(-16.5304 0.0129414 9.64786e-16)
(-16.5298 0.0130162 9.68838e-16)
(-16.5292 0.0130574 9.72775e-16)
(-16.5287 0.0130607 9.76839e-16)
(-16.5281 0.0130212 9.79092e-16)
(-16.5276 0.0129329 9.82018e-16)
(-16.5271 0.0127892 9.87323e-16)
(-16.5266 0.0125826 9.92402e-16)
(-16.5261 0.0123043 9.97422e-16)
(-16.5256 0.0119443 1.00258e-15)
(-16.5252 0.0114914 1.00601e-15)
(-16.5248 0.0109324 1.01012e-15)
(-16.5245 0.0102525 1.01672e-15)
(-16.5241 0.00943462 1.02315e-15)
(-16.5239 0.00845922 1.02959e-15)
(-16.5237 0.00730392 1.03614e-15)
(-16.5236 0.00594307 1.04287e-15)
(-16.5235 0.00434726 1.04986e-15)
(-16.5236 0.00248276 1.05711e-15)
(-16.5237 0.000310861 1.06471e-15)
(-16.524 -0.00221287 1.0725e-15)
(-16.5244 -0.00513947 1.0826e-15)
(-16.525 -0.00852755 1.09249e-15)
(-16.5258 -0.0124445 1.10063e-15)
(-16.5268 -0.0169677 1.10958e-15)
(-16.5281 -0.0221864 1.11943e-15)
(-16.5297 -0.028203 1.12989e-15)
(-16.5316 -0.0351356 1.14313e-15)
(-16.5339 -0.04312 1.15667e-15)
(-16.5366 -0.0523127 1.16903e-15)
(-16.5399 -0.0628939 1.18282e-15)
(-16.5437 -0.0750711 1.19824e-15)
(-16.5483 -0.0890829 1.21513e-15)
(-16.5535 -0.105204 1.23587e-15)
(-16.5596 -0.12375 1.25727e-15)
(-16.5667 -0.145082 1.2792e-15)
(-16.5748 -0.169612 1.30775e-15)
(-16.5841 -0.197809 1.33988e-15)
(-16.5945 -0.230203 1.37407e-15)
(-16.6062 -0.26738 1.41616e-15)
(-16.6193 -0.309984 1.46352e-15)
(-16.6335 -0.358705 1.51974e-15)
(-16.6487 -0.414252 1.58839e-15)
(-16.6647 -0.477307 1.66792e-15)
(-16.6811 -0.548446 1.76462e-15)
(-16.4412 -0.0256699 -7.87015e-16)
(-16.4426 -0.0259352 -7.8992e-16)
(-16.4423 -0.0262727 -7.92777e-16)
(-16.4418 -0.0266451 -7.97438e-16)
(-16.4411 -0.0270359 -8.01506e-16)
(-16.4404 -0.0274404 -8.03147e-16)
(-16.4397 -0.027858 -8.05088e-16)
(-16.439 -0.0282897 -8.0713e-16)
(-16.4383 -0.0287374 -8.09149e-16)
(-16.4376 -0.0292036 -8.12951e-16)
(-16.4369 -0.0296911 -8.16135e-16)
(-16.4362 -0.0302036 -8.16978e-16)
(-16.4356 -0.0307454 -8.18097e-16)
(-16.435 -0.0313215 -8.19365e-16)
(-16.4344 -0.031938 -8.20558e-16)
(-16.4339 -0.0326019 -8.2364e-16)
(-16.4333 -0.0333216 -8.26118e-16)
(-16.4329 -0.0341072 -8.26283e-16)
(-16.4325 -0.0349702 -8.26771e-16)
(-16.4321 -0.0359245 -8.27502e-16)
(-16.4318 -0.0369864 -8.28363e-16)
(-16.4316 -0.0381747 -8.29351e-16)
(-16.4315 -0.039512 -8.30444e-16)
(-16.4315 -0.0410245 -8.31656e-16)
(-16.4316 -0.0427427 -8.33043e-16)
(-16.4319 -0.0447027 -8.34705e-16)
(-16.4323 -0.0469467 -8.34751e-16)
(-16.4329 -0.0495237 -8.35867e-16)
(-16.4338 -0.0524913 -8.39881e-16)
(-16.4348 -0.0559169 -8.43885e-16)
(-16.4362 -0.0598789 -8.48385e-16)
(-16.4379 -0.0644694 -8.53622e-16)
(-16.44 -0.0697955 -8.57911e-16)
(-16.4426 -0.0759829 -8.63795e-16)
(-16.4456 -0.083178 -8.73429e-16)
(-16.4493 -0.0915523 -8.84258e-16)
(-16.4535 -0.101306 -8.96874e-16)
(-16.4586 -0.112673 -9.11658e-16)
(-16.4645 -0.125928 -9.29151e-16)
(-16.4713 -0.14139 -9.48766e-16)
(-16.4793 -0.159431 -9.73055e-16)
(-16.4884 -0.180485 -1.00115e-15)
(-16.4988 -0.205055 -1.03506e-15)
(-16.5105 -0.233721 -1.0779e-15)
(-16.5236 -0.267145 -1.1283e-15)
(-16.5381 -0.306059 -1.18725e-15)
(-16.5537 -0.351272 -1.25633e-15)
(-16.5703 -0.403653 -1.34107e-15)
(-16.5871 -0.464076 -1.44807e-15)
(-16.6032 -0.533268 -1.57782e-15)
(-16.5519 0.0271527 1.65001e-15)
(-16.5494 0.0274537 1.65501e-15)
(-16.5486 0.0278047 1.65997e-15)
(-16.5481 0.0281647 1.66305e-15)
(-16.5477 0.0285166 1.66676e-15)
(-16.5473 0.0288536 1.6728e-15)
(-16.5469 0.0291713 1.67862e-15)
(-16.5465 0.0294657 1.68432e-15)
(-16.5462 0.0297324 1.69016e-15)
(-16.5458 0.0299668 1.6943e-15)
(-16.5455 0.0301635 1.69918e-15)
(-16.5452 0.0303167 1.70655e-15)
(-16.5449 0.0304196 1.71376e-15)
(-16.5447 0.0304646 1.72105e-15)
(-16.5445 0.0304431 1.72854e-15)
(-16.5444 0.030345 1.73444e-15)
(-16.5443 0.0301591 1.74111e-15)
(-16.5443 0.0298723 1.75041e-15)
(-16.5443 0.0294695 1.7596e-15)
(-16.5445 0.0289338 1.76893e-15)
(-16.5447 0.0282453 1.77845e-15)
(-16.5451 0.0273813 1.78832e-15)
(-16.5455 0.026316 1.79855e-15)
(-16.5462 0.0250192 1.80924e-15)
(-16.547 0.0234566 1.82043e-15)
(-16.5481 0.0215884 1.83208e-15)
(-16.5494 0.0193689 1.84623e-15)
(-16.551 0.0167454 1.86047e-15)
(-16.5529 0.0136571 1.87319e-15)
(-16.5552 0.0100339 1.8871e-15)
(-16.558 0.00579468 1.90222e-15)
(-16.5612 0.000845853 1.91842e-15)
(-16.5651 -0.00492088 1.93792e-15)
(-16.5697 -0.0116309 1.95841e-15)
(-16.575 -0.0194294 1.97841e-15)
(-16.5813 -0.0284849 2.00089e-15)
(-16.5887 -0.038993 2.0261e-15)
(-16.5973 -0.051181 2.05416e-15)
(-16.6074 -0.0653137 2.08757e-15)
(-16.619 -0.0816995 2.12351e-15)
(-16.6325 -0.100698 2.16217e-15)
(-16.6481 -0.122729 2.20983e-15)
(-16.6661 -0.148284 2.26396e-15)
(-16.6867 -0.177939 2.32341e-15)
(-16.7101 -0.212362 2.39501e-15)
(-16.7367 -0.252315 2.47645e-15)
(-16.7664 -0.298667 2.57259e-15)
(-16.7992 -0.352441 2.68837e-15)
(-16.8349 -0.414826 2.82387e-15)
(-16.8727 -0.48696 2.9866e-15)
(-16.3227 -0.0409738 -1.89502e-15)
(-16.3235 -0.0414668 -1.90582e-15)
(-16.323 -0.0420515 -1.91694e-15)
(-16.3223 -0.042679 -1.93023e-15)
(-16.3215 -0.0433257 -1.9433e-15)
(-16.3206 -0.0439871 -1.95432e-15)
(-16.3198 -0.0446639 -1.96603e-15)
(-16.3189 -0.0453584 -1.9783e-15)
(-16.3181 -0.0460731 -1.9909e-15)
(-16.3173 -0.0468112 -2.00579e-15)
(-16.3165 -0.0475758 -2.0203e-15)
(-16.3158 -0.0483705 -2.03279e-15)
(-16.3151 -0.0491997 -2.04577e-15)
(-16.3144 -0.0500679 -2.0592e-15)
(-16.3138 -0.0509806 -2.07264e-15)
(-16.3132 -0.0519443 -2.08819e-15)
(-16.3127 -0.0529662 -2.10305e-15)
(-16.3122 -0.054055 -2.11556e-15)
(-16.3119 -0.0552206 -2.1283e-15)
(-16.3116 -0.0564747 -2.14121e-15)
(-16.3115 -0.0578306 -2.15407e-15)
(-16.3114 -0.0593042 -2.16691e-15)
(-16.3116 -0.0609136 -2.1796e-15)
(-16.3119 -0.06268 -2.19223e-15)
(-16.3123 -0.0646282 -2.2047e-15)
(-16.3131 -0.0667867 -2.21718e-15)
(-16.314 -0.0691889 -2.22761e-15)
(-16.3153 -0.0718733 -2.23861e-15)
(-16.3169 -0.0748851 -2.25208e-15)
(-16.319 -0.0782764 -2.26539e-15)
(-16.3214 -0.0821082 -2.27898e-15)
(-16.3245 -0.0864515 -2.29328e-15)
(-16.3281 -0.0913889 -2.30662e-15)
(-16.3324 -0.0970171 -2.32184e-15)
(-16.3376 -0.103449 -2.34128e-15)
(-16.3437 -0.110819 -2.36247e-15)
(-16.3508 -0.119282 -2.38619e-15)
(-16.3592 -0.129025 -2.41296e-15)
(-16.369 -0.140268 -2.44341e-15)
(-16.3804 -0.153276 -2.47727e-15)
(-16.3936 -0.168368 -2.51704e-15)
(-16.4088 -0.185932 -2.56222e-15)
(-16.4264 -0.206443 -2.61505e-15)
(-16.4465 -0.230493 -2.67928e-15)
(-16.4692 -0.258822 -2.75364e-15)
(-16.4949 -0.292335 -2.84024e-15)
(-16.5234 -0.33214 -2.94133e-15)
(-16.5548 -0.379671 -3.06378e-15)
(-16.5884 -0.436835 -3.2152e-15)
(-16.6226 -0.505679 -3.39777e-15)
(-16.5063 0.0380032 2.30994e-15)
(-16.5053 0.0383987 2.32331e-15)
(-16.5053 0.0389342 2.33729e-15)
(-16.5054 0.0395271 2.3498e-15)
(-16.5057 0.0401446 2.36343e-15)
(-16.506 0.0407729 2.37998e-15)
(-16.5063 0.041405 2.39667e-15)
(-16.5066 0.0420365 2.41376e-15)
(-16.5069 0.0426641 2.43128e-15)
(-16.5073 0.0432845 2.44745e-15)
(-16.5077 0.0438946 2.46461e-15)
(-16.5081 0.0444908 2.48467e-15)
(-16.5086 0.0450693 2.50466e-15)
(-16.5092 0.0456257 2.52495e-15)
(-16.5098 0.0461549 2.54557e-15)
(-16.5104 0.046651 2.56467e-15)
(-16.5112 0.0471073 2.58473e-15)
(-16.512 0.0475158 2.60765e-15)
(-16.513 0.0478674 2.63054e-15)
(-16.5141 0.0481513 2.65373e-15)
(-16.5153 0.0483552 2.6773e-15)
(-16.5167 0.0484645 2.70141e-15)
(-16.5183 0.0484624 2.72609e-15)
(-16.5201 0.0483292 2.75146e-15)
(-16.5222 0.048042 2.77756e-15)
(-16.5245 0.0475743 2.80442e-15)
(-16.5273 0.0468949 2.83418e-15)
(-16.5304 0.0459676 2.86446e-15)
(-16.534 0.0447501 2.89362e-15)
(-16.5382 0.0431929 2.92468e-15)
(-16.543 0.0412381 2.95757e-15)
(-16.5485 0.0388178 2.99233e-15)
(-16.5549 0.0358522 3.03108e-15)
(-16.5623 0.0322472 3.07142e-15)
(-16.5708 0.0278919 3.11146e-15)
(-16.5806 0.0226544 3.15414e-15)
(-16.592 0.0163779 3.19923e-15)
(-16.6052 0.00887432 3.24655e-15)
(-16.6205 -8.27843e-05 3.29815e-15)
(-16.6381 -0.0107684 3.35059e-15)
(-16.6586 -0.0235184 3.40336e-15)
(-16.6823 -0.0387459 3.46264e-15)
(-16.7097 -0.0569637 3.52501e-15)
(-16.7414 -0.0788193 3.58877e-15)
(-16.778 -0.105137 3.6602e-15)
(-16.8202 -0.136937 3.73604e-15)
(-16.8686 -0.175439 3.82078e-15)
(-16.9243 -0.22217 3.91751e-15)
(-16.9876 -0.279325 4.02514e-15)
(-17.0571 -0.349703 4.15119e-15)
(-15.723 -0.0499811 -3.93855e-16)
(-15.7233 -0.0508574 -4.02807e-16)
(-15.7229 -0.0516926 -4.12257e-16)
(-15.7223 -0.0525531 -4.24337e-16)
(-15.7217 -0.0534294 -4.36149e-16)
(-15.721 -0.0543246 -4.45694e-16)
(-15.7204 -0.0552425 -4.5626e-16)
(-15.7198 -0.0561868 -4.6746e-16)
(-15.7192 -0.0571612 -4.79101e-16)
(-15.7187 -0.0581693 -4.93432e-16)
(-15.7181 -0.0592149 -5.07413e-16)
(-15.7176 -0.0603019 -5.19274e-16)
(-15.7172 -0.0614347 -5.32173e-16)
(-15.7168 -0.0626183 -5.4583e-16)
(-15.7164 -0.0638581 -5.59972e-16)
(-15.7162 -0.0651603 -5.76964e-16)
(-15.716 -0.0665319 -5.93715e-16)
(-15.7159 -0.067981 -6.08428e-16)
(-15.7159 -0.0695168 -6.24396e-16)
(-15.716 -0.0711497 -6.41303e-16)
(-15.7163 -0.0728917 -6.59057e-16)