/*--------------------------------*- C++ -*----------------------------------*\
  =========                 |
  \\      /  F ield         | OpenFOAM: The Open Source CFD Toolbox
   \\    /   O peration     | Website:  https://openfoam.org
    \\  /    A nd           | Version:  8
     \\/     M anipulation  |
\*---------------------------------------------------------------------------*/
FoamFile
{
    version     2.0;
    format      ascii;
    class       volScalarField;
    location    "100";
    object      alphat;
}
// * * * * * * * * * * * * * * * * * * * * * * * * * * * * * * * * * * * * * //

dimensions      [1 -1 -1 0 0 0 0];

internalField   nonuniform List<scalar> 
1200
(
0.200896
0.184964
0.171673
0.160443
0.150844
0.142558
0.135346
0.129022
0.12344
0.118484
0.11406
0.110092
0.106518
0.103286
0.100352
0.0976795
0.0952383
0.0930018
0.0909473
0.0890556
0.0873096
0.0856949
0.0841985
0.0828093
0.0815174
0.080314
0.0791914
0.0781426
0.0771615
0.0762426
0.075381
0.0745721
0.0738119
0.0730968
0.0724235
0.0717889
0.0711904
0.0706254
0.0700916
0.0695869
0.0691095
0.0686575
0.0682294
0.0678237
0.0674389
0.0670739
0.0667275
0.0663986
0.0660863
0.0657896
0.0655076
0.0652398
0.0649852
0.0647433
0.0645135
0.0642953
0.0640881
0.0638915
0.063705
0.0635242
0.116417
0.0999854
0.0873805
0.0774656
0.0694967
0.0629667
0.0575293
0.0529391
0.049017
0.0456311
0.0426815
0.0400904
0.0377978
0.0357563
0.0339277
0.0322814
0.0307924
0.02944
0.0282065
0.0270775
0.0260409
0.0250858
0.0242034
0.0233861
0.0226271
0.0219206
0.0212615
0.0206455
0.0200685
0.0195271
0.0190184
0.0185394
0.0180879
0.0176617
0.0172589
0.0168776
0.0165163
0.0161736
0.015848
0.0155384
0.0152437
0.014963
0.0146951
0.0144392
0.0141946
0.0139605
0.0137363
0.0135214
0.0133149
0.0131165
0.0129257
0.012742
0.0125651
0.0123946
0.0122302
0.0120714
0.0119182
0.0117699
0.0116252
0.0114814
0.11639
0.0998144
0.0870862
0.0770521
0.0689696
0.0623388
0.0568127
0.0521442
0.0481534
0.0447065
0.041702
0.0390619
0.0367252
0.0346435
0.032778
0.0310975
0.0295762
0.0281929
0.02693
0.0257728
0.0247089
0.0237275
0.0228196
0.0219774
0.0211941
0.0204639
0.0197816
0.0191428
0.0185435
0.0179802
0.0174499
0.0169497
0.0164773
0.0160304
0.0156071
0.0152057
0.0148244
0.0144619
0.0141169
0.0137881
0.0134745
0.0131752
0.0128891
0.0126155
0.0123536
0.0121028
0.0118623
0.0116317
0.0114103
0.0111977
0.0109935
0.0107971
0.0106082
0.0104265
0.0102515
0.010083
0.00992071
0.00976423
0.00961326
0.00946728
0.11639
0.0998535
0.08715
0.0771326
0.0690587
0.0624307
0.0569036
0.0522318
0.0482364
0.0447843
0.0417744
0.039129
0.0367871
0.0347005
0.0328304
0.0311456
0.0296203
0.0282334
0.0269672
0.0258068
0.0247397
0.0237554
0.0228447
0.0219997
0.0212138
0.020481
0.0197963
0.019155
0.0185533
0.0179876
0.0174549
0.0169524
0.0164776
0.0160284
0.0156027
0.0151988
0.0148151
0.0144501
0.0141025
0.0137711
0.0134548
0.0131526
0.0128636
0.012587
0.012322
0.0120679
0.0118241
0.0115899
0.0113649
0.0111484
0.0109401
0.0107395
0.0105462
0.0103598
0.0101799
0.0100063
0.00983865
0.00967663
0.00951999
0.00936847
0.11639
0.0998533
0.0871438
0.0771204
0.0690415
0.0624102
0.0568814
0.0522091
0.048214
0.0447629
0.0417543
0.0391103
0.0367699
0.0346847
0.0328161
0.0311327
0.0296087
0.0282229
0.0269577
0.0257983
0.0247322
0.0237487
0.0228387
0.0219944
0.0212091
0.0204768
0.0197925
0.0191517
0.0185504
0.0179851
0.0174527
0.0169505
0.0164759
0.0160269
0.0156015
0.0151977
0.0148141
0.0144493
0.0141018
0.0137705
0.0134542
0.0131521
0.0128632
0.0125866
0.0123216
0.0120675
0.0118236
0.0115894
0.0113643
0.0111477
0.0109393
0.0107385
0.010545
0.0103584
0.0101783
0.0100045
0.00983651
0.00967414
0.00951709
0.00936514
0.11639
0.0998534
0.0871437
0.0771202
0.0690416
0.0624102
0.0568813
0.0522091
0.0482141
0.044763
0.0417544
0.0391104
0.03677
0.0346848
0.0328163
0.0311328
0.0296088
0.028223
0.0269578
0.0257984
0.0247322
0.0237487
0.0228387
0.0219944
0.0212091
0.0204768
0.0197926
0.0191517
0.0185504
0.0179851
0.0174527
0.0169505
0.0164759
0.0160269
0.0156015
0.0151977
0.0148141
0.0144493
0.0141018
0.0137704
0.0134542
0.0131521
0.0128632
0.0125866
0.0123216
0.0120675
0.0118236
0.0115894
0.0113643
0.0111478
0.0109394
0.0107386
0.0105451
0.0103585
0.0101784
0.0100046
0.0098366
0.00967424
0.00951722
0.0093653
0.11639
0.0998535
0.0871499
0.0771324
0.0690586
0.0624306
0.0569036
0.0522318
0.0482365
0.0447845
0.0417747
0.0391293
0.0367874
0.0347009
0.0328309
0.0311461
0.0296209
0.028234
0.0269677
0.0258074
0.0247403
0.023756
0.0228453
0.0220004
0.0212145
0.0204817
0.0197969
0.0191557
0.018554
0.0179883
0.0174556
0.0169531
0.0164783
0.016029
0.0156033
0.0151994
0.0148156
0.0144506
0.0141029
0.0137715
0.0134551
0.0131529
0.0128638
0.0125871
0.0123221
0.0120679
0.0118239
0.0115896
0.0113644
0.0111478
0.0109394
0.0107385
0.010545
0.0103583
0.0101782
0.0100043
0.0098363
0.00967391
0.00951687
0.00936492
0.11639
0.0998144
0.0870862
0.077052
0.0689694
0.0623387
0.0568126
0.0521442
0.0481534
0.0447066
0.0417022
0.0390622
0.0367255
0.0346439
0.0327785
0.0310979
0.0295766
0.0281934
0.0269305
0.0257733
0.0247091
0.0237274
0.0228191
0.0219764
0.0211926
0.0204617
0.0197787
0.0191391
0.0185389
0.0179747
0.0174433
0.016942
0.0164684
0.0160203
0.0155956
0.0151927
0.0148099
0.0144457
0.0140989
0.0137683
0.0134527
0.0131512
0.0128629
0.0125869
0.0123225
0.0120689
0.0118256
0.0115919
0.0113673
0.0111513
0.0109433
0.0107431
0.01055
0.0103639
0.0101843
0.0100108
0.00984329
0.00968132
0.00952466
0.00937307
0.116417
0.0999857
0.0873806
0.0774653
0.0694957
0.0629661
0.0575288
0.0529385
0.0490175
0.0456326
0.0426834
0.0400936
0.037803
0.035764
0.0339382
0.0322947
0.0308084
0.0294583
0.0282269
0.0270995
0.0260637
0.0251092
0.024227
0.0234094
0.0226498
0.0219425
0.0212825
0.0206653
0.020087
0.0195442
0.019034
0.0185537
0.0181009
0.0176736
0.0172698
0.0168877
0.0165257
0.0161826
0.015857
0.0155478
0.0152538
0.0149741
0.0147078
0.0144541
0.0142123
0.0139814
0.0137609
0.0135503
0.0133487
0.0131558
0.0129712
0.0127944
0.012625
0.0124626
0.0123068
0.0121572
0.0120136
0.0118753
0.0117408
0.0115963
0.200897
0.184964
0.171673
0.160443
0.150844
0.142558
0.135346
0.129022
0.12344
0.118484
0.11406
0.110093
0.106519
0.103287
0.100353
0.0976809
0.0952399
0.0930034
0.0909491
0.0890574
0.0873115
0.0856968
0.0842005
0.0828113
0.0815194
0.080316
0.0791933
0.0781446
0.0771635
0.0762446
0.0753829
0.074574
0.0738137
0.0730986
0.0724252
0.0717906
0.071192
0.070627
0.0700931
0.0695885
0.069111
0.0686591
0.0682309
0.0678252
0.0674404
0.0670754
0.066729
0.0664001
0.0660878
0.065791
0.0655091
0.0652411
0.0649864
0.0647443
0.0645143
0.0642956
0.0640879
0.0638907
0.0637034
0.0635261
0.200897
0.184965
0.171674
0.160443
0.150844
0.142558
0.135345
0.129021
0.123439
0.118483
0.114059
0.110091
0.106517
0.103285
0.100351
0.0976789
0.0952378
0.0930015
0.0909472
0.0890555
0.0873096
0.085695
0.0841987
0.0828094
0.0815175
0.0803141
0.0791915
0.0781427
0.0771616
0.0762427
0.0753811
0.0745721
0.073812
0.0730968
0.0724235
0.071789
0.0711905
0.0706255
0.0700918
0.0695872
0.0691098
0.0686579
0.0682299
0.0678242
0.0674396
0.0670747
0.0667283
0.0663996
0.0660874
0.0657908
0.0655091
0.0652415
0.0649872
0.0647456
0.0645162
0.0642983
0.0640915
0.0638954
0.0637095
0.0635318
0.116417
0.0999855
0.0873758
0.0774555
0.0694813
0.0629495
0.0575114
0.0529212
0.0490012
0.045618
0.042671
0.0400837
0.0377954
0.0357584
0.0339346
0.0322926
0.0308071
0.029457
0.0282254
0.0270974
0.0260606
0.0251049
0.0242216
0.0234027
0.0226418
0.0219334
0.0212724
0.0206544
0.0200756
0.0195324
0.0190221
0.0185418
0.0180892
0.0176622
0.0172588
0.0168773
0.016516
0.0161735
0.0158486
0.0155397
0.015246
0.0149662
0.0146995
0.0144451
0.014202
0.0139693
0.0137465
0.0135327
0.0133276
0.0131305
0.0129405
0.0127574
0.0125808
0.01241
0.0122448
0.0120849
0.0119299
0.0117788
0.0116304
0.0114756
0.11639
0.0998141
0.0870859
0.0770518
0.0689691
0.0623383
0.0568122
0.0521437
0.0481529
0.044706
0.0417016
0.0390616
0.0367249
0.0346432
0.0327778
0.0310973
0.029576
0.0281927
0.0269298
0.0257726
0.0247085
0.023727
0.022819
0.0219766
0.0211931
0.0204626
0.0197801
0.019141
0.0185415
0.0179779
0.0174472
0.0169468
0.016474
0.0160269
0.0156033
0.0152015
0.0148199
0.0144571
0.0141118
0.0137827
0.0134688
0.0131691
0.0128827
0.0126088
0.0123466
0.0120954
0.0118547
0.0116237
0.0114021
0.0111891
0.0109845
0.0107878
0.0105986
0.0104165
0.0102412
0.0100723
0.00990965
0.0097528
0.00960145
0.00945511
0.11639
0.099853
0.0871496
0.0771323
0.0690586
0.0624306
0.0569034
0.0522317
0.0482364
0.0447843
0.0417745
0.0391291
0.0367871
0.0347005
0.0328305
0.0311457
0.0296204
0.0282334
0.0269672
0.0258068
0.0247397
0.0237554
0.0228447
0.0219997
0.0212138
0.020481
0.0197962
0.019155
0.0185532
0.0179876
0.0174549
0.0169523
0.0164776
0.0160283
0.0156027
0.0151987
0.014815
0.01445
0.0141024
0.0137709
0.0134546
0.0131524
0.0128635
0.0125868
0.0123218
0.0120677
0.0118239
0.0115897
0.0113646
0.0111481
0.0109397
0.0107391
0.0105457
0.0103592
0.0101793
0.0100057
0.00983793
0.00967583
0.00951911
0.00936751
0.11639
0.0998534
0.0871436
0.0771199
0.0690412
0.0624098
0.056881
0.0522088
0.0482138
0.0447627
0.0417542
0.0391101
0.0367697
0.0346846
0.0328161
0.0311326
0.0296086
0.0282228
0.0269577
0.0257982
0.0247321
0.0237486
0.0228386
0.0219943
0.021209
0.0204767
0.0197924
0.0191516
0.0185503
0.017985
0.0174526
0.0169504
0.0164758
0.0160268
0.0156014
0.0151976
0.0148141
0.0144492
0.0141017
0.0137704
0.0134542
0.013152
0.0128631
0.0125865
0.0123215
0.0120674
0.0118236
0.0115894
0.0113642
0.0111477
0.0109393
0.0107385
0.010545
0.0103584
0.0101783
0.0100044
0.00983642
0.00967405
0.00951703
0.00936509
0.11639
0.0998532
0.0871434
0.0771199
0.069041
0.0624098
0.056881
0.0522087
0.0482138
0.0447627
0.0417541
0.0391101
0.0367698
0.0346847
0.0328161
0.0311326
0.0296086
0.0282229
0.0269577
0.0257983
0.0247321
0.0237486
0.0228386
0.0219944
0.021209
0.0204768
0.0197925
0.0191516
0.0185503
0.017985
0.0174526
0.0169504
0.0164758
0.0160268
0.0156014
0.0151976
0.0148141
0.0144492
0.0141017
0.0137704
0.0134541
0.013152
0.0128631
0.0125865
0.0123215
0.0120674
0.0118235
0.0115893
0.0113642
0.0111477
0.0109392
0.0107385
0.010545
0.0103583
0.0101783
0.0100044
0.00983642
0.00967405
0.00951703
0.00936509
0.11639
0.099853
0.0871498
0.0771325
0.0690587
0.0624308
0.0569036
0.0522318
0.0482366
0.0447845
0.0417746
0.0391293
0.0367874
0.0347008
0.0328308
0.031146
0.0296208
0.0282339
0.0269677
0.0258073
0.0247403
0.023756
0.0228453
0.0220004
0.0212145
0.0204817
0.0197969
0.0191556
0.0185539
0.0179883
0.0174556
0.016953
0.0164783
0.016029
0.0156033
0.0151994
0.0148156
0.0144506
0.0141029
0.0137715
0.0134551
0.0131529
0.0128638
0.0125871
0.0123221
0.0120679
0.0118239
0.0115897
0.0113645
0.0111479
0.0109394
0.0107386
0.0105451
0.0103584
0.0101783
0.0100044
0.00983643
0.00967404
0.00951698
0.00936503
0.11639
0.0998141
0.0870859
0.0770518
0.0689693
0.0623385
0.0568123
0.0521439
0.0481531
0.0447063
0.0417019
0.039062
0.0367253
0.0346437
0.0327783
0.0310978
0.0295766
0.0281933
0.0269305
0.0257732
0.024709
0.0237273
0.0228191
0.0219764
0.0211925
0.0204616
0.0197786
0.019139
0.0185388
0.0179746
0.0174432
0.0169419
0.0164683
0.0160202
0.0155955
0.0151926
0.0148098
0.0144456
0.0140988
0.0137681
0.0134525
0.013151
0.0128627
0.0125867
0.0123223
0.0120687
0.0118254
0.0115917
0.0113671
0.011151
0.0109431
0.0107428
0.0105498
0.0103636
0.010184
0.0100105
0.00984284
0.00968079
0.00952406
0.00937245
0.116417
0.0999848
0.0873758
0.077457
0.0694852
0.062955
0.0575197
0.0529331
0.0490156
0.0456349
0.0426901
0.0401034
0.0378142
0.0357751
0.0339482
0.0323027
0.0308133
0.0294595
0.0282242
0.0270931
0.026054
0.0250964
0.0242116
0.0233918
0.0226305
0.0219218
0.0212606
0.0206424
0.0200637
0.0195207
0.0190103
0.0185299
0.0180771
0.0176497
0.0172458
0.0168636
0.0165015
0.0161582
0.0158323
0.0155225
0.0152278
0.0149472
0.0146797
0.0144246
0.0141808
0.0139479
0.0137251
0.0135116
0.0133073
0.0131112
0.0129231
0.0127424
0.0125688
0.012402
0.0122416
0.0120874
0.0119391
0.0117962
0.0116574
0.0115088
0.200897
0.184965
0.171674
0.160444
0.150844
0.142558
0.135346
0.129021
0.123439
0.118483
0.11406
0.110092
0.106519
0.103287
0.100353
0.097681
0.09524
0.0930036
0.0909493
0.0890576
0.0873118
0.0856971
0.0842007
0.0828115
0.0815196
0.0803161
0.0791935
0.0781447
0.0771636
0.0762446
0.0753829
0.074574
0.0738137
0.0730986
0.0724252
0.0717905
0.0711919
0.0706268
0.0700929
0.0695882
0.0691107
0.0686587
0.0682305
0.0678247
0.0674399
0.0670748
0.0667283
0.0663993
0.0660868
0.0657899
0.0655078
0.0652396
0.0649847
0.0647424
0.064512
0.0642931
0.064085
0.0638873
0.0636995
0.0635216
)
;

boundaryField
{
    wall
    {
        type            compressible::alphatJayatillekeWallFunction;
        Prt             0.85;
        value           uniform 0;
    }
    inlet
    {
        type            calculated;
        value           uniform 9.47574;
    }
    outlet
    {
        type            calculated;
        value           nonuniform List<scalar> 
20
(
0.0635252
0.0114821
0.00946746
0.00936851
0.00936516
0.00936531
0.00936494
0.00937309
0.0115965
0.0635266
0.0635328
0.0114762
0.00945533
0.00936754
0.0093651
0.0093651
0.00936505
0.00937249
0.011509
0.063522
)
;
    }
    heatWall
    {
        type            compressible::alphatJayatillekeWallFunction;
        Prt             0.85;
        value           nonuniform List<scalar> 
240
(
0.0209458
0.0209458
0.0193321
0.0193322
0.0179824
0.0179825
0.0168392
0.0168393
0.01586
0.01586
0.0150131
0.0150131
0.0142745
0.0142745
0.0136258
0.0136257
0.0130522
0.0130522
0.0125423
0.0125422
0.0120865
0.0120864
0.0116772
0.0116771
0.011308
0.011308
0.0109738
0.0109738
0.0106701
0.0106701
0.0103933
0.0103933
0.0101401
0.0101402
0.00990801
0.00990804
0.00969461
0.00969464
0.00949796
0.009498
0.00931635
0.00931638
0.00914826
0.0091483
0.0089924
0.00899244
0.00884762
0.00884765
0.0087129
0.00871293
0.00858734
0.00858737
0.00847015
0.00847018
0.00836063
0.00836065
0.00825812
0.00825815
0.00816208
0.0081621
0.00807197
0.008072
0.00798736
0.00798738
0.00790781
0.00790783
0.00783296
0.00783297
0.00776245
0.00776247
0.00769599
0.007696
0.00763328
0.0076333
0.00757408
0.00757409
0.00751814
0.00751814
0.00746524
0.00746524
0.00741519
0.00741519
0.00736781
0.00736781
0.00732293
0.00732293
0.0072804
0.00728039
0.00724007
0.00724005
0.00720181
0.00720179
0.0071655
0.00716547
0.00713104
0.007131
0.00709831
0.00709826
0.00706723
0.00706716
0.0070377
0.00703762
0.00700964
0.00700954
0.00698297
0.00698285
0.00695763
0.00695749
0.00693354
0.00693338
0.00691065
0.00691046
0.00688889
0.00688867
0.00686821
0.00686796
0.00684856
0.00684828
0.00682994
0.00682962
0.0209458
0.0209458
0.0193321
0.0193322
0.0179824
0.0179825
0.0168392
0.0168393
0.01586
0.01586
0.0150131
0.015013
0.0142745
0.0142744
0.0136257
0.0136256
0.0130522
0.0130521
0.0125422
0.0125421
0.0120864
0.0120863
0.0116771
0.011677
0.0113079
0.0113078
0.0109737
0.0109736
0.01067
0.0106699
0.0103931
0.0103931
0.01014
0.0101399
0.00990784
0.0099078
0.00969443
0.00969441
0.00949778
0.00949776
0.00931615
0.00931615
0.00914806
0.00914807
0.0089922
0.00899221
0.00884742
0.00884743
0.0087127
0.00871271
0.00858714
0.00858716
0.00846996
0.00846998
0.00836043
0.00836045
0.00825793
0.00825795
0.00816189
0.00816191
0.0080718
0.00807182
0.00798718
0.0079872
0.00790764
0.00790766
0.00783279
0.00783281
0.0077623
0.00776231
0.00769584
0.00769586
0.00763314
0.00763316
0.00757394
0.00757396
0.007518
0.00751802
0.0074651
0.00746512
0.00741506
0.00741508
0.00736768
0.0073677
0.0073228
0.00732282
0.00728026
0.00728029
0.00723993
0.00723997
0.00720167
0.00720171
0.00716537
0.00716542
0.00713091
0.00713096
0.00709819
0.00709825
0.00706711
0.00706719
0.00703759
0.00703768
0.00700955
0.00700965
0.0069829
0.00698303
0.00695759
0.00695773
0.00693354
0.00693371
0.0069107
0.0069109
0.00688901
0.00688924
0.00686842
0.00686867
0.00684887
0.00684916
0.00682982
0.00683035
)
;
    }
}


// ************************************************************************* //
