/*--------------------------------*- C++ -*----------------------------------*\
  =========                 |
  \\      /  F ield         | OpenFOAM: The Open Source CFD Toolbox
   \\    /   O peration     | Website:  https://openfoam.org
    \\  /    A nd           | Version:  8
     \\/     M anipulation  |
\*---------------------------------------------------------------------------*/
FoamFile
{
    version     2.0;
    format      ascii;
    class       volScalarField;
    location    "100";
    object      epsilon;
}
// * * * * * * * * * * * * * * * * * * * * * * * * * * * * * * * * * * * * * //

dimensions      [0 2 -3 0 0 0 0];

internalField   nonuniform List<scalar> 
1200
(
1.13863
0.888641
0.710502
0.579986
0.481991
0.406848
0.34817
0.301607
0.264128
0.233572
0.208373
0.187374
0.16971
0.154723
0.141907
0.13087
0.1213
0.112953
0.105631
0.0991753
0.0934556
0.0883655
0.0838168
0.0797362
0.0760623
0.0727433
0.0697356
0.0670018
0.0645101
0.0622332
0.0601474
0.0582322
0.05647
0.054845
0.0533439
0.0519545
0.0506664
0.0494703
0.0483579
0.0473218
0.0463554
0.0454531
0.0446094
0.0438198
0.0430799
0.0423861
0.0417347
0.0411228
0.0405474
0.040006
0.0394964
0.0390163
0.0385638
0.0381371
0.0377346
0.0373547
0.0369961
0.0366573
0.0363374
0.0360262
1.45212
0.919938
0.614033
0.42784
0.308927
0.229777
0.175247
0.13656
0.108403
0.087457
0.0715711
0.0593129
0.0497095
0.0420828
0.0359512
0.0309679
0.0268778
0.0234896
0.020659
0.0182764
0.0162568
0.0145333
0.0130534
0.0117758
0.010667
0.0096996
0.0088518
0.00810564
0.00744629
0.00686139
0.00634062
0.00587527
0.00545813
0.0050831
0.00474488
0.00443894
0.0041615
0.00390922
0.00367925
0.00346916
0.0032768
0.00310027
0.00293791
0.00278821
0.00265001
0.0025222
0.00240378
0.00229395
0.00219177
0.00209666
0.00200811
0.00192555
0.00184855
0.00177675
0.00170981
0.00164738
0.00158927
0.00153517
0.00148439
0.00143623
1.45109
0.915225
0.607852
0.42102
0.301942
0.222959
0.168766
0.130486
0.102761
0.0822347
0.0667442
0.0548533
0.0455862
0.0382652
0.0324107
0.0276767
0.0238102
0.0206232
0.0179743
0.0157555
0.0138839
0.0122945
0.0109367
0.00977011
0.00876246
0.00788779
0.00712505
0.00645703
0.00586957
0.00535097
0.00489151
0.00448305
0.00411875
0.00379285
0.00350046
0.0032374
0.00300011
0.00278553
0.00259104
0.00241436
0.0022535
0.00210675
0.00197262
0.00184977
0.00173708
0.00163351
0.00153817
0.00145027
0.00136909
0.00129403
0.00122451
0.00116005
0.00110018
0.00104452
0.000992687
0.000944369
0.000899268
0.000857105
0.000817613
0.000780501
1.45109
0.916299
0.609187
0.42234
0.303112
0.223945
0.169576
0.131145
0.103293
0.0826649
0.0670926
0.0551363
0.045817
0.0384543
0.0325663
0.0278053
0.023917
0.0207122
0.0180484
0.0158174
0.0139353
0.0123373
0.010972
0.00979907
0.00878596
0.00790659
0.00713976
0.00646817
0.00587758
0.00535623
0.00489432
0.00448369
0.00411744
0.00378979
0.00349581
0.00323131
0.00299271
0.00277694
0.00258133
0.00240361
0.00224179
0.00209414
0.00195914
0.00183549
0.00172202
0.00161771
0.00152165
0.00143306
0.00135123
0.00127552
0.00120538
0.00114031
0.00107987
0.00102364
0.000971274
0.000922446
0.000876862
0.000834257
0.000794392
0.00075705
1.45109
0.916302
0.609058
0.422138
0.302886
0.223725
0.169378
0.130974
0.103149
0.0825464
0.0669956
0.0550573
0.0457527
0.0384021
0.0325238
0.0277708
0.0238888
0.0206892
0.0180296
0.0158019
0.0139227
0.0123269
0.0109635
0.00979201
0.00878014
0.00790179
0.00713581
0.00646492
0.00587491
0.00535403
0.00489252
0.00448222
0.00411625
0.00378882
0.00349502
0.00323067
0.0029922
0.00277652
0.00258099
0.00240333
0.00224156
0.00209394
0.00195897
0.00183532
0.00172186
0.00161754
0.00152147
0.00143286
0.001351
0.00127527
0.0012051
0.00113999
0.0010795
0.00102322
0.00097081
0.000921929
0.00087629
0.000833631
0.000793715
0.000756325
1.45109
0.916302
0.609057
0.422138
0.302887
0.223725
0.169378
0.130974
0.10315
0.0825467
0.0669959
0.0550576
0.0457531
0.0384024
0.0325241
0.0277711
0.0238891
0.0206893
0.0180298
0.0158021
0.0139228
0.012327
0.0109635
0.00979208
0.0087802
0.00790184
0.00713584
0.00646494
0.00587492
0.00535404
0.00489252
0.00448221
0.00411624
0.00378881
0.00349501
0.00323066
0.00299218
0.0027765
0.00258097
0.00240331
0.00224153
0.00209391
0.00195894
0.0018353
0.00172183
0.00161752
0.00152145
0.00143284
0.00135099
0.00127525
0.00120508
0.00113997
0.00107948
0.00102321
0.000970798
0.000921916
0.000876276
0.000833616
0.000793695
0.0007563
1.45109
0.916297
0.609183
0.422338
0.303111
0.223945
0.169577
0.131145
0.103294
0.082666
0.0670939
0.0551377
0.0458184
0.0384558
0.0325677
0.0278068
0.0239184
0.0207135
0.0180498
0.0158186
0.0139365
0.0123384
0.0109731
0.00980009
0.00878692
0.0079075
0.00714061
0.00646897
0.00587832
0.00535692
0.00489496
0.00448428
0.00411799
0.00379029
0.00349627
0.00323172
0.00299308
0.00277726
0.00258161
0.00240385
0.00224198
0.00209429
0.00195925
0.00183555
0.00172204
0.00161768
0.00152158
0.00143294
0.00135105
0.0012753
0.0012051
0.00113998
0.00107948
0.00102319
0.000970765
0.000921877
0.000876232
0.000833566
0.00079364
0.000756242
1.45109
0.915226
0.60785
0.421018
0.301939
0.222957
0.168765
0.130486
0.102761
0.0822355
0.0667453
0.0548545
0.0455874
0.0382665
0.0324119
0.0276779
0.0238114
0.0206243
0.0179751
0.0157559
0.0138837
0.0122938
0.0109353
0.00976799
0.00875963
0.00788427
0.00712083
0.00645211
0.00586397
0.00534471
0.0048846
0.0044755
0.00411059
0.00378408
0.00349109
0.00322745
0.00298959
0.00277446
0.00257941
0.00240218
0.00224078
0.0020935
0.00195882
0.00183545
0.00172222
0.00161811
0.00152224
0.0014338
0.00135209
0.0012765
0.00120645
0.00114146
0.00108107
0.00102489
0.000972572
0.000923781
0.000878233
0.000835666
0.000795847
0.00075856
1.45211
0.919952
0.614042
0.427839
0.308915
0.229771
0.175241
0.136551
0.108399
0.0874553
0.071569
0.0593134
0.049715
0.0420951
0.0359705
0.0309932
0.0269078
0.0235234
0.0206958
0.0183147
0.016295
0.0145708
0.0130897
0.0118099
0.0106984
0.00972827
0.00887768
0.00812859
0.00746612
0.00687809
0.00635443
0.00588647
0.00546694
0.00508978
0.0047497
0.00444225
0.00416359
0.00391036
0.00367979
0.00346944
0.00327704
0.00310077
0.00293895
0.00279013
0.00265311
0.00252663
0.00240976
0.00230164
0.00220136
0.0021083
0.00202187
0.00194148
0.0018666
0.00179683
0.00173179
0.00167105
0.00161427
0.00156107
0.00151068
0.0014579
1.13863
0.88864
0.710505
0.579988
0.481991
0.406849
0.348171
0.301609
0.26413
0.233575
0.208376
0.187378
0.169714
0.154728
0.141913
0.130875
0.121306
0.112959
0.105637
0.0991814
0.0934617
0.0883714
0.0838226
0.0797418
0.0760677
0.0727485
0.0697405
0.0670065
0.0645146
0.0622374
0.0601513
0.0582359
0.0564734
0.0548483
0.053347
0.0519575
0.0506693
0.049473
0.0483605
0.0473243
0.0463579
0.0454555
0.0446118
0.0438222
0.0430823
0.0423884
0.041737
0.041125
0.0405496
0.0400082
0.0394985
0.0390182
0.0385655
0.0381386
0.0377357
0.0373554
0.0369962
0.0366568
0.0363361
0.0360335
1.13864
0.888656
0.710521
0.579997
0.481993
0.406845
0.348164
0.3016
0.26412
0.233565
0.208366
0.187368
0.169705
0.154719
0.141904
0.130867
0.121298
0.112952
0.10563
0.0991748
0.0934555
0.0883656
0.0838171
0.0797366
0.0760628
0.0727439
0.0697362
0.0670024
0.0645107
0.0622338
0.060148
0.0582328
0.0564705
0.0548456
0.0533444
0.051955
0.0506669
0.0494708
0.0483583
0.0473222
0.0463558
0.0454535
0.0446098
0.0438202
0.0430804
0.0423865
0.0417353
0.0411234
0.0405482
0.040007
0.0394975
0.0390176
0.0385653
0.0381388
0.0377365
0.0373569
0.0369985
0.03666
0.0363403
0.0360324
1.45211
0.919939
0.613931
0.427653
0.308692
0.22955
0.175042
0.136379
0.108257
0.0873417
0.0714811
0.0592481
0.049668
0.0420623
0.0359497
0.030981
0.0269005
0.0235187
0.020692
0.0183107
0.0162899
0.0145641
0.0130814
0.0118001
0.0106872
0.00971601
0.00886464
0.0081151
0.00745258
0.00686478
0.00634149
0.0058741
0.00545528
0.0050788
0.00473944
0.00443275
0.00415479
0.00390224
0.00367223
0.00346217
0.00326991
0.00309353
0.0029314
0.00278209
0.00264422
0.00251665
0.00239842
0.00228858
0.00218653
0.00209148
0.00200276
0.00191991
0.00184247
0.00177004
0.00170224
0.00163883
0.00157946
0.00152374
0.00147105
0.00141941
1.45109
0.915218
0.607843
0.421011
0.301933
0.222952
0.168761
0.130482
0.102758
0.0822323
0.0667423
0.0548517
0.0455849
0.0382642
0.0324098
0.027676
0.0238097
0.0206228
0.0179738
0.0157549
0.0138831
0.0122937
0.0109357
0.00976891
0.00876106
0.0078862
0.00712327
0.00645506
0.00586743
0.00534867
0.00488905
0.00448044
0.00411602
0.00378999
0.00349748
0.00323432
0.00299694
0.00278229
0.00258773
0.00241098
0.00225007
0.00210328
0.0019691
0.00184622
0.0017335
0.0016299
0.00153454
0.00144662
0.00136544
0.00129037
0.00122085
0.00115638
0.00109652
0.00104085
0.000989023
0.000940706
0.000895599
0.000853431
0.000813933
0.000776826
1.45109
0.916292
0.60918
0.422335
0.30311
0.223944
0.169576
0.131145
0.103293
0.0826651
0.0670928
0.0551366
0.0458173
0.0384545
0.0325665
0.0278055
0.0239171
0.0207123
0.0180485
0.0158174
0.0139354
0.0123373
0.0109721
0.00979912
0.008786
0.00790663
0.0071398
0.00646821
0.00587761
0.00535626
0.00489435
0.00448371
0.00411747
0.00378981
0.00349583
0.00323132
0.00299272
0.00277693
0.00258132
0.0024036
0.00224177
0.00209411
0.00195911
0.00183545
0.00172196
0.00161764
0.00152158
0.00143298
0.00135114
0.00127542
0.00120527
0.00114019
0.00107973
0.0010235
0.00097112
0.00092228
0.000876686
0.000834074
0.000794202
0.000756853
1.45109
0.916293
0.609049
0.422131
0.302881
0.223721
0.169375
0.130972
0.103148
0.0825454
0.0669948
0.0550567
0.0457524
0.0384018
0.0325236
0.0277705
0.0238886
0.020689
0.0180294
0.0158018
0.0139225
0.0123267
0.0109633
0.0097919
0.00878005
0.00790171
0.00713573
0.00646485
0.00587484
0.00535397
0.00489247
0.00448217
0.0041162
0.00378878
0.00349499
0.00323064
0.00299217
0.00277649
0.00258097
0.00240332
0.00224154
0.00209392
0.00195895
0.00183531
0.00172184
0.00161753
0.00152146
0.00143286
0.001351
0.00127526
0.00120509
0.00113998
0.00107949
0.00102322
0.0009708
0.000921919
0.000876281
0.000833621
0.0007937
0.000756306
1.45109
0.916294
0.60905
0.422131
0.302881
0.223721
0.169375
0.130972
0.103148
0.0825455
0.066995
0.0550568
0.0457525
0.038402
0.0325237
0.0277707
0.0238888
0.0206891
0.0180295
0.0158019
0.0139226
0.0123268
0.0109634
0.00979195
0.00878008
0.00790173
0.00713575
0.00646485
0.00587485
0.00535397
0.00489247
0.00448216
0.00411619
0.00378877
0.00349497
0.00323063
0.00299215
0.00277647
0.00258095
0.0024033
0.00224152
0.0020939
0.00195893
0.00183529
0.00172182
0.00161751
0.00152145
0.00143284
0.00135098
0.00127524
0.00120507
0.00113996
0.00107947
0.0010232
0.000970782
0.0009219
0.000876258
0.000833595
0.000793673
0.000756277
1.45109
0.916293
0.609183
0.422337
0.303111
0.223946
0.169577
0.131146
0.103294
0.0826662
0.0670939
0.0551376
0.0458183
0.0384557
0.0325676
0.0278066
0.0239182
0.0207134
0.0180496
0.0158185
0.0139364
0.0123383
0.010973
0.00979999
0.00878683
0.00790741
0.00714053
0.00646889
0.00587826
0.00535686
0.00489491
0.00448423
0.00411794
0.00379025
0.00349623
0.00323169
0.00299304
0.00277723
0.00258158
0.00240382
0.00224196
0.00209426
0.00195923
0.00183553
0.00172202
0.00161766
0.00152157
0.00143293
0.00135105
0.00127529
0.0012051
0.00113998
0.00107948
0.00102319
0.000970771
0.000921883
0.000876239
0.000833576
0.000793654
0.000756259
1.45109
0.915216
0.607843
0.421012
0.301935
0.222954
0.168762
0.130484
0.102759
0.0822343
0.0667442
0.0548537
0.0455868
0.038266
0.0324115
0.0276776
0.0238111
0.0206241
0.0179749
0.0157557
0.0138835
0.0122936
0.0109351
0.00976785
0.0087595
0.00788413
0.00712069
0.00645197
0.00586382
0.00534456
0.00488444
0.00447534
0.00411042
0.00378392
0.00349093
0.00322728
0.00298943
0.00277429
0.00257925
0.00240202
0.00224063
0.00209335
0.00195868
0.00183531
0.00172208
0.00161798
0.00152211
0.00143368
0.00135198
0.00127639
0.00120635
0.00114136
0.00108099
0.00102483
0.000972522
0.000923756
0.000878241
0.000835716
0.000795944
0.000758709
1.45212
0.919919
0.613926
0.427675
0.308742
0.229612
0.175121
0.136477
0.108361
0.0874514
0.0715933
0.059355
0.0497631
0.0421418
0.0360121
0.0310269
0.0269312
0.0235357
0.0206973
0.0183066
0.016279
0.0145479
0.0130611
0.0117771
0.0106625
0.00968998
0.00883761
0.00808744
0.00742472
0.00683694
0.00631368
0.00584634
0.00542763
0.00505131
0.00471216
0.00440567
0.00412799
0.00387583
0.00364623
0.00343666
0.00324504
0.00306942
0.00290816
0.0027598
0.00262299
0.00249676
0.00238001
0.00227184
0.00217159
0.0020785
0.00199193
0.00191135
0.0018363
0.00176633
0.00170103
0.00164008
0.00158317
0.00152985
0.00147947
0.00142702
1.13864
0.888657
0.710522
0.579998
0.481995
0.406848
0.348167
0.301604
0.264125
0.23357
0.208372
0.187375
0.169713
0.154727
0.141913
0.130876
0.121307
0.11296
0.105638
0.0991825
0.0934628
0.0883725
0.0838236
0.0797428
0.0760686
0.0727494
0.0697413
0.0670072
0.0645153
0.062238
0.0601519
0.0582365
0.056474
0.0548488
0.0533475
0.0519579
0.0506697
0.0494734
0.0483608
0.0473246
0.0463582
0.0454557
0.044612
0.0438222
0.0430823
0.0423882
0.0417367
0.0411246
0.040549
0.0400074
0.0394974
0.0390169
0.0385639
0.0381366
0.0377335
0.0373528
0.0369933
0.0366536
0.0363326
0.0360297
)
;

boundaryField
{
    wall
    {
        type            epsilonWallFunction;
        value           nonuniform List<scalar> 
1200
(
1.13863
1.45212
1.45109
1.45109
1.45109
1.45109
1.45109
1.45109
1.45211
1.13863
0.888641
0.919938
0.915225
0.916299
0.916302
0.916302
0.916297
0.915226
0.919952
0.88864
0.710502
0.614033
0.607852
0.609187
0.609058
0.609057
0.609183
0.60785
0.614042
0.710505
0.579986
0.42784
0.42102
0.42234
0.422138
0.422138
0.422338
0.421018
0.427839
0.579988
0.481991
0.308927
0.301942
0.303112
0.302886
0.302887
0.303111
0.301939
0.308915
0.481991
0.406848
0.229777
0.222959
0.223945
0.223725
0.223725
0.223945
0.222957
0.229771
0.406849
0.34817
0.175247
0.168766
0.169576
0.169378
0.169378
0.169577
0.168765
0.175241
0.348171
0.301607
0.13656
0.130486
0.131145
0.130974
0.130974
0.131145
0.130486
0.136551
0.301609
0.264128
0.108403
0.102761
0.103293
0.103149
0.10315
0.103294
0.102761
0.108399
0.26413
0.233572
0.087457
0.0822347
0.0826649
0.0825464
0.0825467
0.082666
0.0822355
0.0874553
0.233575
0.208373
0.0715711
0.0667442
0.0670926
0.0669956
0.0669959
0.0670939
0.0667453
0.071569
0.208376
0.187374
0.0593129
0.0548533
0.0551363
0.0550573
0.0550576
0.0551377
0.0548545
0.0593134
0.187378
0.16971
0.0497095
0.0455862
0.045817
0.0457527
0.0457531
0.0458184
0.0455874
0.049715
0.169714
0.154723
0.0420828
0.0382652
0.0384543
0.0384021
0.0384024
0.0384558
0.0382665
0.0420951
0.154728
0.141907
0.0359512
0.0324107
0.0325663
0.0325238
0.0325241
0.0325677
0.0324119
0.0359705
0.141913
0.13087
0.0309679
0.0276767
0.0278053
0.0277708
0.0277711
0.0278068
0.0276779
0.0309932
0.130875
0.1213
0.0268778
0.0238102
0.023917
0.0238888
0.0238891
0.0239184
0.0238114
0.0269078
0.121306
0.112953
0.0234896
0.0206232
0.0207122
0.0206892
0.0206893
0.0207135
0.0206243
0.0235234
0.112959
0.105631
0.020659
0.0179743
0.0180484
0.0180296
0.0180298
0.0180498
0.0179751
0.0206958
0.105637
0.0991753
0.0182764
0.0157555
0.0158174
0.0158019
0.0158021
0.0158186
0.0157559
0.0183147
0.0991814
0.0934556
0.0162568
0.0138839
0.0139353
0.0139227
0.0139228
0.0139365
0.0138837
0.016295
0.0934617
0.0883655
0.0145333
0.0122945
0.0123373
0.0123269
0.012327
0.0123384
0.0122938
0.0145708
0.0883714
0.0838168
0.0130534
0.0109367
0.010972
0.0109635
0.0109635
0.0109731
0.0109353
0.0130897
0.0838226
0.0797362
0.0117758
0.00977011
0.00979907
0.00979201
0.00979208
0.00980009
0.00976799
0.0118099
0.0797418
0.0760623
0.010667
0.00876246
0.00878596
0.00878014
0.0087802
0.00878692
0.00875963
0.0106984
0.0760677
0.0727433
0.0096996
0.00788779
0.00790659
0.00790179
0.00790184
0.0079075
0.00788427
0.00972827
0.0727485
0.0697356
0.0088518
0.00712505
0.00713976
0.00713581
0.00713584
0.00714061
0.00712083
0.00887768
0.0697405
0.0670018
0.00810564
0.00645703
0.00646817
0.00646492
0.00646494
0.00646897
0.00645211
0.00812859
0.0670065
0.0645101
0.00744629
0.00586957
0.00587758
0.00587491
0.00587492
0.00587832
0.00586397
0.00746612
0.0645146
0.0622332
0.00686139
0.00535097
0.00535623
0.00535403
0.00535404
0.00535692
0.00534471
0.00687809
0.0622374
0.0601474
0.00634062
0.00489151
0.00489432
0.00489252
0.00489252
0.00489496
0.0048846
0.00635443
0.0601513
0.0582322
0.00587527
0.00448305
0.00448369
0.00448222
0.00448221
0.00448428
0.0044755
0.00588647
0.0582359
0.05647
0.00545813
0.00411875
0.00411744
0.00411625
0.00411624
0.00411799
0.00411059
0.00546694
0.0564734
0.054845
0.0050831
0.00379285
0.00378979
0.00378882
0.00378881
0.00379029
0.00378408
0.00508978
0.0548483
0.0533439
0.00474488
0.00350046
0.00349581
0.00349502
0.00349501
0.00349627
0.00349109
0.0047497
0.053347
0.0519545
0.00443894
0.0032374
0.00323131
0.00323067
0.00323066
0.00323172
0.00322745
0.00444225
0.0519575
0.0506664
0.0041615
0.00300011
0.00299271
0.0029922
0.00299218
0.00299308
0.00298959
0.00416359
0.0506693
0.0494703
0.00390922
0.00278553
0.00277694
0.00277652
0.0027765
0.00277726
0.00277446
0.00391036
0.049473
0.0483579
0.00367925
0.00259104
0.00258133
0.00258099
0.00258097
0.00258161
0.00257941
0.00367979
0.0483605
0.0473218
0.00346916
0.00241436
0.00240361
0.00240333
0.00240331
0.00240385
0.00240218
0.00346944
0.0473243
0.0463554
0.0032768
0.0022535
0.00224179
0.00224156
0.00224153
0.00224198
0.00224078
0.00327704
0.0463579
0.0454531
0.00310027
0.00210675
0.00209414
0.00209394
0.00209391
0.00209429
0.0020935
0.00310077
0.0454555
0.0446094
0.00293791
0.00197262
0.00195914
0.00195897
0.00195894
0.00195925
0.00195882
0.00293895
0.0446118
0.0438198
0.00278821
0.00184977
0.00183549
0.00183532
0.0018353
0.00183555
0.00183545
0.00279013
0.0438222
0.0430799
0.00265001
0.00173708
0.00172202
0.00172186
0.00172183
0.00172204
0.00172222
0.00265311
0.0430823
0.0423861
0.0025222
0.00163351
0.00161771
0.00161754
0.00161752
0.00161768
0.00161811
0.00252663
0.0423884
0.0417347
0.00240378
0.00153817
0.00152165
0.00152147
0.00152145
0.00152158
0.00152224
0.00240976
0.041737
0.0411228
0.00229395
0.00145027
0.00143306
0.00143286
0.00143284
0.00143294
0.0014338
0.00230164
0.041125
0.0405474
0.00219177
0.00136909
0.00135123
0.001351
0.00135099
0.00135105
0.00135209
0.00220136
0.0405496
0.040006
0.00209666
0.00129403
0.00127552
0.00127527
0.00127525
0.0012753
0.0012765
0.0021083
0.0400082
0.0394964
0.00200811
0.00122451
0.00120538
0.0012051
0.00120508
0.0012051
0.00120645
0.00202187
0.0394985
0.0390163
0.00192555
0.00116005
0.00114031
0.00113999
0.00113997
0.00113998
0.00114146
0.00194148
0.0390182
0.0385638
0.00184855
0.00110018
0.00107987
0.0010795
0.00107948
0.00107948
0.00108107
0.0018666
0.0385655
0.0381371
0.00177675
0.00104452
0.00102364
0.00102322
0.00102321
0.00102319
0.00102489
0.00179683
0.0381386
0.0377346
0.00170981
0.000992687
0.000971274
0.00097081
0.000970798
0.000970765
0.000972572
0.00173179
0.0377357
0.0373547
0.00164738
0.000944369
0.000922446
0.000921929
0.000921916
0.000921877
0.000923781
0.00167105
0.0373554
0.0369961
0.00158927
0.000899268
0.000876862
0.00087629
0.000876276
0.000876232
0.000878233
0.00161427
0.0369962
0.0366573
0.00153517
0.000857105
0.000834257
0.000833631
0.000833616
0.000833566
0.000835666
0.00156107
0.0366568
0.0363374
0.00148439
0.000817613
0.000794392
0.000793715
0.000793695
0.00079364
0.000795847
0.00151068
0.0363361
0.0360262
0.00143623
0.000780501
0.00075705
0.000756325
0.0007563
0.000756242
0.00075856
0.0014579
0.0360335
1.13864
1.45211
1.45109
1.45109
1.45109
1.45109
1.45109
1.45109
1.45212
1.13864
0.888656
0.919939
0.915218
0.916292
0.916293
0.916294
0.916293
0.915216
0.919919
0.888657
0.710521
0.613931
0.607843
0.60918
0.609049
0.60905
0.609183
0.607843
0.613926
0.710522
0.579997
0.427653
0.421011
0.422335
0.422131
0.422131
0.422337
0.421012
0.427675
0.579998
0.481993
0.308692
0.301933
0.30311
0.302881
0.302881
0.303111
0.301935
0.308742
0.481995
0.406845
0.22955
0.222952
0.223944
0.223721
0.223721
0.223946
0.222954
0.229612
0.406848
0.348164
0.175042
0.168761
0.169576
0.169375
0.169375
0.169577
0.168762
0.175121
0.348167
0.3016
0.136379
0.130482
0.131145
0.130972
0.130972
0.131146
0.130484
0.136477
0.301604
0.26412
0.108257
0.102758
0.103293
0.103148
0.103148
0.103294
0.102759
0.108361
0.264125
0.233565
0.0873417
0.0822323
0.0826651
0.0825454
0.0825455
0.0826662
0.0822343
0.0874514
0.23357
0.208366
0.0714811
0.0667423
0.0670928
0.0669948
0.066995
0.0670939
0.0667442
0.0715933
0.208372
0.187368
0.0592481
0.0548517
0.0551366
0.0550567
0.0550568
0.0551376
0.0548537
0.059355
0.187375
0.169705
0.049668
0.0455849
0.0458173
0.0457524
0.0457525
0.0458183
0.0455868
0.0497631
0.169713
0.154719
0.0420623
0.0382642
0.0384545
0.0384018
0.038402
0.0384557
0.038266
0.0421418
0.154727
0.141904
0.0359497
0.0324098
0.0325665
0.0325236
0.0325237
0.0325676
0.0324115
0.0360121
0.141913
0.130867
0.030981
0.027676
0.0278055
0.0277705
0.0277707
0.0278066
0.0276776
0.0310269
0.130876
0.121298
0.0269005
0.0238097
0.0239171
0.0238886
0.0238888
0.0239182
0.0238111
0.0269312
0.121307
0.112952
0.0235187
0.0206228
0.0207123
0.020689
0.0206891
0.0207134
0.0206241
0.0235357
0.11296
0.10563
0.020692
0.0179738
0.0180485
0.0180294
0.0180295
0.0180496
0.0179749
0.0206973
0.105638
0.0991748
0.0183107
0.0157549
0.0158174
0.0158018
0.0158019
0.0158185
0.0157557
0.0183066
0.0991825
0.0934555
0.0162899
0.0138831
0.0139354
0.0139225
0.0139226
0.0139364
0.0138835
0.016279
0.0934628
0.0883656
0.0145641
0.0122937
0.0123373
0.0123267
0.0123268
0.0123383
0.0122936
0.0145479
0.0883725
0.0838171
0.0130814
0.0109357
0.0109721
0.0109633
0.0109634
0.010973
0.0109351
0.0130611
0.0838236
0.0797366
0.0118001
0.00976891
0.00979912
0.0097919
0.00979195
0.00979999
0.00976785
0.0117771
0.0797428
0.0760628
0.0106872
0.00876106
0.008786
0.00878005
0.00878008
0.00878683
0.0087595
0.0106625
0.0760686
0.0727439
0.00971601
0.0078862
0.00790663
0.00790171
0.00790173
0.00790741
0.00788413
0.00968998
0.0727494
0.0697362
0.00886464
0.00712327
0.0071398
0.00713573
0.00713575
0.00714053
0.00712069
0.00883761
0.0697413
0.0670024
0.0081151
0.00645506
0.00646821
0.00646485
0.00646485
0.00646889
0.00645197
0.00808744
0.0670072
0.0645107
0.00745258
0.00586743
0.00587761
0.00587484
0.00587485
0.00587826
0.00586382
0.00742472
0.0645153
0.0622338
0.00686478
0.00534867
0.00535626
0.00535397
0.00535397
0.00535686
0.00534456
0.00683694
0.062238
0.060148
0.00634149
0.00488905
0.00489435
0.00489247
0.00489247
0.00489491
0.00488444
0.00631368
0.0601519
0.0582328
0.0058741
0.00448044
0.00448371
0.00448217
0.00448216
0.00448423
0.00447534
0.00584634
0.0582365
0.0564705
0.00545528
0.00411602
0.00411747
0.0041162
0.00411619
0.00411794
0.00411042
0.00542763
0.056474
0.0548456
0.0050788
0.00378999
0.00378981
0.00378878
0.00378877
0.00379025
0.00378392
0.00505131
0.0548488
0.0533444
0.00473944
0.00349748
0.00349583
0.00349499
0.00349497
0.00349623
0.00349093
0.00471216
0.0533475
0.051955
0.00443275
0.00323432
0.00323132
0.00323064
0.00323063
0.00323169
0.00322728
0.00440567
0.0519579
0.0506669
0.00415479
0.00299694
0.00299272
0.00299217
0.00299215
0.00299304
0.00298943
0.00412799
0.0506697
0.0494708
0.00390224
0.00278229
0.00277693
0.00277649
0.00277647
0.00277723
0.00277429
0.00387583
0.0494734
0.0483583
0.00367223
0.00258773
0.00258132
0.00258097
0.00258095
0.00258158
0.00257925
0.00364623
0.0483608
0.0473222
0.00346217
0.00241098
0.0024036
0.00240332
0.0024033
0.00240382
0.00240202
0.00343666
0.0473246
0.0463558
0.00326991
0.00225007
0.00224177
0.00224154
0.00224152
0.00224196
0.00224063
0.00324504
0.0463582
0.0454535
0.00309353
0.00210328
0.00209411
0.00209392
0.0020939
0.00209426
0.00209335
0.00306942
0.0454557
0.0446098
0.0029314
0.0019691
0.00195911
0.00195895
0.00195893
0.00195923
0.00195868
0.00290816
0.044612
0.0438202
0.00278209
0.00184622
0.00183545
0.00183531
0.00183529
0.00183553
0.00183531
0.0027598
0.0438222
0.0430804
0.00264422
0.0017335
0.00172196
0.00172184
0.00172182
0.00172202
0.00172208
0.00262299
0.0430823
0.0423865
0.00251665
0.0016299
0.00161764
0.00161753
0.00161751
0.00161766
0.00161798
0.00249676
0.0423882
0.0417353
0.00239842
0.00153454
0.00152158
0.00152146
0.00152145
0.00152157
0.00152211
0.00238001
0.0417367
0.0411234
0.00228858
0.00144662
0.00143298
0.00143286
0.00143284
0.00143293
0.00143368
0.00227184
0.0411246
0.0405482
0.00218653
0.00136544
0.00135114
0.001351
0.00135098
0.00135105
0.00135198
0.00217159
0.040549
0.040007
0.00209148
0.00129037
0.00127542
0.00127526
0.00127524
0.00127529
0.00127639
0.0020785
0.0400074
0.0394975
0.00200276
0.00122085
0.00120527
0.00120509
0.00120507
0.0012051
0.00120635
0.00199193
0.0394974
0.0390176
0.00191991
0.00115638
0.00114019
0.00113998
0.00113996
0.00113998
0.00114136
0.00191135
0.0390169
0.0385653
0.00184247
0.00109652
0.00107973
0.00107949
0.00107947
0.00107948
0.00108099
0.0018363
0.0385639
0.0381388
0.00177004
0.00104085
0.0010235
0.00102322
0.0010232
0.00102319
0.00102483
0.00176633
0.0381366
0.0377365
0.00170224
0.000989023
0.00097112
0.0009708
0.000970782
0.000970771
0.000972522
0.00170103
0.0377335
0.0373569
0.00163883
0.000940706
0.00092228
0.000921919
0.0009219
0.000921883
0.000923756
0.00164008
0.0373528
0.0369985
0.00157946
0.000895599
0.000876686
0.000876281
0.000876258
0.000876239
0.000878241
0.00158317
0.0369933
0.03666
0.00152374
0.000853431
0.000834074
0.000833621
0.000833595
0.000833576
0.000835716
0.00152985
0.0366536
0.0363403
0.00147105
0.000813933
0.000794202
0.0007937
0.000793673
0.000793654
0.000795944
0.00147947
0.0363326
0.0360324
0.00141941
0.000776826
0.000756853
0.000756306
0.000756277
0.000756259
0.000758709
0.00142702
0.0360297
)
;
    }
    inlet
    {
        type            turbulentMixingLengthDissipationRateInlet;
        mixingLength    0.071;
        phi             phi;
        k               k;
        value           uniform 0.0340134;
    }
    outlet
    {
        type            inletOutlet;
        inletValue      uniform 0.0001;
        value           nonuniform List<scalar> 
20
(
0.0360262
0.00143623
0.000780501
0.00075705
0.000756325
0.0007563
0.000756242
0.00075856
0.0014579
0.0360335
0.0360324
0.00141941
0.000776826
0.000756853
0.000756306
0.000756277
0.000756259
0.000758709
0.00142702
0.0360297
)
;
    }
    heatWall
    {
        type            epsilonWallFunction;
        value           nonuniform List<scalar> 
240
(
1.13863
1.13864
0.88864
0.888657
0.710505
0.710522
0.579988
0.579998
0.481991
0.481995
0.406849
0.406848
0.348171
0.348167
0.301609
0.301604
0.26413
0.264125
0.233575
0.23357
0.208376
0.208372
0.187378
0.187375
0.169714
0.169713
0.154728
0.154727
0.141913
0.141913
0.130875
0.130876
0.121306
0.121307
0.112959
0.11296
0.105637
0.105638
0.0991814
0.0991825
0.0934617
0.0934628
0.0883714
0.0883725
0.0838226
0.0838236
0.0797418
0.0797428
0.0760677
0.0760686
0.0727485
0.0727494
0.0697405
0.0697413
0.0670065
0.0670072
0.0645146
0.0645153
0.0622374
0.062238
0.0601513
0.0601519
0.0582359
0.0582365
0.0564734
0.056474
0.0548483
0.0548488
0.053347
0.0533475
0.0519575
0.0519579
0.0506693
0.0506697
0.049473
0.0494734
0.0483605
0.0483608
0.0473243
0.0473246
0.0463579
0.0463582
0.0454555
0.0454557
0.0446118
0.044612
0.0438222
0.0438222
0.0430823
0.0430823
0.0423884
0.0423882
0.041737
0.0417367
0.041125
0.0411246
0.0405496
0.040549
0.0400082
0.0400074
0.0394985
0.0394974
0.0390182
0.0390169
0.0385655
0.0385639
0.0381386
0.0381366
0.0377357
0.0377335
0.0373554
0.0373528
0.0369962
0.0369933
0.0366568
0.0366536
0.0363361
0.0363326
0.0360335
0.0360297
1.13863
1.13864
0.888641
0.888656
0.710502
0.710521
0.579986
0.579997
0.481991
0.481993
0.406848
0.406845
0.34817
0.348164
0.301607
0.3016
0.264128
0.26412
0.233572
0.233565
0.208373
0.208366
0.187374
0.187368
0.16971
0.169705
0.154723
0.154719
0.141907
0.141904
0.13087
0.130867
0.1213
0.121298
0.112953
0.112952
0.105631
0.10563
0.0991753
0.0991748
0.0934556
0.0934555
0.0883655
0.0883656
0.0838168
0.0838171
0.0797362
0.0797366
0.0760623
0.0760628
0.0727433
0.0727439
0.0697356
0.0697362
0.0670018
0.0670024
0.0645101
0.0645107
0.0622332
0.0622338
0.0601474
0.060148
0.0582322
0.0582328
0.05647
0.0564705
0.054845
0.0548456
0.0533439
0.0533444
0.0519545
0.051955
0.0506664
0.0506669
0.0494703
0.0494708
0.0483579
0.0483583
0.0473218
0.0473222
0.0463554
0.0463558
0.0454531
0.0454535
0.0446094
0.0446098
0.0438198
0.0438202
0.0430799
0.0430804
0.0423861
0.0423865
0.0417347
0.0417353
0.0411228
0.0411234
0.0405474
0.0405482
0.040006
0.040007
0.0394964
0.0394975
0.0390163
0.0390176
0.0385638
0.0385653
0.0381371
0.0381388
0.0377346
0.0377365
0.0373547
0.0373569
0.0369961
0.0369985
0.0366573
0.03666
0.0363374
0.0363403
0.0360262
0.0360324
)
;
    }
}


// ************************************************************************* //
