/*--------------------------------*- C++ -*----------------------------------*\
  =========                 |
  \\      /  F ield         | OpenFOAM: The Open Source CFD Toolbox
   \\    /   O peration     | Website:  https://openfoam.org
    \\  /    A nd           | Version:  8
     \\/     M anipulation  |
\*---------------------------------------------------------------------------*/
FoamFile
{
    version     2.0;
    format      ascii;
    class       volScalarField;
    location    "100";
    object      nut;
}
// * * * * * * * * * * * * * * * * * * * * * * * * * * * * * * * * * * * * * //

dimensions      [0 2 -1 0 0 0 0];

internalField   nonuniform List<scalar> 
1200
(
0.000201954
0.000185938
0.000172576
0.000161286
0.000151637
0.000143308
0.000136058
0.0001297
0.000124088
0.000119106
0.000114659
0.00011067
0.000107077
0.000103828
0.000100878
9.81919e-05
9.57378e-05
9.34895e-05
9.14242e-05
8.95224e-05
8.77672e-05
8.6144e-05
8.46397e-05
8.32431e-05
8.19444e-05
8.07346e-05
7.9606e-05
7.85517e-05
7.75654e-05
7.66417e-05
7.57755e-05
7.49623e-05
7.41981e-05
7.34792e-05
7.28023e-05
7.21644e-05
7.15626e-05
7.09946e-05
7.0458e-05
6.99506e-05
6.94707e-05
6.90163e-05
6.85859e-05
6.8178e-05
6.77912e-05
6.74242e-05
6.70759e-05
6.67452e-05
6.64311e-05
6.61327e-05
6.58492e-05
6.55797e-05
6.53236e-05
6.50802e-05
6.48487e-05
6.46289e-05
6.44199e-05
6.42215e-05
6.40331e-05
6.38502e-05
0.00011703
0.000100512
8.78407e-05
7.78736e-05
6.98627e-05
6.32983e-05
5.78323e-05
5.32179e-05
4.92752e-05
4.58714e-05
4.29062e-05
4.03015e-05
3.79968e-05
3.59446e-05
3.41063e-05
3.24514e-05
3.09546e-05
2.9595e-05
2.8355e-05
2.72201e-05
2.6178e-05
2.52179e-05
2.43309e-05
2.35092e-05
2.27463e-05
2.2036e-05
2.13735e-05
2.07541e-05
2.01741e-05
1.96299e-05
1.91185e-05
1.8637e-05
1.81831e-05
1.77547e-05
1.73498e-05
1.69665e-05
1.66033e-05
1.62587e-05
1.59314e-05
1.56202e-05
1.53239e-05
1.50417e-05
1.47724e-05
1.45151e-05
1.42692e-05
1.40339e-05
1.38084e-05
1.35923e-05
1.33847e-05
1.3185e-05
1.29931e-05
1.28082e-05
1.263e-05
1.24582e-05
1.22924e-05
1.21322e-05
1.19774e-05
1.18275e-05
1.16811e-05
1.15354e-05
0.000117003
0.00010034
8.75449e-05
7.74579e-05
6.93329e-05
6.26671e-05
5.71119e-05
5.24188e-05
4.8407e-05
4.49419e-05
4.19216e-05
3.92676e-05
3.69186e-05
3.48259e-05
3.29507e-05
3.12613e-05
2.9732e-05
2.83414e-05
2.70718e-05
2.59086e-05
2.4839e-05
2.38524e-05
2.29398e-05
2.20931e-05
2.13057e-05
2.05716e-05
1.98858e-05
1.92436e-05
1.86411e-05
1.80749e-05
1.75418e-05
1.7039e-05
1.65641e-05
1.61149e-05
1.56893e-05
1.52858e-05
1.49025e-05
1.45381e-05
1.41912e-05
1.38607e-05
1.35455e-05
1.32445e-05
1.2957e-05
1.26819e-05
1.24187e-05
1.21665e-05
1.19248e-05
1.16929e-05
1.14704e-05
1.12567e-05
1.10513e-05
1.08539e-05
1.0664e-05
1.04812e-05
1.03053e-05
1.01359e-05
9.97256e-06
9.81513e-06
9.66321e-06
9.51626e-06
0.000117003
0.000100379
8.7609e-05
7.75389e-05
6.94224e-05
6.27596e-05
5.72033e-05
5.25069e-05
4.84905e-05
4.50202e-05
4.19944e-05
3.93351e-05
3.69809e-05
3.48832e-05
3.30033e-05
3.13097e-05
2.97764e-05
2.83821e-05
2.71092e-05
2.59427e-05
2.487e-05
2.38805e-05
2.2965e-05
2.21156e-05
2.13255e-05
2.05889e-05
1.99005e-05
1.92559e-05
1.8651e-05
1.80823e-05
1.75468e-05
1.70417e-05
1.65644e-05
1.61128e-05
1.56849e-05
1.52789e-05
1.48931e-05
1.45262e-05
1.41768e-05
1.38436e-05
1.35256e-05
1.32219e-05
1.29314e-05
1.26533e-05
1.23869e-05
1.21315e-05
1.18864e-05
1.1651e-05
1.14247e-05
1.12071e-05
1.09977e-05
1.0796e-05
1.06017e-05
1.04143e-05
1.02335e-05
1.00589e-05
9.89037e-06
9.72747e-06
9.56996e-06
9.41759e-06
0.000117003
0.000100379
8.76028e-05
7.75266e-05
6.94051e-05
6.27389e-05
5.7181e-05
5.2484e-05
4.8468e-05
4.49986e-05
4.19742e-05
3.93163e-05
3.69635e-05
3.48674e-05
3.2989e-05
3.12967e-05
2.97646e-05
2.83716e-05
2.70997e-05
2.59342e-05
2.48624e-05
2.38737e-05
2.2959e-05
2.21102e-05
2.13208e-05
2.05847e-05
1.98968e-05
1.92526e-05
1.86481e-05
1.80798e-05
1.75446e-05
1.70397e-05
1.65627e-05
1.61113e-05
1.56836e-05
1.52778e-05
1.48922e-05
1.45254e-05
1.4176e-05
1.3843e-05
1.35251e-05
1.32214e-05
1.29309e-05
1.26529e-05
1.23865e-05
1.2131e-05
1.18859e-05
1.16504e-05
1.14241e-05
1.12065e-05
1.09969e-05
1.07951e-05
1.06006e-05
1.0413e-05
1.02319e-05
1.00571e-05
9.88828e-06
9.72504e-06
9.56715e-06
9.41439e-06
0.000117003
0.000100379
8.76027e-05
7.75264e-05
6.94052e-05
6.27389e-05
5.71809e-05
5.24841e-05
4.84681e-05
4.49987e-05
4.19743e-05
3.93164e-05
3.69636e-05
3.48675e-05
3.29891e-05
3.12968e-05
2.97647e-05
2.83717e-05
2.70998e-05
2.59343e-05
2.48625e-05
2.38738e-05
2.2959e-05
2.21103e-05
2.13208e-05
2.05847e-05
1.98968e-05
1.92526e-05
1.86481e-05
1.80798e-05
1.75446e-05
1.70397e-05
1.65627e-05
1.61113e-05
1.56836e-05
1.52778e-05
1.48922e-05
1.45254e-05
1.4176e-05
1.3843e-05
1.35251e-05
1.32214e-05
1.29309e-05
1.26529e-05
1.23865e-05
1.21311e-05
1.18859e-05
1.16505e-05
1.14242e-05
1.12065e-05
1.0997e-05
1.07952e-05
1.06006e-05
1.0413e-05
1.0232e-05
1.00572e-05
9.88839e-06
9.72516e-06
9.56731e-06
9.41458e-06
0.000117003
0.000100379
8.76089e-05
7.75386e-05
6.94223e-05
6.27594e-05
5.72033e-05
5.25069e-05
4.84906e-05
4.50204e-05
4.19947e-05
3.93354e-05
3.69812e-05
3.48837e-05
3.30038e-05
3.13102e-05
2.97769e-05
2.83827e-05
2.71098e-05
2.59433e-05
2.48706e-05
2.38811e-05
2.29657e-05
2.21163e-05
2.13262e-05
2.05896e-05
1.99012e-05
1.92566e-05
1.86517e-05
1.8083e-05
1.75475e-05
1.70424e-05
1.65651e-05
1.61134e-05
1.56855e-05
1.52795e-05
1.48937e-05
1.45267e-05
1.41772e-05
1.3844e-05
1.3526e-05
1.32221e-05
1.29316e-05
1.26534e-05
1.23869e-05
1.21314e-05
1.18862e-05
1.16507e-05
1.14243e-05
1.12066e-05
1.0997e-05
1.07951e-05
1.06005e-05
1.04129e-05
1.02318e-05
1.0057e-05
9.88808e-06
9.72482e-06
9.56695e-06
9.41418e-06
0.000117003
0.00010034
8.75448e-05
7.74578e-05
6.93327e-05
6.2667e-05
5.71118e-05
5.24188e-05
4.84071e-05
4.49421e-05
4.19218e-05
3.92679e-05
3.69189e-05
3.48263e-05
3.29511e-05
3.12617e-05
2.97324e-05
2.83419e-05
2.70724e-05
2.5909e-05
2.48392e-05
2.38523e-05
2.29393e-05
2.20922e-05
2.13042e-05
2.05695e-05
1.98829e-05
1.92399e-05
1.86365e-05
1.80693e-05
1.75352e-05
1.70313e-05
1.65552e-05
1.61047e-05
1.56778e-05
1.52727e-05
1.48879e-05
1.45218e-05
1.41732e-05
1.38408e-05
1.35236e-05
1.32205e-05
1.29306e-05
1.26532e-05
1.23874e-05
1.21325e-05
1.18879e-05
1.1653e-05
1.14272e-05
1.121e-05
1.1001e-05
1.07996e-05
1.06056e-05
1.04185e-05
1.02379e-05
1.00635e-05
9.89508e-06
9.73224e-06
9.57473e-06
9.42231e-06
0.00011703
0.000100512
8.78408e-05
7.78733e-05
6.98617e-05
6.32978e-05
5.78317e-05
5.32173e-05
4.92757e-05
4.58729e-05
4.29082e-05
4.03047e-05
3.8002e-05
3.59523e-05
3.41169e-05
3.24648e-05
3.09706e-05
2.96134e-05
2.83755e-05
2.72422e-05
2.62009e-05
2.52414e-05
2.43546e-05
2.35327e-05
2.2769e-05
2.2058e-05
2.13946e-05
2.07741e-05
2.01928e-05
1.96471e-05
1.91342e-05
1.86514e-05
1.81962e-05
1.77666e-05
1.73607e-05
1.69766e-05
1.66127e-05
1.62678e-05
1.59405e-05
1.56296e-05
1.53341e-05
1.5053e-05
1.47852e-05
1.45302e-05
1.42871e-05
1.40549e-05
1.38333e-05
1.36216e-05
1.3419e-05
1.32251e-05
1.30395e-05
1.28617e-05
1.26914e-05
1.25281e-05
1.23714e-05
1.22211e-05
1.20766e-05
1.19375e-05
1.18023e-05
1.16569e-05
0.000201954
0.000185938
0.000172576
0.000161287
0.000151637
0.000143308
0.000136058
0.0001297
0.000124088
0.000119106
0.000114659
0.000110671
0.000107078
0.000103829
0.000100879
9.81933e-05
9.57394e-05
9.34911e-05
9.14259e-05
8.95242e-05
8.77691e-05
8.61459e-05
8.46417e-05
8.32452e-05
8.19464e-05
8.07366e-05
7.9608e-05
7.85537e-05
7.75674e-05
7.66436e-05
7.57774e-05
7.49642e-05
7.41999e-05
7.3481e-05
7.2804e-05
7.2166e-05
7.15643e-05
7.09962e-05
7.04595e-05
6.99522e-05
6.94722e-05
6.90178e-05
6.85874e-05
6.81795e-05
6.77927e-05
6.74257e-05
6.70774e-05
6.67468e-05
6.64327e-05
6.61344e-05
6.58509e-05
6.55814e-05
6.53253e-05
6.50818e-05
6.48504e-05
6.46304e-05
6.44214e-05
6.42227e-05
6.4034e-05
6.38554e-05
0.000201955
0.000185939
0.000172577
0.000161287
0.000151637
0.000143307
0.000136057
0.000129699
0.000124087
0.000119105
0.000114658
0.000110669
0.000107076
0.000103827
0.000100878
9.81913e-05
9.57373e-05
9.34891e-05
9.1424e-05
8.95223e-05
8.77672e-05
8.6144e-05
8.46398e-05
8.32433e-05
8.19445e-05
8.07347e-05
7.96061e-05
7.85518e-05
7.75655e-05
7.66418e-05
7.57756e-05
7.49623e-05
7.41981e-05
7.34792e-05
7.28023e-05
7.21644e-05
7.15628e-05
7.09948e-05
7.04582e-05
6.99509e-05
6.9471e-05
6.90167e-05
6.85863e-05
6.81785e-05
6.77918e-05
6.74249e-05
6.70767e-05
6.67461e-05
6.64322e-05
6.6134e-05
6.58507e-05
6.55814e-05
6.53255e-05
6.50823e-05
6.48513e-05
6.46317e-05
6.44231e-05
6.4225e-05
6.40371e-05
6.38571e-05
0.000117031
0.000100512
8.7836e-05
7.78634e-05
6.98472e-05
6.3281e-05
5.78142e-05
5.31999e-05
4.92593e-05
4.58583e-05
4.28958e-05
4.02948e-05
3.79945e-05
3.59467e-05
3.41133e-05
3.24627e-05
3.09693e-05
2.96121e-05
2.8374e-05
2.724e-05
2.61978e-05
2.52371e-05
2.43491e-05
2.35259e-05
2.2761e-05
2.20489e-05
2.13844e-05
2.07632e-05
2.01813e-05
1.96353e-05
1.91222e-05
1.86394e-05
1.81845e-05
1.77552e-05
1.73497e-05
1.69661e-05
1.66029e-05
1.62587e-05
1.5932e-05
1.56215e-05
1.53262e-05
1.5045e-05
1.47769e-05
1.45212e-05
1.42767e-05
1.40428e-05
1.38188e-05
1.36038e-05
1.33976e-05
1.31993e-05
1.30082e-05
1.2824e-05
1.26462e-05
1.24742e-05
1.23078e-05
1.21466e-05
1.19901e-05
1.18376e-05
1.16876e-05
1.15311e-05
0.000117003
0.00010034
8.75446e-05
7.74576e-05
6.93323e-05
6.26666e-05
5.71115e-05
5.24184e-05
4.84066e-05
4.49415e-05
4.19212e-05
3.92673e-05
3.69183e-05
3.48256e-05
3.29504e-05
3.1261e-05
2.97317e-05
2.83412e-05
2.70716e-05
2.59083e-05
2.48386e-05
2.3852e-05
2.29391e-05
2.20923e-05
2.13047e-05
2.05704e-05
1.98843e-05
1.92418e-05
1.86391e-05
1.80726e-05
1.75391e-05
1.7036e-05
1.65608e-05
1.61113e-05
1.56855e-05
1.52816e-05
1.4898e-05
1.45332e-05
1.41861e-05
1.38553e-05
1.35397e-05
1.32385e-05
1.29506e-05
1.26752e-05
1.24116e-05
1.21591e-05
1.19171e-05
1.16849e-05
1.14621e-05
1.1248e-05
1.10423e-05
1.08445e-05
1.06543e-05
1.04711e-05
1.02948e-05
1.0125e-05
9.96133e-06
9.80349e-06
9.65114e-06
9.50378e-06
0.000117003
0.000100379
8.76086e-05
7.75385e-05
6.94223e-05
6.27594e-05
5.72031e-05
5.25068e-05
4.84905e-05
4.50202e-05
4.19945e-05
3.93352e-05
3.69809e-05
3.48833e-05
3.30034e-05
3.13097e-05
2.97764e-05
2.83821e-05
2.71092e-05
2.59427e-05
2.487e-05
2.38805e-05
2.2965e-05
2.21156e-05
2.13255e-05
2.05889e-05
1.99005e-05
1.92558e-05
1.86509e-05
1.80823e-05
1.75468e-05
1.70416e-05
1.65643e-05
1.61127e-05
1.56848e-05
1.52788e-05
1.4893e-05
1.45261e-05
1.41766e-05
1.38435e-05
1.35255e-05
1.32217e-05
1.29312e-05
1.26531e-05
1.23867e-05
1.21313e-05
1.18861e-05
1.16507e-05
1.14244e-05
1.12068e-05
1.09974e-05
1.07956e-05
1.06012e-05
1.04138e-05
1.02329e-05
1.00583e-05
9.88967e-06
9.72669e-06
9.56911e-06
9.41667e-06
0.000117003
0.000100379
8.76025e-05
7.75261e-05
6.94048e-05
6.27385e-05
5.71806e-05
5.24837e-05
4.84677e-05
4.49984e-05
4.19741e-05
3.93161e-05
3.69634e-05
3.48673e-05
3.29889e-05
3.12966e-05
2.97645e-05
2.83715e-05
2.70996e-05
2.59341e-05
2.48623e-05
2.38736e-05
2.29589e-05
2.21101e-05
2.13207e-05
2.05846e-05
1.98967e-05
1.92525e-05
1.8648e-05
1.80797e-05
1.75445e-05
1.70396e-05
1.65626e-05
1.61112e-05
1.56835e-05
1.52777e-05
1.48921e-05
1.45253e-05
1.4176e-05
1.38429e-05
1.3525e-05
1.32213e-05
1.29308e-05
1.26528e-05
1.23864e-05
1.2131e-05
1.18858e-05
1.16504e-05
1.14241e-05
1.12064e-05
1.09969e-05
1.0795e-05
1.06005e-05
1.04129e-05
1.02319e-05
1.00571e-05
9.8882e-06
9.72497e-06
9.56711e-06
9.41435e-06
0.000117003
0.000100379
8.76024e-05
7.75261e-05
6.94047e-05
6.27385e-05
5.71806e-05
5.24837e-05
4.84677e-05
4.49984e-05
4.1974e-05
3.93161e-05
3.69634e-05
3.48674e-05
3.29889e-05
3.12966e-05
2.97646e-05
2.83715e-05
2.70997e-05
2.59342e-05
2.48624e-05
2.38737e-05
2.29589e-05
2.21102e-05
2.13207e-05
2.05846e-05
1.98967e-05
1.92525e-05
1.8648e-05
1.80797e-05
1.75445e-05
1.70396e-05
1.65626e-05
1.61113e-05
1.56835e-05
1.52777e-05
1.48921e-05
1.45253e-05
1.41759e-05
1.38429e-05
1.3525e-05
1.32213e-05
1.29308e-05
1.26528e-05
1.23864e-05
1.2131e-05
1.18858e-05
1.16504e-05
1.14241e-05
1.12064e-05
1.09968e-05
1.0795e-05
1.06005e-05
1.04129e-05
1.02319e-05
1.00571e-05
9.88821e-06
9.72498e-06
9.56712e-06
9.41437e-06
0.000117003
0.000100379
8.76088e-05
7.75387e-05
6.94224e-05
6.27596e-05
5.72033e-05
5.25069e-05
4.84906e-05
4.50204e-05
4.19946e-05
3.93353e-05
3.69812e-05
3.48836e-05
3.30037e-05
3.13101e-05
2.97768e-05
2.83826e-05
2.71097e-05
2.59432e-05
2.48706e-05
2.38811e-05
2.29656e-05
2.21163e-05
2.13262e-05
2.05896e-05
1.99012e-05
1.92565e-05
1.86517e-05
1.8083e-05
1.75475e-05
1.70423e-05
1.65651e-05
1.61134e-05
1.56855e-05
1.52794e-05
1.48937e-05
1.45267e-05
1.41772e-05
1.3844e-05
1.3526e-05
1.32221e-05
1.29316e-05
1.26534e-05
1.2387e-05
1.21314e-05
1.18862e-05
1.16507e-05
1.14243e-05
1.12066e-05
1.0997e-05
1.07951e-05
1.06006e-05
1.0413e-05
1.02319e-05
1.00571e-05
9.88821e-06
9.72495e-06
9.56705e-06
9.41428e-06
0.000117003
0.00010034
8.75446e-05
7.74576e-05
6.93325e-05
6.26668e-05
5.71115e-05
5.24185e-05
4.84067e-05
4.49417e-05
4.19216e-05
3.92677e-05
3.69187e-05
3.48261e-05
3.29509e-05
3.12616e-05
2.97323e-05
2.83418e-05
2.70723e-05
2.59089e-05
2.48392e-05
2.38523e-05
2.29392e-05
2.20921e-05
2.13041e-05
2.05694e-05
1.98828e-05
1.92398e-05
1.86365e-05
1.80693e-05
1.75351e-05
1.70312e-05
1.65551e-05
1.61046e-05
1.56777e-05
1.52726e-05
1.48877e-05
1.45217e-05
1.4173e-05
1.38406e-05
1.35234e-05
1.32203e-05
1.29304e-05
1.2653e-05
1.23872e-05
1.21323e-05
1.18877e-05
1.16527e-05
1.14269e-05
1.12098e-05
1.10007e-05
1.07994e-05
1.06053e-05
1.04182e-05
1.02375e-05
1.00631e-05
9.8946e-06
9.73167e-06
9.57409e-06
9.42164e-06
0.00011703
0.000100511
8.7836e-05
7.78649e-05
6.98511e-05
6.32866e-05
5.78227e-05
5.32118e-05
4.92737e-05
4.58752e-05
4.2915e-05
4.03146e-05
3.80134e-05
3.59635e-05
3.4127e-05
3.24727e-05
3.09755e-05
2.96146e-05
2.83729e-05
2.72358e-05
2.61912e-05
2.52286e-05
2.43391e-05
2.3515e-05
2.27497e-05
2.20372e-05
2.13725e-05
2.07511e-05
2.01693e-05
1.96234e-05
1.91104e-05
1.86275e-05
1.81723e-05
1.77426e-05
1.73366e-05
1.69524e-05
1.65884e-05
1.62433e-05
1.59157e-05
1.56042e-05
1.5308e-05
1.50259e-05
1.4757e-05
1.45005e-05
1.42554e-05
1.40213e-05
1.37973e-05
1.35827e-05
1.33773e-05
1.31802e-05
1.29911e-05
1.28094e-05
1.26349e-05
1.24672e-05
1.23058e-05
1.21508e-05
1.20016e-05
1.18579e-05
1.17182e-05
1.15687e-05
0.000201955
0.000185939
0.000172577
0.000161287
0.000151637
0.000143308
0.000136057
0.000129699
0.000124088
0.000119106
0.000114659
0.00011067
0.000107078
0.000103829
0.000100879
9.81934e-05
9.57395e-05
9.34913e-05
9.14262e-05
8.95245e-05
8.77694e-05
8.61461e-05
8.46419e-05
8.32453e-05
8.19465e-05
8.07368e-05
7.96081e-05
7.85538e-05
7.75675e-05
7.66437e-05
7.57774e-05
7.49642e-05
7.41999e-05
7.34809e-05
7.2804e-05
7.21659e-05
7.15642e-05
7.0996e-05
7.04593e-05
6.99519e-05
6.94719e-05
6.90175e-05
6.8587e-05
6.8179e-05
6.77921e-05
6.74251e-05
6.70767e-05
6.6746e-05
6.64318e-05
6.61333e-05
6.58496e-05
6.558e-05
6.53236e-05
6.50799e-05
6.48482e-05
6.46279e-05
6.44185e-05
6.42195e-05
6.40304e-05
6.38512e-05
)
;

boundaryField
{
    wall
    {
        type            nutkWallFunction;
        Cmu             0.09;
        kappa           0.41;
        E               9.8;
        value           nonuniform List<scalar> 
1200
(
1.453e-05
1.35454e-05
1.35424e-05
1.35424e-05
1.35424e-05
1.35424e-05
1.35424e-05
1.35424e-05
1.35454e-05
1.45301e-05
1.34572e-05
1.17545e-05
1.17357e-05
1.174e-05
1.174e-05
1.174e-05
1.174e-05
1.17357e-05
1.17545e-05
1.34572e-05
1.25547e-05
1.03594e-05
1.03266e-05
1.03337e-05
1.0333e-05
1.0333e-05
1.03337e-05
1.03266e-05
1.03594e-05
1.25547e-05
1.17864e-05
9.24673e-06
9.19997e-06
9.20907e-06
9.20768e-06
9.20768e-06
9.20905e-06
9.19996e-06
9.24672e-06
1.17864e-05
1.11251e-05
8.34112e-06
8.28076e-06
8.29094e-06
8.28898e-06
8.28899e-06
8.29094e-06
8.28074e-06
8.34101e-06
1.11251e-05
1.05507e-05
7.59042e-06
7.51768e-06
7.52831e-06
7.52594e-06
7.52595e-06
7.52831e-06
7.51767e-06
7.59036e-06
1.05507e-05
1.00477e-05
6.95865e-06
6.87476e-06
6.88539e-06
6.88279e-06
6.88279e-06
6.88539e-06
6.87475e-06
6.95858e-06
1.00478e-05
9.60429e-06
6.42005e-06
6.32607e-06
6.33642e-06
6.33373e-06
6.33374e-06
6.33643e-06
6.32607e-06
6.41992e-06
9.6043e-06
9.21089e-06
5.95559e-06
5.85257e-06
5.86246e-06
5.8598e-06
5.85981e-06
5.86248e-06
5.85258e-06
5.95555e-06
9.21091e-06
8.85996e-06
5.55119e-06
5.43994e-06
5.4493e-06
5.44672e-06
5.44673e-06
5.44932e-06
5.43996e-06
5.55121e-06
8.85999e-06
8.54535e-06
5.19604e-06
5.07725e-06
5.08603e-06
5.08358e-06
5.08359e-06
5.08606e-06
5.07727e-06
5.19606e-06
8.5454e-06
8.26204e-06
4.88169e-06
4.75601e-06
4.7642e-06
4.76192e-06
4.76193e-06
4.76424e-06
4.75604e-06
4.88179e-06
8.26209e-06
8.00585e-06
4.60156e-06
4.46954e-06
4.47715e-06
4.47504e-06
4.47505e-06
4.4772e-06
4.46958e-06
4.60184e-06
8.00592e-06
7.77333e-06
4.3504e-06
4.2125e-06
4.21956e-06
4.21761e-06
4.21762e-06
4.21961e-06
4.21255e-06
4.35096e-06
7.77341e-06
7.56157e-06
4.12396e-06
3.98059e-06
3.98712e-06
3.98534e-06
3.98536e-06
3.98719e-06
3.98065e-06
4.12486e-06
7.56166e-06
7.36809e-06
3.91886e-06
3.77031e-06
3.77634e-06
3.77472e-06
3.77474e-06
3.77641e-06
3.77036e-06
3.92009e-06
7.36819e-06
7.19082e-06
3.73226e-06
3.57875e-06
3.58433e-06
3.58286e-06
3.58287e-06
3.5844e-06
3.57882e-06
3.73385e-06
7.19094e-06
7.02797e-06
3.56182e-06
3.40354e-06
3.40868e-06
3.40735e-06
3.40736e-06
3.40876e-06
3.4036e-06
3.56373e-06
7.02809e-06
6.87798e-06
3.40553e-06
3.24266e-06
3.24739e-06
3.24619e-06
3.2462e-06
3.24747e-06
3.24272e-06
3.40777e-06
6.8781e-06
6.73952e-06
3.26174e-06
3.09444e-06
3.09877e-06
3.09769e-06
3.0977e-06
3.09885e-06
3.09447e-06
3.26425e-06
6.73966e-06
6.61145e-06
3.12908e-06
2.95742e-06
2.96137e-06
2.9604e-06
2.96041e-06
2.96146e-06
2.95742e-06
3.13177e-06
6.61159e-06
6.49274e-06
3.00629e-06
2.83039e-06
2.83397e-06
2.8331e-06
2.83311e-06
2.83406e-06
2.83034e-06
3.00912e-06
6.49288e-06
6.3825e-06
2.89233e-06
2.71229e-06
2.71551e-06
2.71473e-06
2.71473e-06
2.7156e-06
2.71217e-06
2.89526e-06
6.38265e-06
6.27996e-06
2.78632e-06
2.6022e-06
2.60507e-06
2.60437e-06
2.60438e-06
2.60517e-06
2.60202e-06
2.78928e-06
6.28011e-06
6.18443e-06
2.68749e-06
2.49935e-06
2.50187e-06
2.50125e-06
2.50125e-06
2.50196e-06
2.49907e-06
2.69041e-06
6.18457e-06
6.09528e-06
2.59513e-06
2.40303e-06
2.4052e-06
2.40465e-06
2.40466e-06
2.4053e-06
2.40265e-06
2.59797e-06
6.09543e-06
6.01199e-06
2.50865e-06
2.31264e-06
2.31448e-06
2.31399e-06
2.31399e-06
2.31458e-06
2.31215e-06
2.51139e-06
6.01213e-06
5.93405e-06
2.42753e-06
2.22765e-06
2.22915e-06
2.22872e-06
2.22873e-06
2.22925e-06
2.22704e-06
2.43011e-06
5.93419e-06
5.86104e-06
2.3513e-06
2.14758e-06
2.14876e-06
2.14838e-06
2.14838e-06
2.14886e-06
2.14684e-06
2.35368e-06
5.86117e-06
5.79255e-06
2.27955e-06
2.07203e-06
2.07288e-06
2.07254e-06
2.07254e-06
2.07298e-06
2.07114e-06
2.2817e-06
5.79268e-06
5.72825e-06
2.21191e-06
2.00062e-06
2.00113e-06
2.00084e-06
2.00084e-06
2.00123e-06
1.99957e-06
2.21382e-06
5.72838e-06
5.66781e-06
2.14805e-06
1.93302e-06
1.93319e-06
1.93294e-06
1.93294e-06
1.93329e-06
1.9318e-06
2.14971e-06
5.66793e-06
5.61094e-06
2.08767e-06
1.86893e-06
1.86877e-06
1.86855e-06
1.86855e-06
1.86886e-06
1.86752e-06
2.08909e-06
5.61106e-06
5.55738e-06
2.03051e-06
1.80809e-06
1.80758e-06
1.80739e-06
1.80739e-06
1.80768e-06
1.80648e-06
2.03169e-06
5.5575e-06
5.5069e-06
1.97633e-06
1.75026e-06
1.7494e-06
1.74924e-06
1.74923e-06
1.74949e-06
1.74844e-06
1.97729e-06
5.50701e-06
5.45927e-06
1.92491e-06
1.69522e-06
1.694e-06
1.69386e-06
1.69386e-06
1.69409e-06
1.69317e-06
1.92568e-06
5.45938e-06
5.41431e-06
1.87605e-06
1.64277e-06
1.64119e-06
1.64107e-06
1.64107e-06
1.64127e-06
1.64048e-06
1.87665e-06
5.41441e-06
5.37183e-06
1.82957e-06
1.59274e-06
1.59079e-06
1.59068e-06
1.59068e-06
1.59086e-06
1.59019e-06
1.83004e-06
5.37193e-06
5.33166e-06
1.78531e-06
1.54497e-06
1.54263e-06
1.54254e-06
1.54254e-06
1.5427e-06
1.54214e-06
1.78569e-06
5.33176e-06
5.29365e-06
1.74311e-06
1.4993e-06
1.49657e-06
1.4965e-06
1.49649e-06
1.49663e-06
1.49619e-06
1.74348e-06
5.29375e-06
5.25768e-06
1.70285e-06
1.45562e-06
1.45248e-06
1.45241e-06
1.45241e-06
1.45253e-06
1.4522e-06
1.70324e-06
5.25777e-06
5.2236e-06
1.6644e-06
1.41378e-06
1.41022e-06
1.41016e-06
1.41016e-06
1.41027e-06
1.41003e-06
1.66487e-06
5.22369e-06
5.1913e-06
1.62764e-06
1.37369e-06
1.36969e-06
1.36964e-06
1.36963e-06
1.36973e-06
1.3696e-06
1.62826e-06
5.19139e-06
5.16067e-06
1.59243e-06
1.33523e-06
1.33079e-06
1.33073e-06
1.33073e-06
1.33081e-06
1.33077e-06
1.5933e-06
5.16077e-06
5.13161e-06
1.55872e-06
1.29832e-06
1.29341e-06
1.29335e-06
1.29334e-06
1.29341e-06
1.29347e-06
1.55991e-06
5.13171e-06
5.10404e-06
1.5264e-06
1.26286e-06
1.25746e-06
1.2574e-06
1.2574e-06
1.25745e-06
1.2576e-06
1.52798e-06
5.10414e-06
5.07786e-06
1.49539e-06
1.22877e-06
1.22287e-06
1.22281e-06
1.2228e-06
1.22285e-06
1.22309e-06
1.49744e-06
5.07796e-06
5.053e-06
1.46564e-06
1.19599e-06
1.18957e-06
1.18949e-06
1.18949e-06
1.18952e-06
1.18985e-06
1.46823e-06
5.0531e-06
5.02939e-06
1.43703e-06
1.16444e-06
1.15747e-06
1.15738e-06
1.15738e-06
1.1574e-06
1.15782e-06
1.44025e-06
5.02949e-06
5.00695e-06
1.40951e-06
1.13405e-06
1.12652e-06
1.12642e-06
1.12641e-06
1.12643e-06
1.12693e-06
1.41344e-06
5.00704e-06
4.98562e-06
1.38306e-06
1.10477e-06
1.09666e-06
1.09653e-06
1.09653e-06
1.09654e-06
1.09712e-06
1.38777e-06
4.98572e-06
4.96535e-06
1.35762e-06
1.07654e-06
1.06782e-06
1.06768e-06
1.06768e-06
1.06768e-06
1.06834e-06
1.36318e-06
4.96544e-06
4.94608e-06
1.33316e-06
1.04932e-06
1.03997e-06
1.0398e-06
1.03979e-06
1.03979e-06
1.04053e-06
1.33959e-06
4.94617e-06
4.92776e-06
1.30965e-06
1.02304e-06
1.01304e-06
1.01284e-06
1.01284e-06
1.01283e-06
1.01365e-06
1.31699e-06
4.92784e-06
4.91035e-06
1.28706e-06
9.97671e-07
9.87e-07
9.86766e-07
9.86764e-07
9.86744e-07
9.8765e-07
1.29533e-06
4.91041e-06
4.89379e-06
1.26538e-06
9.73161e-07
9.618e-07
9.61529e-07
9.61527e-07
9.61502e-07
9.6249e-07
1.27456e-06
4.89384e-06
4.87805e-06
1.2446e-06
9.4947e-07
9.37403e-07
9.3709e-07
9.37087e-07
9.37058e-07
9.38131e-07
1.25463e-06
4.87808e-06
4.86309e-06
1.22468e-06
9.26555e-07
9.13769e-07
9.13412e-07
9.13409e-07
9.13376e-07
9.14536e-07
1.23547e-06
4.86309e-06
4.84887e-06
1.20544e-06
9.04363e-07
8.90865e-07
8.9046e-07
8.90456e-07
8.90419e-07
8.91672e-07
1.21688e-06
4.84884e-06
4.83498e-06
1.18663e-06
8.82817e-07
8.68656e-07
8.68202e-07
8.68196e-07
8.68156e-07
8.69508e-07
1.19691e-06
4.83532e-06
1.45301e-05
1.35454e-05
1.35424e-05
1.35424e-05
1.35424e-05
1.35424e-05
1.35424e-05
1.35424e-05
1.35454e-05
1.45301e-05
1.34573e-05
1.17545e-05
1.17357e-05
1.174e-05
1.174e-05
1.174e-05
1.174e-05
1.17357e-05
1.17544e-05
1.34573e-05
1.25548e-05
1.03589e-05
1.03265e-05
1.03337e-05
1.0333e-05
1.0333e-05
1.03337e-05
1.03265e-05
1.03588e-05
1.25548e-05
1.17865e-05
9.24549e-06
9.19992e-06
9.20903e-06
9.20763e-06
9.20763e-06
9.20905e-06
9.19993e-06
9.24564e-06
1.17865e-05
1.11252e-05
8.33916e-06
8.28069e-06
8.29093e-06
8.28894e-06
8.28893e-06
8.29094e-06
8.2807e-06
8.3396e-06
1.11252e-05
1.05507e-05
7.58813e-06
7.51762e-06
7.5283e-06
7.5259e-06
7.5259e-06
7.52832e-06
7.51764e-06
7.58878e-06
1.05507e-05
1.00477e-05
6.95616e-06
6.8747e-06
6.88537e-06
6.88275e-06
6.88275e-06
6.88539e-06
6.87472e-06
6.95717e-06
1.00477e-05
9.60421e-06
6.41745e-06
6.32601e-06
6.33641e-06
6.3337e-06
6.3337e-06
6.33643e-06
6.32604e-06
6.41892e-06
9.60425e-06
9.2108e-06
5.95315e-06
5.85251e-06
5.86246e-06
5.85977e-06
5.85977e-06
5.86248e-06
5.85255e-06
5.95499e-06
9.21085e-06
8.85987e-06
5.54899e-06
5.43989e-06
5.4493e-06
5.4467e-06
5.4467e-06
5.44932e-06
5.43993e-06
5.55121e-06
8.85994e-06
8.54527e-06
5.1941e-06
5.0772e-06
5.08603e-06
5.08357e-06
5.08357e-06
5.08606e-06
5.07725e-06
5.1967e-06
8.54535e-06
8.26196e-06
4.88015e-06
4.75597e-06
4.76421e-06
4.7619e-06
4.7619e-06
4.76424e-06
4.75602e-06
4.88295e-06
8.26206e-06
8.00578e-06
4.60052e-06
4.4695e-06
4.47716e-06
4.47502e-06
4.47503e-06
4.4772e-06
4.46956e-06
4.60331e-06
8.0059e-06
7.77327e-06
4.34992e-06
4.21246e-06
4.21957e-06
4.2176e-06
4.21761e-06
4.21961e-06
4.21253e-06
4.35252e-06
7.7734e-06
7.56151e-06
4.12413e-06
3.98056e-06
3.98713e-06
3.98533e-06
3.98534e-06
3.98718e-06
3.98063e-06
4.12638e-06
7.56165e-06
7.36805e-06
3.91963e-06
3.77027e-06
3.77635e-06
3.77471e-06
3.77472e-06
3.7764e-06
3.77035e-06
3.92144e-06
7.3682e-06
7.19079e-06
3.73354e-06
3.57873e-06
3.58434e-06
3.58285e-06
3.58285e-06
3.58439e-06
3.5788e-06
3.73484e-06
7.19095e-06
7.02794e-06
3.56351e-06
3.40351e-06
3.40869e-06
3.40734e-06
3.40735e-06
3.40875e-06
3.40359e-06
3.56426e-06
7.0281e-06
6.87796e-06
3.40756e-06
3.24263e-06
3.2474e-06
3.24618e-06
3.24619e-06
3.24747e-06
3.24271e-06
3.40775e-06
6.87813e-06
6.73951e-06
3.264e-06
3.0944e-06
3.09877e-06
3.09768e-06
3.09768e-06
3.09885e-06
3.09446e-06
3.26367e-06
6.73968e-06
6.61144e-06
3.13141e-06
2.95737e-06
2.96137e-06
2.96039e-06
2.9604e-06
2.96145e-06
2.95741e-06
3.13064e-06
6.61161e-06
6.49274e-06
3.00861e-06
2.83032e-06
2.83397e-06
2.83309e-06
2.83309e-06
2.83405e-06
2.83033e-06
3.00744e-06
6.4929e-06
6.38251e-06
2.89459e-06
2.7122e-06
2.71551e-06
2.71472e-06
2.71472e-06
2.71559e-06
2.71216e-06
2.89305e-06
6.38267e-06
6.27997e-06
2.78843e-06
2.60209e-06
2.60507e-06
2.60436e-06
2.60437e-06
2.60516e-06
2.602e-06
2.7866e-06
6.28013e-06
6.18444e-06
2.68937e-06
2.4992e-06
2.50187e-06
2.50124e-06
2.50124e-06
2.50196e-06
2.49906e-06
2.68729e-06
6.18459e-06
6.0953e-06
2.59677e-06
2.40285e-06
2.40521e-06
2.40464e-06
2.40465e-06
2.4053e-06
2.40264e-06
2.59446e-06
6.09545e-06
6.012e-06
2.51002e-06
2.31242e-06
2.31448e-06
2.31398e-06
2.31398e-06
2.31457e-06
2.31214e-06
2.5075e-06
6.01215e-06
5.93406e-06
2.42862e-06
2.22739e-06
2.22916e-06
2.22871e-06
2.22871e-06
2.22925e-06
2.22702e-06
2.4259e-06
5.93421e-06
5.86105e-06
2.3521e-06
2.14729e-06
2.14876e-06
2.14837e-06
2.14837e-06
2.14885e-06
2.14682e-06
2.34921e-06
5.86119e-06
5.79257e-06
2.28005e-06
2.07169e-06
2.07288e-06
2.07253e-06
2.07253e-06
2.07297e-06
2.07112e-06
2.27702e-06
5.7927e-06
5.72826e-06
2.21213e-06
2.00024e-06
2.00113e-06
2.00083e-06
2.00083e-06
2.00122e-06
1.99955e-06
2.20895e-06
5.72839e-06
5.66782e-06
2.14801e-06
1.93259e-06
1.9332e-06
1.93293e-06
1.93293e-06
1.93329e-06
1.93177e-06
2.14467e-06
5.66794e-06
5.61095e-06
2.0874e-06
1.86845e-06
1.86877e-06
1.86854e-06
1.86854e-06
1.86886e-06
1.8675e-06
2.0839e-06
5.61107e-06
5.55739e-06
2.03002e-06
1.80756e-06
1.80758e-06
1.80738e-06
1.80738e-06
1.80767e-06
1.80645e-06
2.02638e-06
5.55751e-06
5.50691e-06
1.97566e-06
1.74967e-06
1.7494e-06
1.74923e-06
1.74922e-06
1.74948e-06
1.74841e-06
1.97186e-06
5.50702e-06
5.45929e-06
1.9241e-06
1.69458e-06
1.694e-06
1.69385e-06
1.69385e-06
1.69408e-06
1.69313e-06
1.92013e-06
5.45939e-06
5.41432e-06
1.87513e-06
1.64208e-06
1.64119e-06
1.64106e-06
1.64106e-06
1.64126e-06
1.64044e-06
1.87101e-06
5.41442e-06
5.37184e-06
1.82859e-06
1.59199e-06
1.59078e-06
1.59068e-06
1.59067e-06
1.59086e-06
1.59016e-06
1.82432e-06
5.37193e-06
5.33167e-06
1.78429e-06
1.54416e-06
1.54263e-06
1.54254e-06
1.54253e-06
1.54269e-06
1.54211e-06
1.77989e-06
5.33176e-06
5.29367e-06
1.74208e-06
1.49845e-06
1.49657e-06
1.49649e-06
1.49649e-06
1.49663e-06
1.49615e-06
1.73756e-06
5.29376e-06
5.25769e-06
1.70183e-06
1.4547e-06
1.45247e-06
1.45241e-06
1.4524e-06
1.45253e-06
1.45216e-06
1.69721e-06
5.25777e-06
5.22361e-06
1.66339e-06
1.41281e-06
1.41021e-06
1.41016e-06
1.41015e-06
1.41026e-06
1.41e-06
1.65871e-06
5.22369e-06
5.19132e-06
1.62667e-06
1.37266e-06
1.36968e-06
1.36963e-06
1.36963e-06
1.36972e-06
1.36955e-06
1.62195e-06
5.19139e-06
5.16069e-06
1.59154e-06
1.33414e-06
1.33077e-06
1.33073e-06
1.33072e-06
1.3308e-06
1.33073e-06
1.58681e-06
5.16076e-06
5.13164e-06
1.5579e-06
1.29717e-06
1.29338e-06
1.29334e-06
1.29334e-06
1.29341e-06
1.29343e-06
1.5532e-06
5.1317e-06
5.10407e-06
1.52564e-06
1.26165e-06
1.25744e-06
1.2574e-06
1.25739e-06
1.25745e-06
1.25756e-06
1.52104e-06
5.10412e-06
5.0779e-06
1.49468e-06
1.22751e-06
1.22285e-06
1.2228e-06
1.2228e-06
1.22284e-06
1.22305e-06
1.49025e-06
5.07794e-06
5.05304e-06
1.46493e-06
1.19466e-06
1.18953e-06
1.18949e-06
1.18948e-06
1.18952e-06
1.18981e-06
1.46073e-06
5.05307e-06
5.02943e-06
1.43636e-06
1.16305e-06
1.15743e-06
1.15738e-06
1.15737e-06
1.1574e-06
1.15777e-06
1.43245e-06
5.02945e-06
5.007e-06
1.40886e-06
1.13261e-06
1.12648e-06
1.12641e-06
1.12641e-06
1.12643e-06
1.12689e-06
1.40533e-06
5.007e-06
4.98568e-06
1.38237e-06
1.10327e-06
1.09661e-06
1.09653e-06
1.09652e-06
1.09654e-06
1.09708e-06
1.3793e-06
4.98566e-06
4.96542e-06
1.35685e-06
1.07498e-06
1.06777e-06
1.06767e-06
1.06767e-06
1.06768e-06
1.0683e-06
1.35432e-06
4.96537e-06
4.94616e-06
1.33225e-06
1.04769e-06
1.0399e-06
1.03979e-06
1.03978e-06
1.03979e-06
1.04049e-06
1.33034e-06
4.94608e-06
4.92786e-06
1.30853e-06
1.02136e-06
1.01297e-06
1.01284e-06
1.01283e-06
1.01283e-06
1.01361e-06
1.30733e-06
4.92774e-06
4.91046e-06
1.28566e-06
9.95924e-07
9.86919e-07
9.86759e-07
9.86752e-07
9.8675e-07
9.8762e-07
1.28523e-06
4.9103e-06
4.89391e-06
1.26362e-06
9.71351e-07
9.61711e-07
9.61522e-07
9.61514e-07
9.61509e-07
9.62467e-07
1.26403e-06
4.89371e-06
4.87819e-06
1.24238e-06
9.47595e-07
9.37304e-07
9.37083e-07
9.37073e-07
9.37066e-07
9.38118e-07
1.2437e-06
4.87793e-06
4.86324e-06
1.22185e-06
9.24612e-07
9.13662e-07
9.13404e-07
9.13393e-07
9.13385e-07
9.14538e-07
1.22414e-06
4.86293e-06
4.84904e-06
1.20186e-06
9.02351e-07
8.90749e-07
8.90451e-07
8.90439e-07
8.90429e-07
8.91693e-07
1.20519e-06
4.84866e-06
4.83532e-06
1.18156e-06
8.8074e-07
8.6853e-07
8.68191e-07
8.68177e-07
8.68168e-07
8.69553e-07
1.18493e-06
4.83512e-06
)
;
    }
    inlet
    {
        type            calculated;
        value           uniform 0.00952565;
    }
    outlet
    {
        type            calculated;
        value           nonuniform List<scalar> 
20
(
6.38502e-05
1.15354e-05
9.51626e-06
9.41759e-06
9.41439e-06
9.41458e-06
9.41418e-06
9.42231e-06
1.16569e-05
6.38554e-05
6.38571e-05
1.15311e-05
9.50378e-06
9.41667e-06
9.41435e-06
9.41437e-06
9.41428e-06
9.42164e-06
1.15687e-05
6.38512e-05
)
;
    }
    heatWall
    {
        type            nutkWallFunction;
        Cmu             0.09;