/*--------------------------------*- C++ -*----------------------------------*\
  =========                 |
  \\      /  F ield         | OpenFOAM: The Open Source CFD Toolbox
   \\    /   O peration     | Website:  https://openfoam.org
    \\  /    A nd           | Version:  8
     \\/     M anipulation  |
\*---------------------------------------------------------------------------*/
FoamFile
{
    version     2.0;
    format      ascii;
    class       volScalarField;
    location    "800";
    object      alphat;
}
// * * * * * * * * * * * * * * * * * * * * * * * * * * * * * * * * * * * * * //

dimensions      [1 -1 -1 0 0 0 0];

internalField   nonuniform List<scalar> 
8400
(
0.149728
0.148117
0.146521
0.144934
0.143355
0.141781
0.140211
0.138644
0.137079
0.135517
0.133959
0.132404
0.130855
0.129311
0.127774
0.126245
0.124725
0.123215
0.121714
0.120225
0.118748
0.117282
0.115829
0.114389
0.112961
0.111547
0.110145
0.108757
0.107385
0.10603
0.104691
0.103368
0.102061
0.100769
0.0994926
0.0982317
0.0969861
0.0957559
0.0945395
0.0933393
0.0921567
0.0909923
0.0898465
0.0887198
0.0876129
0.0865268
0.0854628
0.084423
0.0834099
0.0824275
0.06494
0.0648896
0.0648388
0.0647874
0.0647352
0.0646821
0.064628
0.064573
0.0645169
0.06446
0.0644023
0.0643438
0.0642847
0.0642249
0.0641648
0.0641044
0.0640439
0.0639833
0.0639228
0.0638627
0.0638029
0.0637438
0.0636854
0.0636282
0.0635723
0.063518
0.0634655
0.0634151
0.0633599
0.0633012
0.0632404
0.0631784
0.0631155
0.0630525
0.0629899
0.0629285
0.0628691
0.0628122
0.062761
0.0627124
0.0626648
0.0626182
0.0625726
0.0625278
0.0624839
0.0624406
0.0623979
0.0623556
0.0623138
0.0622725
0.0630517
0.0630574
0.0630614
0.0630635
0.0630632
0.0630603
0.0630548
0.0630464
0.0630352
0.0630213
0.0630048
0.0629859
0.0629646
0.0629413
0.0629161
0.0628892
0.0628608
0.0628311
0.0628003
0.0627685
0.0627358
0.0627025
0.0626686
0.0626342
0.0625994
0.0625644
0.062529
0.0624935
0.0624577
0.0624218
0.0623856
0.062349
0.0623123
0.0622754
0.0622386
0.0622018
0.0621652
0.062129
0.0620932
0.0620579
0.0620231
0.061989
0.0619558
0.0619236
0.0618925
0.0618627
0.0618346
0.0618083
0.0617843
0.061763
0.0608089
0.060837
0.0608639
0.0608889
0.0609115
0.0609313
0.0609482
0.0609622
0.0609733
0.0609815
0.0609872
0.0609903
0.0609913
0.0609904
0.0609877
0.0609835
0.060978
0.0609714
0.0609639
0.0609557
0.0609469
0.0609376
0.0609278
0.0609177
0.0609072
0.0608964
0.0608853
0.0608738
0.0608618
0.0608495
0.0608368
0.0608237
0.0608102
0.0607964
0.0607824
0.0607683
0.0607542
0.0607402
0.0607265
0.0607132
0.0607005
0.0606887
0.0606777
0.0606679
0.0606595
0.0606528
0.060648
0.0606455
0.0606456
0.0606492
0.0589537
0.0589947
0.0590343
0.0590718
0.0591068
0.0591391
0.0591686
0.0591955
0.0592197
0.0592415
0.0592611
0.0592789
0.0592949
0.0593095
0.0593228
0.0593353
0.0593469
0.059358
0.0593686
0.0593789
0.0593889
0.0593987
0.0594082
0.0594175
0.0594266
0.0594354
0.0594438
0.0594518
0.0594593
0.0594664
0.059473
0.0594792
0.0594851
0.0594906
0.0594959
0.0595012
0.0595066
0.0595121
0.0595179
0.0595244
0.0595315
0.0595395
0.0595485
0.0595587
0.0595702
0.0595834
0.0595982
0.0596153
0.0596347
0.0596569
0.0575761
0.0576301
0.0576828
0.057733
0.0577803
0.0578243
0.0578651
0.0579029
0.057938
0.0579708
0.0580015
0.0580305
0.0580581
0.0580845
0.0581101
0.0581352
0.0581599
0.0581843
0.0582085
0.0582325
0.0582563
0.05828
0.0583035
0.0583267
0.0583496
0.0583721
0.058394
0.0584153
0.0584361
0.0584564
0.0584762
0.0584955
0.0585146
0.0585335
0.0585522
0.0585711
0.0585901
0.0586096
0.0586297
0.0586505
0.0586723
0.0586949
0.0587187
0.0587437
0.0587699
0.0587976
0.058827
0.058858
0.0588911
0.0589263
0.0563842
0.0564409
0.0565
0.0565594
0.0566174
0.0566734
0.0567268
0.0567776
0.056826
0.0568722
0.0569166
0.0569594
0.057001
0.0570419
0.0570823
0.0571223
0.057162
0.0572015
0.0572407
0.0572796
0.0573183
0.0573565
0.0573942
0.0574311
0.0574673
0.0575025
0.0575367
0.05757
0.0576024
0.0576341
0.0576652
0.057696
0.0577265
0.057757
0.0577876
0.0578186
0.0578503
0.0578828
0.0579162
0.0579508
0.0579864
0.0580232
0.0580611
0.0581004
0.0581409
0.0581826
0.0582259
0.0582708
0.0583176
0.0583662
0.055665
0.0556161
0.0555889
0.0555809
0.0555876
0.0556053
0.0556312
0.0556632
0.0556999
0.0557399
0.0557828
0.0558279
0.0558751
0.0559241
0.0559749
0.0560271
0.0560805
0.0561347
0.0561894
0.0562443
0.0562992
0.0563537
0.0564074
0.0564604
0.0565121
0.0565626
0.0566117
0.0566598
0.0567069
0.0567534
0.0567997
0.0568458
0.056892
0.0569387
0.0569863
0.0570348
0.0570846
0.0571358
0.0571881
0.0572421
0.0572974
0.0573536
0.0574111
0.0574701
0.0575304
0.057592
0.0576547
0.0577193
0.0577855
0.0578537
0.0568909
0.0565797
0.0563204
0.0561074
0.0559307
0.0557836
0.0556617
0.0555615
0.0554797
0.0554136
0.0553615
0.055322
0.0552934
0.0552749
0.0552656
0.0552647
0.0552712
0.0552843
0.0553039
0.0553294
0.0553601
0.0553953
0.0554346
0.0554777
0.0555237
0.0555722
0.0556229
0.0556756
0.0557305
0.0557875
0.0558463
0.055907
0.0559699
0.0560348
0.0561015
0.0561706
0.056242
0.0563155
0.0563905
0.0564672
0.056546
0.0566267
0.0567089
0.0567931
0.0568788
0.0569663
0.0570558
0.0571467
0.0572404
0.0573368
0.0597116
0.0593296
0.0590267
0.0587571
0.0585079
0.0582739
0.0580534
0.0578455
0.0576497
0.0574654
0.0572918
0.0571291
0.0569757
0.0568315
0.0566964
0.0565703
0.0564522
0.0563428
0.0562423
0.0561505
0.0560674
0.0559934
0.0559291
0.0558736
0.0558265
0.055788
0.0557579
0.0557368
0.0557252
0.0557226
0.0557278
0.055741
0.0557617
0.0557886
0.0558228
0.0558637
0.0559092
0.0559609
0.056018
0.0560782
0.0561458
0.0562169
0.05629
0.0563691
0.0564564
0.0565448
0.0566402
0.0567389
0.056843
0.0569524
0.0610614
0.0608692
0.0607081
0.0605641
0.0604301
0.0603009
0.0601764
0.0600563
0.0599389
0.0598227
0.0597084
0.0595957
0.0594843
0.0593752
0.0592671
0.0591598
0.059053
0.0589465
0.0588412
0.0587372
0.0586339
0.0585297
0.0584264
0.0583274
0.0582325
0.0581396
0.0580478
0.057957
0.0578671
0.0577826
0.0577053
0.05763
0.0575583
0.0574918
0.0574275
0.0573698
0.0573185
0.05727
0.0572304
0.057196
0.0571619
0.0571374
0.0571265
0.0571224
0.0571252
0.057136
0.0571549
0.0571817
0.0572141
0.0572507
0.0611705
0.0610997
0.0610306
0.0609629
0.0608961
0.06083
0.0607649
0.0607002
0.060636
0.0605721
0.0605085
0.0604454
0.0603826
0.06032
0.0602575
0.0601951
0.0601326
0.0600701
0.0600079
0.0599458
0.0598835
0.0598215
0.05976
0.0596991
0.0596389
0.0595788
0.0595188
0.0594595
0.059401
0.059343
0.0592857
0.0592286
0.059172
0.0591167
0.0590628
0.0590094
0.0589559
0.0589038
0.058853
0.0588044
0.0587572
0.0587113
0.0586665
0.0586245
0.0585845
0.0585468
0.0585117
0.0584786
0.0584471
0.0584178
0.0611959
0.0611539
0.0611121
0.0610705
0.0610292
0.060988
0.0609468
0.0609056
0.0608643
0.0608231
0.0607818
0.0607405
0.0606991
0.0606578
0.0606164
0.060575
0.0605336
0.0604923
0.0604511
0.0604097
0.0603683
0.0603271
0.0602859
0.0602448
0.0602038
0.0601628
0.0601219
0.0600811
0.0600404
0.0599996
0.0599591
0.0599188
0.0598787
0.0598386
0.0597986
0.0597591
0.0597198
0.0596809
0.0596424
0.0596039
0.0595661
0.0595287
0.0594917
0.0594554
0.0594197
0.0593844
0.0593496
0.0593152
0.0592811
0.0592472
0.0612079
0.0611785
0.061149
0.0611194
0.0610897
0.0610599
0.0610301
0.0610001
0.0609701
0.06094
0.0609098
0.0608795
0.0608493
0.060819
0.0607885
0.060758
0.0607274
0.0606967
0.060666
0.0606353
0.0606047
0.060574
0.0605434
0.0605127
0.060482
0.0604514
0.0604207
0.06039
0.0603594
0.0603287
0.0602982
0.0602677
0.0602372
0.0602068
0.0601766
0.0601464
0.0601163
0.0600861
0.0600561
0.0600261
0.0599965
0.0599669
0.0599375
0.0599082
0.0598791
0.0598501
0.0598212
0.0597924
0.0597637
0.0597348
0.061213
0.0611893
0.0611657
0.0611421
0.0611185
0.0610949
0.0610711
0.0610474
0.0610237
0.0609999
0.0609761
0.0609523
0.0609285
0.0609046
0.0608807
0.0608568
0.0608329
0.060809
0.060785
0.0607611
0.0607371
0.0607131
0.060689
0.060665
0.060641
0.060617
0.060593
0.060569
0.060545
0.060521
0.0604971
0.0604733
0.0604494
0.0604254
0.0604015
0.0603775
0.0603537
0.06033
0.0603063
0.0602827
0.0602591
0.0602355
0.060212
0.0601885
0.060165
0.0601415
0.0601181
0.0600948
0.0600715
0.0600478
0.0612185
0.0612006
0.0611826
0.0611645
0.0611463
0.061128
0.0611096
0.0610912
0.0610727
0.0610541
0.0610354
0.0610166
0.0609978
0.060979
0.0609601
0.0609411
0.060922
0.060903
0.0608839
0.0608647
0.0608455
0.0608263
0.060807
0.0607877
0.0607683
0.0607489
0.0607295
0.0607101
0.0606906
0.0606711
0.0606516
0.0606321
0.0606125
0.0605928
0.0605732
0.0605536
0.0605339
0.0605143
0.0604946
0.0604748
0.0604551
0.0604353
0.0604156
0.0603958
0.0603759
0.0603561
0.0603363
0.0603165
0.0602965
0.0602765
0.0612193
0.0612023
0.0611852
0.0611682
0.0611511
0.0611341
0.0611171
0.0611001
0.0610831
0.061066
0.0610489
0.0610318
0.0610147
0.0609976
0.0609805
0.0609635
0.0609464
0.0609293
0.0609123
0.0608951
0.060878
0.0608609
0.0608438
0.0608268
0.0608097
0.0607927
0.0607757
0.0607588
0.0607419
0.060725
0.0607082
0.0606914
0.0606746
0.0606578
0.060641
0.0606242
0.0606075
0.0605908
0.0605742
0.0605576
0.060541
0.0605245
0.060508
0.0604915
0.0604751
0.0604587
0.0604425
0.0604262
0.06041
0.0603938
0.061224
0.0612125
0.0612011
0.0611898
0.0611784
0.0611671
0.0611558
0.0611445
0.0611331
0.0611217
0.0611103
0.0610989
0.0610875
0.0610761
0.0610647
0.0610534
0.0610421
0.0610307
0.0610192
0.0610077
0.0609961
0.0609845
0.0609729
0.0609612
0.0609496
0.060938
0.0609264
0.0609149
0.0609036
0.0608923
0.0608812
0.0608702
0.0608594
0.0608488
0.0608384
0.0608282
0.0608183
0.0608085
0.0607989
0.0607894
0.0607799
0.0607702
0.0607605
0.0607508
0.060741
0.0607315
0.0607221
0.060713
0.0607044
0.0606959
0.0612838
0.0613307
0.061376
0.0614198
0.0614621
0.0615029
0.0615422
0.06158
0.0616163
0.0616511
0.0616834
0.0617001
0.0616857
0.0616739
0.0616759
0.0616976
0.0617415
0.0618041
0.0618792
0.0619583
0.0620308
0.0620863
0.0621301
0.0621651
0.0621933
0.0622162
0.0622353
0.062252
0.0622684
0.0622867
0.0623089
0.0623365
0.0623702
0.0624104
0.0624572
0.0625107
0.0625708
0.0626327
0.0626945
0.0627561
0.0628168
0.062875
0.0629296
0.0629797
0.0630247
0.0630641
0.0630976
0.0631414
0.0632542
0.0634098
0.228642
0.227335
0.225457
0.223465
0.221433
0.219361
0.217249
0.215107
0.212946
0.210777
0.208611
0.206444
0.204289
0.202138
0.199988
0.19784
0.1957
0.193571
0.19146
0.18937
0.187307
0.185272
0.183255
0.181249
0.179249
0.177252
0.175256
0.173261
0.171265
0.169271
0.16728
0.165296
0.163321
0.161359
0.159414
0.157491
0.15559
0.1537
0.151803
0.149888
0.14795
0.14599
0.144018
0.142047
0.140085
0.13814
0.136213
0.134309
0.132454
0.130722
0.271151
0.267777
0.264528
0.261481
0.258564
0.255728
0.252953
0.250247
0.247617
0.245059
0.24257
0.240144
0.237781
0.235477
0.23323
0.231039
0.228901
0.226816
0.22478
0.222794
0.220857
0.218966
0.217123
0.215325
0.213571
0.211862
0.210193
0.208565
0.206976
0.205422
0.203903
0.202418
0.200966
0.199545
0.198156
0.196798
0.195472
0.194178
0.192914
0.191675
0.190458
0.189259
0.188077
0.18691
0.185753
0.184604
0.183456
0.182298
0.181112
0.17986
0.269229
0.263163
0.257253
0.251566
0.246146
0.240984
0.236062
0.231356
0.226851
0.222535
0.218398
0.214428
0.210614
0.206946
0.203415
0.200013
0.196734
0.19357
0.190516
0.187568
0.184721
0.18197
0.179312
0.176743
0.174258
0.171853
0.169523
0.167263
0.165069
0.162936
0.160861
0.158842
0.156875
0.154959
0.153092
0.151272
0.149495
0.147761
0.146064
0.144409
0.142796
0.141223
0.139689
0.138191
0.136727
0.135297
0.133898
0.132527
0.13118
0.129853
0.269165
0.26301
0.257112
0.251438
0.245997
0.240789
0.235803
0.231024
0.226437
0.222029
0.217791
0.213713
0.209784
0.205997
0.202343
0.198814
0.195405
0.192109
0.188922
0.185839
0.182856
0.179969
0.177174
0.174467
0.171844
0.169302
0.166835
0.164441
0.162114
0.159852
0.157651
0.155509
0.153423
0.151391
0.149414
0.147489
0.145615
0.14379
0.142012
0.140279
0.138591
0.136944
0.135338
0.133772
0.132244
0.130754
0.129301
0.127885
0.126505
0.125158
0.269191
0.263039
0.25718
0.251569
0.246187
0.241024
0.23607
0.231315
0.226745
0.222351
0.218121
0.214047
0.210119
0.20633
0.202671
0.199137
0.195721
0.192417
0.189221
0.186128
0.183133
0.180235
0.177427
0.174708
0.172072
0.169515
0.167035
0.164626
0.162284
0.160007
0.157792
0.155635
0.153536
0.151492
0.149502
0.147564
0.145677
0.14384
0.14205
0.140305
0.138605
0.136946
0.135328
0.13375
0.13221
0.130708
0.129243
0.127814
0.126422
0.125064
0.269208
0.263056
0.257179
0.251556
0.246166
0.240996
0.236034
0.231269
0.226693
0.222293
0.21806
0.213984
0.210055
0.206267
0.20261
0.199079
0.195666
0.192367
0.189175
0.186088
0.183099
0.180206
0.177404
0.17469
0.172059
0.169507
0.16703
0.164624
0.162286
0.160012
0.1578
0.155646
0.15355
0.151509
0.149522
0.147588
0.145704
0.14387
0.142083
0.14034
0.138642
0.136985
0.135368
0.133791
0.132252
0.130749
0.129283
0.127853
0.126458
0.125096
0.269207
0.26307
0.257196
0.251577
0.246196
0.241038
0.236088
0.231336
0.22677
0.22238
0.218155
0.214086
0.210164
0.206381
0.202729
0.199202
0.195792
0.192496
0.189307
0.186221
0.183234
0.180341
0.17754
0.174824
0.172192
0.169638
0.167159
0.16475
0.162409
0.160131
0.157916
0.155759
0.15366
0.151616
0.149627
0.14769
0.145804
0.143966
0.142176
0.140431
0.138729
0.137068
0.135447
0.133865
0.132321
0.130813
0.129342
0.127905
0.126502
0.125132
0.269201
0.26307
0.257201
0.251582
0.2462
0.241039
0.236087
0.231333
0.226763
0.222369
0.218141
0.214068
0.210143
0.206357
0.202703
0.199174
0.195764
0.192467
0.189278
0.186192
0.183206
0.180314
0.177512
0.174797
0.172165
0.16961
0.16713
0.164721
0.162379
0.160101
0.157886
0.15573
0.153631
0.151589
0.1496
0.147664
0.145779
0.143943
0.142154
0.140409
0.138707
0.137047
0.135426
0.133843
0.132298
0.130789
0.129316
0.127877
0.126472
0.125099
0.269199
0.263067
0.257202
0.251586
0.246205
0.241046
0.236097
0.231345
0.226778
0.222387
0.218161
0.214092
0.210169
0.206386
0.202735
0.199209
0.195802
0.192509
0.189323
0.18624
0.183256
0.180365
0.177565
0.17485
0.172217
0.169662
0.16718
0.16477
0.162426
0.160147
0.15793
0.155773
0.153673
0.15163
0.14964
0.147703
0.145817
0.143979
0.142187
0.14044
0.138736
0.137073
0.135449
0.133863
0.132314
0.1308
0.129322
0.127878
0.126466
0.125087
0.269199
0.263066
0.257201
0.251586
0.246206
0.241048
0.236099
0.231346
0.226778
0.222386
0.218159
0.214088
0.210165
0.206381
0.202729
0.199203
0.195796
0.192502
0.189316
0.186233
0.183249
0.180358
0.177556
0.17484
0.172206
0.169649
0.167166
0.164753
0.162408
0.160128
0.15791
0.155752
0.153653
0.151609
0.14962
0.147683
0.145796
0.143958
0.142166
0.140418
0.138712
0.137048
0.135422
0.133835
0.132283
0.130768
0.129287
0.127839
0.126425
0.125041
0.2692
0.263066
0.257201
0.251587
0.246207
0.241049
0.2361
0.231347
0.22678
0.222388
0.218161
0.214091
0.210168
0.206385
0.202735
0.19921
0.195805
0.192513
0.189329
0.186247
0.183264
0.180373
0.177572
0.174855
0.17222
0.169661
0.167177
0.164763
0.162417
0.160136
0.157918
0.15576
0.15366
0.151616
0.149627
0.147689
0.145802
0.143962
0.142168
0.140418
0.138711
0.137044
0.135416
0.133825
0.132271
0.130752
0.129267
0.127815
0.126396
0.125007
0.269201
0.263067
0.257202
0.251587
0.246208
0.24105
0.2361
0.231347
0.226779
0.222387
0.21816
0.214089
0.210167
0.206384
0.202734
0.19921
0.195806
0.192515
0.189332
0.186251
0.183267
0.180377
0.177574
0.174857
0.172219
0.16966
0.167174
0.164759
0.162412
0.16013
0.157911
0.155753
0.153654
0.15161
0.14962
0.147682
0.145793
0.143952
0.142157
0.140405
0.138695
0.137026
0.135396
0.133803
0.132246
0.130724
0.129236
0.12778
0.126356
0.124963
0.269201
0.263068
0.257202
0.251587
0.246208
0.241049
0.236099
0.231345
0.226776
0.222383
0.218155
0.214083
0.21016
0.206377
0.202727
0.199204
0.195799
0.192509
0.189325
0.186244
0.18326
0.180368
0.177565
0.174845
0.172206
0.169645
0.167157
0.164741
0.162393
0.160112
0.157893
0.155735
0.153636
0.151593
0.149603
0.147664
0.145774
0.143932
0.142135
0.140382
0.13867
0.136999
0.135367
0.133772
0.132213
0.130688
0.129197
0.127739
0.126312
0.124914
0.269201
0.263068
0.257203
0.251587
0.246207
0.241048
0.236097
0.231343
0.226774
0.222381
0.218154
0.214083
0.210162
0.20638
0.202732
0.199211
0.195808
0.192519
0.189337
0.186257
0.183273
0.180382
0.177577
0.174857
0.172217
0.169655
0.167166
0.16475
0.162402
0.16012
0.157901
0.155744
0.153644
0.151601
0.14961
0.14767
0.145778
0.143934
0.142134
0.140378
0.138664
0.13699
0.135354
0.133756
0.132194
0.130666
0.129171
0.127708
0.126276
0.124873
0.269201
0.263068
0.257202
0.251585
0.246203
0.241042
0.236088
0.231331
0.226759
0.222362
0.218131
0.214058
0.210133
0.206349
0.202699
0.199175
0.195771
0.192481
0.189297
0.186215
0.18323
0.180336
0.17753
0.174808
0.172166
0.169602
0.167113
0.164696
0.162348
0.160066
0.157849
0.155692
0.153594
0.151551
0.14956
0.14762
0.145728
0.143883
0.142083
0.140325
0.13861
0.136935
0.135299
0.1337
0.132137
0.130607
0.129111
0.127646
0.126211
0.124805
0.269201
0.263068
0.257201
0.251583
0.246201
0.241041
0.236089
0.231334
0.226765
0.222371
0.218144
0.214073
0.210152
0.206371
0.202724
0.199203
0.195801
0.192512
0.189329
0.186248
0.183262
0.180367
0.17756
0.174836
0.172193
0.169627
0.167136
0.164718
0.162369
0.160087
0.157868
0.155711
0.153611
0.151566
0.149574
0.147631
0.145736
0.143887
0.142083
0.140322
0.138603
0.136924
0.135284
0.133681
0.132114
0.130581
0.129079
0.127609
0.126169
0.124756
0.269201
0.263065
0.257191
0.251565
0.246172
0.240999
0.236035
0.231268
0.226687
0.222284
0.218047
0.213969
0.210041
0.206256
0.202604
0.19908
0.195676
0.192385
0.189201
0.186118
0.183131
0.180236
0.177428
0.174704
0.172061
0.169496
0.167007
0.16459
0.162243
0.159964
0.157748
0.155593
0.153495
0.151452
0.149461
0.147519
0.145625
0.143777
0.141974
0.140213
0.138495
0.136816
0.135177
0.133575
0.132008
0.130475
0.128974
0.127504
0.126062
0.124648
0.269201
0.263064
0.257193
0.251573
0.24619
0.241027
0.236072
0.231313
0.226739
0.222341
0.218107
0.214031
0.210104
0.206317
0.202664
0.199138
0.19573
0.192435
0.189247
0.186159
0.183166
0.180265
0.177452
0.174722
0.172074
0.169504
0.167009
0.164588
0.162237
0.159953
0.157733
0.155574
0.153473
0.151426
0.149431
0.147485
0.145587
0.143734
0.141927
0.140163
0.138441
0.136761
0.135119
0.133516
0.131948
0.130415
0.128914
0.127445
0.126007
0.124599
0.269201
0.26302
0.257095
0.251424
0.245993
0.240791
0.235805
0.231021
0.226429
0.222018
0.217776
0.213696
0.209768
0.205984
0.202335
0.198815
0.195415
0.192129
0.18895
0.185873
0.182892
0.180004
0.177203
0.174487
0.171852
0.169297
0.166818
0.164413
0.162078
0.159811
0.157609
0.155467
0.153384
0.151355
0.149378
0.147451
0.145573
0.143742
0.141957
0.140217
0.138522
0.136869
0.135259
0.13369
0.132162
0.130673
0.129223
0.127815
0.126449
0.125133
0.26921
0.26305
0.257165
0.251531
0.246141
0.240986
0.23606
0.231349
0.22684
0.222522
0.218381
0.21441
0.210597
0.206933
0.20341
0.200019
0.196752
0.193602
0.190561
0.187623
0.184782
0.182035
0.179375
0.176801
0.174309
0.171896
0.16956
0.167298
0.165107
0.162984
0.160927
0.158931
0.156994
0.155113
0.153285
0.151508
0.149782
0.148105
0.146478
0.1449
0.143372
0.141895
0.140468
0.139093
0.13777
0.136503
0.135297
0.13416
0.13311
0.13218
0.271151
0.267814
0.264616
0.261545
0.258588
0.255727
0.252948
0.250245
0.247615
0.245055
0.242564
0.240138
0.237775
0.235473
0.233229
0.231042
0.228908
0.226825
0.224792
0.222806
0.220867
0.218974
0.217124
0.215319
0.213556
0.211836
0.210156
0.208516
0.206915
0.205351
0.203821
0.202324
0.200858
0.199423
0.198016
0.196637
0.195285
0.193961
0.192662
0.191389
0.19014
0.188913
0.187709
0.186523
0.185356
0.184204
0.183067
0.18194
0.180821
0.179706
0.127927
0.0667864
0.0493698
0.0468551
0.0458405
0.0455018
0.0448275
0.0443977
0.0438145
0.0433204
0.0428145
0.0422673
0.0418353
0.0412287
0.0408704
0.040191
0.0401646
0.041472
0.0552701
0.107215
0.128066
0.0669388
0.0495412
0.0470341
0.046022
0.0456807
0.0450067
0.044575
0.043992
0.0434967
0.0429904
0.0424417
0.0420084
0.0414002
0.0410403
0.0403597
0.0403321
0.0416401
0.0554382
0.107349
0.128214
0.0670806
0.0497124
0.0472142
0.0462047
0.0458611
0.0451877
0.0447545
0.044172
0.0436752
0.0431679
0.042617
0.0421822
0.0415724
0.0412111
0.0405302
0.0405019
0.0418102
0.0556024
0.107472
0.128356
0.0672205
0.0498839
0.0473955
0.0463891
0.0460436
0.0453712
0.0449364
0.044354
0.0438552
0.0433466
0.0427937
0.0423576
0.0417468
0.0413846
0.0407034
0.0406739
0.0419801
0.0557559
0.107596
0.128501
0.0673595
0.0500565
0.0475785
0.0465755
0.0462283
0.0455569
0.0451201
0.0445373
0.0440362
0.0435266
0.042972
0.0425349
0.0419233
0.0415602
0.0408787
0.0408475
0.0421497
0.0559044
0.10772
0.128646
0.0674987
0.0502306
0.0477633
0.0467638
0.0464147
0.0457438
0.0453048
0.0447215
0.0442182
0.0437078
0.0431519
0.0427142
0.0421019
0.0417377
0.0410556
0.041022
0.042319
0.0560492
0.107845
0.128791
0.0676388
0.0504063
0.0479498
0.0469537
0.0466022
0.0459317
0.0454903
0.0449066
0.0444015
0.0438907
0.0433338
0.0428955
0.0422823
0.0419165
0.0412335
0.0411974
0.0424881
0.0561913
0.107972
0.128938
0.0677802
0.0505836
0.0481376
0.0471446
0.0467907
0.0461206
0.0456769
0.0450931
0.0445865
0.0440755
0.0435175
0.0430782
0.0424639
0.0420965
0.0414125
0.0413739
0.0426579
0.056333
0.108102
0.129085
0.0679229
0.0507622
0.0483267
0.0473368
0.0469804
0.0463108
0.0458651
0.0452814
0.0447733
0.044262
0.0437026
0.0432622
0.0426466
0.0422778
0.041593
0.0415521
0.0428291
0.0564763
0.108234
0.129234
0.0680663
0.0509419
0.0485171
0.0475304
0.0471718
0.0465028
0.046055
0.0454714
0.0449618
0.0444499
0.0438889
0.0434474
0.0428309
0.0424608
0.0417754
0.0417323
0.0430023
0.0566222
0.108367
0.129385
0.0682101
0.0511229
0.048709
0.0477257
0.0473648
0.0466965
0.0462466
0.0456629
0.0451514
0.0446388
0.0440765
0.043634
0.0430169
0.0426457
0.0419598
0.0419145
0.0431774
0.0567699
0.108501
0.129536
0.0683543
0.0513052
0.0489024
0.0479225
0.0475593
0.0468915
0.0464394
0.0458555
0.0453422
0.044829
0.0442655
0.0438225
0.0432049
0.0428326
0.0421461
0.0420981
0.0433538
0.0569178
0.108635
0.129689
0.0684992
0.051489
0.0490973
0.0481209
0.0477552
0.0470879
0.0466333
0.0460493
0.0455343
0.0450209
0.0444566
0.0440131
0.0433949
0.0430212
0.0423337
0.042283
0.0435311
0.0570649
0.10877
0.129842
0.0686456
0.0516745
0.0492939
0.0483208
0.0479526
0.0472856
0.0468288
0.0462449
0.0457284
0.0452149
0.0446499
0.0442057
0.0435866
0.0432113
0.0425227
0.0424691
0.0437093
0.0572119
0.108908
0.129996
0.0687948
0.051862
0.0494924
0.0485226
0.0481517
0.0474852
0.0470264
0.0464427
0.0459249
0.0454114
0.0448453
0.0444001
0.0437799
0.0434027
0.0427131
0.0426568
0.0438891
0.0573604
0.109048
0.130152
0.0689475
0.0520519
0.0496931
0.0487265
0.0483529
0.0476872
0.0472263
0.046643
0.0461238
0.0456099
0.0450425
0.0445961
0.0439746
0.0435957
0.0429053
0.0428465
0.0440711
0.057512
0.109191
0.130311
0.0691034
0.052244
0.0498959
0.0489325
0.0485565
0.0478915
0.0474285
0.0468454
0.0463246
0.0458102
0.0452412
0.0447934
0.0441709
0.0437906
0.0430996
0.0430383
0.0442554
0.0576668
0.109336
0.130473
0.0692606
0.0524379
0.0501006
0.0491407
0.0487621
0.0480978
0.0476327
0.0470496
0.046527
0.0460117
0.0454411
0.0449922
0.0443689
0.0439873
0.0432958
0.0432321
0.0444416
0.0578234
0.10948
0.130638
0.0694174
0.0526331
0.0503069
0.0493505
0.0489693
0.0483057
0.0478383
0.0472551
0.0467306
0.0462145
0.0456425
0.0451927
0.0445687
0.0441859
0.0434939
0.0434275
0.0446292
0.05798
0.109625
0.130803
0.069573
0.0528296
0.0505146
0.0495617
0.049178
0.048515
0.0480453
0.0474619
0.0469355
0.0464188
0.0458456
0.0453949
0.0447702
0.0443861
0.0436934
0.0436242
0.0448176
0.0581359
0.109772
0.130969
0.069728
0.0530274
0.0507236
0.0497744
0.0493881
0.0487258
0.0482536
0.0476703
0.047142
0.0466248
0.0460505
0.045599
0.0449736
0.044588
0.0438944
0.0438223
0.0450072
0.0582918
0.109921
0.131133
0.069884
0.053227
0.0509343
0.0499888
0.0495998
0.0489381
0.0484637
0.0478803
0.0473504
0.0468329
0.0462575
0.0458051
0.0451788
0.0447916
0.0440972
0.0440223
0.0451987
0.0584498
0.110074
0.131298
0.0700421
0.0534286
0.0511468
0.0502049
0.0498132
0.0491523
0.0486756
0.0480924
0.0475609
0.047043
0.0464666
0.0460132
0.045386
0.0449973
0.0443022
0.0442246
0.0453928
0.0586115
0.11023
0.131464
0.0702024
0.0536321
0.051361
0.0504227
0.0500284
0.0493682
0.0488895
0.0483066
0.0477736
0.0472553
0.0466778
0.0462232
0.0455952
0.045205
0.0445095
0.0444294
0.0455896
0.0587775
0.110388
0.131632
0.0703638
0.0538372
0.0515768
0.0506422
0.0502452
0.0495861
0.0491054
0.048523
0.0479884
0.0474696
0.0468908
0.0464352
0.0458064
0.0454149
0.044719
0.0446365
0.0457889
0.0589468
0.110547
0.131801
0.0705256
0.0540438
0.0517942
0.0508633
0.0504639
0.0498061
0.0493235
0.0487414
0.0482052
0.0476859
0.0471058
0.0466491
0.0460195
0.0456267
0.0449305
0.0448455
0.0459903
0.059118
0.110706
0.13197
0.0706881
0.0542519
0.0520132
0.0510863
0.0506847
0.0500283
0.0495438
0.048962
0.0484239
0.047904
0.0473226
0.0468648
0.0462345
0.0458404
0.0451439
0.0450563
0.0461934
0.05929
0.110865
0.132139
0.0708528
0.0544623
0.0522345
0.0513118
0.050908
0.0502529
0.0497663
0.0491845
0.0486446
0.048124
0.0475415
0.0470826
0.0464517
0.0460562
0.0453593
0.0452689
0.0463982
0.0594625
0.111026
0.13231
0.071021
0.0546755
0.0524585
0.05154
0.0511338
0.0504797
0.0499908
0.049409
0.0488673
0.0483461
0.0477625
0.0473028
0.0466714
0.0462745
0.045577
0.0454836
0.0466051
0.0596363
0.111189
0.132482
0.071193
0.0548914
0.0526851
0.0517706
0.0513618
0.0507085
0.050217
0.0496353
0.049092
0.0485705
0.0479861
0.0475257
0.0468938
0.0464954
0.0457972
0.0457006
0.0468144
0.0598123
0.111354
0.132658
0.0713679
0.0551098
0.0529141
0.0520034
0.0515915
0.0509389
0.050445
0.0498635
0.0493188
0.0487974
0.0482124
0.0477514
0.0471191
0.0467191
0.0460201
0.0459202
0.0470262
0.0599912
0.111523
0.132837
0.0715439
0.05533
0.0531449
0.0522378
0.0518228
0.0511709
0.0506747
0.0500937
0.0495479
0.0490268
0.0484414
0.0479798
0.047347
0.0469453
0.0462455
0.0461423
0.0472407
0.0601734
0.111695
0.133018
0.0717202
0.0555518
0.0533774
0.0524738
0.0520557
0.0514047
0.0509066
0.0503263
0.0497795
0.0492587
0.0486728
0.0482105
0.0475771
0.0471737
0.0464731
0.0463669
0.0474578
0.0603591
0.111871
0.1332
0.0718972
0.0557753
0.0536117
0.0527118
0.0522909
0.051641
0.051141
0.0505615
0.0500137
0.049493
0.0489064
0.0484432
0.0478092
0.047404
0.046703
0.0465939
0.0476776
0.0605485
0.112049
0.133383
0.0720763
0.0560013
0.0538484
0.0529525
0.0525288
0.0518802
0.0513783
0.0507994
0.0502504
0.0497295
0.049142
0.0486778
0.0480431
0.0476363
0.046935
0.0468234
0.0479
0.0607413
0.11223
0.133567
0.0722587
0.0562302
0.0540879
0.0531961
0.0527699
0.0521227
0.0516187
0.0510403
0.0504896
0.0499683
0.0493796
0.0489142
0.0482788
0.0478706
0.0471693
0.0470552
0.0481249
0.060937
0.112413
0.133754
0.0724446
0.0564622
0.0543304
0.053443
0.0530142
0.0523683
0.0518622
0.0512839
0.0507315
0.0502094
0.0496194
0.0491526
0.0485165
0.048107
0.0474058
0.0472893
0.0483521
0.0611345
0.112597
0.133943
0.0726325
0.0566969
0.0545756
0.0536926
0.0532613
0.0526167
0.0521083
0.0515301
0.0509757
0.0504526
0.0498611
0.049393
0.0487563
0.0483455
0.0476444
0.0475252
0.048581
0.0613327
0.112782
0.134135
0.0728209
0.0569337
0.0548228
0.0539444
0.0535107
0.0528675
0.0523568
0.0517786
0.0512221
0.0506979
0.0501049
0.0496354
0.0489982
0.0485859
0.0478848
0.0477629
0.0488116
0.0615311
0.112968
0.134327
0.0730089
0.0571722
0.0550719
0.0541983
0.0537621
0.0531203
0.0526074
0.0520292
0.0514705
0.0509452
0.0503507
0.0498799
0.0492422
0.0488285
0.0481273
0.0480025
0.0490439
0.0617298
0.113156
0.134519
0.0731971
0.0574125
0.0553228
0.0544539
0.0540155
0.0533751
0.0528598
0.0522815
0.0517206
0.0511943
0.0505987
0.0501267
0.0494886
0.0490734
0.048372
0.0482443
0.0492785
0.0619297
0.113345
0.13471
0.0733871
0.0576549
0.0555758
0.0547117
0.0542707
0.0536316
0.0531139
0.0525355
0.0519726
0.0514457
0.0508492
0.0503763
0.0497378
0.0493211
0.0486194
0.0484887
0.0495156
0.0621318
0.113537
0.134902
0.0735803
0.0578999
0.0558312
0.0549717
0.0545279
0.0538899
0.0533698
0.0527914
0.052227
0.0516998
0.0511027
0.0506291
0.0499903
0.049572
0.0488699
0.048736
0.0497558
0.0623367
0.113731
0.135097
0.0737769
0.0581474
0.0560892
0.0552339
0.0547871
0.0541501
0.0536276
0.0530496
0.0524841
0.0519571
0.0513596
0.0508853
0.0502462
0.0498261
0.0491235
0.0489862
0.0499989
0.0625449
0.113929
0.135294
0.0739758
0.0583973
0.0563495
0.0554982
0.0550483
0.0544124
0.0538879
0.0533107
0.0527444
0.0522178
0.05162
0.0511449
0.0505053
0.0500832
0.0493801
0.0492394
0.0502451
0.0627563
0.114129
0.135496
0.0741755
0.0586491
0.056612
0.0557647
0.0553118
0.0546772
0.054151
0.053575
0.053008
0.0524817
0.0518834
0.0514074
0.0507672
0.050343
0.0496394
0.0494953
0.0504941
0.062971
0.114333
0.135699
0.0743753
0.0589028
0.0568766
0.0560336
0.0555779
0.054945
0.0544174
0.0538425
0.0532748
0.0527486
0.0521496
0.0516724
0.0510315
0.0506054
0.0499014
0.0497542
0.0507463
0.0631895
0.114541
0.135904
0.0745756
0.0591587
0.0571436
0.0563051
0.055847
0.0552161
0.0546869
0.054113
0.0535443
0.0530179
0.052418
0.0519396
0.0512982
0.0508703
0.0501662
0.0500161
0.0510017
0.063412
0.114751
0.136109
0.0747775
0.0594172
0.0574135
0.0565799
0.0561194
0.0554903
0.0549594
0.0543862
0.0538162
0.0532894
0.0526887
0.0522091
0.0515675
0.0511381
0.0504342
0.0502812
0.0512605
0.0636384
0.114964
0.136315
0.0749825
0.059679
0.0576866
0.0568579
0.056395
0.0557675
0.0552347
0.0546619
0.0540903
0.0535632
0.0529617
0.0524813
0.0518396
0.0514089
0.0507053
0.0505494
0.0515223
0.0638677
0.115178
0.136522
0.0751909
0.0599441
0.0579629
0.057139
0.0566734
0.0560474
0.0555123
0.0549398
0.0543669
0.0538396
0.0532376
0.0527565
0.0521149
0.0516829
0.0509794
0.0508204
0.0517867
0.0640988
0.115395
0.136733
0.0754021
0.0602121
0.0582421
0.0574229
0.0569544
0.0563296
0.0557924
0.0552204
0.0546463
0.0541189
0.0535166
0.0530348
0.0523932
0.0519596
0.051256
0.0510937
0.0520531
0.0643303
0.115613
0.136945
0.0756147
0.0604827
0.0585237
0.057709
0.0572376
0.0566142
0.056075
0.0555037
0.0549286
0.0544013
0.0537986
0.053316
0.0526742
0.0522388
0.0515349
0.0513692
0.0523215
0.0645621
0.115833
0.137159
0.0758277
0.0607552
0.0588075
0.0579974
0.0575232
0.0569015
0.0563606
0.05579
0.055214
0.0546867
0.0540834
0.0535998
0.0529576
0.0525202
0.0518162
0.0516472
0.0525922
0.0647953
0.116058
0.137375
0.0760413
0.06103
0.0590936
0.0582883