/*--------------------------------*- C++ -*----------------------------------*\
  =========                 |
  \\      /  F ield         | OpenFOAM: The Open Source CFD Toolbox
   \\    /   O peration     | Website:  https://openfoam.org
    \\  /    A nd           | Version:  8
     \\/     M anipulation  |
\*---------------------------------------------------------------------------*/
FoamFile
{
    version     2.0;
    format      ascii;
    class       volScalarField;
    location    "800";
    object      p;
}
// * * * * * * * * * * * * * * * * * * * * * * * * * * * * * * * * * * * * * //

dimensions      [1 -1 -2 0 0 0 0];

internalField   nonuniform List<scalar> 
8400
(
31430.9
56467.3
81779.7
106033
129111
150902
171372
190544
208479
225257
240966
255699
269542
282575
294878
306512
317538
328011
337984
347502
356606
365338
373742
381863
389740
397413
404921
412302
419596
426833
434040
441252
448512
455871
463391
471154
479259
487827
497006
506965
517903
530062
543764
559458
577718
599146
624540
656349
700584
761080
30439.2
55569
81108.7
105581
128815
150693
171194
190354
208246
224960
240591
255235
268985
281926
294134
305673
316605
326989
336874
346304
355319
363962
372273
380292
388055
395598
402959
410179
417289
424316
431291
438251
445236
452294
459480
466861
474521
482566
491120
500311
510294
521255
533429
547125
562708
580536
601037
625422
656431
696278
32008.8
58454.2
84750.5
109670
133143
155111
175598
194674
212441
229009
244491
258994
272617
285448
297564
309033
319919
330283
340169
349622
358681
367386
375771
383873
391727
399369
406839
414178
421416
428588
435732
442891
450114
457455
464972
472734
480824
489336
498386
508103
518637
530170
542917
557153
573187
591346
612008
635817
663713
695819
30274
57266.9
84240.3
109689
133466
155539
175983
194917
212479
228806
244029
258268
271627
284199
296061
307287
317940
328077
337743
346980
355823
364307
372462
380319
387909
395267
402426
409422
416287
423055
429765
436459
443177
449968
456881
463972
471308
478961
487020
495585
504771
514721
525611
537656
551088
566193
583323
602899
625359
651024
32600.9
61771.5
89978
116083
140136
162240
182562
201293
218617
234701
249692
263719
276895
289313
301054
312187
322775
332868
342514
351749
360607
369118
377312
385217
392865
400288
407521
414601
421562
428442
435281
442122
449003
455969
463061
470325
477811
485579
493693
502227
511265
520916
531302
542560
554840
568315
583196
599655
617831
638014
31361.7
61720.2
90863.3
117462
141633
163611
183669
202069
219035
234759
249403
263104
275977
288115
299597
310489
320849
330725
340160
349189
357842
366145
374126
381813
389234
396423
403415
410245
416951
423566
430131
436690
443277
449930
456690
463594
470686
478015
485635
493607
502008
510931
520478
530753
541888
554010
567258
581704
597307
614350
33990.4
66959
97276.1
124231
148342
170067
189804
207871
224524
239968
254368
267864
280563
292557
303918
314708
324979
334775
344137
353097
361682
369920
377840
385469
392839
399984
406940
413741
420422
427019
433567
440101
446656
453263
459952
466755
473703
480830
488178
495796
503741
512083
520899
530271
540293
551073
562714
575263
588659
603099
34140.4
68982.2
99920
126790
150528
171806
191103
208770
225069
240207
254345
267614
280116
291937
303142
313789
323925
333590
342821
351649
360100
368204
375993
383494
390741
397772
404622
411325
417917
424435
430910
437376
443867
450410
457032
463763
470627
477654
484885
492355
500112
508215
516725
525705
535230
545377
556236
567842
580157
593303
37421
74904.1
105781
132057
155185
175951
194830
212156
228179
243092
257047
270162
282535
294244
305354
315916
325976
335572
344736
353500
361892
369943
377682
385139
392349
399345
406163
412835
419395
425875
432308
438724
445150
451610
458131
464739
471456
478310
485337
492573
500058
507843
515985
524544
533586
543185
553417
564342
575957
588329
40277.5
79410.5
108878
134275
156855
177221
195782
212847
228649
243370
257154
270117
282353
293939
304938
315399
325366
334875
343960
352652
360983
368983
376682
384111
391305
398296
405117
411798
418370
424865
431313
437740
444170
450629
457140
463730
470425
477251
484242
491437
498875
506606
514686
523173
532128
541625
551730
562510
573997
586237
36567.9
77324.9
108405
134196
156995
177513
196162
213282
229128
243887
257704
270696
282961
294575
305603
316095
326093
335633
344748
353469
361825
369844
377558
384996
392194
399185
406004
412683
419256
425755
432209
438647
445091
451565
458094
464699
471405
478238
485228
492414
499836
507540
515584
524028
532938
542384
552437
563165
574634
586873
23865.2
69113.2
103875
130649
153780
174602
193491
210769
226714
241530
255373
268364
280610
292194
303186
313643
323612
333130
342232
350946
359298
367314
375021
382449
389631
396603
403401
410062
416624
423122
429590
436058
442550
449089
455697
462396
469205
476144
483241
490529
498051
505851
513987
522517
531515
541050
551196
562018
573575
585856
20731.1
61324.2
98944.4
128214
152615
174437
194266
212348
228949
244296
258555
271859
284320
296038
307104
317596
327584
337122
346255
355015
363424
371500
379262
386727
393920
400872
407619
414203
420671
427070
433445
439838
446287
452822
459469
466248
473174
480264
487537
495016
502725
510711
519020
527708
536842
546485
556698
567532
579028
591131
-3493.05
37673.8
78618.7
110250
135791
158394
179027
197904
215240
231263
246132
259962
272848
284888
296184
306841
316958
326624
335908
344862
353516
361887
369975
377783
385314
392583
399615
406447
413127
419712
426259
432829
439476
446242
453164
460265
467558
475051
482743
490644
498756
507117
515756
524718
534058
543829
554075
564826
576110
587848
12719.8
43889.9
86056.2
120619
147617
170961
192188
211568
229301
245635
260738
274701
287583
299453
310401
320543
330011
338937
347445
355638
363588
371335
378893
386262
393438
400420
407219
413856
420373
426827
433278
439795
446447
453284
460346
467664
475242
483073
491147
499432
507915
516598
525498
534642
544069
553814
563898
574307
584996
595743
-40960.9
-93.849
46821.4
83007.1
110994
135426
157998
178924
198362
216557
233654
249677
264588
278345
290946
302442
312936
322576
331530
339962
348010
355776
363327
370703
377925
385008
391969
398836
405651
412472
419365
426399
433649
441173
449014
457198
465724
474550
483625
492873
502230
511650
521115
530633
540223
549899
559657
569443
579150
588516
11180.3
36369.9
81668.7
117831
144046
166032
186055
204534
221798
238240
254089
269372
283966
297685
310370
321924
332337
341686
350108
357772
364854
371503
377837
383944
389893
395743
401553
407382
413293
419363
425681
432332
439395
446950
455051
463721
472932
482618
492644
502853
513088
523229
533201
542975
552550
561933
571081
579838
587772
593590
-87203
-27200.7
32641.2
73383.1
103455
128722
151016
171031
189475
207035
224170
241036
257501
273275
288072
301685
314023
325105
335037
343981
352116
359592
366520
372993
379107
384952
390627
396244
401919
407776
413946
420565
427770
435681
444406
454019
464519
475812
487650
499742
511786
523526
534785
545463
555503
564872
573504
581283
587950
593212
9739.34
36213.7
68538.2
97979.9
123539
145955
165742
183399
199586
215023
230312
245741
261111
276006
290090
303134
315046
325846
335643
344601
352888
360578
367682
374234
380294
385944
391292
396464
401607
406894
412507
418625
425434
433114
441858
451805
463049
475493
488769
502409
515977
529124
541649
553508
564733
575368
585459
595065
604023
610917
37178
69024.4
91675.9
114957
137035
157177
175412
192059
207606
222613
237542
252541
267468
281989
295712
308400
319975
330466
339978
348669
356722
364277
371337
377850
383845
389402
394628
399647
404612
409718
415168
421172
427951
435709
444658
454955
466684
479701
493502
507440
520958
533632
545243
555769
565249
573628
580761
586517
591077
593244
3.90198e+06
3.90147e+06
3.90121e+06
3.90112e+06
3.90106e+06
3.90102e+06
3.901e+06
3.90098e+06
3.90097e+06
3.90096e+06
3.90095e+06
3.90094e+06
3.90094e+06
3.90093e+06
3.90093e+06
3.90093e+06
3.90092e+06
3.90092e+06
3.90092e+06
3.90091e+06
3.90091e+06
3.9009e+06
3.9009e+06
3.90089e+06
3.90089e+06
3.90089e+06
3.90088e+06
3.90088e+06
3.90087e+06
3.90087e+06
3.90087e+06
3.90086e+06
3.90086e+06
3.90085e+06
3.90084e+06
3.90083e+06
3.90082e+06
3.90081e+06
3.9008e+06
3.90078e+06
3.90076e+06
3.90074e+06
3.90071e+06
3.90068e+06
3.90064e+06
3.90059e+06
3.90054e+06
3.90047e+06
3.90038e+06
3.90027e+06
3.90028e+06
3.90056e+06
3.90066e+06
3.9007e+06
3.90072e+06
3.90074e+06
3.90076e+06
3.90077e+06
3.90077e+06
3.90078e+06
3.90078e+06
3.90079e+06
3.90079e+06
3.90079e+06
3.90079e+06
3.90079e+06
3.90079e+06
3.90079e+06
3.90079e+06
3.90079e+06
3.90079e+06
3.90078e+06
3.90078e+06
3.90078e+06
3.90078e+06
3.90077e+06
3.90077e+06
3.90077e+06
3.90076e+06
3.90076e+06
3.90076e+06
3.90075e+06
3.90075e+06
3.90074e+06
3.90074e+06
3.90073e+06
3.90072e+06
3.90071e+06
3.90069e+06
3.90068e+06
3.90066e+06
3.90064e+06
3.90061e+06
3.90058e+06
3.90054e+06
3.9005e+06
3.90044e+06
3.90038e+06
3.9003e+06
3.90021e+06
3.90064e+06
3.90078e+06
3.90085e+06
3.90086e+06
3.90085e+06
3.90083e+06
3.90082e+06
3.90081e+06
3.9008e+06
3.90079e+06
3.90078e+06
3.90077e+06
3.90077e+06
3.90076e+06
3.90075e+06
3.90075e+06
3.90074e+06
3.90074e+06
3.90073e+06
3.90073e+06
3.90072e+06
3.90072e+06
3.90071e+06
3.90071e+06
3.9007e+06
3.9007e+06
3.90069e+06
3.90069e+06
3.90069e+06
3.90068e+06
3.90068e+06
3.90068e+06
3.90067e+06
3.90066e+06
3.90066e+06
3.90065e+06
3.90064e+06
3.90062e+06
3.90061e+06
3.9006e+06
3.90058e+06
3.90056e+06
3.90053e+06
3.9005e+06
3.90047e+06
3.90043e+06
3.90038e+06
3.90032e+06
3.90026e+06
3.90018e+06
3.90057e+06
3.90059e+06
3.9006e+06
3.9006e+06
3.90059e+06
3.90059e+06
3.90059e+06
3.90059e+06
3.90059e+06
3.90059e+06
3.90059e+06
3.90059e+06
3.90059e+06
3.90059e+06
3.90059e+06
3.90059e+06
3.90059e+06
3.90059e+06
3.90059e+06
3.90059e+06
3.90059e+06
3.90058e+06
3.90058e+06
3.90058e+06
3.90058e+06
3.90057e+06
3.90057e+06
3.90057e+06
3.90057e+06
3.90057e+06
3.90056e+06
3.90056e+06
3.90056e+06
3.90055e+06
3.90054e+06
3.90054e+06
3.90053e+06
3.90052e+06
3.90051e+06
3.90049e+06
3.90048e+06
3.90046e+06
3.90044e+06
3.90041e+06
3.90038e+06
3.90034e+06
3.9003e+06
3.90025e+06
3.9002e+06
3.90014e+06
3.9005e+06
3.90052e+06
3.90054e+06
3.90055e+06
3.90056e+06
3.90056e+06
3.90057e+06
3.90057e+06
3.90057e+06
3.90056e+06
3.90056e+06
3.90056e+06
3.90056e+06
3.90055e+06
3.90055e+06
3.90055e+06
3.90054e+06
3.90054e+06
3.90054e+06
3.90053e+06
3.90053e+06
3.90052e+06
3.90052e+06
3.90052e+06
3.90051e+06
3.90051e+06
3.9005e+06
3.9005e+06
3.9005e+06
3.90049e+06
3.90049e+06
3.90049e+06
3.90048e+06
3.90048e+06
3.90047e+06
3.90046e+06
3.90045e+06
3.90044e+06
3.90043e+06
3.90042e+06
3.9004e+06
3.90039e+06
3.90037e+06
3.90035e+06
3.90032e+06
3.90029e+06
3.90025e+06
3.90021e+06
3.90017e+06
3.90012e+06
3.90042e+06
3.90042e+06
3.90043e+06
3.90043e+06
3.90043e+06
3.90043e+06
3.90043e+06
3.90042e+06
3.90042e+06
3.90042e+06
3.90041e+06
3.90041e+06
3.90041e+06
3.90041e+06
3.90041e+06
3.9004e+06
3.9004e+06
3.9004e+06
3.9004e+06
3.9004e+06
3.9004e+06
3.90039e+06
3.90039e+06
3.90039e+06
3.90039e+06
3.90038e+06
3.90038e+06
3.90038e+06
3.90038e+06
3.90038e+06
3.90037e+06
3.90037e+06
3.90037e+06
3.90036e+06
3.90036e+06
3.90035e+06
3.90035e+06
3.90034e+06
3.90033e+06
3.90032e+06
3.90031e+06
3.90029e+06
3.90028e+06
3.90026e+06
3.90024e+06
3.90021e+06
3.90018e+06
3.90015e+06
3.90012e+06
3.90008e+06
3.90032e+06
3.90033e+06
3.90033e+06
3.90034e+06
3.90034e+06
3.90034e+06
3.90034e+06
3.90034e+06
3.90034e+06
3.90034e+06
3.90034e+06
3.90034e+06
3.90034e+06
3.90034e+06
3.90034e+06
3.90034e+06
3.90034e+06
3.90033e+06
3.90033e+06
3.90033e+06
3.90033e+06
3.90032e+06
3.90032e+06
3.90032e+06
3.90031e+06
3.90031e+06
3.90031e+06
3.90031e+06
3.90031e+06
3.9003e+06
3.9003e+06
3.9003e+06
3.90029e+06
3.90029e+06
3.90028e+06
3.90028e+06
3.90027e+06
3.90026e+06
3.90026e+06
3.90025e+06
3.90024e+06
3.90023e+06
3.90021e+06
3.9002e+06
3.90018e+06
3.90016e+06
3.90014e+06
3.90011e+06
3.90009e+06
3.90006e+06
3.90023e+06
3.90023e+06
3.90023e+06
3.90024e+06
3.90024e+06
3.90024e+06
3.90024e+06
3.90024e+06
3.90024e+06
3.90023e+06
3.90023e+06
3.90023e+06
3.90023e+06
3.90022e+06
3.90022e+06
3.90022e+06
3.90022e+06
3.90022e+06
3.90021e+06
3.90021e+06
3.90021e+06
3.90021e+06
3.9002e+06
3.9002e+06
3.9002e+06
3.9002e+06
3.9002e+06
3.9002e+06
3.90019e+06
3.90019e+06
3.90019e+06
3.90019e+06
3.90019e+06
3.90018e+06
3.90018e+06
3.90018e+06
3.90017e+06
3.90017e+06
3.90016e+06
3.90015e+06
3.90015e+06
3.90014e+06
3.90013e+06
3.90012e+06
3.90011e+06
3.90009e+06
3.90008e+06
3.90006e+06
3.90004e+06
3.90002e+06
3.90014e+06
3.90014e+06
3.90014e+06
3.90014e+06
3.90014e+06
3.90014e+06
3.90014e+06
3.90014e+06
3.90014e+06
3.90014e+06
3.90014e+06
3.90014e+06
3.90014e+06
3.90014e+06
3.90013e+06
3.90013e+06
3.90013e+06
3.90013e+06
3.90013e+06
3.90013e+06
3.90012e+06
3.90012e+06
3.90012e+06
3.90012e+06
3.90012e+06
3.90012e+06
3.90011e+06
3.90011e+06
3.90011e+06
3.90011e+06
3.90011e+06
3.90011e+06
3.9001e+06
3.9001e+06
3.9001e+06
3.9001e+06
3.90009e+06
3.90009e+06
3.90008e+06
3.90008e+06
3.90007e+06
3.90007e+06
3.90006e+06
3.90006e+06
3.90005e+06
3.90004e+06
3.90003e+06
3.90002e+06
3.90001e+06
3.9e+06
3.90004e+06
3.90004e+06
3.90004e+06
3.90004e+06
3.90004e+06
3.90004e+06
3.90004e+06
3.90004e+06
3.90004e+06
3.90004e+06
3.90004e+06
3.90004e+06
3.90003e+06
3.90003e+06
3.90003e+06
3.90003e+06
3.90003e+06
3.90003e+06
3.90002e+06
3.90002e+06
3.90002e+06
3.90002e+06
3.90002e+06
3.90002e+06
3.90002e+06
3.90001e+06
3.90001e+06
3.90001e+06
3.90001e+06
3.90001e+06
3.90001e+06
3.90001e+06
3.90001e+06
3.9e+06
3.9e+06
3.9e+06
3.9e+06
3.9e+06
3.9e+06
3.89999e+06
3.89999e+06
3.89999e+06
3.89999e+06
3.89998e+06
3.89998e+06
3.89998e+06
3.89997e+06
3.89997e+06
3.89997e+06
3.89996e+06
3.89994e+06
3.89994e+06
3.89994e+06
3.89994e+06
3.89995e+06
3.89995e+06
3.89995e+06
3.89995e+06
3.89994e+06
3.89994e+06
3.89994e+06
3.89994e+06
3.89994e+06
3.89993e+06
3.89993e+06
3.89993e+06
3.89993e+06
3.89993e+06
3.89993e+06
3.89993e+06
3.89992e+06
3.89992e+06
3.89992e+06
3.89992e+06
3.89992e+06
3.89992e+06
3.89992e+06
3.89992e+06
3.89992e+06
3.89992e+06
3.89992e+06
3.89991e+06
3.89991e+06
3.89991e+06
3.89991e+06
3.89991e+06
3.89991e+06
3.89991e+06
3.89991e+06
3.89991e+06
3.89991e+06
3.89991e+06
3.89992e+06
3.89992e+06
3.89992e+06
3.89992e+06
3.89992e+06
3.89992e+06
3.89993e+06
3.89993e+06
3.89984e+06
3.89984e+06
3.89984e+06
3.89985e+06
3.89985e+06
3.89985e+06
3.89985e+06
3.89985e+06
3.89985e+06
3.89985e+06
3.89985e+06
3.89984e+06
3.89984e+06
3.89984e+06
3.89984e+06
3.89984e+06
3.89984e+06
3.89984e+06
3.89984e+06
3.89983e+06
3.89983e+06
3.89983e+06
3.89983e+06
3.89983e+06
3.89983e+06
3.89983e+06
3.89983e+06
3.89983e+06
3.89983e+06
3.89983e+06
3.89983e+06
3.89983e+06
3.89983e+06
3.89983e+06
3.89983e+06
3.89983e+06
3.89983e+06
3.89983e+06
3.89983e+06
3.89983e+06
3.89984e+06
3.89984e+06
3.89985e+06
3.89985e+06
3.89986e+06
3.89986e+06
3.89987e+06
3.89988e+06
3.89989e+06
3.8999e+06
3.89974e+06
3.89974e+06
3.89975e+06
3.89975e+06
3.89975e+06
3.89975e+06
3.89975e+06
3.89975e+06
3.89975e+06
3.89975e+06
3.89974e+06
3.89974e+06
3.89974e+06
3.89973e+06
3.89973e+06
3.89973e+06
3.89973e+06
3.89973e+06
3.89973e+06
3.89973e+06
3.89972e+06
3.89972e+06
3.89972e+06
3.89972e+06
3.89972e+06
3.89972e+06
3.89972e+06
3.89972e+06
3.89972e+06
3.89972e+06
3.89972e+06
3.89972e+06
3.89972e+06
3.89973e+06
3.89973e+06
3.89973e+06
3.89973e+06
3.89974e+06
3.89974e+06
3.89975e+06
3.89975e+06
3.89976e+06
3.89977e+06
3.89977e+06
3.89978e+06
3.8998e+06
3.89981e+06
3.89982e+06
3.89984e+06
3.89986e+06
3.89964e+06
3.89964e+06
3.89965e+06
3.89965e+06
3.89966e+06
3.89966e+06
3.89966e+06
3.89966e+06
3.89966e+06
3.89966e+06
3.89966e+06
3.89966e+06
3.89966e+06
3.89965e+06
3.89965e+06
3.89965e+06
3.89965e+06
3.89965e+06
3.89965e+06
3.89965e+06
3.89965e+06
3.89965e+06
3.89965e+06
3.89965e+06
3.89965e+06
3.89965e+06
3.89964e+06
3.89964e+06
3.89964e+06
3.89964e+06
3.89964e+06
3.89964e+06
3.89965e+06
3.89965e+06
3.89965e+06
3.89965e+06
3.89966e+06
3.89966e+06
3.89967e+06
3.89967e+06
3.89968e+06
3.89969e+06
3.8997e+06
3.89971e+06
3.89972e+06
3.89974e+06
3.89976e+06
3.89978e+06
3.8998e+06
3.89983e+06
3.89954e+06
3.89954e+06
3.89955e+06
3.89955e+06
3.89955e+06
3.89955e+06
3.89955e+06
3.89955e+06
3.89954e+06
3.89954e+06
3.89953e+06
3.89953e+06
3.89953e+06
3.89952e+06
3.89952e+06
3.89952e+06
3.89952e+06
3.89952e+06
3.89952e+06
3.89952e+06
3.89952e+06
3.89952e+06
3.89953e+06
3.89953e+06
3.89953e+06
3.89953e+06
3.89953e+06
3.89952e+06
3.89953e+06
3.89953e+06
3.89953e+06
3.89953e+06
3.89953e+06
3.89954e+06
3.89954e+06
3.89955e+06
3.89955e+06
3.89956e+06
3.89957e+06
3.89958e+06
3.89959e+06
3.8996e+06
3.89961e+06
3.89963e+06
3.89964e+06
3.89967e+06
3.89969e+06
3.89972e+06
3.89975e+06
3.89978e+06
3.89943e+06
3.89944e+06
3.89946e+06
3.89948e+06
3.89949e+06
3.89949e+06
3.89949e+06
3.89949e+06
3.89949e+06
3.89949e+06
3.89949e+06
3.89948e+06
3.89948e+06
3.89947e+06
3.89947e+06
3.89947e+06
3.89947e+06
3.89947e+06
3.89946e+06
3.89946e+06
3.89946e+06
3.89946e+06
3.89946e+06
3.89946e+06
3.89946e+06
3.89946e+06
3.89946e+06
3.89945e+06
3.89945e+06
3.89945e+06
3.89945e+06
3.89946e+06
3.89946e+06
3.89946e+06
3.89947e+06
3.89947e+06
3.89948e+06
3.89949e+06
3.8995e+06
3.8995e+06
3.89952e+06
3.89953e+06
3.89954e+06
3.89956e+06
3.89958e+06
3.89961e+06
3.89964e+06
3.89967e+06
3.89971e+06
3.89975e+06
3.8993e+06
3.89932e+06
3.89933e+06
3.89933e+06
3.89932e+06
3.89932e+06
3.89932e+06
3.89932e+06
3.89932e+06
3.89932e+06
3.89932e+06
3.89931e+06
3.89931e+06
3.89931e+06
3.89931e+06
3.89932e+06
3.89932e+06
3.89932e+06
3.89932e+06
3.89932e+06
3.89933e+06
3.89933e+06
3.89933e+06
3.89933e+06
3.89933e+06
3.89933e+06
3.89933e+06
3.89933e+06
3.89933e+06
3.89933e+06
3.89934e+06
3.89934e+06
3.89934e+06
3.89935e+06
3.89936e+06
3.89936e+06
3.89937e+06
3.89938e+06
3.89939e+06
3.8994e+06
3.89941e+06
3.89943e+06
3.89945e+06
3.89947e+06
3.89949e+06
3.89952e+06
3.89956e+06
3.8996e+06
3.89964e+06
3.89969e+06
3.89918e+06
3.89931e+06
3.89939e+06
3.89939e+06
3.89938e+06
3.89937e+06
3.89936e+06
3.89935e+06
3.89934e+06
3.89932e+06
3.89931e+06
3.8993e+06
3.8993e+06
3.89929e+06
3.89928e+06
3.89928e+06
3.89928e+06
3.89927e+06
3.89927e+06
3.89927e+06
3.89927e+06
3.89927e+06
3.89927e+06
3.89927e+06
3.89926e+06
3.89926e+06
3.89926e+06
3.89926e+06
3.89926e+06
3.89926e+06
3.89926e+06
3.89926e+06
3.89927e+06
3.89927e+06
3.89928e+06
3.89929e+06
3.89929e+06
3.8993e+06
3.89931e+06
3.89933e+06
3.89934e+06
3.89936e+06
3.89937e+06
3.8994e+06
3.89943e+06
3.89946e+06
3.8995e+06
3.89954e+06
3.89959e+06
3.89965e+06
3.89862e+06
3.89891e+06
3.899e+06
3.89904e+06
3.89906e+06
3.89908e+06
3.8991e+06
3.89911e+06
3.89911e+06
3.89912e+06
3.89912e+06
3.89912e+06
3.89912e+06
3.89912e+06
3.89912e+06
3.89913e+06
3.89913e+06
3.89913e+06
3.89913e+06
3.89914e+06
3.89914e+06
3.89914e+06
3.89914e+06
3.89914e+06
3.89914e+06
3.89914e+06
3.89914e+06
3.89914e+06
3.89914e+06
3.89914e+06
3.89915e+06
3.89915e+06
3.89916e+06
3.89916e+06
3.89917e+06
3.89918e+06
3.89919e+06
3.8992e+06
3.89921e+06
3.89922e+06
3.89924e+06
3.89925e+06
3.89927e+06
3.8993e+06
3.89933e+06
3.89937e+06
3.89941e+06
3.89946e+06
3.89952e+06
3.89959e+06
3.90012e+06
3.89961e+06
3.89936e+06
3.89926e+06
3.89921e+06
3.89917e+06
3.89915e+06
3.89913e+06
3.89911e+06
3.8991e+06
3.89909e+06
3.89908e+06
3.89908e+06
3.89907e+06
3.89907e+06
3.89907e+06
3.89907e+06
3.89906e+06
3.89906e+06
3.89906e+06
3.89906e+06
3.89906e+06
3.89906e+06
3.89906e+06
3.89906e+06
3.89906e+06
3.89906e+06
3.89906e+06
3.89906e+06
3.89906e+06
3.89906e+06
3.89907e+06
3.89907e+06
3.89908e+06
3.89908e+06
3.89909e+06
3.8991e+06
3.89911e+06
3.89912e+06
3.89913e+06
3.89915e+06
3.89917e+06
3.89919e+06
3.89921e+06
3.89925e+06
3.89928e+06
3.89933e+06
3.89938e+06
3.89945e+06
3.89953e+06
3.90877e+06
3.90905e+06
3.90915e+06
3.9094e+06
3.90952e+06
3.90973e+06
3.90987e+06
3.91006e+06
3.91019e+06
3.91037e+06
3.9105e+06
3.91066e+06
3.91078e+06
3.91094e+06
3.91105e+06
3.9112e+06
3.9113e+06
3.91145e+06
3.91152e+06
3.91168e+06
3.90868e+06
3.90895e+06
3.90906e+06
3.9093e+06
3.90942e+06
3.90963e+06
3.90977e+06
3.90996e+06
3.91009e+06
3.91026e+06
3.91039e+06
3.91055e+06
3.91067e+06
3.91083e+06
3.91094e+06
3.91109e+06
3.91119e+06
3.91134e+06
3.91141e+06
3.91157e+06
3.90858e+06
3.90886e+06
3.90896e+06
3.9092e+06
3.90932e+06
3.90953e+06
3.90967e+06
3.90985e+06
3.90999e+06
3.91016e+06
3.91029e+06
3.91045e+06
3.91057e+06
3.91072e+06
3.91083e+06
3.91099e+06
3.91108e+06
3.91123e+06
3.9113e+06
3.91146e+06
3.90849e+06
3.90876e+06
3.90886e+06
3.9091e+06
3.90923e+06
3.90943e+06
3.90957e+06
3.90975e+06
3.90988e+06
3.91006e+06
3.91018e+06
3.91034e+06
3.91046e+06
3.91062e+06
3.91072e+06
3.91088e+06
3.91097e+06
3.91112e+06
3.91119e+06
3.91135e+06
3.90839e+06
3.90866e+06
3.90876e+06
3.909e+06
3.90913e+06
3.90933e+06
3.90946e+06
3.90965e+06
3.90978e+06
3.90995e+06
3.91008e+06
3.91024e+06
3.91035e+06
3.91051e+06
3.91061e+06
3.91077e+06
3.91086e+06
3.91101e+06
3.91108e+06
3.91123e+06
3.9083e+06
3.90857e+06
3.90867e+06
3.90891e+06
3.90903e+06
3.90923e+06
3.90936e+06
3.90955e+06
3.90968e+06
3.90985e+06
3.90997e+06
3.91013e+06
3.91025e+06
3.9104e+06
3.9105e+06
3.91066e+06
3.91075e+06
3.9109e+06
3.91096e+06
3.91112e+06
3.9082e+06
3.90847e+06
3.90857e+06
3.90881e+06
3.90893e+06
3.90913e+06
3.90926e+06
3.90945e+06
3.90957e+06
3.90974e+06
3.90987e+06
3.91002e+06
3.91014e+06
3.91029e+06
3.9104e+06
3.91055e+06
3.91063e+06
3.91079e+06
3.91085e+06
3.91101e+06
3.90811e+06
3.90838e+06
3.90848e+06
3.90871e+06
3.90883e+06
3.90904e+06
3.90916e+06
3.90935e+06
3.90947e+06
3.90964e+06
3.90976e+06
3.90992e+06
3.91003e+06
3.91018e+06
3.91029e+06
3.91044e+06
3.91052e+06
3.91068e+06
3.91074e+06
3.91089e+06
3.90802e+06
3.90829e+06
3.90838e+06
3.90862e+06
3.90873e+06
3.90894e+06
3.90906e+06
3.90924e+06
3.90937e+06
3.90954e+06
3.90966e+06
3.90981e+06
3.90993e+06
3.91008e+06
3.91018e+06
3.91033e+06
3.91041e+06
3.91057e+06
3.91063e+06
3.91078e+06
3.90792e+06
3.90819e+06
3.90828e+06
3.90852e+06
3.90864e+06
3.90884e+06
3.90896e+06
3.90914e+06
3.90927e+06
3.90943e+06
3.90955e+06
3.90971e+06
3.90982e+06
3.90997e+06
3.91007e+06
3.91022e+06
3.9103e+06
3.91046e+06
3.91052e+06
3.91067e+06
3.90783e+06
3.9081e+06
3.90819e+06
3.90842e+06
3.90854e+06
3.90874e+06
3.90886e+06
3.90904e+06
3.90917e+06
3.90933e+06
3.90945e+06
3.90961e+06
3.90972e+06
3.90987e+06
3.90996e+06
3.91011e+06
3.9102e+06
3.91035e+06
3.9104e+06
3.91056e+06
3.90774e+06
3.908e+06
3.90809e+06
3.90833e+06
3.90844e+06
3.90864e+06
3.90876e+06
3.90894e+06
3.90907e+06
3.90923e+06
3.90935e+06
3.9095e+06
3.90961e+06
3.90976e+06
3.90986e+06
3.91e+06
3.91009e+06
3.91024e+06
3.91029e+06
3.91044e+06
3.90764e+06
3.90791e+06
3.908e+06
3.90823e+06
3.90834e+06
3.90854e+06
3.90866e+06
3.90884e+06
3.90896e+06
3.90913e+06
3.90924e+06
3.9094e+06
3.90951e+06
3.90965e+06
3.90975e+06
3.9099e+06
3.90998e+06
3.91013e+06
3.91018e+06
3.91033e+06
3.90755e+06
3.90782e+06
3.9079e+06
3.90814e+06
3.90825e+06
3.90845e+06
3.90857e+06
3.90874e+06
3.90886e+06
3.90903e+06
3.90914e+06
3.90929e+06
3.9094e+06
3.90955e+06
3.90964e+06
3.90979e+06
3.90987e+06
3.91002e+06
3.91007e+06
3.91022e+06
3.90746e+06
3.90772e+06
3.90781e+06
3.90804e+06
3.90815e+06
3.90835e+06
3.90847e+06
3.90864e+06
3.90876e+06
3.90892e+06
3.90904e+06
3.90919e+06
3.90929e+06
3.90944e+06
3.90953e+06
3.90968e+06
3.90976e+06
3.90991e+06
3.90996e+06
3.91011e+06
3.90736e+06
3.90763e+06
3.90771e+06
3.90794e+06
3.90805e+06
3.90825e+06
3.90837e+06
3.90854e+06
3.90866e+06
3.90882e+06
3.90893e+06
3.90908e+06
3.90918e+06
3.90933e+06
3.90942e+06
3.90957e+06
3.90965e+06
3.90979e+06
3.90985e+06
3.91e+06
3.90727e+06
3.90753e+06
3.90762e+06
3.90784e+06
3.90795e+06
3.90815e+06
3.90826e+06
3.90844e+06
3.90855e+06
3.90871e+06
3.90882e+06
3.90897e+06
3.90908e+06
3.90922e+06
3.90931e+06
3.90946e+06
3.90953e+06
3.90968e+06
3.90973e+06
3.90988e+06
3.90717e+06
3.90743e+06
3.90752e+06
3.90775e+06
3.90785e+06
3.90805e+06
3.90816e+06
3.90833e+06
3.90845e+06
3.90861e+06
3.90872e+06
3.90886e+06
3.90897e+06
3.90911e+06
3.9092e+06
3.90935e+06
3.90942e+06
3.90957e+06
3.90962e+06
3.90977e+06
3.90707e+06
3.90734e+06
3.90742e+06
3.90765e+06
3.90775e+06
3.90794e+06
3.90806e+06
3.90823e+06
3.90834e+06
3.9085e+06
3.90861e+06
3.90876e+06
3.90886e+06
3.909e+06
3.90909e+06
3.90924e+06
3.90931e+06
3.90946e+06
3.90951e+06
3.90965e+06
3.90698e+06
3.90724e+06
3.90732e+06
3.90754e+06
3.90765e+06
3.90784e+06
3.90795e+06
3.90813e+06
3.90824e+06
3.9084e+06
3.9085e+06
3.90865e+06
3.90875e+06
3.9089e+06
3.90899e+06
3.90913e+06
3.9092e+06
3.90935e+06
3.9094e+06
3.90954e+06
3.90688e+06
3.90714e+06
3.90722e+06
3.90744e+06
3.90755e+06
3.90774e+06
3.90785e+06
3.90802e+06
3.90813e+06
3.90829e+06
3.9084e+06
3.90855e+06
3.90865e+06
3.90879e+06
3.90888e+06
3.90902e+06
3.90909e+06
3.90924e+06
3.90928e+06
3.90943e+06
3.90678e+06
3.90704e+06
3.90712e+06
3.90735e+06
3.90745e+06
3.90764e+06
3.90775e+06
3.90792e+06
3.90803e+06
3.90819e+06
3.9083e+06
3.90844e+06
3.90854e+06
3.90868e+06
3.90877e+06
3.90891e+06
3.90898e+06
3.90913e+06
3.90917e+06
3.90932e+06
3.90668e+06
3.90694e+06
3.90702e+06
3.90725e+06
3.90735e+06
3.90754e+06
3.90765e+06
3.90782e+06
3.90793e+06
3.90809e+06
3.90819e+06
3.90834e+06
3.90844e+06
3.90858e+06
3.90866e+06
3.9088e+06
3.90887e+06
3.90902e+06
3.90906e+06
3.9092e+06
3.90659e+06
3.90685e+06
3.90692e+06
3.90715e+06
3.90725e+06
3.90744e+06
3.90755e+06
3.90772e+06
3.90783e+06
3.90799e+06
3.90809e+06
3.90824e+06
3.90833e+06
3.90847e+06
3.90856e+06
3.9087e+06
3.90877e+06
3.90891e+06
3.90895e+06
3.90909e+06
3.90649e+06
3.90675e+06
3.90683e+06
3.90705e+06
3.90715e+06
3.90734e+06
3.90745e+06
3.90762e+06
3.90773e+06
3.90789e+06
3.90799e+06
3.90813e+06
3.90823e+06
3.90837e+06
3.90845e+06
3.90859e+06
3.90866e+06
3.9088e+06
3.90884e+06
3.90898e+06
3.9064e+06
3.90666e+06
3.90673e+06
3.90696e+06
3.90705e+06
3.90725e+06
3.90735e+06
3.90752e+06
3.90763e+06
3.90778e+06
3.90789e+06
3.90803e+06
3.90812e+06
3.90826e+06
3.90834e+06
3.90848e+06
3.90855e+06
3.90868e+06
3.90873e+06
3.90887e+06
3.9063e+06
3.90656e+06
3.90664e+06
3.90686e+06
3.90696e+06
3.90715e+06
3.90725e+06
3.90742e+06
3.90753e+06
3.90768e+06
3.90778e+06
3.90792e+06
3.90802e+06
3.90815e+06
3.90824e+06
3.90837e+06
3.90844e+06
3.90857e+06
3.90862e+06
3.90875e+06
3.90621e+06
3.90647e+06
3.90654e+06
3.90676e+06
3.90686e+06
3.90705e+06
3.90715e+06
3.90732e+06
3.90743e+06
3.90758e+06
3.90768e+06
3.90782e+06
3.90791e+06
3.90805e+06
3.90813e+06
3.90826e+06
3.90833e+06
3.90846e+06
3.9085e+06
3.90864e+06
3.90612e+06
3.90638e+06
3.90645e+06
3.90667e+06
3.90676e+06
3.90695e+06
3.90706e+06
3.90722e+06
3.90733e+06
3.90748e+06
3.90758e+06
3.90772e+06
3.90781e+06
3.90794e+06
3.90802e+06
3.90815e+06
3.90822e+06
3.90836e+06
3.90839e+06
3.90853e+06
3.90603e+06
3.90629e+06
3.90636e+06
3.90657e+06
3.90667e+06
3.90686e+06
3.90696e+06
3.90712e+06
3.90722e+06
3.90738e+06
3.90747e+06
3.90761e+06
3.9077e+06
3.90784e+06
3.90792e+06
3.90805e+06
3.90811e+06
3.90825e+06
3.90829e+06
3.90842e+06
3.90594e+06
3.90619e+06
3.90626e+06
3.90648e+06
3.90657e+06
3.90676e+06
3.90686e+06
3.90703e+06
3.90713e+06
3.90728e+06
3.90737e+06
3.90751e+06
3.9076e+06
3.90773e+06
3.90781e+06
3.90794e+06
3.90801e+06
3.90814e+06
3.90818e+06
3.90832e+06
3.90585e+06
3.9061e+06
3.90617e+06
3.90639e+06
3.90648e+06
3.90667e+06
3.90676e+06
3.90693e+06
3.90703e+06
3.90718e+06
3.90727e+06
3.90741e+06
3.9075e+06
3.90763e+06
3.90771e+06
3.90784e+06
3.9079e+06
3.90804e+06
3.90807e+06
3.90821e+06
3.90576e+06
3.90601e+06
3.90608e+06
3.9063e+06
3.90639e+06
3.90657e+06
3.90667e+06
3.90683e+06
3.90693e+06
3.90708e+06
3.90717e+06
3.90731e+06
3.9074e+06
3.90753e+06
3.90761e+06
3.90774e+06
3.9078e+06
3.90793e+06
3.90797e+06
3.90811e+06
3.90567e+06
3.90593e+06
3.90599e+06
3.90621e+06
3.90629e+06
3.90648e+06
3.90658e+06
3.90674e+06
3.90684e+06
3.90698e+06
3.90708e+06
3.90721e+06
3.9073e+06
3.90743e+06
3.90751e+06
3.90764e+06
3.9077e+06
3.90783e+06
3.90787e+06
3.908e+06
3.90558e+06
3.90584e+06
3.9059e+06
3.90612e+06
3.9062e+06
3.90639e+06
3.90648e+06
3.90665e+06
3.90674e+06
3.90689e+06
3.90698e+06
3.90712e+06
3.9072e+06
3.90733e+06
3.90741e+06
3.90754e+06
3.9076e+06
3.90773e+06
3.90776e+06
3.9079e+06
3.9055e+06
3.90575e+06
3.90581e+06
3.90603e+06
3.90611e+06
3.9063e+06
3.90639e+06
3.90655e+06
3.90665e+06
3.90679e+06
3.90688e+06
3.90702e+06
3.9071e+06
3.90723e+06
3.90731e+06
3.90744e+06
3.90749e+06
3.90762e+06
3.90766e+06
3.90779e+06
3.90541e+06
3.90566e+06
3.90572e+06
3.90594e+06
3.90602e+06
3.90621e+06
3.9063e+06
3.90646e+06
3.90655e+06
3.9067e+06
3.90679e+06
3.90692e+06
3.90701e+06
3.90713e+06
3.90721e+06
3.90733e+06
3.90739e+06
3.90752e+06
3.90755e+06
3.90768e+06
3.90532e+06
3.90557e+06
3.90563e+06
3.90585e+06
3.90593e+06
3.90611e+06
3.9062e+06
3.90636e+06
3.90646e+06
3.9066e+06
3.90669e+06
3.90682e+06
3.90691e+06
3.90703e+06
3.9071e+06
3.90723e+06
3.90729e+06
3.90742e+06
3.90745e+06
3.90758e+06
3.90523e+06
3.90548e+06
3.90554e+06
3.90576e+06
3.90584e+06
3.90602e+06
3.90611e+06
3.90627e+06
3.90636e+06
3.9065e+06
3.90659e+06
3.90673e+06
3.90681e+06
3.90693e+06
3.907e+06
3.90713e+06
3.90718e+06
3.90731e+06
3.90734e+06
3.90747e+06
3.90514e+06
3.90539e+06
3.90545e+06
3.90566e+06
3.90575e+06
3.90593e+06
3.90602e+06
3.90617e+06
3.90627e+06
3.90641e+06
3.9065e+06
3.90663e+06
3.90671e+06
3.90683e+06
3.9069e+06
3.90703e+06
3.90708e+06
3.90721e+06
3.90723e+06
3.90737e+06
3.90505e+06
3.90531e+06
3.90536e+06
3.90557e+06
3.90565e+06
3.90583e+06
3.90592e+06
3.90608e+06
3.90617e+06
3.90631e+06
3.9064e+06
3.90653e+06
3.90661e+06
3.90673e+06
3.9068e+06
3.90693e+06
3.90698e+06
3.9071e+06
3.90713e+06
3.90726e+06
3.90497e+06
3.90522e+06
3.90527e+06
3.90549e+06
3.90556e+06
3.90574e+06
3.90583e+06
3.90599e+06
3.90608e+06
3.90622e+06
3.9063e+06
3.90643e+06
3.90651e+06
3.90664e+06
3.9067e+06
3.90683e+06
3.90688e+06
3.907e+06
3.90703e+06
3.90716e+06
3.90488e+06
3.90513e+06
3.90519e+06
3.9054e+06
3.90548e+06
3.90565e+06
3.90574e+06
3.9059e+06
3.90598e+06
3.90613e+06
3.90621e+06
3.90634e+06
3.90642e+06
3.90654e+06
3.90661e+06
3.90673e+06
3.90678e+06
3.9069e+06
3.90693e+06
3.90706e+06
3.9048e+06
3.90505e+06
3.9051e+06
3.90531e+06
3.90539e+06
3.90557e+06
3.90565e+06
3.90581e+06
3.90589e+06
3.90603e+06
3.90612e+06