/*--------------------------------*- C++ -*----------------------------------*\
  =========                 |
  \\      /  F ield         | OpenFOAM: The Open Source CFD Toolbox
   \\    /   O peration     | Website:  https://openfoam.org
    \\  /    A nd           | Version:  8
     \\/     M anipulation  |
\*---------------------------------------------------------------------------*/
FoamFile
{
    version     2.0;
    format      ascii;
    class       volVectorField;
    location    "800";
    object      U;
}
// * * * * * * * * * * * * * * * * * * * * * * * * * * * * * * * * * * * * * //

dimensions      [0 1 -1 0 0 0 0];

internalField   nonuniform List<vector> 
8400
(
(-83.6373 -0.671294 -1.44561e-15)
(-83.3105 -0.681522 -1.29693e-15)
(-83.069 -0.69135 -1.13106e-15)
(-82.8321 -0.699886 -9.49576e-16)
(-82.6088 -0.707158 -7.50736e-16)
(-82.401 -0.713526 -5.34642e-16)
(-82.2098 -0.719375 -3.04359e-16)
(-82.0358 -0.72502 -6.00291e-17)
(-81.8787 -0.730705 1.97266e-16)
(-81.7378 -0.736598 4.66151e-16)
(-81.6124 -0.742807 7.45474e-16)
(-81.5014 -0.749395 1.0331e-15)
(-81.4037 -0.756403 1.32607e-15)
(-81.3182 -0.763844 1.62163e-15)
(-81.2438 -0.771709 1.91666e-15)
(-81.1794 -0.779982 2.20725e-15)
(-81.1241 -0.788664 2.49314e-15)
(-81.0769 -0.797756 2.74278e-15)
(-81.0371 -0.80725 2.97457e-15)
(-81.0037 -0.817151 3.20522e-15)
(-80.9762 -0.827481 3.42083e-15)
(-80.9541 -0.838275 3.64586e-15)
(-80.9367 -0.849567 3.87111e-15)
(-80.9236 -0.861391 4.08076e-15)
(-80.9143 -0.873799 4.27775e-15)
(-80.9086 -0.886857 4.44897e-15)
(-80.9061 -0.900641 4.63245e-15)
(-80.9065 -0.915234 4.80972e-15)
(-80.9095 -0.930717 5.01115e-15)
(-80.915 -0.947227 5.21314e-15)
(-80.9224 -0.964908 5.4642e-15)
(-80.9315 -0.983899 5.74857e-15)
(-80.9418 -1.00436 5.99048e-15)
(-80.9525 -1.02648 6.22743e-15)
(-80.9629 -1.05049 6.41452e-15)
(-80.9722 -1.07666 6.55404e-15)
(-80.9791 -1.10532 6.6866e-15)
(-80.9824 -1.1369 6.86632e-15)
(-80.9805 -1.17196 7.05759e-15)
(-80.9714 -1.21123 7.25468e-15)
(-80.9528 -1.25563 7.45475e-15)
(-80.922 -1.30636 7.65878e-15)
(-80.8752 -1.36498 7.86207e-15)
(-80.8074 -1.43363 8.0622e-15)
(-80.7119 -1.51537 8.26131e-15)
(-80.5812 -1.61466 8.45751e-15)
(-80.4064 -1.73764 8.65381e-15)
(-80.1672 -1.89302 8.84776e-15)
(-79.8109 -2.09752 9.0395e-15)
(-79.2741 -2.389 9.23442e-15)
(-81.9659 0.144704 -1.05781e-14)
(-81.6544 0.160696 -1.04854e-14)
(-81.4181 0.186106 -1.03878e-14)
(-81.1855 0.218118 -1.02805e-14)
(-80.9665 0.254591 -1.01613e-14)
(-80.7631 0.293676 -1.00289e-14)
(-80.5764 0.333862 -9.88375e-15)
(-80.4064 0.37401 -9.72522e-15)
(-80.2528 0.413293 -9.55464e-15)
(-80.1149 0.451164 -9.37239e-15)
(-79.9916 0.487288 -9.17954e-15)
(-79.8818 0.521492 -8.97778e-15)
(-79.7845 0.553716 -8.76831e-15)
(-79.6984 0.583994 -8.55464e-15)
(-79.6224 0.61243 -8.33889e-15)
(-79.5556 0.639152 -8.12522e-15)
(-79.497 0.664297 -7.91506e-15)
(-79.4457 0.688026 -7.71419e-15)
(-79.4009 0.710534 -7.52982e-15)
(-79.3619 0.731998 -7.34315e-15)
(-79.3282 0.752579 -7.19083e-15)
(-79.2991 0.772436 -7.06374e-15)
(-79.2743 0.791735 -6.94462e-15)
(-79.2533 0.810619 -6.83903e-15)
(-79.2358 0.829195 -6.73771e-15)
(-79.2215 0.847552 -6.64422e-15)
(-79.2101 0.865763 -6.52495e-15)
(-79.2014 0.88389 -6.40046e-15)
(-79.1952 0.901982 -6.2877e-15)
(-79.1911 0.920098 -6.30038e-15)
(-79.1888 0.938248 -6.26395e-15)
(-79.188 0.956467 -5.84968e-15)
(-79.1884 0.974742 -5.38503e-15)
(-79.1893 0.993 -4.68184e-15)
(-79.1901 1.01113 -4.11643e-15)
(-79.1899 1.02897 -3.74411e-15)
(-79.1877 1.04628 -3.46011e-15)
(-79.1825 1.0628 -3.17723e-15)
(-79.1729 1.07827 -2.99811e-15)
(-79.1575 1.09231 -2.84299e-15)
(-79.1345 1.10438 -2.69329e-15)
(-79.1018 1.11369 -2.54037e-15)
(-79.0568 1.11918 -2.38051e-15)
(-78.9961 1.11923 -2.21412e-15)
(-78.9156 1.1112 -2.04174e-15)
(-78.8111 1.09088 -1.86374e-15)
(-78.6783 1.05248 -1.67547e-15)
(-78.5079 0.987778 -1.48112e-15)
(-78.2766 0.877425 -1.27826e-15)
(-77.9549 0.670091 -1.06642e-15)
(-78.1261 -1.10634 -1.36365e-14)
(-77.796 -1.1133 -1.35792e-14)
(-77.5597 -1.10789 -1.35272e-14)
(-77.3313 -1.09281 -1.34798e-14)
(-77.119 -1.07096 -1.34349e-14)
(-76.9233 -1.04511 -1.33913e-14)
(-76.7445 -1.01751 -1.335e-14)
(-76.5822 -0.989863 -1.33097e-14)
(-76.4355 -0.963319 -1.32698e-14)
(-76.3032 -0.938621 -1.323e-14)
(-76.1841 -0.916195 -1.31893e-14)
(-76.0769 -0.896239 -1.31475e-14)
(-75.9804 -0.878793 -1.31056e-14)
(-75.8933 -0.863789 -1.30643e-14)
(-75.8145 -0.851101 -1.30244e-14)
(-75.743 -0.84059 -1.29882e-14)
(-75.678 -0.832078 -1.29567e-14)
(-75.6185 -0.825371 -1.29319e-14)
(-75.5638 -0.820278 -1.29133e-14)
(-75.5135 -0.816632 -1.28825e-14)
(-75.4669 -0.814279 -1.28799e-14)
(-75.4237 -0.813066 -1.29222e-14)
(-75.3835 -0.812872 -1.29862e-14)
(-75.346 -0.813612 -1.30569e-14)
(-75.311 -0.815237 -1.31095e-14)
(-75.2783 -0.81772 -1.31419e-14)
(-75.2477 -0.821045 -1.31378e-14)
(-75.219 -0.825223 -1.30942e-14)
(-75.192 -0.830302 -1.30179e-14)
(-75.1665 -0.836359 -1.29069e-14)
(-75.1422 -0.843487 -1.28302e-14)
(-75.1185 -0.851846 -1.28389e-14)
(-75.095 -0.86162 -1.2526e-14)
(-75.071 -0.873025 -1.18014e-14)
(-75.0459 -0.886335 -1.09528e-14)
(-75.0188 -0.901879 -1.01031e-14)
(-74.989 -0.920044 -9.60188e-15)
(-74.9553 -0.941331 -9.27858e-15)
(-74.9163 -0.966409 -9.01192e-15)
(-74.8705 -0.996062 -8.80541e-15)
(-74.8164 -1.03119 -8.62714e-15)
(-74.7519 -1.07292 -8.45915e-15)
(-74.6748 -1.12264 -8.2931e-15)
(-74.5823 -1.18217 -8.1233e-15)
(-74.4711 -1.25404 -7.94939e-15)
(-74.338 -1.34171 -7.77364e-15)
(-74.1797 -1.44924 -7.58736e-15)
(-73.9912 -1.58135 -7.39984e-15)
(-73.7646 -1.748 -7.21241e-15)
(-73.4961 -1.97483 -7.02731e-15)
(-72.1332 -0.441343 -1.93433e-14)
(-71.8275 -0.416023 -1.9104e-14)
(-71.5978 -0.370247 -1.88617e-14)
(-71.3757 -0.310135 -1.86223e-14)
(-71.171 -0.241163 -1.83897e-14)
(-70.9843 -0.167964 -1.81664e-14)
(-70.815 -0.0940147 -1.79552e-14)
(-70.6619 -0.0217391 -1.77564e-14)
(-70.5233 0.0473063 -1.75708e-14)
(-70.3977 0.112195 -1.73977e-14)
(-70.2835 0.172452 -1.72362e-14)
(-70.1792 0.227903 -1.7084e-14)
(-70.0834 0.278583 -1.69419e-14)
(-69.995 0.324665 -1.68081e-14)
(-69.9128 0.366413 -1.66831e-14)
(-69.8359 0.404149 -1.65683e-14)
(-69.7636 0.438245 -1.64652e-14)
(-69.6951 0.469097 -1.63776e-14)
(-69.63 0.497078 -1.63051e-14)
(-69.5678 0.522558 -1.62215e-14)
(-69.5082 0.54589 -1.61646e-14)
(-69.451 0.567389 -1.61528e-14)
(-69.3962 0.587321 -1.61507e-14)
(-69.3435 0.605888 -1.61514e-14)
(-69.2928 0.623241 -1.61386e-14)
(-69.2442 0.639464 -1.61106e-14)
(-69.1975 0.654584 -1.60674e-14)
(-69.1525 0.668545 -1.60043e-14)
(-69.1092 0.681226 -1.59197e-14)
(-69.0673 0.692466 -1.57803e-14)
(-69.0266 0.702042 -1.56347e-14)
(-68.9865 0.709667 -1.5326e-14)
(-68.9467 0.714995 -1.48722e-14)
(-68.9067 0.717589 -1.42855e-14)
(-68.8657 0.716922 -1.33398e-14)
(-68.8231 0.712403 -1.223e-14)
(-68.7782 0.70331 -1.15461e-14)
(-68.73 0.688779 -1.12433e-14)
(-68.6777 0.667799 -1.09973e-14)
(-68.6202 0.639141 -1.07888e-14)
(-68.5564 0.601305 -1.06045e-14)
(-68.4853 0.552411 -1.04274e-14)
(-68.4053 0.490078 -1.0249e-14)
(-68.315 0.411203 -1.00597e-14)
(-68.2126 0.31166 -9.85815e-15)
(-68.0964 0.186117 -9.6431e-15)
(-67.9646 0.0280307 -9.39922e-15)
(-67.8148 -0.170511 -9.14207e-15)
(-67.6454 -0.420921 -8.87395e-15)
(-67.4564 -0.740616 -8.59732e-15)
(-64.3146 -1.49461 -3.08158e-14)
(-63.9689 -1.49099 -3.0879e-14)
(-63.7321 -1.46042 -3.09254e-14)
(-63.5117 -1.41208 -3.09553e-14)
(-63.3139 -1.35391 -3.09691e-14)
(-63.1365 -1.29188 -3.09682e-14)
(-62.9771 -1.23 -3.09557e-14)
(-62.8331 -1.17075 -3.09336e-14)
(-62.702 -1.11554 -3.09031e-14)
(-62.5818 -1.06507 -3.08661e-14)
(-62.4703 -1.0196 -3.08214e-14)
(-62.3661 -0.979085 -3.07693e-14)
(-62.2677 -0.943326 -3.07083e-14)
(-62.1738 -0.912005 -3.0639e-14)
(-62.0837 -0.884725 -3.05595e-14)
(-61.9965 -0.861044 -3.04731e-14)
(-61.9118 -0.840505 -3.03844e-14)
(-61.829 -0.822661 -3.03005e-14)
(-61.7479 -0.807096 -3.02202e-14)
(-61.6686 -0.7934 -3.01179e-14)
(-61.5908 -0.7812 -3.00268e-14)
(-61.5147 -0.770163 -2.99778e-14)
(-61.4404 -0.760006 -2.98921e-14)
(-61.3679 -0.750506 -2.97814e-14)
(-61.2973 -0.741496 -2.96718e-14)
(-61.2286 -0.732875 -2.95686e-14)
(-61.1616 -0.724616 -2.94699e-14)
(-61.0963 -0.716753 -2.93543e-14)
(-61.0324 -0.709371 -2.92358e-14)
(-60.9695 -0.702596 -2.90967e-14)
(-60.9073 -0.696608 -2.88759e-14)
(-60.8452 -0.691647 -2.85233e-14)
(-60.7827 -0.687995 -2.79198e-14)
(-60.7192 -0.685992 -2.70557e-14)
(-60.654 -0.686031 -2.55471e-14)
(-60.5866 -0.68855 -2.37574e-14)
(-60.5163 -0.694069 -2.24843e-14)
(-60.4425 -0.7032 -2.15519e-14)
(-60.3646 -0.716628 -2.06723e-14)
(-60.2821 -0.735208 -1.98474e-14)
(-60.1946 -0.760018 -1.914e-14)
(-60.1018 -0.792412 -1.84609e-14)
(-60.0032 -0.834158 -1.77987e-14)
(-59.8988 -0.88767 -1.71399e-14)
(-59.7885 -0.956306 -1.65905e-14)
(-59.6727 -1.04444 -1.6042e-14)
(-59.5519 -1.15782 -1.53872e-14)
(-59.4275 -1.30408 -1.47389e-14)
(-59.3025 -1.49386 -1.40843e-14)
(-59.1804 -1.74189 -1.34489e-14)
(-54.8904 -1.08103 -2.32069e-14)
(-54.5507 -1.03508 -2.40325e-14)
(-54.3114 -0.952119 -2.48536e-14)
(-54.0923 -0.848869 -2.56431e-14)
(-53.9004 -0.737775 -2.63859e-14)
(-53.7311 -0.626774 -2.70755e-14)
(-53.58 -0.520447 -2.77112e-14)
(-53.4432 -0.421208 -2.8293e-14)
(-53.3175 -0.330177 -2.88229e-14)
(-53.2 -0.247734 -2.93029e-14)
(-53.0889 -0.173801 -2.97341e-14)
(-52.9824 -0.108028 -3.0117e-14)
(-52.8794 -0.0498743 -3.04536e-14)
(-52.7789 0.00130046 -3.07433e-14)
(-52.6804 0.046206 -3.09877e-14)
(-52.5835 0.0855668 -3.11906e-14)
(-52.488 0.120112 -3.13634e-14)
(-52.3941 0.150526 -3.15217e-14)
(-52.3017 0.177433 -3.16613e-14)
(-52.211 0.201403 -3.17558e-14)
(-52.1225 0.222934 -3.18557e-14)
(-52.0362 0.242422 -3.20013e-14)
(-51.9523 0.260159 -3.21037e-14)
(-51.871 0.27633 -3.21485e-14)
(-51.7923 0.291003 -3.21939e-14)
(-51.7159 0.304112 -3.22351e-14)
(-51.6417 0.315494 -3.22844e-14)
(-51.5693 0.324904 -3.23424e-14)
(-51.4983 0.332008 -3.23979e-14)
(-51.428 0.336407 -3.24412e-14)
(-51.3579 0.337668 -3.24604e-14)
(-51.2873 0.335307 -3.24416e-14)
(-51.2156 0.328793 -3.23024e-14)
(-51.1422 0.317602 -3.18802e-14)
(-51.0666 0.301187 -3.10186e-14)
(-50.9884 0.278972 -3.01199e-14)
(-50.9072 0.25037 -2.97335e-14)
(-50.8228 0.214732 -2.94169e-14)
(-50.735 0.171301 -2.91398e-14)
(-50.644 0.119187 -2.89318e-14)
(-50.5497 0.0573244 -2.868e-14)
(-50.4527 -0.0156276 -2.84108e-14)
(-50.3532 -0.101386 -2.81692e-14)
(-50.252 -0.202138 -2.79975e-14)
(-50.15 -0.320698 -2.78868e-14)
(-50.0486 -0.460627 -2.77879e-14)
(-49.9495 -0.626274 -2.76767e-14)
(-49.8561 -0.823092 -2.75259e-14)
(-49.7744 -1.05795 -2.72981e-14)
(-49.7098 -1.33974 -2.6916e-14)
(-44.556 -1.9267 4.35658e-15)
(-44.1395 -1.89049 3.55899e-15)
(-43.8798 -1.8031 2.71181e-15)
(-43.6556 -1.69562 1.84585e-15)
(-43.4663 -1.58528 9.82352e-16)
(-43.3017 -1.48023 1.35435e-16)
(-43.1546 -1.38381 -6.85771e-16)
(-43.0197 -1.29712 -1.475e-15)
(-42.893 -1.22016 -2.22796e-15)
(-42.7722 -1.15246 -2.94255e-15)
(-42.6552 -1.09327 -3.61601e-15)
(-42.5408 -1.04173 -4.24662e-15)
(-42.4284 -0.996937 -4.83343e-15)
(-42.3175 -0.957956 -5.37411e-15)
(-42.2081 -0.923886 -5.86569e-15)
(-42.1004 -0.893864 -6.3103e-15)
(-41.9946 -0.867084 -6.72343e-15)
(-41.891 -0.842817 -7.13765e-15)
(-41.7902 -0.820426 -7.52797e-15)
(-41.6924 -0.799365 -7.85941e-15)
(-41.5978 -0.779188 -8.22795e-15)
(-41.5066 -0.759572 -8.67475e-15)
(-41.4188 -0.740302 -9.07307e-15)
(-41.3342 -0.721256 -9.37882e-15)
(-41.2523 -0.702439 -9.69137e-15)
(-41.1726 -0.683967 -1.00023e-14)
(-41.0946 -0.666027 -1.03528e-14)
(-41.0176 -0.648872 -1.07435e-14)
(-40.9407 -0.632829 -1.11398e-14)
(-40.8633 -0.618243 -1.15096e-14)
(-40.7846 -0.605456 -1.18209e-14)
(-40.704 -0.59485 -1.20205e-14)
(-40.6211 -0.586821 -1.19881e-14)
(-40.5357 -0.581719 -1.16435e-14)
(-40.4477 -0.579885 -1.10957e-14)
(-40.3571 -0.58168 -1.08115e-14)
(-40.2643 -0.587455 -1.09471e-14)
(-40.1697 -0.597661 -1.11681e-14)
(-40.0739 -0.612908 -1.14445e-14)
(-39.9776 -0.63394 -1.17699e-14)
(-39.8817 -0.661768 -1.21477e-14)
(-39.7871 -0.697761 -1.25983e-14)
(-39.6949 -0.743735 -1.31559e-14)
(-39.6065 -0.802021 -1.38567e-14)
(-39.5233 -0.875547 -1.46094e-14)
(-39.4472 -0.968077 -1.53534e-14)
(-39.3804 -1.08417 -1.60408e-14)
(-39.3267 -1.22914 -1.66016e-14)
(-39.2931 -1.40884 -1.69843e-14)
(-39.2858 -1.6293 -1.72224e-14)
(-33.6174 -1.86275 2.02484e-14)
(-33.1653 -1.75031 2.10038e-14)
(-32.8996 -1.5723 2.1692e-14)
(-32.681 -1.39039 2.22857e-14)
(-32.5015 -1.22179 2.27879e-14)
(-32.3456 -1.07074 2.32067e-14)
(-32.2044 -0.937119 2.35501e-14)
(-32.0723 -0.819702 2.38255e-14)
(-31.9461 -0.717006 2.40403e-14)
(-31.8239 -0.627481 2.42005e-14)
(-31.7046 -0.5496 2.43133e-14)
(-31.5878 -0.48188 2.43857e-14)
(-31.4734 -0.422947 2.44259e-14)
(-31.3616 -0.371498 2.4446e-14)
(-31.2526 -0.32634 2.44617e-14)
(-31.147 -0.286378 2.44868e-14)
(-31.0451 -0.250679 2.44931e-14)
(-30.9472 -0.218466 2.44392e-14)
(-30.8533 -0.189114 2.44074e-14)
(-30.7634 -0.162187 2.44407e-14)
(-30.6772 -0.137413 2.43483e-14)
(-30.5943 -0.114655 2.40947e-14)
(-30.5141 -0.0938987 2.39169e-14)
(-30.4358 -0.0752583 2.38982e-14)
(-30.3586 -0.0589584 2.38198e-14)
(-30.2816 -0.0452928 2.37126e-14)
(-30.2038 -0.03461 2.35086e-14)
(-30.1246 -0.0272894 2.32062e-14)
(-30.0433 -0.0236821 2.28741e-14)
(-29.9594 -0.0241053 2.2575e-14)
(-29.8725 -0.0288556 2.23803e-14)
(-29.7827 -0.0381645 2.23345e-14)
(-29.6902 -0.0521871 2.25857e-14)
(-29.5955 -0.0710302 2.30235e-14)
(-29.4991 -0.0947497 2.34424e-14)
(-29.402 -0.123366 2.35158e-14)
(-29.3051 -0.156911 2.32542e-14)
(-29.2092 -0.195506 2.29045e-14)
(-29.1155 -0.239415 2.24253e-14)
(-29.0247 -0.289091 2.17834e-14)
(-28.938 -0.345218 2.09282e-14)
(-28.8564 -0.408788 1.98093e-14)
(-28.7808 -0.481168 1.84562e-14)
(-28.7124 -0.564138 1.67839e-14)
(-28.6527 -0.659933 1.49769e-14)
(-28.6034 -0.771328 1.30116e-14)
(-28.567 -0.901801 1.09432e-14)
(-28.5473 -1.05546 8.85527e-15)
(-28.5517 -1.23631 6.78163e-15)
(-28.5873 -1.44759 4.68256e-15)
(-22.1542 -2.5928 8.70298e-15)
(-21.6385 -2.40844 9.79404e-15)
(-21.3953 -2.16128 1.08701e-14)
(-21.221 -1.95353 1.18945e-14)
(-21.0804 -1.78263 1.28726e-14)
(-20.9555 -1.63996 1.38073e-14)
(-20.8387 -1.51943 1.4696e-14)
(-20.7267 -1.41687 1.55363e-14)
(-20.6178 -1.32902 1.63262e-14)
(-20.5115 -1.25323 1.70633e-14)
(-20.4078 -1.18734 1.77478e-14)
(-20.3068 -1.12954 1.83811e-14)
(-20.2087 -1.07829 1.89666e-14)
(-20.1139 -1.03228 1.95176e-14)
(-20.0224 -0.990362 2.00605e-14)
(-19.9343 -0.951564 2.06188e-14)
(-19.8494 -0.915143 2.11336e-14)
(-19.7674 -0.880561 2.16025e-14)
(-19.6877 -0.847452 2.21858e-14)
(-19.6096 -0.815655 2.29268e-14)
(-19.5324 -0.785147 2.34166e-14)
(-19.4552 -0.755972 2.36239e-14)
(-19.3771 -0.728269 2.40684e-14)
(-19.2974 -0.70227 2.4988e-14)
(-19.2155 -0.678227 2.57565e-14)
(-19.1309 -0.656388 2.64737e-14)
(-19.0435 -0.636997 2.70868e-14)
(-18.9534 -0.620259 2.76046e-14)
(-18.8609 -0.606295 2.81661e-14)
(-18.7664 -0.595192 2.88628e-14)
(-18.6707 -0.587012 2.97061e-14)
(-18.5748 -0.581732 3.06159e-14)
(-18.4798 -0.579321 3.20568e-14)
(-18.3866 -0.57982 3.37552e-14)
(-18.2964 -0.583262 3.52864e-14)
(-18.2101 -0.5897 3.65275e-14)
(-18.1284 -0.599337 3.75407e-14)
(-18.0521 -0.612474 3.84092e-14)
(-17.9817 -0.629647 3.90563e-14)
(-17.9173 -0.651694 3.93777e-14)
(-17.8593 -0.6796 3.92793e-14)
(-17.808 -0.714617 3.87987e-14)
(-17.7637 -0.758255 3.78813e-14)
(-17.7271 -0.812317 3.65799e-14)
(-17.6993 -0.878868 3.49391e-14)
(-17.6819 -0.960264 3.29734e-14)
(-17.6774 -1.05912 3.07094e-14)
(-17.6897 -1.17866 2.8161e-14)
(-17.7267 -1.32155 2.52419e-14)
(-17.7976 -1.4886 2.17235e-14)
(-9.62774 -2.82089 2.80006e-16)
(-9.38461 -2.30579 4.35542e-16)
(-9.1664 -1.98838 5.9569e-16)
(-9.07707 -1.73916 7.65686e-16)
(-9.00729 -1.54389 9.47232e-16)
(-8.94189 -1.38419 1.14171e-15)
(-8.87784 -1.24938 1.34726e-15)
(-8.81463 -1.13475 1.56027e-15)
(-8.75223 -1.03696 1.77495e-15)
(-8.69083 -0.953092 1.98182e-15)
(-8.63059 -0.880715 2.16725e-15)
(-8.57154 -0.817895 2.31304e-15)
(-8.51357 -0.76305 2.39379e-15)
(-8.45643 -0.714892 2.38343e-15)
(-8.39973 -0.672394 2.28354e-15)
(-8.34293 -0.634767 2.08966e-15)
(-8.28549 -0.601393 1.58078e-15)
(-8.22681 -0.571833 8.44083e-16)
(-8.16632 -0.545744 4.03237e-16)
(-8.10364 -0.522833 4.11241e-16)
(-8.03851 -0.502816 -3.01648e-16)
(-7.97074 -0.485435 -2.09005e-15)
(-7.90031 -0.470517 -3.82127e-15)
(-7.82745 -0.457964 -4.24223e-15)
(-7.75265 -0.447728 -4.82044e-15)
(-7.67666 -0.439799 -5.60468e-15)
(-7.60031 -0.434215 -6.53023e-15)
(-7.52437 -0.431056 -7.46589e-15)
(-7.44964 -0.430415 -7.99956e-15)
(-7.37705 -0.432339 -8.02823e-15)
(-7.30731 -0.436859 -7.96542e-15)
(-7.24093 -0.444042 -8.26439e-15)
(-7.1785 -0.453973 -6.92449e-15)
(-7.12041 -0.466741 -4.68356e-15)
(-7.06674 -0.482345 -2.42734e-15)
(-7.0175 -0.500763 -4.27799e-17)
(-6.97243 -0.522103 2.62801e-15)
(-6.93123 -0.54653 5.65005e-15)
(-6.89387 -0.574287 8.80864e-15)
(-6.86007 -0.605873 1.17842e-14)
(-6.82973 -0.641938 1.43084e-14)
(-6.80352 -0.683172 1.64861e-14)
(-6.78167 -0.730537 1.81998e-14)
(-6.76497 -0.78521 1.95318e-14)
(-6.75538 -0.848547 2.05464e-14)
(-6.75554 -0.922039 2.1392e-14)
(-6.76871 -1.0075 2.2264e-14)
(-6.80005 -1.10749 2.3327e-14)
(-6.85885 -1.22461 2.46995e-14)
(-6.96149 -1.35703 2.65532e-14)
(3.84426 -4.20293 -1.11334e-16)
(3.3546 -2.80834 -1.01252e-16)
(3.42245 -2.28656 -8.95496e-17)
(3.54883 -1.9776 -7.89038e-17)
(3.58919 -1.74318 -7.10888e-17)
(3.60011 -1.56169 -6.64086e-17)
(3.6106 -1.41518 -6.06307e-17)
(3.62305 -1.2909 -5.20296e-17)
(3.63713 -1.18274 -3.76821e-17)
(3.65304 -1.08755 -1.04064e-17)
(3.67069 -1.0031 4.05835e-17)
(3.68944 -0.927538 1.39374e-16)
(3.70875 -0.859351 3.30665e-16)
(3.7282 -0.797203 6.52562e-16)
(3.74752 -0.739975 1.19828e-15)
(3.76674 -0.686864 2.36448e-15)
(3.78601 -0.637342 3.46359e-15)
(3.80561 -0.591195 3.43052e-15)
(3.82594 -0.548447 2.45212e-15)
(3.84733 -0.509161 2.74293e-15)
(3.87015 -0.47334 4.98471e-15)
(3.89477 -0.440914 7.6801e-15)
(3.92155 -0.411751 7.74091e-15)
(3.95074 -0.385611 6.05417e-15)
(3.98228 -0.362102 5.42517e-15)
(4.01597 -0.340774 4.67534e-15)
(4.05163 -0.321271 3.68097e-15)
(4.08879 -0.303347 1.87493e-15)
(4.12684 -0.286868 -2.57027e-16)
(4.16525 -0.271766 -1.51636e-15)
(4.20345 -0.258005 -1.57493e-15)
(4.24081 -0.245742 -3.99666e-15)
(4.27674 -0.235424 -7.00812e-15)
(4.31056 -0.227711 -9.49968e-15)
(4.3418 -0.223413 -1.16364e-14)
(4.37046 -0.223332 -1.35498e-14)
(4.39628 -0.228118 -1.53317e-14)
(4.41894 -0.238577 -1.68542e-14)
(4.43833 -0.255637 -1.77641e-14)
(4.45419 -0.279962 -1.78793e-14)
(4.46635 -0.312319 -1.75731e-14)
(4.47453 -0.353206 -1.69543e-14)
(4.47767 -0.402846 -1.6137e-14)
(4.47428 -0.461357 -1.5304e-14)
(4.46266 -0.529091 -1.46872e-14)
(4.43997 -0.60565 -1.45501e-14)
(4.40263 -0.690368 -1.51782e-14)
(4.3452 -0.782063 -1.67521e-14)
(4.26305 -0.881389 -1.97424e-14)
(4.11595 -0.982431 -2.59995e-14)
(17.2536 -3.40409 -1.14877e-16)
(16.7886 -2.81904 -1.09339e-16)
(16.584 -2.45321 -1.00332e-16)
(16.5289 -2.2028 -9.24042e-17)
(16.4918 -2.00704 -8.54875e-17)
(16.4509 -1.8531 -8.03502e-17)
(16.4108 -1.73411 -7.56876e-17)
(16.3727 -1.64175 -7.05328e-17)
(16.3361 -1.56934 -6.4881e-17)
(16.3011 -1.51235 -5.88272e-17)
(16.2679 -1.46756 -5.35868e-17)
(16.2365 -1.43236 -4.84736e-17)
(16.2071 -1.40459 -3.4104e-17)
(16.1795 -1.3824 1.07849e-17)
(16.1536 -1.3642 1.66765e-16)
(16.1295 -1.34876 6.35455e-16)
(16.107 -1.33516 1.1412e-15)
(16.0861 -1.32284 1.33687e-15)
(16.067 -1.31151 1.15818e-15)
(16.0495 -1.30106 1.06299e-15)
(16.0338 -1.29154 1.41615e-15)
(16.0201 -1.28309 2.2723e-15)
(16.0084 -1.27585 3.02027e-15)
(15.9988 -1.26988 3.14084e-15)
(15.9914 -1.26515 2.8369e-15)
(15.9862 -1.26155 2.47245e-15)
(15.9831 -1.2589 1.95486e-15)
(15.9817 -1.25699 1.17436e-15)
(15.9817 -1.25555 3.34777e-16)
(15.9828 -1.25438 -2.21564e-16)
(15.9845 -1.25324 -4.0355e-16)
(15.9864 -1.25204 -1.19827e-15)
(15.9881 -1.25085 -2.18317e-15)
(15.9892 -1.24982 -3.1433e-15)
(15.9892 -1.24921 -3.99929e-15)
(15.9878 -1.24936 -4.88476e-15)
(15.9848 -1.25065 -5.75695e-15)
(15.9797 -1.25356 -6.57791e-15)
(15.9722 -1.25865 -7.33305e-15)
(15.9618 -1.2664 -7.97345e-15)
(15.9477 -1.27714 -8.5413e-15)
(15.929 -1.29134 -9.11452e-15)
(15.9046 -1.30922 -9.71424e-15)
(15.8726 -1.33087 -1.04195e-14)
(15.8312 -1.35631 -1.13284e-14)
(15.7774 -1.38522 -1.25674e-14)
(15.7079 -1.4169 -1.42883e-14)
(15.6185 -1.4502 -1.6729e-14)
(15.5053 -1.48324 -2.02297e-14)
(15.3478 -1.51201 -2.55039e-14)
(30.6404 -2.41428 -1.27639e-16)
(30.3406 -1.97358 -1.24533e-16)
(30.0807 -1.63404 -1.18749e-16)
(29.9285 -1.37515 -1.13146e-16)
(29.8132 -1.15574 -1.07958e-16)
(29.7031 -0.96377 -1.04019e-16)
(29.5978 -0.796959 -1.00322e-16)
(29.4991 -0.651587 -9.67769e-17)
(29.4063 -0.52364 -9.33981e-17)
(29.3185 -0.410348 -8.98048e-17)
(29.2355 -0.309879 -8.59074e-17)
(29.1571 -0.220791 -8.09198e-17)
(29.083 -0.141717 -7.13778e-17)
(29.0131 -0.0713091 -5.03812e-17)
(28.947 -0.00825859 3.30553e-17)
(28.8843 0.0486313 3.57621e-16)
(28.8247 0.100366 7.4818e-16)
(28.7677 0.147712 9.82445e-16)
(28.7132 0.191186 9.63044e-16)
(28.6609 0.231048 8.4333e-16)
(28.6107 0.267329 7.98683e-16)
(28.5626 0.299917 1.05511e-15)
(28.5166 0.32866 1.57392e-15)
(28.4729 0.353428 2.07075e-15)
(28.4316 0.37417 2.33605e-15)
(28.3926 0.390934 2.29846e-15)
(28.3559 0.403867 1.96863e-15)
(28.3214 0.413226 1.50582e-15)
(28.2886 0.419347 9.46856e-16)
(28.2574 0.422599 5.75829e-16)
(28.2273 0.42335 3.41936e-16)
(28.1979 0.421866 -2.40472e-16)
(28.1685 0.418264 -9.22884e-16)
(28.1388 0.412535 -1.67094e-15)
(28.1083 0.40453 -2.3819e-15)
(28.0764 0.393944 -3.12872e-15)
(28.0429 0.380357 -3.96474e-15)
(28.0072 0.363203 -4.8136e-15)
(27.9687 0.341928 -5.57875e-15)
(27.9271 0.315982 -6.29678e-15)
(27.8817 0.28494 -7.00895e-15)
(27.8315 0.248406 -7.68102e-15)
(27.7756 0.206271 -8.31353e-15)
(27.7128 0.15871 -8.99385e-15)
(27.6412 0.106339 -9.80266e-15)
(27.5588 0.050302 -1.08226e-14)
(27.4629 -0.00751093 -1.21887e-14)
(27.3502 -0.0644376 -1.41133e-14)
(27.2179 -0.117102 -1.68981e-14)
(27.0488 -0.160829 -2.10148e-14)
(45.2222 -3.21317 -1.52259e-16)
(44.6805 -2.90632 -1.50568e-16)
(44.1912 -2.66594 -1.46165e-16)
(43.8395 -2.49768 -1.42071e-16)
(43.5621 -2.36967 -1.38188e-16)
(43.3169 -2.26762 -1.34776e-16)
(43.0945 -2.18724 -1.31463e-16)
(42.8928 -2.12432 -1.28194e-16)
(42.7086 -2.07441 -1.25503e-16)
(42.5387 -2.03429 -1.21966e-16)
(42.3809 -2.0019 -1.17469e-16)
(42.2339 -1.97581 -1.12292e-16)
(42.0966 -1.95485 -1.02501e-16)
(41.9681 -1.93792 -7.92544e-17)
(41.8478 -1.92398 1.21158e-17)
(41.7348 -1.91202 3.04804e-16)
(41.6281 -1.90112 6.42059e-16)
(41.527 -1.89048 8.91035e-16)
(41.4308 -1.87951 9.54833e-16)
(41.3389 -1.86785 8.59562e-16)
(41.2508 -1.85539 6.58171e-16)
(41.1662 -1.84217 5.33697e-16)
(41.0851 -1.82834 6.21025e-16)
(41.0073 -1.81416 9.07605e-16)
(40.933 -1.79988 1.2959e-15)
(40.862 -1.78578 1.60173e-15)
(40.7944 -1.77203 1.76237e-15)
(40.7299 -1.75876 1.7937e-15)
(40.6683 -1.74599 1.72152e-15)
(40.6093 -1.73371 1.64772e-15)
(40.5525 -1.72186 1.61182e-15)
(40.4973 -1.7104 1.26478e-15)
(40.4433 -1.69934 7.89381e-16)
(40.3898 -1.6887 2.39681e-16)
(40.3362 -1.67858 -3.70243e-16)
(40.2821 -1.66915 -1.0164e-15)
(40.2269 -1.66066 -1.72445e-15)
(40.17 -1.65339 -2.49522e-15)
(40.1111 -1.64765 -3.26947e-15)
(40.0496 -1.64367 -4.01311e-15)
(39.9848 -1.64167 -4.80097e-15)
(39.9162 -1.64169 -5.60812e-15)
(39.8429 -1.64363 -6.37842e-15)
(39.7639 -1.64705 -7.17451e-15)
(39.678 -1.65111 -8.02584e-15)
(39.5835 -1.65449 -8.94844e-15)
(39.4784 -1.65521 -1.00354e-14)
(39.3594 -1.65056 -1.14865e-14)
(39.2234 -1.637 -1.35067e-14)
(39.0492 -1.60934 -1.64841e-14)
(55.8769 -0.446745 -2.03821e-16)
(55.6752 -0.196349 -2.02197e-16)
(55.3835 0.00783551 -1.98147e-16)
(55.176 0.17457 -1.94227e-16)
(55.0284 0.320117 -1.90465e-16)
(54.9002 0.44938 -1.8694e-16)
(54.7814 0.562321 -1.83387e-16)
(54.6727 0.660091 -1.79755e-16)
(54.5728 0.744878 -1.76391e-16)
(54.4796 0.818469 -1.72194e-16)
(54.3916 0.881928 -1.67043e-16)
(54.3082 0.935887 -1.60638e-16)
(54.2292 0.98084 -1.48867e-16)
(54.1545 1.01731 -1.22145e-16)
(54.0837 1.04595 -1.93587e-17)
(54.0164 1.06757 2.77223e-16)
(53.9523 1.08313 5.97032e-16)
(53.8907 1.09361 8.55858e-16)
(53.8311 1.09998 9.83377e-16)
(53.7731 1.10308 9.66327e-16)
(53.7162 1.10362 7.92132e-16)
(53.6605 1.10218 5.36283e-16)
(53.6057 1.0992 2.93232e-16)
(53.5519 1.09499 1.37017e-16)
(53.4991 1.08973 1.32097e-16)
(53.4475 1.08353 1.75324e-16)
(53.397 1.07645 1.85232e-16)
(53.3477 1.06852 1.5238e-16)
(53.2993 1.05976 3.1819e-17)
(53.2518 1.05019 -1.97075e-16)
(53.2047 1.03978 -4.30815e-16)
(53.1576 1.02849 -9.89811e-16)
(53.1101 1.01623 -1.78208e-15)
(53.0618 1.00286 -2.56768e-15)
(53.0121 0.988192 -3.49356e-15)
(52.9604 0.97194 -4.5324e-15)
(52.9064 0.953741 -5.60993e-15)
(52.8495 0.933241 -6.71921e-15)
(52.7893 0.910005 -7.91033e-15)
(52.7256 0.883681 -9.10311e-15)
(52.6578 0.85396 -1.02596e-14)
(52.5855 0.820808 -1.139e-14)
(52.5083 0.784465 -1.24542e-14)
(52.4256 0.745616 -1.34402e-14)
(52.3367 0.705585 -1.43489e-14)
(52.2408 0.666547 -1.51782e-14)
(52.1366 0.631723 -1.59685e-14)
(52.0225 0.605752 -1.68395e-14)
(51.897 0.59496 -1.79445e-14)
(51.7416 0.607791 -1.96805e-14)
(75.3688 -3.66634 -2.79939e-16)
(74.7448 -3.52311 -2.79486e-16)
(74.1424 -3.40916 -2.76555e-16)
(73.6622 -3.31659 -2.73359e-16)
(73.2603 -3.23267 -2.69791e-16)
(72.8972 -3.15473 -2.66492e-16)
(72.5622 -3.08259 -2.62867e-16)
(72.2537 -3.01516 -2.58866e-16)
(71.9686 -2.95093 -2.54775e-16)
(71.7027 -2.8888 -2.49672e-16)
(71.4526 -2.82832 -2.43176e-16)
(71.2162 -2.76959 -2.34532e-16)
(70.9917 -2.71305 -2.1928e-16)
(70.7782 -2.65934 -1.87348e-16)
(70.5746 -2.60906 -7.17792e-17)
(70.3802 -2.56268 2.1482e-16)
(70.1941 -2.5204 4.93989e-16)
(70.0155 -2.48219 7.18002e-16)
(69.8437 -2.4478 8.90381e-16)
(69.6777 -2.41675 1.01927e-15)
(69.5171 -2.38847 1.08449e-15)
(69.3612 -2.3623 1.09835e-15)
(69.2098 -2.3376 1.045e-15)
(69.0624 -2.31375 9.32674e-16)
(68.9188 -2.29024 8.38074e-16)
(68.7789 -2.26667 6.90298e-16)
(68.6423 -2.24276 4.43667e-16)
(68.5089 -2.21834 1.44327e-16)
(68.3785 -2.19332 -2.46893e-16)
(68.2506 -2.16769 -7.30643e-16)
(68.1249 -2.14151 -1.22612e-15)
(68.0008 -2.11491 -1.90233e-15)
(67.8779 -2.08803 -2.73307e-15)
(67.7556 -2.06113 -3.56032e-15)
(67.6331 -2.03448 -4.37866e-15)
(67.5099 -2.00839 -5.23782e-15)
(67.3853 -1.98322 -6.10313e-15)
(67.2587 -1.95936 -6.95886e-15)
(67.1296 -1.93719 -7.81098e-15)
(66.9975 -1.91707 -8.67063e-15)
(66.862 -1.89929 -9.48323e-15)
(66.7229 -1.88397 -1.02583e-14)
(66.5802 -1.87096 -1.09459e-14)
(66.4337 -1.85971 -1.16178e-14)
(66.2837 -1.84911 -1.22626e-14)
(66.1306 -1.83729 -1.2972e-14)
(65.9749 -1.82118 -1.37562e-14)
(65.817 -1.79599 -1.45728e-14)
(65.6572 -1.7537 -1.54212e-14)
(65.4765 -1.67897 -1.63301e-14)
(77.9697 2.18759 -4.7232e-16)
(77.8096 2.31639 -4.70839e-16)
(77.566 2.36986 -4.67375e-16)
(77.4052 2.39785 -4.6282e-16)
(77.3017 2.4089 -4.57396e-16)
(77.2145 2.40519 -4.51629e-16)
(77.1349 2.39109 -4.44676e-16)
(77.0645 2.37079 -4.36333e-16)
(77.0026 2.34753 -4.26551e-16)
(76.9472 2.3237 -4.14002e-16)
(76.8965 2.30076 -3.97704e-16)
(76.8495 2.27932 -3.75505e-16)
(76.8056 2.25937 -3.41207e-16)
(76.7646 2.2404 -2.82066e-16)
(76.7261 2.22168 -1.10274e-16)
(76.6898 2.20243 2.09155e-16)
(76.6555 2.18182 4.75271e-16)
(76.6232 2.15915 6.80038e-16)
(76.5927 2.13388 8.45816e-16)
(76.5642 2.10573 1.05733e-15)
(76.538 2.07466 1.32927e-15)
(76.5143 2.04099 1.64511e-15)
(76.4933 2.00525 1.96298e-15)
(76.475 1.96811 2.24794e-15)
(76.4592 1.93024 2.47383e-15)
(76.4458 1.89227 2.6206e-15)
(76.4344 1.85482 2.6699e-15)
(76.4247 1.81838 2.62759e-15)
(76.4161 1.78334 2.5031e-15)
(76.4081 1.75 2.31761e-15)
(76.4 1.71849 2.12582e-15)
(76.3914 1.68886 1.82769e-15)
(76.3815 1.66104 1.39122e-15)
(76.3698 1.63491 9.12915e-16)
(76.3556 1.61023 4.33165e-16)
(76.3383 1.58667 -7.81596e-17)
(76.3175 1.5637 -6.3272e-16)
(76.2928 1.54059 -1.24462e-15)
(76.2641 1.5167 -1.94569e-15)
(76.2316 1.49128 -2.72798e-15)
(76.1956 1.46366 -3.55221e-15)
(76.1566 1.43335 -4.4045e-15)
(76.1151 1.40017 -5.3395e-15)
(76.0719 1.36441 -6.37594e-15)
(76.0283 1.32704 -7.39932e-15)
(75.9859 1.28991 -8.36242e-15)
(75.9473 1.25614 -9.22112e-15)
(75.9174 1.23053 -9.96656e-15)
(75.9072 1.22052 -1.05959e-14)
(75.9135 1.23445 -1.12045e-14)
(114.679 -4.66128 -6.88218e-16)
(114.014 -4.60868 -6.90659e-16)
(113.42 -4.48864 -6.89152e-16)
(112.946 -4.33843 -6.87354e-16)
(112.535 -4.19143 -6.8499e-16)
(112.16 -4.05743 -6.82194e-16)
(111.814 -3.93642 -6.77603e-16)
(111.495 -3.82678 -6.70293e-16)
(111.2 -3.72646 -6.58785e-16)
(110.922 -3.63319 -6.39695e-16)
(110.659 -3.54509 -6.10151e-16)
(110.407 -3.46074 -5.66505e-16)
(110.164 -3.37915 -5.05596e-16)
(109.929 -3.29982 -4.22034e-16)
(109.7 -3.2225 -2.37485e-16)
(109.476 -3.14725 1.54146e-17)
(109.259 -3.07451 2.35033e-16)
(109.046 -3.00483 4.15795e-16)
(108.838 -2.93882 5.41121e-16)
(108.634 -2.87707 6.51058e-16)
(108.434 -2.81997 7.43921e-16)
(108.237 -2.76744 8.20328e-16)
(108.044 -2.71902 8.92191e-16)
(107.853 -2.67418 9.34285e-16)
(107.665 -2.63239 9.67262e-16)
(107.479 -2.59311 9.90317e-16)
(107.294 -2.5557 9.95171e-16)
(107.112 -2.51952 9.85713e-16)
(106.931 -2.48398 9.37485e-16)
(106.752 -2.44863 8.59046e-16)
(106.575 -2.41321 7.49531e-16)
(106.398 -2.3775 5.61603e-16)
(106.222 -2.34131 2.72653e-16)
(106.047 -2.30445 -7.78795e-17)
(105.871 -2.26679 -4.8613e-16)
(105.695 -2.22836 -9.38325e-16)
(105.518 -2.18955 -1.41459e-15)
(105.338 -2.15098 -1.90156e-15)
(105.155 -2.11325 -2.4057e-15)
(104.969 -2.07707 -2.93599e-15)
(104.779 -2.04332 -3.46323e-15)
(104.584 -2.01287 -3.983e-15)
(104.384 -1.98658 -4.45172e-15)
(104.181 -1.9654 -4.92418e-15)
(103.974 -1.95023 -5.37233e-15)
(103.765 -1.94187 -5.78441e-15)
(103.557 -1.94115 -6.18568e-15)
(103.354 -1.94903 -6.5737e-15)
(103.159 -1.96592 -6.87436e-15)
(102.985 -1.9907 -7.09592e-15)
(91.7205 5.09129 -2.52928e-15)
(91.4165 4.58678 -2.51094e-15)
(91.0708 4.29857 -2.50755e-15)
(90.7359 4.10749 -2.51913e-15)
(90.4218 3.95495 -2.54936e-15)
(90.1312 3.82206 -2.59704e-15)
(89.8674 3.70164 -2.65845e-15)
(89.6313 3.58976 -2.73018e-15)
(89.4206 3.48464 -2.81877e-15)
(89.2309 3.38599 -2.91356e-15)
(89.0575 3.29397 -3.00753e-15)