/*--------------------------------*- C++ -*----------------------------------*\
  =========                 |
  \\      /  F ield         | OpenFOAM: The Open Source CFD Toolbox
   \\    /   O peration     | Website:  https://openfoam.org
    \\  /    A nd           | Version:  8
     \\/     M anipulation  |
\*---------------------------------------------------------------------------*/
FoamFile
{
    version     2.0;
    format      ascii;
    class       volScalarField;
    location    "900";
    object      epsilon;
}
// * * * * * * * * * * * * * * * * * * * * * * * * * * * * * * * * * * * * * //

dimensions      [0 2 -3 0 0 0 0];

internalField   nonuniform List<scalar> 
8400
(
0.104681
0.100478
0.096427
0.0925194
0.0887494
0.0851114
0.0816014
0.0782159
0.0749519
0.0718071
0.0687789
0.065865
0.0630631
0.0603707
0.0577854
0.0553047
0.052926
0.0506465
0.0484635
0.0463743
0.0443763
0.0424669
0.0406437
0.0389042
0.037246
0.0356668
0.0341641
0.0327357
0.0313794
0.0300931
0.0288745
0.0277219
0.026633
0.0256061
0.0246393
0.0237308
0.0228789
0.0220821
0.021339
0.0206484
0.0200091
0.01942
0.0188801
0.0183885
0.0179444
0.0175467
0.0171944
0.0168865
0.0166203
0.0163936
0.0130642
0.0130695
0.0130751
0.0130808
0.0130867
0.0130927
0.0130988
0.0131049
0.013111
0.0131172
0.0131234
0.0131295
0.0131356
0.0131418
0.013148
0.0131542
0.0131604
0.0131666
0.0131728
0.013179
0.0131853
0.0131916
0.0131982
0.0132051
0.0132123
0.01322
0.0132282
0.0132371
0.0132468
0.0132574
0.0132694
0.0132828
0.013298
0.0133153
0.0133351
0.013358
0.0133845
0.0134154
0.0134517
0.0134945
0.0135448
0.0136044
0.013675
0.013759
0.0138591
0.0139783
0.0141199
0.0142867
0.0144816
0.0147071
0.0124339
0.0124452
0.0124565
0.0124678
0.012479
0.01249
0.012501
0.0125118
0.0125224
0.0125329
0.0125433
0.0125535
0.0125636
0.0125735
0.0125834
0.0125932
0.0126029
0.0126125
0.0126221
0.0126316
0.0126412
0.012651
0.0126609
0.0126712
0.0126818
0.0126929
0.0127045
0.0127168
0.0127299
0.0127441
0.0127595
0.0127763
0.0127949
0.0128155
0.0128387
0.0128648
0.0128947
0.012929
0.0129689
0.0130156
0.0130707
0.0131364
0.0132155
0.0133114
0.0134284
0.0135715
0.0137462
0.0139581
0.0142131
0.0145166
0.0120994
0.0121124
0.0121255
0.0121384
0.0121512
0.0121639
0.0121764
0.0121889
0.0122012
0.0122135
0.0122256
0.0122377
0.0122497
0.0122616
0.0122734
0.0122853
0.0122971
0.0123089
0.0123207
0.0123327
0.0123448
0.0123572
0.0123698
0.0123827
0.012396
0.0124097
0.012424
0.0124389
0.0124545
0.012471
0.0124883
0.0125068
0.0125266
0.012548
0.0125714
0.0125971
0.0126257
0.012658
0.012695
0.012738
0.0127889
0.0128504
0.0129259
0.0130201
0.013139
0.01329
0.0134815
0.0137222
0.0140197
0.0143836
0.0118782
0.0118945
0.0119108
0.0119268
0.0119427
0.0119583
0.0119738
0.0119891
0.0120044
0.0120195
0.0120346
0.0120496
0.0120645
0.0120794
0.0120942
0.0121089
0.0121237
0.0121386
0.0121536
0.0121689
0.0121844
0.0122001
0.012216
0.0122322
0.0122488
0.0122657
0.0122832
0.0123013
0.0123198
0.0123389
0.0123585
0.0123789
0.0124001
0.0124223
0.0124458
0.0124706
0.0124972
0.0125263
0.0125586
0.0125955
0.012639
0.0126918
0.0127582
0.0128438
0.0129567
0.0131073
0.0133078
0.0135703
0.0139012
0.0143129
0.0116778
0.0116996
0.0117213
0.0117428
0.0117639
0.0117847
0.0118052
0.0118254
0.0118454
0.0118653
0.0118849
0.0119044
0.0119238
0.011943
0.011962
0.0119811
0.0120002
0.0120194
0.0120389
0.0120588
0.0120788
0.012099
0.0121195
0.0121402
0.0121613
0.0121829
0.012205
0.0122275
0.0122503
0.0122734
0.0122968
0.0123206
0.0123449
0.0123696
0.0123946
0.0124202
0.0124465
0.0124738
0.0125029
0.0125348
0.0125714
0.0126153
0.0126712
0.0127466
0.0128514
0.0129995
0.0132077
0.0134923
0.0138553
0.0143107
0.0114643
0.0114871
0.0115115
0.0115369
0.0115631
0.0115896
0.0116163
0.0116429
0.0116695
0.0116959
0.0117222
0.0117483
0.0117743
0.0117999
0.0118254
0.0118509
0.0118765
0.0119024
0.0119287
0.0119552
0.0119819
0.0120087
0.0120357
0.0120631
0.0120909
0.0121192
0.0121479
0.0121768
0.0122058
0.0122348
0.0122638
0.0122929
0.0123219
0.0123506
0.0123789
0.012407
0.0124348
0.0124626
0.0124907
0.01252
0.0125516
0.0125884
0.0126355
0.0127023
0.0128013
0.0129494
0.0131679
0.0134798
0.0138782
0.0143823
0.0114196
0.0114077
0.0114025
0.0114051
0.0114149
0.0114304
0.0114504
0.011474
0.0115001
0.0115284
0.0115583
0.0115893
0.011621
0.0116532
0.0116857
0.0117188
0.0117525
0.0117868
0.0118216
0.0118567
0.0118918
0.0119268
0.0119622
0.011998
0.0120344
0.012071
0.0121075
0.0121438
0.0121798
0.0122155
0.0122508
0.0122854
0.0123191
0.0123518
0.0123836
0.0124146
0.0124445
0.0124734
0.0125015
0.0125296
0.0125584
0.0125904
0.0126316
0.0126941
0.0127923
0.012947
0.0131832
0.0135302
0.013969
0.0145043
0.01197
0.0118785
0.0117942
0.0117238
0.0116679
0.0116259
0.0115958
0.0115762
0.0115662
0.0115649
0.0115716
0.0115849
0.0116034
0.0116258
0.0116517
0.0116811
0.011714
0.0117501
0.0117879
0.0118263
0.0118646
0.0119032
0.0119431
0.0119843
0.0120261
0.0120676
0.0121085
0.0121493
0.0121902
0.0122303
0.0122689
0.0123057
0.0123409
0.0123751
0.0124084
0.0124406
0.0124708
0.0124992
0.0125266
0.0125535
0.0125806
0.0126101
0.0126484
0.0127123
0.0128173
0.0129893
0.0132529
0.0136279
0.0141233
0.014729
0.0128283
0.0127339
0.012644
0.0125569
0.0124749
0.0123975
0.0123228
0.0122503
0.012182
0.0121225
0.0120754
0.0120401
0.0120124
0.0119883
0.0119677
0.0119548
0.0119541
0.0119653
0.0119831
0.0120015
0.0120195
0.0120407
0.012068
0.0120996
0.0121313
0.012161
0.0121914
0.0122254
0.0122625
0.0122991
0.0123326
0.0123638
0.0123946
0.0124253
0.012456
0.0124856
0.0125125
0.0125379
0.0125629
0.0125878
0.0126127
0.012641
0.0126809
0.012749
0.0128696
0.0130732
0.0133867
0.0138298
0.0144059
0.0150981
0.0131243
0.013076
0.0130306
0.0129876
0.0129461
0.0129052
0.0128641
0.012823
0.0127824
0.0127432
0.0127059
0.0126701
0.012635
0.0126
0.0125652
0.0125316
0.0125004
0.0124721
0.0124465
0.0124236
0.0124037
0.0123879
0.0123769
0.0123703
0.0123676
0.0123687
0.0123746
0.0123857
0.0124009
0.0124185
0.0124374
0.0124575
0.0124789
0.012501
0.0125234
0.0125456
0.0125673
0.0125888
0.0126105
0.012632
0.0126543
0.0126825
0.0127284
0.0128136
0.0129691
0.0132313
0.0136271
0.0141719
0.0148584
0.0156558
0.0131474
0.0131231
0.0130991
0.0130753
0.0130517
0.013028
0.0130042
0.0129804
0.0129568
0.0129335
0.0129106
0.0128882
0.0128659
0.0128439
0.012822
0.0128003
0.0127789
0.0127578
0.0127374
0.0127176
0.0126989
0.0126815
0.0126652
0.0126502
0.0126366
0.0126248
0.0126153
0.0126082
0.0126033
0.0126005
0.0126002
0.0126026
0.0126076
0.0126145
0.0126231
0.0126333
0.012645
0.0126581
0.0126723
0.0126876
0.0127067
0.0127375
0.0127982
0.0129197
0.0131418
0.0135062
0.014032
0.0147234
0.0155502
0.0164626
0.0131547
0.0131384
0.0131221
0.013106
0.0130898
0.0130735
0.0130571
0.0130408
0.0130245
0.0130085
0.0129927
0.012977
0.0129616
0.0129461
0.0129307
0.0129152
0.0128997
0.0128842
0.012869
0.012854
0.0128395
0.0128254
0.0128116
0.0127982
0.0127852
0.0127731
0.0127619
0.0127516
0.0127421
0.0127337
0.012727
0.012722
0.0127186
0.0127167
0.0127164
0.0127182
0.0127221
0.0127278
0.0127354
0.0127459
0.0127656
0.0128089
0.0129062
0.0131039
0.0134519
0.0139908
0.0147119
0.0155986
0.01658
0.0175902
0.0131591
0.0131473
0.0131354
0.0131234
0.0131113
0.0130991
0.0130869
0.0130746
0.0130623
0.0130501
0.0130381
0.0130262
0.0130143
0.0130024
0.0129904
0.0129783
0.0129661
0.0129538
0.0129417
0.0129298
0.012918
0.0129062
0.0128945
0.0128829
0.0128715
0.0128606
0.0128499
0.0128396
0.0128296
0.0128205
0.0128123
0.0128051
0.0127987
0.0127934
0.0127896
0.0127875
0.0127871
0.0127888
0.0127934
0.0128038
0.0128351
0.0129176
0.0131044
0.0134626
0.0140455
0.0148704
0.01586
0.0169701
0.018066
0.019095
0.0131607
0.0131505
0.0131404
0.0131302
0.0131199
0.0131096
0.0130993
0.013089
0.0130788
0.0130686
0.0130586
0.0130487
0.0130388
0.0130288
0.0130188
0.0130088
0.0129986
0.0129886
0.0129786
0.0129688
0.0129591
0.0129494
0.0129397
0.0129302
0.0129209
0.0129118
0.0129028
0.012894
0.0128855
0.0128776
0.0128702
0.0128632
0.0128567
0.012851
0.0128464
0.012843
0.0128414
0.0128428
0.0128489
0.0128684
0.0129441
0.0131401
0.0135447
0.0142383
0.0152476
0.0165088
0.0177902
0.0190528
0.0200827
0.0209379
0.0131631
0.0131555
0.0131478
0.01314
0.0131321
0.0131242
0.0131163
0.0131083
0.0131003
0.0130924
0.0130845
0.0130766
0.0130687
0.0130607
0.0130527
0.0130445
0.0130363
0.0130282
0.0130201
0.013012
0.0130039
0.0129957
0.0129874
0.0129791
0.0129709
0.0129626
0.0129542
0.0129458
0.0129375
0.0129294
0.0129214
0.0129135
0.0129062
0.0128999
0.0128949
0.0128922
0.0128933
0.0129003
0.0129157
0.0129728
0.013208
0.0137376
0.0146815
0.0160624
0.0177893
0.0195652
0.0208934
0.021931
0.0224547
0.0228695
0.0131627
0.0131545
0.0131464
0.0131383
0.0131302
0.013122
0.0131139
0.0131059
0.0130978
0.0130898
0.0130818
0.0130738
0.0130659
0.0130579
0.0130499
0.013042
0.013034
0.0130262
0.0130185
0.0130108
0.0130031
0.0129955
0.0129881
0.0129807
0.0129736
0.0129665
0.0129598
0.0129535
0.0129478
0.0129428
0.0129387
0.0129359
0.0129351
0.0129368
0.0129421
0.0129523
0.0129694
0.0129956
0.0130337
0.0132586
0.0141348
0.0157026
0.0180228
0.0206788
0.0232502
0.0248187
0.0250982
0.0249578
0.0242386
0.0242699
0.0131655
0.0131605
0.0131556
0.0131507
0.0131459
0.0131412
0.0131365
0.0131317
0.013127
0.0131223
0.0131177
0.013113
0.0131084
0.0131038
0.0130993
0.0130947
0.0130903
0.0130859
0.0130817
0.0130775
0.0130735
0.0130697
0.0130662
0.013063
0.0130601
0.0130578
0.0130563
0.0130558
0.0130565
0.0130588
0.0130632
0.0130704
0.0130813
0.0130969
0.0131186
0.0131481
0.0131875
0.0132391
0.0133059
0.0145868
0.0188052
0.0238881
0.0295638
0.0329554
0.0339864
0.0300992
0.0252697
0.0250366
0.0251375
0.0254944
0.0132093
0.0132477
0.013285
0.0133211
0.0133561
0.01339
0.0134228
0.0134546
0.0134853
0.013515
0.0135436
0.0135713
0.0136028
0.0136308
0.0136561
0.0136797
0.013702
0.0137234
0.013744
0.0137642
0.0137841
0.0138038
0.0138234
0.0138429
0.0138627
0.013883
0.0139038
0.0139252
0.0139471
0.0139697
0.013993
0.0140168
0.0140409
0.0140657
0.0140913
0.0141182
0.0141476
0.0141824
0.0142346
0.0317484
0.0765162
0.081518
0.0768668
0.0562172
0.0395555
0.0356257
0.0359288
0.0392164
0.0427916
0.0468287
0.870106
0.846957
0.820161
0.793741
0.768587
0.744743
0.722008
0.700128
0.678904
0.658218
0.638015
0.618269
0.598975
0.580164
0.561823
0.543948
0.526563
0.509705
0.493387
0.477625
0.462436
0.447846
0.433886
0.420602
0.408047
0.396275
0.385348
0.375336
0.366321
0.358405
0.351718
0.346444
0.342839
0.341267
0.342261
0.346622
0.355554
0.370931
0.395726
0.435056
0.499835
0.55227
0.546219
0.530421
0.514355
0.498622
0.515819
0.58069
0.654517
0.727927
1.14672
1.10493
1.06586
1.02921
0.994719
0.962095
0.931082
0.901561
0.873434
0.846613
0.821022
0.79659
0.773254
0.750955
0.729635
0.709244
0.689733
0.671056
0.653168
0.63603
0.619602
0.603847
0.588731
0.574221
0.560288
0.546903
0.53404
0.521673
0.509779
0.498336
0.487324
0.476723
0.466515
0.456684
0.447213
0.438089
0.429298
0.420827
0.412664
0.404776
0.39712
0.38968
0.382438
0.375373
0.368462
0.361676
0.354974
0.348295
0.341532
0.334486
1.1223
1.04706
0.978403
0.915537
0.857969
0.80522
0.75688
0.712495
0.671663
0.634032
0.599288
0.567156
0.537391
0.509777
0.484119
0.460244
0.437998
0.417241
0.397848
0.379706
0.362712
0.346774
0.331809
0.317742
0.304504
0.292033
0.280272
0.269169
0.258678
0.248753
0.239357
0.230451
0.222002
0.213979
0.206351
0.199089
0.192168
0.185564
0.179252
0.173227
0.167488
0.162018
0.156798
0.151812
0.147045
0.142482
0.138107
0.133907
0.129863
0.125955
1.12219
1.0467
0.977587
0.914346
0.856403
0.803246
0.754401
0.709441
0.667986
0.629701
0.594287
0.56148
0.531045
0.502772
0.476472
0.451978
0.429137
0.407813
0.387882
0.369231
0.351761
0.335377
0.319998
0.305546
0.291954
0.279158
0.267101
0.255731
0.244998
0.23486
0.225276
0.216209
0.207624
0.19949
0.191781
0.184469
0.177531
0.170943
0.164683
0.158733
0.153073
0.147686
0.142557
0.13767
0.133012
0.12857
0.124334
0.120294
0.11644
0.112761
1.12219
1.04723
0.978704
0.915977
0.858455
0.805608
0.756971
0.712135
0.670736
0.632454
0.597003
0.564129
0.533605
0.505227
0.478813
0.454197
0.431232
0.409781
0.389723
0.370948
0.353354
0.336851
0.321356
0.306794
0.293095
0.280197
0.268042
0.256579
0.24576
0.23554
0.225878
0.216739
0.208087
0.199891
0.192123
0.184755
0.177763
0.171125
0.164817
0.158821
0.153118
0.147691
0.142523
0.1376
0.132907
0.128432
0.124163
0.12009
0.116205
0.112498
1.12219
1.04724
0.97869
0.91589
0.858277
0.805339
0.756623
0.711724
0.670283
0.631977
0.596518
0.563649
0.533141
0.504787
0.478403
0.45382
0.430889
0.409474
0.389452
0.370712
0.353152
0.336682
0.321217
0.306683
0.293011
0.280137
0.268006
0.256565
0.245765
0.235563
0.225919
0.216795
0.208157
0.199974
0.192217
0.184859
0.177875
0.171243
0.16494
0.158948
0.153248
0.147822
0.142654
0.137729
0.133034
0.128556
0.124282
0.120202
0.116305
0.112584
1.12219
1.04728
0.97881
0.916109
0.858602
0.805771
0.757154
0.712344
0.670977
0.63273
0.597316
0.56448
0.533993
0.50565
0.479267
0.45468
0.431739
0.410308
0.390267
0.371504
0.35392
0.337424
0.321932
0.30737
0.293671
0.28077
0.268612
0.257145
0.24632
0.236094
0.226426
0.217279
0.208619
0.200414
0.192636
0.185257
0.178252
0.171599
0.165277
0.159264
0.153543
0.148097
0.142908
0.137962
0.133245
0.128745
0.12445
0.120348
0.116429
0.112684
1.12219
1.04729
0.978835
0.916144
0.858636
0.805794
0.757159
0.712325
0.670932
0.632659
0.597222
0.564364
0.533859
0.505502
0.479108
0.454513
0.431566
0.410132
0.39009
0.371327
0.353745
0.337251
0.321763
0.307206
0.293511
0.280617
0.268465
0.257005
0.246188
0.23597
0.22631
0.217171
0.208519
0.200321
0.192549
0.185176
0.178177
0.171529
0.165209
0.159199
0.15348
0.148034
0.142846
0.137899
0.133181
0.128677
0.124378
0.120271
0.116346
0.112594
1.12219
1.0473
0.978854
0.916179
0.858691
0.80587
0.757258
0.712448
0.671078
0.632828
0.597412
0.564575
0.534087
0.505744
0.479363
0.454777
0.431837
0.410407
0.390366
0.371603
0.354018
0.33752
0.322027
0.307463
0.293762
0.28086
0.268701
0.257233
0.246408
0.236182
0.226515
0.217368
0.208707
0.200501
0.19272
0.185338
0.178328
0.171669
0.165338
0.159316
0.153585
0.148126
0.142924
0.137963
0.133231
0.128713
0.124397
0.120274
0.116333
0.112563
1.12219
1.0473
0.978861
0.916193
0.85871
0.805893
0.757281
0.712469
0.671097
0.632842
0.59742
0.564575
0.53408
0.505731
0.479342
0.454749
0.431802
0.410366
0.390319
0.371551
0.353961
0.337458
0.321961
0.307394
0.29369
0.280787
0.268628
0.25716
0.246336
0.236111
0.226445
0.2173
0.208642
0.200437
0.192657
0.185275
0.178265
0.171605
0.165273
0.159249
0.153514
0.148052
0.142846
0.137881
0.133143
0.12862
0.124298
0.120168
0.116219
0.112442
1.12219
1.0473
0.978865
0.916201
0.858721
0.805908
0.757301
0.712493
0.671125
0.632876
0.597459
0.56462
0.534131
0.505786
0.479402
0.454813
0.431869
0.410435
0.390389
0.37162
0.354029
0.337525
0.322026
0.307458
0.293752
0.280847
0.268686
0.257216
0.246391
0.236164
0.226497
0.21735
0.208689
0.200481
0.192698
0.185311
0.178296
0.17163
0.165291
0.15926
0.153518
0.148047
0.142832
0.137857
0.13311
0.128576
0.124244
0.120103
0.116142
0.112353
1.12219
1.0473
0.978866
0.916202
0.858723
0.80591
0.757303
0.712497
0.671129
0.632881
0.597465
0.564628
0.53414
0.505796
0.479413
0.454824
0.43188
0.410445
0.390398
0.371628
0.354035
0.337529
0.322027
0.307457
0.293749
0.280843
0.26868
0.25721
0.246384
0.236157
0.226489
0.217341
0.208679
0.20047
0.192684
0.185295
0.178276
0.171606
0.165262
0.159225
0.153476
0.147999
0.142776
0.137794
0.133039
0.128496
0.124156
0.120005
0.116035
0.112235
1.12219
1.0473
0.978864
0.916197
0.858715
0.805899
0.757289
0.712479
0.671109
0.632858
0.597439
0.564599
0.534108
0.505762
0.479376
0.454784
0.431836
0.410399
0.390348
0.371574
0.353978
0.337469
0.321966
0.307393
0.293684
0.280777
0.268615
0.257145
0.24632
0.236095
0.226428
0.217281
0.20862
0.200411
0.192625
0.185235
0.178215
0.171542
0.165195
0.159154
0.153402
0.14792
0.142692
0.137705
0.132944
0.128396
0.124048
0.119891
0.115913
0.112105
1.12219
1.0473
0.978858
0.916186
0.8587
0.805881
0.757271
0.712464
0.671098
0.632854
0.597444
0.564613
0.534132
0.505795
0.479417
0.454833
0.431892
0.410459
0.390412
0.37164
0.354045
0.337536
0.322032
0.307459
0.293748
0.28084
0.268676
0.257204
0.246377
0.23615
0.22648
0.217331
0.208666
0.200452
0.192661
0.185264
0.178237
0.171557
0.165202
0.159152
0.15339
0.147898
0.142661
0.137664
0.132892
0.128333
0.123975
0.119806
0.115816
0.111996
1.12219
1.0473
0.978842
0.916153
0.858647
0.805807
0.757175
0.712346
0.670959
0.632694
0.597265
0.564417
0.533921
0.505571
0.479183
0.45459
0.431642
0.410203
0.390152
0.371379
0.353783
0.337274
0.321772
0.307201
0.293495
0.280592
0.268434
0.25697
0.24615
0.23593
0.226269
0.217126
0.208468
0.200261
0.192475
0.185083
0.17806
0.171383
0.16503
0.158982
0.153222
0.147731
0.142494
0.137497
0.132724
0.128164
0.123804
0.119632
0.115639
0.111814
1.12219
1.04729
0.978818
0.91612
0.858616
0.805787
0.757175
0.71237
0.67101
0.632773
0.59737
0.564546
0.53407
0.505736
0.47936
0.454776
0.431832
0.410396
0.390344
0.371566
0.353965
0.33745
0.32194
0.307361
0.293646
0.280734
0.268568
0.257094
0.246266
0.236036
0.226365
0.217213
0.208545
0.200328
0.192531
0.185128
0.178094
0.171405
0.16504
0.15898
0.153208
0.147705
0.142456
0.137445
0.13266
0.128087
0.123714
0.119529
0.115522
0.111682
1.12219
1.04725
0.978699
0.915903
0.858293
0.805358
0.756646
0.711755
0.670323
0.632028
0.596581
0.563726
0.533231
0.504888
0.478511
0.453931
0.430998
0.409576
0.389541
0.370784
0.353205
0.336714
0.321228
0.306675
0.292986
0.2801
0.267959
0.256511
0.245708
0.235503
0.225855
0.216725
0.208077
0.199879
0.1921
0.184714
0.177695
0.17102
0.164668
0.158621
0.152859
0.147366
0.142126
0.137124
0.132347
0.12778
0.123412
0.119232
0.115228
0.111392
1.12219
1.04724
0.978714
0.915991
0.858472
0.805629
0.756997
0.712168
0.67078
0.632511
0.597074
0.564216
0.533706
0.505341
0.478935
0.454322
0.431354
0.409894
0.389822
0.371027
0.353411
0.336885
0.321366
0.306782
0.293064
0.280151
0.267986
0.256515
0.24569
0.235466
0.2258
0.216654
0.207991
0.199778
0.191987
0.184589
0.177559
0.170874
0.164514
0.158459
0.152691
0.147194
0.14195
0.136947
0.132169
0.127604
0.123241
0.119068
0.115077
0.111259
1.12219
1.0467
0.977594
0.914355
0.856416
0.803263
0.754425
0.709474
0.668032
0.629762
0.594365
0.561575
0.531155
0.502895
0.476604
0.452113
0.429269
0.407936
0.38799
0.369321
0.351828
0.335422
0.32002
0.30555
0.291942
0.279136
0.267074
0.255703
0.244975
0.234843
0.225267
0.216207
0.207629
0.199498
0.191787
0.184468
0.177516
0.170909
0.164627
0.158652
0.152966
0.147553
0.142399
0.137491
0.132818
0.128368
0.124134
0.120111
0.116298
0.112701
1.1223
1.04705
0.978388
0.915522
0.857956
0.805219
0.756893
0.712523
0.671707
0.634092
0.599366
0.567251
0.537502
0.509902
0.484255
0.460387
0.438144
0.417385
0.397987
0.379837
0.362836
0.346894
0.331929
0.317869
0.304646
0.2922
0.280476
0.269422
0.258991
0.249139
0.239826
0.231013
0.222669
0.214762
0.207263
0.200149
0.193397
0.186988
0.180904
0.17513
0.169652
0.164459
0.159541
0.15489
0.150502
0.146377
0.14252
0.138949
0.135706
0.132881
1.14675
1.10495
1.06586
1.02921
0.994709
0.962074
0.931052
0.901526
0.873396
0.846578
0.820994
0.796573
0.773249
0.75096
0.729649
0.709263
0.68975
0.671064
0.653161
0.636001
0.619546
0.603761
0.588612
0.57407
0.560105
0.546689
0.533794
0.521396
0.509467
0.497984
0.486924
0.476264
0.465982
0.45606
0.446479
0.437222
0.428273
0.419618
0.411241
0.40313
0.395271
0.38765
0.380254
0.373069
0.366081
0.359276
0.352638
0.34615
0.339792
0.333537
0.20319
0.0551683
0.106436
0.166029
0.192301
0.171791
0.121654
0.0706467
0.037455
0.0227141
0.0169975
0.0146361
0.0129129
0.01277
0.0134878
0.0139353
0.0136359
0.0121051
0.0156807
0.870341
0.197794
0.0550674
0.107729
0.168369
0.194814
0.173392
0.121954
0.0701358
0.0368927
0.0224516
0.0169156
0.0145877
0.0125051
0.0121089
0.0126999
0.0132187
0.013221
0.0120633
0.0154847
0.867353
0.192521
0.0549704
0.108996
0.170677
0.197307
0.174992
0.122271
0.0696666
0.0363865
0.0222412
0.0168676
0.0145471
0.0124125
0.0118266
0.0123331
0.0128783
0.0129969
0.012006
0.0155023
0.879379
0.187368
0.054882
0.110234
0.172953
0.199784
0.176595
0.122613
0.0692436
0.0359386
0.0220833
0.0168523
0.0145374
0.0123325
0.0115708
0.0119839
0.0125429
0.0127654
0.0119365
0.0155248
0.892211
0.182337
0.0548033
0.111442
0.175195
0.202244
0.178203
0.122982
0.0688705
0.0355508
0.0219772
0.0168657
0.0145436
0.0122623
0.011338
0.0116522
0.012214
0.0125283
0.0118555
0.0155527
0.906007
0.177424
0.0547344
0.112619
0.177404
0.204689
0.17982
0.123385
0.0685529
0.0352263
0.0219228
0.016904
0.0145592
0.0121982
0.0111246
0.0113376
0.0118924
0.0122871
0.0117637
0.0155869
0.920915
0.172626
0.054675
0.113764
0.179579
0.207121
0.181451
0.123827
0.0682971
0.0349687
0.0219204
0.0169633
0.0145763
0.0121349
0.0109266
0.0110393
0.0115792
0.0120435
0.0116622
0.0156287
0.937089
0.167943
0.0546249
0.114876
0.18172
0.209539
0.183099
0.124317
0.0681108
0.0347825
0.0219705
0.0170396
0.0145896
0.0120669
0.0107397
0.0107561
0.0112752
0.0117991
0.0115522
0.0156797
0.954685
0.163372
0.0545839
0.115956
0.183825
0.211946
0.184769
0.124863
0.0680023
0.0346725
0.0220733
0.0171285
0.0145863
0.0119873
0.0105595
0.0104866
0.0109807
0.0115552
0.0114349
0.0157425
0.973848
0.15891
0.0545518
0.117002
0.185895
0.214344
0.186469
0.125473
0.0679804
0.0346438
0.0222291
0.0172256
0.014555
0.0118887
0.0103812
0.010229
0.0106961
0.0113133
0.0113118
0.0158199
0.994716
0.154557
0.0545287
0.118014
0.187929
0.216734
0.188203
0.126157
0.0680547
0.0347015
0.0224377
0.0173262
0.0144852
0.0117636
0.0102004
0.00998166
0.0104214
0.0110744
0.0111846
0.0159158
1.01743
0.150311
0.0545145
0.118992
0.189927
0.219117
0.189978
0.126927
0.0682349
0.0348512
0.0226989
0.017426
0.014366
0.0116047
0.0100132
0.00974297
0.0101566
0.0108397
0.011055
0.0160353
1.04213
0.146169
0.0545095
0.119937
0.191889
0.221497
0.191801
0.127792
0.0685309
0.0350976
0.0230122
0.0175213
0.0141869
0.0114058
0.0098166
0.00951152
0.00990153
0.01061
0.0109248
0.0161851
1.06898
0.14213
0.0545139
0.120847
0.193814
0.223875
0.19368
0.128765
0.0689533
0.0354459
0.0233767
0.0176093
0.013941
0.0111625
0.00960927
0.00928638
0.00965596
0.0103862
0.0107965
0.0163736
1.09813
0.138192
0.0545278
0.121722
0.195703
0.226253
0.195623
0.129857
0.0695126
0.0359009
0.0237914
0.0176877
0.0136232
0.0108744
0.00939207
0.00906707
0.00941961
0.010169
0.0106725
0.0166124
1.12976
0.134352
0.0545519
0.122563
0.197554
0.228635
0.197638
0.131081
0.0702197
0.0364674
0.0242555
0.0177553
0.0132265
0.0105457
0.00916824
0.00885385
0.00919235
0.0099592
0.0105562
0.0169168
1.16405
0.13061
0.0545865
0.12337
0.199367
0.231022
0.199733
0.13245
0.0710866
0.0371512
0.0247686
0.0178122
0.0127527
0.0101817
0.00894258
0.00864743
0.00897446
0.00975793
0.0104517
0.0173079
1.20126
0.126963
0.0546323
0.124142
0.201141
0.233417
0.201918
0.133979
0.072126
0.0379587
0.0253316
0.0178619
0.0120324
0.00975814
0.00871923
0.00844782
0.00876599
0.00956665
0.0103646
0.017815
1.24169
0.12341
0.0546899
0.124878
0.202874
0.235821
0.204203
0.135683
0.0733516
0.0388977
0.025947
0.0179145
0.0118462
0.00936899
0.00850425
0.00825632
0.00856777
0.00938758
0.0103023
0.0184788
1.28576
0.119949
0.05476
0.125577
0.204565
0.238236
0.206596
0.137577
0.0747773
0.0399762
0.0266188
0.017982
0.00858042
0.00899639
0.00830086
0.00807418
0.00838144
0.00922422
0.0102751
0.019357
1.33399
0.116577
0.0548435
0.126239
0.20621
0.240662
0.209108
0.139678
0.076417
0.0412022
0.0273527
0.0180903
0.00743273
0.00854297
0.00810759
0.00790156
0.0082086
0.00908104
0.010297
0.0205316
1.38698
0.113294
0.0549184
0.126853
0.207828
0.243154
0.211789
0.142002
0.0782554
0.0425633
0.0281567
0.018351
0.00895717
0.00830928
0.00792799
0.00774208
0.00805323
0.00896519
0.0103876
0.0221192
1.44546
0.110112
0.0549613
0.127408
0.209429
0.245751
0.214698
0.144594
0.0803047
0.0440454
0.029023
0.0185805
0.00516374
0.00793218
0.00775748
0.00759581
0.00791893
0.00888577
0.0105739
0.0242918
1.51016
0.107032
0.0549664
0.127895
0.21101
0.248463
0.217859
0.147478
0.0825827
0.0456614
0.02997
0.0190144
0.00826828
0.00776683
0.00760244
0.0074678
0.00781218
0.0088558
0.0108945
0.0273102
1.58169
0.104052
0.0549291
0.128306
0.212566
0.251301
0.221296
0.150684
0.085111
0.0474218
0.0309899
0.0193708
0.00579036
0.00761522
0.00746435
0.00736288
0.0077417
0.00889347
0.0114046
0.0315419
1.66043
0.101169
0.0548443
0.12863
0.21409
0.254273
0.22504
0.154248
0.0879241
0.0493568
0.0321267
0.0199187
0.00666808
0.00746429
0.00734808
0.00728792
0.00771971
0.00902433
0.0121848
0.0376428
1.74585
0.0983808
0.0547057
0.128855
0.215573
0.25739
0.229122
0.158212
0.0910527
0.0514834
0.0333839
0.0205697
0.00744123
0.00733348
0.00726189
0.00725334
0.00776403
0.00928502
0.0133573
0.0467108
1.8362
0.0956858
0.054506
0.128964
0.217
0.260661
0.233581
0.162629
0.0945469
0.0538407
0.0347962
0.0213618
0.00812786
0.00724336
0.00721903
0.00727485
0.007901
0.00973015
0.0151182
0.0598738
1.92995
0.093082
0.0542369
0.128939
0.218355
0.264093
0.238454
0.167553
0.098457
0.0564674
0.0363984
0.0223432
0.00892256
0.0072221
0.00724232
0.00737699
0.00817043
0.0104433
0.0177808
0.0778762
2.02677
0.0905678
0.053889
0.128757
0.219615
0.267689
0.243786
0.17305
0.102845
0.0594093
0.0382269
0.0235532
0.00987754
0.00731415
0.00736963
0.00760143
0.00863594
0.0115544
0.0218389
0.101353
2.12631
0.0881418
0.0534518
0.128394
0.220752
0.27145
0.249622
0.179195
0.107785
0.0627232
0.0403251
0.0250339
0.0110423
0.00758758
0.007659
0.00802106
0.00941197
0.0132855
0.027778
0.130904
2.22816
0.0858029
0.0529139
0.127818
0.22173
0.27537
0.256008
0.186074
0.113366
0.0664791
0.0427458
0.0268368
0.0124968
0.00813994
0.00819548
0.00873807
0.0106505
0.0159155
0.0361293
0.166947
2.33191
0.0835504
0.0522633
0.126997
0.222506
0.279433
0.262991
0.193784
0.119695
0.070763
0.045553
0.0290247
0.0143455
0.00909988
0.00909618
0.00988736
0.0125388
0.0197652
0.0474368
0.209674
2.43711
0.081384
0.0514872
0.125893
0.223022
0.283616
0.270618
0.202436
0.126901
0.0756812
0.0488249
0.0316712
0.0167081
0.0106215
0.0105121
0.0116418
0.0153071
0.0252022
0.062202
0.259036
2.54329
0.0793041
0.0505727
0.124462
0.223213
0.287875
0.278928
0.212153
0.135139
0.0813647
0.0526551
0.0348566
0.0197055
0.0128703
0.0126237
0.0142079
0.0192204
0.0326126
0.0808297
0.314759
2.64996
0.0773118
0.0495068
0.122659
0.222995
0.292148
0.287952
0.22307
0.144589
0.0879739
0.0571552
0.0386628
0.0234455
0.016004
0.0156273
0.0178127
0.0245593
0.0423635
0.103587
0.376379
2.75663
0.0754093
0.0482775
0.120431
0.222268
0.296349
0.297704
0.235331
0.155468
0.0957056
0.0624594
0.0431731
0.0280132
0.0201528
0.0197134
0.0226819
0.0315934
0.0547629
0.130587
0.443298
2.86278
0.0735999
0.0468743
0.117726
0.220916
0.300353
0.30817
0.249086
0.168025
0.104802
0.0687337
0.0484763
0.0334697
0.0254075
0.025042
0.029015
0.0405545
0.0700318
0.161798
0.514847
2.96788
0.0718886
0.0452893
0.114489
0.218798
0.303997
0.319299
0.264481
0.182551
0.115564
0.0761899
0.0546797
0.039861
0.0318192
0.0317255
0.0369661
0.0516177
0.0882945
0.197078
0.590352
3.0714
0.0702824
0.0435182
0.110668
0.215758
0.307064
0.330982
0.281646
0.199376
0.128363
0.0851059
0.0619278
0.0472359
0.0394113
0.0398272
0.0466388
0.0648987
0.109593
0.236221
0.669199
3.17279
0.0687904
0.0415623
0.106215
0.211615
0.309272
0.343032
0.300676
0.218871
0.14366
0.0958519
0.0704299
0.0556714
0.0482058
0.0493788
0.0580978
0.0804688
0.133919
0.279023
0.750889
3.27152
0.0674248
0.0394295
0.101092
0.206177
0.310267
0.355153
0.321597
0.24143
0.162024
0.108924
0.0804953
0.0653066
0.0582563
0.0604146
0.0713979
0.0983869
0.161267
0.325343
0.835082
3.36702
0.0662005
0.0371365
0.0952821
0.199242
0.309615
0.36691
0.344323
0.267448
0.184137
0.124985
0.0925819
0.0763859
0.0696904
0.0730162
0.0866268
0.118747
0.191691
0.37516
0.921626
3.45871
0.0651361
0.0347101
0.0887906
0.190619
0.3068
0.377681
0.368585
0.297272
0.210802
0.14491
0.107359
0.0893162
0.0827577
0.087367
0.10396
0.141734
0.22537
0.428637
1.01058
3.54598
0.0642536
0.0321886
0.0816616
0.180149
0.301235
0.386625
0.393847
0.331112
0.242907
0.169826
0.125788
0.104747
0.0978928
0.103816
0.123723
0.167694
0.262676
0.486158
1.10219
3.6282
0.0635785
0.0296226
0.0739852
0.167735
0.292291
0.392645
0.419191
0.368905
0.281353
0.201138
0.149225
0.123686
0.115798
0.122956
0.146476
0.197207
0.304232
0.548367
1.19689
3.70468
0.0631394
0.0270736
0.0659069
0.15339
0.27936
0.394385
0.443185
0.410115
0.326896
0.240495
0.179511
0.147663
0.13756
0.145729
0.173103
0.231175
0.350983
0.616173
1.29524
3.77466
0.0629669
0.0246119
0.0576311
0.137279
0.261948
0.390278
0.463769
0.453456
0.379858
0.289627
0.219018
0.178991
0.164846
0.173555
0.204932
0.270908
0.404229
0.690735
1.39782
3.83727
0.063092
0.0223121
0.0494166
0.119769
0.239816
0.378678
0.478189
0.49657
0.439699
0.349995
0.270429
0.221124
0.202166
0.208498
0.24386
0.318208
0.465648
0.773396
1.50515
3.89154
0.0635444
0.0202469
0.0415593
0.101451
0.213154
0.358124
0.483063
0.535701
0.504428
0.422209
0.335902
0.275699
0.249139
0.25343
0.292454
0.375395
0.537238
0.86555
1.61745
3.93632
0.0643493
0.0184792
0.0343611
0.0831308
0.182745
0.327743
0.47471
0.565502
0.569895
0.505498
0.418144
0.347692
0.311651
0.312016
0.353944
0.445243
0.621174
0.968427
1.7345
3.97027
0.0655251
0.017055
0.0280879
0.0657509
0.150072
0.287768
0.449846
0.579217
0.628954
0.595861
0.51747
0.440451
0.394185
0.38851
0.432021
0.530735
0.719507
1.08278
1.85535
3.99178
0.0670813
0.0159976
0.022926
0.0502494
0.117258
0.240032
0.406702
0.56962
0.671292
0.684823
0.630477
0.555261
0.50043
0.487047
0.530275
0.634556
0.833699
1.20849
1.97813
3.99895
0.0690167
0.0153041
0.0189503
0.0373713
0.086761
0.188182
0.346388
0.530959
0.684335
0.758375
0.747759
0.6892
0.631717
0.610343
0.65118
0.758274
0.963961
1.34409
2.09977
3.9895
0.0713202
0.0149462
0.0161181
0.0274993
0.0608367
0.137284
0.273945
0.461834
0.656135
0.797432
0.851597
0.832135
0.785364
0.758609
0.794665
0.90126
1.10849
1.48629
2.21592
3.96068
0.0739723
0.0148748
0.0142888
0.0205811
0.0409215
0.0926468
0.198182
0.368049
0.580577
0.781655
0.915208
0.962152
0.951345
0.934716
0.956526
1.05948
1.26266
1.62962
2.3208
3.90923
0.0769483
0.0150288
0.0132613
0.0162011
0.0272449