/*--------------------------------*- C++ -*----------------------------------*\
  =========                 |
  \\      /  F ield         | OpenFOAM: The Open Source CFD Toolbox
   \\    /   O peration     | Website:  https://openfoam.org
    \\  /    A nd           | Version:  8
     \\/     M anipulation  |
\*---------------------------------------------------------------------------*/
FoamFile
{
    version     2.0;
    format      ascii;
    class       volScalarField;
    location    "900";
    object      k;
}
// * * * * * * * * * * * * * * * * * * * * * * * * * * * * * * * * * * * * * //

dimensions      [0 2 -2 0 0 0 0];

internalField   nonuniform List<scalar> 
8400
(
0.0118229
0.0115033
0.0111911
0.0108858
0.0105872
0.010295
0.0100092
0.00972969
0.00945639
0.0091893
0.00892843
0.00867379
0.00842541
0.00818327
0.00794738
0.00771773
0.00749428
0.00727701
0.00706589
0.00686089
0.00666198
0.00646912
0.00628229
0.00610146
0.00592661
0.00575771
0.00559473
0.00543764
0.00528643
0.00514107
0.00500155
0.00486785
0.00473994
0.00461782
0.00450146
0.00439086
0.00428602
0.00418694
0.00409362
0.0040061
0.0039244
0.00384854
0.00377855
0.00371448
0.00365632
0.00360406
0.00355765
0.00351702
0.00348202
0.00345241
0.0029839
0.00298473
0.0029856
0.00298648
0.00298737
0.00298828
0.00298919
0.00299011
0.00299102
0.00299191
0.0029928
0.00299367
0.00299454
0.00299541
0.00299627
0.00299712
0.00299797
0.00299881
0.00299964
0.00300048
0.00300133
0.0030022
0.0030031
0.00300405
0.00300506
0.00300614
0.0030073
0.00300858
0.00301
0.00301159
0.00301339
0.00301543
0.00301778
0.00302047
0.00302359
0.00302721
0.00303145
0.00303641
0.00304224
0.0030491
0.00305721
0.00306679
0.00307814
0.00309162
0.00310763
0.00312657
0.00314886
0.00317493
0.00320514
0.00323979
0.00288769
0.00288944
0.00289118
0.00289291
0.00289462
0.00289631
0.00289798
0.00289962
0.00290123
0.00290281
0.00290436
0.00290589
0.00290739
0.00290888
0.00291034
0.00291179
0.00291322
0.00291464
0.00291606
0.00291748
0.00291892
0.00292039
0.0029219
0.00292345
0.00292507
0.00292676
0.00292855
0.00293046
0.00293252
0.00293474
0.00293716
0.00293984
0.0029428
0.00294611
0.00294984
0.00295408
0.00295892
0.00296451
0.00297102
0.00297865
0.00298768
0.00299847
0.00301145
0.00302718
0.0030463
0.00306956
0.00309773
0.0031315
0.00317161
0.00321863
0.002836
0.00283804
0.00284007
0.00284208
0.00284408
0.00284605
0.002848
0.00284992
0.00285183
0.00285372
0.00285559
0.00285745
0.0028593
0.00286113
0.00286295
0.00286476
0.00286658
0.00286841
0.00287025
0.00287211
0.00287401
0.00287594
0.00287791
0.00287993
0.00288202
0.00288418
0.00288643
0.00288879
0.00289125
0.00289385
0.00289661
0.00289956
0.00290273
0.00290616
0.00290991
0.00291407
0.00291871
0.00292398
0.00293003
0.00293713
0.00294558
0.00295584
0.0029685
0.00298432
0.00300429
0.00302955
0.00306126
0.00310047
0.00314794
0.00320495
0.00280177
0.00280433
0.00280688
0.00280941
0.0028119
0.00281436
0.0028168
0.00281921
0.0028216
0.00282397
0.00282632
0.00282867
0.00283099
0.00283331
0.00283562
0.00283794
0.00284027
0.00284261
0.00284498
0.00284739
0.00284983
0.0028523
0.0028548
0.00285736
0.00285998
0.00286267
0.00286543
0.00286826
0.00287117
0.00287417
0.00287727
0.00288049
0.00288385
0.00288737
0.00289108
0.00289502
0.00289928
0.00290397
0.00290923
0.00291532
0.00292258
0.00293151
0.00294285
0.00295762
0.00297718
0.00300318
0.00303738
0.00308101
0.00313463
0.00319974
0.00277072
0.00277415
0.00277759
0.00278098
0.00278433
0.00278762
0.00279087
0.00279407
0.00279722
0.00280034
0.00280342
0.00280648
0.0028095
0.00281251
0.00281553
0.00281854
0.00282157
0.00282463
0.00282772
0.00283085
0.00283399
0.00283717
0.00284039
0.00284368
0.00284703
0.00285044
0.0028539
0.00285741
0.00286098
0.00286459
0.00286826
0.00287198
0.00287575
0.00287958
0.00288348
0.00288747
0.00289159
0.00289592
0.00290058
0.00290576
0.00291181
0.00291927
0.00292904
0.00294243
0.00296117
0.00298753
0.00302401
0.003072
0.00313154
0.00320427
0.00273762
0.00274125
0.00274512
0.00274917
0.00275334
0.00275757
0.00276181
0.00276604
0.00277023
0.00277439
0.00277853
0.00278263
0.0027867
0.00279076
0.00279482
0.00279888
0.00280295
0.00280706
0.00281121
0.00281538
0.00281956
0.00282379
0.00282808
0.00283242
0.00283682
0.00284125
0.00284572
0.00285021
0.00285471
0.00285922
0.00286371
0.00286821
0.00287265
0.00287702
0.0028814
0.00288573
0.00288997
0.00289425
0.00289864
0.00290325
0.00290841
0.00291465
0.00292306
0.00293532
0.00295352
0.00298054
0.00301987
0.00307276
0.00313855
0.00321916
0.00273111
0.00272932
0.00272859
0.00272912
0.00273075
0.00273329
0.00273651
0.00274027
0.00274445
0.00274894
0.00275367
0.00275856
0.00276359
0.00276871
0.00277391
0.00277918
0.00278454
0.00278998
0.00279544
0.00280093
0.00280645
0.00281201
0.00281763
0.00282327
0.00282893
0.00283461
0.00284027
0.00284589
0.00285143
0.00285691
0.00286229
0.00286755
0.00287267
0.00287764
0.0028825
0.00288722
0.0028917
0.00289602
0.00290032
0.00290467
0.00290926
0.00291468
0.0029222
0.00293399
0.00295251
0.00298124
0.00302477
0.00308317
0.00315491
0.00323968
0.00281695
0.00280295
0.00279008
0.00277932
0.00277077
0.00276429
0.00275964
0.00275669
0.0027553
0.00275531
0.0027565
0.0027587
0.00276168
0.00276528
0.00276948
0.0027743
0.00277964
0.00278529
0.0027911
0.00279705
0.0028031
0.00280928
0.0028156
0.00282199
0.00282836
0.0028348
0.00284122
0.00284743
0.00285354
0.00285964
0.00286547
0.00287099
0.00287637
0.00288157
0.00288657
0.0028914
0.00289588
0.00290008
0.00290427
0.00290835
0.00291252
0.00291754
0.00292478
0.00293711
0.00295739
0.00298965
0.00303706
0.00310159
0.00318262
0.00327779
0.0029477
0.00293361
0.00292012
0.00290673
0.00289406
0.00288199
0.00287019
0.00285904
0.00284901
0.00284047
0.00283353
0.00282818
0.00282365
0.00281962
0.00281694
0.00281639
0.00281735
0.0028188
0.00282092
0.00282387
0.00282695
0.00283043
0.0028349
0.00283951
0.00284396
0.00284905
0.00285432
0.00285918
0.00286432
0.00286979
0.00287505
0.00287999
0.00288465
0.00288918
0.00289382
0.00289822
0.00290222
0.002906
0.00290974
0.00291345
0.00291738
0.00292232
0.00293005
0.00294367
0.00296745
0.00300569
0.00306191
0.00313736
0.00323036
0.00333748
0.00299302
0.0029858
0.00297888
0.00297226
0.0029659
0.00295966
0.00295345
0.00294728
0.00294118
0.00293519
0.0029294
0.00292383
0.00291834
0.00291293
0.00290776
0.00290289
0.00289825
0.00289389
0.00289
0.00288657
0.00288362
0.00288138
0.00287984
0.00287897
0.00287891
0.00287951
0.00288059
0.00288234
0.00288469
0.00288743
0.00289048
0.0028937
0.00289696
0.00290031
0.00290368
0.00290703
0.00291032
0.00291355
0.00291675
0.00292004
0.0029237
0.00292897
0.00293832
0.00295571
0.00298643
0.00303514
0.00310503
0.00319605
0.00330401
0.00342412
0.00299647
0.00299279
0.00298914
0.00298553
0.00298193
0.00297834
0.00297475
0.00297117
0.00296759
0.00296403
0.0029605
0.00295702
0.00295358
0.00295019
0.00294687
0.00294358
0.00294033
0.00293714
0.00293406
0.00293107
0.00292823
0.0029256
0.00292317
0.00292096
0.00291901
0.00291731
0.00291592
0.00291493
0.00291433
0.00291408
0.0029142
0.00291467
0.00291551
0.00291669
0.00291813
0.00291975
0.00292157
0.0029236
0.00292577
0.00292826
0.00293173
0.00293817
0.00295114
0.00297612
0.0030195
0.00308549
0.00317582
0.00328752
0.00341236
0.00354458
0.00299757
0.00299509
0.00299262
0.00299016
0.0029877
0.00298525
0.0029828
0.00298033
0.00297786
0.0029754
0.00297296
0.00297054
0.00296814
0.00296577
0.00296341
0.00296106
0.00295871
0.00295639
0.00295409
0.00295182
0.00294961
0.00294746
0.00294537
0.00294336
0.00294142
0.0029396
0.00293792
0.0029364
0.00293505
0.00293387
0.00293292
0.00293222
0.00293177
0.00293161
0.00293172
0.00293209
0.00293275
0.00293373
0.002935
0.00293709
0.00294124
0.00295117
0.00297243
0.00301242
0.00307835
0.00317139
0.00329003
0.00342634
0.00356585
0.00370531
0.00299824
0.00299644
0.00299462
0.0029928
0.00299098
0.00298915
0.0029873
0.00298544
0.00298357
0.00298171
0.00297986
0.00297801
0.00297617
0.00297434
0.00297252
0.00297069
0.00296886
0.00296702
0.00296518
0.00296336
0.00296155
0.00295975
0.00295798
0.00295623
0.00295452
0.00295285
0.00295125
0.00294971
0.00294824
0.00294689
0.00294567
0.0029446
0.0029437
0.002943
0.00294251
0.00294228
0.00294234
0.00294278
0.00294372
0.00294651
0.00295383
0.00297322
0.00301305
0.0030825
0.0031874
0.00331955
0.00347258
0.00363163
0.00377356
0.0039094
0.00299847
0.00299692
0.00299537
0.00299383
0.00299229
0.00299074
0.00298918
0.00298762
0.00298606
0.00298452
0.00298297
0.00298143
0.0029799
0.00297839
0.00297688
0.00297536
0.00297384
0.00297232
0.00297081
0.00296931
0.00296781
0.00296634
0.00296488
0.00296344
0.00296202
0.00296063
0.00295928
0.00295796
0.0029567
0.00295551
0.00295439
0.00295336
0.00295243
0.00295163
0.00295098
0.00295058
0.00295051
0.00295099
0.00295235
0.00295901
0.00297654
0.00302093
0.00310214
0.0032276
0.00339616
0.00357453
0.00375614
0.00391912
0.00403233
0.00415194
0.00299884
0.00299767
0.0029965
0.00299533
0.00299414
0.00299294
0.00299174
0.00299053
0.00298933
0.00298811
0.0029869
0.00298568
0.00298448
0.00298327
0.00298205
0.00298082
0.00297959
0.00297835
0.00297711
0.00297587
0.00297462
0.00297338
0.00297213
0.00297086
0.0029696
0.00296834
0.00296706
0.00296579
0.00296453
0.00296327
0.00296206
0.00296089
0.00295981
0.00295891
0.0029583
0.00295811
0.00295864
0.00296021
0.00296325
0.00298578
0.00303535
0.0031464
0.00331781
0.00354188
0.00379872
0.00399575
0.00416354
0.00427247
0.00430386
0.00443917
0.00299877
0.00299753
0.0029963
0.00299508
0.00299384
0.00299261
0.00299138
0.00299016
0.00298894
0.00298771
0.0029865
0.00298529
0.00298409
0.00298287
0.00298166
0.00298045
0.00297925
0.00297806
0.00297687
0.0029757
0.00297453
0.00297338
0.00297224
0.00297113
0.00297005
0.002969
0.00296801
0.00296707
0.00296623
0.00296551
0.00296496
0.00296464
0.00296464
0.0029651
0.00296617
0.00296814
0.00297127
0.00297598
0.00298277
0.00307869
0.00323377
0.00352518
0.00387626
0.00422984
0.00453941
0.00458809
0.00463579
0.0045646
0.00451223
0.00452454
0.0029992
0.00299845
0.0029977
0.00299696
0.00299624
0.00299552
0.00299481
0.0029941
0.00299339
0.00299268
0.00299198
0.00299128
0.00299058
0.00298988
0.00298918
0.0029885
0.00298782
0.00298715
0.00298649
0.00298585
0.00298524
0.00298466
0.00298413
0.00298365
0.00298323
0.00298291
0.00298271
0.00298266
0.00298283
0.00298327
0.00298406
0.00298534
0.00298722
0.0029899
0.00299362
0.00299865
0.00300534
0.00301408
0.00302583
0.00355846
0.00408573
0.00483026
0.00538202
0.00563726
0.00564153
0.00477745
0.00462122
0.00462395
0.00464492
0.00471017
0.00300583
0.00301163
0.00301724
0.00302267
0.00302793
0.00303302
0.00303795
0.00304272
0.00304734
0.0030518
0.00305609
0.00306023
0.00306442
0.00306851
0.00307242
0.0030761
0.00307957
0.00308287
0.003086
0.00308901
0.00309192
0.00309475
0.00309754
0.0031003
0.00310305
0.00310581
0.00310861
0.00311149
0.00311446
0.00311752
0.00312068
0.00312398
0.00312743
0.00313105
0.00313489
0.00313909
0.00314393
0.00315014
0.00316355
0.00870954
0.0101196
0.0103026
0.00899118
0.00708396
0.00594429
0.00582911
0.00601832
0.00641048
0.00677972
0.00726694
0.0488839
0.0480388
0.0470483
0.0460562
0.0450963
0.0441712
0.0432743
0.0423967
0.0415317
0.0406755
0.0398272
0.0389871
0.0381566
0.0373367
0.0365281
0.0357331
0.0349538
0.034192
0.0334491
0.0327267
0.0320266
0.0313508
0.0307017
0.0300822
0.029495
0.0289435
0.0284316
0.0279635
0.0275445
0.0271808
0.0268811
0.0266572
0.0265252
0.026508
0.0266374
0.0269601
0.0275444
0.0284952
0.0299989
0.0325918
0.0354896
0.0364603
0.0358473
0.0351171
0.0343784
0.034218
0.0360056
0.0392578
0.0422681
0.0455369
0.0589323
0.0574941
0.056132
0.0548387
0.0536065
0.0524278
0.0512944
0.0502037
0.0491532
0.048141
0.0471653
0.0462244
0.045317
0.0444415
0.0435966
0.0427811
0.0419936
0.0412328
0.0404975
0.0397865
0.0390987
0.038433
0.0377884
0.0371639
0.0365588
0.0359724
0.0354039
0.0348531
0.0343193
0.0338022
0.0333014
0.0328165
0.032347
0.0318922
0.0314516
0.0310245
0.0306102
0.030208
0.0298175
0.0294364
0.0290635
0.0286984
0.0283404
0.0279889
0.027643
0.0273014
0.0269625
0.026623
0.0262775
0.025915
0.0580943
0.0554716
0.0530213
0.0507259
0.0485765
0.0465635
0.0446796
0.042914
0.0412571
0.0397003
0.0382357
0.0368562
0.0355554
0.0343274
0.0331667
0.0320685
0.0310281
0.0300413
0.0291043
0.0282134
0.0273654
0.0265574
0.0257866
0.0250508
0.0243478
0.0236758
0.0230331
0.0224183
0.0218301
0.0212672
0.0207281
0.0202117
0.0197165
0.019241
0.0187836
0.0183428
0.0179173
0.0175057
0.017107
0.0167218
0.0163502
0.0159914
0.015645
0.0153105
0.0149873
0.0146748
0.0143726
0.0140799
0.0137961
0.0135197
0.0580901
0.0554576
0.0529904
0.0506803
0.048516
0.0464865
0.0445817
0.0427915
0.0411072
0.0395206
0.0380243
0.0366116
0.0352766
0.0340137
0.0328178
0.0316842
0.0306087
0.0295871
0.0286158
0.0276915
0.0268111
0.0259716
0.0251706
0.0244056
0.0236746
0.0229757
0.0223073
0.0216678
0.0210558
0.0204701
0.0199093
0.0193721
0.0188572
0.0183632
0.017889
0.0174333
0.016995
0.0165732
0.0161667
0.015775
0.0153974
0.0150334
0.0146823
0.014344
0.0140178
0.0137033
0.0134
0.0131074
0.0128255
0.0125547
0.05809
0.0554756
0.0530296
0.0507394
0.0485923
0.0465767
0.0446822
0.0428994
0.0412197
0.0396356
0.0381401
0.0367268
0.03539
0.0341244
0.0329251
0.0317876
0.0307078
0.0296817
0.0287058
0.0277768
0.0268916
0.0260474
0.0252416
0.0244719
0.0237363
0.0230329
0.02236
0.0217162
0.0211
0.0205102
0.0199454
0.0194042
0.0188856
0.018388
0.0179103
0.0174512
0.0170097
0.0165846
0.0161751
0.0157805
0.0154
0.0150332
0.0146796
0.0143387
0.0140102
0.0136936
0.0133884
0.0130939
0.0128095
0.0125357
0.0580897
0.0554752
0.053028
0.0507351
0.0485846
0.0465655
0.0446679
0.0428825
0.041201
0.0396156
0.0381193
0.0367058
0.0353693
0.0341043
0.0329058
0.0317694
0.0306908
0.0296662
0.0286918
0.0277644
0.0268809
0.0260383
0.0252342
0.0244661
0.023732
0.0230301
0.0223586
0.021716
0.021101
0.0205123
0.0199484
0.0194081
0.0188901
0.0183932
0.0179161
0.0174576
0.0170165
0.0165918
0.0161827
0.0157884
0.0154082
0.0150416
0.0146881
0.0143472
0.0140185
0.0137016
0.0133962
0.0131016
0.012817
0.0125422
0.0580895
0.0554757
0.0530311
0.0507419
0.0485957
0.0465813
0.0446882
0.042907
0.0412292
0.039647
0.0381533
0.0367418
0.0354068
0.0341428
0.032945
0.0318089
0.0307304
0.0297056
0.028731
0.0278033
0.0269193
0.0260763
0.0252715
0.0245028
0.023768
0.0230653
0.022393
0.0217496
0.0211337
0.0205439
0.0199789
0.0194374
0.0189183
0.0184203
0.017942
0.0174824
0.0170401
0.0166144
0.0162041
0.0158087
0.0154274
0.0150597
0.0147051
0.0143631
0.0140332
0.013715
0.013408
0.0131119
0.012826
0.0125496
0.0580892
0.0554751
0.0530307
0.0507418
0.0485958
0.0465812
0.0446876
0.0429058
0.0412271
0.0396438
0.0381491
0.0367366
0.0354006
0.0341357
0.0329371
0.0318003
0.0307213
0.0296962
0.0287214
0.0277937
0.0269098
0.0260671
0.0252627
0.0244944
0.02376
0.0230578
0.0223859
0.0217428
0.0211271
0.0205375
0.0199727
0.0194315
0.0189125
0.0184146
0.0179365
0.0174769
0.0170348
0.0166092
0.0161991
0.0158037
0.0154225
0.0150549
0.0147002
0.0143582
0.0140283
0.01371
0.0134028
0.0131062
0.0128198
0.0125429
0.0580889
0.0554742
0.0530299
0.0507416
0.0485965
0.046583
0.0446907
0.0429102
0.0412328
0.0396507
0.0381571
0.0367455
0.0354103
0.034146
0.032948
0.0318117
0.0307331
0.0297084
0.028734
0.0278066
0.0269231
0.0260807
0.0252766
0.0245085
0.0237743
0.0230721
0.0224001
0.0217568
0.0211408
0.0205507
0.0199854
0.0194436
0.0189241
0.0184255
0.0179468
0.0174865
0.0170438
0.0166175
0.0162067
0.0158107
0.0154288
0.0150604
0.014705
0.0143622
0.0140314
0.0137123
0.0134041
0.0131065
0.0128189
0.0125407
0.0580886
0.0554732
0.0530286
0.0507405
0.0485957
0.0465827
0.0446908
0.0429105
0.0412332
0.0396511
0.0381573
0.0367453
0.0354095
0.0341447
0.0329461
0.0318093
0.0307303
0.0297052
0.0287306
0.0278031
0.0269197
0.0260773
0.0252734
0.0245054
0.0237714
0.0230692
0.0223972
0.0217539
0.0211377
0.0205475
0.019982
0.01944
0.0189202
0.0184214
0.0179424
0.0174819
0.017039
0.0166125
0.0162016
0.0158055
0.0154234
0.0150549
0.0146992
0.0143561
0.014025
0.0137055
0.0133969
0.0130988
0.0128106
0.0125317
0.0580883
0.0554719
0.053027
0.050739
0.0485946
0.0465821
0.0446907
0.042911
0.0412341
0.0396523
0.0381587
0.0367469
0.0354112
0.0341464
0.0329478
0.031811
0.0307321
0.0297072
0.0287329
0.0278058
0.0269227
0.0260807
0.0252772
0.0245096
0.0237757
0.0230737
0.0224017
0.0217582
0.0211419
0.0205514
0.0199856
0.0194432
0.018923
0.0184237
0.0179443
0.0174834
0.0170401
0.0166132
0.016202
0.0158054
0.0154229
0.0150539
0.0146978
0.0143542
0.0140225
0.0137023
0.013393
0.0130941
0.012805
0.0125252
0.0580879
0.0554706
0.0530253
0.0507373
0.0485932
0.046581
0.04469
0.0429105
0.0412339
0.0396522
0.0381586
0.0367467
0.0354109
0.0341459
0.0329471
0.0318103
0.0307313
0.0297065
0.0287323
0.0278054
0.0269227
0.026081
0.0252777
0.0245104
0.0237767
0.0230747
0.0224027
0.0217591
0.0211426
0.0205518
0.0199856
0.0194428
0.0189222
0.0184226
0.0179427
0.0174815
0.0170379
0.0166108
0.0161992
0.0158023
0.0154195
0.0150501
0.0146936
0.0143495
0.0140173
0.0136965
0.0133866
0.0130871
0.0127972
0.0125166
0.0580875
0.0554694
0.0530237
0.0507355
0.0485915
0.0465794
0.0446886
0.0429092
0.0412326
0.0396508
0.0381571
0.0367449
0.0354087
0.0341433
0.0329442
0.0318071
0.030728
0.0297031
0.028729
0.0278023
0.0269197
0.0260782
0.0252752
0.0245079
0.0237743
0.0230724
0.0224003
0.0217566
0.0211398
0.0205488
0.0199823
0.0194392
0.0189183
0.0184183
0.0179383
0.0174769
0.017033
0.0166057
0.0161939
0.0157969
0.0154139
0.0150442
0.0146875
0.0143431
0.0140105
0.0136894
0.013379
0.0130789
0.0127884
0.0125071
0.0580871
0.0554682
0.053022
0.0507337
0.0485896
0.0465776
0.0446869
0.0429078
0.0412315
0.0396501
0.0381567
0.0367448
0.0354089
0.0341438
0.032945
0.0318082
0.0307295
0.0297051
0.0287315
0.0278052
0.0269231
0.0260821
0.0252794
0.0245124
0.023779
0.023077
0.0224049
0.021761
0.0211439
0.0205525
0.0199856
0.019442
0.0189205
0.0184201
0.0179396
0.0174778
0.0170335
0.0166057
0.0161935
0.015796
0.0154125
0.0150423
0.014685
0.01434
0.0140069
0.013685
0.0133738
0.0130728
0.0127815
0.0124992
0.0580868
0.055467
0.0530201
0.0507311
0.0485863
0.0465736
0.0446822
0.0429023
0.0412252
0.0396429
0.0381484
0.0367355
0.0353987
0.0341328
0.0329332
0.0317958
0.0307167
0.029692
0.0287183
0.027792
0.02691
0.0260691
0.0252665
0.0244997
0.0237664
0.0230646
0.0223925
0.0217486
0.0211315
0.0205401
0.0199731
0.0194294
0.018908
0.0184077
0.0179272
0.0174654
0.0170213
0.0165936
0.0161816
0.0157842
0.0154007
0.0150306
0.0146733
0.0143283
0.0139951
0.013673
0.0133617
0.0130604
0.0127687
0.0124859
0.0580865
0.0554659
0.0530181
0.0507287
0.0485839
0.0465718
0.0446813
0.0429025
0.0412266
0.0396455
0.0381522
0.0367404
0.0354044
0.0341393
0.0329404
0.0318036
0.030725
0.0297008
0.0287274
0.0278014
0.0269195
0.0260787
0.0252761
0.0245091
0.0237755
0.0230733
0.0224007
0.0217562
0.0211385
0.0205463
0.0199786
0.0194342
0.0189121
0.018411
0.0179299
0.0174674
0.0170226
0.0165943
0.0161815
0.0157835
0.0153993
0.0150285
0.0146705
0.0143247
0.0139906
0.0136677
0.0133554
0.0130532
0.0127603
0.0124764
0.0580863
0.0554637
0.0530128
0.0507196
0.0485707
0.0465544
0.0446598
0.0428772
0.0411978
0.0396137
0.038118
0.0367041
0.0353666
0.0341004
0.0329008
0.0317636
0.0306849
0.0296609
0.0286879
0.0277625
0.0268814
0.0260413
0.0252395
0.0244734
0.0237407
0.0230393
0.0223675
0.0217237
0.0211067
0.0205153
0.0199483
0.0194047
0.0188833
0.0183829
0.0179024
0.0174407
0.0169965
0.0165689
0.0161567
0.0157592
0.0153756
0.0150053
0.0146477
0.0143024
0.0139686
0.013646
0.0133339
0.0130318
0.012739
0.0124551
0.0580861
0.0554627
0.0530126
0.0507221
0.0485768
0.0465641
0.0446729
0.0428931
0.0412159
0.0396332
0.0381382
0.0367246
0.0353869
0.03412
0.0329195
0.0317813
0.0307014
0.0296761
0.0287017
0.0277749
0.0268922
0.0260506
0.0252473
0.0244797
0.0237455
0.0230425
0.0223692
0.0217241
0.0211057
0.020513
0.0199449
0.0194001
0.0188776
0.0183763
0.0178949
0.0174323
0.0169874
0.016559
0.0161462
0.0157481
0.0153641
0.0149934
0.0146356
0.01429
0.0139562
0.0136336
0.0133218
0.0130201
0.0127281
0.0124454
0.0580858
0.0554434
0.0529715
0.050661
0.0484986
0.0464724
0.0445712
0.0427844
0.0411027
0.0395178
0.0380222
0.0366094
0.0352735
0.0340093
0.0328123
0.031678
0.0306023
0.0295816
0.028612
0.0276899
0.0268122
0.0259756
0.0251773
0.0244146
0.0236852
0.0229871
0.0223187
0.0216783
0.0210647
0.0204768
0.0199133
0.0193733
0.0188555
0.0183588
0.0178822
0.0174244
0.0169844
0.016561
0.0161534
0.0157608
0.0153824
0.0150178
0.0146665
0.0143279
0.0140019
0.0136881
0.0133862
0.0130961
0.0128181
0.0125529
0.0580894
0.0554556
0.0530002
0.0507041
0.0485567
0.0465478
0.0446683
0.0429069
0.0412534
0.0396989
0.0382354
0.0368558
0.035554
0.0343243
0.0331621
0.0320627
0.0310219
0.0300358
0.0291006
0.0282126
0.0273684
0.0265649
0.0257989
0.0250677
0.024369
0.0237007
0.023061
0.0224485
0.021862
0.0213003
0.0207625
0.0202476
0.0197545
0.0192824
0.0188302
0.0183969
0.0179813
0.0175825
0.0171999
0.0168326
0.0164804
0.0161427
0.0158196
0.0155111
0.0152173
0.0149387
0.014676
0.0144308
0.0142063
0.0140089
0.0589302
0.0574863
0.0561213
0.0548276
0.0535965
0.0524189
0.051287
0.0501974
0.0491478
0.048136
0.0471603
0.0462191
0.0453112
0.0444352
0.0435902
0.0427747
0.0419876
0.0412276
0.0404933
0.0397835
0.0390967
0.0384317
0.0377874
0.0371627
0.0365569
0.0359692
0.0353992
0.0348463
0.03431
0.0337899
0.0332855
0.0327963
0.0323217
0.031861
0.0314134
0.0309781
0.0305546
0.0301422
0.0297402
0.0293482
0.0289658
0.0285925
0.0282279
0.0278716
0.0275231
0.0271816
0.0268464
0.0265167
0.0261913
0.0258688
0.0186618
0.00783813
0.0121279
0.016322
0.018018
0.0167372
0.0133378
0.00935005
0.00620256
0.00447807
0.00367705
0.00330927
0.003043
0.00302492
0.00314163
0.00319793
0.00311227
0.00283344
0.00341912
0.049854
0.0183307
0.00782495
0.0122202
0.0164694
0.0181706
0.0168397
0.0133616
0.00931061
0.00614815
0.00444798
0.00366484
0.00329948
0.00297896
0.00292022
0.00302113
0.00309419
0.0030587
0.00283404
0.00338423
0.0496701
0.0180045
0.00781214
0.0123103
0.0166143
0.0183217
0.0169419
0.0133867
0.00927473
0.00609947
0.00442429
0.00365736
0.00329816
0.00296437
0.00287403
0.00296294
0.003043
0.00302797
0.00282864
0.00338505
0.0500847
0.0176828
0.00780015
0.0123982
0.0167568
0.0184714
0.0170441
0.0134136
0.00924287
0.00605682
0.00440684
0.00365343
0.00329579
0.00295193
0.0028319
0.00290684
0.00299181
0.00299556
0.00282126
0.00338671
0.0505223
0.0173658
0.00778905
0.0124838
0.0168968
0.0186196
0.0171465
0.0134427
0.00921548
0.00602055
0.00439578
0.00365309
0.00329575
0.00294087
0.00279333
0.00285292
0.00294086
0.00296172
0.00281196
0.0033892
0.050988
0.0170534
0.00777888
0.0125671
0.0170344
0.0187666
0.0172495
0.0134745
0.009193
0.00599088
0.00439087
0.00365537
0.00329592
0.00293047
0.00275774
0.00280116
0.00289034
0.00292666
0.0028008
0.00339258
0.0514867
0.0167456
0.00776965
0.0126481
0.0171697
0.0189127
0.0173534
0.0135094
0.00917604
0.00596828
0.00439212
0.00365959
0.00329448
0.00291994
0.00272461
0.00275155
0.00284045
0.00289062
0.00278791
0.00339695
0.0520234
0.0164423
0.00776138
0.0127267
0.0173027
0.0190579
0.0174586
0.0135479
0.0091652
0.00595319
0.00439955
0.00366525
0.0032917
0.0029088
0.00269338
0.00270402
0.00279137
0.00285384
0.00277339
0.00340246
0.0526031
0.0161434
0.00775406
0.0128031
0.0174335
0.0192024
0.0175653
0.0135907
0.00916118
0.00594613
0.00441317
0.00367166
0.00328716
0.00289654
0.00266344
0.00265842
0.00274323
0.00281656
0.00275741
0.00340929
0.0532298
0.0158491
0.00774771
0.0128771
0.017562
0.0193462
0.0176739
0.0136382
0.00916472
0.00594768
0.00443294
0.00367818
0.0032801
0.00288251
0.00263416
0.00261459
0.00269615
0.00277898
0.00274014
0.00341773
0.0539077
0.0155592
0.00774233
0.0129489
0.0176883
0.0194894
0.0177846
0.0136912
0.00917673
0.00595844
0.00445876
0.00368392
0.00326802
0.00286559
0.0026048
0.00257225
0.00265017
0.00274131
0.00272179
0.00342811
0.0546406
0.0152738
0.00773798
0.0130184
0.0178124
0.0196323
0.0178981
0.0137506
0.00919812
0.00597895
0.00449049
0.00368802
0.00324632
0.00284418
0.00257457
0.00253115
0.00260535
0.00270375
0.00270257
0.0034409
0.0554326
0.0149928
0.00773472
0.0130858
0.0179344
0.019775
0.0180147
0.0138171
0.00922986
0.00600983
0.00452797
0.00368973
0.00320938
0.00281658
0.00254274
0.00249102
0.00256169
0.00266646
0.00268274
0.0034567
0.0562876
0.0147162
0.00773262
0.0131509
0.0180543
0.0199177
0.0181351
0.0138917
0.00927296
0.00605159
0.00457107
0.00368857
0.00315085
0.0027813
0.00250873
0.00245165
0.0025192
0.0026296
0.00266259
0.00347624
0.0572089
0.014444
0.00773171
0.0132139
0.0181721
0.0200606
0.0182597
0.0139753
0.00932843
0.0061048
0.00461968
0.00368442
0.00306485
0.00273751
0.0024723
0.00241291
0.00247788
0.00259331
0.00264242
0.0035005
0.0581997
0.0141762
0.00773202
0.0132746
0.0182877
0.0202038
0.0183892
0.0140689
0.0093973
0.00617006
0.00467376
0.00367754
0.00294563
0.00268515
0.00243358
0.00237478
0.00243771
0.00255771
0.0026226
0.0035307
0.0592628
0.0139128
0.00773354
0.013333
0.018401
0.0203474
0.018524
0.0141735
0.00948061
0.00624793
0.00473334
0.00366865
0.00278396
0.00262508
0.0023932
0.00233731
0.00239869
0.00252294
0.0026036
0.0035685
0.0604018
0.0136536
0.00773632
0.0133889
0.0185119
0.0204915
0.0186648
0.0142901
0.00957937
0.00633895
0.00479859
0.00365927
0.00258464
0.00255941
0.002352
0.0023006
0.00236082
0.00248912
0.00258597
0.00361614
0.0616212
0.0133986
0.00774042
0.0134424
0.0186204
0.0206362
0.0188121
0.0144196
0.00969454
0.0064436
0.00486969
0.00365138
0.00239664
0.00249091
0.0023109
0.00226478
0.00232414
0.00245649
0.00257048
0.00367663
0.0629276
0.0131477
0.00774593
0.0134934
0.0187263
0.0207818
0.0189665
0.014563
0.00982693
0.00656223
0.00494673
0.00364565
0.00211513
0.00242263
0.00227149
0.00223002
0.00228877
0.00242537
0.00255816
0.00375415
0.06433
0.012901
0.00775298
0.0135418
0.0188295
0.0209283
0.0191286
0.0147212
0.00997732
0.00669531
0.00503032
0.00364518
0.00190664
0.00235153
0.0022337
0.00219646
0.00225491
0.00239622
0.00255039
0.00385438
0.0658405
0.0126584
0.00776058
0.0135875
0.0189305
0.021077
0.0192992
0.0148943
0.0101461
0.00684337
0.00512166
0.00367243
0.00185613
0.00228905
0.00219764
0.00216437
0.00222292
0.00236976
0.0025491
0.00398512
0.0674744
0.0124207
0.00776581
0.013629
0.0190306
0.0212318
0.0194839
0.015086
0.0103316
0.00700314
0.00522243
0.00370859
0.00179682
0.00222649
0.00216321
0.00213397
0.0021933
0.00234699
0.00255689
0.00415706
0.0692495
0.0121885
0.00776759
0.0136659
0.0191295
0.0213931
0.0196836
0.0152975
0.0105354
0.00717521
0.00533178
0.00375841
0.00190961
0.00217419
0.00213068
0.00210568
0.00216675
0.00232927
0.00257732
0.00438517
0.0711842
0.0119618
0.00776543
0.0136975
0.0192268
0.0215615
0.0198995
0.0155302
0.0107586
0.00736046
0.00544994
0.0038061
0.00184061
0.00212976
0.00210042
0.00208012
0.00214425
0.00231852
0.0026153
0.00468949
0.0732963
0.0117404
0.00775878
0.0137228
0.0193222
0.0217373
0.020133
0.0157859
0.0110028
0.00756051
0.00557989
0.00388436
0.00194144
0.00208704
0.00207267
0.00205796
0.00212711
0.00231733
0.00267759
0.00510015
0.0755951
0.0115243
0.00774703
0.0137411
0.019415
0.021921
0.0203856
0.0160666
0.0112699
0.0077767
0.00572077
0.00396378
0.00202184
0.00205467
0.00204851
0.00204041
0.00211725
0.00232934
0.00277364
0.00566291
0.078071
0.0113134
0.00772947
0.0137512
0.0195045
0.0221129
0.0206589
0.0163747
0.0115627
0.00801162
0.00587584
0.00405326
0.00205778
0.00202705
0.00202907
0.00202913
0.00211741
0.00235964
0.00291713
0.00644074
0.0806904
0.0111077
0.00770533
0.0137518
0.0195898
0.0223133
0.0209548
0.0167131
0.011884
0.00826838
0.00604918
0.00416426
0.00215886
0.00200651
0.00201652
0.00202657
0.00213152
0.00241552
0.00312787
0.00753502
0.083377
0.0109072
0.0076737
0.0137415
0.0196693
0.0225221
0.0212748
0.0170847
0.0122374
0.00855022
0.00624387
0.00429944
0.00228147
0.00199796
0.00201468
0.00203661
0.00216542
0.00250742
0.00343443
0.00895715
0.0861192
0.010712
0.00763354
0.0137183
0.0197415
0.022739
0.021621
0.0174933
0.0126274
0.00886161
0.00646445
0.00446441
0.00243125
0.00200843
0.00202958
0.00206611
0.00222824
0.00265107
0.00388778
0.0107007
0.088905
0.0105222
0.00758369
0.01368
0.0198041
0.0229635
0.021995
0.0179427
0.0130587
0.00920735
0.00671554
0.00466446
0.00261595
0.0020488
0.00207047
0.00212598
0.0023362
0.00287276
0.00452493
0.0127586
0.0917223
0.0103376
0.00752286
0.0136241
0.0198544
0.0231943
0.0223986
0.0184373
0.0135371
0.00959319
0.00700235
0.0049049
0.00284327
0.00213457
0.00215064
0.00223117
0.00250935
0.00320282
0.00537462
0.0151138
0.0945588
0.0101585
0.00744966
0.0135477
0.0198891
0.02343
0.0228336
0.0189821
0.0140695
0.0100261
0.00733111
0.00519204
0.00312419
0.00228521
0.00228766
0.00240063
0.00277005
0.00367025
0.00645743
0.0177403
0.0974022
0.00998507
0.00736263
0.0134475
0.0199042
0.0236682
0.0233011
0.0195822
0.0146636
0.0105144
0.00770922
0.00553323
0.00347152
0.00252165
0.0025024
0.00265635
0.00314211
0.0043017
0.00778358
0.0206055
0.10024
0.00981745
0.00726027
0.0133199
0.0198948
0.0239052
0.0238017
0.0202431
0.0153282
0.0110678
0.00814513
0.00593615
0.00389701
0.00286264
0.0028167
0.00302098
0.00364816
0.00511825
0.00935227
0.0236725
0.103061
0.00965604
0.00714106
0.0131608
0.0198549
0.0241363
0.0243349
0.02097
0.0160734
0.0116975
0.00864839
0.00640803
0.0044092
0.00332129
0.00325
0.00351461
0.0043067
0.00613289
0.0111527
0.0269024
0.105851
0.00950125
0.00700351
0.0129656
0.0197773
0.0243548
0.0248987
0.0217681
0.0169101
0.0124167
0.00922973
0.00695536
0.00501238
0.00390336
0.00381598
0.00415179
0.0051299
0.00734936
0.0131661
0.0302569
0.108599
0.00935367
0.00684624
0.0127294
0.0196534
0.0245518
0.0254891
0.0226414
0.0178499
0.0132403
0.00990156
0.00758427
0.0057071
0.00460755
0.00452048
0.00493979
0.00612254
0.00876271
0.0153686
0.0337006
0.111294
0.00921401
0.00666813
0.0124471
0.0194732
0.0247159
0.0260993
0.0235924
0.0189051
0.0141855
0.0106788
0.00830179
0.00649187
0.00542754
0.00536158
0.00587854
0.00728252
0.0103612
0.0177347
0.0372022
0.113922
0.00908324
0.00646842
0.0121136
0.0192252
0.0248325
0.0267188
0.0246215
0.020088
0.015272
0.01158
0.0091176
0.00736571
0.00635491
0.00633174
0.00696237
0.00860263
0.0121294
0.0202397
0.0407366
0.116472
0.00896257