/*--------------------------------*- C++ -*----------------------------------*\
  =========                 |
  \\      /  F ield         | OpenFOAM: The Open Source CFD Toolbox
   \\    /   O peration     | Website:  https://openfoam.org
    \\  /    A nd           | Version:  8
     \\/     M anipulation  |
\*---------------------------------------------------------------------------*/
FoamFile
{
    version     2.0;
    format      ascii;
    class       volScalarField;
    location    "900";
    object      nut;
}
// * * * * * * * * * * * * * * * * * * * * * * * * * * * * * * * * * * * * * //

dimensions      [0 2 -1 0 0 0 0];

internalField   nonuniform List<scalar> 
8400
(
0.000120178
0.000118527
0.000116893
0.000115273
0.000113668
0.000112075
0.000110496
0.00010893
0.000107377
0.000105838
0.000104313
0.000102803
0.000101309
9.98321e-05
9.83722e-05
9.69302e-05
9.55066e-05
9.41021e-05
9.27175e-05
9.13536e-05
9.00114e-05
8.86915e-05
8.73948e-05
8.6122e-05
8.48743e-05
8.36525e-05
8.24576e-05
8.12908e-05
8.01534e-05
7.90468e-05
7.79717e-05
7.69296e-05
7.59221e-05
7.49503e-05
7.40153e-05
7.3119e-05
7.22631e-05
7.14491e-05
7.0678e-05
6.99519e-05
6.92728e-05
6.86414e-05
6.80595e-05
6.75291e-05
6.70507e-05
6.66243e-05
6.62491e-05
6.59255e-05
6.56546e-05
6.54351e-05
6.13381e-05
6.13472e-05
6.13565e-05
6.13658e-05
6.1375e-05
6.13841e-05
6.13933e-05
6.14022e-05
6.14105e-05
6.14184e-05
6.14259e-05
6.14332e-05
6.14401e-05
6.1447e-05
6.14535e-05
6.14595e-05
6.1465e-05
6.14702e-05
6.14754e-05
6.14808e-05
6.14864e-05
6.14925e-05
6.14989e-05
6.15058e-05
6.15134e-05
6.15218e-05
6.15312e-05
6.15423e-05
6.15555e-05
6.15709e-05
6.15889e-05
6.16102e-05
6.16356e-05
6.16655e-05
6.1701e-05
6.1743e-05
6.17931e-05
6.18526e-05
6.19228e-05
6.20056e-05
6.21038e-05
6.22201e-05
6.23579e-05
6.25212e-05
6.27141e-05
6.29394e-05
6.32e-05
6.35004e-05
6.38436e-05
6.42316e-05
6.03582e-05
6.03762e-05
6.03941e-05
6.04117e-05
6.04291e-05
6.04463e-05
6.04631e-05
6.04792e-05
6.04948e-05
6.05099e-05
6.05246e-05
6.0539e-05
6.05532e-05
6.05671e-05
6.05805e-05
6.05935e-05
6.06063e-05
6.06192e-05
6.06322e-05
6.06455e-05
6.06594e-05
6.06738e-05
6.06886e-05
6.0704e-05
6.07203e-05
6.07374e-05
6.07562e-05
6.07768e-05
6.07991e-05
6.08234e-05
6.08506e-05
6.08812e-05
6.09155e-05
6.09542e-05
6.09986e-05
6.10495e-05
6.11082e-05
6.11764e-05
6.12564e-05
6.13505e-05
6.14626e-05
6.15978e-05
6.17605e-05
6.19576e-05
6.21965e-05
6.24838e-05
6.2827e-05
6.32299e-05
6.36962e-05
6.42275e-05
5.98266e-05
5.98478e-05
5.98689e-05
5.989e-05
5.99109e-05
5.99315e-05
5.99517e-05
5.99716e-05
5.99911e-05
6.00104e-05
6.00294e-05
6.00483e-05
6.00671e-05
6.00857e-05
6.0104e-05
6.01223e-05
6.01409e-05
6.01598e-05
6.0179e-05
6.01988e-05
6.02192e-05
6.02399e-05
6.02608e-05
6.02825e-05
6.0305e-05
6.03287e-05
6.03538e-05
6.03799e-05
6.04071e-05
6.04358e-05
6.04669e-05
6.05007e-05
6.05373e-05
6.05768e-05
6.06205e-05
6.06696e-05
6.07252e-05
6.0789e-05
6.08633e-05
6.09519e-05
6.10592e-05
6.11912e-05
6.13558e-05
6.1563e-05
6.1825e-05
6.21546e-05
6.25612e-05
6.30483e-05
6.36147e-05
6.42713e-05
5.94781e-05
5.95051e-05
5.95322e-05
5.95592e-05
5.95858e-05
5.96119e-05
5.96379e-05
5.96637e-05
5.96891e-05
5.9714e-05
5.97387e-05
5.97633e-05
5.97876e-05
5.98117e-05
5.9836e-05
5.98608e-05
5.98859e-05
5.99113e-05
5.99371e-05
5.99635e-05
5.999e-05
6.00164e-05
6.00433e-05
6.00712e-05
6.01001e-05
6.013e-05
6.01603e-05
6.01909e-05
6.02221e-05
6.02547e-05
6.02889e-05
6.03246e-05
6.03618e-05
6.0401e-05
6.04423e-05
6.04863e-05
6.05354e-05
6.05906e-05
6.06537e-05
6.07297e-05
6.08226e-05
6.09396e-05
6.10931e-05
6.12965e-05
6.15685e-05
6.19289e-05
6.23924e-05
6.29565e-05
6.36158e-05
6.43791e-05
5.91651e-05
5.92016e-05
5.92382e-05
5.92746e-05
5.93104e-05
5.9346e-05
5.93812e-05
5.94157e-05
5.94492e-05
5.94821e-05
5.95146e-05
5.95467e-05
5.95783e-05
5.96101e-05
5.96426e-05
5.96756e-05
5.97087e-05
5.97422e-05
5.97761e-05
5.98099e-05
5.98433e-05
5.98771e-05
5.99121e-05
5.99484e-05
5.99855e-05
6.00228e-05
6.00598e-05
6.00968e-05
6.01343e-05
6.01729e-05
6.02123e-05
6.02519e-05
6.02916e-05
6.03317e-05
6.0373e-05
6.04157e-05
6.04604e-05
6.05084e-05
6.05619e-05
6.06239e-05
6.06995e-05
6.07984e-05
6.09359e-05
6.11309e-05
6.1407e-05
6.17931e-05
6.23137e-05
6.29504e-05
6.37004e-05
6.45712e-05
5.88359e-05
5.88747e-05
5.89163e-05
5.89599e-05
5.9005e-05
5.9051e-05
5.90969e-05
5.9142e-05
5.91864e-05
5.92304e-05
5.92739e-05
5.93167e-05
5.93595e-05
5.94031e-05
5.94475e-05
5.9492e-05
5.95366e-05
5.95816e-05
5.96263e-05
5.96704e-05
5.97146e-05
5.97602e-05
5.98073e-05
5.98551e-05
5.99026e-05
5.99496e-05
5.99962e-05
6.00429e-05
6.009e-05
6.01367e-05
6.01831e-05
6.02293e-05
6.0274e-05
6.03172e-05
6.03624e-05
6.04074e-05
6.04491e-05
6.0493e-05
6.05402e-05
6.05909e-05
6.06531e-05
6.0736e-05
6.08592e-05
6.1048e-05
6.13293e-05
6.17422e-05
6.23309e-05
6.304e-05
6.38805e-05
6.48482e-05
5.87856e-05
5.87695e-05
5.87653e-05
5.87741e-05
5.87944e-05
5.88237e-05
5.88594e-05
5.89002e-05
5.89453e-05
5.89936e-05
5.90436e-05
5.90951e-05
5.91488e-05
5.92044e-05
5.92612e-05
5.93187e-05
5.93772e-05
5.94357e-05
5.94931e-05
5.95501e-05
5.96087e-05
5.96694e-05
5.97308e-05
5.97912e-05
5.985e-05
5.99082e-05
5.99664e-05
6.00238e-05
6.00798e-05
6.01342e-05
6.0187e-05
6.02383e-05
6.02884e-05
6.03373e-05
6.03859e-05
6.04323e-05
6.04744e-05
6.05149e-05
6.05579e-05
6.06038e-05
6.06559e-05
6.07274e-05
6.0842e-05
6.10321e-05
6.13306e-05
6.17826e-05
6.24606e-05
6.32313e-05
6.41287e-05
6.51254e-05
5.96632e-05
5.95265e-05
5.9403e-05
5.92999e-05
5.92175e-05
5.91541e-05
5.91083e-05
5.90813e-05
5.90732e-05
5.90801e-05
5.90973e-05
5.91234e-05
5.91566e-05
5.91964e-05
5.92445e-05
5.93015e-05
5.93627e-05
5.94213e-05
5.94778e-05
5.95378e-05
5.9603e-05
5.96715e-05
5.97404e-05
5.98055e-05
5.98672e-05
5.99332e-05
6.00014e-05
6.00616e-05
6.01177e-05
6.01765e-05
6.0232e-05
6.02835e-05
6.03369e-05
6.03882e-05
6.04355e-05
6.04807e-05
6.05214e-05
6.05591e-05
6.06017e-05
6.06417e-05
6.06849e-05
6.07517e-05
6.08684e-05
6.10744e-05
6.14134e-05
6.19298e-05
6.26384e-05
6.35302e-05
6.45471e-05
6.56496e-05
6.09594e-05
6.08254e-05
6.06959e-05
6.05577e-05
6.04254e-05
6.02968e-05
6.01667e-05
6.00533e-05
5.99669e-05
5.99004e-05
5.98407e-05
5.97897e-05
5.97356e-05
5.96853e-05
5.9674e-05
5.97153e-05
5.97596e-05
5.9765e-05
5.97664e-05
5.97992e-05
5.98402e-05
5.98821e-05
5.99353e-05
5.9973e-05
6.00043e-05
6.0072e-05
6.01441e-05
6.01813e-05
6.02151e-05
6.02656e-05
6.03224e-05
6.0377e-05
6.04222e-05
6.04624e-05
6.05074e-05
6.05475e-05
6.05841e-05
6.0619e-05
6.06544e-05
6.06889e-05
6.07326e-05
6.08022e-05
6.09313e-05
6.11708e-05
6.15806e-05
6.21944e-05
6.3031e-05
6.40553e-05
6.51936e-05
6.63984e-05
6.1431e-05
6.13605e-05
6.12892e-05
6.1219e-05
6.11527e-05
6.10889e-05
6.10269e-05
6.09671e-05
6.09077e-05
6.08462e-05
6.07846e-05
6.07245e-05
6.06649e-05
6.06084e-05
6.05605e-05
6.05196e-05
6.04767e-05
6.04318e-05
6.03933e-05
6.03614e-05
6.03349e-05
6.03177e-05
6.03069e-05
6.03026e-05
6.03136e-05
6.03328e-05
6.03493e-05
6.03687e-05
6.03932e-05
6.0422e-05
6.04582e-05
6.04948e-05
6.05276e-05
6.05598e-05
6.05922e-05
6.06248e-05
6.0657e-05
6.06878e-05
6.07166e-05
6.07499e-05
6.07951e-05
6.08787e-05
6.10475e-05
6.13611e-05
6.18924e-05
6.26613e-05
6.36753e-05
6.48698e-05
6.61233e-05
6.74006e-05
6.14642e-05
6.14271e-05
6.13896e-05
6.13524e-05
6.13156e-05
6.12792e-05
6.12436e-05
6.12081e-05
6.1172e-05
6.11351e-05
6.10978e-05
6.10605e-05
6.10236e-05
6.09883e-05
6.09548e-05
6.09221e-05
6.08893e-05
6.08577e-05
6.08277e-05
6.0798e-05
6.07696e-05
6.07441e-05
6.0721e-05
6.0701e-05
6.06852e-05
6.06711e-05
6.06592e-05
6.06524e-05
6.06509e-05
6.06539e-05
6.06601e-05
6.06682e-05
6.06794e-05
6.06949e-05
6.07136e-05
6.07322e-05
6.07516e-05
6.07731e-05
6.07949e-05
6.08249e-05
6.08779e-05
6.09977e-05
6.12455e-05
6.17011e-05
6.24394e-05
6.34391e-05
6.46898e-05
6.60652e-05
6.73933e-05
6.86869e-05
6.14753e-05
6.145e-05
6.14245e-05
6.13992e-05
6.13741e-05
6.13497e-05
6.13256e-05
6.13011e-05
6.12757e-05
6.12499e-05
6.12239e-05
6.11979e-05
6.11722e-05
6.11472e-05
6.1123e-05
6.10991e-05
6.10758e-05
6.10532e-05
6.10304e-05
6.10073e-05
6.09848e-05
6.09632e-05
6.09423e-05
6.09229e-05
6.09045e-05
6.08866e-05
6.08704e-05
6.08568e-05
6.0846e-05
6.08372e-05
6.083e-05
6.08246e-05
6.08223e-05
6.08247e-05
6.08306e-05
6.08373e-05
6.08465e-05
6.08596e-05
6.08761e-05
6.09124e-05
6.09908e-05
6.11957e-05
6.16123e-05
6.23269e-05
6.34008e-05
6.46996e-05
6.62176e-05
6.77359e-05
6.90215e-05
7.02462e-05
6.1482e-05
6.14635e-05
6.14446e-05
6.14258e-05
6.14075e-05
6.13896e-05
6.13713e-05
6.13523e-05
6.1333e-05
6.13136e-05
6.1294e-05
6.12741e-05
6.12543e-05
6.12352e-05
6.12165e-05
6.11984e-05
6.11806e-05
6.11626e-05
6.1144e-05
6.11251e-05
6.11063e-05
6.10877e-05
6.107e-05
6.10528e-05
6.10358e-05
6.10192e-05
6.10033e-05
6.09887e-05
6.09754e-05
6.0963e-05
6.09515e-05
6.09414e-05
6.09346e-05
6.09309e-05
6.09286e-05
6.09292e-05
6.09333e-05
6.09435e-05
6.09606e-05
6.10265e-05
6.11806e-05
6.15909e-05
6.23503e-05
6.35215e-05
6.50997e-05
6.6693e-05
6.84295e-05
6.99457e-05
7.09387e-05
7.20347e-05
6.14843e-05
6.14681e-05
6.14519e-05
6.14363e-05
6.14212e-05
6.14059e-05
6.13901e-05
6.13741e-05
6.13583e-05
6.13424e-05
6.13259e-05
6.13092e-05
6.1293e-05
6.12774e-05
6.12622e-05
6.12473e-05
6.12323e-05
6.12171e-05
6.12016e-05
6.11858e-05
6.11701e-05
6.11552e-05
6.11409e-05
6.11265e-05
6.11119e-05
6.1098e-05
6.10846e-05
6.10719e-05
6.10597e-05
6.10478e-05
6.10367e-05
6.10273e-05
6.10202e-05
6.10139e-05
6.10091e-05
6.10084e-05
6.10133e-05
6.10267e-05
6.10533e-05
6.12368e-05
6.1602e-05
6.25065e-05
6.39434e-05
6.58483e-05
6.80798e-05
6.96568e-05
7.13748e-05
7.2554e-05
7.28674e-05
7.40988e-05
6.14881e-05
6.14758e-05
6.14638e-05
6.14521e-05
6.14402e-05
6.1428e-05
6.14157e-05
6.14036e-05
6.13913e-05
6.13787e-05
6.13658e-05
6.1353e-05
6.13406e-05
6.13283e-05
6.1316e-05
6.13037e-05
6.12913e-05
6.12787e-05
6.12657e-05
6.12527e-05
6.12398e-05
6.12272e-05
6.12146e-05
6.12015e-05
6.11884e-05
6.11756e-05
6.11628e-05
6.115e-05
6.11369e-05
6.11234e-05
6.11112e-05
6.11002e-05
6.10901e-05
6.10832e-05
6.10813e-05
6.10865e-05
6.11033e-05
6.11347e-05
6.11874e-05
6.18481e-05
6.27798e-05
6.48573e-05
6.74798e-05
7.0291e-05
7.30058e-05
7.34438e-05
7.46725e-05
7.49106e-05
7.42423e-05
7.75512e-05
6.14873e-05
6.14746e-05
6.14622e-05
6.14497e-05
6.1437e-05
6.14243e-05
6.1412e-05
6.13998e-05
6.13873e-05
6.13747e-05
6.13621e-05
6.13499e-05
6.13375e-05
6.1325e-05
6.13126e-05
6.13004e-05
6.12883e-05
6.1276e-05
6.12637e-05
6.12515e-05
6.12396e-05
6.12278e-05
6.12161e-05
6.12049e-05
6.11942e-05
6.11843e-05
6.11751e-05
6.11663e-05
6.11584e-05
6.11525e-05
6.11492e-05
6.1149e-05
6.1153e-05
6.11635e-05
6.11831e-05
6.12158e-05
6.12645e-05
6.13347e-05
6.14348e-05
6.43396e-05
6.6584e-05
7.12251e-05
7.50318e-05
7.78691e-05
7.97655e-05
7.63357e-05
7.70631e-05
7.51351e-05
7.55993e-05
7.59144e-05
6.14919e-05
6.14842e-05
6.14766e-05
6.1469e-05
6.14616e-05
6.14544e-05
6.14473e-05
6.14402e-05
6.14331e-05
6.1426e-05
6.14191e-05
6.1412e-05
6.14047e-05
6.13974e-05
6.13904e-05
6.13834e-05
6.13763e-05
6.13693e-05
6.13623e-05
6.13556e-05
6.13492e-05
6.13431e-05
6.13377e-05
6.13331e-05
6.13293e-05
6.13269e-05
6.13259e-05
6.13265e-05
6.13303e-05
6.13375e-05
6.13493e-05
6.13676e-05
6.13939e-05
6.14311e-05
6.14821e-05
6.15505e-05
6.16409e-05
6.17579e-05
6.19281e-05
7.81278e-05
7.98922e-05
8.79026e-05
8.81806e-05
8.67864e-05
8.42813e-05
6.82465e-05
7.60597e-05
7.6859e-05
7.72459e-05
7.83197e-05
6.15591e-05
6.16175e-05
6.16738e-05
6.17282e-05
6.1781e-05
6.1832e-05
6.18813e-05
6.19291e-05
6.19758e-05
6.2021e-05
6.20642e-05
6.21053e-05
6.21312e-05
6.21694e-05
6.22123e-05
6.22538e-05
6.2293e-05
6.23291e-05
6.2362e-05
6.23921e-05
6.24194e-05
6.24447e-05
6.24688e-05
6.24916e-05
6.25131e-05
6.25332e-05
6.2552e-05
6.25715e-05
6.25926e-05
6.26142e-05
6.26371e-05
6.2663e-05
6.26934e-05
6.27277e-05
6.27675e-05
6.28163e-05
6.28792e-05
6.29728e-05
6.32772e-05
0.000215036
0.000120453
0.000117189
9.46535e-05
8.03389e-05
8.03963e-05
8.58388e-05
9.07298e-05
9.43094e-05
9.66735e-05
0.000101492
0.000247174
0.000245225
0.000242902
0.000240514
0.000238139
0.000235784
0.000233432
0.000231063
0.000228661
0.000226223
0.000223754
0.000221262
0.000218763
0.000216253
0.000213746
0.000211264
0.000208824
0.000206429
0.00020409
0.000201818
0.000199624
0.00019752
0.00019552
0.000193637
0.00019188
0.00019026
0.000188796
0.000187502
0.000186401
0.000185521
0.000184902
0.000184602
0.000184702
0.000185311
0.000186582
0.000188725
0.000192045
0.000197012
0.000204672
0.000219742
0.000226787
0.000216637
0.000211733
0.000209247
0.0002068
0.000211339
0.000226196
0.000238863
0.000245667
0.000256378
0.000272578
0.000269248
0.000266051
0.000262973
0.000260002
0.000257127
0.000254329
0.000251605
0.000248952
0.00024637
0.000243856
0.000241407
0.000239024
0.000236704
0.000234446
0.000232247
0.000230105
0.000228018
0.000225982
0.000223994
0.000222052
0.000220153
0.000218294
0.000216474
0.000214692
0.000212946
0.000211238
0.000209569
0.00020794
0.000206353
0.00020481
0.000203311
0.000201857
0.000200445
0.000199074
0.000197738
0.000196434
0.000195157
0.000193904
0.000192662
0.000191433
0.000190217
0.000189014
0.000187824
0.000186646
0.000185479
0.000184318
0.000183152
0.000181961
0.000180704
0.000270645
0.00026449
0.000258598
0.000252945
0.000247528
0.000242337
0.000237374
0.000232626
0.000228081
0.000223728
0.000219556
0.000215557
0.000211721
0.000208038
0.000204501
0.0002011
0.000197825
0.000194667
0.000191619
0.000188671
0.000185816
0.000183048
0.000180361
0.00017775
0.000175214
0.00017275
0.00017036
0.000168044
0.000165804
0.000163641
0.000161554
0.000159541
0.000157596
0.000155714
0.000153885
0.0001521
0.000150351
0.000148631
0.000146936
0.000145277
0.000143649
0.000142053
0.000140492
0.000138967
0.000137479
0.000136029
0.000134615
0.000133241
0.000131906
0.000130606
0.000270633
0.000264449
0.000258512
0.00025282
0.000247362
0.00024213
0.000237112
0.000232296
0.000227673
0.000223231
0.000218962
0.000214855
0.000210904
0.0002071
0.000203434
0.0001999
0.000196487
0.00019319
0.000190001
0.000186912
0.000183918
0.000181012
0.000178189
0.000175446
0.000172779
0.000170188
0.000167671
0.00016523
0.000162864
0.000160574
0.000158358
0.000156215
0.000154141
0.000152131
0.000150178
0.000148278
0.000146424
0.000144611
0.000142836
0.000141097
0.000139393
0.000137726
0.000136096
0.000134506
0.000132957
0.000131448
0.000129976
0.000128539
0.000127142
0.000125804
0.000270631
0.000264487
0.0002586
0.000252958
0.000247548
0.000242357
0.000237373
0.000232585
0.000227983
0.000223555
0.000219295
0.000215194
0.000211243
0.000207436
0.000203766
0.000200223
0.000196802
0.000193494
0.000190294
0.000187195
0.00018419
0.000181273
0.000178439
0.000175684
0.000173006
0.000170402
0.000167873
0.000165419
0.000163041
0.000160737
0.000158508
0.000156351
0.000154261
0.000152236
0.000150269
0.000148353
0.000146484
0.000144657
0.000142868
0.000141115
0.000139399
0.000137719
0.000136077
0.000134476
0.000132917
0.000131402
0.000129929
0.000128491
0.000127082
0.000125717
0.000270629
0.00026448
0.000258588
0.000252939
0.000247521
0.000242322
0.000237331
0.000232537
0.000227929
0.000223498
0.000219235
0.000215132
0.00021118
0.000207373
0.000203702
0.00020016
0.000196741
0.000193437
0.000190241
0.000187147
0.000184148
0.000181238
0.000178412
0.000175664
0.000172993
0.000170397
0.000167875
0.000165427
0.000163054
0.000160754
0.000158528
0.000156372
0.000154284
0.00015226
0.000150293
0.000148378
0.00014651
0.000144684
0.000142896
0.000141145
0.000139429
0.000137751
0.000136111
0.000134509
0.000132949
0.00013143
0.000129956
0.000128523
0.00012712
0.000125752
0.000270627
0.000264475
0.000258587
0.000252947
0.000247541
0.000242356
0.000237379
0.0002326
0.000228005
0.000223586
0.000219332
0.000215236
0.00021129
0.000207487
0.000203819
0.000200279
0.000196861
0.000193558
0.000190363
0.000187271
0.000184274
0.000181367
0.000178543
0.000175798
0.000173129
0.000170534
0.000168013
0.000165565
0.00016319
0.000160887
0.000158657
0.000156496
0.000154403
0.000152373
0.0001504
0.00014848
0.000146607
0.000144775
0.000142982
0.000141227
0.000139508
0.000137826
0.000136183
0.00013458
0.000133016
0.000131492
0.00013001
0.000128569
0.000127163
0.000125789
0.000270624
0.000264466
0.000258576
0.000252936
0.000247531
0.000242348
0.000237372
0.000232592
0.000227997
0.000223576
0.000219319
0.000215219
0.000211269
0.000207461
0.000203788
0.000200244
0.000196822
0.000193517
0.000190322
0.000187231
0.000184236
0.000181332
0.000178511
0.000175771
0.000173106
0.000170515
0.000167997
0.000165551
0.000163176
0.000160873
0.00015864
0.000156478
0.000154382
0.00015235
0.000150375
0.000148452
0.000146577
0.000144744
0.000142951
0.000141196
0.000139477
0.000137795
0.000136152
0.000134549
0.000132988
0.000131466
0.000129983
0.00012854
0.000127132
0.000125756
0.000270622
0.000264457
0.000258563
0.000252924
0.000247523
0.000242344
0.000237374
0.0002326
0.00022801
0.000223594
0.000219341
0.000215244
0.000211295
0.000207487
0.000203815
0.000200271
0.00019685
0.000193547
0.000190354
0.000187266
0.000184276
0.000181376
0.000178561
0.000175826
0.000173166
0.000170579
0.000168063
0.000165617
0.000163241
0.000160935
0.000158699
0.000156532
0.000154431
0.000152394
0.000150414
0.000148486
0.000146607
0.00014477
0.000142975
0.000141217
0.000139496
0.000137812
0.000136167
0.000134561
0.000132997
0.000131474
0.000129989
0.000128541
0.000127127
0.000125745
0.000270619
0.000264446
0.000258548
0.000252909
0.000247509
0.000242334
0.000237368
0.000232597
0.000228009
0.000223593
0.00021934
0.000215241
0.000211289
0.000207477
0.000203801
0.000200253
0.000196829
0.000193524
0.000190332
0.000187246
0.000184258
0.000181363
0.000178552
0.000175822
0.000173166
0.000170581
0.000168066
0.00016562
0.000163242
0.000160933
0.000158693
0.000156521
0.000154416
0.000152374
0.000150389
0.000148458
0.000146576
0.000144738
0.000142941
0.000141183
0.000139462
0.000137779
0.000136133
0.000134528
0.000132963
0.000131439
0.000129953
0.000128503
0.000127087
0.000125701
0.000270615
0.000264434
0.000258532
0.000252892
0.000247495
0.000242323
0.000237361
0.000232594
0.000228009
0.000223595
0.000219342
0.000215242
0.000211289
0.000207475
0.000203796
0.000200247
0.000196823
0.000193519
0.000190329
0.000187246
0.000184264
0.000181374
0.00017857
0.000175844
0.000173193
0.000170611
0.000168097
0.00016565
0.00016327
0.000160958
0.000158714
0.000156537
0.000154427
0.000152379
0.00015039
0.000148455
0.00014657
0.00014473
0.000142931
0.000141172
0.00013945
0.000137766
0.00013612
0.000134514
0.000132948
0.000131422
0.000129933
0.000128481
0.00012706
0.000125669
0.000270612
0.000264421
0.000258515
0.000252875
0.00024748
0.000242311
0.000237352
0.000232588
0.000228005
0.000223592
0.000219339
0.000215238
0.000211282
0.000207465
0.000203783
0.000200232
0.000196807
0.000193504
0.000190317
0.000187238
0.000184261
0.000181376
0.000178577
0.000175857
0.000173208
0.000170629
0.000168115
0.000165667
0.000163285
0.000160968
0.000158719
0.000156537
0.000154421
0.000152368
0.000150374
0.000148436
0.000146548
0.000144707
0.000142908
0.000141148
0.000139425
0.000137741
0.000136095
0.000134488
0.000132921
0.000131393
0.000129903
0.000128447
0.000127023
0.000125628
0.000270608
0.000264409
0.000258499
0.000252859
0.000247465
0.000242298
0.000237341
0.000232579
0.000227997
0.000223584
0.00021933
0.000215227
0.000211268
0.000207448
0.000203763
0.00020021
0.000196784
0.000193482
0.000190297
0.000187222
0.000184249
0.000181369
0.000178575
0.000175858
0.000173213
0.000170634
0.00016812
0.000165671
0.000163285
0.000160964
0.00015871
0.000156523
0.000154401
0.000152343
0.000150345
0.000148404
0.000146515
0.000144673
0.000142873
0.000141113
0.000139391
0.000137707
0.000136061
0.000134455
0.000132888
0.000131359
0.000129867
0.000128409
0.000126982
0.000125583
0.000270604
0.000264398
0.000258485
0.000252843
0.00024745
0.000242285
0.00023733
0.00023257
0.00022799
0.000223578
0.000219324
0.00021522
0.00021126
0.00020744
0.000203755
0.000200202
0.000196779
0.000193479
0.000190298
0.000187229
0.000184261
0.000181387
0.000178598
0.000175885
0.000173242
0.000170665
0.000168151
0.000165699
0.00016331
0.000160985
0.000158725
0.000156531
0.000154404
0.000152341
0.00015034
0.000148396
0.000146505
0.000144661
0.00014286
0.000141099
0.000139377
0.000137692
0.000136046
0.000134438
0.000132869
0.000131338
0.000129844
0.000128382
0.000126951
0.000125546
0.000270601
0.000264388
0.000258471
0.000252827
0.000247432
0.000242266
0.00023731
0.000232549
0.000227967
0.000223552
0.000219295
0.000215187
0.000211222
0.000207397
0.000203709
0.000200154
0.000196729
0.00019343
0.00019025
0.000187183
0.000184218
0.000181348
0.000178561
0.00017585
0.000173208
0.000170631
0.000168116
0.000165662
0.000163269
0.000160939
0.000158675
0.000156477
0.000154346
0.00015228
0.000150277
0.000148332
0.00014644
0.000144597
0.000142797
0.000141038
0.000139317
0.000137634
0.000135989
0.000134382
0.000132813
0.000131283
0.000129787
0.000128324
0.000126891
0.000125484
0.000270599
0.00026438
0.000258458
0.000252812
0.000247417
0.000242253
0.0002373
0.000232543
0.000227965
0.000223554
0.000219299
0.000215194
0.000211232
0.000207409
0.000203723
0.00020017
0.000196748
0.000193453
0.000190278
0.000187215
0.000184254
0.000181387
0.000178602
0.000175893
0.000173252
0.000170674
0.000168156
0.000165698
0.0001633
0.000160965
0.000158695
0.000156492
0.000154356
0.000152285
0.000150278
0.00014833
0.000146436
0.00014459
0.000142788
0.000141027
0.000139305
0.00013762
0.000135973
0.000134364
0.000132793
0.000131259
0.00012976
0.000128292
0.000126854
0.00012544
0.000270596
0.000264369
0.000258437
0.000252781
0.000247375
0.0002422
0.000237237
0.000232469
0.00022788
0.000223459
0.000219196
0.000215082
0.000211113
0.000207284
0.000203593
0.000200038
0.000196615
0.00019332
0.000190146
0.000187085
0.000184127
0.000181262
0.00017848
0.000175773
0.000173134
0.000170556
0.000168038
0.000165578
0.000163179
0.000160843
0.000158572
0.000156368
0.000154231
0.000152161
0.000150155
0.000148208
0.000146315
0.000144471
0.000142672
0.000140913
0.000139193
0.00013751
0.000135866
0.000134259
0.00013269
0.000131157
0.000129658
0.000128191
0.000126752
0.000125337
0.000270595
0.000264363
0.000258431
0.000252781
0.000247385
0.000242221
0.000237267
0.000232507
0.000227925
0.000223508
0.000219248
0.000215135
0.000211166
0.000207337
0.000203645
0.000200088
0.000196664
0.000193368
0.000190192
0.000187129
0.000184168
0.0001813
0.000178514
0.000175803
0.000173157
0.000170573
0.000168048
0.000165581
0.000163175
0.000160833
0.000158555
0.000156345
0.000154203
0.000152128
0.000150117
0.000148165
0.000146269
0.000144422
0.00014262
0.000140859
0.000139137
0.000137454
0.000135809
0.000134201
0.000132632
0.0001311
0.000129602
0.000128137
0.000126702
0.000125293
0.000270593
0.000264313
0.000258327
0.000252625
0.000247182
0.000241978
0.000236993
0.000232208
0.000227608
0.000223178
0.000218909
0.000214793
0.000210823
0.000206996
0.000203309
0.000199761
0.000196346
0.00019306
0.000189896
0.000186845
0.000183898
0.000181043
0.000178271
0.000175574
0.000172942
0.000170371
0.00016786
0.000165408
0.000163017
0.00016069
0.000158428
0.000156235
0.00015411
0.000152052
0.00015006
0.000148129
0.000146253
0.000144428
0.000142649
0.000140913
0.000139219
0.000137565
0.000135952
0.00013438
0.00013285
0.000131363
0.000129917
0.000128513
0.000127151
0.000125835
0.0002706
0.000264341
0.000258396
0.000252732
0.00024733
0.000242173
0.00023725
0.00023254
0.000228025
0.000223691
0.000219524
0.000215516
0.00021166
0.000207951
0.000204386
0.000200964
0.00019768
0.000194529
0.000191503
0.000188595
0.000185794
0.000183088
0.000180467
0.00017792
0.000175438
0.000173015
0.000170648
0.000168339
0.000166088
0.000163898
0.000161774
0.000159717
0.000157731
0.000155815
0.000153969
0.000152186
0.000150464
0.000148796
0.000147178
0.000145608
0.000144084
0.000142606
0.000141177
0.000139799
0.000138476
0.000137213
0.000136014
0.000134887
0.000133845
0.000132919
0.000272552
0.000269171
0.00026595
0.000262869
0.000259908
0.000257045
0.000254263
0.000251552
0.000248908
0.000246329
0.000243812
0.000241357
0.000238965
0.000236636
0.000234372
0.000232172
0.000230035
0.000227958
0.000225938
0.00022397
0.000222049
0.000220169
0.000218327
0.000216517
0.000214739
0.000212993
0.000211279
0.000209598
0.000207954
0.000206348
0.000204782
0.000203257
0.000201773
0.000200326
0.000198916
0.000197538
0.000196189
0.000194867
0.000193568
0.000192292
0.000191038
0.000189805
0.000188594
0.000187404
0.000186234
0.000185082
0.000183944
0.000182817
0.000181695
0.000180572
0.000154258
0.000100225
0.000124373
0.000144413
0.00015194
0.00014676
0.000131609
0.000111373
9.2443e-05
7.94561e-05
7.15907e-05
6.73414e-05
6.45391e-05
6.44882e-05
6.58583e-05
6.60487e-05
6.39312e-05
5.96899e-05
6.70973e-05
0.000257011
0.000152893
0.000100072
0.000124756
0.000144989
0.000152533
0.000147191
0.000131754
0.000111239
9.22125e-05
7.93089e-05
7.14604e-05
6.71658e-05
6.38681e-05
6.33827e-05
6.46816e-05
6.51849e-05
6.36871e-05
5.99223e-05
6.6567e-05
0.000255999
0.00015154
9.99204e-05
0.000125133
0.000145557
0.000153121
0.000147621
0.000131906
0.000111127
9.20207e-05
7.92082e-05
7.13714e-05
6.72991e-05
6.37157e-05
6.28584e-05
6.40643e-05
6.4712e-05
6.349e-05
5.9979e-05
6.65239e-05
0.00025673
0.000150193
9.97742e-05
0.000125501
0.000146116
0.000153702
0.000148051
0.000132068
0.000111039
9.18693e-05
7.91468e-05
7.12827e-05
6.7247e-05
6.35921e-05
6.23787e-05
6.34584e-05
6.4226e-05
6.32651e-05
6.00139e-05
6.64924e-05
0.000257479
0.000148853
9.96335e-05
0.000125861
0.000146666
0.000154279
0.000148483
0.000132244
0.00011098
9.17623e-05
7.91301e-05
7.12131e-05
6.72168e-05
6.34779e-05
6.19371e-05
6.28654e-05
6.37285e-05
6.30141e-05
6.00263e-05
6.64708e-05
0.000258254
0.000147521
9.94985e-05
0.000126213
0.000147208
0.000154853
0.000148921
0.000132435
0.000110951
9.16976e-05
7.91493e-05
7.11401e-05
6.71519e-05
6.33606e-05
6.15271e-05
6.2287e-05
6.32222e-05
6.27387e-05
6.00155e-05
6.64574e-05
0.000259067
0.000146196
9.93703e-05
0.000126557
0.000147744
0.000155427
0.000149367
0.000132647
0.000110956
9.16773e-05
7.9203e-05
7.10554e-05
6.70144e-05
6.32345e-05
6.11457e-05
6.17243e-05
6.27101e-05
6.2441e-05
5.99815e-05
6.64508e-05
0.000259932
0.000144878
9.92497e-05
0.000126895
0.000148275
0.000156001
0.000149822
0.000132879
0.000110997
9.17024e-05
7.92902e-05
7.09561e-05
6.68408e-05
6.31067e-05
6.07914e-05
6.11794e-05
6.21948e-05
6.21232e-05
5.99239e-05
6.64491e-05
0.000260858
0.000143568
9.91372e-05
0.000127227
0.000148801
0.000156576
0.000150288
0.000133135
0.000111076
9.17755e-05
7.94104e-05
7.08352e-05
6.66713e-05
6.29915e-05
6.04626e-05
6.06537e-05
6.16791e-05
6.17876e-05
5.98429e-05
6.64505e-05
0.000261855
0.000142266
9.9033e-05
0.000127552
0.000149322
0.000157153
0.000150765
0.000133416
0.000111198
9.18994e-05
7.95617e-05
7.06864e-05
6.65281e-05
6.28999e-05
6.01561e-05
6.01474e-05
6.11653e-05
6.14365e-05
5.97387e-05
6.64529e-05
0.000262933
0.000140971
9.89376e-05
0.000127872
0.000149838
0.00015773
0.000151254
0.000133726
0.000111368
9.20786e-05
7.97429e-05
7.0495e-05
6.63567e-05
6.28247e-05
5.98649e-05
5.96579e-05
6.06548e-05
6.10718e-05
5.96116e-05
6.64543e-05
0.000264101
0.000139684
9.8852e-05
0.000128186
0.000150349
0.00015831
0.000151758
0.00013407
0.000111592
9.23157e-05
7.9951e-05
7.02477e-05
6.60222e-05
6.27367e-05
5.95771e-05
5.91818e-05
6.01486e-05
6.06958e-05
5.94621e-05
6.64522e-05
0.00026537
0.000138405
9.87779e-05
0.000128496
0.000150857
0.000158894
0.000152281
0.000134453
0.000111878
9.26166e-05
8.01846e-05
6.99303e-05
6.53429e-05
6.25983e-05
5.92769e-05
5.87148e-05
5.96476e-05
6.03109e-05
5.92906e-05
6.64433e-05
0.000266747
0.000137134
9.87162e-05
0.000128801
0.000151362
0.000159484
0.000152825
0.000134882
0.000112234
9.29854e-05
8.04443e-05
6.95372e-05
6.40918e-05
6.23704e-05
5.8947e-05
5.82523e-05
5.91524e-05
5.99188e-05
5.90974e-05
6.64231e-05
0.000268236
0.000135873
9.86678e-05
0.000129102
0.000151864
0.00016008
0.000153395
0.000135363
0.000112667
9.34288e-05
8.0732e-05
6.90731e-05
6.20561e-05
6.20224e-05
5.8571e-05
5.77908e-05
5.86637e-05
5.95212e-05
5.88815e-05
6.63849e-05
0.000269836
0.000134622
9.86321e-05
0.000129397
0.000152362
0.000160682
0.000153992
0.000135902
0.000113185
9.39543e-05
8.10521e-05
6.85534e-05
5.90406e-05
6.15328e-05
5.81364e-05
5.73266e-05
5.81809e-05
5.91183e-05
5.86411e-05
6.63202e-05
0.000271541
0.00013338
9.86084e-05
0.000129684
0.000152853
0.00016129
0.00015462
0.000136504
0.000113796
9.45674e-05
8.14097e-05
6.80043e-05
5.46976e-05
6.09125e-05
5.76417e-05
5.68577e-05
5.7701e-05
5.8708e-05
5.8372e-05
6.6217e-05
0.000273342
0.000132147
9.85966e-05
0.000129962
0.000153336
0.000161904
0.00015528
0.000137175
0.000114505
9.52721e-05
8.18101e-05
6.74689e-05
4.99677e-05
6.04164e-05
5.71006e-05
5.63873e-05
5.72227e-05
5.82876e-05
5.80683e-05
6.60611e-05
0.000275226
0.000130921
9.85971e-05
0.000130231
0.000153812
0.000162525
0.000155976
0.000137919
0.000115315
9.60673e-05
8.2254e-05
6.69809e-05
4.36383e-05
5.96026e-05
5.65158e-05
5.59126e-05
5.67414e-05
5.78522e-05
5.77217e-05
6.58368e-05
0.000277181
0.000129702
9.86113e-05
0.000130489
0.000154281
0.000163156
0.00015671
0.000138739
0.000116227
9.69491e-05
8.27353e-05
6.65205e-05
4.69253e-05
5.87149e-05
5.59424e-05
5.54322e-05
5.62508e-05
5.73941e-05
5.73206e-05
6.55281e-05
0.000279202
0.000128491
9.86403e-05
0.000130738
0.000154743
0.000163796
0.000157485
0.000139637
0.000117241
9.79181e-05
8.32596e-05
6.61049e-05
4.4018e-05
5.82553e-05
5.53861e-05
5.49509e-05
5.57481e-05
5.69061e-05
5.68521e-05
6.51224e-05
0.000281293
0.00012729
9.86991e-05
0.000130984
0.000155189
0.000164428
0.000158278
0.0001406
0.000118394
9.90256e-05
8.38461e-05
6.61441e-05
3.46167e-05
5.67534e-05
5.4827e-05
5.44562e-05
5.52231e-05
5.63758e-05
5.62993e-05
6.46184e-05
0.000283474
0.000126096
9.87551e-05
0.000131213
0.000155636
0.000165089
0.000159135
0.000141658
0.00011963
0.000100214
8.45759e-05
6.66196e-05
5.62716e-05
5.62459e-05
5.42897e-05
5.39565e-05
5.4673e-05
5.57919e-05
5.56455e-05
6.40259e-05
0.000285793
0.00012492
9.87912e-05
0.000131422
0.00015608
0.000165779
0.000160058