/*--------------------------------*- C++ -*----------------------------------*\
  =========                 |
  \\      /  F ield         | OpenFOAM: The Open Source CFD Toolbox
   \\    /   O peration     | Website:  https://openfoam.org
    \\  /    A nd           | Version:  8
     \\/     M anipulation  |
\*---------------------------------------------------------------------------*/
FoamFile
{
    version     2.0;
    format      ascii;
    class       surfaceScalarField;
    location    "900";
    object      phi;
}
// * * * * * * * * * * * * * * * * * * * * * * * * * * * * * * * * * * * * * //

dimensions      [1 0 -1 0 0 0 0];

internalField   nonuniform List<scalar> 
16360
(
-13.2012
-0.0234305
-13.1782
-0.0229886
-13.1559
-0.0223024
-13.1346
-0.021318
-13.1145
-0.0201126
-13.0958
-0.0187783
-13.0783
-0.0174168
-13.0622
-0.0161316
-13.0471
-0.0150039
-13.0331
-0.0140803
-13.0197
-0.0133911
-13.0068
-0.012967
-12.9939
-0.012833
-12.9809
-0.0130097
-12.9674
-0.0135295
-12.953
-0.0144361
-12.9372
-0.0157656
-12.9197
-0.0175529
-12.8998
-0.0198513
-12.8771
-0.0227332
-12.8508
-0.0262711
-12.8203
-0.0305522
-12.7846
-0.0356827
-12.7428
-0.0417729
-12.6939
-0.0489516
-12.6365
-0.0573831
-12.5692
-0.0672323
-12.4906
-0.0786523
-12.3987
-0.0918445
-12.2916
-0.107058
-12.1671
-0.12452
-12.0226
-0.14447
-11.8554
-0.167222
-11.6623
-0.193094
-11.4399
-0.222388
-11.1845
-0.255455
-10.8918
-0.29266
-10.5575
-0.334314
-10.1768
-0.380678
-9.74478
-0.431974
-9.25651
-0.48826
-8.7073
-0.549251
-8.09301
-0.61428
-7.41087
-0.682132
-6.65995
-0.750926
-5.84162
-0.818355
-4.95987
-0.881737
-4.02249
-0.937339
-3.04201
-0.980539
-1.01347
-2.02849
-12.3229
-0.0492125
-12.297
-0.0488675
-12.2717
-0.0476097
-12.2474
-0.0456197
-12.2244
-0.0431375
-12.2027
-0.0404123
-12.1824
-0.0376792
-12.1634
-0.0351239
-12.1456
-0.0328729
-12.1287
-0.0310158
-12.1125
-0.0296237
-12.0967
-0.0287511
-12.0811
-0.0284416
-12.0654
-0.0287496
-12.0491
-0.02974
-12.0321
-0.0314721
-12.0139
-0.0340022
-11.994
-0.037419
-11.9721
-0.0418355
-11.9474
-0.0473721
-11.9196
-0.0541688
-11.8877
-0.0624064
-11.8511
-0.0722887
-11.8088
-0.0840377
-11.7598
-0.0979183
-11.703
-0.114218
-11.637
-0.133222
-11.5603
-0.155271
-11.4713
-0.180784
-11.3682
-0.210187
-11.2488
-0.243907
-11.1108
-0.282449
-10.9516
-0.326392
-10.7684
-0.376332
-10.5579
-0.432875
-10.3167
-0.49666
-10.041
-0.56837
-9.72664
-0.648647
-9.36931
-0.738008
-8.9644
-0.836854
-8.5074
-0.945261
-7.99399
-1.06268
-7.42045
-1.18781
-6.78441
-1.31814
-6.08549
-1.44984
-5.32587
-1.57799
-4.51083
-1.69673
-3.64964
-1.79847
-2.75705
-1.87302
-1.91273
-1.8579
-11.1534
-0.0782687
-11.1248
-0.0775215
-11.097
-0.0753987
-11.0704
-0.0721744
-11.0453
-0.0682364
-11.0217
-0.0639914
-10.9996
-0.0597825
-10.9789
-0.055865
-10.9593
-0.0524236
-10.9407
-0.0495952
-10.9229
-0.0474735
-10.9055
-0.0461236
-10.8883
-0.0456112
-10.871
-0.0460134
-10.8534
-0.0473996
-10.835
-0.0498337
-10.8156
-0.0534174
-10.7947
-0.0582877
-10.7719
-0.0645936
-10.7468
-0.0725044
-10.7187
-0.0822447
-10.687
-0.0940809
-10.651
-0.108299
-10.6098
-0.125223
-10.5625
-0.145219
-10.5081
-0.168677
-10.4452
-0.196047
-10.3726
-0.227853
-10.2888
-0.264651
-10.1919
-0.307024
-10.0802
-0.355627
-9.95147
-0.41119
-9.8034
-0.474496
-9.63333
-0.546395
-9.43842
-0.627784
-9.2155
-0.71959
-8.96115
-0.822735
-8.67164
-0.938131
-8.34307
-1.0666
-7.97127
-1.20868
-7.55202
-1.36445
-7.08145
-1.53326
-6.55617
-1.71309
-5.97418
-1.90012
-5.33575
-2.08827
-4.64404
-2.26965
-3.90542
-2.43538
-3.12964
-2.57424
-2.33198
-2.6708
-2.70906
-1.53553
-9.78204
-0.109263
-9.75099
-0.108563
-9.72091
-0.105462
-9.69238
-0.100693
-9.66565
-0.0949711
-9.64076
-0.0889083
-9.61757
-0.082975
-9.59591
-0.0775168
-9.57554
-0.0727757
-9.55621
-0.0689046
-9.53765
-0.0659944
-9.5196
-0.0641203
-9.50183
-0.0633614
-9.48407
-0.0637826
-9.46602
-0.0654449
-9.44739
-0.0684435
-9.42787
-0.0729242
-9.40711
-0.0790448
-9.38468
-0.0869843
-9.36015
-0.0969838
-9.33305
-0.109346
-9.30276
-0.124395
-9.2686
-0.142482
-9.22983
-0.164021
-9.18557
-0.189474
-9.13486
-0.219361
-9.0766
-0.254287
-9.00958
-0.2949
-8.9324
-0.341875
-8.84346
-0.395957
-8.74108
-0.457988
-8.6234
-0.528893
-8.4883
-0.609651
-8.33342
-0.7013
-8.15621
-0.804989
-7.95387
-0.921916
-7.72342
-1.0532
-7.4616
-1.19997
-7.16493
-1.36327
-6.82977
-1.54382
-6.45236
-1.74181
-6.02915
-1.95643
-5.55713
-2.18509
-5.03459
-2.42263
-4.46267
-2.66015
-3.84584
-2.88649
-3.19152
-3.08969
-2.5102
-3.25556
-1.81654
-3.36438
-3.39553
-1.1302
-8.31476
-0.144409
-8.28053
-0.142773
-8.24806
-0.137912
-8.21785
-0.130919
-8.19002
-0.122832
-8.16443
-0.114501
-8.14085
-0.106543
-8.11897
-0.0993721
-8.09849
-0.0932377
-8.0791
-0.088268
-8.06051
-0.0845425
-8.04247
-0.0821323
-8.02475
-0.0810904
-8.00706
-0.081459
-7.98917
-0.0833116
-7.97082
-0.0867812
-7.95173
-0.0920183
-7.93156
-0.0991918
-7.90996
-0.108537
-7.88657
-0.120368
-7.86094
-0.135023
-7.83252
-0.152866
-7.80069
-0.174323
-7.76479
-0.199903
-7.72405
-0.230182
-7.6776
-0.265803
-7.62444
-0.30747
-7.56344
-0.355933
-7.49333
-0.412005
-7.4127
-0.476585
-7.32004
-0.550661
-7.21366
-0.635301
-7.09166
-0.731665
-6.95197
-0.841025
-6.79235
-0.964693
-6.61028
-1.10399
-6.40322
-1.26026
-6.16844
-1.43479
-5.90293
-1.62873
-5.60367
-1.84305
-5.26749
-2.07801
-4.89125
-2.33264
-4.4724
-2.60398
-4.00938
-2.88566
-3.50455
-3.16498
-2.96388
-3.42716
-2.39597
-3.6576
-1.8123
-3.83932
-1.22812
-3.94861
-3.96431
-0.659332
-6.79853
-0.182242
-6.76127
-0.180018
-6.72653
-0.172661
-6.69497
-0.162503
-6.66653
-0.151267
-6.64086
-0.140137
-6.61754
-0.129853
-6.5961
-0.120817
-6.57613
-0.113215
-6.55725
-0.107123
-6.53919
-0.102589
-6.52169
-0.099639
-6.50449
-0.0982775
-6.48737
-0.098545
-6.47013
-0.100534
-6.45256
-0.104372
-6.43438
-0.110201
-6.41532
-0.118224
-6.39512
-0.128738
-6.37344
-0.142087
-6.34989
-0.158631
-6.32398
-0.178791
-6.29519
-0.203087
-6.26293
-0.232126
-6.2265
-0.266586
-6.18513
-0.3072
-6.13787
-0.354762
-6.08368
-0.410133
-6.02143
-0.474261
-5.94983
-0.54818
-5.86752
-0.632996
-5.77297
-0.729886
-5.66446
-0.840189
-5.54011
-0.965374
-5.39789
-1.10692
-5.23556
-1.26631
-5.05091
-1.44492
-4.84164
-1.64406
-4.60532
-1.86503
-4.3395
-2.10888
-4.04169
-2.37581
-3.7096
-2.6647
-3.34143
-2.97214
-2.93558
-3.29149
-2.49639
-3.60414
-2.03141
-3.89215
-1.55026
-4.1388
-1.06554
-4.32396
-0.593914
-4.42017
-4.40864
-0.149437
-5.25586
-0.225817
-5.21472
-0.221159
-5.17813
-0.209261
-5.1462
-0.194418
-5.11836
-0.179076
-5.09383
-0.164659
-5.07186
-0.151854
-5.05179
-0.140917
-5.03311
-0.1319
-5.01544
-0.124786
-4.9985
-0.119539
-4.98203
-0.116104
-4.96581
-0.114457
-4.94969
-0.114637
-4.93352
-0.116727
-4.91712
-0.120814
-4.90027
-0.127052
-4.88278
-0.135699
-4.86447
-0.147083
-4.84505
-0.161554
-4.82417
-0.179515
-4.80145
-0.201474
-4.77647
-0.228036
-4.74871
-0.259888
-4.71752
-0.297789
-4.68216
-0.342568
-4.64178
-0.395122
-4.59545
-0.456446
-4.54212
-0.527601
-4.48061
-0.609694
-4.40965
-0.703938
-4.3279
-0.81168
-4.23384
-0.934337
-4.12566
-1.0735
-4.00145
-1.23109
-3.85909
-1.40881
-3.69648
-1.60754
-3.51163
-1.82889
-3.30258
-2.07414
-3.06728
-2.34413
-2.80409
-2.63901
-2.51174
-2.95704
-2.19016
-3.29367
-1.83777
-3.64389
-1.46204
-3.97985
-1.07173
-4.28243
-0.677366
-4.53306
-0.293146
-4.70815
0.0629156
-4.77629
-4.71854
0.372714
-3.68134
-0.272675
-3.63789
-0.26461
-3.60181
-0.245343
-3.57205
-0.224153
-3.54711
-0.204003
-3.52559
-0.186197
-3.50643
-0.171057
-3.48885
-0.158525
-3.47232
-0.148433
-3.45651
-0.140597
-3.44119
-0.13485
-3.4262
-0.131063
-3.41142
-0.129212
-3.39678
-0.129309
-3.38217
-0.131384
-3.36749
-0.135509
-3.35265
-0.141882
-3.33755
-0.150805
-3.32205
-0.162616
-3.30592
-0.177694
-3.28889
-0.196518
-3.27069
-0.219667
-3.25094
-0.247805
-3.22916
-0.281698
-3.20474
-0.322218
-3.17698
-0.370292
-3.14515
-0.426924
-3.10838
-0.493228
-3.06566
-0.570336
-3.0159
-0.659427
-2.95793
-0.761857
-2.89055
-0.879064
-2.81242
-1.01247
-2.7221
-1.16379
-2.61762
-1.33555
-2.49651
-1.52998
-2.35699
-1.74711
-2.1968
-1.98906
-2.01407
-2.25679
-1.8073
-2.5509
-1.57533
-2.87107
-1.31793
-3.21447
-1.03787
-3.5738
-0.73537
-3.94647
-0.420956
-4.29434
-0.103841
-4.59959
0.201581
-4.83858
0.474826
-4.98133
0.702005
-5.00346
-4.89505
0.878521
-2.04634
-0.326738
-2.00448
-0.306476
-1.97511
-0.27471
-1.95293
-0.24632
-1.93508
-0.221839
-1.91983
-0.201464
-1.9061
-0.184827
-1.89321
-0.171414
-1.88083
-0.1608
-1.8688
-0.152616
-1.85705
-0.146564
-1.84559
-0.142501
-1.83444
-0.140412
-1.82354
-0.140289
-1.81282
-0.142127
-1.80225
-0.146037
-1.79185
-0.152276
-1.78157
-0.161127
-1.7713
-0.172911
-1.7609
-0.188105
-1.75015
-0.2073
-1.73877
-0.231094
-1.72641
-0.260186
-1.71267
-0.295454
-1.69699
-0.337832
-1.67883
-0.388354
-1.65762
-0.448184
-1.63251
-0.518445
-1.60244
-0.600358
-1.56649
-0.695357
-1.52351
-0.804853
-1.47215
-0.930334
-1.41119
-1.07341
-1.33977
-1.23527
-1.25621
-1.41908
-1.15777
-1.6284
-1.04253
-1.86238
-0.907495
-2.124
-0.750952
-2.41337
-0.571545
-2.73037
-0.368441
-3.07408
-0.142214
-3.44073
0.105243
-3.82122
0.36063
-4.20173
0.61138
-4.54494
0.846294
-4.83447
1.05168
-5.04375
1.21654
-5.14626
1.33217
-5.11915
-4.948
1.38519
-0.325819
-0.383684
-0.308678
-0.323661
-0.298753
-0.284669
-0.292906
-0.252111
-0.289488
-0.225212
-0.287281
-0.203702
-0.285669
-0.186453
-0.284512
-0.172538
-0.283845
-0.16141
-0.28367
-0.152745
-0.283875
-0.146315
-0.284423
-0.142016
-0.285221
-0.13975
-0.286158
-0.139375
-0.287248
-0.140889
-0.288629
-0.144573
-0.290233
-0.150783
-0.291719
-0.159738
-0.292877
-0.171749
-0.293681
-0.187367
-0.293893
-0.207155
-0.293144
-0.231776
-0.291172
-0.262153
-0.287544
-0.299107
-0.281745
-0.343458
-0.273549
-0.396463
-0.262501
-0.45938
-0.247626
-0.53333
-0.228073
-0.619758
-0.203186
-0.720188
-0.171985
-0.836105
-0.133054
-0.969352
-0.0844555
-1.12202
-0.0229974
-1.29661
0.0542959
-1.49625
0.147058
-1.72116
0.254796
-1.97014
0.378284
-2.24746
0.519026
-2.55412
0.678442
-2.88976
0.856386
-3.2521
1.04978
-3.63424
1.25108
-4.0225
1.44576
-4.3964
1.6285
-4.72769
1.78485
-4.99086
1.89858
-5.15767
1.95672
-5.2044
1.94695
-5.10944
-4.85862
1.85738
1.52233
-0.372662
1.50754
-0.308888
1.49648
-0.273571
1.48834
-0.243926
1.48194
-0.218828
1.47647
-0.198252
1.47168
-0.181628
1.46742
-0.168251
1.46361
-0.157578
1.46015
-0.149268
1.4569
-0.14311
1.45378
-0.138972
1.45079
-0.136764
1.44799
-0.136478
1.44537
-0.138226
1.44291
-0.142199
1.44066
-0.1486
1.43864
-0.157705
1.4368
-0.169923
1.43519
-0.18574
1.43382
-0.205707
1.4326
-0.23054
1.4315
-0.261062
1.43059
-0.298135
1.42981
-0.342765
1.42932
-0.3961
1.42936
-0.459381
1.43013
-0.534047
1.43214
-0.621718
1.4362
-0.724128
1.44332
-0.843204
1.45501
-0.981053
1.47306
-1.13999
1.4991
-1.32253
1.53405
-1.53109
1.58023
-1.76727
1.64236
-2.03225
1.72261
-2.32767
1.82265
-2.65412
1.94327
-3.01044
2.08308
-3.39194
2.23646
-3.78757
2.39215
-4.17828
2.53454
-4.53874
2.64787
-4.84108
2.71546
-5.05842
2.72084
-5.16286
2.65154
-5.135
2.49503
-4.95269
-4.60424
2.2407
3.39561
-0.306283
3.35954
-0.272822
3.3278
-0.24183
3.30324
-0.219369
3.28424
-0.199838
3.2689
-0.182916
3.25606
-0.168802
3.24505
-0.157253
3.23541
-0.147944
3.22679
-0.140647
3.21892
-0.13524
3.21161
-0.131656
3.20474
-0.129863
3.19817
-0.129895
3.19178
-0.131861
3.18548
-0.135916
3.17919
-0.142266
3.17274
-0.151222
3.16601
-0.163174
3.15888
-0.178564
3.15117
-0.197954
3.14265
-0.222034
3.13314
-0.251562
3.12241
-0.287413
3.11023
-0.330622
3.09651
-0.382358
3.0812
-0.443994
3.0643
-0.517128
3.04609
-0.603535
3.02717
-0.705229
3.00846
-0.824506
2.99138
-0.963939
2.97772
-1.12631
2.96966
-1.31449
2.96974
-1.53124
2.98131
-1.77885
3.00811
-2.05904
3.05322
-2.37285
3.1191
-2.72003
3.2065
-3.09779
3.3123
-3.49774
3.42701
-3.90229
3.53391
-4.28517
3.61169
-4.61649
3.63865
-4.86805
3.595
-5.01481
3.46486
-5.03286
3.24013
-4.91038
2.90817
-4.62079
-4.1575
2.46151
5.14394
-0.279189
5.11469
-0.243577
5.0946
-0.22174
5.07723
-0.201996
5.0623
-0.184893
5.04934
-0.169961
5.03776
-0.157255
5.02719
-0.146703
5.01737
-0.138109
5.00807
-0.131329
4.99912
-0.126282
4.99039
-0.122904
4.98171
-0.121165
4.97293
-0.121101
4.96389
-0.122807
4.95443
-0.126418
4.94434
-0.132144
4.93339
-0.140272
4.92137
-0.151139
4.90802
-0.165177
4.89299
-0.18293
4.87594
-0.205007
4.85651
-0.232127
4.8343
-0.265183
4.8089
-0.305206
4.78001
-0.353406
4.74732
-0.411258
4.71066
-0.480467
4.67013
-0.563017
4.62617
-0.661275
4.57966
-0.778001
4.53206
-0.916325
4.48546
-1.07964
4.44251
-1.27153
4.40658
-1.49538
4.38177
-1.75403
4.37237
-2.04962
4.38239
-2.38289
4.41488
-2.75241
4.46943
-3.15229
4.53903
-3.56733
4.60727
-3.97052
4.64962
-4.32764
4.63876
-4.60551
4.5491
-4.77848
4.35726
-4.82292
4.05216
-4.72777
3.63618
-4.49422
3.09144
-4.07625
-3.48528
2.4194
7.20956
-0.202048
7.15666
-0.190677
7.1064
-0.171462
7.06296
-0.158523
7.02494
-0.146865
6.9911
-0.13616
6.96062
-0.126794
6.93282
-0.118883
6.90714
-0.112389
6.88309
-0.107275
6.86029
-0.103496
6.83842
-0.101014
6.81712
-0.0998365
6.79607
-0.10003
6.77496
-0.101689
6.75348
-0.104945
6.7313
-0.109988
6.70808
-0.117073
6.68346
-0.126531
6.65704
-0.138778
6.6284
-0.154295
6.59706
-0.173652
6.56253
-0.197586
6.52433
-0.22698
6.48197
-0.262861
6.43503
-0.306494
6.38318
-0.359436
6.32623
-0.423536
6.26421
-0.501023
6.19746
-0.594574
6.12671
-0.707308
6.05319
-0.842792
5.97856
-1.00501
5.90521
-1.19822
5.83652
-1.42669
5.77689
-1.69445
5.73199
-2.00472
5.70753
-2.3585
5.70682
-2.75174
5.72557
-3.17107
5.74759
-3.58936
5.7456
-3.96852
5.68735
-4.26937
5.54298
-4.46116
5.28959
-4.52495
4.89399
-4.42728
4.3594
-4.19318
3.7128
-3.8476
2.90561
-3.26908
-2.55466
1.97505
8.36259
-0.185574
8.33299
-0.161053
8.31449
-0.15292
8.29869
-0.142724
8.28482
-0.133034
8.27266
-0.124028
8.26185
-0.115958
8.25202
-0.109018
8.24288
-0.103271
8.23428
-0.0986991
8.22604
-0.0952555
8.218
-0.0929215
8.20991
-0.0917262
8.20159
-0.0917185
8.19283
-0.0929582
8.18343
-0.0955519
8.17311
-0.0996838
8.16163
-0.105604
8.14869
-0.113615
8.13399
-0.124071
8.11713
-0.137403
8.09765
-0.154149
8.07499
-0.174958
8.04861
-0.2006
8.01781
-0.232035
7.98177
-0.270446
7.93963
-0.317276
7.89045
-0.374307
7.83318
-0.443741
7.76686
-0.528253
7.69065
-0.631089
7.60415
-0.756295
7.50777
-0.908731
7.40355
-1.09408
7.29588
-1.31904
7.19205
-1.59067
7.10197
-1.91463
7.03497
-2.29149
6.99289
-2.70973
6.95892
-3.13714
6.8974
-3.52779
6.76803
-3.83918
6.53666
-4.03798
6.18157
-4.10599
5.69849
-4.04192
5.02316
-3.752
4.18636
-3.35631
3.27847
-2.93975
2.12852
-2.11912
-1.3378
0.911627
11.2469
-0.0967067
11.1864
-0.100522
11.1256
-0.0921856
11.0715
-0.0886243
11.0224
-0.0840088
10.9775
-0.0790131
10.9359
-0.074353
10.8971
-0.0702644
10.8606
-0.0668203
10.8259
-0.0640306
10.7926
-0.0619014
10.7602
-0.0604625
10.7282
-0.0597377
10.6961
-0.059735
10.6636
-0.0604959
10.6302
-0.0621344
10.5954
-0.0648169
10.5585
-0.0687314
10.5189
-0.074102
10.4761
-0.08121
10.4291
-0.0904072
10.377
-0.102118
10.3189
-0.116841
10.2535
-0.135223
10.1796
-0.158116
10.0957
-0.186566
10.0003
-0.221933
9.89198
-0.266025
9.76938
-0.321159
9.63159
-0.390415
9.4784
-0.477899
9.31103
-0.588921
9.13268
-0.730292
8.94892
-0.91032
8.76809
-1.13825
8.60014
-1.42271
8.45395
-1.76852
8.33295
-2.17049
8.22676
-2.60357
8.08846
-2.99886
7.85355
-3.29296
7.48225
-3.46784
6.95557
-3.51131
6.27175
-3.42216
5.47865
-3.24887
4.44011
-2.71368
3.20696
-2.12299
2.00086
-1.73364
0.342092
-0.460353
0.406525
-1.40216
10.4726
-0.0890072
10.4544
-0.0823312
10.4547
-0.0925786
10.4568
-0.0907824
10.459
-0.0861035
10.4611
-0.0811021
10.4631
-0.0764016
10.4651
-0.0723101
10.4672
-0.068928
10.4694
-0.0662244
10.4716
-0.064141
10.4738
-0.0626313
10.4756
-0.0616396
10.477
-0.0611426
10.4778
-0.0612287
10.4777
-0.0620548
10.4767
-0.0637853
10.4745
-0.0666035
10.4711
-0.070734
10.4664
-0.0764438
10.46
-0.0840645
10.4519
-0.093997
10.4418
-0.106738
10.4296
-0.122954
10.415
-0.143476
10.3977
-0.169352
10.3777
-0.201987
10.3548
-0.243159
10.3288
-0.295137
10.2993
-0.360934
10.2656
-0.444288
10.2264
-0.549792
10.1792
-0.683064
10.1192
-0.850352
10.039
-1.05796
9.92719
-1.31097
9.76946
-1.61079
9.55088
-1.95191
9.26105
-2.31378
8.83694
-2.57475
8.21435
-2.67032
7.40261
-2.65611
6.42132
-2.53004
5.27057
-2.27127
4.04536
-2.02359
2.62831
-1.29665
0.888845
-0.383647
-1.20319
0.358321
-2.73585
1.07276
0.832894
-3.16238
16.7957
0.0107677
16.7425
-0.0291578
16.6854
-0.0354619
16.6321
-0.0374923
16.583
-0.0369516
16.5371
-0.0352403
16.4939
-0.0332857
16.4532
-0.0315253
16.4143
-0.0300762
16.377
-0.0289023
16.3407
-0.0279258
16.3051
-0.0270929
16.2698
-0.0263413
16.2344
-0.0256628
16.1983
-0.0251516
16.1611
-0.0248879
16.1223
-0.0249744
16.0812
-0.0255362
16.0371
-0.0266956
15.9893
-0.0285954
15.9366
-0.0313983
15.8779
-0.0352997
15.8118
-0.0405735
15.7363
-0.047538
15.6495
-0.0565987
15.5485
-0.0683296
15.4298
-0.0833899
15.2894
-0.102652
15.1216
-0.127357
14.9197
-0.158991
14.6749
-0.199475
14.3763
-0.251251
14.0105
-0.317202
13.5609
-0.400804
13.0085
-0.505587
12.332
-0.63455
11.5099
-0.788817
10.5241
-0.966079
9.3851
-1.1747
8.08631
-1.2759
6.67269
-1.25673
5.1927
-1.17602
3.6609
-0.998378
1.98587
-0.596278
-0.125336
0.0874748
-2.30313
0.881296
-3.67687
0.99023
-3.96317
0.644692
-3.59236
0.701829
0.630521
-3.39
9.70313
0.0412361
9.66624
0.00771367
9.62977
0.0010265
9.59061
0.00166653
9.55005
0.00359494
9.50992
0.00488099
9.47171
0.00496675
9.43607
0.00413944
9.40301
0.00296291
9.37214
0.00191625
9.3429
0.0012867
9.31464
0.00119607
9.28681
0.00151075
9.25888
0.00224758
9.2301
0.00361217
9.19971
0.0055271
9.16697
0.00780167
9.13112
0.0103711
9.09122
0.0132486
9.0462
0.0164556
8.99478
0.0200587
8.93539
0.0241125
8.86606
0.0287156
8.78444
0.0340362
8.68758
0.0401989
8.5718
0.0473999
8.43251
0.0559344
8.26385
0.0660282
8.05834
0.0780955
7.80654
0.0928067
7.49624
0.110886
7.11172
0.133327
6.63318
0.161326
6.03598
0.196409
5.29016
0.240278
4.36084
0.294781
3.20972
0.362309
1.79479
0.448864
0.0239663
0.596025
-1.85301
0.600977
-3.31147
0.201734
-4.26275
-0.22482
-4.96731
-0.293637
-5.40774
-0.155752
-5.43337
0.113092
-4.96399
0.411973
-4.48356
0.509691
-4.21742
0.378569
-3.8723
0.356503
0.323047
-3.56483
-8.92827
-8.92055
-8.91952
-8.91786
-8.91426
-8.90934
-8.90436
-8.90024
-8.89732
-8.89541
-8.8941
-8.8929
-8.89142
-8.88919
-8.88556
-8.88002
-8.87222
-8.86187
-8.84865
-8.8322
-8.81216
-8.78806
-8.75931
-8.72527
-8.6851
-8.63766
-8.58173
-8.51569
-8.43756
-8.34484
-8.23398
-8.10067
-7.93935
-7.74299
-7.50281
-7.20802
-6.84572
-6.39681
-5.80079
-5.19985
-4.99804
-5.22288
-5.51662
-5.67238
-5.55928
-5.14732
-4.63762
-4.25883
-3.90238
-3.57931
0.406432
-0.00852794
0.409373
-0.00299721
0.41149
-0.0021769
0.412513
-0.00107486
0.412831
-0.000362231
0.41279
6.18502e-06
0.412559
0.000204031
0.41222
0.000321679
0.411815
0.000394481
0.411373
0.000439561
0.410907
0.00046765
0.410427
0.00048557
0.409935
0.000497303
0.409433
0.000504985
0.40892
0.000509702
0.408396
0.000512018
0.407863
0.000512262
0.407322
0.000510608
0.406776
0.000507027
0.406231
0.000501296
0.405691
0.000493124
0.405166
0.000482321
0.404661
0.000468921
0.404186
0.000453272
0.403745
0.000436018
0.403343
0.000418001
0.40298
0.000400093
0.402654
0.000382994
0.40236
0.000366966
0.402089
0.00035165
0.401832
0.000336129
0.401583
0.000319092
0.401335
0.000298833
0.401087
0.000273562
0.400842
0.000241182
0.400609
0.000200297
0.400403
0.00014995
0.40024
8.96025e-05
0.400141
1.88396e-05
0.400123
-6.31313e-05
0.400209
-0.000157793
0.400417
-0.000267364
0.40077
-0.000395377
0.401291
-0.000547787
0.402012
-0.000734317
0.402979
-0.000970255
0.404261
-0.00128001
0.405976
-0.00170696
0.408342
-0.00234422
-0.00341153
0.4118
0.393837
-0.00451616
0.392957
-0.00221644
0.39151
-0.000821337
0.390748
-0.000388064
0.390386
-6.14733e-05
0.390203
0.000142539
0.390135
0.000241537
0.390148
0.000291145
0.390218
0.000318229
0.390326
0.000332847
0.39046
0.000339983
0.390609
0.000342767
0.390764
0.000343012
0.390918
0.000341712
0.391065
0.000339531
0.391201
0.000337115
0.391324
0.000335046
0.391434
0.000333695
0.391533
0.000333063
0.391625
0.000332749
0.391715
0.000332044
0.391811
0.000330085
0.39192
0.000326037
0.392051
0.000319235
0.392209
0.000309214
0.392399
0.000295648
0.39262
0.000278259
0.39287
0.000256641
0.393142
0.000230108
0.393428
0.000197758
0.393719
0.000158716
0.394007
0.000112431
0.394285
5.80155e-05
0.394553
-5.54325e-06
0.394816
-7.91996e-05
0.395083
-0.000163842
0.395369
-0.000260574
0.395693
-0.000370963
0.396073
-0.000497244
0.39653
-0.000642751
0.397084
-0.000811949
0.397753
-0.00101044
0.398557
-0.00124593
0.399516
-0.00152943
0.400656
-0.00187722
0.402007
-0.00231417
0.403614
-0.00287823
0.405521
-0.00362465
0.407752
-0.00463148
-0.00601611
0.410247
0.3944
-0.00105637
0.393216
-0.00111363
0.392987
-0.000667265
0.392994
-0.000457927
0.393213
-0.000330825
0.393521
-0.000203719
0.393835
-9.89449e-05
0.394131
-2.05573e-05
0.394403
3.95549e-05
0.394651
8.60687e-05
0.394874
0.000121484
0.395074
0.000147875
0.39525
0.000167155
0.395403
0.000181068
0.395532
0.000191285
0.395638
0.000199428
0.395722
0.000206891
0.395786
0.000214585
0.395834
0.000222791
0.395871
0.00023112
0.395903
0.000238657
0.395939
0.000244174
0.395987
0.000246383
0.396057
0.000244088
0.396154
0.000236211
0.396284
0.00022179
0.396446
0.000199932
0.396638
0.000169676
0.396853
0.000130011
0.397083
7.99981e-05
0.397319
1.91702e-05
0.397553
-5.28626e-05
0.397779
-0.000136453
0.397996
-0.000232243
0.398209
-0.000340865
0.398426
-0.000463703
0.398662
-0.000602572
0.398935
-0.000760085
0.399262
-0.000939896
0.399662
-0.0011469
0.400154
-0.00138739
0.400752
-0.00166947
0.401472
-0.00200371
0.402329
-0.00240382
0.403336
-0.00288776
0.404514
-0.00348068
0.405884
-0.00422029
0.407471
-0.00516306
0.409272
-0.0063829
-0.00795761
0.411195
0.39749
-0.000682527
0.397279
-0.000972778
0.397325
-0.000778126
0.397371
-0.000558093
0.397387
-0.000391656
0.397395
-0.000246157
0.397395
-0.000123093
0.397387
-2.87465e-05
0.397379
4.04314e-05
0.397374
9.03739e-05
0.397373
0.000125406
0.397376
0.000148808
0.39738
0.000163454
0.397382
0.000171989
0.397381
0.000176886
0.397374
0.000180357
0.397358
0.000184154
0.397336
0.000189331
0.397307
0.000196092
0.397275
0.000203832
0.397245
0.000211277
0.397224
0.000216784
0.397221
0.000218562
0.397243
0.000214784
0.397296
0.000203651
0.397384
0.000183407
0.397507
0.000152591
0.397662
0.000109756
0.397843
5.38357e-05
0.398041
-1.56605e-05
0.398247
-9.88236e-05
0.398452
-0.000195927
0.398651
-0.000307129
0.398842
-0.000432957
0.399029
-0.000574351
0.39922
-0.000732938
0.399429
-0.000911146
0.399672
-0.00111242
0.399966
-0.00134143
0.400328
-0.00160426
0.400773
-0.00190857
0.401315
-0.00226414
0.401966
-0.00268366
0.402734
-0.00318332
0.403628
-0.00378296
0.404652
-0.00450646
0.405811
-0.00538395
0.407111
-0.00645786
0.408546
-0.0077867
-0.00942856
0.410025
0.397544
-0.000357597
0.397076
-0.000564607
0.396748
-0.000504598
0.396531
-0.000387761
0.396393
-0.000293233
0.396331
-0.000214542
0.396329
-0.000145108
0.396372
-8.73659e-05
0.396446
-4.21604e-05
0.396542
-7.86002e-06
0.396652
1.73126e-05
0.396768
3.48864e-05
0.396886
4.65176e-05
0.397
5.41184e-05
0.397106
5.97522e-05
0.397201
6.53784e-05
0.397282
7.25311e-05
0.397349
8.20407e-05
0.397402
9.38541e-05
0.397445
0.000107045
0.397482
0.000120014
0.397521
0.000130702
0.397571
0.00013679
0.397639
0.000135838
0.397732
0.000125351
0.397855
0.000102939
0.398007
6.65201e-05
0.398186
1.45494e-05
0.398388
-5.37666e-05
0.398603
-0.000138467
0.398823
-0.000239401
0.399041
-0.000356442
0.399249
-0.000489747
0.399446
-0.000639906
0.399635
-0.000808
0.399825
-0.000995839
0.400027
-0.00120624
0.400256
-0.00144327
0.400528
-0.00171242
0.400858
-0.00202072
0.401259
-0.00237687
0.401743
-0.00279145
0.402316
-0.00327751
0.402984
-0.00385176
0.403752
-0.00453514
0.404616
-0.00535215
0.405571
-0.00632925
0.406608
-0.0074961
0.407725
-0.00889208
-0.0105623
0.408867
0.39778
-0.000263594
0.397609
-0.000441977
0.397517
-0.00045719
0.397504
-0.000413153
0.397534
-0.000355371
0.397587
-0.000295001
0.397654
-0.000233799
0.397727
-0.00017648
0.397802
-0.000127097
0.397877
-8.70646e-05
0.397951
-5.62285e-05
0.398023
-3.36547e-05
0.39809
-1.78056e-05
0.398151
-6.63771e-06
0.398203
2.17334e-06
0.398244
1.08417e-05
0.398274
2.11063e-05
0.39829
3.38791e-05
0.398293
4.90807e-05
0.398286
6.56781e-05
0.398274
8.1832e-05
0.398264
9.50774e-05
0.398264
0.00010261
0.398282
0.000101392
0.398326
8.84171e-05
0.398399
6.09562e-05
0.398501
1.66564e-05
0.398633
-4.58541e-05
0.398787
-0.000127043
0.398957
-0.000226709
0.399135
-0.000344436
0.39931
-0.000479988
0.399478
-0.000633487
0.399635
-0.000805468
0.399783
-0.000997007
0.39993
-0.00121001
0.400087
-0.00144759
0.400266
-0.00171437
0.400483
-0.0020166
0.400749
-0.00236214
0.401077
-0.00276056
0.401475
-0.00322318
0.401947
-0.0037631
0.402493
-0.00439587
0.403115
-0.00514079
0.403808
-0.00602128
0.404563
-0.00706266
0.405362
-0.00828863
0.406198
-0.00972364
-0.0113969
0.407037
0.397833
-0.00021695
0.397714
-0.000358147
0.397604
-0.00038069
0.397522
-0.000360245
0.397462
-0.000320869
0.397419
-0.000275731
0.397396
-0.000229764
0.39739
-0.000186792
0.397402
-0.000150005
0.397431
-0.000120893
0.397474
-9.94842e-05
0.397529
-8.48875e-05
0.397592
-7.5561e-05
0.397659
-6.94199e-05
0.397727
-6.41215e-05
0.397791
-5.74462e-05
0.397848
-4.77647e-05
0.397894
-3.43646e-05
0.397928
-1.76012e-05
0.397951
1.13909e-06
0.397967
1.95673e-05
0.397981
3.47066e-05
0.398003
4.31139e-05
0.398039
4.11989e-05
0.398097
2.55317e-05
0.398181
-6.81285e-06
0.398293
-5.79975e-05
0.398432
-0.000129149
0.398593
-0.000220495
0.39877
-0.000331697
0.398953
-0.000462305
0.399133
-0.000612044
0.399303
-0.000780891
0.39946
-0.00096918
0.399606
-0.00117788
0.399747
-0.00140901
0.399892
-0.00166604
0.400053
-0.0019541
0.400242
-0.00227998
0.40047
-0.00265213
0.400747
-0.00308056
0.40108
-0.00357698
0.40147
-0.00415494
0.401915
-0.00482947
0.40241
-0.00561762
0.402951
-0.00653964
0.40353
-0.0076186
0.404129
-0.0088761
0.404739
-0.01033
-0.0119998
0.405343
0.397866
-0.000197231
0.397805
-0.000318429
0.397747
-0.000343109
0.397709
-0.000341113
0.397693
-0.000322498
0.397695
-0.000295721
0.397713
-0.000265441
0.397745
-0.000235018
0.39779
-0.000207341
0.397847
-0.0001843
0.397914
-0.000166581
0.397987
-0.000153857
0.398066
-0.000144942
0.398145
-0.000137959
0.398221
-0.000130696
0.398291
-0.000121096
0.39835
-0.000107741
0.398395
-9.02065e-05
0.398423
-6.91776e-05
0.398436
-4.64057e-05
0.398437
-2.45695e-05
0.398431
-7.03252e-06
0.398428
2.36023e-06
0.398435
-2.84408e-07
0.39846
-1.85154e-05
0.398508
-5.5167e-05
0.398582
-0.000112133
0.398683
-0.000190301
0.398807
-0.000289729
0.398946
-0.000410026
0.399093
-0.000550689
0.399236
-0.000711248
0.39937
-0.000891383
0.399491
-0.00109117
0.399598
-0.0013115
0.399698
-0.00155463
0.399797
-0.0018245
0.399905
-0.00212679
0.400032
-0.00246866
0.40019
-0.0028587
0.400386
-0.00330699
0.400623
-0.00382523
0.400904
-0.00442695
0.401223
-0.0051273
0.401572
-0.00594233
0.401945
-0.00688943
0.402335
-0.00798811
0.402729
-0.00925773
0.403114
-0.0107131
-0.0123668
0.40348
0.397881
-0.000184867
0.397846
-0.000290426
0.397808
-0.000310316
0.397774
-0.000314626
0.397748
-0.000306662
0.39773
-0.000290897
0.39772
-0.000270998
0.397719
-0.000250014
0.397729
-0.000230525
0.397751
-0.000214364
0.397786
-0.000202337
0.397833
-0.000194223
0.39789
-0.000188811
0.397955
-0.000184177
0.398022
-0.000178102
0.398088
-0.000168644
0.398147
-0.000154643
0.398193
-0.000135998
0.398224
-0.000113748
0.398239
-9.00064e-05
0.398241
-6.77764e-05
0.398234
-5.07304e-05
0.398226
-4.2884e-05
0.398227
-4.81921e-05
0.398242
-7.01055e-05
0.39828
-0.000111249
0.398344
-0.000173298
0.398435
-0.000256998
0.398549
-0.000362373
0.398679
-0.00048902
0.398816
-0.000636295
0.39895
-0.000803432
0.399075
-0.000989809
0.399186
-0.00119537
0.399281
-0.00142114
0.399363
-0.00166971
0.39944
-0.00194541
0.399518
-0.00225426
0.399607
-0.00260372
0.399715
-0.00300239
0.39985
-0.00346023
0.400013
-0.00398873
0.400203
-0.004601
0.400415
-0.00531199
0.400641
-0.00613762
0.40087
-0.00709385
0.401098
-0.00819736
0.401315
-0.00946513
0.401513
-0.0109108
-0.0125452
0.401688
0.397889
-0.000172541
0.397872
-0.000263738
0.397849
-0.000278309
0.397826
-0.000287054
0.397807
-0.000289294
0.397793
-0.000285679
0.397785
-0.000277906
0.397788
-0.000268054
0.397801
-0.000258122
0.397828
-0.000249661
0.39787
-0.000243475
0.397924
-0.000239408
0.397991
-0.000236349
0.398066
-0.00023251
0.398146
-0.000225945
0.398224
-0.000215101
0.398294
-0.000199243
0.398349
-0.000178676
0.398386
-0.000154792
0.398401
-0.000129993
0.398399
-0.000107512
0.398383
-9.11458e-05
0.398362
-8.48987e-05
0.398343
-9.25614e-05
0.398337
-0.000117322
0.398351
-0.000161566
0.39839
-0.000226801
0.398454
-0.000313692
0.398542
-0.000422218
0.398646
-0.000551851
0.398758
-0.000701675
0.398868
-0.000870636
0.398969
-0.00105796
0.399053
-0.00126364
0.39912
-0.00148899
0.39917
-0.00173699
0.399208
-0.00201221
0.39924
-0.00232058
0.399275
-0.0026695
0.399319
-0.00306768
0.399377
-0.00352503
0.399451
-0.00405283
0.399537
-0.00466396
0.39963
-0.00537271
0.39972
-0.00619467
0.399799
-0.00714548
0.399858
-0.00824034
0.399894
-0.00949429
0.3999
-0.01092
-0.012527
0.399875
0.397892
-0.000155031
0.397884
-0.000229209
0.397868
-0.000238414
0.397848
-0.000251857
0.397829
-0.00026472
0.397813
-0.000273671
0.397802
-0.00027834
0.397798
-0.000279844
0.397806
-0.000279598
0.397827
-0.000278846
0.397864
-0.000278323
0.397916
-0.000277938
0.397983
-0.000276756
0.398062
-0.000273311
0.398146
-0.0002661
0.39823
-0.00025406
0.398306
-0.000236903
0.398365
-0.000215289
0.398404
-0.000190878
0.398419
-0.000166266
0.398411
-0.00014477
0.398386
-0.000130135
0.398351
-0.000126147
0.398317
-0.000136252
0.398292
-0.000163326
0.398285
-0.000209539
0.398301
-0.000276257
0.398344
-0.000364059
0.39841
-0.000472813
0.398493
-0.000601758
0.398585
-0.000749733
0.398676
-0.000915577
0.398757
-0.00109859
0.398821
-0.00129904
0.398865
-0.00151856
0.398887
-0.00176025
0.39889
-0.0020287
0.398881
-0.00232979
0.398865
-0.00267057
0.398849
-0.00305952
0.398837
-0.00350665
0.398827