/*--------------------------------*- C++ -*----------------------------------*\
  =========                 |
  \\      /  F ield         | OpenFOAM: The Open Source CFD Toolbox
   \\    /   O peration     | Website:  https://openfoam.org
    \\  /    A nd           | Version:  8
     \\/     M anipulation  |
\*---------------------------------------------------------------------------*/
FoamFile
{
    version     2.0;
    format      ascii;
    class       volScalarField;
    location    "900";
    object      T;
}
// * * * * * * * * * * * * * * * * * * * * * * * * * * * * * * * * * * * * * //

dimensions      [0 0 0 1 0 0 0];

internalField   nonuniform List<scalar> 
8400
(
300.34
300.337
300.34
300.342
300.343
300.345
300.346
300.347
300.348
300.349
300.349
300.349
300.348
300.347
300.345
300.342
300.339
300.336
300.331
300.326
300.32
300.314
300.306
300.298
300.289
300.279
300.269
300.258
300.246
300.233
300.219
300.205
300.191
300.176
300.16
300.144
300.128
300.113
300.097
300.082
300.068
300.056
300.046
300.039
300.036
300.039
300.048
300.063
300.086
300.115
300.391
300.386
300.386
300.386
300.385
300.385
300.384
300.384
300.383
300.382
300.381
300.38
300.378
300.377
300.375
300.372
300.369
300.366
300.363
300.359
300.354
300.349
300.344
300.338
300.331
300.324
300.316
300.308
300.299
300.29
300.28
300.269
300.258
300.247
300.235
300.222
300.209
300.196
300.183
300.17
300.158
300.147
300.137
300.129
300.124
300.123
300.128
300.138
300.154
300.175
300.346
300.34
300.339
300.338
300.337
300.336
300.334
300.333
300.332
300.331
300.33
300.329
300.327
300.326
300.324
300.323
300.321
300.319
300.316
300.313
300.311
300.307
300.304
300.3
300.296
300.291
300.286
300.28
300.275
300.268
300.262
300.254
300.247
300.239
300.231
300.222
300.213
300.205
300.196
300.187
300.179
300.171
300.165
300.16
300.158
300.158
300.163
300.173
300.187
300.205
300.263
300.257
300.256
300.255
300.254
300.253
300.253
300.252
300.251
300.251
300.25
300.249
300.249
300.248
300.247
300.246
300.245
300.244
300.243
300.242
300.24
300.238
300.236
300.234
300.232
300.229
300.226
300.223
300.219
300.215
300.211
300.207
300.203
300.198
300.193
300.188
300.183
300.178
300.174
300.169
300.166
300.163
300.161
300.161
300.163
300.168
300.176
300.187
300.202
300.221
300.182
300.177
300.177
300.177
300.176
300.176
300.176
300.176
300.176
300.176
300.176
300.176
300.176
300.176
300.176
300.176
300.176
300.175
300.175
300.175
300.174
300.173
300.172
300.171
300.17
300.169
300.168
300.166
300.164
300.162
300.16
300.157
300.155
300.152
300.15
300.147
300.145
300.143
300.141
300.14
300.14
300.141
300.144
300.149
300.155
300.164
300.176
300.191
300.209
300.228
300.118
300.114
300.115
300.115
300.116
300.116
300.116
300.117
300.117
300.118
300.118
300.119
300.119
300.119
300.12
300.12
300.12
300.12
300.121
300.121
300.121
300.121
300.121
300.12
300.12
300.12
300.119
300.118
300.118
300.117
300.116
300.114
300.113
300.112
300.111
300.109
300.108
300.108
300.108
300.109
300.111
300.115
300.121
300.13
300.14
300.153
300.17
300.189
300.209
300.231
300.073
300.069
300.071
300.071
300.072
300.072
300.073
300.074
300.074
300.075
300.076
300.076
300.077
300.077
300.078
300.078
300.079
300.079
300.079
300.08
300.08
300.081
300.081
300.081
300.081
300.081
300.081
300.081
300.081
300.081
300.08
300.08
300.079
300.079
300.079
300.078
300.078
300.078
300.079
300.081
300.085
300.091
300.099
300.11
300.124
300.141
300.162
300.185
300.208
300.232
300.04
300.038
300.039
300.039
300.04
300.041
300.041
300.042
300.043
300.043
300.044
300.044
300.045
300.045
300.046
300.046
300.047
300.047
300.048
300.048
300.049
300.049
300.05
300.05
300.051
300.051
300.052
300.052
300.052
300.052
300.052
300.052
300.052
300.053
300.053
300.053
300.053
300.054
300.056
300.058
300.063
300.069
300.079
300.092
300.109
300.13
300.155
300.182
300.208
300.233
300.019
300.017
300.018
300.018
300.019
300.019
300.02
300.02
300.021
300.021
300.022
300.022
300.023
300.023
300.024
300.024
300.025
300.025
300.026
300.026
300.027
300.027
300.028
300.028
300.029
300.029
300.03
300.03
300.031
300.031
300.031
300.032
300.032
300.033
300.033
300.033
300.034
300.035
300.037
300.04
300.045
300.052
300.063
300.079
300.099
300.123
300.152
300.181
300.21
300.238
300.008
300.006
300.006
300.007
300.007
300.008
300.008
300.009
300.009
300.01
300.01
300.01
300.011
300.011
300.011
300.012
300.012
300.012
300.013
300.013
300.013
300.014
300.014
300.015
300.015
300.015
300.016
300.016
300.016
300.017
300.017
300.017
300.018
300.018
300.019
300.019
300.02
300.021
300.023
300.027
300.032
300.041
300.054
300.072
300.095
300.124
300.155
300.188
300.219
300.248
300.002
300.002
300.003
300.004
300.004
300.005
300.005
300.005
300.006
300.006
300.006
300.007
300.007
300.007
300.007
300.007
300.007
300.007
300.007
300.007
300.007
300.007
300.007
300.007
300.007
300.007
300.007
300.007
300.007
300.007
300.007
300.008
300.008
300.008
300.009
300.01
300.011
300.012
300.015
300.019
300.026
300.036
300.051
300.073
300.1
300.133
300.168
300.203
300.235
300.265
300.005
300.005
300.006
300.006
300.007
300.007
300.007
300.008
300.008
300.008
300.009
300.009
300.009
300.009
300.01
300.01
300.01
300.01
300.01
300.01
300.01
300.01
300.01
300.01
300.01
300.01
300.009
300.009
300.009
300.009
300.009
300.008
300.008
300.008
300.008
300.008
300.008
300.009
300.012
300.016
300.024
300.036
300.055
300.082
300.114
300.152
300.191
300.228
300.261
300.292
300.004
300.005
300.005
300.006
300.007
300.007
300.008
300.009
300.01
300.01
300.011
300.012
300.012
300.013
300.013
300.014
300.014
300.015
300.015
300.016
300.016
300.016
300.017
300.017
300.017
300.017
300.016
300.016
300.015
300.014
300.013
300.012
300.01
300.009
300.008
300.007
300.006
300.007
300.01
300.016
300.026
300.043
300.068
300.102
300.141
300.185
300.228
300.267
300.302
300.335
300.013
300.015
300.017
300.019
300.02
300.022
300.023
300.025
300.026
300.027
300.028
300.028
300.029
300.03
300.03
300.031
300.031
300.031
300.031
300.031
300.031
300.031
300.03
300.029
300.028
300.027
300.026
300.024
300.022
300.019
300.016
300.014
300.011
300.008
300.007
300.006
300.005
300.007
300.011
300.02
300.036
300.062
300.097
300.14
300.188
300.24
300.286
300.327
300.365
300.404
300.004
300.004
300.003
300.002
300.001
300.001
300.002
300.002
300.002
300.002
300.003
300.003
300.004
300.004
300.005
300.005
300.006
300.006
300.007
300.007
300.007
300.008
300.008
300.008
300.008
300.008
300.008
300.009
300.009
300.009
300.009
300.01
300.01
300.011
300.011
300.01
300.01
300.012
300.018
300.034
300.064
300.105
300.154
300.207
300.263
300.322
300.372
300.415
300.468
300.521
300.024
300.03
300.035
300.04
300.044
300.049
300.053
300.057
300.06
300.064
300.067
300.07
300.072
300.075
300.077
300.079
300.081
300.083
300.085
300.087
300.088
300.089
300.09
300.09
300.091
300.091
300.09
300.089
300.086
300.083
300.078
300.072
300.063
300.052
300.04
300.028
300.019
300.019
300.035
300.073
300.13
300.197
300.264
300.326
300.384
300.447
300.504
300.541
300.662
300.749
300.002
299.998
299.993
299.989
299.986
299.984
299.982
299.981
299.979
299.978
299.977
299.976
299.975
299.975
299.974
299.973
299.972
299.971
299.97
299.968
299.967
299.965
299.963
299.96
299.957
299.954
299.951
299.947
299.943
299.939
299.936
299.933
299.933
299.936
299.946
299.964
299.994
300.039
300.102
300.184
300.285
300.383
300.469
300.533
300.578
300.641
300.725
300.718
301.174
301.372
300.041
300.049
300.059
300.069
300.08
300.09
300.1
300.109
300.118
300.127
300.135
300.143
300.15
300.157
300.164
300.171
300.177
300.183
300.19
300.196
300.202
300.208
300.214
300.22
300.227
300.234
300.242
300.251
300.26
300.271
300.284
300.299
300.315
300.334
300.354
300.374
300.393
300.406
300.414
300.43
300.559
300.69
300.817
300.894
300.876
300.963
301.301
301.381
301.46
301.562
299.999
299.995
299.991
299.988
299.984
299.981
299.977
299.974
299.972
299.969
299.967
299.964
299.962
299.96
299.958
299.955
299.952
299.949
299.945
299.941
299.937
299.932
299.926
299.92
299.912
299.902
299.891
299.877
299.86
299.839
299.814
299.781
299.741
299.69
299.625
299.541
299.43
299.28
299.053
299.192
300.613
301.301
301.652
301.763
301.72
301.618
301.574
301.626
301.745
301.877
301.471
301.464
301.468
301.475
301.48
301.484
301.487
301.49
301.493
301.497
301.501
301.505
301.508
301.512
301.516
301.519
301.521
301.523
301.523
301.522
301.52
301.517
301.512
301.505
301.495
301.481
301.464
301.443
301.416
301.384
301.344
301.298
301.244
301.182
301.114
301.044
300.981
300.941
300.955
301.083
301.436
301.8
302.014
302.097
302.096
302.055
302.037
302.095
302.207
302.326
303.148
303.145
303.143
303.14
303.137
303.135
303.132
303.13
303.127
303.125
303.123
303.12
303.118
303.116
303.113
303.111
303.109
303.107
303.105
303.102
303.1
303.098
303.096
303.094
303.092
303.09
303.088
303.086
303.084
303.082
303.08
303.079
303.077
303.075
303.073
303.071
303.069
303.068
303.066
303.064
303.062
303.061
303.059
303.057
303.056
303.054
303.053
303.052
303.051
303.05
303.15
303.15
303.15
303.15
303.15
303.15
303.15
303.149
303.149
303.149
303.149
303.149
303.148
303.148
303.148
303.148
303.148
303.147
303.147
303.147
303.146
303.146
303.146
303.146
303.145
303.145
303.145
303.144
303.144
303.144
303.143
303.143
303.143
303.142
303.142
303.142
303.141
303.141
303.141
303.141
303.14
303.14
303.14
303.139
303.139
303.139
303.139
303.139
303.138
303.138
303.15
303.15
303.15
303.15
303.15
303.15
303.15
303.15
303.15
303.15
303.15
303.15
303.15
303.15
303.15
303.15
303.15
303.15
303.15
303.15
303.15
303.15
303.15
303.15
303.15
303.15
303.15
303.15
303.15
303.15
303.15
303.15
303.15
303.15
303.15
303.149
303.149
303.149
303.149
303.149
303.149
303.149
303.149
303.149
303.149
303.149
303.149
303.149
303.149
303.149
303.15
303.15
303.15
303.15
303.15
303.15
303.15
303.15
303.15
303.15
303.15
303.15
303.15
303.15
303.15
303.15
303.15
303.15
303.15
303.15
303.15
303.15
303.15
303.15
303.15
303.15
303.15
303.15
303.15
303.15
303.15
303.15
303.15
303.15
303.15
303.15
303.15
303.15
303.15
303.15
303.15
303.15
303.15
303.15
303.15
303.15
303.15
303.15
303.15
303.15
303.15
303.15
303.15
303.15
303.15
303.15
303.15
303.15
303.15
303.15
303.15
303.15
303.15
303.15
303.15
303.15
303.15
303.15
303.15
303.15
303.15
303.15
303.15
303.15
303.15
303.15
303.15
303.15
303.15
303.15
303.15
303.15
303.15
303.15
303.15
303.15
303.15
303.15
303.15
303.15
303.15
303.15
303.15
303.15
303.15
303.15
303.15
303.15
303.15
303.15
303.15
303.15
303.15
303.15
303.15
303.15
303.15
303.15
303.15
303.15
303.15
303.15
303.15
303.15
303.15
303.15
303.15
303.15
303.15
303.15
303.15
303.15
303.15
303.15
303.15
303.15
303.15
303.15
303.15
303.15
303.15
303.15
303.15
303.15
303.15
303.15
303.15
303.15
303.15
303.15
303.15
303.15
303.15
303.15
303.15
303.15
303.15
303.15
303.15
303.15
303.15
303.15
303.15
303.15
303.15
303.15
303.15
303.15
303.15
303.15
303.15
303.15
303.15
303.15
303.15
303.15
303.15
303.15
303.15
303.15
303.15
303.15
303.15
303.15
303.15
303.15
303.15
303.15
303.15
303.15
303.15
303.15
303.15
303.15
303.15
303.15
303.15
303.15
303.15
303.15
303.15
303.15
303.15
303.15
303.15
303.15
303.15
303.15
303.15
303.15
303.15
303.15
303.15
303.15
303.15
303.15
303.15
303.15
303.15
303.15
303.15
303.15
303.15
303.15
303.15
303.15
303.15
303.15
303.15
303.15
303.15
303.15
303.15
303.15
303.15
303.15
303.15
303.15
303.15
303.15
303.15
303.15
303.15
303.15
303.15
303.15
303.15
303.15
303.15
303.15
303.15
303.15
303.15
303.15
303.15
303.15
303.15
303.15
303.15
303.15
303.15
303.15
303.15
303.15
303.15
303.15
303.15
303.15
303.15
303.15
303.15
303.15
303.15
303.15
303.15
303.15
303.15
303.15
303.15
303.15
303.15
303.15
303.15
303.15
303.15
303.15
303.15
303.15
303.15
303.15
303.15
303.15
303.15
303.15
303.15
303.15
303.15
303.15
303.15
303.15
303.15
303.15
303.15
303.15
303.15
303.15
303.15
303.15
303.15
303.15
303.15
303.15
303.15
303.15
303.15
303.15
303.15
303.15
303.15
303.15
303.15
303.15
303.15
303.15
303.15
303.15
303.15
303.15
303.15
303.15
303.15
303.15
303.15
303.15
303.15
303.15
303.15
303.15
303.15
303.15
303.15
303.15
303.15
303.15
303.15
303.15
303.15
303.15
303.15
303.15
303.15
303.15
303.15
303.15
303.15
303.15
303.15
303.15
303.15
303.15
303.15
303.15
303.15
303.15
303.15
303.15
303.15
303.15
303.15
303.15
303.15
303.15
303.15
303.15
303.15
303.15
303.15
303.15
303.15
303.15
303.15
303.15
303.15
303.15
303.15
303.15
303.15
303.15
303.15
303.15
303.15
303.15
303.15
303.15
303.15
303.15
303.15
303.15
303.15
303.15
303.15
303.15
303.15
303.15
303.15
303.15
303.15
303.15
303.15
303.15
303.15
303.15
303.15
303.15
303.15
303.15
303.15
303.15
303.15
303.15
303.15
303.15
303.15
303.15
303.15
303.15
303.15
303.15
303.15
303.15
303.15
303.15
303.15
303.15
303.15
303.15
303.15
303.15
303.15
303.15
303.15
303.15
303.15
303.15
303.15
303.15
303.15
303.15
303.15
303.15
303.15
303.15
303.15
303.15
303.15
303.15
303.15
303.15
303.15
303.15
303.15
303.15
303.15
303.15
303.15
303.15
303.15
303.15
303.15
303.15
303.15
303.15
303.15
303.15
303.15
303.15
303.15
303.15
303.15
303.15
303.15
303.15
303.15
303.15
303.15
303.15
303.15
303.15
303.15
303.15
303.15
303.15
303.15
303.15
303.15
303.15
303.15
303.15
303.15
303.15
303.15
303.15
303.15
303.15
303.15
303.15
303.15
303.15
303.15
303.15
303.15
303.15
303.15
303.15
303.15
303.15
303.15
303.15
303.15
303.15
303.15
303.15
303.15
303.15
303.15
303.15
303.15
303.15
303.15
303.15
303.15
303.15
303.15
303.15
303.15
303.15
303.15
303.15
303.15
303.15
303.15
303.15
303.15
303.15
303.15
303.15
303.15
303.15
303.15
303.15
303.15
303.15
303.15
303.15
303.15
303.15
303.15
303.15
303.15
303.15
303.15
303.15
303.15
303.15
303.15
303.15
303.15
303.15
303.15
303.15
303.15
303.15
303.15
303.15
303.15
303.15
303.15
303.15
303.15
303.15
303.15
303.15
303.15
303.15
303.15
303.15
303.15
303.15
303.15
303.15
303.15
303.15
303.15
303.15
303.15
303.15
303.15
303.15
303.15
303.15
303.15
303.15
303.15
303.15
303.15
303.15
303.15
303.15
303.15
303.15
303.15
303.15
303.15
303.15
303.15
303.15
303.15
303.15
303.15
303.15
303.15
303.15
303.15
303.15
303.15
303.15
303.15
303.15
303.15
303.15
303.15
303.15
303.15
303.15
303.15
303.15
303.15
303.15
303.15
303.15
303.15
303.15
303.15
303.15
303.15
303.15
303.15
303.15
303.15
303.15
303.15
303.15
303.15
303.15
303.15
303.15
303.15
303.15
303.15
303.15
303.15
303.15
303.15
303.15
303.15
303.15
303.15
303.15
303.15
303.15
303.15
303.15
303.15
303.15
303.15
303.15
303.15
303.15
303.15
303.15
303.15
303.15
303.15
303.15
303.15
303.15
303.15
303.15
303.15
303.15
303.15
303.15
303.15
303.15
303.15
303.15
303.15
303.15
303.15
303.15
303.15
303.15
303.15
303.15
303.15
303.15
303.15
303.15
303.15
303.15
303.15
303.15
303.15
303.15
303.15
303.15
303.15
303.15
303.15
303.15
303.15
303.15
303.15
303.15
303.15
303.15
303.15
303.15
303.15
303.15
303.15
303.15
303.15
303.15
303.15
303.15
303.15
303.15
303.15
303.15
303.15
303.15
303.149
303.149
303.149
303.149
303.149
303.149
303.149
303.149
303.149
303.149
303.149
303.149
303.149
303.149
303.148
303.148
303.148
303.148
303.15
303.15
303.15
303.15
303.15
303.15
303.15
303.149
303.149
303.149
303.149
303.149
303.148
303.148
303.148
303.148
303.148
303.147
303.147
303.147
303.146
303.146
303.146
303.146
303.145
303.145
303.145
303.144
303.144
303.144
303.143
303.143
303.142
303.142
303.142
303.141
303.141
303.14
303.14
303.14
303.139
303.139
303.138
303.137
303.137
303.136
303.136
303.135
303.134
303.133
303.148
303.145
303.143
303.14
303.137
303.135
303.132
303.13
303.127
303.125
303.123
303.12
303.118
303.116
303.113
303.111
303.109
303.107
303.105
303.102
303.1
303.098
303.096
303.094
303.092
303.09
303.088
303.086
303.084
303.082
303.08
303.078
303.077
303.075
303.073
303.071
303.069
303.067
303.066
303.064
303.062
303.06
303.059
303.057
303.055
303.053
303.052
303.05
303.048
303.047
303.085
303.095
302.961
302.695
302.319
301.892
301.493
301.169
300.92
300.716
300.568
300.538
300.547
300.538
300.492
300.434
300.384
300.336
300.296
300.288
303.085
303.09
302.948
302.671
302.286
301.855
301.458
301.141
300.898
300.698
300.551
300.522
300.524
300.509
300.462
300.408
300.363
300.325
300.295
300.295
303.084
303.085
302.934
302.646
302.252
301.818
301.424
301.114
300.877
300.681
300.535
300.508
300.507
300.49
300.443
300.392
300.352
300.32
300.296
300.298
303.084
303.08
302.919
302.62
302.217
301.78
301.391
301.087
300.856
300.664
300.52
300.493
300.492
300.472
300.426
300.378
300.342
300.315
300.296
300.302
303.084
303.074
302.904
302.594
302.182
301.743
301.357
301.061
300.837
300.648
300.506
300.48
300.477
300.455
300.41
300.365
300.333
300.311
300.297
300.306
303.083
303.068
302.888
302.566
302.146
301.706
301.325
301.036
300.817
300.633
300.493
300.467
300.462
300.439
300.395
300.353
300.325
300.308
300.297
300.309
303.082
303.062
302.872
302.538
302.11
301.669
301.293
301.011
300.799
300.618
300.48
300.455
300.448
300.423
300.381
300.342
300.319
300.306
300.298
300.313
303.082
303.055
302.855
302.51
302.073
301.632
301.262
300.988
300.782
300.605
300.468
300.444
300.436
300.409
300.368
300.333
300.313
300.304
300.3
300.316
303.081
303.048
302.837
302.48
302.037
301.596
301.231
300.965
300.765
300.592
300.457
300.433
300.423
300.396
300.357
300.324
300.308
300.303
300.301
300.319
303.08
303.041
302.819
302.451
302.001
301.56
301.202
300.943
300.749
300.579
300.446
300.424
300.412
300.383
300.346
300.317
300.304
300.302
300.302
300.322
303.079
303.033
302.801
302.421
301.964
301.525
301.173
300.922
300.733
300.568
300.437
300.415
300.401
300.372
300.337
300.311
300.301
300.302
300.304
300.325
303.078
303.025
302.782
302.391
301.928
301.49
301.145
300.901
300.719
300.557
300.428
300.407
300.39
300.361
300.328
300.305
300.298
300.302
300.305
300.328
303.077
303.017
302.762
302.36
301.892
301.456
301.118
300.882
300.705
300.547
300.42
300.401
300.38
300.351
300.321
300.301
300.296
300.302
300.307
300.331
303.076
303.009
302.743
302.33
301.857
301.423
301.093
300.863
300.691
300.537
300.413
300.395
300.371
300.342
300.314
300.297
300.295
300.303
300.308
300.333
303.074
303
302.723
302.3
301.822
301.392
301.068
300.845
300.678
300.528
300.407
300.39
300.362
300.334
300.309
300.294
300.294
300.303
300.31
300.336
303.073
302.992
302.703
302.27
301.788
301.361
301.044
300.828
300.666
300.52
300.401
300.387
300.353
300.327
300.304
300.292
300.294
300.304
300.312
300.338
303.071
302.983
302.684
302.241
301.755
301.331
301.021
300.812
300.655
300.512
300.396
300.384
300.345
300.321
300.301
300.291
300.294
300.306
300.313
300.341
303.07
302.974
302.664
302.212
301.723
301.303
300.999
300.796
300.644
300.505
300.392
300.379
300.337
300.316
300.298
300.29
300.294
300.307
300.315
300.343
303.068
302.965
302.645
302.184
301.693
301.275
300.979
300.782
300.633
300.498
300.388
300.366
300.331
300.312
300.296
300.29
300.295
300.308
300.317
300.346
303.066
302.957
302.626
302.157
301.663
301.25
300.959
300.768
300.623
300.492
300.385
300.343
300.325
300.308
300.295
300.29
300.296
300.31
300.319
300.349
303.065
302.948
302.608
302.131
301.635
301.225
300.941
300.754
300.614
300.486
300.383
300.33
300.321
300.306
300.294
300.291
300.298
300.312
300.321
300.351
303.063
302.94
302.59
302.106
301.609
301.203
300.923
300.742
300.605
300.481
300.382
300.328
300.318
300.305
300.294
300.292
300.3
300.314
300.324
300.354
303.062
302.932
302.574
302.083
301.585
301.181
300.907
300.73
300.597
300.477
300.381
300.322
300.315
300.304
300.295
300.293
300.302
300.316
300.326
300.357
303.06
302.925
302.559
302.062
301.562
301.161
300.891
300.718
300.589
300.472
300.38
300.322
300.314
300.304
300.296
300.295
300.305
300.319
300.329
300.36
303.059
302.919
302.545
302.043
301.541
301.143
300.877
300.708
300.581
300.468
300.379
300.321
300.313
300.305
300.298
300.298
300.307
300.322
300.332
300.363
303.058
302.913
302.534
302.026
301.523
301.127
300.864
300.697
300.574
300.465
300.379
300.322
300.313
300.306
300.3
300.3
300.31
300.325
300.336
300.366
303.056
302.908
302.523
302.011
301.507
301.112
300.852
300.688
300.568
300.462
300.379
300.325
300.314
300.308
300.302
300.303
300.314
300.328
300.339
300.369
303.056
302.904
302.515
302
301.493
301.099
300.841
300.679
300.562
300.459
300.379
300.327
300.315
300.31
300.305
300.307
300.317
300.332
300.343
300.372
303.055
302.902
302.509
301.991
301.483
301.088
300.831
300.671
300.556
300.457
300.379
300.33
300.317
300.312
300.308
300.31
300.321
300.335
300.347
300.374
303.055
302.9
302.506
301.985
301.475
301.08
300.822
300.664
300.552
300.456
300.38
300.333
300.319
300.315
300.312
300.314
300.325
300.339
300.352
300.376
303.054
302.9
302.505
301.983
301.471
301.073
300.815
300.658
300.548
300.455
300.382
300.337
300.322
300.319
300.316
300.319
300.33
300.343
300.356
300.378
303.055
302.902
302.507
301.984
301.47
301.069
300.81
300.653
300.544
300.454
300.384
300.34
300.326
300.322
300.32
300.323
300.334
300.348
300.36
300.38
303.055
302.904
302.512
301.989
301.472
301.068
300.806
300.649
300.542
300.455
300.387
300.344
300.33
300.326
300.325
300.328
300.339
300.352
300.363
300.381
303.056
302.909
302.52
301.998
301.478
301.07
300.804
300.645
300.54
300.455
300.39
300.349
300.334
300.331
300.329
300.333
300.344
300.356
300.367
300.382
303.057
302.915
302.532
302.012
301.489
301.075
300.804
300.643
300.539
300.457
300.393
300.354
300.339
300.335
300.334
300.338
300.349
300.36
300.37
300.382
303.058
302.922
302.546
302.03
301.504
301.084
300.806
300.642
300.539
300.459
300.397
300.359
300.344
300.341
300.34
300.344
300.354
300.364
300.373
300.383
303.06
302.931
302.564
302.052
301.525
301.096
300.811
300.643
300.539
300.462
300.402
300.364
300.349
300.346
300.345
300.349
300.359
300.368
300.375
300.383
303.062
302.942
302.586
302.08
301.55
301.113
300.818
300.645
300.541
300.466
300.407
300.37
300.355
300.352
300.351
300.355
300.364
300.372
300.378
300.382
303.064
302.954
302.611
302.114
301.582
301.135
300.829
300.649
300.544
300.47
300.414
300.377
300.362
300.358
300.357
300.361
300.369
300.376
300.38
300.382
303.066
302.967
302.639
302.152
301.62
301.162
300.843
300.655
300.547
300.475
300.42
300.384
300.368
300.364
300.363
300.366
300.374
300.38
300.382
300.382
303.068
302.982
302.671
302.197
301.665
301.196
300.863
300.664
300.552
300.481
300.428
300.392
300.376
300.371
300.37
300.372
300.379
300.384
300.384
300.382
303.071
302.997
302.705
302.247
301.717
301.237
300.887
300.675
300.559
300.488
300.436
300.4
300.384
300.379
300.377
300.379
300.384
300.389
300.386
300.381
303.073
303.013
302.743
302.303
301.778
301.287
300.918
300.691
300.567
300.495
300.444
300.409
300.392
300.387
300.384
300.386
300.39
300.393
300.389
300.382
303.075
303.03
302.782
302.365
301.848
301.346
300.957
300.711
300.577
300.503
300.454
300.419
300.401
300.395
300.392
300.393
300.395
300.397
300.391
300.382
303.076
303.046
302.824
302.432
301.927
301.417
301.006
300.737
300.59
300.513
300.464
300.43
300.411
300.404
300.401
300.4
300.402
300.402
300.394
300.383
303.077
303.063
302.867
302.504
302.016
301.5
301.066
300.771
300.606
300.523
300.474
300.441
300.421
300.414
300.41
300.408
300.408
300.406
300.397
300.384
303.078
303.078
302.91
302.58
302.114
301.597
301.14
300.815
300.628
300.535
300.485
300.453
300.432
300.424
300.419
300.416
300.415
300.411
300.401
300.386
303.078
303.093
302.952
302.659
302.222
301.71
301.232
300.873
300.657
300.549
300.497
300.465
300.443
300.435
300.429
300.425
300.422
300.417
300.405
300.388
303.078
303.106
302.992
302.739
302.338
301.839
301.343
300.948
300.696
300.568
300.509
300.477
300.456
300.446
300.439
300.434
300.429
300.422
300.41
300.39
303.076
303.117
303.029
302.818
302.459
301.983
301.477
301.045
300.75
300.592
300.522
300.489
300.468
300.457
300.449
300.442
300.436
300.428
300.414
300.393
303.074
303.126
303.062
302.893
302.583
302.142
301.636
301.17
300.826
300.627
300.537
300.5
300.48
300.468
300.459
300.451
300.443
300.434
300.419
300.396
303.072
303.132
303.09
302.961
302.706
302.311
301.821
301.328
300.931
300.679
300.558
300.51
300.49
300.478
300.469
300.46
300.451
300.44
300.424
300.4
303.068
303.137
303.112
303.019
302.82
302.485
302.028
301.525
301.076
300.759
300.59
300.522
300.498
300.486
300.477
300.467
300.457
300.445
300.429
300.403
303.064
303.14
303.128
303.067
302.922
302.653
302.251
301.759
301.27
300.882
300.645
300.54
300.505
300.493
300.484
300.474
300.463
300.45
300.433
300.407
303.06
303.141
303.139
303.102
303.005
302.807
302.477
302.026
301.521
301.064
300.741
300.573
300.514
300.497
300.489
300.479
300.468
300.455
300.437
300.411
303.055
303.141
303.145
303.126
303.068
302.935
302.689
302.309
301.825
301.321
300.904
300.643
300.531
300.501
300.492
300.483
300.472
300.458
300.44
300.414
303.05
303.141
303.149
303.14
303.109
303.031
302.867
302.581
302.164
301.659
301.163
300.784
300.577
300.507
300.494
300.485
300.474
300.461
300.443
300.417
303.044
303.14
303.15
303.147
303.133
303.094
303
302.814
302.5
302.055
301.534
301.043
300.695
300.532
300.493
300.485
300.475
300.462
300.445
300.42
303.039
303.138
303.15
303.15
303.145
303.128
303.084
302.983
302.785
302.456
301.993
301.455
300.961
300.632
300.502
300.485
300.475
300.463
300.447
300.422
303.033
303.137
303.15
303.151
303.149
303.144
303.127
303.082
302.983
302.789
302.461
301.99
301.432
300.918
300.594
300.493
300.477
300.464
300.448
300.424
303.027
303.135
303.15
303.151
303.151
303.149
303.144
303.129
303.09
303.003
302.828
302.521
302.057
301.481
300.93
300.588
300.508
300.479
300.457
300.43
303.021
303.134
303.15
303.151
303.151
303.15
303.149
303.145
303.133
303.103
303.035
302.894
302.631
302.203
301.625
301.034
300.673
300.562
300.504
300.459
303.015
303.132
303.149
303.151
303.151
303.151
303.15
303.149
303.145
303.137
303.116
303.069
302.968
302.766
302.407
301.86
301.227
300.849
300.672
300.563
303.009
303.13
303.149
303.151
303.151
303.151
303.151
303.15
303.149
303.146
303.139
303.124
303.093
303.026
302.889
302.621
302.152
301.511
301.087
300.828
303.003
303.128
303.149
303.15
303.151
303.151
303.151
303.15
303.15
303.149
303.146
303.14
303.128
303.106
303.063
302.979
302.805
302.453
301.851
301.367
302.998
303.126
303.148
303.15
303.15
303.15
303.15
303.15
303.15
303.15
303.148
303.145
303.139
303.128
303.109
303.076
303.021
302.919
302.692
302.137
302.993
303.125
303.148
303.15
303.15
303.15
303.15
303.15
303.15
303.15
303.149
303.148
303.145
303.138
303.126
303.105
303.071
303.022
302.955
302.856
302.988
303.123
303.148
303.15
303.15
303.15
303.15
303.15
303.15
303.15
303.15
303.149
303.147
303.143
303.135
303.119
303.092
303.048
302.982
302.889
302.983
303.121
303.147
303.15
303.15
303.15
303.15
303.15
303.15
303.15
303.15
303.15
303.149
303.146
303.141
303.129
303.107
303.067
302.999
302.893
302.979
303.12
303.147
303.15
303.15
303.15
303.15
303.15
303.15
303.15
303.15
303.15
303.149
303.148
303.144
303.136
303.118
303.081
303.014
302.896
302.975
303.118
303.147
303.15
303.15
303.15
303.15
303.15
303.15
303.15
303.15
303.15
303.15
303.149
303.146
303.14
303.125
303.092
303.025
302.898
302.972
303.117
303.147
303.15
303.15
303.15
303.15
303.15
303.15
303.15
303.15
303.15
303.15
303.149
303.148
303.143
303.131
303.101
303.035
302.9
302.969
303.116
303.146
303.15
303.15
303.15
303.15
303.15
303.15
303.15
303.15
303.15
303.15
303.149
303.148
303.145
303.135
303.108
303.043
302.902
302.967
303.115
303.146
303.15
303.15
303.15
303.15
303.15
303.15
303.15
303.15
303.15
303.15
303.15
303.149
303.146
303.138
303.114
303.05
302.904
302.964
303.114
303.146
303.15
303.15
303.15
303.15
303.15
303.15
303.15
303.15
303.15
303.15
303.15
303.149
303.147
303.14
303.118
303.056
302.906
302.963
303.113
303.146
303.15
303.15
303.15
303.15
303.15
303.15
303.15
303.15
303.15
303.15
303.15
303.149
303.148
303.142
303.122
303.061
302.907
302.961
303.112
303.146
303.15
303.15
303.15
303.15
303.15
303.15
303.15
303.15
303.15
303.15
303.15
303.15
303.148
303.143
303.124
303.065
302.909
302.96
303.112
303.146
303.15
303.15
303.15
303.15
303.15
303.15
303.15
303.15
303.15
303.15
303.15
303.15
303.149
303.144
303.127
303.069
302.91
302.959
303.112
303.146
303.15
303.15
303.15
303.15
303.15
303.15
303.15
303.15
303.15
303.15
303.15
303.15
303.149
303.145
303.129
303.072
302.912
302.959
303.111
303.146
303.15
303.15
303.15
303.15
303.15
303.15
303.15
303.15
303.15
303.15
303.15
303.15
303.149
303.145
303.13
303.074
302.913
302.959
303.111
303.146
303.15
303.15
303.15
303.15
303.15
303.15
303.15
303.15
303.15
303.15
303.15
303.15
303.149
303.146
303.132
303.077
302.915
302.958
303.111
303.146
303.15
303.15
303.15
303.15
303.15
303.15
303.15
303.15
303.15
303.15
303.15
303.15
303.149
303.146
303.133
303.079
302.916
302.959
303.111
303.145
303.15
303.15
303.15
303.15
303.15
303.15
303.15
303.15
303.15
303.15
303.15
303.15
303.149
303.147
303.134
303.081
302.918
302.959
303.111
303.145
303.15
303.15
303.15
303.15
303.15
303.15
303.15
303.15
303.15
303.15
303.15
303.15
303.149
303.147
303.135
303.082
302.919
302.959
303.111
303.145
303.15
303.15
303.15
303.15
303.15
303.15
303.15
303.15
303.15
303.15
303.15
303.15
303.149
303.147
303.135
303.084
302.921
302.96
303.111
303.146
303.15
303.15
303.15
303.15
303.15
303.15
303.15
303.15
303.15
303.15
303.15
303.15
303.15
303.147
303.136
303.085
302.922
302.96
303.111
303.146
303.15
303.15
303.15
303.15
303.15
303.15
303.15
303.15
303.15
303.15
303.15
303.15
303.15
303.147
303.136
303.086
302.923
302.961
303.111
303.146
303.15
303.15
303.15
303.15
303.15
303.15
303.15
303.15
303.15
303.15
303.15
303.15
303.15
303.148
303.137
303.087
302.925
302.962
303.111
303.146
303.15
303.15
303.15
303.15
303.15
303.15
303.15
303.15
303.15
303.15
303.15
303.15
303.15
303.148
303.137
303.088
302.926
302.963
303.112
303.146
303.15
303.15
303.15
303.15
303.15
303.15
303.15
303.15
303.15
303.15
303.15
303.15
303.15
303.148
303.138
303.089
302.928
302.964
303.112
303.146
303.15
303.15
303.15
303.15
303.15
303.15
303.15
303.15
303.15
303.15
303.15
303.15
303.15
303.148
303.138
303.09
302.929
302.965
303.112
303.146
303.15
303.15
303.15
303.15
303.15
303.15
303.15
303.15
303.15
303.15
303.15
303.15
303.15
303.148
303.138