/*--------------------------------*- C++ -*----------------------------------*\
  =========                 |
  \\      /  F ield         | OpenFOAM: The Open Source CFD Toolbox
   \\    /   O peration     | Website:  https://openfoam.org
    \\  /    A nd           | Version:  8
     \\/     M anipulation  |
\*---------------------------------------------------------------------------*/
FoamFile
{
    version     2.0;
    format      ascii;
    class       volScalarField;
    location    "700";
    object      epsilon;
}
// * * * * * * * * * * * * * * * * * * * * * * * * * * * * * * * * * * * * * //

dimensions      [0 2 -3 0 0 0 0];

internalField   nonuniform List<scalar> 
1200
(
1.13863
0.888651
0.710518
0.579998
0.481996
0.406849
0.348166
0.3016
0.264117
0.233557
0.208352
0.187348
0.169678
0.154684
0.141862
0.130817
0.12124
0.112885
0.105555
0.0990911
0.0933633
0.0882648
0.0837076
0.0796184
0.0759356
0.0726076
0.0695905
0.0668471
0.0643456
0.0620584
0.0599621
0.0580361
0.0562626
0.0546261
0.0531129
0.0517112
0.0504102
0.0492007
0.0480743
0.0470237
0.0460424
0.0451243
0.0442643
0.0434576
0.0426999
0.0419873
0.0413164
0.040684
0.0400872
0.0395234
0.0389902
0.0384855
0.0380072
0.0375535
0.0371228
0.0367134
0.0363241
0.0359534
0.0356004
0.0352636
1.45211
0.919932
0.613991
0.427778
0.308864
0.229738
0.175234
0.136569
0.108435
0.087506
0.0716313
0.0593821
0.0497852
0.0421632
0.0360351
0.0310531
0.0269621
0.0235718
0.0207386
0.0183527
0.0163291
0.0146017
0.013118
0.0118365
0.0107239
0.00975308
0.00890216
0.0081531
0.00749106
0.00690373
0.00638082
0.0059137
0.0054951
0.00511885
0.00477971
0.00447319
0.00419545
0.00394317
0.00371349
0.0035039
0.00331223
0.00313659
0.00297535
0.00282703
0.00269037
0.00256424
0.00244763
0.00233966
0.00223954
0.00214656
0.00206009
0.00197956
0.00190447
0.00183436
0.00176882
0.00170747
0.00164995
0.00159581
0.00154434
0.00149056
1.45109
0.915219
0.607842
0.421011
0.301933
0.222952
0.16876
0.130481
0.102756
0.0822296
0.0667385
0.054847
0.0455792
0.0382576
0.0324024
0.027668
0.0238011
0.0206138
0.0179644
0.0157451
0.0138728
0.0122829
0.0109244
0.00975716
0.00874887
0.00787359
0.00711025
0.00644164
0.00585362
0.00533448
0.00487448
0.00446551
0.00410072
0.00377434
0.00348147
0.00321795
0.00298021
0.00276519
0.00257026
0.00239317
0.00223193
0.00208481
0.00195031
0.00182712
0.00171407
0.00161016
0.00151447
0.00142623
0.00134471
0.0012693
0.00119944
0.00113463
0.00107442
0.00101841
0.000966251
0.000917612
0.000872203
0.000829754
0.00079001
0.000752663
1.45109
0.916295
0.609182
0.422337
0.30311
0.223944
0.169575
0.131142
0.10329
0.0826609
0.0670876
0.0551303
0.0458102
0.0384467
0.032558
0.0277965
0.0239078
0.0207026
0.0180386
0.0158073
0.0139252
0.012327
0.0109617
0.00978877
0.00877567
0.00789633
0.00712955
0.00645801
0.00586749
0.00534621
0.00488438
0.00447382
0.00410766
0.0037801
0.0034862
0.00322178
0.00298326
0.00276756
0.00257203
0.00239438
0.00223263
0.00208504
0.00195011
0.00182651
0.00171309
0.00160882
0.0015128
0.00142424
0.00134244
0.00126675
0.00119663
0.00113156
0.00107112
0.00101489
0.000962513
0.000913671
0.000868069
0.000825444
0.000785558
0.000748195
1.45109
0.916297
0.609052
0.422133
0.302881
0.223721
0.169374
0.130969
0.103145
0.082541
0.0669893
0.0550502
0.0457449
0.0383935
0.0325146
0.0277611
0.0238787
0.0206788
0.018019
0.0157912
0.0139118
0.012316
0.0109526
0.00978112
0.0087693
0.00789102
0.00712511
0.00645431
0.0058644
0.00534362
0.00488223
0.00447203
0.00410617
0.00377886
0.00348518
0.00322094
0.00298258
0.00276701
0.00257159
0.00239404
0.00223236
0.00208484
0.00194997
0.00182642
0.00171304
0.0016088
0.00151282
0.00142428
0.00134249
0.00126682
0.00119671
0.00113166
0.00107122
0.001015
0.00096263
0.00091379
0.00086819
0.000825566
0.00078568
0.000748316
1.45109
0.916297
0.609052
0.422133
0.302882
0.223721
0.169374
0.13097
0.103145
0.0825411
0.0669894
0.0550503
0.045745
0.0383936
0.0325147
0.0277612
0.0238788
0.0206788
0.018019
0.0157912
0.0139118
0.012316
0.0109526
0.00978113
0.0087693
0.00789102
0.00712511
0.00645431
0.00586439
0.00534362
0.00488222
0.00447202
0.00410616
0.00377885
0.00348517
0.00322093
0.00298257
0.002767
0.00257158
0.00239403
0.00223235
0.00208483
0.00194996
0.00182641
0.00171303
0.00160879
0.00151281
0.00142427
0.00134248
0.00126681
0.0011967
0.00113165
0.00107122
0.00101499
0.000962622
0.000913783
0.000868183
0.000825559
0.000785673
0.00074831
1.45109
0.916294
0.609182
0.422336
0.30311
0.223943
0.169574
0.131142
0.10329
0.0826608
0.0670875
0.0551303
0.0458101
0.0384467
0.032558
0.0277965
0.0239077
0.0207026
0.0180386
0.0158073
0.0139252
0.012327
0.0109617
0.00978876
0.00877566
0.00789632
0.00712953
0.006458
0.00586747
0.00534619
0.00488436
0.00447381
0.00410765
0.00378008
0.00348618
0.00322176
0.00298324
0.00276754
0.00257201
0.00239437
0.00223261
0.00208502
0.00195009
0.00182649
0.00171307
0.0016088
0.00151278
0.00142422
0.00134241
0.00126673
0.0011966
0.00113154
0.00107109
0.00101486
0.000962486
0.000913643
0.00086804
0.000825414
0.000785526
0.000748163
1.45109
0.91522
0.607843
0.421012
0.301934
0.222953
0.168761
0.130482
0.102756
0.0822298
0.0667387
0.0548471
0.0455792
0.0382576
0.0324025
0.027668
0.0238012
0.0206138
0.0179644
0.0157451
0.0138728
0.0122829
0.0109244
0.00975716
0.00874887
0.00787359
0.00711025
0.00644163
0.00585361
0.00533446
0.00487447
0.0044655
0.0041007
0.00377432
0.00348145
0.00321792
0.00298018
0.00276516
0.00257023
0.00239311
0.00223182
0.00208463
0.00195006
0.00182677
0.00171363
0.00160961
0.00151382
0.00142548
0.00134388
0.00126839
0.00119846
0.00113358
0.0010733
0.00101724
0.000965017
0.000916323
0.000870861
0.000828362
0.000788569
0.00075121
1.45211
0.919934
0.613995
0.427783
0.308869
0.229744
0.175241
0.136578
0.108445
0.0875164
0.0716421
0.0593931
0.0497962
0.042174
0.0360455
0.031063
0.0269714
0.0235805
0.0207467
0.0183602
0.0163362
0.0146082
0.0131241
0.0118422
0.0107291
0.00975795
0.00890669
0.00815732
0.007495
0.00690739
0.00638421
0.00591683
0.00549796
0.00512146
0.00478207
0.00447533
0.00419738
0.0039449
0.00371504
0.00350531
0.00331353
0.00313782
0.00297651
0.00282816
0.00269149
0.00256535
0.00244874
0.00234076
0.00224062
0.00214763
0.00206114
0.0019806
0.0019055
0.00183539
0.00176985
0.0017085
0.00165098
0.00159684
0.00154536
0.0014914
1.13863
0.888649
0.710515
0.579994
0.481993
0.406846
0.348163
0.301597
0.264114
0.233554
0.20835
0.187346
0.169676
0.154682
0.14186
0.130815
0.121238
0.112883
0.105554
0.0990898
0.0933621
0.0882637
0.0837066
0.0796174
0.0759347
0.0726067
0.0695897
0.0668463
0.0643448
0.0620577
0.0599614
0.0580355
0.056262
0.0546255
0.0531124
0.0517106
0.0504096
0.0492001
0.0480738
0.0470232
0.0460418
0.0451238
0.0442638
0.0434571
0.0426994
0.0419868
0.0413159
0.0406835
0.0400867
0.0395229
0.0389897
0.0384849
0.0380066
0.0375529
0.0371221
0.0367128
0.0363234
0.0359527
0.0355997
0.0352629
1.13863
0.888647
0.71051
0.579988
0.481986
0.40684
0.348159
0.301594
0.264111
0.233552
0.208348
0.187344
0.169675
0.154681
0.141859
0.130814
0.121238
0.112883
0.105554
0.0990899
0.0933623
0.0882639
0.0837068
0.0796176
0.0759349
0.0726069
0.0695899
0.0668465
0.0643449
0.0620578
0.0599615
0.0580355
0.056262
0.0546255
0.0531123
0.0517105
0.0504095
0.0492
0.0480736
0.047023
0.0460417
0.0451236
0.0442636
0.0434568
0.0426991
0.0419865
0.0413156
0.0406832
0.0400864
0.0395225
0.0389893
0.0384846
0.0380063
0.0375526
0.0371218
0.0367125
0.0363231
0.0359525
0.0355995
0.0352627
1.45211
0.919935
0.613992
0.427777
0.308864
0.229738
0.175232
0.136566
0.108431
0.0875007
0.0716259
0.0593773
0.0497815
0.0421607
0.0360337
0.0310528
0.0269628
0.0235732
0.0207404
0.0183546
0.0163311
0.0146036
0.0131197
0.0118381
0.0107252
0.00975423
0.00890316
0.00815402
0.00749196
0.00690463
0.00638174
0.00591466
0.00549611
0.00511991
0.00478082
0.00447435
0.00419664
0.00394439
0.00371471
0.00350511
0.00331343
0.00313777
0.0029765
0.00282815
0.00269146
0.00256529
0.00244864
0.00234062
0.00224045
0.00214742
0.00206091
0.00198036
0.00190525
0.00183514
0.0017696
0.00170826
0.00165074
0.00159661
0.00154515
0.00149132
1.45109
0.915221
0.607846
0.421014
0.301935
0.222953
0.16876
0.130481
0.102755
0.0822289
0.0667378
0.0548462
0.0455785
0.038257
0.0324019
0.0276675
0.0238007
0.0206134
0.017964
0.0157447
0.0138725
0.0122826
0.0109242
0.00975694
0.00874867
0.0078734
0.00711008
0.00644148
0.00585346
0.00533433
0.00487435
0.00446538
0.00410059
0.00377422
0.00348135
0.00321784
0.0029801
0.00276509
0.00257016
0.00239307
0.00223183
0.00208471
0.00195021
0.00182702
0.00171397
0.00161005
0.00151437
0.00142612
0.0013446
0.00126919
0.00119933
0.00113451
0.0010743
0.00101829
0.000966133
0.000917493
0.000872083
0.000829634
0.000789889
0.000752541
1.45109
0.916294
0.609182
0.422337
0.30311
0.223943
0.169574
0.131142
0.103289
0.0826602
0.067087
0.0551299
0.0458098
0.0384464
0.0325577
0.0277963
0.0239076
0.0207024
0.0180384
0.0158072
0.0139251
0.0123269
0.0109617
0.00978869
0.0087756
0.00789626
0.00712949
0.00645796
0.00586744
0.00534616
0.00488433
0.00447378
0.00410762
0.00378005
0.00348616
0.00322174
0.00298322
0.00276752
0.00257199
0.00239435
0.00223259
0.002085
0.00195007
0.00182647
0.00171305
0.00160878
0.00151276
0.00142421
0.0013424
0.00126671
0.00119659
0.00113152
0.00107108
0.00101485
0.000962473
0.000913631
0.000868029
0.000825404
0.000785517
0.000748155
1.45109
0.916297
0.609053
0.422134
0.302882
0.223721
0.169374
0.130969
0.103144
0.0825404
0.0669888
0.0550497
0.0457445
0.0383932
0.0325143
0.0277608
0.0238785
0.0206785
0.0180188
0.015791
0.0139117
0.0123158
0.0109524
0.009781
0.00876919
0.00789092
0.00712502
0.00645422
0.00586431
0.00534355
0.00488215
0.00447196
0.0041061
0.00377879
0.00348512
0.00322088
0.00298252
0.00276695
0.00257154
0.00239398
0.00223231
0.00208479
0.00194991
0.00182637
0.00171298
0.00160875
0.00151277
0.00142423
0.00134244
0.00126677
0.00119666
0.00113161
0.00107118
0.00101495
0.000962584
0.000913745
0.000868145
0.000825521
0.000785636
0.000748273
1.45109
0.916297
0.609053
0.422134
0.302882
0.223721
0.169374
0.130969
0.103144
0.0825407
0.066989
0.0550499
0.0457446
0.0383933
0.0325144
0.0277609
0.0238786
0.0206786
0.0180189
0.015791
0.0139117
0.0123158
0.0109524
0.00978102
0.00876921
0.00789093
0.00712503
0.00645423
0.00586432
0.00534355
0.00488216
0.00447196
0.00410611
0.00377879
0.00348511
0.00322088
0.00298252
0.00276695
0.00257153
0.00239398
0.00223231
0.00208479
0.00194991
0.00182636
0.00171298
0.00160875
0.00151276
0.00142423
0.00134244
0.00126677
0.00119666
0.00113161
0.00107117
0.00101495
0.00096258
0.000913741
0.000868142
0.000825518
0.000785632
0.000748269
1.45109
0.916294
0.609182
0.422336
0.30311
0.223943
0.169574
0.131141
0.103289
0.0826602
0.067087
0.0551299
0.0458098
0.0384464
0.0325578
0.0277963
0.0239076
0.0207024
0.0180385
0.0158072
0.0139251
0.0123269
0.0109617
0.00978869
0.0087756
0.00789626
0.00712949
0.00645795
0.00586743
0.00534615
0.00488433
0.00447377
0.00410761
0.00378005
0.00348615
0.00322173
0.00298321
0.00276751
0.00257199
0.00239434
0.00223258
0.00208499
0.00195006
0.00182646
0.00171304
0.00160877
0.00151275
0.0014242
0.00134239
0.0012667
0.00119657
0.00113151
0.00107107
0.00101484
0.00096246
0.000913617
0.000868014
0.000825388
0.000785501
0.000748137
1.45109
0.915222
0.607847
0.421015
0.301936
0.222954
0.168761
0.130482
0.102756
0.0822294
0.0667382
0.0548466
0.0455788
0.0382572
0.0324021
0.0276677
0.0238008
0.0206135
0.0179641
0.0157448
0.0138726
0.0122827
0.0109242
0.009757
0.00874872
0.00787345
0.00711012
0.00644152
0.0058535
0.00533436
0.00487437
0.0044654
0.00410061
0.00377423
0.00348136
0.00321784
0.0029801
0.00276508
0.00257015
0.00239303
0.00223174
0.00208456
0.00194998
0.0018267
0.00171356
0.00160954
0.00151377
0.00142543
0.00134384
0.00126835
0.00119842
0.00113354
0.00107327
0.0010172
0.000964987
0.000916294
0.000870833
0.000828334
0.000788541
0.00075118
1.45211
0.919937
0.613997
0.427786
0.308874
0.22975
0.175247
0.136581
0.108446
0.0875163
0.0716409
0.0593914
0.0497945
0.0421725
0.0360443
0.0310623
0.0269712
0.0235806
0.020747
0.0183605
0.0163363
0.0146081
0.0131238
0.0118416
0.0107283
0.0097569
0.00890547
0.00815599
0.00749362
0.00690601
0.0063829
0.00591563
0.00549692
0.0051206
0.0047814
0.00447482
0.00419703
0.00394469
0.00371494
0.00350529
0.00331359
0.00313793
0.00297666
0.00282834
0.00269168
0.00256555
0.00244893
0.00234094
0.00224079
0.00214778
0.00206128
0.00198074
0.00190563
0.00183551
0.00176997
0.00170862
0.00165109
0.00159695
0.00154546
0.00149148
1.13864
0.888649
0.710511
0.579988
0.481986
0.40684
0.348158
0.301593
0.264111
0.233551
0.208347
0.187344
0.169674
0.154681
0.141858
0.130814
0.121237
0.112882
0.105553
0.0990891
0.0933614
0.0882631
0.083706
0.0796168
0.0759341
0.0726061
0.0695891
0.0668457
0.0643442
0.0620571
0.0599608
0.0580348
0.0562613
0.0546248
0.0531116
0.0517098
0.0504088
0.0491993
0.0480729
0.0470224
0.046041
0.0451229
0.0442629
0.0434561
0.0426984
0.0419858
0.0413149
0.0406825
0.0400856
0.0395218
0.0389886
0.0384838
0.0380055
0.0375517
0.037121
0.0367116
0.0363222
0.0359515
0.0355984
0.0352616
)
;

boundaryField
{
    wall
    {
        type            epsilonWallFunction;
        value           nonuniform List<scalar> 
1200
(
1.13863
1.45211
1.45109
1.45109
1.45109
1.45109
1.45109
1.45109
1.45211
1.13863
0.888651
0.919932
0.915219
0.916295
0.916297
0.916297
0.916294
0.91522
0.919934
0.888649
0.710518
0.613991
0.607842
0.609182
0.609052
0.609052
0.609182
0.607843
0.613995
0.710515
0.579998
0.427778
0.421011
0.422337
0.422133
0.422133
0.422336
0.421012
0.427783
0.579994
0.481996
0.308864
0.301933
0.30311
0.302881
0.302882
0.30311
0.301934
0.308869
0.481993
0.406849
0.229738
0.222952
0.223944
0.223721
0.223721
0.223943
0.222953
0.229744
0.406846
0.348166
0.175234
0.16876
0.169575
0.169374
0.169374
0.169574
0.168761
0.175241
0.348163
0.3016
0.136569
0.130481
0.131142
0.130969
0.13097
0.131142
0.130482
0.136578
0.301597
0.264117
0.108435
0.102756
0.10329
0.103145
0.103145
0.10329
0.102756
0.108445
0.264114
0.233557
0.087506
0.0822296
0.0826609
0.082541
0.0825411
0.0826608
0.0822298
0.0875164
0.233554
0.208352
0.0716313
0.0667385
0.0670876
0.0669893
0.0669894
0.0670875
0.0667387
0.0716421
0.20835
0.187348
0.0593821
0.054847
0.0551303
0.0550502
0.0550503
0.0551303
0.0548471
0.0593931
0.187346
0.169678
0.0497852
0.0455792
0.0458102
0.0457449
0.045745
0.0458101
0.0455792
0.0497962
0.169676
0.154684
0.0421632
0.0382576
0.0384467
0.0383935
0.0383936
0.0384467
0.0382576
0.042174
0.154682
0.141862
0.0360351
0.0324024
0.032558
0.0325146
0.0325147
0.032558
0.0324025
0.0360455
0.14186
0.130817
0.0310531
0.027668
0.0277965
0.0277611
0.0277612
0.0277965
0.027668
0.031063
0.130815
0.12124
0.0269621
0.0238011
0.0239078
0.0238787
0.0238788
0.0239077
0.0238012
0.0269714
0.121238
0.112885
0.0235718
0.0206138
0.0207026
0.0206788
0.0206788
0.0207026
0.0206138
0.0235805
0.112883
0.105555
0.0207386
0.0179644
0.0180386
0.018019
0.018019
0.0180386
0.0179644
0.0207467
0.105554
0.0990911
0.0183527
0.0157451
0.0158073
0.0157912
0.0157912
0.0158073
0.0157451
0.0183602
0.0990898
0.0933633
0.0163291
0.0138728
0.0139252
0.0139118
0.0139118
0.0139252
0.0138728
0.0163362
0.0933621
0.0882648
0.0146017
0.0122829
0.012327
0.012316
0.012316
0.012327
0.0122829
0.0146082
0.0882637
0.0837076
0.013118
0.0109244
0.0109617
0.0109526
0.0109526
0.0109617
0.0109244
0.0131241
0.0837066
0.0796184
0.0118365
0.00975716
0.00978877
0.00978112
0.00978113
0.00978876
0.00975716
0.0118422
0.0796174
0.0759356
0.0107239
0.00874887
0.00877567
0.0087693
0.0087693
0.00877566
0.00874887
0.0107291
0.0759347
0.0726076
0.00975308
0.00787359
0.00789633
0.00789102
0.00789102
0.00789632
0.00787359
0.00975795
0.0726067
0.0695905
0.00890216
0.00711025
0.00712955
0.00712511
0.00712511
0.00712953
0.00711025
0.00890669
0.0695897
0.0668471
0.0081531
0.00644164
0.00645801
0.00645431
0.00645431
0.006458
0.00644163
0.00815732
0.0668463
0.0643456
0.00749106
0.00585362
0.00586749
0.0058644
0.00586439
0.00586747
0.00585361
0.007495
0.0643448
0.0620584
0.00690373
0.00533448
0.00534621
0.00534362
0.00534362
0.00534619
0.00533446
0.00690739
0.0620577
0.0599621
0.00638082
0.00487448
0.00488438
0.00488223
0.00488222
0.00488436
0.00487447
0.00638421
0.0599614
0.0580361
0.0059137
0.00446551
0.00447382
0.00447203
0.00447202
0.00447381
0.0044655
0.00591683
0.0580355
0.0562626
0.0054951
0.00410072
0.00410766
0.00410617
0.00410616
0.00410765
0.0041007
0.00549796
0.056262
0.0546261
0.00511885
0.00377434
0.0037801
0.00377886
0.00377885
0.00378008
0.00377432
0.00512146
0.0546255
0.0531129
0.00477971
0.00348147
0.0034862
0.00348518
0.00348517
0.00348618
0.00348145
0.00478207
0.0531124
0.0517112
0.00447319
0.00321795
0.00322178
0.00322094
0.00322093
0.00322176
0.00321792
0.00447533
0.0517106
0.0504102
0.00419545
0.00298021
0.00298326
0.00298258
0.00298257
0.00298324
0.00298018
0.00419738
0.0504096
0.0492007
0.00394317
0.00276519
0.00276756
0.00276701
0.002767
0.00276754
0.00276516
0.0039449
0.0492001
0.0480743
0.00371349
0.00257026
0.00257203
0.00257159
0.00257158
0.00257201
0.00257023
0.00371504
0.0480738
0.0470237
0.0035039
0.00239317
0.00239438
0.00239404
0.00239403
0.00239437
0.00239311
0.00350531
0.0470232
0.0460424
0.00331223
0.00223193
0.00223263
0.00223236
0.00223235
0.00223261
0.00223182
0.00331353
0.0460418
0.0451243
0.00313659
0.00208481
0.00208504
0.00208484
0.00208483
0.00208502
0.00208463
0.00313782
0.0451238
0.0442643
0.00297535
0.00195031
0.00195011
0.00194997
0.00194996
0.00195009
0.00195006
0.00297651
0.0442638
0.0434576
0.00282703
0.00182712
0.00182651
0.00182642
0.00182641
0.00182649
0.00182677
0.00282816
0.0434571
0.0426999
0.00269037
0.00171407
0.00171309
0.00171304
0.00171303
0.00171307
0.00171363
0.00269149
0.0426994
0.0419873
0.00256424
0.00161016
0.00160882
0.0016088
0.00160879
0.0016088
0.00160961
0.00256535
0.0419868
0.0413164
0.00244763
0.00151447
0.0015128
0.00151282
0.00151281
0.00151278
0.00151382
0.00244874
0.0413159
0.040684
0.00233966
0.00142623
0.00142424
0.00142428
0.00142427
0.00142422
0.00142548
0.00234076
0.0406835
0.0400872
0.00223954
0.00134471
0.00134244
0.00134249
0.00134248
0.00134241
0.00134388
0.00224062
0.0400867
0.0395234
0.00214656
0.0012693
0.00126675
0.00126682
0.00126681
0.00126673
0.00126839
0.00214763
0.0395229
0.0389902
0.00206009
0.00119944
0.00119663
0.00119671
0.0011967
0.0011966
0.00119846
0.00206114
0.0389897
0.0384855
0.00197956
0.00113463
0.00113156
0.00113166
0.00113165
0.00113154
0.00113358
0.0019806
0.0384849
0.0380072
0.00190447
0.00107442
0.00107112
0.00107122
0.00107122
0.00107109
0.0010733
0.0019055
0.0380066
0.0375535
0.00183436
0.00101841
0.00101489
0.001015
0.00101499
0.00101486
0.00101724
0.00183539
0.0375529
0.0371228
0.00176882
0.000966251
0.000962513
0.00096263
0.000962622
0.000962486
0.000965017
0.00176985
0.0371221
0.0367134
0.00170747
0.000917612
0.000913671
0.00091379
0.000913783
0.000913643
0.000916323
0.0017085
0.0367128
0.0363241
0.00164995
0.000872203
0.000868069
0.00086819
0.000868183
0.00086804
0.000870861
0.00165098
0.0363234
0.0359534
0.00159581
0.000829754
0.000825444
0.000825566
0.000825559
0.000825414
0.000828362
0.00159684
0.0359527
0.0356004
0.00154434
0.00079001
0.000785558
0.00078568
0.000785673
0.000785526
0.000788569
0.00154536
0.0355997
0.0352636
0.00149056
0.000752663
0.000748195
0.000748316
0.00074831
0.000748163
0.00075121
0.0014914
0.0352629
1.13863
1.45211
1.45109
1.45109
1.45109
1.45109
1.45109
1.45109
1.45211
1.13864
0.888647
0.919935
0.915221
0.916294
0.916297
0.916297
0.916294
0.915222
0.919937
0.888649
0.71051
0.613992
0.607846
0.609182
0.609053
0.609053
0.609182
0.607847
0.613997
0.710511
0.579988
0.427777
0.421014
0.422337
0.422134
0.422134
0.422336
0.421015
0.427786
0.579988
0.481986
0.308864
0.301935
0.30311
0.302882
0.302882
0.30311
0.301936
0.308874
0.481986
0.40684
0.229738
0.222953
0.223943
0.223721
0.223721
0.223943
0.222954
0.22975
0.40684
0.348159
0.175232
0.16876
0.169574
0.169374
0.169374
0.169574
0.168761
0.175247
0.348158
0.301594
0.136566
0.130481
0.131142
0.130969
0.130969
0.131141
0.130482
0.136581
0.301593
0.264111
0.108431
0.102755
0.103289
0.103144
0.103144
0.103289
0.102756
0.108446
0.264111
0.233552
0.0875007
0.0822289
0.0826602
0.0825404
0.0825407
0.0826602
0.0822294
0.0875163
0.233551
0.208348
0.0716259
0.0667378
0.067087
0.0669888
0.066989
0.067087
0.0667382
0.0716409
0.208347
0.187344
0.0593773
0.0548462
0.0551299
0.0550497
0.0550499
0.0551299
0.0548466
0.0593914
0.187344
0.169675
0.0497815
0.0455785
0.0458098
0.0457445
0.0457446
0.0458098
0.0455788
0.0497945
0.169674
0.154681
0.0421607
0.038257
0.0384464
0.0383932
0.0383933
0.0384464
0.0382572
0.0421725
0.154681
0.141859
0.0360337
0.0324019
0.0325577
0.0325143
0.0325144
0.0325578
0.0324021
0.0360443
0.141858
0.130814
0.0310528
0.0276675
0.0277963
0.0277608
0.0277609
0.0277963
0.0276677
0.0310623
0.130814
0.121238
0.0269628
0.0238007
0.0239076
0.0238785
0.0238786
0.0239076
0.0238008
0.0269712
0.121237
0.112883
0.0235732
0.0206134
0.0207024
0.0206785
0.0206786
0.0207024
0.0206135
0.0235806
0.112882
0.105554
0.0207404
0.017964
0.0180384
0.0180188
0.0180189
0.0180385
0.0179641
0.020747
0.105553
0.0990899
0.0183546
0.0157447
0.0158072
0.015791
0.015791
0.0158072
0.0157448
0.0183605
0.0990891
0.0933623
0.0163311
0.0138725
0.0139251
0.0139117
0.0139117
0.0139251
0.0138726
0.0163363
0.0933614
0.0882639
0.0146036
0.0122826
0.0123269
0.0123158
0.0123158
0.0123269
0.0122827
0.0146081
0.0882631
0.0837068
0.0131197
0.0109242
0.0109617
0.0109524
0.0109524
0.0109617
0.0109242
0.0131238
0.083706
0.0796176
0.0118381
0.00975694
0.00978869
0.009781
0.00978102
0.00978869
0.009757
0.0118416
0.0796168
0.0759349
0.0107252
0.00874867
0.0087756
0.00876919
0.00876921
0.0087756
0.00874872
0.0107283
0.0759341
0.0726069
0.00975423
0.0078734
0.00789626
0.00789092
0.00789093
0.00789626
0.00787345
0.0097569
0.0726061
0.0695899
0.00890316
0.00711008
0.00712949
0.00712502
0.00712503
0.00712949
0.00711012
0.00890547
0.0695891
0.0668465
0.00815402
0.00644148
0.00645796
0.00645422
0.00645423
0.00645795
0.00644152
0.00815599
0.0668457
0.0643449
0.00749196
0.00585346
0.00586744
0.00586431
0.00586432
0.00586743
0.0058535
0.00749362
0.0643442
0.0620578
0.00690463
0.00533433
0.00534616
0.00534355
0.00534355
0.00534615
0.00533436
0.00690601
0.0620571
0.0599615
0.00638174
0.00487435
0.00488433
0.00488215
0.00488216
0.00488433
0.00487437
0.0063829
0.0599608
0.0580355
0.00591466
0.00446538
0.00447378
0.00447196
0.00447196
0.00447377
0.0044654
0.00591563
0.0580348
0.056262
0.00549611
0.00410059
0.00410762
0.0041061
0.00410611
0.00410761
0.00410061
0.00549692
0.0562613
0.0546255
0.00511991
0.00377422
0.00378005
0.00377879
0.00377879
0.00378005
0.00377423
0.0051206
0.0546248
0.0531123
0.00478082
0.00348135
0.00348616
0.00348512
0.00348511
0.00348615
0.00348136
0.0047814
0.0531116
0.0517105
0.00447435
0.00321784
0.00322174
0.00322088
0.00322088
0.00322173
0.00321784
0.00447482
0.0517098
0.0504095
0.00419664
0.0029801
0.00298322
0.00298252
0.00298252
0.00298321
0.0029801
0.00419703
0.0504088
0.0492
0.00394439
0.00276509
0.00276752
0.00276695
0.00276695
0.00276751
0.00276508
0.00394469
0.0491993
0.0480736
0.00371471
0.00257016
0.00257199
0.00257154
0.00257153
0.00257199
0.00257015
0.00371494
0.0480729
0.047023
0.00350511
0.00239307
0.00239435
0.00239398
0.00239398
0.00239434
0.00239303
0.00350529
0.0470224
0.0460417
0.00331343
0.00223183
0.00223259
0.00223231
0.00223231
0.00223258
0.00223174
0.00331359
0.046041
0.0451236
0.00313777
0.00208471
0.002085
0.00208479
0.00208479
0.00208499
0.00208456
0.00313793
0.0451229
0.0442636
0.0029765
0.00195021
0.00195007
0.00194991
0.00194991
0.00195006
0.00194998
0.00297666
0.0442629
0.0434568
0.00282815
0.00182702
0.00182647
0.00182637
0.00182636
0.00182646
0.0018267
0.00282834
0.0434561
0.0426991
0.00269146
0.00171397
0.00171305
0.00171298
0.00171298
0.00171304
0.00171356
0.00269168
0.0426984
0.0419865
0.00256529
0.00161005
0.00160878
0.00160875
0.00160875
0.00160877
0.00160954
0.00256555
0.0419858
0.0413156
0.00244864
0.00151437
0.00151276
0.00151277
0.00151276
0.00151275
0.00151377
0.00244893
0.0413149
0.0406832
0.00234062
0.00142612
0.00142421
0.00142423
0.00142423
0.0014242
0.00142543
0.00234094
0.0406825
0.0400864
0.00224045
0.0013446
0.0013424
0.00134244
0.00134244
0.00134239
0.00134384
0.00224079
0.0400856
0.0395225
0.00214742
0.00126919
0.00126671
0.00126677
0.00126677
0.0012667
0.00126835
0.00214778
0.0395218
0.0389893
0.00206091
0.00119933
0.00119659
0.00119666
0.00119666
0.00119657
0.00119842
0.00206128
0.0389886
0.0384846
0.00198036
0.00113451
0.00113152
0.00113161
0.00113161
0.00113151
0.00113354
0.00198074
0.0384838
0.0380063
0.00190525
0.0010743
0.00107108
0.00107118
0.00107117
0.00107107
0.00107327
0.00190563
0.0380055
0.0375526
0.00183514
0.00101829
0.00101485
0.00101495
0.00101495
0.00101484
0.0010172
0.00183551
0.0375517
0.0371218
0.0017696
0.000966133
0.000962473
0.000962584
0.00096258
0.00096246
0.000964987
0.00176997
0.037121
0.0367125
0.00170826
0.000917493
0.000913631
0.000913745
0.000913741
0.000913617
0.000916294
0.00170862
0.0367116
0.0363231
0.00165074
0.000872083
0.000868029
0.000868145
0.000868142
0.000868014
0.000870833
0.00165109
0.0363222
0.0359525
0.00159661
0.000829634
0.000825404
0.000825521
0.000825518
0.000825388
0.000828334
0.00159695
0.0359515
0.0355995
0.00154515
0.000789889
0.000785517
0.000785636
0.000785632
0.000785501
0.000788541
0.00154546
0.0355984
0.0352627
0.00149132
0.000752541
0.000748155
0.000748273
0.000748269
0.000748137
0.00075118
0.00149148
0.0352616
)
;
    }
    inlet
    {
        type            turbulentMixingLengthDissipationRateInlet;
        mixingLength    0.071;
        phi             phi;
        k               k;
        value           uniform 0.0340134;
    }
    outlet
    {
        type            inletOutlet;
        inletValue      uniform 0.0001;
        value           nonuniform List<scalar> 
20
(
0.0352636
0.00149056
0.000752663
0.000748195
0.000748316
0.00074831
0.000748163
0.00075121
0.0014914
0.0352629
0.0352627
0.00149132
0.000752541
0.000748155
0.000748273
0.000748269
0.000748137
0.00075118
0.00149148
0.0352616
)
;
    }
    heatWall
    {
        type            epsilonWallFunction;
        value           nonuniform List<scalar> 
240
(
1.13863
1.13864
0.888649
0.888649
0.710515
0.710511
0.579994
0.579988
0.481993
0.481986
0.406846
0.40684
0.348163
0.348158
0.301597
0.301593
0.264114
0.264111
0.233554
0.233551
0.20835
0.208347
0.187346
0.187344
0.169676
0.169674
0.154682
0.154681
0.14186
0.141858
0.130815
0.130814
0.121238
0.121237
0.112883
0.112882
0.105554
0.105553
0.0990898
0.0990891
0.0933621
0.0933614
0.0882637
0.0882631
0.0837066
0.083706
0.0796174
0.0796168
0.0759347
0.0759341
0.0726067
0.0726061
0.0695897
0.0695891
0.0668463
0.0668457
0.0643448
0.0643442
0.0620577
0.0620571
0.0599614
0.0599608
0.0580355
0.0580348
0.056262
0.0562613
0.0546255
0.0546248
0.0531124
0.0531116
0.0517106
0.0517098
0.0504096
0.0504088
0.0492001
0.0491993
0.0480738
0.0480729
0.0470232
0.0470224
0.0460418
0.046041
0.0451238
0.0451229
0.0442638
0.0442629
0.0434571
0.0434561
0.0426994
0.0426984
0.0419868
0.0419858
0.0413159
0.0413149
0.0406835
0.0406825
0.0400867
0.0400856
0.0395229
0.0395218
0.0389897
0.0389886
0.0384849
0.0384838
0.0380066
0.0380055
0.0375529
0.0375517
0.0371221
0.037121
0.0367128
0.0367116
0.0363234
0.0363222
0.0359527
0.0359515
0.0355997
0.0355984
0.0352629
0.0352616
1.13863
1.13863
0.888651
0.888647
0.710518
0.71051
0.579998
0.579988
0.481996
0.481986
0.406849
0.40684
0.348166
0.348159
0.3016
0.301594
0.264117
0.264111
0.233557
0.233552
0.208352
0.208348
0.187348
0.187344
0.169678
0.169675
0.154684
0.154681
0.141862
0.141859
0.130817
0.130814
0.12124
0.121238
0.112885
0.112883
0.105555
0.105554
0.0990911
0.0990899
0.0933633
0.0933623
0.0882648
0.0882639
0.0837076
0.0837068
0.0796184
0.0796176
0.0759356
0.0759349
0.0726076
0.0726069
0.0695905
0.0695899
0.0668471
0.0668465
0.0643456
0.0643449
0.0620584
0.0620578
0.0599621
0.0599615
0.0580361
0.0580355
0.0562626
0.056262
0.0546261
0.0546255
0.0531129
0.0531123
0.0517112
0.0517105
0.0504102
0.0504095
0.0492007
0.0492
0.0480743
0.0480736
0.0470237
0.047023
0.0460424
0.0460417
0.0451243
0.0451236
0.0442643
0.0442636
0.0434576
0.0434568
0.0426999
0.0426991
0.0419873
0.0419865
0.0413164
0.0413156
0.040684
0.0406832
0.0400872
0.0400864
0.0395234
0.0395225
0.0389902
0.0389893
0.0384855
0.0384846
0.0380072
0.0380063
0.0375535
0.0375526
0.0371228
0.0371218
0.0367134
0.0367125
0.0363241
0.0363231
0.0359534
0.0359525
0.0356004
0.0355995
0.0352636
0.0352627
)
;
    }
}


// ************************************************************************* //
