/*--------------------------------*- C++ -*----------------------------------*\
  =========                 |
  \\      /  F ield         | OpenFOAM: The Open Source CFD Toolbox
   \\    /   O peration     | Website:  https://openfoam.org
    \\  /    A nd           | Version:  8
     \\/     M anipulation  |
\*---------------------------------------------------------------------------*/
FoamFile
{
    version     2.0;
    format      ascii;
    class       volScalarField;
    location    "700";
    object      p_rgh;
}
// * * * * * * * * * * * * * * * * * * * * * * * * * * * * * * * * * * * * * //

dimensions      [1 -1 -2 0 0 0 0];

internalField   nonuniform List<scalar> 
1200
(
564.261
356.474
268.537
238.202
218.009
201.093
187.448
176.096
166.229
157.473
149.607
142.489
136.019
130.105
124.666
119.636
114.966
110.617
106.545
102.713
99.0956
95.6721
92.4151
89.2982
86.3089
83.4355
80.658
77.9624
75.3419
72.7846
70.2793
67.8191
65.3964
63.0036
60.6353
58.2875
55.9564
53.6364
51.3211
49.0093
46.7
44.3884
42.0725
39.7527
37.4271
35.0917
32.7426
30.3805
28.0082
25.6242
23.2242
20.8091
18.3772
15.9293
13.4673
10.9876
8.4811
5.92541
3.28201
-0.133654
122.034
147.502
153.856
159.757
160.729
157.902
153.665
148.919
143.979
139.048
134.231
129.593
125.17
120.965
116.965
113.154
109.52
106.053
102.734
99.5478
96.4827
93.5302
90.6753
87.9022
85.2061
82.5816
80.0152
77.4992
75.0307
72.6017
70.2049
67.8366
65.4916
63.164
60.8506
58.5487
56.2558
53.9678
51.6788
49.3873
47.0927
44.7916
42.4832
40.1683
37.8456
35.5115
33.1624
30.7991
28.4247
26.0378
23.6345
21.2152
18.779
16.3266
13.8598
11.3761
8.8692
6.32743
3.73695
0.981897
193.452
251.151
257.709
244.491
229.377
214.69
200.909
188.333
176.998
166.803
157.598
149.267
141.722
134.868
128.614
122.883
117.609
112.742
108.228
104.023
100.09
96.3961
92.9095
89.6006
86.4504
83.4399
80.5468
77.7559
75.0557
72.4315
69.8717
67.368
64.9106
62.4906
60.1019
57.739
55.3972
53.0705
50.752
48.439
46.1291
43.8176
41.5036
39.1868
36.8648
34.5341
32.1906
29.8352
27.4702
25.0931
22.7007
20.2923
17.8675
15.4271
12.9716
10.5006
8.01172
5.5064
3.01261
0.684038
193.94
216.279
209.648
191.955
178.088
167.784
159.157
151.688
145.165
139.355
134.059
129.163
124.605
120.335
116.31
112.497
108.87
105.414
102.111
98.9451
95.9007
92.9652
90.1258
87.3707
84.6928
82.0827
79.5294
77.0269
74.5696
72.1492
69.7608
67.4009
65.0631
62.7423
60.4359
58.1405
55.8535
53.5708
51.2882
49.0057
46.7215
44.4308
42.1335
39.8292
37.5156
35.1905
32.8508
30.498
28.1341
25.7563
23.3624
20.9512
18.5233
16.0793
13.619
11.1442
8.65585
6.16375
3.70728
1.48257
197.536
216.957
220.481
211.039
200.922
191.531
182.006
172.668
163.908
155.804
148.319
141.417
135.061
129.204
123.798
118.789
114.133
109.792
105.731
101.92
98.3249
94.9192
91.6796
88.5852
85.6193
82.7643
80.0038
77.327
74.7221
72.177
69.6848
67.2383
64.8284
62.4484
60.0939
57.7598
55.4415
53.134
50.8327
48.5366
46.2417
43.9431
41.6404
39.3322
37.0158
34.689
32.3493
29.9979
27.6359
25.26
22.8685
20.4601
18.036
15.596
13.1393
10.6689
8.18804
5.71213
3.29434
1.18013
197.531
216.948
220.468
211.018
200.895
191.5
181.977
172.648
163.893
155.79
148.311
141.416
135.064
129.208
123.803
118.794
114.138
109.796
105.735
101.923
98.3265
94.9193
91.6782
88.583
85.6161
82.7597
79.9985
77.3214
74.7154
72.169
69.6759
67.2285
64.8174
62.4366
60.0817
57.7473
55.4286
53.1202
50.8186
48.5226
46.2276
43.9294
41.628
39.3218
37.0078
34.6835
32.3471
29.9998
27.6415
25.2684
22.8795
20.4739
18.0526
15.6152
13.1605
10.6917
8.21202
5.73678
3.31777
1.19826
193.926
216.268
209.649
191.958
178.088
167.776
159.139
151.67
145.146
139.325
134.028
129.137
124.577
120.301
116.273
112.458
108.832
105.376
102.074
98.9101
95.8677
92.933
90.0946
87.342
84.6657
82.055
79.5025
77.0021
74.5444
72.1224
69.7336
67.3731
65.034
62.7129
60.4068
58.1124
55.8255
53.5417
51.2597
48.9787
46.6941
44.4035
42.107
39.803
37.4887
35.1616
32.8219
30.471
28.1081
25.7295
23.3348
20.9237
18.497
16.0538
13.5929
11.117
8.62697
6.13345
3.67478
1.45011
193.417
251.085
257.631
244.42
229.309
214.611
200.842
188.307
176.993
166.792
157.595
149.279
141.733
134.87
128.61
122.872
117.595
112.723
108.208
104.004
100.071
96.3762
92.8888
89.5828
86.4346
83.4224
80.5298
77.7417
75.0405
72.4133
69.8523
67.3477
64.8891
62.469
60.0813
57.72
55.3785
53.0501
50.7326
48.4235
46.1166
43.8096
41.5012
39.1888
36.8691
34.539
32.1975
29.8461
27.4834
25.1056
22.7125
20.3045
17.8815
15.4419
12.9851
10.5119
8.02012
5.51283
3.01651
0.684725
122.003
147.482
153.803
159.696
160.66
157.81
153.576
148.856
143.919
138.974
134.163
129.54
125.12
120.914
116.916
113.107
109.477
106.013
102.698
99.516
96.4547
93.5021
90.6463
87.877
85.1837
82.5563
79.9895
77.4768
75.0074
72.5747
70.1762
67.807
65.461
63.1339
60.8218
58.5221
56.2298
53.9397
51.652
49.3651
47.074
44.7781
42.4765
40.1672
37.8478
35.5149
33.1692
30.8121
28.4423
26.0563
23.6541
21.2372
18.8047
16.3551
13.8881
11.403
8.8937
6.35
3.75446
0.990334
564.146
356.491
268.516
238.179
217.992
201.058
187.427
176.115
166.257
157.488
149.63
142.525
136.055
130.135
124.693
119.661
114.992
110.644
106.574
102.747
99.1344
95.7119
92.4554
89.3447
86.3607
83.4861
80.7097
78.0197
75.4002
72.8407
70.3355
67.8765
65.4555
63.0656
60.7009
58.3571
56.028
53.7071
51.3941
49.0862
46.778
44.4685
42.1561
39.8382
37.5122
35.1743
32.8272
30.471
28.1031
25.7197
23.3205
20.9076
18.4794
16.0339
13.5712
11.0895
8.58009
6.02187
3.37112
-0.0569785
563.594
356.36
268.447
238.171
218.031
201.082
187.435
176.139
166.312
157.56
149.71
142.611
136.132
130.189
124.72
119.669
114.984
110.615
106.531
102.7
99.0883
95.6627
92.4043
89.2979
86.3188
83.4457
80.67
77.9795
75.3583
72.7976
70.2907
67.8283
65.4034
63.0107
60.6439
58.2964
55.9629
53.6406
51.3283
49.0218
46.7161
44.4098
42.1001
39.7825
37.4554
35.1197
32.7763
30.4222
28.0524
25.6669
23.2679
20.8536
18.4242
15.9777
13.5108
11.0239
8.51572
5.96744
3.32902
-0.0969817
121.924
147.401
153.665
159.638
160.696
157.871
153.636
148.931
144.014
139.076
134.267
129.646
125.219
120.992
116.968
113.141
109.497
106.015
102.687
99.4988
96.4348
93.4775
90.6186
87.8519
85.1618
82.5356
79.97
77.4577
74.988
72.5562
70.1583
67.7876
65.4399
63.1122
60.7996
58.4975
56.2017
53.9105
51.6235
49.3359
47.0437
44.7472
42.4443
40.1312
37.8069
35.4724
33.129
30.7737
28.4019
26.0138
23.6117
21.1942
18.7613
16.3111
13.8412
11.352
8.84411
6.31047
3.72734
0.971725
193.319
250.817
257.254
244.103
229.118
214.519
200.797
188.287
176.997
166.81
157.622
149.317
141.777
134.91
128.639
122.896
117.615
112.738
108.215
104.005
100.068
96.367
92.8753
89.5689
86.42
83.4062
80.5135
77.7249
75.0233
72.3982
69.8388
67.3337
64.8752
62.4564
60.0697
57.7079
55.3648
53.0366
50.7211
48.4116
46.1036
43.7969
41.4876
39.1718
36.848
34.5164
32.1778
29.8287
27.4642
25.0848
22.6919
20.2848
17.8626
15.4234
12.966
10.4905
8.00055
5.50245
3.01643
0.688356
193.849
216.175
209.517
191.86
178.082
167.839
159.228
151.761
145.234
139.399
134.089
129.194
124.631
120.349
116.309
112.488
108.861
105.404
102.098
98.9274
95.8785
92.9381
90.0952
87.3403
84.6603
82.0461
79.4925
76.9906
74.532
72.1126
69.7261
67.3657
65.0284
62.7104
60.4066
58.1131
55.8258
53.5429
51.2631
48.9822
46.6981
44.4108
42.1167
39.8124
37.4973
35.1715
32.8361
30.4875
28.1221
25.7411
23.3456
20.9355
18.5094
16.066
13.6056
11.128
8.63906
6.15383
3.70651
1.48351
197.454
216.85
220.277
210.811
200.782
191.496
182.023
172.699
163.935
155.814
148.32
141.42
135.069
129.214
123.804
118.795
114.145
109.809
105.748
101.929
98.3266
94.9143
91.6692
88.5708
85.5986
82.7375
79.9749
77.2959
74.6893
72.1466
69.6567
67.2105
64.8026
62.4265
60.075
57.7427
55.4248
53.118
50.8193
48.5233
46.2277
43.9317
41.6307
39.3219
37.0043
34.6775
32.3417
29.9931
27.6287
25.2501
22.8574
20.4508
18.028
15.5883
13.1329
10.6613
8.18031
5.71057
3.30157
1.18774
197.458
216.852
220.273
210.8
200.766
191.479
182.005
172.676
163.911
155.795
148.303
141.403
135.055
129.205
123.798
118.792
114.143
109.808
105.747
101.928
98.3254
94.913
91.6675
88.568
85.5951
82.7338
79.9703
77.2901
74.6831
72.1404
69.6501
67.2035
64.7954
62.4189
60.0667
57.7336
55.4151
53.1081
50.8087
48.5115
46.2152
43.9186
41.6169
39.3078
36.9913
34.6667
32.3331
29.9864
27.6244
25.2489
22.8593
20.4554
18.035
15.5977
13.1451
10.676
8.19725
5.72831
3.31798
1.19937
193.862
216.19
209.534
191.875
178.093
167.853
159.235
151.747
145.205
139.369
134.05
129.142
124.578
120.3
116.266
112.45
108.827
105.375
102.072
98.9025
95.8553
92.9174
90.0764
87.3211
84.6411
82.0288
79.4754
76.9721
74.5145
72.0973
69.7115
67.3519
65.0158
62.6981
60.3938
58.0992
55.8118
53.53
51.2498
48.9671
46.6819
44.3926
42.0953
39.7886
37.4725
35.1469
32.8104
30.4594
28.0929
25.7129
23.3186
20.909
18.4823
16.0388
13.5794
11.103
8.61459
6.12753
3.67642
1.45222
193.335
250.794
257.222
244.065
229.084
214.497
200.774
188.246
176.952
166.778
157.588
149.273
141.736
134.877
128.613
122.875
117.599
112.726
108.206
103.997
100.06
96.3626
92.8732
89.5651
86.4152
83.4038
80.5108
77.7193
75.0183
72.3955
69.8366
67.3316
64.8734
62.4538
60.0651
57.7008
55.3565
53.0291
50.7122
48.4006
46.0934
43.7871
41.4775
39.1625
36.8415
34.514
32.1757
29.8236
27.4574
25.0791
22.6875
20.2803
17.8566
15.4167
12.9606
10.4867
7.99782
5.49802
3.00849
0.677715
122.018
147.457
153.711
159.65
160.69
157.873
153.617
148.861
143.925
138.997
134.183
129.553
125.133
120.92
116.91
113.095
109.46
105.989
102.667
99.4826
96.4214
93.4695
90.6153
87.8477
85.1569
82.535
79.9707
77.4558
74.9875
72.5595
70.163
67.7929
65.4456
63.1168
60.8025
58.4982
56.2023
53.9135
51.6264
49.3376
47.0474
44.7525
42.45
40.1388
37.8184
35.4894
33.1471
30.7891
28.416
26.03
23.6298
21.2127
18.7788
16.3285
13.8609
11.3742
8.86819
6.3326
3.74299
0.978752
563.598
356.359
268.454
238.16
218.017
201.087
187.427
176.095
166.261
157.526
149.675
142.571
136.102
130.175
124.719
119.68
115.005
110.647
106.57
102.743
99.134
95.7147
92.4622
89.355
86.3753
83.5077
80.7342
78.0412
75.4216
72.8653
70.3603
67.8983
65.4734
63.0793
60.7106
58.3611
56.0278
53.7085
51.3964
49.0875
46.7813
44.4734
42.1608
39.8418
37.5158
35.183
32.8396
30.4825
28.1116
25.7286
23.3323
20.919
18.4892
16.0434
13.5799
11.0966
8.59114
6.0415
3.3955
-0.0376126
)
;

boundaryField
{
    wall
    {
        type            fixedFluxPressure;
        gradient        nonuniform List<scalar> 
1200
(
133.467
22.1497
26.6024
18.0484
16.4506
14.6087
12.8068
16.3332
-2.98858
109.573
22.9175
20.303
66.8513
20.7883
21.3838
19.1637
15.4409
58.1086
5.17665
26.4183
18.0485
38.4451
91.0744
26.2599
40.8
38.9924
22.9805
81.7907
18.5372
12.4749
6.09093
23.9562
77.7738
19.045
45.7044
43.7489
16.7391
70.8543
9.10001
3.69468
-4.46701
6.6867
51.8674
1.31175
28.0696
25.9445
-1.05547
45.0497
-6.07483
-5.23427
2.07597
6.23747
34.3741
-10.9354
7.16792
4.30946
-15.4518
22.8186
-12.6395
-5.90918
2.80633
5.831
22.3852
-14.1747
-3.38897
-5.65339
-19.1606
13.4894
-8.21232
-0.0261623
-8.36977
-2.17477
9.11367
-14.7373
-6.2386
-5.7914
-15.4259
12.1645
-1.02741
3.99884
-16.624
-7.0127
0.403931
-13.6937
-5.37764
-3.71643
-11.7542
8.1861
-1.17029
-0.638984
-17.3781
-5.57101
-1.46213
-8.89789
-2.24292
-1.12963
-8.98606
2.76181
-4.63135
-7.47299
-20.5087
-7.10607
-4.85536
-6.13546
-0.239701
1.58686
-4.51008
1.45538
-4.01551
-9.00181
-24.506
-10.6796
-9.83234
-6.12766
-0.54464
2.67113
-0.873811
1.21415
-2.62279
-9.08467
-22.7296
-9.91958
-10.9369
-5.18072
-1.56575
1.71982
-0.0237943
-0.450173
-2.487
-9.45324
-16.929
-5.62896
-8.51436
-2.74516
-1.93674
0.652535
0.227734
-1.34688
-1.27132
-7.97852
-10.8045
-0.737967
-4.99142
0.21786
-1.17435
0.915959
1.542
-0.551668
1.14968
-5.3201
-6.70735
2.43456
-2.63721
1.79133
-1.16827
0.504919
1.79993
-0.470781
2.37837
-3.90256
-3.66862
4.53504
-1.23833
1.90777
-2.33719
-1.01871
0.94646
-0.754764
3.3368
-2.54023
0.257857
7.39197
0.720694
2.01555
-3.37143
-2.37516
0.229727
-0.470787
4.77463
-0.691858
2.8498
9.55667
2.57973
2.56694
-3.27737
-2.48195
0.402612
0.369512
6.08195
0.641462
2.52822
9.79817
3.64311
3.50767
-1.9
-1.17355
1.50371
1.44571
6.70328
0.766684
1.46351
9.58295
4.42436
4.41592
-0.392786
0.186508
2.45241
2.18112
6.6888
0.138389
1.89503
10.563
5.8002
5.39157
0.928773
1.2088
3.08067
2.72852
6.56856
-0.486144
2.19908
11.3643
6.83345
6.09186
2.02194
2.08533
3.59203
3.12449
6.2397
-1.28456
0.0961195
10.0922
6.34853
6.04772
2.82192
2.93672
4.14445
3.52502
5.91104
-2.00099
-1.94777
8.89542
6.08131
6.46922
4.08242
4.16335
4.87325
3.88956
5.39066
-2.87986
-2.01952
9.2314
6.74081
7.31169
5.31396
5.1426
5.20518
3.7386
4.29123
-4.29776
-2.39215
9.05971
6.66786
7.3521
5.76019
5.60628
5.4066
3.79774
3.78185
-4.87392
-3.40949
8.31089
6.21946
7.26125
6.20013
6.24638
6.00333
4.47303
4.20271
-4.31594
-3.29379
8.53277
6.47467
7.5297
6.55955
6.47295
5.98746
4.44304
3.99033
-4.31805
-2.60467
9.09784
6.66861
7.33037
6.11161
5.75491
5.04321
3.55551
3.0312
-4.9722
-2.31037
9.32223
6.5887
6.97576
5.6392
5.19726
4.43676
3.13277
2.61765
-5.02598
-1.88387
9.7994
6.87227
7.0659
5.60209
5.05413
4.25477
3.20468
2.79436
-4.43203
-1.41323
10.3237
7.09955
6.95636
5.19212
4.4497
3.68173
3.11084
3.0489
-3.63879
-1.45541
10.3642
6.84929
6.41772
4.4214
3.5863
2.97702
3.01755
3.36644
-2.81256
-1.74135
10.2034
6.47057
5.89693
3.83454
3.03938
2.62498
3.21112
3.82721
-2.01226
-1.79462
10.2506
6.24966
5.53137
3.44743
2.78111
2.64297
3.82243
4.71815
-0.867983
-1.30403
10.8458
6.50931
5.57052
3.36376
2.71734
2.73107
4.37686
5.4594
-0.00804337
-0.82491
11.479
6.79743
5.6209
3.2075
2.41235
2.32866
4.16015
5.19916
-0.316598
-1.42865
11.0985
6.22427
5.0482
2.68825
1.98458
1.966
4.05584
5.08428
-0.4926
-2.47077
10.3199
5.51562
4.72693
2.65695
2.21511
2.29183
4.54454
5.46639
-0.262707
-3.18797
9.85198
5.12508
4.6931
2.79359
2.45378
2.41423
4.60534
5.28453
-0.66685
-4.23728
8.93034
4.1801
4.00985
2.2591
2.13282
2.15179
4.46669
5.09366
-0.969185
-5.47286
7.82999
3.20753
3.38453
1.91555
2.18668
2.31202
4.71676
5.25979
-0.95118
-5.94285
7.46923
3.02245
3.35214
2.06033
2.76332
2.85548
5.24218
5.67157
-0.714779
-5.61335
7.80569
3.39654
3.64156
2.29064
3.26363
3.19955
5.51718
5.84838
-0.71022
-5.56827
7.87405
3.55751
3.78004
2.29262
3.32567
2.91018
4.98329
5.06727
-1.732
-6.69857
6.73355
2.58287
2.94434
1.49508
2.7714
2.26081
4.34763
4.39651
-2.47844
-8.30818
5.12597
1.32878
2.08979
0.926477
2.66064
2.28886
4.49945
4.58725
-2.29816
-8.82739
4.60503
1.21188
2.38411
1.40484
3.39885
3.02306
5.20017
5.25024
-1.69542
-8.52171
4.82553
1.67649
3.03477
1.95578
3.88827
3.30033
5.29984
5.25703
-1.78333
-8.73155
4.58749
1.75751
3.35788
2.21427
4.04281
3.22507
5.00992
4.831
-2.346
-8.90726
4.22863
1.48424
3.12106
1.87152
3.69352
2.93125
4.84856
4.85816
-2.27613
-9.41407
3.55312
0.976546
2.77235
1.59673
3.5357
2.92471
4.97469
5.15548
-1.96772
-9.72582
3.09812
0.724835
2.66542
1.5458
3.52169
2.99123
5.04927
5.29452
-1.90154
-8.73749
3.71528
1.11046
2.69814
1.27475
3.10693
2.7014
4.91511
5.41782
-1.74005
-7.30298
4.83263
2.01428
3.25615
1.53719
3.16676
2.79476
5.0452
5.73976
-1.41498
-6.9624
5.02021
2.23294
3.37707
1.55698
2.98474
2.47387
4.47947
5.09187
-2.19545
-8.45302
3.38727
0.787429
2.00531
0.326269
1.72562
1.18178
2.98189
3.46585
-3.91486
-9.45822
1.90889
-0.772809
0.172684
-1.43541
-0.0131181
-0.334895
1.6212
2.27651
-4.86505
-7.39618
2.01246
-0.879663
-0.174975
-1.51581
-0.196257
-0.425321
1.42054
2.30626
-3.85708
-133.467
-22.1497
-26.6024
-18.0484
-16.4506
-14.6087
-12.8068
-16.3332
2.98859
-109.573
-22.9169
-20.3024
-66.8511
-20.7883
-21.3838
-19.1638
-15.4409
-58.1086
-5.17633
-26.4211
-18.0448
-38.442
-91.0739
-26.2602
-40.801
-38.9936
-22.9814
-81.7916
-18.535
-12.479
-6.08295
-23.9498
-77.7728
-19.0456
-45.7065
-43.7515
-16.7409
-70.8566
-9.09519
-3.6935
4.47476
-6.67845
-51.8649
-1.31061
-28.07
-25.9456
1.05535
-45.0517
6.08003
5.23318
-2.07319
-6.22983
-34.3705
10.9388
-7.16485
-4.30738
15.4539
-22.8204
12.6433
5.90231
-2.80703
-5.82435
-22.3811
14.1793
3.39456
5.65774
19.1638
-13.4916
8.21416
0.0142722
8.37081
2.18151
-9.10909
14.7418
6.24468
5.79593
15.429
-12.1675
1.02761
-4.01293
16.6294
7.02007
-0.398775
13.6976
5.38265
3.71949
11.7565
-8.18994
1.16988
0.626282
17.3872
5.57883
1.46749
8.90078
2.24618
1.13069
8.98723
-2.76596
4.63129
7.46384
20.5202
7.11423
4.86067
6.1375
0.241307
-1.58765
4.51014
-1.45964
4.016
8.99598
24.5186
10.688
9.83768
6.12916
0.545226
-2.67315
0.872959
-1.21849
2.62362
9.08099
22.7411
9.92788
10.9421
5.18191
1.56598
-1.72228
0.0225363
0.445936
2.488
9.45063
16.9372
5.63665
8.519
2.74616
1.93712
-0.654746
-0.228859
1.34293
1.27229
7.97573
10.8085
0.744756
4.99537
-0.216924
1.17517
-0.917528
-1.54268
0.548045
-1.14895
5.31617
6.70684
-2.42878
2.64047
-1.79034
1.16965
-0.505696
-1.80003
0.46752
-2.37795
3.8972
3.66408
-4.53026
1.24097
-1.90662
2.33916
1.01878
-0.945931
0.751891
-3.33668
2.53354
-0.265871
-7.38813
-0.718585
-2.01424
3.37391
2.37597
-0.228628
0.468259
-4.77478
0.68406
-2.86043
-9.55364
-2.57807
-2.56555
3.28013
2.48328
-0.401119
-0.371762
-6.08229
-0.649759
-2.54015
-9.79567
-3.64183
-3.50632
1.90277
1.17508
-1.50205
-1.44775
-6.70366
-0.774585
-1.47554
-9.58072
-4.42338
-4.41476
0.39529
-0.185059
-2.45079
-2.18299
-6.68906
-0.145052
-1.90649
-10.561
-5.79945
-5.39067
-0.92668
-1.2076
-3.07922
-2.73026
-6.56859
0.481247
-2.2096
-11.3623
-6.83289
-6.09125
-2.02033
-2.08447
-3.59085
-3.12613
-6.23945
1.28168
-0.105254
-10.0901
-6.34807
-6.04739
-2.82084
-2.93628
-4.14358
-3.52658
-5.91048
2.00021
1.94031
-8.89319
-6.08089
-6.46915
-4.0819
-4.16336
-4.87271
-3.89106
-5.38978
2.88106
2.01352
-9.22904
-6.74041
-7.31187
-5.31395
-5.14303
-5.20496
-3.74003
-4.29006
4.30069
2.38723
-9.05724
-6.66746
-7.35245
-5.76058
-5.60703
-5.40663
-3.79911
-3.78043
4.87814
3.40539
-8.30834
-6.21903
-7.26169
-6.2008
-6.24735
-6.00355
-4.47435
-4.20114
4.32078
3.29016
-8.53018
-6.4742
-7.53018
-6.56038
-6.47403
-5.98778
-4.44432
-3.98869
4.32289
2.60105
-9.09528
-6.66812
-7.33083
-6.11249
-5.75596
-5.04353
-3.55672
-3.02955
4.97656
2.3065
-9.31974
-6.58818
-6.97614
-5.64
-5.19818
-4.43701
-3.13394
-2.61607
5.02938
1.87959
-9.79699
-6.87172
-7.06617
-5.60276
-5.05486
-4.25491
-3.20582
-2.79293
4.43403
1.40845
-10.3214
-7.09897
-6.9565
-5.1926
-4.45018
-3.68173
-3.11198
-3.04769
3.63905
1.45013
-10.362
-6.84868
-6.41769
-4.42164
-3.58649
-2.97686
-3.01871
-3.3655
2.81093
1.73564
-10.2013
-6.46991
-5.89671
-3.83454
-3.0393
-2.62467
-3.21234
-3.82657
2.00872
1.78856
-10.2485
-6.24892
-5.53097
-3.44719
-2.78079
-2.64256
-3.82373
-4.71782
0.862645
1.29771
-10.8438
-6.50849
-5.56993
-3.36332
-2.71681
-2.73059
-4.37826
-5.45938
0.0011295
0.818474
-11.477
-6.79653
-5.62015
-3.2069
-2.41168
-2.32816
-4.16167
-5.1994
0.308455
1.42236
-11.0964
-6.22327
-5.0473
-2.68752
-1.98383
-1.96551
-4.05748
-5.08476
0.483583
2.46493
-10.3178
-5.5145
-4.72589
-2.65616
-2.21435
-2.29142
-4.54631
-5.46709
0.253078
3.1828
-9.84971
-5.12384
-4.69196
-2.79278
-2.45308
-2.41394
-4.60724
-5.28541
0.656888
4.23291
-8.92791
-4.17873
-4.00863
-2.2583
-2.1322
-2.15164
-4.46872
-5.09469
0.959131
5.4694
-7.82738
-3.20604
-3.38326
-1.91478
-2.18617
-2.31203
-4.71889
-5.26096
0.941164
5.94034
-7.46642
-3.02086
-3.35084
-2.05962
-2.76295
-2.85566
-5.24442
-5.67287
0.704923
5.61177
-7.8027
-3.39487
-3.64025
-2.29001
-3.26341
-3.1999
-5.5195
-5.84977
0.700629
5.56761
-7.87089
-3.55578
-3.77875
-2.29206
-3.3256
-2.9107
-4.98565
-5.06873
1.72278
6.69888
-6.7302
-2.58109
-2.94309
-1.4946
-2.77145
-2.26146
-4.35003
-4.39803
2.46965
8.30948
-5.12241
-1.32694
-2.08858
-0.926076
-2.66081
-2.28964
-4.50187
-4.58883
2.28973
8.82962
-4.60128
-1.20999
-2.38296
-1.40453
-3.39912
-3.02397
-5.20259
-5.25188
1.68728
8.52467
-4.82163
-1.67459
-3.03369
-1.95556
-3.88862
-3.30134
-5.30226
-5.25874
1.77549
8.73505
-4.58346
-1.75561
-3.35688
-2.21413
-4.0432
-3.22616
-5.01231
-4.83276
2.33847
8.91111
-4.2245
-1.48235
-3.12013
-1.87143
-3.69393
-2.93238
-4.8509
-4.85998
2.26886
9.418
-3.54893
-0.97467
-2.77146
-1.59668
-3.53608
-2.92587
-4.97699
-5.15737
1.96061
9.72959
-3.09389
-0.722977
-2.66456
-1.54576
-3.52202
-2.99241
-5.05152
-5.29648
1.89459
8.74079
-3.71106
-1.10863
-2.69729
-1.2747
-3.10719
-2.70258
-4.9173
-5.41985
1.73327
7.30546
-4.82845
-2.01249
-3.25529
-1.53712
-3.16693
-2.79593
-5.04732
-5.74185
1.40837
6.96395
-5.0161
-2.2312
-3.3762
-1.55689
-2.98482
-2.47504
-4.48152
-5.09401
2.1891
8.45362
-3.38322
-0.785726
-2.00442
-0.326153
-1.72561
-1.18294
-2.98385
-3.46801
3.90891
9.45781
-1.90489
0.77449
-0.171735
1.43557
0.0132349
0.33375
-1.62308
-2.27869
4.85952
7.39453
-2.00854
0.881314
0.175979
1.51601
0.196474
0.42418
-1.42234
-2.30848
3.85189
)
;
        value           nonuniform List<scalar> 
1200
(
564.595
122.09
193.519
193.985
197.577
197.567
193.958
193.458
121.995
564.42
356.532
147.553
251.318
216.331
217.01
216.995
216.306
251.23
147.496
356.557
268.583
153.953
257.937
209.714
220.583
220.565
209.706
257.835
153.85
268.548
238.217
159.817
244.686
192.003
211.153
211.128
192
244.597
159.718
238.188
217.997
160.746
229.507
178.091
200.992
200.961
178.085
229.422
160.645
217.978
201.098
157.917
214.776
167.757
191.549
191.511
167.738
214.668
157.778
201.043
187.455
153.68
200.965
159.121
181.998
181.962
159.091
200.875
153.556
187.427
176.076
148.914
188.356
151.651
172.652
172.633
151.631
188.337
148.853
176.125
166.187
143.962
177
145.131
163.894
163.884
145.117
177.014
143.916
166.256
157.43
139.034
166.799
139.333
155.798
155.787
139.302
166.799
138.962
157.47
149.556
134.213
157.586
134.043
148.318
148.315
134.016
157.599
134.153
149.608
142.427
129.566
149.243
129.148
141.416
141.423
129.135
149.282
129.533
142.502
135.962
125.145
141.695
124.592
135.057
135.068
124.577
141.732
125.114
136.031
130.063
120.95
134.846
120.328
129.2
129.21
120.302
134.867
120.911
130.115
124.639
116.963
128.602
116.311
123.795
123.805
116.277
128.608
116.918
124.679
119.619
113.16
122.876
112.501
118.787
118.796
112.463
122.871
113.113
119.651
114.956
109.531
117.606
108.875
114.127
114.135
108.834
117.593
109.485
114.986
110.617
106.071
112.743
105.419
109.783
109.79
105.376
112.722
106.025
110.642
106.552
102.758
108.235
102.117
105.723
105.729
102.075
108.209
102.713
106.575
102.719
99.5723
104.032
98.9538
101.915
101.92
98.9138
104.008
99.5329
102.749
99.0993
96.5066
100.101
95.9117
98.3238
98.3269
95.8737
100.077
96.4715
99.1349
95.6769
93.5567
96.4105
92.9786
94.9214
94.9222
92.9406
96.3831
93.5187
95.7109
92.4208
90.7038
92.9265
90.141
91.6845
91.6833
90.1035
92.8966
90.6621
92.4524
89.2986
87.9275
89.6165
87.3858
88.5921
88.5902
87.3523
89.5916
87.8919
89.3399
86.3041
85.2284
86.4656
84.7089
85.6293
85.6264
84.6778
86.4443
85.1973
86.3536
83.4306
82.6047
83.4568
82.1009
82.7774
82.7724
82.0679
83.4318
82.5671
83.4754
80.652
80.0379
80.5635
79.5477
80.0181
80.0124
79.5159
80.5393
79.999
80.6976
77.9539
77.52
77.7715
77.045
77.3424
77.337
77.0171
77.7529
77.4873
78.0089
75.3336
75.052
75.0719
74.5884
74.7385
74.7317
74.5594
75.0516
75.0174
75.3893
72.7781
72.6244
72.4482
72.1675
72.1924
72.1835
72.1351
72.4222
72.5822
72.8281
70.2735
70.2282
69.8882
69.7783
69.6989
69.689
69.7447
69.8601
70.1827
70.3227
67.8143
67.8611
67.3852
67.4187
67.2524
67.2413
67.3838
67.3557
67.8139
67.8652
65.3929
65.5174
64.9284
65.0805
64.8415
64.8287
65.0433
64.8968
65.4685
65.4462
62.9999
63.1899
62.5078
62.7585
62.4596
62.4457
62.7204
62.4765
63.1421
63.0584
60.6309
60.8761
60.1181
60.4508
60.1036
60.0894
60.4134
60.0892
60.8313
60.6956
58.283
58.5743
57.7547
58.1545
57.7685
57.7544
58.119
57.7295
58.5337
58.3547
55.9532
56.283
55.4136
55.8675
55.45
55.4354
55.8323
55.3894
56.2433
56.0278
53.6344
53.9965
53.0875
53.585
53.142
53.1262
53.5475
53.0604
53.9526
53.7062
51.3176
51.7067
50.7677
51.3009
50.8394
50.8236
51.2646
50.7427
51.6646
51.3928
49.0032
49.4132
48.4529
49.0176
48.5432
48.5281
48.9843
48.4347
49.3786
49.0855
46.6921
47.1174
46.142
46.7333
46.2487
46.2337
46.7001
46.128
47.0871
46.7763
44.3779
44.814
43.8281
44.4409
43.9487
43.9346
44.4088
43.8207
44.7907
44.4661
42.0589
42.5029
41.5117
42.142
41.6451
41.6333
42.1127
41.5129
42.4895
42.1537
39.7379
40.1872
39.1944
39.8376
39.3373
39.3286
39.8101
39.2019
40.1814
39.8365
37.4132
37.8653
36.8734
37.5247
37.0215
37.0159
37.4966
36.8829
37.8623
37.5104
35.0779
35.5314
34.543
35.1999
34.6947
34.6917
35.1688
34.5514
35.5275
35.17
32.726
33.1794
32.1972
32.8582
32.3529
32.354
32.8274
32.2083
33.1801
32.8211
30.3598
30.8121
29.8386
30.5032
30.0001
30.0064
30.4766
29.8573
30.8235
30.4653
27.9862
28.4364
27.4733
28.14
27.6393
27.6499
28.1156
27.4964
28.4554
28.0989
25.6029
26.0499
25.0973
25.7639
25.2648
25.2781
25.7377
25.1189
26.0694
25.7153
23.2024
23.6461
22.7051
23.3708
22.874
22.8896
23.3428
22.725
23.6661
23.3147
20.7868
21.2259
20.296
20.959
20.4648
20.4831
20.931
20.3166
21.2492
20.9019
18.3536
18.7879
17.8699
18.5302
18.0399
18.0615
18.5043
17.8939
18.8175
18.4745
15.9049
16.3344
15.4289
16.086
15.5999
15.6241
16.0612
15.4546
16.3683
16.0291
13.4454
13.8691
12.9744
13.6258
13.1425
13.1683
13.5997
12.9974
13.9016
13.5669
10.9692
11.3882
10.5057
11.1524
10.6728
10.6997
11.124
10.5245
11.4173
11.086
8.46358
8.88176
8.0173
8.66434
8.19197
8.21957
8.63315
8.03138
8.9064
8.57466
5.90413
6.33589
5.50836
6.16883
5.71299
5.74119
6.13639
5.52034
6.35862
6.01213
3.2582
3.74169
3.01066
3.70777
3.29078
3.31783
3.67392
3.02061
3.7601
3.359
-0.152325
0.986864
0.681793
1.48217
1.17636
1.19785
1.44903
0.688329
0.996069
-0.0665631
563.26
121.868
193.253
193.804
197.413
197.421
193.83
193.294
122.025
563.324
356.303
147.35
250.65
216.123
216.796
216.804
216.152
250.649
147.444
356.293
268.402
153.568
257.026
209.451
220.175
220.175
209.477
257.017
153.664
268.423
238.156
159.578
243.908
191.812
210.696
210.69
191.833
243.888
159.627
238.151
218.042
160.679
228.988
178.078
200.712
200.701
178.096
228.971
160.706
218.031
201.077
157.855
214.433
167.866
191.477
191.468
167.892
214.44
157.905
201.102
187.427
153.622
200.741
159.263
182.032
182.019
159.283
200.74
153.638
187.427
176.159
148.936
188.264
151.798
172.714
172.691
151.786
188.216
148.864
176.085
166.353
144.032
176.995
145.268
163.948
163.921
145.234
176.932
143.928
166.262
157.603
139.09
166.814
139.422
155.82
155.799
139.392
166.772
139.008
157.545
149.761
134.285
157.634
134.105
148.321
148.299
134.061
157.584
134.193
149.698
142.672
129.673
149.341
129.209
141.422
141.396
129.144
149.27
129.559
142.593
136.19
125.244
141.804
124.644
135.073
135.051
124.578
141.737
125.139
136.126
130.232
121.007
134.932
120.355
129.219
129.203
120.299
134.88
120.924
130.195
124.747
116.97
128.652
116.308
123.807
123.796
116.262
128.614
116.907
124.732
119.686
113.135
122.903
112.483
118.798
118.791
112.445
122.876
113.089
119.69
114.993
109.486
117.619
108.856
114.151
114.145
108.825
117.6
109.452
115.011
110.615
105.997
112.736
105.399
109.817
109.814
105.374
112.727
105.977
110.649
106.524
102.663
108.209
102.092
105.756
105.754
102.071
108.205
102.652
106.569
102.694
99.4744
103.996
98.9187
101.934
101.931
98.8988
103.993
99.4658
102.741
99.0845
96.4108
100.057
95.8676
98.3277
98.3251
95.8492
100.055
96.4046
99.1334
95.6579
93.451
96.3526
92.9247
94.9121
94.9101
92.9098
96.3558
93.4529
95.7157
92.3987
90.5901
92.8582
90.0801
91.6643
91.6625
90.0676
92.8654
90.5996
92.4652
89.2975
87.8266
89.553
87.3253
88.5639
88.5609
87.3109
89.5563
87.8328
89.3598
86.3235
85.1395
86.4048
84.6442
85.5886
85.5848
84.6291
86.4054
85.1433
86.3824
83.4507
82.5124
83.3894
82.0279
82.7243
82.721
82.0159
83.3944
82.5241
83.5184
80.6759
79.9473
80.4968
79.4742
79.9605
79.9564
79.4619
80.5013
79.9612
80.7463
77.988
77.4369
77.7093
76.9724
77.2805
77.2745
76.9571
77.7081
77.4453
78.0521
75.3665
74.9667
75.0071
74.5131
74.6729
74.6669
74.4995
75.0072
74.9775
75.4325
72.8041
72.5335
72.3815
72.0942
72.1312
72.1259
72.0846
72.3866
72.5519
72.8779
70.2965
70.135
69.8223
69.7086
69.6425
69.637
69.7004
69.8288
70.1566
70.373
67.8331
67.7631
67.3165
67.348
67.1964
67.1907
67.3412
67.3236
67.786
67.9096
65.407
65.4141
64.8574
65.011
64.7895
64.7841
65.0065
64.8657
65.4381
65.4827
63.0144
63.0862
62.4393
62.6943
62.4153
62.4098
62.6906
62.4463
63.1085
63.0866
60.6483
60.7741
60.0534
60.3918
60.0653
60.059
60.3872
60.0571
60.793
60.7158
58.3009
58.4718
57.6922
58.0991
57.734
57.7265
58.0926
57.6913
58.4866
58.3634
55.9662
56.1745
55.3485
55.8118
55.4163
55.4082
55.805
55.3456
56.1887
56.0279
53.6426
53.8817
53.0195
53.5287
53.1099
53.1021
53.5243
53.0188
53.9006
53.7094
51.3318
51.5957
50.7054
51.2504
50.8125
50.8037
51.2449
50.7021
51.6138
51.3977
49.0278
49.31
48.3977
48.9703
48.5166
48.506
48.9614
48.3893
49.324
49.0881
46.7239
47.0189
46.0907
46.6863
46.2207
46.2092
46.676
46.082
47.0343
46.7829
44.4202
44.7247
43.7863
44.4008
43.9261
43.9133
44.3873
43.776
44.7398
44.4758
42.1136
42.4246
41.4796
42.1082
41.626
41.6115
42.0896
41.4658
42.437
42.1631
39.7973
40.1124
39.1642
39.804
39.3168
39.301
39.7816
39.1495
40.1247
39.8436
37.4693
37.7872
36.8394
37.4882
36.9986
36.9832
37.4646
36.8277
37.8039
37.5175
35.1335
35.4526
34.5074
35.1621
34.6718
34.6585
35.1397
34.5016
35.4768
35.1873
32.7929
33.112
32.1713
32.8287
32.338
32.3263
32.8049
32.1649
33.1362
32.8458
30.4429
30.7608
29.8253
30.4823
29.9909
29.9798
30.4538
29.8123
30.7777
30.4882
28.0744
28.3903
27.4611
28.1162
27.6253
27.6159
28.0854
27.4444
28.4029
28.1158
25.6881
26.0016
25.0806
25.7335
25.2453
25.2392
25.7047
25.0659
26.0169
25.733
23.2898
23.6002
22.6875
23.3372
22.8519
22.8492
23.3106
22.6749
23.6178
23.3381
20.8759
21.1836
20.2811
20.9278
20.4461
20.4462
20.9017
20.2681
21.2007
20.9247
18.4478
18.7524
17.8602
18.5025
18.024
18.0261
18.475
17.8442
18.766
18.4941
16.0022
16.3034
15.4216
16.0593
15.5844
15.5889
16.0313
15.4041
16.3153
16.0481
13.5328
13.8319
12.9633
13.5988
13.1297
13.1372
13.5727
12.9483
13.8474
13.5842
11.0423
11.3399
10.4855
11.1198
10.6574
10.668
11.096
10.4741
11.3599
11.1001
8.53324
8.83156
7.99498
8.63056
8.17639
8.1897
8.60841
7.98656
8.85549
8.59655
5.98871
6.30203
5.50049
6.14876
5.70971
5.7239
6.12458
5.49051
6.32397
6.05122
3.35283
3.72262
3.01839
3.70603
3.30513
3.31793
3.67728
3.00438
3.73734
3.40761
-0.0783141
0.966768
0.690605
1.48391
1.19151