/*--------------------------------*- C++ -*----------------------------------*\
  =========                 |
  \\      /  F ield         | OpenFOAM: The Open Source CFD Toolbox
   \\    /   O peration     | Website:  https://openfoam.org
    \\  /    A nd           | Version:  8
     \\/     M anipulation  |
\*---------------------------------------------------------------------------*/
FoamFile
{
    version     2.0;
    format      ascii;
    class       volVectorField;
    location    "700";
    object      U;
}
// * * * * * * * * * * * * * * * * * * * * * * * * * * * * * * * * * * * * * //

dimensions      [0 1 -1 0 0 0 0];

internalField   nonuniform List<vector> 
1200
(
(4.00458 -0.295019 0.00255807)
(4.0291 -0.228049 0.00312701)
(4.03228 -0.190842 0.0034272)
(4.02772 -0.165195 0.00347282)
(4.02211 -0.146322 0.00333299)
(4.01622 -0.131968 0.0032549)
(4.0101 -0.120647 0.00318299)
(4.00392 -0.111465 0.00297566)
(3.99778 -0.103886 0.00267203)
(3.99171 -0.0975533 0.00236686)
(3.98573 -0.0922168 0.00203052)
(3.97983 -0.0876923 0.00165152)
(3.97403 -0.083839 0.00130167)
(3.9683 -0.0805463 0.00103108)
(3.96267 -0.0777256 0.000843299)
(3.95711 -0.075305 0.000712279)
(3.95164 -0.0732246 0.000624175)
(3.94623 -0.0714337 0.000589838)
(3.94091 -0.0698903 0.000592088)
(3.93565 -0.0685594 0.000593727)
(3.93046 -0.0674105 0.000585037)
(3.92533 -0.0664172 0.000584786)
(3.92027 -0.0655568 0.000591129)
(3.91527 -0.0648106 0.000573153)
(3.91033 -0.0641622 0.000531353)
(3.90544 -0.063597 0.000490709)
(3.90061 -0.0631028 0.000447179)
(3.89583 -0.0626692 0.000392295)
(3.89111 -0.0622873 0.000340403)
(3.88643 -0.0619491 0.000298721)
(3.88181 -0.0616481 0.000262044)
(3.87723 -0.0613789 0.000231956)
(3.8727 -0.0611366 0.000208931)
(3.86821 -0.0609171 0.000186258)
(3.86376 -0.0607171 0.000160708)
(3.85936 -0.0605336 0.000135239)
(3.855 -0.0603639 0.000116863)
(3.85068 -0.0602059 0.000105402)
(3.84639 -0.0600577 8.67602e-05)
(3.84215 -0.0599175 5.52058e-05)
(3.83794 -0.0597834 1.49265e-05)
(3.83377 -0.0596541 -3.84435e-05)
(3.82963 -0.0595286 -0.000107367)
(3.82552 -0.0594062 -0.000181868)
(3.82145 -0.059286 -0.00025151)
(3.8174 -0.0591676 -0.000320044)
(3.81339 -0.0590505 -0.000402926)
(3.80941 -0.0589344 -0.00050649)
(3.80546 -0.0588192 -0.000616448)
(3.80154 -0.0587043 -0.000721979)
(3.79764 -0.0585898 -0.000829898)
(3.79378 -0.0584752 -0.000939838)
(3.78994 -0.0583606 -0.0010562)
(3.78612 -0.058246 -0.00117645)
(3.78233 -0.0581309 -0.00128344)
(3.77856 -0.0580157 -0.0013713)
(3.77483 -0.0579015 -0.00145452)
(3.77113 -0.0577931 -0.00155748)
(3.76756 -0.0577039 -0.00167326)
(3.76363 -0.0578306 -0.00176346)
(4.00711 0.104079 -0.0006961)
(4.00323 0.133678 -0.000913229)
(4.00185 0.134052 -0.000642611)
(4.00115 0.129214 -0.000416522)
(4.00151 0.123052 -0.000336812)
(4.00248 0.116473 -0.000224733)
(4.00364 0.11019 -9.6802e-05)
(4.00483 0.10451 -5.85629e-05)
(4.00601 0.0994782 -7.65572e-05)
(4.00713 0.0950573 -7.56685e-05)
(4.00818 0.0911925 -9.51514e-05)
(4.00916 0.0878238 -0.000161774)
(4.01006 0.0848917 -0.000222001)
(4.01088 0.0823401 -0.000231957)
(4.01163 0.080118 -0.000184283)
(4.01232 0.0781805 -0.000100499)
(4.01296 0.0764892 6.04399e-06)
(4.01354 0.0750108 0.000144876)
(4.01407 0.0737157 0.000307592)
(4.01456 0.0725774 0.000470362)
(4.01501 0.0715742 0.000627621)
(4.01543 0.0706883 0.000794434)
(4.01581 0.069904 0.00096874)
(4.01617 0.0692067 0.00112482)
(4.0165 0.0685844 0.00126372)
(4.0168 0.0680278 0.00140468)
(4.01709 0.0675282 0.00154152)
(4.01735 0.0670777 0.00166714)
(4.0176 0.0666699 0.00179371)
(4.01784 0.0662997 0.00192562)
(4.01806 0.0659619 0.00205873)
(4.01827 0.0656522 0.00219626)
(4.01846 0.0653669 0.00233888)
(4.01865 0.0651027 0.00248063)
(4.01883 0.0648569 0.00261908)
(4.019 0.0646271 0.0027569)
(4.01916 0.0644113 0.002901)
(4.01932 0.0642077 0.00305193)
(4.01947 0.0640147 0.00319712)
(4.01962 0.063829 0.0033317)
(4.01976 0.0636492 0.00345964)
(4.0199 0.0634749 0.00357531)
(4.02003 0.0633053 0.00367655)
(4.02016 0.0631395 0.00377262)
(4.02029 0.0629774 0.00387224)
(4.02042 0.0628182 0.00397212)
(4.02055 0.0626615 0.0040572)
(4.02067 0.0625068 0.00412168)
(4.02079 0.0623538 0.00417912)
(4.02092 0.0622023 0.00423881)
(4.02104 0.0620521 0.00429503)
(4.02116 0.0619032 0.00434626)
(4.02127 0.0617554 0.00438857)
(4.02139 0.0616085 0.0044247)
(4.02151 0.0614626 0.00446803)
(4.02162 0.0613169 0.00452481)
(4.02174 0.0611687 0.00458348)
(4.02187 0.0610085 0.00462137)
(4.02203 0.0608077 0.00464055)
(4.02217 0.0603004 0.00466226)
(3.9898 -0.0197036 0.000704521)
(3.98181 -0.0407288 0.00191617)
(3.98275 -0.0575913 0.00330327)
(3.98641 -0.0670261 0.00443065)
(3.99022 -0.0718245 0.00516836)
(3.99385 -0.0743185 0.00564199)
(3.9972 -0.0754813 0.00593513)
(4.00023 -0.0758345 0.00604193)
(4.00295 -0.075732 0.0060265)
(4.0054 -0.0753901 0.00597918)
(4.00761 -0.0749296 0.00588427)
(4.00961 -0.0744167 0.00572417)
(4.01142 -0.0738862 0.00554878)
(4.01307 -0.0733575 0.00540326)
(4.01457 -0.0728407 0.00530207)
(4.01595 -0.0723409 0.00523107)
(4.01722 -0.0718597 0.00517862)
(4.01839 -0.0713965 0.00515192)
(4.01948 -0.0709514 0.00514984)
(4.0205 -0.0705249 0.00516249)
(4.02145 -0.0701158 0.00518638)
(4.02235 -0.0697221 0.00522891)
(4.02319 -0.0693425 0.0052858)
(4.024 -0.0689771 0.00533809)
(4.02476 -0.0686251 0.00538843)
(4.0255 -0.0682849 0.00544832)
(4.0262 -0.0679555 0.00550861)
(4.02689 -0.0676365 0.00556454)
(4.02755 -0.067327 0.00562479)
(4.02819 -0.0670256 0.00568856)
(4.02882 -0.066732 0.00575238)
(4.02943 -0.0664459 0.0058207)
(4.03004 -0.0661667 0.00589278)
(4.03064 -0.065894 0.00596262)
(4.03122 -0.0656276 0.00602858)
(4.03181 -0.0653672 0.0060926)
(4.03238 -0.0651122 0.00616062)
(4.03296 -0.0648625 0.00623296)
(4.03353 -0.0646181 0.00629888)
(4.03411 -0.0643776 0.00635661)
(4.03468 -0.0641405 0.00641004)
(4.03525 -0.0639067 0.00645229)
(4.03582 -0.0636764 0.00648297)
(4.03639 -0.0634495 0.00651184)
(4.03696 -0.0632253 0.00654582)
(4.03754 -0.0630039 0.00658221)
(4.03812 -0.0627854 0.00660691)
(4.0387 -0.0625701 0.0066164)
(4.03928 -0.0623581 0.00662477)
(4.03987 -0.0621489 0.00663924)
(4.04045 -0.0619425 0.00665501)
(4.04105 -0.0617387 0.00666765)
(4.04164 -0.0615374 0.00667426)
(4.04224 -0.0613388 0.00667797)
(4.04284 -0.0611423 0.00668668)
(4.04345 -0.0609486 0.00670681)
(4.04406 -0.0607611 0.00672985)
(4.04467 -0.0605905 0.00673517)
(4.04526 -0.0604668 0.0067214)
(4.04571 -0.0605313 0.00670683)
(3.99816 -0.00163637 0.000151895)
(3.99613 0.00888493 0.000294838)
(3.9991 0.0201552 0.000492194)
(4.00298 0.0301249 0.000621579)
(4.00594 0.0384435 0.000561032)
(4.00824 0.0450585 0.000375795)
(4.0102 0.0503247 0.000172921)
(4.0119 0.0545772 -1.94561e-05)
(4.0134 0.0580332 -0.000185891)
(4.01475 0.0608457 -0.000283046)
(4.016 0.0631342 -0.00033921)
(4.01716 0.0649925 -0.000390981)
(4.01824 0.0664973 -0.00042824)
(4.01926 0.0677091 -0.000433497)
(4.02022 0.0686751 -0.000400975)
(4.02114 0.0694344 -0.000348593)
(4.02201 0.0700195 -0.000294941)
(4.02285 0.0704584 -0.000240402)
(4.02365 0.0707734 -0.000179667)
(4.02442 0.0709828 -0.000108093)
(4.02516 0.0711031 -2.62053e-05)
(4.02587 0.0711493 6.6784e-05)
(4.02657 0.0711338 0.000167424)
(4.02724 0.0710659 0.000266421)
(4.0279 0.0709546 0.000369557)
(4.02854 0.0708081 0.00048213)
(4.02917 0.070633 0.000594232)
(4.02978 0.0704344 0.000704257)
(4.03039 0.0702174 0.000816732)
(4.03099 0.0699867 0.000925928)
(4.03158 0.0697452 0.00102997)
(4.03216 0.0694956 0.00113443)
(4.03274 0.0692404 0.0012369)
(4.03331 0.0689814 0.0013321)
(4.03389 0.0687201 0.00142029)
(4.03446 0.0684576 0.00150345)
(4.03502 0.0681953 0.00158664)
(4.03559 0.0679341 0.00167004)
(4.03616 0.0676742 0.00174592)
(4.03673 0.0674155 0.00181742)
(4.0373 0.0671583 0.00188809)
(4.03787 0.066903 0.00194992)
(4.03844 0.0666493 0.0020036)
(4.03901 0.0663975 0.00205652)
(4.03959 0.0661481 0.00211269)
(4.04017 0.0659015 0.00217024)
(4.04075 0.0656575 0.00221708)
(4.04134 0.065416 0.00225298)
(4.04193 0.0651771 0.00229218)
(4.04252 0.0649413 0.00233914)
(4.04312 0.0647085 0.00238979)
(4.04372 0.0644788 0.00243723)
(4.04433 0.064252 0.00248008)
(4.04494 0.064028 0.00252136)
(4.04555 0.0638072 0.00256285)
(4.04617 0.0635889 0.00261107)
(4.04679 0.063371 0.00266061)
(4.0474 0.0631476 0.00269295)
(4.04799 0.0629063 0.00270231)
(4.04863 0.0626112 0.00270692)
(3.99793 -0.00101748 0.000189263)
(3.99505 -0.00120161 0.0004861)
(3.9958 -0.00451729 0.00103639)
(3.99828 -0.0103607 0.00164851)
(4.00074 -0.0173216 0.00203499)
(4.00313 -0.0245231 0.00215222)
(4.0055 -0.0314138 0.00212974)
(4.00778 -0.0377029 0.00206504)
(4.0099 -0.0432828 0.00200571)
(4.01185 -0.0481368 0.0019812)
(4.01366 -0.0523038 0.00197845)
(4.01532 -0.0558452 0.00196955)
(4.01685 -0.058828 0.00194634)
(4.01826 -0.06132 0.00191755)
(4.01956 -0.0633868 0.00189774)
(4.02077 -0.0650873 0.00187777)
(4.0219 -0.0664737 0.00184318)
(4.02295 -0.0675917 0.00179579)
(4.02393 -0.0684812 0.00174966)
(4.02486 -0.0691771 0.00172077)
(4.02573 -0.0697087 0.00171071)
(4.02656 -0.0701009 0.00171719)
(4.02735 -0.0703752 0.00173733)
(4.02811 -0.0705507 0.00176745)
(4.02883 -0.0706429 0.00181328)
(4.02953 -0.070665 0.00187449)
(4.03021 -0.0706285 0.00194135)
(4.03087 -0.0705437 0.0020138)
(4.03152 -0.0704182 0.00209089)
(4.03214 -0.070259 0.00216261)
(4.03276 -0.0700724 0.0022287)
(4.03337 -0.0698635 0.00229457)
(4.03396 -0.0696366 0.00235563)
(4.03455 -0.0693955 0.00240739)
(4.03514 -0.0691437 0.00245212)
(4.03572 -0.0688838 0.00249231)
(4.0363 -0.068618 0.00253169)
(4.03687 -0.0683479 0.00256935)
(4.03745 -0.0680755 0.00260073)
(4.03802 -0.0678023 0.00263185)
(4.03859 -0.067529 0.00266477)
(4.03917 -0.0672564 0.00269115)
(4.03974 -0.0669851 0.00271333)
(4.04032 -0.0667151 0.00273734)
(4.0409 -0.0664467 0.00276427)
(4.04148 -0.0661802 0.00279125)
(4.04206 -0.0659163 0.00280837)
(4.04265 -0.0656557 0.00281844)
(4.04324 -0.0653983 0.00283445)
(4.04384 -0.0651438 0.00285732)
(4.04444 -0.0648922 0.00288342)
(4.04504 -0.0646437 0.00290532)
(4.04564 -0.0643985 0.00292386)
(4.04625 -0.0641566 0.00294183)
(4.04687 -0.0639176 0.00295653)
(4.04749 -0.0636816 0.00297457)
(4.0481 -0.0634496 0.00299291)
(4.04871 -0.0632246 0.00299607)
(4.04928 -0.0630143 0.00297748)
(4.04984 -0.062844 0.00295801)
(3.99793 0.00102211 0.00016811)
(3.99505 0.00121109 0.000437052)
(3.99581 0.00452902 0.000964573)
(3.99828 0.0103762 0.00155217)
(4.00075 0.0173439 0.00191204)
(4.00313 0.0245562 0.00199356)
(4.00551 0.0314605 0.00194287)
(4.00778 0.037761 0.00188381)
(4.0099 0.0433484 0.00184516)
(4.01185 0.048212 0.00183436)
(4.01366 0.0523873 0.00185408)
(4.01532 0.0559335 0.00188487)
(4.01685 0.0589209 0.00190213)
(4.01826 0.0614189 0.00190508)
(4.01956 0.0634921 0.00191073)
(4.02077 0.0651992 0.00191099)
(4.0219 0.066592 0.0018922)
(4.02295 0.067716 0.00185657)
(4.02393 0.068611 0.0018197)
(4.02485 0.0693115 0.00179921)
(4.02573 0.0698472 0.00179574)
(4.02656 0.0702433 0.00180508)
(4.02735 0.0705215 0.0018254)
(4.02811 0.0706999 0.00185636)
(4.02883 0.0707948 0.00190263)
(4.02954 0.0708199 0.00196117)
(4.03021 0.0707862 0.00202558)
(4.03087 0.0707035 0.0020981)
(4.03152 0.0705804 0.00217362)
(4.03215 0.0704243 0.00224046)
(4.03276 0.0702411 0.00230061)
(4.03337 0.0700358 0.00235926)
(4.03397 0.069813 0.00241072)
(4.03456 0.0695762 0.00245175)
(4.03514 0.0693284 0.00248626)
(4.03572 0.0690722 0.00251784)
(4.0363 0.06881 0.00254885)
(4.03687 0.0685439 0.00257627)
(4.03745 0.0682753 0.00259853)
(4.03802 0.0680053 0.00262373)
(4.03859 0.0677352 0.00265197)
(4.03917 0.0674656 0.00267627)
(4.03974 0.067197 0.00270124)
(4.04032 0.06693 0.00273338)
(4.0409 0.0666649 0.00277173)
(4.04148 0.0664026 0.00281083)
(4.04206 0.0661427 0.00284305)
(4.04265 0.065885 0.00287387)
(4.04324 0.06563 0.00291386)
(4.04383 0.065378 0.00295994)
(4.04443 0.0651291 0.00300798)
(4.04503 0.0648832 0.00305176)
(4.04564 0.06464 0.00309366)
(4.04625 0.0643998 0.00313547)
(4.04686 0.0641627 0.00317227)
(4.04748 0.0639291 0.00320991)
(4.0481 0.0637 0.00324541)
(4.04871 0.0634779 0.00326539)
(4.04927 0.0632701 0.00326394)
(4.04984 0.063098 0.00326034)
(3.99816 0.00164372 9.16662e-05)
(3.99613 -0.00886202 0.00016719)
(3.9991 -0.0201152 0.000322526)
(4.00298 -0.0300728 0.00042191)
(4.00594 -0.0383828 0.000330298)
(4.00824 -0.0449884 8.67741e-05)
(4.0102 -0.0502495 -0.000180373)
(4.0119 -0.0545064 -0.000382912)
(4.0134 -0.0579677 -0.000526207)
(4.01476 -0.0607819 -0.000625361)
(4.01601 -0.0630724 -0.000662046)
(4.01716 -0.0649344 -0.000648916)
(4.01825 -0.0664411 -0.000622266)
(4.01927 -0.0676515 -0.000590666)
(4.02023 -0.0686136 -0.000541697)
(4.02115 -0.0693668 -0.000489117)
(4.02202 -0.0699447 -0.000447225)
(4.02286 -0.0703753 -0.000414628)
(4.02366 -0.0706817 -0.000380491)
(4.02443 -0.0708829 -0.000333462)
(4.02517 -0.0709956 -0.000275571)
(4.02588 -0.0710343 -0.000210899)
(4.02658 -0.0710114 -0.000140959)
(4.02725 -0.0709373 -6.52654e-05)
(4.02791 -0.0708206 1.8378e-05)
(4.02855 -0.0706686 0.000105065)
(4.02918 -0.0704883 0.000193221)
(4.02979 -0.0702854 0.000287825)
(4.0304 -0.0700642 0.000381343)
(4.031 -0.0698285 0.000462293)
(4.03159 -0.069582 0.000534927)
(4.03217 -0.0693273 0.000604602)
(4.03275 -0.0690669 0.000666532)
(4.03333 -0.0688029 0.000719114)
(4.0339 -0.0685368 0.000766759)
(4.03447 -0.06827 0.000814097)
(4.03504 -0.0680034 0.000862016)
(4.03561 -0.0677375 0.000904431)
(4.03617 -0.0674733 0.000941828)
(4.03674 -0.0672112 0.000982755)
(4.03731 -0.0669515 0.00102471)
(4.03788 -0.0666947 0.00106291)
(4.03845 -0.0664413 0.00110263)
(4.03903 -0.0661911 0.00114863)
(4.03961 -0.0659442 0.00119847)
(4.04019 -0.0657002 0.0012443)
(4.04077 -0.0654593 0.00128167)
(4.04136 -0.0652214 0.001319)
(4.04195 -0.0649865 0.00136509)
(4.04254 -0.0647541 0.00141431)
(4.04314 -0.0645244 0.00146231)
(4.04374 -0.0642976 0.00150641)
(4.04435 -0.0640739 0.00155017)
(4.04496 -0.0638529 0.00159453)
(4.04557 -0.0636346 0.0016351)
(4.04619 -0.0634181 0.00167663)
(4.04681 -0.0632011 0.00171397)
(4.04743 -0.0629775 0.00173506)
(4.04801 -0.0627342 0.00173703)
(4.04865 -0.0624321 0.00173737)
(3.98981 0.0197061 0.000585927)
(3.98182 0.0407303 0.00168689)
(3.98276 0.057605 0.00295605)
(3.98641 0.067055 0.00399502)
(3.99023 0.0718698 0.00464548)
(3.99386 0.0743844 0.00497223)
(3.9972 0.0755642 0.00515177)
(4.00022 0.0759271 0.00529437)
(4.00295 0.0758338 0.00537372)
(4.0054 0.0755025 0.00537645)
(4.00761 0.075051 0.00535737)
(4.0096 0.0745445 0.00533217)
(4.01141 0.0740191 0.00528469)
(4.01306 0.0734942 0.00522566)
(4.01457 0.0729802 0.005177)
(4.01595 0.0724822 0.00513032)
(4.01722 0.0720016 0.00508138)
(4.01839 0.0715383 0.00503746)
(4.01948 0.0710926 0.00500562)
(4.0205 0.0706647 0.00498884)
(4.02145 0.0702537 0.00498287)
(4.02234 0.0698585 0.00498533)
(4.02319 0.069478 0.00499427)
(4.02399 0.0691113 0.0050097)
(4.02476 0.0687577 0.0050311)
(4.0255 0.0684165 0.00505199)
(4.0262 0.0680866 0.00507491)
(4.02688 0.0677667 0.00510745)
(4.02755 0.0674563 0.0051408)
(4.02819 0.0671547 0.00516418)
(4.02882 0.0668614 0.0051833)
(4.02943 0.0665756 0.00520427)
(4.03004 0.0662966 0.00522495)
(4.03063 0.0660238 0.00524528)
(4.03122 0.0657571 0.00526875)
(4.03181 0.065496 0.0053005)
(4.03238 0.0652403 0.00533975)
(4.03296 0.0649902 0.00537688)
(4.03353 0.0647453 0.00541322)
(4.0341 0.0645053 0.00545609)
(4.03467 0.0642705 0.00550015)
(4.03524 0.0640401 0.0055429)
(4.03582 0.0638142 0.00558912)
(4.03639 0.0635925 0.00564223)
(4.03696 0.0633749 0.00569911)
(4.03754 0.0631615 0.00574969)
(4.03812 0.0629503 0.00579263)
(4.0387 0.0627411 0.00583768)
(4.03929 0.0625341 0.00589166)
(4.03988 0.0623294 0.00594713)
(4.04047 0.0621272 0.00599922)
(4.04106 0.0619268 0.00604953)
(4.04166 0.0617282 0.00610161)
(4.04226 0.0615316 0.00615482)
(4.04287 0.061337 0.00620657)
(4.04348 0.0611453 0.00626013)
(4.04409 0.0609599 0.00630688)
(4.04471 0.0607917 0.00633529)
(4.0453 0.0606714 0.00634718)
(4.04575 0.0607362 0.0063573)
(4.00711 -0.104056 -0.000984498)
(4.00323 -0.133677 -0.00138874)
(4.00185 -0.134061 -0.0013631)
(4.00116 -0.129229 -0.00131746)
(4.00152 -0.123071 -0.00139056)
(4.00249 -0.116491 -0.00150676)
(4.00365 -0.110205 -0.00154589)
(4.00484 -0.10452 -0.001484)
(4.00602 -0.0994771 -0.00141904)
(4.00714 -0.0950423 -0.00139626)
(4.00819 -0.0911625 -0.00136691)
(4.00917 -0.087778 -0.00132253)
(4.01006 -0.0848298 -0.00127963)
(4.01089 -0.0822627 -0.00122513)
(4.01164 -0.0800261 -0.00114414)
(4.01233 -0.0780754 -0.00105155)
(4.01296 -0.0763721 -0.000950729)
(4.01354 -0.0748827 -0.000835549)
(4.01408 -0.0735772 -0.000707446)
(4.01457 -0.0724296 -0.00057479)
(4.01502 -0.0714179 -0.00044534)
(4.01543 -0.0705238 -0.000320246)
(4.01582 -0.0697312 -0.000201926)
(4.01617 -0.0690263 -9.02158e-05)
(4.01651 -0.0683969 1.26551e-05)
(4.01681 -0.0678328 9.96027e-05)
(4.0171 -0.0673255 0.000178102)
(4.01737 -0.0668677 0.000259878)
(4.01762 -0.0664527 0.000337151)
(4.01786 -0.066075 0.000400682)
(4.01808 -0.0657296 0.000457354)
(4.01829 -0.0654124 0.000514632)
(4.01849 -0.0651199 0.000573567)
(4.01868 -0.0648489 0.000635019)
(4.01886 -0.0645966 0.000700858)
(4.01903 -0.0643603 0.000776521)
(4.01919 -0.0641381 0.000860217)
(4.01935 -0.0639277 0.00093953)
(4.01951 -0.0637278 0.00101631)
(4.01965 -0.0635368 0.00109683)
(4.0198 -0.0633536 0.00117412)
(4.01994 -0.0631773 0.0012481)
(4.02007 -0.0630071 0.00132327)
(4.0202 -0.0628422 0.00140275)
(4.02033 -0.0626819 0.00148365)
(4.02046 -0.0625257 0.00155405)
(4.02059 -0.0623717 0.00161541)
(4.02071 -0.0622199 0.00167851)
(4.02083 -0.06207 0.00174928)
(4.02095 -0.0619217 0.00181956)
(4.02107 -0.0617747 0.00188397)
(4.02119 -0.0616292 0.00194815)
(4.02131 -0.061485 0.00201549)
(4.02143 -0.0613417 0.00208406)
(4.02155 -0.0611992 0.00215366)
(4.02166 -0.0610567 0.00222679)
(4.02178 -0.0609113 0.00229138)
(4.02191 -0.0607535 0.00233527)
(4.02207 -0.0605533 0.00236395)
(4.02222 -0.0600375 0.00239348)
(4.00457 0.295048 0.00228174)
(4.02908 0.228077 0.00289262)
(4.03226 0.190873 0.00312221)
(4.02771 0.165229 0.0031357)
(4.0221 0.146355 0.0029835)
(4.01621 0.132002 0.00280303)
(4.01008 0.120678 0.00269245)
(4.0039 0.111488 0.00263576)
(3.99776 0.103896 0.0025279)
(3.99169 0.0975503 0.00234238)
(3.98571 0.092199 0.00214572)
(3.97982 0.0876588 0.00195578)
(3.97401 0.0837901 0.00176832)
(3.96829 0.0804829 0.00160584)
(3.96266 0.0776493 0.00148272)
(3.9571 0.0752172 0.00138279)
(3.95163 0.0731265 0.00130482)
(3.94623 0.0713267 0.00125457)
(3.9409 0.0697756 0.00122521)
(3.93564 0.0684374 0.00120114)
(3.93045 0.0672814 0.00117249)
(3.92532 0.0662812 0.001139)
(3.92026 0.0654142 0.0010982)
(3.91526 0.0646612 0.00105087)
(3.91031 0.0640057 0.000994674)
(3.90543 0.0634335 0.000922472)
(3.9006 0.0629323 0.000844771)
(3.89582 0.0624917 0.000775888)
(3.89109 0.0621025 0.000708431)
(3.88642 0.0617574 0.000633799)
(3.88179 0.0614496 0.000559542)
(3.87722 0.0611735 0.000493879)
(3.87268 0.0609243 0.000439257)
(3.86819 0.0606977 0.000396013)
(3.86375 0.0604905 0.000363762)
(3.85935 0.0602996 0.00034691)
(3.85498 0.0601225 0.000341748)
(3.85066 0.0599572 0.000333092)
(3.84638 0.059802 0.000322622)
(3.84213 0.0596552 0.000315613)
(3.83793 0.0595156 0.000303808)
(3.83375 0.0593821 0.000288486)
(3.82961 0.0592536 0.000273825)
(3.82551 0.0591294 0.000262666)
(3.82143 0.0590087 0.000251946)
(3.81739 0.0588911 0.000228211)
(3.81338 0.0587755 0.000195012)
(3.8094 0.058661 0.000164502)
(3.80545 0.0585472 0.000142227)
(3.80153 0.0584338 0.000119089)
(3.79763 0.0583207 8.88093e-05)
(3.79376 0.0582076 5.96791e-05)
(3.78992 0.0580944 3.48508e-05)
(3.78611 0.0579811 1.11233e-05)
(3.78232 0.0578675 -1.02691e-05)
(3.77855 0.0577539 -2.71696e-05)
(3.77482 0.0576415 -5.42144e-05)
(3.77112 0.0575354 -0.000103936)
(3.76756 0.0574491 -0.000165625)
(3.76365 0.0575802 -0.000215622)
(4.0045 -0.295184 0.000513956)
(4.02897 -0.228232 0.000504522)
(4.03216 -0.19102 0.000649443)
(4.02761 -0.165376 0.000754571)
(4.02201 -0.146514 0.000781834)
(4.01613 -0.132179 0.000909281)
(4.01002 -0.120876 0.00104882)
(4.00384 -0.111704 0.00104484)
(3.9977 -0.104124 0.000930544)
(3.99164 -0.0977838 0.000798754)
(3.98567 -0.0924342 0.000619659)
(3.97978 -0.0878924 0.000382478)
(3.97399 -0.0840205 0.000160302)
(3.96828 -0.08071 4.69641e-06)
(3.96265 -0.0778736 -7.94127e-05)
(3.9571 -0.0754395 -0.000116902)
(3.95163 -0.0733482 -0.000120579)
(3.94623 -0.0715498 -7.86468e-05)
(3.94091 -0.0700016 -7.46886e-06)
(3.93565 -0.0686668 5.64319e-05)
(3.93046 -0.0675143 0.000103947)
(3.92533 -0.0665181 0.000154423)
(3.92027 -0.0656558 0.000206538)
(3.91527 -0.0649075 0.00022983)
(3.91032 -0.0642565 0.000225209)
(3.90544 -0.0636889 0.000218054)
(3.90061 -0.0631927 0.000204686)
(3.89583 -0.0627572 0.00017696)
(3.8911 -0.0623736 0.00014952)
(3.88643 -0.0620345 0.00012986)
(3.88181 -0.0617333 0.000113014)
(3.87723 -0.0614644 0.000100786)
(3.8727 -0.0612229 9.38426e-05)
(3.86821 -0.0610048 8.56482e-05)
(3.86376 -0.0608065 7.31276e-05)
(3.85936 -0.0606249 5.93788e-05)
(3.855 -0.0604576 5.15423e-05)
(3.85068 -0.0603025 4.95539e-05)
(3.84639 -0.0601574 3.94188e-05)
(3.84215 -0.0600201 1.54916e-05)
(3.83794 -0.0598888 -1.79599e-05)
(3.83376 -0.0597622 -6.52203e-05)
(3.82962 -0.059639 -0.000128685)
(3.82552 -0.0595185 -0.000198314)
(3.82144 -0.0594002 -0.000263617)
(3.8174 -0.0592834 -0.000328293)
(3.81339 -0.0591677 -0.000407751)
(3.80941 -0.0590525 -0.000508283)
(3.80546 -0.0589375 -0.000615563)
(3.80154 -0.0588224 -0.000718735)
(3.79764 -0.0587072 -0.000824578)
(3.79378 -0.0585917 -0.000932699)
(3.78993 -0.0584758 -0.00104747)
(3.78612 -0.0583593 -0.00116633)
(3.78233 -0.0582426 -0.00127212)
(3.77857 -0.0581259 -0.00135892)
(3.77483 -0.0580102 -0.00144122)
(3.77113 -0.0579001 -0.00154328)
(3.76757 -0.0578091 -0.00165921)
(3.76364 -0.0579366 -0.0017458)
(4.00711 0.10395 0.00121712)
(4.00323 0.133626 0.00196691)
(4.00185 0.134104 0.00267865)
(4.00113 0.129354 0.00306942)
(4.00149 0.123248 0.0031705)
(4.00246 0.116685 0.0032261)
(4.00361 0.1104 0.00325505)
(4.0048 0.104716 0.00317285)
(4.00597 0.0996793 0.00302507)
(4.0071 0.0952536 0.00289341)
(4.00815 0.0913849 0.00274274)
(4.00912 0.0880122 0.00254888)
(4.01002 0.0850733 0.00236662)
(4.01085 0.0825115 0.0022402)
(4.01161 0.0802769 0.00217699)
(4.01231 0.0783259 0.0021554)
(4.01294 0.0766199 0.00216196)
(4.01353 0.0751251 0.00220592)
(4.01406 0.0738135 0.00227862)
(4.01455 0.0726618 0.00235602)
(4.015 0.0716487 0.00243237)
(4.01542 0.0707549 0.00252245)
(4.0158 0.069964 0.00262395)
(4.01616 0.069263 0.00271098)
(4.01649 0.0686399 0.00278443)
(4.01679 0.0680837 0.00286329)
(4.01708 0.0675851 0.00294119)
(4.01734 0.0671365 0.00301085)
(4.01759 0.0667309 0.00308427)
(4.01783 0.0663622 0.00316562)
(4.01805 0.0660255 0.0032506)
(4.01826 0.0657166 0.00334227)
(4.01846 0.0654318 0.00344114)
(4.01864 0.0651679 0.00354113)
(4.01882 0.0649222 0.00363968)
(4.01899 0.0646922 0.00373936)
(4.01915 0.0644759 0.00384696)
(4.01931 0.0642715 0.00396291)
(4.01946 0.0640777 0.00407458)
(4.01961 0.0638925 0.00417699)
(4.01975 0.0637137 0.00427403)
(4.01989 0.0635406 0.00436006)
(4.02002 0.0633725 0.00443284)
(4.02016 0.0632087 0.00450159)
(4.02029 0.0630484 0.00457496)
(4.02041 0.0628912 0.0046496)
(4.02054 0.0627366 0.00471043)
(4.02066 0.0625844 0.00475161)
(4.02079 0.0624343 0.00478668)
(4.02091 0.0622857 0.00482485)
(4.02103 0.0621386 0.00486038)
(4.02115 0.0619924 0.00489172)
(4.02126 0.0618471 0.00491491)
(4.02138 0.0617025 0.00493265)
(4.0215 0.0615578 0.00495828)
(4.02161 0.0614125 0.00499801)
(4.02173 0.0612645 0.00504023)
(4.02186 0.0611045 0.0050623)
(4.02201 0.0609029 0.00506625)
(4.02215 0.060392 0.00507336)
(3.98982 -0.0197085 -0.000101042)
(3.98185 -0.0407321 0.000371744)
(3.98279 -0.05761 0.00127777)
(3.98641 -0.0670484 0.00210952)
(3.9902 -0.0718507 0.00267952)
(3.99381 -0.0743644 0.00307423)
(3.99715 -0.0755487 0.00334904)
(4.00017 -0.0759109 0.00347797)
(4.00289 -0.0758087 0.0035112)
(4.00534 -0.0754626 0.00352977)
(4.00755 -0.0749925 0.00351133)
(4.00955 -0.0744659 0.00343348)
(4.01136 -0.0739229 0.00334292)
(4.01301 -0.0733853 0.00328283)
(4.01452 -0.0728632 0.00326637)
(4.01591 -0.0723609 0.00327849)
(4.01718 -0.0718802 0.0033069)
(4.01836 -0.0714216 0.00335843)
(4.01945 -0.0709831 0.00343174)
(4.02047 -0.0705618 0.00351682)
(4.02142 -0.0701562 0.00361011)
(4.02232 -0.0697658 0.00371904)
(4.02317 -0.0693896 0.00383941)
(4.02397 -0.0690257 0.00395229)
(4.02474 -0.0686729 0.00406039)
(4.02547 -0.0683312 0.00417533)
(4.02618 -0.0680003 0.00428808)
(4.02686 -0.067679 0.00439397)
(4.02753 -0.0673672 0.00450181)
(4.02817 -0.0670648 0.00461092)
(4.0288 -0.0667713 0.00471794)
(4.02941 -0.0664858 0.00482745)
(4.03002 -0.0662081 0.0049388)
(4.03062 -0.0659377 0.00504611)
(4.0312 -0.0656741 0.00514782)
(4.03179 -0.065417 0.00524596)
(4.03237 -0.065166 0.00534656)
(4.03294 -0.0649209 0.00545002)
(4.03351 -0.0646813 0.00554568)
(4.03409 -0.0644455 0.00563186)
(4.03466 -0.0642123 0.00571252)
(4.03523 -0.0639822 0.00578081)
(4.0358 -0.0637548 0.0058364)
(4.03637 -0.0635302 0.0058891)
(4.03694 -0.0633084 0.00594589)
(4.03752 -0.0630893 0.00600414)
(4.0381 -0.0628727 0.00604976)
(4.03868 -0.062658 0.00607928)
(4.03926 -0.0624453 0.00610683)
(4.03985 -0.0622347 0.00613968)
(4.04044 -0.0620261 0.00617307)
(4.04103 -0.0618198 0.00620261)
(4.04162 -0.0616155 0.00622541)
(4.04222 -0.0614133 0.00624467)
(4.04283 -0.061214 0.0062683)
(4.04343 -0.0610185 0.00630277)
(4.04404 -0.0608292 0.00633959)
(4.04465 -0.0606565 0.00635813)
(4.04524 -0.0605311 0.006357)
(4.04569 -0.0605948 0.00635446)
(3.99816 -0.00164741 0.000263492)
(3.99613 0.00881792 0.000649419)
(3.9991 0.0200342 0.00112514)
(4.00297 0.0299806 0.00149382)
(4.00591 0.038289 0.00161405)
(4.0082 0.0448903 0.00155665)
(4.01016 0.0501468 0.00143823)
(4.01186 0.0544049 0.00129612)
(4.01337 0.0578778 0.00115395)
(4.01473 0.0607113 0.00106157)
(4.01598 0.0630258 0.000995941)
(4.01714 0.0649141 0.000924591)
(4.01822 0.0664462 0.000860722)
(4.01925 0.067679 0.000824074)
(4.02021 0.0686604 0.000822071)
(4.02113 0.0694305 0.000838045)
(4.02201 0.070022 0.00085437)
(4.02284 0.0704627 0.000871366)
(4.02364 0.0707768 0.000894836)
(4.02441 0.0709859 0.000929766)
(4.02515 0.0711069 0.000975868)
(4.02587 0.0711537 0.00103408)
(4.02656 0.0711386 0.00110106)
(4.02724 0.0710729 0.00116757)
(4.02789 0.0709657 0.00123944)
(4.02853 0.0708237 0.00132196)
(4.02916 0.0706535 0.00140521)
(4.02978 0.0704606 0.00148756)
(4.03038 0.0702491 0.0015735)
(4.03098 0.0700225 0.00165728)
(4.03157 0.0697841 0.00173697)
(4.03216 0.069537 0.00181811)
(4.03273 0.0692831 0.00189823)
(4.03331 0.0690245 0.00197202)
(4.03388 0.0687632 0.00203969)
(4.03445 0.0685005 0.0021032)
(4.03502 0.0682374 0.00216756)
(4.03558 0.0679746 0.00223288)
(4.03615 0.0677135 0.00229143)
(4.03672 0.0674545 0.00234628)
(4.03729 0.0671977 0.00240098)
(4.03786 0.0669434 0.00244747)
(4.03843 0.066692 0.00248642)
(4.039 0.0664436 0.00252519)
(4.03958 0.0661975 0.00256775)
(4.04016 0.0659538 0.0026122)
(4.04074 0.0657128 0.00264645)
(4.04133 0.0654751 0.00267023)
(4.04192 0.0652405 0.00269778)
(4.04251 0.0650087 0.00273351)
(4.04311 0.0647798 0.00277334)
(4.04371 0.0645536 0.00281035)
(4.04432 0.0643302 0.00284313)
(4.04493 0.0641095 0.0028747)
(4.04554 0.0638907 0.00290681)
(4.04616 0.0636734 0.00294597)
(4.04678 0.063456 0.00298672)
(4.04739 0.0632333 0.00301059)
(4.04797 0.0629924 0.00301182)
(4.04862 0.0626976 0.00300862)
(3.99793 -0.00102158 0.000188554)
(3.99506 -0.0012072 0.000430535)
(3.99582 -0.00450546 0.000904976)
(3.99828 -0.0103178 0.00143892)
(4.00072 -0.0172516 0.00175539)
(4.00309 -0.024442 0.00181699)
(4.00546 -0.0313324 0.00175378)
(4.00774 -0.0376206 0.00166122)
(4.00986 -0.043197 0.00158443)
(4.01182 -0.0480499 0.0015507)
(4.01363 -0.0522156 0.00154508)
(4.01529 -0.055754 0.00153802)
(4.01682 -0.0587364 0.00152007)
(4.01824 -0.0612328 0.00149897)
(4.01954 -0.0633073 0.00148854)
(4.02075 -0.0650176 0.00147908)
(4.02187 -0.0664154 0.00145566)
(4.02292 -0.067546 0.00141978)
(4.02391 -0.0684482 0.0013853)
(4.02484 -0.0691554 0.001368)
(4.02571 -0.0696969 0.0013694)
(4.02655 -0.0700984 0.0013871)
(4.02734 -0.0703813 0.0014182)
(4.0281 -0.0705635 0.00145897)
(4.02882 -0.0706609 0.00151511)
(4.02953 -0.0706877 0.0015863)
(4.0302 -0.0706551 0.0016628)
(4.03086 -0.0705729 0.00174454)
(4.03151 -0.07045 0.00183056)
(4.03214 -0.0702939 0.00191089)
(4.03275 -0.0701106 0.00198523)
(4.03336 -0.0699052 0.00205902)
(4.03395 -0.0696824 0.00212767)
(4.03454 -0.0694456 0.0021867)
(4.03513 -0.069198 0.0022384)
(4.03571 -0.068942 0.00228526)
(4.03629 -0.06868 0.00233103)
(4.03686 -0.0684141 0.0023748)
(4.03743 -0.0681456 0.00241204)
(4.03801 -0.0678753 0.00244878)
(4.03858 -0.0676044 0.00248708)
(4.03915 -0.0673336 0.00251863)
(4.03973 -0.0670633 0.00254577)
(4.04031 -0.0667944 0.00257456)
(4.04089 -0.0665269 0.00260609)
(4.04147 -0.0662614 0.0026375)
(4.04205 -0.065998 0.00265888)
(4.04264 -0.0657365 0.00267306)
(4.04323 -0.0654775 0.00269304)
(4.04383 -0.0652214 0.00271974)
(4.04442 -0.0649683 0.00274953)
(4.04503 -0.0647184 0.002775)
(4.04563 -0.0644713 0.00279699)
(4.04624 -0.0642272 0.00281829)
(4.04686 -0.0639865 0.00283622)
(4.04747 -0.0637496 0.00285737)
(4.04809 -0.0635171 0.00287872)
(4.0487 -0.0632913 0.00288479)
(4.04926 -0.06308 0.002869)
(4.04982 -0.0629084 0.00285216)
(3.99793 0.0010179 0.000167419)
(3.99506 0.00120009 0.000381592)
(3.99583 0.00449651 0.000833395)
(3.99829 0.0103099 0.00134294)
(4.00073 0.0172474 0.00163286)
(4.0031 0.0244414 0.00165871)
(4.00547 0.0313388 0.0015672)
(4.00775 0.0376422 0.00148012)
(4.00987 0.0432356 0.00142389)
(4.01183 0.0481036 0.00140376)
(4.01364 0.0522858 0.00142049)
(4.0153 0.0558433 0.00145302)
(4.01683 0.058843 0.00147549)
(4.01824 0.0613527 0.0014861)
(4.01954 0.0634372 0.00150112)
(4.02075 0.0651549 0.00151189)
(4.02187 0.0665579 0.00150429)
(4.02292 0.0676918 0.00148021)
(4.02391 0.0685963 0.00145502)
(4.02484 0.0693054 0.00144617)
(4.02571 0.0698483 0.0014542)
(4.02654 0.0702504 0.00147483)
(4.02734 0.0705334 0.00150616)
(4.0281 0.0707162 0.00154782)
(4.02882 0.0708145 0.00160447)
(4.02953 0.0708416 0.00167303)
(4.03021 0.0708095 0.00174713)
(4.03087 0.0707285 0.00182899)