/*--------------------------------*- C++ -*----------------------------------*\
  =========                 |
  \\      /  F ield         | OpenFOAM: The Open Source CFD Toolbox
   \\    /   O peration     | Website:  https://openfoam.org
    \\  /    A nd           | Version:  8
     \\/     M anipulation  |
\*---------------------------------------------------------------------------*/
FoamFile
{
    version     2.0;
    format      ascii;
    class       volScalarField;
    location    "200";
    object      alphat;
}
// * * * * * * * * * * * * * * * * * * * * * * * * * * * * * * * * * * * * * //

dimensions      [1 -1 -1 0 0 0 0];

internalField   nonuniform List<scalar> 
1200
(
0.800857
0.735078
0.68057
0.634616
0.597594
0.567569
0.543784
0.520068
0.484106
0.440134
0.39789
0.361762
0.333202
0.310988
0.293233
0.27863
0.266522
0.256658
0.248925
0.24273
0.237645
0.233704
0.230328
0.225018
0.21286
0.198036
0.186656
0.180025
0.176156
0.17315
0.170343
0.168205
0.16727
0.167175
0.166505
0.164273
0.16032
0.154891
0.148818
0.142958
0.137647
0.132302
0.12734
0.123368
0.12019
0.116118
0.11026
0.103128
0.0959011
0.0891016
0.0832855
0.0792175
0.0771164
0.0764388
0.076704
0.0776372
0.0790447
0.0808069
0.0827411
0.0851605
0.465658
0.399643
0.349219
0.309658
0.27834
0.253729
0.238514
0.233413
0.227005
0.215519
0.201318
0.187817
0.176238
0.166333
0.15778
0.150219
0.143348
0.136994
0.131241
0.126163
0.121602
0.117412
0.113586
0.110617
0.107649
0.103503
0.0991332
0.0951302
0.0914748
0.0880619
0.0847849
0.0816214
0.0786123
0.0757766
0.0731479
0.0706775
0.0683502
0.0661506
0.0641149
0.062264
0.0605735
0.0589503
0.0573711
0.055779
0.0541273
0.0532477
0.0527227
0.0516329
0.0494526
0.046119
0.0423345
0.0393627
0.0371673
0.0354067
0.0338798
0.0325608
0.0314813
0.0306258
0.029946
0.0294331
0.465556
0.399247
0.348533
0.308806
0.277131
0.251612
0.230954
0.215343
0.203099
0.191323
0.179595
0.169061
0.159628
0.151221
0.143739
0.137022
0.130897
0.125203
0.119968
0.115286
0.111116
0.107368
0.104069
0.101094
0.0984738
0.0958288
0.0930644
0.0903349
0.0877242
0.085196
0.08276
0.0803547
0.0780059
0.0758029
0.073755
0.0718228
0.0699622
0.0681586
0.0664145
0.064734
0.0631157
0.0615039
0.059766
0.058032
0.0566497
0.0554461
0.0541131
0.0524005
0.0502303
0.0477761
0.045408
0.0431109
0.0407955
0.0384358
0.0360378
0.0337648
0.0318293
0.0302984
0.0291084
0.0282636
0.465556
0.399474
0.348829
0.309078
0.277303
0.251677
0.230675
0.213342
0.198992
0.18665
0.175694
0.165905
0.157058
0.149032
0.141728
0.135096
0.129048
0.123473
0.118503
0.114135
0.110145
0.106358
0.102718
0.0993631
0.0962302
0.0932494
0.0903777
0.0876913
0.0851586
0.0827496
0.0804299
0.0781591
0.0759212
0.0737229
0.0715803
0.0695176
0.0675155
0.0655207
0.0634934
0.0614054
0.0592536
0.057069
0.0548439
0.0528066
0.0512695
0.0503047
0.0495644
0.0488495
0.0477294
0.0461299
0.0443219
0.0424422
0.040485
0.0383337
0.0358548
0.0332702
0.0309838
0.0291858
0.0277949
0.0268227
0.465567
0.399459
0.348728
0.308871
0.277133
0.251705
0.230921
0.213602
0.198976
0.186374
0.175323
0.165486
0.156623
0.148627
0.141448
0.135023
0.129224
0.124188
0.120046
0.116465
0.11309
0.109802
0.106627
0.103433
0.100198
0.0970487
0.0939799
0.0907782
0.0874077
0.0839816
0.0805383
0.0771404
0.0738619
0.0707188
0.0677675
0.0650823
0.0625185
0.059794
0.0568866
0.0539015
0.0510006
0.0483623
0.0461403
0.0444544
0.0432158
0.0425167
0.0423313
0.0423083
0.0419833
0.0410081
0.0394483
0.0376718
0.0358991
0.034021
0.0319662
0.0299982
0.0283848
0.0271584
0.0261835
0.0254292
0.465573
0.399427
0.348682
0.308772
0.277143
0.252007
0.231472
0.214243
0.199574
0.186909
0.175786
0.165891
0.157057
0.14921
0.142348
0.136396
0.131069
0.125914
0.121388
0.118022
0.115519
0.113189
0.110417
0.107116
0.103455
0.0996037
0.095538
0.0911264
0.0867875
0.0827008
0.078728
0.0748543
0.0711675
0.0676196
0.0642484
0.0611384
0.0582202
0.0551531
0.0519398
0.0487112
0.0458531
0.0438022
0.0427949
0.0422212
0.041296
0.0402204
0.0393923
0.0387889
0.0381811
0.0372702
0.0360238
0.0346292
0.033275
0.0319499
0.0306167
0.0293198
0.028117
0.0270464
0.0260654
0.0252362
0.465553
0.399386
0.348632
0.308669
0.27749
0.253048
0.23291
0.215802
0.201105
0.188342
0.177119
0.167199
0.158191
0.149978
0.142414
0.13517
0.127819
0.119628
0.112314
0.107633
0.105289
0.103971
0.102469
0.10027
0.0973292
0.0937523
0.0896684
0.0852395
0.0810683
0.0773052
0.0736962
0.0701904
0.0668605
0.0636742
0.0606277
0.0577776
0.0551726
0.0526093
0.0500577
0.0475792
0.045649
0.0447664
0.0448042
0.0443879
0.0432302
0.0417886
0.0402454
0.0387843
0.0374566
0.0361108
0.0346625
0.0331671
0.031782
0.0305978
0.0295432
0.0285687
0.0276256
0.0266787
0.0257104
0.0248997
0.465551
0.399191
0.348275
0.30893
0.280901
0.258745
0.238449
0.220694
0.205673
0.1915
0.177325
0.163647
0.151399
0.140356
0.130175
0.12094
0.112882
0.106397
0.0989538
0.0923801
0.0883838
0.0868385
0.0867012
0.0863537
0.0851602
0.0832116
0.0808233
0.0781865
0.0755749
0.0731354
0.0707661
0.0684123
0.0661065
0.0638517
0.0616518
0.0595298
0.0575322
0.0556383
0.0538595
0.0521986
0.0505956
0.0496225
0.0494263
0.0479949
0.0453677
0.0423733
0.0395676
0.0372332
0.0353633
0.0337498
0.0323022
0.0310537
0.0300808
0.0293693
0.0287942
0.0282263
0.027551
0.0267638
0.0260915
0.0259431
0.465702
0.400314
0.350379
0.318456
0.302242
0.284891
0.263876
0.24223
0.222948
0.206735
0.192755
0.181012
0.170414
0.160804
0.151878
0.143051
0.133609
0.124169
0.111976
0.0996459
0.0897809
0.0827559
0.0781761
0.075466
0.0736472
0.0720248
0.0705081
0.068913
0.0672441
0.0656653
0.0639849
0.0622043
0.0604148
0.058665
0.0569702
0.0553387
0.0537736
0.0522607
0.0507571
0.0496616
0.0503189
0.0530811
0.0544522
0.051356
0.0469868
0.0427551
0.0390948
0.036429
0.0346126
0.0332573
0.0321275
0.0310955
0.0301828
0.0294548
0.0288429
0.028239
0.027572
0.0268774
0.0264137
0.0265905
0.80107
0.7351
0.679348
0.636063
0.614682
0.580803
0.536447
0.493586
0.45437
0.417805
0.383634
0.352158
0.323693
0.298254
0.275986
0.257325
0.243059
0.232418
0.200201
0.172219
0.15456
0.14421
0.138246
0.134185
0.130965
0.126833
0.125442
0.12528
0.125934
0.12711
0.128394
0.129761
0.131248
0.132918
0.13482
0.136832
0.138611
0.139841
0.140374
0.13954
0.136911
0.130238
0.112755
0.0914721
0.0765513
0.069306
0.0666356
0.065262
0.0644149
0.0638794
0.0631681
0.0618349
0.060722
0.0602709
0.0602444
0.0603728
0.0606294
0.0610856
0.0620233
0.0645741
0.801125
0.735744
0.681535
0.634707
0.596911
0.567129
0.54336
0.520528
0.48607
0.442823
0.400575
0.364125
0.335119
0.312563
0.29458
0.279824
0.267602
0.25763
0.249801
0.243602
0.238603
0.234819
0.231464
0.226291
0.214751
0.200127
0.188412
0.181298
0.177123
0.173948
0.170881
0.168408
0.167175
0.166973
0.166492
0.164676
0.161199
0.156195
0.150441
0.144768
0.13953
0.134161
0.129089
0.124963
0.121711
0.11773
0.111897
0.104583
0.0970961
0.0900619
0.0840513
0.0797275
0.0774184
0.0765935
0.076751
0.0776015
0.0789434
0.0806544
0.0825576
0.0849716
0.465663
0.399959
0.349416
0.309765
0.278252
0.253334
0.237703
0.232558
0.226694
0.215652
0.201637
0.187967
0.176232
0.166205
0.157566
0.149957
0.143066
0.136695
0.13092
0.125848
0.121333
0.117217
0.113514
0.110544
0.107701
0.103782
0.0994809
0.095502
0.0918608
0.0884488
0.0851495
0.0819447
0.0788893
0.0760125
0.0733535
0.0708659
0.0685338
0.066341
0.0643132
0.0624648
0.060769
0.0591402
0.057559
0.0559796
0.054342
0.0534044
0.0529304
0.0519724
0.0499309
0.0467064
0.0428854
0.0397845
0.0374833
0.0356662
0.0341062
0.0327545
0.0316379
0.0307441
0.0300295
0.0294867
0.465565
0.39939
0.348633
0.308842
0.277093
0.251523
0.23077
0.215084
0.202985
0.191398
0.179686
0.169134
0.159665
0.151209
0.143669
0.136906
0.130749
0.12503
0.119836
0.115262
0.111208
0.107556
0.104298
0.101294
0.0985019
0.0957691
0.0930006
0.0902868
0.0876838
0.0851548
0.0827359
0.0803914
0.0780958
0.0758787
0.0737861
0.0718166
0.0699365
0.0681233
0.0663791
0.0647041
0.063069
0.0614557
0.0597871
0.0581144
0.0566946
0.05545
0.0541672
0.0525953
0.050564
0.0481754
0.045794
0.0434812
0.0411573
0.038806
0.0364188
0.0341333
0.0321551
0.030565
0.0293127
0.0284141
0.465574
0.399508
0.348863
0.309068
0.27728
0.251692
0.230709
0.21343
0.199118
0.186741
0.17569
0.165826
0.156936
0.148893
0.141617
0.135064
0.129043
0.123425
0.118469
0.114137
0.110153
0.106349
0.10274
0.0994134
0.0962761
0.0932793
0.0904021
0.0877209
0.0852037
0.0828055
0.0804868
0.0782002
0.0759346
0.0737055
0.0715423
0.0694657
0.0674559
0.0654473
0.06339
0.0612427
0.0590153
0.056756
0.0544785
0.052431
0.0509162
0.0500119
0.0494436
0.0488955
0.0479391
0.0464523
0.0446736
0.0427778
0.0407928
0.0386542
0.0362208
0.0336565
0.0313376
0.0294764
0.0280159
0.0269889
0.465557
0.399447
0.348723
0.308866
0.277174
0.251816
0.231067
0.213757
0.199132
0.186532
0.175425
0.165507
0.156608
0.148626
0.141503
0.135101
0.129274
0.124292
0.12024
0.116682
0.113278
0.109967
0.106783
0.103574
0.100324
0.0971443
0.0940166
0.0907187
0.0872348
0.0837065
0.0801715
0.0766975
0.0733632
0.0701814
0.0672107
0.0645219
0.0619519
0.0592065
0.0562857
0.0532863
0.050377
0.0477538
0.0455933
0.0439875
0.0428144
0.0421492
0.0421289
0.0423006
0.0421458
0.0413077
0.0398152
0.0380151
0.0361957
0.0343067
0.0322571
0.0302646
0.0285995
0.0273206
0.0263028
0.0255216
0.465555
0.399421
0.348652
0.308758
0.277194
0.252104
0.231573
0.214324
0.199639
0.186965
0.175839
0.165952
0.157131
0.14933
0.142551
0.136683
0.131397
0.12625
0.12182
0.118578
0.116119
0.113687
0.110712
0.107257
0.103467
0.0994883
0.0952794
0.0907008
0.0862437
0.0820812
0.0780399
0.0741118
0.0703934
0.0668232
0.063443
0.0603419
0.057438
0.0543655
0.0511604
0.0479733
0.0452073
0.0432863
0.042421
0.0420219
0.0413186
0.0403645
0.0395801
0.0389954
0.0384127
0.0375316
0.0362955
0.0348774
0.0334909
0.0321443
0.0307947
0.0294799
0.0282568
0.0271677
0.0261695
0.0253283
0.465552
0.399414
0.34863
0.308653
0.277559
0.253174
0.233036
0.215905
0.201179
0.1884
0.177179
0.167195
0.158215
0.150067
0.142519
0.135224
0.127772
0.119493
0.112348
0.108007
0.105919
0.10464
0.102946
0.10055
0.0974168
0.0936555
0.0893869
0.0847927
0.0805271
0.0767152
0.0730548
0.0695119
0.066168
0.0629757
0.059928
0.0570821
0.0544954
0.0519464
0.0494156
0.0469715
0.0451691
0.0444209
0.044711
0.0445086
0.043456
0.0420514
0.0405193
0.0390578
0.0377328
0.0363944
0.0349456
0.0334255
0.0319962
0.0307646
0.0296723
0.0286701
0.0277124
0.0267624
0.0257903
0.0249696
0.465558
0.399202
0.348261
0.308873
0.280839
0.258743
0.238427
0.220735
0.205708
0.191357
0.176963
0.163263
0.150957
0.139825
0.129579
0.120323
0.112265
0.105705
0.0982001
0.0919222
0.0883954
0.0872588
0.0872988
0.0868164
0.0854375
0.0833301
0.0807945
0.0780497
0.0753831
0.0729135
0.0704992
0.0681061
0.0657776
0.0635139
0.0613126
0.0591994
0.0572212
0.0553352
0.0535495
0.0519077
0.0503269
0.0494765
0.0495137
0.0483102
0.0458053
0.0428519
0.0400223
0.0376422
0.0357295
0.0340731
0.0325687
0.0312479
0.0302035
0.0294391
0.0288318
0.0282531
0.0275846
0.0268067
0.0261178
0.0259175
0.465663
0.399945
0.349648
0.317081
0.301114
0.28467
0.264161
0.242669
0.223319
0.207102
0.193271
0.18136
0.170474
0.160713
0.151656
0.142643
0.132955
0.123223
0.110687
0.0984507
0.0889148
0.0822614
0.0780945
0.0756468
0.0738863
0.0722633
0.0706762
0.0690354
0.0672952
0.0656404
0.0639898
0.0622558
0.0604945
0.0587613
0.0570753
0.0554452
0.053877
0.0523701
0.0508828
0.0496492
0.0501143
0.0529398
0.0547397
0.0519083
0.0475357
0.0432361
0.0394734
0.0367054
0.0348132
0.033403
0.032234
0.0311753
0.0302355
0.0294816
0.0288559
0.0282537
0.0275962
0.0269048
0.0264172
0.0265424
0.800796
0.734618
0.679135
0.634843
0.613729
0.581744
0.538259
0.495498
0.456254
0.419714
0.385593
0.35412
0.32562
0.300136
0.277811
0.259063
0.244674
0.230854
0.196746
0.169431
0.152691
0.143025
0.137439
0.133197
0.130843
0.12729
0.125477
0.125124
0.125716
0.12687
0.128139
0.12948
0.130937
0.132568
0.134434
0.136458
0.138345
0.139758
0.14052
0.140094
0.137982
0.131938
0.115151
0.0934913
0.0776756
0.0697754
0.0668811
0.0654395
0.0645478
0.0639967
0.0633471
0.0620635
0.0608837
0.060358
0.0602952
0.0604205
0.0606894
0.0611468
0.0620647
0.064577
)
;

boundaryField
{
    wall
    {
        type            compressible::alphatJayatillekeWallFunction;
        Prt             0.85;
        value           uniform 0;
    }
    inlet
    {
        type            calculated;
        value           uniform 37.903;
    }
    outlet
    {
        type            calculated;
        value           nonuniform List<scalar> 
20
(
0.0851599
0.0294331
0.0282635
0.0268226
0.0254291
0.0252361
0.0248996
0.0259431
0.0265905
0.064574
0.0849711
0.0294866
0.028414
0.0269888
0.0255215
0.0253282
0.0249695
0.0259174
0.0265423
0.0645769
)
;
    }
    heatWall
    {
        type            compressible::alphatJayatillekeWallFunction;
        Prt             0.85;
        value           nonuniform List<scalar> 
240
(
0
0
0
0
0
0
0
0
0.0628362
0.0627181
0.059786
0.0598659
0.0554404
0.0556194
0.0510778
0.0512724
0.0469907
0.0471866
0.0431211
0.0433232
0.0395094
0.0397169
0.0362229
0.0364298
0.0332745
0.0334773
0.0306553
0.0308531
0.0283767
0.0285671
0.0264799
0.0266597
0.0250388
0.0252047
0.0237484
0.023565
0.0204574
0.0201236
0.0177243
0.0174623
0.0160289
0.0158567
0.0150463
0.0149394
0.0144745
0.0144014
0.0140432
0.0139842
0.0136734
0.013654
0.0133916
0.0133909
0.0132935
0.0132769
0.013292
0.0132679
0.0133697
0.0133433
0.0134978
0.0134702
0.0136342
0.013605
0.0137799
0.0137481
0.0139399
0.013905
0.0141198
0.014081
0.0143214
0.0142798
0.0145254
0.0144878
0.0146921
0.0146699
0.0147913
0.0147922
0.0148093
0.0148368
0.0146637
0.0147383
0.0143344
0.0144589
0.0135666
0.0137546
0.0117016
0.0119487
0.00956446
0.00976206
0.00810139
0.00820875
0.00740766
0.00745317
0.00715056
0.00717539
0.00700476
0.00702361
0.00691149
0.00692708
0.00685316
0.00686803
0.00677271
0.00679147
0.00663205
0.00665237
0.00652669
0.00653997
0.00648842
0.00649525
0.00649007
0.00649418
0.0065051
0.00650893
0.00653434
0.00653893
0.00658755
0.00659188
0.00669933
0.00670201
0.00698018
0.00697961
0
0
0
0
0
0
0.0642767
0.0642897
0.0606741
0.0606083
0.0577627
0.0577172
0.0554716
0.0554257
0.0531515
0.053197
0.0496041
0.0498018
0.0451679
0.0454446
0.0408328
0.0411109
0.0371371
0.0373789
0.0342474
0.034443
0.0320095
0.0321707
0.0302221
0.0303608
0.0287509
0.0288742
0.0275317
0.0276434
0.026543
0.0266446
0.0257699
0.0258653
0.025142
0.0252406
0.0246146
0.0247234
0.0241991
0.024322
0.0238506
0.0239706
0.0232748
0.0234146
0.0219628
0.0221652
0.0204595
0.0206693
0.0193619
0.0195275
0.0187418
0.0188577
0.0183847
0.0184707
0.0181074
0.0181735
0.0178553
0.0178919
0.0176772
0.0176816
0.0176164
0.0175949
0.0176105
0.0175866
0.0175056
0.0175104
0.017217
0.0172712
0.0167508
0.0168565
0.0161445
0.0162925
0.015489
0.015666
0.0148735
0.0150657
0.0143289
0.0145253
0.0137927
0.0139834
0.0133049
0.0134821
0.0129183
0.0130797
0.0125893
0.012748
0.0121578
0.0123245
0.0115573
0.0117219
0.0108458
0.0109889
0.010119
0.0102366
0.00942914
0.0095242
0.00884223
0.00891726
0.00844677
0.00849577
0.00825152
0.00827997
0.00819861
0.00821266
0.00824065
0.00824425
0.00835003
0.00834569
0.00850674
0.00849621
0.00869864
0.00868356
0.00890716
0.00888919
0.00916252
0.00914395
)
;
    }
}


// ************************************************************************* //
