/*--------------------------------*- C++ -*----------------------------------*\
  =========                 |
  \\      /  F ield         | OpenFOAM: The Open Source CFD Toolbox
   \\    /   O peration     | Website:  https://openfoam.org
    \\  /    A nd           | Version:  8
     \\/     M anipulation  |
\*---------------------------------------------------------------------------*/
FoamFile
{
    version     2.0;
    format      ascii;
    class       volScalarField;
    location    "200";
    object      epsilon;
}
// * * * * * * * * * * * * * * * * * * * * * * * * * * * * * * * * * * * * * //

dimensions      [0 2 -3 0 0 0 0];

internalField   nonuniform List<scalar> 
1200
(
72.1349
55.7842
44.2853
35.9136
30.0051
25.7322
22.6284
19.5441
15.4946
11.5348
8.50139
6.40179
5.0217
4.09579
3.44072
2.9558
2.58966
2.31494
2.11302
1.9571
1.8324
1.73866
1.66394
1.54166
1.28295
1.02944
0.870907
0.79076
0.747201
0.714117
0.684665
0.664315
0.657177
0.65479
0.639932
0.604436
0.552403
0.490786
0.430569
0.379352
0.337962
0.300373
0.268866
0.245602
0.226634
0.203307
0.173955
0.143407
0.116308
0.0939748
0.0773632
0.0674626
0.0629553
0.0618348
0.0628805
0.0655161
0.0693896
0.0743272
0.0799432
0.0871896
92.9308
58.753
39.2064
27.341
19.8688
15.0529
12.6206
11.8391
10.7797
9.15867
7.45011
6.07611
5.04021
4.25116
3.63695
3.14314
2.73344
2.38734
2.10014
1.86456
1.66669
1.4969
1.35228
1.24668
1.13576
1.00067
0.877299
0.77428
0.688469
0.614696
0.549294
0.490879
0.439255
0.393789
0.354255
0.319327
0.288427
0.261033
0.237317
0.21712
0.199792
0.184047
0.169421
0.155147
0.142055
0.135269
0.130274
0.120838
0.104694
0.0838824
0.0652213
0.0531496
0.0451741
0.0392338
0.0344874
0.0307523
0.0279533
0.0258922
0.0243414
0.0232215
92.8681
58.5788
38.978
27.12
19.6124
14.6808
11.3614
9.22378
7.71983
6.42739
5.31691
4.43899
3.74255
3.18878
2.74503
2.38289
2.08018
1.82156
1.60474
1.4275
1.28017
1.15491
1.04918
0.960545
0.886641
0.813616
0.743311
0.678448
0.619691
0.566663
0.518621
0.475171
0.436366
0.401798
0.370505
0.341996
0.315857
0.291852
0.26972
0.249181
0.229894
0.211484
0.193615
0.178266
0.167058
0.155795
0.142888
0.127735
0.111234
0.0953706
0.082018
0.0701857
0.0593716
0.0494488
0.0406125
0.0334308
0.0281734
0.0245184
0.021954
0.0202669
92.8708
58.6729
39.0779
27.1978
19.6676
14.7281
11.3556
8.98952
7.29406
6.01409
5.0102
4.21298
3.57006
3.0475
2.62019
2.26713
1.97094
1.72476
1.52906
1.36939
1.23125
1.10788
0.999158
0.905741
0.822864
0.74802
0.680756
0.62233
0.570379
0.52334
0.480049
0.43954
0.401636
0.366575
0.334546
0.30555
0.279139
0.254438
0.230585
0.207304
0.184861
0.163784
0.144262
0.128552
0.118137
0.112612
0.108888
0.103844
0.0958719
0.0860891
0.0764583
0.0673433
0.0584931
0.0493354
0.0399878
0.0318289
0.0258349
0.0218056
0.0190407
0.0172579
92.8697
58.6565
39.0412
27.1387
19.6292
14.7254
11.3778
9.00423
7.27567
5.97925
4.97696
4.1847
3.54843
3.03345
2.61412
2.26945
1.98825
1.77151
1.60641
1.46803
1.34283
1.22853
1.12429
1.02497
0.930125
0.842935
0.761961
0.681289
0.602739
0.53013
0.463859
0.404645
0.353008
0.308211
0.270107
0.238546
0.210861
0.183893
0.157809
0.133723
0.112836
0.0960185
0.0836065
0.0751794
0.0693894
0.0668159
0.0668158
0.0670763
0.0651671
0.0602537
0.0535147
0.0468791
0.0407278
0.0345669
0.0286018
0.0237316
0.0202742
0.0179065
0.0161539
0.0148603
92.8668
58.6456
39.0232
27.1033
19.6214
14.7625
11.4394
9.06721
7.32717
6.0177
5.00594
4.20908
3.57577
3.07396
2.67841
2.36329
2.09972
1.86278
1.67704
1.54989
1.45527
1.36173
1.25374
1.13568
1.01518
0.898361
0.784855
0.672691
0.575019
0.493534
0.422706
0.360922
0.308393
0.263182
0.224748
0.193016
0.166289
0.141004
0.11754
0.0971105
0.0816591
0.0721544
0.0681808
0.0656392
0.061619
0.057345
0.0541593
0.0518287
0.0493137
0.0456747
0.041186
0.0367094
0.0326781
0.0289882
0.0255586
0.0225073
0.0199127
0.0177768
0.0159566
0.0145133
92.8671
58.6322
38.9996
27.0704
19.7037
14.9526
11.6563
9.26705
7.4973
6.1574
5.122
4.30422
3.64726
3.11045
2.66079
2.26853
1.91044
1.56187
1.30444
1.16711
1.10458
1.06246
1.00827
0.935172
0.846192
0.747792
0.646077
0.547913
0.466946
0.40232
0.346577
0.29791
0.256477
0.220783
0.190007
0.164016
0.142566
0.123471
0.106382
0.0918937
0.0823251
0.0789483
0.0800734
0.0776255
0.0713582
0.0642868
0.0573692
0.051348
0.0462148
0.0413349
0.0365444
0.0321286
0.028463
0.0255714
0.0231478
0.0210243
0.0190513
0.0171631
0.0153749
0.0140002
92.8706
58.5462
38.8703
27.1928
20.4897
15.9745
12.4661
9.89717
7.99583
6.41227
5.05289
3.95904
3.12255
2.47625
1.96733
1.57307
1.27638
1.06299
0.852695
0.70575
0.635151
0.616169
0.615291
0.602512
0.571743
0.528272
0.479522
0.43071
0.387083
0.349473
0.315326
0.283963
0.255585
0.229904
0.206677
0.18592
0.167798
0.151818
0.137763
0.125511
0.114816
0.109458
0.107622
0.0966615
0.080628
0.0654072
0.0533901
0.0447052
0.0384883
0.0336341
0.0297111
0.026663
0.0244822
0.0229656
0.0217522
0.020522
0.0190584
0.0174516
0.0162392
0.0161351
92.9699
59.0529
39.5193
30.0677
25.5972
21.2317
16.7595
12.9235
10.095
8.06973
6.57985
5.43511
4.5247
3.79299
3.18011
2.63453
2.12172
1.67509
1.20731
0.850954
0.631243
0.504448
0.434755
0.396245
0.369491
0.345578
0.322793
0.300409
0.279216
0.258733
0.237986
0.217972
0.199398
0.182396
0.166909
0.152872
0.14017
0.128567
0.117752
0.112172
0.117583
0.136514
0.141796
0.116775
0.0894033
0.067658
0.052225
0.0427318
0.0369855
0.0330252
0.0299027
0.0271985
0.0249775
0.0233132
0.0219369
0.0205797
0.0191283
0.0177221
0.0169135
0.0174305
72.1883
55.7791
44.006
36.5325
32.7155
27.1484
21.2207
16.4882
12.834
9.94743
7.67642
5.92301
4.58883
3.58156
2.83337
2.29517
1.93686
1.63017
1.01878
0.656407
0.484944
0.40142
0.357393
0.325154
0.298461
0.28262
0.276793
0.276548
0.281182
0.289153
0.298037
0.307841
0.318917
0.331697
0.346291
0.361179
0.373164
0.379751
0.379656
0.366181
0.340117
0.285349
0.17922
0.0966529
0.0588786
0.0451302
0.0405963
0.038279
0.0368915
0.0360058
0.0347132
0.0325191
0.0309611
0.0304239
0.0304494
0.0306587
0.0310385
0.0317533
0.0332901
0.0376623
72.2102
55.9416
44.4764
35.9288
29.9066
25.6746
22.5834
19.6259
15.7056
11.7557
8.67703
6.52742
5.10849
4.1586
3.48902
2.99474
2.62199
2.34227
2.13729
1.98112
1.85793
1.76647
1.68977
1.57062
1.32013
1.06224
0.893572
0.805457
0.757601
0.721626
0.688373
0.664336
0.654465
0.652215
0.641023
0.611092
0.563984
0.505421
0.446362
0.39495
0.352584
0.313407
0.280044
0.255163
0.235599
0.212004
0.181597
0.149158
0.120383
0.0968257
0.0793323
0.068625
0.0635961
0.0621477
0.0629636
0.0654197
0.0691419
0.0739556
0.0794732
0.0866609
92.9328
58.8869
39.272
27.373
19.8512
14.9863
12.4907
11.7159
10.7399
9.17349
7.47757
6.08399
5.03502
4.23832
3.6205
3.12587
2.71675
2.37151
2.08567
1.85287
1.65823
1.49136
1.34928
1.24373
1.14055
1.01066
0.887291
0.783685
0.697122
0.622375
0.555725
0.496058
0.443359
0.397091
0.357035
0.321823
0.290791
0.263369
0.23958
0.219223
0.201685
0.185808
0.17113
0.156987
0.143666
0.13671
0.132231
0.123603
0.108036
0.0872492
0.0676723
0.0546901
0.0462014
0.0400087
0.0351025
0.0312256
0.0282952
0.0261207
0.0244793
0.0232884
92.8689
58.6301
39.0114
27.133
19.6114
14.6765
11.3454
9.20203
7.71498
6.43847
5.32542
4.44377
3.7433
3.18557
2.73836
2.37384
2.06987
1.81087
1.59926
1.42735
1.28314
1.15899
1.05292
0.963029
0.885673
0.812239
0.74223
0.677739
0.619716
0.567395
0.519876
0.476407
0.436854
0.401402
0.369675
0.34109
0.315001
0.291007
0.268868
0.248334
0.229168
0.210953
0.193319
0.177853
0.16643
0.155714
0.143823
0.129719
0.11377
0.0978119
0.0840479
0.0719387
0.0609142
0.0508582
0.0418722
0.0344706
0.028964
0.025085
0.0223386
0.0205208
92.8659
58.6825
39.0891
27.1946
19.6646
14.7307
11.3566
8.99145
7.29776
6.01819
5.01221
4.21389
3.57119
3.04909
2.62174
2.26731
1.96762
1.7213
1.52863
1.37047
1.23223
1.10848
1.00072
0.90792
0.824873
0.749704
0.682413
0.623888
0.572083
0.52516
0.481778
0.440846
0.402393
0.366798
0.334358
0.305128
0.278537
0.253319
0.228749
0.204842
0.182056
0.160849
0.141527
0.126229
0.116208
0.110973
0.108205
0.104466
0.0974776
0.0880216
0.0782148
0.0688144
0.0597447
0.0505734
0.0412364
0.0329254
0.0266712
0.0223939
0.0194324
0.0175237
92.867
58.6648
39.0413
27.1372
19.6328
14.7337
11.385
9.00869
7.27918
5.98285
4.97877
4.18451
3.54767
3.03332
2.61471
2.26906
1.98925
1.77751
1.61523
1.47632
1.34962
1.23483
1.1299
1.0298
0.933985
0.84537
0.762217
0.678664
0.597693
0.523546
0.456334
0.396753
0.345194
0.300677
0.26303
0.232086
0.204987
0.178396
0.152695
0.129016
0.108638
0.0924461
0.0808078
0.0730456
0.0676809
0.065303
0.0659087
0.0670778
0.0660111
0.0616145
0.0549418
0.0480194
0.0416339
0.0353984
0.0293528
0.0243187
0.0206844
0.0181835
0.0163401
0.0149946
92.8728
58.6527
39.0122
27.0984
19.6262
14.7727
11.4486
9.07403
7.33241
6.02152
5.00918
4.21229
3.58147
3.08442
2.69372
2.3812
2.11729
1.87951
1.69712
1.57297
1.47706
1.37661
1.26216
1.13884
1.01416
0.893668
0.776638
0.661386
0.562646
0.481281
0.410828
0.349656
0.298031
0.253739
0.216276
0.185548
0.159717
0.135107
0.112441
0.0929699
0.0785888
0.0700687
0.0668135
0.0650066
0.0617319
0.0578299
0.0547681
0.0524674
0.0500406
0.0465125
0.0420224
0.037407
0.0332436
0.0294623
0.025961
0.0228402
0.0201816
0.0179921
0.0161267
0.0146515
92.8721
58.6451
38.9981
27.0676
19.7154
14.9707
11.6712
9.27779
7.50443
6.16278
5.12749
4.31301
3.65942
3.12211
2.66854
2.27089
1.90771
1.55778
1.3089
1.18241
1.12507
1.08021
1.0195
0.940153
0.845763
0.74308
0.638016
0.537643
0.45624
0.392104
0.33689
0.288909
0.248293
0.213381
0.183342
0.158083
0.137414
0.11898
0.102513
0.0887993
0.0803254
0.0776798
0.079653
0.0782438
0.0724884
0.065524
0.0585666
0.0524404
0.047217
0.0422751
0.0373951
0.0328249
0.0289731
0.0259322
0.0234064
0.0212157
0.0192083
0.0173083
0.0155017
0.0140964
92.8677
58.5484
38.8667
27.169
20.4689
15.9682
12.4615
9.90434
7.99708
6.39216
5.01803
3.92092
3.0855
2.44214
1.93724
1.54746
1.25446
1.04118
0.834359
0.698224
0.638521
0.627147
0.625652
0.608853
0.574101
0.527967
0.477338
0.427354
0.38329
0.345759
0.311677
0.280448
0.252316
0.22689
0.203915
0.183444
0.165653
0.149823
0.135851
0.123885
0.11343
0.108699
0.108469
0.0988986
0.0832323
0.06777
0.0552709
0.0461476
0.0396042
0.0344955
0.0303425
0.0270766
0.0247167
0.0230822
0.0218057
0.0205627
0.0191192
0.0175257
0.016272
0.0160698
92.9307
58.8718
39.2537
29.5855
25.3069
21.1859
16.8146
12.9928
10.1458
8.11125
6.60815
5.43739
4.51549
3.77929
3.16026
2.60608
2.08542
1.63247
1.16525
0.82224
0.615463
0.497789
0.434365
0.397562
0.370659
0.346655
0.323498
0.300831
0.278884
0.258431
0.238178
0.218483
0.200016
0.183057
0.167578
0.15351
0.140781
0.129242
0.118524
0.111429
0.116199
0.135968
0.144635
0.120745
0.0925847
0.0699095
0.0536626
0.0436085
0.0375338
0.0333788
0.0301407
0.0273612
0.0250667
0.0233429
0.0219444
0.0205988
0.01917
0.0177661
0.0169063
0.0173222
72.1161
55.673
43.9661
36.2998
32.6106
27.311
21.4462
16.6832
12.9962
10.0873
7.79672
6.02443
4.67352
3.65218
2.89182
2.34335
1.9768
1.5895
0.968544
0.627589
0.4696
0.39304
0.352044
0.321925
0.296973
0.281565
0.275324
0.274851
0.279411
0.287303
0.29605
0.30565
0.316471
0.328921
0.343274
0.358479
0.371732
0.380237
0.382317
0.37252
0.349708
0.298024
0.191195
0.102795
0.0612055
0.0459486
0.0410155
0.0385896
0.0371497
0.0362529
0.0350026
0.032802
0.0311327
0.0305086
0.0305015
0.0307078
0.0310957
0.0318054
0.0333212
0.0376506
)
;

boundaryField
{
    wall
    {
        type            epsilonWallFunction;
        value           nonuniform List<scalar> 
1200
(
72.1349
92.9308
92.8681
92.8708
92.8697
92.8668
92.8671
92.8706
92.9699
72.1883
55.7842
58.753
58.5788
58.6729
58.6565
58.6456
58.6322
58.5462
59.0529
55.7791
44.2853
39.2064
38.978
39.0779
39.0412
39.0232
38.9996
38.8703
39.5193
44.006
35.9136
27.341
27.12
27.1978
27.1387
27.1033
27.0704
27.1928
30.0677
36.5325
30.0051
19.8688
19.6124
19.6676
19.6292
19.6214
19.7037
20.4897
25.5972
32.7155
25.7322
15.0529
14.6808
14.7281
14.7254
14.7625
14.9526
15.9745
21.2317
27.1484
22.6284
12.6206
11.3614
11.3556
11.3778
11.4394
11.6563
12.4661
16.7595
21.2207
19.5441
11.8391
9.22378
8.98952
9.00423
9.06721
9.26705
9.89717
12.9235
16.4882
15.4946
10.7797
7.71983
7.29406
7.27567
7.32717
7.4973
7.99583
10.095
12.834
11.5348
9.15867
6.42739
6.01409
5.97925
6.0177
6.1574
6.41227
8.06973
9.94743
8.50139
7.45011
5.31691
5.0102
4.97696
5.00594
5.122
5.05289
6.57985
7.67642
6.40179
6.07611
4.43899
4.21298
4.1847
4.20908
4.30422
3.95904
5.43511
5.92301
5.0217
5.04021
3.74255
3.57006
3.54843
3.57577
3.64726
3.12255
4.5247
4.58883
4.09579
4.25116
3.18878
3.0475
3.03345
3.07396
3.11045
2.47625
3.79299
3.58156
3.44072
3.63695
2.74503
2.62019
2.61412
2.67841
2.66079
1.96733
3.18011
2.83337
2.9558
3.14314
2.38289
2.26713
2.26945
2.36329
2.26853
1.57307
2.63453
2.29517
2.58966
2.73344
2.08018
1.97094
1.98825
2.09972
1.91044
1.27638
2.12172
1.93686
2.31494
2.38734
1.82156
1.72476
1.77151
1.86278
1.56187
1.06299
1.67509
1.63017
2.11302
2.10014
1.60474
1.52906
1.60641
1.67704
1.30444
0.852695
1.20731
1.01878
1.9571
1.86456
1.4275
1.36939
1.46803
1.54989
1.16711
0.70575
0.850954
0.656407
1.8324
1.66669
1.28017
1.23125
1.34283
1.45527
1.10458
0.635151
0.631243
0.484944
1.73866
1.4969
1.15491
1.10788
1.22853
1.36173
1.06246
0.616169
0.504448
0.40142
1.66394
1.35228
1.04918
0.999158
1.12429
1.25374
1.00827
0.615291
0.434755
0.357393
1.54166
1.24668
0.960545
0.905741
1.02497
1.13568
0.935172
0.602512
0.396245
0.325154
1.28295
1.13576
0.886641
0.822864
0.930125
1.01518
0.846192
0.571743
0.369491
0.298461
1.02944
1.00067
0.813616
0.74802
0.842935
0.898361
0.747792
0.528272
0.345578
0.28262
0.870907
0.877299
0.743311
0.680756
0.761961
0.784855
0.646077
0.479522
0.322793
0.276793
0.79076
0.77428
0.678448
0.62233
0.681289
0.672691
0.547913
0.43071
0.300409
0.276548
0.747201
0.688469
0.619691
0.570379
0.602739
0.575019
0.466946
0.387083
0.279216
0.281182
0.714117
0.614696
0.566663
0.52334
0.53013
0.493534
0.40232
0.349473
0.258733
0.289153
0.684665
0.549294
0.518621
0.480049
0.463859
0.422706
0.346577
0.315326
0.237986
0.298037
0.664315
0.490879
0.475171
0.43954
0.404645
0.360922
0.29791
0.283963
0.217972
0.307841
0.657177
0.439255
0.436366
0.401636
0.353008
0.308393
0.256477
0.255585
0.199398
0.318917
0.65479
0.393789
0.401798
0.366575
0.308211
0.263182
0.220783
0.229904
0.182396
0.331697
0.639932
0.354255
0.370505
0.334546
0.270107
0.224748
0.190007
0.206677
0.166909
0.346291
0.604436
0.319327
0.341996
0.30555
0.238546
0.193016
0.164016
0.18592
0.152872
0.361179
0.552403
0.288427
0.315857
0.279139
0.210861
0.166289
0.142566
0.167798
0.14017
0.373164
0.490786
0.261033
0.291852
0.254438
0.183893
0.141004
0.123471
0.151818
0.128567
0.379751
0.430569
0.237317
0.26972
0.230585
0.157809
0.11754
0.106382
0.137763
0.117752
0.379656
0.379352
0.21712
0.249181
0.207304
0.133723
0.0971105
0.0918937
0.125511
0.112172
0.366181
0.337962
0.199792
0.229894
0.184861
0.112836
0.0816591
0.0823251
0.114816
0.117583
0.340117
0.300373
0.184047
0.211484
0.163784
0.0960185
0.0721544
0.0789483
0.109458
0.136514
0.285349
0.268866
0.169421
0.193615
0.144262
0.0836065
0.0681808
0.0800734
0.107622
0.141796
0.17922
0.245602
0.155147
0.178266
0.128552
0.0751794
0.0656392
0.0776255
0.0966615
0.116775
0.0966529
0.226634
0.142055
0.167058
0.118137
0.0693894
0.061619
0.0713582
0.080628
0.0894033
0.0588786
0.203307
0.135269
0.155795
0.112612
0.0668159
0.057345
0.0642868
0.0654072
0.067658
0.0451302
0.173955
0.130274
0.142888
0.108888
0.0668158
0.0541593
0.0573692
0.0533901
0.052225
0.0405963
0.143407
0.120838
0.127735
0.103844
0.0670763
0.0518287
0.051348
0.0447052
0.0427318
0.038279
0.116308
0.104694
0.111234
0.0958719
0.0651671
0.0493137
0.0462148
0.0384883
0.0369855
0.0368915
0.0939748
0.0838824
0.0953706
0.0860891
0.0602537
0.0456747
0.0413349
0.0336341
0.0330252
0.0360058
0.0773632
0.0652213
0.082018
0.0764583
0.0535147
0.041186
0.0365444
0.0297111
0.0299027
0.0347132
0.0674626
0.0531496
0.0701857
0.0673433
0.0468791
0.0367094
0.0321286
0.026663
0.0271985
0.0325191
0.0629553
0.0451741
0.0593716
0.0584931
0.0407278
0.0326781
0.028463
0.0244822
0.0249775
0.0309611
0.0618348
0.0392338
0.0494488
0.0493354
0.0345669
0.0289882
0.0255714
0.0229656
0.0233132
0.0304239
0.0628805
0.0344874
0.0406125
0.0399878
0.0286018
0.0255586
0.0231478
0.0217522
0.0219369
0.0304494
0.0655161
0.0307523
0.0334308
0.0318289
0.0237316
0.0225073
0.0210243
0.020522
0.0205797
0.0306587
0.0693896
0.0279533
0.0281734
0.0258349
0.0202742
0.0199127
0.0190513
0.0190584
0.0191283
0.0310385
0.0743272
0.0258922
0.0245184
0.0218056
0.0179065
0.0177768
0.0171631
0.0174516
0.0177221
0.0317533
0.0799432
0.0243414
0.021954
0.0190407
0.0161539
0.0159566
0.0153749
0.0162392
0.0169135
0.0332901
0.0871896
0.0232215
0.0202669
0.0172579
0.0148603
0.0145133
0.0140002
0.0161351
0.0174305
0.0376623
72.2102
92.9328
92.8689
92.8659
92.867
92.8728
92.8721
92.8677
92.9307
72.1161
55.9416
58.8869
58.6301
58.6825
58.6648
58.6527
58.6451
58.5484
58.8718
55.673
44.4764
39.272
39.0114
39.0891
39.0413
39.0122
38.9981
38.8667
39.2537
43.9661
35.9288
27.373
27.133
27.1946
27.1372
27.0984
27.0676
27.169
29.5855
36.2998
29.9066
19.8512
19.6114
19.6646
19.6328
19.6262
19.7154
20.4689
25.3069
32.6106
25.6746
14.9863
14.6765
14.7307
14.7337
14.7727
14.9707
15.9682
21.1859
27.311
22.5834
12.4907
11.3454
11.3566
11.385
11.4486
11.6712
12.4615
16.8146
21.4462
19.6259
11.7159
9.20203
8.99145
9.00869
9.07403
9.27779
9.90434
12.9928
16.6832
15.7056
10.7399
7.71498
7.29776
7.27918
7.33241
7.50443
7.99708
10.1458
12.9962
11.7557
9.17349
6.43847
6.01819
5.98285
6.02152
6.16278
6.39216
8.11125
10.0873
8.67703
7.47757
5.32542
5.01221
4.97877
5.00918
5.12749
5.01803
6.60815
7.79672
6.52742
6.08399
4.44377
4.21389
4.18451
4.21229
4.31301
3.92092
5.43739
6.02443
5.10849
5.03502
3.7433
3.57119
3.54767
3.58147
3.65942
3.0855
4.51549
4.67352
4.1586
4.23832
3.18557
3.04909
3.03332
3.08442
3.12211
2.44214
3.77929
3.65218
3.48902
3.6205
2.73836
2.62174
2.61471
2.69372
2.66854
1.93724
3.16026
2.89182
2.99474
3.12587
2.37384
2.26731
2.26906
2.3812
2.27089
1.54746
2.60608
2.34335
2.62199
2.71675
2.06987
1.96762
1.98925
2.11729
1.90771
1.25446
2.08542
1.9768
2.34227
2.37151
1.81087
1.7213
1.77751
1.87951
1.55778
1.04118
1.63247
1.5895
2.13729
2.08567
1.59926
1.52863
1.61523
1.69712
1.3089
0.834359
1.16525
0.968544
1.98112
1.85287
1.42735
1.37047
1.47632
1.57297
1.18241
0.698224
0.82224
0.627589
1.85793
1.65823
1.28314
1.23223
1.34962
1.47706
1.12507
0.638521
0.615463
0.4696
1.76647
1.49136
1.15899
1.10848
1.23483
1.37661
1.08021
0.627147
0.497789
0.39304
1.68977
1.34928
1.05292
1.00072
1.1299
1.26216
1.0195
0.625652
0.434365
0.352044
1.57062
1.24373
0.963029
0.90792
1.0298
1.13884
0.940153
0.608853
0.397562
0.321925
1.32013
1.14055
0.885673
0.824873
0.933985
1.01416
0.845763
0.574101
0.370659
0.296973
1.06224
1.01066
0.812239
0.749704
0.84537
0.893668
0.74308
0.527967
0.346655
0.281565
0.893572
0.887291
0.74223
0.682413
0.762217
0.776638
0.638016
0.477338
0.323498
0.275324
0.805457
0.783685
0.677739
0.623888
0.678664
0.661386
0.537643
0.427354
0.300831
0.274851
0.757601
0.697122
0.619716
0.572083
0.597693
0.562646
0.45624
0.38329
0.278884
0.279411
0.721626
0.622375
0.567395
0.52516
0.523546
0.481281
0.392104
0.345759
0.258431
0.287303
0.688373
0.555725
0.519876
0.481778
0.456334
0.410828
0.33689
0.311677
0.238178
0.29605
0.664336
0.496058
0.476407
0.440846
0.396753
0.349656
0.288909
0.280448
0.218483
0.30565
0.654465
0.443359
0.436854
0.402393
0.345194
0.298031
0.248293
0.252316
0.200016
0.316471
0.652215
0.397091
0.401402
0.366798
0.300677
0.253739
0.213381
0.22689
0.183057
0.328921
0.641023
0.357035
0.369675
0.334358
0.26303
0.216276
0.183342
0.203915
0.167578
0.343274
0.611092
0.321823
0.34109
0.305128
0.232086
0.185548
0.158083
0.183444
0.15351
0.358479
0.563984
0.290791
0.315001
0.278537
0.204987
0.159717
0.137414
0.165653
0.140781
0.371732
0.505421
0.263369
0.291007
0.253319
0.178396
0.135107
0.11898
0.149823
0.129242
0.380237
0.446362
0.23958
0.268868
0.228749
0.152695
0.112441
0.102513
0.135851
0.118524
0.382317
0.39495
0.219223
0.248334
0.204842
0.129016
0.0929699
0.0887993
0.123885
0.111429
0.37252
0.352584
0.201685
0.229168
0.182056
0.108638
0.0785888
0.0803254
0.11343
0.116199
0.349708
0.313407
0.185808
0.210953
0.160849
0.0924461
0.0700687
0.0776798
0.108699
0.135968
0.298024
0.280044
0.17113
0.193319
0.141527
0.0808078
0.0668135
0.079653
0.108469
0.144635
0.191195
0.255163
0.156987
0.177853
0.126229
0.0730456
0.0650066
0.0782438
0.0988986
0.120745
0.102795
0.235599
0.143666
0.16643
0.116208
0.0676809
0.0617319
0.0724884
0.0832323
0.0925847
0.0612055
0.212004
0.13671
0.155714
0.110973
0.065303
0.0578299
0.065524
0.06777
0.0699095
0.0459486
0.181597
0.132231
0.143823
0.108205
0.0659087
0.0547681
0.0585666
0.0552709
0.0536626
0.0410155
0.149158
0.123603
0.129719
0.104466
0.0670778
0.0524674
0.0524404
0.0461476
0.0436085
0.0385896
0.120383
0.108036
0.11377
0.0974776
0.0660111
0.0500406
0.047217
0.0396042
0.0375338
0.0371497
0.0968257
0.0872492
0.0978119
0.0880216
0.0616145
0.0465125
0.0422751
0.0344955
0.0333788
0.0362529
0.0793323
0.0676723
0.0840479
0.0782148
0.0549418
0.0420224
0.0373951
0.0303425
0.0301407
0.0350026
0.068625
0.0546901
0.0719387
0.0688144
0.0480194
0.037407
0.0328249
0.0270766
0.0273612
0.032802
0.0635961
0.0462014
0.0609142
0.0597447
0.0416339
0.0332436
0.0289731
0.0247167
0.0250667
0.0311327
0.0621477
0.0400087
0.0508582
0.0505734
0.0353984
0.0294623
0.0259322
0.0230822
0.0233429
0.0305086
0.0629636
0.0351025
0.0418722
0.0412364
0.0293528
0.025961
0.0234064
0.0218057
0.0219444
0.0305015
0.0654197
0.0312256
0.0344706
0.0329254
0.0243187
0.0228402
0.0212157
0.0205627
0.0205988
0.0307078
0.0691419
0.0282952
0.028964
0.0266712
0.0206844
0.0201816
0.0192083
0.0191192
0.01917
0.0310957
0.0739556
0.0261207
0.025085
0.0223939
0.0181835
0.0179921
0.0173083
0.0175257
0.0177661
0.0318054
0.0794732
0.0244793
0.0223386
0.0194324
0.0163401
0.0161267
0.0155017
0.016272
0.0169063
0.0333212
0.0866609
0.0232884
0.0205208
0.0175237
0.0149946
0.0146515
0.0140964
0.0160698
0.0173222
0.0376506
)
;
    }
    inlet
    {
        type            turbulentMixingLengthDissipationRateInlet;
        mixingLength    0.071;
        phi             phi;
        k               k;
        value           uniform 2.17686;
    }
    outlet
    {
        type            inletOutlet;
        inletValue      uniform 0.0001;
        value           nonuniform List<scalar> 
20
(
0.0871896
0.0232215
0.0202669
0.0172579
0.0148603
0.0145133
0.0140002
0.0161351
0.0174305
0.0376623
0.0866609
0.0232884
0.0205208
0.0175237
0.0149946
0.0146515
0.0140964
0.0160698
0.0173222
0.0376506
)
;
    }
    heatWall
    {
        type            epsilonWallFunction;
        value           nonuniform List<scalar> 
240
(
72.1883
72.1161
55.7791
55.673
44.006
43.9661
36.5325
36.2998
32.7155
32.6106
27.1484
27.311
21.2207
21.4462
16.4882
16.6832
12.834
12.9962
9.94743
10.0873
7.67642
7.79672
5.92301
6.02443
4.58883
4.67352
3.58156
3.65218
2.83337
2.89182
2.29517
2.34335
1.93686
1.9768
1.63017
1.5895
1.01878
0.968544
0.656407
0.627589
0.484944
0.4696
0.40142
0.39304
0.357393
0.352044
0.325154
0.321925
0.298461
0.296973
0.28262
0.281565
0.276793
0.275324
0.276548
0.274851
0.281182
0.279411
0.289153
0.287303
0.298037
0.29605
0.307841
0.30565
0.318917
0.316471
0.331697
0.328921
0.346291
0.343274
0.361179
0.358479
0.373164
0.371732
0.379751
0.380237
0.379656
0.382317
0.366181
0.37252
0.340117
0.349708
0.285349
0.298024
0.17922
0.191195
0.0966529
0.102795
0.0588786
0.0612055
0.0451302
0.0459486
0.0405963
0.0410155
0.038279
0.0385896
0.0368915
0.0371497
0.0360058
0.0362529
0.0347132
0.0350026
0.0325191
0.032802
0.0309611
0.0311327
0.0304239
0.0305086
0.0304494
0.0305015
0.0306587
0.0307078
0.0310385
0.0310957
0.0317533
0.0318054
0.0332901
0.0333212
0.0376623
0.0376506
72.1349
72.2102
55.7842
55.9416
44.2853
44.4764
35.9136
35.9288
30.0051
29.9066
25.7322
25.6746
22.6284
22.5834
19.5441
19.6259
15.4946
15.7056
11.5348
11.7557
8.50139
8.67703
6.40179
6.52742
5.0217
5.10849
4.09579
4.1586
3.44072
3.48902
2.9558
2.99474
2.58966
2.62199
2.31494
2.34227
2.11302
2.13729
1.9571
1.98112
1.8324
1.85793
1.73866
1.76647
1.66394
1.68977
1.54166
1.57062
1.28295
1.32013
1.02944
1.06224
0.870907
0.893572
0.79076
0.805457
0.747201
0.757601
0.714117
0.721626
0.684665
0.688373
0.664315
0.664336
0.657177
0.654465
0.65479
0.652215
0.639932
0.641023
0.604436
0.611092
0.552403
0.563984
0.490786
0.505421
0.430569
0.446362
0.379352
0.39495
0.337962
0.352584
0.300373
0.313407
0.268866
0.280044
0.245602
0.255163
0.226634
0.235599
0.203307
0.212004
0.173955
0.181597
0.143407
0.149158
0.116308
0.120383
0.0939748
0.0968257
0.0773632
0.0793323
0.0674626
0.068625
0.0629553
0.0635961
0.0618348
0.0621477
0.0628805
0.0629636
0.0655161
0.0654197
0.0693896
0.0691419
0.0743272
0.0739556
0.0799432
0.0794732
0.0871896
0.0866609
)
;
    }
}


// ************************************************************************* //
