/*--------------------------------*- C++ -*----------------------------------*\
  =========                 |
  \\      /  F ield         | OpenFOAM: The Open Source CFD Toolbox
   \\    /   O peration     | Website:  https://openfoam.org
    \\  /    A nd           | Version:  8
     \\/     M anipulation  |
\*---------------------------------------------------------------------------*/
FoamFile
{
    version     2.0;
    format      ascii;
    class       volScalarField;
    location    "200";
    object      nut;
}
// * * * * * * * * * * * * * * * * * * * * * * * * * * * * * * * * * * * * * //

dimensions      [0 2 -1 0 0 0 0];

internalField   nonuniform List<scalar> 
1200
(
0.000805075
0.00073895
0.000684155
0.000637957
0.000600739
0.000570537
0.000546489
0.000522331
0.000485924
0.000441633
0.000399192
0.000362945
0.000334304
0.000312028
0.000294222
0.000279576
0.000267434
0.000257546
0.000249793
0.000243578
0.000238474
0.000234518
0.000231125
0.000225789
0.000213591
0.000198721
0.000187293
0.000180627
0.000176737
0.000173715
0.000170889
0.000168726
0.00016776
0.000167631
0.000166933
0.000164677
0.000160705
0.000155258
0.000149168
0.000143294
0.00013797
0.000132613
0.00012764
0.000123659
0.000120477
0.000116404
0.000110546
0.000103409
9.61712e-05
8.9356e-05
8.35249e-05
7.94477e-05
7.7345e-05
7.66712e-05
7.69436e-05
7.78866e-05
7.93052e-05
8.10795e-05
8.30258e-05
8.54586e-05
0.00046811
0.000401748
0.000351058
0.000311289
0.000279806
0.000255065
0.000239758
0.000234585
0.000228087
0.000216513
0.000202242
0.000188682
0.000177053
0.000167105
0.000158515
0.000150921
0.00014402
0.000137639
0.00013186
0.000126758
0.000122176
0.000117965
0.000114119
0.00011113
0.000108142
0.000103974
9.95807e-05
9.55568e-05
9.18835e-05
8.84543e-05
8.5161e-05
8.198e-05
7.89516e-05
7.60939e-05
7.34428e-05
7.09497e-05
6.86007e-05
6.63809e-05
6.43281e-05
6.24638e-05
6.07626e-05
5.91281e-05
5.75369e-05
5.59319e-05
5.42676e-05
5.3381e-05
5.28538e-05
5.1763e-05
4.95787e-05
4.62365e-05
4.24416e-05
3.94623e-05
3.72628e-05
3.55002e-05
3.39725e-05
3.2653e-05
3.15732e-05
3.07176e-05
3.00377e-05
2.95246e-05
0.000468008
0.00040135
0.000350368
0.000310432
0.00027859
0.000252937
0.00023217
0.00021647
0.00020415
0.000192307
0.000180518
0.000169931
0.000160449
0.000151999
0.000144478
0.000137727
0.00013157
0.000125847
0.000120585
0.00011588
0.000111688
0.000107921
0.000104604
0.000101611
9.89743e-05
9.63146e-05
9.3536e-05
9.07922e-05
8.81673e-05
8.56243e-05
8.31731e-05
8.07517e-05
7.83859e-05
7.61656e-05
7.41003e-05
7.21501e-05
7.02719e-05
6.84527e-05
6.66955e-05
6.50032e-05
6.33727e-05
6.1747e-05
5.99922e-05
5.82422e-05
5.6847e-05
5.56277e-05
5.42754e-05
5.25451e-05
5.03615e-05
4.78965e-05
4.552e-05
4.32167e-05
4.08975e-05
3.85364e-05
3.6138e-05
3.38647e-05
3.19283e-05
3.03965e-05
2.92057e-05
2.83601e-05
0.000468008
0.000401578
0.000350666
0.000310706
0.000278763
0.000253002
0.00023189
0.000214465
0.000200038
0.00018763
0.000176616
0.000166776
0.000157882
0.000149814
0.000142472
0.000135804
0.000129724
0.000124117
0.000119121
0.00011473
0.00011072
0.000106911
0.00010325
9.98724e-05
9.672e-05
9.37218e-05
9.08323e-05
8.81232e-05
8.55635e-05
8.31256e-05
8.07761e-05
7.84772e-05
7.62144e-05
7.39945e-05
7.18335e-05
6.97559e-05
6.77393e-05
6.57278e-05
6.36833e-05
6.15797e-05
5.94146e-05
5.7219e-05
5.49846e-05
5.29402e-05
5.13982e-05
5.04326e-05
4.96919e-05
4.89741e-05
4.78489e-05
4.62432e-05
4.44291e-05
4.25445e-05
4.05852e-05
3.84351e-05
3.59586e-05
3.33753e-05
3.10883e-05
2.9289e-05
2.78967e-05
2.6923e-05
0.000468019
0.000401563
0.000350564
0.000310497
0.000278593
0.00025303
0.000232137
0.000214726
0.000200023
0.000187355
0.000176246
0.000166357
0.000157447
0.000149406
0.000142187
0.000135725
0.000129891
0.000124823
0.00012066
0.000117063
0.000113671
0.000110362
0.000107158
0.000103928
0.000100656
9.74702e-05
9.43623e-05
9.11179e-05
8.77101e-05
8.42534e-05
8.07842e-05
7.73645e-05
7.4068e-05
7.09097e-05
6.79456e-05
6.525e-05
6.2677e-05
5.99426e-05
5.70253e-05
5.40306e-05
5.11212e-05
4.84757e-05
4.6248e-05
4.4558e-05
4.33165e-05
4.26161e-05
4.24313e-05
4.24089e-05
4.20831e-05
4.1105e-05
3.9541e-05
3.77617e-05
3.59901e-05
3.41165e-05
3.20663e-05
3.01009e-05
2.84883e-05
2.72619e-05
2.62863e-05
2.55308e-05
0.000468025
0.000401531
0.000350518
0.000310398
0.000278602
0.000253333
0.000232691
0.00021537
0.000200624
0.000187893
0.00017671
0.000166759
0.00015787
0.000149971
0.000143061
0.000137067
0.000131704
0.000126515
0.000121968
0.000118596
0.000116092
0.000113753
0.00011096
0.000107621
0.000103916
0.000100016
9.59016e-05
9.14415e-05
8.70647e-05
8.29494e-05
7.89527e-05
7.50586e-05
7.13548e-05
6.77925e-05
6.44087e-05
6.12882e-05
5.83608e-05
5.52845e-05
5.2062e-05
4.88248e-05
4.59595e-05
4.39038e-05
4.28945e-05
4.23199e-05
4.13926e-05
4.03143e-05
3.94843e-05
3.88794e-05
3.82701e-05
3.73569e-05
3.61073e-05
3.47102e-05
3.33561e-05
3.20347e-05
3.07079e-05
2.94172e-05
2.82187e-05
2.71501e-05
2.61692e-05
2.53389e-05
0.000468005
0.000401489
0.000350468
0.000310294
0.000278949
0.000254377
0.000234132
0.000216935
0.00020216
0.000189324
0.00017803
0.000168032
0.000158947
0.000150666
0.000143046
0.000135753
0.000128355
0.000120113
0.000112768
0.000108081
0.00010574
0.000104422
0.000102906
0.00010068
9.77028e-05
9.40849e-05
8.99607e-05
8.5496e-05
8.12987e-05
7.75163e-05
7.38911e-05
7.03709e-05
6.70287e-05
6.38314e-05
6.07752e-05
5.79165e-05
5.5304e-05
5.27336e-05
5.01752e-05
4.76905e-05
4.57559e-05
4.48717e-05
4.49104e-05
4.44938e-05
4.33333e-05
4.18877e-05
4.03404e-05
3.88753e-05
3.75443e-05
3.6195e-05
3.47434e-05
3.32453e-05
3.18597e-05
3.06788e-05
2.96309e-05
2.86641e-05
2.77271e-05
2.67832e-05
2.58152e-05
2.50033e-05
0.000468003
0.000401293
0.000350109
0.000310555
0.00028237
0.000260091
0.000239684
0.000221806
0.000206637
0.000192319
0.000178022
0.000164252
0.000151934
0.000140834
0.000130602
0.000121324
0.00011323
0.000106715
9.92459e-05
9.26597e-05
8.86632e-05
8.71238e-05
8.69912e-05
8.66396e-05
8.54338e-05
8.34686e-05
8.1063e-05
7.841e-05
7.57856e-05
7.3336e-05
7.09574e-05
6.85949e-05
6.62806e-05
6.40179e-05
6.18104e-05
5.96813e-05
5.76773e-05
5.57777e-05
5.39936e-05
5.23278e-05
5.07199e-05
4.97433e-05
4.95466e-05
4.81128e-05
4.54793e-05
4.24767e-05
3.96634e-05
3.73229e-05
3.54482e-05
3.3831e-05
3.23803e-05
3.11299e-05
3.0158e-05
2.94517e-05
2.88847e-05
2.83251e-05
2.76557e-05
2.68712e-05
2.61997e-05
2.60525e-05
0.000468155
0.000402422
0.000352224
0.000320125
0.000303787
0.000286314
0.000265183
0.00024343
0.000224049
0.000207747
0.000193695
0.00018189
0.000171222
0.000161529
0.000152518
0.00014361
0.000134091
0.000124573
0.000112308
9.99279e-05
9.00323e-05
8.29886e-05
7.83977e-05
7.56804e-05
7.38553e-05
7.22267e-05
7.07041e-05
6.91033e-05
6.74289e-05
6.58436e-05
6.41561e-05
6.23684e-05
6.05721e-05
5.88159e-05
5.71152e-05
5.54782e-05
5.39077e-05
5.23895e-05
5.08803e-05
4.97802e-05
5.04378e-05
5.32066e-05
5.45865e-05
5.14887e-05
4.711e-05
4.2867e-05
3.91964e-05
3.65236e-05
3.47028e-05
3.33446e-05
3.22125e-05
3.11788e-05
3.02665e-05
2.95424e-05
2.89363e-05
2.8338e-05
2.76752e-05
2.6983e-05
2.65211e-05
2.67009e-05
0.000805289
0.000738972
0.000682925
0.000639308
0.000617559
0.000583318
0.000538627
0.000495462
0.000455974
0.000419184
0.000384835
0.000353215
0.000324632
0.000299096
0.000276752
0.000258033
0.000243727
0.000233044
0.000200717
0.000172655
0.000154951
0.000144575
0.000138597
0.000134528
0.000131303
0.000127161
0.000125765
0.0001256
0.000126253
0.000127427
0.000128711
0.000130077
0.000131564
0.000133236
0.00013514
0.000137154
0.000138936
0.000140167
0.000140701
0.000139865
0.00013723
0.000130549
0.000113053
9.17324e-05
7.67725e-05
6.95085e-05
6.68354e-05
6.5462e-05
6.46149e-05
6.40793e-05
6.3366e-05
6.20286e-05
6.09164e-05
6.04716e-05
6.04537e-05
6.059e-05
6.08543e-05
6.13182e-05
6.22648e-05
6.48289e-05
0.000805345
0.000739619
0.000685125
0.000638049
0.000600053
0.000570097
0.00054608
0.000522821
0.000487915
0.00044434
0.00040189
0.000365317
0.000336228
0.000313609
0.000295575
0.000280776
0.00026852
0.000258524
0.000250676
0.000244456
0.000239439
0.000235639
0.000232268
0.000227069
0.000215489
0.000200818
0.000189056
0.000181907
0.00017771
0.000174519
0.000171433
0.000168935
0.000167672
0.000167436
0.000166926
0.000165086
0.000161589
0.000156567
0.000150796
0.000145109
0.000139859
0.000134477
0.000129393
0.000125258
0.000122001
0.000118019
0.000112184
0.000104866
9.73687e-05
9.03187e-05
8.42927e-05
7.99589e-05
7.76472e-05
7.68255e-05
7.69898e-05
7.78496e-05
7.92023e-05
8.09252e-05
8.28402e-05
8.52675e-05
0.000468115
0.000402065
0.000351256
0.000311397
0.000279717
0.000254667
0.000238944
0.000233731
0.000227781
0.000216649
0.000202563
0.000188833
0.000177048
0.000166978
0.000158301
0.000150658
0.000143738
0.000137339
0.000131539
0.000126443
0.000121906
0.00011777
0.000114047
0.000111058
0.000108194
0.000104254
9.99309e-05
9.59314e-05
9.22724e-05
8.88441e-05
8.55286e-05
8.23067e-05
7.92324e-05
7.63342e-05
7.36534e-05
7.11434e-05
6.87899e-05
6.65772e-05
6.45323e-05
6.26704e-05
6.09636e-05
5.93233e-05
5.77298e-05
5.61371e-05
5.4486e-05
5.35398e-05
5.30625e-05
5.21034e-05
5.00582e-05
4.68256e-05
4.29941e-05
3.98852e-05
3.75794e-05
3.57601e-05
3.41991e-05
3.28469e-05
3.17299e-05
3.08358e-05
3.01211e-05
2.95781e-05
0.000468017
0.000401493
0.000350469
0.000310469
0.000278552
0.000252848
0.000231985
0.00021621
0.000204036
0.000192383
0.00018061
0.000170005
0.000160486
0.000151987
0.000144408
0.00013761
0.000131421
0.000125673
0.000120454
0.000115856
0.000111781
0.000108109
0.000104834
0.000101812
9.90027e-05
9.62545e-05
9.34718e-05
9.0744e-05
8.81268e-05
8.55832e-05
8.31493e-05
8.07891e-05
7.8477e-05
7.62431e-05
7.41339e-05
7.21474e-05
7.02506e-05
6.84222e-05
6.66647e-05
6.49775e-05
6.33291e-05
6.17021e-05
6.00174e-05
5.83291e-05
5.68969e-05
5.56371e-05
5.43349e-05
5.27442e-05
5.06981e-05
4.8298e-05
4.59076e-05
4.35881e-05
4.12599e-05
3.89069e-05
3.65192e-05
3.42333e-05
3.22545e-05
3.06634e-05
2.94102e-05
2.85107e-05
0.000468026
0.000401612
0.0003507
0.000310696
0.00027874
0.000253018
0.000231924
0.000214554
0.000200164
0.000187722
0.000176613
0.000166697
0.00015776
0.000149675
0.00014236
0.000135773
0.000129718
0.000124069
0.000119087
0.000114733
0.000110727
0.000106902
0.00010327
9.99214e-05
9.67642e-05
9.37496e-05
9.08539e-05
8.81486e-05
8.56028e-05
8.3174e-05
8.08242e-05
7.85089e-05
7.62183e-05
7.39679e-05
7.17867e-05
6.9696e-05
6.76722e-05
6.56477e-05
6.35742e-05
6.14124e-05
5.91726e-05
5.69029e-05
5.46166e-05
5.25622e-05
5.10429e-05
5.01382e-05
4.95709e-05
4.90212e-05
4.80603e-05
4.65672e-05
4.47821e-05
4.2881e-05
4.08934e-05
3.87554e-05
3.63244e-05
3.37614e-05
3.14423e-05
2.95799e-05
2.81179e-05
2.70894e-05
0.000468009
0.000401551
0.00035056
0.000310493
0.000278633
0.000253142
0.000232284
0.000214883
0.00020018
0.000187514
0.000176349
0.000166378
0.000157431
0.000149406
0.000142242
0.000135803
0.000129941
0.000124928
0.000120856
0.000117282
0.000113861
0.000110527
0.000107312
0.000104066
0.000100777
9.75592e-05
9.43915e-05
9.10506e-05
8.75298e-05
8.39715e-05
8.04112e-05
7.69161e-05
7.35644e-05
7.03679e-05
6.7385e-05
6.46862e-05
6.21073e-05
5.93524e-05
5.64219e-05
5.34133e-05
5.04957e-05
4.78654e-05
4.56995e-05
4.40898e-05
4.2914e-05
4.22476e-05
4.22283e-05
4.24013e-05
4.22464e-05
4.14056e-05
3.9909e-05
3.81056e-05
3.62866e-05
3.44017e-05
3.23567e-05
3.0367e-05
2.87029e-05
2.74241e-05
2.64056e-05
2.56233e-05
0.000468007
0.000401524
0.000350488
0.000310384
0.000278654
0.000253431
0.000232792
0.000215452
0.00020069
0.000187948
0.000176762
0.000166818
0.000157942
0.000150089
0.000143263
0.000137354
0.000132033
0.000126853
0.000122405
0.000119159
0.000116697
0.000114254
0.000111254
0.000107759
0.000103921
9.98924e-05
9.56335e-05
9.10064e-05
8.65124e-05
8.23224e-05
7.8258e-05
7.43105e-05
7.05759e-05
6.69917e-05
6.35996e-05
6.04885e-05
5.75758e-05
5.44943e-05
5.12803e-05
4.8085e-05
4.53121e-05
4.33867e-05
4.25197e-05
4.21201e-05
4.14153e-05
4.04588e-05
3.96726e-05
3.90865e-05
3.85024e-05
3.7619e-05
3.63798e-05
3.49589e-05
3.3572e-05
3.22285e-05
3.0885e-05
2.95766e-05
2.8358e-05
2.72711e-05
2.62732e-05
2.54311e-05
0.000468004
0.000401518
0.000350466
0.000310278
0.000279018
0.000254504
0.000234259
0.000217038
0.000202233
0.000189381
0.000178086
0.000168023
0.000158967
0.000150752
0.000143148
0.000135805
0.000128307
0.000119978
0.000112806
0.000108461
0.000106377
0.000105095
0.000103384
0.000100958
9.77855e-05
9.3982e-05
8.96727e-05
8.5043e-05
8.0752e-05
7.69216e-05
7.32454e-05
6.96886e-05
6.63328e-05
6.31299e-05
6.00727e-05
5.72185e-05
5.46246e-05
5.20687e-05
4.95314e-05
4.70812e-05
4.52747e-05
4.45254e-05
4.48169e-05
4.46147e-05
4.35598e-05
4.21513e-05
4.0615e-05
3.91497e-05
3.78211e-05
3.64794e-05
3.50272e-05
3.35042e-05
3.2074e-05
3.08452e-05
2.97591e-05
2.87645e-05
2.78131e-05
2.68664e-05
2.58949e-05
2.50732e-05
0.00046801
0.000401305
0.000350095
0.000310498
0.000282308
0.000260088
0.000239661
0.000221842
0.000206663
0.000192166
0.000177653
0.000163862
0.000151487
0.000140298
0.000130002
0.000120703
0.000112609
0.00010602
9.84896e-05
9.22016e-05
8.86767e-05
8.75471e-05
8.75908e-05
8.71025e-05
8.57095e-05
8.35848e-05
8.10314e-05
7.82702e-05
7.55909e-05
7.31114e-05
7.0688e-05
6.82861e-05
6.59494e-05
6.36779e-05
6.14692e-05
5.93491e-05
5.73648e-05
5.54731e-05
5.36821e-05
5.20356e-05
5.04501e-05
4.95969e-05
4.96342e-05
4.8429e-05
4.59181e-05
4.29567e-05
4.01193e-05
3.77329e-05
3.58154e-05
3.4155e-05
3.26474e-05
3.13245e-05
3.02806e-05
2.95207e-05
2.89212e-05
2.83508e-05
2.76886e-05
2.69137e-05
2.62258e-05
2.60266e-05
0.000468115
0.000402052
0.00035149
0.000318744
0.000302657
0.000286093
0.000265469
0.000243869
0.00022442
0.000208116
0.000194213
0.000182237
0.000171275
0.000161428
0.000152284
0.000143191
0.000133428
0.000123617
0.000111011
9.87281e-05
8.91637e-05
8.24929e-05
7.83159e-05
7.58614e-05
7.40943e-05
7.24648e-05
7.08716e-05
6.92249e-05
6.74796e-05
6.58189e-05
6.41618e-05
6.2421e-05
6.0653e-05
5.89134e-05
5.72214e-05
5.55857e-05
5.40122e-05
5.24999e-05
5.10071e-05
4.97685e-05
5.02332e-05
5.30651e-05
5.48744e-05
5.2042e-05
4.76603e-05
4.33492e-05
3.95761e-05
3.68006e-05
3.49038e-05
3.34905e-05
3.23191e-05
3.12586e-05
3.0319e-05
2.95686e-05
2.89485e-05
2.83519e-05
2.76988e-05
2.70101e-05
2.65244e-05
2.66524e-05
0.000805014
0.000738487
0.000682711
0.0006381
0.000616619
0.000584273
0.000540453
0.000497386
0.00045787
0.000421104
0.000386805
0.000355187
0.000326568
0.000300987
0.000278584
0.000259778
0.000245348
0.000231473
0.000197251
0.00016986
0.000153077
0.000143387
0.000137788
0.000133538
0.000131181
0.000127619
0.0001258
0.000125445
0.000126035
0.000127187
0.000128456
0.000129796
0.000131254
0.000132886
0.000134753
0.00013678
0.000138669
0.000140084
0.000140847
0.00014042
0.000138303
0.000132252
0.000115452
9.37562e-05
7.78999e-05
6.99792e-05
6.70814e-05
6.56397e-05
6.47479e-05
6.41968e-05
6.35454e-05
6.22577e-05
6.1078e-05
6.05584e-05
6.05039e-05
6.06373e-05
6.0914e-05
6.13792e-05
6.2306e-05
6.48316e-05
)
;

boundaryField
{
    wall
    {
        type            nutkWallFunction;
        Cmu             0.09;
        kappa           0.41;
        E               9.8;
        value           nonuniform List<scalar> 
1200
(
5.15284e-05
4.82504e-05
4.82406e-05
4.82409e-05
4.8241e-05
4.82408e-05
4.82404e-05
4.82408e-05
4.82561e-05
5.15402e-05
4.7663e-05
4.1983e-05
4.19451e-05
4.19659e-05
4.19629e-05
4.19603e-05
4.19571e-05
4.19385e-05
4.20477e-05
4.76623e-05
4.44379e-05
3.71304e-05
3.70644e-05
3.70932e-05
3.70828e-05
3.70778e-05
3.70715e-05
3.70348e-05
3.72258e-05
4.43558e-05
4.16993e-05
3.32778e-05
3.31954e-05
3.32237e-05
3.32022e-05
3.31899e-05
3.31782e-05
3.32187e-05
3.42244e-05
4.18814e-05
3.94831e-05
3.01972e-05
3.00779e-05
3.01014e-05
3.00838e-05
3.00813e-05
3.01186e-05
3.04733e-05
3.25992e-05
4.05202e-05
3.76801e-05
2.77499e-05
2.75389e-05
2.75608e-05
2.75603e-05
2.75837e-05
2.76904e-05
2.82546e-05
3.08184e-05
3.83327e-05
3.62347e-05
2.628e-05
2.54681e-05
2.54581e-05
2.54757e-05
2.5521e-05
2.56671e-05
2.62042e-05
2.8692e-05
3.55877e-05
3.46836e-05
2.57695e-05
2.38959e-05
2.37051e-05
2.37206e-05
2.37747e-05
2.39333e-05
2.44198e-05
2.65143e-05
3.29641e-05
3.23563e-05
2.50608e-05
2.26353e-05
2.22391e-05
2.22259e-05
2.22772e-05
2.24338e-05
2.28807e-05
2.4587e-05
3.0548e-05
2.9596e-05
2.3857e-05
2.14088e-05
2.09662e-05
2.09312e-05
2.09758e-05
2.11233e-05
2.1396e-05
2.29576e-05
2.82732e-05
2.69737e-05
2.24023e-05
2.02012e-05
1.98278e-05
1.9788e-05
1.98263e-05
1.99649e-05
1.99006e-05
2.15593e-05
2.61316e-05
2.47354e-05
2.10415e-05
1.91133e-05
1.88039e-05
1.87639e-05
1.87994e-05
1.8929e-05
1.84696e-05
2.03384e-05
2.41481e-05
2.29618e-05
1.98653e-05
1.81361e-05
1.78737e-05
1.78374e-05
1.78799e-05
1.79892e-05
1.71755e-05
1.92303e-05
2.23408e-05
2.15702e-05
1.88506e-05
1.72627e-05
1.70264e-05
1.69976e-05
1.70643e-05
1.71284e-05
1.59977e-05
1.82193e-05
2.07133e-05
2.0447e-05
1.7966e-05
1.6482e-05
1.62534e-05
1.62372e-05
1.63514e-05
1.63254e-05
1.49062e-05
1.72642e-05
1.92808e-05
1.95156e-05
1.71765e-05
1.57767e-05
1.55457e-05
1.55472e-05
1.57289e-05
1.55454e-05
1.39133e-05
1.63022e-05
1.80749e-05
1.87389e-05
1.64533e-05
1.51278e-05
1.48914e-05
1.4926e-05
1.51638e-05
1.47469e-05
1.30427e-05
1.52624e-05
1.71548e-05
1.81038e-05
1.57807e-05
1.45195e-05
1.4291e-05
1.43987e-05
1.46124e-05
1.38588e-05
1.23272e-05
1.42045e-05
1.63162e-05
1.76029e-05
1.51686e-05
1.396e-05
1.37652e-05
1.39653e-05
1.41404e-05
1.30972e-05
1.15118e-05
1.28503e-05
1.41372e-05
1.71945e-05
1.46221e-05
1.34606e-05
1.33004e-05
1.35805e-05
1.37941e-05
1.2637e-05
1.08373e-05
1.15247e-05
1.23241e-05
1.68529e-05
1.41256e-05
1.3012e-05
1.28684e-05
1.32114e-05
1.35266e-05
1.24125e-05
1.04637e-05
1.0486e-05
1.11957e-05
1.65858e-05
1.3666e-05
1.26026e-05
1.24538e-05
1.2852e-05
1.32565e-05
1.22646e-05
1.03467e-05
9.7579e-06
1.05375e-05
1.63633e-05
1.32446e-05
1.22342e-05
1.20589e-05
1.25031e-05
1.2929e-05
1.20743e-05
1.03396e-05
9.2954e-06
1.01523e-05
1.59908e-05
1.29164e-05
1.19038e-05
1.16943e-05
1.21491e-05
1.25449e-05
1.18034e-05
1.02788e-05
9.01791e-06
9.8593e-06
1.51302e-05
1.25591e-05
1.16116e-05
1.13492e-05
1.17882e-05
1.21213e-05
1.14499e-05
1.01193e-05
8.81846e-06
9.60694e-06
1.41395e-05
1.20823e-05
1.13081e-05
1.10169e-05
1.14335e-05
1.16751e-05
1.10251e-05
9.87823e-06
8.63363e-06
9.41244e-06
1.34152e-05
1.1599e-05
1.09955e-05
1.06972e-05
1.10817e-05
1.1201e-05
1.05417e-05
9.58872e-06
8.45181e-06
9.34179e-06
1.30072e-05
1.11565e-05
1.06876e-05
1.03998e-05
1.07062e-05
1.06831e-05
1.002e-05
9.27523e-06
8.26322e-06
9.33692e-06
1.27719e-05
1.07542e-05
1.03907e-05
1.01182e-05
1.03096e-05
1.01781e-05
9.5352e-06
8.97098e-06
8.07294e-06
9.38516e-06
1.25871e-05
1.03785e-05
1.01045e-05
9.84766e-06
9.90832e-06
9.7067e-06
9.10195e-06
8.68802e-06
7.88241e-06
9.46804e-06
1.24166e-05
1.00175e-05
9.82823e-06
9.58389e-06
9.50612e-06
9.24924e-06
8.68636e-06
8.41199e-06
7.67846e-06
9.55855e-06
1.22929e-05
9.66825e-06
9.56046e-06
9.32236e-06
9.11023e-06
8.80315e-06
8.28251e-06
8.13867e-06
7.46763e-06
9.65588e-06
1.22454e-05
9.33434e-06
9.30423e-06
9.06239e-06
8.72939e-06
8.3787e-06
7.89947e-06
7.87179e-06
7.25837e-06
9.76288e-06
1.22327e-05
9.0169e-06
9.06232e-06
8.80621e-06
8.36507e-06
7.9699e-06
7.53236e-06
7.61119e-06
7.05408e-06
9.8831e-06
1.21554e-05
8.71968e-06
8.83197e-06
8.55651e-06
8.02384e-06
7.58094e-06
7.18033e-06
7.3569e-06
6.85588e-06
1.00173e-05
1.19564e-05
8.43752e-06
8.61085e-06
8.31555e-06
7.71391e-06
7.22213e-06
6.84997e-06
7.11168e-06
6.66465e-06
1.01523e-05
1.16409e-05
8.16954e-06
8.39663e-06
8.08147e-06
7.41716e-06
6.88548e-06
6.54782e-06
6.88094e-06
6.48062e-06
1.02617e-05
1.12323e-05
7.91473e-06
8.1886e-06
7.84777e-06
7.10038e-06
6.52978e-06
6.25016e-06
6.66217e-06
6.30198e-06
1.03254e-05
1.07912e-05
7.67841e-06
7.98617e-06
7.60715e-06
6.76097e-06
6.15634e-06
5.95418e-06
6.4559e-06
6.12465e-06
1.03341e-05
1.03766e-05
7.46352e-06
7.78833e-06
7.35572e-06
6.41044e-06
5.78381e-06
5.67304e-06
6.26338e-06
6.02021e-06
1.02323e-05
1.00087e-05
7.26744e-06
7.59311e-06
7.09428e-06
6.0682e-06
5.46042e-06
5.46539e-06
6.08232e-06
6.10945e-06
1.0011e-05
9.64389e-06
7.07856e-06
7.39623e-06
6.82765e-06
5.75762e-06
5.23617e-06
5.38313e-06
5.98319e-06
6.41868e-06
9.49254e-06
9.31023e-06
6.89299e-06
7.1908e-06
6.55745e-06
5.50076e-06
5.13334e-06
5.40314e-06
5.9527e-06
6.51855e-06
8.2155e-06
9.04483e-06
6.70179e-06
6.99892e-06
6.31787e-06
5.30915e-06
5.06804e-06
5.34948e-06
5.75645e-06
6.12999e-06
6.73677e-06
8.81944e-06
6.51219e-06
6.84978e-06
6.1447e-06
5.16835e-06
4.96139e-06
5.20487e-06
5.42922e-06
5.6179e-06
5.71642e-06
8.5249e-06
6.40952e-06
6.69981e-06
6.0452e-06
5.09933e-06
4.84105e-06
5.02897e-06
5.06824e-06
5.12272e-06
5.22347e-06
8.11375e-06
6.33583e-06
6.52174e-06
5.97407e-06
5.09382e-06
4.74744e-06
4.84235e-06
4.73581e-06
4.69567e-06
5.03847e-06
7.62503e-06
6.18935e-06
6.29662e-06
5.8841e-06
5.09809e-06
4.67715e-06
4.66609e-06
4.45995e-06
4.38519e-06
4.93953e-06
7.12553e-06
5.9136e-06
6.02498e-06
5.73712e-06
5.05188e-06
4.60069e-06
4.50424e-06
4.23803e-06
4.17258e-06
4.87828e-06
6.64869e-06
5.50491e-06
5.73114e-06
5.54045e-06
4.92514e-06
4.48522e-06
4.33847e-06
4.04615e-06
4.01232e-06
4.83864e-06
6.23867e-06
5.06361e-06
5.4534e-06
5.32754e-06
4.73491e-06
4.33184e-06
4.1611e-06
3.87541e-06
3.87661e-06
4.78112e-06
5.96025e-06
4.72441e-06
5.18005e-06
5.10718e-06
4.52708e-06
4.16487e-06
3.98107e-06
3.73035e-06
3.75111e-06
4.67832e-06
5.82176e-06
4.46989e-06
4.90084e-06
4.87327e-06
4.31598e-06
4.00183e-06
3.81675e-06
3.61862e-06
3.6409e-06
4.59993e-06
5.78374e-06
4.26033e-06
4.6119e-06
4.60618e-06
4.08331e-06
3.8402e-06
3.67614e-06
3.53679e-06
3.55352e-06
4.57124e-06
5.81266e-06
4.0765e-06
4.31735e-06
4.29495e-06
3.82784e-06
3.67651e-06
3.54969e-06
3.46914e-06
3.47845e-06
4.57186e-06
5.88903e-06
3.91833e-06
4.04085e-06
3.97539e-06
3.58748e-06
3.51704e-06
3.43135e-06
3.39894e-06
3.40185e-06
4.58235e-06
5.99887e-06
3.79005e-06
3.80871e-06
3.69854e-06
3.39319e-06
3.36872e-06
3.31423e-06
3.31227e-06
3.31611e-06
4.60162e-06
6.13353e-06
3.68922e-06
3.62734e-06
3.48397e-06
3.24572e-06
3.23593e-06
3.1943e-06
3.21126e-06
3.22798e-06
4.63692e-06
6.27964e-06
3.60935e-06
3.4876e-06
3.31909e-06
3.12751e-06
3.11353e-06
3.07154e-06
3.1291e-06
3.17353e-06
4.71042e-06
6.45878e-06
3.54929e-06
3.38888e-06
3.20344e-06
3.03463e-06
3.00931e-06
2.96961e-06
3.11902e-06
3.20478e-06
4.90761e-06
5.15446e-05
4.82508e-05
4.82409e-05
4.82408e-05
4.82405e-05
4.82411e-05
4.8241e-05
4.82406e-05
4.82505e-05
5.15245e-05
4.77034e-05
4.20123e-05
4.19569e-05
4.19683e-05
4.19639e-05
4.19613e-05
4.19599e-05
4.19391e-05
4.20095e-05
4.76345e-05
4.44958e-05
3.71494e-05
3.70741e-05
3.70965e-05
3.70828e-05
3.70747e-05
3.70711e-05
3.70337e-05
3.7151e-05
4.43435e-05
4.17047e-05
3.32893e-05
3.31999e-05
3.32226e-05
3.32017e-05
3.31882e-05
3.3177e-05
3.32106e-05
3.4065e-05
4.18026e-05
3.94433e-05
3.01889e-05
3.00766e-05
3.00998e-05
3.00861e-05
3.00843e-05
3.01244e-05
3.04646e-05
3.24869e-05
4.04766e-05
3.76543e-05
2.77119e-05
2.75348e-05
2.75623e-05
2.75666e-05
2.75905e-05
2.77012e-05
2.8252e-05
3.07978e-05
3.83992e-05
3.62122e-05
2.61976e-05
2.54552e-05
2.54595e-05
2.5483e-05
2.55283e-05
2.56778e-05
2.62014e-05
2.87206e-05
3.57011e-05
3.47243e-05
2.56865e-05
2.38764e-05
2.37085e-05
2.37272e-05
2.37809e-05
2.39422e-05
2.44247e-05
2.65576e-05
3.30818e-05
3.24867e-05
2.50319e-05
2.26292e-05
2.22449e-05
2.22324e-05
2.22825e-05
2.24406e-05
2.28821e-05
2.46245e-05
3.06648e-05
2.97659e-05
2.38693e-05
2.14192e-05
2.09718e-05
2.09382e-05
2.09803e-05
2.11289e-05
2.13766e-05
2.29939e-05
2.83931e-05
2.71418e-05
2.24293e-05
2.0211e-05
1.98295e-05
1.97923e-05
1.98306e-05
1.99712e-05
1.98594e-05
2.15937e-05
2.62554e-05
2.48827e-05
2.10516e-05
1.91199e-05
1.88027e-05
1.87643e-05
1.88042e-05
1.89376e-05
1.84184e-05
2.03492e-05
2.42731e-05
2.30824e-05
1.98605e-05
1.81379e-05
1.78718e-05
1.78361e-05
1.78883e-05
1.80034e-05
1.71166e-05
1.92226e-05
2.24652e-05
2.16707e-05
1.88341e-05
1.72583e-05
1.70248e-05
1.69974e-05
1.70808e-05
1.71454e-05
1.59324e-05
1.82014e-05
2.08364e-05
2.05342e-05
1.79417e-05
1.6471e-05
1.62527e-05
1.62395e-05
1.63782e-05
1.6339e-05
1.48373e-05
1.72331e-05
1.94009e-05
1.95937e-05
1.71479e-05
1.57598e-05
1.55451e-05
1.55486e-05
1.5764e-05
1.55506e-05
1.38438e-05
1.62503e-05
1.81898e-05
1.881e-05
1.64226e-05
1.51065e-05
1.48854e-05
1.4929e-05
1.52019e-05
1.47407e-05
1.29736e-05
1.51841e-05
1.7262e-05
1.81687e-05
1.57485e-05
1.4495e-05
1.4283e-05
1.44128e-05
1.46518e-05
1.38467e-05
1.2249e-05
1.40946e-05
1.61959e-05
1.76637e-05
1.51358e-05
1.39453e-05
1.37634e-05
1.39883e-05
1.41913e-05
1.31087e-05
1.1433e-05
1.27102e-05
1.3916e-05
1.72572e-05
1.45924e-05
1.34596e-05
1.33029e-05
1.36042e-05
1.38567e-05
1.26858e-05
1.07975e-05
1.14003e-05
1.21494e-05
1.69225e-05
1.41017e-05
1.30215e-05
1.2871e-05
1.3232e-05
1.35898e-05
1.24833e-05
1.04771e-05
1.04e-05
1.10801e-05
1.6665e-05
1.3649e-05
1.26181e-05
1.24551e-05
1.28718e-05
1.33036e-05
1.23305e-05
1.04016e-05
9.71362e-06
1.04651e-05
1.64403e-05
1.32359e-05
1.22507e-05
1.20638e-05
1.25218e-05
1.29571e-05
1.21187e-05
1.0397e-05
9.29114e-06
1.01024e-05
1.60807e-05
1.29073e-05
1.19165e-05
1.17022e-05
1.21662e-05
1.25567e-05
1.18257e-05
1.03171e-05
9.03011e-06
9.81901e-06
1.52618e-05
1.25729e-05
1.16094e-05
1.13569e-05
1.18029e-05
1.21186e-05
1.14507e-05
1.01368e-05
8.83182e-06
9.5935e-06
1.42774e-05
1.2118e-05
1.1302e-05
1.10235e-05
1.14436e-05
1.16574e-05
1.10059e-05
9.88011e-06
8.64677e-06
9.41213e-06
1.35249e-05
1.16393e-05
1.099e-05
1.07039e-05
1.10833e-05
1.11661e-05
1.05027e-05
9.57749e-06
8.46095e-06
9.33066e-06
1.30846e-05
1.11984e-05
1.06836e-05
1.04066e-05
1.06946e-05
1.06287e-05
9.96295e-06
9.25416e-06
8.26945e-06
9.32062e-06
1.28294e-05
1.07964e-05
1.03897e-05
1.01263e-05
1.02842e-05
1.0111e-05
9.46798e-06
8.94459e-06
8.07209e-06
9.36733e-06
1.26315e-05
1.04196e-05
1.01064e-05
9.85703e-06
9.87134e-06
9.63199e-06
9.03016e-06
8.65967e-06
7.8795e-06
9.44949e-06
1.24415e-05
1.00552e-05
9.83317e-06
9.59332e-06
9.45908e-06
9.16784e-06
8.61007e-06
8.38111e-06
7.6801e-06
9.539e-06
1.22966e-05
9.70134e-06
9.56737e-06
9.32972e-06
9.05533e-06
8.71635e-06
8.20309e-06
8.10578e-06
7.47334e-06
9.6347e-06
1.22322e-05
9.36276e-06
9.30925e-06
9.06648e-06
8.66903e-06
8.28907e-06
7.81891e-06
7.83819e-06
7.2661e-06
9.73975e-06
1.22182e-05
9.04153e-06
9.06239e-06
8.80667e-06
8.30072e-06
7.8782e-06
7.45119e-06
7.57747e-06
7.06306e-06
9.85743e-06
1.21601e-05
8.74184e-06
8.82823e-06
8.55399e-06
7.95734e-06
7.48865e-06
7.09893e-06
7.32339e-06
6.8656e-06
9.98993e-06
1.1994e-05
8.45868e-06
8.60537e-06
8.31107e-06
7.64743e-06
7.13126e-06
6.76934e-06
7.0792e-06
6.67451e-06
1.01279e-05
1.17126e-05
8.19087e-06
8.39062e-06
8.07535e-06
7.35084e-06
6.79642e-06
6.47014e-06
6.85058e-06
6.49052e-06
1.02478e-05
1.1332e-05
7.93722e-06
8.1821e-06
7.83718e-06
7.03182e-06
6.43986e-06
6.17484e-06
6.63205e-06
6.31325e-06
1.03271e-05
1.09105e-05
7.70175e-06
7.97928e-06
7.58944e-06
6.69003e-06
6.06759e-06
5.88179e-06
6.42498e-06
6.13816e-06
1.03536e-05
1.05063e-05
7.48677e-06
7.78127e-06
7.32982e-06
6.33709e-06
5.70083e-06
5.60766e-06
6.23499e-06
6.0101e-06
1.02832e-05
1.01415e-05
7.28975e-06
7.58612e-06
7.06122e-06
5.99415e-06
5.39005e-06
5.41814e-06
6.0564e-06
6.08578e-06
1.00953e-05
9.77315e-06
7.10048e-06
7.39048e-06
6.78876e-06
5.68652e-06
5.18295e-06
5.35134e-06
5.96871e-06
6.40828e-06
9.61984e-06
9.43069e-06
6.91533e-06
7.18889e-06
6.51643e-06
5.43869e-06
5.09642e-06
5.39334e-06
5.96672e-06
6.55834e-06
8.38489e-06
9.15482e-06
6.72691e-06
6.99753e-06
6.27892e-06
5.25764e-06
5.04989e-06
5.36359e-06
5.79818e-06
6.19631e-06
6.87406e-06
8.92754e-06
6.53642e-06
6.84501e-06
6.10971e-06
5.12454e-06
4.96433e-06
5.23196e-06
5.48499e-06
5.68264e-06
5.79178e-06
8.63844e-06
6.4307e-06
6.69926e-06
6.01496e-06
5.05942e-06
4.85561e-06
5.0608e-06
5.12748e-06
5.17892e-06
5.25559e-06
8.22618e-06
6.36496e-06
6.53383e-06
5.96131e-06
5.07048e-06
4.76644e-06
4.87569e-06
4.79079e-06
4.73923e-06
5.05599e-06
7.72303e-06
6.23353e-06
6.32611e-06
5.8941e-06
5.09789e-06
4.69783e-06
4.69912e-06
4.50828e-06
4.41624e-06
4.95285e-06
7.2063e-06
5.97331e-06
6.06813e-06
5.7668e-06
5.07298e-06
4.62471e-06
4.53709e-06
4.28014e-06
4.19444e-06
4.88931e-06
6.71439e-06
5.57593e-06
5.77865e-06
5.58044e-06
4.96169e-06
4.51381e-06
4.37195e-06
4.08237e-06
4.02779e-06
4.84915e-06
6.29098e-06
5.12675e-06
5.49789e-06
5.36807e-06
4.77733e-06
4.36229e-06
4.19427e-06
3.9047e-06
3.88784e-06
4.79447e-06
5.99461e-06
4.77112e-06
5.22293e-06
5.14475e-06
4.56502e-06
4.19253e-06
4.011e-06
3.75131e-06
3.75939e-06
4.69286e-06
5.84182e-06
4.50497e-06
4.94321e-06
4.90839e-06
4.34918e-06
4.02613e-06
3.84093e-06
3.63145e-06
3.64592e-06
4.60941e-06
5.79377e-06
4.2895e-06
4.6558e-06
4.64468e-06
4.11695e-06
3.86231e-06
3.69472e-06
3.54365e-06
3.55553e-06
4.5761e-06
5.8154e-06
4.10194e-06
4.36253e-06
4.33974e-06
3.8625e-06
3.69698e-06
3.56403e-06
3.47253e-06
3.47915e-06
4.57479e-06
5.88622e-06
3.93975e-06
4.08396e-06
4.02194e-06
3.61869e-06
3.53556e-06
3.44269e-06
3.40153e-06
3.40313e-06
4.5851e-06
5.99172e-06
3.80684e-06
3.8461e-06
3.74019e-06
3.41785e-06
3.38503e-06
3.32415e-06
3.31611e-06
3.31877e-06
4.60489e-06
6.12319e-06
3.70133e-06
3.65727e-06
3.51743e-06
3.26408e-06
3.25011e-06
3.20411e-06
3.21623e-06
3.23097e-06
4.63999e-06
6.26721e-06
3.61728e-06
3.5099e-06
3.34394e-06
3.14088e-06
3.12568e-06
3.08085e-06
3.13162e-06
3.17328e-06
4.7123e-06
6.44574e-06
3.55363e-06
3.40475e-06
3.22175e-06
3.04491e-06
3.01993e-06
2.97733e-06
3.11482e-06
3.19794e-06
4.90728e-06
)
;
    }
    inlet
    {
        type            calculated;
        value           uniform 0.0381026;
    }
    outlet
    {
        type            calculated;
        value           nonuniform List<scalar> 
20
(
8.54586e-05
2.95246e-05
2.83601e-05
2.6923e-05
2.55308e-05
2.53389e-05
2.50033e-05
2.60525e-05
2.67009e-05
6.48289e-05
8.52675e-05
2.95781e-05
2.85107e-05
2.70894e-05
2.56233e-05
2.54311e-05
2.50732e-05
2.60266e-05
2.66524e-05
6.48316e-05
)
;
    }
    heatWall
    {
        type            nutkWallFunction;
        Cmu             0.09;