/*--------------------------------*- C++ -*----------------------------------*\
  =========                 |
  \\      /  F ield         | OpenFOAM: The Open Source CFD Toolbox
   \\    /   O peration     | Website:  https://openfoam.org
    \\  /    A nd           | Version:  8
     \\/     M anipulation  |
\*---------------------------------------------------------------------------*/
FoamFile
{
    version     2.0;
    format      ascii;
    class       volVectorField;
    location    "200";
    object      U;
}
// * * * * * * * * * * * * * * * * * * * * * * * * * * * * * * * * * * * * * //

dimensions      [0 1 -1 0 0 0 0];

internalField   nonuniform List<vector> 
1200
(
(16.0559 -1.10805 -1.47558)
(16.2348 -0.836195 -0.626154)
(16.3916 -0.684441 -0.381515)
(16.5417 -0.550555 1.04592)
(16.9081 -0.394856 4.31685)
(17.3129 -0.272633 6.0118)
(17.6927 0.147665 8.35)
(18.4761 0.840171 14.1381)
(18.42 0.934732 20.2619)
(17.0865 0.473729 22.2375)
(15.5297 -0.103562 20.4648)
(14.4995 -0.444058 17.3079)
(13.9669 -0.547459 14.3698)
(13.6788 -0.543953 12.0017)
(13.4875 -0.516997 10.1301)
(13.4051 -0.510592 8.43485)
(13.5025 -0.535174 6.68468)
(13.8356 -0.560769 4.96644)
(14.2312 -0.521914 3.70462)
(14.4099 -0.439939 3.18101)
(14.3505 -0.382889 2.53222)
(14.0688 -0.335132 1.57644)
(13.501 -0.267134 1.1639)
(12.7291 -0.103534 2.57871)
(11.6309 -0.0791826 5.76958)
(11.1114 -0.37288 6.72741)
(10.9628 -0.483055 6.03834)
(10.9502 -0.411053 4.16677)
(10.91 -0.326057 2.47427)
(10.8923 -0.290488 1.95796)
(11.0275 -0.300597 2.61942)
(11.3879 -0.332127 3.57241)
(11.9596 -0.332289 4.40357)
(12.7368 -0.268341 5.18533)
(13.5191 -0.16617 5.33971)
(14.1802 -0.076336 5.54529)
(14.6272 -0.0190458 5.53905)
(14.8879 0.0154085 5.62233)
(15.0349 0.0250444 5.38668)
(15.134 0.00779257 4.88254)
(15.2239 -0.0310024 4.4031)
(15.3753 -0.0727206 4.59767)
(15.6673 -0.102246 4.76382)
(15.9906 -0.076124 4.81221)
(16.106 0.016066 4.96784)
(15.8705 0.195095 5.58088)
(15.1655 0.44055 7.13866)
(13.7822 0.579857 9.10503)
(11.8509 0.445558 10.168)
(10.0483 0.0840569 10.4519)
(9.23347 -0.22815 10.3781)
(9.37344 -0.340676 10.0222)
(10.0727 -0.354398 9.57373)
(11.0395 -0.331323 8.90271)
(12.0832 -0.292005 8.17089)
(13.0809 -0.240728 7.42529)
(13.9752 -0.184031 6.57491)
(14.7079 -0.127763 5.70105)
(15.3339 -0.0882668 4.83717)
(15.7667 -0.0166081 3.97021)
(16.0025 0.393589 -0.451321)
(16.006 0.488394 0.343912)
(16.1268 0.428242 0.694168)
(16.2858 0.358172 1.41712)
(16.6231 0.402066 2.97008)
(17.0481 0.38408 3.83898)
(17.4378 0.62014 4.05654)
(18.2781 1.10331 4.96645)
(19.2974 1.13388 6.86541)
(19.8305 0.816302 8.00209)
(19.9844 0.3998 7.84174)
(19.9854 0.103912 7.27368)
(20.0644 -0.0277844 6.74685)
(20.2509 -0.0602427 6.29994)
(20.4993 -0.0624407 5.88405)
(20.7758 -0.0913395 5.33664)
(21.063 -0.162372 4.56037)
(21.3882 -0.234658 3.6163)
(21.7416 -0.186837 2.87839)
(22.0143 -0.0524968 2.67986)
(22.1083 0.0686641 2.45688)
(22.0006 0.17661 2.05534)
(21.7341 0.330934 1.8812)
(21.2918 0.577096 2.69396)
(20.9253 0.752724 4.4872)
(20.6308 0.574087 5.05965)
(20.0478 0.35889 4.58495)
(19.4901 0.233471 3.25392)
(19.0241 0.14233 2.2072)
(18.588 0.0494853 1.8689)
(18.1375 -0.0516087 2.13091)
(17.6795 -0.153703 2.63975)
(17.2327 -0.226749 3.07638)
(16.8375 -0.250482 3.40212)
(16.537 -0.245831 3.24752)
(16.2994 -0.23165 3.16796)
(16.1236 -0.214881 2.96696)
(16.0103 -0.187098 2.7165)
(15.9898 -0.17648 2.23546)
(16.0497 -0.191637 1.71167)
(16.1631 -0.231564 1.39952)
(16.3488 -0.279785 1.75482)
(16.7181 -0.322803 2.26747)
(17.2631 -0.240509 2.75379)
(17.8312 -0.00938619 3.31784)
(18.2158 0.336829 4.05271)
(18.3107 0.747741 5.2256)
(18.0146 1.03988 6.5205)
(17.2675 1.01248 7.24193)
(16.178 0.643025 7.57458)
(14.9133 0.0822929 7.78399)
(14.0187 -0.383089 7.84534)
(13.6966 -0.63954 7.82239)
(13.8351 -0.731197 7.58453)
(14.2633 -0.726554 7.2387)
(14.8202 -0.664836 6.76414)
(15.4025 -0.582615 6.05801)
(15.9153 -0.489377 5.30661)
(16.4059 -0.436189 4.59905)
(16.7313 -0.246131 3.86326)
(15.9551 -0.158047 -0.219165)
(15.9538 -0.232414 0.262637)
(16.0719 -0.336489 0.701458)
(16.2849 -0.434531 1.00236)
(16.6468 -0.375972 1.10139)
(17.1281 -0.255122 1.55772)
(17.5865 0.0861429 1.39075)
(18.2102 0.624342 1.21765)
(18.9842 0.652642 2.02133)
(19.4437 0.125811 3.07867)
(19.4699 -0.505826 3.72791)
(19.3106 -0.836811 3.77918)
(19.1803 -0.958561 3.66004)
(19.1501 -0.96192 3.46667)
(19.2048 -0.917523 3.15058)
(19.331 -0.880514 2.58338)
(19.5205 -0.876338 1.70863)
(19.7698 -0.901573 0.518649)
(20.1089 -0.821788 -0.512912)
(20.4651 -0.663914 -0.792006)
(20.6964 -0.518564 -0.977613)
(20.7608 -0.386298 -1.22198)
(20.712 -0.20083 -1.35542)
(20.6092 0.0215468 -0.538075)
(20.7811 0.131569 1.33355)
(20.9867 -0.0585441 2.06701)
(20.9575 -0.258313 1.58231)
(20.8082 -0.390284 0.339345)
(20.5528 -0.478567 -0.275953)
(20.2568 -0.521398 -0.331295)
(19.9525 -0.530867 -0.0645535)
(19.5734 -0.515914 0.394243)
(19.2355 -0.474722 0.800703)
(18.9894 -0.401555 1.10376)
(18.7939 -0.343591 1.18513)
(18.6087 -0.293798 1.30698)
(18.4406 -0.252405 1.15764)
(18.3049 -0.208594 0.761112)
(18.219 -0.198484 0.323824)
(18.1839 -0.231519 -0.0113526)
(18.123 -0.28685 -0.156769)
(18.0584 -0.362199 0.175386)
(18.0431 -0.456665 0.628655)
(18.2578 -0.386195 0.992672)
(18.5667 -0.0964382 1.29054)
(18.7238 0.319385 1.71249)
(18.7861 0.769618 2.67509)
(18.8783 1.06987 3.96585)
(18.9247 1.02071 4.96608)
(18.8373 0.672246 5.77838)
(18.6403 0.220192 6.43628)
(18.1753 -0.223757 6.92733)
(17.5864 -0.558632 7.22221)
(17.086 -0.767251 7.29467)
(16.7939 -0.866807 7.31829)
(16.6979 -0.867174 7.16468)
(16.737 -0.808849 6.66811)
(16.8013 -0.704499 6.05282)
(16.9484 -0.645636 5.5715)
(16.9613 -0.351421 4.80647)
(16.0012 -0.0340512 -0.0282248)
(16.0309 0.00382869 0.0480864)
(16.1327 0.0130668 0.226771)
(16.3328 -0.0651202 0.184019)
(16.7031 -0.0890633 -0.120899)
(17.1983 0.0810215 0.00387205)
(17.6756 0.36636 -0.278377)
(18.2267 0.725331 -0.675793)
(18.8627 0.785323 -0.39183)
(19.3263 0.55634 0.236903)
(19.4979 0.263647 0.593676)
(19.4419 0.0271563 0.510512)
(19.323 -0.127647 0.387591)
(19.2203 -0.204756 0.221207)
(19.1294 -0.231988 -0.101991)
(19.0648 -0.267013 -0.728697)
(19.122 -0.347481 -1.65149)
(19.4561 -0.535223 -2.91979)
(19.9379 -0.56019 -3.97948)
(20.2285 -0.416858 -4.12724)
(20.2289 -0.225724 -4.077)
(20.0096 -0.0137735 -4.03439)
(19.7042 0.242933 -4.04642)
(19.4969 0.464818 -3.28784)
(19.4696 0.529038 -1.62243)
(19.4991 0.368758 -0.758219)
(19.396 0.197128 -1.05874)
(19.1954 0.0884897 -2.1181)
(18.9319 0.0420591 -2.27311)
(18.5849 0.0101919 -2.08434)
(18.19 -0.0262971 -1.88042)
(17.8048 -0.0598963 -1.55341)
(17.4517 -0.0845063 -1.22545)
(17.1444 -0.0860852 -0.971423)
(16.8929 -0.0840458 -0.745743)
(16.7047 -0.085635 -0.444017)
(16.5286 -0.0943226 -0.559987)
(16.3451 -0.0917483 -1.14534)
(16.2229 -0.099974 -1.65777)
(16.1649 -0.136687 -1.88453)
(16.1319 -0.200038 -1.90207)
(16.1171 -0.308058 -1.50254)
(16.2274 -0.474709 -0.881907)
(16.5316 -0.455511 -0.40621)
(16.8663 -0.150931 -0.142585)
(17.117 0.314224 0.103675)
(17.3069 0.81975 0.877338)
(17.7067 1.1403 2.03518)
(18.1445 1.07848 3.06444)
(18.4 0.697747 4.03477)
(18.4366 0.242288 4.8168)
(18.272 -0.11331 5.52393)
(17.969 -0.334958 6.17726)
(17.5906 -0.463859 6.74449)
(17.1902 -0.549003 7.32016)
(16.784 -0.603917 7.54763)
(16.4001 -0.642494 7.17136)
(15.9898 -0.622695 6.48411)
(15.6975 -0.648173 6.0476)
(15.2102 -0.359979 5.0276)
(15.9953 -0.0373023 -0.0224772)
(16.0127 -0.100972 -0.0115063)
(16.0822 -0.184683 -0.033605)
(16.273 -0.385359 -0.23139)
(16.724 -0.533984 -0.650483)
(17.3222 -0.404836 -0.66811)
(17.8591 -0.136758 -0.735293)
(18.3696 0.154641 -0.958251)
(18.8807 0.204866 -0.747468)
(19.2277 -0.00161615 -0.155713)
(19.3581 -0.325003 0.335906)
(19.3227 -0.558215 0.301596)
(19.2305 -0.684382 0.107057)
(19.1604 -0.730094 -0.216714)
(19.1207 -0.732999 -0.742768)
(19.137 -0.765441 -1.59197)
(19.2681 -0.850247 -2.75957)
(19.7391 -1.08442 -4.51366)
(20.4197 -1.09281 -6.11137)
(20.8287 -0.862864 -6.60132)
(20.8268 -0.609529 -6.72198)
(20.5234 -0.413311 -6.7708)
(20.0821 -0.228359 -6.88841)
(19.6853 -0.0499727 -6.39982)
(19.4357 0.0351451 -5.13389)
(19.2428 -0.056809 -4.28927)
(18.9603 -0.172752 -4.28762)
(18.5664 -0.216763 -4.81898)
(18.1374 -0.203723 -4.21634)
(17.6618 -0.195802 -3.51342)
(17.1679 -0.207027 -3.12151)
(16.695 -0.218579 -2.75214)
(16.2592 -0.215051 -2.35381)
(15.8669 -0.190405 -2.07043)
(15.5368 -0.160721 -1.7511)
(15.2743 -0.135858 -1.34736)
(15.0332 -0.129536 -1.32028)
(14.7738 -0.126846 -1.86213)
(14.5466 -0.125542 -2.37336)
(14.362 -0.15211 -2.63075)
(14.2031 -0.209595 -2.55742)
(14.094 -0.34439 -2.05822)
(14.2604 -0.614586 -1.24025)
(14.7773 -0.633231 -0.628612)
(15.2688 -0.309635 -0.257609)
(15.5958 0.119841 -0.0778072)
(15.7501 0.549881 0.4696)
(16.0819 0.838734 1.34136)
(16.5661 0.827113 2.21295)
(16.9019 0.538192 3.23653)
(16.9866 0.160488 4.25084)
(16.929 -0.116421 5.34446)
(16.8046 -0.224082 6.41956)
(16.5785 -0.240893 7.35867)
(16.2028 -0.294412 8.23049)
(15.6729 -0.40337 8.60486)
(15.07 -0.534744 8.2928)
(14.3596 -0.592329 7.49233)
(13.7762 -0.663472 7.06159)
(12.827 -0.424838 5.66081)
(15.9899 -0.0247835 -0.0762801)
(16.0035 -0.091303 -0.0751668)
(16.0504 -0.154215 -0.381886)
(16.2316 -0.39789 -0.910281)
(16.7818 -0.614925 -1.65436)
(17.4896 -0.428227 -1.98029)
(18.0311 -0.00172916 -2.3832)
(18.456 0.43245 -2.94591)
(18.87 0.596495 -2.92578)
(19.1681 0.532132 -2.49323)
(19.2643 0.355573 -2.17252)
(19.2188 0.141456 -2.22217)
(19.168 -0.0679698 -2.49055)
(19.2133 -0.210289 -2.96074)
(19.3557 -0.278473 -3.61114)
(19.5832 -0.374799 -4.39076)
(19.8188 -0.583614 -5.17759)
(20.1662 -1.03563 -6.47831)
(20.7615 -1.03653 -7.62566)
(21.267 -0.619307 -7.63995)
(21.532 -0.138782 -7.24227)
(21.4948 0.240463 -6.83693)
(21.1242 0.491075 -6.67103)
(20.5893 0.640595 -6.33443)
(20.0599 0.671821 -5.58726)
(19.5512 0.569034 -4.96412)
(18.9812 0.445098 -4.76561)
(18.3512 0.36275 -4.81318)
(17.7771 0.308326 -3.79154)
(17.2132 0.264848 -2.93257)
(16.6398 0.213975 -2.64957)
(16.0884 0.163048 -2.47112)
(15.5797 0.127051 -2.21493)
(15.1037 0.109575 -2.09865)
(14.6775 0.0996456 -1.95248)
(14.3103 0.0904156 -1.70365)
(13.9761 0.0708986 -1.58761)
(13.618 0.0481096 -2.00614)
(13.277 0.0319876 -2.41089)
(12.9844 -0.00551837 -2.71706)
(12.7793 -0.093149 -2.59662)
(12.7318 -0.352693 -1.87791)
(13.2145 -0.842046 -0.768609)
(14.1614 -0.887498 0.093678)
(14.7773 -0.368616 0.687016)
(15.0062 0.195538 1.06559)
(15.1223 0.614232 1.63829)
(15.3616 0.84763 2.24627)
(15.7216 0.828051 2.75952)
(16.0422 0.59186 3.51578)
(16.2112 0.284859 4.33889)
(16.2145 0.0851659 5.22939)
(16.1062 0.094521 6.04449)
(15.9553 0.190142 6.71807)
(15.7683 0.16738 7.5763)
(15.4053 0.00914817 8.20287)
(14.7874 -0.198313 8.28354)
(13.8693 -0.330167 7.695)
(12.9952 -0.442195 7.32918)
(11.6404 -0.315097 5.79328)
(15.9851 -0.0258762 -0.188704)
(15.9952 -0.150317 -0.245142)
(16.0116 -0.315497 -0.587644)
(16.1622 -0.706639 -1.37038)
(16.8439 -1.05285 -2.30893)
(17.7205 -0.878938 -2.48228)
(18.3441 -0.592803 -2.83183)
(18.7349 -0.374641 -3.35865)
(19.0247 -0.28587 -3.53542)
(19.196 -0.243687 -3.49764)
(19.22 -0.34933 -3.58607)
(19.2062 -0.518109 -3.97006)
(19.26 -0.611143 -4.33739)
(19.3299 -0.667896 -4.62857)
(19.2638 -0.721965 -4.90691)
(18.9858 -0.827125 -5.2663)
(18.418 -1.0008 -5.86185)
(17.81 -1.51202 -7.29747)
(17.7515 -1.66805 -8.50927)
(17.8321 -1.34496 -8.53733)
(17.8817 -0.875387 -8.13295)
(17.8999 -0.403904 -7.6872)
(17.8489 0.0125666 -7.42552)
(17.7552 0.307605 -7.18802)
(17.6422 0.438064 -6.79243)
(17.4939 0.419905 -6.33591)
(17.269 0.37586 -5.97234)
(16.9777 0.337304 -5.46875)
(16.6472 0.283812 -4.02844)
(16.2482 0.241551 -2.91691)
(15.7915 0.195442 -2.59538)
(15.3299 0.151053 -2.41127)
(14.8869 0.123735 -2.15361)
(14.4549 0.113399 -2.02535)
(14.0459 0.108062 -1.92335)
(13.6726 0.1013 -1.74322)
(13.3429 0.0928887 -1.50006)
(13.0212 0.0848508 -1.61858)
(12.734 0.064407 -1.77974)
(12.5266 -0.0374214 -1.9472)
(12.4655 -0.228756 -1.87333)
(12.615 -0.652023 -0.966942)
(13.4652 -1.33203 0.525872)
(14.8493 -1.36766 1.72623)
(15.7862 -0.756168 2.44749)
(16.0632 -0.128947 2.97494)
(16.0826 0.307628 3.53946)
(16.19 0.504062 3.8506)
(16.4324 0.459397 3.94647)
(16.6908 0.236618 4.37545)
(16.7891 -0.0165759 5.0669)
(16.5636 -0.121702 5.96475)
(16.0535 -0.00892916 6.74135)
(15.4875 0.174312 7.13695)
(14.9894 0.243865 7.69017)
(14.4295 0.186584 8.24449)
(13.6603 0.0408528 8.62169)
(12.5138 -0.104051 8.34865)
(11.3422 -0.268179 8.31404)
(9.47495 -0.322199 6.60182)
(15.9404 0.0459429 -0.318369)
(15.9066 0.0850915 -0.826944)
(15.8612 -0.00091364 -1.12403)
(15.9941 -0.687716 -1.81397)
(16.8858 -1.22323 -2.34138)
(17.8943 -0.830453 -2.39767)
(18.4793 -0.121718 -4.37266)
(18.9514 0.429481 -8.0359)
(19.5122 0.600227 -11.7383)
(19.6398 0.553919 -14.0321)
(19.1344 0.298131 -14.3651)
(18.3296 -0.0207375 -13.2155)
(17.5048 -0.224207 -11.581)
(16.6772 -0.239711 -10.1303)
(15.7703 -0.13957 -9.02912)
(14.8708 -0.101203 -8.17312)
(13.9667 -0.259041 -7.76775)
(13.57 -1.07463 -8.53686)
(13.5222 -1.20673 -9.35109)
(13.2983 -0.734021 -8.82341)
(13.0956 -0.228124 -7.94294)
(13.2511 0.167957 -7.26054)
(13.7175 0.467679 -6.81197)
(14.2587 0.681994 -6.50662)
(14.7602 0.779995 -6.05101)
(15.157 0.760663 -5.19946)
(15.4209 0.725462 -4.40416)
(15.5571 0.668748 -3.53078)
(15.5555 0.598781 -2.18392)
(15.4216 0.542611 -1.13277)
(15.1971 0.471689 -0.893749)
(14.9459 0.397717 -0.876183)
(14.7051 0.345008 -0.82508)
(14.4764 0.305364 -0.844837)
(14.2688 0.269552 -0.901349)
(14.0868 0.236782 -0.903548)
(13.9322 0.211914 -0.737107)
(13.7984 0.180843 -0.661057)
(13.6836 0.126079 -0.610523)
(13.6187 -0.011388 -0.732379)
(13.5814 -0.245572 -0.868822)
(13.6586 -0.76492 0.409235)
(14.615 -1.69912 2.74177)
(15.8157 -1.60537 4.57248)
(16.5172 -0.636014 5.6603)
(16.6767 0.168513 6.39528)
(16.4674 0.534515 6.77318)
(16.28 0.613194 6.56245)
(16.153 0.52273 5.94184)
(15.929 0.361132 5.64336)
(15.4767 0.256935 5.71148)
(14.7857 0.309861 6.23962)
(14.0454 0.48636 6.99915)
(13.479 0.636428 7.37931)
(13.1078 0.673436 7.83774)
(12.7389 0.625541 8.28297)
(12.182 0.525387 8.91696)
(11.1971 0.414825 9.26863)
(10.1014 0.339257 10.1279)
(8.15064 0.0395479 9.12112)
(16.0283 -0.502583 -0.0347639)
(15.9932 -0.60111 -0.678947)
(15.7692 -0.643525 -0.694582)
(15.8866 -1.38214 -0.255916)
(17.3194 -1.88188 2.77982)
(18.5859 -1.40603 5.95078)
(19.0165 -0.644717 6.17612)
(19.1373 -0.0288241 4.29816)
(19.3064 0.24726 2.08073)
(19.4358 0.268919 0.32657)
(19.27 0.145686 -0.716603)
(19.1452 -0.056916 -1.41765)
(19.3403 -0.284183 -2.51154)
(19.6127 -0.456389 -3.80027)
(19.6192 -0.550784 -4.95874)
(19.1623 -0.655969 -5.82363)
(17.9655 -0.851853 -6.66284)
(15.9158 -1.58442 -7.62977)
(14.3396 -1.75336 -8.59628)
(12.8907 -1.38533 -8.14123)
(11.6221 -1.01234 -7.03453)
(10.9071 -0.699473 -5.96158)
(10.8099 -0.388429 -4.99891)
(11.1146 -0.0857353 -4.5411)
(11.5825 0.122284 -4.06264)
(12.0551 0.19043 -2.92197)
(12.4671 0.27747 -1.97422)
(12.7448 0.330595 -0.986189)
(12.8529 0.37798 0.380932)
(12.9304 0.399889 1.39139)
(12.9867 0.357756 1.65294)
(12.9805 0.306028 1.65929)
(12.9469 0.270774 1.59869)
(12.91 0.242229 1.48857)
(12.8909 0.211572 1.3536)
(12.8969 0.18374 1.23782)
(12.9407 0.172333 1.2501)
(13.0592 0.161483 1.39749)
(13.3508 0.111724 1.88251)
(13.9488 -0.0448011 2.62131)
(14.4695 -0.292041 2.78928)
(14.7823 -0.828666 4.09791)
(14.928 -1.761 6.29382)
(14.6258 -1.87679 7.50305)
(14.0568 -1.19121 7.7917)
(13.1436 -0.396496 8.45614)
(12.3516 0.120837 8.9346)
(11.9721 0.257868 8.22965)
(11.7549 0.214199 6.70105)
(11.4589 0.120688 5.67939)
(11.0527 0.0777456 5.34505)
(10.6264 0.182614 5.84952)
(10.3462 0.396484 6.77248)
(10.3104 0.547403 7.08081)
(10.4995 0.599331 7.1995)
(10.75 0.59972 7.25374)
(10.9682 0.587824 7.96806)
(10.9366 0.572245 8.98924)
(10.9194 0.593963 11.0537)
(10.4832 0.243371 11.4282)
(16.0448 1.10868 0.596557)
(16.1443 0.803894 0.0257114)
(15.7664 0.610215 0.471401)
(16.2759 -0.407709 4.80097)
(18.1448 -1.0699 17.5829)
(18.0969 -0.80579 27.6338)
(17.3623 -0.367765 31.0157)
(16.9507 -0.170499 30.6582)
(16.7075 -0.132428 28.4672)
(16.1864 -0.0506261 25.0715)
(15.3474 0.120215 21.2564)
(14.3612 0.3541 17.7736)
(13.3011 0.563905 14.5733)
(12.202 0.715458 11.6239)
(11.15 0.845535 8.81336)
(10.3065 0.954731 6.20063)
(9.28969 1.09959 3.11819)
(8.8939 0.42126 -1.66618)
(8.76279 0.160165 -7.06774)
(7.85852 0.361167 -7.23418)
(6.7896 0.450248 -5.40415)
(6.16585 0.415201 -3.48954)
(5.93458 0.362475 -1.48135)
(5.99045 0.354447 -0.560691)
(6.23306 0.39177 0.124184)
(6.78846 0.460611 1.8405)
(7.74322 0.503699 2.89749)
(8.61136 0.539943 3.75499)
(9.44556 0.543684 4.86612)
(10.1954 0.488145 5.5942)
(10.8259 0.415429 5.45712)
(11.3795 0.35311 5.08801)
(11.8854 0.303556 4.70317)
(12.3857 0.261234 4.39099)
(12.9299 0.216862 4.20307)
(13.5254 0.167913 4.11101)
(14.1278 0.12248 4.08529)
(14.6721 0.0877127 4.11199)
(15.1145 0.0506494 4.51587)
(15.3835 -0.0220543 5.37001)
(15.189 -0.141677 5.19279)
(14.3842 -0.533524 6.32146)
(12.4376 -1.38465 10.5542)
(8.8319 -1.24944 13.3365)
(5.23914 -0.128209 12.3221)
(3.97151 0.623853 12.3473)
(4.46191 0.661541 12.6326)
(5.07896 0.472345 10.0843)
(5.39527 0.290218 6.56852)
(5.40396 0.179486 4.532)
(5.25018 0.152939 4.06165)
(5.24863 0.243372 5.20268)
(5.69926 0.350128 6.8267)
(6.4695 0.36213 7.28928)
(7.41793 0.326883 7.2589)
(8.33404 0.300277 6.93918)
(9.25267 0.301178 7.5377)
(10.0412 0.312621 8.8766)
(11.0276 0.343605 11.6193)
(11.8832 0.160421 12.8887)
(16.1235 -1.03462 -1.49476)
(16.3301 -0.795525 -0.65093)
(16.4738 -0.65692 -0.40854)
(16.6378 -0.607895 1.03835)
(16.9031 -0.497124 4.26903)
(17.2673 -0.345048 5.92282)
(17.6456 0.0590338 8.05981)
(18.4515 0.755911 13.582)
(18.4914 0.901743 19.8808)
(17.2142 0.485384 22.1906)
(15.639 -0.076986 20.6334)
(14.5643 -0.431535 17.5423)
(14.0062 -0.546402 14.5912)
(13.7136 -0.548437 12.197)
(13.5279 -0.524117 10.3003)
(13.4513 -0.518848 8.58394)
(13.5562 -0.544491 6.81811)
(13.9104 -0.572776 5.0913)
(14.3456 -0.536109 3.8243)
(14.5537 -0.449217 3.29338)
(14.4853 -0.379186 2.64268)
(14.1807 -0.315829 1.68894)
(13.674 -0.252141 1.27544)
(12.9427 -0.117646 2.65737)
(11.8417 -0.0597869 5.76591)
(11.2094 -0.331453 6.73928)
(10.972 -0.473634 6.08235)
(10.9273 -0.426581 4.21504)
(10.8897 -0.33974 2.52094)
(10.8849 -0.300406 2.00502)
(11.0042 -0.319056 2.66599)
(11.3247 -0.352948 3.61096)
(11.856 -0.355885 4.41941)
(12.5929 -0.297695 5.16918)
(13.3633 -0.197872 5.30458)
(14.0447 -0.107319 5.51589)
(14.5293 -0.0468151 5.53095)
(14.8292 -0.0123315 5.63178)
(15.0047 0.00278085 5.40662)
(15.1284 -0.00465184 4.91182)
(15.2442 -0.0338633 4.44274)
(15.4004 -0.0729247 4.63988)
(15.6779 -0.100418 4.80532)
(16.0058 -0.0774047 4.8457)
(16.1549 0.00515811 4.98146)
(15.9763 0.169218 5.54744)
(15.3443 0.410487 7.05134)
(14.04 0.569588 9.02671)
(12.1441 0.46581 10.1689)
(10.2824 0.117988 10.5252)
(9.33597 -0.2118 10.4832)
(9.38363 -0.337797 10.1202)
(10.0172 -0.354588 9.65468)
(10.9403 -0.332355 8.96633)
(11.9598 -0.294329 8.2207)
(12.948 -0.24559 7.46377)
(13.846 -0.19208 6.60469)
(14.5928 -0.136189 5.72415)
(15.242 -0.0952613 4.86025)
(15.7333 -0.0215973 3.99515)
(16.0443 0.501405 -0.448996)
(16.065 0.519794 0.342807)
(16.1572 0.45485 0.690824)
(16.3176 0.29513 1.40291)
(16.6168 0.249749 2.91891)
(17.0104 0.317214 3.77537)
(17.3896 0.574346 3.9563)
(18.2266 1.07137 4.80077)
(19.263 1.12745 6.76678)
(19.8045 0.831026 8.03961)
(19.9417 0.428598 7.96363)
(19.9244 0.1229 7.38234)
(19.9773 -0.0201171 6.83497)
(20.1415 -0.0618553 6.36975)
(20.3726 -0.0715954 5.93945)
(20.6316 -0.104125 5.38123)
(20.9035 -0.176901 4.59578)
(21.2284 -0.256629 3.64094)
(21.6125 -0.215544 2.89237)
(21.9242 -0.0673209 2.69303)
(22.0426 0.0780835 2.47641)
(21.9617 0.213221 2.08632)
(21.731 0.351207 1.91349)
(21.3447 0.549955 2.72724)
(20.9505 0.722594 4.50754)
(20.6604 0.587307 5.08942)
(20.1564 0.385437 4.64248)
(19.646 0.257306 3.34727)
(19.2174 0.195846 2.331)
(18.799 0.115269 2.00698)
(18.3391 -0.0086414 2.26483)
(17.8543 -0.127466 2.7588)
(17.3829 -0.207767 3.17817)
(16.9633 -0.237613 3.48721)
(16.6463 -0.227572 3.32762)
(16.4002 -0.216146 3.24484)
(16.2143 -0.211834 3.03817)
(16.0905 -0.209433 2.77493)
(16.0553 -0.20223 2.28227)
(16.1087 -0.204541 1.75085)
(16.2326 -0.228272 1.43341)
(16.4091 -0.275247 1.77592)
(16.7278 -0.311512 2.26567)
(17.2124 -0.23445 2.71751)
(17.7415 -0.0259413 3.24656)
(18.1382 0.288066 3.97398)
(18.2915 0.684884 5.163)
(18.0755 0.998839 6.49935)
(17.4074 1.01668 7.28306)
(16.3761 0.693012 7.66725)
(15.1363 0.152292 7.88461)
(14.1681 -0.322482 7.93716)
(13.764 -0.59634 7.89482)
(13.8354 -0.702566 7.64026)
(14.217 -0.706754 7.28483)
(14.7453 -0.652412 6.80674)
(15.3171 -0.576634 6.10189)
(15.8332 -0.484304 5.35166)
(16.337 -0.42466 4.64931)
(16.707 -0.239615 3.91555)
(15.978 -0.119714 -0.222681)
(15.995 -0.268191 0.254074)
(16.0888 -0.368104 0.689169)
(16.2774 -0.497934 0.985592)
(16.6331 -0.521723 1.07855)
(17.0968 -0.35381 1.51928)
(17.5318 0.0320891 1.34531)
(18.1795 0.623839 1.1651)
(18.9898 0.699219 1.98834)
(19.4634 0.21037 3.07565)
(19.4873 -0.422948 3.73341)
(19.3159 -0.77927 3.79023)
(19.1665 -0.919369 3.67135)
(19.1079 -0.936837 3.47359)
(19.1282 -0.90405 3.14977)
(19.2104 -0.872743 2.57444)
(19.3487 -0.865585 1.69374)
(19.5838 -0.903879 0.49263)
(20.0914 -0.845231 -0.530938)
(20.5946 -0.669898 -0.779075)
(20.8803 -0.495338 -0.930958)
(20.9495 -0.337166 -1.15141)
(20.8857 -0.158221 -1.30051)
(20.8139 0.0327682 -0.505909)
(20.7986 0.0888338 1.3315)
(20.8773 -0.0804134 2.07666)
(20.8393 -0.259035 1.61099)
(20.7137 -0.375022 0.381872)
(20.5224 -0.399973 -0.227338)
(20.2913 -0.428014 -0.280903)
(20.0505 -0.469757 -0.00413586)
(19.715 -0.495218 0.454249)
(19.3492 -0.481557 0.84853)
(19.0389 -0.427178 1.13454)
(18.8122 -0.351968 1.20705)
(18.6265 -0.291981 1.32559)
(18.462 -0.261134 1.17411)
(18.331 -0.250208 0.772595)
(18.2453 -0.239179 0.330556)
(18.1939 -0.238371 -0.00644049)
(18.1264 -0.26429 -0.152863)
(18.1345 -0.339528 0.183831)
(18.1541 -0.430533 0.642902)
(18.3141 -0.373376 1.0036)
(18.5652 -0.114077 1.28773)
(18.735 0.263113 1.68237)
(18.8429 0.696308 2.6202)
(18.9484 1.02164 3.91257)
(18.9892 1.02169 4.94422)
(18.888 0.711046 5.78921)
(18.682 0.276752 6.46532)
(18.2387 -0.159223 6.96622)
(17.654 -0.498544 7.25396)
(17.1388 -0.716242 7.30679)
(16.8205 -0.824266 7.3137)
(16.6985 -0.835741 7.15792)
(16.724 -0.788839 6.67318)
(16.7887 -0.692125 6.07063)
(16.9411 -0.629341 5.60354)
(16.986 -0.35026 4.8453)
(16.0041 -0.0134092 -0.0274146)
(16.0416 -0.0263154 0.0498447)
(16.1349 -0.0517782 0.227123)
(16.3136 -0.161851 0.180569)
(16.7009 -0.2159 -0.129612)
(17.1955 -0.0695305 -0.0122569)
(17.6579 0.288393 -0.305693)
(18.2469 0.720588 -0.69846)
(18.9239 0.794286 -0.407705)
(19.3707 0.559862 0.234682)
(19.4867 0.266306 0.595902)
(19.4011 0.029184 0.514983)
(19.2779 -0.127279 0.392978)
(19.173 -0.209879 0.226945)
(19.0884 -0.24541 -0.0971961)
(19.0798 -0.290011 -0.728842)
(19.1963 -0.379399 -1.66004)
(19.5288 -0.569063 -2.93552)
(19.9802 -0.556771 -3.99077)
(20.2349 -0.363868 -4.11883)
(20.2016 -0.134452 -4.04583)
(19.9669 0.0987894 -3.98549)
(19.6778 0.342519 -3.99605)
(19.512 0.532582 -3.24682)
(19.4915 0.544459 -1.59781)
(19.4607 0.390565 -0.736738)
(19.3271 0.250647 -1.0369)
(19.16 0.155027 -2.10265)
(18.8906 0.133829 -2.26552)
(18.4976 0.0919534 -2.08283)
(18.075 0.0156537 -1.88552)
(17.6827 -0.0528213 -1.56323)
(17.3287 -0.0895021 -1.23817)
(17.028 -0.0963878 -0.986781)
(16.7947 -0.0763981 -0.761606)
(16.6124 -0.0624911 -0.458043)
(16.4184 -0.064525 -0.573024)
(16.2561 -0.0814008 -1.1621)
(16.1841 -0.0999947 -1.67798)
(16.1459 -0.13957 -1.90327)
(16.109 -0.20159 -1.91535)
(16.0809 -0.319792 -1.50925)
(16.1739 -0.482155 -0.88191)
(16.4668 -0.457519 -0.402893)
(16.8084 -0.150447 -0.13929)
(17.1246 0.291561 0.0929016)
(17.4054 0.754614 0.839979)
(17.7779 1.0823 1.98925)
(18.177 1.07615 3.03559)
(18.4152 0.743636 4.03371)
(18.4423 0.300895 4.83907)
(18.2761 -0.0610785 5.54141)
(17.973 -0.293895 6.16397)
(17.6034 -0.429482 6.69334)
(17.2158 -0.512817 7.25602)
(16.8208 -0.565583 7.50644)
(16.4508 -0.605109 7.17416)
(16.0605 -0.593216 6.52543)
(15.781 -0.619216 6.1179)
(15.3295 -0.35214 5.11123)
(15.9957 -0.0421274 -0.022577)
(16.0136 -0.112872 -0.0120911)
(16.0756 -0.243642 -0.0373221)
(16.2595 -0.475184 -0.242595)
(16.7385 -0.623149 -0.667114)
(17.3562 -0.489337 -0.687779)
(17.8836 -0.185055 -0.752043)
(18.4014 0.130702 -0.965935)
(18.9336 0.181777 -0.751187)
(19.2815 -0.028352 -0.159236)
(19.359 -0.332703 0.32011)
(19.2846 -0.543242 0.28122)
(19.1856 -0.661763 0.0827254)
(19.1385 -0.710656 -0.241144)
(19.1417 -0.72075 -0.75977)
(19.1896 -0.755529 -1.60241)
(19.3345 -0.846159 -2.77477)
(19.8219 -1.10364 -4.52329)
(20.5014 -1.08594 -6.11178)
(20.8714 -0.81576 -6.60068)
(20.8141 -0.541485 -6.72296)
(20.4748 -0.340071 -6.76562)
(20.0251 -0.160975 -6.86856)
(19.648 -0.00583694 -6.37813)
(19.4054 0.0380338 -5.11851)
(19.1846 -0.0594004 -4.27738)
(18.8733 -0.150226 -4.2697)
(18.4797 -0.163789 -4.80325)
(18.0486 -0.130834 -4.18739)
(17.5424 -0.132346 -3.47389)
(17.032 -0.171967 -3.07974)
(16.5584 -0.205971 -2.71317)
(16.1209 -0.207926 -2.31896)
(15.7315 -0.189596 -2.041)
(15.4114 -0.163303 -1.72504)
(15.1445 -0.144183 -1.32218)
(14.8877 -0.120599 -1.29681)
(14.6457 -0.108459 -1.84666)
(14.453 -0.109438 -2.36798)
(14.2821 -0.154282 -2.62918)
(14.1212 -0.218969 -2.55072)
(14.0104 -0.362356 -2.04172)
(14.178 -0.635795 -1.21502)
(14.6918 -0.649891 -0.604129)
(15.1889 -0.308413 -0.236252)
(15.5528 0.142092 -0.0607257)
(15.8479 0.55104 0.468061)
(16.1873 0.814738 1.32091)
(16.6068 0.814165 2.19048)
(16.9104 0.556055 3.2208)
(16.9883 0.197532 4.23631)
(16.9178 -0.0821141 5.31189)
(16.7848 -0.206056 6.34641)
(16.575 -0.231043 7.25371)
(16.2326 -0.272701 8.13999)
(15.7343 -0.365781 8.56453)
(15.1598 -0.488582 8.31022)
(14.4824 -0.554115 7.55346)
(13.9202 -0.635095 7.15276)
(13.0156 -0.416467 5.76837)
(15.9933 -0.0412305 -0.07655)
(15.9984 -0.111029 -0.0763798)
(16.031 -0.196829 -0.38417)
(16.2181 -0.475361 -0.917709)
(16.8037 -0.690299 -1.66587)
(17.5253 -0.463557 -1.99323)
(18.0452 -0.00162179 -2.39344)
(18.4633 0.438474 -2.94738)
(18.8843 0.580051 -2.91944)
(19.1746 0.473838 -2.48907)
(19.2533 0.254469 -2.17671)
(19.206 0.0314969 -2.24305)
(19.1833 -0.161792 -2.53426)
(19.2724 -0.262582 -3.02059)
(19.4588 -0.287479 -3.66896)
(19.7205 -0.358981 -4.42756)
(19.9631 -0.568594 -5.18524)
(20.3069 -1.02187 -6.45667)
(20.9184 -0.96798 -7.58854)
(21.4207 -0.505838 -7.59369)
(21.646 -0.00669258 -7.19271)
(21.5223 0.361656 -6.79603)
(21.08 0.595182 -6.64454)
(20.509 0.713003 -6.32105)
(19.9576 0.701142 -5.58353)
(19.4183 0.586735 -4.96921)
(18.8224 0.476362 -4.77692)
(18.1955 0.417937 -4.82967)
(17.6212 0.365911 -3.79164)
(17.0276 0.30963 -2.91898)
(16.4446 0.232825 -2.63202)
(15.9036 0.166361 -2.45336)
(15.4 0.126165 -2.1965)
(14.9286 0.105459 -2.08198)
(14.5138 0.0862967 -1.93708)
(14.1504 0.0658329 -1.68758)
(13.8042 0.0663002 -1.57062)
(13.4518 0.0685414 -1.99489)
(13.1332 0.0577629 -2.40399)
(12.8606 0.00234212 -2.70763)
(12.6772 -0.108733 -2.57081)
(12.6575 -0.379117 -1.83726)
(13.1531 -0.868913 -0.737359)
(14.1417 -0.92762 0.102588)
(14.8139 -0.412049 0.681465)
(15.065 0.184566 1.05633)
(15.1928 0.615088 1.63337)
(15.4091 0.833176 2.24846)
(15.735 0.808938 2.76781)
(16.0317 0.589997 3.53144)
(16.1931 0.301394 4.36061)
(16.1971 0.100661 5.24176)
(16.0884 0.0898243 6.02119)
(15.9408 0.175031 6.65337)
(15.7704 0.170511 7.49942)
(15.4432 0.0384193 8.15467)
(14.876 -0.152002 8.28852)
(14.012 -0.286137 7.75225)
(13.1729 -0.409027 7.43381)
(11.8706 -0.300323 5.92368)
(15.9933 -0.0481032 -0.188552)
(15.9982 -0.21058 -0.247768)
(15.9923 -0.354596 -0.590185)
(16.1453 -0.771448 -1.37944)
(16.8776 -1.13488 -2.32097)
(17.7729 -0.94889 -2.49663)
(18.3679 -0.668338 -2.84231)
(18.7377 -0.452422 -3.36209)
(19.0163 -0.378221 -3.53512)
(19.1728 -0.371398 -3.51142)
(19.201 -0.476939 -3.65134)
(19.2351 -0.565765 -4.0262)
(19.3508 -0.600732 -4.37499)
(19.4407 -0.644493 -4.64737)
(19.3518 -0.704088 -4.90499)
(19.0334 -0.814552 -5.24396)
(18.4202 -1.0046 -5.82567)
(17.8046 -1.52625 -7.24886)
(17.794 -1.63059 -8.47166)
(17.9065 -1.26131 -8.51045)
(17.9594 -0.760293 -8.10699)
(17.9496 -0.272609 -7.65298)
(17.8567 0.13997 -7.39558)
(17.7393 0.404057 -7.17184)
(17.614 0.494707 -6.79393)
(17.4513 0.467123 -6.35304)
(17.2109 0.424294 -5.99443)
(16.9136 0.394419 -5.48204)
(16.5628 0.323934 -4.01705)
(16.1173 0.272946 -2.88785)
(15.6394 0.214436 -2.56162)
(15.1808 0.159446 -2.37672)
(14.7335 0.124064 -2.11786)
(14.2944 0.111855 -1.99032)
(13.8854 0.097809 -1.89003)
(13.5134 0.0792821 -1.71116)
(13.1748 0.0818142 -1.4668)
(12.8526 0.107614 -1.58881)
(12.5818 0.0966708 -1.75553)
(12.4024 -0.0302005 -1.92562)
(12.3967 -0.273138 -1.84273)
(12.5865 -0.688368 -0.938775)
(13.4644 -1.31665 0.477119)
(14.7922 -1.34548 1.66835)
(15.7367 -0.752011 2.42737)
(16.0522 -0.124211 2.97429)
(16.0872 0.310843 3.55623)
(16.1783 0.499085 3.8795)
(16.4023 0.45023 3.97829)
(16.657 0.232603 4.40409)
(16.7793 -0.0165233 5.09135)
(16.5995 -0.129941 5.9835)
(16.1179 -0.032765 6.74916)
(15.553 0.14408 7.12817)
(15.0508 0.22767 7.66595)
(14.5047 0.19292 8.22283)
(13.7698 0.0709379 8.62969)
(12.6745 -0.0636393 8.39943)
(11.5391 -0.230061 8.40952)
(9.72641 -0.29547 6.72507)
(15.9422 0.0597374 -0.322211)
(15.9115 0.0464134 -0.833831)
(15.8481 -0.00280743 -1.13325)
(15.9632 -0.701131 -1.82857)
(16.8964 -1.24016 -2.3854)
(17.9224 -0.852199 -2.47474)
(18.4882 -0.12355 -4.54975)
(18.9736 0.436632 -8.30316)
(19.5417 0.588348 -12.0048)
(19.6274 0.52428 -14.1691)
(19.0796 0.266323 -14.3356)
(18.2504 -0.0350562 -13.0944)
(17.4062 -0.220633 -11.4399)
(16.5555 -0.216456 -9.98466)
(15.6283 -0.109766 -8.88427)
(14.7209 -0.0787251 -8.03366)
(13.8114 -0.257636 -7.65054)
(13.4248 -1.08207 -8.45981)
(13.4066 -1.14138 -9.30798)
(13.2236 -0.624401 -8.78325)
(13.0915 -0.101262 -7.91631)
(13.3267 0.292535 -7.25154)
(13.8056 0.584403 -6.80672)
(14.3389 0.770361 -6.50407)
(14.8372 0.837444 -6.05284)
(15.2237 0.815073 -5.20657)