/*--------------------------------*- C++ -*----------------------------------*\
  =========                 |
  \\      /  F ield         | OpenFOAM: The Open Source CFD Toolbox
   \\    /   O peration     | Website:  https://openfoam.org
    \\  /    A nd           | Version:  8
     \\/     M anipulation  |
\*---------------------------------------------------------------------------*/
FoamFile
{
    version     2.0;
    format      ascii;
    class       volScalarField;
    location    "600";
    object      epsilon;
}
// * * * * * * * * * * * * * * * * * * * * * * * * * * * * * * * * * * * * * //

dimensions      [0 2 -3 0 0 0 0];

internalField   nonuniform List<scalar> 
1200
(
5.35699e-06
5.26902e-06
5.17735e-06
5.08175e-06
4.98189e-06
4.87334e-06
4.75463e-06
4.65679e-06
4.43439e-06
4.43865e-06
4.80912e-06
5.24177e-06
5.67957e-06
6.17085e-06
6.83801e-06
7.8177e-06
9.02841e-06
9.77711e-06
1.04898e-05
1.11069e-05
1.17969e-05
1.19366e-05
3.07075e-05
3.10666e-05
3.24154e-05
3.45018e-05
3.66907e-05
3.88788e-05
4.13278e-05
4.45309e-05
4.81863e-05
5.21163e-05
5.71176e-05
6.56743e-05
7.77805e-05
8.92635e-05
9.84697e-05
0.000107597
0.000118003
0.000129623
0.000142553
0.000154956
0.000163704
0.000169052
0.000174084
0.000181003
0.000189155
0.000204785
0.000228837
0.000257038
0.000276439
0.000290198
0.000310186
0.000351581
0.000387748
0.000436669
0.000495263
0.000598669
0.000751698
0.00111894
5.37462e-06
4.65665e-06
4.04479e-06
3.52684e-06
3.09321e-06
2.73849e-06
2.45802e-06
2.19615e-06
1.9387e-06
2.81903e-06
4.37577e-06
4.18016e-06
3.44061e-06
3.04015e-06
2.9382e-06
2.99808e-06
3.22031e-06
3.4264e-06
3.97789e-06
4.66658e-06
5.55654e-06
6.49856e-06
7.38122e-06
8.17118e-06
9.39063e-06
1.08668e-05
4.98195e-05
5.60362e-05
5.9139e-05
5.36355e-05
5.44405e-05
6.10692e-05
8.76212e-05
0.000126942
0.00016357
0.000180056
0.000175735
0.000181031
0.000199118
0.000206859
0.000191081
0.000208359
0.00021191
0.000173273
0.000135367
0.0001083
0.000106965
0.000172657
0.000162032
0.000136532
0.000182738
0.000422502
0.000745216
0.00115379
0.000839778
0.00097475
0.00248539
0.00462621
0.0062891
0.00592346
5.36691e-06
4.6235e-06
3.98294e-06
3.43173e-06
2.95912e-06
2.55309e-06
2.20966e-06
1.91508e-06
1.9692e-06
2.81678e-06
3.47479e-06
2.39471e-06
1.345e-06
1.9151e-06
2.80777e-06
3.32383e-06
3.24704e-06
2.4803e-06
3.30583e-06
4.34863e-06
7.58151e-06
9.93473e-06
1.12482e-05
5.20333e-05
7.0522e-05
9.11401e-05
0.000114731
0.000141692
0.000172973
0.000209106
0.000248836
0.000290529
0.000335724
0.000382104
0.000421001
0.000453233
0.000483538
0.000515966
0.000551741
0.000590329
0.000633791
0.000682565
0.000730721
0.000783022
0.000846189
0.000933968
0.00105945
0.00120145
0.00136564
0.00157733
0.00189164
0.00232964
0.00283263
0.00344417
0.00424721
0.00536109
0.00719008
0.00980621
0.0130445
0.0187834
5.36744e-06
4.6268e-06
3.98905e-06
3.43716e-06
2.96146e-06
2.5511e-06
2.19753e-06
1.89014e-06
1.8798e-06
2.57946e-06
2.9447e-06
2.39312e-06
1.79362e-06
2.32958e-06
3.40493e-06
4.18585e-06
4.3841e-06
4.48523e-06
5.27018e-06
8.3624e-06
1.01662e-05
1.13591e-05
5.3291e-05
7.12209e-05
9.25021e-05
0.000116657
0.000144019
0.000175439
0.000212238
0.000254059
0.000300565
0.000349731
0.000400203
0.000450036
0.000498297
0.000548385
0.000603104
0.000661994
0.000723814
0.000790411
0.000861016
0.000932676
0.00100628
0.00108183
0.00115982
0.0012379
0.00130254
0.00136604
0.00143049
0.00152329
0.00178125
0.00219092
0.0027356
0.00350256
0.00455654
0.00592984
0.00786135
0.0105852
0.0144055
0.0198809
5.3684e-06
4.62808e-06
3.99102e-06
3.43822e-06
2.96215e-06
2.55345e-06
2.20214e-06
1.89677e-06
1.74292e-06
2.1191e-06
2.41596e-06
2.24104e-06
1.91202e-06
1.7235e-06
2.56561e-06
4.21688e-06
4.4853e-06
4.58591e-06
5.03452e-06
5.90498e-06
8.07559e-06
1.01548e-05
1.11735e-05
1.1631e-05
6.01935e-05
7.49802e-05
9.26819e-05
0.000115888
0.000145028
0.000178129
0.00021188
0.000245608
0.000277538
0.000309377
0.000343977
0.000380741
0.000420093
0.000456759
0.000486516
0.000505994
0.000505158
0.000469963
0.000397504
0.00031004
0.000268602
0.000317123
0.000398688
0.000521933
0.000696517
0.000910262
0.00111867
0.00140727
0.00194422
0.00274186
0.00387255
0.00542435
0.0075207
0.0103323
0.0141991
0.0197048
5.36994e-06
4.63015e-06
3.99364e-06
3.44065e-06
2.96414e-06
2.5569e-06
2.20728e-06
1.9071e-06
1.685e-06
1.76823e-06
1.92418e-06
1.87487e-06
1.72964e-06
1.5803e-06
1.72357e-06
2.24852e-06
2.21932e-06
2.43535e-06
3.57763e-06
4.67554e-06
5.80554e-06
7.63745e-06
9.05589e-06
9.99265e-06
1.12568e-05
5.12997e-05
1.15577e-05
5.83572e-05
8.07186e-05
0.000105911
0.000125502
0.00014182
0.000153772
0.000164054
0.000175566
0.000196853
0.000222673
0.00024944
0.000274999
0.000295986
0.000304161
0.000290157
0.000252375
0.000188913
0.000128538
0.000124642
0.000169227
0.000242758
0.000352766
0.000490168
0.000631077
0.000829457
0.00119912
0.00174948
0.00263152
0.00397118
0.00574103
0.00803736
0.011763
0.0184879
5.37225e-06
4.63319e-06
3.99698e-06
3.44412e-06
2.9675e-06
2.56039e-06
2.21292e-06
1.91797e-06
1.67627e-06
1.57762e-06
1.57224e-06
1.5151e-06
1.41647e-06
1.3543e-06
1.34511e-06
1.47148e-06
1.47442e-06
1.49018e-06
1.66305e-06
1.9797e-06
2.85871e-06
4.5364e-06
6.10893e-06
7.33071e-06
8.39049e-06
9.23398e-06
9.79762e-06
1.06446e-05
1.15952e-05
5.74778e-05
6.89279e-05
7.89058e-05
8.56197e-05
8.69856e-05
8.41933e-05
8.18064e-05
7.88883e-05
7.24767e-05
6.41892e-05
0.000109699
0.000143951
0.000148752
0.000143499
0.000136033
0.000132188
0.000127992
0.000117039
9.0654e-05
6.19518e-05
8.2641e-05
7.75192e-05
6.21393e-05
0.000145894
0.000455242
0.00128423
0.00200872
0.00261269
0.00292921
0.00481882
0.0120873
5.37467e-06
4.63403e-06
3.99542e-06
3.44135e-06
2.96462e-06
2.55856e-06
2.21434e-06
1.92342e-06
1.67952e-06
1.50865e-06
1.40254e-06
1.30687e-06
1.20554e-06
1.14369e-06
1.11004e-06
1.10408e-06
1.0699e-06
1.03639e-06
1.03375e-06
1.09955e-06
1.41458e-06
2.26203e-06
3.41574e-06
4.51614e-06
5.4617e-06
6.27686e-06
6.94934e-06
7.61657e-06
8.43889e-06
9.3452e-06
1.02482e-05
1.08908e-05
1.13364e-05
1.16592e-05
1.15729e-05
1.15234e-05
4.93588e-05
5.21685e-05
5.65791e-05
6.5824e-05
7.17585e-05
7.05625e-05
6.53429e-05
5.93241e-05
5.40837e-05
4.95102e-05
1.15681e-05
1.14108e-05
1.12607e-05
1.12761e-05
1.12069e-05
1.1156e-05
1.13753e-05
7.11237e-05
0.000170233
0.000496473
0.000921589
0.00109157
0.0012385
0.00259561
5.38381e-06
4.66798e-06
4.05469e-06
3.52127e-06
3.05727e-06
2.66242e-06
2.32687e-06
2.03931e-06
1.78937e-06
1.58605e-06
1.43491e-06
1.3177e-06
1.2215e-06
1.13927e-06
1.07431e-06
1.02657e-06
9.84592e-07
9.53071e-07
9.29889e-07
9.17207e-07
9.64505e-07
1.21654e-06
1.71012e-06
2.31582e-06
2.91608e-06
3.47824e-06
4.00159e-06
4.51463e-06
5.08628e-06
5.7012e-06
6.25758e-06
6.66211e-06
6.98575e-06
7.30962e-06
7.69867e-06
8.23787e-06
8.88232e-06
9.49654e-06
1.00502e-05
1.05063e-05
1.07112e-05
1.07428e-05
1.07525e-05
1.08262e-05
1.10738e-05
1.13143e-05
1.14098e-05
1.13269e-05
1.12229e-05
1.11623e-05
1.11173e-05
1.1082e-05
1.10947e-05
1.14563e-05
5.41165e-05
9.28987e-05
0.000184226
0.000287494
0.000373512
0.000512629
5.36161e-06
5.28148e-06
5.19731e-06
5.10383e-06
5.00298e-06
4.88755e-06
4.74049e-06
4.54594e-06
4.28506e-06
4.00798e-06
3.85808e-06
3.8756e-06
3.99845e-06
3.97097e-06
3.89794e-06
3.93088e-06
4.09585e-06
4.26056e-06
4.41124e-06
4.56437e-06
4.62296e-06
4.60808e-06
4.62781e-06
4.76378e-06
5.00765e-06
5.34157e-06
5.76722e-06
6.2959e-06
6.95189e-06
7.7448e-06
8.66457e-06
9.70331e-06
1.08838e-05
3.09608e-05
3.47677e-05
3.8583e-05
4.22996e-05
4.62384e-05
5.04556e-05
5.53287e-05
6.1651e-05
6.95874e-05
7.90403e-05
8.97309e-05
0.000100623
0.000111773
0.00012346
0.000135782
0.000147752
0.000159957
0.000173418
0.000187762
0.000200533
0.000212376
0.000229967
0.000251124
0.00027534
0.000305762
0.000339622
0.000383636
5.35143e-06
5.26597e-06
5.17373e-06
5.0804e-06
4.98321e-06
4.87469e-06
4.75875e-06
4.65588e-06
4.43421e-06
4.43582e-06
4.80734e-06
5.23918e-06
5.67004e-06
6.16491e-06
6.81638e-06
7.78667e-06
9.00792e-06
9.76583e-06
1.04749e-05
1.1103e-05
1.1797e-05
3.07345e-05
3.07217e-05
3.10721e-05
3.24263e-05
3.45301e-05
3.67408e-05
3.90161e-05
4.14166e-05
4.43762e-05
4.77932e-05
5.19798e-05
5.70525e-05
6.46712e-05
7.60433e-05
8.80691e-05
9.83915e-05
0.000108421
0.000119591
0.000131881
0.000143651
0.00015351
0.000159769
0.000164387
0.000170523
0.000178955
0.000189093
0.000208158
0.000234698
0.000261224
0.000277272
0.000289594
0.000310734
0.000354245
0.000392085
0.000442011
0.000500645
0.000618457
0.000734026
0.00104868
5.37517e-06
4.65721e-06
4.04579e-06
3.52875e-06
3.09887e-06
2.7432e-06
2.46151e-06
2.20426e-06
1.93672e-06
2.79691e-06
4.35414e-06
4.16733e-06
3.4356e-06
3.02142e-06
2.9216e-06
2.98347e-06
3.2186e-06
3.408e-06
3.96062e-06
4.65009e-06
5.54893e-06
6.50016e-06
7.39123e-06
8.18425e-06
9.41135e-06
1.09022e-05
5.00959e-05
6.1217e-05
6.59576e-05
5.7503e-05
5.18639e-05
5.72518e-05
8.10761e-05
0.000117693
0.000152596
0.000169872
0.000173124
0.000181483
0.000204533
0.000223817
0.000216006
0.000228476
0.000221897
0.000171693
0.000128074
0.000105742
0.00011478
0.000201428
0.000152855
0.000139184
0.000188447
0.000410982
0.00071985
0.001128
0.000856167
0.000983452
0.0024583
0.00456519
0.00618256
0.00610988
5.36792e-06
4.62428e-06
3.98422e-06
3.43213e-06
2.95957e-06
2.55544e-06
2.2114e-06
1.91667e-06
1.95396e-06
2.79094e-06
3.46332e-06
2.4059e-06
1.32554e-06
1.9198e-06
2.81942e-06
3.33735e-06
3.26409e-06
2.50924e-06
3.26842e-06
4.32845e-06
7.55971e-06
9.92119e-06
1.12269e-05
5.16318e-05
7.0046e-05
9.07562e-05
0.000114828
0.000142285
0.000172829
0.000207498
0.000243978
0.000283127
0.000326521
0.000371502
0.000410352
0.000443991
0.00047426
0.000507005
0.00054345
0.00058252
0.00062444
0.000669672
0.000714965
0.000767537
0.000831706
0.000920714
0.00104681
0.00118673
0.00134936
0.00156175
0.00186306
0.0022974
0.00280121
0.00341175
0.00421583
0.0053418
0.00713943
0.0096467
0.0127251
0.0186494
5.36915e-06
4.62868e-06
3.99109e-06
3.43768e-06
2.96157e-06
2.55272e-06
2.19845e-06
1.89073e-06
1.867e-06
2.55704e-06
2.93469e-06
2.39414e-06
1.79608e-06
2.34851e-06
3.42143e-06
4.19583e-06
4.39545e-06
4.49907e-06
5.24851e-06
8.3819e-06
1.0221e-05
1.14149e-05
5.3675e-05
7.16609e-05
9.28954e-05
0.000116977
0.00014408
0.000174777
0.00021208
0.000253497
0.0002983
0.000345857
0.000394715
0.000443368
0.00049144
0.000542006
0.000596284
0.000653182
0.000712548
0.000776912
0.000846807
0.000918167
0.000990881
0.00106317
0.00113725
0.00120823
0.00126306
0.00131892
0.00138649
0.00150052
0.00177681
0.00218736
0.0027306
0.00350347
0.00455929
0.00593204
0.00786811
0.0105974
0.0144206
0.0198535
5.37132e-06
4.63099e-06
3.99226e-06
3.43881e-06
2.96313e-06
2.55447e-06
2.20221e-06
1.89748e-06
1.73694e-06
2.10328e-06
2.40549e-06
2.23667e-06
1.91359e-06
1.73649e-06
2.58612e-06
4.23284e-06
4.49701e-06
4.59618e-06
5.04179e-06
5.88847e-06
8.02877e-06
1.01461e-05
1.11453e-05
1.15772e-05
5.97436e-05
7.43322e-05
9.11013e-05
0.00011454
0.000143641
0.000177829
0.000212718
0.000246741
0.000278755
0.000309934
0.00034236
0.000376188
0.000412252
0.000446371
0.000471874
0.00048567
0.000479516
0.000438711
0.000365689
0.000291182
0.000263239
0.000297652
0.000380386
0.000508708
0.00068929
0.000904211
0.00110944
0.00138976
0.00192477
0.00271881
0.00383366
0.00537466
0.00747518
0.0103037
0.0141867
0.0196764
5.37387e-06
4.6336e-06
3.99429e-06
3.44129e-06
2.96486e-06
2.55642e-06
2.20626e-06
1.90739e-06
1.68301e-06
1.75936e-06
1.91567e-06
1.86919e-06
1.72526e-06
1.57925e-06
1.73564e-06
2.25091e-06
2.21223e-06
2.43962e-06
3.59955e-06
4.68476e-06
5.78912e-06
7.60913e-06
9.03141e-06
9.98073e-06
1.12308e-05
4.99377e-05
1.16026e-05
1.14442e-05
6.71403e-05
0.000102509
0.000127376
0.000145201
0.000158209
0.000168504
0.000178775
0.000195916
0.000217057
0.000241304
0.000265852
0.00028381
0.000292248
0.000277033
0.000237781
0.000175281
0.000121345
0.000122525
0.000168165
0.000243136
0.000355971
0.000498689
0.000641984
0.000833152
0.00120101
0.00174761
0.00261475
0.00394314
0.00571392
0.00796586
0.0115335
0.0181792
5.37567e-06
4.63623e-06
3.99744e-06
3.44456e-06
2.96801e-06
2.56013e-06
2.213e-06
1.91834e-06
1.67527e-06
1.57446e-06
1.56773e-06
1.51094e-06
1.41111e-06
1.34887e-06
1.34982e-06
1.46762e-06
1.47027e-06
1.48247e-06
1.65141e-06
1.95791e-06
2.84683e-06
4.52973e-06
6.09602e-06
7.31862e-06
8.37961e-06
9.23866e-06
9.80744e-06
1.06156e-05
1.16276e-05
5.70464e-05
6.86495e-05
7.88048e-05
8.69139e-05
9.12598e-05
9.10866e-05
9.0996e-05
8.69227e-05
7.12966e-05
6.53117e-05
9.02836e-05
0.000128349
0.000140964
0.000138385
0.000131362
0.000126853
0.000122244
0.000111533
8.68346e-05
6.40346e-05
8.98073e-05
6.64457e-05
5.20148e-05
0.000151436
0.000471548
0.00130123
0.00202518
0.0026175
0.0029075
0.00476323
0.0123441
5.37629e-06
4.63572e-06
3.99553e-06
3.44095e-06
2.96479e-06
2.55962e-06
2.21492e-06
1.9228e-06
1.67866e-06
1.50778e-06
1.40151e-06
1.30655e-06
1.20929e-06
1.14812e-06
1.11993e-06
1.10077e-06
1.0567e-06
1.01559e-06
1.01321e-06
1.08429e-06
1.41056e-06
2.26951e-06
3.42501e-06
4.52508e-06
5.4756e-06
6.29882e-06
6.96007e-06
7.59766e-06
8.41599e-06
9.31144e-06
1.01967e-05
1.08044e-05
1.12473e-05
1.16206e-05
1.16517e-05
1.16419e-05
5.07528e-05
5.44216e-05
5.9675e-05
6.70299e-05
7.11641e-05
6.93448e-05
6.41945e-05
5.88077e-05
5.38573e-05
4.93911e-05
1.15622e-05
1.14048e-05
1.12518e-05
1.13118e-05
1.12576e-05
1.12468e-05
1.14463e-05
7.2584e-05
0.000171417
0.000509147
0.000939074
0.0010989
0.00124542
0.00258239
5.38423e-06
4.66838e-06
4.0532e-06
3.51735e-06
3.05537e-06
2.66343e-06
2.3281e-06
2.03962e-06
1.78881e-06
1.58524e-06
1.43482e-06
1.31843e-06
1.22303e-06
1.14155e-06
1.07674e-06
1.02804e-06
9.85173e-07
9.5473e-07
9.31132e-07
9.16593e-07
9.65472e-07
1.22592e-06
1.72694e-06
2.3402e-06
2.95224e-06
3.52266e-06
4.03317e-06
4.51761e-06
5.07549e-06
5.68507e-06
6.23729e-06
6.63392e-06
6.96768e-06
7.32807e-06
7.77575e-06
8.36266e-06
9.02785e-06
9.63321e-06
1.01452e-05
1.04974e-05
1.06478e-05
1.06989e-05
1.07621e-05
1.08914e-05
1.11425e-05
1.13546e-05
1.14017e-05
1.13011e-05
1.12243e-05
1.11763e-05
1.11379e-05
1.11075e-05
1.11333e-05
1.15215e-05
5.42759e-05
9.51572e-05
0.000191912
0.000296492
0.000381072
0.000513543
5.35982e-06
5.27623e-06
5.18868e-06
5.09912e-06
5.0056e-06
4.89593e-06
4.75178e-06
4.5573e-06
4.29137e-06
4.00646e-06
3.85134e-06
3.87138e-06
3.9997e-06
3.97274e-06
3.91236e-06
3.98286e-06
4.19284e-06
4.40408e-06
4.56327e-06
4.7037e-06
4.72995e-06
4.67048e-06
4.64868e-06
4.7067e-06
4.86735e-06
5.17469e-06
5.63312e-06
6.21773e-06
6.91576e-06
7.72944e-06
8.64171e-06
9.66132e-06
1.08267e-05
3.08048e-05
3.44012e-05
3.80079e-05
4.15999e-05
4.55728e-05
5.00116e-05
5.53506e-05
6.20134e-05
7.00735e-05
7.94205e-05
8.97371e-05
0.00010023
0.000111081
0.00012263
0.000134814
0.000146702
0.000158918
0.000172173
0.000186153
0.000198668
0.000211702
0.000231335
0.000252566
0.000276087
0.000306289
0.000340137
0.000384306
)
;

boundaryField
{
    wall
    {
        type            epsilonWallFunction;
        value           nonuniform List<scalar> 
1200
(
5.35699e-06
5.37462e-06
5.36691e-06
5.36744e-06
5.3684e-06
5.36994e-06
5.37225e-06
5.37467e-06
5.38381e-06
5.36161e-06
5.26902e-06
4.65665e-06
4.6235e-06
4.6268e-06
4.62808e-06
4.63015e-06
4.63319e-06
4.63403e-06
4.66798e-06
5.28148e-06
5.17735e-06
4.04479e-06
3.98294e-06
3.98905e-06
3.99102e-06
3.99364e-06
3.99698e-06
3.99542e-06
4.05469e-06
5.19731e-06
5.08175e-06
3.52684e-06
3.43173e-06
3.43716e-06
3.43822e-06
3.44065e-06
3.44412e-06
3.44135e-06
3.52127e-06
5.10383e-06
4.98189e-06
3.09321e-06
2.95912e-06
2.96146e-06
2.96215e-06
2.96414e-06
2.9675e-06
2.96462e-06
3.05727e-06
5.00298e-06
4.87334e-06
2.73849e-06
2.55309e-06
2.5511e-06
2.55345e-06
2.5569e-06
2.56039e-06
2.55856e-06
2.66242e-06
4.88755e-06
4.75463e-06
2.45802e-06
2.20966e-06
2.19753e-06
2.20214e-06
2.20728e-06
2.21292e-06
2.21434e-06
2.32687e-06
4.74049e-06
4.65679e-06
2.19615e-06
1.91508e-06
1.89014e-06
1.89677e-06
1.9071e-06
1.91797e-06
1.92342e-06
2.03931e-06
4.54594e-06
4.43439e-06
1.9387e-06
1.9692e-06
1.8798e-06
1.74292e-06
1.685e-06
1.67627e-06
1.67952e-06
1.78937e-06
4.28506e-06
4.43865e-06
2.81903e-06
2.81678e-06
2.57946e-06
2.1191e-06
1.76823e-06
1.57762e-06
1.50865e-06
1.58605e-06
4.00798e-06
4.80912e-06
4.37577e-06
3.47479e-06
2.9447e-06
2.41596e-06
1.92418e-06
1.57224e-06
1.40254e-06
1.43491e-06
3.85808e-06
5.24177e-06
4.18016e-06
2.39471e-06
2.39312e-06
2.24104e-06
1.87487e-06
1.5151e-06
1.30687e-06
1.3177e-06
3.8756e-06
5.67957e-06
3.44061e-06
1.345e-06
1.79362e-06
1.91202e-06
1.72964e-06
1.41647e-06
1.20554e-06
1.2215e-06
3.99845e-06
6.17085e-06
3.04015e-06
1.9151e-06
2.32958e-06
1.7235e-06
1.5803e-06
1.3543e-06
1.14369e-06
1.13927e-06
3.97097e-06
6.83801e-06
2.9382e-06
2.80777e-06
3.40493e-06
2.56561e-06
1.72357e-06
1.34511e-06
1.11004e-06
1.07431e-06
3.89794e-06
7.8177e-06
2.99808e-06
3.32383e-06
4.18585e-06
4.21688e-06
2.24852e-06
1.47148e-06
1.10408e-06
1.02657e-06
3.93088e-06
9.02841e-06
3.22031e-06
3.24704e-06
4.3841e-06
4.4853e-06
2.21932e-06
1.47442e-06
1.0699e-06
9.84592e-07
4.09585e-06
9.77711e-06
3.4264e-06
2.4803e-06
4.48523e-06
4.58591e-06
2.43535e-06
1.49018e-06
1.03639e-06
9.53071e-07
4.26056e-06
1.04898e-05
3.97789e-06
3.30583e-06
5.27018e-06
5.03452e-06
3.57763e-06
1.66305e-06
1.03375e-06
9.29889e-07
4.41124e-06
1.11069e-05
4.66658e-06
4.34863e-06
8.3624e-06
5.90498e-06
4.67554e-06
1.9797e-06
1.09955e-06
9.17207e-07
4.56437e-06
1.17969e-05
5.55654e-06
7.58151e-06
1.01662e-05
8.07559e-06
5.80554e-06
2.85871e-06
1.41458e-06
9.64505e-07
4.62296e-06
1.19366e-05
6.49856e-06
9.93473e-06
1.13591e-05
1.01548e-05
7.63745e-06
4.5364e-06
2.26203e-06
1.21654e-06
4.60808e-06
3.07075e-05
7.38122e-06
1.12482e-05
5.3291e-05
1.11735e-05
9.05589e-06
6.10893e-06
3.41574e-06
1.71012e-06
4.62781e-06
3.10666e-05
8.17118e-06
5.20333e-05
7.12209e-05
1.1631e-05
9.99265e-06
7.33071e-06
4.51614e-06
2.31582e-06
4.76378e-06
3.24154e-05
9.39063e-06
7.0522e-05
9.25021e-05
6.01935e-05
1.12568e-05
8.39049e-06
5.4617e-06
2.91608e-06
5.00765e-06
3.45018e-05
1.08668e-05
9.11401e-05
0.000116657
7.49802e-05
5.12997e-05
9.23398e-06
6.27686e-06
3.47824e-06
5.34157e-06
3.66907e-05
4.98195e-05
0.000114731
0.000144019
9.26819e-05
1.15577e-05
9.79762e-06
6.94934e-06
4.00159e-06
5.76722e-06
3.88788e-05
5.60362e-05
0.000141692
0.000175439
0.000115888
5.83572e-05
1.06446e-05
7.61657e-06
4.51463e-06
6.2959e-06
4.13278e-05
5.9139e-05
0.000172973
0.000212238
0.000145028
8.07186e-05
1.15952e-05
8.43889e-06
5.08628e-06
6.95189e-06
4.45309e-05
5.36355e-05
0.000209106
0.000254059
0.000178129
0.000105911
5.74778e-05
9.3452e-06
5.7012e-06
7.7448e-06
4.81863e-05
5.44405e-05
0.000248836
0.000300565
0.00021188
0.000125502
6.89279e-05
1.02482e-05
6.25758e-06
8.66457e-06
5.21163e-05
6.10692e-05
0.000290529
0.000349731
0.000245608
0.00014182
7.89058e-05
1.08908e-05
6.66211e-06
9.70331e-06
5.71176e-05
8.76212e-05
0.000335724
0.000400203
0.000277538
0.000153772
8.56197e-05
1.13364e-05
6.98575e-06
1.08838e-05
6.56743e-05
0.000126942
0.000382104
0.000450036
0.000309377
0.000164054
8.69856e-05
1.16592e-05
7.30962e-06
3.09608e-05
7.77805e-05
0.00016357
0.000421001
0.000498297
0.000343977
0.000175566
8.41933e-05
1.15729e-05
7.69867e-06
3.47677e-05
8.92635e-05
0.000180056
0.000453233
0.000548385
0.000380741
0.000196853
8.18064e-05
1.15234e-05
8.23787e-06
3.8583e-05
9.84697e-05
0.000175735
0.000483538
0.000603104
0.000420093
0.000222673
7.88883e-05
4.93588e-05
8.88232e-06
4.22996e-05
0.000107597
0.000181031
0.000515966
0.000661994
0.000456759
0.00024944
7.24767e-05
5.21685e-05
9.49654e-06
4.62384e-05
0.000118003
0.000199118
0.000551741
0.000723814
0.000486516
0.000274999
6.41892e-05
5.65791e-05
1.00502e-05
5.04556e-05
0.000129623
0.000206859
0.000590329
0.000790411
0.000505994
0.000295986
0.000109699
6.5824e-05
1.05063e-05
5.53287e-05
0.000142553
0.000191081
0.000633791
0.000861016
0.000505158
0.000304161
0.000143951
7.17585e-05
1.07112e-05
6.1651e-05
0.000154956
0.000208359
0.000682565
0.000932676
0.000469963
0.000290157
0.000148752
7.05625e-05
1.07428e-05
6.95874e-05
0.000163704
0.00021191
0.000730721
0.00100628
0.000397504
0.000252375
0.000143499
6.53429e-05
1.07525e-05
7.90403e-05
0.000169052
0.000173273
0.000783022
0.00108183
0.00031004
0.000188913
0.000136033
5.93241e-05
1.08262e-05
8.97309e-05
0.000174084
0.000135367
0.000846189
0.00115982
0.000268602
0.000128538
0.000132188
5.40837e-05
1.10738e-05
0.000100623
0.000181003
0.0001083
0.000933968
0.0012379
0.000317123
0.000124642
0.000127992
4.95102e-05
1.13143e-05
0.000111773
0.000189155
0.000106965
0.00105945
0.00130254
0.000398688
0.000169227
0.000117039
1.15681e-05
1.14098e-05
0.00012346
0.000204785
0.000172657
0.00120145
0.00136604
0.000521933
0.000242758
9.0654e-05
1.14108e-05
1.13269e-05
0.000135782
0.000228837
0.000162032
0.00136564
0.00143049
0.000696517
0.000352766
6.19518e-05
1.12607e-05
1.12229e-05
0.000147752
0.000257038
0.000136532
0.00157733
0.00152329
0.000910262
0.000490168
8.2641e-05
1.12761e-05
1.11623e-05
0.000159957
0.000276439
0.000182738
0.00189164
0.00178125
0.00111867
0.000631077
7.75192e-05
1.12069e-05
1.11173e-05
0.000173418
0.000290198
0.000422502
0.00232964
0.00219092
0.00140727
0.000829457
6.21393e-05
1.1156e-05
1.1082e-05
0.000187762
0.000310186
0.000745216
0.00283263
0.0027356
0.00194422
0.00119912
0.000145894
1.13753e-05
1.10947e-05
0.000200533
0.000351581
0.00115379
0.00344417
0.00350256
0.00274186
0.00174948
0.000455242
7.11237e-05
1.14563e-05
0.000212376
0.000387748
0.000839778
0.00424721
0.00455654
0.00387255
0.00263152
0.00128423
0.000170233
5.41165e-05
0.000229967
0.000436669
0.00097475
0.00536109
0.00592984
0.00542435
0.00397118
0.00200872
0.000496473
9.28987e-05
0.000251124
0.000495263
0.00248539
0.00719008
0.00786135
0.0075207
0.00574103
0.00261269
0.000921589
0.000184226
0.00027534
0.000598669
0.00462621
0.00980621
0.0105852
0.0103323
0.00803736
0.00292921
0.00109157
0.000287494
0.000305762
0.000751698
0.0062891
0.0130445
0.0144055
0.0141991
0.011763
0.00481882
0.0012385
0.000373512
0.000339622
0.00111894
0.00592346
0.0187834
0.0198809
0.0197048
0.0184879
0.0120873
0.00259561
0.000512629
0.000383636
5.35143e-06
5.37517e-06
5.36792e-06
5.36915e-06
5.37132e-06
5.37387e-06
5.37567e-06
5.37629e-06
5.38423e-06
5.35982e-06
5.26597e-06
4.65721e-06
4.62428e-06
4.62868e-06
4.63099e-06
4.6336e-06
4.63623e-06
4.63572e-06
4.66838e-06
5.27623e-06
5.17373e-06
4.04579e-06
3.98422e-06
3.99109e-06
3.99226e-06
3.99429e-06
3.99744e-06
3.99553e-06
4.0532e-06
5.18868e-06
5.0804e-06
3.52875e-06
3.43213e-06
3.43768e-06
3.43881e-06
3.44129e-06
3.44456e-06
3.44095e-06
3.51735e-06
5.09912e-06
4.98321e-06
3.09887e-06
2.95957e-06
2.96157e-06
2.96313e-06
2.96486e-06
2.96801e-06
2.96479e-06
3.05537e-06
5.0056e-06
4.87469e-06
2.7432e-06
2.55544e-06
2.55272e-06
2.55447e-06
2.55642e-06
2.56013e-06
2.55962e-06
2.66343e-06
4.89593e-06
4.75875e-06
2.46151e-06
2.2114e-06
2.19845e-06
2.20221e-06
2.20626e-06
2.213e-06
2.21492e-06
2.3281e-06
4.75178e-06
4.65588e-06
2.20426e-06
1.91667e-06
1.89073e-06
1.89748e-06
1.90739e-06
1.91834e-06
1.9228e-06
2.03962e-06
4.5573e-06
4.43421e-06
1.93672e-06
1.95396e-06
1.867e-06
1.73694e-06
1.68301e-06
1.67527e-06
1.67866e-06
1.78881e-06
4.29137e-06
4.43582e-06
2.79691e-06
2.79094e-06
2.55704e-06
2.10328e-06
1.75936e-06
1.57446e-06
1.50778e-06
1.58524e-06
4.00646e-06
4.80734e-06
4.35414e-06
3.46332e-06
2.93469e-06
2.40549e-06
1.91567e-06
1.56773e-06
1.40151e-06
1.43482e-06
3.85134e-06
5.23918e-06
4.16733e-06
2.4059e-06
2.39414e-06
2.23667e-06
1.86919e-06
1.51094e-06
1.30655e-06
1.31843e-06
3.87138e-06
5.67004e-06
3.4356e-06
1.32554e-06
1.79608e-06
1.91359e-06
1.72526e-06
1.41111e-06
1.20929e-06
1.22303e-06
3.9997e-06
6.16491e-06
3.02142e-06
1.9198e-06
2.34851e-06
1.73649e-06
1.57925e-06
1.34887e-06
1.14812e-06
1.14155e-06
3.97274e-06
6.81638e-06
2.9216e-06
2.81942e-06
3.42143e-06
2.58612e-06
1.73564e-06
1.34982e-06
1.11993e-06
1.07674e-06
3.91236e-06
7.78667e-06
2.98347e-06
3.33735e-06
4.19583e-06
4.23284e-06
2.25091e-06
1.46762e-06
1.10077e-06
1.02804e-06
3.98286e-06
9.00792e-06
3.2186e-06
3.26409e-06
4.39545e-06
4.49701e-06
2.21223e-06
1.47027e-06
1.0567e-06
9.85173e-07
4.19284e-06
9.76583e-06
3.408e-06
2.50924e-06
4.49907e-06
4.59618e-06
2.43962e-06
1.48247e-06
1.01559e-06
9.5473e-07
4.40408e-06
1.04749e-05
3.96062e-06
3.26842e-06
5.24851e-06
5.04179e-06
3.59955e-06
1.65141e-06
1.01321e-06
9.31132e-07
4.56327e-06
1.1103e-05
4.65009e-06
4.32845e-06
8.3819e-06
5.88847e-06
4.68476e-06
1.95791e-06
1.08429e-06
9.16593e-07
4.7037e-06
1.1797e-05
5.54893e-06
7.55971e-06
1.0221e-05
8.02877e-06
5.78912e-06
2.84683e-06
1.41056e-06
9.65472e-07
4.72995e-06
3.07345e-05
6.50016e-06
9.92119e-06
1.14149e-05
1.01461e-05
7.60913e-06
4.52973e-06
2.26951e-06
1.22592e-06
4.67048e-06
3.07217e-05
7.39123e-06
1.12269e-05
5.3675e-05
1.11453e-05
9.03141e-06
6.09602e-06
3.42501e-06
1.72694e-06
4.64868e-06
3.10721e-05
8.18425e-06
5.16318e-05
7.16609e-05
1.15772e-05
9.98073e-06
7.31862e-06
4.52508e-06
2.3402e-06
4.7067e-06
3.24263e-05
9.41135e-06
7.0046e-05
9.28954e-05
5.97436e-05
1.12308e-05
8.37961e-06
5.4756e-06
2.95224e-06
4.86735e-06
3.45301e-05
1.09022e-05
9.07562e-05
0.000116977
7.43322e-05
4.99377e-05
9.23866e-06
6.29882e-06
3.52266e-06
5.17469e-06
3.67408e-05
5.00959e-05
0.000114828
0.00014408
9.11013e-05
1.16026e-05
9.80744e-06
6.96007e-06
4.03317e-06
5.63312e-06
3.90161e-05
6.1217e-05
0.000142285
0.000174777
0.00011454
1.14442e-05
1.06156e-05
7.59766e-06
4.51761e-06
6.21773e-06
4.14166e-05
6.59576e-05
0.000172829
0.00021208
0.000143641
6.71403e-05
1.16276e-05
8.41599e-06
5.07549e-06
6.91576e-06
4.43762e-05
5.7503e-05
0.000207498
0.000253497
0.000177829
0.000102509
5.70464e-05
9.31144e-06
5.68507e-06
7.72944e-06
4.77932e-05
5.18639e-05
0.000243978
0.0002983
0.000212718
0.000127376
6.86495e-05
1.01967e-05
6.23729e-06
8.64171e-06
5.19798e-05
5.72518e-05
0.000283127
0.000345857
0.000246741
0.000145201
7.88048e-05
1.08044e-05
6.63392e-06
9.66132e-06
5.70525e-05
8.10761e-05
0.000326521
0.000394715
0.000278755
0.000158209
8.69139e-05
1.12473e-05
6.96768e-06
1.08267e-05
6.46712e-05
0.000117693
0.000371502
0.000443368
0.000309934
0.000168504
9.12598e-05
1.16206e-05
7.32807e-06
3.08048e-05
7.60433e-05
0.000152596
0.000410352
0.00049144
0.00034236
0.000178775
9.10866e-05
1.16517e-05
7.77575e-06
3.44012e-05
8.80691e-05
0.000169872
0.000443991
0.000542006
0.000376188
0.000195916
9.0996e-05
1.16419e-05
8.36266e-06
3.80079e-05
9.83915e-05
0.000173124
0.00047426
0.000596284
0.000412252
0.000217057
8.69227e-05
5.07528e-05
9.02785e-06
4.15999e-05
0.000108421
0.000181483
0.000507005
0.000653182
0.000446371
0.000241304
7.12966e-05
5.44216e-05
9.63321e-06
4.55728e-05
0.000119591
0.000204533
0.00054345
0.000712548
0.000471874
0.000265852
6.53117e-05
5.9675e-05
1.01452e-05
5.00116e-05
0.000131881
0.000223817
0.00058252
0.000776912
0.00048567
0.00028381
9.02836e-05
6.70299e-05
1.04974e-05
5.53506e-05
0.000143651
0.000216006
0.00062444
0.000846807
0.000479516
0.000292248
0.000128349
7.11641e-05
1.06478e-05
6.20134e-05
0.00015351
0.000228476
0.000669672
0.000918167
0.000438711
0.000277033
0.000140964
6.93448e-05
1.06989e-05
7.00735e-05
0.000159769
0.000221897
0.000714965
0.000990881
0.000365689
0.000237781
0.000138385
6.41945e-05
1.07621e-05
7.94205e-05
0.000164387
0.000171693
0.000767537
0.00106317
0.000291182
0.000175281
0.000131362
5.88077e-05
1.08914e-05
8.97371e-05
0.000170523
0.000128074
0.000831706
0.00113725
0.000263239
0.000121345
0.000126853
5.38573e-05
1.11425e-05
0.00010023
0.000178955
0.000105742
0.000920714
0.00120823
0.000297652
0.000122525
0.000122244
4.93911e-05
1.13546e-05
0.000111081
0.000189093
0.00011478
0.00104681
0.00126306
0.000380386
0.000168165
0.000111533
1.15622e-05
1.14017e-05
0.00012263
0.000208158
0.000201428
0.00118673
0.00131892
0.000508708
0.000243136
8.68346e-05
1.14048e-05
1.13011e-05
0.000134814
0.000234698
0.000152855
0.00134936
0.00138649
0.00068929
0.000355971
6.40346e-05
1.12518e-05
1.12243e-05
0.000146702
0.000261224
0.000139184
0.00156175
0.00150052
0.000904211
0.000498689
8.98073e-05
1.13118e-05
1.11763e-05
0.000158918
0.000277272
0.000188447
0.00186306
0.00177681
0.00110944
0.000641984
6.64457e-05
1.12576e-05
1.11379e-05
0.000172173
0.000289594
0.000410982
0.0022974
0.00218736
0.00138976
0.000833152
5.20148e-05
1.12468e-05
1.11075e-05
0.000186153
0.000310734
0.00071985
0.00280121
0.0027306
0.00192477
0.00120101
0.000151436
1.14463e-05
1.11333e-05
0.000198668
0.000354245
0.001128
0.00341175
0.00350347
0.00271881
0.00174761
0.000471548
7.2584e-05
1.15215e-05
0.000211702
0.000392085
0.000856167
0.00421583
0.00455929
0.00383366
0.00261475
0.00130123
0.000171417
5.42759e-05
0.000231335
0.000442011
0.000983452
0.0053418
0.00593204
0.00537466
0.00394314
0.00202518
0.000509147
9.51572e-05
0.000252566
0.000500645
0.0024583
0.00713943
0.00786811
0.00747518
0.00571392
0.0026175
0.000939074
0.000191912
0.000276087
0.000618457
0.00456519
0.0096467
0.0105974
0.0103037
0.00796586
0.0029075
0.0010989
0.000296492
0.000306289
0.000734026
0.00618256
0.0127251
0.0144206
0.0141867
0.0115335
0.00476323
0.00124542
0.000381072
0.000340137
0.00104868
0.00610988
0.0186494
0.0198535
0.0196764
0.0181792
0.0123441
0.00258239
0.000513543
0.000384306
)
;
    }
    inlet
    {
        type            turbulentMixingLengthDissipationRateInlet;
        mixingLength    0.071;
        phi             phi;
        k               k;
        value           uniform 2.72107e-07;
    }
    outlet
    {
        type            inletOutlet;
        inletValue      uniform 0.0001;
        value           nonuniform List<scalar> 
20
(
0.00111894
0.0001
0.0001
0.0001
0.0001
0.0001
0.0001
0.00259561
0.000512629
0.000383636
0.00104868
0.0001
0.0001
0.0001
0.0001
0.0001
0.0001
0.00258239
0.000513543
0.000384306
)
;
    }
    heatWall
    {
        type            epsilonWallFunction;
        value           nonuniform List<scalar> 
240
(
5.36161e-06
5.35982e-06
5.28148e-06
5.27623e-06
5.19731e-06
5.18868e-06
5.10383e-06
5.09912e-06
5.00298e-06
5.0056e-06
4.88755e-06
4.89593e-06
4.74049e-06
4.75178e-06
4.54594e-06
4.5573e-06
4.28506e-06
4.29137e-06
4.00798e-06
4.00646e-06
3.85808e-06