/*--------------------------------*- C++ -*----------------------------------*\
  =========                 |
  \\      /  F ield         | OpenFOAM: The Open Source CFD Toolbox
   \\    /   O peration     | Website:  https://openfoam.org
    \\  /    A nd           | Version:  8
     \\/     M anipulation  |
\*---------------------------------------------------------------------------*/
FoamFile
{
    version     2.0;
    format      ascii;
    class       volScalarField;
    location    "600";
    object      nut;
}
// * * * * * * * * * * * * * * * * * * * * * * * * * * * * * * * * * * * * * //

dimensions      [0 2 -1 0 0 0 0];

internalField   nonuniform List<scalar> 
1200
(
9.44553e-06
9.34683e-06
9.24363e-06
9.13425e-06
9.01994e-06
8.89066e-06
8.74726e-06
8.62215e-06
8.35522e-06
8.35921e-06
8.81204e-06
9.3172e-06
9.80248e-06
1.03286e-05
1.1018e-05
1.19745e-05
1.30993e-05
1.37657e-05
1.43704e-05
1.48772e-05
1.54222e-05
1.55683e-05
6.05234e-06
6.08059e-06
6.16802e-06
6.29875e-06
6.4302e-06
6.56135e-06
6.69724e-06
6.85765e-06
7.03467e-06
7.2369e-06
7.45587e-06
7.74128e-06
8.16412e-06
8.61009e-06
8.96601e-06
9.28295e-06
9.62258e-06
9.98684e-06
1.03522e-05
1.07411e-05
1.09691e-05
1.10229e-05
1.10189e-05
1.10614e-05
1.10751e-05
1.13673e-05
1.17652e-05
1.21921e-05
1.25636e-05
1.28015e-05
1.30346e-05
1.35593e-05
1.40187e-05
1.45666e-05
1.50961e-05
1.79621e-05
1.76817e-05
1.93434e-05
7.34028e-06
6.36085e-06
5.5255e-06
4.82004e-06
4.23346e-06
3.73159e-06
3.35337e-06
3.00898e-06
2.64688e-06
3.83743e-06
5.9831e-06
5.72582e-06
4.72053e-06
4.15426e-06
4.01692e-06
4.10236e-06
4.41932e-06
4.68814e-06
5.44677e-06
6.3935e-06
7.62454e-06
8.92556e-06
1.01413e-05
1.1222e-05
1.28949e-05
1.49225e-05
3.80242e-06
4.12935e-06
4.48076e-06
4.6198e-06
3.85627e-06
3.93651e-06
4.4175e-06
5.00064e-06
5.45831e-06
5.73742e-06
5.78447e-06
5.87443e-06
6.12044e-06
6.34463e-06
6.32126e-06
6.44452e-06
6.28727e-06
6.07213e-06
5.36155e-06
4.89642e-06
4.71477e-06
7.57594e-06
6.48733e-06
5.41065e-06
5.85015e-06
7.65709e-06
9.20553e-06
1.06318e-05
9.66273e-06
1.04248e-05
1.39079e-05
1.70904e-05
1.89084e-05
1.91984e-05
7.33114e-06
6.31822e-06
5.44248e-06
4.69041e-06
4.04952e-06
3.48975e-06
3.01838e-06
2.61728e-06
2.67699e-06
3.8341e-06
4.75892e-06
3.30238e-06
1.83364e-06
2.62863e-06
3.84452e-06
4.55136e-06
4.43898e-06
3.34732e-06
4.51576e-06
5.95148e-06
1.0385e-05
1.35909e-05
1.53805e-05
3.84897e-06
4.25799e-06
4.63933e-06
5.01979e-06
5.3969e-06
5.76306e-06
6.12187e-06
6.47533e-06
6.77848e-06
7.09415e-06
7.40513e-06
7.6611e-06
7.85016e-06
8.02844e-06
8.20863e-06
8.40029e-06
8.59819e-06
8.79835e-06
9.00067e-06
9.19682e-06
9.41592e-06
9.67259e-06
1.00037e-05
1.04412e-05
1.09126e-05
1.13918e-05
1.19799e-05
1.26796e-05
1.35814e-05
1.45207e-05
1.55277e-05
1.66703e-05
1.80482e-05
1.98735e-05
2.19661e-05
2.41247e-05
2.76265e-05
7.33385e-06
6.32385e-06
5.44945e-06
4.6967e-06
4.05347e-06
3.48825e-06
3.0015e-06
2.58189e-06
2.55673e-06
3.51208e-06
4.03207e-06
3.28768e-06
2.46589e-06
3.17737e-06
4.65824e-06
5.7401e-06
6.01073e-06
6.16382e-06
7.30996e-06
1.15862e-05
1.40071e-05
1.56231e-05
3.90826e-06
4.30076e-06
4.6871e-06
5.06076e-06
5.42481e-06
5.7827e-06
6.1643e-06
6.54574e-06
6.90557e-06
7.24568e-06
7.56502e-06
7.86038e-06
8.13605e-06
8.4069e-06
8.67326e-06
8.93856e-06
9.20057e-06
9.46806e-06
9.74338e-06
1.00077e-05
1.02635e-05
1.05125e-05
1.0747e-05
1.09564e-05
1.1112e-05
1.12395e-05
1.14212e-05
1.18081e-05
1.26669e-05
1.37162e-05
1.46992e-05
1.58842e-05
1.72649e-05
1.88131e-05
2.06112e-05
2.27058e-05
2.51647e-05
2.80403e-05
7.33552e-06
6.32403e-06
5.45024e-06
4.69649e-06
4.05136e-06
3.49284e-06
3.00629e-06
2.59044e-06
2.37533e-06
2.88477e-06
3.30244e-06
3.07108e-06
2.62648e-06
2.35014e-06
3.49982e-06
5.77497e-06
6.14893e-06
6.29142e-06
6.90982e-06
8.13357e-06
1.11749e-05
1.40132e-05
1.53606e-05
1.65286e-05
4.05038e-06
4.35391e-06
4.65432e-06
5.01299e-06
5.40192e-06
5.79886e-06
6.16363e-06
6.4793e-06
6.74877e-06
6.9863e-06
7.20953e-06
7.43007e-06
7.65759e-06
7.85811e-06
7.99586e-06
8.05552e-06
7.99359e-06
7.71273e-06
7.1915e-06
6.62683e-06
6.66651e-06
7.20778e-06
7.6941e-06
8.33684e-06
9.18713e-06
1.01071e-05
1.0883e-05
1.18039e-05
1.30711e-05
1.46292e-05
1.63798e-05
1.83108e-05
2.03717e-05
2.2589e-05
2.50751e-05
2.79498e-05
7.33539e-06
6.32336e-06
5.45318e-06
4.69942e-06
4.05178e-06
3.49545e-06
3.00827e-06
2.60104e-06
2.29931e-06
2.40885e-06
2.62603e-06
2.56399e-06
2.36651e-06
2.16428e-06
2.34956e-06
3.08417e-06
3.05904e-06
3.33603e-06
4.88858e-06
6.41504e-06
7.99511e-06
1.05219e-05
1.2452e-05
1.37551e-05
1.54721e-05
3.4928e-06
1.75611e-05
3.5305e-06
4.02678e-06
4.81128e-06
5.18731e-06
5.43316e-06
5.6002e-06
5.71298e-06
5.80678e-06
5.96073e-06
6.17024e-06
6.38879e-06
6.60374e-06
6.75777e-06
6.79757e-06
6.65911e-06
6.30293e-06
5.66305e-06
5.03765e-06
5.22144e-06
5.7678e-06
6.32979e-06
7.12913e-06
8.01032e-06
8.85395e-06
9.78514e-06
1.10693e-05
1.259e-05
1.44489e-05
1.65499e-05
1.86826e-05
2.09252e-05
2.38675e-05
2.76033e-05
7.3352e-06
6.32373e-06
5.4575e-06
4.70392e-06
4.05494e-06
3.49861e-06
3.01423e-06
2.61111e-06
2.28552e-06
2.15218e-06
2.14501e-06
2.06934e-06
1.93294e-06
1.84867e-06
1.8364e-06
2.01366e-06
2.02227e-06
2.04826e-06
2.29677e-06
2.75478e-06
3.95325e-06
6.2501e-06
8.41137e-06
1.00835e-05
1.15436e-05
1.26441e-05
1.3437e-05
1.43933e-05
1.60927e-05
3.97618e-06
4.22016e-06
4.45911e-06
4.69562e-06
4.759e-06
4.71665e-06
4.69531e-06
4.77936e-06
4.91751e-06
4.52253e-06
4.35953e-06
5.14062e-06
5.34412e-06
5.30923e-06
5.22196e-06
5.16067e-06
5.08487e-06
4.89925e-06
4.49405e-06
3.41043e-06
3.82879e-06
3.96054e-06
4.74091e-06
5.85711e-06
8.00759e-06
1.12469e-05
1.30507e-05
1.42891e-05
1.4927e-05
1.79334e-05
2.40193e-05
7.33666e-06
6.32211e-06
5.4539e-06
4.69998e-06
4.05021e-06
3.4945e-06
3.01895e-06
2.62289e-06
2.2926e-06
2.05981e-06
1.91465e-06
1.78431e-06
1.6484e-06
1.56144e-06
1.51696e-06
1.50937e-06
1.46164e-06
1.41559e-06
1.41974e-06
1.5231e-06
1.95811e-06
3.11327e-06
4.69712e-06
6.2134e-06
7.51877e-06
8.6272e-06
9.53799e-06
1.04622e-05
1.16034e-05
1.28517e-05
1.41205e-05
1.50853e-05
1.5703e-05
1.60825e-05
1.62239e-05
1.6194e-05
3.76026e-06
3.80835e-06
3.85795e-06
3.97471e-06
4.19246e-06
4.23994e-06
4.1458e-06
3.99728e-06
3.8632e-06
3.74843e-06
1.56951e-05
1.55143e-05
1.53128e-05
1.51661e-05
1.50244e-05
1.49087e-05
1.51491e-05
4.33009e-06
5.93002e-06
8.21772e-06
1.00365e-05
1.06608e-05
1.11687e-05
1.42458e-05
7.34956e-06
6.36685e-06
5.53219e-06
4.81283e-06
4.18009e-06
3.6365e-06
3.17199e-06
2.78055e-06
2.44282e-06
2.1673e-06
1.95981e-06
1.79834e-06
1.66621e-06
1.5544e-06
1.46677e-06
1.40116e-06
1.34161e-06
1.29436e-06
1.2604e-06
1.24845e-06
1.32393e-06
1.66882e-06
2.34339e-06
3.18098e-06
4.01255e-06
4.77954e-06
5.49239e-06
6.21601e-06
7.01759e-06
7.86778e-06
8.6381e-06
9.20802e-06
9.62322e-06
1.00112e-05
1.0494e-05
1.11733e-05
1.1999e-05
1.28595e-05
1.36284e-05
1.43314e-05
1.47305e-05
1.47868e-05
1.47413e-05
1.47736e-05
1.50318e-05
1.54052e-05
1.56596e-05
1.55832e-05
1.53858e-05
1.52743e-05
1.51977e-05
1.52118e-05
1.51622e-05
1.56473e-05
3.94082e-06
4.70995e-06
5.84406e-06
6.77888e-06
7.43459e-06
8.28667e-06
9.44861e-06
9.34577e-06
9.24431e-06
9.14884e-06
9.04271e-06
8.89969e-06
8.70972e-06
8.475e-06
8.16079e-06
7.81798e-06
7.62363e-06
7.6437e-06
7.80163e-06
7.77519e-06
7.67225e-06
7.69861e-06
7.93081e-06
8.22288e-06
8.45179e-06
8.56462e-06
8.53893e-06
8.55436e-06
8.64455e-06
8.78924e-06
9.06672e-06
9.48137e-06
9.97917e-06
1.05311e-05
1.11814e-05
1.19524e-05
1.28263e-05
1.37665e-05
1.4781e-05
6.09244e-06
6.35789e-06
6.60993e-06
6.83725e-06
7.03048e-06
7.22652e-06
7.41277e-06
7.6438e-06
7.94166e-06
8.28923e-06
8.66236e-06
9.02795e-06
9.36131e-06
9.6771e-06
9.98882e-06
1.02841e-05
1.05508e-05
1.08425e-05
1.11555e-05
1.14376e-05
1.15798e-05
1.18041e-05
1.21419e-05
1.25448e-05
1.30065e-05
1.34715e-05
1.40371e-05
9.44025e-06
9.34655e-06
9.24273e-06
9.13706e-06
9.03626e-06
8.9011e-06
8.75685e-06
8.62884e-06
8.35008e-06
8.34922e-06
8.80313e-06
9.31388e-06
9.79116e-06
1.03279e-05
1.09974e-05
1.19461e-05
1.30805e-05
1.37758e-05
1.43642e-05
1.48731e-05
1.5425e-05
6.02419e-06
6.04378e-06
6.08063e-06
6.16887e-06
6.30016e-06
6.43313e-06
6.57663e-06
6.72532e-06
6.89794e-06
7.07245e-06
7.25004e-06
7.48565e-06
7.76e-06
8.13437e-06
8.57145e-06
8.95001e-06
9.30028e-06
9.66981e-06
1.00694e-05
1.04502e-05
1.07217e-05
1.08227e-05
1.08375e-05
1.08653e-05
1.09638e-05
1.10488e-05
1.13549e-05
1.17676e-05
1.22583e-05
1.25962e-05
1.28104e-05
1.30595e-05
1.35882e-05
1.40492e-05
1.46211e-05
1.5198e-05
1.89196e-05
1.88784e-05
1.92249e-05
7.34413e-06
6.36503e-06
5.52688e-06
4.82053e-06
4.23706e-06
3.73794e-06
3.34431e-06
3.01005e-06
2.64436e-06
3.80712e-06
5.95308e-06
5.70718e-06
4.71328e-06
4.12865e-06
3.99425e-06
4.08305e-06
4.41102e-06
4.66416e-06
5.42479e-06
6.37135e-06
7.61457e-06
8.9287e-06
1.01526e-05
1.12354e-05
1.29188e-05
1.4965e-05
3.81688e-06
4.27287e-06
4.95586e-06
5.43215e-06
4.24056e-06
3.91743e-06
4.32717e-06
4.89671e-06
5.36216e-06
5.60647e-06
5.62858e-06
5.75008e-06
6.0319e-06
6.38738e-06
6.49695e-06
6.71673e-06
6.58394e-06
5.91107e-06
5.27329e-06
4.8699e-06
4.7731e-06
8.23091e-06
5.93823e-06
5.33771e-06
5.85129e-06
7.66631e-06
9.17273e-06
1.03424e-05
9.36567e-06
1.02946e-05
1.39034e-05
1.7103e-05
1.89375e-05
1.98753e-05
7.33566e-06
6.31992e-06
5.44239e-06
4.68867e-06
4.04583e-06
3.49257e-06
3.0179e-06
2.6184e-06
2.6565e-06
3.79851e-06
4.74162e-06
3.31541e-06
1.81309e-06
2.63228e-06
3.86013e-06
4.56969e-06
4.46314e-06
3.18004e-06
4.51521e-06
5.92616e-06
1.03732e-05
1.35815e-05
1.53607e-05
3.849e-06
4.25619e-06
4.63829e-06
5.02363e-06
5.41321e-06
5.79224e-06
6.14179e-06
6.49357e-06
6.75554e-06
7.03791e-06
7.33277e-06
7.58154e-06
7.77843e-06
7.9682e-06
8.14878e-06
8.34678e-06
8.55772e-06
8.76337e-06
8.95725e-06
9.14472e-06
9.35806e-06
9.62767e-06
9.95486e-06
1.03929e-05
1.08752e-05
1.13588e-05
1.19588e-05
1.26219e-05
1.34983e-05
1.44356e-05
1.55007e-05
1.6658e-05
1.80404e-05
1.98387e-05
2.18986e-05
2.41221e-05
2.75375e-05
7.33571e-06
6.32263e-06
5.45079e-06
4.69668e-06
4.04919e-06
3.49039e-06
3.00116e-06
2.58227e-06
2.53948e-06
3.48107e-06
4.0175e-06
3.28888e-06
2.47201e-06
3.20476e-06
4.68193e-06
5.75373e-06
6.02571e-06
6.17086e-06
7.25097e-06
1.17668e-05
1.41175e-05
1.57185e-05
3.9234e-06
4.3125e-06
4.69647e-06
5.06627e-06
5.41979e-06
5.74833e-06
6.11713e-06
6.53555e-06
6.90537e-06
7.22535e-06
7.53161e-06
7.82112e-06
8.09588e-06
8.3675e-06
8.64171e-06
8.91295e-06
9.16793e-06
9.42008e-06
9.68501e-06
9.94627e-06
1.02053e-05
1.04611e-05
1.06779e-05
1.08629e-05
1.1009e-05
1.11093e-05
1.13242e-05
1.18225e-05
1.26847e-05
1.35873e-05
1.45572e-05
1.57629e-05
1.71735e-05
1.87364e-05
2.05603e-05
2.26813e-05
2.5141e-05
2.80005e-05
7.33511e-06
6.32262e-06
5.45279e-06
4.69729e-06
4.04784e-06
3.49149e-06
3.00298e-06
2.58967e-06
2.36707e-06
2.86266e-06
3.2874e-06
3.06467e-06
2.62768e-06
2.36844e-06
3.52831e-06
5.79736e-06
6.16487e-06
6.30348e-06
6.91757e-06
8.10591e-06
1.10828e-05
1.39575e-05
1.55312e-05
1.7209e-05
4.05541e-06
4.34704e-06
4.63088e-06
4.94192e-06
5.32277e-06
5.74158e-06
6.13772e-06
6.47488e-06
6.75595e-06
6.99769e-06
7.21516e-06
7.42394e-06
7.63117e-06
7.79964e-06
7.92997e-06
7.94217e-06
7.83026e-06
7.49934e-06
6.94455e-06
6.41902e-06
6.56541e-06
7.18486e-06
7.65757e-06
8.34917e-06
9.18697e-06
1.00327e-05
1.07768e-05
1.16586e-05
1.29519e-05
1.45156e-05
1.62802e-05
1.82164e-05
2.02962e-05
2.25374e-05
2.50398e-05
2.79198e-05
7.33586e-06
6.32471e-06
5.45559e-06
4.70008e-06
4.04979e-06
3.49132e-06
3.00516e-06
2.59825e-06
2.29549e-06
2.39632e-06
2.61387e-06
2.55537e-06
2.36037e-06
2.16102e-06
2.36719e-06
3.08902e-06
3.04979e-06
3.34518e-06
4.91967e-06
6.42643e-06
7.96835e-06
1.04726e-05
1.24115e-05
1.37175e-05
1.5416e-05
3.67374e-06
1.63119e-05
1.54705e-05
3.26935e-06
4.53364e-06
5.1348e-06
5.4363e-06
5.646e-06
5.78576e-06
5.88621e-06
6.01888e-06
6.20951e-06
6.37702e-06
6.54379e-06
6.68029e-06
6.69699e-06
6.54371e-06
6.15529e-06
5.50416e-06
4.98102e-06
5.27094e-06
5.71421e-06
6.38475e-06
7.25727e-06
8.12989e-06
8.84336e-06
9.71357e-06
1.09897e-05
1.2487e-05
1.43216e-05
1.64254e-05
1.85508e-05
2.07441e-05
2.36205e-05
2.74422e-05
7.33794e-06
6.32613e-06
5.45753e-06
4.70443e-06
4.05433e-06
3.49501e-06
3.01591e-06
2.61354e-06
2.28304e-06
2.14713e-06
2.13832e-06
2.0618e-06
1.92241e-06
1.83691e-06
1.83143e-06
2.01212e-06
2.01957e-06
2.04228e-06
2.28213e-06
2.71907e-06
3.92912e-06
6.233e-06
8.38423e-06
1.00549e-05
1.15085e-05
1.2653e-05
1.34143e-05
1.44357e-05
1.57993e-05
3.96509e-06
4.23865e-06
4.48827e-06
4.81873e-06
4.89424e-06
4.84822e-06
4.81716e-06
5.053e-06
4.9162e-06
4.34781e-06
4.11821e-06
4.92578e-06
5.21704e-06
5.23598e-06
5.16587e-06
5.11056e-06
5.02757e-06
4.81021e-06
4.39308e-06
3.73659e-06
4.16909e-06
3.69273e-06
5.34474e-06
5.54587e-06
7.92615e-06
1.1227e-05
1.3035e-05
1.42511e-05
1.48359e-05
1.77221e-05
2.42858e-05
7.33976e-06
6.32222e-06
5.45156e-06
4.70041e-06
4.05021e-06
3.4933e-06
3.02108e-06
2.62431e-06
2.29322e-06
2.061e-06
1.91262e-06
1.77984e-06
1.64574e-06
1.55806e-06
1.51712e-06
1.51244e-06
1.45806e-06
1.405e-06
1.40234e-06
1.50055e-06
1.94399e-06
3.11362e-06
4.69702e-06
6.20794e-06
7.51144e-06
8.63341e-06
9.54232e-06
1.04336e-05
1.15503e-05
1.27872e-05
1.40398e-05
1.49452e-05
1.55712e-05
1.60276e-05
1.61112e-05
1.61127e-05
3.7896e-06
3.83913e-06
3.90941e-06
4.04426e-06
4.21407e-06
4.23097e-06
4.12511e-06
3.98907e-06
3.86555e-06
3.75441e-06
1.57094e-05
1.55328e-05
1.53603e-05
1.53532e-05
1.51699e-05
1.50618e-05
1.54153e-05
4.29433e-06
5.78853e-06
8.17341e-06
1.00363e-05
1.06437e-05
1.11238e-05
1.42253e-05
7.35055e-06
6.36377e-06
5.52685e-06
4.80894e-06
4.17661e-06
3.63382e-06
3.17331e-06
2.7828e-06
2.44393e-06
2.16659e-06
1.95964e-06
1.79962e-06
1.66845e-06
1.55704e-06
1.46922e-06
1.40335e-06
1.34426e-06
1.29907e-06
1.26578e-06
1.25016e-06
1.32203e-06
1.67375e-06
2.35365e-06
3.19129e-06
4.02692e-06
4.80677e-06
5.51643e-06
6.20214e-06
6.97553e-06
7.81445e-06
8.58356e-06
9.1442e-06
9.5849e-06
1.00295e-05
1.05798e-05
1.13262e-05
1.22109e-05
1.30616e-05
1.38104e-05
1.43963e-05
1.46668e-05
1.47046e-05
1.47184e-05
1.48269e-05
1.51615e-05
1.55051e-05
1.56517e-05
1.5518e-05
1.53702e-05
1.52865e-05
1.52241e-05
1.51767e-05
1.51964e-05
1.57193e-05
3.92588e-06
4.68237e-06
5.8514e-06
6.79653e-06
7.43752e-06
8.28465e-06
9.44621e-06
9.34871e-06
9.25054e-06
9.14701e-06
9.03863e-06
8.90697e-06
8.73144e-06
8.49698e-06
8.1755e-06
7.82027e-06
7.62142e-06
7.64545e-06
7.81156e-06
7.77147e-06
7.67176e-06
7.72062e-06
7.95796e-06
8.22194e-06
8.44071e-06
8.59245e-06
8.59245e-06
8.58001e-06
8.63618e-06
8.78868e-06
9.03295e-06
9.38722e-06
9.86223e-06
1.04459e-05
1.11377e-05
1.19297e-05
1.27949e-05
1.37112e-05
1.46957e-05
6.06723e-06
6.32303e-06
6.55976e-06
6.7661e-06
6.95903e-06
7.15592e-06
7.36756e-06
7.62965e-06
7.94452e-06
8.29627e-06
8.66678e-06
9.01467e-06
9.33873e-06
9.6514e-06
9.96214e-06
1.02465e-05
1.05175e-05
1.08069e-05
1.11099e-05
1.13616e-05
1.15447e-05
1.18221e-05
1.21761e-05
1.25683e-05
1.30207e-05
1.34845e-05
1.40448e-05
)
;

boundaryField
{
    wall
    {
        type            nutkWallFunction;
        Cmu             0.09;
        kappa           0.41;
        E               9.8;
        value           nonuniform List<scalar> 
1200
(
0
0
0
0
0
0
0
0
0
0
0
0
0
0
0
0
0
0
0
0
0
0
0
0
0
0
0
0
0
0
0
0
0
0
0
0
0
0
0
0
0
0
0
0
0
0
0
0
0
0
0
0
0
0
0
0
0
0
0
0
0
0
0
0
0
0
0
0
0
0
0
0
0
0
0
0
0
0
0
0
0
0
0
0
0
0
0
0
0
0
0
0
0
0
0
0
0
0
0
0
0
0
0
0
0
0
0
0
0
0
0
0
0
0
0
0
0
0
0
0
0
0
0
0
0
0
0
0
0
0
0
0
0
0
0
0
0
0
0
0
0
0
0
0
0
0
0
0
0
0
0
0
0
0
0
0
0
0
0
0
0
0
0
0
0
0
0
0
0
0
0
0
0
0
0
0
0
0
0
0
0
0
0
0
0
0
0
0
0
0
0
0
0
0
0
0
0
0
0
0
0
0
0
0
0
0
0
0
0
0
2.03235e-10
0
0
0
0
0
0
0
0
0
2.9005e-10
0
0
1.75547e-08
0
0
0
0
0
0
2.90267e-09
0
1.12568e-08
8.25273e-08
4.71049e-09
0
0
0
0
0
1.1961e-08
0
7.90581e-08
1.45781e-07
4.34434e-08
0
0
0
0
0
2.54271e-08
0
1.41064e-07
2.06029e-07
9.37763e-08
0
0
0
0
0
3.89163e-08
2.73606e-09
2.01052e-07
2.64236e-07
1.44818e-07
1.33892e-08
0
0
0
0
5.19482e-08
3.50286e-08
2.59664e-07
3.21729e-07
2.02784e-07
1.57946e-08
0
0
0
0
6.57818e-08
5.77041e-08
3.1777e-07
3.8086e-07
2.64823e-07
9.29961e-08
9.52468e-11
0
0
0
8.27987e-08
4.6345e-08
3.75676e-07
4.39658e-07
3.25808e-07
1.76802e-07
3.27838e-08
0
0
0
1.01276e-07
1.89976e-08
4.31747e-07
4.96718e-07
3.80428e-07
2.25945e-07
7.356e-08
0
0
0
1.20604e-07
4.12303e-08
4.82949e-07
5.50471e-07
4.28636e-07
2.61272e-07
1.07233e-07
0
0
0
1.43092e-07
1.24714e-07
5.33526e-07
6.00374e-07
4.69942e-07
2.8528e-07
1.31655e-07
0
0
0
1.76953e-07
2.20841e-07
5.81181e-07
6.45614e-07
5.07443e-07
3.03947e-07
1.371e-07
9.61843e-10
0
1.88399e-09
2.21344e-07
2.93257e-07
6.18586e-07
6.86501e-07
5.44541e-07
3.22826e-07
1.29359e-07
1.14531e-09
0
2.74319e-08
2.61194e-07
3.25874e-07
6.47324e-07
7.26157e-07
5.81116e-07
3.55156e-07
1.23207e-07
1.46398e-10
0
5.1213e-08
2.91194e-07
3.22221e-07
6.73364e-07
7.66208e-07
6.17823e-07
3.92609e-07
1.19792e-07
0
0
7.27342e-08
3.18647e-07
3.32487e-07
6.99872e-07
8.06368e-07
6.49914e-07
4.28985e-07
1.09534e-07
1.00539e-08
0
9.32566e-08
3.47948e-07
3.64076e-07
7.27823e-07
8.4587e-07
6.73982e-07
4.61992e-07
7.31608e-08
2.52502e-08
0
1.13906e-07
3.78746e-07
3.81654e-07
7.56567e-07
8.85872e-07
6.88135e-07
4.86998e-07
1.64482e-07
5.53939e-08
0
1.35595e-07
4.10418e-07
3.61996e-07
7.86908e-07
9.26018e-07
6.85281e-07
4.95689e-07
2.52679e-07
7.94391e-08
0
1.61904e-07
4.40304e-07
3.87228e-07
8.18809e-07
9.64428e-07
6.52825e-07
4.77979e-07
2.67948e-07
7.84709e-08
0
1.93053e-07
4.59567e-07
3.85421e-07
8.48956e-07
1.00167e-06
5.84055e-07
4.2852e-07
2.5886e-07
6.132e-08
0
2.27514e-07
4.69062e-07
3.30196e-07
8.80709e-07
1.03791e-06
4.94026e-07
3.33789e-07
2.44069e-07
3.88877e-08
0
2.63392e-07
4.76511e-07
2.48719e-07
9.17274e-07
1.07309e-06
4.5838e-07
2.24823e-07
2.35616e-07
1.81343e-08
0
2.97283e-07
4.87615e-07
1.84711e-07
9.64793e-07
1.10611e-06
5.22396e-07
2.25863e-07
2.2588e-07
0
0
3.28997e-07
4.99476e-07
1.74845e-07
1.02742e-06
1.13194e-06
6.04118e-07
3.13005e-07
2.00154e-07
0
0
3.59639e-07
5.27618e-07
3.80864e-07
1.09279e-06
1.15571e-06
7.08177e-07
4.19933e-07
1.34092e-07
0
0
3.89766e-07
5.67521e-07
3.29836e-07
1.16107e-06
1.18107e-06
8.32413e-07
5.48377e-07
1.98534e-08
0
0
4.17453e-07
6.10538e-07
2.52354e-07
1.24179e-06
1.22099e-06
9.59173e-07
6.76782e-07
8.82211e-08
0
0
4.43639e-07
6.40447e-07
3.33662e-07
1.34555e-06
1.31843e-06
1.06398e-06
7.87554e-07
8.29112e-08
0
0
4.71218e-07
6.60395e-07
6.19494e-07
1.47297e-06
1.44868e-06
1.1879e-06
9.14292e-07
7.57007e-08
0
0
4.99403e-07
6.85887e-07
8.55976e-07
1.60094e-06
1.5896e-06
1.37152e-06
1.09761e-06
2.83585e-07
0
0
5.23616e-07
7.36861e-07
1.06692e-06
1.73648e-06
1.75756e-06
1.58836e-06
1.30784e-06
6.54522e-07
8.35137e-08
0
5.4254e-07
7.78784e-07
9.14242e-07
1.89016e-06
1.95032e-06
1.82882e-06
1.56183e-06
1.13111e-06
3.20633e-07
2.15833e-08
5.69831e-07
8.30577e-07
9.95664e-07
2.07261e-06
2.15997e-06
2.08847e-06
1.84846e-06
1.38561e-06
6.88445e-07
1.47672e-07
6.02687e-07
8.85704e-07
1.51532e-06
2.3185e-06
2.40234e-06
2.36472e-06
2.13556e-06
1.55282e-06
9.61133e-07
3.35385e-07
6.38854e-07
1.01691e-06
1.95322e-06
2.60098e-06
2.68076e-06
2.65921e-06
2.42764e-06
1.6318e-06
1.04667e-06
4.80322e-07
6.80912e-07
1.09828e-06
2.20007e-06
2.88536e-06
2.99767e-06
2.98318e-06
2.79725e-06
2.00515e-06
1.1139e-06
5.75982e-07
7.24014e-07
1.3003e-06
2.17197e-06
3.29855e-06
3.36155e-06
3.35081e-06
3.28402e-06
2.82292e-06
1.54812e-06
7.00856e-07
7.75805e-07
0
0
0
0
0
0
0
0
0
0
0
0
0
0
0
0
0
0
0
0
0
0
0
0
0
0
0
0
0
0
0
0
0
0
0
0
0
0
0
0
0
0
0
0
0
0
0
0
0
0
0
0
0
0
0
0
0
0
0
0
0
0
0
0
0
0
0
0
0
0
0
0
0
0
0
0
0
0
0
0
0
0
0
0
0
0
0
0
0
0
0
0
0
0
0
0
0
0
0
0
0
0
0
0
0
0
0
0
0
0
0
0
0
0
0
0
0
0
0
0
0
0
0
0
0
0
0
0
0
0
0
0
0
0
0
0
0
0
0
0
0
0
0
0
0
0
0
0
0
0
0
0
0
0
0
0
0
0
0
0
0
0
0
0
0
0
0
0
0
0
0
0
0
0
0
0
0
0
0
0
0
0
0
0
0
0
0
0
0
0
0
0
0
0
0
0
0
0
0
0
0
0
0
0
0
0
0
0
0
0
0
0
0
0
0
0
0
0
0
0
1.35984e-10
0
0
1.9342e-08
0
0
0
0
0
0
2.92679e-09
0
1.00167e-08
8.40873e-08
1.04071e-08
0
0
0
0
0
1.20317e-08
0
7.78019e-08
1.4696e-07
4.23971e-08
0
0
0
0
0
2.55923e-08
0
1.40229e-07
2.068e-07
9.19538e-08
0
0
0
0
0
3.92136e-08
4.20661e-09
2.01374e-07
2.64128e-07
1.40631e-07
2.22841e-09
0
0
0
0
5.2936e-08
5.55365e-08
2.61197e-07
3.19526e-07
1.97578e-07
0
0
0
0
0
6.68685e-08
9.41999e-08
3.1872e-07
3.78848e-07
2.59616e-07
2.60794e-08
0
0
0
0
8.32099e-08
8.6156e-08
3.74614e-07
4.38709e-07
3.23173e-07
1.5898e-07
3.10852e-08
0
0
0
1.00754e-07
2.65732e-08
4.27534e-07
4.94717e-07
3.80365e-07
2.26901e-07
7.36177e-08
0
0
0
1.20448e-07
2.97529e-08
4.75363e-07
5.4664e-07
4.29612e-07
2.66435e-07
1.08181e-07
0
0
0
1.43641e-07
1.06786e-07
5.23857e-07
5.95172e-07
4.71345e-07
2.93306e-07
1.39287e-07
0
0
0
1.7445e-07
2.01255e-07
5.70531e-07
6.39736e-07
5.08355e-07
3.12754e-07
1.51424e-07
0
0
4.32685e-10
2.16005e-07
2.74231e-07
6.08179e-07
6.80789e-07
5.43465e-07
3.30029e-07
1.49266e-07
1.11378e-09
0
2.48059e-08
2.57372e-07
3.07566e-07
6.3854e-07
7.21036e-07
5.775e-07
3.56308e-07
1.47858e-07
9.62193e-10
0
4.74072e-08
2.90618e-07
3.1269e-07
6.65275e-07
7.61389e-07
6.11381e-07
3.87984e-07
1.48235e-07
4.89703e-09
0
6.8049e-08
3.20775e-07
3.28173e-07
6.92263e-07
8.01007e-07
6.40909e-07
4.20295e-07
1.06515e-07
1.81522e-08
0
8.88809e-08
3.52172e-07
3.66963e-07
7.21096e-07
8.39369e-07
6.62318e-07
4.51039e-07
6.93415e-08
3.61908e-08
0
1.10519e-07
3.84817e-07
4.02276e-07
7.50818e-07
8.78146e-07
6.71427e-07
4.73074e-07
1.17221e-07
6.1444e-08
0
1.34529e-07
4.14603e-07
3.97793e-07
7.80779e-07
9.17979e-07
6.63337e-07
4.81322e-07
2.19928e-07
7.88895e-08
0
1.62675e-07
4.37493e-07
4.19756e-07
8.10874e-07
9.56495e-07
6.24343e-07
4.61535e-07
2.51366e-07
7.50743e-08
0
1.94509e-07
4.49957e-07
4.07724e-07
8.39662e-07
9.93839e-07
5.51057e-07
4.07964e-07
2.48234e-07
5.7447e-08
0
2.2868e-07
4.57531e-07
3.21964e-07
8.71689e-07
1.02945e-06
4.69386e-07
3.10396e-07
2.34522e-07
3.70972e-08
0
2.63517e-07
4.67532e-07
2.33637e-07
9.09534e-07
1.063e-06
4.49359e-07
2.1076e-07
2.25079e-07
1.75547e-08
0
2.96094e-07
4.8231e-07
1.78933e-07
9.57821e-07
1.0932e-06
5.04612e-07
2.24282e-07
2.1416e-07
0
0
3.27037e-07
4.9875e-07
1.91132e-07
1.02115e-06
1.11597e-06
5.89366e-07
3.09503e-07
1.86918e-07
0
0
3.5744e-07
5.31737e-07
4.38938e-07
1.08663e-06
1.13686e-06
7.00724e-07
4.22459e-07
1.21921e-07
0
0
3.87405e-07
5.74648e-07
2.96899e-07
1.15502e-06
1.1648e-06
8.28909e-07
5.55777e-07
4.02949e-08
0
0
4.14796e-07
6.16761e-07
2.53551e-07
1.23684e-06
1.21519e-06
9.54077e-07
6.86502e-07
1.18488e-07
0
0
4.41203e-07
6.42093e-07
3.40769e-07
1.33674e-06
1.31795e-06
1.05702e-06
7.92759e-07
4.44897e-08
0
0
4.68515e-07
6.59977e-07
6.1185e-07
1.46348e-06
1.4435e-06
1.17765e-06
9.13269e-07
6.56802e-08
0
0
4.96053e-07
6.87002e-07
8.43013e-07
1.59241e-06
1.58385e-06
1.36285e-06
1.0954e-06
2.79813e-07
0
0
5.19313e-07
7.39912e-07
1.04763e-06
1.73054e-06
1.75359e-06
1.58027e-06
1.30378e-06
6.61969e-07
8.56286e-08
0
5.40845e-07
7.83097e-07
9.10044e-07
1.88556e-06
1.9476e-06
1.81991e-06
1.55432e-06
1.13566e-06
3.16748e-07
2.14444e-08
5.71915e-07
8.35912e-07
9.94302e-07
2.07018e-06
2.15766e-06
2.07975e-06
1.84034e-06
1.38878e-06
6.94491e-07
1.51111e-07
6.05133e-07
8.91801e-07
1.50988e-06
2.31271e-06
2.40125e-06
2.35819e-06
2.12828e-06
1.55241e-06
9.6797e-07
3.45079e-07
6.402e-07
1.0489e-06
1.94598e-06
2.58699e-06
2.68081e-06
2.65551e-06
2.41565e-06
1.62492e-06
1.04861e-06
4.89044e-07
6.81762e-07
1.11474e-06
2.19026e-06
2.86596e-06
2.99775e-06
2.98135e-06
2.77438e-06
1.99135e-06
1.11451e-06
5.81726e-07
7.24787e-07
1.26955e-06
2.21335e-06
3.2895e-06
3.35906e-06
3.34859e-06
3.26434e-06
2.84763e-06
1.54491e-06
7.01328e-07
7.76548e-07
)
;
    }
    inlet
    {
        type            calculated;
        value           uniform 0.000190513;
    }
    outlet
    {
        type            calculated;
        value           nonuniform List<scalar> 
20
(
1.93434e-05
0.0081
0.0081
0.0081
0.0081
0.0081
0.0081
1.42458e-05
8.28667e-06
1.40371e-05
1.92249e-05
0.0081
0.0081
0.0081
0.0081
0.0081
0.0081
1.42253e-05
8.28465e-06
1.40448e-05
)
;
    }
    heatWall
    {
        type            nutkWallFunction;
        Cmu             0.09;
        kappa           0.41;
        E               9.8;
        value           nonuniform List<scalar> 
240
(
1.08878e-06
1.08855e-06
1.07865e-06
1.07839e-06
1.0682e-06
1.06782e-06
1.05721e-06
1.05678e-06
1.04511e-06
1.04513e-06
1.03019e-06
1.03114e-06
1.01058e-06
1.01241e-06
9.84891e-07
9.86766e-07
9.4957e-07
9.50751e-07
9.10434e-07
9.10404e-07
8.88287e-07
8.87579e-07
8.90782e-07
8.90483e-07
9.0887e-07
9.09428e-07
9.05259e-07
9.05249e-07
8.94112e-07
8.95378e-07
8.98263e-07
9.03865e-07
9.23233e-07
9.32782e-07
9.50305e-07
9.62259e-07
9.72921e-07
9.84873e-07
9.90357e-07
1.00271e-06
9.93988e-07
1.00481e-06
9.93508e-07
9.99607e-07
9.99042e-07
1.00036e-06
1.01611e-06
1.01158e-06
1.04682e-06
1.03461e-06
1.08907e-06
1.07286e-06
1.13977e-06
1.12565e-06
1.19754e-06
1.18903e-06
1.26459e-06
1.26068e-06
1.34092e-06
1.33919e-06
1.42394e-06
1.42158e-06
1.51087e-06
1.50685e-06
1.60231e-06
1.59678e-06
1.68357e-06
1.6788e-06
1.7674e-06
1.75876e-06
1.84549e-06
1.83297e-06
1.91621e-06
1.90079e-06
1.9837e-06
1.96929e-06
2.05165e-06
2.0405e-06
2.12309e-06
2.11957e-06
2.20981e-06
2.21235e-06
2.31258e-06
2.31738e-06
2.42638e-06
2.43023e-06
2.54497e-06
2.54539e-06
2.6571e-06
2.65316e-06
2.76211e-06
2.75561e-06
2.86364e-06
2.85635e-06
2.96354e-06
2.9557e-06
3.0554e-06
3.04657e-06
3.14234e-06
3.13424e-06
3.23395e-06
3.22496e-06
3.32763e-06
3.31649e-06
3.40816e-06
3.39384e-06
3.47112e-06
3.46547e-06
3.56196e-06
3.5689e-06
3.67141e-06
3.67955e-06
3.79199e-06
3.79648e-06
3.93231e-06
3.93515e-06
4.07621e-06
4.0788e-06
4.24925e-06
4.25173e-06
1.08832e-06
1.08769e-06
1.07778e-06
1.07754e-06
1.06668e-06
1.06637e-06
1.05493e-06
1.05495e-06
1.04253e-06
1.04332e-06
1.0287e-06
1.02925e-06
1.01331e-06
1.01404e-06
1.00018e-06
1.00039e-06
9.70577e-07
9.70336e-07
9.71264e-07
9.70591e-07
1.02068e-06
1.02016e-06
1.07489e-06
1.07455e-06
1.12644e-06
1.12531e-06
1.18125e-06
1.18082e-06
1.25127e-06
1.24912e-06
1.34594e-06
1.34311e-06
1.45297e-06
1.45122e-06
1.51459e-06
1.51439e-06
1.57009e-06
1.56917e-06
1.61607e-06
1.61575e-06
1.66524e-06
1.66533e-06
1.67626e-06
1.67435e-06
1.67635e-06
1.67586e-06
1.68482e-06
1.68491e-06
1.71451e-06
1.71475e-06
1.75874e-06
1.75929e-06
1.80312e-06
1.80411e-06
1.84604e-06
1.84929e-06
1.89166e-06
1.89523e-06
1.94773e-06
1.9491e-06
2.0086e-06
2.00692e-06
2.07229e-06
2.0718e-06
2.14656e-06
2.14834e-06
2.2585e-06
2.25016e-06
2.40528e-06
2.38759e-06
2.53711e-06
2.52447e-06
2.63639e-06
2.63451e-06
2.7273e-06
2.73439e-06
2.82443e-06
2.83848e-06
2.92656e-06
2.94676e-06
3.03161e-06
3.04554e-06
3.13078e-06
3.12145e-06
3.19472e-06
3.16279e-06
3.22629e-06
3.188e-06
3.25116e-06
3.22137e-06
3.28821e-06
3.27064e-06
3.32778e-06
3.3254e-06
3.42146e-06
3.43518e-06
3.55431e-06
3.57804e-06
3.69762e-06
3.71836e-06
3.79736e-06
3.80286e-06
3.86393e-06
3.86255e-06
3.94903e-06
3.95276e-06
4.11926e-06
4.12946e-06
4.25936e-06
4.27378e-06
4.43255e-06
4.4504e-06
4.61702e-06
4.63743e-06
5.05666e-06
5.16396e-06
5.32972e-06
5.38498e-06
6.00885e-06
5.90537e-06
)
;
    }
}


// ************************************************************************* //
