/*--------------------------------*- C++ -*----------------------------------*\
  =========                 |
  \\      /  F ield         | OpenFOAM: The Open Source CFD Toolbox
   \\    /   O peration     | Website:  https://openfoam.org
    \\  /    A nd           | Version:  8
     \\/     M anipulation  |
\*---------------------------------------------------------------------------*/
FoamFile
{
    version     2.0;
    format      ascii;
    class       volScalarField;
    location    "600";
    object      p_rgh;
}
// * * * * * * * * * * * * * * * * * * * * * * * * * * * * * * * * * * * * * //

dimensions      [1 -1 -2 0 0 0 0];

internalField   nonuniform List<scalar> 
1200
(
-657.757
-657.863
-657.904
-657.904
-657.878
-657.83
-657.795
-657.833
-658.57
-660.905
-664.437
-666.975
-664.966
-663.144
-666.633
-669.377
-677.555
-677.406
-682.048
-687.704
-695.955
-706.678
-718.747
-735.739
-758.394
-781.332
-820.676
-909.86
-997.344
-1071.23
-1127.84
-1206.47
-1283.08
-1340.47
-1385.71
-1456.05
-1552.21
-1637.4
-1741.32
-1881.28
-1980.67
-2010.2
-1982.47
-1923.55
-1863.12
-1791.59
-1744.56
-1763.02
-1767.24
-1706.12
-1579.47
-1461.83
-1326.02
-1228.83
-1158.76
-1000.51
-769.067
-657.387
-549.797
-286.129
-657.947
-657.954
-657.957
-657.941
-657.903
-657.846
-657.791
-657.733
-657.981
-658.753
-661.432
-665.844
-664.683
-663.72
-666.027
-668.273
-676.939
-677.263
-677.994
-683.78
-693.11
-705.19
-717.336
-735.124
-758.053
-780.298
-823.02
-918.722
-1002.03
-1072.79
-1120.49
-1196.44
-1278.19
-1339.63
-1382.08
-1452.28
-1551.72
-1636.18
-1737.3
-1883.87
-1988.84
-2022.45
-1995.7
-1938.67
-1875.31
-1793.28
-1737.64
-1761.74
-1770.53
-1701.67
-1567.68
-1458.49
-1327.73
-1239.66
-1166.93
-994.771
-774.054
-640.031
-549.215
-389.636
-657.912
-657.904
-657.908
-657.905
-657.882
-657.836
-657.785
-657.727
-657.418
-658.045
-660.156
-664.455
-664.379
-664.035
-666.141
-669.195
-680.122
-677.396
-679.851
-682.854
-694.008
-707.592
-718.958
-735.678
-758.308
-781.93
-818.264
-900.904
-990.829
-1070.68
-1126.65
-1207.87
-1291.31
-1361.23
-1419.87
-1493.31
-1581.41
-1659.02
-1746.7
-1869.31
-1965.85
-2000.15
-1982.64
-1932.05
-1872.62
-1799.47
-1747.57
-1760.08
-1754.12
-1693.91
-1574.37
-1463.22
-1346.24
-1251.99
-1161.86
-1000.34
-753.238
-518.906
-494.133
-647.993
-657.916
-657.925
-657.937
-657.931
-657.905
-657.867
-657.829
-657.764
-657.12
-656.753
-658.504
-663.888
-664.33
-662.903
-664.882
-667.983
-676.793
-677.657
-678.258
-683.463
-693.889
-707.152
-718.763
-735.944
-759.713
-787.02
-816.251
-860.7
-928.134
-1013.04
-1105.36
-1212.39
-1319.21
-1417.05
-1502.84
-1583.42
-1655.16
-1716.91
-1772.54
-1842.62
-1919.85
-1968.95
-1977.27
-1948.82
-1896.29
-1828.15
-1772.87
-1732.74
-1687.81
-1623.98
-1572.31
-1491.05
-1382.59
-1261.62
-1138.22
-980.972
-813.555
-626.378
-536.207
-663.75
-657.916
-657.922
-657.927
-657.919
-657.905
-657.883
-657.87
-657.88
-657.646
-657.437
-658.752
-662.229
-663.362
-661.212
-662.786
-665.499
-672.509
-675.316
-679.771
-685.064
-694.894
-707.078
-718.476
-735.661
-760.097
-789.867
-811.202
-830.57
-878.887
-968.059
-1089.18
-1218.48
-1347.07
-1466.09
-1565.85
-1645.86
-1707.46
-1763.86
-1801.38
-1833.95
-1895.92
-1949.45
-1969.33
-1952.72
-1899.78
-1832.75
-1776.37
-1728.03
-1681.73
-1636.12
-1588.23
-1503.49
-1391.89
-1247.44
-1099.37
-920.435
-745.312
-524.906
-372.59
-406.031
-657.917
-657.92
-657.925
-657.921
-657.916
-657.912
-657.93
-657.998
-658.026
-657.876
-659.097
-661.093
-662.113
-661.425
-662.84
-665.283
-670.008
-672.903
-676.23
-682.254
-694.085
-708.066
-720.25
-738.068
-762.721
-793.835
-813.496
-824.424
-870.497
-955.099
-1085.48
-1224.65
-1363.54
-1494.69
-1602.92
-1685.16
-1741.79
-1792.87
-1821.96
-1821.84
-1874.43
-1933.96
-1963.23
-1953.27
-1902.59
-1834.04
-1775.95
-1718.95
-1662.12
-1624.23
-1585.15
-1523.22
-1419.21
-1251.28
-1084.98
-905.932
-758.027
-566.283
-427.234
-432.571
-657.919
-657.92
-657.931
-657.931
-657.937
-657.95
-657.996
-658.123
-658.371
-658.734
-659.922
-661.167
-662.155
-661.834
-663.781
-666.486
-670.614
-674.089
-678.117
-683.015
-690.2
-703.279
-719.281
-738.386
-762.799
-793.142
-815.677
-831.386
-876.433
-960.872
-1088.68
-1226.24
-1365.3
-1498.19
-1611.2
-1696.96
-1747.09
-1792.74
-1811.05
-1794.68
-1851.57
-1921.17
-1954.32
-1942.58
-1895.62
-1834.01
-1776.66
-1715.96
-1660.35
-1620.92
-1582.88
-1523.86
-1431.14
-1236.85
-1061.94
-878.186
-736.642
-509.984
-351.954
-126.026
-657.916
-657.899
-657.903
-657.908
-657.926
-657.958
-658.033
-658.207
-658.552
-659.147
-660.445
-661.716
-662.867
-663.233
-665.084
-667.703
-671.809
-675.442
-679.401
-684.613
-691.304
-701.94
-717.359
-735.992
-758.247
-785.109
-811.062
-837.118
-887.297
-971.401
-1090.65
-1223.67
-1359.47
-1488.61
-1599.53
-1686.35
-1742.36
-1790.22
-1818.15
-1820.85
-1866.66
-1919.58
-1944.7
-1933.76
-1892.45
-1836.05
-1778.14
-1718.28
-1661.35
-1618.53
-1580.09
-1519.99
-1421.64
-1254.96
-1079.49
-885.509
-736.101
-535.191
-372.56
-61.9856
-657.952
-657.945
-657.945
-657.942
-657.959
-657.996
-658.084
-658.286
-658.674
-659.354
-660.646
-661.896
-663.073
-663.74
-665.882
-668.72
-672.771
-676.927
-681.51
-686.742
-692.85
-702.97
-718.356
-736.066
-755.504
-778.372
-805.221
-839.641
-895.566
-980.447
-1093.12
-1221.41
-1354.03
-1480.71
-1589.18
-1671.91
-1727.42
-1773.77
-1799.73
-1813.56
-1859.2
-1910.85
-1937.73
-1929.68
-1891.1
-1836.68
-1778.7
-1719.38
-1662.56
-1617.83
-1576.15
-1512.9
-1407.39
-1239.78
-1065.66
-882.199
-724.154
-507.522
-342.034
-74.1069
-657.758
-657.85
-657.884
-657.895
-657.92
-657.962
-658.058
-658.27
-658.67
-659.384
-660.692
-662.032
-663.406
-664.261
-666.458
-669.372
-673.356
-677.49
-681.904
-687.089
-693.653
-704.125
-719.638
-737.61
-756.606
-777.944
-804.904
-842.537
-900.693
-986.098
-1095.84
-1221.21
-1351.38
-1475.82
-1581.8
-1662.27
-1718.71
-1765.47
-1792.58
-1814.37
-1860.45
-1909.17
-1933.84
-1925.24
-1888.08
-1835.46
-1777.72
-1718.77
-1663.21
-1618.09
-1574.47
-1509.94
-1405.13
-1246.44
-1077.03
-888.792
-725.32
-515.484
-350.3
-46.9097
-657.755
-657.854
-657.891
-657.899
-657.896
-657.867
-657.838
-657.953
-658.668
-660.908
-664.138
-666.735
-664.795
-663.109
-666.808
-669.458
-677.564
-677.388
-681.949
-687.37
-695.732
-706.773
-718.969
-735.894
-758.497
-781.388
-819.759
-908.033
-996.197
-1070.31
-1127.18
-1206.36
-1282.72
-1339.5
-1384.35
-1454.07
-1549.9
-1634.4
-1737.64
-1877.59
-1977.87
-2007.63
-1978.93
-1920.58
-1860.76
-1790.19
-1743.48
-1761.8
-1763.16
-1702.71
-1577.79
-1463.44
-1323.04
-1227.25
-1157.5
-992.728
-764.214
-680.072
-580.824
-267.111
-657.946
-657.947
-657.943
-657.931
-657.918
-657.889
-657.858
-657.952
-658.443
-659.761
-662.408
-666.538
-664.96
-664.582
-666.78
-668.939
-677.527
-678.271
-679.872
-685.819
-695.211
-707.02
-718.538
-735.267
-757.97
-780.23
-821.441
-916.618
-1000.69
-1072.51
-1121.23
-1197.48
-1278.67
-1339.04
-1380.77
-1450.53
-1550.33
-1634.64
-1734.28
-1880.08
-1986.61
-2020.13
-1993.87
-1936.77
-1873.42
-1790.79
-1736.78
-1761.23
-1764.2
-1695.88
-1562.36
-1461.71
-1327.2
-1237.52
-1163.84
-979.594
-765.482
-655.572
-565.604
-381.373
-657.911
-657.89
-657.885
-657.888
-657.897
-657.886
-657.856
-657.916
-657.784
-658.582
-660.616
-664.949
-664.389
-664.554
-666.244
-669.289
-680.395
-677.771
-680.608
-683.779
-694.729
-708.037
-719.162
-735.496
-757.874
-781.371
-817.182
-898.699
-987.592
-1068.35
-1126.15
-1207.99
-1291.06
-1360.88
-1419.28
-1491.94
-1580.16
-1657.86
-1745.23
-1867.06
-1964.55
-1998.56
-1978.41
-1928.79
-1871.38
-1800.38
-1748.54
-1759.51
-1747.71
-1690.05
-1578.19
-1468.5
-1346.5
-1251.17
-1159.13
-987.278
-742.873
-516.479
-500.331
-618.025
-657.915
-657.914
-657.92
-657.922
-657.923
-657.912
-657.882
-657.897
-657.459
-657.376
-658.803
-663.972
-664.197
-662.762
-664.405
-667.417
-676.159
-677.801
-677.731
-683.355
-693.621
-706.88
-718.403
-735.394
-759.049
-786.359
-815.388
-859.637
-926.584
-1011.28
-1104.12
-1211.46
-1318.16
-1415.79
-1501.73
-1582.54
-1654.36
-1716.29
-1772.51
-1842.54
-1919.84
-1968.87
-1976.8
-1948.96
-1897.47
-1830.56
-1776.4
-1738.67
-1692.97
-1630.2
-1578.39
-1499.87
-1388.47
-1263.91
-1134.33
-971.934
-798.804
-615.068
-530.885
-638.653
-657.914
-657.909
-657.905
-657.904
-657.913
-657.921
-657.905
-657.943
-657.754
-657.603
-658.794
-662.207
-663.214
-660.811
-662.222
-664.944
-672.258
-675.216
-679.468
-683.162
-693.628
-705.868
-717.556
-734.665
-759.187
-788.933
-810.274
-829.73
-877.358
-965.861
-1087.52
-1216.99
-1345.43
-1464.71
-1564.84
-1644.55
-1705.91
-1762.54
-1801.18
-1833.58
-1896.2
-1950.51
-1970.99
-1954.56
-1901.68
-1834.92
-1779.27
-1729.44
-1680.91
-1637.03
-1590.66
-1507.07
-1388.96
-1242.79
-1087.14
-899.057
-720.953
-493.862
-360.507
-381.281
-657.916
-657.908
-657.906
-657.907
-657.915
-657.934
-657.946
-658.015
-658.059
-657.975
-659.111
-661.095
-662.159
-661.221
-662.658
-665.262
-669.858
-672.5
-675.287
-680.945
-692.707
-706.931
-718.738
-736.584
-761.449
-792.748
-812.376
-823.693
-868.669
-952.869
-1083.29
-1222.42
-1361.44
-1493.26
-1601.46
-1683.03
-1739.02
-1789.48
-1820.38
-1821.08
-1874.27
-1934.21
-1964.18
-1954.74
-1904.21
-1835.75
-1777.4
-1718.72
-1661.03
-1624.96
-1586.15
-1524.66
-1417.44
-1249.05
-1076.74
-894.943
-752.364
-553.288
-417.242
-426.882
-657.919
-657.911
-657.918
-657.925
-657.933
-657.96
-658.001
-658.113
-658.346
-658.697
-659.852
-661.07
-662.012
-661.629
-663.618
-666.354
-670.61
-674.25
-678.33
-683.084
-689.397
-701.961
-717.917
-736.844
-761.307
-791.786
-814.728
-829.857
-874.355
-958.104
-1086.46
-1223.98
-1363.5
-1497.53
-1610.68
-1695.66
-1745.41
-1790.87
-1810.05
-1794.43
-1850.97
-1920.84
-1954.91
-1943.85
-1897.17
-1835.02
-1776.73
-1715.27
-1658.7
-1621.2
-1584.24
-1523.98
-1425.89
-1225.03
-1044.93
-856.316
-718.278
-466.859
-322.913
-130.606
-657.917
-657.889
-657.889
-657.901
-657.912
-657.952
-658.023
-658.181
-658.501
-659.079
-660.364
-661.63
-662.772
-663.059
-664.922
-667.669
-671.82
-675.426
-679.256
-684.5
-691.233
-701.757
-716.915
-735.2
-757.267
-783.963
-809.876
-836.078
-885.852
-969.698
-1089.04
-1221.79
-1357.6
-1487.49
-1598.92
-1685.41
-1741.01
-1788.26
-1815.71
-1819.3
-1865.77
-1919.52
-1945.07
-1934.68
-1893.57
-1836.95
-1778.76
-1718.1
-1659.71
-1618.46
-1581.2
-1519.83
-1417.28
-1248.91
-1067.7
-866.261
-721.138
-514.911
-370.572
-43.5172
-657.953
-657.94
-657.941
-657.943
-657.949
-657.986
-658.067
-658.24
-658.601
-659.25
-660.518
-661.755
-662.929
-663.614
-665.761
-668.691
-672.804
-677.056
-681.652
-686.859
-692.815
-702.814
-718.176
-735.673
-754.961
-777.738
-804.647
-839.362
-895.082
-979.707
-1092.36
-1220.36
-1352.81
-1479.75
-1588.38
-1670.84
-1726.22
-1772.32
-1798.13
-1812.29
-1858.13
-1910.41
-1937.86
-1930.26
-1891.71
-1837.12
-1779.01
-1719.28
-1661.14
-1617.66
-1577.34
-1512.84
-1401.93
-1229.75
-1053.54
-866.522
-711.235
-485.04
-336.724
-58.1483
-657.76
-657.844
-657.881
-657.899
-657.911
-657.956
-658.05
-658.241
-658.626
-659.316
-660.623
-661.973
-663.331
-664.224
-666.461
-669.469
-673.528
-677.706
-682.077
-687.201
-693.753
-704.238
-719.875
-737.741
-756.601
-777.867
-804.942
-842.962
-901.124
-986.422
-1096.25
-1221.49
-1351.54
-1476.03
-1581.64
-1661.79
-1718.26
-1764.97
-1792.03
-1814.13
-1860.16
-1909.14
-1933.92
-1925.22
-1887.75
-1834.72
-1777.01
-1718.17
-1661.63
-1617.49
-1575.56
-1509.92
-1400.44
-1238.14
-1065.82
-873.135
-713.814
-498.686
-351.359
-22.949
)
;

boundaryField
{
    wall
    {
        type            fixedFluxPressure;
        gradient        nonuniform List<scalar> 
1200
(
-0.558049
-0.197698
-0.178137
-0.252686
-0.372955
-0.310367
-0.0881464
0.114956
0.143117
0.247317
-1.72182
-1.43648
-2.78193
-2.30011
-2.64156
-2.45249
-1.87921
-1.91352
-0.998805
-1.14331
-2.59592
-2.69317
-4.79135
-3.33949
-4.28888
-3.9188
-2.56976
-2.77694
-0.918665
-0.634398
-0.993683
-1.89261
-3.39662
-1.767
-2.99868
-2.7286
-1.27012
-1.46306
0.141358
0.694174
3.47072
2.9697
3.01369
3.4805
1.6827
-0.286072
-0.855091
-2.7132
-2.024
-1.72401
7.42661
8.49702
10.0804
9.05138
7.63897
4.48203
1.97995
-1.19365
-1.90905
-1.25373
8.48645
13.4553
14.1049
10.554
7.03176
3.29322
1.01988
-1.86992
-3.26902
-1.58933
23.9367
43.8853
37.652
26.3664
12.3557
3.38719
-2.08051
-5.43006
-9.12769
-5.96387
19.6949
91.9241
69.2224
63.3087
17.872
4.62349
-5.98809
-10.3583
-14.7938
-8.9356
2.89251
200.455
103.608
120.012
27.6896
15.3095
-10.0744
-14.2875
-20.657
-13.6135
-55.8611
193.677
90.3045
54.6468
4.45801
-1.19441
-16.8088
-16.3511
-24.7845
-13.7386
-46.1343
143.019
103.261
20.2969
-5.35239
-2.31921
-22.9578
-15.9125
-26.7116
-11.778
-34.0077
57.1781
2.16336
-23.3089
-29.0068
7.80202
-34.0706
-11.8384
-26.2515
-15.3166
-12.2401
179.153
101.514
-32.6449
-75.3218
-39.698
-44.2843
-24.2273
-23.1804
-7.60067
34.5739
149.204
17.4214
-95.9667
-114.979
-34.2375
-29.8955
-20.0166
-23.1279
0.391157
14.213
129.813
19.1978
-113.279
-108.165
1.07712
-25.6623
-4.4142
-6.95199
18.5046
3.73367
118.464
55.4372
-131.53
-48.6591
-22.9833
2.09072
-0.125666
3.34991
32.4204
-6.026
214.951
73.3913
18.1009
-18.7387
-76.2023
36.5171
-5.05919
20.1076
40.6015
-15.079
366.857
147.366
-108.801
-65.5644
-185.413
48.9357
-30.1428
21.3893
31.9231
-62.4859
405.911
172.806
-25.1998
-375.63
-257.863
22.9332
-25.0563
18.0877
19.7279
-41.3707
420.148
143.824
-56.5036
-249.844
-281.497
-150.899
-12.1035
-7.86375
17.9968
19.8081
366.513
92.006
-53.3822
-243.273
-234.797
-261.221
-28.3985
-30.7954
22.3935
45.9116
237.565
43.2416
-71.8415
-187.818
-296.082
-275.026
-81.2705
-33.9599
49.742
33.376
26.8589
-35.3133
-107.995
-203.664
-294.29
-313.99
-152.226
-70.6217
33.0525
24.067
-13.2208
-84.8431
-129.8
-185.967
-258.025
-307.414
-192.471
-94.0317
13.0486
9.09447
-8.59923
-108.919
-127.815
-188.001
-236.525
-290.625
-230.708
-111.221
5.50233
-203.185
-301.236
-214.895
-169.104
-190.508
-241.351
-224.009
-243.809
-104.841
27.5937
-384.667
-371.616
-425.722
-221.943
-196.747
-169.157
-260.039
-207.428
-51.5351
97.941
-229.087
-243.6
-592.16
-306.099
-341.829
-385.891
-363.077
-286.334
-94.8296
96.1151
-166.757
-64.6465
-410.78
-360.728
-465.217
-448.327
-516.719
-335.953
-143.514
73.7304
-126.154
102.179
-111.703
-264.852
-330.829
-416.025
-439.613
-319.65
-143.912
94.9802
-17.5962
169.193
7.20529
-196.341
-283.897
-412.184
-458.513
-380.821
-201.354
73.7438
-74.7413
77.1771
-88.752
-215.265
-309.539
-370.597
-384.26
-378.374
-237.246
52.0452
-194.223
-152.503
-107.77
-244.081
-258.407
-240.597
-150.882
-220.432
-184.164
60.7613
-272.234
-349.432
-129.828
-179.631
-192.087
-262.371
-88.8989
-110.375
-148.864
-14.9468
-397.588
-442.846
-287.516
-105.17
-261.898
-405.316
-221.827
-192.272
-193.283
-82.8575
-466.982
-322.552
-281.322
-104.983
-311.74
-527.667
-316.943
-292.168
-213.52
-79.4766
-612.587
-340.603
-248.142
-101.339
-260.377
-639.13
-407.222
-433.227
-271.988
-89.2898
-739.807
-622.652
-294.999
-14.8152
-56.4381
-282.366
-308.205
-552.541
-300.836
-89.562
-728.806
-720.71
-458.755
-42.7436
-92.0815
-135.771
-159.183
-292.196
-230.207
-35.2896
-549.14
-393.549
-273.082
-30.4243
40.5555
-15.5378
-167.683
-168.274
-205.773
-47.4938
-496.816
-433.269
-371.706
-22.1572
191.114
57.8537
-30.9238
-23.8712
-89.3652
3.46
-712.879
-356.445
-953.956
-75.5695
327.535
204.885
154.024
64.5632
25.012
26.6325
-595.384
-416.284
-763.029
46.7566
399.485
326.75
264.111
190.817
118.83
-0.602766
-463.279
-470.098
-356.751
277.735
381.712
349.73
311.554
237.611
132.284
-67.7214
-260.088
-525.196
78.195
547.558
427.885
321.167
200.22
197.597
101.789
-154.843
-203.866
-100.725
50.0026
771.567
584.854
275.409
-0.842514
137.128
81.4963
-147.127
-247.031
-84.9661
-139.471
1134.7
271.524
-26.1859
-195.603
-20.9249
4.63712
-123.333
-827.319
-1436.17
-1119.64
915.906
-203.685
-199.359
-338.461
-319.881
-249.076
-316.078
-685.467
-1132
-616.837
1157.41
145.268
167.048
83.5495
4.09785
0.853431
-121.355
-325.707
-990.589
785.369
1200.33
465.087
233.935
286.522
217.799
268.638
219.623
334.174
710.344
996.706
1773.08
768.474
248.023
14.648
-58.6614
17.7137
-1.181
-595.581
-143.269
112.128
1184.93
-544.029
-366.64
-1396.7
-911.594
-1057.26
-936.53
-302.208
-431.478
-108.746
465.947
-896.603
-450.106
-2318.6
-1243.36
-1959.87
-1656.09
-247.652
-658.675
-544.658
-804.959
-2451.21
-1653.8
-3377.34
-2367.3
-2361
-2245.45
-1541.28
-3171.46
-2685.96
-1849.68
-4239.35
-2158.99
-4332.51
-3821.22
-3054.96
-3114.13
-787.741
-1593.91
-2436.36
-3050.22
-4750.88
-1079.05
-3649.38
-2960.15
-2502.34
-2281.39
4569.92
3510.22
-1325.03
-2398.03
-5954.41
-2602.43
-8521.75
-4017.12
-4372.12
-3318.31
6423.18
3512.26
853.095
-1455.46
-1915.59
-2058.19
-5593.31
-485.855
-975.049
224.105
-3817.5
-1027.87
-6572.55
-5758.77
-4662.96
-1312.48
1153.98
-3770.59
-3173.57
-4713.75
0.55803
0.197686
0.178126
0.252679
0.372949
0.31036
0.0881414
-0.11496
-0.143132
-0.247331
1.72246
1.4367
2.78215
2.30003
2.64123
2.4521
1.87893
1.91336
0.998659
1.14398
2.59808
2.69376
4.79168
3.33789
4.2863
3.91654
2.56828
2.77629
0.918051
0.636774
0.997045
1.89137
3.39262
1.76055
2.98975
2.7212
1.26659
1.46327
-0.141822
-0.690487
-3.4706
-2.97441
-3.01994
-3.48926
-1.69925
0.270871
0.849662
2.71643
2.02485
1.72818
-7.42986
-8.50079
-10.0813
-9.0573
-7.65306
-4.49967
-1.98723
1.19481
1.91033
1.25847
-8.4867
-13.455
-14.1045
-10.5556
-7.03145
-3.29951
-1.02631
1.8635
3.26489
1.58977
-23.9372
-43.8971
-37.7072
-26.3908
-12.3588
-3.38404
2.07512
5.41388
9.11251
5.95618
-19.7711
-92.2589
-70.0719
-64.0372
-18.0833
-4.65973
5.98422
10.3279
14.7499
8.90314
-3.15069
-201.333
-104.447
-120.624
-28.0637
-15.4844
10.0589
14.2785
20.6123
13.5417
55.621
-193.077
-89.2348
-53.5517
-4.07802
1.22359
16.7863
16.4109
24.7791
13.6513
46.1272
-142.636
-101.091
-18.7757
6.1462
2.52171
23.0319
15.9365
26.7284
11.7349
33.7816
-57.3388
-1.95909
23.9985
29.7087
-7.41592
34.0413
11.8892
26.2903
15.3354
12.18
-179.574
-101.517
31.189
74.1376
36.8409
44.1916
24.275
23.0864
7.51244
-34.7591
-149.749
-17.0513
95.69
109.131
33.1677
28.8079
19.8953
22.4844
-0.48944
-14.2422
-129.935
-18.8248
114.157
108.377
-3.09524
25.9147
4.01431
5.3284
-18.5825
-3.82826
-118.037
-55.5403
132.029
49.0379
23.6708
-0.249963
-2.03921
-4.63623
-32.3876
5.98712
-213.9
-73.5986
-19.5487
18.4804
76.8338
-34.3041
5.71205
-20.4695
-40.177
14.7565
-366.487
-147.785
107.571
65.6003
185.697
-44.5952
34.2615
-20.9223
-30.7911
62.4215
-404.777
-172.682
26.1745
374.859
258.585
-17.0243
30.411
-16.6248
-18.2861
41.6949
-418.333
-143.222
59.2044
249.153
278.805
155.349
16.0503
9.51869
-16.8599
-19.3006
-365.676
-91.3872
57.1945
243.167
232.375
260.19
30.2063
30.5805
-21.6967
-45.254
-237.077
-41.9249
77.1568
188.533
294.574
271.543
81.3623
32.7989
-50.0372
-33.0325
-26.553
37.6126
114.981
205.308
292.585
308.627
151.783
70.2319
-34.7366
-23.986
13.6045
87.9892
138.191
188.272
256.041
302.264
192.68
94.5116
-18.4863
-9.01548
9.21108
112.69
137.246
189.663
234.911
286.159
231.98
112.556
-15.5844
203.367
302.357
218.582
179.931
191.695
240.707
229.233
246.155
107.372
-39.3613
386.744
373.867
428.723
234.061
201.612
171.367
259.081
207.947
55.4907
-105.568
236.852
241.427
602.587
319.358
352.603
387.521
359.773
282.549
100.237
-95.7643
173.259
50.7939
418.731
374.38
479.704
453.025
508.739
327.885
149.559
-67.7602
130.546
-111.134
115.394
278.363
347.629
421.507
426.147
306.969
149.119
-86.9799
18.1603
-169.789
-6.98826
208.761
302.421
418.463
438.67
360.897
205.273
-66.4968
73.6853
-77.7325
85.7155
226.13
326.956
377.048
354.146
355.829
241.53
-45.3805
192.986
150.911
102.935
257.719
269.219
244.79
125.546
206.466
192.334
-54.3186
270.394
347.05
122.148
196.91
195.737
259.489
87.7942
107.032
163.205
18.2361
397.613
443.391
277.817
120.475
260.683
396.104
220.473
200.396
215.497
77.4043
466.519
324.703
271.12
116.725
305.264
518.018
309.077
301.93
239.651
67.7299
612.719
342.331
240.735
109.926
246.823
633.505
370.303
431.034
293.692
80.7763
740.534
624.165
290.51
21.5989
33.6189
273.671
231.882
570.766
317.278
87.4774
728.639
722.825
447.801
52.9034
55.6804
131.741
151.301
326.869
233.031
40.6943
548.859
394.771
244.362
44.5348
-102.481
12.008
165.574
173.9
190.071
61.0474
475.734
430.407
340.269
36.3972
-285.42
-66.3147
30.8801
1.05172
74.1191
13.3689
674.149
350.218
934.064
85.0757
-433.402
-217.981
-153.189
-83.1189
-25.9831
-11.1503
551.814
411.342
750.195
-46.6189
-464.896
-332.328
-263.343
-187.644
-103.291
12.076
446.341
469.508
359.605
-298.568
-397.023
-354.583
-312.559
-222.887
-108.158
74.357
271.193
540.977
-55.6546
-608.509
-436.451
-334.317
-201.945
-180.865
-79.2868
157.437
226.802
125.596
-36.105
-899.017
-586.002
-275.055
-1.24101
-122.501
-62.9296
146.923
266.887
107.708
139.704
-1355.82
-272.591
28.1483
193.929
35.3185
13.6599
122.504
834.915
1426.71
1133.6
-1194.63
202.692
201.568
338.447
333.553
274.865
316.492
698.053
1132.52
625.21
-1303.33
-146.364
-160.988
-91.8535
14.3932
26.7792
123.029
341.723
1010.15
-779.838
-1255.51
-461.781
-228.908
-289.821
-202.923
-240.552
-217.135
-318.984
-706.721
-1004.89
-1775.76
-758.606
-244.296
-16.0321
68.3155
11.7193
5.27225
612.463
141.574
-138.614
-1183.47
559.238
372.739
1398.8
922.947
1089.12
943.642
331.941
426.707
39.2614
-462.105
915.807
457.941
2335.88
1272.61
1992.96
1668.42
280.75
656.272
437.056
810.1
2475
1668.62
3409.86
2411.23
2400.43
2262.38
1567.7
3177.48
2435.78
1850.08
4290.18
2210.19
4382.1
3889.83
3119.11
3131.38
802.768
1625.72
1856.79
3032.62
4836.43
1175.87
3713.1
3048.72
2577.74
2309.09
-4596.68
-3491
166.566
2354.69
6062.08
2714.76
8587.66
4105.25
4443.5
3357.55
-6568.95
-3661.99
-1366.28
1464.82
2009.12
2145.61
5613.52
550.891
1065.4
-170.004
3787.68
990.743
6584.11
5831.11
4727.15
1364.85
-1144.39
3814.32
3290.86
4758.51
)
;
        value           nonuniform List<scalar> 
1200
(
-657.759
-657.947
-657.912
-657.917
-657.917
-657.918
-657.919
-657.916
-657.952
-657.758
-657.867
-657.958
-657.911
-657.931
-657.928
-657.926
-657.925
-657.904
-657.948
-657.852
-657.91
-657.963
-657.921
-657.945
-657.937
-657.935
-657.937
-657.909
-657.947
-657.886
-657.906
-657.945
-657.914
-657.935
-657.927
-657.927
-657.935
-657.912
-657.942
-657.894
-657.87
-657.896
-657.875
-657.896
-657.901
-657.917
-657.939
-657.933
-657.964
-657.924
-657.811
-657.825
-657.811
-657.845
-657.864
-657.901
-657.945
-657.961
-658.001
-657.965
-657.774
-657.757
-657.75
-657.803
-657.852
-657.921
-657.994
-658.037
-658.092
-658.062
-657.773
-657.623
-657.631
-657.697
-657.849
-657.99
-658.128
-658.221
-658.309
-658.285
-658.521
-657.748
-657.243
-656.958
-657.6
-658.014
-658.386
-658.578
-658.712
-658.693
-660.898
-658.247
-657.786
-656.455
-657.369
-657.838
-658.759
-659.183
-659.406
-659.418
-664.585
-660.95
-659.926
-658.375
-658.744
-659.1
-659.963
-660.486
-660.708
-660.726
-667.089
-665.479
-664.193
-663.828
-662.242
-661.1
-661.226
-661.755
-661.962
-662.062
-665.045
-664.532
-664.383
-664.4
-663.436
-662.09
-662.238
-662.893
-663.137
-663.445
-663.182
-663.265
-663.774
-663.003
-661.401
-661.529
-661.946
-663.293
-663.794
-664.281
-666.544
-665.655
-666.108
-665.119
-663.079
-662.926
-663.857
-665.14
-665.936
-666.457
-669.345
-667.955
-669.148
-668.264
-665.76
-665.271
-666.553
-667.715
-668.734
-669.326
-677.542
-676.625
-679.998
-677.14
-672.627
-670.053
-670.604
-671.805
-672.759
-673.276
-677.427
-676.698
-677.205
-677.713
-675.362
-673.086
-673.989
-675.451
-676.876
-677.39
-682.081
-677.075
-679.516
-678.547
-679.947
-676.684
-677.984
-679.477
-681.457
-681.827
-687.858
-682.771
-682.437
-683.527
-686.032
-682.887
-682.94
-684.679
-686.699
-687.042
-696.056
-692.062
-693.656
-694.037
-695.522
-694.805
-690.568
-691.326
-692.871
-693.607
-706.63
-704.273
-707.36
-707.29
-707.691
-708.683
-703.933
-701.992
-703.039
-704.066
-718.632
-716.743
-718.847
-718.948
-718.958
-720.995
-719.979
-717.543
-718.418
-719.506
-735.652
-735.056
-735.767
-736.218
-736.187
-738.808
-739.189
-736.358
-736.209
-737.51
-758.33
-758.078
-758.516
-760.043
-760.572
-763.372
-763.602
-758.723
-755.699
-756.537
-781.32
-780.307
-782.192
-787.344
-790.342
-794.47
-793.934
-785.693
-778.615
-777.876
-821.2
-823.687
-818.773
-816.672
-811.714
-814.121
-816.353
-811.691
-805.461
-804.778
-910.799
-919.557
-901.858
-861.266
-831.135
-824.893
-831.988
-837.653
-839.759
-842.246
-997.878
-1002.67
-992.092
-928.892
-879.805
-871.458
-877.277
-888.019
-895.793
-900.415
-1071.6
-1073.01
-1071.69
-1013.96
-969.275
-956.21
-962.095
-972.248
-980.805
-985.884
-1128.13
-1120.33
-1126.95
-1106.04
-1090.02
-1086.49
-1089.74
-1091.44
-1093.48
-1095.57
-1206.49
-1196.07
-1207.88
-1212.88
-1219.17
-1225.59
-1227.35
-1224.6
-1221.91
-1220.99
-1283.26
-1278.07
-1291.61
-1319.75
-1347.81
-1364.35
-1366.25
-1360.36
-1354.62
-1351.22
-1340.95
-1340.19
-1361.54
-1417.61
-1466.71
-1495.2
-1498.57
-1489.1
-1481.16
-1475.65
-1386.39
-1383.2
-1420.2
-1503.17
-1566.32
-1603.5
-1611.4
-1599.81
-1589.55
-1581.82
-1457.06
-1453.53
-1494.09
-1583.58
-1646.49
-1686.07
-1697.47
-1686.92
-1672.39
-1662.44
-1553.4
-1552.56
-1582.17
-1655.41
-1708.22
-1742.97
-1747.88
-1743.21
-1727.97
-1718.85
-1638.95
-1637.06
-1659.62
-1717.23
-1764.5
-1794.3
-1793.83
-1791.45
-1774.48
-1765.65
-1743.13
-1738.81
-1747.38
-1772.69
-1801.55
-1822.62
-1811.82
-1819.56
-1800.49
-1792.77
-1883.06
-1885.55
-1870.4
-1842.84
-1834.22
-1822.13
-1795.22
-1821.59
-1814.11
-1814.45
-1982
-1989.76
-1966.5
-1920.01
-1895.92
-1874.45
-1851.95
-1867.1
-1859.68
-1860.58
-2011.37
-2023.53
-2001.05
-1969.07
-1949.11
-1933.81
-1921.16
-1919.62
-1911.04
-1909.19
-1984.14
-1996.6
-1985.14
-1977.49
-1968.64
-1962.69
-1953.9
-1944.5
-1937.66
-1933.79
-1924.87
-1939.75
-1934.21
-1948.75
-1951.77
-1952.41
-1941.96
-1933.27
-1929.4
-1925.27
-1864.17
-1876.66
-1873.69
-1895.61
-1898.81
-1901.67
-1894.93
-1891.87
-1890.8
-1888.27
-1792.2
-1794.63
-1799.42
-1826.72
-1831.67
-1833.22
-1833.55
-1835.57
-1836.46
-1835.87
-1745.13
-1737.87
-1747.67
-1770.87
-1774.88
-1775.25
-1776.75
-1777.8
-1778.5
-1778.09
-1763.7
-1761.97
-1760.51
-1729.88
-1727.36
-1719.07
-1716.48
-1718.33
-1719.35
-1719.08
-1769.33
-1774.12
-1756.76
-1685.56
-1682.27
-1662.57
-1661.2
-1662.18
-1663.16
-1664
-1707.84
-1704.41
-1695.16
-1621.25
-1635.78
-1623.75
-1620.74
-1618.56
-1617.81
-1618.4
-1580.29
-1570.14
-1572.35
-1569.33
-1587.14
-1584.55
-1582.17
-1579.57
-1575.45
-1573.92
-1461.01
-1456.71
-1460.93
-1486.56
-1501.53
-1522.65
-1523.83
-1520.17
-1512.82
-1509.93
-1327.52
-1328.15
-1346.08
-1379.49
-1393.05
-1420.13
-1434.66
-1424.02
-1410.05
-1407.47
-1229.63
-1240.8
-1252.29
-1260.37
-1249.5
-1252.4
-1242.61
-1258.22
-1244.71
-1250.58
-1159.43
-1168.46
-1163.29
-1140.21
-1105.43
-1089.11
-1070.29
-1085.64
-1071.59
-1082.68
-1004.43
-1002.72
-1007.12
-985.641
-930.938
-911.337
-888.865
-895.157
-889.856
-896.562
-770.951
-777.992
-760.143
-821.481
-756.981
-760.899
-745.752
-743.629
-730.414
-731.028
-645.902
-630.738
-523.893
-632.719
-539.223
-573.403
-531.051
-545.372
-518.307
-523.77
-533.249
-539.993
-492.728
-540.015
-376.309
-433.462
-365.769
-374.146
-344.473
-349.858
-295.792
-391.266
-665.006
-679.208
-417.566
-436.693
-122.776
-71.4321
-82.1008
-58.5406
-657.753
-657.945
-657.91
-657.914
-657.913
-657.915
-657.919
-657.917
-657.953
-657.76
-657.85
-657.943
-657.883
-657.908
-657.902
-657.902
-657.906
-657.884
-657.938
-657.841
-657.884
-657.936
-657.873
-657.912
-657.894
-657.896
-657.912
-657.882
-657.938
-657.88
-657.896
-657.927
-657.88
-657.917
-657.897
-657.9
-657.922
-657.897
-657.943
-657.9
-657.904
-657.925
-657.905
-657.931
-657.917
-657.914
-657.931
-657.905
-657.944
-657.907
-657.886
-657.91
-657.911
-657.935
-657.94
-657.946
-657.965
-657.949
-657.982
-657.953
-657.859
-657.892
-657.891
-657.908
-657.923
-657.954
-658.004
-658.019
-658.059
-658.046
-658.013
-658.062
-658.012
-657.964
-657.974
-658.024
-658.107
-658.167
-658.217
-658.226
-658.717
-658.677
-657.962
-657.622
-657.8
-658.071
-658.331
-658.475
-658.564
-658.604
-660.916
-660.269
-658.843
-657.675
-657.672
-658.014
-658.671
-659.043
-659.199
-659.282
-663.991
-662.888
-660.844
-658.929
-658.802
-659.107
-659.811
-660.323
-660.456
-660.589
-666.621
-666.901
-665.207
-664.029
-662.193
-661.087
-661.011
-661.591
-661.689
-661.944
-664.716
-665.112
-664.385
-664.125
-663.138
-662.181
-661.929
-662.746
-662.865
-663.291
-663.071
-665.038
-664.815
-662.665
-660.624
-661.124
-661.517
-662.999
-663.561
-664.205
-666.896
-667.152
-666.276
-664.168
-661.942
-662.573
-663.545
-664.868
-665.709
-666.462
-669.49
-669.258
-669.335
-667.134
-664.682
-665.279
-666.287
-667.662
-668.682
-669.515
-677.578
-677.84
-680.52
-675.811
-672.139
-669.811
-670.615
-671.828
-672.818
-673.608
-677.368
-678.833
-677.962
-677.75
-675.17
-672.316
-674.344
-675.414
-677.108
-677.805
-681.917
-680.791
-680.946
-677.444
-679.293
-674.834
-678.451
-679.171
-681.704
-682.153
-687.216
-686.826
-684.196
-683.289
-682.195
-680.31
-683.145
-684.423
-686.9
-687.247
-695.631
-696.255
-695.08
-693.466
-693
-691.993
-689.018
-691.201
-692.791
-693.796
-706.82
-707.935
-708.267
-706.732
-705.255
-706.323
-701.31
-701.701
-702.744
-704.295
-719.083
-719.129
-719.269
-718.205
-717.071
-717.997
-717.228
-716.73
-718.114
-720.007
-735.981
-735.334
-735.402
-735.102
-734.135
-735.847
-736.056
-734.835
-735.529
-737.844
-758.561
-757.944
-757.656
-758.699
-758.705
-760.803
-760.519
-756.792
-754.763
-756.682
-781.399
-780.22
-781.097
-786.012
-788.451
-792.116
-791.008
-783.377
-777.489
-777.952
-819.235
-820.771
-816.661
-814.942
-809.755
-811.752
-814.046
-809.244
-804.4
-805.084
-907.09
-915.779
-897.734
-859.043
-829.147
-823.214
-829.259
-835.546
-839.233
-843.258
-995.651
-1000.05
-986.3
-925.795
-876.41
-867.7
-873.529
-885.14
-894.84
-901.395
-1069.95
-1072.33
-1067.31
-1010.33
-964.611
-951.746
-956.901
-968.864
-979.333
-986.621
-1126.89
-1121.4
-1125.84
-1103.41
-1086.64
-1082.27
-1085.42
-1088.27
-1091.99
-1096.5
-1206.34
-1197.84
-1207.97
-1210.92
-1216.26
-1221.46
-1222.9
-1220.9
-1219.85
-1221.69
-1282.54
-1278.8
-1290.76
-1317.59
-1344.66
-1360.62
-1362.6
-1356.76
-1352.2
-1351.68
-1339.02
-1338.48
-1360.57
-1415.2
-1464.07
-1492.75
-1497.21