/*--------------------------------*- C++ -*----------------------------------*\
  =========                 |
  \\      /  F ield         | OpenFOAM: The Open Source CFD Toolbox
   \\    /   O peration     | Website:  https://openfoam.org
    \\  /    A nd           | Version:  8
     \\/     M anipulation  |
\*---------------------------------------------------------------------------*/
FoamFile
{
    version     2.0;
    format      ascii;
    class       volScalarField;
    location    "600";
    object      T;
}
// * * * * * * * * * * * * * * * * * * * * * * * * * * * * * * * * * * * * * //

dimensions      [0 0 0 1 0 0 0];

internalField   nonuniform List<scalar> 
1200
(
303.143
303.135
303.127
303.119
303.111
303.103
303.096
303.087
302.944
301.852
300.847
300.677
300.36
299.815
299.274
299.082
298.879
298.212
297.395
296.576
295.824
295.259
294.891
294.688
294.611
294.659
294.813
295.024
295.299
295.501
295.617
295.721
296.059
296.582
297.03
297.256
297.315
297.352
297.443
297.493
297.435
297.333
297.235
297.276
297.493
297.78
298.038
298.191
298.255
298.292
298.378
298.473
298.593
298.719
298.805
298.87
298.893
298.93
299.034
299.193
303.15
303.15
303.149
303.149
303.148
303.146
303.145
303.131
302.017
297.745
294.472
294.125
293.927
293.612
293.423
293.352
293.361
293.296
293.262
293.218
293.575
294.342
295.126
295.895
296.603
297.245
297.893
298.368
298.68
298.794
298.946
299.087
299.259
299.422
299.554
299.62
299.606
299.593
299.639
299.64
299.553
299.065
298.687
298.732
299.111
299.374
299.49
299.565
299.569
299.661
299.728
299.734
299.788
299.834
299.783
299.807
299.86
299.918
299.905
299.88
303.15
303.15
303.15
303.15
303.15
303.15
303.149
303.003
299.783
296.028
294.153
293.826
293.878
293.736
293.389
293.195
293.177
293.352
293.666
293.417
296.358
299.228
299.645
299.723
299.754
299.773
299.786
299.794
299.809
299.823
299.841
299.859
299.878
299.897
299.906
299.909
299.912
299.916
299.92
299.92
299.92
299.92
299.919
299.914
299.908
299.905
299.908
299.91
299.912
299.915
299.927
299.943
299.955
299.959
299.962
299.967
299.98
299.993
299.998
299.999
303.15
303.15
303.15
303.15
303.15
303.15
303.15
303.073
300.316
296.258
294.398
293.95
294.063
293.894
293.465
293.202
293.282
293.654
295.077
298.815
299.498
299.74
299.77
299.789
299.804
299.818
299.831
299.843
299.856
299.87
299.884
299.898
299.91
299.921
299.93
299.937
299.944
299.949
299.954
299.957
299.96
299.962
299.963
299.964
299.965
299.967
299.97
299.973
299.977
299.98
299.983
299.987
299.99
299.991
299.991
299.992
299.995
299.998
300
300
303.15
303.15
303.15
303.15
303.15
303.15
303.15
303.125
301.759
298.224
295.85
295.037
294.884
294.591
294
293.338
293.344
293.494
293.88
295.294
298.067
299.61
299.768
299.79
299.805
299.817
299.829
299.84
299.851
299.863
299.874
299.886
299.898
299.908
299.918
299.927
299.936
299.945
299.953
299.96
299.965
299.97
299.974
299.977
299.979
299.981
299.984
299.987
299.99
299.991
299.992
299.995
299.996
299.997
299.998
299.998
299.999
300
300
300
303.15
303.15
303.15
303.15
303.15
303.15
303.15
303.144
302.629
300.404
298.273
297.274
296.717
296.171
295.442
294.807
294.639
294.161
293.572
293.503
295.033
297.251
298.517
299.165
299.524
299.703
299.786
299.822
299.843
299.851
299.857
299.865
299.872
299.879
299.886
299.893
299.899
299.906
299.915
299.926
299.937
299.946
299.954
299.957
299.949
299.939
299.947
299.957
299.968
299.976
299.979
299.981
299.988
299.994
299.998
299.999
299.999
300
300
300
303.15
303.15
303.15
303.15
303.15
303.15
303.15
303.149
303
302.015
300.727
299.978
299.515
298.703
297.883
297.067
296.652
296.372
296.155
295.994
295.518
295.519
296.222
297.066
297.809
298.349
298.717
299.006
299.225
299.413
299.561
299.652
299.708
299.736
299.75
299.759
299.77
299.79
299.813
299.859
299.873
299.875
299.873
299.871
299.872
299.876
299.88
299.873
299.886
299.914
299.921
299.887
299.912
299.944
299.964
299.975
299.979
299.98
299.992
299.999
303.15
303.15
303.15
303.15
303.15
303.15
303.15
303.15
303.115
302.801
302.301
301.94
301.765
301.142
300.38
299.747
299.387
299.079
298.788
298.525
298.02
297.155
296.508
296.36
296.564
296.897
297.229
297.544
297.849
298.127
298.339
298.477
298.591
298.712
298.85
299.01
299.176
299.296
299.387
299.448
299.467
299.465
299.454
299.443
299.417
299.389
299.37
299.38
299.408
299.446
299.472
299.492
299.541
299.613
299.692
299.806
299.88
299.898
299.9
299.918
303.15
303.15
303.149
303.149
303.149
303.148
303.148
303.148
303.141
303.065
302.918
302.792
302.687
302.448
302.082
301.749
301.569
301.439
301.28
301.048
300.58
299.82
298.965
298.232
297.733
297.452
297.329
297.31
297.36
297.448
297.54
297.614
297.683
297.758
297.85
297.967
298.087
298.172
298.232
298.267
298.263
298.241
298.217
298.192
298.174
298.162
298.158
298.177
298.238
298.317
298.388
298.451
298.542
298.662
298.757
298.918
299.136
299.313
299.419
299.476
303.142
303.134
303.127
303.119
303.111
303.104
303.099
303.094
303.092
303.083
303.058
303.032
303.006
302.948
302.851
302.755
302.692
302.631
302.56
302.472
302.305
302.006
301.59
301.131
300.711
300.342
300.009
299.719
299.483
299.292
299.129
298.994
298.888
298.813
298.755
298.692
298.628
298.572
298.526
298.492
298.469
298.453
298.44
298.426
298.408
298.386
298.361
298.332
298.302
298.274
298.251
298.231
298.215
298.198
298.177
298.191
298.259
298.348
298.431
298.496
303.143
303.135
303.127
303.119
303.111
303.103
303.096
303.087
302.951
301.874
300.862
300.687
300.379
299.841
299.275
299.071
298.887
298.23
297.413
296.593
295.838
295.276
294.911
294.713
294.639
294.686
294.838
295.025
295.303
295.532
295.693
295.759
295.985
296.433
296.924
297.24
297.367
297.435
297.55
297.616
297.516
297.342
297.221
297.322
297.598
297.893
298.118
298.221
298.252
298.299
298.4
298.5
298.618
298.738
298.819
298.874
298.894
298.941
299.019
299.164
303.15
303.15
303.149
303.149
303.148
303.146
303.145
303.132
302.058
297.807
294.495
294.128
293.941
293.614
293.426
293.355
293.375
293.3
293.265
293.22
293.586
294.367
295.158
295.928
296.632
297.269
297.942
298.488
298.772
298.806
298.91
299.061
299.237
299.406
299.544
299.616
299.613
299.604
299.652
299.668
299.582
299.126
298.774
298.981
299.286
299.447
299.515
299.594
299.564
299.665
299.731
299.731
299.788
299.835
299.788
299.806
299.861
299.918
299.904
299.873
303.15
303.15
303.15
303.15
303.15
303.15
303.149
303.022
299.898
296.1
294.176
293.83
293.878
293.731
293.386
293.193
293.176
293.371
293.679
293.425
296.373
299.24
299.648
299.725
299.755
299.774
299.788
299.797
299.811
299.824
299.833
299.85
299.87
299.891
299.904
299.91
299.912
299.917
299.92
299.921
299.92
299.92
299.918
299.913
299.907
299.905
299.908
299.911
299.913
299.916
299.927
299.943
299.955
299.96
299.963
299.968
299.981
299.993
299.999
299.999
303.15
303.15
303.15
303.15
303.15
303.15
303.15
303.082
300.421
296.337
294.429
293.959
294.062
293.889
293.462
293.202
293.28
293.644
295.023
298.845
299.527
299.744
299.773
299.791
299.807
299.821
299.833
299.846
299.859
299.872
299.885
299.899
299.911
299.922
299.931
299.938
299.945
299.95
299.954
299.957
299.96
299.962
299.963
299.964
299.966
299.968
299.971
299.974
299.978
299.981
299.983
299.987
299.99
299.991
299.991
299.992
299.995
299.999
300
300
303.15
303.15
303.15
303.15
303.15
303.15
303.15
303.129
301.823
298.303
295.895
295.058
294.893
294.571
293.993
293.336
293.343
293.491
293.869
295.253
298.001
299.59
299.769
299.792
299.806
299.819
299.831
299.842
299.853
299.865
299.877
299.889
299.9
299.91
299.92
299.929
299.938
299.946
299.953
299.96
299.966
299.971
299.974
299.977
299.978
299.979
299.982
299.986
299.99
299.991
299.992
299.994
299.996
299.997
299.998
299.998
299.999
300
300
300
303.15
303.15
303.15
303.15
303.15
303.15
303.15
303.145
302.658
300.464
298.32
297.303
296.752
296.17
295.417
294.805
294.642
294.154
293.566
293.495
294.994
297.204
298.484
299.143
299.515
299.701
299.79
299.816
299.839
299.852
299.859
299.867
299.875
299.882
299.889
299.895
299.9
299.907
299.915
299.926
299.938
299.947
299.954
299.955
299.945
299.935
299.945
299.956
299.968
299.976
299.979
299.98
299.987
299.994
299.998
299.999
299.999
300
300
300
303.15
303.15
303.15
303.15
303.15
303.15
303.15
303.149
303.012
302.046
300.761
300.001
299.555
298.725
297.838
297.062
296.652
296.392
296.185
296.028
295.512
295.485
296.183
297.035
297.792
298.339
298.701
298.99
299.21
299.402
299.552
299.644
299.703
299.741
299.76
299.772
299.781
299.8
299.823
299.851
299.87
299.875
299.874
299.869
299.867
299.869
299.873
299.869
299.888
299.916
299.911
299.87
299.914
299.944
299.963
299.975
299.979
299.98
299.992
299.999
303.15
303.15
303.15
303.15
303.15
303.15
303.15
303.15
303.116
302.808
302.305
301.931
301.711
301.066
300.25
299.741
299.428
299.147
298.855
298.589
298.049
297.14
296.477
296.334
296.55
296.893
297.222
297.526
297.827
298.102
298.311
298.449
298.57
298.707
298.865
299.038
299.198
299.305
299.381
299.425
299.439
299.44
299.437
299.433
299.414
299.39
299.381
299.396
299.424
299.463
299.487
299.511
299.552
299.619
299.694
299.809
299.882
299.898
299.899
299.917
303.15
303.15
303.149
303.149
303.149
303.148
303.148
303.148
303.141
303.064
302.913
302.783
302.673
302.434
302.072
301.765
301.613
301.518
301.37
301.112
300.592
299.807
298.938
298.195
297.696
297.427
297.316
297.301
297.352
297.439
297.53
297.603
297.675
297.757
297.859
297.982
298.097
298.171
298.215
298.231
298.225
298.212
298.199
298.182
298.167
298.156
298.155
298.183
298.251
298.334
298.41
298.476
298.569
298.676
298.756
298.925
299.152
299.325
299.425
299.476
303.143
303.134
303.127
303.119
303.111
303.104
303.098
303.094
303.092
303.083
303.057
303.03
303.004
302.947
302.851
302.764
302.712
302.663
302.596
302.507
302.328
302.003
301.553
301.052
300.594
300.218
299.916
299.671
299.46
299.274
299.106
298.968
298.865
298.793
298.731
298.666
298.604
298.554
298.514
298.485
298.466
298.45
298.436
298.42
298.4
298.377
298.35
298.321
298.291
298.264
298.242
298.223
298.207
298.189
298.166
298.186
298.263
298.356
298.438
298.499
)
;

boundaryField
{
    wall
    {
        type            zeroGradient;
    }
    inlet
    {
        type            fixedValue;
        value           uniform 303.15;
    }
    outlet
    {
        type            inletOutlet;
        inletValue      uniform 300;
        value           nonuniform List<scalar> 
20
(
299.204
300
300
300
300
300
300
299.918
299.476
298.497
299.175
300
300
300
300
300
300
299.916
299.475
298.499
)
;
    }
    heatWall
    {
        type            fixedGradient;
        gradient        uniform -500;
    }
}


// ************************************************************************* //
