/*--------------------------------*- C++ -*----------------------------------*\
  =========                 |
  \\      /  F ield         | OpenFOAM: The Open Source CFD Toolbox
   \\    /   O peration     | Website:  https://openfoam.org
    \\  /    A nd           | Version:  8
     \\/     M anipulation  |
\*---------------------------------------------------------------------------*/
FoamFile
{
    version     2.0;
    format      ascii;
    class       volScalarField;
    location    "700";
    object      nut;
}
// * * * * * * * * * * * * * * * * * * * * * * * * * * * * * * * * * * * * * //

dimensions      [0 2 -1 0 0 0 0];

internalField   nonuniform List<scalar> 
1200
(
9.44464e-06
9.34422e-06
9.2489e-06
9.14649e-06
9.0247e-06
8.89617e-06
8.76952e-06
8.66956e-06
8.56374e-06
8.46676e-06
8.71212e-06
9.10446e-06
9.38452e-06
9.65359e-06
9.89863e-06
1.03723e-05
1.12633e-05
1.21969e-05
1.34346e-05
1.42765e-05
1.52401e-05
1.55939e-05
6.0857e-06
6.12955e-06
6.21744e-06
6.34768e-06
6.48745e-06
6.61317e-06
6.72269e-06
6.87101e-06
7.09931e-06
7.32433e-06
7.55435e-06
7.79167e-06
8.01515e-06
8.21185e-06
8.39911e-06
8.60336e-06
8.85056e-06
9.00955e-06
8.81026e-06
8.77537e-06
9.15564e-06
9.70743e-06
1.01008e-05
1.03421e-05
1.05605e-05
1.08068e-05
1.11068e-05
1.14218e-05
1.16926e-05
1.20226e-05
1.203e-05
1.24909e-05
1.28362e-05
1.32428e-05
1.36892e-05
1.37772e-05
1.64688e-05
2.06485e-05
7.33247e-06
6.35501e-06
5.53849e-06
4.83931e-06
4.22308e-06
3.70231e-06
3.29448e-06
3.00024e-06
2.6903e-06
2.92552e-06
4.76498e-06
5.08892e-06
4.41774e-06
3.35191e-06
3.08691e-06
3.29403e-06
3.63968e-06
3.96363e-06
4.72682e-06
5.58767e-06
6.96342e-06
8.42546e-06
9.90305e-06
1.12096e-05
1.24405e-05
1.39566e-05
1.52149e-05
1.5546e-05
1.49076e-05
3.78407e-06
4.14055e-06
4.13189e-06
3.98867e-06
3.90842e-06
3.87859e-06
3.87745e-06
3.84201e-06
3.49697e-06
1.62956e-05
3.59501e-06
3.19739e-06
3.37946e-06
3.41166e-06
3.97693e-06
4.29657e-06
4.27089e-06
4.15442e-06
4.00678e-06
4.69555e-06
4.82009e-06
4.54793e-06
4.52686e-06
5.15911e-06
6.90181e-06
9.88693e-06
7.59414e-06
1.07523e-05
1.41519e-05
1.6852e-05
2.62639e-05
7.32167e-06
6.30863e-06
5.45025e-06
4.70363e-06
4.04387e-06
3.47372e-06
3.0039e-06
2.62159e-06
2.30385e-06
2.64229e-06
3.87083e-06
3.56899e-06
2.07994e-06
1.91653e-06
3.25622e-06
3.99619e-06
3.83435e-06
4.43668e-06
6.01074e-06
6.60302e-06
9.15239e-06
1.11516e-05
1.3265e-05
1.57745e-05
3.87164e-06
4.23511e-06
4.54645e-06
4.82173e-06
5.06e-06
5.25616e-06
5.40632e-06
5.49601e-06
5.55558e-06
5.62627e-06
5.70182e-06
5.78426e-06
5.90328e-06
6.06746e-06
6.28697e-06
6.51516e-06
6.75246e-06
6.97793e-06
7.22572e-06
7.47252e-06
7.71171e-06
8.0269e-06
8.40219e-06
8.70571e-06
8.86623e-06
8.8173e-06
8.8348e-06
9.23285e-06
1.136e-05
1.3774e-05
1.55763e-05
1.74723e-05
1.92056e-05
2.19259e-05
2.48811e-05
2.7913e-05
7.32265e-06
6.31289e-06
5.45578e-06
4.71003e-06
4.04893e-06
3.47393e-06
2.99488e-06
2.58585e-06
2.24077e-06
2.46525e-06
3.28128e-06
3.20552e-06
2.55407e-06
2.21274e-06
3.57829e-06
5.11534e-06
5.60551e-06
8.26145e-06
1.26955e-05
1.41326e-05
1.52248e-05
3.79173e-06
4.08477e-06
4.37572e-06
4.67539e-06
4.96506e-06
5.23303e-06
5.47894e-06
5.71093e-06
5.94034e-06
6.14873e-06
6.33497e-06
6.49807e-06
6.63472e-06
6.75301e-06
6.85867e-06
6.94849e-06
7.01439e-06
7.03823e-06
7.00601e-06
6.93738e-06
6.91625e-06
7.0816e-06
7.44422e-06
7.87923e-06
8.36895e-06
8.89343e-06
9.53189e-06
1.02792e-05
1.10527e-05
1.18223e-05
1.28729e-05
1.42113e-05
1.57697e-05
1.73554e-05
1.90192e-05
2.09075e-05
2.31152e-05
2.5542e-05
2.82105e-05
7.32497e-06
6.31587e-06
5.45703e-06
4.70813e-06
4.04633e-06
3.47093e-06
2.99532e-06
2.58989e-06
2.23923e-06
2.20558e-06
2.65474e-06
2.76448e-06
2.53483e-06
2.23539e-06
2.34502e-06
4.63813e-06
5.5336e-06
5.98279e-06
7.51791e-06
1.02953e-05
1.35142e-05
1.49452e-05
3.74667e-06
3.97073e-06
4.22737e-06
4.45677e-06
4.66988e-06
4.87686e-06
5.0733e-06
5.23819e-06
5.3805e-06
5.51181e-06
5.61492e-06
5.679e-06
5.70372e-06
5.69597e-06
5.66295e-06
5.62159e-06
5.64204e-06
5.74404e-06
5.91242e-06
6.15858e-06
6.42052e-06
6.74137e-06
7.13771e-06
7.62297e-06
8.17401e-06
8.92073e-06
9.85324e-06
1.08735e-05
1.1937e-05
1.30551e-05
1.42791e-05
1.56274e-05
1.71048e-05
1.87406e-05
2.05601e-05
2.2622e-05
2.50265e-05
2.78875e-05
7.32817e-06
6.32007e-06
5.45961e-06
4.70838e-06
4.04663e-06
3.473e-06
2.99602e-06
2.60023e-06
2.25329e-06
2.05729e-06
2.1797e-06
2.24965e-06
2.15701e-06
2.01136e-06
1.9503e-06
2.4146e-06
3.05443e-06
3.55964e-06
4.5123e-06
6.52297e-06
9.64579e-06
1.21949e-05
1.43891e-05
1.59336e-05
1.62654e-05
3.80806e-06
3.92658e-06
4.04782e-06
4.18088e-06
4.28605e-06
4.43719e-06
4.60216e-06
4.71223e-06
4.78271e-06
4.8236e-06
4.84371e-06
4.84967e-06
4.81805e-06
4.73364e-06
4.60064e-06
4.46905e-06
4.41821e-06
4.51366e-06
4.64911e-06
5.36274e-06
6.08951e-06
6.06436e-06
6.499e-06
7.62465e-06
8.8916e-06
1.01851e-05
1.14381e-05
1.26896e-05
1.40148e-05
1.55877e-05
1.73807e-05
1.92654e-05
2.13042e-05
2.39525e-05
2.78042e-05
7.33162e-06
6.32508e-06
5.46445e-06
4.71188e-06
4.04925e-06
3.47789e-06
3.00401e-06
2.61405e-06
2.28076e-06
2.00826e-06
1.91074e-06
1.86322e-06
1.7719e-06
1.68104e-06
1.61885e-06
1.71082e-06
1.91757e-06
2.22398e-06
2.65203e-06
3.72615e-06
5.58168e-06
7.88809e-06
1.02964e-05
1.22649e-05
1.32637e-05
1.37746e-05
1.43566e-05
1.49693e-05
1.56e-05
1.62043e-05
1.65799e-05
3.74063e-06
1.76125e-05
3.84408e-06
3.9174e-06
3.9582e-06
3.94785e-06
3.90925e-06
3.90102e-06
3.95422e-06
3.96953e-06
3.90574e-06
3.8703e-06
3.85858e-06
3.82027e-06
3.81231e-06
1.54992e-05
1.50599e-05
1.81729e-05
4.96334e-06
7.0215e-06
8.42655e-06
8.82396e-06
8.47349e-06
1.04438e-05
1.26329e-05
1.4387e-05
1.58052e-05
1.90119e-05
2.4433e-05
7.335e-06
6.32707e-06
5.46263e-06
4.70552e-06
4.04205e-06
3.47683e-06
3.0101e-06
2.62013e-06
2.28435e-06
2.001e-06
1.80881e-06
1.67335e-06
1.55089e-06
1.45474e-06
1.38519e-06
1.36335e-06
1.40003e-06
1.51537e-06
1.6889e-06
2.14805e-06
2.96312e-06
4.22977e-06
5.94945e-06
7.59922e-06
8.80758e-06
9.62529e-06
1.02442e-05
1.08278e-05
1.14933e-05
1.22101e-05
1.2855e-05
1.33932e-05
1.3904e-05
1.43705e-05
1.48216e-05
1.50881e-05
1.51667e-05
1.51859e-05
1.53004e-05
1.5503e-05
1.56207e-05
1.5561e-05
1.54531e-05
1.54638e-05
1.53055e-05
1.49613e-05
1.45614e-05
1.42483e-05
1.38757e-05
1.35173e-05
4.69072e-06
6.1463e-06
5.99638e-06
5.53101e-06
5.65043e-06
7.11314e-06
8.92801e-06
9.79303e-06
1.08961e-05
1.38123e-05
7.34863e-06
6.37441e-06
5.54809e-06
4.82472e-06
4.17484e-06
3.62279e-06
3.1709e-06
2.78884e-06
2.44745e-06
2.14715e-06
1.91164e-06
1.73686e-06
1.59901e-06
1.48299e-06
1.38477e-06
1.30929e-06
1.26392e-06
1.25759e-06
1.28703e-06
1.41953e-06
1.68243e-06
2.14849e-06
2.91571e-06
3.81242e-06
4.62757e-06
5.27487e-06
5.79365e-06
6.28522e-06
6.83255e-06
7.46391e-06
8.11444e-06
8.72762e-06
9.32176e-06
9.89533e-06
1.03742e-05
1.07321e-05
1.10389e-05
1.13753e-05
1.17598e-05
1.21251e-05
1.23928e-05
1.25518e-05
1.26149e-05
1.25706e-05
1.25978e-05
1.3016e-05
1.341e-05
1.34228e-05
1.34895e-05
1.35641e-05
1.37803e-05
1.5075e-05
3.77541e-06
3.80106e-06
3.79933e-06
4.14223e-06
4.87982e-06
5.45987e-06
6.03275e-06
7.07846e-06
9.44937e-06
9.36578e-06
9.27907e-06
9.16934e-06
9.02996e-06
8.87133e-06
8.73119e-06
8.5755e-06
8.32819e-06
7.95798e-06
7.64503e-06
7.5357e-06
7.61685e-06
7.72075e-06
7.78625e-06
7.77793e-06
7.67418e-06
7.52904e-06
7.44456e-06
7.32561e-06
7.32237e-06
7.41976e-06
7.61777e-06
7.94839e-06
8.39958e-06
8.94651e-06
9.57588e-06
1.02825e-05
1.10711e-05
1.19451e-05
1.28934e-05
1.39033e-05
1.49575e-05
6.11161e-06
6.31644e-06
6.52945e-06
6.75779e-06
7.00116e-06
7.25101e-06
7.5014e-06
7.75411e-06
8.00941e-06
8.28152e-06
8.59955e-06
8.96641e-06
9.31571e-06
9.63591e-06
9.94126e-06
1.02395e-05
1.05296e-05
1.08091e-05
1.10167e-05
1.12114e-05
1.15845e-05
1.19283e-05
1.21253e-05
1.23637e-05
1.27528e-05
1.31762e-05
1.36802e-05
9.42939e-06
9.33706e-06
9.25687e-06
9.15825e-06
9.02315e-06
8.88343e-06
8.75753e-06
8.66192e-06
8.55347e-06
8.48244e-06
8.72046e-06
9.11491e-06
9.38213e-06
9.6429e-06
9.88243e-06
1.034e-05
1.12059e-05
1.21111e-05
1.33586e-05
1.42406e-05
1.522e-05
1.56841e-05
6.08988e-06
6.13129e-06
6.21846e-06
6.34847e-06
6.48966e-06
6.62054e-06
6.73205e-06
6.857e-06
7.07632e-06
7.30371e-06
7.5318e-06
7.76961e-06
8.00415e-06
8.23284e-06
8.43932e-06
8.63413e-06
8.82581e-06
8.91634e-06
8.85759e-06
8.90698e-06
9.40814e-06
9.88056e-06
1.01431e-05
1.03346e-05
1.05567e-05
1.0826e-05
1.11389e-05
1.14389e-05
1.1754e-05
1.20353e-05
1.2116e-05
1.2404e-05
1.28518e-05
1.3267e-05
1.36948e-05
1.39828e-05
1.86451e-05
2.15222e-05
7.33267e-06
6.35872e-06
5.54262e-06
4.83851e-06
4.22403e-06
3.70606e-06
3.30329e-06
3.01044e-06
2.70468e-06
2.91196e-06
4.73773e-06
5.07548e-06
4.41214e-06
3.32797e-06
3.0662e-06
3.27433e-06
3.61856e-06
3.94824e-06
4.71338e-06
5.57314e-06
6.94516e-06
8.40013e-06
9.87523e-06
1.11999e-05
1.24198e-05
1.39339e-05
1.52433e-05
1.58396e-05
1.52042e-05
3.71051e-06
4.09395e-06
4.14701e-06
4.03336e-06
3.95301e-06
3.87993e-06
3.80355e-06
3.73439e-06
1.61681e-05
1.56648e-05
3.56992e-06
3.54061e-06
3.41221e-06
3.52865e-06
4.13123e-06
4.37388e-06
4.27709e-06
4.13905e-06
3.99252e-06
4.74351e-06
4.83463e-06
4.56888e-06
4.34459e-06
5.08615e-06
4.79661e-06
5.20017e-06
6.8902e-06
1.08194e-05
1.41589e-05
1.70817e-05
2.39278e-05
7.32376e-06
6.31474e-06
5.45521e-06
4.70235e-06
4.04126e-06
3.47205e-06
3.00287e-06
2.6221e-06
2.30459e-06
2.62324e-06
3.84809e-06
3.57011e-06
2.09923e-06
1.95064e-06
3.27489e-06
4.00728e-06
3.83464e-06
4.39353e-06
6.11426e-06
6.63637e-06
9.14499e-06
1.11273e-05
1.31576e-05
1.57088e-05
3.85512e-06
4.21932e-06
4.5297e-06
4.8029e-06
5.03767e-06
5.22914e-06
5.37802e-06
5.47216e-06
5.53383e-06
5.59626e-06
5.66505e-06
5.75597e-06
5.87925e-06
6.05817e-06
6.27265e-06
6.50461e-06
6.73938e-06
6.93982e-06
7.19453e-06
7.4207e-06
7.64795e-06
7.955e-06
8.31399e-06
8.59608e-06
8.72693e-06
8.64873e-06
8.80016e-06
9.72417e-06
1.14208e-05
1.35947e-05
1.52084e-05
1.67558e-05
1.89991e-05
2.17098e-05
2.46599e-05
2.77948e-05
7.3267e-06
6.32042e-06
5.46179e-06
4.70937e-06
4.0456e-06
3.47056e-06
2.99234e-06
2.58552e-06
2.24035e-06
2.44805e-06
3.26184e-06
3.20025e-06
2.55347e-06
2.24693e-06
3.60613e-06
5.13301e-06
5.60239e-06
8.15489e-06
1.27214e-05
1.41469e-05
1.52272e-05
3.79028e-06
4.08295e-06
4.37156e-06
4.67019e-06
4.95876e-06
5.2254e-06
5.47009e-06
5.69848e-06
5.92363e-06
6.13009e-06
6.30923e-06
6.46744e-06
6.60696e-06
6.72487e-06
6.8232e-06
6.90545e-06
6.96385e-06
6.97752e-06
6.93604e-06
6.86726e-06
6.87119e-06
7.07709e-06
7.4474e-06
7.86176e-06
8.3199e-06
8.85314e-06
9.48721e-06
1.02235e-05
1.10453e-05
1.18795e-05
1.29197e-05
1.4229e-05
1.57368e-05
1.72917e-05
1.89281e-05
2.08442e-05
2.30275e-05
2.54495e-05
2.81369e-05
7.33037e-06
6.32385e-06
5.46109e-06
4.70524e-06
4.04284e-06
3.46714e-06
2.99236e-06
2.59042e-06
2.24034e-06
2.19596e-06
2.64032e-06
2.75637e-06
2.53024e-06
2.23247e-06
2.37308e-06
4.67396e-06
5.54845e-06
5.97786e-06
7.50176e-06
1.02645e-05
1.35297e-05
1.49604e-05
1.61705e-05
3.96789e-06
4.22321e-06
4.44998e-06
4.65972e-06
4.86312e-06
5.05839e-06
5.22025e-06
5.35266e-06
5.47703e-06
5.57188e-06
5.62289e-06
5.64357e-06
5.63285e-06
5.59864e-06
5.56184e-06
5.58833e-06
5.70963e-06
5.91609e-06
6.16135e-06
6.41273e-06
6.71695e-06
7.07794e-06
7.52623e-06
8.08426e-06
8.82162e-06
9.76168e-06
1.081e-05
1.19093e-05
1.30342e-05
1.42565e-05
1.56025e-05
1.7079e-05
1.87102e-05
2.05271e-05
2.25901e-05
2.49973e-05
2.78541e-05
7.33405e-06
6.32801e-06
5.46287e-06
4.70519e-06
4.04318e-06
3.47481e-06
2.99912e-06
2.6053e-06
2.25979e-06
2.05424e-06
2.17131e-06
2.24348e-06
2.15341e-06
2.0109e-06
1.95158e-06
2.41695e-06
3.06932e-06
3.5535e-06
4.51887e-06
6.52013e-06
9.64144e-06
1.22036e-05
1.4406e-05
1.59478e-05
1.6701e-05
3.80192e-06
3.91727e-06
4.03565e-06
4.17283e-06
4.28092e-06
4.41302e-06
4.56094e-06
4.66485e-06
4.73269e-06
4.77497e-06
4.79722e-06
4.80386e-06
4.76997e-06
4.68059e-06
4.54114e-06
4.41316e-06
4.40038e-06
4.52609e-06
4.7817e-06
5.52526e-06
5.71571e-06
5.6987e-06
6.39302e-06
7.49609e-06
8.77967e-06
1.00752e-05
1.13454e-05
1.26096e-05
1.39468e-05
1.55285e-05
1.73174e-05
1.91639e-05
2.11362e-05
2.35607e-05
2.7331e-05
7.3375e-06
6.33288e-06
5.46701e-06
4.70786e-06
4.04486e-06
3.4793e-06
3.01074e-06
2.62206e-06
2.28489e-06
2.01089e-06
1.90806e-06
1.86064e-06
1.77115e-06
1.68432e-06
1.6243e-06
1.71716e-06
1.92181e-06
2.2228e-06
2.65858e-06
3.72852e-06
5.57704e-06
7.88148e-06
1.02776e-05
1.223e-05
1.32229e-05
1.37395e-05
1.43193e-05
1.49254e-05
1.55591e-05
1.60225e-05
1.62299e-05
3.76109e-06
3.72792e-06
3.73499e-06
3.84181e-06
3.89846e-06
3.90402e-06
3.87369e-06
3.8508e-06
3.88731e-06
3.91453e-06
3.87101e-06
3.85292e-06
3.87531e-06
3.88651e-06
3.8043e-06
1.54772e-05
1.50284e-05
1.48855e-05
4.37491e-06
6.71567e-06
8.25485e-06
8.67334e-06
8.31034e-06
1.03795e-05
1.25798e-05
1.43043e-05
1.5676e-05
1.86604e-05
2.56038e-05
7.34052e-06
6.33333e-06
5.46267e-06
4.70016e-06
4.03839e-06
3.48089e-06
3.01644e-06
2.61984e-06
2.27731e-06
1.99588e-06
1.8048e-06
1.67263e-06
1.55203e-06
1.45817e-06
1.39156e-06
1.37292e-06
1.40802e-06
1.51777e-06
1.69289e-06
2.1515e-06
2.96472e-06
4.22717e-06
5.93669e-06
7.56601e-06
8.7657e-06
9.58495e-06
1.02119e-05
1.08106e-05
1.15005e-05
1.22383e-05
1.28905e-05
1.34482e-05
1.39394e-05
1.44414e-05
1.48865e-05
1.51297e-05
1.51912e-05
1.52203e-05
1.53636e-05
1.55877e-05
1.57122e-05
1.56535e-05
1.54952e-05
1.54941e-05
1.54016e-05
1.50316e-05
1.4585e-05
1.42587e-05
1.38842e-05
1.34715e-05
1.98601e-05
5.1783e-06
5.59424e-06
5.39683e-06
5.48392e-06
6.93878e-06
8.76139e-06
9.6196e-06
1.06616e-05
1.38166e-05
7.35323e-06
6.38004e-06
5.54834e-06
4.8178e-06
4.16838e-06
3.62587e-06
3.17857e-06
2.78982e-06
2.44313e-06
2.14443e-06
1.91133e-06
1.73739e-06
1.60021e-06
1.48451e-06
1.38586e-06
1.30996e-06
1.26544e-06
1.2591e-06
1.28931e-06
1.42184e-06
1.68502e-06
2.14985e-06
2.91419e-06
3.79906e-06
4.6049e-06
5.24815e-06
5.77109e-06
6.2734e-06
6.83645e-06
7.48495e-06
8.14495e-06
8.76153e-06
9.36021e-06
9.93384e-06
1.04022e-05
1.07522e-05
1.10646e-05
1.14198e-05
1.18213e-05
1.21876e-05
1.24363e-05
1.25658e-05
1.26085e-05
1.25566e-05
1.26525e-05
1.30186e-05
1.32955e-05
1.3264e-05
1.32769e-05
1.34553e-05
1.38558e-05
1.54121e-05
3.86235e-06
3.83165e-06
3.80326e-06
4.10558e-06
4.77434e-06
5.32328e-06
5.92149e-06
7.05619e-06
9.44906e-06
9.35766e-06
9.25765e-06
9.14609e-06
9.03222e-06
8.90985e-06
8.77451e-06
8.58866e-06
8.32018e-06
7.95066e-06
7.64266e-06
7.53469e-06
7.62211e-06
7.73649e-06
7.8061e-06
7.77886e-06
7.65794e-06
7.50702e-06
7.41842e-06
7.31185e-06
7.31937e-06
7.41991e-06
7.61052e-06
7.93559e-06
8.3817e-06
8.9258e-06
9.55564e-06
1.02675e-05
1.10665e-05
1.1947e-05
1.28931e-05
1.38969e-05
1.49456e-05
6.10776e-06
6.311e-06
6.52374e-06
6.75443e-06
6.99931e-06
7.24681e-06
7.49251e-06
7.74453e-06
8.00837e-06
8.29459e-06
8.62616e-06
8.98837e-06
9.31832e-06
9.62977e-06
9.93359e-06
1.02339e-05
1.05194e-05
1.07214e-05
1.08475e-05
1.10934e-05
1.15399e-05
1.1911e-05
1.21348e-05
1.24019e-05
1.28016e-05
1.32247e-05
1.36865e-05
)
;

boundaryField
{
    wall
    {
        type            nutkWallFunction;
        Cmu             0.09;
        kappa           0.41;
        E               9.8;
        value           nonuniform List<scalar> 
1200
(
0
0
0
0
0
0
0
0
0
0
0
0
0
0
0
0
0
0
0
0
0
0
0
0
0
0
0
0
0
0
0
0
0
0
0
0
0
0
0
0
0
0
0
0
0
0
0
0
0
0
0
0
0
0
0
0
0
0
0
0
0
0
0
0
0
0
0
0
0
0
0
0
0
0
0
0
0
0
0
0
0
0
0
0
0
0
0
0
0
0
0
0
0
0
0
0
0
0
0
0
0
0
0
0
0
0
0
0
0
0
0
0
0
0
0
0
0
0
0
0
0
0
0
0
0
0
0
0
0
0
0
0
0
0
0
0
0
0
0
0
0
0
0
0
0
0
0
0
0
0
0
0
0
0
0
0
0
0
0
0
0
0
0
0
0
0
0
0
0
0
0
0
0
0
0
0
0
0
0
0
0
0
0
0
0
0
0
0
0
0
0
0
0
0
0
0
0
0
0
0
0
0
0
0
0
0
0
0
0
0
4.82722e-10
0
0
9.9068e-10
0
0
0
0
0
0
3.05802e-09
0
0
4.94521e-08
0
0
0
0
0
0
7.69843e-09
0
0
9.77154e-08
3.05518e-08
0
0
0
0
0
1.69073e-08
0
1.70438e-08
1.46656e-07
7.30576e-08
2.51296e-09
0
0
0
0
3.04295e-08
0
7.69064e-08
1.93578e-07
1.10873e-07
3.70005e-09
0
0
0
0
4.47274e-08
0
1.27853e-07
2.36722e-07
1.45842e-07
2.34114e-08
0
0
0
0
5.73714e-08
0
1.72823e-07
2.76142e-07
1.79591e-07
4.31e-08
0
0
0
0
6.91595e-08
0
2.11709e-07
3.13187e-07
2.11404e-07
6.41643e-08
0
0
0
0
8.65681e-08
1.65097e-08
2.43943e-07
3.49224e-07
2.3895e-07
8.2621e-08
0
0
0
0
1.09853e-07
6.43514e-08
2.67939e-07
3.81809e-07
2.63648e-07
1.11598e-07
4.75685e-09
0
0
0
1.32269e-07
5.28032e-08
2.82092e-07
4.11518e-07
2.85616e-07
1.40419e-07
8.31108e-11
0
0
0
1.55053e-07
2.89903e-08
2.92232e-07
4.3749e-07
3.02654e-07
1.58132e-07
1.54282e-08
0
0
0
1.7738e-07
2.25238e-08
3.0511e-07
4.59443e-07
3.12688e-07
1.68546e-07
1.15038e-08
0
0
4.54838e-09
1.97459e-07
2.62595e-08
3.17588e-07
4.79163e-07
3.16091e-07
1.7402e-07
2.54588e-08
0
0
2.57573e-08
2.15842e-07
2.91623e-08
3.32265e-07
4.96895e-07
3.14024e-07
1.76708e-07
2.95304e-08
0
0
4.80174e-08
2.33835e-07
2.85841e-08
3.51976e-07
5.12103e-07
3.07671e-07
1.78387e-07
2.54624e-08
0
0
7.19269e-08
2.52773e-07
0
3.76831e-07
5.23624e-07
2.97831e-07
1.75114e-07
1.99553e-08
0
0
9.70339e-08
2.70122e-07
2.63596e-09
4.07501e-07
5.28685e-07
2.94287e-07
1.63345e-07
2.45703e-08
0
0
1.22292e-07
2.76042e-07
3.42781e-10
4.41422e-07
5.2523e-07
3.11094e-07
1.42208e-07
3.66837e-08
0
0
1.4733e-07
2.77741e-07
8.79925e-10
4.7742e-07
5.15442e-07
3.40179e-07
1.1894e-07
3.69453e-08
0
0
1.72824e-07
2.99965e-07
2.87232e-08
5.13662e-07
5.09113e-07
3.7624e-07
1.04822e-07
2.36635e-08
0
0
1.99279e-07
3.37717e-07
2.49446e-09
5.51059e-07
5.26607e-07
4.18366e-07
1.18036e-07
1.59356e-08
0
0
2.27597e-07
3.78336e-07
7.06951e-08
5.89213e-07
5.74419e-07
4.66225e-07
1.31732e-07
1.27384e-08
0
0
2.59914e-07
4.04578e-07
9.42087e-08
6.2806e-07
6.36957e-07
5.21439e-07
1.70216e-07
3.39431e-09
0
0
2.94917e-07
4.25631e-07
7.88333e-08
6.76248e-07
7.08124e-07
5.88169e-07
2.87065e-07
1.73684e-09
0
0
3.27362e-07
4.491e-07
5.82048e-08
7.34113e-07
7.86854e-07
6.71775e-07
3.16173e-07
0
0
0
3.57881e-07
4.75561e-07
3.58656e-08
7.82312e-07
8.79638e-07
7.83673e-07
4.16404e-07
0
0
0
3.8755e-07
5.04449e-07
1.63135e-07
8.09725e-07
9.86348e-07
9.2073e-07
5.85136e-07
1.18193e-08
0
0
4.16464e-07
5.33217e-07
1.75497e-07
8.12436e-07
1.10322e-06
1.07109e-06
7.7705e-07
1.24587e-07
0
0
4.43844e-07
5.6102e-07
1.28739e-07
8.09242e-07
1.22494e-06
1.22577e-06
9.67066e-07
4.78681e-07
3.73461e-08
0
4.64908e-07
5.87077e-07
8.48108e-08
9.3559e-07
1.36777e-06
1.38391e-06
1.1475e-06
7.02703e-07
2.06504e-07
0
4.79019e-07
5.96966e-07
2.39765e-07
1.1812e-06
1.55042e-06
1.55372e-06
1.32499e-06
7.60289e-07
2.94574e-07
1.25576e-08
5.03568e-07
6.27452e-07
2.47024e-07
1.4582e-06
1.75668e-06
1.73849e-06
1.51157e-06
7.06944e-07
2.61056e-07
7.95006e-09
5.43678e-07
6.65031e-07
3.60992e-07
1.68873e-06
1.96806e-06
1.93883e-06
1.72946e-06
1.01002e-06
2.76446e-07
3.66098e-09
5.76404e-07
7.02473e-07
5.09025e-07
1.90538e-06
2.188e-06
2.15764e-06
1.97283e-06
1.32161e-06
5.03798e-07
5.46263e-08
5.97048e-07
7.44773e-07
1.08088e-06
2.20351e-06
2.44129e-06
2.3983e-06
2.22181e-06
1.56047e-06
7.77314e-07
1.64611e-07
6.22474e-07
7.8398e-07
1.5558e-06
2.56042e-06
2.7269e-06
2.6681e-06
2.48613e-06
1.7485e-06
9.03298e-07
2.53492e-07
6.5994e-07
1.00703e-06
1.90447e-06
2.93335e-06
3.03816e-06
2.97902e-06
2.80249e-06
2.12184e-06
1.05686e-06
3.49266e-07
6.98773e-07
1.39985e-06
2.83895e-06
3.33637e-06
3.37921e-06
3.34331e-06
3.26074e-06
2.87544e-06
1.50185e-06
5.20734e-07
7.424e-07
0
0
0
0
0
0
0
0
0
0
0
0
0
0
0
0
0
0
0
0
0
0
0
0
0
0
0
0
0
0
0
0
0
0
0
0
0
0
0
0
0
0
0
0
0
0
0
0
0
0
0
0
0
0
0
0
0
0
0
0
0
0
0
0
0
0
0
0
0
0
0
0
0
0
0
0
0
0
0
0
0
0
0
0
0
0
0
0
0
0
0
0
0
0
0
0
0
0
0
0
0
0
0
0
0
0
0
0
0
0
0
0
0
0
0
0
0
0
0
0
0
0
0
0
0
0
0
0
0
0
0
0
0
0
0
0
0
0
0
0
0
0
0
0
0
0
0
0
0
0
0
0
0
0
0
0
0
0
0
0
0
0
0
0
0
0
0
0
0
0
0
0
0
0
0
0
0
0
0
0
0
0
0
0
0
0
0
0
0
0
0
0
0
0
0
0
0
0
0
0
0
0
0
0
0
0
0
0
0
0
1.40823e-09
0
0
6.85994e-10
0
0
0
0
0
0
3.30205e-09
0
0
4.91772e-08
3.80388e-10
0
0
0
0
0
7.86289e-09
0
0
9.70287e-08
3.01873e-08
0
0
0
0
0
1.70089e-08
0
1.44126e-08
1.45792e-07
7.24852e-08
5.13332e-09
0
0
0
0
3.05128e-08
0
7.44106e-08
1.92493e-07
1.09965e-07
2.98902e-09
0
0
0
0
4.49616e-08
0
1.2523e-07
2.35368e-07
1.44512e-07
2.25394e-08
0
0
0
0
5.79867e-08
0
1.69843e-07
2.74465e-07
1.77907e-07
4.24261e-08
0
0
0
0
6.94087e-08
0
2.0814e-07
3.10971e-07
2.09547e-07
6.44352e-08
0
0
0
0
8.47272e-08
3.03513e-09
2.3962e-07
3.46657e-07
2.36271e-07
8.2308e-08
1.98518e-10
0
0
0
1.07683e-07
5.82687e-08
2.6348e-07
3.79043e-07
2.59272e-07
1.07737e-07
2.38419e-09
0
0
0
1.3043e-07
5.59629e-08
2.77931e-07
4.07879e-07
2.80249e-07
1.34558e-07
2.28929e-09
0
0
0
1.53426e-07
3.41501e-08
2.87739e-07
4.33272e-07
2.96313e-07
1.52045e-07
0
0
0
0
1.76567e-07
2.35649e-08
2.99049e-07
4.54835e-07
3.05954e-07
1.62983e-07
4.94515e-09
0
0
3.90357e-09
1.98112e-07
2.00497e-08
3.10728e-07
4.73507e-07
3.097e-07
1.692e-07
2.07312e-08
0
0
2.50277e-08
2.17856e-07
1.82188e-08
3.2442e-07
4.89856e-07
3.08507e-07
1.72346e-07
2.69233e-08
0
0
4.75254e-08
2.36406e-07
1.4331e-08
3.43107e-07
5.03631e-07
3.03904e-07
1.7361e-07
2.49681e-08
0
0
7.17768e-08
2.55138e-07
0
3.67816e-07
5.13711e-07
2.98118e-07
1.68917e-07
1.90883e-08
0
0
9.69538e-08
2.71201e-07
0
3.98706e-07
5.17462e-07
3.00458e-07
1.55392e-07
1.89845e-08
0
0
1.2202e-07
2.77499e-07
0
4.35351e-07
5.1314e-07
3.17581e-07
1.34376e-07
2.83726e-08
0
0
1.47015e-07
2.85398e-07
0
4.70962e-07
5.03573e-07
3.43458e-07
1.14871e-07
3.07921e-08
0
0
1.72926e-07
3.11967e-07
0
5.05546e-07
5.0063e-07
3.75987e-07
1.07169e-07
1.99397e-08
0
0
2.00156e-07
3.53179e-07
0
5.43002e-07
5.23962e-07
4.18276e-07
1.24434e-07
1.42907e-08
0
0
2.2921e-07
3.8423e-07
9.23136e-08
5.80285e-07
5.74437e-07
4.65294e-07
1.44711e-07
1.34125e-08
0
0
2.61939e-07
4.03548e-07
1.01436e-07
6.18404e-07
6.35502e-07
5.17327e-07
1.89155e-07
7.5149e-09
0
0
2.9565e-07
4.23827e-07
7.87472e-08
6.66499e-07
7.04281e-07
5.78806e-07
2.39504e-07
2.53667e-09
0
0
3.26906e-07
4.49173e-07
5.70877e-08
7.23047e-07
7.83135e-07
6.61977e-07
2.85393e-07
0
0
0
3.56956e-07
4.77386e-07
3.60391e-08
7.68453e-07
8.752e-07
7.75473e-07
4.07348e-07
0
0
0
3.86592e-07
5.06537e-07
1.69383e-07
7.92973e-07
9.81813e-07
9.13742e-07
5.74233e-07
0
0
0
4.15452e-07
5.35003e-07
1.76017e-07
7.91303e-07
1.10101e-06
1.06555e-06
7.67734e-07
9.14862e-08
0
0
4.42434e-07
5.65254e-07
1.31465e-07
8.01375e-07
1.22738e-06
1.22239e-06
9.59329e-07
4.62506e-07
3.36364e-08
0
4.62062e-07
5.89609e-07
8.35419e-08
9.50563e-07
1.37183e-06
1.38166e-06
1.13986e-06
6.92096e-07
1.65815e-07
0
4.76633e-07
6.01094e-07
2.19083e-07
1.19467e-06
1.55269e-06
1.55167e-06
1.31767e-06
7.46003e-07
2.74367e-07
1.27166e-08
5.05838e-07
6.2993e-07
1.9788e-07
1.46793e-06
1.75703e-06
1.73674e-06
1.50561e-06
6.90987e-07
2.47948e-07
5.03295e-09
5.46645e-07
6.68274e-07
2.43186e-07
1.69659e-06
1.96839e-06
1.93773e-06
1.72578e-06
1.00554e-06
2.62013e-07
1.56075e-09
5.76577e-07
7.02824e-07
4.9561e-07
1.90272e-06
2.18948e-06
2.15722e-06
1.97153e-06
1.31853e-06
4.95863e-07
5.25215e-08
5.96101e-07
7.40784e-07
1.06927e-06
2.21542e-06
2.44437e-06
2.39822e-06
2.22209e-06
1.55659e-06
7.71811e-07
1.61674e-07
6.2224e-07
7.83815e-07
1.54457e-06
2.5646e-06
2.72817e-06
2.66789e-06
2.48608e-06
1.74524e-06
9.01086e-07
2.52936e-07
6.59888e-07
1.02522e-06
1.89288e-06
2.93455e-06
3.03847e-06
2.97848e-06
2.78875e-06
2.13397e-06
1.06106e-06
3.53883e-07
6.9808e-07
1.38353e-06
2.81815e-06
3.33531e-06
3.37794e-06
3.34203e-06
3.22719e-06
2.92233e-06
1.51836e-06
5.34368e-07
7.41307e-07
)
;
    }
    inlet
    {
        type            calculated;
        value           uniform 0.000190513;
    }
    outlet
    {
        type            calculated;
        value           nonuniform List<scalar> 
20
(
2.06485e-05
0.0081
0.0081
0.0081
0.0081
0.0081
0.0081
1.38123e-05
7.07846e-06
1.36802e-05
2.15222e-05
0.0081
0.0081
0.0081
0.0081
0.0081
0.0081
1.38166e-05
7.05619e-06
1.36865e-05
)
;
    }
    heatWall
    {
        type            nutkWallFunction;
        Cmu             0.09;
        kappa           0.41;
        E               9.8;
        value           nonuniform List<scalar> 
240
(
1.08827e-06
1.08852e-06
1.07888e-06
1.07862e-06
1.06923e-06
1.06799e-06
1.05751e-06
1.05644e-06
1.04398e-06
1.04483e-06
1.02971e-06
1.0323e-06
1.01516e-06
1.01738e-06
9.9533e-07
9.96213e-07
9.66225e-07
9.66291e-07
9.25347e-07
9.25221e-07
8.90786e-07
8.90738e-07
8.78807e-07
8.78951e-07
8.88647e-07
8.89449e-07
9.01363e-07
9.03103e-07
9.09084e-07
9.11037e-07
9.06825e-07
9.06919e-07
8.93886e-07
8.92285e-07
8.77098e-07
8.75054e-07
8.67254e-07
8.64883e-07
8.54257e-07
8.52954e-07
8.54536e-07
8.54015e-07
8.66077e-07
8.65647e-07
8.88277e-07
8.87122e-07
9.25067e-07
9.23493e-07
9.74576e-07
9.7269e-07
1.03372e-06
1.03181e-06
1.10066e-06
1.09905e-06
1.17437e-06
1.17349e-06
1.25486e-06
1.25496e-06
1.34153e-06
1.342e-06
1.43262e-06
1.43278e-06
1.5269e-06
1.52662e-06
1.62287e-06
1.62186e-06
1.69251e-06
1.69038e-06
1.76208e-06
1.75967e-06
1.83516e-06
1.83354e-06
1.91374e-06
1.91324e-06
1.99633e-06
1.99606e-06
2.07947e-06
2.07858e-06
2.16196e-06
2.16091e-06
2.24601e-06
2.24634e-06
2.3333e-06
2.33618e-06
2.4268e-06
2.43213e-06
2.53361e-06
2.5403e-06
2.6494e-06
2.65182e-06
2.75682e-06
2.75531e-06
2.85794e-06
2.85487e-06
2.95632e-06
2.95314e-06
3.05226e-06
3.04889e-06
3.14316e-06
3.13847e-06
3.21312e-06
3.20367e-06
3.26001e-06
3.25208e-06
3.34163e-06
3.34917e-06
3.47506e-06
3.48493e-06
3.58399e-06
3.58457e-06
3.65274e-06
3.64958e-06
3.73746e-06
3.73667e-06
3.86237e-06
3.86219e-06
3.99194e-06
3.98962e-06
4.13761e-06
4.13396e-06
1.08834e-06
1.08735e-06
1.07798e-06
1.07783e-06
1.06778e-06
1.06873e-06
1.05649e-06
1.05718e-06
1.04338e-06
1.04241e-06
1.02984e-06
1.02846e-06
1.01641e-06
1.01548e-06
1.0054e-06
1.00492e-06
9.93962e-07
9.93259e-07
9.82472e-07
9.83955e-07
1.00973e-06
1.01038e-06
1.05205e-06
1.05266e-06
1.0823e-06
1.0818e-06
1.1114e-06
1.10953e-06
1.13739e-06
1.13533e-06
1.1869e-06
1.18343e-06
1.27827e-06
1.27238e-06
1.37134e-06
1.36286e-06
1.48827e-06
1.48106e-06
1.5636e-06
1.56036e-06
1.65029e-06
1.64852e-06
1.67752e-06
1.68056e-06
1.68578e-06
1.6866e-06
1.70094e-06
1.70149e-06
1.73115e-06
1.73149e-06
1.77556e-06
1.77584e-06
1.82256e-06
1.82334e-06
1.8642e-06
1.86621e-06
1.9031e-06
1.90391e-06
1.96052e-06
1.95447e-06
2.03721e-06
2.0301e-06
2.11098e-06
2.10498e-06
2.18599e-06
2.18068e-06
2.25961e-06
2.25696e-06
2.32592e-06
2.32807e-06
2.3867e-06
2.39332e-06
2.44624e-06
2.45468e-06
2.5089e-06
2.51665e-06
2.56638e-06
2.56992e-06
2.58619e-06
2.591e-06
2.59196e-06
2.61727e-06
2.66552e-06
2.70522e-06
2.79053e-06
2.84174e-06
2.92519e-06
2.94474e-06
3.01228e-06
3.00887e-06
3.08217e-06
3.07618e-06
3.16009e-06
3.16032e-06
3.24798e-06
3.25403e-06
3.34401e-06
3.35095e-06
3.43973e-06
3.44567e-06
3.5323e-06
3.5464e-06
3.61912e-06
3.62755e-06
3.65215e-06
3.6659e-06
3.75379e-06
3.76205e-06
3.87913e-06
3.88995e-06
4.00412e-06
4.0053e-06
4.14543e-06
4.13211e-06
4.27645e-06
4.27591e-06
5.02336e-06
5.08435e-06
6.34389e-06
6.28887e-06
)
;
    }
}


// ************************************************************************* //
