/*--------------------------------*- C++ -*----------------------------------*\
  =========                 |
  \\      /  F ield         | OpenFOAM: The Open Source CFD Toolbox
   \\    /   O peration     | Website:  https://openfoam.org
    \\  /    A nd           | Version:  8
     \\/     M anipulation  |
\*---------------------------------------------------------------------------*/
FoamFile
{
    version     2.0;
    format      ascii;
    class       volVectorField;
    location    "700";
    object      U;
}
// * * * * * * * * * * * * * * * * * * * * * * * * * * * * * * * * * * * * * //

dimensions      [0 1 -1 0 0 0 0];

internalField   nonuniform List<vector> 
1200
(
(0.0800212 -0.00540965 -0.000282752)
(0.0803989 -0.00389606 -0.00128564)
(0.0800517 -0.00300493 -0.00272143)
(0.0793785 -0.00239589 -0.00310958)
(0.0787048 -0.00200062 -0.000776303)
(0.0782257 -0.0015043 0.00410309)
(0.0767069 -0.000886583 0.00996134)
(0.0752096 -0.000314912 0.0235618)
(0.0693512 0.000383153 0.0343786)
(0.0710927 -0.00190865 0.0667007)
(0.0854516 -0.00781407 0.0984018)
(0.0988644 -0.00431543 0.0903719)
(0.0968564 0.00218133 0.0604059)
(0.0898042 0.00418352 0.0653875)
(0.097409 0.00451143 0.0978039)
(0.117683 -0.00199237 0.119725)
(0.133175 -0.00596565 0.121637)
(0.149802 -0.00998261 0.12719)
(0.168405 -0.00198204 0.15723)
(0.189763 0.00116595 0.201409)
(0.219304 -0.000241782 0.236877)
(0.241125 -0.00170395 0.278703)
(0.268103 -0.000817712 0.319631)
(0.309817 -0.00039062 0.323261)
(0.357142 0.000771923 0.313097)
(0.403145 0.0017405 0.295306)
(0.439768 0.00311406 0.253019)
(0.455471 -0.000686174 0.194005)
(0.468055 -0.0141933 0.1536)
(0.525677 -0.0283333 0.141073)
(0.622245 -0.024811 0.145084)
(0.707655 -0.0094921 0.147116)
(0.751362 0.0038647 0.138218)
(0.760069 0.0100421 0.119182)
(0.750195 0.0109991 0.095226)
(0.733539 0.00994498 0.0678148)
(0.716479 0.00814246 0.0401826)
(0.71464 0.0034871 0.00816105)
(0.715977 -0.00513629 -0.0236005)
(0.718241 -0.0219562 -0.0489071)
(0.760952 -0.035055 -0.0601277)
(0.84289 -0.0342446 -0.0718302)
(0.927869 -0.0219788 -0.100125)
(0.974556 -0.0122869 -0.13334)
(0.958702 -0.00768321 -0.153005)
(0.921212 -0.0046481 -0.153504)
(0.87903 -0.00448956 -0.142663)
(0.844233 -0.00801073 -0.143992)
(0.830985 -0.00853933 -0.194738)
(0.838441 -0.00678483 -0.226928)
(0.841184 -0.00798234 -0.23009)
(0.838937 -0.0095504 -0.205578)
(0.875555 -0.0404932 -0.199171)
(0.962581 -0.0444532 -0.204029)
(1.00702 -0.0453661 -0.202499)
(1.05364 -0.0835848 -0.251923)
(1.09526 -0.114708 -0.215928)
(0.87432 -0.101026 -0.0111598)
(1.41004 -0.0642954 0.320678)
(1.55429 -0.0381471 0.25539)
(0.0802065 0.0021044 -0.000235193)
(0.0802054 0.0025676 -0.00113689)
(0.0799575 0.00246498 -0.0026613)
(0.0795147 0.00229309 -0.00349975)
(0.0791579 0.00216881 -0.00148339)
(0.0789898 0.00221014 0.00391188)
(0.0774528 0.00234975 0.0125439)
(0.0754411 0.00296973 0.0376131)
(0.0669641 0.00286165 0.093614)
(0.0678963 3.78828e-05 0.296637)
(0.0446907 0.00193745 0.498349)
(-0.0039886 0.00179138 0.474078)
(-0.0147285 0.00576557 0.322951)
(-0.00910887 -0.00577986 0.262981)
(0.0366033 -0.0127656 0.093925)
(0.0644047 -0.00880376 0.129912)
(0.0673809 -0.00295045 0.238479)
(0.0693114 -0.00378113 0.295401)
(0.0844036 -0.011219 0.446868)
(0.105683 -0.0204283 0.576893)
(0.120706 -0.0183338 0.621113)
(0.135924 -0.0143188 0.569073)
(0.148802 -0.0243737 0.464031)
(0.165346 -0.035862 0.344538)
(0.182159 -0.0392542 0.267724)
(0.201259 -0.0369553 0.222108)
(0.212472 -0.0321888 0.154557)
(0.21586 -0.0223276 0.0701368)
(0.212443 -0.00946463 0.0366243)
(0.199007 -0.0193195 0.116147)
(0.192779 -0.0410755 0.187666)
(0.205542 -0.0455272 0.21795)
(0.225447 -0.0350369 0.227114)
(0.248764 -0.0211443 0.211523)
(0.253362 -0.0101916 0.169205)
(0.240362 -0.0037995 0.120082)
(0.228086 -0.000727277 0.075546)
(0.240288 -0.00763799 0.0151407)
(0.259633 -0.0148624 -0.0335866)
(0.303174 -0.0188613 -0.0446516)
(0.360211 -0.0195098 -0.0217975)
(0.384216 -0.00546228 0.0191596)
(0.43193 -0.00340322 -0.0259905)
(0.390939 0.0165351 -0.147626)
(0.312816 0.0325241 -0.241648)
(0.261217 0.0391266 -0.267147)
(0.198143 0.0348298 -0.23181)
(0.156536 0.0283554 -0.217451)
(0.117354 0.0102545 -0.339438)
(0.16846 0.000672877 -0.444909)
(0.164029 0.00252618 -0.46124)
(0.0609733 0.00903202 -0.0778315)
(0.284525 -0.00174373 0.213081)
(-0.155841 0.0356118 -0.112334)
(-0.0787347 0.0429933 -0.0678496)
(0.235956 0.0787242 -0.466896)
(0.106057 0.0920858 0.905514)
(0.0149018 0.137815 1.48765)
(0.0925599 0.173037 0.922936)
(-0.0945032 -0.0261688 -0.53505)
(0.0798634 -0.000372088 -0.000256761)
(0.0797883 -0.00075686 -0.00199603)
(0.079646 -0.000976989 -0.00475239)
(0.0794446 -0.000953511 -0.00648477)
(0.0793852 -0.000717762 -0.00467477)
(0.0793711 -0.00014648 0.00100874)
(0.0785779 0.000910754 0.0088897)
(0.0778269 0.00354398 0.0277826)
(0.0741556 0.00650345 0.070585)
(0.0755352 0.0122713 0.230361)
(0.0604665 0.0203242 0.386146)
(0.0341075 0.0143908 0.375631)
(-0.00608654 0.00384468 0.151471)
(0.0101749 -0.01487 -0.0430756)
(0.0321016 -0.0134558 -0.260727)
(0.0456345 -0.00992158 -0.288709)
(0.0514448 -0.00722709 -0.185648)
(0.0564706 -0.0186814 -0.0807463)
(0.0659658 -0.0128786 0.0419315)
(0.0671735 -0.0119677 0.278914)
(0.0587268 -0.0171887 0.302676)
(0.0665202 -0.0227347 0.205261)
(0.0450557 -0.0196077 0.178962)
(-0.0465881 -0.0130884 0.165414)
(-0.146831 -0.0101252 0.186496)
(-0.239651 -0.00741805 0.209199)
(-0.324721 -0.00668481 0.234826)
(-0.400954 0.000589222 0.273969)
(-0.449593 0.010144 0.324822)
(-0.480724 0.000273272 0.36397)
(-0.518858 -0.0226575 0.382828)
(-0.55889 -0.0291196 0.378502)
(-0.594497 -0.016431 0.362826)
(-0.630504 0.00188853 0.346964)
(-0.654271 0.0185626 0.326467)
(-0.672812 0.0330402 0.303151)
(-0.688648 0.0456819 0.281378)
(-0.705166 0.0530693 0.255409)
(-0.733362 0.0484141 0.238942)
(-0.771685 0.0327059 0.2822)
(-0.81016 0.015016 0.343265)
(-0.833748 0.0103698 0.383909)
(-0.841336 0.00904039 0.411784)
(-0.855629 0.0129508 0.442712)
(-0.871683 0.0306039 0.481922)
(-0.876781 0.032001 0.507954)
(-0.873752 0.0180631 0.516808)
(-0.834569 0.00113935 0.473664)
(-0.754427 -0.0113791 0.385751)
(-0.64824 -0.00873434 0.279045)
(-0.537332 0.0314149 0.102737)
(-0.640076 0.0826686 -0.0779485)
(-0.602817 0.0955473 -0.252133)
(-0.752511 0.0477806 -0.459464)
(-0.844792 0.0456082 -0.534252)
(-0.855222 0.0897395 -0.574954)
(-0.945973 0.0734769 -0.559967)
(-1.06824 -0.00482779 -0.721267)
(-1.16986 -0.0599086 -0.863307)
(-1.36795 -0.164973 -0.863399)
(0.0800621 9.45779e-05 -0.000265518)
(0.0801594 0.000411172 -0.00160541)
(0.0800658 0.000739433 -0.00340861)
(0.0797965 0.00105085 -0.0042245)
(0.0796729 0.00143823 -0.00234509)
(0.0798768 0.00210464 0.00234024)
(0.0793161 0.00318106 0.00786992)
(0.0786982 0.00555078 0.0217962)
(0.0757208 0.00886065 0.0557313)
(0.0789743 0.0150457 0.202566)
(0.0791448 0.0212245 0.323908)
(0.0691692 0.020348 0.307897)
(0.0465663 0.00628531 0.207052)
(0.0318842 0.00482583 -0.0372034)
(0.0299864 -0.0250426 -0.34221)
(0.00429451 -0.0198462 -0.464528)
(-0.0208067 -0.0082724 -0.419984)
(-0.0431434 -0.000671196 -0.182627)
(-0.113257 -0.0052196 0.102931)
(-0.178168 -0.00944794 0.163578)
(-0.237767 -0.0131785 0.178622)
(-0.297897 -0.00405403 0.179697)
(-0.353601 0.0154187 0.194636)
(-0.410917 0.0279953 0.21912)
(-0.484609 0.0274186 0.255197)
(-0.559384 0.0235141 0.290073)
(-0.631965 0.0184241 0.322193)
(-0.697844 0.0174785 0.354813)
(-0.754583 0.0234414 0.389015)
(-0.809238 0.0136882 0.424876)
(-0.865005 -0.00647951 0.456125)
(-0.924616 -0.0124408 0.479651)
(-0.975523 -0.00178093 0.493845)
(-1.01269 0.013768 0.503451)
(-1.04218 0.0288729 0.510185)
(-1.06286 0.0413767 0.513655)
(-1.07341 0.0503555 0.514339)
(-1.0758 0.0516075 0.509359)
(-1.07091 0.0412962 0.489751)
(-1.05461 0.0281578 0.450774)
(-1.01323 0.0235231 0.388009)
(-0.944421 0.0317141 0.288733)
(-0.891375 0.0462464 0.181219)
(-0.914016 0.0537336 0.110385)
(-0.955806 0.080046 0.0688623)
(-0.962828 0.108003 -0.00931552)
(-0.958034 0.0758164 -0.120567)
(-0.962313 0.0321358 -0.219115)
(-0.983193 0.00723214 -0.287485)
(-1.02439 0.00530392 -0.343289)
(-1.05817 0.0335166 -0.424333)
(-1.06793 0.0792927 -0.554673)
(-1.10926 0.10996 -0.749657)
(-1.19228 0.0990199 -0.937697)
(-1.268 0.102367 -1.06978)
(-1.29408 0.166266 -1.15524)
(-1.32877 0.241551 -1.19217)
(-1.40831 0.281206 -1.20898)
(-1.51469 0.300576 -1.13891)
(-1.70303 0.210973 -0.94315)
(0.0800447 7.0472e-05 -0.000281387)
(0.0801024 5.9654e-05 -0.00175554)
(0.0799709 -5.72383e-05 -0.0039713)
(0.079773 -0.000116287 -0.00532836)
(0.0798436 9.50287e-05 -0.00419345)
(0.0802283 0.000808908 -0.000177656)
(0.0803361 0.00201175 0.00381308)
(0.0807159 0.0049897 0.0112957)
(0.0807666 0.00970777 0.0274924)
(0.0864824 0.0189605 0.115777)
(0.0942845 0.0244839 0.215549)
(0.09605 0.0196595 0.236284)
(0.0915477 0.0102019 0.196872)
(0.0741735 0.018902 0.102123)
(0.0696977 0.0125706 -0.110134)
(0.0261724 0.00611467 -0.406266)
(-0.0103953 0.00881178 -0.417459)
(-0.0153884 0.0224132 -0.367017)
(-0.0184694 0.0170708 -0.346897)
(-0.0279968 0.0239589 -0.272066)
(-0.0653284 0.0215058 -0.0362881)
(-0.140449 0.0145343 0.0741928)
(-0.200716 0.0238455 0.13163)
(-0.253887 0.041253 0.162214)
(-0.304941 0.0473509 0.184418)
(-0.356523 0.0470029 0.204606)
(-0.408758 0.0431879 0.223715)
(-0.45984 0.0420919 0.246343)
(-0.506996 0.0453594 0.268056)
(-0.548979 0.0339576 0.296249)
(-0.594485 0.015202 0.32674)
(-0.64343 0.00916349 0.349705)
(-0.68536 0.0160933 0.362663)
(-0.712068 0.0294228 0.367131)
(-0.725837 0.0431234 0.355865)
(-0.725103 0.0557474 0.326973)
(-0.708187 0.0665458 0.281483)
(-0.678234 0.0715906 0.21557)
(-0.659329 0.0631663 0.140905)
(-0.691744 0.0408978 0.0796435)
(-0.736967 0.0246297 0.0192217)
(-0.746514 0.0170716 -0.0440087)
(-0.760987 0.0126353 -0.10026)
(-0.789798 0.00504326 -0.154501)
(-0.805252 0.00425571 -0.208109)
(-0.800555 0.00794307 -0.276107)
(-0.802813 0.0002052 -0.360754)
(-0.824164 -0.0232542 -0.449917)
(-0.870662 -0.03188 -0.534063)
(-0.940046 -0.0257717 -0.62038)
(-1.00921 0.00332426 -0.740507)
(-1.06126 0.0539285 -0.883434)
(-1.11577 0.083398 -1.0569)
(-1.17816 0.0607837 -1.2189)
(-1.22152 0.0544709 -1.34185)
(-1.23344 0.11316 -1.42304)
(-1.23765 0.163244 -1.46903)
(-1.26285 0.175839 -1.52499)
(-1.33039 0.139883 -1.53048)
(-1.49217 -0.0180862 -1.4798)
(0.0800498 0.000113081 -0.000244742)
(0.0801202 0.000182586 -0.0016144)
(0.0800166 0.000353487 -0.00363313)
(0.0798733 0.000673708 -0.0049286)
(0.080058 0.00119474 -0.00472418)
(0.0806435 0.00200924 -0.00215892)
(0.0812789 0.00330524 0.000150047)
(0.0822708 0.00579996 0.00331923)
(0.0836302 0.009328 0.00932051)
(0.0904087 0.0165572 0.0545491)
(0.10363 0.0203373 0.122999)
(0.11317 0.0172473 0.153056)
(0.112856 0.00968387 0.152208)
(0.107335 0.0101214 0.138608)
(0.106983 0.0202348 0.0456698)
(0.0985475 0.019376 -0.0941385)
(0.0866387 0.0103376 -0.218837)
(0.0700663 0.013172 -0.305268)
(0.0601918 0.00670196 -0.439133)
(0.0400375 0.0198382 -0.527078)
(0.0368626 0.0318345 -0.345155)
(0.0117243 0.0378774 -0.195295)
(-0.0148972 0.0449076 -0.0455631)
(-0.0489017 0.053121 0.0365523)
(-0.0704476 0.0556392 0.0641486)
(-0.0859796 0.0531617 0.086117)
(-0.0999165 0.0471917 0.0975736)
(-0.111701 0.0442047 0.109492)
(-0.124284 0.0448041 0.101462)
(-0.129422 0.0400148 0.118247)
(-0.162722 0.0313563 0.165327)
(-0.212037 0.026003 0.208247)
(-0.247041 0.0269264 0.229168)
(-0.271843 0.0328315 0.245421)
(-0.293374 0.0403089 0.249193)
(-0.304699 0.043175 0.242814)
(-0.302889 0.0411593 0.242559)
(-0.291339 0.0332019 0.244556)
(-0.280349 0.0267618 0.248324)
(-0.27985 0.0326831 0.239994)
(-0.285896 0.0404127 0.222313)
(-0.284186 0.0376939 0.192508)
(-0.287742 0.0386224 0.149652)
(-0.301997 0.044744 0.114726)
(-0.322334 0.0647652 0.058821)
(-0.39578 0.083337 -0.0892504)
(-0.385034 0.0432261 -0.158396)
(-0.412571 0.00484841 -0.261447)
(-0.478684 -0.00667212 -0.403411)
(-0.567056 0.00633437 -0.49399)
(-0.64868 0.0342103 -0.609415)
(-0.714329 0.0855791 -0.740366)
(-0.784781 0.120891 -0.856063)
(-0.843913 0.0969292 -0.916389)
(-0.871164 0.0800236 -0.925608)
(-0.862703 0.126515 -0.90067)
(-0.820363 0.187065 -0.791429)
(-0.787912 0.237807 -0.695849)
(-0.884258 0.273895 -0.555214)
(-1.12965 0.162189 -0.32584)
(0.0800707 7.37856e-05 -0.000161791)
(0.0801887 -0.000166808 -0.00124877)
(0.0801627 -0.000417415 -0.00262311)
(0.0800832 -0.000503475 -0.00332408)
(0.0803498 -0.000290416 -0.00350076)
(0.0810711 0.000328921 -0.00218505)
(0.0820179 0.00147703 -0.00118576)
(0.0837124 0.00384467 -0.000981463)
(0.0867067 0.00736777 -0.000893702)
(0.093941 0.0140341 0.0135425)
(0.107518 0.0175065 0.0455302)
(0.120162 0.0146174 0.0673923)
(0.125919 0.0101961 0.071999)
(0.125834 0.0158047 0.0688532)
(0.12749 0.0168174 0.0540803)
(0.133281 0.0201253 0.00528306)
(0.138099 0.0228581 -0.0518314)
(0.139567 0.027551 -0.118878)
(0.138486 0.0254194 -0.19377)
(0.125304 0.0313304 -0.301206)
(0.1211 0.0318782 -0.346563)
(0.12172 0.038925 -0.333177)
(0.125411 0.0518976 -0.275356)
(0.13436 0.0584382 -0.217651)
(0.148718 0.0586577 -0.172834)
(0.167256 0.0547905 -0.12949)
(0.185017 0.0487103 -0.102677)
(0.201506 0.0433302 -0.0834571)
(0.22207 0.0376923 -0.0965638)
(0.231197 0.0371886 -0.115289)
(0.222158 0.0425249 -0.0876266)
(0.207064 0.0415355 -0.0558173)
(0.194924 0.0363541 -0.0198325)
(0.166788 0.0388615 0.0368822)
(0.144564 0.0436042 0.0771633)
(0.140673 0.0434441 0.0856534)
(0.144407 0.0413547 0.0907929)
(0.148571 0.0378995 0.0982309)
(0.150812 0.032721 0.112739)
(0.147595 0.0311253 0.136975)
(0.151662 0.0374719 0.177788)
(0.174721 0.0411539 0.209516)
(0.191671 0.046619 0.23401)
(0.194762 0.037645 0.28387)
(0.197243 0.0185575 0.33759)
(0.180956 0.00733391 0.331817)
(0.157439 -0.00523087 0.301481)
(0.103591 -0.0119919 0.282306)
(-0.12076 0.020697 -0.0891927)
(-0.0692829 0.00543639 -0.187663)
(-0.126129 0.0213825 -0.327438)
(-0.151682 0.0602122 -0.520243)
(-0.175528 0.0873449 -0.731904)
(-0.106696 0.0488904 -1.11501)
(-0.154576 0.0159019 -1.40559)
(-0.187793 0.0295976 -1.38936)
(-0.205039 0.0391866 -1.26586)
(-0.130013 -0.0277164 -1.30425)
(-0.114597 -0.107672 -0.600815)
(-0.189449 0.0118843 0.331011)
(0.079886 0.000484982 -6.6496e-05)
(0.0798627 0.000904497 -0.00124484)
(0.07983 0.00117291 -0.00291712)
(0.0798532 0.00137188 -0.00401669)
(0.0802907 0.00166593 -0.00531077)
(0.0811897 0.00211265 -0.0055214)
(0.0823295 0.00283108 -0.0058158)
(0.0843129 0.0042327 -0.00735029)
(0.0879645 0.00642858 -0.00936538)
(0.0958855 0.0104705 -0.00916677)
(0.109175 0.0124049 -0.000444791)
(0.122152 0.0102075 0.00678085)
(0.129751 0.00661582 0.00776796)
(0.134916 0.00741625 0.00892089)
(0.142754 0.0114221 0.00972859)
(0.152376 0.0137976 0.00376739)
(0.162664 0.0154525 -0.00928707)
(0.174642 0.0180449 -0.0378797)
(0.185527 0.0172024 -0.0829995)
(0.193361 0.0238178 -0.146617)
(0.203511 0.0276103 -0.201887)
(0.214161 0.03264 -0.246009)
(0.23267 0.0419018 -0.275326)
(0.263412 0.0492875 -0.289611)
(0.299024 0.0512946 -0.297112)
(0.336306 0.0486263 -0.295961)
(0.370012 0.0437709 -0.294198)
(0.398779 0.040316 -0.288696)
(0.420683 0.0388007 -0.2887)
(0.435426 0.0385865 -0.291788)
(0.45024 0.0384792 -0.275691)
(0.465837 0.0382821 -0.258376)
(0.481112 0.0379679 -0.239471)
(0.490967 0.0380179 -0.208236)
(0.503861 0.0367945 -0.177617)
(0.52774 0.0320427 -0.166678)
(0.553648 0.0254147 -0.164828)
(0.567903 0.020817 -0.163162)
(0.565333 0.0217573 -0.153335)
(0.552035 0.0252079 -0.124154)
(0.537141 0.0248451 -0.0851207)
(0.530066 0.0222591 -0.04743)
(0.515872 0.0274555 -0.0030961)
(0.57141 0.0339397 0.0389387)
(0.627835 0.0367181 0.0624299)
(0.667007 0.0243699 0.0554324)
(0.685451 -0.000499153 0.0291555)
(0.641612 0.00299867 0.0140329)
(0.539312 -0.00120762 -0.0102031)
(0.447594 0.000210964 -0.00903102)
(0.287766 0.0227686 -0.0170825)
(0.350783 0.0617378 -0.109912)
(0.454184 0.073831 -0.261821)
(0.504225 0.0497102 -0.410323)
(0.5053 0.0526274 -0.599179)
(0.528607 0.0732954 -0.915598)
(0.565518 0.0904085 -1.07827)
(0.652526 0.0506739 -1.30551)
(0.563543 0.00466332 -1.14907)
(0.504317 -0.0196865 -1.07773)
(0.0802239 -0.00202202 -4.58442e-05)
(0.0802648 -0.00245937 -0.00064166)
(0.080157 -0.00234938 -0.00126286)
(0.0800922 -0.00208751 -0.00147346)
(0.0805021 -0.00166778 -0.00247392)
(0.0814411 -0.00111329 -0.00321854)
(0.0827159 -0.000372628 -0.00458048)
(0.0848212 0.000866915 -0.00845961)
(0.0887464 0.00265207 -0.0141188)
(0.0965838 0.00553324 -0.0214712)
(0.108976 0.00705968 -0.0266861)
(0.121611 0.00614429 -0.0323785)
(0.130016 0.00440112 -0.0408321)
(0.13648 0.00514798 -0.0492067)
(0.145478 0.00698046 -0.0528649)
(0.157331 0.00922089 -0.0490643)
(0.172015 0.0119291 -0.0395526)
(0.190607 0.0153375 -0.0336974)
(0.210726 0.0175794 -0.0380187)
(0.232663 0.0221834 -0.0558882)
(0.258378 0.0224349 -0.0859068)
(0.284776 0.0243145 -0.121363)
(0.317093 0.028951 -0.160889)
(0.359111 0.0323449 -0.197368)
(0.405162 0.0335076 -0.22931)
(0.45072 0.032348 -0.254219)
(0.49137 0.0298272 -0.27409)
(0.526573 0.0278615 -0.287906)
(0.557345 0.0259468 -0.301275)
(0.587136 0.0249336 -0.317511)
(0.62015 0.0248674 -0.324862)
(0.654721 0.0245662 -0.332023)
(0.688558 0.0233044 -0.335905)
(0.722325 0.0221647 -0.329453)
(0.757479 0.0229017 -0.321041)
(0.790428 0.0224732 -0.318925)
(0.815833 0.0207636 -0.319153)
(0.833259 0.0190367 -0.319679)
(0.848321 0.0193301 -0.317011)
(0.867734 0.0224273 -0.305057)
(0.894164 0.026026 -0.291021)
(0.927122 0.0280939 -0.27929)
(0.96464 0.0253849 -0.269929)
(0.999154 0.0137113 -0.263326)
(1.01134 -0.00173364 -0.261412)
(0.996479 -0.0127231 -0.260222)
(0.965441 -0.015942 -0.263122)
(0.931214 -0.00738919 -0.274205)
(0.911465 0.00142224 -0.287695)
(0.898314 0.00693028 -0.281352)
(0.882166 0.0239672 -0.252505)
(0.898823 0.0565303 -0.229774)
(0.965388 0.0655014 -0.251764)
(1.02568 0.0368148 -0.341732)
(1.04686 0.0225059 -0.48683)
(1.09167 0.0306956 -0.677647)
(1.16147 0.0295421 -0.807378)
(1.24301 0.00622104 -0.993414)
(1.2282 -0.0316172 -1.01532)
(1.21048 0.00684645 -1.06806)
(0.080048 0.00543873 0.000135616)
(0.0804831 0.00396759 -0.00053536)
(0.0802821 0.00313559 -0.00105727)
(0.0799628 0.00260604 -0.000968439)
(0.0800608 0.00228328 -0.00166352)
(0.0806894 0.00207667 -0.00197226)
(0.0817545 0.0019712 -0.00252159)
(0.0837835 0.00204106 -0.00505515)
(0.0877482 0.00224569 -0.00895343)
(0.0955471 0.00267379 -0.0158897)
(0.107606 0.00276456 -0.0230185)
(0.1201 0.00218359 -0.0289406)
(0.128929 0.00140484 -0.0345312)
(0.136065 0.00149322 -0.0387366)
(0.145605 0.00185794 -0.0413492)
(0.158154 0.00218286 -0.039034)
(0.174182 0.00301159 -0.030743)
(0.195119 0.0040489 -0.0218443)
(0.219424 0.00440857 -0.0172457)
(0.249173 0.00625219 -0.0163721)
(0.285009 0.0075211 -0.0198424)
(0.323957 0.00900977 -0.0270622)
(0.369981 0.0107937 -0.0392524)
(0.424199 0.0120182 -0.0555323)
(0.481728 0.0126328 -0.0734971)
(0.538181 0.0126645 -0.0890476)
(0.590288 0.0123979 -0.100492)
(0.637832 0.0124841 -0.106607)
(0.681136 0.0121493 -0.111945)
(0.72072 0.0103643 -0.120029)
(0.758748 0.00810174 -0.124619)
(0.795539 0.00681909 -0.131643)
(0.830394 0.00576525 -0.140459)
(0.8651 0.00461975 -0.149902)
(0.902253 0.00565211 -0.160064)
(0.940929 0.00741973 -0.170784)
(0.976918 0.00801838 -0.179781)
(1.00728 0.00690968 -0.188719)
(1.03386 0.00553815 -0.198248)
(1.06194 0.00552956 -0.202804)
(1.09462 0.00713284 -0.204219)
(1.13242 0.00949767 -0.203174)
(1.17364 0.0100973 -0.200955)
(1.20713 0.00642888 -0.197065)
(1.2183 6.56987e-05 -0.194286)
(1.20594 -0.00706991 -0.194412)
(1.17732 -0.013825 -0.195289)
(1.14306 -0.0159027 -0.198616)
(1.11817 -0.0141101 -0.205184)
(1.10283 -0.00886813 -0.201287)
(1.09927 0.00204147 -0.194124)
(1.14185 0.0168694 -0.194909)
(1.22903 0.0198542 -0.217741)
(1.29778 0.0156758 -0.27455)
(1.34286 0.0224865 -0.357141)
(1.42282 0.0298247 -0.474715)
(1.52372 0.0301393 -0.553798)
(1.63033 0.0234983 -0.670802)
(1.635 0.0113378 -0.671562)
(1.65265 -0.0167196 -0.833441)
(0.0800252 -0.0053804 -0.000352583)
(0.0804025 -0.00378805 -0.00135359)
(0.0800979 -0.00279087 -0.00277712)
(0.0795043 -0.0021205 -0.00315058)
(0.0788539 -0.00177533 -0.000806679)
(0.0781865 -0.00157188 0.00408633)
(0.076498 -0.00118718 0.00996376)
(0.0745763 -0.000682321 0.0235582)
(0.0674128 9.17689e-05 0.0342904)
(0.0681072 -0.00189205 0.0653956)
(0.083754 -0.00756651 0.0966023)
(0.0995759 -0.00436915 0.0889123)
(0.0987466 0.00148316 0.0599105)
(0.0907911 0.00304828 0.0652215)
(0.0979222 0.00405629 0.0971214)
(0.117605 -0.00238851 0.119087)
(0.133019 -0.00674015 0.121103)
(0.150092 -0.0113084 0.127235)
(0.169411 -0.00374066 0.156755)
(0.191127 -0.000298892 0.200952)
(0.22104 -0.00164637 0.23657)
(0.243319 -0.00232937 0.278025)
(0.269852 -0.00137937 0.319118)
(0.311394 -0.00111854 0.3232)
(0.359458 -9.06552e-05 0.313185)
(0.406957 0.000991237 0.295465)
(0.44651 0.00323384 0.253535)
(0.463407 0.00149556 0.194889)
(0.469319 -0.0114233 0.153029)
(0.518497 -0.0279719 0.138661)
(0.612 -0.0280123 0.143594)
(0.700231 -0.0148405 0.147407)
(0.751827 -0.00134278 0.139893)
(0.769771 0.00630285 0.121423)
(0.76774 0.00872936 0.0971681)
(0.754015 0.00903621 0.0693771)
(0.734816 0.00850437 0.0413181)
(0.72774 0.0048717 0.00896318)
(0.723631 -0.00457688 -0.0237094)
(0.753326 -0.0208968 -0.0475851)
(0.822531 -0.0290071 -0.059164)
(0.912112 -0.0223006 -0.0725773)
(0.985686 -0.0079347 -0.101012)
(1.00279 0.00145443 -0.132835)
(0.967412 0.00432446 -0.152032)
(0.922014 0.0016081 -0.152322)
(0.881259 -0.00331152 -0.141542)
(0.854983 -0.00965123 -0.143471)
(0.854617 -0.0108816 -0.195498)
(0.875882 -0.00719896 -0.228122)
(0.888206 -0.00217837 -0.230825)
(0.896141 -0.00606189 -0.208285)
(0.94947 -0.0411975 -0.200121)
(1.05844 -0.0456725 -0.207136)
(1.12887 -0.0415025 -0.207258)
(1.20287 -0.080508 -0.255476)
(1.23779 -0.106074 -0.228763)
(1.09204 -0.0957649 -0.0326095)
(1.23153 -0.0917864 0.290318)
(1.35567 -0.0477215 0.238676)
(0.0801986 0.00210788 -0.000140074)
(0.0801811 0.00252504 -0.00102996)
(0.0799677 0.00237371 -0.00257985)
(0.0796438 0.00219461 -0.0034438)
(0.0794272 0.0021221 -0.00143857)
(0.0791784 0.00229131 0.00393872)
(0.0776305 0.00257246 0.0125451)
(0.0753606 0.00329774 0.0375266)
(0.0666275 0.00342082 0.092757)
(0.0673593 0.000690499 0.295153)
(0.0448917 0.00260958 0.498251)
(-0.00335696 0.0024653 0.475241)
(-0.0141187 0.00635566 0.322885)
(-0.00881528 -0.0055996 0.262164)
(0.0375158 -0.0123204 0.0913965)
(0.064901 -0.00810893 0.128212)
(0.0680639 -0.00218723 0.237561)
(0.0706097 -0.00312879 0.294117)
(0.0855332 -0.0108538 0.445348)
(0.106566 -0.0201253 0.576319)
(0.121948 -0.0183001 0.621905)
(0.137436 -0.0140813 0.570645)
(0.150741 -0.023836 0.465527)
(0.167436 -0.0358594 0.345216)
(0.184812 -0.0398026 0.267956)
(0.20515 -0.038231 0.222398)
(0.218376 -0.0344728 0.156489)
(0.216163 -0.0253379 0.0776222)
(0.220326 -0.0121315 0.036141)
(0.216866 -0.0166719 0.105091)
(0.203783 -0.0386263 0.184561)
(0.207317 -0.0474771 0.220913)
(0.222288 -0.0405059 0.230558)
(0.248262 -0.0271084 0.213321)
(0.263702 -0.0152656 0.168824)
(0.255404 -0.00842451 0.118118)
(0.244093 -0.00512907 0.0706521)
(0.260607 -0.0105991 0.00399858)
(0.307245 -0.0045385 -0.0399399)
(0.388418 -0.0111526 -0.050068)
(0.439677 -0.0132425 -0.041127)
(0.452544 -0.00688752 -0.01797)
(0.481459 0.00584633 -0.0361593)
(0.391941 0.0258497 -0.142232)
(0.313084 0.0342999 -0.24236)
(0.260258 0.0366289 -0.267349)
(0.2006 0.0304461 -0.231197)
(0.169072 0.0237035 -0.215889)
(0.137598 0.00718814 -0.338709)
(0.195751 -0.00126404 -0.447886)
(0.189192 0.00345612 -0.471803)
(0.204398 0.0120413 -0.0978292)
(0.225599 0.0166755 0.166462)
(0.301106 0.0094032 -0.0617633)
(0.358897 0.0295131 -0.0729375)
(0.317525 0.0827601 -0.466837)
(0.0703985 0.0877608 0.891577)
(-0.0126829 0.126064 1.48205)
(0.0195508 0.153004 0.926649)
(0.00456114 -0.00236184 -0.501057)
(0.0798442 -0.000378387 -0.000297319)
(0.0797404 -0.000800188 -0.00205529)
(0.07965 -0.00101565 -0.00480407)
(0.0795885 -0.000957881 -0.00652016)
(0.079666 -0.000715563 -0.00470273)
(0.0796602 -0.00016441 0.000974874)
(0.0788111 0.000920267 0.00886561)
(0.0778493 0.00357675 0.0276803)
(0.0739446 0.00680732 0.0696487)
(0.0752519 0.0126736 0.228262)
(0.0606749 0.0209665 0.385799)
(0.0346137 0.0152268 0.377704)
(-0.00568936 0.00475646 0.154734)
(0.0103117 -0.0164046 -0.0478626)
(0.0315995 -0.0139095 -0.261076)
(0.0452563 -0.0104102 -0.287367)
(0.0510146 -0.0076481 -0.184064)
(0.0556079 -0.0205168 -0.0803598)
(0.0642605 -0.0150987 0.0420137)
(0.0676292 -0.0123725 0.277054)
(0.0595016 -0.0175073 0.301978)
(0.0664015 -0.0234146 0.205775)
(0.0507921 -0.0202188 0.180864)
(-0.0399328 -0.0136184 0.166744)
(-0.139882 -0.0116726 0.187829)
(-0.232829 -0.0100389 0.210576)
(-0.318211 -0.0108146 0.236249)
(-0.397406 -0.00447205 0.275223)
(-0.448898 0.00814664 0.325755)
(-0.477116 0.00218156 0.363859)
(-0.511913 -0.0219415 0.382299)
(-0.552408 -0.0334158 0.377791)
(-0.589459 -0.0240805 0.36158)
(-0.624405 -0.00584542 0.344205)
(-0.6479 0.0123724 0.322923)
(-0.661772 0.0293093 0.297984)
(-0.674787 0.046541 0.274563)
(-0.691138 0.060891 0.247811)
(-0.719845 0.0606577 0.232408)
(-0.763807 0.0470488 0.280307)
(-0.795099 0.0280016 0.34205)
(-0.815142 0.0188293 0.382753)
(-0.826006 0.0161627 0.410424)
(-0.84368 0.0209314 0.440513)
(-0.85858 0.0379961 0.477397)
(-0.864374 0.0381524 0.502948)
(-0.863687 0.0249503 0.510409)
(-0.826954 0.0095659 0.465052)
(-0.755585 -0.00157687 0.372368)
(-0.665052 0.00529363 0.258984)
(-0.591344 0.0460846 0.084802)
(-0.588896 0.0700247 -0.0604817)
(-0.586367 0.0802409 -0.243851)
(-0.746743 0.038294 -0.451662)
(-0.834465 0.0400525 -0.530945)
(-0.830159 0.0960448 -0.576712)
(-0.900641 0.0751371 -0.575809)
(-1.01123 0.0199939 -0.728702)
(-1.10646 -0.0556826 -0.867865)
(-1.34066 -0.176074 -0.873028)
(0.0800506 9.22474e-05 -0.000256454)
(0.0801341 0.000406879 -0.00158781)
(0.0800898 0.000744036 -0.00339112)
(0.079936 0.00106294 -0.00421026)
(0.0799238 0.00139221 -0.00233053)
(0.080055 0.0019841 0.00234808)
(0.0795399 0.00307602 0.00785608)
(0.0788662 0.00547193 0.021697)
(0.0757808 0.00893315 0.0548798)
(0.0788229 0.015203 0.200359)
(0.0791477 0.0216062 0.323651)
(0.0693657 0.0208822 0.309779)
(0.0465329 0.00684354 0.209407)
(0.0307709 0.000998074 -0.0473306)
(0.029207 -0.0258582 -0.345022)
(0.00377449 -0.0202182 -0.463691)
(-0.0210339 -0.00844525 -0.41992)
(-0.0429343 -0.000841846 -0.186478)
(-0.114773 -0.00425406 0.106832)
(-0.179539 -0.00904152 0.166046)
(-0.239037 -0.013334 0.180418)
(-0.299045 -0.00555936 0.181237)
(-0.35462 0.0138554 0.195784)
(-0.410696 0.0269541 0.220296)
(-0.484194 0.0260082 0.256906)
(-0.559003 0.0213055 0.292143)
(-0.631946 0.014867 0.324425)
(-0.698906 0.0127447 0.357006)
(-0.755845 0.0209256 0.390896)
(-0.809594 0.0148375 0.426699)
(-0.864279 -0.00636371 0.45801)
(-0.922143 -0.0165277 0.481063)
(-0.973101 -0.00921494 0.495044)
(-1.0103 0.00553742 0.504247)
(-1.03724 0.0216803 0.509609)
(-1.05472 0.0374377 0.511209)
(-1.06214 0.0517777 0.509448)
(-1.06171 0.0599501 0.501175)
(-1.05506 0.0560005 0.47767)
(-1.0371 0.0446569 0.435182)
(-0.993348 0.0381774 0.369943)
(-0.929795 0.0431379 0.272003)
(-0.896791 0.0534175 0.174846)
(-0.930135 0.0604371 0.119031)
(-0.958331 0.0815252 0.0754331)
(-0.953485 0.0883325 -0.0145959)
(-0.942991 0.0507974 -0.122619)
(-0.939542 0.0106401 -0.21413)
(-0.952553 -0.0132768 -0.277443)
(-0.989927 -0.018283 -0.332047)
(-1.03516 0.00974173 -0.412935)
(-1.05854 0.0624269 -0.54406)
(-1.10199 0.0975489 -0.737331)
(-1.17822 0.0899902 -0.926528)
(-1.2493 0.099684 -1.06134)
(-1.27479 0.165889 -1.15156)
(-1.30745 0.240821 -1.19517)
(-1.37556 0.289452 -1.2137)
(-1.46938 0.293533 -1.14638)
(-1.66977 0.180741 -0.952693)
(0.0800315 6.89322e-05 -0.000279942)
(0.0800691 3.46169e-05 -0.00175936)
(0.0799852 -9.85063e-05 -0.00398156)
(0.0798998 -0.000153917 -0.00534015)
(0.0800641 -1.67213e-05 -0.00420927)
(0.0804265 0.000569131 -0.00020635)
(0.0805094 0.00179975 0.00379088)
(0.0808698 0.00472564 0.0112327)
(0.0807925 0.00948092 0.0270785)
(0.0862826 0.0188673 0.11424)
(0.0941446 0.0247272 0.21497)
(0.0959956 0.0202717 0.237289)
(0.0912674 0.0109834 0.198369)
(0.0741446 0.0206611 0.103164)
(0.0680319 0.0108447 -0.117727)
(0.0251097 0.00552053 -0.408056)
(-0.0109735 0.00839458 -0.417384)
(-0.0162795 0.0218583 -0.368648)
(-0.0196182 0.0169941 -0.347371)
(-0.0290005 0.0242788 -0.274016)
(-0.067432 0.0229631 -0.0368578)
(-0.139452 0.0148454 0.0758133)
(-0.200875 0.0227711 0.133898)
(-0.254336 0.040116 0.16459)
(-0.305201 0.0458272 0.186572)
(-0.356761 0.0446603 0.206708)
(-0.409127 0.0397444 0.225904)
(-0.461088 0.038266 0.248664)
(-0.509008 0.0441173 0.270648)
(-0.549326 0.0356129 0.298006)
(-0.591644 0.0149892 0.326876)
(-0.639333 0.00462736 0.34909)
(-0.680359 0.00815922 0.361199)
(-0.708137 0.0198835 0.365028)
(-0.722575 0.0337612 0.352829)
(-0.722042 0.0484091 0.323489)
(-0.707028 0.0624909 0.278954)
(-0.686937 0.0703508 0.217922)
(-0.689842 0.0630835 0.153385)
(-0.724968 0.0447438 0.0951951)
(-0.740736 0.0331672 0.0305498)
(-0.721261 0.0261926 -0.0384873)
(-0.738666 0.0222326 -0.0943766)
(-0.775217 0.0109549 -0.149953)
(-0.80078 0.000592002 -0.206411)
(-0.794229 -0.0101157 -0.274888)
(-0.789699 -0.0207581 -0.352884)
(-0.808865 -0.0398895 -0.437973)
(-0.852092 -0.0513822 -0.521823)
(-0.917539 -0.0484735 -0.607087)
(-0.988086 -0.0213821 -0.728256)
(-1.04608 0.0322375 -0.873013)
(-1.10291 0.0671694 -1.04688)
(-1.1611 0.0467052 -1.20797)
(-1.19938 0.0429926 -1.33065)
(-1.20785 0.10138 -1.41288)
(-1.2092 0.15136 -1.45982)
(-1.23135 0.164242 -1.51679)
(-1.29246 0.113768 -1.52645)
(-1.45149 -0.0508591 -1.48309)
(0.0800367 0.000118198 -0.00024287)
(0.0800904 0.000185077 -0.00161688)
(0.0800345 0.000373747 -0.00364171)
(0.0799803 0.000704094 -0.00493925)
(0.0802281 0.00111857 -0.00473813)
(0.0807657 0.00176298 -0.00218795)
(0.0813285 0.0029215 0.000102586)
(0.0823577 0.00532857 0.00323962)
(0.0837889 0.00898091 0.00910585)
(0.0903247 0.0164692 0.0536457)
(0.103409 0.0205984 0.122395)
(0.113008 0.0178206 0.153402)
(0.112672 0.0105995 0.152886)
(0.107172 0.0119961 0.13924)
(0.107536 0.0221965 0.0456522)
(0.0979501 0.0185362 -0.0953345)