/*--------------------------------*- C++ -*----------------------------------*\
  =========                 |
  \\      /  F ield         | OpenFOAM: The Open Source CFD Toolbox
   \\    /   O peration     | Website:  https://openfoam.org
    \\  /    A nd           | Version:  8
     \\/     M anipulation  |
\*---------------------------------------------------------------------------*/
FoamFile
{
    version     2.0;
    format      ascii;
    class       volScalarField;
    location    "1000";
    object      p;
}
// * * * * * * * * * * * * * * * * * * * * * * * * * * * * * * * * * * * * * //

dimensions      [1 -1 -2 0 0 0 0];

internalField   nonuniform List<scalar> 
1200
(
461.94
254.158
166.236
135.932
115.749
98.8226
85.1898
73.8823
64.0673
55.3615
47.5548
40.5024
34.0963
28.2443
22.8686
17.9066
13.3092
9.03406
5.04108
1.29621
-2.22815
-5.55837
-8.72098
-11.7382
-14.6252
-17.3979
-20.0739
-22.666
-25.1843
-27.6403
-30.0441
-32.4031
-34.7251
-37.017
-39.284
-41.5306
-43.7616
-45.9825
-48.1979
-50.4099
-52.6209
-54.8343
-57.0511
-59.273
-61.5028
-63.744
-65.9988
-68.2664
-70.5459
-72.8394
-75.1497
-77.4774
-79.8226
-82.1848
-84.5643
-86.9646
-89.3927
-91.8689
-94.4342
-97.7783
-175.439
-149.979
-143.634
-137.717
-136.728
-139.55
-143.772
-148.484
-153.386
-158.278
-163.042
-167.617
-171.973
-176.109
-180.038
-183.773
-187.328
-190.715
-193.95
-197.048
-200.021
-202.882
-205.643
-208.318
-210.913
-213.438
-215.902
-218.314
-220.68
-223.006
-225.3
-227.567
-229.81
-232.037
-234.249
-236.449
-238.642
-240.832
-243.021
-245.212
-247.407
-249.607
-251.816
-254.033
-256.26
-258.5
-260.754
-263.023
-265.304
-267.6
-269.913
-272.244
-274.592
-276.958
-279.341
-281.744
-284.171
-286.633
-289.144
-291.828
-299.193
-241.502
-234.97
-248.185
-263.272
-277.933
-291.685
-304.217
-315.504
-325.656
-334.81
-343.078
-350.558
-357.346
-363.532
-369.192
-374.389
-379.179
-383.611
-387.731
-391.577
-395.181
-398.577
-401.79
-404.843
-407.755
-410.548
-413.236
-415.834
-418.355
-420.812
-423.213
-425.568
-427.885
-430.171
-432.432
-434.672
-436.899
-439.118
-441.33
-443.54
-445.751
-447.965
-450.185
-452.411
-454.649
-456.899
-459.161
-461.434
-463.722
-466.026
-468.347
-470.685
-473.04
-475.412
-477.802
-480.212
-482.638
-485.053
-487.308
-493.87
-471.524
-478.169
-495.857
-509.697
-519.972
-528.577
-536.022
-542.51
-548.287
-553.542
-558.386
-562.883
-567.087
-571.04
-574.777
-578.322
-581.692
-584.907
-587.985
-590.939
-593.784
-596.531
-599.191
-601.773
-604.285
-606.739
-609.14
-611.495
-613.811
-616.095
-618.351
-620.585
-622.801
-625.004
-627.196
-629.381
-631.564
-633.746
-635.93
-638.119
-640.313
-642.514
-644.723
-646.941
-649.173
-651.418
-653.677
-655.95
-658.238
-660.544
-662.867
-665.208
-667.566
-669.942
-672.335
-674.744
-677.156
-679.533
-681.686
-685.442
-666.013
-662.518
-671.982
-682.078
-691.421
-700.897
-710.196
-718.924
-726.999
-734.446
-741.299
-747.594
-753.379
-758.711
-763.64
-768.212
-772.466
-776.438
-780.163
-783.671
-786.988
-790.138
-793.14
-796.013
-798.773
-801.435
-804.012
-806.516
-808.957
-811.344
-813.686
-815.991
-818.266
-820.516
-822.747
-824.963
-827.17
-829.371
-831.569
-833.768
-835.969
-838.175
-840.387
-842.608
-844.84
-847.084
-849.342
-851.612
-853.898
-856.201
-858.521
-860.858
-863.212
-865.584
-867.972
-870.373
-872.769
-875.107
-877.151
-880.618
-861.19
-857.698
-867.165
-877.264
-886.607
-896.079
-905.372
-914.098
-922.173
-929.618
-936.469
-942.764
-948.551
-953.883
-958.813
-963.387
-967.642
-971.614
-975.34
-978.848
-982.166
-985.316
-988.319
-991.191
-993.952
-996.614
-999.19
-1001.69
-1004.13
-1006.52
-1008.86
-1011.17
-1013.44
-1015.69
-1017.92
-1020.14
-1022.35
-1024.55
-1026.75
-1028.95
-1031.15
-1033.35
-1035.57
-1037.79
-1040.02
-1042.26
-1044.52
-1046.79
-1049.08
-1051.38
-1053.7
-1056.03
-1058.38
-1060.75
-1063.14
-1065.54
-1067.94
-1070.28
-1072.32
-1079.4
-1057.05
-1063.69
-1081.38
-1095.22
-1105.5
-1114.11
-1121.55
-1128.04
-1133.82
-1139.08
-1143.92
-1148.42
-1152.62
-1156.58
-1160.31
-1163.86
-1167.23
-1170.44
-1173.52
-1176.47
-1179.32
-1182.06
-1184.72
-1187.3
-1189.82
-1192.27
-1194.67
-1197.02
-1199.34
-1201.63
-1203.88
-1206.11
-1208.33
-1210.53
-1212.72
-1214.91
-1217.09
-1219.27
-1221.45
-1223.64
-1225.83
-1228.03
-1230.24
-1232.46
-1234.7
-1236.94
-1239.2
-1241.47
-1243.76
-1246.07
-1248.39
-1250.73
-1253.09
-1255.46
-1257.86
-1260.27
-1262.68
-1265.06
-1267.22
-1275.08
-1217.39
-1210.87
-1224.08
-1239.17
-1253.83
-1267.57
-1280.08
-1291.36
-1301.52
-1310.67
-1318.94
-1326.43
-1333.22
-1339.41
-1345.07
-1350.27
-1355.06
-1359.49
-1363.61
-1367.45
-1371.06
-1374.45
-1377.66
-1380.71
-1383.62
-1386.42
-1389.1
-1391.7
-1394.22
-1396.68
-1399.08
-1401.43
-1403.75
-1406.04
-1408.3
-1410.54
-1412.76
-1414.98
-1417.19
-1419.4
-1421.61
-1423.83
-1426.04
-1428.27
-1430.51
-1432.75
-1435.02
-1437.29
-1439.58
-1441.88
-1444.2
-1446.54
-1448.9
-1451.27
-1453.67
-1456.08
-1458.5
-1460.92
-1463.18
-1541.67
-1516.21
-1509.87
-1503.96
-1502.98
-1505.81
-1510.02
-1514.72
-1519.62
-1524.52
-1529.28
-1533.84
-1538.2
-1542.34
-1546.27
-1550.01
-1553.56
-1556.95
-1560.18
-1563.28
-1566.25
-1569.11
-1571.87
-1574.54
-1577.13
-1579.66
-1582.12
-1584.53
-1586.9
-1589.23
-1591.52
-1593.79
-1596.03
-1598.25
-1600.46
-1602.66
-1604.85
-1607.04
-1609.23
-1611.42
-1613.61
-1615.81
-1618.01
-1620.23
-1622.45
-1624.69
-1626.94
-1629.21
-1631.49
-1633.79
-1636.1
-1638.43
-1640.78
-1643.15
-1645.53
-1647.94
-1650.37
-1652.83
-1655.35
-1658.04
-1294.67
-1502.39
-1590.33
-1620.64
-1640.82
-1657.75
-1671.37
-1682.67
-1692.48
-1701.2
-1709
-1716.05
-1722.46
-1728.32
-1733.7
-1738.66
-1743.26
-1747.53
-1751.52
-1755.27
-1758.79
-1762.12
-1765.28
-1768.29
-1771.18
-1773.95
-1776.62
-1779.21
-1781.73
-1784.19
-1786.59
-1788.95
-1791.27
-1793.56
-1795.83
-1798.07
-1800.3
-1802.53
-1804.74
-1806.95
-1809.16
-1811.37
-1813.59
-1815.82
-1818.05
-1820.29
-1822.55
-1824.81
-1827.09
-1829.39
-1831.7
-1834.03
-1836.37
-1838.74
-1841.12
-1843.52
-1845.95
-1848.43
-1851
-1854.36
461.299
254.082
166.161
135.867
115.741
98.8385
85.2312
73.9558
64.1495
55.431
47.6164
40.5585
34.1367
28.2647
22.875
17.9085
13.3113
9.03634
5.04563
1.30478
-2.21885
-5.55244
-8.71663
-11.731
-14.6174
-17.3929
-20.0693
-22.6601
-25.1786
-27.6342
-30.0357
-32.3924
-34.7116
-36.9997
-39.2634
-41.5088
-43.7406
-45.9618
-48.1752
-50.3854
-52.5961
-54.8085
-57.0251
-59.2495
-61.4828
-63.7247
-65.9764
-68.2412
-70.522
-72.8186
-75.1299
-77.4571
-79.801
-82.1636
-84.5458
-86.9479
-89.3732
-91.8427
-94.4044
-97.7545
-175.51
-150.013
-143.755
-137.811
-136.753
-139.543
-143.743
-148.431
-153.328
-158.235
-163.008
-167.588
-171.96
-176.117
-180.063
-183.806
-187.364
-190.753
-193.989
-197.086
-200.059
-202.922
-205.685
-208.357
-210.951
-213.478
-215.944
-218.355
-220.722
-223.048
-225.341
-227.607
-229.849
-232.072
-234.282
-236.482
-238.676
-240.866
-243.053
-245.242
-247.435
-249.634
-251.842
-254.061
-256.291
-258.531
-260.782
-263.047
-265.33
-267.628
-269.942
-272.272
-274.619
-276.985
-279.371
-281.776
-284.201
-286.656
-289.163
-291.845
-299.315
-241.825
-235.385
-248.533
-263.508
-278.082
-291.772
-304.254
-315.511
-325.653
-334.794
-343.052
-350.534
-357.334
-363.532
-369.199
-374.4
-379.195
-383.631
-387.753
-391.6
-395.208
-398.604
-401.815
-404.867
-407.781
-410.573
-413.261
-415.86
-418.382
-420.837
-423.238
-425.593
-427.908
-430.193
-432.454
-434.696
-436.923
-439.14
-441.35
-443.558
-445.767
-447.98
-450.201
-452.429
-454.667
-456.913
-459.172
-461.447
-463.737
-466.042
-468.362
-470.7
-473.055
-475.43
-477.822
-480.23
-482.65
-485.06
-487.314
-493.959
-471.633
-478.262
-495.895
-509.671
-519.916
-528.517
-535.963
-542.458
-548.247
-553.507
-558.35
-562.854
-567.072
-571.041
-574.788
-578.339
-581.716
-584.938
-588.019
-590.975
-593.82
-596.565
-599.221
-601.8
-604.312
-606.763
-609.163
-611.517
-613.833
-616.117
-618.374
-620.608
-622.824
-625.027
-627.22
-629.407
-631.59
-633.771
-635.953
-638.139
-640.331
-642.529
-644.738
-646.958
-649.188
-651.43
-653.687
-655.961
-658.251
-660.557
-662.88
-665.22
-667.58
-669.957
-672.353
-674.76
-677.166
-679.537
-681.689
-685.529
-666.139
-662.685
-672.127
-682.156
-691.449
-700.913
-710.211
-718.934
-727.002
-734.438
-741.277
-747.565
-753.354
-758.695
-763.632
-768.21
-772.471
-776.451
-780.183
-783.695
-787.013
-790.162
-793.162
-796.033
-798.791
-801.452
-804.027
-806.53
-808.971
-811.359
-813.702
-816.009
-818.284
-820.535
-822.768
-824.986
-827.193
-829.393
-831.589
-833.786
-835.984
-838.187
-840.398
-842.619
-844.849
-847.09
-849.346
-851.618
-853.905
-856.208
-858.527
-860.864
-863.22
-865.593
-867.983
-870.382
-872.773
-875.107
-877.15
-880.699
-861.31
-857.861
-867.307
-877.338
-886.632
-896.097
-905.396
-914.119
-922.184
-929.618
-936.456
-942.741
-948.528
-953.868
-958.805
-963.383
-967.644
-971.626
-975.358
-978.871
-982.189
-985.338
-988.339
-991.21
-993.968
-996.629
-999.205
-1001.71
-1004.15
-1006.54
-1008.88
-1011.19
-1013.46
-1015.72
-1017.95
-1020.17
-1022.37
-1024.57
-1026.77
-1028.97
-1031.17
-1033.37
-1035.58
-1037.8
-1040.03
-1042.27
-1044.53
-1046.8
-1049.08
-1051.38
-1053.7
-1056.04
-1058.39
-1060.76
-1063.15
-1065.55
-1067.94
-1070.27
-1072.32
-1079.47
-1057.14
-1063.77
-1081.41
-1095.19
-1105.43
-1114.04
-1121.5
-1128
-1133.79
-1139.05
-1143.89
-1148.39
-1152.6
-1156.57
-1160.31
-1163.86
-1167.24
-1170.46
-1173.54
-1176.5
-1179.35
-1182.09
-1184.75
-1187.33
-1189.84
-1192.29
-1194.69
-1197.05
-1199.36
-1201.65
-1203.9
-1206.14
-1208.35
-1210.56
-1212.75
-1214.93
-1217.12
-1219.3
-1221.48
-1223.66
-1225.86
-1228.05
-1230.26
-1232.48
-1234.71
-1236.95
-1239.21
-1241.49
-1243.77
-1246.08
-1248.4
-1250.74
-1253.1
-1255.48
-1257.87
-1260.28
-1262.69
-1265.06
-1267.22
-1275.17
-1217.7
-1211.27
-1224.42
-1239.39
-1253.97
-1267.66
-1280.15
-1291.41
-1301.54
-1310.68
-1318.94
-1326.41
-1333.21
-1339.4
-1345.06
-1350.26
-1355.06
-1359.49
-1363.62
-1367.47
-1371.07
-1374.47
-1377.68
-1380.74
-1383.65
-1386.44
-1389.13
-1391.73
-1394.25
-1396.71
-1399.11
-1401.46
-1403.78
-1406.07
-1408.33
-1410.57
-1412.79
-1415.01
-1417.22
-1419.43
-1421.64
-1423.85
-1426.07
-1428.29
-1430.53
-1432.77
-1435.03
-1437.31
-1439.59
-1441.9
-1444.22
-1446.55
-1448.91
-1451.28
-1453.67
-1456.08
-1458.51
-1460.92
-1463.18
-1541.66
-1516.18
-1509.94
-1504.02
-1502.97
-1505.77
-1509.99
-1514.7
-1519.6
-1524.49
-1529.26
-1533.84
-1538.2
-1542.34
-1546.28
-1550.01
-1553.57
-1556.96
-1560.2
-1563.29
-1566.27
-1569.13
-1571.9
-1574.57
-1577.17
-1579.69
-1582.16
-1584.57
-1586.94
-1589.26
-1591.55
-1593.82
-1596.06
-1598.29
-1600.5
-1602.7
-1604.89
-1607.08
-1609.26
-1611.45
-1613.64
-1615.84
-1618.05
-1620.26
-1622.49
-1624.72
-1626.97
-1629.24
-1631.52
-1633.82
-1636.13
-1638.46
-1640.81
-1643.17
-1645.55
-1647.96
-1650.38
-1652.84
-1655.36
-1658.05
-1295.25
-1502.47
-1590.4
-1620.71
-1640.84
-1657.74
-1671.36
-1682.65
-1692.45
-1701.16
-1708.97
-1716.02
-1722.44
-1728.29
-1733.68
-1738.64
-1743.23
-1747.51
-1751.5
-1755.25
-1758.77
-1762.1
-1765.27
-1768.29
-1771.18
-1773.95
-1776.63
-1779.22
-1781.74
-1784.19
-1786.59
-1788.95
-1791.27
-1793.56
-1795.82
-1798.07
-1800.3
-1802.52
-1804.73
-1806.94
-1809.15
-1811.36
-1813.58
-1815.81
-1818.04
-1820.28
-1822.53
-1824.79
-1827.07
-1829.37
-1831.68
-1834
-1836.35
-1838.71
-1841.09
-1843.49
-1845.92
-1848.39
-1850.96
-1854.33
)
;

boundaryField
{
    wall
    {
        type            calculated;
        value           nonuniform List<scalar> 
1200
(
462.26
-175.404
-299.132
-493.826
-685.399
-880.578
-1079.36
-1275.03
-1541.68
-1294.38
254.196
-149.961
-241.34
-471.47
-665.95
-861.129
-1057
-1217.24
-1516.22
-1502.35
166.274
-143.572
-234.763
-478.123
-662.434
-857.616
-1063.65
-1210.67
-1509.83
-1590.29
135.964
-137.67
-248.012
-495.838
-671.908
-867.093
-1081.36
-1223.91
-1503.93
-1620.6
115.753
-136.715
-263.155
-509.71
-682.039
-877.226
-1095.23
-1239.06
-1502.98
-1640.81
98.8148
-139.554
-277.859
-520
-691.407
-886.594
-1105.53
-1253.76
-1505.82
-1657.76
85.1694
-143.787
-291.641
-528.607
-700.889
-896.07
-1114.14
-1267.52
-1510.04
-1671.38
73.8456
-148.511
-304.198
-536.051
-710.189
-905.36
-1121.57
-1280.04
-1514.73
-1682.67
64.0259
-153.415
-315.5
-542.536
-718.919
-914.087
-1128.05
-1291.34
-1519.63
-1692.5
55.3264
-158.299
-325.658
-548.307
-726.997
-922.167
-1133.84
-1301.51
-1524.53
-1701.22
47.5237
-163.059
-334.818
-553.56
-734.45
-929.618
-1139.09
-1310.67
-1529.28
-1709.02
40.4739
-167.631
-343.091
-558.403
-741.309
-936.475
-1143.93
-1318.94
-1533.85
-1716.07
34.0758
-171.979
-350.57
-562.898
-747.608
-942.775
-1148.43
-1326.43
-1538.2
-1722.48
28.234
-176.105
-357.352
-567.094
-753.392
-948.562
-1152.63
-1333.23
-1542.34
-1728.34
22.8653
-180.026
-363.531
-571.04
-758.719
-953.891
-1156.58
-1339.42
-1546.27
-1733.71
17.9057
-183.757
-369.188
-574.772
-763.644
-958.818
-1160.31
-1345.08
-1550
-1738.68
13.3082
-187.31
-374.384
-578.313
-768.213
-963.389
-1163.86
-1350.28
-1553.55
-1743.27
9.03303
-190.695
-379.171
-581.68
-772.463
-967.64
-1167.22
-1355.06
-1556.94
-1747.55
5.0389
-193.93
-383.601
-584.892
-776.431
-971.609
-1170.43
-1359.49
-1560.17
-1751.54
1.29196
-197.029
-387.721
-587.968
-780.152
-975.33
-1173.51
-1363.61
-1563.27
-1755.28
-2.23282
-200.003
-391.565
-590.921
-783.659
-978.837
-1176.46
-1367.45
-1566.24
-1758.8
-5.56137
-202.861
-395.168
-593.766
-786.976
-982.155
-1179.3
-1371.05
-1569.1
-1762.12
-8.7232
-205.622
-398.563
-596.513
-790.125
-985.305
-1182.05
-1374.44
-1571.86
-1765.28
-11.7418
-208.298
-401.777
-599.175
-793.129
-988.308
-1184.71
-1377.65
-1574.53
-1768.29
-14.6292
-210.894
-404.83
-601.759
-796.003
-991.182
-1187.29
-1380.7
-1577.12
-1771.18
-17.4005
-213.417
-407.742
-604.272
-798.764
-993.943
-1189.8
-1383.61
-1579.64
-1773.95
-20.0762
-215.881
-410.535
-606.726
-801.427
-996.606
-1192.26
-1386.4
-1582.11
-1776.62
-22.6689
-218.294
-413.224
-609.128
-804.005
-999.183
-1194.66
-1389.09
-1584.51
-1779.21
-25.1871
-220.659
-415.821
-611.483
-806.508
-1001.69
-1197.01
-1391.69
-1586.88
-1781.73
-27.6433
-222.985
-418.342
-613.8
-808.949
-1004.13
-1199.33
-1394.21
-1589.21
-1784.19
-30.0482
-225.28
-420.799
-616.084
-811.337
-1006.52
-1201.62
-1396.67
-1591.5
-1786.59
-32.4084
-227.546
-423.2
-618.339
-813.678
-1008.86
-1203.87
-1399.07
-1593.77
-1788.95
-34.7317
-229.791
-425.555
-620.573
-815.982
-1011.16
-1206.1
-1401.42
-1596.01
-1791.27
-37.0255
-232.019
-427.873
-622.79
-818.257
-1013.43
-1208.32
-1403.74
-1598.23
-1793.57
-39.2942
-234.232
-430.16
-624.993
-820.506
-1015.68
-1210.52
-1406.02
-1600.44
-1795.83
-41.5415
-236.433
-432.42
-627.184
-822.736
-1017.91
-1212.71
-1408.28
-1602.64
-1798.08
-43.7721
-238.626
-434.661
-629.369
-824.952
-1020.13
-1214.89
-1410.52
-1604.83
-1800.31
-45.9929
-240.815
-436.888
-631.551
-827.159
-1022.34
-1217.08
-1412.75
-1607.02
-1802.53
-48.2093
-243.005
-439.107
-633.734
-829.36
-1024.54
-1219.26
-1414.97
-1609.21
-1804.75
-50.4223
-245.198
-441.32
-635.919
-831.559
-1026.74
-1221.44
-1417.18
-1611.4
-1806.96
-52.6335
-247.392
-443.531
-638.108
-833.759
-1028.94
-1223.63
-1419.39
-1613.59
-1809.17
-54.8473
-249.594
-445.743
-640.304
-835.962
-1031.14
-1225.82
-1421.6
-1615.79
-1811.38
-57.0643
-251.803
-447.958
-642.506
-838.169
-1033.35
-1228.02
-1423.81
-1617.99
-1813.6
-59.2849
-254.019
-450.177
-644.715
-840.381
-1035.56
-1230.23
-1426.03
-1620.21
-1815.82
-61.5129
-256.244
-452.402
-646.933
-842.602
-1037.78
-1232.45
-1428.26
-1622.43
-1818.05
-63.7538
-258.484
-454.64
-649.165
-844.835
-1040.01
-1234.69
-1430.5
-1624.68
-1820.3
-66.0101
-260.74
-456.891
-651.412
-847.082
-1042.26
-1236.93
-1432.75
-1626.93
-1822.55
-68.2791
-263.01
-459.155
-653.672
-849.34
-1044.52
-1239.19
-1435.01
-1629.2
-1824.82
-70.5579
-265.291
-461.428
-655.944
-851.609
-1046.79
-1241.46
-1437.28
-1631.48
-1827.1
-72.8499
-267.585
-463.714
-658.231
-853.894
-1049.07
-1243.75
-1439.57
-1633.77
-1829.4
-75.1597
-269.898
-466.018
-660.537
-856.197
-1051.37
-1246.06
-1441.88
-1636.09
-1831.71
-77.4877
-272.229
-468.339
-662.861
-858.518
-1053.69
-1248.38
-1444.2
-1638.42
-1834.04
-79.8334
-274.578
-470.678
-665.202
-860.855
-1056.03
-1250.72
-1446.54
-1640.77
-1836.38
-82.1954
-276.944
-473.032
-667.56
-863.209
-1058.38
-1253.08
-1448.89
-1643.14
-1838.75
-84.5736
-279.326
-475.403
-669.935
-865.58
-1060.75
-1255.46
-1451.27
-1645.52
-1841.13
-86.9729
-281.728
-477.792
-672.326
-867.967
-1063.14
-1257.85
-1453.66
-1647.93
-1843.53
-89.4024
-284.156
-480.203
-674.736
-870.368
-1065.54
-1260.26
-1456.07
-1650.36
-1845.97
-91.8819
-286.621
-482.632
-677.151
-872.767
-1067.94
-1262.68
-1458.5
-1652.83
-1848.45
-94.4491
-289.135
-485.049
-679.531
-875.108
-1070.28
-1265.06
-1460.92
-1655.35
-1851.02
-97.7901
-291.819
-487.305
-681.684
-877.151
-1072.32
-1267.22
-1463.18
-1658.04
-1854.38
460.979
-175.545
-299.376
-494.003
-685.573
-880.739
-1079.5
-1275.21
-1541.65
-1295.55
254.044
-150.03
-241.986
-471.687
-666.202
-861.371
-1057.19
-1217.85
-1516.17
-1502.51
166.123
-143.817
-235.592
-478.309
-662.769
-857.942
-1063.82
-1211.47
-1509.98
-1590.44
135.834
-137.858
-248.707
-495.914
-672.201
-867.378
-1081.42
-1224.59
-1504.05
-1620.74
115.737
-136.766
-263.625
-509.658
-682.196
-877.376
-1095.17
-1239.51
-1502.97
-1640.84
98.8463
-139.54
-278.156
-519.888
-691.463
-886.644
-1105.4
-1254.03
-1505.75
-1657.73
85.2517
-143.728
-291.816
-528.487
-700.92
-896.105
-1114.01
-1267.71
-1509.97
-1671.35
73.9926
-148.404
-304.272
-535.933
-710.218
-905.408
-1121.48
-1280.19
-1514.69
-1682.64
64.1909
-153.3
-315.514
-542.432
-718.939
-914.13
-1127.98
-1291.43
-1519.58
-1692.43
55.4661
-158.213
-325.651
-548.227
-727.003
-922.19
-1133.77
-1301.55
-1524.48
-1701.14
47.6475
-162.991
-334.787
-553.49
-734.434
-929.618
-1139.04
-1310.68
-1529.25
-1708.95
40.5869
-167.574
-343.038
-558.333
-741.266
-936.449
-1143.88
-1318.94
-1533.83
-1716.01
34.1571
-171.953
-350.522
-562.84
-747.551
-942.73
-1148.38
-1326.41
-1538.2
-1722.42
28.275
-176.121
-357.328
-567.065
-753.342
-948.517
-1152.59
-1333.2
-1542.34
-1728.28
22.8782
-180.075
-363.532
-571.041
-758.687
-953.86
-1156.56
-1339.39
-1546.28
-1733.66
17.9094
-183.823
-369.203
-574.794
-763.628
-958.8
-1160.31
-1345.06
-1550.02
-1738.63
13.3123
-187.382
-374.406
-578.348
-768.209
-963.381
-1163.86
-1350.26
-1553.57
-1743.22
9.03736
-190.773
-379.203
-581.728
-772.473
-967.646
-1167.24
-1355.06
-1556.96
-1747.5
5.0478
-194.009
-383.641
-584.953
-776.458
-971.631
-1170.47
-1359.5
-1560.2
-1751.49
1.30902
-197.105
-387.764
-588.036
-780.194
-975.368
-1173.56
-1363.62
-1563.3
-1755.23
-2.21419
-200.077
-391.612
-590.993
-783.707
-978.882
-1176.51
-1367.47
-1566.28
-1758.76
-5.54944
-202.942
-395.221
-593.838
-787.026
-982.201
-1179.36
-1371.08
-1569.14
-1762.1
-8.71441
-205.706
-398.618
-596.582
-790.175
-985.35
-1182.11
-1374.48
-1571.91
-1765.27
-11.7274
-208.376
-401.828
-599.237
-793.173
-988.349
-1184.76
-1377.69
-1574.59
-1768.29
-14.6134
-210.971
-404.879
-601.814
-796.043
-991.22
-1187.34
-1380.75
-1577.18
-1771.17
-17.3903
-213.499
-407.794
-604.325
-798.801
-993.977
-1189.85
-1383.66
-1579.71
-1773.95
-20.0671
-215.964
-410.586
-606.776
-801.46
-996.637
-1192.3
-1386.45
-1582.18
-1776.63
-22.6572
-218.375
-413.274
-609.174
-804.035
-999.212
-1194.7
-1389.14
-1584.59
-1779.22
-25.1758
-220.742
-415.873
-611.529
-806.538
-1001.72
-1197.06
-1391.74
-1586.96
-1781.74
-27.6313
-223.07
-418.395
-613.845
-808.978
-1004.16
-1199.37
-1394.26
-1589.28
-1784.19
-30.0317
-225.362
-420.85
-616.128
-811.366
-1006.54
-1201.65
-1396.72
-1591.57
-1786.59
-32.3872
-227.627
-423.251
-618.385
-813.711
-1008.89
-1203.91
-1399.12
-1593.84
-1788.95
-34.7051
-229.868
-425.605
-620.62
-816.018
-1011.2
-1206.15
-1401.48
-1596.08
-1791.27
-36.9912
-232.09
-427.92
-622.836
-818.293
-1013.47
-1208.36
-1403.79
-1598.3
-1793.56
-39.2532
-234.299
-430.204
-625.038
-820.545
-1015.73
-1210.57
-1406.08
-1600.51
-1795.82
-41.498
-236.498
-432.465
-627.232
-822.778
-1017.96
-1212.76
-1408.34
-1602.71
-1798.07
-43.7301
-238.693
-434.708
-629.42
-824.997
-1020.18
-1214.95
-1410.58
-1604.91
-1800.3
-45.9513
-240.882
-436.935
-631.603
-827.204
-1022.39
-1217.13
-1412.81
-1607.09
-1802.51
-48.1637
-243.069
-439.151
-633.783
-829.404
-1024.59
-1219.31
-1415.03
-1609.28
-1804.73
-50.373
-245.257
-441.36
-635.965
-831.599
-1026.78
-1221.49
-1417.24
-1611.47
-1806.94
-52.5835
-247.449
-443.567
-638.15
-833.795
-1028.98
-1223.68
-1419.44
-1613.66
-1809.15
-54.7954
-249.648
-445.775
-640.34
-835.991
-1031.18
-1225.87
-1421.65
-1615.86
-1811.36
-57.0119
-251.855
-447.987
-642.537
-838.193
-1033.38
-1228.06
-1423.86
-1618.06
-1813.58
-59.2376
-254.075
-450.209
-644.746
-840.404
-1035.59
-1230.27
-1426.08
-1620.28
-1815.8
-61.4726
-256.306
-452.438
-646.966
-842.624
-1037.81
-1232.49
-1428.3
-1622.5
-1818.03
-63.715
-258.546
-454.675
-649.195
-844.853
-1040.04
-1234.72
-1430.54
-1624.74
-1820.27
-65.9651
-260.796
-456.92
-651.436
-847.093
-1042.28
-1236.96
-1432.78
-1626.99
-1822.52
-68.2284
-263.06
-459.178
-653.692
-849.348
-1044.53
-1239.22
-1435.04
-1629.25
-1824.79
-70.5099
-265.342
-461.454
-655.966
-851.621
-1046.8
-1241.49
-1437.31
-1631.54
-1827.07
-72.8081
-267.642
-463.745
-658.258
-853.909
-1049.09
-1243.78
-1439.6
-1633.83
-1829.36
-75.12
-269.957
-466.05
-660.564
-856.212
-1051.39
-1246.09
-1441.9
-1636.14
-1831.67
-77.4468
-272.286
-468.37
-662.886
-858.53
-1053.71
-1248.41
-1444.22
-1638.47
-1833.99
-79.7902
-274.633
-470.707
-665.226
-860.867
-1056.04
-1250.75
-1446.56
-1640.82
-1836.34
-82.1529
-276.999
-473.063
-667.586
-863.223
-1058.39
-1253.11
-1448.92
-1643.18
-1838.7
-84.5365
-279.386
-475.439
-669.965
-865.597
-1060.77
-1255.48
-1451.29
-1645.57
-1841.08
-86.9396
-281.792
-477.832
-672.361
-867.988
-1063.15
-1257.88
-1453.68
-1647.97
-1843.48
-89.3635
-284.216
-480.24
-674.768
-870.387
-1065.55
-1260.28
-1456.09
-1650.39
-1845.9
-91.8297
-286.667
-482.656
-677.171
-872.775
-1067.94
-1262.69
-1458.51
-1652.85
-1848.37
-94.3895
-289.172
-485.064
-679.54
-875.106
-1070.27
-1265.06
-1460.92
-1655.36
-1850.95
-97.7426
-291.854
-487.318
-681.691
-877.15
-1072.32
-1267.22
-1463.18
-1658.05
-1854.31
)
;
    }
    inlet
    {
        type            calculated;
        value           nonuniform List<scalar> 
20
(
461.94
-175.439
-299.193
-493.87
-685.442
-880.618
-1079.4
-1275.08
-1541.67
-1294.67
461.299
-175.51
-299.315
-493.959
-685.529
-880.699
-1079.47
-1275.17
-1541.66
-1295.25
)
;
    }
    outlet
    {
        type            calculated;
        value           nonuniform List<scalar> 
20
(
-97.5912
-292.76
-487.93
-683.102
-878.274
-1073.45
-1268.62
-1463.79
-1658.97
-1854.23
-97.5912
-292.76
-487.93
-683.102
-878.274
-1073.45
-1268.62
-1463.79
-1658.97
-1854.23
)
;
    }
    heatWall
    {
        type            calculated;
        value           nonuniform List<scalar> 
240
(
-1392.25
-1392.84
-1599.98
-1600.06
-1687.92
-1687.99
-1718.23
-1718.29
-1738.41
-1738.42
-1755.34
-1755.32
-1768.96
-1768.94
-1780.25
-1780.23
-1790.07
-1790.04
-1798.78
-1798.74
-1806.59
-1806.56
-1813.64
-1813.61
-1820.05
-1820.02
-1825.91
-1825.88
-1831.29
-1831.26
-1836.25
-1836.23
-1840.85
-1840.82
-1845.12
-1845.1
-1849.11
-1849.09
-1852.85
-1852.83
-1856.38
-1856.36
-1859.71
-1859.69
-1862.87
-1862.86
-1865.88
-1865.88
-1868.76
-1868.76
-1871.54
-1871.54
-1874.21
-1874.22
-1876.8
-1876.81
-1879.32
-1879.33
-1881.78
-1881.78
-1884.18
-1884.18
-1886.54
-1886.54
-1888.86
-1888.86
-1891.15
-1891.15
-1893.42
-1893.41
-1895.66
-1895.66
-1897.89
-1897.89
-1900.12
-1900.11
-1902.33
-1902.32
-1904.54
-1904.53
-1906.75
-1906.74
-1908.96
-1908.95
-1911.18
-1911.17
-1913.41
-1913.4
-1915.64
-1915.63
-1917.88
-1917.87
-1920.14
-1920.12
-1922.4
-1922.38
-1924.68
-1924.66
-1926.98
-1926.96
-1929.29
-1929.27
-1931.62
-1931.6
-1933.96
-1933.94
-1936.33
-1936.3
-1938.71
-1938.68
-1941.11
-1941.08
-1943.54
-1943.51
-1946.02
-1945.98
-1948.59
-1948.56
-1951.95
-1951.92
559.526
558.886
351.744
351.669
263.823
263.747
233.518
233.453
213.336
213.328
196.41
196.426
182.777
182.818
171.47
171.543
161.655
161.737
152.949
153.018
145.142
145.204
138.09
138.146
131.684
131.724
125.832
125.853
120.457
120.463
115.495
115.497
110.897
110.899
106.622
106.625
102.629
102.634
98.8846
98.8932
95.3604
95.3697
92.0302
92.0362
88.8677
88.8721
85.8506
85.8577
82.9636
82.9715
80.191
80.196
77.5151
77.5197
74.9231
74.929
72.4048
72.4106
69.9489
69.955
67.5452
67.5536
65.1862
65.197
62.8644
62.8778
60.5725
60.5898
58.3056
58.3262
56.0591
56.0808
53.8281
53.8491
51.6073
51.628
49.392
49.4147
47.18
47.2045
44.9691
44.9939
42.7558
42.7816
40.539
40.565
38.3172
38.3407
36.0875
36.1075
33.8463
33.8656
31.5916
31.614
29.3241
29.3493
27.0447
27.0686
24.7512
24.772
22.4409
22.4607
20.1133
20.1337
17.7682
17.7897
15.4061
15.4273
13.0266
13.0451
10.6264
10.6431
8.19835
8.21782
5.72223
5.74837
3.15699
3.18676
-0.187034
-0.163257
)
;
    }
}


// ************************************************************************* //
