/*--------------------------------*- C++ -*----------------------------------*\
  =========                 |
  \\      /  F ield         | OpenFOAM: The Open Source CFD Toolbox
   \\    /   O peration     | Website:  https://openfoam.org
    \\  /    A nd           | Version:  8
     \\/     M anipulation  |
\*---------------------------------------------------------------------------*/
FoamFile
{
    version     2.0;
    format      ascii;
    class       surfaceScalarField;
    location    "1000";
    object      phi;
}
// * * * * * * * * * * * * * * * * * * * * * * * * * * * * * * * * * * * * * //

dimensions      [1 0 -1 0 0 0 0];

internalField   nonuniform List<scalar> 
2860
(
0.40079
-0.00186805
0.0014671
0.400717
0.00137776
0.00164931
0.400704
0.00139595
0.00183249
0.400358
0.00169972
0.0019912
0.399813
0.00181474
0.00200943
0.399212
0.00177015
0.00196788
0.3986
0.00167572
0.00186365
0.397988
0.00157428
0.00167884
0.397381
0.00147525
0.00147076
0.396781
0.00138151
0.00129344
0.396189
0.00129468
0.0011356
0.395606
0.00121523
0.000990946
0.395032
0.00114289
0.000885664
0.394466
0.00107709
0.000831183
0.393908
0.00101718
0.000812514
0.393358
0.00096259
0.000805873
0.392815
0.000912819
0.000799281
0.39228
0.000867406
0.000792669
0.391751
0.000825902
0.000780647
0.39123
0.000787949
0.00075852
0.390714
0.000753261
0.000734452
0.390205
0.000721608
0.000718879
0.389703
0.000692706
0.00070736
0.389206
0.000666268
0.000688877
0.388715
0.00064208
0.000668628
0.388229
0.000619963
0.000655624
0.387749
0.000599701
0.000644136
0.387274
0.000581088
0.000629496
0.386804
0.000563978
0.00061564
0.386339
0.00054823
0.00060119
0.385878
0.000533685
0.000581261
0.385423
0.00052022
0.000555582
0.384972
0.000507739
0.000523162
0.384525
0.000496151
0.000481062
0.384083
0.000485371
0.000430469
0.383644
0.000475337
0.000376751
0.38321
0.000465999
0.000324973
0.38278
0.000457308
0.000273888
0.382353
0.000449204
0.000217618
0.38193
0.000441642
0.000156531
0.381511
0.000434606
9.43779e-05
0.381095
0.000428071
2.97902e-05
0.380682
0.000421951
-3.53436e-05
0.380273
0.000416233
-9.3909e-05
0.379867
0.000410892
-0.00014328
0.379464
0.000405887
-0.000190573
0.379065
0.000401173
-0.000245792
0.378668
0.000396712
-0.000308299
0.378274
0.00039249
-0.00036724
0.377883
0.000388507
-0.000418024
0.377495
0.00038474
-0.000465876
0.377109
0.00038117
-0.000515028
0.376726
0.000377759
-0.000567067
0.376346
0.000374487
-0.000617994
0.375968
0.000371329
-0.000661699
0.375593
0.000368136
-0.000700333
0.375221
0.000364438
-0.000746028
0.374855
0.000358236
-0.000809202
0.374503
0.000344011
-0.000881952
0.000240512
-0.000938681
0.398245
-0.00315974
0.000168328
0.398234
-4.33703e-05
0.000268858
0.398035
-5.82311e-05
0.000587567
0.398041
-4.40515e-05
0.000836094
0.398112
-6.47274e-06
0.000912684
0.398211
-5.17435e-05
0.000907725
0.398325
-0.000113815
0.000847971
0.398441
-0.000161127
0.000728396
0.398554
-0.000194703
0.00059775
0.398661
-0.000218576
0.000502697
0.39876
-0.000234738
0.000429258
0.398852
-0.000244674
0.000368372
0.398936
-0.000249649
0.000344773
0.399012
-0.000250787
0.000372668
0.399082
-0.00024902
0.000441477
0.399146
-0.00024506
0.00052951
0.399204
-0.000239416
0.000624451
0.399258
-0.000232478
0.000725715
0.399306
-0.00022462
0.000828211
0.399351
-0.000216099
0.000925525
0.399392
-0.000206931
0.00102084
0.399429
-0.000197157
0.00112239
0.399463
-0.000186936
0.00122655
0.399495
-0.000176438
0.00132374
0.399524
-0.000165725
0.00141847
0.399551
-0.000154807
0.0015187
0.399576
-0.000143791
0.00161994
0.399599
-0.000132788
0.00171904
0.39962
-0.000121825
0.00181993
0.39964
-0.00011094
0.00192157
0.399659
-0.00010022
0.00202035
0.399676
-8.97168e-05
0.00211643
0.399693
-7.94409e-05
0.00220843
0.399708
-6.94209e-05
0.00229315
0.399723
-5.96748e-05
0.00237132
0.399737
-5.01862e-05
0.00244731
0.39975
-4.09251e-05
0.00252525
0.399763
-3.1877e-05
0.00260347
0.399775
-2.30572e-05
0.00267607
0.399787
-1.44682e-05
0.00274293
0.399798
-6.07791e-06
0.00280668
0.399809
2.1226e-06
0.00286637
0.39982
1.01404e-05
0.00292386
0.399831
1.80011e-05
0.00298574
0.399841
2.5722e-05
0.0030544
0.399851
3.3279e-05
0.00312352
0.399861
4.06295e-05
0.00318399
0.399871
4.77479e-05
0.00323668
0.39988
5.46622e-05
0.00329169
0.39989
6.14042e-05
0.00335311
0.399899
6.79732e-05
0.00341626
0.399909
7.43611e-05
0.00347732
0.399918
8.05376e-05
0.00353535
0.399928
8.65014e-05
0.00359417
0.399937
9.22382e-05
0.0036592
0.399946
9.75318e-05
0.00372914
0.399956
0.000101653
0.00379296
0.399968
0.000101952
0.00383986
0.399985
8.97794e-05
0.00387479
1.63607e-05
0.00390858
0.396066
-0.000920383
0.000274734
0.396272
0.000519529
0.00108361
0.396444
0.000777813
0.00212074
0.396751
0.000805753
0.00299114
0.397113
0.000871915
0.00358044
0.397459
0.00088335
0.00395346
0.397774
0.000861823
0.00417353
0.398058
0.000834901
0.00426759
0.398315
0.000806339
0.00428681
0.398545
0.000776038
0.00427903
0.398753
0.000745172
0.00424253
0.398941
0.000714752
0.00417915
0.399111
0.000685366
0.00412064
0.399266
0.000657184
0.00409191
0.399408
0.00063023
0.00409477
0.399538
0.000604512
0.00411567
0.399657
0.000580061
0.00414594
0.399768
0.000556889
0.0041876
0.39987
0.000534906
0.00423927
0.399966
0.000514082
0.00429573
0.400055
0.000494533
0.00435665
0.40014
0.000476324
0.00442487
0.400219
0.000459375
0.00449612
0.400295
0.000443575
0.00456208
0.400367
0.000428896
0.00462578
0.400436
0.000415338
0.00469279
0.400503
0.000402789
0.00475956
0.400567
0.000391123
0.00482474
0.400629
0.000380301
0.00489173
0.40069
0.000370262
0.00495955
0.400749
0.000360883
0.00502643
0.400807
0.000352084
0.00509344
0.400864
0.000343822
0.00515898
0.40092
0.000336037
0.00522013
0.400976
0.000328684
0.00527778
0.401031
0.000321755
0.00533558
0.401086
0.000315252
0.00539652
0.401141
0.000309162
0.00545822
0.401195
0.000303434
0.00551499
0.401249
0.000298037
0.00556649
0.401303
0.00029298
0.00561397
0.401358
0.000288253
0.00565582
0.401412
0.000283868
0.00569428
0.401467
0.000279805
0.00573561
0.401521
0.00027606
0.00578179
0.401576
0.000272582
0.00582726
0.401632
0.0002693
0.00586433
0.401687
0.000266166
0.00589487
0.401743
0.000263215
0.00592819
0.401799
0.000260463
0.00596734
0.401856
0.00025788
0.00600791
0.401913
0.00025544
0.00604652
0.40197
0.0002531
0.00608328
0.402027
0.000250854
0.00612187
0.402085
0.00024868
0.00616664
0.402144
0.000246367
0.00621699
0.402203
0.000243278
0.00626289
0.402261
0.000237461
0.00629334
0.402313
0.000224447
0.00631205
0.000188164
0.00632843
0.397417
-0.0004881
0.000202873
0.397741
1.89252e-05
0.000477312
0.39807
0.000135056
0.000717388
0.398346
9.62725e-05
0.000822398
0.3986
9.38532e-05
0.000771971
0.398817
7.7708e-05
0.000647722
0.399
4.83875e-05
0.000514574
0.399158
2.02823e-05
0.000384118
0.3993
-3.60774e-06
0.000271698
0.399428
-2.35013e-05
0.000188497
0.399546
-3.9652e-05
0.000116773
0.399656
-5.23199e-05
4.45669e-05
0.399759
-6.18014e-05
-1.2463e-05
0.399856
-6.86e-05
-3.56327e-05
0.399948
-7.33521e-05
-2.12976e-05
0.400035
-7.65034e-05
1.79012e-05
0.400118
-7.83458e-05
7.16951e-05
0.400197
-7.91389e-05
0.000140955
0.400273
-7.91486e-05
0.000225679
0.400346
-7.85609e-05
0.0003201
0.400416
-7.74209e-05
0.000417809
0.400483
-7.57507e-05
0.000515802
0.400549
-7.3657e-05
0.000609304
0.400613
-7.12888e-05
0.000693103
0.400675
-6.86735e-05
0.000769679
0.400735
-6.58025e-05
0.000842673
0.400795
-6.2766e-05
0.000910402
0.400853
-5.96468e-05
0.000974039
0.40091
-5.64365e-05
0.00103673
0.400966
-5.3155e-05
0.00109801
0.401022
-4.98783e-05
0.00115878
0.401077
-4.6646e-05
0.00122157
0.401132
-4.34716e-05
0.00128497
0.401186
-4.03837e-05
0.00134681
0.401241
-3.73932e-05
0.00140831
0.401295
-3.44772e-05
0.00147226
0.401348
-3.15979e-05
0.00154034
0.401402
-2.87432e-05
0.00160951
0.401456
-2.59524e-05
0.00167465
0.40151
-2.32421e-05
0.00173542
0.401565
-2.05819e-05
0.0017914
0.401619
-1.79653e-05
0.0018394
0.401673
-1.53828e-05
0.00188187
0.401728
-1.28172e-05
0.00192449
0.401783
-1.02433e-05
0.00196875
0.401839
-7.68926e-06
0.0020101
0.401895
-5.2144e-06
0.00204282
0.401951
-2.84747e-06
0.0020702
0.402007
-5.45895e-07
0.00210109
0.402064
1.73919e-06
0.00213699
0.402121
3.99617e-06
0.00217359
0.402179
6.20096e-06
0.00220799
0.402237
8.33207e-06
0.00224125
0.402296
1.04078e-05
0.00227659
0.402355
1.244e-05
0.00231702
0.402414
1.43094e-05
0.0023628
0.402474
1.5642e-05
0.00240495
0.402532
1.53229e-05
0.0024322
0.402586
1.03689e-05
0.00244606
-8.32105e-06
0.00245743
0.397416
4.7407e-07
0.000198402
0.397462
9.63986e-07
0.000513706
0.397662
1.517e-06
0.00093205
0.397861
2.1575e-06
0.00129812
0.398092
2.89973e-06
0.00149511
0.398333
3.65391e-06
0.00156486
0.398563
4.2845e-06
0.00160273
0.39878
4.6029e-06
0.00163798
0.398981
4.81919e-06
0.00166181
0.399168
5.26156e-06
0.00166815
0.399339
5.68073e-06
0.00164666
0.399496
6.01833e-06
0.00159252
0.39964
6.45079e-06
0.00152131
0.399773
7.02171e-06
0.00145811
0.399896
7.62925e-06
0.00141827
0.40001
8.22989e-06
0.00139782
0.400116
8.82398e-06
0.00139123
0.400215
9.41635e-06
0.00140252
0.400308
9.96635e-06
0.00143544
0.400395
1.04439e-05
0.00148594
0.400478
1.08699e-05
0.00154504
0.400556
1.1279e-05
0.00160707
0.400631
1.16552e-05
0.00166799
0.400702
1.19518e-05
0.00172337
0.400771
1.22012e-05
0.0017737
0.400837
1.2456e-05
0.00181983
0.400901
1.2682e-05
0.0018609
0.400963
1.28624e-05
0.00189928
0.401024
1.30541e-05
0.00193672
0.401083
1.32758e-05
0.00197247
0.401141
1.34917e-05
0.00200925
0.401198
1.36856e-05
0.00205042
0.401254
1.38504e-05
0.00209457
0.40131
1.39685e-05
0.00214
0.401366
1.40383e-05
0.00218794
0.401421
1.40792e-05
0.00224007
0.401475
1.4128e-05
0.00229651
0.40153
1.41963e-05
0.00235355
0.401584
1.42383e-05
0.00240706
0.401639
1.42338e-05
0.00245695
0.401693
1.42047e-05
0.00250146
0.401748
1.41448e-05
0.00253728
0.401803
1.40626e-05
0.0025671
0.401858
1.39913e-05
0.00259568
0.401913
1.39646e-05
0.00262363
0.401968
1.3963e-05
0.00264703
0.402024
1.39346e-05
0.00266212
0.402081
1.38593e-05
0.00267326
0.402137
1.37656e-05
0.00268803
0.402194
1.37105e-05
0.00270645
0.402252
1.36852e-05
0.00272469
0.402309
1.36579e-05
0.0027407
0.402368
1.36217e-05
0.00275631
0.402426
1.36084e-05
0.00277403
0.402485
1.36555e-05
0.00279571
0.402545
1.37691e-05
0.00282227
0.402604
1.39441e-05
0.002846
0.402661
1.41779e-05
0.00285629
0.402711
1.44649e-05
0.00285439
1.46538e-05
0.00285391
0.397416
0.000488971
0.000183733
0.397462
-1.71962e-05
0.000485951
0.397662
-0.000132242
0.000893739
0.397862
-9.21739e-05
0.00125041
0.398092
-8.82451e-05
0.00143765
0.398333
-7.05946e-05
0.00149956
0.398563
-3.98987e-05
0.00154192
0.39878
-1.11078e-05
0.00160061
0.398981
1.33254e-05
0.00165199
0.399167
3.41555e-05
0.00167906
0.399339
5.11738e-05
0.00167782
0.399496
6.45282e-05
0.00164485
0.39964
7.48458e-05
0.00158847
0.399773
8.2734e-05
0.00153171
0.399896
8.86447e-05
0.001493
0.40001
9.29444e-05
0.00147061
0.400116
9.59318e-05
0.00146016
0.400215
9.78774e-05
0.00146614
0.400308
9.89542e-05
0.00149334
0.400395
9.92892e-05
0.00153878
0.400478
9.89705e-05
0.00159305
0.400556
9.80884e-05
0.00164952
0.400631
9.67223e-05
0.00170465
0.400702
9.4929e-05
0.00175567
0.400771
9.27998e-05
0.0018025
0.400837
9.04296e-05
0.00184471
0.400901
8.78396e-05
0.00188277
0.400963
8.50779e-05
0.00191984
0.401024
8.22478e-05
0.00195584
0.401083
7.94081e-05
0.00198937
0.401141
7.65639e-05
0.00202433
0.401198
7.37209e-05
0.00206464
0.401255
7.088e-05
0.00210913
0.40131
6.80381e-05
0.0021567
0.401366
6.5201e-05
0.00220867
0.401421
6.23793e-05
0.0022661
0.401475
5.96032e-05
0.00232778
0.40153
5.6884e-05
0.00238943
0.401584
5.41742e-05
0.00244835
0.401639
5.1452e-05
0.00250504
0.401693
4.87293e-05
0.00255695
0.401748
4.59924e-05
0.00260107
0.401803
4.32556e-05
0.00264012
0.401858
4.05586e-05
0.00267763
0.401913
3.79393e-05
0.0027129
0.401969
3.53767e-05
0.00274198
0.402024
3.28345e-05
0.00276283
0.402081
3.02956e-05
0.00278039
0.402137
2.78058e-05
0.00280025
0.402194
2.54134e-05
0.00282116
0.402252
2.31031e-05
0.00284
0.402309
2.08405e-05
0.00285587
0.402368
1.86339e-05
0.00287098
0.402426
1.65251e-05
0.00288696
0.402485
1.45738e-05
0.0029046
0.402545
1.29097e-05
0.00292504
0.402604
1.1893e-05
0.00294144
0.402661
1.26299e-05
0.00294445
0.402711
1.81276e-05
0.00293575
3.72868e-05
0.00292947
0.397416
0.00092129
0.00016157
0.397741
-0.000518034
0.000405103
0.39807
-0.000775222
0.00062351
0.398346
-0.000802006
0.000713466
0.3986
-0.000866974
0.000646871
0.398817
-0.000876982
0.000491791
0.399
-0.000854577
0.000341047
0.399158
-0.000827127
0.000242981
0.3993
-0.000797842
0.000173044
0.399428
-0.000766536
0.000112143
0.399547
-0.000734732
6.24547e-05
0.399657
-0.000703529
1.6759e-05
0.39976
-0.000673228
-3.01413e-05
0.399857
-0.000643949
-6.52589e-05
0.399948
-0.000615816
-7.56504e-05
0.400036
-0.000588952
-6.67033e-05
0.400118
-0.000563464
-4.47538e-05
0.400198
-0.000539368
-7.41268e-06
0.400273
-0.000516589
4.8393e-05
0.400346
-0.000495123
0.000119696
0.400416
-0.000475022
0.000198255
0.400484
-0.000456296
0.000278329
0.40055
-0.000438902
0.000357217
0.400613
-0.000422785
0.000433253
0.400675
-0.00040785
0.000505309
0.400736
-0.000394012
0.000572253
0.400795
-0.00038122
0.000635853
0.400853
-0.000369378
0.000699192
0.400911
-0.000358349
0.000759883
0.400967
-0.000348037
0.000815387
0.401023
-0.000338386
0.000870082
0.401078
-0.000329348
0.000928202
0.401133
-0.000320886
0.00098899
0.401187
-0.000312964
0.00105189
0.401241
-0.00030554
0.00111839
0.401295
-0.000298584
0.00118946
0.401349
-0.000292048
0.00126316
0.401403
-0.000285898
0.00133503
0.401457
-0.000280156
0.00140415
0.401511
-0.000274819
0.00147206
0.401565
-0.000269864
0.00153607
0.40162
-0.00026529
0.00159403
0.401674
-0.00026106
0.00164867
0.401729
-0.000257116
0.00170241
0.401784
-0.000253396
0.0017534
0.40184
-0.000249921
0.00179747
0.401895
-0.00024669
0.00183432
0.401952
-0.000243697
0.00186965
0.402008
-0.000240883
0.00190786
0.402065
-0.0002382
0.00194631
0.402122
-0.000235646
0.00198216
0.40218
-0.000233242
0.00201559
0.402238
-0.00023096
0.00204857
0.402297
-0.000228744
0.00208159
0.402356
-0.000226515
0.00211451
0.402415
-0.000224053
0.00214788
0.402475
-0.000220731
0.0021752
0.402533
-0.000214588
0.0021886
0.402587
-0.000200997
0.00219066
-0.000163828
0.00219269
0.396066
0.00316032
0.000195778
0.396272
4.44159e-05
0.000959764
0.396445
6.11173e-05
0.00195648
0.396751
4.86214e-05
0.00280037
0.397113
1.27701e-05
0.0033638
0.397459
6.00635e-05
0.00370485
0.397773
0.000123726
0.00394218
0.398058
0.000171972
0.00412668
0.398314
0.0002064
0.00424327
0.398545
0.000231189
0.00429569
0.398753
0.000248023
0.00431525
0.398941
0.000258335
0.00431138
0.399111
0.00026369
0.00428364
0.399266
0.000265368
0.00424756
0.399408
0.000264299
0.00421884
0.399538
0.000261128
0.00419604
0.399657
0.000256306
0.00417794
0.399768
0.000250205
0.00416998
0.39987
0.000243156
0.00417672
0.399966
0.000235352
0.00419798
0.400055
0.000226875
0.00423005
0.40014
0.000217805
0.00427064
0.400219
0.000208251
0.00431849
0.400295
0.000198314
0.00437255
0.400367
0.000188101
0.0044313
0.400436
0.000177695
0.00449245
0.400503
0.000167142
0.00455778
0.400567
0.000156521
0.00462899
0.400629
0.00014594
0.00470043
0.40069
0.000135477
0.00476746
0.400749
0.000125167
0.00483378
0.400807
0.000115027
0.00490322
0.400864
0.000105063
0.00497492
0.40092
9.52846e-05
0.00504814
0.400976
8.56997e-05
0.00512401
0.401031
7.62989e-05
0.00520348
0.401086
6.70926e-05
0.00528398
0.40114
5.80898e-05
0.00536085
0.401195
4.92575e-05
0.00543472
0.401249
4.05773e-05
0.00550796
0.401303
3.20465e-05
0.00557798
0.401358
2.36494e-05
0.00564353
0.401412
1.54005e-05
0.00570711
0.401467
7.32599e-06
0.00577007
0.401521
-5.39968e-07
0.00582948
0.401577
-8.19737e-06
0.00588062
0.401632
-1.5685e-05
0.00592442
0.401687
-2.30077e-05
0.00596677
0.401743
-3.01372e-05
0.00601053
0.4018
-3.70508e-05
0.00605195
0.401856
-4.3756e-05
0.00608856
0.401913
-5.02806e-05
0.00612171
0.401971
-5.66078e-05
0.00615305
0.402029
-6.27022e-05
0.00618225
0.402087
-6.85001e-05
0.00620889
0.402145
-7.37731e-05
0.0062331
0.402204
-7.77884e-05
0.00624884
0.402263
-7.78652e-05
0.00625065
0.402315
-6.51077e-05
0.00624412
9.59607e-06
0.00624029
0.398245
0.00186757
-2.53336e-05
0.398234
-0.0013786
-6.06996e-05
0.398035
-0.00139681
0.000134797
0.398041
-0.00170062
0.000298487
0.398113
-0.00181588
0.000309951
0.398212
-0.00177142
0.000238121
0.398325
-0.00167707
0.000176217
0.398442
-0.00157564
0.000142101
0.398555
-0.00147634
0.000102333
0.398661
-0.00138219
5.55267e-05
0.398761
-0.00129497
3.12705e-05
0.398852
-0.00121517
3.00823e-05
0.398936
-0.00114248
3.71481e-05
0.399012
-0.00107632
5.34434e-05
0.399083
-0.00101609
8.27461e-05
0.399146
-0.000961231
0.000116936
0.399205
-0.000911275
0.000152249
0.399258
-0.000865751
0.000191741
0.399307
-0.000824209
0.000237716
0.399351
-0.000786279
0.000290411
0.399392
-0.000751669
0.000349467
0.39943
-0.000720102
0.000415493
0.399464
-0.000691294
0.000488238
0.399496
-0.000664983
0.000567099
0.399525
-0.000640922
0.000650257
0.399552
-0.000618897
0.000735386
0.399577
-0.000598721
0.000824862
0.3996
-0.00058021
0.000920035
0.399621
-0.000563177
0.0010137
0.399641
-0.000547464
0.00110032
0.39966
-0.000532947
0.00118354
0.399678
-0.000519517
0.00126746
0.399694
-0.00050708
0.00135173
0.39971
-0.000495547
0.00143583
0.399724
-0.000484838
0.00152112
0.399739
-0.00047489
0.00160926
0.399752
-0.000465634
0.00169784
0.399765
-0.000457011
0.00178236
0.399777
-0.000448985
0.00186484
0.399789
-0.000441516
0.00194848
0.3998
-0.000434562
0.00203098
0.399811
-0.00042809
0.00211188
0.399822
-0.000422054
0.00219338
0.399832
-0.000416408
0.00227601
0.399843
-0.000411121
0.00235604
0.399853
-0.000406123
0.00242828
0.399863
-0.000401424
0.00249439
0.399872
-0.000396998
0.00256025
0.399882
-0.000392809
0.00262766
0.399891
-0.000388827
0.00269204
0.399901
-0.000385037
0.00275108
0.39991
-0.000381438
0.00280697
0.39992
-0.000378004
0.00286086
0.399929
-0.0003747
0.0029116
0.399938
-0.000371476
0.00295848
0.399948
-0.000368182
0.00300072
0.399958
-0.000364339
0.00303194
0.39997
-0.000357929
0.0030479
0.399987
-0.000343201
0.00305564
-0.000238
0.00306649
0.400789
0.00133781
0.400717
0.00152127
0.400704
0.00169451
0.400357
0.00185885
0.399813
0.00188949
0.399211
0.00184901
0.398599
0.00180363
0.397988
0.00175455
0.39738
0.00167148
0.39678
0.00156405
0.396189
0.00147023
0.395606
0.00139378
0.395032
0.00132024
0.394466
0.00124944
0.393908
0.00118399
0.393357
0.00111696
0.392815
0.00104738
0.392279
0.000980114
0.391751
0.000918336
0.391229
0.000863862
0.390714
0.000818919
0.390205
0.000785772
0.389702
0.00076416
0.389205
0.000752813
0.388714
0.000748815
0.388228
0.000749011
0.387748
0.00075558
0.387273
0.000768451
0.386803
0.000778257
0.386338
0.000778319
0.385878
0.000772188
0.385422
0.000764133
0.384971
0.000754014
0.384524
0.000741319
0.384082
0.000727534
0.383644
0.000714713
0.383209
0.00070041
0.382779
0.000680186
0.382352
0.000656979
0.381929
0.00063455
0.38151
0.000610715
0.381094
0.000585392
0.380682
0.000560627
0.380273
0.000536442
0.379867
0.000508576
0.379464
0.000471576
0.379064
0.000428049
0.378667
0.00038444
0.378274
0.000342144
0.377883
0.000296029
0.377494
0.000243995
0.377109
0.000189034
0.376726
0.000132212
0.376346
7.20907e-05
0.375968
8.0173e-06
0.375593
-6.10793e-05
0.375221
-0.00014156
0.374855
-0.000236068
0.374504
-0.000334067
-0.000413128
0.400785
-0.00186405
0.400705
0.00138395
0.400692
0.00139629
0.400347
0.00169824
0.399804
0.00181314
0.399203
0.00176815
0.398592
0.00167387
0.397981
0.00157346
0.397375
0.00147557
0.396776
0.00138259
0.396185
0.00129615
0.395603
0.00121674
0.395029
0.00114407
0.394464
0.00107769
0.393906
0.00101719
0.393356
0.000962142
0.392814
0.000912069
0.392278
0.000866524
0.39175
0.000825123
0.391228
0.000787472
0.390713
0.000753148
0.390205
0.000721746
0.389702
0.000692978
0.389205
0.00066663
0.388714
0.000642457
0.388228
0.000620216
0.387748
0.000599751
0.387273
0.000580933
0.386803
0.000563606
0.386338
0.000547638
0.385878
0.000532943
0.385422
0.000519424
0.384971
0.000506972
0.384525
0.0004955
0.384082
0.000484926
0.383644
0.000475155
0.38321
0.000466098
0.382779
0.000457678
0.382353
0.00044984
0.38193
0.000442529
0.38151
0.000435685
0.381095
0.000429246
0.380682
0.000423182
0.380273
0.000417459
0.379867
0.000412038
0.379464
0.000406903
0.379065
0.000402055
0.378668
0.00039749
0.378274
0.000393176
0.377883
0.000389075
0.377495
0.000385173
0.377109
0.000381459
0.376726
0.000377938
0.376346
0.000374583
0.375968
0.000371329
0.375593
0.000368055
0.375221
0.000364319
0.374855
0.000358099
0.374504
0.00034378
0.000239391
0.398245
-0.00315692
0.398235
-4.133e-05
0.398034
-5.85194e-05
0.398039
-4.55576e-05
0.39811
-8.79461e-06
0.398209
-5.52436e-05
0.398322
-0.000117226
0.398439
-0.000162924
0.398552
-0.000194578
0.398659
-0.000217079
0.398758
-0.000232444
0.39885
-0.000242148
0.398935
-0.00024758
0.399012
-0.000249651
0.399082
-0.000248875
0.399146
-0.000245714
0.399204
-0.000240632
0.399257
-0.000233983
0.399306
-0.000226011
0.399351
-0.000216976
0.399391
-0.000207255
0.399429
-0.000197134
0.399463
-0.000186724
0.399495
-0.000176085
0.399524
-0.000165341
0.399551
-0.000154618
0.399575
-0.000143927
0.399598
-0.000133258
0.39962
-0.00012266
0.39964
-0.000112159
0.399658
-0.000101721
0.399676
-9.13441e-05
0.399692
-8.10589e-05
0.399708
-7.08777e-05
0.399723
-6.08151e-05
0.399737
-5.09079e-05
0.39975
-4.11959e-05
0.399763
-3.17039e-05
0.399775
-2.24325e-05
0.399786
-1.33947e-05
0.399798
-4.64163e-06
0.399809
3.80418e-06
0.399819
1.19784e-05
0.39983
1.98826e-05
0.39984
2.75113e-05
0.39985
3.489e-05
0.39986
4.20587e-05
0.39987
4.90468e-05
0.399879
5.58361e-05
0.399889
6.24049e-05
0.399898
6.8769e-05
0.399908
7.49432e-05
0.399917
8.09571e-05
0.399927
8.6793e-05
0.399936
9.2371e-05
0.399945
9.7525e-05
0.399955
0.000101577
0.399967
0.000101851
0.399984
8.95893e-05
1.59081e-05
0.396068
-0.000920574
0.396276
0.000518752
0.396447
0.000778026
0.39675
0.000805756
0.39711
0.000870563
0.397455
0.00088035
0.397769
0.000858883
0.398053
0.000833592
0.398309
0.000807085
0.398539
0.000778226
0.398747
0.000748214
0.398936
0.000718081
0.399106
0.000688196
0.399262
0.000658934
0.399404
0.000630801
0.399534
0.000604087
0.399654
0.000578887
0.399764
0.000555254
0.399867
0.000533239
0.399963
0.0005128
0.400053
0.00049373
0.400137
0.000475838
0.400217
0.000459075
0.400293
0.000443443
0.400365
0.000428836
0.400434
0.00041512
0.400501
0.000402283
0.400565
0.000390327
0.400627
0.000379168
0.400688
0.000368754
0.400747
0.000359101
0.400805
0.000350183
0.400862
0.000341946
0.400918
0.000334356
0.400974
0.000327371
0.401029
0.000320915
0.401084
0.000314907
0.401139
0.000309291
0.401193
0.000304053
0.401247
0.000299161
0.401302
0.00029453
0.401356
0.000290141
0.40141
0.000285992
0.401465
0.00028203
0.40152
0.000278222
0.401575
0.000274575
0.40163
0.000271129
0.401686
0.000267916
0.401741
0.000264868
0.401798
0.000261934
0.401854
0.000259125
0.401911
0.000256451
0.401968
0.000253928
0.402026
0.00025152
0.402084
0.000249128
0.402143
0.000246594
0.402201
0.000243349
0.402259
0.000237428
0.402312
0.000224271
0.000188031
0.397417
-0.000488466
0.397741
1.83304e-05
0.398068
0.000134816
0.398343
9.56787e-05
0.398597
9.22966e-05
0.398814
7.50285e-05
0.398997
4.54339e-05
0.399155
1.88496e-05
0.399297
-3.147e-06
0.399426
-2.18017e-05
0.399545
-3.71452e-05
0.399655
-4.93603e-05
0.399758
-5.90578e-05
0.399855
-6.66376e-05
0.399947
-7.23305e-05
0.400034
-7.63439e-05
0.400117
-7.89013e-05
0.400197
-8.02224e-05
0.400273
-8.04631e-05
0.400345
-7.97933e-05
0.400415
-7.84588e-05
0.400483
-7.66795e-05
0.400549
-7.45449e-05
0.400612
-7.2083e-05
0.400674
-6.94004e-05
0.400735
-6.66143e-05
0.400794
-6.37257e-05
0.400852
-6.07248e-05
0.400909
-5.76781e-05
0.400966
-5.46131e-05
0.401022
-5.14912e-05
0.401077
-4.83039e-05
0.401131
-4.5066e-05
0.401186
-4.17754e-05
0.40124
-3.84439e-05
0.401294
-3.51115e-05
0.401348
-3.18283e-05
0.401402
-2.86174e-05
0.401456
-2.54536e-05
0.40151
-2.23367e-05
0.401564
-1.93153e-05
0.401618
-1.6387e-05
0.401673
-1.35366e-05
0.401728
-1.08001e-05
0.401783
-8.20189e-06
0.401838
-5.72953e-06
0.401894
-3.32422e-06
0.40195
-9.53703e-07
0.402006
1.34476e-06
0.402063
3.53295e-06
0.402121
5.63001e-06
0.402178
7.6636e-06
0.402237
9.6556e-06
0.402295
1.15785e-05
0.402354
1.3371e-05
0.402414
1.49558e-05
0.402473
1.6026e-05
0.402531
1.54968e-05
0.402585
1.03547e-05
-8.3806e-06
0.397416
-2.67955e-07
0.397463
-2.72656e-07
0.397662
5.70832e-08
0.39786
5.79112e-07
0.39809
1.20292e-06
0.39833
1.86544e-06
0.398561
2.79273e-06
0.398777
4.17451e-06
0.398979
5.50595e-06
0.399165
6.54712e-06
0.399336
7.48039e-06
0.399493
8.3461e-06
0.399638
8.92767e-06
0.399771
9.20417e-06
0.399894
9.29047e-06
0.400008
9.29093e-06
0.400115
9.28389e-06
0.400214
9.30427e-06
0.400307
9.36818e-06
0.400394
9.49562e-06
0.400477
9.66472e-06
0.400555
9.84134e-06
0.40063
1.00417e-05
0.400701
1.03063e-05
0.40077
1.06026e-05
0.400836
1.08806e-05
0.4009
1.11735e-05
0.400962
1.14977e-05
0.401022
1.17963e-05
0.401082
1.20517e-05
0.40114
1.23006e-05
0.401197
1.25585e-05
0.401253
1.28297e-05
0.401309
1.31274e-05
0.401365
1.34482e-05
0.40142
1.37689e-05
0.401474
1.40512e-05
0.401529
1.4283e-05
0.401583
1.45072e-05
0.401638
1.47383e-05
0.401692
1.49481e-05
0.401747
1.51512e-05
0.401802
1.53574e-05
0.401857
1.553e-05
0.401912
1.56373e-05
0.401967
1.56735e-05
0.402023
1.56997e-05
0.402079
1.57344e-05
0.402136
1.57536e-05
0.402193
1.57165e-05
0.40225
1.5632e-05
0.402308
1.55347e-05
0.402367
1.54357e-05
0.402425
1.53108e-05
0.402484
1.5137e-05
0.402544
1.49343e-05
0.402603
1.47538e-05
0.40266
1.46652e-05
0.40271
1.46834e-05
1.4683e-05
0.397417
0.000487923
0.397463
-1.89188e-05
0.397662
-0.000134772
0.39786
-9.45698e-05
0.39809
-8.98932e-05
0.39833
-7.12115e-05
0.398561
-3.97753e-05
0.398778
-1.04769e-05
0.398979
1.41225e-05
0.399165
3.47976e-05
0.399336
5.19603e-05
0.399493
6.58599e-05
0.399638
7.66908e-05
0.399771
8.48168e-05
0.399894
9.0675e-05
0.400008
9.46813e-05
0.400115
9.72239e-05
0.400214
9.85946e-05
0.400307
9.89754e-05
0.400394
9.85749e-05
0.400477
9.75941e-05
0.400555
9.61856e-05
0.40063
9.44699e-05
0.400701
9.25532e-05
0.40077
9.04744e-05
0.400836
8.8253e-05
0.4009
8.59557e-05
0.400962
8.36056e-05
0.401022
8.1158e-05
0.401082
7.8604e-05
0.40114
7.59779e-05
0.401197
7.33024e-05
0.401254
7.05987e-05
0.401309
6.78866e-05
0.401365
6.51722e-05
0.40142
6.24539e-05
0.401475
5.97113e-05
0.401529
5.69444e-05
0.401584
5.42087e-05
0.401638
5.15303e-05
0.401692
4.89016e-05
0.401747
4.63495e-05
0.401802
4.38778e-05
0.401857
4.14527e-05
0.401912
3.9044e-05
0.401968
3.66224e-05
0.402023
3.4255e-05
0.40208
3.19591e-05
0.402136
2.96919e-05
0.402193
2.74138e-05
0.402251
2.51403e-05
0.402308
2.29087e-05
0.402367
2.07191e-05
0.402425
1.85539e-05
0.402484
1.64302e-05
0.402544
1.44603e-05
0.402603
1.30426e-05
0.40266
1.33895e-05
0.40271
1.85751e-05
3.73818e-05
0.397417
0.000920245
0.397741
-0.000519185
0.398068
-0.000777932
0.398343
-0.000804725
0.398597
-0.000868389
0.398814
-0.000877124
0.398998
-0.000853832
0.399156
-0.000826143
0.399298
-0.000797305
0.399427
-0.000766639
0.399545
-0.000734935
0.399655
-0.000703182
0.399759
-0.000672085
0.399856
-0.000642132
0.399948
-0.000613659
0.400035
-0.000586818
0.400118
-0.000561616
0.400197
-0.000538051
0.400273
-0.000516062
0.400346
-0.000495543
0.400416
-0.000476327
0.400484
-0.000458281
0.400549
-0.000441316
0.400613
-0.000425358
0.400675
-0.000410363
0.400736
-0.000396293
0.400795
-0.00038307
0.400853
-0.000370661
0.40091
-0.000359088
0.400967
-0.00034834
0.401022
-0.000338364
0.401078
-0.000329102
0.401132
-0.000320496
0.401187
-0.000312496
0.401241
-0.00030506
0.401295
-0.000298141
0.401349
-0.000291714
0.401403
-0.00028575
0.401457
-0.000280168
0.401511
-0.000274916
0.401565
-0.000269968
0.401619
-0.000265274
0.401674
-0.000260819
0.401729
-0.00025661
0.401784
-0.000252639
0.401839
-0.000248958
0.401895
-0.000245488
0.401951
-0.000242208
0.402007
-0.000239143
0.402064
-0.000236308
0.402122
-0.000233676
0.402179
-0.000231201
0.402238
-0.000228878
0.402296
-0.000226704
0.402355
-0.000224624
0.402415
-0.000222454
0.402474
-0.000219548
0.402532
-0.000213821
0.402586
-0.00020052
-0.000163718
0.396069
0.00315631
0.396277
4.13029e-05
0.396448
5.95576e-05
0.396751
4.81262e-05
0.397111
1.3142e-05
0.397455
6.14434e-05
0.39777
0.000125637
0.398054
0.000173647
0.39831
0.000207202
0.39854
0.000231087
0.398748
0.000247611
0.398936
0.00025829
0.399107
0.000264372
0.399262
0.000266762
0.399404
0.000266107
0.399534
0.000262997
0.399654
0.00025797
0.399764
0.000251421
0.399867
0.000243661
0.399963
0.000234983
0.400053
0.000225694
0.400137
0.000216024
0.400217
0.000206115
0.400293
0.000196065
0.400365
0.000185935
0.400434
0.000175777
0.400501
0.000165653
0.400565
0.00015557
0.400627
0.000145501
0.400688
0.000135446
0.400747
0.000125426
0.400805
0.000115467
0.400862
0.000105595
0.400919
9.58247e-05
0.400974
8.61706e-05
0.401029
7.66547e-05
0.401084
6.72813e-05
0.401139
5.80606e-05
0.401193
4.90379e-05
0.401247
4.02369e-05
0.401302
3.16663e-05
0.401356
2.33498e-05
0.40141
1.52789e-05
0.401465
7.42895e-06
0.40152
-2.14663e-07
0.401575
-7.68004e-06
0.40163
-1.49496e-05
0.401686
-2.20219e-05
0.401742
-2.89299e-05
0.401798
-3.56952e-05
0.401855
-4.23084e-05
0.401912
-4.87411e-05
0.401969
-5.50039e-05
0.402027
-6.10998e-05
0.402085
-6.69754e-05
0.402144
-7.24449e-05
0.402203
-7.67724e-05
0.402261
-7.71717e-05
0.402314
-6.46141e-05
1.0093e-05
0.398245
0.00186325
0.398236
-0.00138479
0.398036
-0.00139755
0.398041
-0.00169973
0.398112
-0.00181479
0.398211
-0.00176998
0.398325
-0.00167549
0.398441
-0.00157439
0.398554
-0.00147574
0.398661
-0.00138217
0.39876
-0.00129514
0.398852
-0.00121513
0.398936
-0.001142
0.399013
-0.00107542
0.399083
-0.00101494
0.399147
-0.00096006
0.399205
-0.000910252
0.399258
-0.000865022
0.399307
-0.000823923
0.399352
-0.000786522
0.399393
-0.000752388
0.39943
-0.000721152
0.399464
-0.000692516
0.399496
-0.000666228
0.399525
-0.000642074
0.399552
-0.000619859
0.399577
-0.000599397
0.3996
-0.00058054
0.399621
-0.00056318
0.399642
-0.000547212
0.39966
-0.00053252