/*--------------------------------*- C++ -*----------------------------------*\
  =========                 |
  \\      /  F ield         | OpenFOAM: The Open Source CFD Toolbox
   \\    /   O peration     | Website:  https://openfoam.org
    \\  /    A nd           | Version:  8
     \\/     M anipulation  |
\*---------------------------------------------------------------------------*/
FoamFile
{
    version     2.0;
    format      ascii;
    class       volScalarField;
    location    "100";
    object      epsilon;
}
// * * * * * * * * * * * * * * * * * * * * * * * * * * * * * * * * * * * * * //

dimensions      [0 2 -3 0 0 0 0];

internalField   nonuniform List<scalar> 
8400
(
0.00415555
0.00373506
0.0033913
0.00316368
0.0030135
0.00291249
0.00283602
0.00276914
0.00270753
0.0026497
0.00259502
0.00254308
0.00246094
0.00232937
0.00216609
0.00202136
0.00190856
0.00180224
0.00168606
0.00156325
0.00144856
0.00134915
0.00126515
0.00120214
0.00116698
0.00116263
0.00118826
0.00124048
0.00131334
0.0013998
0.00149288
0.001586
0.00167356
0.00175134
0.00181627
0.00186661
0.00190155
0.00192114
0.00192626
0.00191803
0.00189771
0.00187045
0.00184063
0.00180836
0.00177385
0.00173738
0.00169919
0.00165953
0.00161869
0.00157704
0.00667549
0.00531325
0.0042978
0.00382204
0.00367471
0.00369223
0.00376813
0.00387684
0.00400595
0.00414403
0.00427636
0.00438273
0.00437172
0.0041864
0.00387389
0.00361634
0.00346399
0.00329823
0.00304652
0.00271725
0.00237253
0.00203791
0.00169401
0.00135713
0.00106031
0.00082168
0.000642273
0.000516964
0.00043516
0.000383543
0.000351536
0.000332445
0.000322058
0.000317516
0.000316792
0.000318341
0.000320935
0.00032377
0.000326372
0.000328394
0.000329684
0.000328755
0.000324257
0.000316859
0.000307257
0.000296101
0.000284018
0.000271682
0.000259714
0.000248686
0.0129962
0.00984402
0.00663469
0.00556468
0.00528621
0.00534033
0.00558724
0.0059374
0.00633908
0.00674021
0.00707425
0.00725684
0.00723292
0.006985
0.00665696
0.00645786
0.00638273
0.00625075
0.00594818
0.00548655
0.00496833
0.00444005
0.00381956
0.00312612
0.0024449
0.00184433
0.00135372
0.000990035
0.000746347
0.000590845
0.000490031
0.000421334
0.000371893
0.000335216
0.000308028
0.000288059
0.000273548
0.000263076
0.000255572
0.000250245
0.000246558
0.000242773
0.000238322
0.000233307
0.000227854
0.000222125
0.000216283
0.000210458
0.000204757
0.000199269
0.0131343
0.0130525
0.012821
0.0124706
0.012015
0.0114819
0.0109294
0.0104123
0.00997376
0.00964932
0.00948321
0.00934717
0.00917969
0.00857595
0.00825157
0.00846799
0.0086113
0.00856594
0.0083583
0.0080387
0.00764783
0.00719983
0.00656098
0.005703
0.00470894
0.00369399
0.002744
0.00195138
0.00138387
0.0010265
0.000813402
0.000684684
0.000600205
0.000536677
0.000486722
0.000447478
0.000417264
0.000394547
0.000377974
0.000366468
0.00035915
0.000352772
0.000347213
0.000342251
0.000337731
0.000333557
0.000329618
0.000325794
0.000321972
0.000318052
0.0131233
0.0130689
0.0129988
0.0128964
0.0127449
0.0125321
0.0122597
0.0119443
0.0116128
0.0112967
0.0110236
0.0107855
0.0105598
0.0103188
0.010112
0.0100067
0.0098846
0.00972766
0.0094953
0.00939631
0.00939032
0.00920889
0.00884641
0.00825031
0.00738048
0.00624983
0.00496712
0.00364482
0.00251671
0.00174104
0.00127578
0.0010196
0.000894695
0.000815702
0.000755889
0.000707927
0.000669587
0.000640117
0.000618649
0.000604322
0.000594885
0.000588524
0.000584767
0.000583117
0.00058318
0.000584564
0.000586856
0.000589702
0.000592748
0.000595569
0.0131202
0.0130629
0.0130039
0.0129394
0.0128618
0.0127611
0.0126283
0.0124604
0.0122622
0.0120454
0.0118242
0.011605
0.0113882
0.0111773
0.0109828
0.0108161
0.0106684
0.0105361
0.0104289
0.0103106
0.0101725
0.0100293
0.00987673
0.00969703
0.00943095
0.00870462
0.00767591
0.0062267
0.00451593
0.00305985
0.00206268
0.00143531
0.001197
0.00108918
0.00102375
0.00098336
0.000952853
0.000929175
0.00091244
0.000902726
0.000896813
0.000895899
0.000899209
0.000906176
0.000916186
0.000928606
0.000942818
0.000958232
0.000974214
0.000990015
0.0131127
0.0130473
0.0129825
0.0129183
0.0128527
0.0127816
0.0126992
0.0125996
0.0124793
0.0123391
0.012183
0.0120155
0.01184
0.0116609
0.0114839
0.0113145
0.0111549
0.0110071
0.0108725
0.0107484
0.0106326
0.0105063
0.0103639
0.0101991
0.0100088
0.00977726
0.0094688
0.0089913
0.00760654
0.00551246
0.00379053
0.0021788
0.00159351
0.00137797
0.00122651
0.0011814
0.00117257
0.00116653
0.00116349
0.00116476
0.00116869
0.00117763
0.0011911
0.0012085
0.00122911
0.0012522
0.00127705
0.0013029
0.00132893
0.00135429
0.0131033
0.0130263
0.012951
0.0128784
0.0128084
0.0127401
0.0126707
0.0125959
0.0125117
0.0124148
0.0123041
0.0121801
0.0120443
0.011899
0.0117476
0.011594
0.0114414
0.0112922
0.0111477
0.0110074
0.0108697
0.0107314
0.0105884
0.0104369
0.0102679
0.0100764
0.0098553
0.00959693
0.00928366
0.00886399
0.00803659
0.0042152
0.00248049
0.0021308
0.00150533
0.00125993
0.00127262
0.00128796
0.00130414
0.00131971
0.00133712
0.00135728
0.00137995
0.00140455
0.00143047
0.00145692
0.00148303
0.00150798
0.00153108
0.00155161
0.0130894
0.0129954
0.0129051
0.0128197
0.0127399
0.0126656
0.0125957
0.0125275
0.0124577
0.0123822
0.0122982
0.0122035
0.0120977
0.0119807
0.0118541
0.0117201
0.0115811
0.0114391
0.0112954
0.0111505
0.0110039
0.010854
0.0106982
0.0105329
0.0103546
0.0101594
0.00994202
0.00969741
0.00941977
0.00909362
0.00865954
0.00802554
0.00758719
0.00664901
0.00323794
0.00127187
0.00127778
0.00128893
0.00131221
0.00135181
0.00138731
0.00141965
0.00144965
0.00147742
0.0015026
0.00152429
0.00154165
0.00155395
0.00156061
0.00156113
0.0130683
0.0129467
0.0128343
0.0127317
0.012639
0.012556
0.0124817
0.0124138
0.0123496
0.0122853
0.012217
0.0121418
0.0120572
0.011962
0.0118562
0.0117402
0.0116156
0.0114838
0.0113458
0.0112024
0.0110536
0.0108984
0.0107354
0.0105624
0.0103764
0.0101746
0.00995319
0.00970901
0.00943809
0.00913346
0.00877839
0.00835391
0.00788075
0.0071893
0.00598456
0.00498375
0.004303
0.0035498
0.00195029
0.00127727
0.00133892
0.00138808
0.00142801
0.00146055
0.00148557
0.00150205
0.00150933
0.00150682
0.00149395
0.00147022
0.0130324
0.0128621
0.0127171
0.0125928
0.0124863
0.0123959
0.012319
0.0122531
0.0121943
0.012139
0.0120826
0.012022
0.0119537
0.0118754
0.0117861
0.0116854
0.0115739
0.0114524
0.0113213
0.0111817
0.0110338
0.010877
0.0107104
0.0105325
0.0103413
0.0101349
0.00991078
0.00966658
0.00939958
0.00910592
0.00877919
0.00841111
0.00799268
0.00746779
0.00677493
0.00604648
0.00530079
0.00444489
0.00334034
0.00239638
0.00179782
0.00148471
0.00138394
0.00138772
0.00141619
0.00143673
0.00144421
0.00143828
0.00141805
0.00138211
0.0129588
0.0126901
0.0125066
0.012367
0.0122568
0.0121688
0.0120986
0.0120411
0.0119931
0.0119494
0.0119062
0.0118589
0.0118043
0.0117401
0.0116643
0.0115757
0.0114746
0.0113615
0.011237
0.011101
0.0109544
0.0107972
0.0106283
0.010447
0.0102523
0.0100429
0.00981701
0.00957301
0.00930977
0.00902497
0.00871551
0.00837737
0.00800279
0.00756895
0.00705572
0.00648542
0.00585416
0.00512581
0.00427157
0.00340663
0.00264934
0.00207233
0.00170383
0.00151035
0.00142876
0.00140241
0.00139545
0.00138893
0.00137323
0.00134352
0.0126288
0.012349
0.0121738
0.012046
0.0119518
0.0118814
0.0118285
0.0117877
0.0117563
0.0117277
0.0116986
0.0116642
0.0116219
0.0115681
0.011502
0.0114223
0.0113284
0.011221
0.0111004
0.0109667
0.0108206
0.0106622
0.0104908
0.0103067
0.0101092
0.00989709
0.00966992
0.0094274
0.00916887
0.00889297
0.00859823
0.00828294
0.0079425
0.00756626
0.00714548
0.00668065
0.00616472
0.00558088
0.00491831
0.00420907
0.00350758
0.00287382
0.0023582
0.00198064
0.00172881
0.00157272
0.00148034
0.00142506
0.00138712
0.00135306
0.0121036
0.0118848
0.0117518
0.0116623
0.0116013
0.0115611
0.0115336
0.0115152
0.0115017
0.0114884
0.0114715
0.0114471
0.0114136
0.0113677
0.011308
0.0112309
0.011138
0.0110323
0.0109127
0.0107789
0.0106313
0.01047
0.0102951
0.0101077
0.00990702
0.00969253
0.00946523
0.00922561
0.00897297
0.00870701
0.00842796
0.00813413
0.00782326
0.00749093
0.00713241
0.00674503
0.00632371
0.00586016
0.00534786
0.00479365
0.00421778
0.00365067
0.00312686
0.00267452
0.00230782
0.00202601
0.00181817
0.00166875
0.00156164
0.00148245
0.0115123
0.0113898
0.0113192
0.0112773
0.0112542
0.0112434
0.0112396
0.0112395
0.0112393
0.0112356
0.0112258
0.0112066
0.011176
0.0111319
0.0110729
0.0109969
0.0109049
0.0107986
0.0106771
0.0105408
0.0103897
0.0102163
0.0100313
0.00983954
0.00963554
0.00941995
0.00919463
0.00895933
0.0087147
0.00846177
0.00820031
0.00792921
0.00764756
0.00735362
0.0070448
0.00671929
0.00637443
0.00600592
0.00560981
0.00518609
0.00474022
0.00428354
0.00383239
0.00340484
0.00301654
0.00267745
0.00239131
0.00215645
0.00196751
0.00181704
0.0110007
0.0109579
0.0109381
0.0109319
0.0109346
0.0109417
0.0109506
0.0109583
0.0109627
0.0109608
0.0109505
0.0109297
0.0108967
0.0108494
0.0107868
0.0107078
0.0106128
0.0105021
0.0103753
0.0102325
0.0100729
0.00989441
0.00970617
0.00950946
0.00930056
0.00906439
0.00884064
0.00861372
0.00838221
0.00814672
0.00790622
0.00766056
0.00740965
0.00715251
0.0068881
0.0066159
0.00633472
0.00604233
0.00573652
0.005416
0.00508098
0.00473426
0.00438151
0.00403047
0.00368973
0.00336733
0.00306984
0.00280164
0.00256464
0.00235853
0.0105944
0.010591
0.010595
0.0106032
0.0106135
0.0106239
0.0106324
0.0106373
0.0106368
0.0106289
0.0106119
0.0105839
0.0105435
0.010489
0.0104195
0.0103341
0.0102327
0.0101152
0.00998105
0.0098301
0.00966221
0.00947864
0.00928505
0.00908076
0.0088633
0.00863358
0.00841555
0.00817692
0.00795345
0.00774067
0.00752705
0.00731202
0.00709499
0.00687574
0.00665428
0.00643077
0.00620492
0.0059757
0.00574175
0.00550191
0.00525522
0.00500165
0.00474225
0.00447893
0.00421451
0.00395256
0.00369704
0.0034516
0.00321925
0.00300223
0.010184
0.0101884
0.0101939
0.0101997
0.0102048
0.0102078
0.0102076
0.0102028
0.0101919
0.0101733
0.0101456
0.0101071
0.0100563
0.00999208
0.00991347
0.0098195
0.00970976
0.00958395
0.00944153
0.00928285
0.00910881
0.00892103
0.00872224
0.0085127
0.00829331
0.00806938
0.00785115
0.00763044
0.00742436
0.00720241
0.0070272
0.0068511
0.00667293
0.00649416
0.00631631
0.00613995
0.00596492
0.00579071
0.00561656
0.00544169
0.00526523
0.00508647
0.00490487
0.00472017
0.00453271
0.00434333
0.00415312
0.00396335
0.00377542
0.00359073
0.0095773
0.00957475
0.00957154
0.00956723
0.0095612
0.00955246
0.00954001
0.00952268
0.0094991
0.0094679
0.00942782
0.00937741
0.00931538
0.00924066
0.00915226
0.00904936
0.00893136
0.00879808
0.0086494
0.00848578
0.00830861
0.00811954
0.00792027
0.0077118
0.00749715
0.00728207
0.00707075
0.00686359
0.00667482
0.00650243
0.00633655
0.00620711
0.00607498
0.00594172
0.00581128
0.00568421
0.00556016
0.00543893
0.00532007
0.00520294
0.00508679
0.0049709
0.00485451
0.00473709
0.00461835
0.00449801
0.00437586
0.00425181
0.00412595
0.00399829
0.014432
0.0140801
0.0137346
0.0133908
0.0130503
0.0127144
0.0123841
0.0120601
0.0117428
0.0114319
0.0111269
0.0108268
0.0105304
0.0102363
0.00994308
0.00964939
0.00935392
0.00905559
0.00875367
0.00844788
0.00813872
0.00782683
0.00751318
0.00719918
0.00688743
0.00658276
0.00629059
0.00601711
0.00577198
0.00557411
0.00544379
0.00538084
0.00538115
0.00540656
0.00544639
0.00549686
0.00555573
0.00562134
0.00569219
0.00576697
0.00584448
0.0059236
0.00600338
0.00608298
0.0061615
0.00623796
0.00631141
0.00638082
0.00644458
0.00649978
9.32899e-06
9.21285e-06
9.10349e-06
8.99452e-06
8.88589e-06
8.77698e-06
8.66804e-06
8.5596e-06
8.45175e-06
8.34455e-06
8.23816e-06
8.13275e-06
8.02846e-06
7.92537e-06
7.82357e-06
7.72321e-06
7.62449e-06
7.52763e-06
7.43289e-06
7.34046e-06
7.24289e-06
7.14527e-06
7.04736e-06
6.9502e-06
6.85477e-06
6.76166e-06
6.65719e-06
6.56427e-06
6.47807e-06
6.39563e-06
6.30994e-06
6.2243e-06
6.14039e-06
6.05904e-06
5.98075e-06
5.9059e-06
5.8348e-06
5.76776e-06
5.70497e-06
5.64656e-06
5.59242e-06
5.54228e-06
5.49543e-06
5.45115e-06
5.40861e-06
5.36692e-06
5.3251e-06
5.28207e-06
5.23642e-06
5.18623e-06
8.9834e-06
8.38966e-06
7.85047e-06
7.35923e-06
6.9102e-06
6.49935e-06
6.12292e-06
5.77727e-06
5.4593e-06
5.16614e-06
4.89525e-06
4.64437e-06
4.41158e-06
4.19528e-06
3.99411e-06
3.80692e-06
3.63277e-06
3.47094e-06
3.31973e-06
3.18036e-06
7.28496e-07
7.25953e-07
7.22072e-07
7.18062e-07
7.14471e-07
7.11453e-07
7.13056e-07
7.14083e-07
7.14041e-07
7.12965e-07
7.1269e-07
7.13041e-07
7.13626e-07
7.14112e-07
7.14292e-07
7.1409e-07
7.13529e-07
7.12682e-07
7.11647e-07
7.10505e-07
7.09316e-07
7.08116e-07
7.06922e-07
7.05698e-07
7.04378e-07
7.02874e-07
7.01086e-07
6.98899e-07
6.96193e-07
6.92888e-07
8.9833e-06
8.38766e-06
7.83923e-06
7.3363e-06
6.87511e-06
6.45138e-06
6.06117e-06
5.70112e-06
5.36836e-06
5.06032e-06
4.77469e-06
4.50941e-06
4.26269e-06
4.03297e-06
3.81889e-06
3.6193e-06
3.43319e-06
3.25912e-06
3.12228e-06
7.20497e-07
7.18431e-07
7.14649e-07
7.10022e-07
7.0507e-07
7.00082e-07
6.95196e-07
6.90581e-07
6.86076e-07
6.81605e-07
6.77108e-07
6.72647e-07
6.68209e-07
6.63783e-07
6.59369e-07
6.54985e-07
6.50666e-07
6.46457e-07
6.4241e-07
6.38569e-07
6.34972e-07
6.31638e-07
6.28547e-07
6.25656e-07
6.22907e-07
6.20228e-07
6.1755e-07
6.14808e-07
6.11933e-07
6.08824e-07
6.0533e-07
8.9811e-06
8.38897e-06
7.84531e-06
7.34597e-06
6.88719e-06
6.46508e-06
6.07601e-06
5.71671e-06
5.38433e-06
5.07632e-06
4.79043e-06
4.52465e-06
4.27722e-06
4.04661e-06
3.83147e-06
3.63067e-06
3.4432e-06
3.26823e-06
3.10564e-06
7.28264e-07
7.22001e-07
7.15966e-07
7.1015e-07
7.04545e-07
6.99134e-07
6.93887e-07
6.88761e-07
6.83702e-07
6.78648e-07
6.73546e-07
6.6836e-07
6.63076e-07
6.57702e-07
6.52271e-07
6.46835e-07
6.41457e-07
6.36203e-07
6.31137e-07
6.26312e-07
6.21759e-07
6.17485e-07
6.13472e-07
6.0968e-07
6.06049e-07
6.02508e-07
5.98984e-07
5.9542e-07
5.91794e-07
5.88085e-07
5.84188e-07
8.9798e-06
8.38493e-06
7.84008e-06
7.34005e-06
6.88071e-06
6.45823e-06
6.0691e-06
5.71008e-06
5.37824e-06
5.07096e-06
4.78589e-06
4.52097e-06
4.27437e-06
4.04453e-06
3.83008e-06
3.62983e-06
3.44281e-06
3.26818e-06
3.1055e-06
7.28363e-07
7.22114e-07
7.16066e-07
7.10237e-07
7.04625e-07
6.99214e-07
6.93967e-07
6.88835e-07
6.83758e-07
6.78674e-07
6.73527e-07
6.68279e-07
6.62912e-07
6.57437e-07
6.51888e-07
6.46318e-07
6.40793e-07
6.35381e-07
6.30147e-07
6.25142e-07
6.20397e-07
6.15919e-07
6.11691e-07
6.07671e-07
6.03807e-07
6.00034e-07
5.96273e-07
5.92455e-07
5.88534e-07
5.84526e-07
5.80385e-07
8.97928e-06
8.38174e-06
7.83559e-06
7.33561e-06
6.87707e-06
6.45582e-06
6.06815e-06
5.7107e-06
5.38043e-06
5.07463e-06
4.79088e-06
4.52708e-06
4.28137e-06
4.05218e-06
3.83814e-06
3.6381e-06
3.4511e-06
3.27634e-06
3.11343e-06
7.29567e-07
7.23267e-07
7.17167e-07
7.11287e-07
7.05629e-07
7.00176e-07
6.94892e-07
6.89726e-07
6.84616e-07
6.79495e-07
6.74305e-07
6.69007e-07
6.63581e-07
6.58039e-07
6.52413e-07
6.46756e-07
6.41136e-07
6.35621e-07
6.30276e-07
6.25157e-07
6.20293e-07
6.15691e-07
6.11335e-07
6.07184e-07
6.03182e-07
5.99278e-07
5.95404e-07
5.91498e-07
5.87491e-07
5.83377e-07
5.79145e-07
8.97861e-06
8.37843e-06
7.83034e-06
7.32943e-06
6.87069e-06
6.44975e-06
6.06271e-06
5.7061e-06
5.37679e-06
5.07198e-06
4.78921e-06
4.52629e-06
4.28136e-06
4.05279e-06
3.8392e-06
3.63945e-06
3.4526e-06
3.27788e-06
3.11492e-06
7.2983e-07
7.23547e-07
7.17457e-07
7.11584e-07
7.05935e-07
7.00492e-07
6.95222e-07
6.9007e-07
6.84972e-07
6.7986e-07
6.74676e-07
6.69376e-07
6.63943e-07
6.58386e-07
6.52737e-07
6.47049e-07
6.41388e-07
6.35825e-07
6.30426e-07
6.25243e-07
6.20311e-07
6.15636e-07
6.11198e-07
6.06963e-07
6.02872e-07
5.98868e-07
5.94897e-07
5.90902e-07
5.8684e-07
5.82676e-07
5.78404e-07
8.97753e-06
8.37463e-06
7.82472e-06
7.32296e-06
6.86415e-06
6.44375e-06
6.05769e-06
5.70232e-06
5.37439e-06
5.071e-06
4.78958e-06
4.52791e-06
4.28404e-06
4.05632e-06
3.84335e-06
3.64401e-06
3.45738e-06
3.28272e-06
3.1197e-06
7.30569e-07
7.24262e-07
7.18146e-07
7.12247e-07
7.06572e-07
7.01107e-07
6.95816e-07
6.90643e-07
6.85522e-07
6.80383e-07
6.75166e-07
6.69827e-07
6.64347e-07
6.58736e-07
6.53025e-07
6.47268e-07
6.41534e-07
6.35893e-07
6.30416e-07
6.25155e-07
6.2014e-07
6.15386e-07
6.10873e-07
6.06558e-07
6.02391e-07
5.98309e-07
5.94264e-07
5.902e-07
5.86082e-07
5.81882e-07
5.77591e-07
8.97625e-06
8.3704e-06
7.81866e-06
7.31608e-06
6.85717e-06
6.43722e-06
6.05201e-06
5.69775e-06
5.37105e-06
5.06892e-06
4.78871e-06
4.52813e-06
4.28519e-06
4.05819e-06
3.84574e-06
3.64671e-06
3.46023e-06
3.28559e-06
3.12248e-06
7.31014e-07
7.24704e-07
7.1858e-07
7.12673e-07
7.0699e-07
7.01518e-07
6.96219e-07
6.91037e-07
6.85904e-07
6.80749e-07
6.7551e-07
6.70144e-07
6.64633e-07
6.58982e-07
6.53225e-07
6.47418e-07
6.41631e-07
6.35935e-07
6.30397e-07
6.25077e-07
6.20003e-07
6.15178e-07
6.10596e-07
6.06214e-07
6.01982e-07
5.97835e-07
5.9372e-07
5.89596e-07
5.85426e-07
5.8119e-07
5.76883e-07
8.97497e-06
8.36607e-06
7.81249e-06
7.30914e-06
6.85018e-06
6.43073e-06
6.04642e-06
5.69331e-06
5.36791e-06
5.06713e-06
4.78822e-06
4.52882e-06
4.28688e-06
4.06067e-06
3.84879e-06
3.65014e-06
3.46385e-06
3.28926e-06
3.1261e-06
7.31581e-07
7.2526e-07
7.1912e-07
7.13194e-07
7.07491e-07
7.01996e-07
6.9667e-07
6.91456e-07
6.86284e-07
6.81083e-07
6.75793e-07
6.70371e-07
6.648e-07
6.5909e-07
6.53273e-07
6.47404e-07
6.41556e-07
6.35808e-07
6.30222e-07
6.24853e-07
6.19739e-07
6.14876e-07
6.10249e-07
6.05813e-07
6.01525e-07
5.97329e-07
5.93166e-07
5.88997e-07
5.8479e-07
5.80531e-07
5.76212e-07
8.97373e-06
8.36189e-06
7.80649e-06
7.30237e-06
6.84335e-06
6.42438e-06
6.04093e-06
5.68893e-06
5.36479e-06
5.06529e-06
4.78763e-06
4.52935e-06
4.28834e-06
4.06287e-06
3.85152e-06
3.6532e-06
3.46709e-06
3.29254e-06
3.12931e-06
3.08825e-06
7.2576e-07
7.19609e-07
7.13671e-07
7.07955e-07
7.02447e-07
6.97107e-07
6.91876e-07
6.86684e-07
6.8146e-07
6.76142e-07
6.70688e-07
6.6508e-07
6.59326e-07
6.53463e-07
6.4755e-07
6.41653e-07
6.3585e-07
6.30217e-07
6.24797e-07
6.19621e-07
6.14697e-07
6.10006e-07
6.05507e-07
6.01148e-07
5.96877e-07
5.92645e-07
5.88412e-07
5.8415e-07
5.79857e-07
5.75527e-07
8.97254e-06
8.35793e-06
7.80079e-06
7.29591e-06
6.83682e-06
6.41828e-06
6.03563e-06
5.68468e-06
5.36171e-06
5.06343e-06
4.78692e-06
4.52966e-06
4.28951e-06
4.06469e-06
3.8538e-06
3.65578e-06
3.46981e-06
3.29529e-06
3.132e-06
3.09096e-06
7.26185e-07
7.20026e-07
7.14076e-07
7.08346e-07
7.02819e-07
6.97456e-07
6.92199e-07
6.86977e-07
6.81719e-07
6.76365e-07
6.70874e-07
6.65229e-07
6.5944e-07
6.53537e-07
6.47581e-07
6.41653e-07
6.35812e-07
6.30131e-07
6.24676e-07
6.19459e-07
6.14486e-07
6.09732e-07
6.05168e-07
6.0074e-07
5.96397e-07
5.92096e-07
5.87804e-07
5.83495e-07
5.79162e-07
5.74814e-07
8.9714e-06
8.35422e-06
7.79547e-06
7.28987e-06
6.8307e-06
6.41258e-06
6.0307e-06
5.68078e-06
5.35898e-06
5.06189e-06
4.78652e-06
4.53028e-06
4.29098e-06
4.06684e-06
3.85646e-06
3.65877e-06
3.47301e-06
3.29858e-06
3.13529e-06
3.09422e-06
7.2669e-07
7.2052e-07
7.14561e-07
7.08824e-07
7.03295e-07
6.97934e-07
6.92681e-07
6.87463e-07
6.82209e-07
6.76856e-07
6.71358e-07
6.65697e-07
6.59887e-07
6.53963e-07
6.47973e-07
6.41995e-07
6.36113e-07
6.30381e-07
6.24855e-07
6.19563e-07
6.14514e-07
6.09679e-07
6.05024e-07
6.00504e-07
5.96071e-07
5.9168e-07
5.87304e-07
5.82931e-07
5.78555e-07
5.74182e-07
8.97033e-06
8.3508e-06
7.79056e-06
7.28424e-06
6.82491e-06
6.40706e-06
6.02577e-06
5.67662e-06
5.35568e-06
5.05947e-06
4.78491e-06
4.52938e-06
4.29065e-06
4.06695e-06
3.85687e-06
3.65938e-06
3.47373e-06
3.29934e-06
3.13603e-06
3.09509e-06
7.26842e-07
7.20688e-07
7.14749e-07
7.0904e-07
7.03551e-07
6.98239e-07
6.93041e-07
6.87883e-07
6.82688e-07
6.7739e-07
6.71944e-07
6.66321e-07
6.60528e-07
6.54606e-07
6.48613e-07
6.42611e-07
6.36677e-07
6.30889e-07
6.25297e-07
6.19923e-07
6.14776e-07
6.0984e-07
6.0508e-07
6.00452e-07
5.95912e-07
5.91425e-07
5.86963e-07
5.82511e-07
5.78079e-07
5.73675e-07
8.96935e-06
8.34775e-06
7.7862e-06
7.27934e-06
6.82007e-06
6.40272e-06
6.02224e-06
5.67409e-06
5.35422e-06
5.05905e-06
4.78545e-06
4.53074e-06
4.29269e-06
4.06952e-06
3.85983e-06
3.66263e-06
3.47715e-06
3.30284e-06
3.13952e-06
3.09845e-06
7.2735e-07
7.21175e-07
7.15215e-07
7.09487e-07
7.03976e-07
6.9864e-07
6.93416e-07
6.8823e-07
6.83006e-07
6.77676e-07
6.72193e-07
6.66546e-07
6.60738e-07
6.54795e-07
6.48783e-07
6.42777e-07
6.36838e-07
6.31033e-07
6.2542e-07
6.20027e-07
6.14852e-07
6.0988e-07
6.05077e-07
6.00404e-07
5.95815e-07
5.91278e-07
5.86777e-07
5.82302e-07
5.77856e-07
5.73455e-07
8.96851e-06
8.34495e-06
7.78186e-06
7.27393e-06
6.81394e-06
6.39621e-06
6.0156e-06
5.66752e-06
5.34784e-06
5.05294e-06
4.77963e-06
4.52521e-06
4.28743e-06
4.0645e-06
3.85507e-06
3.65809e-06
3.47283e-06
3.29873e-06
3.1356e-06
3.09489e-06
7.26838e-07
7.20709e-07
7.14796e-07
7.09113e-07
7.03645e-07
6.9835e-07
6.93165e-07
6.88016e-07
6.82833e-07
6.77558e-07
6.72135e-07
6.66542e-07
6.60803e-07
6.54944e-07
6.49009e-07
6.43078e-07
6.37216e-07
6.3149e-07
6.25938e-07
6.20596e-07
6.15466e-07
6.10528e-07
6.05751e-07
6.01098e-07
5.9653e-07
5.92016e-07
5.87542e-07
5.83115e-07
5.78743e-07
5.74444e-07
8.96782e-06
8.34302e-06
7.77954e-06
7.27201e-06
6.81285e-06
6.3961e-06
6.0165e-06
5.66932e-06
5.35038e-06
5.05604e-06
4.78312e-06
4.52892e-06
4.29124e-06
4.06833e-06
3.85883e-06
3.66174e-06
3.47633e-06
3.30204e-06
3.1387e-06
3.09778e-06
7.2727e-07
7.21121e-07
7.15187e-07
7.09481e-07
7.03986e-07
6.98661e-07
6.93446e-07
6.88266e-07
6.83052e-07
6.77754e-07
6.72339e-07
6.66785e-07
6.61098e-07
6.55327e-07
6.49518e-07
6.43744e-07
6.38063e-07
6.32548e-07
6.27237e-07
6.22151e-07
6.17295e-07
6.12649e-07
6.08178e-07
6.03851e-07
5.99634e-07
5.95505e-07
5.91455e-07
5.87493e-07
5.83648e-07
5.79953e-07
8.96733e-06
8.33749e-06
7.76901e-06
7.2575e-06
6.79547e-06
6.37696e-06
5.99652e-06
5.64924e-06
5.33074e-06
5.03722e-06
4.7654e-06
4.51252e-06
4.2763e-06
4.05497e-06
3.8471e-06
3.65168e-06
3.46794e-06
3.29531e-06
3.13362e-06
3.09476e-06
7.26976e-07
7.21095e-07
7.15403e-07
7.09951e-07
7.04942e-07
7.00219e-07
6.95666e-07
6.9117e-07
6.86656e-07
6.82077e-07
6.77412e-07
6.7267e-07
6.67872e-07
6.6305e-07
6.58261e-07
6.53569e-07
6.49028e-07
6.44689e-07
6.40589e-07
6.36742e-07
6.33141e-07
6.29762e-07
6.26568e-07
6.23524e-07
6.20593e-07
6.17762e-07
6.15034e-07
6.12432e-07
6.10016e-07
6.0787e-07
8.9688e-06
8.34368e-06
7.7831e-06
7.27981e-06
6.82663e-06
6.41909e-06
6.05159e-06
5.71868e-06
5.41559e-06
5.13812e-06
4.88264e-06
4.64608e-06
4.42587e-06
4.21995e-06
4.02675e-06
3.84511e-06
3.67421e-06
3.51357e-06
3.36299e-06
3.22164e-06
3.10323e-06
7.31847e-07
7.27775e-07
7.23277e-07
7.24877e-07
7.2698e-07
7.28673e-07
7.29549e-07
7.29607e-07
7.28971e-07
7.27792e-07
7.26228e-07
7.24438e-07
7.22528e-07
7.20608e-07
7.18752e-07
7.17031e-07
7.15479e-07
7.14107e-07
7.12917e-07
7.11874e-07
7.10926e-07
7.10027e-07
7.09134e-07
7.08205e-07
7.07226e-07
7.06226e-07
7.05266e-07
7.04467e-07
7.04052e-07
9.31813e-06
9.18094e-06
9.05523e-06
8.93966e-06
8.83272e-06
8.73084e-06
8.63222e-06
8.53585e-06
8.44083e-06
8.34637e-06
8.25185e-06
8.15681e-06
8.06104e-06
7.96456e-06
7.86759e-06
7.77055e-06
7.67399e-06
7.57851e-06
7.48469e-06
7.39291e-06
7.29614e-06
7.1976e-06
7.09924e-06
7.00211e-06
6.88538e-06
6.77881e-06
6.67951e-06
6.58517e-06
6.49377e-06
6.40426e-06
6.31609e-06
6.22916e-06
6.14379e-06
6.06032e-06
5.97939e-06
5.90138e-06
5.8267e-06
5.75556e-06
5.68782e-06
5.6232e-06
5.5614e-06
5.50188e-06
5.44413e-06
5.38778e-06
5.33257e-06
5.27823e-06
5.22466e-06
5.17177e-06
5.11937e-06
5.06709e-06
0.000130091
0.000135125
0.000254876
0.000355216
0.00041239
0.000419685
0.000376447
0.000288416
0.000176981
8.1315e-05
3.79403e-05
4.30572e-05
5.79876e-05
6.90454e-05
7.30771e-05
7.46581e-05
7.92316e-05
8.74567e-05
0.000133761
0.00269382
0.000121664
0.000134152
0.000256307
0.000359662
0.000419007
0.000427042
0.000383337
0.000294276
0.000181722
8.45813e-05
3.90612e-05
4.37433e-05
5.76359e-05
6.84252e-05
7.29415e-05
7.56867e-05
8.17142e-05
9.12119e-05
0.000142889
0.00295586
0.000113693
0.000133096
0.000257579
0.000364004
0.000425652
0.000434577
0.00039053
0.000300502
0.000186819
8.81653e-05
4.01715e-05
4.38482e-05
5.69433e-05
6.7558e-05
7.24238e-05
7.57514e-05
8.24067e-05
9.24508e-05
0.000147694
0.00312356
0.000106177
0.000131957
0.000258685
0.000368232
0.000432323
0.000442293
0.000398032
0.000307107
0.000192286
9.20818e-05
4.15171e-05
4.38518e-05
5.62568e-05
6.67282e-05
7.1953e-05
7.58717e-05
8.31702e-05
9.38124e-05
0.000153206
0.00330666
9.91114e-05
0.000130738
0.000259618
0.000372336
0.000439012
0.000450196
0.000405867
0.000314129
0.000198166
9.63674e-05
4.32101e-05
4.38396e-05
5.56149e-05
6.59612e-05
7.15507e-05
7.60628e-05
8.40268e-05
9.53436e-05
0.000159712
0.00350694
9.24889e-05
0.000129437
0.000260369
0.000376297
0.00044571
0.000458295
0.000414069
0.000321627
0.000204536
0.000101093
4.5353e-05
4.39171e-05
5.50722e-05
6.52922e-05
7.1245e-05
7.63593e-05
8.50025e-05
9.71201e-05
0.000167744
0.00372545
8.62959e-05
0.000128052
0.000260923
0.000380097
0.000452407
0.000466602
0.000422678
0.000329676
0.000211493
0.000106347
4.80201e-05
4.41958e-05
5.46977e-05
6.47718e-05
7.10794e-05
7.68123e-05
8.61471e-05
9.92752e-05
0.00017838
0.00396232
8.05144e-05
0.000126579
0.000261262
0.000383711
0.000459086
0.000475128
0.000431745
0.000338366
0.000219156
0.000112246
5.12825e-05
4.48032e-05
5.45836e-05
6.44689e-05
7.11181e-05
7.74951e-05
8.75631e-05
0.000102046
0.000193946
0.00421488
7.51229e-05
0.000125008
0.000261364
0.000387108
0.000465732
0.000483885
0.000441323
0.000347798
0.000227666
0.000118933
5.52382e-05
4.58832e-05
5.48472e-05
6.44792e-05
7.14518e-05
7.85118e-05
8.94087e-05
0.000105928
0.000216337
0.00448191
7.00967e-05
0.000123329
0.000261202
0.000390254
0.00047232
0.000492886
0.000451473
0.000358085
0.000237184
0.000126587
6.00237e-05
4.76106e-05
5.5639e-05
6.49321e-05
7.22073e-05
8.00056e-05
9.19005e-05
0.00011156
0.000247357
0.00476293
6.5409e-05
0.000121527
0.000260745
0.000393108
0.000478824
0.000502139
0.000462256
0.00036935
0.000247888
0.000135418
6.58285e-05
5.01897e-05
5.71494e-05
6.59987e-05
7.35565e-05
8.21733e-05
9.53469e-05
0.000119716
0.000289019
0.00505721
6.10316e-05
0.000119586
0.000259957
0.000395623
0.000485211
0.000511651
0.000473735
0.000381717
0.000259969
0.000145669
7.2895e-05
5.3864e-05
5.96171e-05
6.79029e-05
7.57289e-05
8.52829e-05
0.000100181
0.000131375
0.000343454
0.00536377
5.69356e-05
0.000117488
0.000258799
0.000397747
0.000491441
0.00052142
0.000485965
0.00039531
0.000273622
0.000157603
8.15209e-05
5.89282e-05
6.33386e-05
7.09339e-05
7.90268e-05
8.96965e-05
0.000106987
0.000147734
0.000412819
0.00568135
5.30926e-05
0.000115215
0.000257228
0.000399419
0.000497462
0.000531433
0.00049899
0.000410245
0.00028904
0.000171496
9.20398e-05
6.57363e-05
6.86794e-05
7.54599e-05
8.38435e-05
9.58952e-05
0.00011653
0.000170212
0.00049915
0.0060084
4.94753e-05
0.000112747
0.0002552
0.000400572
0.000503211
0.00054166
0.000512839
0.000426622
0.000306411
0.000187635
0.000104823
7.4703e-05
7.60835e-05
8.19424e-05
9.06805e-05
0.000104502
0.000129765
0.000200419
0.000604211
0.0063431
4.60579e-05
0.000110066
0.000252668
0.000401134
0.000508612
0.000552054
0.000527517
0.000444523
0.000325914
0.00020631
0.000120274
8.63024e-05
8.60787e-05
9.0947e-05
0.000100164
0.000116298
0.000147841
0.000240097
0.000729336
0.00668336
4.28173e-05
0.000107155
0.000249585
0.000401022
0.000513573
0.000562547
0.000543009
0.000464005
0.000347709
0.000227812
0.00013882
0.000101062
9.92746e-05
0.000103148
0.000113053
0.000132227
0.000172077
0.000291016
0.000875297
0.00702681
3.97331e-05
0.000104
0.000245905
0.00040015
0.000517989
0.000573047
0.000559269
0.000485097
0.000371928
0.000252413
0.000160895
0.000119549
0.00011635
0.000119318
0.000130232
0.000153376
0.000203914
0.000354848
0.00104221
0.00737079
3.67881e-05
0.000100591
0.000241584
0.000398425
0.000521737
0.000583439
0.000576222
0.000507791
0.000398668
0.000280362
0.000186928
0.000142353
0.000138025
0.000140307
0.000152686
0.000180944
0.000244832
0.000433026
0.0012295
0.00771238
3.39685e-05
9.69205e-05
0.00023658
0.000395753
0.000524683
0.000593581
0.000593755
0.000532034
0.000427979
0.000311864
0.000217326
0.00017006
0.00016502
0.000166991
0.000181452
0.000216166
0.000296245
0.000526604
0.00143588
0.0080484
3.12638e-05
9.29869e-05
0.000230856
0.000392033
0.000526671
0.000603302
0.00061171
0.000557717
0.000459837
0.000347046
0.000252419
0.000203198
0.000198
0.000200219
0.000217552
0.000260231
0.000359374
0.00063615
0.00165942
0.00837547
2.86672e-05
8.87941e-05
0.000224384
0.000387165
0.000527531
0.000612392
0.000629882
0.000584665
0.000494138
0.000385934
0.00029243
0.000242185
0.000237523
0.000240737
0.000261908
0.000314176
0.000435132
0.000761675
0.00189761
0.00869003
2.61747e-05
8.43523e-05
0.000217142
0.000381048
0.000527077
0.00062061
0.000648009
0.00061263
0.000530681
0.000428431
0.000337433
0.000287284
0.000283978
0.000289121
0.000315255
0.000378782
0.00052402
0.000902606
0.00214746
0.00898843
2.37852e-05
7.96792e-05
0.00020912
0.000373589
0.00052511
0.000627678
0.000665774
0.000641289
0.000569162
0.000474297
0.000387321
0.000338549
0.000337541
0.000345713
0.000378058
0.000454489
0.000626067
0.0010578
0.00240563
0.00926701
2.15002e-05
7.48e-05
0.000200323
0.000364702
0.000521422
0.000633283
0.000682805
0.000670239
0.000609173
0.000523149
0.00044179
0.000395803
0.000398142
0.000410573
0.000450459
0.000541332
0.000740797
0.00122558
0.00266853
0.0095221
1.9323e-05
6.97485e-05
0.000190776
0.000354321
0.000515806
0.000637088
0.000698675
0.000699011
0.000650214
0.000574466
0.000500339
0.000458625
0.000465445
0.000483453
0.000532234
0.000638918
0.000867244
0.00140385
0.00293244
0.00975012
1.72585e-05
6.45662e-05
0.000180518
0.000342399
0.00050806
0.000638733
0.000712915
0.000727065
0.000691698
0.000627609
0.000562293
0.000526368
0.000538851
0.000563795
0.00062279
0.00074642
0.00100398
0.00159011
0.00319355
0.0099476
1.53121e-05
5.93019e-05
0.000169614
0.000328917
0.000497995
0.000637847
0.000725008
0.000753803
0.000732968
0.000681849
0.000626846
0.000598196
0.000617534
0.000650747
0.00072118
0.000862609
0.00114918
0.00178157
0.00344806
0.0101112
1.34895e-05
5.40099e-05
0.000158148
0.000313888
0.00048545
0.000634053
0.000734403
0.000778561
0.000773295
0.000736387
0.0006931
0.000673145
0.000700467