/*--------------------------------*- C++ -*----------------------------------*\
  =========                 |
  \\      /  F ield         | OpenFOAM: The Open Source CFD Toolbox
   \\    /   O peration     | Website:  https://openfoam.org
    \\  /    A nd           | Version:  8
     \\/     M anipulation  |
\*---------------------------------------------------------------------------*/
FoamFile
{
    version     2.0;
    format      ascii;
    class       volScalarField;
    location    "100";
    object      nut;
}
// * * * * * * * * * * * * * * * * * * * * * * * * * * * * * * * * * * * * * //

dimensions      [0 2 -1 0 0 0 0];

internalField   nonuniform List<scalar> 
8400
(
4.04856e-05
3.91902e-05
3.89733e-05
3.90167e-05
3.90667e-05
3.90201e-05
3.88756e-05
3.87165e-05
3.85653e-05
3.84296e-05
3.83131e-05
3.79904e-05
3.73021e-05
3.63576e-05
3.55385e-05
3.50376e-05
3.45468e-05
3.39208e-05
3.3157e-05
3.23526e-05
3.15836e-05
3.08327e-05
3.01296e-05
2.9559e-05
2.91958e-05
2.90844e-05
2.92332e-05
2.96091e-05
3.01462e-05
3.07659e-05
3.1395e-05
3.19811e-05
3.24881e-05
3.28922e-05
3.31861e-05
3.33697e-05
3.34498e-05
3.34382e-05
3.33402e-05
3.31643e-05
3.29243e-05
3.26493e-05
3.23673e-05
3.20792e-05
3.17872e-05
3.14913e-05
3.11909e-05
3.08875e-05
3.0582e-05
3.02729e-05
4.2307e-05
3.74985e-05
3.84037e-05
4.00957e-05
4.16993e-05
4.25113e-05
4.31983e-05
4.38536e-05
4.44801e-05
4.5049e-05
4.55063e-05
4.54295e-05
4.46261e-05
4.32694e-05
4.22262e-05
4.20312e-05
4.17496e-05
4.10228e-05
3.98404e-05
3.84286e-05
3.69557e-05
3.51993e-05
3.30545e-05
3.06261e-05
2.80561e-05
2.54881e-05
2.31161e-05
2.11421e-05
1.96708e-05
1.86861e-05
1.80856e-05
1.77495e-05
1.75868e-05
1.75375e-05
1.75567e-05
1.76068e-05
1.76687e-05
1.7731e-05
1.77805e-05
1.78158e-05
1.78394e-05
1.78217e-05
1.77322e-05
1.75873e-05
1.73969e-05
1.71704e-05
1.69204e-05
1.66578e-05
1.63949e-05
1.61466e-05
4.75562e-05
3.41164e-05
4.01288e-05
4.42977e-05
4.64978e-05
4.83207e-05
4.97453e-05
5.09613e-05
5.19699e-05
5.26814e-05
5.29399e-05
5.2537e-05
5.16705e-05
5.04629e-05
5.01209e-05
5.03402e-05
5.03658e-05
4.9877e-05
4.897e-05
4.78687e-05
4.67694e-05
4.52861e-05
4.32162e-05
4.06224e-05
3.75766e-05
3.41186e-05
3.04316e-05
2.68847e-05
2.38029e-05
2.14201e-05
1.97433e-05
1.85439e-05
1.76582e-05
1.69855e-05
1.64716e-05
1.60851e-05
1.57975e-05
1.55851e-05
1.54299e-05
1.53182e-05
1.5238e-05
1.51531e-05
1.50485e-05
1.49266e-05
1.4792e-05
1.46491e-05
1.45018e-05
1.43539e-05
1.42102e-05
1.40757e-05
6.144e-05
6.06102e-05
6.02173e-05
5.96891e-05
5.8929e-05
5.81798e-05
5.75403e-05
5.70417e-05
5.67247e-05
5.66626e-05
5.64552e-05
5.59854e-05
5.53458e-05
5.2595e-05
5.40346e-05
5.45657e-05
5.45341e-05
5.42355e-05
5.38085e-05
5.33572e-05
5.29291e-05
5.21525e-05
5.08415e-05
4.89796e-05
4.65192e-05
4.32911e-05
3.92537e-05
3.48204e-05
3.0352e-05
2.64283e-05
2.36944e-05
2.18369e-05
2.05791e-05
1.9662e-05
1.89101e-05
1.82952e-05
1.77974e-05
1.74083e-05
1.71186e-05
1.69118e-05
1.67749e-05
1.66507e-05
1.65383e-05
1.64362e-05
1.63442e-05
1.62607e-05
1.61851e-05
1.6118e-05
1.60587e-05
1.60055e-05
6.14253e-05
6.1288e-05
6.11132e-05
6.08801e-05
6.05556e-05
6.01525e-05
5.97107e-05
5.9272e-05
5.88764e-05
5.85558e-05
5.82529e-05
5.79096e-05
5.7491e-05
5.70811e-05
5.68828e-05
5.6552e-05
5.6212e-05
5.57976e-05
5.54956e-05
5.5589e-05
5.56224e-05
5.53333e-05
5.4839e-05
5.40383e-05
5.28479e-05
5.09342e-05
4.76715e-05
4.35566e-05
3.85245e-05
3.27395e-05
2.8523e-05
2.54865e-05
2.35951e-05
2.26861e-05
2.19648e-05
2.13675e-05
2.08704e-05
2.0471e-05
2.01704e-05
1.99626e-05
1.98129e-05
1.97003e-05
1.96213e-05
1.95725e-05
1.95492e-05
1.95473e-05
1.95653e-05
1.96005e-05
1.96476e-05
1.97013e-05
6.14204e-05
6.13264e-05
6.12216e-05
6.10967e-05
6.09363e-05
6.07298e-05
6.04773e-05
6.01909e-05
5.98896e-05
5.95899e-05
5.92887e-05
5.89719e-05
5.86374e-05
5.83133e-05
5.80203e-05
5.77443e-05
5.74941e-05
5.72744e-05
5.7049e-05
5.68007e-05
5.65345e-05
5.62879e-05
5.60296e-05
5.57354e-05
5.54834e-05
5.5551e-05
5.36494e-05
5.13009e-05
4.79566e-05
4.06523e-05
3.52681e-05
3.04021e-05
2.59972e-05
2.51491e-05
2.45075e-05
2.39784e-05
2.36152e-05
2.33292e-05
2.31196e-05
2.29822e-05
2.28746e-05
2.28138e-05
2.27979e-05
2.28217e-05
2.28794e-05
2.29661e-05
2.30773e-05
2.32079e-05
2.33512e-05
2.35016e-05
6.14102e-05
6.13081e-05
6.12044e-05
6.10974e-05
6.09814e-05
6.0848e-05
6.06912e-05
6.05069e-05
6.02985e-05
6.00711e-05
5.98283e-05
5.95689e-05
5.9295e-05
5.90141e-05
5.87372e-05
5.84685e-05
5.8215e-05
5.79798e-05
5.77581e-05
5.75463e-05
5.73395e-05
5.71015e-05
5.68321e-05
5.6528e-05
5.61866e-05
5.57892e-05
5.5319e-05
5.48323e-05
5.70803e-05
4.93628e-05
4.48762e-05
4.09833e-05
2.76454e-05
2.7305e-05
2.68372e-05
2.56314e-05
2.53893e-05
2.52898e-05
2.52337e-05
2.51824e-05
2.51552e-05
2.51693e-05
2.52243e-05
2.53146e-05
2.54363e-05
2.55835e-05
2.57487e-05
2.59273e-05
2.6114e-05
2.63027e-05
6.13971e-05
6.1279e-05
6.11617e-05
6.10455e-05
6.09305e-05
6.0814e-05
6.06897e-05
6.05533e-05
6.04007e-05
6.02304e-05
6.00426e-05
5.98371e-05
5.96151e-05
5.93794e-05
5.91355e-05
5.88897e-05
5.8646e-05
5.84071e-05
5.81723e-05
5.79405e-05
5.77106e-05
5.74756e-05
5.72294e-05
5.69672e-05
5.66705e-05
5.63352e-05
5.59579e-05
5.55275e-05
5.50315e-05
5.45023e-05
5.47731e-05
7.19467e-05
2.71388e-05
3.00137e-05
3.35998e-05
2.7087e-05
2.60571e-05
2.61915e-05
2.62781e-05
2.63486e-05
2.64341e-05
2.65358e-05
2.66561e-05
2.67953e-05
2.69501e-05
2.71154e-05
2.7285e-05
2.74541e-05
2.76162e-05
2.7765e-05
6.13777e-05
6.12349e-05
6.10961e-05
6.09625e-05
6.08336e-05
6.07112e-05
6.05911e-05
6.04703e-05
6.03432e-05
6.0207e-05
6.00566e-05
5.98919e-05
5.97103e-05
5.95136e-05
5.93033e-05
5.90833e-05
5.88567e-05
5.86257e-05
5.83906e-05
5.81515e-05
5.79077e-05
5.76564e-05
5.73914e-05
5.71074e-05
5.68001e-05
5.64622e-05
5.60875e-05
5.56691e-05
5.51978e-05
5.46737e-05
5.40962e-05
5.2871e-05
4.96051e-05
5.1264e-05
7.43929e-05
4.0781e-05
2.56144e-05
2.61229e-05
2.64362e-05
2.65565e-05
2.68109e-05
2.70234e-05
2.72154e-05
2.74018e-05
2.75739e-05
2.77293e-05
2.78683e-05
2.79854e-05
2.80701e-05
2.81171e-05
6.13491e-05
6.11687e-05
6.09974e-05
6.08351e-05
6.06861e-05
6.05476e-05
6.04213e-05
6.03013e-05
6.01846e-05
6.00657e-05
5.99399e-05
5.98029e-05
5.96523e-05
5.94867e-05
5.93052e-05
5.91099e-05
5.89022e-05
5.8683e-05
5.84538e-05
5.82158e-05
5.79665e-05
5.77045e-05
5.74273e-05
5.71295e-05
5.68078e-05
5.64572e-05
5.60738e-05
5.56534e-05
5.51854e-05
5.46647e-05
5.40793e-05
5.32785e-05
5.21588e-05
5.16573e-05
5.16501e-05
4.51972e-05
4.01971e-05
3.83661e-05
4.63206e-05
3.07404e-05
2.64327e-05
2.68113e-05
2.71246e-05
2.73901e-05
2.75972e-05
2.77569e-05
2.78748e-05
2.7942e-05
2.79467e-05
2.78859e-05
6.13019e-05
6.10575e-05
6.08349e-05
6.06365e-05
6.04599e-05
6.03039e-05
6.01682e-05
6.00468e-05
5.99367e-05
5.98309e-05
5.97239e-05
5.96093e-05
5.94821e-05
5.93419e-05
5.91843e-05
5.90097e-05
5.88193e-05
5.86127e-05
5.83918e-05
5.81566e-05
5.79055e-05
5.76374e-05
5.73517e-05
5.70433e-05
5.67109e-05
5.63505e-05
5.59566e-05
5.55278e-05
5.50598e-05
5.4547e-05
5.39812e-05
5.33177e-05
5.25343e-05
5.17663e-05
5.07304e-05
4.83936e-05
4.60502e-05
4.42236e-05
4.33294e-05
3.88243e-05
3.4285e-05
3.05477e-05
2.81582e-05
2.72915e-05
2.72118e-05
2.73985e-05
2.7563e-05
2.76361e-05
2.76183e-05
2.75109e-05
6.12156e-05
6.08546e-05
6.05545e-05
6.03116e-05
6.01104e-05
5.99438e-05
5.98069e-05
5.96949e-05
5.95975e-05
5.95098e-05
5.94217e-05
5.93291e-05
5.92248e-05
5.91043e-05
5.89663e-05
5.88098e-05
5.86334e-05
5.84376e-05
5.82222e-05
5.79887e-05
5.77368e-05
5.7463e-05
5.7169e-05
5.68518e-05
5.65092e-05
5.61378e-05
5.57336e-05
5.52985e-05
5.48293e-05
5.43216e-05
5.37699e-05
5.31573e-05
5.24729e-05
5.17271e-05
5.07938e-05
4.94523e-05
4.7959e-05
4.64614e-05
4.48363e-05
4.21806e-05
3.90122e-05
3.56258e-05
3.23959e-05
2.99028e-05
2.83887e-05
2.77078e-05
2.74796e-05
2.7416e-05
2.7374e-05
2.72895e-05
6.08105e-05
6.03784e-05
6.005e-05
5.97977e-05
5.96022e-05
5.94465e-05
5.93243e-05
5.92389e-05
5.91744e-05
5.91126e-05
5.90469e-05
5.8977e-05
5.88931e-05
5.8791e-05
5.8668e-05
5.85232e-05
5.83561e-05
5.8165e-05
5.79525e-05
5.7719e-05
5.74623e-05
5.71805e-05
5.68774e-05
5.65487e-05
5.61914e-05
5.58085e-05
5.53986e-05
5.49576e-05
5.44837e-05
5.39796e-05
5.34422e-05
5.28597e-05
5.22266e-05
5.1539e-05
5.07367e-05
4.97538e-05
4.8644e-05
4.74271e-05
4.60022e-05
4.41368e-05
4.18898e-05
3.93462e-05
3.66411e-05
3.40353e-05
3.18103e-05
3.01371e-05
2.90016e-05
2.82816e-05
2.78349e-05
2.75363e-05
6.00331e-05
5.96238e-05
5.93415e-05
5.91387e-05
5.89919e-05
5.88836e-05
5.88074e-05
5.87559e-05
5.87185e-05
5.86787e-05
5.86337e-05
5.85784e-05
5.85064e-05
5.84152e-05
5.82989e-05
5.81508e-05
5.79844e-05
5.77927e-05
5.75763e-05
5.73357e-05
5.70694e-05
5.67756e-05
5.64593e-05
5.61152e-05
5.57423e-05
5.53478e-05
5.49289e-05
5.44803e-05
5.40067e-05
5.35119e-05
5.29879e-05
5.24316e-05
5.1842e-05
5.12076e-05
5.05002e-05
4.96985e-05
4.88086e-05
4.78185e-05
4.66793e-05
4.53137e-05
4.37044e-05
4.18664e-05
3.98505e-05
3.77574e-05
3.57127e-05
3.38396e-05
3.22268e-05
3.09127e-05
2.98858e-05
2.90994e-05
5.90152e-05
5.87457e-05
5.85692e-05
5.84546e-05
5.83794e-05
5.83296e-05
5.8298e-05
5.82755e-05
5.82554e-05
5.82294e-05
5.81914e-05
5.81387e-05
5.80662e-05
5.79721e-05
5.78516e-05
5.7701e-05
5.75275e-05
5.73267e-05
5.70977e-05
5.68402e-05
5.65549e-05
5.62533e-05
5.58724e-05
5.55109e-05
5.51263e-05
5.47175e-05
5.42838e-05
5.38336e-05
5.33708e-05
5.28881e-05
5.23822e-05
5.18574e-05
5.13095e-05
5.07263e-05
5.0098e-05
4.94174e-05
4.86796e-05
4.78728e-05
4.69763e-05
4.59581e-05
4.4798e-05
4.34957e-05
4.20663e-05
4.05411e-05
3.89646e-05
3.73925e-05
3.5882e-05
3.44793e-05
3.32136e-05
3.20984e-05
5.80529e-05
5.7934e-05
5.78633e-05
5.78236e-05
5.78016e-05
5.77907e-05
5.77838e-05
5.77757e-05
5.77605e-05
5.7734e-05
5.76926e-05
5.76334e-05
5.75503e-05
5.74433e-05
5.73106e-05
5.71473e-05
5.6956e-05
5.67368e-05
5.6485e-05
5.61994e-05
5.58841e-05
5.55394e-05
5.51439e-05
5.47486e-05
5.43406e-05
5.3952e-05
5.34019e-05
5.29616e-05
5.25148e-05
5.20559e-05
5.15867e-05
5.11049e-05
5.0603e-05
5.00771e-05
4.95253e-05
4.89426e-05
4.83249e-05
4.76681e-05
4.69633e-05
4.6197e-05
4.53588e-05
4.44463e-05
4.34588e-05
4.24003e-05
4.12848e-05
4.01338e-05
3.89701e-05
3.78135e-05
3.66824e-05
3.5595e-05
5.72554e-05
5.72251e-05
5.72107e-05
5.72052e-05
5.72043e-05
5.72027e-05
5.71974e-05
5.71851e-05
5.71607e-05
5.71217e-05
5.70652e-05
5.6988e-05
5.68868e-05
5.67602e-05
5.66053e-05
5.64202e-05
5.62044e-05
5.59562e-05
5.5672e-05
5.53529e-05
5.5001e-05
5.46164e-05
5.41959e-05
5.37603e-05
5.33056e-05
5.2837e-05
5.23287e-05
5.19735e-05
5.13428e-05
5.09341e-05
5.05285e-05
5.01072e-05
4.96662e-05
4.92095e-05
4.87363e-05
4.8244e-05
4.77329e-05
4.72042e-05
4.6655e-05
4.60811e-05
4.54781e-05
4.48418e-05
4.4168e-05
4.3456e-05
4.27097e-05
4.19335e-05
4.11305e-05
4.03052e-05
3.94643e-05
3.86154e-05
5.64593e-05
5.64518e-05
5.64463e-05
5.64404e-05
5.64319e-05
5.6418e-05
5.63963e-05
5.63644e-05
5.63184e-05
5.62563e-05
5.61748e-05
5.6071e-05
5.5943e-05
5.57881e-05
5.56026e-05
5.53858e-05
5.51348e-05
5.48478e-05
5.45237e-05
5.41638e-05
5.37693e-05
5.33425e-05
5.28865e-05
5.24073e-05
5.19077e-05
5.14011e-05
5.08874e-05
5.04075e-05
4.99062e-05
4.96093e-05
4.90698e-05
4.87298e-05
4.83811e-05
4.80125e-05
4.76257e-05
4.72256e-05
4.6819e-05
4.64092e-05
4.59954e-05
4.5576e-05
4.51489e-05
4.47117e-05
4.4262e-05
4.37994e-05
4.33229e-05
4.28296e-05
4.23176e-05
4.17866e-05
4.12373e-05
4.06689e-05
5.52989e-05
5.52772e-05
5.52523e-05
5.52236e-05
5.51891e-05
5.51473e-05
5.5096e-05
5.50324e-05
5.49536e-05
5.48573e-05
5.47403e-05
5.45996e-05
5.44329e-05
5.42371e-05
5.40091e-05
5.37473e-05
5.34496e-05
5.31146e-05
5.27412e-05
5.23318e-05
5.18898e-05
5.14172e-05
5.09169e-05
5.03963e-05
4.98644e-05
4.93327e-05
4.88091e-05
4.83062e-05
4.77967e-05
4.74038e-05
4.72021e-05
4.66187e-05
4.64624e-05
4.62261e-05
4.59459e-05
4.56525e-05
4.53604e-05
4.50728e-05
4.47888e-05
4.45083e-05
4.4231e-05
4.39567e-05
4.3684e-05
4.34106e-05
4.31336e-05
4.28508e-05
4.25614e-05
4.22644e-05
4.19575e-05
4.1637e-05
6.3378e-05
6.28366e-05
6.22971e-05
6.17512e-05
6.12007e-05
6.0647e-05
6.00907e-05
5.95334e-05
5.89751e-05
5.84144e-05
5.78504e-05
5.72814e-05
5.67046e-05
5.61171e-05
5.5516e-05
5.48986e-05
5.42619e-05
5.36045e-05
5.29252e-05
5.22238e-05
5.15014e-05
5.0761e-05
5.00085e-05
4.92513e-05
4.84949e-05
4.77449e-05
4.70152e-05
4.63188e-05
4.56506e-05
4.49285e-05
4.42205e-05
4.36615e-05
4.32593e-05
4.31993e-05
4.32599e-05
4.33835e-05
4.35533e-05
4.37564e-05
4.39852e-05
4.42365e-05
4.45058e-05
4.47892e-05
4.50826e-05
4.53823e-05
4.56853e-05
4.59896e-05
4.62932e-05
4.65922e-05
4.68818e-05
4.71545e-05
5.48216e-06
5.45651e-06
5.43191e-06
5.40995e-06
5.39059e-06
5.37209e-06
5.35378e-06
5.33496e-06
5.31544e-06
5.29514e-06
5.27394e-06
5.2517e-06
5.22839e-06
5.20414e-06
5.17919e-06
5.15386e-06
5.12849e-06
5.10346e-06
5.07906e-06
5.05558e-06
5.03672e-06
4.99742e-06
4.96657e-06
4.94119e-06
4.91898e-06
4.89849e-06
4.88495e-06
4.86517e-06
4.84347e-06
4.82175e-06
4.80322e-06
4.78512e-06
4.76661e-06
4.74771e-06
4.7287e-06
4.70987e-06
4.69146e-06
4.67361e-06
4.65637e-06
4.63972e-06
4.62365e-06
4.60758e-06
4.59152e-06
4.57567e-06
4.56021e-06
4.54534e-06
4.53126e-06
4.51797e-06
4.50536e-06
4.493e-06
5.41161e-06
5.28786e-06
5.17196e-06
5.06154e-06
4.95707e-06
4.85945e-06
4.76744e-06
4.6799e-06
4.59565e-06
4.5138e-06
4.43389e-06
4.35573e-06
4.27935e-06
4.20492e-06
4.13277e-06
4.0633e-06
3.99696e-06
3.9341e-06
3.87575e-06
3.82155e-06
1.6383e-05
1.63203e-05
1.62766e-05
1.62255e-05
1.6162e-05
1.60897e-05
1.59742e-05
1.59036e-05
1.58611e-05
1.58288e-05
1.5779e-05
1.57241e-05
1.56739e-05
1.56327e-05
1.56005e-05
1.55747e-05
1.5552e-05
1.55291e-05
1.55034e-05
1.54732e-05
1.54374e-05
1.53982e-05
1.53563e-05
1.5312e-05
1.52661e-05
1.52191e-05
1.51717e-05
1.51243e-05
1.50762e-05
1.5025e-05
5.41108e-06
5.28423e-06
5.16621e-06
5.0551e-06
4.94943e-06
4.8486e-06
4.75214e-06
4.65939e-06
4.5696e-06
4.48214e-06
4.3966e-06
4.31284e-06
4.23088e-06
4.15089e-06
4.07311e-06
3.99786e-06
3.92543e-06
3.85654e-06
3.77205e-06
1.59594e-05
1.5722e-05
1.5576e-05
1.54665e-05
1.53712e-05
1.528e-05
1.51888e-05
1.50956e-05
1.50025e-05
1.49091e-05
1.48144e-05
1.47171e-05
1.46184e-05
1.45192e-05
1.44206e-05
1.43232e-05
1.42276e-05
1.41341e-05
1.40429e-05
1.3954e-05
1.3867e-05
1.37818e-05
1.36987e-05
1.36179e-05
1.35397e-05
1.34643e-05
1.3392e-05
1.3323e-05
1.32572e-05
1.3195e-05
1.31359e-05
5.41181e-06
5.28583e-06
5.16769e-06
5.05692e-06
4.9521e-06
4.85212e-06
4.75619e-06
4.66365e-06
4.5739e-06
4.48642e-06
4.40086e-06
4.31705e-06
4.23501e-06
4.15489e-06
4.07695e-06
4.0015e-06
3.92884e-06
3.8592e-06
3.79267e-06
1.5888e-05
1.57527e-05
1.5624e-05
1.55019e-05
1.53856e-05
1.52737e-05
1.51646e-05
1.50569e-05
1.49494e-05
1.4841e-05
1.47312e-05
1.46196e-05
1.45061e-05
1.43911e-05
1.42749e-05
1.41583e-05
1.4042e-05
1.39267e-05
1.38129e-05
1.3701e-05
1.35914e-05
1.34841e-05
1.33798e-05
1.32786e-05
1.31809e-05
1.30869e-05
1.2997e-05
1.29113e-05
1.28297e-05
1.27523e-05
1.26792e-05
5.41173e-06
5.28633e-06
5.16776e-06
5.05611e-06
4.95053e-06
4.85008e-06
4.75386e-06
4.66112e-06
4.57123e-06
4.48372e-06
4.39826e-06
4.31464e-06
4.23288e-06
4.1531e-06
4.07555e-06
4.00054e-06
3.92833e-06
3.85915e-06
3.7933e-06
1.58924e-05
1.57604e-05
1.56336e-05
1.55121e-05
1.53954e-05
1.52825e-05
1.51721e-05
1.5063e-05
1.49538e-05
1.48438e-05
1.47321e-05
1.46186e-05
1.4503e-05
1.43856e-05
1.42669e-05
1.41474e-05
1.4028e-05
1.39093e-05
1.37918e-05
1.36762e-05
1.35625e-05
1.34513e-05
1.33425e-05
1.32367e-05
1.31342e-05
1.30355e-05
1.29408e-05
1.28504e-05
1.27642e-05
1.2682e-05
1.26034e-05
5.4114e-06
5.28616e-06
5.16774e-06
5.05588e-06
4.94998e-06
4.84931e-06
4.75303e-06
4.66037e-06
4.57067e-06
4.48344e-06
4.39833e-06
4.31514e-06
4.23384e-06
4.15455e-06
4.0775e-06
4.00297e-06
3.93123e-06
3.86247e-06
3.797e-06
1.59221e-05
1.579e-05
1.5663e-05
1.5541e-05
1.54235e-05
1.53095e-05
1.51978e-05
1.50871e-05
1.49765e-05
1.48649e-05
1.47517e-05
1.46366e-05
1.45195e-05
1.44005e-05
1.42801e-05
1.41591e-05
1.4038e-05
1.39177e-05
1.37987e-05
1.36812e-05
1.35657e-05
1.34524e-05
1.33417e-05
1.32338e-05
1.3129e-05
1.30276e-05
1.29302e-05
1.28371e-05
1.27485e-05
1.26641e-05
1.25834e-05
5.41128e-06
5.28572e-06
5.16717e-06
5.05507e-06
4.94878e-06
4.84768e-06
4.75106e-06
4.6582e-06
4.56844e-06
4.48128e-06
4.39634e-06
4.31341e-06
4.23245e-06
4.15355e-06
4.07695e-06
4.00289e-06
3.93161e-06
3.86329e-06
3.7982e-06
1.59318e-05
1.58013e-05
1.56754e-05
1.55541e-05
1.5437e-05
1.53229e-05
1.52109e-05
1.50998e-05
1.49885e-05
1.48762e-05
1.47622e-05
1.46462e-05
1.45281e-05
1.44082e-05
1.4287e-05
1.41651e-05
1.40434e-05
1.39224e-05
1.38026e-05
1.36845e-05
1.35682e-05
1.3454e-05
1.33421e-05
1.32331e-05
1.31271e-05
1.30244e-05
1.29256e-05
1.28307e-05
1.27403e-05
1.26543e-05
1.25719e-05
5.41132e-06
5.28542e-06
5.16647e-06
5.05402e-06
4.94739e-06
4.84598e-06
4.74914e-06
4.65619e-06
4.56651e-06
4.47955e-06
4.39493e-06
4.31241e-06
4.23193e-06
4.15357e-06
4.07754e-06
4.00405e-06
3.93331e-06
3.86549e-06
3.80083e-06
1.59523e-05
1.58225e-05
1.56969e-05
1.55756e-05
1.5458e-05
1.53432e-05
1.52302e-05
1.5118e-05
1.50055e-05
1.48918e-05
1.47763e-05
1.46587e-05
1.4539e-05
1.44175e-05
1.42947e-05
1.41714e-05
1.40484e-05
1.39261e-05
1.3805e-05
1.36857e-05
1.35682e-05
1.34529e-05
1.33399e-05
1.32295e-05
1.31221e-05
1.3018e-05
1.2918e-05
1.2822e-05
1.27302e-05
1.26427e-05
1.2559e-05
5.41133e-06
5.28523e-06
5.1658e-06
5.05284e-06
4.94578e-06
4.84403e-06
4.74695e-06
4.6539e-06
4.56425e-06
4.47745e-06
4.3931e-06
4.31094e-06
4.2309e-06
4.15304e-06
4.07753e-06
4.00458e-06
3.93436e-06
3.86701e-06
3.80275e-06
1.59668e-05
1.58382e-05
1.57133e-05
1.55922e-05
1.54745e-05
1.53593e-05
1.52456e-05
1.51325e-05
1.50188e-05
1.49038e-05
1.47869e-05
1.46678e-05
1.45465e-05
1.44234e-05
1.42992e-05
1.41746e-05
1.40505e-05
1.39273e-05
1.38054e-05
1.36851e-05
1.35667e-05
1.34504e-05
1.33366e-05
1.32254e-05
1.31173e-05
1.30123e-05
1.29112e-05
1.28141e-05
1.27214e-05
1.26329e-05
1.25481e-05
5.41127e-06
5.285e-06
5.16512e-06
5.05165e-06
4.94413e-06
4.84203e-06
4.74475e-06
4.65162e-06
4.56203e-06
4.47542e-06
4.39138e-06
4.30962e-06
4.23006e-06
4.15275e-06
4.07781e-06
4.00544e-06
3.93578e-06
3.86893e-06
3.80507e-06
1.59771e-05
1.58519e-05
1.57291e-05
1.56091e-05
1.54918e-05
1.53764e-05
1.52621e-05
1.5148e-05
1.5033e-05
1.49164e-05
1.47977e-05
1.46765e-05
1.45532e-05
1.44282e-05
1.43022e-05
1.41759e-05
1.40502e-05
1.39256e-05
1.38026e-05
1.36814e-05
1.35623e-05
1.34454e-05
1.3331e-05
1.32192e-05
1.31103e-05
1.30049e-05
1.29032e-05
1.28056e-05
1.27122e-05
1.26228e-05
1.25371e-05
5.41118e-06
5.2847e-06
5.16443e-06
5.05049e-06
4.94253e-06
4.8401e-06
4.7426e-06
4.6494e-06
4.55986e-06
4.47342e-06
4.38965e-06
4.30828e-06
4.22919e-06
4.1524e-06
4.07804e-06
4.00624e-06
3.93713e-06
3.87076e-06
3.80622e-06
3.66708e-06
1.55223e-05
1.55175e-05
1.54752e-05
1.54089e-05
1.53269e-05
1.52341e-05
1.51336e-05
1.50271e-05
1.49154e-05
1.47992e-05
1.46791e-05
1.4556e-05
1.44306e-05
1.4304e-05
1.41772e-05
1.40509e-05
1.39256e-05
1.3802e-05
1.36801e-05
1.35603e-05
1.34426e-05
1.33275e-05
1.32154e-05
1.31058e-05
1.29996e-05
1.2897e-05
1.27985e-05
1.2704e-05
1.26138e-05
1.25271e-05
5.4111e-06
5.28442e-06
5.1638e-06
5.04944e-06
4.94108e-06
4.83832e-06
4.7406e-06
4.6473e-06
4.55777e-06
4.47146e-06
4.38794e-06
4.30692e-06
4.22827e-06
4.15199e-06
4.07818e-06
4.00694e-06
3.93835e-06
3.87245e-06
3.80827e-06
3.66745e-06
1.5527e-05
1.55229e-05
1.54822e-05
1.54173e-05
1.53362e-05
1.52439e-05
1.51433e-05
1.50361e-05
1.49234e-05
1.48059e-05
1.46845e-05
1.456e-05
1.44335e-05
1.43057e-05
1.41776e-05
1.40504e-05
1.39244e-05
1.38e-05
1.36778e-05
1.35576e-05
1.34397e-05
1.3324e-05
1.32112e-05
1.31012e-05
1.29944e-05
1.28911e-05
1.27916e-05
1.26961e-05
1.26047e-05
1.25168e-05
5.41105e-06
5.28423e-06
5.1633e-06
5.04856e-06
4.93983e-06
4.83676e-06
4.73881e-06
4.64538e-06
4.55585e-06
4.46966e-06
4.38638e-06
4.30572e-06
4.22754e-06
4.1518e-06
4.07856e-06
4.00789e-06
3.93983e-06
3.87439e-06
3.81058e-06
3.6699e-06
1.55434e-05
1.55396e-05
1.54988e-05
1.54334e-05
1.53516e-05
1.52583e-05
1.51565e-05
1.50481e-05
1.49341e-05
1.48155e-05
1.4693e-05
1.45675e-05
1.44402e-05
1.4312e-05
1.41837e-05
1.4056e-05
1.39296e-05
1.38048e-05
1.3682e-05
1.35613e-05
1.34428e-05
1.33266e-05
1.32128e-05
1.31018e-05
1.29938e-05
1.28892e-05
1.27884e-05
1.26916e-05
1.25988e-05
1.25094e-05
5.41103e-06
5.28417e-06
5.16298e-06
5.04787e-06
4.93875e-06
4.83531e-06
4.73707e-06
4.64345e-06
4.55383e-06
4.46768e-06
4.38456e-06
4.30417e-06
4.22635e-06
4.15106e-06
4.07829e-06
4.00807e-06
3.94044e-06
3.87536e-06
3.81185e-06
3.67128e-06
1.5552e-05
1.55489e-05
1.55083e-05
1.54428e-05
1.53605e-05
1.52665e-05
1.5164e-05
1.50549e-05
1.49403e-05
1.48214e-05
1.4699e-05
1.45739e-05
1.44468e-05
1.4319e-05
1.41912e-05
1.40639e-05
1.39378e-05
1.38132e-05
1.36905e-05
1.35695e-05
1.34505e-05
1.33336e-05
1.3219e-05
1.31067e-05
1.29974e-05
1.28915e-05
1.27891e-05
1.26907e-05
1.25963e-05
1.25055e-05
5.41105e-06
5.2842e-06
5.1628e-06
5.04736e-06
4.9379e-06
4.83416e-06
4.73571e-06
4.64197e-06
4.55236e-06
4.46635e-06
4.38349e-06
4.30347e-06
4.22611e-06
4.15131e-06
4.07904e-06
4.00931e-06
3.9421e-06
3.87739e-06
3.81417e-06
3.67369e-06
1.55679e-05
1.55646e-05
1.55235e-05
1.54571e-05
1.53737e-05
1.52784e-05
1.51744e-05
1.50638e-05
1.4948e-05
1.48277e-05
1.47039e-05
1.45777e-05
1.445e-05
1.43214e-05
1.4193e-05
1.40656e-05
1.39394e-05
1.38148e-05
1.36921e-05
1.35714e-05
1.34526e-05
1.33356e-05
1.32209e-05
1.31086e-05
1.29991e-05
1.28929e-05
1.27904e-05
1.26918e-05
1.2597e-05
1.25058e-05
5.41109e-06
5.28426e-06
5.16257e-06
5.04667e-06
4.93669e-06
4.83245e-06
4.73356e-06
4.63948e-06
4.54966e-06
4.46356e-06
4.38073e-06
4.30086e-06
4.22373e-06
4.14922e-06
4.07726e-06
4.00783e-06
3.94092e-06
3.87647e-06
3.81347e-06
3.67314e-06
1.55611e-05
1.55589e-05
1.55184e-05
1.54523e-05
1.53689e-05
1.52734e-05
1.5169e-05
1.5058e-05
1.49418e-05
1.48216e-05
1.46981e-05
1.45719e-05
1.44447e-05
1.4317e-05
1.41897e-05
1.40637e-05
1.39392e-05
1.38165e-05
1.36956e-05
1.35766e-05
1.34597e-05
1.33448e-05
1.32319e-05
1.31215e-05
1.30138e-05
1.29094e-05
1.28087e-05
1.2712e-05
1.26194e-05
1.25308e-05
5.41115e-06
5.28437e-06
5.16262e-06
5.04663e-06
4.93656e-06
4.83226e-06
4.73334e-06
4.63929e-06
4.54955e-06
4.46359e-06
4.38096e-06
4.30133e-06
4.22447e-06
4.15022e-06
4.07853e-06
4.00934e-06
3.94264e-06
3.87837e-06
3.81547e-06
3.67498e-06
1.55736e-05
1.55711e-05
1.55301e-05
1.54632e-05
1.53789e-05
1.52826e-05
1.51779e-05
1.50667e-05
1.49502e-05
1.48299e-05
1.47067e-05
1.45814e-05
1.44549e-05
1.43287e-05
1.42033e-05
1.40798e-05
1.39585e-05
1.38398e-05
1.37236e-05
1.361e-05
1.34987e-05
1.33902e-05
1.32844e-05
1.31816e-05
1.30823e-05
1.29869e-05
1.28961e-05
1.28102e-05
1.27298e-05
1.26549e-05
5.41121e-06
5.28361e-06
5.1607e-06
5.04354e-06
4.93241e-06
4.82726e-06
4.72772e-06
4.63329e-06
4.54338e-06
4.45745e-06
4.37503e-06
4.29574e-06
4.21933e-06
4.14561e-06
4.07451e-06
4.00596e-06
3.93992e-06
3.87631e-06
3.81409e-06
3.67508e-06
1.55682e-05
1.55739e-05
1.55414e-05
1.54821e-05
1.54037e-05
1.53172e-05
1.52258e-05
1.51311e-05
1.5033e-05
1.49313e-05
1.48263e-05
1.47193e-05
1.46113e-05
1.45035e-05
1.43975e-05
1.42941e-05
1.41941e-05
1.40977e-05
1.40051e-05
1.39165e-05
1.38314e-05
1.37499e-05
1.36719e-05
1.35978e-05
1.35277e-05
1.34624e-05
1.34025e-05
1.33487e-05
1.33021e-05
1.32638e-05
5.41162e-06
5.28512e-06
5.16402e-06
5.04887e-06
4.94007e-06
4.83817e-06
4.74271e-06
4.65304e-06
4.56846e-06
4.48829e-06
4.41192e-06
4.33889e-06
4.26884e-06
4.20158e-06
4.13699e-06
4.07505e-06
4.01579e-06
3.9592e-06
3.90525e-06
3.85257e-06
3.79474e-06
1.61642e-05
1.6246e-05
1.62779e-05
1.62105e-05
1.61626e-05
1.6136e-05
1.61217e-05
1.61089e-05
1.60896e-05
1.60595e-05
1.60182e-05
1.59679e-05
1.59112e-05
1.58518e-05
1.5793e-05
1.57368e-05
1.56843e-05
1.56358e-05
1.55914e-05
1.55508e-05
1.55132e-05
1.54785e-05
1.54466e-05
1.54175e-05
1.53919e-05
1.53709e-05
1.53557e-05
1.53485e-05
1.53529e-05
5.48097e-06
5.4546e-06
5.42939e-06
5.40595e-06
5.38439e-06
5.36391e-06
5.34424e-06
5.32513e-06
5.30628e-06
5.28747e-06
5.26848e-06
5.24921e-06
5.22961e-06
5.2097e-06
5.18953e-06
5.16917e-06
5.14871e-06
5.12818e-06
5.10763e-06
5.08704e-06
5.06933e-06
5.03039e-06
4.99865e-06
4.97088e-06
4.9544e-06
4.93141e-06
4.90559e-06
4.87903e-06
4.853e-06
4.82817e-06
4.80472e-06
4.78257e-06
4.76169e-06
4.74186e-06
4.72271e-06
4.70409e-06
4.68575e-06
4.66758e-06
4.64949e-06
4.63147e-06
4.61358e-06
4.59593e-06
4.57864e-06
4.56187e-06
4.5457e-06
4.53015e-06
4.51518e-06
4.50064e-06
4.48629e-06
4.47186e-06
1.23747e-05
1.30038e-05
1.64369e-05
1.85234e-05
1.94472e-05
1.93703e-05
1.83416e-05
1.63338e-05
1.33868e-05
1.00108e-05
8.30375e-06
8.90278e-06
9.95988e-06
1.05982e-05
1.07712e-05
1.07033e-05
1.07217e-05
1.09442e-05
1.24632e-05
3.36497e-05
1.2111e-05
1.29731e-05
1.64566e-05
1.85848e-05
1.95351e-05
1.94692e-05
1.84413e-05
1.64332e-05
1.34933e-05
1.01162e-05
8.34406e-06
8.98943e-06
9.95785e-06
1.05729e-05
1.07493e-05
1.07107e-05
1.07833e-05
1.10489e-05
1.26557e-05
3.44993e-05
1.18566e-05
1.29421e-05
1.64741e-05
1.86441e-05
1.96222e-05
1.9569e-05
1.85439e-05
1.65378e-05
1.36075e-05
1.02316e-05
8.37096e-06
9.02645e-06
9.92976e-06
1.05289e-05
1.07138e-05
1.06942e-05
1.07936e-05
1.10762e-05
1.27427e-05
3.50367e-05
1.16117e-05
1.29107e-05
1.64895e-05
1.87016e-05
1.97085e-05
1.96698e-05
1.86496e-05
1.66472e-05
1.37283e-05
1.03556e-05
8.38928e-06
9.0474e-06
9.89776e-06
1.04832e-05
1.06779e-05
1.06783e-05
1.08045e-05
1.11029e-05
1.28266e-05
3.55835e-05
1.13761e-05
1.28789e-05
1.65029e-05
1.87571e-05
1.97942e-05
1.97717e-05
1.87581e-05
1.67612e-05
1.38548e-05
1.04872e-05
8.40559e-06
9.05044e-06
9.85997e-06
1.04349e-05
1.06407e-05
1.06631e-05
1.0815e-05
1.1128e-05
1.29022e-05
3.6144e-05
1.11497e-05
1.28464e-05
1.6514e-05
1.88106e-05
1.98791e-05
1.98747e-05
1.88697e-05
1.68798e-05
1.39867e-05
1.06251e-05
8.42324e-06
9.03449e-06
9.8146e-06
1.03828e-05
1.06013e-05
1.06468e-05
1.08247e-05
1.1149e-05
1.2959e-05
3.67251e-05
1.09319e-05
1.28129e-05
1.65226e-05
1.88619e-05
1.99632e-05
1.99788e-05
1.89845e-05
1.70034e-05
1.41242e-05
1.07696e-05
8.44895e-06
8.99922e-06
9.75999e-06
1.03254e-05
1.05583e-05
1.06277e-05
1.08319e-05
1.11622e-05
1.29763e-05
3.73421e-05
1.07219e-05
1.27777e-05
1.65281e-05
1.89105e-05
2.00462e-05
2.00842e-05
1.91032e-05
1.71329e-05
1.42686e-05
1.09223e-05
8.49301e-06
8.94783e-06
9.69488e-06
1.02614e-05
1.05101e-05
1.06042e-05
1.08327e-05
1.11604e-05
1.29127e-05
3.80211e-05
1.05188e-05
1.274e-05
1.65298e-05
1.8956e-05
2.01281e-05
2.01912e-05
1.92264e-05
1.72697e-05
1.44219e-05
1.10859e-05
8.56182e-06
8.88545e-06
9.61923e-06
1.01892e-05
1.04551e-05
1.05746e-05
1.08249e-05
1.11268e-05
1.29061e-05
3.87307e-05
1.03215e-05
1.26988e-05
1.65272e-05
1.8998e-05
2.02088e-05
2.03e-05
1.93549e-05
1.74152e-05
1.45865e-05
1.12634e-05
8.6602e-06
8.81867e-06
9.53407e-06
1.01079e-05
1.03918e-05
1.05378e-05
1.08064e-05
1.10749e-05
1.30016e-05
3.94669e-05
1.01288e-05
1.26534e-05
1.65193e-05
1.9036e-05
2.0288e-05
2.0411e-05
1.94897e-05
1.75711e-05
1.47651e-05
1.14581e-05
8.78905e-06
8.75679e-06
9.44229e-06
1.00176e-05
1.03196e-05
1.04934e-05
1.07759e-05
1.10194e-05
1.32373e-05
4.02279e-05
9.93922e-06
1.26027e-05
1.65057e-05
1.90696e-05
2.03657e-05
2.05243e-05
1.96315e-05
1.7739e-05
1.49603e-05
1.16737e-05
8.94997e-06
8.71089e-06
9.35001e-06
9.92061e-06
1.02399e-05
1.04427e-05
1.07353e-05
1.09832e-05
1.364e-05
4.10109e-05
9.75163e-06
1.2546e-05
1.64853e-05
1.90981e-05
2.04415e-05
2.06401e-05
1.9781e-05
1.79206e-05
1.51753e-05
1.19145e-05
9.14623e-06
8.6942e-06
9.26753e-06
9.82295e-06
1.01573e-05
1.03898e-05
1.06924e-05
1.09997e-05
1.42232e-05
4.18127e-05
9.56479e-06
1.24822e-05
1.64575e-05
1.91209e-05
2.0515e-05
2.07583e-05
1.9939e-05
1.81176e-05
1.54132e-05
1.21858e-05
9.38354e-06
8.72222e-06
9.21003e-06
9.73574e-06
1.00809e-05
1.03438e-05
1.0664e-05
1.11078e-05
1.49883e-05
4.26294e-05
9.37753e-06
1.24104e-05
1.64212e-05
1.91369e-05
2.05855e-05
2.08789e-05
2.01061e-05
1.8332e-05
1.56776e-05
1.24931e-05
9.67e-06
8.81181e-06
9.19709e-06
9.67593e-06
1.00258e-05
1.03201e-05
1.06764e-05
1.13451e-05
1.59262e-05
4.34568e-05
9.18878e-06
1.23295e-05
1.63751e-05
1.91453e-05
2.06524e-05
2.10018e-05
2.02831e-05
1.85655e-05
1.5972e-05
1.28422e-05
1.00143e-05
8.97951e-06
9.25103e-06
9.66586e-06
1.00132e-05
1.03416e-05
1.07633e-05
1.17404e-05
1.70204e-05
4.42906e-05
8.99755e-06
1.22383e-05
1.6318e-05
1.91448e-05
2.0715e-05
2.11268e-05
2.04706e-05
1.882e-05
1.62997e-05
1.32389e-05
1.04249e-05
9.23993e-06
9.39416e-06
9.73119e-06
1.00689e-05
1.04366e-05
1.096e-05
1.231e-05
1.82495e-05
4.51263e-05
8.80297e-06
1.21357e-05
1.62486e-05
1.91342e-05
2.07721e-05
2.12534e-05
2.06688e-05
1.90964e-05
1.66632e-05
1.36874e-05
1.09084e-05
9.60398e-06
9.64583e-06
9.89738e-06
1.02204e-05
1.06349e-05
1.12971e-05
1.3057e-05
1.95895e-05
4.59592e-05
8.60429e-06
1.20206e-05
1.61656e-05
1.91121e-05
2.08229e-05
2.13809e-05
2.08775e-05
1.93952e-05
1.70635e-05
1.41902e-05
1.14688e-05
1.0078e-05
1.00198e-05
1.01859e-05
1.04927e-05
1.09629e-05
1.17948e-05
1.39733e-05
2.1016e-05
4.6785e-05
8.40093e-06
1.1892e-05
1.60676e-05
1.90772e-05
2.0866e-05
2.15082e-05
2.10956e-05
1.97156e-05
1.75002e-05
1.47474e-05
1.21068e-05
1.06632e-05
1.05231e-05
1.06112e-05
1.0904e-05
1.14389e-05
1.24613e-05
1.50426e-05
2.25048e-05
4.75992e-05
8.19249e-06
1.17491e-05
1.59534e-05
1.9028e-05
2.08997e-05
2.16338e-05
2.13216e-05
2.00556e-05
1.79712e-05
1.53567e-05
1.28194e-05
1.1356e-05
1.11558e-05
1.11792e-05
1.14639e-05
1.20713e-05
1.32931e-05
1.62431e-05
2.40333e-05
4.83969e-05
7.97874e-06
1.15912e-05
1.58218e-05
1.89629e-05
2.09223e-05
2.17555e-05
2.15531e-05
2.04125e-05
1.84728e-05
1.60132e-05
1.36006e-05
1.21488e-05
1.19113e-05
1.18874e-05
1.21722e-05
1.28578e-05
1.42769e-05
1.755e-05
2.55804e-05
4.91733e-05
7.75963e-06
1.1418e-05
1.56716e-05
1.888e-05
2.09315e-05
2.18709e-05
2.17873e-05
2.07828e-05
1.90001e-05
1.67104e-05
1.44416e-05
1.30303e-05
1.27777e-05
1.27259e-05
1.30208e-05
1.37877e-05
1.53929e-05
1.89379e-05
2.71273e-05
4.99231e-05
7.53522e-06
1.12288e-05
1.55016e-05
1.87777e-05
2.09252e-05
2.19772e-05
2.20209e-05