/*--------------------------------*- C++ -*----------------------------------*\
  =========                 |
  \\      /  F ield         | OpenFOAM: The Open Source CFD Toolbox
   \\    /   O peration     | Website:  https://openfoam.org
    \\  /    A nd           | Version:  8
     \\/     M anipulation  |
\*---------------------------------------------------------------------------*/
FoamFile
{
    version     2.0;
    format      ascii;
    class       volScalarField;
    location    "100";
    object      T;
}
// * * * * * * * * * * * * * * * * * * * * * * * * * * * * * * * * * * * * * //

dimensions      [0 0 0 1 0 0 0];

internalField   nonuniform List<scalar> 
8400
(
295.226
294.899
294.533
294.22
294.005
293.9
293.872
293.88
293.904
293.936
293.975
294.02
294.034
293.986
293.885
293.791
293.732
293.682
293.619
293.539
293.459
293.386
293.318
293.256
293.207
293.172
293.149
293.135
293.127
293.122
293.118
293.115
293.112
293.11
293.108
293.105
293.103
293.101
293.098
293.096
293.093
293.091
293.088
293.085
293.081
293.078
293.075
293.071
293.068
293.064
297.926
297.333
296.655
296.049
295.633
295.431
295.384
295.439
295.553
295.694
295.838
295.961
295.996
295.885
295.641
295.417
295.299
295.196
295.031
294.796
294.545
294.308
294.064
293.819
293.602
293.433
293.312
293.236
293.194
293.172
293.16
293.153
293.148
293.145
293.142
293.139
293.136
293.134
293.132
293.13
293.127
293.125
293.123
293.121
293.119
293.117
293.115
293.113
293.112
293.11
299.993
299.578
298.677
297.838
297.201
296.857
296.804
296.951
297.212
297.509
297.775
297.935
297.963
297.844
297.595
297.39
297.323
297.252
297.062
296.736
296.356
295.988
295.56
295.064
294.564
294.122
293.76
293.499
293.34
293.254
293.211
293.189
293.176
293.168
293.161
293.156
293.152
293.149
293.145
293.143
293.14
293.138
293.136
293.134
293.132
293.13
293.128
293.126
293.125
293.124
300.001
300
299.982
299.931
299.831
299.682
299.504
299.323
299.164
299.049
299
298.976
298.957
298.875
298.756
298.806
298.873
298.865
298.766
298.566
298.27
297.962
297.538
296.943
296.228
295.487
294.774
294.163
293.73
293.468
293.328
293.262
293.23
293.211
293.198
293.188
293.18
293.174
293.169
293.165
293.162
293.159
293.156
293.154
293.151
293.149
293.147
293.145
293.144
293.142
299.999
299.998
299.997
299.993
299.979
299.949
299.9
299.833
299.754
299.673
299.602
299.542
299.49
299.443
299.404
299.4
299.396
299.393
299.395
299.465
299.443
299.344
299.153
298.801
298.223
297.44
296.511
295.504
294.618
293.994
293.609
293.412
293.329
293.287
293.263
293.246
293.233
293.223
293.216
293.211
293.206
293.203
293.199
293.196
293.194
293.191
293.189
293.187
293.185
293.183
300
300
300
299.999
299.997
299.992
299.98
299.96
299.93
299.893
299.851
299.808
299.765
299.725
299.69
299.665
299.646
299.635
299.634
299.633
299.634
299.641
299.657
299.684
299.641
299.26
298.604
297.578
296.289
295.15
294.285
293.739
293.519
293.418
293.366
293.338
293.319
293.306
293.296
293.29
293.285
293.281
293.278
293.276
293.274
293.273
293.271
293.271
293.27
293.269
300
300
300
300
300
299.999
299.996
299.991
299.981
299.966
299.946
299.923
299.897
299.869
299.842
299.817
299.795
299.778
299.767
299.76
299.758
299.757
299.756
299.755
299.755
299.756
299.751
299.631
298.734
297.27
295.832
294.477
293.937
293.682
293.526
293.468
293.442
293.426
293.415
293.409
293.405
293.402
293.402
293.403
293.405
293.408
293.411
293.415
293.419
293.423
300.001
300.001
300
300
300
300
300
299.998
299.995
299.99
299.981
299.97
299.955
299.938
299.92
299.901
299.882
299.865
299.851
299.839
299.83
299.823
299.819
299.815
299.812
299.808
299.803
299.795
299.776
299.691
299.081
296.285
294.96
294.47
293.862
293.633
293.595
293.577
293.567
293.56
293.558
293.56
293.566
293.574
293.585
293.598
293.612
293.627
293.643
293.658
300.001
300.001
300.001
300.001
300.001
300.001
300
300
299.999
299.997
299.994
299.988
299.981
299.971
299.959
299.945
299.931
299.917
299.903
299.89
299.878
299.868
299.859
299.851
299.843
299.835
299.826
299.815
299.796
299.752
299.618
299.374
299.114
298.104
295.357
293.899
293.804
293.746
293.717
293.71
293.714
293.725
293.742
293.764
293.789
293.818
293.851
293.885
293.922
293.959
300.001
300.001
300.001
300.001
300.001
300.001
300.001
300.001
300
300
299.998
299.996
299.992
299.986
299.978
299.969
299.958
299.946
299.934
299.922
299.91
299.898
299.887
299.876
299.865
299.854
299.84
299.824
299.799
299.756
299.675
299.531
299.259
298.69
297.869
297.261
296.691
295.869
294.424
293.812
293.82
293.843
293.874
293.912
293.957
294.006
294.062
294.122
294.186
294.253
300
300
300
300.001
300.001
300.001
300.001
300.001
300.001
300.001
300
299.999
299.996
299.993
299.988
299.981
299.973
299.963
299.953
299.941
299.93
299.918
299.905
299.893
299.88
299.865
299.848
299.826
299.795
299.746
299.665
299.532
299.301
298.928
298.442
297.907
297.254
296.435
295.493
294.731
294.244
294.002
293.941
293.966
294.022
294.088
294.161
294.24
294.325
294.413
300
300
300
300.001
300.001
300.001
300.001
300.001
300.001
300.001
300.001
300
299.999
299.996
299.993
299.987
299.981
299.973
299.963
299.953
299.941
299.929
299.916
299.903
299.887
299.87
299.849
299.822
299.783
299.724
299.634
299.495
299.281
298.974
298.578
298.099
297.515
296.826
296.081
295.383
294.81
294.407
294.181
294.094
294.093
294.139
294.208
294.29
294.381
294.477
300
300
300
300.001
300.001
300.001
300.001
300.001
300.001
300.001
300.001
300
299.999
299.998
299.995
299.99
299.985
299.977
299.969
299.959
299.947
299.935
299.921
299.906
299.889
299.869
299.843
299.809
299.761
299.691
299.588
299.437
299.223
298.936
298.574
298.138
297.624
297.044
296.429
295.827
295.288
294.852
294.54
294.351
294.261
294.244
294.274
294.335
294.416
294.509
300
300
300
300.001
300.001
300.001
300.001
300.001
300.001
300.001
300.001
300.001
300
299.998
299.995
299.991
299.985
299.978
299.97
299.96
299.948
299.935
299.921
299.904
299.885
299.861
299.83
299.788
299.729
299.645
299.526
299.362
299.141
298.858
298.513
298.11
297.652
297.153
296.635
296.124
295.651
295.242
294.916
294.68
294.528
294.448
294.426
294.447
294.5
294.575
300
300
300
300
300.001
300.001
300.001
300.001
300.001
300.001
300.001
300
299.999
299.996
299.993
299.989
299.983
299.976
299.967
299.957
299.945
299.931
299.915
299.897
299.874
299.845
299.807
299.755
299.684
299.584
299.449
299.269
299.039
298.757
298.426
298.05
297.639
297.205
296.763
296.332
295.929
295.571
295.27
295.032
294.859
294.747
294.688
294.674
294.696
294.748
299.993
299.993
299.993
299.994
299.994
299.995
299.995
299.996
299.996
299.995
299.995
299.993
299.991
299.989
299.985
299.979
299.972
299.964
299.955
299.944
299.931
299.916
299.899
299.88
299.855
299.82
299.773
299.709
299.623
299.506
299.354
299.161
298.924
298.645
298.328
297.98
297.612
297.234
296.858
296.497
296.161
295.861
295.604
295.395
295.234
295.122
295.054
295.026
295.033
295.071
299.944
299.945
299.947
299.95
299.953
299.956
299.959
299.961
299.963
299.964
299.964
299.963
299.961
299.958
299.953
299.947
299.94
299.93
299.92
299.907
299.893
299.876
299.857
299.835
299.807
299.77
299.721
299.646
299.542
299.409
299.242
299.038
298.798
298.526
298.228
297.913
297.588
297.264
296.95
296.654
296.383
296.145
295.941
295.776
295.65
295.562
295.51
295.492
295.505
295.545
299.767
299.774
299.783
299.793
299.804
299.814
299.824
299.833
299.841
299.848
299.853
299.856
299.858
299.858
299.855
299.851
299.844
299.835
299.825
299.812
299.796
299.778
299.756
299.731
299.699
299.659
299.608
299.539
299.442
299.289
299.11
298.901
298.666
298.409
298.138
297.859
297.582
297.314
297.061
296.829
296.624
296.449
296.304
296.193
296.113
296.065
296.045
296.053
296.085
296.139
299.362
299.377
299.395
299.414
299.434
299.455
299.476
299.496
299.515
299.533
299.549
299.563
299.574
299.583
299.589
299.593
299.594
299.591
299.587
299.579
299.567
299.553
299.534
299.51
299.479
299.441
299.391
299.329
299.249
299.136
298.958
298.752
298.531
298.299
298.064
297.831
297.608
297.399
297.21
297.045
296.906
296.795
296.712
296.656
296.628
296.624
296.642
296.68
296.736
296.805
298.707
298.713
298.722
298.734
298.748
298.765
298.783
298.804
298.827
298.85
298.875
298.9
298.925
298.949
298.972
298.994
299.014
299.032
299.047
299.059
299.067
299.071
299.07
299.062
299.047
299.023
298.99
298.944
298.886
298.814
298.719
298.58
298.382
298.191
298.005
297.829
297.666
297.522
297.399
297.299
297.224
297.173
297.146
297.142
297.158
297.191
297.24
297.301
297.372
297.448
303.147
303.142
303.137
303.132
303.127
303.123
303.118
303.113
303.109
303.104
303.1
303.095
303.091
303.086
303.082
303.077
303.073
303.069
303.064
303.06
303.056
303.052
303.049
303.045
303.042
303.038
303.035
303.031
303.028
303.025
303.021
303.018
303.015
303.012
303.009
303.006
303.003
303
302.997
302.994
302.992
302.989
302.986
302.983
302.981
302.978
302.975
302.973
302.971
302.969
303.15
303.15
303.15
303.15
303.15
303.149
303.149
303.149
303.148
303.148
303.148
303.147
303.147
303.146
303.146
303.145
303.145
303.144
303.143
303.143
303.142
303.141
303.14
303.139
303.138
303.137
303.135
303.134
303.133
303.132
303.13
303.129
303.128
303.127
303.125
303.124
303.123
303.121
303.12
303.119
303.118
303.116
303.115
303.114
303.113
303.112
303.11
303.109
303.108
303.107
303.15
303.15
303.15
303.15
303.15
303.15
303.15
303.15
303.15
303.15
303.15
303.15
303.15
303.15
303.15
303.15
303.15
303.15
303.15
303.15
303.149
303.149
303.149
303.149
303.149
303.149
303.148
303.148
303.148
303.148
303.147
303.147
303.147
303.146
303.146
303.146
303.145
303.145
303.144
303.144
303.144
303.143
303.143
303.142
303.142
303.141
303.141
303.14
303.139
303.139
303.15
303.15
303.15
303.15
303.15
303.15
303.15
303.15
303.15
303.15
303.15
303.15
303.15
303.15
303.15
303.15
303.15
303.15
303.15
303.15
303.15
303.15
303.15
303.15
303.15
303.15
303.15
303.15
303.15
303.15
303.15
303.15
303.15
303.15
303.149
303.149
303.149
303.149
303.149
303.149
303.149
303.149
303.149
303.149
303.149
303.148
303.148
303.148
303.147
303.147
303.15
303.15
303.15
303.15
303.15
303.15
303.15
303.15
303.15
303.15
303.15
303.15
303.15
303.15
303.15
303.15
303.15
303.15
303.15
303.15
303.15
303.15
303.15
303.15
303.15
303.15
303.15
303.15
303.15
303.15
303.15
303.15
303.15
303.15
303.15
303.15
303.15
303.15
303.15
303.15
303.15
303.15
303.15
303.15
303.15
303.15
303.149
303.149
303.149
303.148
303.15
303.15
303.15
303.15
303.15
303.15
303.15
303.15
303.15
303.15
303.15
303.15
303.15
303.15
303.15
303.15
303.15
303.15
303.15
303.15
303.15
303.15
303.15
303.15
303.15
303.15
303.15
303.15
303.15
303.15
303.15
303.15
303.15
303.15
303.15
303.15
303.15
303.15
303.15
303.15
303.15
303.15
303.15
303.15
303.15
303.15
303.15
303.149
303.149
303.149
303.15
303.15
303.15
303.15
303.15
303.15
303.15
303.15
303.15
303.15
303.15
303.15
303.15
303.15
303.15
303.15
303.15
303.15
303.15
303.15
303.15
303.15
303.15
303.15
303.15
303.15
303.15
303.15
303.15
303.15
303.15
303.15
303.15
303.15
303.15
303.15
303.15
303.15
303.15
303.15
303.15
303.15
303.15
303.15
303.15
303.15
303.15
303.149
303.149
303.148
303.15
303.15
303.15
303.15
303.15
303.15
303.15
303.15
303.15
303.15
303.15
303.15
303.15
303.15
303.15
303.15
303.15
303.15
303.15
303.15
303.15
303.15
303.15
303.15
303.15
303.15
303.15
303.15
303.15
303.15
303.15
303.15
303.15
303.15
303.15
303.15
303.15
303.15
303.15
303.15
303.15
303.15
303.15
303.15
303.15
303.15
303.15
303.149
303.149
303.148
303.15
303.15
303.15
303.15
303.15
303.15
303.15
303.15
303.15
303.15
303.15
303.15
303.15
303.15
303.15
303.15
303.15
303.15
303.15
303.15
303.15
303.15
303.15
303.15
303.15
303.15
303.15
303.15
303.15
303.15
303.15
303.15
303.15
303.15
303.15
303.15
303.15
303.15
303.15
303.15
303.15
303.15
303.15
303.15
303.15
303.15
303.15
303.149
303.149
303.148
303.15
303.15
303.15
303.15
303.15
303.15
303.15
303.15
303.15
303.15
303.15
303.15
303.15
303.15
303.15
303.15
303.15
303.15
303.15
303.15
303.15
303.15
303.15
303.15
303.15
303.15
303.15
303.15
303.15
303.15
303.15
303.15
303.15
303.15
303.15
303.15
303.15
303.15
303.15
303.15
303.15
303.15
303.15
303.15
303.15
303.15
303.15
303.149
303.149
303.148
303.15
303.15
303.15
303.15
303.15
303.15
303.15
303.15
303.15
303.15
303.15
303.15
303.15
303.15
303.15
303.15
303.15
303.15
303.15
303.15
303.15
303.15
303.15
303.15
303.15
303.15
303.15
303.15
303.15
303.15
303.15
303.15
303.15
303.15
303.15
303.15
303.15
303.15
303.15
303.15
303.15
303.15
303.15
303.15
303.15
303.15
303.15
303.149
303.149
303.148
303.15
303.15
303.15
303.15
303.15
303.15
303.15
303.15
303.15
303.15
303.15
303.15
303.15
303.15
303.15
303.15
303.15
303.15
303.15
303.15
303.15
303.15
303.15
303.15
303.15
303.15
303.15
303.15
303.15
303.15
303.15
303.15
303.15
303.15
303.15
303.15
303.15
303.15
303.15
303.15
303.15
303.15
303.15
303.15
303.15
303.15
303.15
303.149
303.149
303.148
303.15
303.15
303.15
303.15
303.15
303.15
303.15
303.15
303.15
303.15
303.15
303.15
303.15
303.15
303.15
303.15
303.15
303.15
303.15
303.15
303.15
303.15
303.15
303.15
303.15
303.15
303.15
303.15
303.15
303.15
303.15
303.15
303.15
303.15
303.15
303.15
303.15
303.15
303.15
303.15
303.15
303.15
303.15
303.15
303.15
303.15
303.15
303.149
303.149
303.148
303.15
303.15
303.15
303.15
303.15
303.15
303.15
303.15
303.15
303.15
303.15
303.15
303.15
303.15
303.15
303.15
303.15
303.15
303.15
303.15
303.15
303.15
303.15
303.15
303.15
303.15
303.15
303.15
303.15
303.15
303.15
303.15
303.15
303.15
303.15
303.15
303.15
303.15
303.15
303.15
303.15
303.15
303.15
303.15
303.15
303.15
303.15
303.149
303.149
303.148
303.15
303.15
303.15
303.15
303.15
303.15
303.15
303.15
303.15
303.15
303.15
303.15
303.15
303.15
303.15
303.15
303.15
303.15
303.15
303.15
303.15
303.15
303.15
303.15
303.15
303.15
303.15
303.15
303.15
303.15
303.15
303.15
303.15
303.15
303.15
303.15
303.15
303.15
303.15
303.15
303.15
303.15
303.15
303.15
303.15
303.15
303.15
303.149
303.149
303.148
303.15
303.15
303.15
303.15
303.15
303.15
303.15
303.15
303.15
303.15
303.15
303.15
303.15
303.15
303.15
303.15
303.15
303.15
303.15
303.15
303.15
303.15
303.15
303.15
303.15
303.15
303.15
303.15
303.15
303.15
303.15
303.15
303.15
303.15
303.15
303.15
303.15
303.15
303.15
303.15
303.15
303.15
303.15
303.15
303.15
303.149
303.149
303.149
303.149
303.148
303.15
303.15
303.15
303.15
303.15
303.15
303.15
303.15
303.15
303.15
303.15
303.15
303.15
303.15
303.15
303.15
303.15
303.15
303.15
303.15
303.15
303.15
303.15
303.15
303.15
303.15
303.15
303.15
303.15
303.15
303.15
303.15
303.15
303.15
303.149
303.149
303.149
303.149
303.149
303.149
303.149
303.149
303.149
303.148
303.148
303.148
303.148
303.147
303.147
303.146
303.15
303.15
303.15
303.15
303.15
303.15
303.15
303.15
303.15
303.15
303.15
303.15
303.15
303.15
303.15
303.15
303.15
303.15
303.15
303.15
303.15
303.149
303.149
303.149
303.149
303.149
303.148
303.148
303.148
303.147
303.147
303.147
303.146
303.146
303.146
303.145
303.145
303.144
303.144
303.144
303.143
303.142
303.142
303.141
303.141
303.14
303.139
303.138
303.137
303.136
303.15
303.15
303.15
303.15
303.15
303.149
303.149
303.149
303.149
303.148
303.148
303.147
303.147
303.146
303.146
303.145
303.145
303.144
303.144
303.143
303.142
303.141
303.14
303.139
303.138
303.137
303.135
303.134
303.133
303.131
303.13
303.129
303.127
303.126
303.125
303.123
303.122
303.121
303.119
303.118
303.116
303.115
303.113
303.112
303.11
303.109
303.107
303.105
303.103
303.101
303.147
303.142
303.137
303.132
303.127
303.123
303.118
303.113
303.109
303.104
303.1
303.095
303.091
303.086
303.082
303.077
303.073
303.069
303.064
303.06
303.056
303.052
303.049
303.045
303.042
303.038
303.035
303.031
303.028
303.025
303.021
303.018
303.015
303.012
303.009
303.006
303.003
303
302.997
302.994
302.991
302.989
302.986
302.983
302.98
302.977
302.975
302.972
302.969
302.966
293.083
293.113
293.101
293.087
293.082
293.089
293.103
293.117
293.123
293.123
293.121
293.123
293.123
293.121
293.118
293.114
293.107
293.095
293.069
292.97
293.084
293.112
293.098
293.085
293.08
293.088
293.102
293.116
293.123
293.122
293.121
293.122
293.122
293.12
293.117
293.112
293.104
293.091
293.063
292.963
293.085
293.109
293.095
293.082
293.078
293.086
293.101
293.115
293.122
293.122
293.12
293.122
293.121
293.119
293.116
293.111
293.103
293.089
293.06
292.958
293.086
293.107
293.092
293.079
293.076
293.085
293.1
293.114
293.121
293.122
293.12
293.121
293.121
293.119
293.115
293.11
293.101
293.086
293.056
292.953
293.086
293.104
293.089
293.076
293.074
293.083
293.099
293.113
293.121
293.121
293.12
293.121
293.12
293.118
293.115
293.109
293.1
293.084
293.052
292.949
293.086
293.101
293.085
293.073
293.072
293.082
293.098
293.112
293.12
293.121
293.119
293.12
293.119
293.117
293.114
293.108
293.098
293.082
293.049
292.944
293.085
293.098
293.081
293.07
293.069
293.08
293.096
293.111
293.119
293.12
293.119
293.119
293.119
293.117
293.113
293.107
293.097
293.079
293.045
292.94
293.085
293.094
293.077
293.066
293.067
293.078
293.095
293.11
293.119
293.12
293.118
293.119
293.118
293.116
293.112
293.105
293.095
293.077
293.041
292.936
293.084
293.09
293.073
293.062
293.064
293.076
293.094
293.109
293.118
293.119
293.118
293.118
293.118
293.115
293.111
293.104
293.093
293.074
293.037
292.932
293.083
293.087
293.068
293.058
293.061
293.074
293.092
293.108
293.117
293.119
293.117
293.118
293.117
293.114
293.11
293.103
293.091
293.071
293.033
292.928
293.082
293.082
293.063
293.054
293.058
293.072
293.091
293.107
293.116
293.118
293.117
293.117
293.116
293.113
293.109
293.101
293.089
293.068
293.029
292.925
293.08
293.078
293.059
293.05
293.055
293.07
293.089
293.106
293.115
293.118
293.117
293.116
293.115
293.112
293.108
293.099
293.087
293.065
293.025
292.922
293.079
293.074
293.054
293.046
293.052
293.068
293.087
293.104
293.114
293.117
293.116
293.116
293.114
293.111
293.106
293.098
293.085
293.062
293.021
292.919
293.077
293.07
293.049
293.042
293.049
293.065
293.085
293.103
293.113
293.116
293.115
293.115
293.114
293.11
293.105
293.096
293.082
293.059
293.017
292.916
293.076
293.066
293.044
293.037
293.045
293.063
293.083
293.101
293.112
293.115
293.115
293.114
293.113
293.109
293.104
293.095
293.08
293.056
293.014
292.913
293.074
293.062
293.04
293.033
293.041
293.06
293.081
293.099
293.11
293.115
293.114
293.113
293.112
293.108
293.102
293.093
293.078
293.054
293.011
292.911
293.073
293.059
293.035
293.028
293.038
293.057
293.079
293.097
293.109
293.113
293.114
293.113
293.111
293.107
293.101
293.091
293.076
293.051
293.008
292.909
293.072
293.056
293.031
293.024
293.034
293.054
293.076
293.095
293.107
293.112
293.113
293.112
293.11
293.106
293.1
293.09
293.074
293.049
293.005
292.907
293.071
293.054
293.028
293.02
293.03
293.05
293.073
293.092
293.105
293.111
293.112
293.111
293.109
293.106
293.099
293.089
293.072
293.046
293.002
292.905
293.071
293.053
293.025
293.016
293.026
293.047
293.07
293.089
293.103
293.109
293.111
293.11
293.109
293.105
293.098
293.087
293.071
293.044
293
292.903
293.071
293.052
293.023
293.012
293.022
293.043
293.066
293.086
293.1
293.108
293.11
293.109
293.108
293.104
293.097
293.086
293.069
293.042
292.997
292.901
293.071
293.052
293.021
293.009
293.017
293.038
293.062
293.083
293.098
293.106
293.108
293.108
293.107
293.102
293.095
293.084
293.067
293.04
292.995
292.899
293.072
293.053
293.021
293.006
293.013
293.034
293.058
293.079
293.095
293.103
293.107
293.107
293.105
293.101
293.094
293.083
293.066
293.038
292.993
292.897
293.073
293.054
293.021
293.004
293.009
293.029
293.054
293.075
293.091
293.101
293.105
293.105
293.104
293.1
293.093
293.081
293.064
293.036
292.99
292.896
293.074
293.057
293.022
293.003
293.006
293.024
293.049
293.071
293.087
293.098
293.102
293.104
293.102
293.098
293.091
293.079
293.062
293.034
292.988
292.894
293.076
293.06
293.025
293.002
293.002
293.019
293.044
293.066
293.083
293.094
293.1
293.101
293.1
293.096
293.089
293.077
293.06
293.032
292.986
292.892
293.077
293.064
293.028
293.003
292.999
293.014
293.038
293.061
293.079
293.09
293.097
293.099
293.098
293.094
293.087
293.075
293.057
293.03
292.983
292.89
293.079
293.068
293.033
293.004
292.997
293.009
293.032
293.056
293.074
293.086
293.093
293.095
293.095
293.091
293.084
293.073
293.055
293.027
292.981
292.889
293.081
293.072
293.038
293.007
292.995
293.004
293.026
293.049
293.068
293.081
293.089
293.092
293.091
293.088
293.081
293.07
293.052
293.024
292.978
292.887
293.082
293.077
293.043
293.01
292.994
293
293.019
293.043
293.062
293.076
293.084
293.088
293.088
293.084
293.078
293.066
293.049
293.021
292.975
292.885
293.084
293.081
293.05
293.015
292.994
292.995
293.013
293.036
293.056
293.07
293.079
293.083
293.083
293.08
293.074
293.063
293.045
293.018
292.972
292.882
293.085
293.086
293.056
293.02
292.996
292.992
293.006
293.028
293.049
293.064
293.073
293.078
293.078
293.076
293.069
293.059
293.041
293.014
292.969
292.88
293.086
293.089
293.063
293.026
292.998
292.989
292.999
293.02
293.041
293.057
293.067
293.072
293.073
293.071
293.065
293.054
293.037
293.01
292.965
292.877
293.086
293.092
293.069
293.033
293.001
292.986
292.992
293.012
293.033
293.049
293.06
293.066
293.067
293.065
293.059
293.049
293.032
293.005
292.961
292.875
293.086
293.095
293.074
293.04
293.005
292.985
292.986
293.003
293.024
293.041
293.053
293.059
293.061
293.059
293.053
293.043
293.027
293.001
292.957
292.872
293.087
293.097
293.08
293.047
293.01
292.985
292.981
292.994
293.014
293.032
293.045
293.052
293.054
293.052
293.047
293.037
293.021
292.995
292.953
292.868
293.086
293.098
293.084
293.053
293.016
292.986
292.976
292.985
293.004
293.023
293.036
293.044
293.046
293.045
293.04
293.031
293.015
292.99
292.948
292.865
293.086
293.099
293.087
293.059
293.022
292.989
292.972
292.976
292.993
293.012
293.027
293.035
293.038
293.037
293.033
293.024
293.008
292.984
292.943
292.861
293.086
293.099
293.09
293.065
293.029
292.993
292.97
292.968
292.982
293.001
293.017
293.026
293.029
293.029
293.025
293.016
293.002
292.977
292.937
292.856
293.085
293.099
293.092
293.07
293.035
292.997
292.97
292.961
292.971
292.989
293.006
293.016
293.02
293.02
293.017
293.008
292.994
292.971
292.931
292.852
293.085
293.099
293.093
293.074
293.042
293.003
292.971
292.955
292.96
292.976
292.994
293.005
293.01
293.011
293.008
293
292.986
292.964
292.925
292.847
293.085
293.099
293.094
293.077
293.048
293.009
292.973
292.951
292.949
292.963
292.98
292.993
293
293.001
292.998
292.991
292.978
292.956
292.918
292.841
293.085
293.099
293.095
293.08
293.053
293.016
292.978
292.949
292.94
292.949
292.966
292.981
292.988
292.99
292.988
292.982
292.969
292.948
292.911
292.835
293.085
293.099
293.095
293.083
293.059
293.023
292.983
292.95
292.933
292.936
292.951
292.966
292.976
292.978
292.977
292.971
292.96
292.939
292.903
292.828
293.086
293.099
293.096
293.085
293.064
293.031
292.991
292.953
292.928
292.924
292.935
292.951
292.962
292.966
292.965
292.96
292.949
292.93
292.895
292.821
293.086
293.099
293.096
293.087
293.069
293.039
292.999
292.958
292.927
292.913
292.919
292.934
292.946
292.952
292.952
292.948
292.939
292.92
292.886
292.813
293.087
293.1
293.097
293.09
293.073
293.047
293.009
292.967
292.929
292.906
292.904
292.916
292.929
292.936
292.938
292.935
292.927
292.909
292.876
292.804
293.088
293.101
293.098
293.092
293.078
293.055
293.02
292.977
292.935
292.903
292.891
292.897
292.91
292.919
292.923
292.921
292.914
292.897
292.866
292.795
293.089
293.102
293.1
293.094
293.083
293.063
293.032
292.991
292.945
292.906
292.883
292.88
292.89
292.901
292.905
292.905
292.899
292.884
292.854
292.784
293.089
293.103
293.101
293.097
293.088
293.072
293.045
293.007
292.96
292.914
292.88
292.866
292.87
292.881
292.886
292.888
292.883
292.87
292.841
292.772
293.09
293.104
293.103
293.1
293.093
293.08
293.058
293.024
292.979
292.929
292.885
292.857
292.852
292.859
292.866
292.869
292.866
292.854
292.827
292.759
293.091
293.105
293.104
293.102
293.097
293.088
293.07
293.042
293.001
292.951
292.899
292.857
292.837
292.838
292.844
292.848
292.846
292.836
292.81
292.745
293.091
293.106
293.106
293.104
293.101
293.094
293.081
293.059
293.025
292.978
292.923
292.869
292.831
292.818
292.821
292.825
292.825
292.816
292.793
292.729
293.091
293.107
293.107
293.106
293.104
293.1
293.091
293.075
293.048
293.007
292.955
292.895
292.84
292.807
292.799
292.801
292.801
292.794
292.773
292.712
293.091
293.108
293.108
293.107
293.107
293.104
293.099
293.088
293.068
293.036
292.991
292.932
292.867
292.813
292.783
292.778
292.776
292.77
292.75
292.693
293.091
293.108
293.108
293.108
293.108
293.107
293.104
293.098
293.084
293.062
293.026
292.975
292.911
292.842
292.786
292.76
292.752
292.745
292.726
292.672
293.091
293.108
293.108
293.108
293.109
293.109
293.108
293.105
293.097
293.082
293.057
293.018
292.962
292.892
292.818
292.761
292.736
292.721
292.702
292.65
293.09
293.108
293.108
293.108
293.109
293.11
293.111
293.11
293.106
293.097
293.08
293.053
293.012
292.953
292.878
292.798
292.739
292.708
292.681
292.63
293.089
293.107
293.107
293.108
293.109
293.111
293.112
293.113
293.111
293.107
293.096
293.079
293.051
293.008
292.947
292.868
292.781
292.718
292.673
292.616
293.088
293.106
293.107
293.107
293.108
293.11
293.112
293.114
293.115
293.113
293.107
293.096
293.078
293.049
293.006
292.944
292.862
292.768
292.694
292.62
293.086
293.106
293.106
293.106
293.107
293.109
293.112
293.115
293.117
293.117
293.114
293.108
293.095
293.076
293.046
293.003
292.943
292.861
292.758
292.659
293.085
293.105
293.105
293.105
293.106
293.108
293.111
293.114
293.117
293.119
293.119
293.115
293.107
293.093
293.071
293.039
292.995
292.933
292.851
292.739
293.083
293.104
293.104
293.104
293.104
293.106
293.109
293.113
293.117
293.12
293.122
293.121
293.115
293.105
293.087
293.061
293.024
292.972
292.9
292.802
293.081
293.104
293.104
293.103
293.103
293.104
293.107
293.111
293.116
293.12
293.124
293.124
293.121
293.113
293.099
293.077
293.044
292.995
292.922
292.81
293.078
293.103
293.103
293.102
293.102
293.103
293.105
293.109
293.115
293.12
293.124
293.127
293.125
293.12
293.108
293.089
293.058
293.012
292.937
292.812
293.076
293.103
293.103
293.102
293.101
293.101
293.103
293.107
293.113
293.119
293.125
293.128
293.129
293.125
293.116
293.098
293.07
293.024
292.949
292.812
293.073
293.103
293.103
293.102
293.101
293.1
293.102
293.105
293.111
293.118
293.124
293.129
293.131
293.129
293.121
293.106
293.079
293.035
292.959
292.812
293.07
293.103
293.104
293.103
293.101
293.1
293.1
293.103
293.109
293.116
293.124
293.13
293.133
293.133
293.126
293.112
293.087
293.043
292.966
292.812
293.067
293.104
293.105
293.104
293.102
293.1
293.099
293.101
293.106
293.114
293.123
293.131
293.135
293.136
293.131
293.118
293.093
293.05
292.973
292.811
293.064
293.104
293.106
293.105
293.103
293.1
293.099
293.1
293.104
293.113
293.122
293.131
293.137
293.138
293.135
293.123
293.099
293.056
292.979
292.811
293.062
293.105
293.107
293.107
293.105
293.102
293.099
293.099
293.102
293.111
293.121
293.131
293.138
293.141
293.138
293.128
293.105
293.062
292.984
292.812
293.06
293.105
293.109
293.108
293.107
293.103
293.1
293.098
293.101
293.109
293.12
293.131
293.139
293.143
293.142
293.132
293.11
293.067
292.989
292.812
293.057
293.105
293.11
293.11
293.108
293.105
293.101
293.098
293.1
293.107
293.119
293.131
293.141
293.146
293.145
293.137
293.116
293.073
292.994
292.813
293.053
293.105
293.11
293.111
293.11
293.107
293.102
293.098
293.099
293.106
293.118
293.132
293.142
293.148
293.149
293.141
293.121
293.079
293
292.814
293.048
293.104
293.11
293.111
293.111
293.108
293.103
293.099
293.098
293.105
293.118
293.132
293.144
293.151
293.152
293.146
293.126
293.085
293.007
292.817
293.042
293.102
293.109
293.111
293.111
293.109
293.105
293.099
293.098
293.104
293.118
293.133
293.146
293.154
293.156
293.15
293.132
293.091
293.014
292.822
293.037
293.1
293.107
293.11
293.111
293.11
293.106
293.1
293.098
293.104
293.118
293.134
293.148
293.157
293.16
293.156
293.139
293.098
293.021
292.828
293.032
293.098
293.105
293.108
293.11
293.11
293.106
293.101
293.099
293.105
293.119
293.136
293.151
293.161
293.165
293.161
293.145
293.106
293.03
292.837
293.024
293.094
293.102
293.106
293.109
293.109
293.107
293.102
293.1
293.106
293.12
293.138
293.154
293.165
293.17
293.167
293.153
293.115
293.04
292.848
293.013
293.089
293.099
293.103
293.107
293.108
293.106
293.102
293.101
293.108
293.123
293.141
293.158
293.17
293.176
293.175
293.161
293.125
293.051
292.862
293.002
293.084
293.095
293.1
293.105
293.107
293.106
293.103
293.103
293.11
293.126
293.146
293.163
293.176
293.183
293.183
293.171
293.136
293.065
292.879
292.994
293.076
293.09
293.097
293.102
293.105
293.105
293.104
293.105
293.114
293.13
293.151
293.169
293.183
293.191
293.192
293.182
293.149
293.08
292.899
292.984
293.066
293.084
293.093
293.099
293.103
293.105
293.105
293.108
293.118
293.136
293.158
293.177
293.191
293.2
293.203
293.194
293.164
293.098
292.922
292.976
293.055
293.077
293.088
293.096
293.102
293.105
293.107
293.112
293.124
293.144
293.166
293.186
293.202
293.212
293.216
293.209
293.181
293.118
292.95
292.976
293.045
293.07
293.083
293.093
293.101
293.106
293.11
293.118
293.133
293.154
293.177
293.198
293.214
293.226
293.231
293.227
293.201
293.142
292.982
292.982
293.037
293.063
293.079
293.091
293.101
293.108
293.115
293.126
293.143
293.166
293.191
293.212
293.229
293.242
293.249
293.247
293.225
293.17
293.018
292.985
293.031
293.058
293.076
293.091
293.103
293.113
293.123
293.137
293.157
293.182
293.207
293.229
293.247
293.261
293.27
293.271
293.252
293.202
293.06
292.98
293.026
293.056
293.077
293.094
293.108
293.121
293.134
293.152
293.175
293.201
293.226
293.248
293.267
293.283
293.295
293.298
293.283
293.238
293.107
292.975
293.026
293.058
293.081
293.101
293.118
293.134
293.15
293.171
293.196
293.223
293.249
293.271
293.292
293.309
293.323
293.33
293.319
293.28
293.16
292.971
293.03
293.065
293.092
293.114
293.134
293.152
293.172
293.195
293.222
293.249
293.275
293.298
293.32
293.339
293.356
293.366
293.36
293.328
293.22
292.969
293.039
293.079
293.109
293.134
293.156
293.177
293.199
293.224
293.252