/*--------------------------------*- C++ -*----------------------------------*\
  =========                 |
  \\      /  F ield         | OpenFOAM: The Open Source CFD Toolbox
   \\    /   O peration     | Website:  https://openfoam.org
    \\  /    A nd           | Version:  8
     \\/     M anipulation  |
\*---------------------------------------------------------------------------*/
FoamFile
{
    version     2.0;
    format      ascii;
    class       volVectorField;
    location    "100";
    object      U;
}
// * * * * * * * * * * * * * * * * * * * * * * * * * * * * * * * * * * * * * //

dimensions      [0 1 -1 0 0 0 0];

internalField   nonuniform List<vector> 
8400
(
(-14.3386 -1.07296 -3.46691e-18)
(-12.8474 -0.943954 -3.49268e-18)
(-11.9633 -0.650498 -3.47566e-18)
(-11.4975 -0.403839 -3.45918e-18)
(-11.3731 -0.244519 -3.48493e-18)
(-11.4678 -0.149299 -3.5293e-18)
(-11.699 -0.0985887 -3.66294e-18)
(-11.9836 -0.0822235 -3.91108e-18)
(-12.2422 -0.0926982 -4.29266e-18)
(-12.4056 -0.126933 -4.80194e-18)
(-12.4069 -0.184727 -5.28072e-18)
(-12.18 -0.266185 -5.78371e-18)
(-11.72 -0.355825 -6.32994e-18)
(-11.1037 -0.394288 -6.92211e-18)
(-10.4857 -0.353145 -7.59964e-18)
(-9.95892 -0.308439 -8.80135e-18)
(-9.47446 -0.312918 -1.00114e-17)
(-8.94856 -0.346866 -1.09594e-17)
(-8.35603 -0.375004 -1.23498e-17)
(-7.72769 -0.379614 -1.40085e-17)
(-7.09817 -0.3731 -1.59363e-17)
(-6.47441 -0.367599 -1.81572e-17)
(-5.85806 -0.35605 -2.07202e-17)
(-5.26521 -0.333529 -2.36929e-17)
(-4.7149 -0.303144 -2.71592e-17)
(-4.21768 -0.269537 -3.12009e-17)
(-3.77851 -0.234662 -3.56712e-17)
(-3.4 -0.200327 -4.08641e-17)
(-3.08074 -0.16882 -4.70657e-17)
(-2.81602 -0.141206 -5.36614e-17)
(-2.60003 -0.117747 -6.04103e-17)
(-2.42636 -0.0984724 -6.71592e-17)
(-2.28849 -0.0831732 -7.35373e-17)
(-2.18045 -0.0713418 -7.95541e-17)
(-2.09707 -0.0622801 -8.54615e-17)
(-2.03409 -0.0553461 -9.09009e-17)
(-1.98803 -0.0500097 -9.54806e-17)
(-1.95613 -0.0458415 -9.92433e-17)
(-1.93623 -0.0425645 -1.02328e-16)
(-1.92652 -0.0400318 -1.04543e-16)
(-1.92538 -0.0381634 -1.05895e-16)
(-1.9315 -0.0370628 -1.06333e-16)
(-1.94381 -0.03686 -1.0657e-16)
(-1.96125 -0.0375368 -1.06697e-16)
(-1.98279 -0.039105 -1.05967e-16)
(-2.00742 -0.0416381 -1.04939e-16)
(-2.03413 -0.0452471 -1.03012e-16)
(-2.06163 -0.0500806 -9.99289e-17)
(-2.08808 -0.0565038 -9.77877e-17)
(-2.11154 -0.0655219 -9.68082e-17)
(-10.5827 -1.14957 -3.37192e-18)
(-10.4793 -0.759036 -4.14316e-18)
(-9.80889 -0.473601 -5.28646e-18)
(-9.66227 -0.0652103 -6.94781e-18)
(-9.82817 0.315063 -7.67047e-18)
(-10.0752 0.566777 -7.6498e-18)
(-10.3935 0.696994 -7.69391e-18)
(-10.7188 0.716854 -7.853e-18)
(-10.99 0.624586 -8.23472e-18)
(-11.1481 0.412462 -8.80837e-18)
(-11.1313 0.0736286 -8.83433e-18)
(-10.8563 -0.374912 -8.49318e-18)
(-10.3895 -0.791215 -8.57265e-18)
(-9.84138 -0.95461 -9.10276e-18)
(-9.33179 -0.804379 -9.94106e-18)
(-8.95326 -0.661251 -1.08795e-17)
(-8.602 -0.69084 -1.12325e-17)
(-8.1695 -0.809351 -1.13404e-17)
(-7.6528 -0.902707 -1.20174e-17)
(-7.10602 -0.918461 -1.30392e-17)
(-6.56983 -0.907105 -1.42703e-17)
(-6.03512 -0.90864 -1.55816e-17)
(-5.49277 -0.892373 -1.69414e-17)
(-4.96251 -0.843007 -1.81832e-17)
(-4.4669 -0.7713 -1.91353e-17)
(-4.01475 -0.689816 -1.97528e-17)
(-3.61016 -0.602048 -2.01057e-17)
(-3.25841 -0.512116 -2.06998e-17)
(-2.96046 -0.42639 -2.18279e-17)
(-2.7129 -0.348128 -2.32851e-17)
(-2.51137 -0.278284 -2.51321e-17)
(-2.35037 -0.217501 -2.71351e-17)
(-2.2236 -0.165889 -2.85247e-17)
(-2.12502 -0.122618 -3.06315e-17)
(-2.04945 -0.0864298 -3.26275e-17)
(-1.99283 -0.0560524 -3.3705e-17)
(-1.95189 -0.0303767 -3.40848e-17)
(-1.92408 -0.00859967 -3.39155e-17)
(-1.90748 0.0098719 -3.31769e-17)
(-1.90047 0.0255219 -3.21118e-17)
(-1.90149 0.0387184 -3.08489e-17)
(-1.90954 0.0501595 -2.94383e-17)
(-1.92365 0.0603031 -2.80624e-17)
(-1.94281 0.069217 -2.62699e-17)
(-1.96609 0.076902 -2.41746e-17)
(-1.9926 0.0833034 -2.19296e-17)
(-2.02142 0.0883158 -1.92185e-17)
(-2.05154 0.0917438 -1.58207e-17)
(-2.08198 0.0930832 -1.36287e-17)
(-2.11185 0.0909201 -1.20473e-17)
(1.10616 -2.91636 -5.98134e-19)
(-7.26224 -0.0672998 7.26422e-19)
(-7.04254 -0.0455404 -4.32906e-19)
(-6.22516 -0.0435934 -2.7206e-18)
(-6.30883 0.0936036 -3.43278e-18)
(-6.72622 0.182824 -3.35502e-18)
(-7.153 0.166083 -3.39474e-18)
(-7.50974 0.0330411 -3.4376e-18)
(-7.75757 -0.217196 -3.45766e-18)
(-7.86196 -0.581301 -3.57703e-18)
(-7.76318 -1.03992 -3.1458e-18)
(-7.28598 -1.45598 -2.80549e-18)
(-7.11292 -1.78084 -2.96476e-18)
(-7.33298 -1.74492 -3.47283e-18)
(-7.10738 -1.21854 -4.24837e-18)
(-6.88087 -0.906597 -4.95218e-18)
(-6.75028 -1.00955 -4.9724e-18)
(-6.50533 -1.28152 -4.59949e-18)
(-6.17799 -1.44905 -4.91708e-18)
(-5.80523 -1.42966 -5.73253e-18)
(-5.44723 -1.38642 -7.14116e-18)
(-5.09224 -1.40653 -8.98468e-18)
(-4.7008 -1.4011 -1.14481e-17)
(-4.30177 -1.33329 -1.43608e-17)
(-3.92539 -1.22515 -1.70509e-17)
(-3.57459 -1.10306 -1.87676e-17)
(-3.24941 -0.971235 -1.8958e-17)
(-2.95982 -0.833163 -1.78514e-17)
(-2.70993 -0.699489 -1.6064e-17)
(-2.49793 -0.577509 -1.3989e-17)
(-2.3237 -0.469266 -9.75137e-18)
(-2.18466 -0.375833 -8.39556e-18)
(-2.07574 -0.298412 -8.12142e-18)
(-1.99148 -0.235684 -8.99544e-18)
(-1.92713 -0.184928 -1.03375e-17)
(-1.87905 -0.143553 -1.13444e-17)
(-1.84456 -0.109349 -1.20632e-17)
(-1.82164 -0.0806739 -1.2281e-17)
(-1.80869 -0.0562786 -1.21994e-17)
(-1.80429 -0.0351633 -1.17324e-17)
(-1.80712 -0.0166261 -1.1357e-17)
(-1.81642 -0.000915348 -1.07648e-17)
(-1.83127 0.0119461 -1.00461e-17)
(-1.85081 0.0221124 -9.84687e-18)
(-1.87415 0.0296826 -9.29306e-18)
(-1.90044 0.0347452 -8.47109e-18)
(-1.92885 0.0373613 -7.54835e-18)
(-1.95853 0.0375488 -6.86438e-18)
(-1.98892 0.0352265 -6.47361e-18)
(-2.0199 0.0300203 -6.65019e-18)
(21.6639 1.47431 -1.63798e-18)
(19.9623 1.81752 -1.54736e-18)
(18.5399 2.09664 -1.76101e-18)
(17.2425 2.31797 -1.68811e-18)
(15.8629 2.47449 -1.31313e-18)
(14.3452 2.53876 -1.32428e-18)
(12.7437 2.49374 -1.35474e-18)
(11.1437 2.3296 -1.43079e-18)
(9.62605 2.03953 -1.83234e-18)
(8.25355 1.62033 -2.07511e-18)
(7.13469 1.0779 -1.48187e-18)
(5.43754 0.309371 -1.28907e-18)
(2.81355 -0.703017 -7.31154e-19)
(-2.55822 -1.67603 -7.56729e-19)
(-3.79338 -1.09142 -1.60642e-18)
(-3.07685 -1.03572 -1.80591e-18)
(-3.07248 -1.36154 -1.39717e-18)
(-3.35104 -1.74555 -7.83289e-19)
(-3.62078 -1.89422 -2.72438e-19)
(-3.61382 -1.74248 6.05285e-19)
(-3.47535 -1.64095 8.14404e-19)
(-3.45352 -1.70791 4.76716e-20)
(-3.34411 -1.73175 -1.78588e-18)
(-3.1729 -1.64962 -5.32097e-18)
(-3.00079 -1.51255 -1.05941e-17)
(-2.83427 -1.37261 -1.65346e-17)
(-2.65455 -1.22507 -2.11449e-17)
(-2.48098 -1.06059 -2.33864e-17)
(-2.324 -0.894049 -2.33172e-17)
(-2.17898 -0.740216 -1.92095e-17)
(-2.05416 -0.600312 -1.24684e-17)
(-1.95288 -0.473893 -6.00273e-18)
(-1.87297 -0.366937 -8.72079e-19)
(-1.81121 -0.279813 2.60954e-18)
(-1.76395 -0.207866 4.55109e-18)
(-1.72885 -0.147925 6.07197e-18)
(-1.70431 -0.0977581 7.40171e-18)
(-1.68919 -0.0556287 8.35137e-18)
(-1.68245 -0.0202022 9.31417e-18)
(-1.68305 0.00959605 9.80386e-18)
(-1.68989 0.0346697 9.93543e-18)
(-1.70294 0.0563544 1.04002e-17)
(-1.72119 0.0749096 1.08403e-17)
(-1.7439 0.090407 1.13281e-17)
(-1.7703 0.102873 1.23028e-17)
(-1.79965 0.112265 1.32731e-17)
(-1.83119 0.118484 1.42454e-17)
(-1.86417 0.121383 1.5187e-17)
(-1.89812 0.120703 1.61946e-17)
(-1.9329 0.116031 1.77542e-17)
(16.0986 0.776638 -1.53233e-18)
(15.7191 1.32338 -1.51551e-18)
(15.6 1.95041 -1.91249e-18)
(15.5774 2.51546 -1.90983e-18)
(15.4717 2.96071 -1.44942e-18)
(15.2034 3.24868 -1.44143e-18)
(14.7493 3.3613 -1.42821e-18)
(14.1194 3.29509 -1.41024e-18)
(13.3399 3.05469 -1.87163e-18)
(12.432 2.65796 -1.9457e-18)
(11.4051 2.16286 -1.40546e-18)
(10.1941 1.67074 -1.43262e-18)
(8.83872 1.29389 -1.32287e-18)
(7.44131 1.05515 -1.20287e-18)
(6.49166 0.939434 -1.51282e-18)
(5.87565 0.6924 -1.58105e-18)
(4.70545 0.162098 -1.28156e-18)
(2.94793 -0.568533 -1.46367e-18)
(0.638174 -1.35832 -1.4511e-18)
(-0.49213 -1.51544 6.12296e-19)
(-0.324395 -1.50659 2.87583e-18)
(-0.836019 -1.71478 4.21531e-18)
(-1.2215 -1.77669 5.40117e-18)
(-1.42415 -1.68279 5.34257e-18)
(-1.56768 -1.55409 2.43791e-18)
(-1.70829 -1.45098 -4.49984e-18)
(-1.7512 -1.31891 -1.45076e-17)
(-1.7576 -1.15481 -2.51761e-17)
(-1.76223 -0.989561 -3.34284e-17)
(-1.72984 -0.836921 -3.52714e-17)
(-1.68665 -0.69246 -3.00277e-17)
(-1.64934 -0.552487 -2.09748e-17)
(-1.61342 -0.431952 -1.15176e-17)
(-1.58407 -0.336942 -4.71926e-18)
(-1.56064 -0.258273 -7.57135e-19)
(-1.54333 -0.192224 1.75573e-18)
(-1.53209 -0.136884 3.95463e-18)
(-1.52694 -0.0898623 5.83869e-18)
(-1.52766 -0.0490833 7.0002e-18)
(-1.53373 -0.0130994 7.45809e-18)
(-1.54533 0.0189112 8.12279e-18)
(-1.56214 0.0465768 9.04015e-18)
(-1.58363 0.0699999 9.63311e-18)
(-1.60912 0.0893329 1.03298e-17)
(-1.63797 0.104683 1.16155e-17)
(-1.66953 0.116113 1.32072e-17)
(-1.70311 0.123665 1.4464e-17)
(-1.73811 0.12734 1.5532e-17)
(-1.77427 0.127048 1.68834e-17)
(-1.81156 0.122637 1.81438e-17)
(15.0755 1.95746 -1.12278e-18)
(14.4716 2.16848 -1.17665e-18)
(14.1148 2.49555 -1.68359e-18)
(13.9906 2.84496 -1.78882e-18)
(13.964 3.16913 -1.31694e-18)
(13.9477 3.4294 -1.33432e-18)
(13.8807 3.59057 -1.32821e-18)
(13.7155 3.6262 -1.31856e-18)
(13.4186 3.52332 -1.44607e-18)
(12.9705 3.29057 -1.5883e-18)
(12.3656 2.97263 -1.56754e-18)
(11.6179 2.6479 -1.53836e-18)
(10.7876 2.38287 -1.43482e-18)
(9.95081 2.14667 -1.30014e-18)
(9.15808 1.83852 -1.63038e-18)
(8.35341 1.4008 -1.787e-18)
(7.45205 0.917034 -1.38706e-18)
(6.54379 0.521647 -1.44236e-18)
(5.81024 0.266332 -1.40332e-18)
(5.02303 -0.00907453 -1.12126e-18)
(4.02887 -0.39564 -3.55631e-19)
(2.90029 -0.813583 1.11098e-18)
(1.83326 -1.12616 3.48133e-18)
(1.01436 -1.243 6.92397e-18)
(0.450971 -1.24452 1.06681e-17)
(-0.116755 -1.24533 1.07951e-17)
(-0.44271 -1.15354 4.19859e-18)
(-0.703969 -1.02761 -8.5521e-18)
(-0.976426 -0.925856 -2.59253e-17)
(-1.1058 -0.806378 -4.0517e-17)
(-1.17936 -0.679836 -4.49708e-17)
(-1.26114 -0.552976 -4.0496e-17)
(-1.28842 -0.432211 -2.7586e-17)
(-1.29939 -0.337316 -1.6472e-17)
(-1.30618 -0.254629 -9.40467e-18)
(-1.31139 -0.181712 -4.4308e-18)
(-1.31641 -0.120783 -1.11933e-18)
(-1.32331 -0.0694743 1.08861e-18)
(-1.33284 -0.0248266 2.10638e-18)
(-1.34518 0.0148221 2.71792e-18)
(-1.3628 0.0501628 2.69531e-18)
(-1.38465 0.0814734 3.14902e-18)
(-1.41063 0.108492 3.27963e-18)
(-1.44015 0.131126 3.66451e-18)
(-1.47265 0.149367 4.79292e-18)
(-1.50758 0.163244 5.76618e-18)
(-1.54439 0.172766 6.2886e-18)
(-1.58258 0.177887 6.26157e-18)
(-1.62204 0.178517 6.44109e-18)
(-1.6627 0.174603 7.24733e-18)
(12.8363 2.12303 -7.99591e-19)
(12.4505 2.23945 -7.67227e-19)
(12.189 2.47442 -1.24456e-18)
(12.1004 2.75051 -1.31841e-18)
(12.1063 3.03128 -1.01585e-18)
(12.158 3.29091 -1.10022e-18)
(12.2188 3.50188 -1.0939e-18)
(12.2472 3.63701 -1.08857e-18)
(12.2008 3.67641 -1.52378e-18)
(12.0464 3.61558 -1.5847e-18)
(11.7663 3.47252 -1.25218e-18)
(11.3646 3.28338 -1.31915e-18)
(10.869 3.07481 -1.24351e-18)
(10.3118 2.82824 -1.11445e-18)
(9.70735 2.50349 -1.45387e-18)
(9.05041 2.10411 -1.67393e-18)
(8.34457 1.69059 -1.38071e-18)
(7.62641 1.31322 -1.40062e-18)
(6.92951 0.963093 -1.31555e-18)
(6.23395 0.601984 -1.09149e-18)
(5.53861 0.261169 -6.15604e-19)
(4.83429 -0.0145241 4.1078e-19)
(4.13652 -0.210477 2.148e-18)
(3.43063 -0.367167 4.61491e-18)
(2.71522 -0.510788 7.61222e-18)
(2.00871 -0.633571 1.12448e-17)
(1.3598 -0.681112 1.46193e-17)
(0.783858 -0.671039 1.53917e-17)
(0.141896 -0.675466 4.00338e-18)
(-0.202812 -0.599645 -2.16266e-17)
(-0.42125 -0.522283 -4.02688e-17)
(-0.772645 -0.475514 -5.2824e-17)
(-0.896362 -0.388755 -4.27206e-17)
(-0.943897 -0.308951 -3.09625e-17)
(-0.996881 -0.240363 -2.08973e-17)
(-1.03569 -0.173126 -1.2124e-17)
(-1.05774 -0.115276 -6.43302e-18)
(-1.07609 -0.0657568 -3.09512e-18)
(-1.09348 -0.0195376 -8.74707e-19)
(-1.11114 0.0248951 -3.23119e-20)
(-1.13506 0.0658449 2.37816e-19)
(-1.16262 0.101981 1.07054e-19)
(-1.19363 0.133033 -5.88758e-19)
(-1.22747 0.158968 -6.12719e-19)
(-1.26364 0.179839 -9.95707e-19)
(-1.30171 0.195722 -1.44137e-18)
(-1.34129 0.20668 -1.68712e-18)
(-1.38205 0.212741 -9.18176e-19)
(-1.42401 0.213919 -1.69976e-18)
(-1.46705 0.210346 -2.16279e-18)
(10.7385 2.59063 4.29788e-19)
(10.4092 2.58338 3.72821e-19)
(10.1763 2.6861 -4.14823e-19)
(10.0981 2.84675 -6.12316e-19)
(10.1094 3.03646 -1.84687e-19)
(10.1756 3.23719 -3.57584e-19)
(10.275 3.42931 -4.79583e-19)
(10.3782 3.58969 -5.85402e-19)
(10.4502 3.69654 -1.37844e-18)
(10.4583 3.73558 -1.53306e-18)
(10.3791 3.70484 -1.02916e-18)
(10.2037 3.61366 -1.11845e-18)
(9.93836 3.47128 -1.1004e-18)
(9.59658 3.27343 -1.04137e-18)
(9.18922 3.01068 -1.35699e-18)
(8.721 2.69121 -1.40943e-18)
(8.19758 2.3418 -1.18393e-18)
(7.63166 1.98315 -1.28584e-18)
(7.03803 1.62013 -1.28501e-18)
(6.42719 1.25895 -1.15004e-18)
(5.81309 0.927298 -8.16924e-19)
(5.20931 0.648362 -1.8573e-19)
(4.6254 0.423107 8.60641e-19)
(4.07204 0.246888 2.66275e-18)
(3.5482 0.112986 5.34136e-18)
(3.05887 0.0323521 8.97318e-18)
(2.59838 -0.00387265 1.31876e-17)
(2.15723 -0.0355348 1.65947e-17)
(1.73003 -0.0864734 1.94453e-17)
(1.33911 -0.120834 1.91967e-17)
(0.979979 -0.12937 7.19321e-18)
(-0.0161856 -0.263252 -4.53198e-17)
(-0.390837 -0.263058 -5.22899e-17)
(-0.415508 -0.19925 -4.05741e-17)
(-0.587213 -0.168323 -3.27289e-17)
(-0.720282 -0.131013 -1.62316e-17)
(-0.754894 -0.0820035 -6.57587e-18)
(-0.777517 -0.0393138 -2.08415e-19)
(-0.79755 0.00573941 3.48019e-18)
(-0.824916 0.0528272 7.88533e-18)
(-0.855605 0.097256 9.24073e-18)
(-0.889584 0.136169 1.05708e-17)
(-0.925816 0.169563 9.04048e-18)
(-0.963745 0.197541 1.19791e-18)
(-1.00305 0.220147 -2.8129e-18)
(-1.04349 0.237444 -4.24738e-18)
(-1.08488 0.249539 -1.85476e-18)
(-1.12706 0.25651 -4.23897e-18)
(-1.17027 0.25842 -6.99816e-18)
(-1.21436 0.255524 -7.94012e-18)
(8.48562 2.88986 7.41727e-19)
(8.23914 2.77992 7.48694e-19)
(8.06103 2.78413 1.76852e-19)
(8.01558 2.86071 -9.38546e-20)
(8.04447 2.98229 2.64028e-19)
(8.122 3.1342 1.62639e-19)
(8.23614 3.30125 5.07366e-20)
(8.36811 3.46441 -7.4417e-20)
(8.49271 3.6037 -8.2459e-19)
(8.58399 3.70177 -1.16491e-18)
(8.62017 3.74731 -8.85306e-19)
(8.58748 3.73631 -9.50057e-19)
(8.48206 3.6687 -9.25027e-19)
(8.30721 3.54274 -9.12093e-19)
(8.06756 3.35539 -1.32245e-18)
(7.76514 3.10988 -1.40076e-18)
(7.40191 2.8184 -1.13309e-18)
(6.98465 2.49625 -1.22849e-18)
(6.52576 2.15815 -1.25576e-18)
(6.03916 1.81977 -1.22029e-18)
(5.53711 1.49864 -1.04635e-18)
(5.02975 1.20754 -6.19882e-19)
(4.52754 0.953809 2.28742e-19)
(4.04304 0.743225 1.58531e-18)
(3.58512 0.577771 3.38299e-18)
(3.15641 0.454058 6.07429e-18)
(2.75954 0.366766 1.02923e-17)
(2.4011 0.313609 1.52962e-17)
(2.08279 0.296489 2.12579e-17)
(1.79355 0.307032 2.55061e-17)
(1.52206 0.304105 2.59324e-17)
(1.26451 0.271109 2.26867e-17)
(1.10298 0.241996 1.84726e-17)
(0.924114 0.202769 7.24853e-19)
(0.254329 0.0534251 -4.66046e-17)
(-0.343243 -0.0686669 -3.86199e-17)
(-0.398321 -0.0502639 -1.36006e-17)
(-0.421968 -0.0168062 2.76715e-18)
(-0.446535 0.0313522 1.20567e-17)
(-0.4842 0.0852728 2.01215e-17)
(-0.524911 0.13352 2.4136e-17)
(-0.566924 0.173795 3.38668e-17)
(-0.608461 0.208216 4.15255e-17)
(-0.649788 0.237104 5.73513e-17)
(-0.691037 0.260445 2.37394e-17)
(-0.732235 0.27835 1.67092e-17)
(-0.773447 0.291001 9.80743e-18)
(-0.814866 0.298503 -2.78561e-18)
(-0.856979 0.300966 -4.01065e-18)
(-0.899547 0.298846 -5.75352e-18)
(6.16645 3.17032 8.48631e-19)
(5.98534 2.93845 8.46641e-19)
(5.87643 2.84903 5.14728e-19)
(5.88159 2.85193 2.63041e-19)
(5.94066 2.91386 3.71382e-19)
(6.03654 3.02078 3.69225e-19)
(6.16372 3.15906 3.45851e-19)
(6.31066 3.3122 2.90192e-19)
(6.46077 3.46258 -4.66053e-19)
(6.59579 3.593 -8.22672e-19)
(6.69868 3.68846 -5.47247e-19)
(6.7562 3.73819 -6.7342e-19)
(6.76077 3.73549 -6.87076e-19)
(6.70974 3.67559 -6.97204e-19)
(6.60228 3.55468 -9.79891e-19)
(6.43721 3.37304 -1.36647e-18)
(6.21464 3.13806 -1.3614e-18)
(5.93912 2.86305 -1.37384e-18)
(5.61985 2.56362 -1.36305e-18)
(5.26738 2.25482 -1.34711e-18)
(4.89119 1.95056 -1.29557e-18)
(4.50051 1.66326 -1.09882e-18)
(4.10583 1.4035 -5.69318e-19)
(3.71789 1.17842 4.79286e-19)
(3.34465 0.990183 2.16056e-18)
(2.9914 0.83851 4.97559e-18)
(2.66344 0.722928 8.27422e-18)
(2.36471 0.639451 1.18582e-17)
(2.09541 0.581327 1.79962e-17)
(1.8545 0.542123 2.51208e-17)
(1.63979 0.510366 3.06299e-17)
(1.44438 0.476668 3.42318e-17)
(1.27566 0.450134 3.35588e-17)
(1.12821 0.42285 2.43472e-17)
(0.915865 0.360466 4.7608e-18)
(0.714071 0.287548 -1.35235e-17)
(0.577684 0.232322 -3.634e-17)
(0.507317 0.192513 -7.38219e-17)
(0.241376 0.131055 -6.90717e-17)
(-0.0787257 0.137969 -3.20434e-18)
(-0.150026 0.180075 1.96205e-17)
(-0.204481 0.217582 3.45351e-17)
(-0.2515 0.250668 6.19684e-17)
(-0.2955 0.278435 8.69431e-17)
(-0.337203 0.300825 5.8731e-17)
(-0.37694 0.318111 3.41974e-17)
(-0.415312 0.33046 6.00828e-18)
(-0.453015 0.337908 -1.82023e-18)
(-0.490878 0.340592 -6.08058e-19)
(-0.52842 0.339256 2.40831e-18)
(3.80903 3.39165 9.27729e-19)
(3.68837 3.01881 9.20797e-19)
(3.67286 2.85491 4.21724e-19)
(3.7405 2.80091 3.60555e-19)
(3.83451 2.81696 6.49318e-19)
(3.95167 2.88899 5.03451e-19)
(4.09209 3.00293 4.65162e-19)
(4.24949 3.14371 4.65066e-19)
(4.41394 3.2958 -2.03963e-19)
(4.57379 3.4431 -5.99571e-19)
(4.71713 3.56961 -4.20535e-19)
(4.83344 3.66122 -5.26646e-19)
(4.91476 3.70707 -5.5547e-19)
(4.95583 3.69916 -6.00302e-19)
(4.95275 3.63207 -8.80099e-19)
(4.90235 3.50448 -1.18994e-18)
(4.8034 3.32133 -1.30641e-18)
(4.65828 3.09338 -1.39513e-18)
(4.4726 2.83416 -1.42221e-18)
(4.25316 2.55711 -1.44855e-18)
(4.00682 2.27513 -1.46277e-18)
(3.7412 2.00057 -1.37363e-18)
(3.46505 1.74426 -1.0543e-18)
(3.18697 1.51382 -4.5582e-19)
(2.91403 1.31325 8.57802e-19)
(2.65188 1.14439 3.38731e-18)
(2.40529 1.00713 6.10704e-18)
(2.17738 0.898146 9.52873e-18)
(1.9701 0.813049 1.51452e-17)
(1.78486 0.747584 2.19823e-17)
(1.62019 0.694446 2.92629e-17)
(1.47118 0.647336 3.74336e-17)
(1.33907 0.607465 4.4143e-17)
(1.22401 0.567451 4.63162e-17)
(1.10126 0.510968 4.18184e-17)
(0.969687 0.447272 2.91421e-17)
(0.840622 0.3953 4.60097e-18)
(0.737768 0.357019 -3.43948e-17)
(0.611405 0.318559 -6.84664e-17)
(0.454888 0.289489 -7.1483e-17)
(0.326135 0.275093 -3.10346e-17)
(0.222524 0.279089 7.3727e-17)
(0.143896 0.296632 -5.86372e-16)
(0.0855327 0.318566 -1.54918e-16)
(0.0393521 0.338715 -1.32371e-18)
(0.00174071 0.353956 5.84245e-18)
(-0.0310026 0.364556 -9.75868e-18)
(-0.0618565 0.37097 -1.7544e-17)
(-0.0924304 0.373032 -1.1767e-17)
(-0.122131 0.372073 -5.33409e-18)
(1.43569 3.64339 9.4935e-19)
(1.42856 3.00873 1.01536e-18)
(1.52351 2.78177 4.20501e-19)
(1.63829 2.69114 3.62211e-19)
(1.75629 2.68124 7.39329e-19)
(1.88912 2.73322 5.24275e-19)
(2.03919 2.8313 4.96407e-19)
(2.20378 2.96157 5.50217e-19)
(2.37763 3.11082 4.79925e-20)
(2.55379 3.26466 -4.02393e-19)
(2.72474 3.40764 -4.00179e-19)
(2.88311 3.52471 -4.63106e-19)
(3.02224 3.60306 -4.53857e-19)
(3.13617 3.63268 -4.61354e-19)
(3.21947 3.60676 -1.03509e-18)
(3.26769 3.52263 -1.3334e-18)
(3.27855 3.38296 -1.21327e-18)
(3.25256 3.19626 -1.40998e-18)
(3.19217 2.97409 -1.48731e-18)
(3.10065 2.72843 -1.54599e-18)
(2.98207 2.47121 -1.59228e-18)
(2.84185 2.21396 -1.56327e-18)
(2.6867 1.96724 -1.37984e-18)
(2.52326 1.73931 -8.71955e-19)
(2.35712 1.53531 1.13944e-19)
(2.19308 1.35793 2.39972e-18)
(2.03524 1.20774 5.01791e-18)
(1.88674 1.08316 7.97167e-18)
(1.74995 0.981469 1.27759e-17)
(1.62636 0.898813 1.88132e-17)
(1.51537 0.82962 2.56752e-17)
(1.41504 0.769603 3.42843e-17)
(1.32569 0.717361 4.32169e-17)
(1.24671 0.667379 5.06061e-17)
(1.1683 0.612593 5.5795e-17)
(1.0843 0.558259 5.55197e-17)
(0.997064 0.514204 4.52707e-17)
(0.917017 0.482095 2.06697e-17)
(0.836714 0.453372 -1.81595e-17)
(0.750432 0.424573 -6.18829e-17)
(0.665779 0.399135 -8.59348e-17)
(0.587331 0.381173 -6.40037e-18)
(0.519224 0.372646 -2.67265e-16)
(0.463627 0.372718 -2.34788e-16)
(0.419706 0.378253 -1.36084e-16)
(0.385346 0.385393 -7.28684e-17)
(0.357658 0.391675 -4.69384e-17)
(0.334094 0.395741 -3.39745e-17)
(0.312547 0.396624 -2.94899e-17)
(0.291061 0.394706 -2.32962e-17)
(-0.981562 3.34285 8.13992e-19)
(-0.782881 2.82902 8.41343e-19)
(-0.59693 2.6211 4.42255e-19)
(-0.4612 2.524 3.25424e-19)
(-0.318845 2.50684 5.09966e-19)
(-0.16723 2.54838 3.8025e-19)
(-0.00365642 2.6349 4.68563e-19)
(0.175593 2.76213 6.23432e-19)
(0.358956 2.90983 -5.38559e-20)
(0.549271 3.06482 -4.26598e-19)
(0.744568 3.21376 -3.39832e-19)
(0.940423 3.34274 -4.98795e-19)
(1.13097 3.43874 -4.61126e-19)
(1.30978 3.49107 -4.35046e-19)
(1.47046 3.49248 -1.12821e-18)
(1.60742 3.43949 -1.44213e-18)
(1.718 3.33295 -1.291e-18)
(1.8021 3.17971 -1.49103e-18)
(1.85926 2.99 -1.55002e-18)
(1.88905 2.77406 -1.58935e-18)
(1.89253 2.54236 -1.60428e-18)
(1.87318 2.30482 -1.54775e-18)
(1.83634 2.07195 -1.33438e-18)
(1.78656 1.85292 -8.74426e-19)
(1.72735 1.65309 -8.04645e-20)
(1.66242 1.47549 1.88335e-18)
(1.59535 1.32151 4.1975e-18)
(1.52898 1.1906 6.54552e-18)
(1.46554 1.08075 1.03969e-17)
(1.40659 0.988724 1.5177e-17)
(1.35251 0.910444 2.08003e-17)
(1.30301 0.842538 2.84782e-17)
(1.25844 0.7827 3.68389e-17)
(1.21841 0.727208 4.53539e-17)
(1.17886 0.672773 5.37165e-17)
(1.13628 0.621789 5.98713e-17)
(1.09112 0.5792 6.1553e-17)
(1.04751 0.546563 5.58779e-17)
(1.00543 0.520108 4.01406e-17)
(0.962772 0.496452 1.63757e-17)
(0.919547 0.475096 -8.22118e-18)
(0.877149 0.456653 -2.36809e-18)
(0.837756 0.441772 -9.06361e-17)
(0.803333 0.430958 -1.42229e-16)
(0.774833 0.424096 -1.40902e-16)
(0.752299 0.420259 -1.14919e-16)
(0.734979 0.418187 -8.68909e-17)
(0.721585 0.416555 -6.45897e-17)
(0.710677 0.414162 -4.97873e-17)
(0.700195 0.410391 -3.91091e-17)
(-3.47147 2.938 4.55235e-19)
(-3.07883 2.60308 3.82782e-19)
(-2.86407 2.42429 1.25645e-19)
(-2.68549 2.34424 5.00998e-20)
(-2.50824 2.33251 -3.74681e-20)
(-2.32885 2.37239 -1.8948e-20)
(-2.14113 2.45413 8.14737e-20)
(-1.93952 2.57011 5.01011e-20)
(-1.7254 2.70701 -4.75911e-19)
(-1.4995 2.85231 -7.01853e-19)
(-1.26148 2.99434 -6.393e-19)
(-1.01324 3.12085 -7.76245e-19)
(-0.759845 3.21961 -6.51536e-19)
(-0.507736 3.28035 -5.32012e-19)
(-0.263626 3.29602 -1.3227e-18)
(-0.0293912 3.26183 -1.74668e-18)
(0.182122 3.17713 -1.4126e-18)
(0.370228 3.05084 -1.71739e-18)
(0.538628 2.88874 -1.66891e-18)
(0.681923 2.69933 -1.57691e-18)
(0.798445 2.49257 -1.61012e-18)
(0.891182 2.27697 -1.58973e-18)
(0.966253 2.06217 -1.49087e-18)
(1.02535 1.85784 -1.30227e-18)
(1.0687 1.66885 -5.75478e-19)
(1.09935 1.49831 1.35838e-18)
(1.12057 1.34863 3.81052e-18)
(1.13457 1.2197 5.55765e-18)
(1.14335 1.10985 8.60811e-18)
(1.14865 1.01634 1.21991e-17)
(1.15157 0.935914 1.63089e-17)
(1.15291 0.865708 2.19057e-17)
(1.15364 0.803468 2.81711e-17)
(1.15399 0.746704 3.52973e-17)
(1.15264 0.693619 4.25622e-17)
(1.14831 0.645104 4.90447e-17)
(1.14148 0.603398 5.37918e-17)
(1.13413 0.569407 5.52903e-17)
(1.1272 0.541639 5.13693e-17)
(1.12023 0.518174 4.18403e-17)
(1.11271 0.498094 2.80363e-17)
(1.10471 0.481032 1.93245e-17)
(1.0969 0.466673 -1.16694e-17)
(1.09016 0.454766 -5.06586e-17)
(1.08526 0.445122 -7.39657e-17)
(1.08268 0.437467 -7.99279e-17)
(1.0825 0.431375 -7.98504e-17)
(1.08436 0.42627 -7.37036e-17)
(1.08756 0.421548 -6.52053e-17)
(1.09091 0.416743 -5.74523e-17)
(-5.96368 2.50177 -6.7127e-20)
(-5.49897 2.31118 -1.43577e-19)
(-5.24467 2.1911 -3.15354e-19)
(-5.00737 2.1385 -4.98224e-19)
(-4.78161 2.13648 -6.56808e-19)
(-4.5569 2.1766 -5.48285e-19)
(-4.32545 2.25188 -5.38609e-19)
(-4.08198 2.35527 -6.38372e-19)
(-3.82306 2.47709 -9.70597e-19)
(-3.54714 2.60688 -1.14372e-18)
(-3.25349 2.73409 -1.2258e-18)
(-2.94354 2.84796 -1.22387e-18)
(-2.62136 2.93818 -1.0092e-18)
(-2.29236 2.99619 -9.92712e-19)
(-1.96217 3.01621 -1.67974e-18)
(-1.63532 2.99449 -2.24539e-18)
(-1.32126 2.93006 -2.76839e-18)
(-1.02425 2.8272 -2.52838e-18)
(-0.745665 2.68872 -1.75606e-18)
(-0.49222 2.52248 -1.6121e-18)
(-0.266943 2.33852 -1.64327e-18)
(-0.0623397 2.13785 -1.91783e-18)
(0.119595 1.9412 -2.28949e-18)
(0.278754 1.75763 -1.92801e-18)
(0.415751 1.58643 -1.70968e-18)
(0.5348 1.43053 1.5596e-18)
(0.638799 1.29268 3.92615e-18)
(0.728377 1.17336 5.80384e-18)
(0.805301 1.07111 8.23111e-18)
(0.871526 0.983437 1.10791e-17)
(0.928806 0.907414 1.41509e-17)
(0.978878 0.840522 1.84646e-17)
(1.02342 0.780771 2.32032e-17)
(1.0635 0.726426 2.84304e-17)
(1.0993 0.676482 3.43437e-17)
(1.13093 0.631323 4.00008e-17)
(1.15915 0.591959 4.50506e-17)
(1.18528 0.558767 4.9238e-17)
(1.2103 0.531023 5.03353e-17)
(1.23451 0.507637 4.82283e-17)
(1.25785 0.487832 4.31312e-17)
(1.28028 0.471126 3.51885e-17)
(1.30194 0.457102 1.9146e-17)
(1.32307 0.445383 -2.81011e-18)
(1.34402 0.435641 -2.37808e-17)
(1.36506 0.427564 -3.9566e-17)
(1.38631 0.420842 -4.89006e-17)
(1.40768 0.415169 -5.21955e-17)
(1.42889 0.410283 -5.4213e-17)
(1.44917 0.406011 -5.52377e-17)
(-8.46079 2.08223 -5.97653e-19)
(-7.96665 1.98549 -6.47574e-19)
(-7.66181 1.91769 -7.91377e-19)
(-7.36574 1.88861 -1.34968e-18)
(-7.08181 1.89505 -1.40874e-18)
(-6.79794 1.93397 -1.05494e-18)
(-6.50632 2.00079 -1.07022e-18)
(-6.20092 2.08984 -1.15208e-18)
(-5.87749 2.19387 -1.32847e-18)
(-5.53362 2.30441 -1.87637e-18)
(-5.16856 2.41243 -2.10388e-18)
(-4.78361 2.50895 -1.64507e-18)
(-4.38218 2.58567 -1.42122e-18)
(-3.96909 2.63559 -1.20857e-18)
(-3.54993 2.65373 -1.62203e-18)
(-3.13098 2.63755 -2.96533e-18)
(-2.71983 2.5859 -3.247e-18)
(-2.32242 2.49996 -2.54596e-18)
(-1.94357 2.38216 -1.9308e-18)
(-1.58936 2.2394 -1.77548e-18)
(-1.26214 2.07974 -1.7283e-18)
(-0.960673 1.908 -2.05675e-18)
(-0.685613 1.73948 -2.49779e-18)
(-0.438109 1.57753 -2.86535e-18)
(-0.220128 1.4243 -2.55612e-18)
(-0.00912982 1.27631 2.11388e-18)
(0.170905 1.158 4.14898e-18)
(0.329328 1.05654 7.10805e-18)
(0.468286 0.969236 9.02066e-18)
(0.589945 0.894175 1.07246e-17)
(0.69675 0.828568 1.32796e-17)
(0.791379 0.770116 1.71343e-17)
(0.876339 0.717111 2.07004e-17)
(0.953553 0.668424 2.46119e-17)
(1.02423 0.62368 2.91721e-17)
(1.08928 0.583257 3.35709e-17)
(1.14965 0.54774 3.77128e-17)
(1.20645 0.517308 4.18606e-17)
(1.26059 0.49156 4.44519e-17)
(1.31269 0.469824 4.51369e-17)
(1.36308 0.45147 4.49772e-17)
(1.41197 0.435997 4.2593e-17)
(1.45952 0.422992 3.65141e-17)
(1.50587 0.412105 2.38941e-17)
(1.55118 0.403031 1.09437e-17)
(1.59556 0.395513 2.50371e-19)
(1.63906 0.38935 -9.40745e-18)
(1.68157 0.384401 -1.80162e-17)
(1.72291 0.380603 -2.51313e-17)
(1.76236 0.377964 -3.19903e-17)
(-10.8766 1.6586 -1.35874e-18)
(-10.35 1.61134 -1.46943e-18)
(-9.99126 1.57555 -1.61929e-18)
(-9.63468 1.5622 -1.81953e-18)
(-9.28594 1.57313 -1.76505e-18)
(-8.93454 1.60763 -1.70845e-18)
(-8.57325 1.66308 -1.74053e-18)
(-8.19614 1.73548 -1.77628e-18)
(-7.79884 1.81949 -1.89168e-18)
(-7.37878 1.90868 -2.49174e-18)
(-6.93522 1.99601 -2.74867e-18)
(-6.46943 2.0744 -2.32698e-18)
(-5.98453 2.13732 -2.18616e-18)
(-5.48526 2.1792 -2.25443e-18)
(-4.97766 2.19576 -2.48191e-18)
(-4.46876 2.1843 -3.20879e-18)
(-3.96603 2.14364 -3.39498e-18)
(-3.4765 2.07428 -2.76724e-18)
(-3.00668 1.97865 -2.03735e-18)
(-2.56235 1.86213 -1.64905e-18)
(-2.14702 1.731 -1.19378e-18)
(-1.76244 1.5913 -1.55332e-18)
(-1.40884 1.4518 -1.88628e-18)
(-1.08575 1.31356 -1.82538e-18)
(-0.792412 1.18055 -8.74859e-19)
(-0.52117 1.05911 3.42652e-18)
(-0.285744 0.9645 5.45919e-18)
(-0.0570361 0.87719 8.72328e-18)
(0.143033 0.809448 1.03403e-17)
(0.313983 0.753949 1.15368e-17)
(0.464079 0.704163 1.35412e-17)
(0.597522 0.658406 1.74385e-17)
(0.7179 0.615321 1.98255e-17)
(0.828147 0.574537 2.2732e-17)
(0.930263 0.536511 2.65788e-17)
(1.02554 0.50195 3.00003e-17)
(1.11498 0.47138 3.32205e-17)
(1.19953 0.444943 3.7082e-17)
(1.28007 0.422407 3.95233e-17)
(1.35731 0.403349 4.08235e-17)
(1.43183 0.387308 4.25865e-17)
(1.50405 0.373854 4.35855e-17)
(1.57429 0.362608 4.11668e-17)
(1.64282 0.353249 3.58472e-17)
(1.70984 0.345523 2.95828e-17)
(1.77549 0.339246 2.27476e-17)
(1.83985 0.334324 1.71908e-17)
(1.90285 0.330768 1.25798e-17)
(1.96431 0.32873 6.47425e-18)
(2.02347 0.32848 -9.64129e-20)
(-13.0596 1.23775 -1.86079e-18)
(-12.486 1.21595 -1.89693e-18)
(-12.0736 1.19871 -1.92165e-18)
(-11.6578 1.19446 -2.41973e-18)
(-11.2456 1.20569 -2.53803e-18)
(-10.8279 1.2326 -2.13559e-18)
(-10.3982 1.27388 -2.12109e-18)
(-9.95084 1.32699 -2.14673e-18)
(-9.48164 1.38829 -2.25224e-18)
(-8.98808 1.45323 -2.8004e-18)
(-8.46953 1.51671 -2.96452e-18)
(-7.92723 1.57355 -2.54565e-18)
(-7.36426 1.61896 -2.40158e-18)
(-6.78548 1.64889 -2.39248e-18)
(-6.19725 1.66026 -2.40743e-18)
(-5.60711 1.6511 -2.23838e-18)
(-5.02305 1.62044 -2.09805e-18)
(-4.45298 1.56852 -1.95802e-18)
(-3.90417 1.4972 -1.3008e-18)
(-3.38274 1.41018 -6.15801e-19)
(-2.89359 1.31211 -3.03757e-19)
(-2.44033 1.20779 -1.68938e-20)
(-2.02367 1.10165 4.04446e-19)
(-1.64178 0.993809 9.88107e-19)
(-1.29182 0.886796 2.01337e-18)
(-0.970447 0.789693 4.79195e-18)
(-0.68363 0.712185 7.35018e-18)
(-0.422532 0.64884 1.03882e-17)
(-0.193541 0.604764 1.16849e-17)
(0.047508 0.568534 1.29486e-17)
(0.234046 0.541659 1.45729e-17)
(0.399388 0.513392 1.73619e-17)
(0.548757 0.483447 1.93707e-17)
(0.686749 0.452655 2.20796e-17)
(0.816099 0.42297 2.47332e-17)
(0.938021 0.395793 2.72216e-17)
(1.05325 0.371703 3.03445e-17)
(1.16254 0.350802 3.35721e-17)
(1.26669 0.332914 3.68261e-17)
(1.36648 0.317737 3.88769e-17)
(1.46259 0.304945 4.09396e-17)
(1.55559 0.294221 4.17426e-17)
(1.64596 0.285281 4.22611e-17)
(1.73412 0.277893 4.05945e-17)
(1.82041 0.27188 3.7033e-17)
(1.90509 0.267131 3.3963e-17)
(1.98836 0.263632 3.19563e-17)
(2.07031 0.261541 2.96308e-17)
(2.15093 0.261237 2.67935e-17)
(2.22959 0.263329 2.41951e-17)
(-14.8235 0.742121 -1.67504e-18)
(-14.2094 0.730535 -1.64787e-18)
(-13.7528 0.721903 -1.64238e-18)
(-13.2885 0.720429 -2.04918e-18)
(-12.8244 0.727756 -2.09606e-18)
(-12.3527 0.744235 -1.64965e-18)
(-11.8672 0.7693 -1.63762e-18)
(-11.3626 0.801571 -1.72093e-18)
(-10.8348 0.838926 -1.8441e-18)
(-10.2816 0.878591 -2.42814e-18)
(-9.70217 0.917395 -2.38949e-18)
(-9.09783 0.952152 -1.66728e-18)
(-8.47158 0.979969 -1.47576e-18)
(-7.82837 0.998463 -1.32672e-18)
(-7.17491 1.00585 -1.15015e-18)
(-6.51928 1.00096 -1.40634e-18)
(-5.87025 0.983094 -1.27268e-18)