/*--------------------------------*- C++ -*----------------------------------*\
  =========                 |
  \\      /  F ield         | OpenFOAM: The Open Source CFD Toolbox
   \\    /   O peration     | Website:  https://openfoam.org
    \\  /    A nd           | Version:  8
     \\/     M anipulation  |
\*---------------------------------------------------------------------------*/
FoamFile
{
    version     2.0;
    format      ascii;
    class       volScalarField;
    location    "100";
    object      alphat;
}
// * * * * * * * * * * * * * * * * * * * * * * * * * * * * * * * * * * * * * //

dimensions      [1 -1 -1 0 0 0 0];

internalField   nonuniform List<scalar> 
8400
(
0.353175
0.352606
0.352069
0.351568
0.351102
0.35067
0.35027
0.3499
0.349558
0.349243
0.348952
0.348684
0.348439
0.348214
0.348007
0.347815
0.347634
0.347464
0.347304
0.347152
0.347007
0.346865
0.346725
0.346583
0.346438
0.346286
0.346124
0.345949
0.34576
0.345552
0.345318
0.34505
0.344762
0.344454
0.344123
0.343769
0.343389
0.342979
0.342532
0.34204
0.341489
0.340862
0.340154
0.339385
0.338556
0.337673
0.33675
0.335807
0.334866
0.333971
0.108839
0.109363
0.109929
0.110532
0.111171
0.111844
0.112551
0.113289
0.114057
0.114854
0.115679
0.11653
0.117406
0.118306
0.119227
0.120169
0.121128
0.122105
0.123099
0.124106
0.125127
0.126158
0.127198
0.128245
0.129298
0.130355
0.131415
0.132476
0.133539
0.134604
0.13567
0.136741
0.137772
0.138753
0.139686
0.140563
0.141379
0.142126
0.142802
0.143412
0.143971
0.1445
0.144984
0.145385
0.145699
0.145922
0.146053
0.146091
0.146037
0.145905
0.0574056
0.0577614
0.0581364
0.0585302
0.0589428
0.0593742
0.0598245
0.0602934
0.0607805
0.0612857
0.0618087
0.0623494
0.0629076
0.0634827
0.0640739
0.0646806
0.0653023
0.0659386
0.0665885
0.0672511
0.0679253
0.0686098
0.0693034
0.0700051
0.0707131
0.0714258
0.0721414
0.0728582
0.0735739
0.074286
0.0749917
0.0756935
0.0763918
0.0770807
0.0777447
0.0783788
0.0789776
0.0795356
0.0800492
0.0805168
0.0809393
0.0813216
0.0816754
0.0819588
0.082179
0.0823334
0.0824182
0.0824309
0.082371
0.0822403
0.0504542
0.0505584
0.0506695
0.0507875
0.0509126
0.051045
0.0511852
0.051333
0.0514885
0.0516519
0.0518233
0.052003
0.0521913
0.052388
0.0525931
0.0528066
0.0530287
0.0532594
0.0534986
0.0537458
0.0540009
0.0542636
0.0545339
0.0548113
0.0550952
0.0553851
0.0556803
0.0559816
0.0562886
0.0566012
0.0569193
0.0572385
0.0575565
0.0578718
0.0581821
0.058485
0.0587777
0.0590577
0.0593231
0.0595726
0.0598052
0.0600217
0.0602251
0.0604167
0.0605775
0.0607106
0.0608152
0.0608894
0.0609354
0.0609487
0.0490497
0.0490858
0.0491245
0.0491656
0.0492097
0.0492568
0.0493073
0.0493612
0.0494183
0.0494788
0.0495431
0.0496113
0.0496837
0.0497604
0.0498414
0.0499269
0.0500173
0.0501124
0.0502123
0.0503169
0.0504265
0.0505415
0.0506621
0.0507887
0.0509212
0.0510598
0.0512049
0.0513557
0.0515117
0.0516728
0.0518388
0.0520095
0.0521846
0.0523636
0.0525463
0.0527317
0.0529187
0.0531063
0.0532942
0.053482
0.0536691
0.0538556
0.0540417
0.0542293
0.0544222
0.0546133
0.0548012
0.0549846
0.0551642
0.0553418
0.0489446
0.0489716
0.0489999
0.0490297
0.0490613
0.049095
0.0491311
0.0491694
0.0492099
0.0492529
0.0492985
0.0493469
0.0493982
0.0494526
0.0495103
0.0495716
0.0496366
0.0497054
0.049778
0.0498546
0.0499354
0.0500209
0.0501113
0.0502066
0.0503069
0.0504125
0.0505237
0.0506404
0.0507628
0.050891
0.0510253
0.0511662
0.0513137
0.051468
0.0516291
0.051797
0.0519716
0.0521536
0.0523432
0.0525406
0.0527458
0.0529585
0.0531792
0.0534088
0.0536479
0.0538975
0.0541572
0.0544306
0.0547127
0.0550042
0.0491922
0.0492291
0.0492673
0.0493069
0.0493481
0.0493913
0.0494366
0.0494838
0.0495329
0.0495842
0.049638
0.0496944
0.0497537
0.0498161
0.0498818
0.049951
0.0500238
0.0501004
0.0501808
0.0502652
0.050354
0.0504475
0.050546
0.0506494
0.0507582
0.0508725
0.0509927
0.0511189
0.0512513
0.0513904
0.0515367
0.0516904
0.0518519
0.0520216
0.0521998
0.0523866
0.0525828
0.052789
0.0530057
0.0532332
0.0534721
0.0537228
0.0539865
0.0542639
0.0545547
0.0548589
0.055175
0.0555066
0.055857
0.0562226
0.0496378
0.0496887
0.049741
0.0497948
0.0498505
0.0499084
0.0499686
0.050031
0.0500957
0.0501627
0.0502325
0.0503051
0.0503808
0.0504597
0.0505421
0.0506284
0.0507184
0.0508125
0.0509106
0.051013
0.0511202
0.0512322
0.0513494
0.0514718
0.0515999
0.0517338
0.0518739
0.0520203
0.0521733
0.0523337
0.0525016
0.0526775
0.0528617
0.0530547
0.0532567
0.0534682
0.0536901
0.0539231
0.0541679
0.0544249
0.0546941
0.0549767
0.0552739
0.0555863
0.0559146
0.0562573
0.0566156
0.0569866
0.0573722
0.0577773
0.0501372
0.050205
0.0502743
0.0503453
0.0504184
0.0504937
0.0505714
0.0506515
0.0507339
0.050819
0.050907
0.050998
0.0510923
0.0511899
0.0512912
0.0513964
0.0515057
0.051619
0.0517366
0.0518587
0.0519856
0.0521176
0.0522547
0.0523973
0.0525456
0.0526999
0.0528602
0.0530269
0.0532005
0.0533813
0.0535698
0.0537662
0.0539711
0.0541846
0.054407
0.0546391
0.0548819
0.0551356
0.0554009
0.055678
0.0559678
0.0562714
0.056589
0.0569216
0.05727
0.0576332
0.0580123
0.0584046
0.0588071
0.0592219
0.0506633
0.050747
0.0508323
0.0509195
0.0510088
0.0511005
0.0511945
0.0512909
0.0513899
0.0514917
0.0515964
0.0517042
0.0518152
0.0519296
0.0520477
0.0521697
0.0522957
0.0524259
0.0525603
0.0526992
0.052843
0.0529917
0.0531455
0.0533047
0.0534694
0.0536397
0.0538157
0.0539979
0.0541868
0.0543828
0.0545861
0.0547971
0.0550159
0.0552428
0.0554781
0.055723
0.0559777
0.0562427
0.0565181
0.0568041
0.0571022
0.0574129
0.0577371
0.0580742
0.0584238
0.0587881
0.0591667
0.0595591
0.0599606
0.0603695
0.0511283
0.0512273
0.0513278
0.0514302
0.0515345
0.051641
0.0517497
0.0518609
0.0519746
0.0520911
0.0522104
0.0523328
0.0524581
0.0525868
0.052719
0.052855
0.0529948
0.0531386
0.0532866
0.0534389
0.0535958
0.0537573
0.0539237
0.054095
0.0542713
0.0544527
0.0546394
0.054832
0.0550308
0.0552362
0.0554482
0.055667
0.0558928
0.0561259
0.056367
0.0566166
0.0568748
0.0571417
0.0574173
0.0577023
0.0579975
0.0583033
0.0586202
0.0589472
0.0592849
0.0596329
0.0599923
0.0603618
0.0607409
0.0611247
0.0514981
0.0516095
0.0517224
0.0518371
0.0519537
0.0520723
0.0521929
0.0523156
0.0524409
0.0525687
0.0526993
0.0528326
0.0529687
0.0531079
0.0532504
0.0533965
0.0535461
0.0536994
0.0538564
0.0540175
0.0541828
0.0543524
0.0545262
0.0547045
0.0548872
0.0550745
0.0552667
0.0554642
0.0556674
0.0558761
0.0560906
0.0563112
0.0565378
0.0567706
0.0570102
0.0572568
0.0575102
0.0577702
0.0580372
0.0583124
0.058595
0.0588859
0.0591851
0.0594907
0.0598038
0.0601238
0.0604502
0.0607824
0.0611197
0.0614613
0.0517086
0.05183
0.0519527
0.0520768
0.0522026
0.05233
0.0524592
0.0525904
0.0527237
0.0528595
0.0529978
0.0531385
0.0532817
0.0534278
0.053577
0.0537293
0.0538848
0.0540435
0.0542056
0.0543713
0.0545408
0.0547141
0.0548914
0.0550726
0.0552576
0.0554466
0.05564
0.0558381
0.0560408
0.0562482
0.0564607
0.0566779
0.0568998
0.0571267
0.0573593
0.0575972
0.0578401
0.0580875
0.0583394
0.0585965
0.0588601
0.0591275
0.059398
0.0596744
0.0599535
0.0602357
0.0605188
0.0608032
0.0610879
0.0613723
0.0517266
0.051854
0.0519825
0.0521124
0.0522436
0.0523761
0.0525098
0.0526452
0.0527826
0.0529222
0.0530641
0.0532082
0.0533545
0.0535033
0.0536548
0.053809
0.053966
0.0541259
0.0542888
0.0544551
0.054625
0.0547984
0.0549754
0.0551559
0.0553396
0.0555269
0.0557179
0.0559127
0.0561112
0.0563137
0.0565203
0.0567305
0.0569445
0.0571626
0.0573844
0.0576092
0.0578364
0.058066
0.0582995
0.0585338
0.0587718
0.0590117
0.0592484
0.0594865
0.0597242
0.0599602
0.0601923
0.0604206
0.060643
0.0608601
0.0514928
0.051622
0.0517523
0.0518835
0.0520156
0.0521485
0.0522823
0.0524175
0.0525547
0.0526942
0.0528356
0.0529788
0.0531238
0.0532712
0.053421
0.0535734
0.0537284
0.053886
0.0540468
0.054211
0.0543785
0.0545495
0.0547237
0.0549009
0.0550811
0.0552645
0.0554512
0.0556412
0.0558346
0.0560314
0.0562311
0.056433
0.0566374
0.0568442
0.0570529
0.0572633
0.0574743
0.0576847
0.0578957
0.0581066
0.0583135
0.0585197
0.0587229
0.0589201
0.0591131
0.0592971
0.0594733
0.05964
0.0597949
0.0599383
0.0509424
0.0510685
0.0511951
0.0513223
0.05145
0.0515781
0.0517069
0.0518373
0.0519697
0.052104
0.0522399
0.0523772
0.0525164
0.0526581
0.0528023
0.0529492
0.0530988
0.0532516
0.0534079
0.053568
0.0537315
0.0538985
0.0540689
0.0542425
0.0544194
0.0545997
0.0547832
0.0549695
0.0551587
0.0553504
0.0555438
0.0557388
0.0559359
0.0561342
0.0563317
0.0565277
0.0567227
0.0569171
0.0571048
0.0572942
0.057475
0.0576466
0.0578119
0.057969
0.0581162
0.0582494
0.058368
0.0584708
0.058556
0.0586218
0.0499591
0.0500746
0.0501903
0.0503065
0.0504228
0.0505393
0.0506567
0.0507757
0.0508968
0.0510195
0.0511436
0.0512692
0.0513973
0.0515284
0.0516628
0.0518003
0.0519415
0.0520871
0.0522374
0.0523918
0.0525505
0.0527138
0.0528818
0.0530541
0.0532306
0.0534113
0.0535955
0.0537828
0.0539733
0.0541663
0.0543611
0.0545576
0.0547542
0.0549492
0.0551423
0.0553319
0.0555178
0.055703
0.0558764
0.0560432
0.0562035
0.0563533
0.0564856
0.0566076
0.056712
0.0567978
0.0568642
0.0569062
0.0569234
0.056912
0.0484224
0.0485194
0.0486161
0.0487128
0.0488092
0.0489055
0.0490027
0.0491015
0.0492016
0.0493027
0.0494048
0.0495091
0.0496164
0.0497274
0.0498418
0.0499604
0.0500845
0.0502147
0.0503506
0.0504919
0.0506397
0.0507946
0.0509562
0.0511242
0.051299
0.0514804
0.0516673
0.0518592
0.0520559
0.0522568
0.0524606
0.0526665
0.0528724
0.0530769
0.0532807
0.0534782
0.053669
0.0538562
0.0540417
0.0542028
0.0543539
0.0544936
0.0546138
0.0547136
0.0547892
0.0548382
0.0548593
0.0548499
0.0548075
0.0547272
0.0466128
0.046673
0.0467324
0.0467907
0.0468473
0.0469023
0.0469566
0.0470103
0.0470624
0.0471124
0.0471609
0.0472092
0.0472579
0.0473069
0.0473568
0.0474097
0.0474677
0.0475305
0.0475974
0.0476698
0.0477503
0.047839
0.0479357
0.0480426
0.0481619
0.0482932
0.0484354
0.0485923
0.0487682
0.0489588
0.0491587
0.0493658
0.0495712
0.0497799
0.0499889
0.0502047
0.0504315
0.0506333
0.0508746
0.0510657
0.0512528
0.0514094
0.0515502
0.0516623
0.0517351
0.0517738
0.0517705
0.0517263
0.0516388
0.0515053
0.0519484
0.0514446
0.0509531
0.0504675
0.0499906
0.0495247
0.0490707
0.0486268
0.0481906
0.047762
0.0473431
0.0469351
0.046537
0.0461494
0.0457777
0.0454275
0.0450973
0.0447823
0.0444842
0.044208
0.0439479
0.043691
0.0434347
0.0431814
0.0429149
0.0426201
0.0423516
0.0422437
0.0425417
0.0434632
0.044267
0.0447629
0.0447382
0.0451586
0.045253
0.0451693
0.0456242
0.0459017
0.0463667
0.0469073
0.047452
0.0479837
0.0484752
0.0489257
0.049355
0.0497811
0.0502137
0.0506286
0.0509976
0.0513061
1.08355
1.06874
1.05457
1.04098
1.0279
1.01527
1.00302
0.991133
0.979587
0.968366
0.957457
0.946848
0.936527
0.926484
0.916709
0.907193
0.897926
0.8889
0.880107
0.871538
0.863187
0.855046
0.847108
0.839367
0.831817
0.824451
0.817264
0.81025
0.803404
0.796721
0.790196
0.783826
0.777605
0.771529
0.765596
0.759801
0.754142
0.748615
0.743207
0.737902
0.732694
0.727576
0.72254
0.717578
0.712677
0.707822
0.702991
0.698147
0.693222
0.688086
1.07683
1.05216
1.02859
1.00602
0.984428
0.963764
0.944005
0.925099
0.906992
0.889634
0.872981
0.856989
0.84162
0.826839
0.812612
0.798908
0.785699
0.772957
0.760659
0.748781
0.737303
0.726202
0.715462
0.705065
0.694993
0.685231
0.675765
0.666581
0.657665
0.649004
0.640588
0.632404
0.624441
0.616687
0.609132
0.601765
0.594575
0.587551
0.580698
0.574021
0.567513
0.561168
0.554979
0.54894
0.543044
0.537285
0.531654
0.526143
0.520741
0.51543
1.0768
1.05207
1.02836
1.00567
0.983955
0.963152
0.943213
0.924087
0.905724
0.888079
0.87111
0.854779
0.839049
0.823888
0.809265
0.795152
0.781523
0.768354
0.755621
0.743303
0.73138
0.719835
0.708649
0.697806
0.68729
0.677089
0.667186
0.657571
0.64823
0.639152
0.630327
0.621743
0.613393
0.605267
0.597357
0.589655
0.582154
0.574847
0.567727
0.560788
0.554023
0.547429
0.540999
0.534729
0.528616
0.522654
0.516841
0.511174
0.50565
0.500264
1.0768
1.05225
1.02876
1.00628
0.984745
0.964102
0.944292
0.925266
0.906979
0.889388
0.872455
0.856144
0.840422
0.825259
0.810626
0.796495
0.782842
0.769643
0.756876
0.744522
0.73256
0.720973
0.709743
0.698855
0.688294
0.678045
0.668096
0.658432
0.649044
0.639919
0.631047
0.622417
0.614021
0.60585
0.597894
0.590147
0.582601
0.575249
0.568084
0.5611
0.554292
0.547654
0.54118
0.534867
0.52871
0.522704
0.516847
0.511135
0.505564
0.500131
1.0768
1.05225
1.02875
1.00625
0.984678
0.963995
0.944148
0.925089
0.906775
0.889164
0.872217
0.855899
0.840176
0.825016
0.810389
0.796269
0.782629
0.769445
0.756696
0.744359
0.732416
0.720848
0.709638
0.69877
0.688228
0.677998
0.668067
0.658422
0.649052
0.639944
0.631088
0.622474
0.614093
0.605936
0.597994
0.590259
0.582725
0.575383
0.568228
0.561253
0.554452
0.547819
0.541351
0.53504
0.528885
0.522878
0.517018
0.511299
0.505718
0.500271
1.0768
1.05226
1.02879
1.00633
0.984802
0.964168
0.944369
0.925357
0.907087
0.889516
0.872606
0.856319
0.840622
0.825484
0.810876
0.79677
0.783142
0.769966
0.757223
0.74489
0.732948
0.72138
0.710168
0.699296
0.68875
0.678515
0.668578
0.658926
0.649547
0.640431
0.631566
0.622942
0.614551
0.606383
0.59843
0.590684
0.583137
0.575782
0.568614
0.561624
0.554808
0.54816
0.541674
0.535345
0.529169
0.523141
0.517257
0.511512
0.505902
0.500422
1.0768
1.05227
1.0288
1.00634
0.984815
0.964176
0.94437
0.925348
0.907065
0.889481
0.872557
0.856257
0.840548
0.825398
0.81078
0.796665
0.78303
0.769848
0.7571
0.744764
0.73282
0.721251
0.710039
0.699168
0.688623
0.678389
0.668454
0.658805
0.649429
0.640316
0.631455
0.622835
0.614447
0.606283
0.598333
0.59059
0.583046
0.575694
0.568528
0.56154
0.554725
0.548076
0.541589
0.535259
0.529079
0.523046
0.517155
0.511402
0.505781
0.500288
1.0768
1.05227
1.02881
1.00635
0.984836
0.964206
0.944411
0.9254
0.90713
0.889558
0.872647
0.85636
0.840663
0.825525
0.810918
0.796814
0.783187
0.770014
0.757273
0.744943
0.733005
0.72144
0.710231
0.699363
0.688819
0.678587
0.668651
0.659001
0.649624
0.640509
0.631644
0.623021
0.614629
0.606459
0.598504
0.590755
0.583204
0.575844
0.568669
0.561671
0.554845
0.548185
0.541685
0.535339
0.529144
0.523093
0.517182
0.511407
0.505762
0.500243
1.0768
1.05227
1.02881
1.00636
0.984842
0.964214
0.944419
0.925408
0.907136
0.889562
0.872647
0.856356
0.840654
0.825512
0.810899
0.79679
0.783158
0.769981
0.757235
0.744901
0.732959
0.72139
0.710178
0.699306
0.68876
0.678525
0.668588
0.658936
0.649557
0.64044
0.631575
0.62295
0.614556
0.606385
0.598428
0.590677
0.583124
0.575762
0.568583
0.561582
0.554752
0.548087
0.541581
0.535228
0.529025
0.522964
0.517042
0.511254
0.505595
0.50006
1.0768
1.05227
1.02881
1.00636
0.984846
0.96422
0.944426
0.925417
0.907147
0.889575
0.872663
0.856374
0.840675
0.825536
0.810926
0.796819
0.78319
0.770015
0.757272
0.74494
0.732999
0.721432
0.710222
0.699351
0.688806
0.678571
0.668634
0.658981
0.649602
0.640483
0.631616
0.622989
0.614593
0.606419
0.598459
0.590704
0.583146
0.575778
0.568594
0.561586
0.554748
0.548074
0.541558
0.535194
0.528978
0.522903
0.516965
0.51116
0.505481
0.499925
1.0768
1.05227
1.02881
1.00636
0.984846
0.96422
0.944426
0.925417
0.907147
0.889575
0.872662
0.856373
0.840674
0.825535
0.810925
0.796818
0.783188
0.770013
0.757269
0.744937
0.732996
0.721428
0.710217
0.699346
0.688799
0.678564
0.668625
0.658971
0.64959
0.64047
0.631601
0.622972
0.614573
0.606396
0.598433
0.590674
0.583112
0.575739
0.568549
0.561535
0.554689
0.548007
0.541482
0.535108
0.52888
0.522793
0.51684
0.511019
0.505323
0.499747
1.0768
1.05227
1.02881
1.00636
0.984842
0.964214
0.944419
0.925408
0.907136
0.889561
0.872646
0.856354
0.840652
0.825509
0.810896
0.796786
0.783153
0.769975
0.757228
0.744893
0.732949
0.721379
0.710165
0.699292
0.688743
0.678506
0.668565
0.65891
0.649527
0.640405
0.631534
0.622903
0.614502
0.606323
0.598357
0.590596
0.58303
0.575654
0.56846
0.561441
0.554591
0.547902
0.54137
0.534988
0.528751
0.522653
0.516689
0.510854
0.505143
0.49955
1.0768
1.05227
1.02881
1.00635
0.984835
0.964206
0.94441
0.925399
0.907129
0.889557
0.872645
0.856357
0.840659
0.825521
0.810912
0.796807
0.783179
0.770004
0.757261
0.744929
0.732988
0.721421
0.710209
0.699336
0.688789
0.678551
0.668611
0.658954
0.64957
0.640446
0.631572
0.622938
0.614534
0.606351
0.59838
0.590613
0.583042
0.575659
0.568457
0.56143
0.55457
0.547871
0.541327
0.534932
0.52868
0.522566
0.516585
0.510731
0.504999
0.499384
1.0768
1.05227
1.0288
1.00634
0.984815
0.964176
0.944369
0.925347
0.907064
0.889479
0.872554
0.856253
0.840543
0.825392
0.810772
0.796656
0.783018
0.769835
0.757085
0.744746
0.732799
0.721227
0.71001
0.699135
0.688584
0.678345
0.668403
0.658745
0.64936
0.640236
0.631362
0.622728
0.614325
0.606142
0.598171
0.590404
0.582833
0.57545
0.568247
0.561219
0.554357
0.547655
0.541108
0.534709
0.528452
0.522332
0.516343
0.510479
0.504736
0.499108
1.0768
1.05226
1.02879
1.00633
0.984802
0.964167
0.944368
0.925356
0.907085
0.889514
0.872602
0.856314
0.840616
0.825476
0.810866
0.796758
0.783127
0.769949
0.757202
0.744865
0.73292
0.721347
0.710129
0.699251
0.688698
0.678454
0.668508
0.658845
0.649454
0.640323
0.631442
0.622801
0.614389
0.606197
0.598217
0.590441
0.582859
0.575465
0.568251
0.56121
0.554335
0.547619
0.541057
0.534641
0.528367
0.522227
0.516217
0.510331
0.504563
0.498909
1.0768
1.05225
1.02875
1.00625
0.984678
0.963995
0.944147
0.925087
0.906772
0.889161
0.872213
0.855894
0.840169
0.825007
0.810378
0.796255
0.782612
0.769426
0.756673
0.744333
0.732385
0.720812
0.709596
0.698721
0.688171
0.677932
0.667991
0.658334
0.648949
0.639825
0.63095
0.622315
0.61391
0.605726
0.597752
0.589982
0.582406
0.575017
0.567808
0.560772
0.5539
0.547188
0.540628
0.534214
0.527939
0.521799
0.515786
0.509896
0.504123
0.498461
1.0768
1.05225
1.02876
1.00628
0.984745
0.964101
0.944291
0.925264
0.906976
0.889384
0.87245
0.856137
0.840414
0.825248
0.810612
0.796478
0.782822
0.769619
0.756849
0.74449
0.732522
0.720929
0.709692
0.698796
0.688226
0.677966
0.668004
0.658327
0.648922
0.639778
0.630885
0.622232
0.613809
0.605607
0.597617
0.58983
0.582239
0.574835
0.567612
0.560562
0.553677
0.546953
0.540381
0.533957
0.527674
0.521526
0.515509
0.509617
0.503847
0.498196
1.0768
1.05207
1.02836
1.00567
0.983955
0.963151
0.943212
0.924085
0.905722
0.888076
0.871105
0.854772
0.83904
0.823877
0.809252
0.795136
0.781505
0.768332
0.755595
0.743273
0.731347
0.719797
0.708605
0.697757
0.687235
0.677026
0.667115
0.657491
0.648141
0.639053
0.630216
0.621621
0.613258
0.605117
0.59719
0.589468
0.581945
0.574613
0.567465
0.560494
0.553696
0.547064
0.540594
0.534282
0.528125
0.52212
0.516267
0.51057
0.505037
0.499684
1.07683
1.05216
1.02859
1.00602
0.984428
0.963763
0.944005
0.925099
0.906992
0.889634
0.872981
0.85699
0.841622
0.826842
0.812616
0.798913
0.785707
0.772969
0.760675
0.748803
0.737331
0.72624
0.715511
0.705127
0.695072
0.68533
0.675888
0.666733
0.657852
0.649235
0.64087
0.632749
0.624862
0.6172
0.609757
0.602526
0.595501
0.588676
0.582047
0.575612
0.569367
0.563312
0.557447
0.551775
0.5463
0.541034
0.535993
0.531206
0.526733
0.522688
1.08355
1.06874
1.05457
1.04098
1.0279
1.01527
1.00302
0.991131
0.979584
0.968362
0.957451
0.94684
0.936517
0.926471
0.916693
0.907172
0.897901
0.888869
0.88007
0.871494
0.863134
0.854984
0.847034
0.83928
0.831714
0.82433
0.817122
0.810084
0.803209
0.796494
0.789931
0.783517
0.777245
0.771111
0.76511
0.759237
0.753487
0.747855
0.742337
0.736927
0.73162
0.726412
0.721297
0.716269
0.711323
0.706451
0.701646
0.6969
0.692199
0.68753
0.461142
0.234954
0.186783
0.181782
0.178515
0.177728
0.175337
0.174026
0.171912
0.170183
0.168293
0.166266
0.164546
0.162257
0.160717
0.158213
0.157502
0.158986
0.197744
0.393085
0.461602
0.235855
0.187783
0.182815
0.179539
0.178735
0.176327
0.174991
0.172871
0.171125
0.169229
0.167193
0.165468
0.163173
0.161628
0.159111
0.158378
0.15979
0.198323
0.393079
0.462068
0.236763
0.188781
0.183841
0.180555
0.179732
0.177308
0.175948
0.173823
0.17206
0.170158
0.168113
0.166382
0.164082
0.162533
0.160003
0.159249
0.160594
0.19891
0.393054
0.462558
0.237682
0.189775
0.18486
0.181565
0.180722
0.178282
0.176899
0.174768
0.172989
0.171081
0.169027
0.167291
0.164985
0.163432
0.160888
0.160117
0.1614
0.19951
0.393036
0.463079
0.238613
0.190767
0.185873
0.182568
0.181704
0.17925
0.177845
0.175708
0.173913
0.171998
0.169935
0.168194
0.165882
0.164325
0.161767
0.16098
0.162205
0.200128
0.393043
0.463635
0.239557
0.191757
0.186879
0.183566
0.182679
0.180213
0.178785
0.176643
0.174832
0.17291
0.170838
0.169091
0.166773
0.165213
0.162641
0.16184
0.163012
0.200765
0.393085
0.464227
0.240515
0.192746
0.18788
0.184558
0.183648
0.181171
0.17972
0.177572
0.175745
0.173818
0.171736
0.169984
0.167659
0.166096
0.16351
0.162697
0.16382
0.201423
0.393165
0.464854
0.241486
0.193732
0.188875
0.185545
0.18461
0.182125
0.18065
0.178497
0.176655
0.17472
0.172629
0.170872
0.16854
0.166974
0.164375
0.163551
0.16463
0.202101
0.393288
0.465518
0.242471
0.194718
0.189865
0.186527
0.185566
0.183075
0.181576
0.179418
0.17756
0.175619
0.173518
0.171756
0.169416
0.167848
0.165235
0.164403
0.165441
0.2028
0.393455
0.466216
0.243469
0.195702
0.19085
0.187504
0.186516
0.184021
0.182498
0.180334
0.178461
0.176514
0.174403
0.172636
0.170288
0.168719
0.166092
0.165252
0.166254
0.203519
0.393668
0.466948
0.244481
0.196686
0.19183
0.188477
0.187462
0.184964
0.183417
0.181248
0.179359
0.177405
0.175285
0.173513
0.171157
0.169586
0.166945
0.1661
0.167069
0.204259
0.393927
0.467709
0.245506
0.197669
0.192805
0.189447
0.188404
0.185903
0.184334
0.182158
0.180255
0.178294
0.176164
0.174387
0.172024
0.170451
0.167796
0.166947
0.167887
0.205018
0.394232
0.468498
0.246545
0.198652
0.193777
0.190413
0.189344
0.18684
0.185248
0.183066
0.181148
0.179181
0.177041
0.175259
0.172887
0.171314
0.168645
0.167792
0.168707
0.205796
0.394584
0.469312
0.247597
0.199635
0.194746
0.191376
0.19028
0.187774
0.18616
0.183972
0.182039
0.180066
0.177916
0.17613
0.173749
0.172175
0.169492
0.168638
0.16953
0.206593
0.39498
0.470149
0.248664
0.200618
0.195711
0.192336
0.191215
0.188706
0.18707
0.184876
0.18293
0.180949
0.17879
0.177
0.17461
0.173035
0.170338
0.169483
0.170357
0.207409
0.395421
0.471006
0.249745
0.201603
0.196673
0.193295
0.192148
0.189637
0.187979
0.185779
0.183819
0.181832
0.179663
0.177869
0.17547
0.173894
0.171183
0.170329
0.171188
0.208242
0.395905
0.471879
0.250841
0.202589
0.197634
0.194254
0.19308
0.190566
0.188888
0.186681
0.184707
0.182715
0.180536
0.178738
0.17633
0.174754
0.172029
0.171176
0.172023
0.209093
0.39643
0.472763
0.251953
0.203577
0.198592
0.195211
0.194011
0.191495
0.189796
0.187584
0.185597
0.183598
0.181409
0.179607
0.17719
0.175614
0.172875
0.172025
0.172862
0.20996
0.396994
0.473657
0.253081
0.204568
0.19955
0.196168
0.194942
0.192424
0.190705
0.188487
0.186486
0.184482
0.182283
0.180478
0.178052
0.176476
0.173722
0.172875
0.173705
0.210843
0.397596
0.474555
0.254227
0.205561
0.200506
0.197126
0.195873
0.193353
0.191614
0.189391
0.187377
0.185367
0.183159
0.18135
0.178914
0.177338
0.174571
0.173727
0.174554
0.211742
0.398233
0.475453
0.255391
0.206557
0.201462
0.198085
0.196805
0.194283
0.192525
0.190296
0.18827
0.186255
0.184036
0.182224
0.179779
0.178203
0.175422
0.174583
0.175409
0.212656
0.398904
0.476347
0.256574
0.207557
0.202419
0.199045
0.197738
0.195214
0.193438
0.191203
0.189165
0.187144
0.184916
0.183101
0.180646
0.17907
0.176276
0.175441
0.176269
0.213585
0.399605
0.477231
0.257778
0.208561
0.203376
0.200006
0.198673
0.196147
0.194353
0.192113
0.190062
0.188036
0.185799
0.18398
0.181516
0.17994
0.177133
0.176303
0.177135
0.214529
0.400334
0.478101
0.259004
0.209569
0.204335
0.20097
0.19961
0.197082
0.19527
0.193025
0.190962
0.188931
0.186684
0.184863
0.18239
0.180814
0.177994
0.177169
0.178008
0.215487
0.401088
0.478951
0.260254
0.210582
0.205296
0.201935
0.200549
0.198019
0.19619
0.19394
0.191865
0.18983
0.187573
0.185749
0.183267
0.181691
0.178858
0.178038
0.178887
0.216459
0.401864
0.479777
0.26153
0.2116
0.206261
0.202903
0.201491
0.198958
0.197114
0.194859
0.192772
0.190732
0.188467
0.18664
0.184148
0.182572
0.179727
0.178913
0.179774
0.217444
0.402659
0.480573
0.262834
0.212623
0.207228
0.203872
0.202436
0.199901
0.19804
0.195781
0.193683
0.191639
0.189364
0.187535
0.185034
0.183458
0.180601
0.179792
0.180668
0.218444
0.403471
0.481332
0.264169
0.213653
0.208199
0.204844
0.203384
0.200848
0.198971
0.196707
0.194599
0.192551
0.190267
0.188435
0.185926
0.184349
0.18148
0.180677
0.181569
0.219458
0.404296
0.48205
0.265538
0.214691
0.209172
0.20582
0.204336
0.201798
0.199907
0.197639
0.195519
0.193467
0.191175
0.18934
0.186822
0.185245
0.182366
0.181567
0.182479
0.220486
0.405132
0.482752
0.266893
0.215738
0.210148
0.206798
0.205293
0.202753
0.200847
0.198575
0.196445
0.19439
0.192089
0.190251
0.187725
0.186147
0.183257
0.182464
0.183397
0.221528
0.405975
0.483463
0.268189
0.216794
0.211128
0.207781
0.206254
0.203713
0.201792
0.199517
0.197377
0.195318
0.193009
0.191169
0.188634
0.187055
0.184155
0.183367
0.184324
0.222586
0.406822
0.484187
0.269416
0.21786
0.212111
0.208767
0.20722
0.204678
0.202744
0.200465
0.198315
0.196253
0.193935
0.192093
0.18955
0.187969
0.185061
0.184277
0.18526
0.22366
0.407671
0.484922
0.270585
0.218934
0.213098
0.209759
0.208191
0.205648
0.2037
0.201419
0.199259
0.197194
0.194868
0.193023
0.190473
0.188891
0.185974
0.185194
0.186206
0.224751
0.408517
0.485669
0.271705
0.220007
0.21409
0.210755
0.209168
0.206624
0.204664
0.20238
0.20021
0.198142
0.195808
0.193961
0.191404
0.18982
0.186895
0.186118
0.187161
0.225859
0.409358
0.486426
0.272788
0.221075
0.215086
0.211756
0.210151
0.207607
0.205634
0.203347
0.201168
0.199097
0.196756
0.194906
0.192343
0.190756
0.187824
0.18705
0.188126
0.226986
0.410191
0.487193
0.273837
0.222141
0.216088
0.212763
0.21114
0.208596
0.206611
0.204322
0.202134
0.20006
0.197712
0.19586
0.193289
0.1917
0.188762
0.18799
0.189102
0.228133
0.411011
0.487971
0.274856
0.223203
0.217096
0.213777
0.212137
0.209592
0.207595
0.205305
0.203108
0.201032
0.198676
0.196821
0.194245
0.192653
0.189709
0.188939
0.190088
0.229301
0.411816
0.488759
0.275849
0.224262
0.218109
0.214797
0.21314
0.210596
0.208587
0.206295
0.20409
0.202012
0.199649
0.197792
0.19521
0.193614
0.190665
0.189896
0.191085
0.230493
0.412602
0.489556
0.27682
0.225319
0.219129
0.215824
0.214151
0.211608
0.209587
0.207294
0.20508
0.203
0.200631
0.198771
0.196183
0.194584
0.191631
0.190863
0.192092
0.23171
0.413365
0.490363
0.277773
0.226375
0.220155
0.216858
0.21517
0.212628
0.210596
0.208302
0.20608
0.203998
0.201622
0.199759
0.197167
0.195563
0.192606
0.191838
0.193111
0.232954
0.414102
0.491178
0.27871
0.227431
0.221188
0.2179
0.216197
0.213656
0.211614
0.209319
0.207089
0.205005
0.202623
0.200757
0.19816
0.196552
0.193592
0.192823
0.194141
0.234211
0.41482
0.492002
0.279635
0.228487
0.222228
0.218949
0.217232
0.214693
0.21264
0.210345
0.208107
0.206021
0.203634
0.201764
0.199163
0.19755
0.194588
0.193817
0.195182
0.235426
0.415553
0.492834
0.28055
0.229545
0.223276
0.220007
0.218276
0.215739
0.213676
0.21138
0.209135
0.207047
0.204654
0.202782
0.200176
0.198558
0.195595
0.194821
0.196235
0.236584
0.416309
0.493674
0.281459
0.230604
0.224332
0.221074
0.219329
0.216794
0.214721
0.212425
0.210173
0.208083
0.205685
0.203809
0.2012
0.199576
0.196612
0.195836
0.1973
0.237701
0.417084
0.494523
0.282363
0.231667
0.225396
0.22215
0.220392
0.217859
0.215777
0.213481
0.211221
0.20913
0.206726
0.204847
0.202235
0.200604
0.197641
0.196861
0.198377
0.238781
0.417877
0.49538
0.283264
0.232734
0.226469
0.223234
0.221464
0.218934
0.216842
0.214546
0.21228
0.210187
0.207779
0.205895
0.203281
0.201643
0.198681
0.197897
0.199468
0.239832
0.418687
0.496245
0.284163
0.233806
0.22755
0.224329
0.222545
0.220019
0.217917
0.215622
0.213349
0.211254
0.208842
0.206954
0.204338
0.202693
0.199733
0.198943
0.20057
0.24086
0.419514
0.497118
0.285063
0.234883
0.228641
0.225433
0.223637
0.221114
0.219003
0.216708
0.214429
0.212333
0.209916
0.208025
0.205406
0.203754
0.200797
0.200001
0.201676
0.241878
0.420356
0.497999
0.285964
0.235967
0.229742
0.226547
0.224739
0.222219
0.220099
0.217806
0.21552
0.213423
0.211001
0.209107
0.206487
0.204827
0.201872
0.20107
0.202784
0.24289
0.421215
0.498887
0.286868
0.237057
0.230852
0.227671
0.225851
0.223336
0.221207
0.218915
0.216623
0.214524
0.212099
0.2102
0.207579
0.20591
0.20296
0.20215
0.203897
0.2439
0.422088
0.499784
0.287775
0.238155
0.231972
0.228806
0.226974
0.224463
0.222326
0.220035
0.217737
0.215637
0.213208
0.211305
0.208683
0.207006
0.20406
0.203242
0.205015
0.244909
0.422977
0.500687
0.288688
0.239261
0.233102
0.229952
0.228108
0.225602
0.223456
0.221167
0.218863
0.216761
0.214329
0.212421
0.209799
0.208113
0.205172
0.204345
0.206138
0.245921
0.42388
0.501599
0.289606
0.240377
0.234244
0.231109
0.229254
0.226753
0.224599
0.22231
0.220001
0.217898
0.215463
0.21355
0.210928
0.209232
0.206297
0.20546
0.207269
0.246937
0.424797
0.502518
0.290532
0.241502
0.235396
0.232278
0.230411
0.227915
0.225753
0.223466
0.221152
0.219047
0.216609
0.214691
0.212069
0.210365
0.207435
0.206587
0.208406
0.247959
0.425729
0.503445
0.291465
0.242638
0.236559
0.233458
0.23158
0.229089
0.226919
0.224634
0.222314
0.220208
0.217767
0.215845
0.213223
0.21151
0.208586
0.207727
0.209553
0.248989
0.426676
0.50438
0.292407
0.243784
0.237734
0.23465
0.232761
0.230276
0.228097
0.225814
0.223489
0.221382
0.218938
0.217011
0.21439
0.212669
0.209749
0.208879
0.210708
0.250027
0.427637
0.505325
0.293358
0.244941
0.238921
0.235854
0.233954
0.231474
0.229288
0.227006
0.224677
0.222568
0.220122
0.21819
0.21557
0.213841
0.210926
0.210044
0.211874
0.251075
0.428612
0.506277
0.294318
0.24611
0.24012
0.23707
0.235159
0.232686
0.230491
0.228212
0.225877
0.223767
0.221319
0.219382
0.216764
0.215027
0.212115
0.211223
0.21305
0.252133
0.429601
0.507239
0.295288
0.24729
0.241331
0.238299
0.236376
0.233909
0.231707
0.22943
0.227091
0.22498
0.222529
0.220588
0.217972
0.216227
0.213319
0.212415
0.214237
0.253203
0.430604
0.508209
0.296268
0.248483
0.242554
0.23954
0.237607
0.235146
0.232936
0.230661
0.228318
0.226205
0.223753
0.221807
0.219194
0.217441
0.214536
0.21362
0.215437
0.254284
0.431621
0.509187
0.297258
0.249688
0.24379
0.240795
0.23885
0.236396