/*--------------------------------*- C++ -*----------------------------------*\
  =========                 |
  \\      /  F ield         | OpenFOAM: The Open Source CFD Toolbox
   \\    /   O peration     | Website:  https://openfoam.org
    \\  /    A nd           | Version:  8
     \\/     M anipulation  |
\*---------------------------------------------------------------------------*/
FoamFile
{
    version     2.0;
    format      ascii;
    class       volScalarField;
    location    "100";
    object      epsilon;
}
// * * * * * * * * * * * * * * * * * * * * * * * * * * * * * * * * * * * * * //

dimensions      [0 2 -3 0 0 0 0];

internalField   nonuniform List<scalar> 
8400
(
2.41813
2.40078
2.38389
2.3676
2.35197
2.33702
2.32274
2.30913
2.29619
2.28392
2.27229
2.2613
2.25091
2.24112
2.23188
2.2232
2.21503
2.20736
2.20015
2.19336
2.18696
2.18091
2.17519
2.16977
2.1646
2.15965
2.1549
2.15029
2.14581
2.1414
2.13704
2.13268
2.1283
2.12385
2.11931
2.11463
2.10979
2.10477
2.09954
2.09408
2.08839
2.08246
2.07632
2.07001
2.06364
2.05734
2.05135
2.04603
2.04191
2.03975
0.0623949
0.0627571
0.0631968
0.0637114
0.064301
0.0649661
0.0657072
0.0665253
0.0674214
0.0683965
0.0694513
0.0705865
0.0718028
0.0731012
0.0744826
0.075948
0.0774979
0.0791329
0.0808533
0.0826594
0.0845515
0.0865297
0.0885942
0.0907447
0.0929805
0.0953009
0.0977048
0.100191
0.102757
0.105401
0.108119
0.11091
0.113769
0.11669
0.11967
0.122702
0.12578
0.128898
0.132047
0.135219
0.138406
0.141599
0.14479
0.147972
0.15114
0.154292
0.157432
0.160573
0.163743
0.166993
0.00976004
0.00986288
0.00997535
0.0100977
0.0102304
0.0103736
0.0105277
0.0106931
0.0108702
0.0110594
0.011261
0.0114755
0.0117033
0.0119448
0.0122005
0.0124708
0.0127561
0.013057
0.0133737
0.0137066
0.0140563
0.014423
0.0148071
0.0152088
0.0156285
0.0160662
0.0165221
0.0169963
0.0174886
0.0179989
0.0185268
0.019072
0.0196337
0.0202112
0.0208036
0.0214096
0.022028
0.0226571
0.0232952
0.0239402
0.02459
0.0252422
0.0258945
0.0265444
0.0271897
0.0278284
0.0284592
0.0290817
0.029697
0.030308
0.00723017
0.0072532
0.00727852
0.00730618
0.00733627
0.00736886
0.00740404
0.00744194
0.00748266
0.00752632
0.00757302
0.00762286
0.00767595
0.00773242
0.00779241
0.00785603
0.00792342
0.00799468
0.00806994
0.00814932
0.00823292
0.00832086
0.00841324
0.00851015
0.00861167
0.00871789
0.00882889
0.00894468
0.00906528
0.00919068
0.00932085
0.00945573
0.00959518
0.00973905
0.00988719
0.0100394
0.0101954
0.0103548
0.0105172
0.0106822
0.0108494
0.011018
0.0111878
0.0113581
0.0115283
0.0116978
0.0118663
0.0120335
0.0121992
0.0123636
0.00680156
0.00680912
0.00681738
0.00682638
0.00683615
0.00684672
0.00685815
0.0068705
0.00688382
0.00689816
0.00691357
0.0069301
0.00694781
0.00696677
0.00698704
0.00700869
0.0070318
0.00705643
0.00708264
0.0071105
0.00714009
0.00717148
0.00720473
0.0072399
0.0072771
0.0073164
0.0073579
0.00740163
0.00744767
0.0074961
0.00754697
0.00760032
0.00765619
0.00771462
0.00777564
0.00783926
0.00790554
0.00797452
0.00804614
0.00812033
0.00819706
0.00827624
0.00835787
0.0084419
0.00852824
0.0086168
0.00870748
0.00880041
0.00889513
0.00899188
0.00677169
0.00677874
0.00678615
0.00679395
0.00680215
0.00681079
0.00681991
0.00682956
0.00683979
0.00685063
0.00686212
0.00687431
0.00688726
0.00690101
0.00691561
0.00693111
0.00694758
0.00696508
0.00698366
0.00700339
0.00702435
0.00704659
0.00707019
0.00709524
0.00712182
0.00715002
0.00717993
0.00721163
0.0072452
0.00728075
0.00731836
0.0073581
0.00740007
0.00744441
0.00749122
0.00754062
0.00759272
0.00764763
0.00770543
0.00776626
0.00783028
0.00789765
0.00796851
0.00804297
0.0081211
0.008203
0.00828879
0.00837858
0.00847239
0.00857017
0.00683795
0.0068496
0.00686159
0.00687395
0.0068867
0.00689986
0.00691346
0.00692755
0.00694216
0.00695733
0.00697311
0.00698954
0.00700667
0.00702456
0.00704326
0.00706286
0.00708339
0.00710493
0.00712755
0.00715133
0.00717634
0.00720265
0.00723036
0.00725955
0.00729033
0.00732281
0.00735706
0.0073932
0.00743133
0.00747156
0.007514
0.00755876
0.007606
0.00765587
0.00770853
0.00776413
0.00782282
0.00788475
0.00795012
0.00801916
0.00809203
0.00816891
0.00824999
0.00833543
0.00842572
0.00852092
0.00862138
0.00872698
0.008838
0.0089546
0.00697519
0.00699298
0.00701115
0.00702972
0.00704871
0.00706816
0.00708811
0.0071086
0.0071297
0.00715145
0.0071739
0.00719712
0.00722115
0.00724606
0.00727192
0.00729878
0.00732672
0.0073558
0.00738611
0.00741773
0.00745075
0.00748525
0.00752133
0.00755909
0.00759864
0.00764009
0.00768354
0.0077291
0.00777689
0.00782703
0.00787965
0.00793492
0.00799299
0.00805404
0.00811824
0.00818578
0.00825682
0.00833155
0.00841018
0.00849297
0.00858018
0.00867204
0.00876873
0.00887051
0.00897742
0.00909004
0.00920875
0.00933375
0.00946515
0.00960324
0.00713224
0.00715737
0.00718292
0.00720894
0.00723547
0.00726255
0.00729021
0.00731852
0.00734752
0.00737727
0.00740783
0.00743927
0.00747164
0.00750502
0.00753946
0.00757505
0.00761184
0.00764992
0.00768939
0.00773033
0.00777283
0.00781698
0.00786289
0.00791067
0.00796044
0.0080123
0.00806635
0.00812272
0.00818153
0.00824291
0.00830703
0.00837405
0.00844414
0.00851748
0.00859425
0.00867463
0.0087588
0.00884697
0.00893939
0.00903633
0.00913805
0.00924476
0.00935673
0.0094742
0.00959734
0.00972654
0.00986171
0.0100038
0.0101529
0.0103093
0.00730742
0.0073399
0.00737293
0.00740652
0.0074407
0.0074755
0.00751098
0.00754717
0.00758413
0.00762194
0.00766064
0.0077003
0.00774099
0.00778278
0.00782575
0.00786996
0.00791548
0.0079624
0.00801082
0.00806082
0.0081125
0.00816596
0.00822131
0.00827867
0.00833814
0.00839981
0.00846381
0.00853025
0.00859927
0.008671
0.00874561
0.00882325
0.00890409
0.00898832
0.00907611
0.00916761
0.00926305
0.00936267
0.00946671
0.0095754
0.00968894
0.00980748
0.00993144
0.0100609
0.0101963
0.0103375
0.010485
0.0106385
0.0107993
0.0109672
0.00746176
0.00750178
0.00754236
0.00758355
0.00762537
0.00766787
0.00771108
0.00775505
0.00779983
0.00784549
0.00789209
0.00793969
0.00798838
0.00803822
0.00808929
0.00814163
0.00819533
0.00825048
0.00830716
0.00836549
0.00842555
0.00848743
0.00855125
0.00861712
0.00868513
0.00875537
0.00882796
0.00890302
0.00898067
0.00906106
0.00914433
0.00923063
0.00932014
0.00941302
0.00950943
0.00960953
0.00971351
0.00982158
0.00993392
0.0100508
0.0101725
0.010299
0.0104304
0.0105673
0.0107098
0.0108578
0.0110115
0.011171
0.0113361
0.011508
0.00758495
0.00763157
0.00767883
0.00772674
0.00777531
0.00782457
0.00787454
0.00792528
0.00797684
0.00802929
0.00808266
0.00813704
0.00819251
0.00824914
0.00830698
0.00836608
0.00842652
0.0084884
0.00855183
0.00861687
0.00868361
0.00875215
0.0088226
0.00889505
0.00896956
0.00904625
0.00912523
0.00920661
0.00929051
0.00937705
0.00946636
0.00955858
0.00965388
0.00975239
0.00985421
0.00995947
0.0100684
0.0101812
0.0102981
0.0104191
0.0105442
0.0106739
0.0108079
0.0109468
0.0110905
0.0112393
0.0113928
0.0115512
0.0117144
0.0118821
0.0076471
0.00769919
0.0077519
0.00780525
0.00785924
0.00791388
0.00796923
0.00802531
0.00808218
0.00813988
0.00819848
0.00825804
0.00831866
0.00838038
0.00844325
0.00850732
0.00857268
0.00863942
0.00870763
0.00877738
0.00884875
0.00892184
0.00899673
0.0090735
0.00915223
0.00923303
0.00931599
0.00940122
0.00948881
0.00957885
0.00967146
0.00976678
0.00986495
0.00996606
0.0100702
0.0101774
0.010288
0.010402
0.0105194
0.0106404
0.0107651
0.0108934
0.0110257
0.0111618
0.0113015
0.0114451
0.0115924
0.0117432
0.0118974
0.0120546
0.0076356
0.00769129
0.0077476
0.00780447
0.00786193
0.00791998
0.00797868
0.00803805
0.00809814
0.00815896
0.00822059
0.00828312
0.00834662
0.00841114
0.00847669
0.00854335
0.0086112
0.00868034
0.00875084
0.00882275
0.00889617
0.00897118
0.00904787
0.00912631
0.00920659
0.00928881
0.00937306
0.00945941
0.00954792
0.00963869
0.00973185
0.0098275
0.00992569
0.0100264
0.0101298
0.0102359
0.0103449
0.0104567
0.0105715
0.010689
0.0108096
0.0109327
0.011059
0.0111878
0.0113195
0.0114532
0.0115892
0.0117271
0.0118666
0.0120073
0.00752582
0.00758273
0.00764016
0.00769807
0.00775646
0.00781536
0.00787481
0.00793484
0.00799546
0.00805672
0.00811868
0.00818146
0.0082451
0.00830963
0.00837509
0.00844155
0.0085091
0.00857783
0.00864782
0.00871913
0.00879187
0.00886613
0.00894197
0.00901949
0.00909878
0.00917994
0.009263
0.00934801
0.00943509
0.00952432
0.00961574
0.00970939
0.00980528
0.00990344
0.010004
0.0101069
0.0102121
0.0103196
0.0104293
0.010541
0.010655
0.0107707
0.0108883
0.0110072
0.0111273
0.0112484
0.0113699
0.0114918
0.0116132
0.0117339
0.00729577
0.00735091
0.00740644
0.00746229
0.00751848
0.00757508
0.00763211
0.00768957
0.0077475
0.00780595
0.00786501
0.00792477
0.00798527
0.00804654
0.00810861
0.0081716
0.00823562
0.00830077
0.00836713
0.0084348
0.00850393
0.00857459
0.00864687
0.00872091
0.00879678
0.00887452
0.00895417
0.00903585
0.00911968
0.00920563
0.00929369
0.00938391
0.00947627
0.00957074
0.00966735
0.009766
0.00986647
0.00996869
0.0100726
0.0101779
0.0102842
0.0103918
0.0104998
0.0106082
0.0107162
0.0108236
0.01093
0.011035
0.0111377
0.0112378
0.00690893
0.00695838
0.00700803
0.00705782
0.00710781
0.00715806
0.0072086
0.00725942
0.00731055
0.00736209
0.00741413
0.00746676
0.00752002
0.00757393
0.0076286
0.00768419
0.00774084
0.00779868
0.00785783
0.00791847
0.00798075
0.00804476
0.00811066
0.00817858
0.00824856
0.00832068
0.00839514
0.00847206
0.00855138
0.00863298
0.00871689
0.00880321
0.00889175
0.00898244
0.00907542
0.00917047
0.00926724
0.00936551
0.00946494
0.00956557
0.0096662
0.0097674
0.00986789
0.00996773
0.0100661
0.0101625
0.0102566
0.0103475
0.0104346
0.0105174
0.00634141
0.00638163
0.00642176
0.00646185
0.00650198
0.00654222
0.00658255
0.00662297
0.00666352
0.0067043
0.00674541
0.00678692
0.00682883
0.00687123
0.00691428
0.00695817
0.00700306
0.00704913
0.00709658
0.00714562
0.00719643
0.0072492
0.00730411
0.00736126
0.00742081
0.007483
0.00754806
0.00761597
0.0076866
0.00775996
0.00783619
0.00791519
0.00799681
0.00808134
0.00816864
0.00825851
0.00835066
0.00844487
0.0085401
0.00863702
0.00873443
0.00883143
0.00892843
0.00902384
0.00911794
0.00920936
0.00929786
0.00938232
0.00946228
0.00953691
0.00580521
0.00583325
0.00586129
0.00588928
0.00591728
0.00594526
0.00597312
0.00600077
0.00602821
0.00605547
0.00608257
0.00610941
0.00613589
0.00616203
0.00618795
0.00621374
0.00623946
0.00626526
0.00629132
0.00631779
0.00634482
0.0063726
0.00640121
0.0064308
0.00646171
0.00649436
0.00652898
0.0065655
0.00660385
0.00664461
0.00668827
0.00673416
0.0067818
0.00683221
0.00688708
0.00694615
0.00700974
0.00707775
0.00714888
0.00722374
0.00730303
0.0073832
0.00746532
0.00754881
0.00763273
0.00771716
0.00780196
0.00788595
0.00796983
0.00805353
0.0101205
0.00980944
0.00950892
0.00921761
0.00893644
0.00866522
0.00840355
0.0081512
0.00790813
0.00767427
0.00744927
0.00723257
0.00702386
0.00682312
0.0066302
0.00644481
0.00626675
0.0060959
0.00593188
0.00577425
0.00562256
0.00547625
0.00533507
0.00519998
0.00507383
0.00496215
0.00487338
0.00482237
0.00483674
0.00490313
0.00496518
0.00501462
0.00505578
0.00507055
0.00511195
0.00516016
0.00522995
0.00531137
0.00539855
0.00548111
0.00555578
0.00563039
0.00569496
0.00575485
0.00580539
0.00584309
0.00586549
0.00587288
0.00586841
0.00585245
73.1774
70.2181
67.4614
64.8862
62.4708
60.1961
58.044
56.0047
54.0701
52.2332
50.4877
48.8279
47.2485
45.7447
44.3119
42.9461
41.6434
40.4001
39.2128
38.0786
36.9944
35.9575
34.9653
34.0154
33.1057
32.2339
31.3982
30.5967
29.8277
29.0895
28.3806
27.6997
27.0454
26.4164
25.8116
25.2299
24.6703
24.1319
23.6126
23.1106
22.6247
22.1538
21.697
21.2529
20.8204
20.3978
19.983
19.5727
19.1614
18.7386
71.8241
67.0004
62.5981
58.5673
54.8759
51.4922
48.3897
45.5402
42.9181
40.501
38.2688
36.2041
34.291
32.5158
30.866
29.3305
27.8995
26.5641
25.3162
24.1486
23.0549
22.0293
21.0662
20.1611
19.3093
18.5071
17.7506
17.0366
16.3621
15.7242
15.1203
14.5482
14.0055
13.4903
13.0005
12.5345
12.0906
11.6672
11.2637
10.8796
10.5137
10.165
9.83237
9.51486
9.21155
8.92154
8.64396
8.37791
8.12245
7.87645
71.8183
66.982
62.5556
58.5062
54.7967
51.3941
48.268
45.3909
42.7384
40.289
38.0234
35.9247
33.9776
32.1688
30.4862
28.9188
27.4571
26.0923
24.8164
23.6224
22.5038
21.4548
20.4701
19.5448
18.6744
17.8551
17.0831
16.3551
15.668
15.0189
14.4053
13.8248
13.2752
12.7546
12.2611
11.793
11.3486
10.9266
10.5256
10.1444
9.78168
9.43652
9.1079
8.79489
8.49665
8.2124
7.94142
7.68304
7.4366
7.20147
71.8184
67.0163
62.6275
58.6113
54.9289
51.5463
48.4338
45.5649
42.9163
40.4673
38.1997
36.0971
34.1448
32.3297
30.6402
29.0655
27.5963
26.2238
24.9404
23.7389
22.6129
21.5568
20.5651
19.6331
18.7564
17.9309
17.1531
16.4195
15.7271
15.073
14.4547
13.8698
13.3161
12.7915
12.2942
11.8225
11.3748
10.9496
10.5455
10.1613
9.79592
9.44815
9.11705
8.80168
8.50118
8.21476
7.94169
7.68127
7.43286
7.19578
71.8184
67.0171
62.6267
58.6058
54.9176
51.5293
48.4116
45.5387
42.8873
40.4367
38.1685
36.0661
34.1148
32.3011
30.6134
29.0408
27.5738
26.2036
24.9225
23.7233
22.5996
21.5456
20.556
19.6259
18.751
17.9272
17.1509
16.4187
15.7276
15.0748
14.4576
13.8736
13.3207
12.7969
12.3003
11.8292
11.382
10.9572
10.5535
10.1696
9.80439
9.45674
9.12567
8.81025
8.50962
8.22298
7.94956
7.68866
7.43964
7.20182
71.8184
67.0197
62.6343
58.6197
54.9384
51.5569
48.4456
45.5783
42.9317
40.4849
38.2196
36.1192
34.1692
32.3563
30.6686
29.0958
27.6281
26.2569
24.9746
23.7741
22.6489
21.5933
20.602
19.6703
18.7937
17.9682
17.1903
16.4564
15.7637
15.1092
14.4904
13.9049
13.3506
12.8253
12.3273
11.8548
11.4062
10.9801
10.575
10.1898
9.82331
9.47437
9.14201
8.8253
8.52336
8.23537
7.96058
7.69825
7.44773
7.20833
71.8184
67.0203
62.6359
58.6219
54.9405
51.5583
48.4458
45.577
42.9286
40.4801
38.2132
36.1114
34.1601
32.3461
30.6577
29.0843
27.6162
26.2449
24.9625
23.762
22.637
21.5817
20.5908
19.6594
18.7832
17.9582
17.1807
16.4474
15.7551
15.1011
14.4828
13.8977
13.3438
12.8189
12.3213
11.8491
11.4009
10.975
10.5702
10.1852
9.81887
9.47005
9.13774
8.82103
8.51902
8.2309
7.9559
7.69329
7.44238
7.20253
71.8184
67.0206
62.637
58.6241
54.944
51.5631
48.452
45.5847
42.9377
40.4906
38.225
36.1244
34.1742
32.3611
30.6734
29.1006
27.6329
26.2619
24.9797
23.7792
22.6542
21.5987
20.6075
19.6759
18.7993
17.9739
17.1959
16.4621
15.7693
15.1147
14.4958
13.9102
13.3556
12.8302
12.3319
11.859
11.4101
10.9836
10.5781
10.1924
9.82527
9.47567
9.14257
8.82502
8.52214
8.2331
7.95714
7.69352
7.44155
7.20058
71.8184
67.0208
62.6375
58.6249
54.9451
51.5644
48.4534
45.5858
42.9386
40.4912
38.225
36.1239
34.1731
32.3595
30.6713
29.098
27.6299
26.2584
24.9759
23.7752
22.6499
21.5942
20.6029
19.6711
18.7945
17.969
17.191
16.4572
15.7644
15.1099
14.491
13.9054
13.3509
12.8255
12.3272
11.8544
11.4054
10.9789
10.5733
10.1875
9.82032
9.47058
9.1373
8.81953
8.51638
8.22702
7.95068
7.68664
7.43419
7.19268
71.8184
67.0208
62.6377
58.6253
54.9457
51.5652
48.4544
45.5871
42.9402
40.4929
38.2271
36.1262
34.1757
32.3623
30.6744
29.1012
27.6333
26.262
24.9796
23.7789
22.6537
21.598
20.6067
19.6749
18.7982
17.9726
17.1945
16.4606
15.7676
15.113
14.4939
13.9081
13.3533
12.8276
12.3291
11.856
11.4067
10.9798
10.5739
10.1877
9.8201
9.46991
9.13613
8.81783
8.51411
8.22414
7.94714
7.68238
7.42918
7.18687
71.8184
67.0208
62.6377
58.6253
54.9457
51.5652
48.4544
45.5871
42.9401
40.4929
38.227
36.1261
34.1756
32.3622
30.6742
29.101
27.6331
26.2618
24.9793
23.7786
22.6534
21.5977
20.6063
19.6744
18.7977
17.972
17.1939
16.4598
15.7668
15.112
14.4928
13.9069
13.352
12.8262
12.3274
11.8542
11.4047
10.9776
10.5714
10.1849
9.81699
9.46646
9.1323
8.81358
8.5094
8.21892
7.94138
7.67603
7.4222
7.17921
71.8184
67.0208
62.6375
58.6249
54.945
51.5643
48.4533
45.5857
42.9385
40.491
38.2249
36.1237
34.1729
32.3592
30.671
29.0976
27.6294
26.2579
24.9753
23.7744
22.649
21.5932
20.6018
19.6699
18.7931
17.9674
17.1893
16.4552
15.7622
15.1074
14.4882
13.9023
13.3474
12.8215
12.3228
11.8494
11.3999
10.9727
10.5665
10.1799
9.81175
9.46102
9.12664
8.80765
8.50316
8.21233
7.93439
7.66859
7.41426
7.17073
71.8184
67.0206
62.637
58.6241
54.9439
51.563
48.4519
45.5845
42.9375
40.4904
38.2247
36.124
34.1737
32.3606
30.6728
29.0998
27.6321
26.2609
24.9785
23.7779
22.6527
21.597
20.6056
19.6737
18.7968
17.9711
17.1928
16.4585
15.7653
15.1103
14.4909
13.9047
13.3495
12.8233
12.3242
11.8505
11.4006
10.973
10.5663
10.1792
9.81063
9.45938
9.12445
8.80487
8.49975
8.20825
7.9296
7.66305
7.40793
7.16356
71.8184
67.0203
62.6359
58.6219
54.9404
51.5582
48.4457
45.5767
42.9283
40.4798
38.2127
36.1109
34.1595
32.3455
30.6569
29.0834
27.6152
26.2437
24.9611
23.7604
22.6352
21.5796
20.5883
19.6567
18.7801
17.9547
17.1767
16.4429
15.7501
15.0955
14.4764
13.8906
13.3358
12.81
12.3113
11.8379
11.3883
10.961
10.5546
10.1677
9.79933
9.44823
9.1134
8.79388
8.48877
8.19722
7.91845
7.65173
7.39637
7.1517
71.8184
67.0197
62.6343
58.6197
54.9383
51.5568
48.4454
45.5781
42.9313
40.4845
38.219
36.1186
34.1684
32.3553
30.6676
29.0945
27.6266
26.2553
24.9727
23.7718
22.6463
21.5904
20.5987
19.6665
18.7894
17.9634
17.1848
16.4504
15.7569
15.1016
14.4819
13.8955
13.34
12.8135
12.3141
11.8401
11.3898
10.9618
10.5547
10.1672
9.79814
9.44634
9.11079
8.79052
8.48464
8.19229
7.91268
7.64507
7.38878
7.14312
71.8184
67.0171
62.6266
58.6057
54.9175
51.5291
48.4114
45.5384
42.8869
40.4362
38.1679
36.0654
34.1139
32.3001
30.6122
29.0395
27.5722
26.2018
24.9204
23.7209
22.5968
21.5424
20.5524
19.6218
18.7463
17.922
17.145
16.4121
15.7202
15.0664
14.4481
13.863
13.3089
12.7836
12.2854
11.8125
11.3633
10.9363
10.5301
10.1435
9.77514
9.42405
9.08915
8.76946
8.46407
8.17215
7.89288
7.62554
7.36944
7.12391
71.8184
67.0163
62.6275
58.6112
54.9288
51.5462
48.4335
45.5645
42.9158
40.4667
38.199
36.0962
34.1438
32.3285
30.6388
29.0639
27.5944
26.2216
24.9378
23.7359
22.6096
21.5529
20.5607
19.6282
18.7508
17.9246
17.146
16.4116
15.7182
15.0631
14.4436
13.8574
13.3023
12.7761
12.2771
11.8034
11.3535
10.9259
10.5192
10.1321
9.76334
9.4119
9.07672
8.75682
8.4513
8.15933
7.88014
7.61302
7.35735
7.11254
71.8183
66.982
62.5556
58.5061
54.7966
51.3939
48.2677
45.3905
42.7379
40.2884
38.0227
35.9238
33.9766
32.1676
30.4848
28.9173
27.4553
26.0902
24.8141
23.6198
22.5009
21.4516
20.4664
19.5407
18.6699
17.8502
17.0777
16.3492
15.6615
15.0119
14.3977
13.8166
13.2664
12.7451
12.2507
11.7817
11.3363
10.9132
10.511
10.1284
9.76432
9.41765
9.08745
8.77282
8.47298
8.18722
7.91498
7.65582
7.40958
7.17645
71.8241
67.0003
62.598
58.5672
54.8758
51.492
48.3895
45.54
42.918
40.5009
38.2688
36.2041
34.2912
32.5161
30.8665
29.3313
27.9006
26.5655
25.318
24.1509
23.0578
22.0328
21.0707
20.1665
19.3159
18.5151
17.7603
17.0483
16.3761
15.7409
15.1403
14.572
14.0338
13.5239
13.0406
12.5821
12.1471
11.7342
11.3423
10.9702
10.6171
10.2819
9.96409
9.663
9.37823
9.10961
8.8573
8.62212
8.4061
8.21391
73.1774
70.2181
67.4613
64.8862
62.4708
60.196
58.0439
56.0045
54.0697
52.2326
50.4869
48.8268
47.247
45.7428
44.3096
42.9433
41.64
40.396
39.2081
38.073
36.9877
35.9497
34.9562
34.0049
33.0934
32.2197
31.3818
30.5778
29.8059
29.0645
28.352
27.6669
27.0078
26.3734
25.7624
25.1736
24.606
24.0583
23.5297
23.019
22.5252
22.0476
21.5851
21.1369
20.7019
20.2795
19.8685
19.4679
19.0767
18.6932
5.62401
0.715385
0.348709
0.316967
0.299948
0.296196
0.28522
0.279435
0.269686
0.26196
0.253307
0.244259
0.23661
0.226611
0.220161
0.210312
0.209348
0.220982
0.448057
3.62315
5.63857
0.723012
0.35509
0.323435
0.306204
0.302334
0.291101
0.285126
0.275183
0.267269
0.258465
0.249248
0.24147
0.231312
0.224736
0.214663
0.213445
0.224555
0.450979
3.62198
5.65257
0.730769
0.361521
0.329936
0.312488
0.308493
0.297003
0.290834
0.2807
0.272594
0.263641
0.254253
0.246346
0.236031
0.229328
0.219035
0.217572
0.228178
0.453952
3.61936
5.66648
0.738696
0.36801
0.336474
0.318805
0.314679
0.302932
0.296563
0.286238
0.277939
0.268837
0.259279
0.251243
0.24077
0.233942
0.223431
0.221729
0.231851
0.457028
3.61602
5.68068
0.746811
0.374558
0.343049
0.325154
0.32089
0.308886
0.302313
0.2918
0.283306
0.274053
0.264325
0.256159
0.245528
0.238577
0.227849
0.225918
0.235578
0.460243
3.6125
5.69539
0.755125
0.381164
0.34966
0.331534
0.327126
0.314865
0.308084
0.297385
0.288694
0.279292
0.269391
0.261096
0.250307
0.243233
0.23229
0.230139
0.239358
0.463614
3.60912
5.71082
0.763647
0.38783
0.356308
0.337947
0.333386
0.32087
0.313877
0.302994
0.294105
0.284551
0.27448
0.266054
0.255107
0.247911
0.236753
0.23439
0.243191
0.467154
3.6061
5.72708
0.772382
0.394555
0.362992
0.344392
0.339671
0.326901
0.319693
0.308627
0.299538
0.289833
0.279589
0.271034
0.259926
0.252611
0.241239
0.238673
0.247078
0.47087
3.6036
5.74429
0.781336
0.40134
0.369711
0.350869
0.345981
0.33296
0.325533
0.314284
0.304995
0.295139
0.284721
0.276035
0.264767
0.257333
0.245748
0.242988
0.251018
0.474769
3.60174
5.76253
0.79051
0.408186
0.376467
0.35738
0.352316
0.339047
0.331397
0.319968
0.310476
0.300468
0.289877
0.28106
0.269629
0.262079
0.25028
0.247335
0.255013
0.478855
3.60064
5.78187
0.799908
0.415093
0.38326
0.363924
0.358675
0.345164
0.337287
0.325679
0.315982
0.305823
0.295056
0.286108
0.274514
0.266849
0.254835
0.251715
0.259061
0.483132
3.60038
5.80235
0.809534
0.422063
0.39009
0.370503
0.36506
0.351312
0.343205
0.331417
0.321516
0.311203
0.300261
0.291182
0.279423
0.271643
0.259415
0.256129
0.263164
0.487602
3.60102
5.82401
0.819389
0.429095
0.396956
0.377118
0.371473
0.357492
0.349152
0.337185
0.327078
0.316611
0.305492
0.296281
0.284356
0.276464
0.26402
0.260577
0.267322
0.492267
3.60264
5.84686
0.829476
0.436192
0.403861
0.38377
0.377915
0.363707
0.35513
0.342985
0.332669
0.322049
0.310752
0.301409
0.289315
0.281312
0.268651
0.26506
0.271535
0.497128
3.60528
5.8709
0.839796
0.443353
0.410805
0.390459
0.384388
0.369958
0.361141
0.348817
0.338293
0.327517
0.31604
0.306566
0.294301
0.286189
0.273311
0.26958
0.275805
0.502187
3.60898
5.89612
0.850354
0.450582
0.417789
0.397188
0.390895
0.376246
0.367187
0.354684
0.343951
0.333019
0.32136
0.311754
0.299317
0.291096
0.278
0.274138
0.280133
0.507444
3.61379
5.92249
0.861152
0.457879
0.424815
0.403959
0.397437
0.382573
0.37327
0.360588
0.349644
0.338555
0.326714
0.316975
0.304364
0.296036
0.28272
0.278736
0.28452
0.512902
3.61973
5.94999
0.872196
0.465248
0.431883
0.410773
0.404017
0.388942
0.379391
0.366531
0.355375
0.344128
0.332103
0.322232
0.309444
0.30101
0.287474
0.283375
0.288967
0.518559
3.62681
5.97855
0.883491
0.472688
0.438996
0.417634
0.410638
0.395354
0.385555
0.372514
0.361145
0.34974
0.33753
0.327527
0.314559
0.306021
0.292263
0.288056
0.293475
0.524416
3.63505
6.00813
0.895042
0.480204
0.446155
0.424543
0.417302
0.401811
0.391761
0.37854
0.366958
0.355394
0.342997
0.332862
0.319713
0.311072
0.297089
0.292783
0.298048
0.530473
3.64444
6.03865
0.906856
0.487798
0.453362
0.431503
0.424011
0.408316
0.398015
0.384613
0.372816
0.361093
0.348507
0.338239
0.324908
0.316163
0.301956
0.297556
0.302685
0.53673
3.65498
6.07002
0.918942
0.495472
0.460621
0.438516
0.430769
0.414871
0.404317
0.390734
0.378722
0.366839
0.354062
0.343663
0.330145
0.321299
0.306865
0.302379
0.30739
0.543188
3.66667
6.10215
0.931307
0.50323
0.467932
0.445587
0.43758
0.421479
0.410673
0.396907
0.384679
0.372636
0.359667
0.349135
0.33543
0.326482
0.311819
0.307253
0.312165
0.549845
3.67948
6.13493
0.943964
0.511075
0.4753
0.452718
0.444445
0.428145
0.417084
0.403135
0.390691
0.378486
0.365324
0.354659
0.340763
0.331715
0.316822
0.312181
0.317011
0.556703
3.6934
6.16825
0.956925
0.51901
0.482727
0.459913
0.451369
0.43487
0.423554
0.409422
0.39676
0.384393
0.371036
0.360237
0.34615
0.337001
0.321877
0.317167
0.321933
0.563763
3.70839
6.20196
0.970204
0.527038
0.490216
0.467174
0.458356
0.441657
0.430086
0.41577
0.402889
0.390361
0.376806
0.365874
0.351592
0.342343
0.326986
0.322211
0.326932
0.571024
3.72443
6.23594
0.983818
0.535164
0.497774
0.474506
0.465407
0.448511
0.436684
0.422184
0.409082
0.396391
0.382639
0.371573
0.357094
0.347744
0.332153
0.327319
0.332011
0.578487
3.74147
6.27002
0.997786
0.543391
0.505402
0.48191
0.472528
0.455435
0.443351
0.428665
0.415343
0.402489
0.388537
0.377337
0.362659
0.353208
0.337382
0.332491
0.337173
0.586154
3.75947
6.30405
1.01213
0.551724
0.513107
0.489389
0.479722
0.462431
0.450091
0.435219
0.421676
0.408658
0.394504
0.383169
0.368291
0.358739
0.342675
0.337733
0.342422
0.594026
3.77838
6.33786
1.02687
0.560169
0.520891
0.496948
0.486993
0.469504
0.456907
0.44185
0.428083
0.414902
0.400545
0.389075
0.373993
0.364339
0.348038
0.343045
0.34776
0.602105
3.79815
6.37127
1.04204
0.568732
0.528757
0.504589
0.494344
0.476657
0.463804
0.44856
0.434571
0.421225
0.406663
0.395057
0.379771
0.370013
0.353473
0.348433
0.35319
0.610393
3.81872
6.40432
1.05755
0.57742
0.536708
0.512317
0.50178
0.483896
0.470785
0.455355
0.441141
0.427631
0.412862
0.401119
0.385626
0.375764
0.358984
0.353899
0.358717
0.618895
3.84003
6.43717
1.07327
0.586239
0.544749
0.520134
0.509305
0.491224
0.477855
0.462239
0.4478
0.434124
0.419147
0.407266
0.391565
0.381596
0.364576
0.359447
0.364345
0.627615
3.86201
6.46989
1.0891
0.595194
0.552883
0.528045
0.516923
0.498644
0.485019
0.469215
0.45455
0.440708
0.425522
0.413502
0.39759
0.387513
0.370252
0.365081
0.370076
0.636559
3.88461
6.50258
1.10495
0.604294
0.561113
0.536053
0.524639
0.506163
0.49228
0.476289
0.461397
0.447388
0.431991
0.41983
0.403706
0.39352
0.376017
0.370804
0.375915
0.645731
3.90773
6.53531
1.12078
0.613523
0.569444
0.544163
0.532457
0.513783
0.499643
0.483464
0.468344
0.454167
0.438558
0.426255
0.409918
0.39962
0.381876
0.37662
0.381866
0.655141
3.93132
6.56815
1.13653
0.622877
0.57788
0.55238
0.540381
0.52151
0.507111
0.490745
0.475395
0.461051
0.445227
0.432782
0.41623
0.405817
0.387832
0.382533
0.387934
0.664797
3.95529
6.60114
1.15219
0.632351
0.586426
0.560708
0.548417
0.529348
0.514691
0.498136
0.482556
0.468043
0.452004
0.439414
0.422646
0.412116
0.393889
0.388547
0.394121
0.674709
3.97955
6.63434
1.16773
0.64194
0.595085
0.569151
0.556568
0.537302
0.522386
0.505643
0.489831
0.475148
0.458893
0.446156
0.429171
0.418521
0.400054
0.394667
0.400433
0.684889
4.00401
6.6678
1.18314
0.651641
0.603862
0.577715
0.564841
0.545377
0.530201
0.51327
0.497226
0.482372
0.465898
0.453014
0.43581
0.425037
0.406329
0.400895
0.406873
0.695349
4.02859
6.70155
1.19842
0.661451
0.612763
0.586404
0.573239
0.553578
0.538143
0.521022
0.504744
0.489719
0.473025
0.45999
0.442567
0.431667
0.41272
0.407236
0.413447
0.706105
4.05319
6.73562
1.21355
0.671371
0.621792
0.595224
0.581769
0.56191
0.546214
0.528905
0.512391
0.497193
0.480278
0.467091
0.449447
0.438416
0.41923
0.413695
0.420157
0.717173
4.07772
6.77003
1.22856
0.681401
0.630954
0.604179
0.590435
0.570379
0.554422
0.536923
0.520173
0.504801
0.487663
0.474321
0.456455
0.44529
0.425866
0.420274
0.427008
0.728538
4.10213
6.80481
1.24344
0.69154
0.640253
0.613275
0.599242
0.578989
0.56277
0.545082
0.528093
0.512546
0.495184
0.481684
0.463596
0.452291
0.43263
0.42698
0.434005
0.740081
4.12662
6.83997
1.2582
0.701793
0.649695
0.622518
0.608196
0.587746
0.571265
0.553386
0.536158
0.520434
0.502846
0.489186
0.470874
0.459426
0.439529
0.433816
0.441153
0.75175
4.15125
6.87553
1.27287
0.712162
0.659285
0.631912
0.617302
0.596656
0.57991
0.561841
0.544372
0.52847
0.510654
0.496831
0.478295
0.466698
0.446567
0.440786
0.448456
0.76349
4.1761
6.91149
1.28745
0.722652
0.66903
0.641465
0.626566
0.605724
0.588713
0.570453
0.55274
0.536658
0.518614
0.504624
0.485863
0.474113
0.453749
0.447896
0.45592
0.775268
4.20122
6.94789
1.30198
0.733269
0.678935
0.651181
0.635993
0.614956
0.597677
0.579225
0.561268
0.545004
0.526729
0.51257
0.493583
0.481675
0.461079
0.45515
0.463551
0.787057
4.22669
6.98473
1.31646
0.744019
0.689007
0.661066
0.64559
0.624356
0.606809
0.588165
0.569961
0.553513
0.535006
0.520675
0.501461
0.48939
0.468564
0.462552
0.47135
0.798846
4.25253
7.02202
1.33091
0.754908
0.69925
0.671128
0.655361
0.633932
0.616114
0.597276
0.578824
0.562191
0.54345
0.528943
0.509502
0.497262
0.476207
0.470108
0.47931
0.810644
4.2788
7.05978
1.34536
0.765942
0.70967
0.68137
0.665312
0.643687
0.625598
0.606566
0.587864
0.571042
0.552067
0.53738
0.517711
0.505296
0.484015
0.477823
0.487431
0.822455
4.30551
7.09801
1.35983
0.777129
0.720275
0.6918
0.675449
0.653629
0.635266
0.616039
0.597085
0.580074
0.560861
0.545991
0.526093
0.513498
0.491992
0.485701
0.49571
0.834292
4.3327
7.13673
1.37432
0.788477
0.731069
0.702423
0.685778
0.663764
0.645125
0.625702
0.606494
0.58929
0.569839
0.554782
0.534655
0.521874
0.500143
0.493746
0.504148
0.846167
4.36038
7.17593
1.38887
0.799993
0.742059
0.713246
0.696306
0.674098
0.655181
0.63556
0.616096
0.598698
0.579007
0.563759
0.5434
0.530427
0.508474
0.501964
0.512746
0.858095
4.38859
7.21561
1.40349
0.811686
0.753251
0.724276
0.707039
0.684636
0.66544
0.645621
0.625899
0.608304
0.58837
0.572926
0.552336
0.539165
0.516991
0.510361
0.521508
0.87009
4.41734
7.2558
1.4182
0.823566
0.764654
0.735519
0.717983
0.695387
0.675908
0.65589
0.635907
0.618112
0.597933
0.58229
0.561468
0.548092
0.525698
0.51894
0.530435
0.882169
4.44665
7.29649
1.43303
0.835641
0.776274
0.746983
0.729146
0.706356
0.686592
0.666373
0.646127
0.628129
0.607704
0.591857
0.570801
0.557217
0.534601
0.527709
0.539534
0.894349
4.47654
7.33771
1.44798
0.847921
0.788118
0.758675
0.740533
0.71755
0.697498
0.677076
0.656565
0.63836
0.617687
0.601632
0.580342
0.566545
0.543706
0.536672
0.548809
0.906648
4.50701
7.37945
1.46308
0.860416
0.800193
0.770601
0.752153
0.728975
0.708632
0.688006
0.667226
0.648813
0.627889
0.611622
0.590096
0.576083
0.553018
0.545837
0.558266
0.919082
4.53809
7.42174
1.47835
0.873135
0.812507
0.782768
0.76401
0.740638
0.720001
0.699169
0.678118
0.659493
0.638316
0.621832
0.600071
0.585837
0.562544
0.555209
0.567913
0.931669
4.56978
7.46458
1.4938
0.886085
0.825066
0.795183
0.776112
0.752545
0.731611
0.710571
0.689246
0.670406
0.648975
0.632271
0.610273
0.595814
0.572289
0.564794
0.577755
0.944425
4.60211
7.50799
1.50944
0.899277
0.837878
0.807854
0.788466
0.764704
0.74347
0.722219
0.700618
0.68156
0.659872
0.642944
0.620709
0.606021
0.58226
0.5746
0.5878
0.957367
4.63508
7.55196
1.52529
0.91272
0.850951
0.820788
0.801079