/*--------------------------------*- C++ -*----------------------------------*\
  =========                 |
  \\      /  F ield         | OpenFOAM: The Open Source CFD Toolbox
   \\    /   O peration     | Website:  https://openfoam.org
    \\  /    A nd           | Version:  8
     \\/     M anipulation  |
\*---------------------------------------------------------------------------*/
FoamFile
{
    version     2.0;
    format      ascii;
    class       volScalarField;
    location    "100";
    object      nut;
}
// * * * * * * * * * * * * * * * * * * * * * * * * * * * * * * * * * * * * * //

dimensions      [0 2 -1 0 0 0 0];

internalField   nonuniform List<scalar> 
8400
(
0.000353967
0.000353396
0.000352858
0.000352356
0.000351889
0.000351456
0.000351055
0.000350684
0.000350342
0.000350025
0.000349733
0.000349465
0.000349219
0.000348994
0.000348787
0.000348594
0.000348413
0.000348242
0.000348082
0.00034793
0.000347784
0.000347642
0.000347501
0.000347359
0.000347213
0.000347061
0.000346899
0.000346724
0.000346534
0.000346325
0.000346091
0.000345823
0.000345534
0.000345225
0.000344894
0.000344539
0.000344158
0.000343747
0.000343299
0.000342805
0.000342254
0.000341625
0.000340915
0.000340144
0.000339314
0.000338429
0.000337504
0.000336558
0.000335616
0.000334719
0.000109084
0.000109609
0.000110176
0.00011078
0.000111421
0.000112096
0.000112804
0.000113544
0.000114314
0.000115112
0.000115939
0.000116792
0.00011767
0.000118572
0.000119495
0.000120439
0.0001214
0.00012238
0.000123375
0.000124385
0.000125408
0.000126441
0.000127483
0.000128533
0.000129588
0.000130647
0.000131709
0.000132773
0.000133839
0.000134906
0.000135975
0.000137048
0.000138081
0.000139064
0.000139999
0.000140878
0.000141696
0.000142445
0.000143122
0.000143734
0.000144294
0.000144824
0.000145309
0.000145711
0.000146026
0.000146249
0.000146381
0.000146418
0.000146364
0.000146233
5.75347e-05
5.78912e-05
5.82671e-05
5.86618e-05
5.90753e-05
5.95077e-05
5.99589e-05
6.04289e-05
6.09171e-05
6.14234e-05
6.19476e-05
6.24895e-05
6.30489e-05
6.36252e-05
6.42177e-05
6.48258e-05
6.54489e-05
6.60866e-05
6.67379e-05
6.74021e-05
6.80777e-05
6.87637e-05
6.9459e-05
7.01622e-05
7.08717e-05
7.1586e-05
7.23033e-05
7.30216e-05
7.3739e-05
7.44526e-05
7.51599e-05
7.58633e-05
7.65632e-05
7.72536e-05
7.7919e-05
7.85546e-05
7.91547e-05
7.9714e-05
8.02287e-05
8.06974e-05
8.11208e-05
8.15039e-05
8.18586e-05
8.21426e-05
8.23633e-05
8.2518e-05
8.2603e-05
8.26157e-05
8.25557e-05
8.24248e-05
5.05677e-05
5.06721e-05
5.07834e-05
5.09017e-05
5.1027e-05
5.11598e-05
5.13002e-05
5.14483e-05
5.16042e-05
5.17679e-05
5.19397e-05
5.21198e-05
5.23085e-05
5.25056e-05
5.27112e-05
5.29252e-05
5.31478e-05
5.3379e-05
5.36187e-05
5.38665e-05
5.41221e-05
5.43854e-05
5.46562e-05
5.49342e-05
5.52188e-05
5.55093e-05
5.58052e-05
5.61071e-05
5.64149e-05
5.67281e-05
5.7047e-05
5.73669e-05
5.76856e-05
5.80016e-05
5.83126e-05
5.86162e-05
5.89095e-05
5.91901e-05
5.94562e-05
5.97062e-05
5.99393e-05
6.01563e-05
6.03601e-05
6.05522e-05
6.07133e-05
6.08468e-05
6.09516e-05
6.10259e-05
6.10721e-05
6.10853e-05
4.916e-05
4.91962e-05
4.92349e-05
4.92762e-05
4.93203e-05
4.93676e-05
4.94182e-05
4.94721e-05
4.95293e-05
4.959e-05
4.96544e-05
4.97228e-05
4.97953e-05
4.98721e-05
4.99533e-05
5.0039e-05
5.01296e-05
5.02249e-05
5.0325e-05
5.04298e-05
5.05397e-05
5.06549e-05
5.07758e-05
5.09027e-05
5.10354e-05
5.11744e-05
5.13198e-05
5.14709e-05
5.16273e-05
5.17888e-05
5.19551e-05
5.21262e-05
5.23016e-05
5.24811e-05
5.26641e-05
5.285e-05
5.30374e-05
5.32254e-05
5.34138e-05
5.36019e-05
5.37895e-05
5.39764e-05
5.41629e-05
5.43509e-05
5.45443e-05
5.47359e-05
5.49241e-05
5.5108e-05
5.52879e-05
5.5466e-05
4.90547e-05
4.90817e-05
4.91101e-05
4.91399e-05
4.91716e-05
4.92054e-05
4.92415e-05
4.92799e-05
4.93205e-05
4.93636e-05
4.94092e-05
4.94577e-05
4.95091e-05
4.95636e-05
4.96215e-05
4.96829e-05
4.9748e-05
4.9817e-05
4.98898e-05
4.99665e-05
5.00475e-05
5.01332e-05
5.02238e-05
5.03193e-05
5.04198e-05
5.05257e-05
5.0637e-05
5.0754e-05
5.08767e-05
5.10051e-05
5.11398e-05
5.1281e-05
5.14288e-05
5.15834e-05
5.17449e-05
5.19132e-05
5.20882e-05
5.22706e-05
5.24606e-05
5.26584e-05
5.28642e-05
5.30773e-05
5.32985e-05
5.35286e-05
5.37683e-05
5.40184e-05
5.42787e-05
5.45527e-05
5.48354e-05
5.51276e-05
4.93028e-05
4.93398e-05
4.93781e-05
4.94177e-05
4.9459e-05
4.95023e-05
4.95477e-05
4.9595e-05
4.96442e-05
4.96956e-05
4.97495e-05
4.9806e-05
4.98655e-05
4.9928e-05
4.99938e-05
5.00631e-05
5.01362e-05
5.02129e-05
5.02934e-05
5.0378e-05
5.0467e-05
5.05608e-05
5.06594e-05
5.07631e-05
5.08721e-05
5.09867e-05
5.11072e-05
5.12336e-05
5.13663e-05
5.15057e-05
5.16523e-05
5.18064e-05
5.19683e-05
5.21384e-05
5.23169e-05
5.25041e-05
5.27007e-05
5.29074e-05
5.31246e-05
5.33527e-05
5.35921e-05
5.38434e-05
5.41076e-05
5.43857e-05
5.46771e-05
5.4982e-05
5.52988e-05
5.56311e-05
5.59824e-05
5.63488e-05
4.97495e-05
4.98005e-05
4.98528e-05
4.99068e-05
4.99626e-05
5.00206e-05
5.00809e-05
5.01434e-05
5.02082e-05
5.02755e-05
5.03453e-05
5.04181e-05
5.04939e-05
5.0573e-05
5.06557e-05
5.07421e-05
5.08323e-05
5.09266e-05
5.10249e-05
5.11276e-05
5.12349e-05
5.13472e-05
5.14646e-05
5.15873e-05
5.17157e-05
5.185e-05
5.19903e-05
5.2137e-05
5.22904e-05
5.24511e-05
5.26194e-05
5.27957e-05
5.29803e-05
5.31738e-05
5.33762e-05
5.35882e-05
5.38105e-05
5.40441e-05
5.42895e-05
5.4547e-05
5.48168e-05
5.51001e-05
5.53979e-05
5.5711e-05
5.60401e-05
5.63835e-05
5.67426e-05
5.71144e-05
5.75009e-05
5.7907e-05
5.02499e-05
5.03179e-05
5.03873e-05
5.04585e-05
5.05317e-05
5.06072e-05
5.06851e-05
5.07653e-05
5.08479e-05
5.09332e-05
5.10214e-05
5.11126e-05
5.12071e-05
5.13049e-05
5.14064e-05
5.15119e-05
5.16213e-05
5.17349e-05
5.18527e-05
5.19751e-05
5.21024e-05
5.22346e-05
5.2372e-05
5.25149e-05
5.26636e-05
5.28182e-05
5.29788e-05
5.31459e-05
5.33199e-05
5.35011e-05
5.369e-05
5.38869e-05
5.40922e-05
5.43062e-05
5.45291e-05
5.47617e-05
5.5005e-05
5.52594e-05
5.55252e-05
5.58029e-05
5.60933e-05
5.63976e-05
5.6716e-05
5.70493e-05
5.73985e-05
5.77626e-05
5.81424e-05
5.85357e-05
5.89391e-05
5.93548e-05
5.07773e-05
5.08612e-05
5.09467e-05
5.1034e-05
5.11235e-05
5.12154e-05
5.13096e-05
5.14062e-05
5.15054e-05
5.16074e-05
5.17124e-05
5.18204e-05
5.19316e-05
5.20463e-05
5.21646e-05
5.22869e-05
5.24132e-05
5.25436e-05
5.26783e-05
5.28176e-05
5.29617e-05
5.31107e-05
5.32649e-05
5.34244e-05
5.35894e-05
5.37601e-05
5.39365e-05
5.41191e-05
5.43085e-05
5.45048e-05
5.47086e-05
5.492e-05
5.51394e-05
5.53667e-05
5.56026e-05
5.5848e-05
5.61033e-05
5.63688e-05
5.66449e-05
5.69316e-05
5.72303e-05
5.75417e-05
5.78666e-05
5.82045e-05
5.85549e-05
5.892e-05
5.92994e-05
5.96927e-05
6.00951e-05
6.05049e-05
5.12434e-05
5.13426e-05
5.14434e-05
5.15459e-05
5.16505e-05
5.17572e-05
5.18662e-05
5.19776e-05
5.20915e-05
5.22083e-05
5.23279e-05
5.24505e-05
5.25761e-05
5.2705e-05
5.28375e-05
5.29738e-05
5.3114e-05
5.32581e-05
5.34063e-05
5.3559e-05
5.37162e-05
5.38781e-05
5.40448e-05
5.42165e-05
5.43931e-05
5.45749e-05
5.4762e-05
5.49551e-05
5.51544e-05
5.53602e-05
5.55726e-05
5.57919e-05
5.60182e-05
5.62518e-05
5.64934e-05
5.67436e-05
5.70023e-05
5.72698e-05
5.75461e-05
5.78317e-05
5.81276e-05
5.84341e-05
5.87516e-05
5.90794e-05
5.94179e-05
5.97667e-05
6.01269e-05
6.04972e-05
6.08772e-05
6.12618e-05
5.16142e-05
5.17258e-05
5.1839e-05
5.1954e-05
5.20708e-05
5.21896e-05
5.23105e-05
5.24336e-05
5.25591e-05
5.26872e-05
5.28181e-05
5.29516e-05
5.3088e-05
5.32275e-05
5.33703e-05
5.35167e-05
5.36666e-05
5.38202e-05
5.39776e-05
5.41391e-05
5.43047e-05
5.44746e-05
5.46488e-05
5.48275e-05
5.50106e-05
5.51982e-05
5.53908e-05
5.55888e-05
5.57924e-05
5.60015e-05
5.62165e-05
5.64376e-05
5.66647e-05
5.6898e-05
5.71381e-05
5.73852e-05
5.76392e-05
5.78997e-05
5.81673e-05
5.84432e-05
5.87264e-05
5.90179e-05
5.93178e-05
5.96241e-05
5.99379e-05
6.02586e-05
6.05858e-05
6.09187e-05
6.12568e-05
6.15991e-05
5.18254e-05
5.1947e-05
5.207e-05
5.21944e-05
5.23205e-05
5.24482e-05
5.25777e-05
5.27091e-05
5.28428e-05
5.29789e-05
5.31174e-05
5.32584e-05
5.3402e-05
5.35484e-05
5.36979e-05
5.38505e-05
5.40063e-05
5.41653e-05
5.43278e-05
5.44938e-05
5.46637e-05
5.48373e-05
5.50149e-05
5.51965e-05
5.53819e-05
5.55712e-05
5.57651e-05
5.59636e-05
5.61666e-05
5.63745e-05
5.65874e-05
5.68051e-05
5.70275e-05
5.72549e-05
5.74879e-05
5.77264e-05
5.79699e-05
5.82178e-05
5.84702e-05
5.87279e-05
5.89921e-05
5.92601e-05
5.95312e-05
5.98082e-05
6.00879e-05
6.03708e-05
6.06545e-05
6.09395e-05
6.12248e-05
6.15099e-05
5.18435e-05
5.19712e-05
5.21001e-05
5.22303e-05
5.23618e-05
5.24946e-05
5.26287e-05
5.27644e-05
5.2902e-05
5.30419e-05
5.31842e-05
5.33285e-05
5.34752e-05
5.36242e-05
5.37761e-05
5.39306e-05
5.40879e-05
5.42481e-05
5.44114e-05
5.4578e-05
5.47481e-05
5.49219e-05
5.50993e-05
5.52801e-05
5.54642e-05
5.56518e-05
5.58432e-05
5.60383e-05
5.62372e-05
5.64402e-05
5.66472e-05
5.68578e-05
5.70723e-05
5.72909e-05
5.75131e-05
5.77384e-05
5.79661e-05
5.81962e-05
5.84302e-05
5.8665e-05
5.89036e-05
5.9144e-05
5.93812e-05
5.96198e-05
5.98581e-05
6.00946e-05
6.03272e-05
6.0556e-05
6.07789e-05
6.09965e-05
5.16093e-05
5.17389e-05
5.18694e-05
5.2001e-05
5.21334e-05
5.22666e-05
5.24007e-05
5.25362e-05
5.26738e-05
5.28136e-05
5.29553e-05
5.30988e-05
5.32441e-05
5.33918e-05
5.35419e-05
5.36946e-05
5.38499e-05
5.40079e-05
5.41689e-05
5.43334e-05
5.45013e-05
5.46725e-05
5.4847e-05
5.50246e-05
5.52051e-05
5.53889e-05
5.5576e-05
5.57663e-05
5.59601e-05
5.61572e-05
5.63573e-05
5.65597e-05
5.67645e-05
5.69717e-05
5.71809e-05
5.73917e-05
5.76031e-05
5.7814e-05
5.80254e-05
5.82368e-05
5.84442e-05
5.86508e-05
5.88545e-05
5.90521e-05
5.92455e-05
5.94299e-05
5.96065e-05
5.97736e-05
5.99288e-05
6.00726e-05
5.10577e-05
5.11841e-05
5.1311e-05
5.14385e-05
5.15666e-05
5.16949e-05
5.18241e-05
5.19547e-05
5.20875e-05
5.22221e-05
5.23583e-05
5.24959e-05
5.26354e-05
5.27773e-05
5.29219e-05
5.3069e-05
5.32189e-05
5.3372e-05
5.35286e-05
5.3689e-05
5.38528e-05
5.40201e-05
5.41908e-05
5.43648e-05
5.4542e-05
5.47226e-05
5.49064e-05
5.50931e-05
5.52827e-05
5.54747e-05
5.56685e-05
5.58638e-05
5.60614e-05
5.62601e-05
5.64579e-05
5.66544e-05
5.68498e-05
5.70446e-05
5.72327e-05
5.74226e-05
5.76037e-05
5.77757e-05
5.79413e-05
5.80988e-05
5.82464e-05
5.83798e-05
5.84987e-05
5.86017e-05
5.86871e-05
5.87531e-05
5.00721e-05
5.01879e-05
5.03039e-05
5.04204e-05
5.05369e-05
5.06537e-05
5.07714e-05
5.08908e-05
5.10121e-05
5.11351e-05
5.12594e-05
5.13853e-05
5.15137e-05
5.16451e-05
5.17797e-05
5.19175e-05
5.2059e-05
5.22049e-05
5.23554e-05
5.25101e-05
5.26691e-05
5.28327e-05
5.3001e-05
5.31736e-05
5.33505e-05
5.35315e-05
5.3716e-05
5.39037e-05
5.40945e-05
5.42879e-05
5.44831e-05
5.468e-05
5.4877e-05
5.50724e-05
5.52659e-05
5.54559e-05
5.56422e-05
5.58278e-05
5.60015e-05
5.61687e-05
5.63293e-05
5.64795e-05
5.6612e-05
5.67343e-05
5.6839e-05
5.69249e-05
5.69914e-05
5.70335e-05
5.70508e-05
5.70394e-05
4.85318e-05
4.8629e-05
4.8726e-05
4.8823e-05
4.89196e-05
4.90162e-05
4.91136e-05
4.92126e-05
4.9313e-05
4.94143e-05
4.95167e-05
4.96211e-05
4.97287e-05
4.98399e-05
4.99545e-05
5.00734e-05
5.01977e-05
5.03281e-05
5.04643e-05
5.06059e-05
5.07539e-05
5.09091e-05
5.1071e-05
5.12393e-05
5.14144e-05
5.15962e-05
5.17835e-05
5.19757e-05
5.21728e-05
5.2374e-05
5.25783e-05
5.27846e-05
5.29909e-05
5.31959e-05
5.34e-05
5.3598e-05
5.37892e-05
5.39768e-05
5.41626e-05
5.43241e-05
5.44755e-05
5.46155e-05
5.4736e-05
5.4836e-05
5.49118e-05
5.49608e-05
5.4982e-05
5.49726e-05
5.49301e-05
5.48496e-05
4.6718e-05
4.67783e-05
4.68378e-05
4.68964e-05
4.69531e-05
4.70083e-05
4.70627e-05
4.71165e-05
4.71688e-05
4.72189e-05
4.72675e-05
4.73159e-05
4.73647e-05
4.74138e-05
4.74637e-05
4.75167e-05
4.75748e-05
4.76378e-05
4.77048e-05
4.77773e-05
4.78579e-05
4.79468e-05
4.80437e-05
4.81507e-05
4.82703e-05
4.84018e-05
4.85442e-05
4.87015e-05
4.88777e-05
4.90686e-05
4.92689e-05
4.94765e-05
4.96823e-05
4.98914e-05
5.01008e-05
5.03171e-05
5.05444e-05
5.07466e-05
5.09884e-05
5.118e-05
5.13674e-05
5.15244e-05
5.16655e-05
5.17778e-05
5.18507e-05
5.18896e-05
5.18863e-05
5.18419e-05
5.17543e-05
5.16205e-05
5.20652e-05
5.15604e-05
5.10677e-05
5.05811e-05
5.01032e-05
4.96363e-05
4.91812e-05
4.87363e-05
4.82992e-05
4.78696e-05
4.74498e-05
4.70409e-05
4.66419e-05
4.62534e-05
4.58809e-05
4.55299e-05
4.51989e-05
4.48831e-05
4.45843e-05
4.43075e-05
4.40468e-05
4.37893e-05
4.35324e-05
4.32785e-05
4.30114e-05
4.27158e-05
4.24467e-05
4.23385e-05
4.26371e-05
4.35606e-05
4.43662e-05
4.48632e-05
4.48385e-05
4.52597e-05
4.53543e-05
4.52704e-05
4.57263e-05
4.60044e-05
4.64705e-05
4.70122e-05
4.75582e-05
4.80911e-05
4.85836e-05
4.90351e-05
4.94653e-05
4.98924e-05
5.03259e-05
5.07417e-05
5.11115e-05
5.14207e-05
0.00108926
0.00107437
0.00106012
0.00104646
0.00103331
0.00102061
0.0010083
0.000996353
0.000984746
0.000973465
0.000962499
0.000951833
0.000941458
0.000931362
0.000921535
0.000911968
0.000902652
0.000893579
0.000884739
0.000876125
0.00086773
0.000859545
0.000851566
0.000843784
0.000836193
0.000828788
0.000821563
0.000814512
0.00080763
0.000800912
0.000794353
0.000787948
0.000781695
0.000775587
0.000769622
0.000763797
0.000758107
0.000752551
0.000747115
0.000741782
0.000736546
0.000731401
0.000726338
0.00072135
0.000716423
0.000711543
0.000706686
0.000701817
0.000696866
0.000691702
0.0010825
0.0010577
0.00103401
0.00101132
0.000989613
0.000968839
0.000948977
0.000929971
0.000911769
0.00089432
0.000877578
0.000861502
0.000846053
0.000831194
0.000816892
0.000803115
0.000789836
0.000777028
0.000764665
0.000752725
0.000741185
0.000730027
0.00071923
0.000708778
0.000698653
0.00068884
0.000679324
0.000670091
0.000661128
0.000652422
0.000643961
0.000635734
0.000627729
0.000619935
0.000612339
0.000604933
0.000597705
0.000590645
0.000583756
0.000577043
0.000570501
0.000564123
0.000557902
0.000551831
0.000545904
0.000540114
0.000534454
0.000528914
0.000523482
0.000518144
0.00108247
0.00105761
0.00103378
0.00101097
0.000989137
0.000968224
0.000948181
0.000928954
0.000910495
0.000892757
0.000875698
0.000859281
0.000843468
0.000828227
0.000813527
0.00079934
0.000785639
0.0007724
0.0007596
0.000747218
0.000735232
0.000723626
0.000712381
0.000701481
0.00069091
0.000680655
0.0006707
0.000661034
0.000651644
0.000642518
0.000633646
0.000625018
0.000616623
0.000608454
0.000600503
0.000592761
0.00058522
0.000577875
0.000570717
0.000563741
0.000556941
0.000550312
0.000543848
0.000537546
0.0005314
0.000525407
0.000519563
0.000513866
0.000508313
0.000502899
0.00108247
0.00105779
0.00103417
0.00101158
0.000989932
0.000969179
0.000949265
0.000930139
0.000911756
0.000894072
0.00087705
0.000860653
0.000844849
0.000829606
0.000814895
0.00080069
0.000786965
0.000773696
0.000760863
0.000748443
0.000736418
0.00072477
0.000713481
0.000702536
0.000691919
0.000681616
0.000671614
0.0006619
0.000652462
0.000643289
0.00063437
0.000625695
0.000617255
0.00060904
0.000601043
0.000593255
0.00058567
0.000578279
0.000571076
0.000564056
0.000557211
0.000550538
0.00054403
0.000537684
0.000531494
0.000525457
0.000519569
0.000513827
0.000508227
0.000502765
0.00108247
0.00105779
0.00103417
0.00101155
0.000989864
0.000969072
0.00094912
0.000929961
0.00091155
0.000893847
0.000876811
0.000860407
0.000844601
0.000829361
0.000814657
0.000800462
0.000786751
0.000773498
0.000760681
0.000748279
0.000736274
0.000724645
0.000713376
0.00070245
0.000691853
0.000681569
0.000671586
0.00066189
0.00065247
0.000643314
0.000634411
0.000625752
0.000617327
0.000609127
0.000601143
0.000593368
0.000585794
0.000578414
0.000571221
0.000564209
0.000557372
0.000550705
0.000544202
0.000537858
0.00053167
0.000525632
0.000519741
0.000513992
0.000508382
0.000502906
0.00108247
0.00105781
0.00103421
0.00101163
0.000989989
0.000969246
0.000949343
0.000930231
0.000911865
0.000894201
0.000877202
0.000860829
0.00084505
0.000829832
0.000815147
0.000800967
0.000787266
0.000774022
0.000761211
0.000748813
0.000736808
0.000725179
0.000713908
0.00070298
0.000692378
0.000682089
0.000672099
0.000662396
0.000652968
0.000643804
0.000634892
0.000626223
0.000617788
0.000609577
0.000601582
0.000593795
0.000586208
0.000578815
0.000571608
0.000564582
0.00055773
0.000551047
0.000544527
0.000538165
0.000531956
0.000525896
0.000519981
0.000514206
0.000508566
0.000503058
0.00108247
0.00105781
0.00103422
0.00101164
0.000990002
0.000969255
0.000949344
0.000930222
0.000911843
0.000894166
0.000877152
0.000860766
0.000844975
0.000829745
0.00081505
0.000800861
0.000787154
0.000773903
0.000761088
0.000748686
0.00073668
0.000725049
0.000713778
0.00070285
0.000692249
0.000681962
0.000671975
0.000662275
0.00065285
0.000643688
0.00063478
0.000626115
0.000617683
0.000609476
0.000601484
0.0005937
0.000586117
0.000578726
0.000571522
0.000564497
0.000557646
0.000550963
0.000544442
0.000538078
0.000531866
0.000525801
0.000519879
0.000514095
0.000508444
0.000502923
0.00108247
0.00105781
0.00103423
0.00101165
0.000990023
0.000969285
0.000949385
0.000930274
0.000911907
0.000894243
0.000877243
0.00086087
0.00084509
0.000829873
0.000815189
0.000801011
0.000787312
0.00077407
0.000761262
0.000748867
0.000736866
0.00072524
0.000713972
0.000703046
0.000692447
0.00068216
0.000672173
0.000662472
0.000653046
0.000643882
0.000634971
0.000626302
0.000617866
0.000609653
0.000601656
0.000593866
0.000586275
0.000578877
0.000571664
0.000564629
0.000557767
0.000551072
0.000544538
0.000538159
0.000531931
0.000525848
0.000519906
0.0005141
0.000508426
0.000502877
0.00108247
0.00105781
0.00103423
0.00101166
0.000990029
0.000969293
0.000949393
0.000930282
0.000911914
0.000894247
0.000877243
0.000860866
0.000845082
0.00082986
0.00081517
0.000800987
0.000787283
0.000774036
0.000761223
0.000748824
0.000736819
0.000725189
0.000713918
0.000702989
0.000692388
0.000682099
0.00067211
0.000662407
0.000652979
0.000643813
0.000634901
0.000626231
0.000617793
0.000609579
0.00060158
0.000593788
0.000586195
0.000578794
0.000571578
0.00056454
0.000557674
0.000550973
0.000544433
0.000538047
0.000531811
0.000525718
0.000519765
0.000513947
0.000508258
0.000502693
0.00108247
0.00105781
0.00103423
0.00101166
0.000990033
0.000969298
0.0009494
0.000930291
0.000911925
0.00089426
0.000877259
0.000860884
0.000845103
0.000829883
0.000815197
0.000801016
0.000787315
0.000774071
0.00076126
0.000748863
0.00073686
0.000725232
0.000713962
0.000703034
0.000692433
0.000682145
0.000672155
0.000662452
0.000653023
0.000643857
0.000634943
0.00062627
0.00061783
0.000609613
0.000601611
0.000593815
0.000586217
0.000578811
0.000571589
0.000564544
0.00055767
0.00055096
0.00054441
0.000538013
0.000531764
0.000525657
0.000519688
0.000513852
0.000508144
0.000502558
0.00108247
0.00105781
0.00103423
0.00101166
0.000990033
0.000969298
0.0009494
0.000930291
0.000911925
0.00089426
0.000877258
0.000860884
0.000845102
0.000829882
0.000815196
0.000801014
0.000787313
0.000774069
0.000761258
0.00074886
0.000736856
0.000725228
0.000713957
0.000703029
0.000692427
0.000682137
0.000672147
0.000662442
0.000653011
0.000643843
0.000634927
0.000626253
0.00061781
0.00060959
0.000601584
0.000593785
0.000586183
0.000578771
0.000571543
0.000564492
0.000557611
0.000550893
0.000544334
0.000537926
0.000531666
0.000525546
0.000519563
0.00051371
0.000507984
0.000502379
0.00108247
0.00105781
0.00103423
0.00101166
0.000990029
0.000969293
0.000949393
0.000930282
0.000911913
0.000894246
0.000877242
0.000860864
0.00084508
0.000829857
0.000815167
0.000800982
0.000787278
0.00077403
0.000761216
0.000748816
0.00073681
0.000725178
0.000713906
0.000702975
0.000692371
0.000682079
0.000672087
0.00066238
0.000652948
0.000643778
0.00063486
0.000626183
0.000617739
0.000609517
0.000601509
0.000593706
0.000586101
0.000578686
0.000571454
0.000564398
0.000557512
0.000550788
0.000544221
0.000537806
0.000531536
0.000525406
0.00051941
0.000513544
0.000507803
0.000502181
0.00108247
0.00105781
0.00103423
0.00101165
0.000990022
0.000969284
0.000949384
0.000930273
0.000911906
0.000894242
0.000877241
0.000860867
0.000845087
0.000829869
0.000815183
0.000801003
0.000787303
0.00077406
0.00076125
0.000748853
0.000736849
0.00072522
0.000713949
0.00070302
0.000692416
0.000682125
0.000672132
0.000662425
0.000652991
0.000643819
0.000634899
0.000626219
0.000617771
0.000609545
0.000601532
0.000593724
0.000586113
0.000578691
0.000571451
0.000564387
0.000557491
0.000550756
0.000544178
0.000537749
0.000531465
0.000525318
0.000519306
0.000513421
0.000507659
0.000502014
0.00108247
0.00105781
0.00103422
0.00101164
0.000990001
0.000969254
0.000949343
0.000930221
0.000911841
0.000894164
0.00087715
0.000860763
0.00084497
0.000829739
0.000815042
0.000800852
0.000787142
0.00077389
0.000761072
0.000748668
0.000736659
0.000725025
0.00071375
0.000702817
0.000692211
0.000681918
0.000671923
0.000662215
0.00065278
0.000643608
0.000634688
0.000626008
0.00061756
0.000609334
0.000601322
0.000593514
0.000585903
0.000578481
0.00057124
0.000564175
0.000557277
0.00055054
0.000543958
0.000537525
0.000531236
0.000525083
0.000519062
0.000513168
0.000507394
0.000501737
0.00108247
0.00105781
0.00103421
0.00101163
0.000989989
0.000969245
0.000949342
0.00093023
0.000911863
0.000894199
0.000877198
0.000860824
0.000845043
0.000829824
0.000815137
0.000800954
0.000787251
0.000774004
0.00076119
0.000748788
0.00073678
0.000725146
0.000713869
0.000702934
0.000692325
0.000682028
0.000672029
0.000662315
0.000652874
0.000643696
0.000634768
0.000626081
0.000617625
0.00060939
0.000601368
0.00059355
0.000585929
0.000578496
0.000571244
0.000564165
0.000557254
0.000550503
0.000543906
0.000537457
0.000531149
0.000524978
0.000518936
0.000513019
0.000507221
0.000501536
0.00108247
0.00105779
0.00103417
0.00101154
0.000989864
0.000969072
0.000949119
0.00092996
0.000911548
0.000893844
0.000876807
0.000860402
0.000844594
0.000829352
0.000814646
0.000800449
0.000786734
0.000773478
0.000760658
0.000748253
0.000736242
0.000724608
0.000713333
0.000702401
0.000691796
0.000681503
0.000671509
0.000661801
0.000652367
0.000643194
0.000634273
0.000625593
0.000617144
0.000608916
0.0006009
0.000593089
0.000585473
0.000578046
0.000570799
0.000563725
0.000556818
0.00055007
0.000543475
0.000537027
0.00053072
0.000524547
0.000518503
0.000512582
0.000506778
0.000501086
0.00108247
0.00105779
0.00103417
0.00101158
0.000989931
0.000969179
0.000949264
0.000930138
0.000911753
0.000894068
0.000877045
0.000860647
0.00084484
0.000829595
0.000814881
0.000800673
0.000786945
0.000773673
0.000760835
0.000748411
0.00073638
0.000724726
0.00071343
0.000702477
0.00069185
0.000681537
0.000671522
0.000661794
0.00065234
0.000643148
0.000634208
0.000625509
0.000617042
0.000608797
0.000600764
0.000592937
0.000585306
0.000577863
0.000570602
0.000563514
0.000556594
0.000549833
0.000543227
0.000536769
0.000530453
0.000524273
0.000518224
0.000512301
0.000506501
0.00050082
0.00108247
0.00105761
0.00103378
0.00101097
0.000989137
0.000968224
0.00094818
0.000928952
0.000910492
0.000892753
0.000875693
0.000859274
0.000843459
0.000828216
0.000813514
0.000799324
0.000785621
0.000772378
0.000759575
0.000747188
0.000735199
0.000723588
0.000712338
0.000701432
0.000690854
0.000680592
0.000670629
0.000660954
0.000651554
0.000642418
0.000633535
0.000624895
0.000616487
0.000608304
0.000600335
0.000592573
0.00058501
0.000577639
0.000570453
0.000563446
0.000556612
0.000549945
0.000543441
0.000537096
0.000530906
0.000524869
0.000518986
0.000513259
0.000507697
0.000502315
0.0010825
0.0010577
0.00103401
0.00101132
0.000989613
0.000968839
0.000948977
0.000929971
0.000911769
0.00089432
0.000877579
0.000861503
0.000846054
0.000831196
0.000816895
0.000803121
0.000789844
0.000777039
0.000764681
0.000752747
0.000741215
0.000730065
0.000719279
0.00070884
0.000698732
0.000688939
0.000679447
0.000670244
0.000661316
0.000652654
0.000644245
0.000636081
0.000628152
0.000620451
0.000612968
0.000605699
0.000598637
0.000591776
0.000585112
0.000578643
0.000572365
0.000566278
0.000560382
0.00055468
0.000549177
0.000543883
0.000538815
0.000534003
0.000529506
0.00052544
0.00108926
0.00107437
0.00106012
0.00104646
0.00103331
0.00102061
0.0010083
0.000996351
0.000984743
0.000973461
0.000962493
0.000951825
0.000941448
0.000931349
0.000921519
0.000911948
0.000902627
0.000893548
0.000884702
0.000876081
0.000867677
0.000859483
0.000851492
0.000843696
0.00083609
0.000828667
0.000821421
0.000814345
0.000807435
0.000800684
0.000794086
0.000787638
0.000781333
0.000775167
0.000769134
0.00076323
0.000757449
0.000751788
0.00074624
0.000740801
0.000735467
0.000730231
0.000725089
0.000720035
0.000715062
0.000710164
0.000705334
0.000700562
0.000695837
0.000691143
0.000462168
0.000235478
0.0001872
0.000182188
0.000178913
0.000178125
0.000175729
0.000174415
0.000172296
0.000170563
0.000168669
0.000166637
0.000164913
0.000162619
0.000161075
0.000158566
0.000157853
0.000159341
0.000198185
0.000393958
0.000462629
0.000236381
0.000188203
0.000183223
0.00017994
0.000179133
0.00017672
0.000175381
0.000173257
0.000171507
0.000169606
0.000167566
0.000165837
0.000163537
0.000161989
0.000159466
0.000158731
0.000160147
0.000198765
0.000393951
0.000463096
0.000237292
0.000189202
0.000184251
0.000180958
0.000180133
0.000177703
0.000176341
0.000174211
0.000172444
0.000170537
0.000168488
0.000166754
0.000164448
0.000162896
0.00016036
0.000159605
0.000160953
0.000199353
0.000393926
0.000463587
0.000238213
0.000190199
0.000185272
0.00018197
0.000181125
0.00017868
0.000177294
0.000175158
0.000173375
0.000171463
0.000169404
0.000167664
0.000165353
0.000163797
0.000161247
0.000160474
0.00016176
0.000199955
0.000393909
0.000464109
0.000239146
0.000191193
0.000186287
0.000182976
0.00018211
0.00017965
0.000178242
0.0001761
0.000174301
0.000172382
0.000170315
0.000168569
0.000166252
0.000164692
0.000162128
0.000161339
0.000162567
0.000200574
0.000393916
0.000464666
0.000240092
0.000192185
0.000187296
0.000183976
0.000183087
0.000180615
0.000179184
0.000177037
0.000175222
0.000173296
0.000171219
0.000169468
0.000167145
0.000165582
0.000163004
0.000162201
0.000163376
0.000201213
0.000393957
0.000465259
0.000241051
0.000193176
0.000188299
0.00018497
0.000184058
0.000181576
0.000180121
0.000177968
0.000176138
0.000174205
0.000172119
0.000170363
0.000168033
0.000166466
0.000163875
0.00016306
0.000164186
0.000201872
0.000394038
0.000465889
0.000242025
0.000194165
0.000189296
0.000185959
0.000185022
0.000182532
0.000181053
0.000178895
0.000177049
0.00017511
0.000173014
0.000171253
0.000168916
0.000167347
0.000164742
0.000163916
0.000164997
0.000202552
0.000394161
0.000466554
0.000243012
0.000195153
0.000190289
0.000186943
0.00018598
0.000183484
0.000181981
0.000179818
0.000177956
0.000176011
0.000173905
0.000172139
0.000169794
0.000168223
0.000165604
0.00016477
0.00016581
0.000203252
0.000394328
0.000467253
0.000244012
0.000196139
0.000191276
0.000187923
0.000186932
0.000184432
0.000182906
0.000180737
0.000178859
0.000176907
0.000174792
0.000173021
0.000170668
0.000169095
0.000166463
0.000165621
0.000166625
0.000203973
0.000394542
0.000467986
0.000245027
0.000197125
0.000192258
0.000188898
0.00018788
0.000185377
0.000183827
0.000181652
0.00017976
0.000177801
0.000175677
0.0001739
0.000171539
0.000169965
0.000167318
0.00016647
0.000167442
0.000204714
0.000394801
0.000468749
0.000246054
0.00019811
0.000193236
0.00018987
0.000188825
0.000186318
0.000184745
0.000182565
0.000180657
0.000178692
0.000176558
0.000174776
0.000172407
0.000170831
0.00016817
0.000167319
0.000168261
0.000205475
0.000395107
0.00046954
0.000247095
0.000199095
0.00019421
0.000190838
0.000189766
0.000187257
0.000185661
0.000183474
0.000181552
0.000179581
0.000177436
0.00017565
0.000173273
0.000171696
0.000169021
0.000168167
0.000169083
0.000206255
0.000395459
0.000470356
0.00024815
0.00020008
0.00019518
0.000191803
0.000190705
0.000188193
0.000186575
0.000184382
0.000182446
0.000180468
0.000178313
0.000176523
0.000174137
0.000172559
0.00016987
0.000169014
0.000169909
0.000207054
0.000395856
0.000471195
0.000249219
0.000201066
0.000196148
0.000192766
0.000191642
0.000189127
0.000187487
0.000185289
0.000183338
0.000181353
0.000179189
0.000177395
0.000175
0.000173421
0.000170718
0.000169861
0.000170737
0.000207871
0.000396298
0.000472053
0.000250302
0.000202053
0.000197112
0.000193727
0.000192577
0.00019006
0.000188399
0.000186194
0.000184229
0.000182238
0.000180064
0.000178266
0.000175862
0.000174282
0.000171565
0.000170709
0.00017157
0.000208706
0.000396783
0.000472928
0.000251401
0.000203041
0.000198075
0.000194687
0.000193511
0.000190991
0.000189309
0.000187098
0.00018512
0.000183123
0.000180939
0.000179137
0.000176723
0.000175144
0.000172413
0.000171558
0.000172406
0.000209559
0.000397309
0.000473814
0.000252515
0.000204032
0.000199036
0.000195647
0.000194444
0.000191922
0.00019022
0.000188003
0.000186011
0.000184008
0.000181814
0.000180008
0.000177586
0.000176006
0.000173261
0.000172408
0.000173247
0.000210428
0.000397875
0.00047471
0.000253646
0.000205024
0.000199995
0.000196606
0.000195377
0.000192853
0.00019113
0.000188907
0.000186902
0.000184894
0.00018269
0.000180881
0.000178449
0.000176869
0.00017411
0.000173261
0.000174093
0.000211313
0.000398478
0.00047561
0.000254794
0.00020602
0.000200954
0.000197566
0.00019631
0.000193784
0.000192042
0.000189813
0.000187795
0.000185781
0.000183568
0.000181755
0.000179313
0.000177734
0.000174961
0.000174115
0.000174944
0.000212214
0.000399117
0.00047651
0.00025596
0.000207018
0.000201912
0.000198527
0.000197244
0.000194716
0.000192955
0.000190721
0.00018869
0.00018667
0.000184447
0.000182631
0.00018018
0.000178601
0.000175814
0.000174972
0.0001758
0.00021313
0.000399789
0.000477405
0.000257146
0.000208021
0.000202871
0.000199489
0.00019818
0.00019565
0.00019387
0.00019163
0.000189587
0.000187562
0.000185329
0.000183509
0.000181049
0.00017947
0.000176669
0.000175832
0.000176662
0.000214061
0.000400491
0.000478292
0.000258353
0.000209027
0.00020383
0.000200453
0.000199117
0.000196584
0.000194787
0.000192542
0.000190486
0.000188456
0.000186213
0.000184391
0.000181921
0.000180342
0.000177528
0.000176696
0.00017753
0.000215007
0.000401222
0.000479163
0.000259581
0.000210037
0.000204791
0.000201419
0.000200056
0.000197521
0.000195706
0.000193456
0.000191388
0.000189353
0.000187101
0.000185275