/*--------------------------------*- C++ -*----------------------------------*\
  =========                 |
  \\      /  F ield         | OpenFOAM: The Open Source CFD Toolbox
   \\    /   O peration     | Website:  https://openfoam.org
    \\  /    A nd           | Version:  8
     \\/     M anipulation  |
\*---------------------------------------------------------------------------*/
FoamFile
{
    version     2.0;
    format      ascii;
    class       surfaceScalarField;
    location    "100";
    object      phi;
}
// * * * * * * * * * * * * * * * * * * * * * * * * * * * * * * * * * * * * * //

dimensions      [1 0 -1 0 0 0 0];

internalField   nonuniform List<scalar> 
16360
(
-1.97421
-0.00155845
-1.97273
-0.00147966
-1.97125
-0.00146732
-1.96978
-0.00146394
-1.96831
-0.0014579
-1.96686
-0.00144666
-1.96542
-0.0014292
-1.96402
-0.00140585
-1.96264
-0.00137696
-1.9613
-0.00134383
-1.95999
-0.00130615
-1.95872
-0.00126285
-1.9575
-0.00121452
-1.95632
-0.00116373
-1.95521
-0.00111238
-1.95416
-0.00106154
-1.95316
-0.00100961
-1.95221
-0.000953326
-1.95132
-0.000891091
-1.95049
-0.000824068
-1.94972
-0.000755897
-1.94902
-0.000687309
-1.9484
-0.000617513
-1.94784
-0.000546236
-1.94736
-0.000474192
-1.94696
-0.000402288
-1.94664
-0.000329152
-1.94638
-0.000251604
-1.94621
-0.000169184
-1.94611
-8.60951e-05
-1.9461
-7.06753e-06
-1.94617
6.68372e-05
-1.94631
0.000136324
-1.94652
0.000199794
-1.94678
0.000254264
-1.94708
0.000298067
-1.94741
0.000327538
-1.94774
0.000332734
-1.94804
0.000302376
-1.94827
0.000229475
-1.94837
0.000103641
-1.94827
-9.65786e-05
-1.94788
-0.000397482
-1.94705
-0.000831055
-1.94562
-0.00144763
-1.9433
-0.00231928
-1.93974
-0.00354784
-1.93449
-0.00524842
-1.92691
-0.00759632
-0.0115209
-1.91538
-2.15799
-0.00313085
-2.15617
-0.00328796
-2.1543
-0.00332278
-2.15244
-0.00331298
-2.15061
-0.00328012
-2.14882
-0.00323064
-2.14708
-0.00316724
-2.14539
-0.0030922
-2.14376
-0.00300845
-2.14219
-0.00291748
-2.14066
-0.00282074
-2.13919
-0.00272036
-2.13778
-0.00261706
-2.13643
-0.00251218
-2.13514
-0.00240634
-2.13392
-0.0022976
-2.13275
-0.00218313
-2.13164
-0.00206079
-2.13058
-0.00193358
-2.12958
-0.00180444
-2.12865
-0.00167574
-2.12777
-0.00154758
-2.12696
-0.00141799
-2.12622
-0.00128573
-2.12554
-0.00115059
-2.12494
-0.00101115
-2.1244
-0.00086504
-2.12392
-0.0007122
-2.12352
-0.000556399
-2.1232
-0.000402146
-2.12297
-0.000250849
-2.12281
-0.00010187
-2.12273
4.32069e-05
-2.12272
0.00018035
-2.12277
0.000306387
-2.12288
0.000416948
-2.12305
0.000500838
-2.12326
0.000542809
-2.12349
0.000530937
-2.12371
0.000451983
-2.12389
0.000282682
-2.12399
-5.40918e-06
-2.12395
-0.000445999
-2.1237
-0.00109169
-2.12314
-0.00201093
-2.12215
-0.00329622
-2.1206
-0.00509172
-2.11831
-0.0075655
-2.1149
-0.0110098
-0.0161275
-2.11028
-2.11709
-0.00425224
-2.11614
-0.00423051
-2.11527
-0.00418191
-2.11446
-0.00412384
-2.11369
-0.00404713
-2.11296
-0.00395294
-2.11229
-0.00384308
-2.11166
-0.00372019
-2.11108
-0.00358733
-2.11055
-0.00344743
-2.11007
-0.00330344
-2.10962
-0.00315664
-2.10922
-0.00300852
-2.10888
-0.00285984
-2.10858
-0.00271005
-2.10832
-0.00255583
-2.10811
-0.00239512
-2.10793
-0.00222869
-2.10779
-0.00205868
-2.10769
-0.00188961
-2.10764
-0.00172253
-2.10763
-0.00155446
-2.10766
-0.00138295
-2.10774
-0.00120704
-2.10787
-0.00102585
-2.10804
-0.000837604
-2.10826
-0.000641171
-2.10852
-0.000438257
-2.10884
-0.000233011
-2.10921
-2.83752e-05
-2.10964
0.000175533
-2.11013
0.000378105
-2.11067
0.000575757
-2.11126
0.00076416
-2.11188
0.000938853
-2.11254
0.00108933
-2.11324
0.00119799
-2.11394
0.00124818
-2.11464
0.00122612
-2.11529
0.00111072
-2.11588
0.000871675
-2.11636
0.000471411
-2.11667
-0.000142031
-2.11674
-0.00102734
-2.11649
-0.00225468
-2.11584
-0.00393973
-2.1147
-0.0062267
-2.11299
-0.00929211
-2.11065
-0.0133761
-0.0190815
-2.10767
-2.11289
-0.00388902
-2.11304
-0.00407291
-2.11316
-0.00406555
-2.11329
-0.00399157
-2.11346
-0.00388062
-2.11367
-0.00374528
-2.11392
-0.00359182
-2.11422
-0.00342478
-2.11456
-0.00324931
-2.11494
-0.00306915
-2.11536
-0.00288627
-2.1158
-0.00270246
-2.11629
-0.00251994
-2.11681
-0.00233842
-2.11736
-0.00215589
-2.11794
-0.00197018
-2.11854
-0.00177876
-2.11917
-0.00158469
-2.11983
-0.00139147
-2.12052
-0.00120011
-2.12124
-0.00100842
-2.12198
-0.000813155
-2.12275
-0.000612158
-2.12355
-0.000404715
-2.12438
-0.000190378
-2.12525
3.29989e-05
-2.12615
0.000266451
-2.12709
0.000507706
-2.12807
0.000753292
-2.12911
0.00100227
-2.13019
0.00125515
-2.13133
0.00151003
-2.13252
0.00176278
-2.13376
0.00200882
-2.13504
0.00223931
-2.13638
0.00243789
-2.13778
0.00258716
-2.13921
0.00267378
-2.14066
0.0026796
-2.14212
0.00257559
-2.14358
0.00232715
-2.145
0.00189036
-2.14635
0.00120585
-2.14758
0.000211048
-2.14864
-0.0011819
-2.14949
-0.00308976
-2.15011
-0.00564476
-2.15035
-0.00898907
-2.15028
-0.0134375
-0.0192045
-2.15019
-2.065
-0.00335156
-2.0659
-0.00317192
-2.06695
-0.00302241
-2.06807
-0.00288261
-2.06922
-0.00272877
-2.07041
-0.0025577
-2.07163
-0.00237225
-2.07288
-0.00217704
-2.07416
-0.00197525
-2.07546
-0.00177034
-2.07678
-0.00156493
-2.07812
-0.00136102
-2.07948
-0.00115947
-2.08085
-0.000961343
-2.08223
-0.000763865
-2.08363
-0.000564549
-2.08503
-0.000364707
-2.08644
-0.000165579
-2.08786
3.16333e-05
-2.0893
0.000227865
-2.09074
0.000426956
-2.09218
0.000632176
-2.09364
0.000844058
-2.0951
0.00106256
-2.09658
0.0012899
-2.09807
0.00152926
-2.09958
0.00178109
-2.10112
0.00204268
-2.10268
0.00231239
-2.10428
0.00259145
-2.10591
0.00288011
-2.10758
0.00317496
-2.10928
0.00347112
-2.11103
0.00376186
-2.11281
0.00403437
-2.11465
0.00427238
-2.11654
0.00446278
-2.11847
0.00459104
-2.12042
0.00463303
-2.1224
0.00455789
-2.1244
0.00432588
-2.1264
0.00388443
-2.12838
0.00318291
-2.13031
0.0021512
-2.13217
0.000697159
-2.13397
-0.00129408
-2.13566
-0.00396874
-2.13729
-0.00742782
-2.13881
-0.0118776
-0.0176437
-2.14039
-2.03919
-0.00104429
-2.04119
-0.00117854
-2.04311
-0.00111663
-2.04502
-0.000982787
-2.04693
-0.000812981
-2.04887
-0.000622927
-2.05082
-0.000419939
-2.05279
-0.000210171
-2.05477
1.43449e-06
-2.05676
0.000213114
-2.05875
0.000424142
-2.06074
0.000631679
-2.06274
0.000835345
-2.06473
0.00103591
-2.06671
0.00123341
-2.06869
0.00142955
-2.07067
0.00162333
-2.07265
0.00181354
-2.07462
0.00200073
-2.07659
0.00218895
-2.07855
0.00238252
-2.08049
0.00258258
-2.08244
0.00278862
-2.08438
0.0030024
-2.08631
0.00322873
-2.08825
0.00347065
-2.09019
0.00372727
-2.09215
0.00399694
-2.09412
0.00428099
-2.09611
0.00458144
-2.09812
0.00489641
-2.10017
0.00522102
-2.10224
0.00555024
-2.10435
0.00587619
-2.1065
0.00618561
-2.1087
0.00646526
-2.11094
0.00670325
-2.11323
0.00688009
-2.11556
0.00696736
-2.11793
0.00693141
-2.12034
0.00672834
-2.12277
0.00630985
-2.1252
0.00562473
-2.12765
0.00459976
-2.13011
0.0031542
-2.13261
0.00117824
-2.13508
-0.00142332
-2.13764
-0.00484604
-2.14032
-0.00921182
-0.0146955
-2.14327
-1.99108
0.000815981
-1.99341
0.00114462
-1.99591
0.00137681
-1.99848
0.00157644
-2.00107
0.00177956
-2.00368
0.00199109
-2.00631
0.00220784
-2.00895
0.00242644
-2.0116
0.00264466
-2.01426
0.00285984
-2.01691
0.00307032
-2.01956
0.00327509
-2.02219
0.00347132
-2.02481
0.00365918
-2.02741
0.00384086
-2.02998
0.00401595
-2.03254
0.004184
-2.03507
0.00434572
-2.03758
0.0045044
-2.04006
0.00466488
-2.04251
0.00483001
-2.04493
0.00500047
-2.04732
0.00517797
-2.04969
0.00536705
-2.05203
0.00557264
-2.05435
0.00579621
-2.05666
0.00603679
-2.05896
0.00629542
-2.06126
0.00657543
-2.06355
0.00687746
-2.06585
0.0071981
-2.06816
0.00753393
-2.07049
0.0078814
-2.07285
0.00823161
-2.07524
0.00857158
-2.07767
0.00888997
-2.08014
0.00917301
-2.08267
0.00939925
-2.08524
0.00954169
-2.08788
0.0095626
-2.09058
0.00941691
-2.09334
0.00906573
-2.09616
0.00845101
-2.09905
0.00750874
-2.10202
0.00614084
-2.10509
0.00424226
-2.10827
0.00173105
-2.11161
-0.00151258
-2.11518
-0.00565836
-0.0108674
-2.119
-1.95072
0.00452756
-1.95399
0.00441065
-1.95713
0.00450152
-1.96023
0.00467315
-1.96332
0.00487636
-1.96642
0.0050911
-1.96951
0.00530806
-1.97261
0.0055215
-1.97571
0.00572876
-1.97878
0.00592997
-1.98184
0.00612284
-1.98488
0.00630573
-1.98788
0.00647797
-1.99086
0.0066383
-1.9938
0.00678789
-1.9967
0.00692666
-1.99957
0.00705542
-2.0024
0.00717624
-2.00519
0.00729322
-2.00794
0.00741068
-2.01064
0.00753132
-2.01329
0.00765747
-2.01591
0.00779342
-2.01848
0.00794473
-2.02101
0.00811496
-2.02351
0.00830459
-2.02599
0.00851444
-2.02843
0.00874829
-2.03086
0.00900948
-2.03327
0.00929742
-2.03568
0.00961019
-2.03808
0.00994675
-2.04049
0.0103018
-2.04292
0.0106638
-2.04538
0.0110232
-2.04786
0.0113725
-2.05038
0.0116964
-2.05294
0.0119701
-2.05555
0.012162
-2.05824
0.0122362
-2.06098
0.0121608
-2.0638
0.0118917
-2.06669
0.0113667
-2.06969
0.0105109
-2.07283
0.00924824
-2.07606
0.00750979
-2.07948
0.00517134
-2.08314
0.00213375
-2.08709
-0.0017307
-0.00654894
-2.09142
-1.89159
0.00727704
-1.89487
0.00767659
-1.89834
0.00795839
-1.90186
0.00819366
-1.9054
0.00841769
-1.90894
0.00863479
-1.91247
0.00884221
-1.91599
0.00903902
-1.9195
0.0092247
-1.92298
0.00939942
-1.92642
0.00956217
-1.92983
0.00971014
-1.9332
0.00984167
-1.93652
0.00995828
-1.93979
0.0100602
-1.94301
0.0101478
-1.94618
0.0102223
-1.9493
0.0102865
-1.95236
0.010345
-1.95535
0.0104023
-1.95829
0.010462
-1.96116
0.0105285
-1.96398
0.0106074
-1.96673
0.0107037
-1.96943
0.01082
-1.97208
0.0109575
-1.97469
0.0111198
-1.97726
0.0113123
-1.97979
0.0115383
-1.98229
0.0117979
-1.98477
0.0120908
-1.98723
0.0124147
-1.98969
0.0127615
-1.99216
0.0131225
-1.99464
0.0134933
-1.99714
0.0138644
-1.99967
0.0142168
-2.00224
0.0145288
-2.00487
0.0147715
-2.00756
0.0149131
-2.01032
0.0149213
-2.01316
0.0147385
-2.01611
0.0143241
-2.01918
0.0135986
-2.0224
0.0124799
-2.02581
0.010896
-2.02941
0.00877198
-2.03327
0.00598602
-2.03746
0.00244156
-0.00199633
-2.04201
-1.83212
0.0115496
-1.83599
0.0115409
-1.83972
0.0116796
-1.8434
0.0118768
-1.84706
0.0120848
-1.85071
0.0122869
-1.85434
0.0124753
-1.85795
0.0126479
-1.86154
0.0128055
-1.86509
0.0129467
-1.8686
0.01307
-1.87207
0.0131744
-1.87549
0.0132589
-1.87886
0.0133245
-1.88217
0.0133717
-1.88542
0.0134009
-1.88861
0.0134136
-1.89174
0.0134134
-1.89481
0.0134054
-1.8978
0.0133946
-1.90072
0.0133855
-1.90357
0.0133834
-1.90635
0.0133947
-1.90907
0.0134242
-1.91172
0.0134747
-1.91432
0.0135496
-1.91686
0.0136558
-1.91934
0.0138
-1.92178
0.013985
-1.92419
0.01421
-1.92656
0.0144737
-1.92891
0.0147724
-1.93125
0.0151001
-1.93359
0.0154529
-1.93592
0.015827
-1.93827
0.0162114
-1.94063
0.0165893
-1.94305
0.0169369
-1.94551
0.0172251
-1.94802
0.0174297
-1.95061
0.0175119
-1.95328
0.0174357
-1.95606
0.0171208
-1.95899
0.01651
-1.96206
0.0155605
-1.96531
0.0141684
-1.9688
0.0122507
-1.97254
0.00971989
-1.97658
0.00649669
0.00245803
-1.98102
-1.75512
0.014526
-1.75856
0.0149669
-1.76215
0.0152707
-1.76579
0.0155182
-1.76944
0.0157359
-1.77308
0.0159291
-1.7767
0.0160989
-1.7803
0.0162453
-1.78387
0.0163699
-1.7874
0.0164726
-1.79089
0.0165525
-1.79433
0.016608
-1.79772
0.0166404
-1.80105
0.0166503
-1.80432
0.0166378
-1.80753
0.0166034
-1.81067
0.0165488
-1.81374
0.0164788
-1.81674
0.0163989
-1.81966
0.016314
-1.82251
0.0162293
-1.82528
0.0161514
-1.82797
0.0160873
-1.83059
0.0160421
-1.83315
0.0160202
-1.83564
0.0160286
-1.83808
0.016077
-1.84045
0.0161714
-1.84277
0.016312
-1.84506
0.0164973
-1.84731
0.0167265
-1.84953
0.0169967
-1.85174
0.0173047
-1.85394
0.0176491
-1.85612
0.0180222
-1.85831
0.0184108
-1.86053
0.0188005
-1.86278
0.0191684
-1.86506
0.0194981
-1.8674
0.0197703
-1.8698
0.0199257
-1.87229
0.0199294
-1.87491
0.0197256
-1.87763
0.0192575
-1.88053
0.018449
-1.88359
0.0172547
-1.88691
0.0155644
-1.8905
0.013304
-1.89439
0.0103856
0.00671111
-1.89863
-1.67115
0.0183304
-1.67467
0.0184883
-1.67808
0.018687
-1.68146
0.0188997
-1.68481
0.0190963
-1.68815
0.0192666
-1.69146
0.0194087
-1.69473
0.0195229
-1.69797
0.0196106
-1.70118
0.0196719
-1.70434
0.0197058
-1.70745
0.019712
-1.7105
0.0196917
-1.7135
0.0196452
-1.71643
0.0195721
-1.7193
0.019473
-1.72211
0.019351
-1.72485
0.0192112
-1.72751
0.0190591
-1.73009
0.0188996
-1.7326
0.0187393
-1.73503
0.0185861
-1.73739
0.0184477
-1.73968
0.0183294
-1.74191
0.0182385
-1.74407
0.0181859
-1.74617
0.0181815
-1.74822
0.018229
-1.75023
0.0183279
-1.7522
0.0184792
-1.75414
0.0186819
-1.75607
0.0189296
-1.75798
0.0192179
-1.75987
0.0195458
-1.76175
0.0199085
-1.76364
0.0202981
-1.76555
0.0207032
-1.76749
0.0211053
-1.76946
0.0214816
-1.77149
0.0217892
-1.77357
0.0220263
-1.77574
0.0221113
-1.77801
0.0219893
-1.7804
0.0216448
-1.78292
0.0209894
-1.78562
0.0199555
-1.78851
0.0184668
-1.79166
0.016455
-1.7951
0.0138238
0.0104822
-1.79888
-1.57167
0.0206543
-1.57431
0.0211303
-1.57706
0.0214412
-1.57984
0.021682
-1.58262
0.021874
-1.58538
0.0220254
-1.58811
0.0221401
-1.59082
0.0222231
-1.59348
0.0222751
-1.59611
0.0222973
-1.5987
0.0222888
-1.60125
0.0222501
-1.60374
0.0221813
-1.60618
0.022082
-1.60856
0.0219522
-1.61089
0.0217935
-1.61316
0.0216099
-1.61537
0.0214067
-1.6175
0.0211892
-1.61957
0.0209636
-1.62157
0.020738
-1.6235
0.0205204
-1.62537
0.020318
-1.62719
0.0201378
-1.62895
0.0199908
-1.63066
0.01989
-1.63232
0.0198439
-1.63395
0.0198555
-1.63554
0.0199275
-1.63712
0.0200605
-1.63869
0.0202489
-1.64025
0.0204852
-1.6418
0.0207678
-1.64334
0.0210934
-1.64488
0.0214556
-1.64642
0.0218502
-1.648
0.0222621
-1.6496
0.0226814
-1.65123
0.0231069
-1.65289
0.0234761
-1.65464
0.0237674
-1.65648
0.0239368
-1.65838
0.0239274
-1.6604
0.0236678
-1.66253
0.0231374
-1.66484
0.0222404
-1.6673
0.0209254
-1.66997
0.019128
-1.67291
0.0167689
0.01377
-1.67619
-1.4604
0.022934
-1.46249
0.0232306
-1.4645
0.0234617
-1.46648
0.0236643
-1.46843
0.0238246
-1.47036
0.0239441
-1.47225
0.0240263
-1.47411
0.0240751
-1.47592
0.0240931
-1.4777
0.0240791
-1.47945
0.0240322
-1.48115
0.0239517
-1.48281
0.0238376
-1.48442
0.02369
-1.48598
0.0235095
-1.48749
0.0232987
-1.48895
0.0230619
-1.49035
0.0228048
-1.4917
0.0225338
-1.49299
0.022256
-1.49422
0.0219791
-1.4954
0.0217102
-1.49653
0.0214567
-1.49763
0.0212292
-1.49868
0.0210417
-1.4997
0.0209072
-1.50069
0.0208344
-1.50167
0.02083
-1.50264
0.0209007
-1.50361
0.021045
-1.5046
0.02125
-1.5056
0.021502
-1.50661
0.0217925
-1.50763
0.0221164
-1.50865
0.0224762
-1.50969
0.022876
-1.51076
0.0233127
-1.51184
0.0237763
-1.51299
0.0242301
-1.51415
0.0246759
-1.5154
0.025019
-1.51674
0.0252413
-1.51815
0.0253273
-1.51963
0.02518
-1.52124
0.0247505
-1.52298
0.0239699
-1.52485
0.0227943
-1.52689
0.0211615
-1.52914
0.0190188
0.0163219
-1.53169
-1.33353
0.0235472
-1.3343
0.024009
-1.33511
0.0242799
-1.33591
0.0244716
-1.3367
0.0246041
-1.33746
0.0246906
-1.33819
0.0247411
-1.33887
0.0247598
-1.33952
0.0247472
-1.34013
0.0247009
-1.34072
0.0246194
-1.34127
0.0245026
-1.34179
0.0243512
-1.34226
0.0241658
-1.34271
0.0239472
-1.34312
0.0236979
-1.34348
0.0234233
-1.34381
0.0231301
-1.3441
0.0228253
-1.34435
0.022515
-1.34456
0.0222055
-1.34475
0.0219046
-1.34492
0.0216232
-1.34507
0.0213749
-1.34521
0.0211743
-1.34534
0.0210333
-1.34547
0.0209628
-1.34561
0.0209764
-1.34578
0.0210823
-1.34599
0.0212712
-1.34626
0.0215219
-1.34658
0.0218174
-1.34693
0.0221453
-1.34731
0.0224973
-1.34769
0.0228762
-1.3481
0.0232846
-1.34855
0.0237345
-1.34901
0.0242429
-1.34952
0.0247358
-1.35011
0.0252366
-1.35075
0.0256694
-1.35146
0.0259817
-1.35226
0.0261139
-1.35312
0.0260585
-1.3541
0.0257148
-1.35518
0.0250463
-1.35637
0.0239943
-1.35771
0.0225019
-1.35922
0.0205389
0.0180785
-1.361
-1.19024
0.023233
-1.18978
0.023553
-1.18923
0.0237326
-1.18862
0.0238626
-1.18798
0.0239464
-1.18729
0.0239941
-1.18657
0.0240119
-1.1858
0.0240017
-1.185
0.0239604
-1.18418
0.023885
-1.18334
0.0237745
-1.18247
0.0236304
-1.18158
0.0234535
-1.18066
0.0232435
-1.17972
0.0230006
-1.17876
0.0227285
-1.17777
0.0224342
-1.17676
0.022125
-1.17573
0.0218059
-1.17469
0.0214817
-1.17364
0.0211605
-1.17259
0.0208538
-1.17154
0.020575
-1.1705
0.0203369
-1.16948
0.0201512
-1.16849
0.02003
-1.16752
0.0199901
-1.1666
0.0200521
-1.16574
0.0202261
-1.16498
0.0205013
-1.16431
0.0208554
-1.16374
0.0212582
-1.16324
0.021659
-1.16277
0.0220343
-1.16232
0.0224159
-1.16188
0.0228353
-1.16144
0.0233091
-1.16108
0.0238492
-1.16071
0.0244266
-1.16046
0.0249578
-1.16027
0.0254451
-1.16015
0.0258516
-1.16008
0.026078
-1.1601
0.0260918
-1.16022
0.0258298
-1.16042
0.0252477
-1.16072
0.0243027
-1.16114
0.0229335
-1.16171
0.0211272
0.0188771
-1.16251
-1.02583
0.0209621
-1.02353
0.0212616
-1.02118
0.0213859
-1.01878
0.0214561
-1.01633
0.0214893
-1.01384
0.0214973
-1.0113
0.0214838
-1.00873
0.0214461
-1.00614
0.0213794
-1.00354
0.0212812
-1.00092
0.0211529
-0.998286
0.0209963
-0.995639
0.0208102
-0.992988
0.0205925
-0.990336
0.0203446
-0.987683
0.0200732
-0.985027
0.0197858
-0.982378
0.0194872
-0.979744
0.0191807
-0.977131
0.0188739
-0.974545
0.0185794
-0.971995
0.01831
-0.969491
0.0180756
-0.967043
0.0178864
-0.964657
0.0177555
-0.962336
0.0176981
-0.960079
0.0177305
-0.957893
0.0178709
-0.955805
0.0181393
-0.953848
0.018545
-0.952042
0.0190639
-0.950408
0.0196303
-0.948898
0.0201321
-0.947407
0.0205369
-0.9459
0.0208998
-0.944374
0.0213012
-0.942806
0.0217911
-0.941332
0.0223329
-0.939884
0.0229874
-0.938512
0.0236014
-0.937186
0.0241637
-0.935983
0.0245999
-0.934791
0.0249205
-0.933697
0.0250078
-0.932702
0.0248373
-0.931785
0.0243585
-0.93099
0.0235102
-0.930307
0.0222578
-0.929769
0.0205802
0.0185386
-0.929432
-0.832214
0.0169154
-0.827894
0.0169482
-0.823429
0.0169228
-0.818876
0.0168996
-0.814266
0.0168742
-0.809611
0.0168449
-0.804922
0.0168056
-0.800216
0.0167481
-0.795505
0.0166674
-0.790795
0.016564
-0.786086
0.0164399
-0.781381
0.0162937
-0.776691
0.0161214
-0.772026
0.0159223
-0.767387
0.0157018
-0.762775
0.0154677
-0.758199
0.0152236
-0.753672
0.0149706
-0.749203
0.0147155
-0.744795
0.0144711
-0.740455
0.0142496
-0.736194
0.0140575
-0.732022
0.0139026
-0.727942
0.0137996
-0.723953
0.0137617
-0.720049
0.0137927
-0.716215
0.0138945
-0.712438
0.0140864
-0.708731
0.0144228
-0.705152
0.0149659
-0.701804
0.0157223
-0.698796
0.0166215
-0.695977
0.0173193
-0.693101
0.0176822
-0.690069
0.0178547
-0.686893
0.0180972
-0.683617
0.0185353
-0.680297
0.0190662
-0.677085
0.0197091
-0.673887
0.0203901
-0.670746
0.0210364
-0.667672
0.0215479
-0.664667
0.021913
-0.661748
0.0221009
-0.658969
0.022053
-0.656336
0.0217444
-0.653911
0.0210997
-0.651698
0.0200664
-0.649709
0.018588
0.0167964
-0.647964
-0.590006
0.0103996
-0.583049
0.0100008
-0.575945
0.00982442
-0.568767
0.0097231
-0.561546
0.009658
-0.554299
0.00960857
-0.547039
0.00955827
-0.539782
0.00949589
-0.532539
0.00941982
-0.525314
0.0093341
-0.518111
0.0092386
-0.510941
0.00912636
-0.503817
0.00899277
-0.496745
0.00884375
-0.489726
0.00868931
-0.482765
0.00853071
-0.475876
0.00836127
-0.46907
0.00818193
-0.462348
0.00800767
-0.455706
0.0078518
-0.449146
0.00771265
-0.44267
0.00758875
-0.436265
0.00749718
-0.429916
0.00745827
-0.423615
0.00747184
-0.417349
0.00753102
-0.411084
0.00764079
-0.404781
0.00780783
-0.398438
0.00810389
-0.392153
0.00870725
-0.386145
0.00973151
-0.380885
0.011319
-0.37581
0.012205
-0.370192
0.0120269
-0.363791
0.0114263
-0.356823
0.0111464
-0.349654
0.0112587
-0.342216
0.0117694
-0.33489
0.0122791
-0.327478
0.0130213
-0.3201
0.0136141
-0.312645
0.0141168
-0.305147
0.0144392
-0.297704
0.0146416
-0.290423
0.0147806
-0.283509
0.0148441
-0.277205
0.0148027
-0.271701
0.0145724
-0.26715
0.0140211
0.0131511
-0.263521
-0.268568
-0.258561
-0.248736
-0.239013
-0.229351
-0.219735
-0.210176
-0.200687
-0.191273
-0.181939
-0.172699
-0.163578
-0.154592
-0.145742
-0.137032
-0.128479
-0.120107
-0.111919
-0.103897
-0.0960312
-0.0883178
-0.0807303
-0.0732185
-0.0657437
-0.0582704
-0.0507374
-0.0431009
-0.0353387
-0.0272723
-0.0185629
-0.00888393
0.00243722
0.0148184
0.0268218
0.0381581
0.0495449
0.0605689
0.0724344
0.0846671
0.0976621
0.111325
0.125412
0.139896
0.154555
0.169352
0.184213
0.199018
0.213612
0.227653
0.240846
1.62587
-0.0342504
1.638
-0.0121356
1.64684
-0.00884029
1.65127
-0.0044268
1.65285
-0.0015752
1.65295
-9.97699e-05
1.65225
0.000691902
1.65109
0.00116033
1.64965
0.00144647
1.64803
0.00161874
1.64631
0.00171997
1.64453
0.00177722
1.64273
0.00180656
1.64091
0.00181746
1.63909
0.00181576
1.63729
0.00180518
1.6355
0.00178812
1.63373
0.00176611
1.63199
0.00174013
1.63028
0.00171077
1.6286
0.00167834
1.62696
0.00164293
1.62536
0.00160445
1.62379
0.00156269
1.62228
0.00151728
1.62081
0.00146774
1.6194
0.00141343
1.61804
0.00135355
1.61675
0.00128709
1.61554
0.00121305
1.61441
0.00113021
1.61337
0.00103709
1.61244
0.000932097
1.61163
0.000811963
1.61096
0.000674227
1.61044
0.000515732
1.61011
0.000332787
1.60999
0.000121253
1.61011
-0.000124539
1.61052
-0.000412779
1.61128
-0.000753674
1.61244
-0.00116003
1.61409
-0.00164913
1.61633
-0.00224544
1.61932
-0.00298566
1.62324
-0.00392864
1.62842
-0.00517648
1.63534
-0.006922
1.64491
-0.00956491
-0.0139767
1.65888
1.57532
-0.0179538
1.5719
-0.00871303
1.5662
-0.00314218
1.56319
-0.00141582
1.56174
-0.000121782
1.56096
0.000679406
1.56059
0.00105639
1.56052
0.00123005
1.56066
0.00131289
1.56093
0.00134651
1.5613
0.00135183
1.56173
0.0013418
1.56222
0.00132373
1.56273
0.00130129
1.56327
0.00127621
1.56383
0.00124929
1.56439
0.00122077
1.56497
0.00119056
1.56555
0.00115836
1.56614
0.00112371
1.56673
0.00108602
1.56733
0.00104459
1.56794
0.000998597
1.56855
0.000947083
1.56918
0.000888968
1.56982
0.000823011
1.57049
0.000747725
1.57118
0.000661198
1.57191
0.000561112
1.57268
0.000445376
1.57349
0.000311595
1.57438
0.000156184
1.57533
-2.50372e-05
1.57638
-0.000236534
1.57754
-0.00048343
1.57883
-0.000772084
1.58027
-0.00111019
1.5819
-0.00150709
1.58375
-0.00197499
1.58586
-0.00252883
1.5883
-0.00318671
1.59111
-0.00397251
1.59438
-0.00491787
1.5982
-0.00606595
1.60269
-0.00747794
1.608
-0.00924369
1.61433
-0.0115004
1.62187
-0.0144646
1.6308
-0.0184861
-0.0241147
1.64095
1.57763
-0.00396703
1.573
-0.0040843
1.57217
-0.00230645
1.57223
-0.00147707
1.57309
-0.000985684
1.57428
-0.000504901
1.57545
-0.000120299
1.57653
0.000155086
1.57749
0.00035659
1.57832
0.000506753
1.57906
0.00061734
1.5797
0.00069726
1.58027
0.000753677
1.58078
0.000791853
1.58124
0.000815489
1.58167
0.000827172
1.58206
0.00082868
1.58243
0.000821164
1.58278
0.00080527
1.58312
0.00078124
1.58346
0.000748969
1.5838
0.000708048
1.58414
0.000657778
1.58449
0.000597167
1.58485
0.000525015
1.58523
0.000439894
1.58564
0.000340061
1.58608
0.000222872
1.58656
8.51619e-05
1.58708
-7.63929e-05
1.58766
-0.000265775
1.5883
-0.000487709
1.58902
-0.000747834
1.58984
-0.00105173
1.59076
-0.00140757
1.59181
-0.00182468
1.59302
-0.00231424
1.5944
-0.00288987
1.59599
-0.00356833
1.59783
-0.00437015
1.59997
-0.00532063
1.60245
-0.00645191
1.60534
-0.00780547
1.60871
-0.009436
1.61264
-0.0114172
1.61725
-0.01385
1.62262
-0.0168754
1.62885
-0.0206908
1.63593
-0.0255705
-0.0318733
1.64369
1.59001
-0.00235616
1.58927
-0.00334339
1.58952
-0.00256432
1.58974
-0.00169078
1.5898
-0.00104488
1.58979
-0.000496805
1.58972
-4.8786e-05
1.58959
0.000280219
1.58944
0.000508972
1.58928
0.000665369
1.58913
0.000769125
1.58899
0.000833928
1.58888
0.000870039
1.58878
0.000884967
1.58872
0.000883936
1.58867
0.000870442
1.58865
0.000846737
1.58866
0.000814152
1.58869
0.000773313
1.58875
0.000724298
1.58883
0.000666742
1.58894
0.000599884
1.58908
0.00052257
1.58924
0.000433138
1.58943
0.000329855
1.58966
0.000210796
1.58993
7.31986e-05
1.59024
-8.5992e-05
1.59059
-0.000270258
1.591
-0.000484217
1.59147
-0.000733476
1.59201
-0.00102399
1.59262
-0.00136283
1.59333
-0.00175817
1.59414
-0.00222006
1.59508
-0.00276045
1.59615
-0.00339351
1.5974
-0.00413626
1.59884
-0.00500928
1.60051
-0.00603757
1.60244
-0.00725167
1.60468
-0.0086893
1.60727
-0.0103977
1.61027
-0.0124367
1.61374
-0.0148831
1.61772
-0.0178356
1.62227
-0.0214215
1.62738
-0.0258022
1.63298
-0.0311732
-0.0377514
1.63886
1.59022
-0.00096303
1.58845
-0.00156475
1.58719
-0.00131315
1.58635
-0.000846767
1.58579
-0.000486997
1.5855
-0.000207995
1.58543
2.12315e-05
1.58552
0.000197436
1.5857
0.000323782
1.58596
0.000411896
1.58625
0.000471767
1.58658
0.000509953
1.58692
0.000531092
1.58726
0.000538614
1.58761
0.000534895
1.58796
0.000521446
1.58831
0.000499101
1.58865
0.000468158
1.589
0.000428483
1.58934
0.000379574
1.58969
0.00032063
1.59004
0.000250523
1.59039
0.00016786
1.59076
7.04191e-05
1.59113
-4.40089e-05
1.59152
-0.000178179
1.59193
-0.000335376
1.59236
-0.000519077
1.59282
-0.000733419
1.59332
-0.000983837
1.59387
-0.00127659
1.59446
-0.00161887
1.59512
-0.0020191
1.59585
-0.0024872
1.59666
-0.00303493
1.59758
-0.00367622
1.59861
-0.00442762
1.59978
-0.00530878
1.60112
-0.0063432
1.60264
-0.00755909
1.60438
-0.0089903
1.60637
-0.0106778
1.60864
-0.0126714
1.61123
-0.015032
1.61418
-0.017834
1.61752
-0.0211682
1.62124
-0.0251439
1.62533
-0.0298899
1.6297
-0.0355488
-0.0422637
1.63422
1.59117
-0.000510929
1.59055
-0.000953608
1.59023
-0.00099143
1.5902
-0.000809603
1.5903
-0.000594644
1.59049
-0.000390392
1.5907
-0.000198049
1.59093
-2.83804e-05
1.59114
0.000110127
1.59134
0.000217379
1.59151
0.000297095
1.59167
0.000353125
1.59181
0.000388861
1.59194
0.000407276
1.59207
0.000410788
1.59219
0.000401185
1.59231
0.000379643
1.59243
0.000346772
1.59256
0.00030268
1.59269
0.000246993
1.59283
0.000179082
1.59298
9.77834e-05
1.59315
1.55664e-06
1.59333
-0.000111434
1.59353
-0.000243776
1.59375
-0.000398719
1.594
-0.000579768
1.59427
-0.000791036
1.59457
-0.00103744
1.59491
-0.00132493
1.5953
-0.00166052
1.59573
-0.00205237
1.59622
-0.00251005
1.59678
-0.00304475
1.59741
-0.00366967
1.59814
-0.00440037
1.59896
-0.00525519
1.59991
-0.00625576
1.601
-0.00742768
1.60224
-0.00880118
1.60366
-0.010412
1.60528
-0.0123026
1.60714
-0.0145231
1.60924
-0.017133
1.6116
-0.020202
1.61425
-0.0238108
1.61715
-0.0280514
1.62029
-0.0330248
1.62357
-0.0388338
-0.04557
1.62688
1.59137
-0.000263836
1.59094
-0.000521436
1.59053
-0.000578433
1.5902
-0.000484657
1.58995
-0.00034045
1.58975
-0.000196715
1.58962
-6.63167e-05
1.58955
4.42983e-05
1.58953
0.000130652
1.58955
0.000192701
1.58962
0.000233337
1.58971
0.00025592
1.58984
0.000263315
1.58999
0.000257817
1.59016
0.000241147
1.59035
0.000214441
1.59055
0.000178273
1.59076
0.000132665
1.59099
7.72282e-05
1.59122
1.114e-05
1.59147
-6.68409e-05
1.59172
-0.000158303
1.59199
-0.000265341
1.59227
-0.000390072
1.59256
-0.000535471
1.59287
-0.000705039
1.59319
-0.00090279
1.59353
-0.00113342
1.5939
-0.00140246
1.59429
-0.00171642
1.59471
-0.00208294
1.59517
-0.00251099
1.59567
-0.00301098
1.59622
-0.00359512
1.59683
-0.00427769
1.5975
-0.00507544
1.59826
-0.00600799
1.5991
-0.00709831
1.60004
-0.00837331
1.60111
-0.00986438
1.6023
-0.0116081
1.60365
-0.0136472
1.60516
-0.0160308
1.60684
-0.0188159
1.6087
-0.0220668
1.61075
-0.0258553
1.61296
-0.0302593
1.61529
-0.0353598
1.61769
-0.0412355
-0.0479553
1.62008
1.59149
-0.000140131
1.59126
-0.000290475
1.59103
-0.000348192
1.59087
-0.000323028
1.59079
-0.000258772
1.59078
-0.000186732
1.59083
-0.000118055
1.59093
-5.7001e-05
1.59107
-6.82116e-06
1.59123
3.09546e-05
1.59141
5.65356e-05
1.59159
7.08046e-05
1.59178
7.46233e-05
1.59197
6.86509e-05
1.59216
5.33211e-05
1.59235
2.87968e-05
1.59253
-5.0592e-06
1.59271
-4.86843e-05
1.59289
-0.000102832
1.59307
-0.000168523
1.59325
-0.000247253
1.59343
-0.000340785
1.59362
-0.00045125
1.59381
-0.000581126
1.59401
-0.000733471
1.59421
-0.000911918
1.59443
-0.00112073
1.59466
-0.00136487
1.59491
-0.00165018
1.59518
-0.00198351
1.59547
-0.00237293
1.59579
-0.00282785
1.59613
-0.00335924
1.59652
-0.00397993
1.59695
-0.0047049
1.59742
-0.00555164
1.59795
-0.00654052
1.59855
-0.00769529
1.59922
-0.00904348
1.59997
-0.010617
1.60082
-0.0124525
1.60176
-0.0145922
1.60282
-0.0170839
1.60398
-0.0199814
1.60526
-0.0233443
1.60664
-0.027237
1.60811
-0.0317266
1.60963
-0.0368796
1.61115
-0.0427567
-0.0494067
1.6126
1.59154
-6.31819e-05
1.59138
-0.00013402
1.5912
-0.000166939
1.59104
-0.000162316
1.59092
-0.000136373
1.59084
-0.000104154
1.59079
-7.30144e-05
1.59078
-4.62882e-05
1.5908
-2.62818e-05
1.59085
-1.43508e-05
1.59091
-1.08206e-05
1.591
-1.54743e-05
1.5911
-2.79916e-05
1.59122
-4.81396e-05
1.59135
-7.58473e-05
1.59149
-0.000111266
1.59164
-0.000154805
1.5918
-0.000207112
1.59196
-0.000269146
1.59214
-0.000342167
1.59232
-0.000427783
1.59251
-0.000527936
1.5927
-0.000644937
1.5929
-0.000781509
1.59311
-0.00094088
1.59332
-0.00112687
1.59354
-0.00134394
1.59378
-0.00159731
1.59402
-0.00189305
1.59427
-0.00223831
1.59454
-0.00264142
1.59483
-0.00311208
1.59513
-0.00366163
1.59545
-0.00430326
1.5958
-0.00505232
1.59618
-0.00592667
1.59658
-0.00694706
1.59702
-0.00813751
1.59751
-0.0095257
1.59803
-0.0111435
1.59861
-0.0130273
1.59923
-0.0152184
1.59991
-0.0177631
1.60064
-0.0207127
1.60142
-0.0241229
1.60224
-0.0280526
1.60307
-0.032562
1.6039
-0.037709
1.60469
-0.0435456
-0.0501149
1.6054
1.59156
-5.81821e-06
1.59144
-1.32551e-05
1.59129
-2.04707e-05
1.59116
-2.82808e-05
1.59106
-3.69066e-05
1.591
-4.65671e-05
1.59099
-5.74895e-05
1.59101
-6.9932e-05
1.59107
-8.4182e-05
1.59115
-0.00010057
1.59126
-0.000119482
1.59139
-0.000141357
1.59153
-0.000166716
1.59168
-0.000196157
1.59183
-0.000230382
1.59199
-0.000270211
1.59215
-0.000316608
1.59232
-0.000370689
1.59248
-0.000433768
1.59265
-0.000507382
1.59281
-0.000593337
1.59298
-0.000693736
1.59314
-0.000811019
1.59331
-0.000948022
1.59348
-0.00110806
1.59364
-0.00129501
1.59381
-0.00151341
1.59398
-0.00176853
1.59416
-0.00206651
1.59433
-0.00241454
1.59451
-0.00282101
1.5947
-0.00329566
1.59489
-0.00384987
1.59508
-0.00449688
1.59528
-0.00525204
1.59549
-0.00613321
1.5957
-0.00716107
1.59592
-0.00835945
1.59615
-0.00975579
1.59639
-0.0113815
1.59663
-0.0132724
1.59688
-0.0154687
1.59714
-0.0180154
1.59739
-0.0209619
1.59762
-0.0243613
1.59784
-0.0282692
1.59802
-0.0327417
1.59814
-0.0378322
1.59818
-0.0435872
-0.0500438
1.59811
1.59156
5.17154e-05
1.59144
0.000107864
1.59129
0.000126519
1.59116
0.000106462
1.59106
6.34793e-05
1.591
1.21819e-05
1.59098
-4.0518e-05
1.591
-9.17899e-05
1.59106
-0.000139913
1.59114
-0.000184174
1.59125
-0.000225001
1.59137