/*--------------------------------*- C++ -*----------------------------------*\
  =========                 |
  \\      /  F ield         | OpenFOAM: The Open Source CFD Toolbox
   \\    /   O peration     | Website:  https://openfoam.org
    \\  /    A nd           | Version:  8
     \\/     M anipulation  |
\*---------------------------------------------------------------------------*/
FoamFile
{
    version     2.0;
    format      ascii;
    class       volVectorField;
    location    "100";
    object      U;
}
// * * * * * * * * * * * * * * * * * * * * * * * * * * * * * * * * * * * * * //

dimensions      [0 1 -1 0 0 0 0];

internalField   nonuniform List<vector> 
8400
(
(-19.7932 -0.220956 -1.74074e-16)
(-19.7748 -0.222242 -1.75885e-16)
(-19.7617 -0.224389 -1.77669e-16)
(-19.7484 -0.226792 -1.84266e-16)
(-19.7352 -0.229327 -1.87649e-16)
(-19.722 -0.231973 -1.85929e-16)
(-19.7086 -0.234729 -1.87365e-16)
(-19.6951 -0.237609 -1.88928e-16)
(-19.6814 -0.240619 -1.90684e-16)
(-19.6676 -0.243767 -1.965e-16)
(-19.6539 -0.247065 -1.99462e-16)
(-19.6404 -0.250523 -1.98259e-16)
(-19.6272 -0.25415 -1.99868e-16)
(-19.6145 -0.257945 -2.01672e-16)
(-19.6022 -0.261902 -2.04798e-16)
(-19.5907 -0.26602 -2.11822e-16)
(-19.5798 -0.270304 -2.12929e-16)
(-19.5696 -0.274758 -2.12772e-16)
(-19.5603 -0.279387 -2.15221e-16)
(-19.5517 -0.284198 -2.17997e-16)
(-19.544 -0.289204 -2.21106e-16)
(-19.537 -0.294414 -2.244e-16)
(-19.5308 -0.29984 -2.27886e-16)
(-19.5251 -0.305501 -2.31533e-16)
(-19.5201 -0.311429 -2.35347e-16)
(-19.5157 -0.317656 -2.39717e-16)
(-19.512 -0.324204 -2.39906e-16)
(-19.509 -0.331091 -2.42648e-16)
(-19.5067 -0.338347 -2.50264e-16)
(-19.5052 -0.346013 -2.55409e-16)
(-19.5047 -0.354123 -2.60576e-16)
(-19.5051 -0.362708 -2.66023e-16)
(-19.5063 -0.371807 -2.68856e-16)
(-19.5083 -0.381475 -2.73112e-16)
(-19.511 -0.391781 -2.80628e-16)
(-19.5143 -0.402798 -2.87079e-16)
(-19.5179 -0.414613 -2.93555e-16)
(-19.5215 -0.427348 -3.00142e-16)
(-19.5251 -0.441155 -3.06864e-16)
(-19.5281 -0.456218 -3.12966e-16)
(-19.53 -0.472766 -3.19761e-16)
(-19.5304 -0.491104 -3.25009e-16)
(-19.5282 -0.511634 -3.31878e-16)
(-19.5223 -0.534908 -3.42078e-16)
(-19.5111 -0.561716 -3.50942e-16)
(-19.4926 -0.593185 -3.59191e-16)
(-19.4647 -0.630908 -3.65184e-16)
(-19.4227 -0.677132 -3.74185e-16)
(-19.3541 -0.735974 -3.89163e-16)
(-19.2449 -0.81653 -4.03002e-16)
(-21.6369 0.187944 -3.81693e-17)
(-21.6157 0.18911 -3.86862e-17)
(-21.5986 0.190861 -3.92993e-17)
(-21.5812 0.193098 -4.26806e-17)
(-21.564 0.195728 -4.48808e-17)
(-21.5471 0.19868 -4.43148e-17)
(-21.5305 0.201904 -4.42019e-17)
(-21.5139 0.205357 -4.38968e-17)
(-21.4976 0.209009 -4.56176e-17)
(-21.4814 0.212834 -5.00455e-17)
(-21.4655 0.216809 -5.18877e-17)
(-21.45 0.220919 -5.06502e-17)
(-21.4349 0.225167 -4.94166e-17)
(-21.4204 0.229567 -4.68599e-17)
(-21.4066 0.234141 -5.01995e-17)
(-21.3933 0.238906 -6.23779e-17)
(-21.3808 0.243878 -6.44191e-17)
(-21.369 0.249076 -6.37945e-17)
(-21.358 0.254519 -6.30815e-17)
(-21.3477 0.260226 -6.25369e-17)
(-21.3383 0.266205 -6.20922e-17)
(-21.3295 0.272471 -6.17028e-17)
(-21.3213 0.279035 -6.13497e-17)
(-21.3138 0.285887 -6.10219e-17)
(-21.3068 0.293012 -6.07713e-17)
(-21.3004 0.300403 -6.09148e-17)
(-21.2946 0.308067 -5.84789e-17)
(-21.2895 0.316012 -5.71246e-17)
(-21.285 0.324234 -5.84273e-17)
(-21.2814 0.332728 -5.87859e-17)
(-21.2786 0.341502 -5.90329e-17)
(-21.2766 0.350573 -5.93306e-17)
(-21.2756 0.35995 -5.73601e-17)
(-21.2754 0.369627 -5.61441e-17)
(-21.2759 0.379596 -5.73306e-17)
(-21.2772 0.389848 -5.77677e-17)
(-21.279 0.400355 -5.80127e-17)
(-21.2812 0.411058 -5.82224e-17)
(-21.2837 0.421881 -5.74169e-17)
(-21.2863 0.432735 -5.76436e-17)
(-21.2885 0.443495 -5.89243e-17)
(-21.2901 0.45399 -5.81086e-17)
(-21.2905 0.463966 -5.7679e-17)
(-21.2892 0.47302 -5.87436e-17)
(-21.285 0.480534 -5.73487e-17)
(-21.2772 0.48558 -5.80334e-17)
(-21.2649 0.486789 -5.88034e-17)
(-21.2462 0.48225 -5.8244e-17)
(-21.2162 0.467853 -6.09418e-17)
(-21.1697 0.432665 -6.45585e-17)
(-21.2231 -0.248002 -5.03223e-17)
(-21.21 -0.250778 -5.17198e-17)
(-21.2023 -0.252771 -5.31368e-17)
(-21.1951 -0.254414 -5.60579e-17)
(-21.1885 -0.255802 -5.8303e-17)
(-21.1822 -0.257041 -5.86515e-17)
(-21.1762 -0.258218 -5.93786e-17)
(-21.1704 -0.259405 -6.02914e-17)
(-21.1647 -0.260663 -6.13326e-17)
(-21.1591 -0.262049 -6.37995e-17)
(-21.1537 -0.2636 -6.55214e-17)
(-21.1486 -0.265333 -6.52431e-17)
(-21.1438 -0.267239 -6.50817e-17)
(-21.1395 -0.269304 -6.46699e-17)
(-21.1355 -0.271513 -6.41952e-17)
(-21.1321 -0.273851 -6.52764e-17)
(-21.1292 -0.276295 -6.62442e-17)
(-21.1268 -0.278821 -6.64275e-17)
(-21.1251 -0.281413 -6.61339e-17)
(-21.1239 -0.284064 -6.58359e-17)
(-21.1233 -0.28677 -6.5488e-17)
(-21.1232 -0.289528 -6.50362e-17)
(-21.1235 -0.292349 -6.44379e-17)
(-21.1243 -0.295263 -6.36673e-17)
(-21.1255 -0.298299 -6.26986e-17)
(-21.1271 -0.301477 -6.15838e-17)
(-21.129 -0.304813 -5.92107e-17)
(-21.1314 -0.308335 -5.67277e-17)
(-21.1343 -0.312077 -5.54082e-17)
(-21.1377 -0.316063 -5.39246e-17)
(-21.1418 -0.320306 -5.2034e-17)
(-21.1465 -0.324821 -4.98887e-17)
(-21.1518 -0.329631 -4.57146e-17)
(-21.1577 -0.334768 -4.15841e-17)
(-21.1642 -0.340269 -3.91278e-17)
(-21.171 -0.34619 -3.60501e-17)
(-21.1782 -0.352625 -3.24799e-17)
(-21.1855 -0.359698 -2.84769e-17)
(-21.1928 -0.367547 -2.40459e-17)
(-21.1998 -0.376342 -1.84955e-17)
(-21.2063 -0.386301 -1.30815e-17)
(-21.2118 -0.39771 -6.52052e-18)
(-21.2158 -0.410937 1.97136e-19)
(-21.2177 -0.42646 5.38435e-18)
(-21.2167 -0.444929 1.15326e-17)
(-21.212 -0.467234 1.90525e-17)
(-21.2029 -0.494496 2.78334e-17)
(-21.1881 -0.528074 3.6404e-17)
(-21.166 -0.570298 4.26966e-17)
(-21.1366 -0.627023 4.92949e-17)
(-21.1713 0.155755 3.74579e-17)
(-21.1744 0.155491 3.52616e-17)
(-21.1764 0.156906 3.28871e-17)
(-21.1786 0.159169 2.89321e-17)
(-21.1813 0.162073 2.53071e-17)
(-21.1843 0.165454 2.33326e-17)
(-21.1876 0.169188 2.09227e-17)
(-21.1911 0.173167 1.81752e-17)
(-21.1947 0.177295 1.51585e-17)
(-21.1983 0.181494 1.12697e-17)
(-21.2022 0.185721 7.63805e-18)
(-21.2061 0.189959 5.26456e-18)
(-21.2103 0.194214 3.00485e-18)
(-21.2147 0.198499 3.18387e-19)
(-21.2195 0.20283 -3.00118e-18)
(-21.2245 0.207232 -6.40558e-18)
(-21.2299 0.211739 -9.90977e-18)
(-21.2357 0.216376 -1.24778e-17)
(-21.242 0.221163 -1.46527e-17)
(-21.2486 0.226117 -1.69529e-17)
(-21.2557 0.231255 -1.93005e-17)
(-21.2631 0.236596 -2.16362e-17)
(-21.2709 0.242135 -2.39164e-17)
(-21.279 0.24786 -2.6106e-17)
(-21.2873 0.253758 -2.8181e-17)
(-21.2959 0.259818 -3.01953e-17)
(-21.3048 0.266022 -3.10911e-17)
(-21.314 0.272334 -3.19229e-17)
(-21.3237 0.278715 -3.38721e-17)
(-21.3338 0.285134 -3.56839e-17)
(-21.3445 0.291564 -3.7091e-17)
(-21.3558 0.297969 -3.82311e-17)
(-21.3677 0.304301 -3.81041e-17)
(-21.3801 0.310499 -3.75977e-17)
(-21.3932 0.31649 -3.80189e-17)
(-21.4067 0.322152 -3.82914e-17)
(-21.4208 0.327307 -3.80525e-17)
(-21.4352 0.33173 -3.74632e-17)
(-21.4499 0.335169 -3.49426e-17)
(-21.4648 0.337313 -3.3178e-17)
(-21.4796 0.337773 -3.26284e-17)
(-21.4941 0.336037 -2.94396e-17)
(-21.508 0.331454 -2.56087e-17)
(-21.521 0.323274 -2.26988e-17)
(-21.5324 0.310537 -1.87234e-17)
(-21.5418 0.29197 -1.49368e-17)
(-21.5487 0.266072 -9.97919e-18)
(-21.5525 0.231143 -4.09165e-18)
(-21.5526 0.184758 3.50896e-19)
(-21.55 0.12376 6.06176e-18)
(-20.6893 -0.226752 1.09456e-16)
(-20.6983 -0.228572 1.09841e-16)
(-20.7086 -0.229308 1.10182e-16)
(-20.7203 -0.229512 1.09021e-16)
(-20.7326 -0.229275 1.08096e-16)
(-20.7454 -0.228726 1.08812e-16)
(-20.7584 -0.227992 1.09207e-16)
(-20.7716 -0.227193 1.09249e-16)
(-20.7847 -0.226434 1.09093e-16)
(-20.7979 -0.225795 1.07917e-16)
(-20.811 -0.225318 1.06647e-16)
(-20.824 -0.225015 1.06617e-16)
(-20.8371 -0.224884 1.06819e-16)
(-20.8503 -0.224918 1.0688e-16)
(-20.8635 -0.225091 1.0687e-16)
(-20.8769 -0.225373 1.05548e-16)
(-20.8903 -0.225727 1.0397e-16)
(-20.904 -0.226129 1.03815e-16)
(-20.9179 -0.226554 1.03592e-16)
(-20.9321 -0.226966 1.03116e-16)
(-20.9464 -0.22732 1.02462e-16)
(-20.9609 -0.227577 1.01682e-16)
(-20.9756 -0.227718 1.00811e-16)
(-20.9903 -0.227733 9.98731e-17)
(-21.0052 -0.227628 9.88803e-17)
(-21.0202 -0.227397 9.77577e-17)
(-21.0353 -0.227054 9.8062e-17)
(-21.0506 -0.226627 9.80866e-17)
(-21.0662 -0.226143 9.63761e-17)
(-21.0821 -0.225614 9.48714e-17)
(-21.0984 -0.225047 9.35981e-17)
(-21.1151 -0.224453 9.24285e-17)
(-21.1323 -0.223851 9.23669e-17)
(-21.15 -0.223257 9.23961e-17)
(-21.168 -0.222718 9.12138e-17)
(-21.1866 -0.222319 9.00081e-17)
(-21.2056 -0.222167 8.90955e-17)
(-21.2249 -0.222392 8.84204e-17)
(-21.2447 -0.223173 8.80269e-17)
(-21.2646 -0.224739 8.86414e-17)
(-21.2847 -0.227385 8.89703e-17)
(-21.3048 -0.231499 9.00959e-17)
(-21.3247 -0.237687 9.12896e-17)
(-21.3442 -0.24666 9.09265e-17)
(-21.3632 -0.259301 9.12738e-17)
(-21.3813 -0.276778 9.27915e-17)
(-21.3984 -0.300575 9.53637e-17)
(-21.4146 -0.332376 9.77859e-17)
(-21.4297 -0.374684 9.85351e-17)
(-21.4449 -0.430403 9.89013e-17)
(-20.4199 0.14868 4.23216e-17)
(-20.4466 0.148566 4.33659e-17)
(-20.4657 0.149814 4.44705e-17)
(-20.4853 0.15177 4.40762e-17)
(-20.5052 0.154306 4.40765e-17)
(-20.5254 0.157284 4.59172e-17)
(-20.5458 0.160575 4.74506e-17)
(-20.5662 0.164048 4.87195e-17)
(-20.5866 0.167589 4.98752e-17)
(-20.6068 0.171117 4.99258e-17)
(-20.6268 0.17458 5.0025e-17)
(-20.6466 0.177946 5.14949e-17)
(-20.6662 0.181221 5.3159e-17)
(-20.6857 0.18441 5.46682e-17)
(-20.7052 0.187526 5.62779e-17)
(-20.7245 0.190597 5.60885e-17)
(-20.7439 0.193632 5.63751e-17)
(-20.7633 0.196645 5.83021e-17)
(-20.7827 0.199658 5.98927e-17)
(-20.8023 0.202708 6.12706e-17)
(-20.8218 0.205834 6.25108e-17)
(-20.8413 0.20906 6.36599e-17)
(-20.8609 0.212392 6.47476e-17)
(-20.8804 0.215845 6.57923e-17)
(-20.8999 0.219445 6.68036e-17)
(-20.9194 0.22318 6.77075e-17)
(-20.9389 0.227012 7.00634e-17)
(-20.9585 0.230893 7.19572e-17)
(-20.9782 0.234779 7.20282e-17)
(-20.9982 0.238637 7.23802e-17)
(-21.0185 0.242428 7.28973e-17)
(-21.0391 0.246103 7.34235e-17)
(-21.06 0.24961 7.54665e-17)
(-21.0814 0.252883 7.73081e-17)
(-21.1031 0.255815 7.74386e-17)
(-21.1252 0.258253 7.77552e-17)
(-21.1477 0.260009 7.8268e-17)
(-21.1707 0.260849 7.88007e-17)
(-21.1941 0.260497 8.08734e-17)
(-21.2178 0.25859 8.20336e-17)
(-21.2419 0.254627 8.17413e-17)
(-21.2662 0.248014 8.41742e-17)
(-21.2907 0.238193 8.65334e-17)
(-21.3152 0.224389 8.71334e-17)
(-21.3397 0.205826 8.9479e-17)
(-21.3643 0.181455 9.07195e-17)
(-21.3889 0.150129 9.23034e-17)
(-21.414 0.110431 9.53686e-17)
(-21.44 0.0608441 9.6999e-17)
(-21.4682 -0.000659784 9.81411e-17)
(-19.9396 -0.158628 -5.5645e-18)
(-19.966 -0.158386 -5.31029e-18)
(-19.9899 -0.15752 -4.94315e-18)
(-20.0156 -0.156295 -6.04971e-18)
(-20.042 -0.154709 -6.94915e-18)
(-20.0689 -0.152839 -5.99936e-18)
(-20.096 -0.150777 -5.14094e-18)
(-20.1231 -0.14862 -4.4394e-18)
(-20.1502 -0.146455 -3.77507e-18)
(-20.1772 -0.144338 -4.27184e-18)
(-20.2039 -0.142307 -4.95031e-18)
(-20.2304 -0.140383 -4.24801e-18)
(-20.2566 -0.138603 -3.16277e-18)
(-20.2826 -0.136974 -2.16736e-18)
(-20.3083 -0.135489 -1.26711e-18)
(-20.3338 -0.134133 -1.19274e-18)
(-20.359 -0.13289 -1.28809e-18)
(-20.3841 -0.131732 -8.72841e-20)
(-20.4091 -0.130611 1.32855e-18)
(-20.4338 -0.129463 2.5586e-18)
(-20.4583 -0.128227 3.67895e-18)
(-20.4826 -0.126856 4.73713e-18)
(-20.5067 -0.1253 5.76265e-18)
(-20.5306 -0.123509 6.7736e-18)
(-20.5542 -0.121446 7.77915e-18)
(-20.5776 -0.119098 8.70332e-18)
(-20.6008 -0.116472 1.11215e-17)
(-20.624 -0.113577 1.30862e-17)
(-20.6471 -0.110417 1.32111e-17)
(-20.6703 -0.107001 1.36399e-17)
(-20.6936 -0.103349 1.42659e-17)
(-20.717 -0.099479 1.49443e-17)
(-20.7406 -0.0954151 1.72511e-17)
(-20.7645 -0.0912116 1.92409e-17)
(-20.7886 -0.0869618 1.94159e-17)
(-20.8131 -0.0827862 1.98887e-17)
(-20.838 -0.0788351 2.05788e-17)
(-20.8633 -0.0753021 2.14008e-17)
(-20.8891 -0.072439 2.23735e-17)
(-20.9154 -0.0705637 2.35382e-17)
(-20.9422 -0.0700917 2.53291e-17)
(-20.9697 -0.071537 2.83694e-17)
(-20.9978 -0.0754771 3.03034e-17)
(-21.0266 -0.0825464 3.13029e-17)
(-21.0561 -0.0937276 3.24653e-17)
(-21.0862 -0.11014 3.29395e-17)
(-21.1174 -0.132977 3.53795e-17)
(-21.15 -0.163655 3.80601e-17)
(-21.1846 -0.203602 3.90432e-17)
(-21.2223 -0.254416 3.94578e-17)
(-19.5242 0.161234 -2.40021e-17)
(-19.5678 0.161494 -2.43555e-17)
(-19.5986 0.162474 -2.45957e-17)
(-19.6298 0.163848 -2.59462e-17)
(-19.6612 0.16557 -2.72816e-17)
(-19.6929 0.167576 -2.71278e-17)
(-19.7246 0.169796 -2.67761e-17)
(-19.7564 0.172155 -2.65602e-17)
(-19.788 0.174584 -2.64071e-17)
(-19.8193 0.177023 -2.74063e-17)
(-19.8502 0.179413 -2.87148e-17)
(-19.8807 0.181699 -2.85772e-17)
(-19.9108 0.183837 -2.81573e-17)
(-19.9405 0.185797 -2.81954e-17)
(-19.9698 0.187573 -2.80042e-17)
(-19.9987 0.189162 -2.92822e-17)
(-20.0272 0.190571 -3.01486e-17)
(-20.0554 0.191826 -2.90952e-17)
(-20.0833 0.192969 -2.8352e-17)
(-20.1108 0.194056 -2.77903e-17)
(-20.1379 0.195138 -2.73335e-17)
(-20.1646 0.196262 -2.69325e-17)
(-20.1909 0.197479 -2.65584e-17)
(-20.2168 0.198841 -2.61945e-17)
(-20.2423 0.200381 -2.58341e-17)
(-20.2675 0.202111 -2.55586e-17)
(-20.2924 0.204027 -2.37707e-17)
(-20.3171 0.206122 -2.221e-17)
(-20.3417 0.208381 -2.24032e-17)
(-20.3661 0.210774 -2.23916e-17)
(-20.3906 0.213259 -2.21293e-17)
(-20.415 0.215793 -2.17695e-17)
(-20.4395 0.218313 -1.97458e-17)
(-20.4642 0.220731 -1.80531e-17)
(-20.489 0.222936 -1.81639e-17)
(-20.5141 0.224793 -1.7921e-17)
(-20.5394 0.22614 -1.74459e-17)
(-20.5652 0.22677 -1.68254e-17)
(-20.5913 0.226394 -1.61886e-17)
(-20.618 0.224646 -1.31866e-17)
(-20.6454 0.22111 -1.18847e-17)
(-20.6735 0.215295 -1.15493e-17)
(-20.7023 0.20655 -8.8085e-18)
(-20.7321 0.194105 -8.45483e-18)
(-20.763 0.177046 -8.68306e-18)
(-20.7951 0.154504 -7.29511e-18)
(-20.8285 0.125431 -5.09758e-18)
(-20.8641 0.088826 -2.31731e-18)
(-20.9025 0.0434086 -1.30436e-18)
(-20.9447 -0.0121477 -1.31326e-18)
(-18.9366 -0.0568934 -1.69421e-17)
(-18.9748 -0.0553318 -1.72725e-17)
(-19.0078 -0.0533899 -1.74884e-17)
(-19.0429 -0.0513142 -1.92164e-17)
(-19.0786 -0.0491049 -2.0878e-17)
(-19.1146 -0.0467765 -2.07141e-17)
(-19.1507 -0.0443535 -2.05067e-17)
(-19.1866 -0.0418648 -2.04455e-17)
(-19.2224 -0.0393472 -2.03855e-17)
(-19.2577 -0.0368415 -2.20008e-17)
(-19.2925 -0.0344048 -2.34769e-17)
(-19.3269 -0.0320952 -2.30251e-17)
(-19.3608 -0.0299546 -2.28134e-17)
(-19.3941 -0.0280055 -2.28486e-17)
(-19.4268 -0.0262526 -2.27006e-17)
(-19.4591 -0.0246943 -2.39378e-17)
(-19.4908 -0.023315 -2.50252e-17)
(-19.522 -0.0220763 -2.44714e-17)
(-19.5526 -0.0209155 -2.39583e-17)
(-19.5827 -0.0197625 -2.36406e-17)
(-19.6122 -0.018549 -2.34352e-17)
(-19.6412 -0.0172041 -2.32888e-17)
(-19.6695 -0.0156509 -2.31674e-17)
(-19.6972 -0.0138148 -2.30509e-17)
(-19.7244 -0.011637 -2.29308e-17)
(-19.7511 -0.00907884 -2.28937e-17)
(-19.7774 -0.00611415 -2.12911e-17)
(-19.8033 -0.00272575 -1.99798e-17)
(-19.829 0.00108502 -2.05013e-17)
(-19.8544 0.00529355 -2.07718e-17)
(-19.8797 0.0098603 -2.07945e-17)
(-19.9049 0.0147357 -2.0728e-17)
(-19.93 0.0198566 -1.95229e-17)
(-19.9552 0.0251485 -1.80948e-17)
(-19.9803 0.0305261 -1.7916e-17)
(-20.0057 0.0358801 -1.78833e-17)
(-20.0312 0.0410634 -1.7578e-17)
(-20.0571 0.0458773 -1.71781e-17)
(-20.0833 0.0500326 -1.56681e-17)
(-20.1102 0.0531612 -1.48689e-17)
(-20.1377 0.0548499 -1.50921e-17)
(-20.1661 0.0546005 -1.33292e-17)
(-20.1955 0.0518863 -1.13197e-17)
(-20.2261 0.0459658 -1.06421e-17)
(-20.258 0.036055 -8.5405e-18)
(-20.2917 0.021353 -7.8104e-18)
(-20.3273 0.000925297 -7.02952e-18)
(-20.3648 -0.0263096 -4.78233e-18)
(-20.4055 -0.0614799 -4.22726e-18)
(-20.4503 -0.105764 -3.19114e-18)
(-18.3311 0.189688 -1.78734e-17)
(-18.383 0.191123 -1.80699e-17)
(-18.4197 0.192386 -1.82316e-17)
(-18.4568 0.193565 -1.99299e-17)
(-18.4938 0.194741 -2.15587e-17)
(-18.5308 0.195955 -2.13215e-17)
(-18.5678 0.19722 -2.10574e-17)
(-18.6045 0.198539 -2.09749e-17)
(-18.6409 0.199889 -2.08436e-17)
(-18.677 0.201226 -2.21638e-17)
(-18.7125 0.20249 -2.35037e-17)
(-18.7475 0.203619 -2.31945e-17)
(-18.7819 0.204565 -2.2954e-17)
(-18.8158 0.205302 -2.28693e-17)
(-18.8491 0.205806 -2.28035e-17)
(-18.8817 0.206064 -2.42056e-17)
(-18.9138 0.206076 -2.54544e-17)
(-18.9453 0.205874 -2.50325e-17)
(-18.9761 0.20551 -2.46967e-17)
(-19.0062 0.205039 -2.45913e-17)
(-19.0356 0.204519 -2.4633e-17)
(-19.0643 0.204013 -2.47693e-17)
(-19.0924 0.203602 -2.49664e-17)
(-19.1197 0.203361 -2.52043e-17)
(-19.1463 0.203353 -2.54728e-17)
(-19.1723 0.203627 -2.58553e-17)
(-19.1979 0.204233 -2.46359e-17)
(-19.223 0.205205 -2.38202e-17)
(-19.2477 0.20655 -2.4964e-17)
(-19.2723 0.208241 -2.58428e-17)
(-19.2966 0.210228 -2.64992e-17)
(-19.3207 0.212446 -2.70942e-17)
(-19.3447 0.214815 -2.59397e-17)
(-19.3686 0.217249 -2.51643e-17)
(-19.3925 0.219672 -2.63502e-17)
(-19.4164 0.221996 -2.71781e-17)
(-19.4404 0.22409 -2.77672e-17)
(-19.4647 0.225738 -2.82318e-17)
(-19.4893 0.22664 -2.85273e-17)
(-19.5145 0.226469 -2.78381e-17)
(-19.5405 0.224804 -2.76861e-17)
(-19.5673 0.22115 -2.71504e-17)
(-19.5951 0.214915 -2.64126e-17)
(-19.6242 0.205434 -2.73903e-17)
(-19.6548 0.19203 -2.80973e-17)
(-19.6871 0.173739 -2.77881e-17)
(-19.7216 0.149703 -2.65618e-17)
(-19.7584 0.118934 -2.56363e-17)
(-19.7979 0.080606 -2.69766e-17)
(-19.8414 0.0336543 -2.91333e-17)
(-17.5669 0.0546731 -6.08366e-19)
(-17.6085 0.057225 -5.14942e-19)
(-17.6431 0.0596737 -4.06708e-19)
(-17.6796 0.06199 -1.88117e-18)
(-17.7163 0.064169 -3.12508e-18)
(-17.7532 0.0662458 -2.43915e-18)
(-17.7899 0.0682496 -1.76925e-18)
(-17.8264 0.0701936 -1.25876e-18)
(-17.8626 0.0720748 -7.30149e-19)
(-17.8984 0.0738651 -2.10695e-18)
(-17.9336 0.0755247 -3.15207e-18)
(-17.9683 0.0770177 -2.12231e-18)
(-18.0025 0.0783203 -1.34828e-18)
(-18.036 0.0794165 -7.66238e-19)
(-18.069 0.0802865 -2.02267e-19)
(-18.1013 0.0809185 -1.12668e-18)
(-18.1329 0.0813257 -1.87863e-18)
(-18.1639 0.0815504 -8.68899e-19)
(-18.1941 0.081648 8.41655e-20)
(-18.2236 0.0816748 8.21341e-19)
(-18.2523 0.0816965 1.43089e-18)
(-18.2802 0.0817991 1.969e-18)
(-18.3074 0.0820795 2.47267e-18)
(-18.3337 0.0826268 2.96734e-18)
(-18.3593 0.0835204 3.46936e-18)
(-18.3842 0.084842 3.90182e-18)
(-18.4085 0.0866737 5.75135e-18)
(-18.4324 0.0890744 7.31241e-18)
(-18.456 0.0920621 7.07787e-18)
(-18.4793 0.0956187 6.97846e-18)
(-18.5024 0.0997014 7.11022e-18)
(-18.5253 0.104244 7.28706e-18)
(-18.5482 0.109153 9.25377e-18)
(-18.5708 0.114309 1.08744e-17)
(-18.5934 0.119594 1.04863e-17)
(-18.6159 0.124912 1.04177e-17)
(-18.6384 0.13017 1.05715e-17)
(-18.6611 0.135178 1.07374e-17)
(-18.6842 0.13967 1.2372e-17)
(-18.7078 0.143331 1.30133e-17)
(-18.732 0.145726 1.20581e-17)
(-18.7572 0.146472 1.37344e-17)
(-18.7834 0.144951 1.54172e-17)
(-18.8108 0.140583 1.51352e-17)
(-18.8398 0.132766 1.62498e-17)
(-18.8705 0.120751 1.60075e-17)
(-18.9032 0.103682 1.58659e-17)
(-18.9386 0.0807311 1.73756e-17)
(-18.9771 0.0510643 1.7165e-17)
(-19.0186 0.0136944 1.51608e-17)
(-16.7203 0.226199 -1.74052e-17)
(-16.7682 0.228974 -1.76716e-17)
(-16.8021 0.230892 -1.78226e-17)
(-16.8363 0.232404 -1.9601e-17)
(-16.8702 0.23363 -2.12571e-17)
(-16.904 0.234637 -2.09253e-17)
(-16.9375 0.235472 -2.06235e-17)
(-16.9707 0.236157 -2.05597e-17)
(-17.0035 0.236704 -2.05421e-17)
(-17.0359 0.237102 -2.21333e-17)
(-17.0678 0.237335 -2.35517e-17)
(-17.0992 0.237383 -2.31019e-17)
(-17.1299 0.237236 -2.27409e-17)
(-17.1601 0.236873 -2.26072e-17)
(-17.1897 0.236263 -2.25101e-17)
(-17.2187 0.235385 -2.39789e-17)
(-17.247 0.234245 -2.52605e-17)
(-17.2747 0.23287 -2.46767e-17)
(-17.3016 0.231289 -2.41527e-17)
(-17.3277 0.229544 -2.38445e-17)
(-17.3531 0.227697 -2.36506e-17)
(-17.3776 0.225835 -2.35045e-17)
(-17.4013 0.224053 -2.33608e-17)
(-17.4243 0.222441 -2.31888e-17)
(-17.4464 0.221097 -2.29702e-17)
(-17.4679 0.220131 -2.27931e-17)
(-17.4889 0.219641 -2.11038e-17)
(-17.5094 0.219692 -1.95839e-17)
(-17.5296 0.220303 -1.98266e-17)
(-17.5496 0.221462 -1.99018e-17)
(-17.5696 0.223138 -1.96492e-17)
(-17.5895 0.22528 -1.92585e-17)
(-17.6094 0.227803 -1.72069e-17)
(-17.6292 0.230598 -1.52077e-17)
(-17.6489 0.233524 -1.49308e-17)
(-17.6686 0.236445 -1.4445e-17)
(-17.6882 0.239239 -1.36074e-17)
(-17.7079 0.241754 -1.2542e-17)
(-17.728 0.243786 -1.1218e-17)
(-17.7486 0.244999 -8.73461e-18)
(-17.7699 0.245032 -6.75163e-18)
(-17.792 0.243429 -4.26664e-18)
(-17.8151 0.239669 -1.49147e-18)
(-17.8393 0.233214 -5.64293e-19)
(-17.8648 0.223344 6.66281e-19)
(-17.8919 0.209491 3.0007e-18)
(-17.9208 0.190875 6.67233e-18)
(-17.9518 0.166721 9.62673e-18)
(-17.9859 0.13608 9.23366e-18)
(-18.0234 0.0980637 8.62505e-18)
(-15.7331 0.150625 -1.69947e-17)
(-15.7662 0.153976 -1.70835e-17)
(-15.7931 0.156746 -1.71422e-17)
(-15.8212 0.159174 -1.88856e-17)
(-15.8493 0.161224 -2.04048e-17)
(-15.8773 0.162921 -1.98335e-17)
(-15.905 0.164298 -1.93299e-17)
(-15.9324 0.16539 -1.90951e-17)
(-15.9594 0.166222 -1.89394e-17)
(-15.986 0.166811 -2.04869e-17)
(-16.0121 0.16717 -2.1863e-17)
(-16.0377 0.167314 -2.13243e-17)
(-16.0627 0.167247 -2.0928e-17)
(-16.0872 0.166956 -2.08403e-17)
(-16.1113 0.166419 -2.08573e-17)
(-16.1348 0.165631 -2.25977e-17)
(-16.1577 0.164609 -2.42354e-17)
(-16.18 0.163377 -2.39591e-17)
(-16.2017 0.161962 -2.38251e-17)
(-16.2227 0.16041 -2.4009e-17)
(-16.243 0.158793 -2.44093e-17)
(-16.2625 0.157209 -2.496e-17)
(-16.2813 0.155763 -2.56209e-17)
(-16.2993 0.154572 -2.63657e-17)
(-16.3167 0.153772 -2.7181e-17)
(-16.3334 0.153508 -2.81624e-17)
(-16.3497 0.153904 -2.76197e-17)
(-16.3657 0.155029 -2.73609e-17)
(-16.3816 0.156895 -2.91288e-17)
(-16.3976 0.15948 -3.08487e-17)
(-16.4136 0.162728 -3.23303e-17)
(-16.4298 0.166559 -3.37705e-17)
(-16.4461 0.170878 -3.35486e-17)
(-16.4625 0.175595 -3.34504e-17)
(-16.479 0.180623 -3.52659e-17)
(-16.4954 0.185827 -3.69629e-17)
(-16.5119 0.190993 -3.8367e-17)
(-16.5285 0.195945 -3.97011e-17)
(-16.5454 0.200548 -3.93316e-17)
(-16.5628 0.204458 -3.99703e-17)
(-16.5807 0.207447 -4.2281e-17)
(-16.5995 0.209003 -4.15168e-17)
(-16.6193 0.208679 -4.05816e-17)
(-16.64 0.205959 -4.16484e-17)
(-16.6619 0.200259 -4.09028e-17)
(-16.6852 0.190927 -4.12364e-17)
(-16.7099 0.177374 -4.10056e-17)
(-16.7365 0.158952 -3.86508e-17)
(-16.7656 0.134832 -3.81187e-17)
(-16.7979 0.104102 -3.75627e-17)
(-14.6193 0.256234 2.78201e-17)
(-14.6488 0.260006 2.88797e-17)
(-14.6691 0.262485 3.01121e-17)
(-14.6894 0.264392 2.96472e-17)
(-14.7094 0.265807 2.9537e-17)
(-14.7291 0.266792 3.17108e-17)
(-14.7484 0.267388 3.38281e-17)
(-14.7673 0.267641 3.56799e-17)
(-14.7858 0.267586 3.74843e-17)
(-14.8038 0.267253 3.75085e-17)
(-14.8213 0.266666 3.77344e-17)
(-14.8383 0.265846 4.00613e-17)
(-14.8549 0.264791 4.22591e-17)
(-14.871 0.263483 4.41236e-17)
(-14.8867 0.261909 4.5858e-17)
(-14.9019 0.260068 4.56847e-17)
(-14.9167 0.257972 4.55924e-17)
(-14.931 0.255628 4.75131e-17)
(-14.9448 0.253046 4.91759e-17)
(-14.9581 0.250259 5.03799e-17)
(-14.9707 0.247331 5.12041e-17)
(-14.9827 0.244349 5.16982e-17)
(-14.994 0.241423 5.18728e-17)
(-15.0046 0.23869 5.17321e-17)
(-15.0147 0.236328 5.12496e-17)
(-15.0242 0.234521 5.02975e-17)
(-15.0335 0.233421 5.06831e-17)
(-15.0426 0.233117 5.04052e-17)
(-15.052 0.233632 4.75331e-17)
(-15.0616 0.234909 4.43079e-17)
(-15.0717 0.236813 4.08936e-17)
(-15.0823 0.239183 3.70539e-17)
(-15.0932 0.241903 3.45361e-17)
(-15.1045 0.244921 3.13872e-17)
(-15.1159 0.248229 2.56012e-17)
(-15.1275 0.25176 1.93382e-17)
(-15.1392 0.255311 1.28045e-17)
(-15.151 0.258691 5.83207e-18)
(-15.1632 0.261717 -1.53763e-18)
(-15.1758 0.264147 -8.26977e-18)
(-15.1891 0.265637 -1.62638e-17)
(-15.2031 0.265791 -2.43154e-17)
(-15.2179 0.264183 -3.26173e-17)
(-15.2337 0.260232 -4.35624e-17)
(-15.2504 0.253462 -5.45383e-17)
(-15.2683 0.243216 -6.44277e-17)
(-15.2872 0.228926 -7.27306e-17)
(-15.3077 0.209977 -8.15494e-17)
(-15.3302 0.185762 -9.3555e-17)
(-15.3552 0.15556 -1.04894e-16)
(-13.36 0.208989 1.62096e-16)
(-13.3702 0.2127 1.64562e-16)
(-13.3783 0.215347 1.67317e-16)
(-13.3869 0.217506 1.68343e-16)
(-13.3952 0.219134 1.69729e-16)
(-13.4033 0.220266 1.73706e-16)
(-13.411 0.220946 1.77889e-16)
(-13.4182 0.221218 1.82003e-16)
(-13.425 0.221124 1.86299e-16)
(-13.4312 0.220694 1.88917e-16)
(-13.437 0.219958 1.92104e-16)
(-13.4424 0.218934 1.97931e-16)
(-13.4473 0.217623 2.0396e-16)
(-13.4519 0.216021 2.10008e-16)
(-13.4563 0.21414 2.16323e-16)
(-13.4603 0.212003 2.20937e-16)
(-13.4641 0.209634 2.26133e-16)
(-13.4676 0.207042 2.34078e-16)
(-13.4708 0.204245 2.42236e-16)
(-13.4737 0.201287 2.50425e-16)
(-13.4761 0.198242 2.58788e-16)
(-13.4781 0.195205 2.67411e-16)
(-13.4796 0.192303 2.76372e-16)
(-13.4806 0.189719 2.85709e-16)
(-13.4812 0.187679 2.95464e-16)
(-13.4814 0.18641 3.05522e-16)
(-13.4814 0.186107 3.17899e-16)
(-13.4818 0.186904 3.30618e-16)
(-13.4827 0.188815 3.41511e-16)
(-13.4845 0.191691 3.52898e-16)
(-13.4872 0.195239 3.65136e-16)
(-13.4909 0.199163 3.77988e-16)
(-13.4953 0.203289 3.93506e-16)
(-13.5003 0.207604 4.09511e-16)
(-13.5055 0.212177 4.23803e-16)
(-13.5111 0.217046 4.38893e-16)
(-13.5169 0.22219 4.54982e-16)
(-13.5229 0.227486 4.71751e-16)
(-13.5293 0.232587 4.91128e-16)
(-13.5361 0.237368 5.09713e-16)
(-13.5435 0.241334 5.26507e-16)
(-13.5516 0.244153 5.47028e-16)
(-13.5605 0.245355 5.67486e-16)
(-13.5702 0.244482 5.8491e-16)
(-13.5807 0.240922 6.03503e-16)
(-13.5921 0.234138 6.1939e-16)
(-13.6044 0.223559 6.33817e-16)
(-13.618 0.208587 6.47852e-16)
(-13.6335 0.188738 6.5599e-16)
(-13.6511 0.163602 6.58398e-16)
(-11.9321 0.258589 -4.08331e-16)
(-11.9282 0.262503 -4.2252e-16)
(-11.9233 0.264758 -4.37449e-16)
(-11.9179 0.266387 -4.55335e-16)
(-11.912 0.267483 -4.73954e-16)
(-11.9057 0.268129 -4.90846e-16)
(-11.899 0.268383 -5.08695e-16)
(-11.8918 0.268286 -5.27872e-16)
(-11.8841 0.267862 -5.48112e-16)
(-11.8759 0.267129 -5.71536e-16)
(-11.8672 0.266103 -5.95636e-16)
(-11.8582 0.26479 -6.18024e-16)
(-11.8488 0.263185 -6.41293e-16)
(-11.8392 0.261291 -6.6567e-16)
(-11.8296 0.259129 -6.9073e-16)
(-11.8198 0.256723 -7.18586e-16)
(-11.8099 0.254082 -7.46578e-16)
(-11.8 0.251207 -7.72149e-16)
(-11.79 0.248112 -7.97964e-16)
(-11.78 0.244835 -8.24185e-16)
(-11.7698 0.241423 -8.50532e-16)
(-11.7594 0.237949 -8.76839e-16)
(-11.7486 0.234541 -9.02908e-16)
(-11.7375 0.231394 -9.28618e-16)
(-11.726 0.228747 -9.53783e-16)
(-11.7143 0.226877 -9.7847e-16)
(-11.7026 0.226073 -1.0007e-15)
(-11.6916 0.226553 -1.02217e-15)
(-11.6816 0.22833 -1.04518e-15)
(-11.6733 0.23113 -1.06779e-15)
(-11.6668 0.234467 -1.0894e-15)
(-11.6618 0.237844 -1.11042e-15)
(-11.658 0.240944 -1.12852e-15)
(-11.6549 0.243787 -1.14634e-15)
(-11.652 0.246641 -1.16641e-15)
(-11.6493 0.249786 -1.18589e-15)
(-11.6468 0.253433 -1.20454e-15)
(-11.6445 0.257595 -1.22234e-15)
(-11.6427 0.261912 -1.2392e-15)
(-11.6413 0.266074 -1.25362e-15)
(-11.6405 0.269628 -1.26753e-15)
(-11.6404 0.27218 -1.27899e-15)
(-11.641 0.273125 -1.28808e-15)
(-11.6423 0.272047 -1.29726e-15)
(-11.6444 0.26826 -1.30281e-15)
(-11.6473 0.261216 -1.30291e-15)
(-11.651 0.250346 -1.29712e-15)
(-11.6556 0.235143 -1.28689e-15)
(-11.662 0.215275 -1.27453e-15)
(-11.6704 0.190555 -1.25479e-15)
(-10.2996 0.20964 3.13322e-16)
(-10.2708 0.212657 3.36269e-16)
(-10.2481 0.214256 3.61089e-16)
(-10.2247 0.215413 3.856e-16)
(-10.2009 0.216149 4.1185e-16)
(-10.1766 0.216518 4.42439e-16)
(-10.1519 0.216556 4.75071e-16)
(-10.1267 0.216276 5.08956e-16)
(-10.101 0.21568 5.44365e-16)
(-10.0747 0.214776 5.79274e-16)
(-10.0481 0.213569 6.15567e-16)
(-10.0212 0.212052 6.55839e-16)
(-9.99414 0.210214 6.97563e-16)
(-9.96702 0.208063 7.39925e-16)
(-9.93995 0.205621 7.82991e-16)
(-9.91304 0.202902 8.24029e-16)
(-9.88638 0.199907 8.65438e-16)
(-9.86003 0.196642 9.10021e-16)
(-9.83401 0.193129 9.54286e-16)
(-9.80831 0.189386 9.97562e-16)
(-9.78286 0.185442 1.03963e-15)
(-9.75753 0.181372 1.08028e-15)
(-9.73214 0.177322 1.11919e-15)
(-9.70656 0.173516 1.15615e-15)
(-9.68071 0.170285 1.19081e-15)
(-9.65467 0.168083 1.22284e-15)
(-9.62883 0.167421 1.25446e-15)
(-9.60387 0.168735 1.28334e-15)
(-9.58073 0.172163 1.30653e-15)
(-9.56026 0.17732 1.32698e-15)
(-9.54277 0.18329 1.34522e-15)
(-9.52789 0.189 1.36105e-15)
(-9.51463 0.193759 1.37663e-15)
(-9.50187 0.197667 1.38961e-15)
(-9.48895 0.201355 1.39633e-15)
(-9.47574 0.205561 1.3998e-15)
(-9.46233 0.210769 1.40044e-15)
(-9.44908 0.217065 1.3979e-15)
(-9.43624 0.224326 1.39468e-15)
(-9.42392 0.231938 1.38628e-15)
(-9.41218 0.239466 1.37166e-15)
(-9.40118 0.246232 1.35784e-15)
(-9.39096 0.251578 1.34055e-15)
(-9.38152 0.254687 1.31624e-15)
(-9.37304 0.254868 1.29037e-15)
(-9.36539 0.251436 1.25908e-15)
(-9.35849 0.243803 1.22506e-15)
(-9.35261 0.23158 1.19023e-15)
(-9.34845 0.214715 1.14799e-15)
(-9.34601 0.193378 1.10188e-15)
(-8.3741 0.20817 1.63557e-16)
(-8.32026 0.210128 1.55393e-16)
(-8.27709 0.210729 1.46273e-16)
(-8.23225 0.21107 1.33314e-16)
(-8.18694 0.211198 1.19213e-16)
(-8.1412 0.211139 1.07504e-16)
(-8.09502 0.210882 9.4897e-17)
(-8.04839 0.210403 8.07315e-17)
(-8.00131 0.209691 6.53263e-17)
(-7.95383 0.208744 4.59026e-17)
(-7.90606 0.207548 2.5317e-17)
(-7.85815 0.206073 7.23291e-18)
(-7.81029 0.204298 -1.15757e-17)
(-7.76266 0.202218 -3.1766e-17)
(-7.71543 0.199832 -5.27754e-17)
(-7.66876 0.197129 -7.74263e-17)
(-7.62281 0.194108 -1.02524e-16)
(-7.57769 0.19078 -1.23989e-16)
(-7.53345 0.18715 -1.45109e-16)
(-7.4901 0.183224 -1.66318e-16)
(-7.4475 0.179044 -1.8716e-16)
(-7.40538 0.174717 -2.07118e-16)
(-7.36341 0.170427 -2.25855e-16)
(-7.32116 0.166501 -2.42933e-16)
(-7.27828 0.163453 -2.58111e-16)
(-7.23465 0.161962 -2.71306e-16)
(-7.19062 0.162784 -2.79283e-16)
(-7.14723 0.166568 -2.84816e-16)
(-7.10623 0.173497 -2.91957e-16)
(-7.06954 0.182754 -2.97185e-16)
(-7.03811 0.192304 -2.99602e-16)
(-7.01116 0.19993 -2.99619e-16)
(-6.98631 0.204527 -2.93542e-16)
(-6.96108 0.206734 -2.84354e-16)
(-6.93406 0.208209 -2.75692e-16)
(-6.90515 0.210646 -2.64217e-16)
(-6.87491 0.214973 -2.48708e-16)
(-6.84399 0.22117 -2.29983e-16)
(-6.81305 0.229084 -2.08054e-16)
(-6.78254 0.237827 -1.81089e-16)
(-6.75272 0.24661 -1.53193e-16)
(-6.7238 0.254323 -1.22866e-16)
(-6.69612 0.260209 -8.98041e-17)
(-6.66975 0.263153 -5.94206e-17)
(-6.64489 0.262267 -2.83646e-17)
(-6.62147 0.256853 6.15512e-18)
(-6.59938 0.246468 4.4242e-17)