/*--------------------------------*- C++ -*----------------------------------*\
  =========                 |
  \\      /  F ield         | OpenFOAM: The Open Source CFD Toolbox
   \\    /   O peration     | Website:  https://openfoam.org
    \\  /    A nd           | Version:  8
     \\/     M anipulation  |
\*---------------------------------------------------------------------------*/
FoamFile
{
    version     2.0;
    format      ascii;
    class       volScalarField;
    location    "500";
    object      epsilon;
}
// * * * * * * * * * * * * * * * * * * * * * * * * * * * * * * * * * * * * * //

dimensions      [0 2 -3 0 0 0 0];

internalField   nonuniform List<scalar> 
1200
(
1.13863
0.88865
0.710518
0.579998
0.481997
0.406851
0.348169
0.301603
0.26412
0.233561
0.208357
0.187353
0.169684
0.154691
0.141869
0.130824
0.121247
0.112893
0.105564
0.0991004
0.0933731
0.0882752
0.0837185
0.0796297
0.0759474
0.07262
0.0696034
0.0668606
0.0643596
0.0620731
0.0599774
0.058052
0.0562791
0.0546433
0.0531307
0.0517296
0.0504292
0.0492204
0.0480947
0.0470448
0.0460641
0.0451467
0.0442874
0.0434813
0.0427243
0.0420124
0.0413422
0.0407105
0.0401144
0.0395513
0.0390188
0.0385148
0.0380372
0.0375842
0.0371542
0.0367456
0.036357
0.0359872
0.0356349
0.0352989
1.45211
0.919933
0.613993
0.427779
0.308861
0.229732
0.175227
0.136561
0.108428
0.0874993
0.0716252
0.0593765
0.04978
0.0421582
0.0360302
0.0310482
0.026957
0.0235664
0.020733
0.0183469
0.0163232
0.0145955
0.0131117
0.0118302
0.0107176
0.00974689
0.0088961
0.00814721
0.00748534
0.00689817
0.00637542
0.00590844
0.00548997
0.00511384
0.0047748
0.00446837
0.0041907
0.00393848
0.00370884
0.00349928
0.00330765
0.00313205
0.00297083
0.00282253
0.00268589
0.00255977
0.00244318
0.00233522
0.00223511
0.00214214
0.00205569
0.00197517
0.00190009
0.00182999
0.00176445
0.00170311
0.0016456
0.00159148
0.00154003
0.00148628
1.45109
0.91522
0.607843
0.421011
0.301934
0.222953
0.168761
0.130482
0.102757
0.0822309
0.0667399
0.0548483
0.0455806
0.038259
0.0324038
0.0276694
0.0238025
0.020615
0.0179656
0.0157463
0.013874
0.012284
0.0109255
0.00975822
0.0087499
0.00787459
0.00711121
0.00644258
0.00585452
0.00533536
0.00487534
0.00446634
0.00410153
0.00377512
0.00348224
0.0032187
0.00298094
0.00276591
0.00257098
0.00239389
0.00223264
0.00208552
0.00195102
0.00182783
0.00171478
0.00161086
0.00151518
0.00142693
0.00134541
0.00126999
0.00120013
0.00113531
0.0010751
0.00101909
0.000966929
0.000918288
0.000872877
0.000830427
0.000790682
0.000753334
1.45109
0.916295
0.609183
0.422337
0.303111
0.223945
0.169576
0.131144
0.103291
0.0826624
0.0670891
0.0551319
0.0458117
0.0384482
0.0325595
0.0277979
0.0239091
0.0207039
0.0180399
0.0158086
0.0139264
0.0123282
0.0109629
0.00978986
0.00877673
0.00789736
0.00713054
0.00645898
0.00586843
0.00534712
0.00488526
0.00447468
0.0041085
0.00378091
0.00348699
0.00322255
0.00298401
0.0027683
0.00257275
0.00239508
0.00223331
0.00208571
0.00195076
0.00182715
0.00171371
0.00160942
0.0015134
0.00142482
0.001343
0.0012673
0.00119716
0.00113209
0.00107163
0.00101539
0.000963004
0.000914151
0.000868538
0.000825902
0.000786006
0.000748633
1.45109
0.916298
0.609052
0.422133
0.302882
0.223721
0.169375
0.13097
0.103146
0.0825422
0.0669906
0.0550515
0.0457463
0.0383949
0.032516
0.0277624
0.0238801
0.02068
0.0180202
0.0157924
0.013913
0.0123171
0.0109537
0.0097822
0.00877035
0.00789203
0.0071261
0.00645527
0.00586533
0.00534453
0.00488311
0.00447289
0.00410701
0.00377967
0.00348597
0.00322172
0.00298333
0.00276774
0.00257231
0.00239474
0.00223305
0.00208551
0.00195062
0.00182705
0.00171366
0.00160941
0.00151341
0.00142486
0.00134306
0.00126737
0.00119725
0.00113219
0.00107174
0.0010155
0.000963117
0.000914266
0.000868655
0.00082602
0.000786123
0.000748749
1.45109
0.916298
0.609053
0.422134
0.302882
0.223722
0.169375
0.130971
0.103146
0.0825425
0.0669909
0.0550517
0.0457464
0.0383951
0.0325161
0.0277625
0.0238801
0.0206801
0.0180203
0.0157924
0.013913
0.0123171
0.0109537
0.00978219
0.00877033
0.00789202
0.00712608
0.00645525
0.00586531
0.00534451
0.00488309
0.00447287
0.00410699
0.00377965
0.00348595
0.0032217
0.00298331
0.00276773
0.00257229
0.00239472
0.00223303
0.00208549
0.0019506
0.00182704
0.00171364
0.00160939
0.00151339
0.00142485
0.00134304
0.00126736
0.00119724
0.00113217
0.00107172
0.00101549
0.000963108
0.000914257
0.000868646
0.000826011
0.000786114
0.000748741
1.45109
0.916295
0.609182
0.422337
0.30311
0.223944
0.169575
0.131143
0.103291
0.082662
0.0670888
0.0551316
0.0458114
0.038448
0.0325593
0.0277978
0.023909
0.0207038
0.0180398
0.0158085
0.0139263
0.0123281
0.0109628
0.0097898
0.00877668
0.00789731
0.0071305
0.00645893
0.00586839
0.00534708
0.00488523
0.00447465
0.00410847
0.00378088
0.00348696
0.00322253
0.00298399
0.00276827
0.00257272
0.00239506
0.00223329
0.00208569
0.00195074
0.00182712
0.00171369
0.0016094
0.00151337
0.0014248
0.00134298
0.00126728
0.00119714
0.00113207
0.00107161
0.00101536
0.000962976
0.000914121
0.000868507
0.00082587
0.000785972
0.000748599
1.45109
0.915221
0.607844
0.421013
0.301935
0.222954
0.168762
0.130483
0.102757
0.0822312
0.0667401
0.0548485
0.0455806
0.038259
0.0324038
0.0276693
0.0238024
0.020615
0.0179656
0.0157462
0.0138739
0.0122839
0.0109255
0.00975818
0.00874986
0.00787454
0.00711117
0.00644253
0.00585448
0.00533531
0.0048753
0.0044663
0.00410148
0.00377508
0.00348219
0.00321865
0.00298089
0.00276585
0.00257091
0.00239377
0.00223246
0.00208526
0.00195067
0.00182737
0.00171421
0.00161018
0.00151439
0.00142605
0.00134444
0.00126894
0.00119899
0.0011341
0.00107381
0.00101773
0.000965503
0.000916797
0.000871324
0.000828813
0.000789008
0.000751634
1.45211
0.919936
0.613998
0.427785
0.30887
0.229744
0.175241
0.136577
0.108445
0.0875179
0.0716446
0.0593965
0.0498001
0.0421782
0.0360497
0.0310671
0.0269751
0.0235836
0.0207492
0.0183621
0.0163373
0.0146087
0.013124
0.0118415
0.0107281
0.00975656
0.00890505
0.00815551
0.00749308
0.00690542
0.00638224
0.00591486
0.005496
0.0051195
0.0047801
0.00447332
0.00419533
0.00394279
0.00371285
0.00350304
0.00331117
0.00313536
0.00297397
0.00282553
0.00268878
0.00256258
0.0024459
0.00233788
0.00223772
0.00214471
0.00205821
0.00197767
0.00190257
0.00183247
0.00176693
0.0017056
0.00164809
0.00159397
0.0015425
0.00148856
1.13863
0.888647
0.710514
0.579993
0.481992
0.406846
0.348164
0.301599
0.264116
0.233557
0.208354
0.18735
0.169681
0.154688
0.141866
0.130822
0.121245
0.112891
0.105562
0.099099
0.0933718
0.0882739
0.0837173
0.0796286
0.0759464
0.072619
0.0696026
0.0668598
0.0643589
0.0620724
0.0599767
0.0580514
0.0562785
0.0546427
0.0531302
0.0517291
0.0504288
0.0492199
0.0480942
0.0470443
0.0460636
0.0451462
0.0442869
0.0434808
0.0427238
0.0420119
0.0413417
0.04071
0.0401138
0.0395507
0.0390182
0.0385142
0.0380366
0.0375836
0.0371535
0.0367449
0.0363563
0.0359863
0.0356341
0.035298
1.13863
0.888648
0.710511
0.579989
0.481988
0.406842
0.348161
0.301597
0.264115
0.233556
0.208353
0.18735
0.169681
0.154688
0.141866
0.130822
0.121246
0.112891
0.105562
0.0990992
0.093372
0.0882743
0.0837177
0.079629
0.0759468
0.0726194
0.0696029
0.0668601
0.0643592
0.0620726
0.0599769
0.0580515
0.0562787
0.0546428
0.0531302
0.0517291
0.0504287
0.0492199
0.0480941
0.0470442
0.0460635
0.0451461
0.0442868
0.0434807
0.0427237
0.0420118
0.0413415
0.0407098
0.0401137
0.0395506
0.0390181
0.0385141
0.0380365
0.0375835
0.0371535
0.0367449
0.0363563
0.0359864
0.0356342
0.0352981
1.45211
0.919933
0.613986
0.42777
0.308858
0.229734
0.175229
0.136563
0.108427
0.0874963
0.0716203
0.0593705
0.0497737
0.0421523
0.0360249
0.0310439
0.026954
0.0235649
0.0207327
0.0183476
0.0163247
0.0145978
0.0131145
0.0118332
0.0107207
0.00975001
0.00889913
0.00815011
0.00748813
0.00690086
0.00637802
0.00591098
0.00549245
0.00511627
0.00477721
0.00447077
0.00419311
0.0039409
0.00371124
0.00350166
0.00330999
0.00313435
0.00297309
0.00282477
0.0026881
0.00256194
0.00244531
0.00233731
0.00223716
0.00214414
0.00205763
0.00197707
0.00190195
0.00183183
0.00176628
0.00170492
0.00164738
0.00159321
0.00154172
0.00148784
1.45109
0.915221
0.607846
0.421014
0.301935
0.222954
0.168761
0.130482
0.102756
0.0822302
0.0667392
0.0548476
0.0455799
0.0382583
0.0324032
0.0276688
0.023802
0.0206146
0.0179652
0.0157459
0.0138737
0.0122837
0.0109253
0.00975799
0.00874969
0.00787439
0.00711104
0.00644241
0.00585437
0.00533521
0.0048752
0.00446621
0.00410141
0.00377501
0.00348212
0.00321859
0.00298083
0.0027658
0.00257088
0.00239379
0.00223255
0.00208544
0.00195094
0.00182775
0.00171471
0.00161079
0.0015151
0.00142685
0.00134534
0.00126992
0.00120006
0.00113524
0.00107502
0.00101901
0.000966849
0.000918205
0.00087279
0.000830337
0.000790587
0.000753235
1.45109
0.916294
0.609183
0.422337
0.303111
0.223944
0.169575
0.131143
0.10329
0.0826617
0.0670885
0.0551314
0.0458113
0.0384479
0.0325592
0.0277977
0.0239089
0.0207037
0.0180397
0.0158084
0.0139263
0.0123281
0.0109628
0.00978978
0.00877666
0.00789729
0.00713048
0.00645892
0.00586837
0.00534706
0.00488521
0.00447464
0.00410845
0.00378087
0.00348695
0.00322251
0.00298397
0.00276825
0.00257271
0.00239504
0.00223327
0.00208567
0.00195072
0.00182711
0.00171367
0.00160938
0.00151336
0.00142478
0.00134296
0.00126726
0.00119712
0.00113205
0.00107159
0.00101535
0.000962963
0.00091411
0.000868497
0.000825861
0.000785964
0.000748592
1.45109
0.916297
0.609053
0.422134
0.302883
0.223722
0.169375
0.13097
0.103145
0.0825418
0.0669902
0.0550511
0.0457458
0.0383946
0.0325157
0.0277622
0.0238798
0.0206798
0.0180201
0.0157922
0.0139128
0.012317
0.0109535
0.00978208
0.00877024
0.00789193
0.007126
0.00645518
0.00586524
0.00534445
0.00488303
0.00447281
0.00410694
0.0037796
0.00348591
0.00322165
0.00298327
0.00276768
0.00257225
0.00239468
0.00223299
0.00208546
0.00195057
0.001827
0.00171361
0.00160936
0.00151336
0.00142481
0.00134301
0.00126732
0.0011972
0.00113214
0.00107169
0.00101545
0.000963072
0.000914221
0.000868611
0.000825976
0.000786079
0.000748706
1.45109
0.916297
0.609053
0.422135
0.302883
0.223722
0.169375
0.130971
0.103146
0.0825421
0.0669904
0.0550513
0.045746
0.0383947
0.0325158
0.0277623
0.0238799
0.0206799
0.0180201
0.0157923
0.0139129
0.012317
0.0109536
0.0097821
0.00877025
0.00789194
0.00712601
0.00645518
0.00586524
0.00534445
0.00488303
0.00447281
0.00410693
0.0037796
0.0034859
0.00322165
0.00298326
0.00276768
0.00257224
0.00239467
0.00223299
0.00208545
0.00195056
0.00182699
0.0017136
0.00160935
0.00151335
0.0014248
0.001343
0.00126732
0.0011972
0.00113213
0.00107168
0.00101545
0.000963067
0.000914217
0.000868606
0.000825972
0.000786075
0.000748702
1.45109
0.916294
0.609182
0.422337
0.30311
0.223944
0.169575
0.131143
0.10329
0.0826614
0.0670882
0.0551311
0.0458111
0.0384477
0.032559
0.0277976
0.0239088
0.0207036
0.0180397
0.0158084
0.0139262
0.012328
0.0109627
0.00978974
0.00877662
0.00789725
0.00713045
0.00645889
0.00586834
0.00534704
0.00488519
0.00447461
0.00410843
0.00378085
0.00348693
0.00322249
0.00298396
0.00276824
0.00257269
0.00239503
0.00223326
0.00208566
0.00195071
0.00182709
0.00171366
0.00160937
0.00151334
0.00142477
0.00134295
0.00126725
0.00119711
0.00113204
0.00107158
0.00101534
0.000962949
0.000914094
0.00086848
0.000825844
0.000785946
0.000748573
1.45109
0.915221
0.607847
0.421015
0.301937
0.222955
0.168762
0.130483
0.102757
0.0822307
0.0667396
0.054848
0.0455802
0.0382586
0.0324035
0.027669
0.0238021
0.0206148
0.0179654
0.015746
0.0138737
0.0122838
0.0109253
0.00975805
0.00874974
0.00787443
0.00711107
0.00644244
0.00585439
0.00533523
0.00487521
0.00446622
0.00410141
0.003775
0.00348212
0.00321858
0.00298082
0.00276579
0.00257084
0.0023937
0.00223239
0.0020852
0.00195061
0.00182731
0.00171416
0.00161014
0.00151436
0.00142602
0.00134441
0.00126892
0.00119897
0.00113408
0.0010738
0.00101772
0.000965484
0.000916776
0.000871301
0.000828788
0.000788982
0.000751602
1.45211
0.919937
0.613995
0.427784
0.308874
0.229753
0.175251
0.136587
0.108454
0.0875239
0.0716481
0.0593978
0.0497999
0.0421768
0.0360477
0.0310648
0.026973
0.023582
0.020748
0.0183613
0.0163369
0.0146087
0.0131242
0.0118419
0.0107284
0.00975673
0.00890499
0.00815516
0.0074924
0.00690438
0.00638084
0.00591317
0.0054941
0.00511746
0.00477799
0.00447122
0.00419328
0.00394084
0.00371104
0.00350138
0.00330969
0.00313408
0.00297288
0.00282463
0.00268804
0.00256198
0.00244543
0.0023375
0.00223742
0.00214446
0.00205802
0.00197753
0.00190248
0.00183242
0.00176693
0.00170563
0.00164815
0.00159405
0.0015426
0.00148867
1.13864
0.88865
0.710512
0.579989
0.481987
0.406841
0.34816
0.301596
0.264114
0.233555
0.208352
0.187349
0.16968
0.154687
0.141865
0.130821
0.121245
0.112891
0.105562
0.0990985
0.0933714
0.0882735
0.083717
0.0796283
0.0759461
0.0726187
0.0696022
0.0668594
0.0643585
0.0620719
0.0599762
0.0580508
0.056278
0.0546421
0.0531295
0.0517283
0.050428
0.0492191
0.0480934
0.0470434
0.0460627
0.0451453
0.0442859
0.0434799
0.0427228
0.0420109
0.0413407
0.0407089
0.0401128
0.0395497
0.0390172
0.0385131
0.0380355
0.0375825
0.0371524
0.0367438
0.0363551
0.0359852
0.0356329
0.0352969
)
;

boundaryField
{
    wall
    {
        type            epsilonWallFunction;
        value           nonuniform List<scalar> 
1200
(
1.13863
1.45211
1.45109
1.45109
1.45109
1.45109
1.45109
1.45109
1.45211
1.13863
0.88865
0.919933
0.91522
0.916295
0.916298
0.916298
0.916295
0.915221
0.919936
0.888647
0.710518
0.613993
0.607843
0.609183
0.609052
0.609053
0.609182
0.607844
0.613998
0.710514
0.579998
0.427779
0.421011
0.422337
0.422133
0.422134
0.422337
0.421013
0.427785
0.579993
0.481997
0.308861
0.301934
0.303111
0.302882
0.302882
0.30311
0.301935
0.30887
0.481992
0.406851
0.229732
0.222953
0.223945
0.223721
0.223722
0.223944
0.222954
0.229744
0.406846
0.348169
0.175227
0.168761
0.169576
0.169375
0.169375
0.169575
0.168762
0.175241
0.348164
0.301603
0.136561
0.130482
0.131144
0.13097
0.130971
0.131143
0.130483
0.136577
0.301599
0.26412
0.108428
0.102757
0.103291
0.103146
0.103146
0.103291
0.102757
0.108445
0.264116
0.233561
0.0874993
0.0822309
0.0826624
0.0825422
0.0825425
0.082662
0.0822312
0.0875179
0.233557
0.208357
0.0716252
0.0667399
0.0670891
0.0669906
0.0669909
0.0670888
0.0667401
0.0716446
0.208354
0.187353
0.0593765
0.0548483
0.0551319
0.0550515
0.0550517
0.0551316
0.0548485
0.0593965
0.18735
0.169684
0.04978
0.0455806
0.0458117
0.0457463
0.0457464
0.0458114
0.0455806
0.0498001
0.169681
0.154691
0.0421582
0.038259
0.0384482
0.0383949
0.0383951
0.038448
0.038259
0.0421782
0.154688
0.141869
0.0360302
0.0324038
0.0325595
0.032516
0.0325161
0.0325593
0.0324038
0.0360497
0.141866
0.130824
0.0310482
0.0276694
0.0277979
0.0277624
0.0277625
0.0277978
0.0276693
0.0310671
0.130822
0.121247
0.026957
0.0238025
0.0239091
0.0238801
0.0238801
0.023909
0.0238024
0.0269751
0.121245
0.112893
0.0235664
0.020615
0.0207039
0.02068
0.0206801
0.0207038
0.020615
0.0235836
0.112891
0.105564
0.020733
0.0179656
0.0180399
0.0180202
0.0180203
0.0180398
0.0179656
0.0207492
0.105562
0.0991004
0.0183469
0.0157463
0.0158086
0.0157924
0.0157924
0.0158085
0.0157462
0.0183621
0.099099
0.0933731
0.0163232
0.013874
0.0139264
0.013913
0.013913
0.0139263
0.0138739
0.0163373
0.0933718
0.0882752
0.0145955
0.012284
0.0123282
0.0123171
0.0123171
0.0123281
0.0122839
0.0146087
0.0882739
0.0837185
0.0131117
0.0109255
0.0109629
0.0109537
0.0109537
0.0109628
0.0109255
0.013124
0.0837173
0.0796297
0.0118302
0.00975822
0.00978986
0.0097822
0.00978219
0.0097898
0.00975818
0.0118415
0.0796286
0.0759474
0.0107176
0.0087499
0.00877673
0.00877035
0.00877033
0.00877668
0.00874986
0.0107281
0.0759464
0.07262
0.00974689
0.00787459
0.00789736
0.00789203
0.00789202
0.00789731
0.00787454
0.00975656
0.072619
0.0696034
0.0088961
0.00711121
0.00713054
0.0071261
0.00712608
0.0071305
0.00711117
0.00890505
0.0696026
0.0668606
0.00814721
0.00644258
0.00645898
0.00645527
0.00645525
0.00645893
0.00644253
0.00815551
0.0668598
0.0643596
0.00748534
0.00585452
0.00586843
0.00586533
0.00586531
0.00586839
0.00585448
0.00749308
0.0643589
0.0620731
0.00689817
0.00533536
0.00534712
0.00534453
0.00534451
0.00534708
0.00533531
0.00690542
0.0620724
0.0599774
0.00637542
0.00487534
0.00488526
0.00488311
0.00488309
0.00488523
0.0048753
0.00638224
0.0599767
0.058052
0.00590844
0.00446634
0.00447468
0.00447289
0.00447287
0.00447465
0.0044663
0.00591486
0.0580514
0.0562791
0.00548997
0.00410153
0.0041085
0.00410701
0.00410699
0.00410847
0.00410148
0.005496
0.0562785
0.0546433
0.00511384
0.00377512
0.00378091
0.00377967
0.00377965
0.00378088
0.00377508
0.0051195
0.0546427
0.0531307
0.0047748
0.00348224
0.00348699
0.00348597
0.00348595
0.00348696
0.00348219
0.0047801
0.0531302
0.0517296
0.00446837
0.0032187
0.00322255
0.00322172
0.0032217
0.00322253
0.00321865
0.00447332
0.0517291
0.0504292
0.0041907
0.00298094
0.00298401
0.00298333
0.00298331
0.00298399
0.00298089
0.00419533
0.0504288
0.0492204
0.00393848
0.00276591
0.0027683
0.00276774
0.00276773
0.00276827
0.00276585
0.00394279
0.0492199
0.0480947
0.00370884
0.00257098
0.00257275
0.00257231
0.00257229
0.00257272
0.00257091
0.00371285
0.0480942
0.0470448
0.00349928
0.00239389
0.00239508
0.00239474
0.00239472
0.00239506
0.00239377
0.00350304
0.0470443
0.0460641
0.00330765
0.00223264
0.00223331
0.00223305
0.00223303
0.00223329
0.00223246
0.00331117
0.0460636
0.0451467
0.00313205
0.00208552
0.00208571
0.00208551
0.00208549
0.00208569
0.00208526
0.00313536
0.0451462
0.0442874
0.00297083
0.00195102
0.00195076
0.00195062
0.0019506
0.00195074
0.00195067
0.00297397
0.0442869
0.0434813
0.00282253
0.00182783
0.00182715
0.00182705
0.00182704
0.00182712
0.00182737
0.00282553
0.0434808
0.0427243
0.00268589
0.00171478
0.00171371
0.00171366
0.00171364
0.00171369
0.00171421
0.00268878
0.0427238
0.0420124
0.00255977
0.00161086
0.00160942
0.00160941
0.00160939
0.0016094
0.00161018
0.00256258
0.0420119
0.0413422
0.00244318
0.00151518
0.0015134
0.00151341
0.00151339
0.00151337
0.00151439
0.0024459
0.0413417
0.0407105
0.00233522
0.00142693
0.00142482
0.00142486
0.00142485
0.0014248
0.00142605
0.00233788
0.04071
0.0401144
0.00223511
0.00134541
0.001343
0.00134306
0.00134304
0.00134298
0.00134444
0.00223772
0.0401138
0.0395513
0.00214214
0.00126999
0.0012673
0.00126737
0.00126736
0.00126728
0.00126894
0.00214471
0.0395507
0.0390188
0.00205569
0.00120013
0.00119716
0.00119725
0.00119724
0.00119714
0.00119899
0.00205821
0.0390182
0.0385148
0.00197517
0.00113531
0.00113209
0.00113219
0.00113217
0.00113207
0.0011341
0.00197767
0.0385142
0.0380372
0.00190009
0.0010751
0.00107163
0.00107174
0.00107172
0.00107161
0.00107381
0.00190257
0.0380366
0.0375842
0.00182999
0.00101909
0.00101539
0.0010155
0.00101549
0.00101536
0.00101773
0.00183247
0.0375836
0.0371542
0.00176445
0.000966929
0.000963004
0.000963117
0.000963108
0.000962976
0.000965503
0.00176693
0.0371535
0.0367456
0.00170311
0.000918288
0.000914151
0.000914266
0.000914257
0.000914121
0.000916797
0.0017056
0.0367449
0.036357
0.0016456
0.000872877
0.000868538
0.000868655
0.000868646
0.000868507
0.000871324
0.00164809
0.0363563
0.0359872
0.00159148
0.000830427
0.000825902
0.00082602
0.000826011
0.00082587
0.000828813
0.00159397
0.0359863
0.0356349
0.00154003
0.000790682
0.000786006
0.000786123
0.000786114
0.000785972
0.000789008
0.0015425
0.0356341
0.0352989
0.00148628
0.000753334
0.000748633
0.000748749
0.000748741
0.000748599
0.000751634
0.00148856
0.035298
1.13863
1.45211
1.45109
1.45109
1.45109
1.45109
1.45109
1.45109
1.45211
1.13864
0.888648
0.919933
0.915221
0.916294
0.916297
0.916297
0.916294
0.915221
0.919937
0.88865
0.710511
0.613986
0.607846
0.609183
0.609053
0.609053
0.609182
0.607847
0.613995
0.710512
0.579989
0.42777
0.421014
0.422337
0.422134
0.422135
0.422337
0.421015
0.427784
0.579989
0.481988
0.308858
0.301935
0.303111
0.302883
0.302883
0.30311
0.301937
0.308874
0.481987
0.406842
0.229734
0.222954
0.223944
0.223722
0.223722
0.223944
0.222955
0.229753
0.406841
0.348161
0.175229
0.168761
0.169575
0.169375
0.169375
0.169575
0.168762
0.175251
0.34816
0.301597
0.136563
0.130482
0.131143
0.13097
0.130971
0.131143
0.130483
0.136587
0.301596
0.264115
0.108427
0.102756
0.10329
0.103145
0.103146
0.10329
0.102757
0.108454
0.264114
0.233556
0.0874963
0.0822302
0.0826617
0.0825418
0.0825421
0.0826614
0.0822307
0.0875239
0.233555
0.208353
0.0716203
0.0667392
0.0670885
0.0669902
0.0669904
0.0670882
0.0667396
0.0716481
0.208352
0.18735
0.0593705
0.0548476
0.0551314
0.0550511
0.0550513
0.0551311
0.054848
0.0593978
0.187349
0.169681
0.0497737
0.0455799
0.0458113
0.0457458
0.045746
0.0458111
0.0455802
0.0497999
0.16968
0.154688
0.0421523
0.0382583
0.0384479
0.0383946
0.0383947
0.0384477
0.0382586
0.0421768
0.154687
0.141866
0.0360249
0.0324032
0.0325592
0.0325157
0.0325158
0.032559
0.0324035
0.0360477
0.141865
0.130822
0.0310439
0.0276688
0.0277977
0.0277622
0.0277623
0.0277976
0.027669
0.0310648
0.130821
0.121246
0.026954
0.023802
0.0239089
0.0238798
0.0238799
0.0239088
0.0238021
0.026973
0.121245
0.112891
0.0235649
0.0206146
0.0207037
0.0206798
0.0206799
0.0207036
0.0206148
0.023582
0.112891
0.105562
0.0207327
0.0179652
0.0180397
0.0180201
0.0180201
0.0180397
0.0179654
0.020748
0.105562
0.0990992
0.0183476
0.0157459
0.0158084
0.0157922
0.0157923
0.0158084
0.015746
0.0183613
0.0990985
0.093372
0.0163247
0.0138737
0.0139263
0.0139128
0.0139129
0.0139262
0.0138737
0.0163369
0.0933714
0.0882743
0.0145978
0.0122837
0.0123281
0.012317
0.012317
0.012328
0.0122838
0.0146087
0.0882735
0.0837177
0.0131145
0.0109253
0.0109628
0.0109535
0.0109536
0.0109627
0.0109253
0.0131242
0.083717
0.079629
0.0118332
0.00975799
0.00978978
0.00978208
0.0097821
0.00978974
0.00975805
0.0118419
0.0796283
0.0759468
0.0107207
0.00874969
0.00877666
0.00877024
0.00877025
0.00877662
0.00874974
0.0107284
0.0759461
0.0726194
0.00975001
0.00787439
0.00789729
0.00789193
0.00789194
0.00789725
0.00787443
0.00975673
0.0726187
0.0696029
0.00889913
0.00711104
0.00713048
0.007126
0.00712601
0.00713045
0.00711107
0.00890499
0.0696022
0.0668601
0.00815011
0.00644241
0.00645892
0.00645518
0.00645518
0.00645889
0.00644244
0.00815516
0.0668594
0.0643592
0.00748813
0.00585437
0.00586837
0.00586524
0.00586524
0.00586834
0.00585439
0.0074924
0.0643585
0.0620726
0.00690086
0.00533521
0.00534706
0.00534445
0.00534445
0.00534704
0.00533523
0.00690438
0.0620719
0.0599769
0.00637802
0.0048752
0.00488521
0.00488303
0.00488303
0.00488519
0.00487521
0.00638084
0.0599762
0.0580515
0.00591098
0.00446621
0.00447464
0.00447281
0.00447281
0.00447461
0.00446622
0.00591317
0.0580508
0.0562787
0.00549245
0.00410141
0.00410845
0.00410694
0.00410693
0.00410843
0.00410141
0.0054941
0.056278
0.0546428
0.00511627
0.00377501
0.00378087
0.0037796
0.0037796
0.00378085
0.003775
0.00511746
0.0546421
0.0531302
0.00477721
0.00348212
0.00348695
0.00348591
0.0034859
0.00348693
0.00348212
0.00477799
0.0531295
0.0517291
0.00447077
0.00321859
0.00322251
0.00322165
0.00322165
0.00322249
0.00321858
0.00447122
0.0517283
0.0504287
0.00419311
0.00298083
0.00298397
0.00298327
0.00298326
0.00298396
0.00298082
0.00419328
0.050428
0.0492199
0.0039409
0.0027658
0.00276825
0.00276768
0.00276768
0.00276824
0.00276579
0.00394084
0.0492191
0.0480941
0.00371124
0.00257088
0.00257271
0.00257225
0.00257224
0.00257269
0.00257084
0.00371104
0.0480934
0.0470442
0.00350166
0.00239379
0.00239504
0.00239468
0.00239467
0.00239503
0.0023937
0.00350138
0.0470434
0.0460635
0.00330999
0.00223255
0.00223327
0.00223299
0.00223299
0.00223326
0.00223239
0.00330969
0.0460627
0.0451461
0.00313435
0.00208544
0.00208567
0.00208546
0.00208545
0.00208566
0.0020852
0.00313408
0.0451453
0.0442868
0.00297309
0.00195094
0.00195072
0.00195057
0.00195056
0.00195071
0.00195061
0.00297288
0.0442859
0.0434807
0.00282477
0.00182775
0.00182711
0.001827
0.00182699
0.00182709
0.00182731
0.00282463
0.0434799
0.0427237
0.0026881
0.00171471
0.00171367
0.00171361
0.0017136
0.00171366
0.00171416
0.00268804
0.0427228
0.0420118
0.00256194
0.00161079
0.00160938
0.00160936
0.00160935
0.00160937
0.00161014
0.00256198
0.0420109
0.0413415
0.00244531
0.0015151
0.00151336
0.00151336
0.00151335
0.00151334
0.00151436
0.00244543
0.0413407
0.0407098
0.00233731
0.00142685
0.00142478
0.00142481
0.0014248
0.00142477
0.00142602
0.0023375
0.0407089
0.0401137
0.00223716
0.00134534
0.00134296
0.00134301
0.001343
0.00134295
0.00134441
0.00223742
0.0401128
0.0395506
0.00214414
0.00126992
0.00126726
0.00126732
0.00126732
0.00126725
0.00126892
0.00214446
0.0395497
0.0390181
0.00205763
0.00120006
0.00119712
0.0011972
0.0011972
0.00119711
0.00119897
0.00205802
0.0390172
0.0385141
0.00197707
0.00113524
0.00113205
0.00113214
0.00113213
0.00113204
0.00113408
0.00197753
0.0385131
0.0380365
0.00190195
0.00107502
0.00107159
0.00107169
0.00107168
0.00107158
0.0010738
0.00190248
0.0380355
0.0375835
0.00183183
0.00101901
0.00101535
0.00101545
0.00101545
0.00101534
0.00101772
0.00183242
0.0375825
0.0371535
0.00176628
0.000966849
0.000962963
0.000963072
0.000963067
0.000962949
0.000965484
0.00176693
0.0371524
0.0367449
0.00170492
0.000918205
0.00091411
0.000914221
0.000914217
0.000914094
0.000916776
0.00170563
0.0367438
0.0363563
0.00164738
0.00087279
0.000868497
0.000868611
0.000868606
0.00086848
0.000871301
0.00164815
0.0363551
0.0359864
0.00159321
0.000830337
0.000825861
0.000825976
0.000825972
0.000825844
0.000828788
0.00159405
0.0359852
0.0356342
0.00154172
0.000790587
0.000785964
0.000786079
0.000786075
0.000785946
0.000788982
0.0015426
0.0356329
0.0352981
0.00148784
0.000753235
0.000748592
0.000748706
0.000748702
0.000748573
0.000751602
0.00148867
0.0352969
)
;
    }
    inlet
    {
        type            turbulentMixingLengthDissipationRateInlet;
        mixingLength    0.071;
        phi             phi;
        k               k;
        value           uniform 0.0340134;
    }
    outlet
    {
        type            inletOutlet;
        inletValue      uniform 0.0001;
        value           nonuniform List<scalar> 
20
(
0.0352989
0.00148628
0.000753334
0.000748633
0.000748749
0.000748741
0.000748599
0.000751634
0.00148856
0.035298
0.0352981
0.00148784
0.000753235
0.000748592
0.000748706
0.000748702
0.000748573
0.000751602
0.00148867
0.0352969
)
;
    }
    heatWall
    {
        type            epsilonWallFunction;
        value           nonuniform List<scalar> 
240
(
1.13863
1.13864
0.888647
0.88865
0.710514
0.710512
0.579993
0.579989
0.481992
0.481987
0.406846
0.406841
0.348164
0.34816
0.301599
0.301596
0.264116
0.264114
0.233557
0.233555
0.208354
0.208352
0.18735
0.187349
0.169681
0.16968
0.154688
0.154687
0.141866
0.141865
0.130822
0.130821
0.121245
0.121245
0.112891
0.112891
0.105562
0.105562
0.099099
0.0990985
0.0933718
0.0933714
0.0882739
0.0882735
0.0837173
0.083717
0.0796286
0.0796283
0.0759464
0.0759461
0.072619
0.0726187
0.0696026
0.0696022
0.0668598
0.0668594
0.0643589
0.0643585
0.0620724
0.0620719
0.0599767
0.0599762
0.0580514
0.0580508
0.0562785
0.056278
0.0546427
0.0546421
0.0531302
0.0531295
0.0517291
0.0517283
0.0504288
0.050428
0.0492199
0.0492191
0.0480942
0.0480934
0.0470443
0.0470434
0.0460636
0.0460627
0.0451462
0.0451453
0.0442869
0.0442859
0.0434808
0.0434799
0.0427238
0.0427228
0.0420119
0.0420109
0.0413417
0.0413407
0.04071
0.0407089
0.0401138
0.0401128
0.0395507
0.0395497
0.0390182
0.0390172
0.0385142
0.0385131
0.0380366
0.0380355
0.0375836
0.0375825
0.0371535
0.0371524
0.0367449
0.0367438
0.0363563
0.0363551
0.0359863
0.0359852
0.0356341
0.0356329
0.035298
0.0352969
1.13863
1.13863
0.88865
0.888648
0.710518
0.710511
0.579998
0.579989
0.481997
0.481988
0.406851
0.406842
0.348169
0.348161
0.301603
0.301597
0.26412
0.264115
0.233561
0.233556
0.208357
0.208353
0.187353
0.18735
0.169684
0.169681
0.154691
0.154688
0.141869
0.141866
0.130824
0.130822
0.121247
0.121246
0.112893
0.112891
0.105564
0.105562
0.0991004
0.0990992
0.0933731
0.093372
0.0882752
0.0882743
0.0837185
0.0837177
0.0796297
0.079629
0.0759474
0.0759468
0.07262
0.0726194
0.0696034
0.0696029
0.0668606
0.0668601
0.0643596
0.0643592
0.0620731
0.0620726
0.0599774
0.0599769
0.058052
0.0580515
0.0562791
0.0562787
0.0546433
0.0546428
0.0531307
0.0531302
0.0517296
0.0517291
0.0504292
0.0504287
0.0492204
0.0492199
0.0480947
0.0480941
0.0470448
0.0470442
0.0460641
0.0460635
0.0451467
0.0451461
0.0442874
0.0442868
0.0434813
0.0434807
0.0427243
0.0427237
0.0420124
0.0420118
0.0413422
0.0413415
0.0407105
0.0407098
0.0401144
0.0401137
0.0395513
0.0395506
0.0390188
0.0390181
0.0385148
0.0385141
0.0380372
0.0380365
0.0375842
0.0375835
0.0371542
0.0371535
0.0367456
0.0367449
0.036357
0.0363563
0.0359872
0.0359864
0.0356349
0.0356342
0.0352989
0.0352981
)
;
    }
}


// ************************************************************************* //
