/*--------------------------------*- C++ -*----------------------------------*\
  =========                 |
  \\      /  F ield         | OpenFOAM: The Open Source CFD Toolbox
   \\    /   O peration     | Website:  https://openfoam.org
    \\  /    A nd           | Version:  8
     \\/     M anipulation  |
\*---------------------------------------------------------------------------*/
FoamFile
{
    version     2.0;
    format      ascii;
    class       volScalarField;
    location    "500";
    object      p_rgh;
}
// * * * * * * * * * * * * * * * * * * * * * * * * * * * * * * * * * * * * * //

dimensions      [1 -1 -2 0 0 0 0];

internalField   nonuniform List<scalar> 
1200
(
572.992
365.245
277.281
246.863
226.594
209.66
195.989
184.567
174.611
165.767
157.791
150.546
143.948
137.903
132.331
127.161
122.344
117.85
113.633
109.649
105.873
102.292
98.8798
95.6027
92.4474
89.4085
86.4637
83.5965
80.803
78.0729
75.3934
72.7582
70.1604
67.591
65.045
62.5189
60.0101
57.5137
55.0223
52.5336
50.0476
47.5593
45.0664
42.5703
40.0709
37.5632
35.0423
32.5077
29.9639
27.4105
24.8396
22.2554
19.6545
17.0364
14.4076
11.7641
9.09555
6.37533
3.56701
-0.00379525
130.767
156.237
162.593
168.439
169.363
166.489
162.195
157.375
152.354
147.341
142.431
137.683
133.145
128.816
124.685
120.733
116.951
113.334
109.863
106.517
103.288
100.172
97.1562
94.2183
91.3546
88.5637
85.8293
83.1421
80.5017
77.9006
75.3298
72.7866
70.266
67.7618
65.2705
62.7897
60.3185
57.8533
55.386
52.9158
50.4442
47.9664
45.4813
42.9906
40.4944
37.9888
35.4686
32.9337
30.3889
27.8332
25.2606
22.6735
20.0692
17.448
14.8148
12.1675
9.49889
6.79354
4.0387
1.12801
202.186
259.867
266.445
253.232
238.067
223.314
209.464
196.801
185.366
175.078
165.773
157.328
149.661
142.681
136.297
130.427
125.01
119.994
115.328
110.965
106.87
103.016
99.3678
95.8944
92.5792
89.4051
86.3461
83.387
80.5188
77.7254
74.9938
72.3173
69.686
67.0908
64.5257
61.985
59.4652
56.9614
54.4639
51.9716
49.4843
46.9953
44.5037
42.0101
39.5127
37.0085
34.4914
31.9618
29.4241
26.8758
24.3131
21.7355
19.1416
16.5325
13.9098
11.274
8.62266
5.95433
3.29662
0.813975
202.671
224.984
218.361
200.662
186.748
176.378
167.678
160.126
153.517
147.618
142.225
137.224
132.557
128.171
124.024
120.081
116.317
112.713
109.253
105.926
102.718
99.6173
96.6104
93.6851
90.8384
88.0612
85.3387
82.6666
80.041
77.4507
74.8905
72.3583
69.8469
67.3511
64.8689
62.3959
59.9308
57.4703
55.0085
52.5472
50.0857
47.6169
45.1419
42.6615
40.1731
37.6758
35.1633
32.6367
30.1005
27.5512
24.9876
22.407
19.8104
17.1995
14.5722
11.9323
9.28151
6.62761
4.00773
1.62951
206.27
225.653
229.183
219.765
209.642
200.193
190.578
181.134
172.263
164.056
156.474
149.473
143.012
137.041
131.511
126.372
121.574
117.08
112.858
108.882
105.12
101.546
98.1347
94.8679
91.7323
88.7094
85.78
82.9353
80.1639
77.4506
74.7888
72.1731
69.5921
67.0392
64.5108
62.0009
59.5057
57.0206
54.5398
52.0644
49.5915
47.1136
44.6326
42.1479
39.6559
37.1557
34.6419
32.1161
29.5817
27.0338
24.4728
21.8946
19.3018
16.6958
14.0721
11.4361
8.7921
6.15444
3.5733
1.30751
206.268
225.646
229.169
219.737
209.603
200.147
190.525
181.088
172.228
164.024
156.448
149.461
143.01
137.046
131.523
126.389
121.596
117.105
112.886
108.913
105.153
101.578
98.1668
94.9007
91.7641
88.7383
85.8073
82.962
80.1882
77.4717
74.8082
72.1911
69.6083
67.0534
64.5233
62.0122
59.5156
57.0279
54.5451
52.0687
49.5939
47.1148
44.6338
42.1493
39.6573
37.1566
34.6433
32.1203
29.5892
27.0442
24.4861
21.911
19.3221
16.72
14.0995
11.4663
8.82406
6.18781
3.606
1.33493
202.671
224.985
218.386
200.693
186.784
176.41
167.704
160.156
153.54
147.614
142.211
137.216
132.546
128.15
123.997
120.049
116.28
112.673
109.214
105.889
102.683
99.5803
96.5731
93.6509
90.8052
88.0249
85.3029
82.6348
80.0091
77.4169
74.8582
72.3283
69.8178
67.323
64.842
62.3714
59.9075
57.4447
54.982
52.5213
50.0568
47.5853
45.1092
42.6271
40.1354
37.6319
35.1155
32.5897
30.0547
27.5043
24.9394
22.3583
19.7631
17.1537
14.5263
11.8853
9.23164
6.5755
3.95305
1.57697
202.17
259.772
266.34
253.136
237.985
223.222
209.376
196.77
185.379
175.085
165.791
157.375
149.719
142.735
136.347
130.472
125.051
120.03
115.359
110.996
106.901
103.041
99.3868
95.9136
92.5977
89.4159
86.3537
83.3973
80.5264
77.727
74.9936
72.3159
69.6819
67.0847
64.5184
61.9781
59.4574
56.9478
54.4486
51.9592
49.4715
46.9838
44.4964
42.0067
39.5113
37.0051
34.4883
31.964
29.4308
26.8825
24.3193
21.7422
19.1514
16.5454
13.9228
11.2859
8.63133
5.96152
3.30233
0.819815
130.796
156.266
162.57
168.435
169.35
166.436
162.135
157.346
152.327
147.283
142.372
137.639
133.099
128.765
124.632
120.68
116.902
113.286
109.818
106.479
103.258
100.145
97.1268
94.1949
91.3387
88.5456
85.812
83.1329
80.4949
77.8906
75.3189
72.7743
70.2511
67.7455
65.2534
62.7736
60.3018
57.8301
55.3611
52.8943
50.4222
47.9463
45.4659
42.9795
40.4848
37.9756
35.4549
32.9249
30.3842
27.8272
25.2533
22.6663
20.0652
17.4474
14.8137
12.1647
9.49218
6.7846
4.02566
1.11116
572.78
365.335
277.28
246.864
226.623
209.644
195.972
184.611
174.676
165.811
157.851
150.631
144.034
137.983
132.405
127.229
122.412
117.914
113.695
109.714
105.945
102.364
98.9471
95.6752
92.5286
89.4869
86.5412
83.6816
80.8899
78.1553
75.4729
72.8347
70.2335
67.6635
65.1177
62.5938
60.0859
57.5847
55.0922
52.6063
50.1188
47.6317
45.1427
42.6496
40.1505
37.6384
35.1182
32.5902
30.052
27.4984
24.9275
22.345
19.7487
17.1353
14.5063
11.8614
9.18934
6.46716
3.65326
0.0730368
572.323
365.049
277.118
246.865
226.713
209.687
195.941
184.557
174.638
165.785
157.843
150.657
144.083
138.032
132.442
127.263
122.442
117.923
113.675
109.677
105.899
102.303
98.8693
95.5914
92.4445
89.4017
86.4564
83.599
80.8102
78.08
75.4027
72.7682
70.1692
67.6015
65.0589
62.5348
60.0227
57.5198
55.0274
52.5417
50.0564
47.5711
45.0842
42.5905
40.0866
37.5746
35.0562
32.5297
29.9885
27.4312
24.8637
22.2807
19.6845
17.0746
14.4432
11.791
9.11799
6.40964
3.61183
0.0385421
130.627
156.06
162.308
168.31
169.364
166.474
162.149
157.358
152.357
147.32
142.417
137.708
133.184
128.848
124.702
120.745
116.963
113.33
109.84
106.489
103.26
100.133
97.102
94.1654
91.3066
88.5092
85.773
83.092
80.4522
77.8488
75.279
72.735
70.2122
67.7084
65.2191
62.7397
60.2651
57.7929
55.3244
52.8558
50.3828
47.9068
45.4262
42.9367
40.4357
37.9247
35.4065
32.8791
30.3361
27.7768
25.2056
22.6191
20.0192
17.4048
14.7703
12.1158
9.44306
6.74841
4.00549
1.10266
202.042
259.545
265.963
252.786
237.767
223.113
209.317
196.728
185.352
175.065
165.773
157.365
149.717
142.732
136.334
130.457
125.036
120.011
115.335
110.968
106.871
103.007
99.3492
95.8782
92.5629
89.3794
86.3176
83.3602
80.4874
77.6901
74.9586
72.28
69.6464
67.0516
64.4878
61.9488
59.4273
56.9188
54.4228
51.9331
49.4443
46.9583
44.4716
41.9792
39.4793
36.9711
34.4578
31.9366
29.4008
26.8504
24.2875
21.711
19.1215
16.5167
13.8947
11.2545
8.59987
5.93987
3.29361
0.817115
202.576
224.917
218.222
200.505
186.677
176.396
167.735
160.213
153.616
147.688
142.275
137.273
132.597
128.192
124.02
120.06
116.288
112.684
109.228
105.903
102.696
99.5943
96.5895
93.6725
90.8264
88.0425
85.3197
82.647
80.0146
77.421
74.8599
72.3232
69.8085
67.3124
64.8295
62.357
59.8902
57.4269
54.9685
52.5094
50.0457
47.5805
45.1098
42.6298
40.1405
37.6405
35.133
32.6147
30.0796
27.5294
24.9643
22.386
19.793
17.1828
14.5579
11.916
9.26264
6.61436
4.00554
1.6298
206.187
225.604
229.002
219.478
209.394
200.069
190.553
181.175
172.34
164.129
156.53
149.514
143.038
137.051
131.5
126.344
121.543
117.057
112.846
108.873
105.112
101.541
98.1365
94.8788
91.7433
88.716
85.7869
82.9387
80.1597
77.4441
74.7801
72.1568
69.571
67.0165
64.4855
61.9738
59.4763
56.9898
54.5133
52.039
49.564
47.0907
44.6133
42.1288
39.6374
37.137
34.63
32.1118
29.5773
27.0292
24.466
21.8908
19.3001
16.6919
14.0712
11.435
8.78969
6.15625
3.58572
1.31927
206.196
225.612
229.004
219.473
209.382
200.051
190.533
181.147
172.31
164.11
156.517
149.501
143.029
137.049
131.502
126.35
121.554
117.071
112.862
108.89
105.13
101.56
98.1557
94.8966
91.7607
88.7344
85.8048
82.9549
80.1757
77.4605
74.7954
72.1706
69.5838
67.0283
64.4959
61.9824
59.4835
56.9969
54.5195
52.0436
49.5684
47.095
44.6173
42.1328
39.6423
37.1441
34.639
32.1215
29.5879
27.0416
24.4803
21.9069
19.3172
16.71
14.0907
11.456
8.81231
6.17919
3.60718
1.33589
202.604
224.953
218.265
200.556
186.729
176.451
167.792
160.238
153.617
147.697
142.277
137.251
132.562
128.154
123.978
120.015
116.243
112.64
109.185
105.859
102.653
99.5549
96.5531
93.6358
90.792
88.015
85.2953
82.6224
79.9939
77.4056
74.8462
72.31
69.7969
67.3021
64.8198
62.3464
59.8799
57.4201
54.9628
52.5019
50.0388
47.5734
45.1001
42.6178
40.127
37.6286
35.1213
32.5994
30.0609
27.5099
24.9442
22.3648
19.7686
17.1555
14.5291
11.8862
9.23283
6.58203
3.9694
1.59199
202.084
259.567
265.955
252.78
237.773
223.144
209.36
196.749
185.363
175.095
165.802
157.377
149.723
142.742
136.343
130.466
125.045
120.021
115.346
110.977
106.878
103.017
99.3621
95.8878
92.5708
89.3929
86.3326
83.3709
80.4994
77.7063
74.9751
72.296
69.6632
67.0682
64.5033
61.9615
59.4386
56.9339
54.4395
51.9489
49.4639
46.9806
44.4941
42.0024
39.5048
37.0022
34.4906
31.9652
29.4252
26.8744
24.3112
21.7336
19.1402
16.5315
13.9082
11.2672
8.6131
5.95026
3.29909
0.815064
130.735
156.145
162.414
168.377
169.417
166.561
162.23
157.37
152.327
147.294
142.371
137.63
133.098
128.767
124.627
120.678
116.902
113.279
109.799
106.452
103.226
100.107
97.0849
94.1483
91.2883
88.4996
85.7687
83.0854
80.449
77.8536
75.2886
72.749
70.2311
67.7298
65.2419
62.7617
60.2876
57.8215
55.3559
52.8869
50.4181
47.9443
45.4633
42.9738
40.4749
37.9696
35.4524
32.92
30.3725
27.8138
25.2433
22.6564
20.0533
17.4358
14.8019
12.1484
9.47769
6.78066
4.03074
1.11485
572.39
365.082
277.195
246.912
226.752
209.776
196.025
184.579
174.638
165.804
157.846
150.636
144.062
138.019
132.438
127.269
122.455
117.946
113.71
109.719
105.943
102.354
98.9308
95.652
92.5009
89.4654
86.5254
83.6651
80.879
78.1573
75.4864
72.8582
70.2651
67.7
65.1587
62.6335
60.1215
57.6239
55.1317
52.6408
50.1543
47.6655
45.1726
42.6739
40.1682
37.6597
35.1413
32.6094
30.064
27.508
24.9416
22.3582
19.7588
17.1458
14.5157
11.865
9.19434
6.48337
3.67725
0.0907382
)
;

boundaryField
{
    wall
    {
        type            fixedFluxPressure;
        gradient        nonuniform List<scalar> 
1200
(
133.835
28.1303
28.7496
18.9851
16.6258
14.5534
13.2731
17.1244
12.5024
77.6031
39.4586
35.7515
64.286
13.3331
9.52228
6.67911
6.29897
40.8655
24.3773
50.8065
32.8815
57.1096
96.3735
27.7046
36.0534
32.812
24.2344
76.8381
31.4185
17.0855
-0.335561
25.7516
89.4464
31.3834
57.614
52.7989
27.5748
71.1205
11.5952
-9.79148
-24.0098
-0.31893
60.1265
14.3918
49.8235
44.332
11.0523
42.3624
-13.3368
-26.16
-5.54277
2.80846
40.461
-3.37588
25.203
19.3949
-8.04343
15.532
-25.1453
-26.7714
9.54718
9.06885
29.5751
-11.4236
5.208
-1.56497
-17.6108
3.01608
-19.2
-10.8064
2.11343
3.39927
14.6267
-17.3937
-8.06807
-11.8308
-16.3281
4.12011
-4.87215
6.28355
-5.3203
-0.529003
2.87481
-19.8553
-15.4413
-16.4809
-15.5158
3.22308
-0.0638953
7.59981
-3.58429
4.45737
2.76492
-14.0901
-14.6507
-17.3008
-16.7214
-2.07416
-2.2352
1.39578
-10.1975
2.80312
0.144922
-10.0903
-11.3547
-13.9305
-13.3805
-2.20971
0.289736
1.05676
-22.1429
-4.87533
-7.47208
-9.80802
-8.34726
-8.3123
-7.21082
-0.389626
1.9068
-0.873105
-26.83
-7.77206
-11.1389
-7.99301
-5.28009
-3.89794
-3.27195
-0.959745
0.165166
-5.47475
-25.7823
-6.30155
-10.2502
-4.11957
-2.18211
-0.779983
-0.736312
-1.32545
-0.30678
-7.10284
-22.3224
-3.37168
-7.45434
0.782436
2.22618
4.04819
3.74037
0.734301
1.16434
-6.51107
-20.6073
-2.3767
-5.89368
4.2113
5.54221
7.70895
6.69357
1.28366
0.457446
-8.04677
-19.9035
-2.42033
-5.24493
5.67928
6.32318
8.52719
7.39285
1.21393
0.0150917
-8.61104
-14.8544
0.649333
-3.31798
5.91604
4.81215
6.99134
6.75927
1.75851
1.44138
-6.55399
-8.53121
4.40715
-1.45341
5.04173
2.58216
4.96389
5.86531
2.69736
3.76516
-3.20788
-5.88468
5.55465
-0.67719
4.56762
1.95308
4.76293
6.13385
3.91737
5.51584
-0.906793
-5.36786
5.50172
-0.127444
4.4519
1.77029
4.67492
6.03779
4.4909
6.41361
0.392936
-2.35552
7.6602
1.77695
4.64511
1.10107
3.75607
5.15953
4.8346
7.51769
2.04808
1.99752
10.7676
3.66561
4.19564
-0.29777
2.34801
4.0689
4.97887
8.34122
3.21269
2.1765
10.5447
3.17
2.49468
-2.13094
0.907205
3.07918
5.1985
9.31956
4.59857
0.53506
9.54568
3.1868
2.36797
-2.1807
0.734324
2.68014
5.42619
10.093
5.56825
1.34651
10.8622
5.07152
3.6911
-1.32748
0.826318
1.9842
4.63668
9.22838
4.34381
1.4705
11.2556
5.63725
3.73029
-1.41666
0.526179
1.48888
4.23877
8.69414
3.23695
-0.491404
10.0163
5.31926
3.83674
-0.734633
1.41928
2.44143
5.28707
9.5635
3.41962
-1.44217
9.90733
6.23595
5.18991
0.791831
2.48616
2.98355
5.42019
9.26498
2.32313
-1.40737
10.3667
7.02893
5.88035
1.22918
2.21167
2.17741
4.14221
7.47674
-0.247864
-1.85488
10.1789
7.03613
6.05186
1.6784
2.51855
2.3172
3.68908
6.13075
-2.55917
-1.99212
10.3314
7.47059
6.95612
3.18204
4.05176
3.58462
3.97763
5.14417
-4.58842
-1.75544
10.7709
7.94432
7.63795
4.16546
4.85654
4.1146
3.75381
4.07982
-6.20655
-2.09108
10.6696
7.85293
7.72073
4.47548
4.98623
4.1158
3.31407
3.20266
-7.22566
-2.79114
10.2718
7.60052
7.85301
5.01487
5.4468
4.40051
3.02646
2.35242
-8.17098
-3.20007
9.9962
7.25687
7.77973
5.38648
5.94463
4.97502
3.33534
2.41178
-7.94455
-2.55609
10.6647
7.60726
8.09792
5.86946
6.42352
5.52628
3.78982
2.8671
-7.1337
-1.22829
12.065
8.54072
8.6867
6.1552
6.20821
4.92443
2.809
1.73705
-7.91114
-1.04189
12.3166
8.23994
8.01364
5.29892
5.13927
3.86104
1.86077
1.04562
-7.97381
-1.61939
11.9881
7.7191
7.57343
5.07971
5.04318
3.9222
2.08657
1.47004
-6.98546
-1.77662
12.2666
8.02294
8.02554
5.51905
5.16088
3.64016
1.53177
0.802434
-7.216
-2.36459
11.9197
7.41942
7.29583
4.60578
4.00869
2.43531
0.656925
0.365326
-6.86807
-3.56204
10.9975
6.43041
6.45111
3.88196
3.34004
1.87321
0.464899
0.473078
-6.11663
-4.05494
10.7849
6.19995
6.36727
3.87195
3.33833
1.91021
0.83747
1.06716
-4.98293
-3.1515
11.7319
6.70515
6.54808
3.73818
3.06698
1.72965
1.28678
1.9153
-3.65325
-2.28172
12.8178
7.51198
7.09763
3.78833
2.57095
0.70794
0.568019
1.13722
-4.38244
-2.78494
12.4413
6.77258
6.11453
2.41946
0.896732
-1.13902
-0.509331
0.413093
-4.7244
-4.37368
10.947
5.07829
4.4484
0.897483
-0.225087
-1.92643
-0.305831
0.902105
-3.94841
-4.90423
10.5894
4.72143
4.22223
0.911892
0.274846
-1.24499
1.06092
2.26291
-2.47954
-4.11063
11.3313
5.13729
4.39603
0.968951
0.525392
-1.14342
1.5493
2.62926
-1.98709
-4.7968
11.0375
5.17466
4.70925
1.40651
1.14868
-0.970589
1.55537
1.92675
-2.89779
-5.01925
10.9445
4.95883
4.26263
0.768672
0.77738
-1.34758
1.64451
1.93838
-2.68632
-5.95152
10.0585
4.07696
3.54784
0.351096
0.947817
-1.14476
2.17216
2.33256
-2.0666
-7.59051
8.70953
3.23321
3.38576
0.794617
1.96033
-0.413244
2.70724
2.28153
-2.15796
-7.08364
8.97369
3.08775
2.90879
0.17094
1.70911
-0.613537
2.84259
2.31236
-1.94159
-5.31616
10.4273
3.97598
3.29948
0.216136
2.00964
-0.237705
3.67322
3.2349
-0.746212
-4.41644
11.2641
4.62569
3.80709
0.469213
2.30134
-0.298872
3.58207
2.86761
-1.02252
-6.78683
9.12758
2.95721
2.67753
-0.3781
1.6805
-1.36771
2.18692
0.753322
-3.26697
-8.88867
6.74652
0.659807
0.451965
-2.50898
-0.287362
-3.34156
0.582486
-1.06011
-4.82983
-8.39389
5.16826
-0.585953
-0.0530413
-2.37975
-0.25052
-3.07914
0.889497
-0.786553
-3.57175
-133.835
-28.1303
-28.7496
-18.9851
-16.6258
-14.5534
-13.2731
-17.1244
-12.5024
-77.603
-39.4597
-35.7508
-64.2855
-13.3327
-9.52199
-6.67889
-6.29875
-40.8652
-24.3743
-50.8165
-32.8789
-57.1054
-96.3731
-27.7052
-36.0547
-32.8134
-24.2353
-76.8409
-31.4074
-17.1043
0.353377
-25.7424
-89.4469
-31.3866
-57.6199
-52.8052
-27.578
-71.1295
-11.5788
9.78946
24.0369
0.330711
-60.1244
-14.3941
-49.8307
-44.3401
-11.0546
-42.3716
13.3551
26.1599
5.56334
-2.79897
-40.455
3.37703
-25.2067
-19.4004
8.04397
-15.5403
25.1625
26.762
-9.53932
-9.06257
-29.5667
11.4281
-5.20569
1.56445
17.6142
-3.0246
19.2136
10.783
-2.11187
-3.39467
-14.6173
17.4001
8.07541
11.8346
16.3331
-4.13011
4.88119
-6.31977
5.32193
0.533359
-2.86484
19.8624
15.4515
16.4867
15.5214
-3.23489
0.0692632
-7.64246
3.58873
-4.45271
-2.75496
14.0965
14.661
17.3063
16.727
2.06122
2.23856
-1.43846
10.2074
-2.79753
-0.135218
10.0953
11.3633
13.9342
13.3856
2.19627
-0.28736
-1.0963
22.1602
4.88259
7.4819
9.81173
8.35324
8.31311
7.21463
0.375937
-1.90476
0.838561
26.8536
7.78094
11.149
7.99568
5.28334
3.89566
3.27407
0.946124
-0.162757
5.44677
25.8094
6.31149
10.2603
4.12126
2.18306
0.775153
0.736875
1.31217
0.309783
7.08116
22.3507
3.3822
7.46429
-0.78155
-2.2269
-4.05483
-3.74108
-0.747154
-1.16085
6.4944
20.6348
2.3874
5.90337
-4.21094
-5.54397
-7.71667
-6.69519
-1.29605
-0.453609
8.03403
19.9285
2.43089
5.25426
-5.67911
-6.32527
-8.53515
-7.3949
-1.2258
-0.0111035
8.60091
14.8749
-0.639349
3.32683
-5.91572
-4.81387
-6.99876
-6.7613
-1.76989
-1.43759
6.5446
8.54557
-4.39813
1.46172
-5.04096
-2.58301
-4.97025
-5.86696
-2.70824
-3.76184
3.19763
5.89256
-5.54667
0.684951
-4.56628
-1.9529
-4.76804
-6.13496
-3.92769
-5.51309
0.894779
5.36984
-5.49473
0.134627
-4.45007
-1.76915
-4.67878
-6.03829
-4.50062
-6.41139
-0.406965
2.35201
-7.6542
-1.77042
-4.64291
-1.09902
-3.75869
-5.15937
-4.84367
-7.51597
-2.06418
-2.00617
-10.7626
-3.65978
-4.19316
0.30065
-2.34943
-4.06809
-4.9873
-8.33994
-3.23067
-2.18926
-10.5405
-3.16483
-2.49203
2.13447
-0.90758
-3.07781
-5.2063
-9.31863
-4.61793
-0.55035
-9.54215
-3.18227
-2.36537
2.18461
-0.733877
-2.67833
-5.43339
-10.0923
-5.58828
-1.36323
-10.8591
-5.06765
-3.68879
1.33148
-0.825284
-1.98212
-4.64332
-9.22774
-4.36347
-1.4879
-11.253
-5.634
-3.72839
1.42056
-0.524752
-1.4867
-4.24491
-8.69339
-3.25512
0.474172
-10.0139
-5.31652
-3.83531
0.738289
-1.41765
-2.43935
-5.29284
-9.56256
-3.43551
1.42567
-9.90505
-6.23366
-5.18901
-0.788572
-2.48451
-2.98173
-5.42567
-9.26376
-2.33602
1.39173
-10.3645
-7.02702
-5.87999
-1.22638
-2.21011
-2.17594
-4.14743
-7.47512
0.238642
1.84011
-10.1768
-7.0345
-6.05198
-1.67608
-2.51715
-2.31616
-3.6941
-6.12866
2.55398
1.97816
-10.3293
-7.46913
-6.95664
-3.18021
-4.05063
-3.5841
-3.98252
-5.1416
4.5873
1.74216
-10.7689
-7.94296
-7.6388
-4.16411
-4.85572
-4.11461
-3.75858
-4.07677
6.20922
2.07837
-10.6676
-7.85162
-7.72184
-4.47455
-4.98569
-4.11627
-3.31869
-3.19918
7.23145
2.7789
-10.2698
-7.59921
-7.85429
-5.01429
-5.44649
-4.40136
-3.03093
-2.34856
8.17914
3.18812
-9.99428
-7.25552
-7.78114
-5.38619
-5.94451
-4.97617
-3.33964
-2.40763
7.95424
2.54419
-10.6629
-7.60588
-8.09939
-5.86937
-6.42352
-5.52762
-3.79394
-2.86276
7.144
1.21622
-12.0633
-8.53931
-8.68818
-6.15523
-6.20825
-4.92585
-2.8129
-1.73258
7.9213
1.02961
-12.315
-8.23849
-8.0151
-5.299
-5.13928
-3.86244
-1.86444
-1.04108
7.98315
1.60702
-11.9866
-7.71761
-7.57484
-5.07979
-5.04309
-3.92349
-2.09003
-1.46553
6.99326
1.76424
-12.2652
-8.0214
-8.0269
-5.5191
-5.16067
-3.64131
-1.53504
-0.798025
7.2218
2.35229
-11.9184
-7.41785
-7.29712
-4.60576
-4.00831
-2.43625
-0.660006
-0.361068
6.87147
3.5499
-10.9963
-6.42879
-6.4523
-3.88183
-3.33946
-1.87391
-0.467831
-0.469049
6.11721
4.04297
-10.7838
-6.19828
-6.36836
-3.87168
-3.33753
-1.91067
-0.840303
-1.06342
4.9805
3.13964
-11.7308
-6.70344
-6.54905
-3.73776
-3.06595
-1.72987
-1.28956
-1.91188
3.64769
2.26994
-12.8168
-7.51022
-7.09848
-3.78774
-2.56968
-0.707929
-0.570778
-1.13414
4.37387
2.77338
-12.4402
-6.77075
-6.11524
-2.41869
-0.895239
1.13925
0.506554
-0.410366
4.71303
4.36253
-10.9459
-5.07635
-4.44894
-0.89653
0.226787
1.92683
0.302978
-0.899758
3.93438
4.89362
-10.5884
-4.71936
-4.22257
-0.910765
-0.273009
1.24549
-1.06392
-2.26096
2.4631
4.10062
-11.3302
-5.13509
-4.39619
-0.967675
-0.523489
1.14394
-1.55246
-2.62767
1.96861
4.78755
-11.0363
-5.17234
-4.70922
-1.4051
-1.14678
0.971076
-1.55871
-1.92547
2.87768
5.01099
-10.9431
-4.95638
-4.2624
-0.767159
-0.775516
1.34798
-1.64804
-1.93737
2.66485
5.9443
-10.0569
-4.07436
-3.54741
-0.349485
-0.946027
1.14505
-2.17589
-2.33182
2.04386
7.58446
-8.70776
-3.23043
-3.38514
-0.792944
-1.95867
0.413363
-2.71117
-2.28102
2.13419
7.07874
-8.97171
-3.08481
-2.90799
-0.169226
-1.70759
0.613472
-2.84672
-2.31206
1.91699
5.31226
-10.4251
-3.97289
-3.29851
-0.214384
-2.00825
0.237455
-3.67754
-3.2348
0.720854
4.41368
-11.2617
-4.62247
-3.80598
-0.467462
-2.3001
0.298426
-3.58657
-2.86769
0.996622
6.78558
-9.12489
-2.95385
-2.67632
0.379815
-1.67942
1.36706
-2.19159
-0.753543
3.24086
8.88928
-6.7435
-0.656298
-0.45067
2.51064
0.288289
3.34072
-0.58731
1.05977
4.80364
8.39638
-5.1649
0.589601
0.0543978
2.38134
0.251301
3.0781
-0.894482
0.786061
3.54534
)
;
        value           nonuniform List<scalar> 
1200
(
573.326
130.838
202.258
202.719
206.311
206.305
202.704
202.213
130.828
572.973
365.344
156.327
260.027
225.017
225.676
225.663
225.001
259.874
156.327
365.463
277.364
162.736
266.686
218.43
229.273
229.25
218.446
266.532
162.649
277.323
246.862
168.504
253.457
200.74
219.91
219.869
200.763
253.314
168.464
246.839
226.533
169.361
238.218
186.785
209.767
209.714
186.812
238.091
169.317
226.557
209.646
166.496
223.416
176.37
200.257
200.196
176.391
223.261
166.373
209.576
196.013
162.217
209.539
167.65
190.592
190.521
167.66
209.383
162.086
195.945
184.572
157.384
196.838
160.082
181.114
181.058
160.116
196.78
157.334
184.626
174.598
152.353
185.373
153.467
172.225
172.187
153.501
185.387
152.326
174.696
165.758
147.353
175.085
147.583
164.019
163.98
147.572
175.08
147.278
165.815
157.766
142.438
165.774
142.199
156.445
156.413
142.177
165.786
142.373
157.854
150.491
137.671
157.309
137.2
149.452
149.44
137.198
157.374
137.644
150.63
143.881
133.126
149.633
132.537
142.999
143
132.538
149.716
133.099
144.021
137.839
128.801
142.655
128.161
137.035
137.043
128.148
142.732
128.764
137.966
132.275
124.677
136.278
124.026
131.517
131.533
124.006
136.349
124.635
132.389
127.109
120.727
130.413
120.092
126.386
126.408
120.065
130.476
120.682
127.209
122.293
116.945
124.997
116.331
121.59
121.617
116.299
125.054
116.902
122.39
117.812
113.335
119.986
112.728
117.093
117.123
112.69
120.034
113.29
117.897
113.611
109.873
115.324
109.266
112.865
112.899
109.229
115.366
109.827
113.686
109.634
106.53
110.963
105.937
108.887
108.925
105.905
111.006
106.493
109.712
105.859
103.301
106.87
102.729
105.125
105.165
102.698
106.912
103.274
105.946
102.285
100.191
103.02
99.629
101.549
101.588
99.5935
103.053
100.163
102.369
98.8845
97.1829
99.3768
96.6209
98.1342
98.1731
96.5835
99.3994
97.1475
98.955
95.6079
94.2445
95.9021
93.6913
94.8627
94.9032
93.6588
95.9267
94.2182
95.6866
92.4486
91.3783
92.5869
90.8442
91.7269
91.7661
90.812
92.6114
91.364
92.5427
89.4118
88.5907
89.4176
88.0703
88.706
88.7405
88.0299
89.4276
88.5687
89.4979
86.4674
85.8575
86.36
85.3478
85.7763
85.8087
85.3065
86.3643
85.8338
86.5496
83.5953
83.1671
83.4002
82.676
82.9333
82.9656
82.6408
83.4106
83.157
83.6905
80.7994
80.5265
80.5343
80.0537
80.1657
80.1944
80.0164
80.54
80.5183
80.8962
78.0694
77.9265
77.7429
77.4652
77.4534
77.4772
77.4221
77.7374
77.9095
78.1551
75.3888
75.3553
75.0114
74.9054
74.7928
74.8144
74.8637
75.0028
75.3344
75.4669
72.7533
72.8124
72.336
72.3755
72.1808
72.2011
72.3371
72.3258
72.7875
72.8236
70.156
70.293
69.7059
69.8658
69.6024
69.6203
69.8279
69.6913
70.2615
70.2183
67.5858
67.7884
67.1104
67.3703
67.0502
67.0657
67.3331
67.093
67.7537
67.6457
65.038
65.2962
64.5447
64.8884
64.5232
64.5368
64.8528
64.526
65.2594
65.0974
62.5108
62.8147
62.0032
62.4153
62.0142
62.027
62.3838
61.9865
62.7797
62.5739
60.0036
60.3451
59.4843
59.951
59.5203
59.5317
59.9213
59.467
60.309
60.068
57.5106
57.8834
56.9828
57.492
57.036
57.0434
57.457
56.9549
57.8345
57.5647
55.0197
55.4168
54.4846
55.0286
54.553
54.558
54.9917
54.4534
55.3638
55.072
52.5296
52.9458
51.9909
52.5662
52.0771
52.0814
52.5312
51.9645
52.898
52.5886
50.0431
50.4748
49.5044
50.1058
49.6053
49.607
50.066
49.4754
50.4241
50.1004
47.5534
47.9962
47.0139
47.6352
47.1252
47.125
47.5915
46.9855
47.9471
47.6142
45.0575
45.5087
44.5198
45.1581
44.6424
44.6423
45.1141
44.4976
45.467
45.127
42.5601
43.0176
42.0257
42.6775
42.1577
42.1578
42.632
42.0087
42.982
42.6368
40.063
40.5237
39.5295
40.1896
39.6653
39.6652
40.1399
39.5145
40.4894
40.141
37.5575
38.0209
37.0274
37.6936
37.1654
37.1632
37.6338
37.0065
37.9783
37.6271
35.0354
35.4998
34.5085
35.1787
34.6481
34.6457
35.1127
34.4869
35.4557
35.1061
32.4968
32.9611
31.9746
32.648
32.1185
32.1198
32.585
31.9631
32.9269
32.58
29.9517
30.4155
29.4361
30.1112
29.5841
29.5899
30.0516
29.4332
30.3896
30.0456
27.4003
27.8617
26.8889
27.5623
27.0364
27.0455
27.5014
26.8862
27.8336
27.4933
24.8277
25.2883
24.3262
24.9995
24.4765
24.489
24.937
24.323
25.2579
24.9201
22.243
22.701
21.7481
22.4179
21.8965
21.9129
22.3548
21.7461
22.671
22.3382
19.6398
20.0945
19.152
19.8195
19.3027
19.3244
19.7601
19.1566
20.0709
19.7434
17.0176
17.47
16.5408
17.2081
16.6979
16.7248
17.1525
16.5519
17.453
17.1297
14.39
14.8375
13.9177
14.5796
14.0725
14.1036
14.5246
13.9297
14.8194
14.5013
11.751
12.1938
11.2842
11.9407
11.4367
11.4712
11.8846
11.2949
12.1727
11.8595
9.08472
9.52734
8.63444
9.29114
8.79325
8.82967
9.23072
8.64008
9.49926
9.18676
6.35859
6.81666
5.96193
6.6344
6.15345
6.19189
6.57191
5.96678
6.78639
6.45898
3.54501
4.05588
3.29846
4.00891
3.56696
3.60514
3.94449
3.30357
4.02289
3.64115
-0.0245664
1.14123
0.812653
1.6294
1.30148
1.33413
1.56905
0.821834
1.10905
0.0640701
571.988
130.557
201.97
202.529
206.145
206.159
202.571
202.041
130.702
572.197
364.949
155.97
259.384
224.884
225.581
225.596
224.938
259.465
156.083
364.954
277.035
162.165
265.722
218.153
228.912
228.922
218.204
265.763
162.335
277.152
246.866
168.246
252.562
200.426
219.333
219.341
200.487
252.602
168.348
246.937
226.774
169.365
237.616
186.641
209.269
209.271
186.701
237.668
169.45
226.819
209.702
166.468
223.011
176.404
200.005
200.002
176.471
223.106
166.625
209.844
195.917
162.127
209.243
167.764
190.539
190.537
167.836
209.353
162.279
196.053
184.551
157.35
196.692
160.256
181.195
181.176
160.279
196.739
157.383
184.563
174.651
152.358
185.345
153.666
172.379
172.352
153.656
185.355
152.327
174.619
165.794
147.308
175.058
147.724
164.166
164.153
147.739
175.1
147.3
165.801
157.868
142.41
165.772
142.3
156.559
156.552
142.311
165.808
142.37
157.843
150.712
137.72
157.384
137.298
149.535
149.523
137.27
157.378
137.625
150.638
144.149
133.203
149.744
132.617
143.051
143.039
132.57
149.726
133.098
144.075
138.097
128.864
142.758
128.202
137.057
137.051
128.156
142.745
128.767
138.037
132.498
124.71
136.353
124.018
131.495
131.493
123.969
136.341
124.624
132.454
127.315
120.751
130.472
120.05
126.33
126.331
119.998
130.463
120.677
127.289
122.493
116.969
125.049
116.274
121.527
121.532
116.225
125.042
116.902
122.476
117.961
113.329
120.019
112.669
117.044
117.053
112.623
120.017
113.275
117.963
113.697
109.829
115.338
109.215
112.839
112.849
109.17
115.339
109.789
113.718
109.693
106.475
110.97
105.892
108.868
108.877
105.843
110.967
106.438
109.721
105.913
103.246
106.871
102.685
105.107
105.118
102.637
106.867
103.21
105.942
102.309
100.114
103.002
99.5825
101.537
101.55
99.5418
103.005
100.088
102.349
98.8646
97.0753
99.3402
96.5789
98.1371
98.1495
96.5427
99.3495
97.0642
98.9228
95.5862
94.1392
95.8705
93.6663
94.884
94.894
93.6279
95.8747
94.125
95.6406
92.4432
91.2829
92.5552
90.8206
91.7487
91.7587
90.7852
92.557
91.2631
92.4868
89.3983
88.4822
89.367
88.0334
88.7193
88.7322
88.01
89.3812
88.4764
89.4543
86.4526
85.7449
86.3037
85.3106
85.7905
85.8034
85.2917
86.3219
85.7469
86.517
83.6001
83.067
83.3471
82.6377
82.9407
82.9514
82.6164
83.3576
83.0614
83.6561
80.8137
80.4274
80.472
80.0019
80.1579
80.1695
79.9866
80.4858
80.4256
80.8727
78.0834
77.8229
77.6726
77.4065
77.4412
77.4551
77.4004
77.696
77.8347
78.1574
75.4072
75.2535
74.9411
74.845
74.7761
74.7892
74.8407
74.9659
75.2731
75.4923
72.7731
72.7091
72.2613
72.306
72.1491
72.1606
72.3013
72.286
72.7359
72.8693
70.1735
70.1853
69.6265
69.7895
69.5608
69.5718
69.7869
69.6537
70.2207
70.2803
67.6067
67.6818
67.0319
67.2932
67.0055
67.0159
67.292
67.0598
67.7216
67.7178
65.0659
65.1935
64.4687
64.8099
64.4731
64.4824
64.8089
64.4957
65.2358
65.179
62.5428
62.7148
61.9306
62.3376
61.9604
61.9676
62.3341
61.9531
62.7556
62.6534
60.0291
60.2385
59.4082
59.87
59.4617
59.4675
59.8661
59.4291
60.2803
60.1394
57.5229
57.7628
56.8974
57.4051
56.9744
56.9813
57.4078
56.9268
57.8171
57.6439
55.03
55.2937
54.4021
54.9485
54.5
54.5066
54.9531
54.4347
55.3533
55.1519
52.5457
52.8259
51.9137
52.4904
52.0263
52.0309
52.4919
51.9436
52.8833
52.6585
50.0608
50.3522
49.4242
50.0256
49.5501
49.5553
50.0296
49.46
50.4161
50.1727
47.577
47.877
46.9397
47.5622
47.0791
47.0849
47.5672
46.9789
47.9435
47.683
45.0931
45.3988
44.4555
45.0936
44.6035
44.6088
45.0953
44.4929
45.4623
45.1883
42.6006
42.9097
41.9637
42.6138
42.119
42.1243
42.6128
42.0003
42.9713
42.6867
40.0945
40.4064
39.4624
40.1241
39.6279
39.6344
40.1226
39.5016
40.4703
40.1776
37.5802
37.8927
36.9522
37.6226
37.1274
37.1375
37.6267
37.0008
37.967
37.671
35.0631
35.3754
34.4408
35.1175
34.6238
34.6366
35.1241
34.492
35.4516
35.1534
32.5405
32.8517
31.9238
32.6034
32.1095
32.122
32.6042
31.9662
32.918
32.6196
30.0007
30.3096
29.3888
30.0689
29.5749
29.5871
30.064
29.4227
30.3671
30.0704
27.4413
27.7484
26.8374
27.5183
27.0266
27.0403
27.5128
26.8707
27.8074
27.5131
24.8756
25.1779
24.2744
24.9524
24.4623
24.4775
24.9467
24.3075
25.2387
24.949
22.2931
22.5916
21.6984
22.3752
21.8888
21.9051
22.3683
21.7297
22.6517
22.365
19.6992
19.9939
19.1111
19.7839
19.2992
19.3149
19.7716
19.135
20.0476
19.764
17.0934
17.3829
16.5084
17.1742
16.6899
16.7052
17.1567
16.525
17.4302
17.1512
14.4608
14.7477
13.8868
14.5505
14.0708
14.0866
14.5308
13.9013
14.7963
14.5206
11.8041
12.0895
11.2443
11.9077
11.4345
11.4511
11.887
11.2582
12.1404
11.8669
9.12881
9.41462
8.5881
9.25302
8.78856
8.8067
9.23375
8.60434
9.47061
9.19684
6.42638
6.7253
5.93227
6.60757
6.15724
6.17512
6.58563
5.94499
6.77888
6.4915
3.63383
3.98832
3.29178
4.00436
3.59207
3.60805
3.97796
3.29784
4.03352
3.6893
0.0593186
1.08945
0.818446
1.62991
1.3253