/*--------------------------------*- C++ -*----------------------------------*\
  =========                 |
  \\      /  F ield         | OpenFOAM: The Open Source CFD Toolbox
   \\    /   O peration     | Website:  https://openfoam.org
    \\  /    A nd           | Version:  8
     \\/     M anipulation  |
\*---------------------------------------------------------------------------*/
FoamFile
{
    version     2.0;
    format      ascii;
    class       volScalarField;
    location    "400";
    object      p;
}
// * * * * * * * * * * * * * * * * * * * * * * * * * * * * * * * * * * * * * //

dimensions      [1 -1 -2 0 0 0 0];

internalField   nonuniform List<scalar> 
1200
(
320091
317350
315759
315346
314899
313895
312835
311816
311172
309747
306939
302647
296660
291721
289641
275699
257822
243012
232634
224676
217145
210628
205179
199886
192910
183684
175488
168628
163870
160480
157580
154706
151924
149400
146804
144291
141315
138037
134334
130526
126621
122320
116431
109206
101561
94402
88451.8
83404.6
78976
75204.6
71471.4
67356
62509.5
56551.2
49674.9
41339.8
32160.8
22321.6
13185.2
3449.41
312612
313591
313522
313693
313738
313220
312389
311515
310898
309538
306880
302621
296526
290951
287269
274994
258694
244526
234169
225907
218065
211345
205541
200026
192951
183769
175631
168783
163987
160556
157614
154727
151978
149521
147007
144584
141699
138434
134756
130931
126930
122479
116462
109126
101391
94188.3
88217.8
83210.3
78824.2
75106.1
71447.8
67431.6
62700
56896.6
50169.1
41979.1
32890.6
23118.6
13935.6
3938.82
313812
315230
315343
315109
314727
313925
312761
311733
311162
309836
307169
302608
295808
289272
283164
271255
256570
243911
234486
226448
218763
211566
205380
199837
192769
183372
174937
167935
163062
159705
156950
154190
151423
148876
146321
143846
141015
137962
134449
130701
126748
122345
116420
109138
101327
94009.8
88027.1
83032.4
78593
74753.9
70976.9
66874.1
62001.6
56177.1
49701.2
41792.4
33062.1
23590.2
14457.9
4298.94
313621
314215
314030
313690
313430
312992
312090
311207
310745
309629
307267
302470
294764
287045
279626
269002
256677
245842
237517
229735
221352
213119
205717
198988
191545
183032
175341
168603
163342
159504
156463
153675
150996
148457
145880
143331
140570
137599
134212
130531
126585
122164
116302
108962
100995
93559.5
87591.5
82781.5
78390.9
74325.9
70252.6
66064.8
61421.3
55909.3
49741
42214.8
33833.7
24435.8
15268.8
4098.98
313507
313951
314007
313810
313586
313243
312356
311405
310912
309925
308133
303135
294041
284862
276242
266355
255824
246387
239021
231590
223078
214481
206407
198851
191114
182848
175155
168286
162801
158687
155471
152729
150234
147826
145339
142793
140095
137183
133947
130396
126586
122425
116862
109586
101461
93694.3
87343.5
82226.3
77604.5
73238.3
68965.5
64901.2
60475.4
55219.7
49427.3
42327.6
34421
25317
16232.1
4154.53
313298
313674
313736
313542
313324
313072
312276
311356
310903
309976
308691
303533
292702
282518
273547
264615
255694
247465
241108
233887
225012
215731
206912
198654
190624
182600
175088
168235
162526
158071
154553
151728
149367
147155
144858
142457
139992
137292
134208
130676
126805
122736
117300
109924
101475
93293.8
86679.5
81615.2
77201.3
72792
68001.4
63431
58937
54069.9
48950.4
42532.2
35223.8
26201.3
16974.3
4066.99
313018
313345
313195
312789
312465
312321
311644
310823
310480
309660
309213
304471
291480
279972
270111
261622
254057
247284
243165
237106
228383
218647
208927
199625
190821
182484
174775
167815
161984
157426
153817
151007
148815
146762
144527
142095
139699
137119
134152
130697
126887
123132
117855
110239
101452
93027.8
86147.3
80744.4
75829
70724.6
65586.4
61431.8
57684.9
53423.8
48786.7
42700
35711.6
26755.2
17538.6
4537.62
312838
313777
313956
313608
313234
312999
312286
311495
311212
310534
310331
306101
289765
277217
267584
259413
252925
248408
248328
243362
233307
221817
210597
200087
190714
182366
174648
167635
161636
156888
153083
150218
148129
146204
144042
141664
139431
137016
134141
130675
126860
123339
118278
110407
101104
92367.8
85594.4
80748
76451.2
71617.9
65641.1
60420.9
56297.4
52196.2
47947.7
42213.3
35579.8
26744.4
17527.4
4450.46
311457
311609
311969
311942
311847
312012
311506
310946
311005
310923
314126
310847
289667
274898
264778
258127
252999
249088
252464
249877
239390
226226
213183
201266
191102
182272
174265
167182
161193
156580
153016
150480
148698
146726
144135
141291
139161
137181
134807
131734
128060
124817
119687
111962
103310
95071.2
87816.3
81237.7
75179.5
69253.7
63456.5
59158.5
55810.4
52066.5
47932.2
42237.9
35753.6
27006.1
17843.6
4467.96
318460
314890
313700
313088
312640
312530
311905
311347
311476
311399
319501
316493
289255
272115
261718
255216
250570
247814
250344
246872
236906
224770
212651
201262
191431
182886
174911
167965
161910
156913
153039
150400
148507
146502
143999
141142
138649
136536
133981
130660
126750
123324
118149
110558
102061
93974.8
87048.6
80859.7
75102.3
69534.9
63675.7
58930.8
55262.5
51455.7
47362.9
41745.1
35408.4
26729
17611.2
4716.43
320769
316426
315236
314607
314125
314008
313626
312622
310775
308609
305952
302073
296235
291140
288705
274990
258076
244152
233839
225299
217709
211193
205154
198526
190756
182924
176085
170061
164665
160310
156833
153853
151248
148954
146723
144205
141485
138436
134924
131032
126783
121850
115804
108666
101068
93771.3
87395.2
82129.3
77860.8
74067
70340.8
66387
61802.4
56258
49643.8
41677.6
32800.4
23282
13896.5
4188.07
312838
313054
313246
313248
313208
313251
313048
312190
310440
308364
305831
301964
295974
290367
286717
274747
259012
245408
234967
226041
218153
211485
205163
198344
190435
182554
175750
169706
164195
159892
156520
153562
150961
148692
146461
144040
141475
138524
135008
131078
126745
121684
115487
108240
100574
93250.1
86844.3
81613.6
77365.2
73573.7
69872.6
65970.9
61508.7
56176.2
49757.5
41963.2
33172.2
23705.7
14232.8
4496.98
314115
314762
314945
314730
314409
313909
313385
312447
310853
308922
306500
302443
295817
289465
283777
272385
258175
245836
236022
227068
219202
212009
205300
198444
190562
182438
175335
169054
163401
159275
156154
153279
150624
148251
145913
143462
140967
138230
134784
130897
126616
121615
115464
108264
100511
93054.9
86614.4
81463.5
77239.8
73380.6
69624.3
65686.2
61153.2
55802.6
49537.9
41905.8
33337.9
24100.7
14574.9
4892.3
313797
314010
313918
313702
313468
312977
312582
311860
310562
308882
306764
302459
294879
287321
280280
270157
258337
247951
239341
230609
221999
213730
205874
197921
189618
182082
175648
169570
163597
159216
155920
152968
150328
147943
145523
143029
140611
137967
134567
130741
126505
121526
115425
108197
100310
92744.7
86292
81273.8
77056.9
72909.2
68791.6
64691.2
60356.8
55331.8
49379.3
42151.6
33927.7
24794.8
15114.1
4747.09
313659
313934
314024
313924
313692
313097
312709
312101
310960
309386
307718
303140
294156
285128
276845
267416
257333
248413
240828
232419
223635
214969
206554
197988
189407
181791
175162
168810
162641
158252
155052
152235
149761
147496
145120
142622
140203
137595
134314
130623
126533
121785
115940
108767
100707
92829.1
86083
80826.5
76383.8
71931.6
67609.2
63598.8
59478.5
54709.9
49077.3
42223
34373.4
25501.8
15774.6
4814.27
313461
313794
313911
313845
313674
313066
312712
312211
311292
309848
308617
303793
293160
283236
274600
266074
257540
249707
242860
234390
225072
215678
206698
197829
189191
181538
174796
168217
161831
157314
154075
151283
148942
146863
144639
142261
139968
137507
134352
130709
126631
121968
116255
109004
100619
92356.9
85478.8
80331.2
76025.3
71443
66583.8
62054.5
57853.3
53480.3
48481.6
42258.3
34893.2
26116.7
16148.5
4701.57
313193
313539
313336
313048
312787
312248
312016
311672
311118
310042
309749
305278
292492
281151
271453
263266
256132
249968
245565
238247
228848
218703
208618
198731
189289
180941
173696
166854
160558
156249
153245
150643
148514
146592
144411
141975
139651
137249
134237
130745
126841
122453
116893
109370
100551
92024.9
85073.8
79848
75146.3
69847.6
64461.2
60126.6
56527.2
52746.3
48220.8
42300.3
35115
26351.5
16325.9
4938.92
313021
314239
314262
314109
313832
313000
312703
312317
311826
310869
310896
307479
291911
280138
270997
263045
256799
252501
251256
244431
233358
221314
209763
198971
189205
180697
173269
166212
159794
155377
152322
149757
147765
145990
143911
141538
139324
137047
134153
130682
126823
122563
117214
109529
100236
91328.2
84362.8
79628.9
75509.4
70460.7
64366.1
59053.5
55088.9
51494.1
47365.1
41771.3
34789.1
26067.3
15971.5
4772.35
311523
311922
311965
312146
312162
311735
311650
311386
311176
310736
313765
310653
290248
275891
266082
259751
255360
252332
255539
251925
240612
226831
213288
200981
190180
180749
172771
165490
159132
154928
152204
149995
148283
146442
143936
141064
138877
137000
134629
131570
127922
123752
118223
110646
101996
93610.9
86412.3
80347.6
74757.7
68673.6
62470.8
57760.4
54409.2
51186.2
47229.8
41689.6
34718.7
25978.1
15894.1
4430.21
318423
315504
313690
313272
312942
312135
311912
311568
311345
310872
318526
314745
287891
271913
262394
256488
252472
250267
252184
247524
236899
224318
211826
200242
189972
180959
173201
166141
159762
155187
152154
149864
148079
146210
143822
141029
138556
136523
133963
130650
126863
122599
117088
109671
101161
92800.1
85777.4
79994
74691.8
69047.3
62958.1
57872.1
54174.5
50890.8
46984.2
41501.8
34578.2
25807.1
15721.7
4569.25
)
;

boundaryField
{
    wall
    {
        type            calculated;
        value           nonuniform List<scalar> 
1200
(
319744
312496
313658
313533
313431
313217
312930
312745
311425
318482
317818
313862
315466
314318
313959
313614
313248
313543
311450
314578
316023
313661
315544
314087
313998
313647
313123
313801
311973
313707
315725
313920
315301
313683
313751
313387
312655
313353
311839
312998
315301
314013
314889
313409
313530
313143
312297
312927
311687
312489
313845
313211
313936
313002
313318
313073
312354
312995
312153
312734
312440
312061
312448
311844
312181
312055
311452
312071
311435
311907
311408
311174
311374
310878
311056
310922
310387
311074
310726
311242
311371
311130
311317
310839
310888
310704
310143
310891
310920
311550
310323
310133
310296
310006
310196
310035
309441
310342
311019
311679
307441
307414
307507
307522
308344
308725
308923
309968
314309
320063
302943
302959
302691
302476
303134
303397
304054
305367
310932
317381
296892
296818
295802
294705
293984
292462
290970
288663
289368
289863
292073
291277
289169
286903
284727
282151
279389
275721
274410
272166
290159
287573
282847
279292
275939
273021
269446
265817
264146
261374
276029
275125
270685
268418
265822
263893
260813
257523
257327
254593
257631
258520
255766
255844
255069
254784
253033
250936
251818
249642
242396
244064
242948
244788
245369
246353
245939
246379
247455
246605
232011
233749
233718
236606
238109
240236
241952
246930
250930
249417
224361
225823
226141
229300
231169
233639
236528
242901
248879
246541
216865
218010
218541
221023
222793
224981
228155
233345
238808
236908
210348
211266
211339
212802
214232
215751
218633
222129
225933
224997
205195
205727
205412
205626
206326
207007
209097
211068
213121
213065
200574
200873
200530
199522
199277
199052
200089
200686
201390
201771
194000
194223
193885
192524
191967
191330
191602
191500
191544
192160
184071
184379
183853
183519
183374
183122
183270
183226
183021
183855
175191
175566
174743
175191
175145
175226
175325
175359
175004
175768
167906
168311
167370
168112
168014
168237
168304
168366
168023
168880
163467
163878
162890
163209
162876
162872
162706
162574
162223
162991
160563
160889
159921
159645
158899
158448
158019
157655
157405
157777
157957
158168
157353
156737
155673
154789
154104
153468
153419
153472
155137
155316
154655
154035
152969
151948
151189
150451
150713
150652
152267
152490
151834
151337
150464
149581
148967
148314
148890
148704
149626
149938
149198
148719
147983
147303
146850
146313
146853
146632
146845
147278
146531
146061
145441
144972
144587
144110
144228
144071
144337
144853
144042
143484
142871
142563
142157
141731
141407
141183
141233
141805
141038
140548
140032
140013
139724
139488
139308
138687
137841
138383
137824
137411
136967
137192
137051
137003
137277
136539
134040
134622
134275
134029
133755
134144
134105
134137
134897
133992
130272
130851
130598
130421
130279
130665
130666
130672
131811
130672
126538
127019
126811
126619
126613
126896
126899
126875
128116
126695
122556
122876
122710
122480
122750
123122
123461
123722
125337
123689
116745
116948
116899
116737
117331
117826
118331
118811
120407
118683
109477
109565
109574
109339
110003
110387
110671
110862
112605
111006
101806
101795
101731
101332
101844
101905
101899
101565
103949
102517
94715.8
94652.8
94482.7
93959.1
94129.7
93763.1
93528
92915.1
95786.9
94578.2
88979.2
88902.4
88728.9
88233.3
87976.1
87281.1
86682.1
86228.3
88508.6
87701
84042.1
84009.1
83811.1
83528.5
82928.7
82257.8
81189.5
81308.5
81670.4
81294.2
79532.1
79554.9
79261.1
79053.5
78214.2
77785.9
76167.6
76911.8
75376.1
75292.8
75772.6
75875.8
75431.3
75034.9
73888.4
73462.4
71164.6
72182.8
69539.4
69760.6
72037.8
72240.7
71643.6
70987.1
69636.3
68708.1
66154.3
66267.2
63951.7
64024.1
67843.6
68167.5
67459.5
66756.9
65542.5
64121.3
62088.1
61102.1
59858.7
59458.5
62868.4
63299.6
62421.7
61956.3
60964.3
59482.4
58264.6
56904.8
56510.3
55808.2
56702.6
57255.8
56365
56197.3
55467.7
54367
53760.8
52550
52503.5
51738.6
49691.6
50369.8
49785.1
49919.8
49600.1
49187.8
49069.1
48240.5
48279.5
47551.9
41168.4
41978.3
41737.5
42243.1
42380.6
42671.7
42900
42434.2
42508.1
41866.3
31835.8
32739
32922.8
33782.1
34445.9
35390.1
36010
35975.6
36270.2
35826.4
21837.2
22814.8
23329.7
24250.9
25222.4
26240.9
26953.6
27082.3
27520.5
27194.9
12826
13777.6
14393.8
15344
16460.3
17389.3
18146
18313.6
18827.4
18568.6
3081.48
3653.28
3991.63
3767.89
3814.08
3741.63
4328.3
4280.52
4489.84
4793.91
321116
312954
314269
313886
313736
313542
313281
313114
311555
318401
315959
312782
314526
313907
313926
313854
313637
314473
312081
315816
314971
313107
314744
313861
314033
314000
313409
314416
311962
313682
314228
313021
314539
313708
313983
314000
313182
314363
312249
313362
313723
312933
314247
313489
313748
313855
312954
314138
312322
313094
314059
313261
313898
312967
313023
313064
312214
313003
311594
311932
314022
313376
313699
312827
312884
312931
312207
312916
311720
311911
313029
312531
312806
312189
312450
312643
312106
312735
311606
311674
310577
310209
310697
310469
310983
311488
311450
312142
311260
311272
308033
307769
308462
308505
309115
309785
310253
311052
310640
310594
305449
305297
306162
306509
307507
308578
310025
311247
313577
317961
301777
301626
302360
302454
303141
303922
305681
308218
310534
313850
296003
295682
295823
294938
294214
293392
292990
293026
290520
287278
290786
290041
289567
287464
285264
283595
281721
281620
276373
271860
288184
286412
284093
280615
277153
275122
272106
272686
266714
262739
274657
274615
272955
270742
267954
266799
264074
264820
260547
257113
258265
259186
258979
259174
258092
258456
257162
258674
256537
253401
244768
245870
246800
249010
249434
250826
251320
254446
253963
251477
234462
235386
236791
240255
241739
243737
246785
252617
257073
253111
225615
226126
227376
231042
232835
234641
238830
244898
252875
247854
217989
218208
219423
222322
223913
225105
229082
233353
241155
236897
211474
211565
212236
214042
215211
215658
218725
221049
227096
224091
205140
204979
205268
205961
206627
206603
208459
209341
213321
211412
197839
197497
197751
197383
197554
197427
198282
198418
200826
199732
189666
189164
189446
188637
188547
188479
188523
188461
189703
189242
182539
181944
181958
181596
181260
181009
180170
179872
179969
179990
176383
175816
175530
175800
175168
174651
173160
172588
172008
172345
170783
170178
169619
170061
169078
168208
166378
165507
164634
165226
165069
164306
163574
163729
162560
161478
159848
158879
158095
158682
160228
159558
159059
159072
158034
156934
155666
154630
154102
154324
156457
155967
155750
155643
154843
153838
152968
151956
151803
151721
153423
152974
152813
152607
151987
151063
150470
149540
149763
149613
150906
150450
150213
149986
149524
148730
148370
147594
148092
147882
148728
148276
147929
147681
147331
146718
146513
145891
146315
146080
146683
146190
145703
145342
145011
144530
144359
143852
143843
143750
144160
143771
143266
142876
142537
142162
141921
141480
140949
140988
141567
141369
140943
140634
140260
139955
139633
139274
138730
138519
138632
138575
138368
138155
137806
137615
137323
137066
136905
136521
135219
135142
134957
134750
134501
134424
134290
134163
134539
133951
131286
131158
130999
130853
130736
130726
130781
130690
131493
130638
126866
126656
126553
126472
126505
126546
126830
126812
127866
126918
121613
121287
121250
121213
121462
121584
122120
122181
123231
122234
115489
115001
114986
114992
115473
115729
116410
116680
117503
116555
108396
107801
107828
107820
108354
108540
108930
109073
110004
109224
100823
100170
100107
99974.1
100328
100185
100097
99775.4
101356
100705
93457.8
92786.1
92582
92345.8
92396.9
91884.5
91524.1
90780.8
92895.2
92196.3
86868.2
86160.2
85912.6
85650.4
85453.1
84875.5
84538.9
83728.7
85719.6
85124.3
81492.4
80815.6
80684.9
80526.7
80126.3
79689.3
79402.8
79068
79913.9
79558.8
77305.3
76635.4
76571.8
76394.1
75774.8
75441.3
74807.7
75048.6
74561.1
74501.4
73499.6
72804.9
72703.3
72200
71281.6
70772.9
69407.5
69895.7
68388.8
68822.4
69774.9
69080.4
68957.7
68057
66938.5
65877.2
63893.2
63739.9
61976.2
62610.7
65899.6
65235.5
65100.8
63999
62957.5
61364.2
59470.3
58372.2
57060.7
57345.2
61443.4
60909.4
60733.1
59821.7
58989.6
57308
55947.5
54481.5
53709.7
53629.3
56106.4
55817.2
55614.7
55043.7
54461.8
53183.1
52409.2
51140.3
50749.7
50608.5
49627
49556.9
49453.8
49200.3
48904.4
48244
47938.2
47072.2
46882.9
46795.7
41849.1
41964.2
41960.5
42123.2
42169.9
42118.6
42100.1
41550.3
41419.9
41381.1
33125.7
33324
33477
33979.2
34348.4
34726.8
34816.4
34393.3
34202.5
34160.6
23766.9
24009.7
24360.9
24979.3
25596.2
26076.9
26152.8
25729.4
25464.1
25341.4
14256.3
14391.1
14638.5
15038.2
15546.1
15733.2
15718.1
15185.3
14910.6
14764.4
4556.69
4782.88
5199.26
5077.43
5154.38
5026.73
5148.05
4942.31
4408.54
4491.81
)
;
    }
    inlet
    {
        type            calculated;
        value           nonuniform List<scalar> 
20
(
320091
312612
313812
313621
313507
313298
313018
312838
311457
318460
320769
312838
314115
313797
313659
313461
313193
313021
311523
318423
)
;
    }
    outlet
    {
        type            calculated;
        value           nonuniform List<scalar> 
20
(
-97.8153
-293.51
-488.92
-684.272
-880.111
-1076.18
-1272.07
-1467.53
-1662.59
-1857.38
-97.8155
-293.508
-488.901
-684.232
-880.055
-1076.14
-1272.06
-1467.55
-1662.62
-1857.4
)
;
    }
    heatWall
    {
        type            calculated;
        value           nonuniform List<scalar> 
240
(
318362
318325
314792
315407
313602
313592
312990
313174
312542
312845
312433
312037
311808
311814
311249
311470
311379
311247
311301
310774
319404
318428
316395
314647
289157
287793
272017
271815
261620
262296
255119
256390
250472
252374
247716
250169
250247
252086
246774
247426
236808
236802
224673
224220
212554
211728
201165
200144
191333
189874
182788
180861
174813
173104
167867
166043
161813
159664
156816
155089
152941
152056
150303
149766
148409
147981
146404
146113
143901
143724
141044
140931
138551
138458
136438
136426
133883
133865
130563
130552
126652
126765
123226
122501
118051
116991
110460
109573
101963
101063
93876.9
92702.2
86950.8
85679.5
80761.8
79896.2
75004.5
74594
69437.1
68949.4
63577.9
62860.3
58833
57774.3
55164.6
54076.6
51357.9
50793
47265.1
46886.4
41647.3
41404
35310.6
34480.5
26631.2
25709.3
17513.5
15623.9
4618.68
4471.5
320189
320866
317448
316524
315857
315333
315444
314705
314996
314223
313993
314106
312933
313724
311914
312719
311269
310873
309844
308706
307036
306050
302745
302170
296758
296332
291818
291237
289738
288803
275797
275088
257920
258173
243110
244250
232732
233936
224773
225397
217243
217806
210725
211291
205277
205252
199983
198624
193007
190853
183782
183022
175586
176182
168725
170158
163968
164763
160578
160408
157678
156931
154803
153951
152022
151346
149498
149052
146902
146821
144389
144303
141413
141583
138135
138534
134432
135022
130624
131129
126718
126881
122417
121947
116528
115902
109304
108764
101658
101166
94499.8
93869.1
88549.6
87493
83502.4
82227.1
79073.8
77958.6
75302.4
74164.8
71569.3
70438.6
67453.9
66484.8
62607.4
61900.2
56649
56355.9
49772.7
49741.6
41437.6
41775.4
32258.6
32898.2
22419.4
23379.8
13283
13994.3
3547.22
4285.89
)
;
    }
}


// ************************************************************************* //
