/*--------------------------------*- C++ -*----------------------------------*\
  =========                 |
  \\      /  F ield         | OpenFOAM: The Open Source CFD Toolbox
   \\    /   O peration     | Website:  https://openfoam.org
    \\  /    A nd           | Version:  8
     \\/     M anipulation  |
\*---------------------------------------------------------------------------*/
FoamFile
{
    version     2.0;
    format      ascii;
    class       surfaceScalarField;
    location    "400";
    object      phi;
}
// * * * * * * * * * * * * * * * * * * * * * * * * * * * * * * * * * * * * * //

dimensions      [1 0 -1 0 0 0 0];

internalField   nonuniform List<scalar> 
2860
(
1.60146
-0.0109995
-0.396514
1.60466
0.00519519
0.17327
1.60521
0.00484591
0.501855
1.60609
0.00690465
0.969496
1.60856
0.00823476
1.47728
1.61152
0.00667955
1.43693
1.61459
0.00524785
0.966507
1.61743
0.00262548
0.476556
1.62667
-0.000572856
0.730292
1.6441
-0.00466162
1.45746
1.67154
-0.0113974
2.11213
1.70416
-0.0131884
2.53654
1.74365
-0.00157732
2.97814
1.82933
0.0659812
4.44261
1.93452
0.180343
8.48108
1.95331
0.218736
12.6535
1.87488
0.192513
14.4442
1.75271
0.140341
14.0513
1.63285
0.0865845
12.7153
1.54055
0.040161
11.4209
1.48258
0.00201123
10.15
1.45164
-0.022144
8.96575
1.43818
-0.0338411
8.29422
1.43912
-0.0394349
8.63068
1.45128
-0.0411758
9.59503
1.46667
-0.0406345
9.65365
1.48025
-0.0376388
8.84929
1.48922
-0.0343948
7.53631
1.49505
-0.0324037
6.68902
1.50104
-0.0317296
6.50688
1.50915
-0.0313589
6.72687
1.51885
-0.0303025
7.03478
1.52812
-0.0273336
7.24997
1.53427
-0.0214275
7.34778
1.53403
-0.0133022
7.236
1.52624
-0.00327293
7.15971
1.50965
0.00707397
6.93754
1.48418
0.0161582
6.56944
1.45113
0.0211141
6.04819
1.41266
0.0225366
5.5452
1.37117
0.0226133
5.25206
1.33166
0.0224601
5.42322
1.29993
0.0184811
5.74922
1.28262
0.00808442
6.05566
1.28231
-0.00633117
6.35805
1.29661
-0.0206757
6.77253
1.32413
-0.0341335
7.49514
1.3619
-0.0454352
8.33121
1.40442
-0.0519472
8.97934
1.44676
-0.0518373
9.60525
1.48488
-0.0445246
10.2504
1.516
-0.0305876
10.8928
1.53694
-0.0111732
11.5289
1.54119
0.0105847
11.9934
1.5233
0.0286115
12.205
1.48594
0.0351544
11.923
1.44079
0.0265421
11.1392
1.40361
0.00553762
9.93807
1.38273
-0.0179678
8.84478
-0.0322712
7.78408
1.58993
-0.0146986
-0.135702
1.59139
0.00202817
0.198134
1.58987
0.00315087
0.374359
1.59057
0.00703883
0.659782
1.59392
0.0107577
1.01166
1.59886
0.00856676
1.01632
1.60424
0.00569672
0.621693
1.60938
0.00105953
0.20835
1.62068
-0.00378295
0.499449
1.63981
-0.0106547
1.24734
1.66943
-0.023901
1.9288
1.70555
-0.0277743
2.38238
1.74347
-0.00624519
2.84372
1.81275
0.0699304
3.6398
1.93042
0.204595
5.38492
2.03643
0.26596
7.59938
2.0895
0.246443
9.08755
2.09649
0.18486
9.4962
2.07977
0.110809
9.29704
2.05472
0.041152
8.99331
2.02651
-0.0165825
8.40773
1.99857
-0.0499548
7.64972
1.97373
-0.0651012
7.13488
1.95453
-0.0707141
7.30324
1.94202
-0.0712699
7.94731
1.93312
-0.0705401
7.98361
1.92572
-0.0668347
7.40133
1.91685
-0.0622854
6.46354
1.90654
-0.0579075
5.94141
1.89686
-0.0547601
5.9033
1.88939
-0.0528458
6.11356
1.8846
-0.0512575
6.38403
1.88288
-0.0479228
6.61101
1.88467
-0.0408155
6.79535
1.88886
-0.0308623
6.89142
1.89377
-0.0184127
7.04079
1.89762
-0.00717612
7.04314
1.90021
0.00071214
6.87346
1.90148
0.0048814
6.60323
1.90184
0.00648769
6.38365
1.90267
0.00659915
6.34062
1.90594
0.00547986
6.62277
1.91005
0.000223149
6.98847
1.90938
-0.00913491
7.25525
1.89958
-0.019554
7.42076
1.88172
-0.0296952
7.59209
1.8598
-0.0408798
7.94793
1.83742
-0.0520436
8.38923
1.81623
-0.0594188
8.73905
1.79695
-0.0588102
9.14749
1.78003
-0.0495595
9.63849
1.76785
-0.0348141
10.159
1.76357
-0.0173782
10.6414
1.76829
-0.00109977
10.9458
1.77977
0.0100025
11.0863
1.79331
0.0112197
10.9562
1.8062
-0.00194207
10.5775
1.816
-0.0255521
9.92647
1.8219
-0.0507211
9.36006
-0.0640014
8.62992
1.5818
-0.00497816
-0.177639
1.58323
0.00539844
0.115551
1.58384
0.00711546
0.368418
1.58654
0.00930769
0.609438
1.59176
0.0112725
0.814752
1.5986
0.00775169
0.832909
1.60477
0.00352012
0.448061
1.60925
-0.000832473
0.00382175
1.62062
-0.0086918
0.189062
1.63993
-0.0213179
0.745405
1.67108
-0.0460714
1.13736
1.71124
-0.059801
1.21032
1.74932
-0.0350129
1.19517
1.79761
0.0429439
1.21527
1.87995
0.171497
1.42087
1.97114
0.246055
1.80197
2.04342
0.242442
2.03173
2.08957
0.18911
1.8799
2.11742
0.112235
1.59657
2.13331
0.0354622
1.45858
2.14047
-0.0214186
1.20964
2.14002
-0.0534789
0.889727
2.1297
-0.0622463
0.784961
2.11079
-0.0577114
1.28422
2.09207
-0.0562816
2.16454
2.08005
-0.0666226
2.43223
2.07571
-0.075471
2.06173
2.07162
-0.0772286
1.35693
2.06411
-0.0697751
1.04778
2.05393
-0.0600928
1.12305
2.04353
-0.0535014
1.38145
2.03496
-0.0510021
1.69917
2.02951
-0.0497112
1.96939
2.02772
-0.045133
2.17052
2.02836
-0.036834
2.28869
2.0316
-0.0248618
2.42537
2.03694
-0.0137957
2.4257
2.04455
-0.00464013
2.30177
2.05369
0.000886434
2.16598
2.06466
0.00327825
2.1081
2.0789
0.00249685
2.21539
2.09834
-0.00193667
2.6107
2.11934
-0.0113897
3.0761
2.13596
-0.0218732
3.45579
2.14348
-0.0303633
3.75509
2.13945
-0.0368109
4.06562
2.12396
-0.043805
4.53383
2.0981
-0.0507273
5.02414
2.0636
-0.0540498
5.38124
2.02307
-0.0481024
5.75703
1.97848
-0.0318864
6.17247
1.93353
-0.0117153
6.57842
1.89582
0.00572149
6.89168
1.87429
0.0161884
7.05846
1.87467
0.0168059
7.24192
1.89462
0.00552306
7.3465
1.92523
-0.0179725
7.32412
1.95655
-0.0456695
7.11723
1.9848
-0.0723938
7.05346
-0.0762277
6.6944
1.58847
-0.00240641
-0.102732
1.59064
0.00312673
0.0256607
1.59197
0.0057671
0.0971798
1.5935
0.00786557
0.0917324
1.59664
0.00992503
0.0699531
1.60208
0.00794605
0.0824704
1.60683
0.00250761
-0.219552
1.61127
-0.00378057
-0.62611
1.62058
-0.0149816
-0.51714
1.63835
-0.0319312
-0.0682582
1.67107
-0.0702881
0.214213
1.71851
-0.0996699
0.179877
1.76296
-0.0716576
0.0798633
1.80832
0.00715794
-0.0461027
1.87241
0.120972
-0.250304
1.93974
0.195931
-0.558856
1.99578
0.201571
-1.03402
2.0352
0.1605
-1.75327
2.06121
0.0959714
-2.44749
2.07493
0.0317155
-2.82633
2.07686
-0.0165836
-3.17662
2.07158
-0.0443657
-3.53421
2.06592
-0.0540738
-3.6803
2.06567
-0.0540683
-3.21771
2.06809
-0.0543799
-2.31715
2.0627
-0.059292
-1.88837
2.0489
-0.0615186
-2.0777
2.0309
-0.058844
-2.60501
2.01487
-0.0523818
-2.77975
2.00273
-0.0457427
-2.67698
1.99457
-0.0417306
-2.44066
1.9894
-0.0410934
-2.11814
1.9863
-0.0421876
-1.81319
1.98528
-0.0409995
-1.58448
1.98552
-0.0357762
-1.43028
1.98693
-0.0263291
-1.2949
1.98835
-0.0167196
-1.32542
1.99092
-0.00946894
-1.51708
1.99569
-0.00750605
-1.69347
2.00442
-0.0101711
-1.79412
2.01898
-0.0171936
-1.76043
2.04181
-0.02979
-1.46951
2.07054
-0.0461741
-1.07588
2.10036
-0.0596686
-0.748577
2.12694
-0.0670892
-0.466325
2.14425
-0.0673708
-0.126074
2.15184
-0.061877
0.438478
2.15216
-0.0553654
1.10381
2.14838
-0.0495445
1.69678
2.14306
-0.037664
2.34627
2.13519
-0.014817
3.0501
2.12185
0.0146904
3.75126
2.10108
0.0427027
4.34513
2.07527
0.0598699
4.74055
2.05155
0.0598166
5.05103
2.03475
0.0425221
5.21764
2.02678
0.0105259
5.30619
2.02574
-0.0253397
5.2429
2.03145
-0.0587997
5.42519
-0.0636908
5.18233
1.58892
0.000357525
-0.0879637
1.58933
0.00283261
-0.0775559
1.59034
0.00507354
-0.088501
1.59168
0.00672393
-0.161583
1.59427
0.00800778
-0.231697
1.59978
0.00679439
-0.143573
1.60463
0.00179128
-0.364247
1.60911
-0.00577138
-0.804154
1.61783
-0.0197707
-0.854288
1.63253
-0.0394479
-0.561233
1.66878
-0.0933103
-0.403551
1.7245
-0.142672
-0.553629
1.77703
-0.114845
-0.745984
1.82701
-0.0395093
-0.927273
1.8814
0.0656073
-1.18378
1.93551
0.139937
-1.62642
1.98204
0.154302
-2.27043
2.01722
0.125879
-3.18417
2.04357
0.0730713
-4.03599
2.0593
0.0221903
-4.46068
2.06287
-0.0137136
-4.78657
2.05773
-0.0324389
-5.09513
2.04929
-0.0387341
-5.24597
2.04175
-0.0398214
-4.89888
2.03412
-0.041072
-4.11987
2.02187
-0.0431354
-3.651
2.0056
-0.0417534
-3.70984
1.98772
-0.0362961
-4.03465
1.97025
-0.0290211
-4.00692
1.95382
-0.0229245
-3.83501
1.93956
-0.020388
-3.67363
1.92823
-0.0221073
-3.47207
1.92014
-0.0263927
-3.27741
1.91552
-0.0290821
-3.15371
1.91394
-0.02727
-3.08416
1.91535
-0.0211812
-3.03576
1.92062
-0.0159504
-3.13282
1.93164
-0.0152977
-3.38639
1.94894
-0.0209732
-3.60134
1.9715
-0.0309833
-3.71895
1.9978
-0.0436272
-3.67114
2.02753
-0.0602205
-3.31304
2.05845
-0.0777117
-2.80885
2.08686
-0.0888232
-2.35632
2.1102
-0.0913144
-1.93952
2.12803
-0.0864988
-1.47766
2.14342
-0.0786913
-0.838646
2.15719
-0.0706659
-0.144682
2.16575
-0.0597359
0.45885
2.16544
-0.0352871
1.09277
2.15417
0.00451516
1.74232
2.13614
0.0471836
2.39903
2.11686
0.0811679
2.96024
2.09859
0.100311
3.32957
2.08352
0.100802
3.65315
2.07166
0.084414
3.87874
2.06292
0.0534884
4.08693
2.05438
0.0197719
4.19172
2.04858
-0.0130235
4.65027
-0.0251578
4.53713
1.58926
0.00262415
-0.0930336
1.58944
0.0026774
-0.168006
1.59029
0.00349611
-0.278388
1.59146
0.00490171
-0.471877
1.59362
0.00570869
-0.699106
1.59829
0.00463711
-0.703181
1.60263
0.000309613
-0.984389
1.60718
-0.00747261
-1.53495
1.61529
-0.0232623
-1.80268
1.62886
-0.0466067
-1.77029
1.66934
-0.12256
-1.84114
1.73608
-0.198098
-2.17178
1.79945
-0.169174
-2.59628
1.85684
-0.091461
-3.08837
1.91189
0.00969161
-3.54608
1.9656
0.0821378
-4.07868
2.01378
0.101481
-4.76157
2.0511
0.0842483
-5.66638
2.07835
0.0427507
-6.40033
2.09251
0.00590499
-6.594
2.09203
-0.015916
-6.61703
2.08005
-0.0228721
-6.60953
2.06192
-0.0204325
-6.55464
2.04209
-0.0169467
-6.2245
2.02158
-0.0160903
-5.59194
1.99908
-0.0157403
-5.12693
1.97565
-0.0127881
-5.03677
1.95297
-0.00765989
-5.07954
1.93156
-0.00311834
-4.74914
1.9114
-0.00114863
-4.36333
1.89348
-0.00331232
-4.1095
1.87872
-0.00975953
-3.85899
1.86748
-0.0189616
-3.60381
1.85957
-0.026128
-3.40974
1.85401
-0.0275498
-3.2472
1.84979
-0.0236297
-3.09075
1.84739
-0.0210578
-3.02215
1.84838
-0.0243451
-3.08095
1.8541
-0.0342398
-3.1
1.8649
-0.0480462
-3.06392
1.8808
-0.0636193
-2.928
1.90363
-0.0837788
-2.48505
1.93206
-0.103137
-1.90016
1.96147
-0.112388
-1.38261
1.9876
-0.109951
-0.896522
2.00525
-0.0976682
-0.371191
2.01334
-0.0835694
0.277896
2.01524
-0.0733658
0.954653
2.01518
-0.062834
1.56214
2.01694
-0.0393583
2.23859
2.01862
0.00259357
2.93315
2.0171
0.0522677
3.59913
2.01112
0.0953202
4.13053
2.00153
0.123339
4.44559
1.99138
0.131551
4.75207
1.98134
0.12207
5.02139
1.97143
0.0963618
5.37948
1.95954
0.0655065
5.64789
1.9482
0.0322199
6.33398
0.00922358
6.21333
1.58989
0.00368452
-0.100155
1.59139
0.000349282
-0.222728
1.59338
-0.000467419
-0.313406
1.59507
0.000480889
-0.481439
1.59668
0.00121697
-0.693898
1.60077
-0.000268756
-0.660257
1.60403
-0.00354522
-0.908598
1.6067
-0.00945737
-1.47321
1.6112
-0.0232957
-1.93878
1.61979
-0.0463042
-2.29616
1.66469
-0.153298
-2.76247
1.74789
-0.267937
-3.22987
1.8261
-0.231697
-3.74363
1.89544
-0.143923
-4.42345
1.955
-0.0444206
-5.14804
2.00701
0.028133
-5.8573
2.05007
0.0531186
-6.71629
2.07847
0.0494947
-7.8757
2.0944
0.0212197
-8.94014
2.0942
0.000110951
-9.41882
2.07752
-0.00649169
-9.5533
2.04955
-0.00441696
-9.44801
2.01698
3.34071e-05
-9.13357
1.98468
0.00165301
-8.51834
1.95409
0.000109404
-7.58505
1.92477
-0.000873236
-6.65069
1.89699
0.00131036
-5.96679
1.87122
0.00543462
-5.35777
1.84694
0.00861943
-4.50471
1.82341
0.00977475
-3.79431
1.80076
0.00698897
-3.42285
1.78032
-0.00161967
-3.16323
1.76377
-0.0145458
-2.92601
1.75137
-0.0255394
-2.75402
1.74152
-0.0288458
-2.61366
1.73189
-0.0247786
-2.47909
1.72272
-0.0225044
-2.39026
1.71592
-0.0280081
-2.4045
1.71383
-0.0412723
-2.38607
1.71748
-0.0578454
-2.34261
1.72754
-0.0751069
-2.24714
1.74851
-0.0991063
-1.76606
1.77938
-0.120523
-1.08955
1.81162
-0.127853
-0.446679
1.83222
-0.121879
0.211382
1.83683
-0.109044
0.884269
1.83241
-0.0977246
1.56656
1.82752
-0.090439
2.14973
1.82586
-0.0810872
2.62026
1.82505
-0.0541647
3.16258
1.81851
0.0031849
3.75496
1.80546
0.0699768
4.48358
1.79096
0.1225
5.16608
1.77956
0.152481
5.60661
1.7748
0.159285
6.02607
1.77609
0.147817
6.39881
1.78129
0.120003
6.92395
1.78673
0.0866555
7.34974
1.79312
0.0514561
8.26985
0.0264035
8.23906
1.58402
0.0123866
-0.104201
1.58406
0.00171063
-0.396528
1.58534
0.000478741
-0.591157
1.58719
-0.000141249
-0.911215
1.58972
-0.000135462
-1.30035
1.59405
-0.00129366
-1.31414
1.59727
-0.00291944
-1.59304
1.60021
-0.00649881
-2.14228
1.60284
-0.0161799
-2.57775
1.60744
-0.037336
-2.85333
1.65538
-0.204169
-2.931
1.75803
-0.360591
-2.58224
1.8407
-0.284569
-2.59256
1.91487
-0.141877
-3.89003
1.98723
-0.00989444
-6.6809
2.04756
0.0707008
-9.77544
2.0739
0.104854
-12.6946
2.05199
0.110959
-15.0424
1.99513
0.0788539
-16.1652
1.91879
0.04879
-15.9329
1.83815
0.0307513
-14.9746
1.76534
0.0196699
-13.6829
1.70626
0.0111284
-12.2798
1.6617
0.00160611
-10.8487
1.6287
-0.00698077
-9.32139
1.6031
-0.0104577
-7.81485
1.58331
-0.0100168
-6.58141
1.56958
-0.00922145
-5.38973
1.56073
-0.0099472
-3.99047
1.55613
-0.0129297
-2.85409
1.55658
-0.0206308
-2.23014
1.56386
-0.0346186
-1.80759
1.57778
-0.0521232
-1.44544
1.59486
-0.0631449
-1.18179
1.61086
-0.0618024
-0.985129
1.62343
-0.0513481
-0.813569
1.63546
-0.0462237
-0.662752
1.64899
-0.0521195
-0.584431
1.6648
-0.0661352
-0.468104
1.68079
-0.0811424
-0.321102
1.68759
-0.0905401
-0.134289
1.6871
-0.0967418
0.519046
1.68424
-0.0994076
1.4024
1.68278
-0.100856
2.22492
1.67895
-0.0986936
3.03732
1.66593
-0.0887793
3.89804
1.63955
-0.0741909
4.81368
1.60444
-0.0610689
5.63855
1.57077
-0.0473901
6.37982
1.54403
-0.0201062
7.25892
1.52687
0.0259354
8.14829
1.52448
0.0747403
8.87169
1.53822
0.110671
9.35168
1.56589
0.127887
9.4688
1.60297
0.127054
9.55094
1.643
0.113262
9.60548
1.67947
0.0885684
9.93056
1.70599
0.0633622
10.2215
1.71933
0.0426015
11.1039
0.024285
10.8562
1.59424
0.00628445
-0.0365444
1.59234
-0.00271654
-0.233769
1.59282
-0.00407865
-0.23336
1.59295
-0.00473568
-0.362027
1.59265
-0.00383
-0.562875
1.59609
-0.00422062
-0.392785
1.59794
-0.00450281
-0.482334
1.59751
-0.00595493
-0.757955
1.59413
-0.0114242
-0.8644
1.58021
-0.0199185
-0.742241
1.66678
-0.216594
-0.0159978
1.8131
-0.342783
3.18115
1.91442
-0.267276
6.02313
1.97424
-0.15547
7.17757
2.0174
-0.0690573
6.86272
2.0555
-0.0110931
5.24251
2.08341
0.0243442
3.05624
2.08786
0.0468069
0.582367
2.11783
0.0691169
-1.68048
2.13865
0.0779349
-3.22904
2.1378
0.0749322
-4.18704
2.12417
0.0671198
-4.75941
2.10548
0.0589487
-5.05144
2.08447
0.0518488
-5.1352
2.06325
0.0438519
-4.88787
2.04297
0.0343394
-4.27924
2.0247
0.0253919
-3.61732
2.01117
0.0137257
-2.80224
2.00185
0.00122936
-1.76289
1.99406
-0.009698
-0.865565
1.98276
-0.0215756
-0.331293
1.96164
-0.033825
0.0870913
1.93277
-0.042034
0.498339
1.90307
-0.0416438
0.839634
1.87705
-0.0315007
1.10725
1.8526
-0.0118254
1.3377
1.82724
0.00974947
1.59015
1.79958
0.018896
1.83179
1.76907
0.0188379
2.12385
1.73275
0.0150413
2.448
1.68256
0.013872
2.74976
1.6153
0.0139732
3.59714
1.52901
0.0140922
4.66681
1.42511
0.0129394
5.5846
1.31255
0.0119197
6.45922
1.21877
0.00499616
7.55664
1.18223
-0.0206771
9.06118
1.20247
-0.0579226
10.4823
1.24319
-0.0776977
11.2528
1.28289
-0.0649779
11.6844
1.31252
-0.0212735
11.9777
1.33329
0.0294876
12.2887
1.35662
0.0613597
12.49
1.38629
0.0727795
12.314
1.41762
0.0709084
12.0676
1.4426
0.0629389
11.7708
1.45465
0.0511192
11.8603
1.45072
0.042893
12.0004
1.43616
0.0404216
12.9264
0.0221953
12.658
1.60462
0.0249514
1.60397
-0.354988
1.60563
-0.349019
1.60515
-0.458719
1.60344
-0.642437
1.60445
-0.391701
1.6036
-0.386208
1.60015
-0.512581
1.59285
-0.418319
1.58461
-0.0736208
1.74179
3.14738
1.88391
14.2293
1.86217
21.4776
1.77922
23.5509
1.70305
22.8084
1.64979
20.7404
1.61699
17.8008
1.59722
14.3895
1.59193
11.3448
1.59404
9.21402
1.59456
7.74006
1.59059
6.77254
1.58315
6.21694
1.57303
5.91705
1.56099
6.00236
1.54753
6.49064
1.53022
6.93269
1.50662
7.5559
1.475
8.49162
1.43218
9.13641
1.37579
9.19028
1.30936
9.0441
1.23923
8.89461
1.17063
8.65824
1.1088
8.27379
1.06296
7.78343
1.03839
7.26349
1.02941
6.7491
1.02764
6.36995
1.02713
6.08834
1.02467
5.70604
1.02463
6.15822
1.02772
6.9635
1.0309
7.61146
1.03891
8.37386
1.06129
9.88641
1.08124
12.2062
1.05813
14.0681
0.978818
14.356
0.875673
13.5548
0.802033
12.5706
0.783891
12.1708
0.805556
12.1216
0.843576
11.678
0.883521
11.2157
0.918471
10.7507
0.947695
11.0641
0.976271
11.6283
1.01363
13.4244
13.4928
1.60823
-0.00836393
1.60619
0.00335252
1.60762
0.00124454
1.60675
0.000349715
1.60634
0.000186305
1.60863
0.00265336
1.61323
0.00384797
1.62079
0.00325009
1.62962
-0.000871158
1.64448
-0.00718126
1.67012
-0.0151302
1.70318
-0.0180209
1.73992
-0.00761495
1.81844
0.0516385
1.92813
0.165279
1.95867
0.210134
1.8901
0.190748
1.77231
0.14215
1.65254
0.0895955
1.55732
0.0437213
1.49583
0.00524548
1.46261
-0.0203101
1.44787
-0.0330414
1.44705
-0.0392719
1.45678
-0.0412482
1.47106
-0.0406029
1.48462
-0.0377244
1.49452
-0.0340486
1.50038
-0.0308924
1.50546
-0.030346
1.51238
-0.0309741
1.52114
-0.0304649
1.52997
-0.0278241
1.53629
-0.0223675
1.53715
-0.0144278
1.53061
-0.00511783
1.51598
0.00426999
1.49302
0.0126769
1.46272
0.0181014
1.42678
0.0203272
1.38722
0.0211325
1.34805
0.0216944
1.3153
0.0191814
1.29551
0.0103468
1.29216
-0.00314869
1.30366
-0.01741
1.32839
-0.0310724
1.36387
-0.0430346
1.40522
-0.0503866
1.44716
-0.0512054
1.48551
-0.0449134
1.51745
-0.0319064
1.53978
-0.0134319
1.54639
0.00742699
1.53172
0.025189
1.49761
0.0323197
1.45488
0.0250058
1.41884
0.00526152
1.39816
-0.0173487
-0.0328317
1.59357
-0.0117893
1.59223
-0.00241427
1.59169
-0.00311281
1.59144
-0.00430005
1.59235
-0.00366907
1.59581
0.000570482
1.60245
0.00244047
1.61298
0.000387396
1.62425
-0.00696732
1.64087
-0.0173754
1.66858
-0.0323235
1.70506
-0.0383618
1.74158
-0.0185404
1.8042
0.0490776
1.91968
0.183034
2.02872
0.252459
2.08772
0.241492
2.10021
0.184975
2.08747
0.113616
2.06467
0.0458277
2.03795
-0.0126631
2.01118
-0.047329
1.98707
-0.064159
1.9671
-0.0712142
1.95214
-0.0717461
1.94175
-0.0695591
1.93411
-0.065356
1.9262
-0.0599276
1.91572
-0.0544502
1.90489
-0.0526603
1.89606
-0.0527132
1.88993
-0.0515122
1.88703
-0.0479672
1.88779
-0.0410546
1.89145
-0.0310406
1.89593
-0.0191918
1.89986
-0.00858105
1.90285
-0.00154644
1.90472
0.00310968
1.90576
0.00527276
1.9073
0.00559304
1.91094
0.00463032
1.91587
0.000503032
1.91695
-0.00772492
1.90909
-0.017093
1.89236
-0.0264141
1.87041
-0.0372034
1.84734
-0.0489275
1.82551
-0.0573467
1.80552
-0.0580405
1.78794
-0.0501973
1.77505
-0.0363786
1.76991
-0.0194464
1.77392
-0.00337959
1.78516
0.00767486
1.79918
0.00938938
1.81323
-0.00274706
1.82472
-0.0256233
1.8322
-0.0498267
-0.0645486
1.58571
-0.00257459
1.58501
-6.08074e-05
1.58551
-0.00101378
1.58714
-0.00329481
1.59086
-0.00418465
1.59554
-0.00110126
1.60252
0.000628821
1.61274
-0.00223267
1.62419
-0.0133567
1.64084
-0.0295107
1.66988
-0.0559101
1.7106
-0.0711542
1.74825
-0.0465783
1.7933
0.0297039
1.87399
0.158158
1.96425
0.236341
2.0379
0.236877
2.08873
0.18515
2.12332
0.108631
2.14424
0.0336199
2.15642
-0.0211054
2.16191
-0.052098
2.15951
-0.0623304
2.14489
-0.0603924
2.12258
-0.0596252
2.10497
-0.0666808
2.09707
-0.0727099
2.09404
-0.0717172
2.08678
-0.0640433
2.07569
-0.0581412
2.0631
-0.0553694
2.05105
-0.0542008
2.04194
-0.0526278
2.03721
-0.0476205
2.03615
-0.0380436
2.03778
-0.0257123
2.0424
-0.0141864
2.05019
-0.00471084
2.05956
0.00186469
2.07071
0.00437889
2.085
0.00284966
2.10372
-0.00237264
2.12464
-0.0113296
2.14259
-0.0211107
2.15238
-0.0288491
2.15086
-0.0344595
2.13733
-0.0405902
2.11329
-0.0476627
2.0807
-0.0513508
2.0413
-0.0457957
1.99718
-0.0303943
1.9521
-0.0109173
1.91321
0.00586077
1.88924
0.016216
1.88625
0.0172986
1.90319
0.00624866
1.93223
-0.0169224
1.96373
-0.044719
1.99252
-0.0707426
-0.075984
1.59055
-0.00147906
1.59139
-0.0018197
1.59242
-0.00286327
1.59387
-0.00364294
1.59707
-0.00376586
1.59974
-0.00191922
1.60538
-0.00165781
1.6139
-0.0071853
1.62462
-0.0224052
1.63979
-0.0435788
1.67039
-0.0832242
1.71772
-0.110939
1.76103
-0.0801727
1.80534
0.00113517
1.86812
0.117217
1.93456
0.193452
1.99033
0.19958
2.02975
0.157642
2.05384
0.0939896
2.06358
0.0324406
2.06315
-0.012858
2.05777
-0.0390799
2.05294
-0.0508121
2.051
-0.0561369
2.04774
-0.0602548
2.03864
-0.0624899
2.02505
-0.0604763
2.01168
-0.0546347
1.99973
-0.0482955
1.99027
-0.0458269
1.98349
-0.0469376
1.97864
-0.0488247
1.97544
-0.049434
1.97418
-0.046358
1.97426
-0.0383818
1.97459
-0.027085
1.97564
-0.0157721
1.97921
-0.00787792
1.98592
-0.00550393
1.99723
-0.00830923
2.01434
-0.0155741
2.03754
-0.0273061
2.06515
-0.0416125
2.09407
-0.0533911
2.12138
-0.0599812
2.14382
-0.0605317
2.15817
-0.0575873
2.16474
-0.0535248
2.16491
-0.0482856
2.16019
-0.0363829
2.15189
-0.0147112
2.13901
0.0129591
2.11999
0.0400909
2.09623
0.0580393
2.07338
0.0600593
2.05616
0.0446535
2.04698
0.0141296
2.04493
-0.0218357
2.04896
-0.05497
-0.0625371
1.58989
0.000193097
1.58973
-0.00123918
1.59037
-0.00218113
1.59197
-0.0022907
1.59552
-0.00270833
1.59803
-0.00228993
1.60302
-0.00377981
1.61082
-0.0104936
1.6208
-0.0281156
1.63448
-0.0517762
1.66932
-0.109906
1.72448
-0.155253
1.77666
-0.12282
1.82574
-0.0428122
1.87887
0.0663603
1.93265
0.140732
1.97926
0.153452
2.01503
0.124923
2.04005
0.0753483
2.05214
0.0279555
2.05279
-0.00594063
2.04629
-0.024841
2.03757
-0.0337865
2.02872
-0.0397584
2.01785
-0.0445671
2.00383
-0.0446179
1.98843
-0.039765
1.97343
-0.0320608
1.9576
-0.0255244
1.9422
-0.0229452
1.929
-0.0249304
1.9185
-0.0290655
1.91117
-0.0328419
1.90746
-0.0333097
1.90692
-0.0286085
1.90922
-0.020445
1.91611
-0.0135328
1.9297
-0.0126876
1.94952
-0.019099
1.9742
-0.0302228
2.00192
-0.0436612
2.03094
-0.0589715
2.05947
-0.0738269
2.08526
-0.0827822
2.10665
-0.0844732
2.1241
-0.0801206
2.13959
-0.0754114
2.15502
-0.0721184
2.17027
-0.0642221
2.17876
-0.0403536
2.17539
0.00119479
2.16139
0.046422
2.14297
0.0818783
2.12459
0.101391
2.10895
0.102445
2.09665
0.0867236
2.08762
0.0569542
2.07943
0.0236226
2.07265
-0.00809811
-0.022292
1.58962
0.00229556
1.58942
-0.00064745
1.58983
-0.000508822
1.59127
-0.000138917
1.59468
-0.000454513
1.59721
-8.53094e-05
1.60141
-0.00300096
1.6083
-0.0105901
1.61697
-0.0298783
1.63052
-0.0564478
1.67101
-0.138694
1.73753
-0.208574
1.80166
-0.173935
1.85914
-0.0929597
1.91424
0.00961599
1.96809
0.0803171
2.01576
0.0977547
2.05233
0.0822895
2.07684
0.0473214
2.08667
0.0155979
2.0826
-0.00408557
2.06839
-0.0113538
2.0492
-0.0116066
2.02829
-0.0126261
2.00602
-0.0152721
1.98265
-0.014514
1.95998
-0.0100588
1.93912
-0.0038899
1.91848
-0.000729942
1.89904
-0.00185079
1.88242
-0.00809412
1.86883
-0.0170529
1.85839
-0.0260507
1.85109
-0.0312761
1.84588
-0.0304953
1.84173
-0.0253299
1.83979
-0.0219065
1.84233
-0.0253214
1.85001
-0.0362274
1.86319
-0.0509456
1.88175
-0.0668278
1.9051
-0.0839437
1.93195
-0.0996824
1.95951
-0.106985
1.98494
-0.105759
2.00538
-0.0966765
2.01771
-0.0870448
2.0245
-0.0799357
2.02843
-0.0688866
2.03131
-0.0432622
2.03287
0.000365033
2.0316
0.0504443
2.02677
0.0936243
2.01888
0.121873
2.00985
0.131047
2.00045
0.122912
1.99087
0.0991747
1.9797
0.0693763
1.96795
0.0369293
0.0123996
1.59004
0.00408313
1.59173
-0.00257889
1.5931
-0.00141113
1.59499
-0.000443144
1.59802
-5.60152e-05
1.59974
0.000813064
1.60252
-0.00107171
1.60696
-0.00562509
1.61152
-0.0201877
1.62097
-0.0428321
1.66772
-0.162759
1.75108
-0.275222
1.83064
-0.238107
1.8997
-0.149238
1.95885
-0.0475076
2.0103
0.0233018
2.05218
0.0480593
2.07943
0.0499294
2.09208
0.0320597
2.08755
0.0158652
2.06744
0.00839444
2.03742
0.00716234
2.00397
0.00734067
1.97111
0.00415358
1.93958
-0.000358528
1.90942
-0.000985566
1.88157
0.00232283
1.85621
0.00745184
1.83145
0.00979444
1.80763
0.00892954
1.78591
0.00262044
1.76676
-0.0086083
1.75119
-0.0216901
1.73936
-0.0306887
1.72947
-0.0315149
1.71938
-0.025581
1.7099
-0.021975
1.70403
-0.0269057
1.70352
-0.0407325
1.70955
-0.0577405
1.72309
-0.0750044
1.74516
-0.0950584
1.77539
-0.115596
1.80981
-0.12523
1.83641
-0.123282
1.84722
-0.113194
1.84561
-0.102513
1.84059
-0.0950394
1.83848
-0.0852782
1.83795
-0.058987
1.83263
-0.00238219
1.82083
0.0655839
1.80707
0.11982
1.79591
0.151265
1.79049
0.159571
1.79073
0.149643
1.79492
0.123784
1.80008
0.091536
1.80548
0.056867
0.0299994
1.5832
0.0145138
1.58423
0.000234228
1.58459
0.00186172
1.58694
0.0021928
1.59118
0.00231919
1.59354
0.00378837
1.59643
0.00343652
1.60084
0.00155759
1.60318
-0.00648554
1.6081
-0.0235161
1.65765
-0.179693
1.75791
-0.342072
1.84312
-0.277021
1.91921
-0.137564
1.99269
-0.00595826
2.05165
0.0734105
2.07425
0.105274
2.04835
0.10958
1.98634
0.0856614
1.90601
0.0601281
1.8237
0.0405875
1.75089
0.0251735
1.69267
0.0119935
1.64922
-0.00132209
1.61661
-0.0110046
1.59054
-0.013304
1.5705
-0.011794
1.55658
-0.0101338
1.54652
-0.011246
1.54099
-0.0150546
1.54275
-0.0247454
1.5519
-0.0406582
1.56681
-0.0576893
1.58425
-0.0668727
1.59995
-0.0635927
1.61174
-0.0514198
1.62249
-0.0448367
1.63585
-0.0496861
1.65205
-0.0641379
1.67035
-0.0803776
1.68829
-0.0923448
1.70005
-0.0987707
1.7037
-0.101334
1.70057
-0.105423
1.69167
-0.107594
1.67515
-0.100285
1.64844
-0.0848843
1.61507
-0.0678051
1.58287
-0.0503508
1.55587
-0.0213924
1.53716
0.0243937
1.5328
0.072807
1.54466
0.10925
1.57097
0.127495
1.6072
0.127887
1.64717
0.115177
1.68431
0.0915891
1.71259
0.0666061
1.72733
0.0452443
0.0269886
1.5932
0.00888688
1.59328
-0.00328485
1.59208
-0.00276116
1.59257
-0.00211904
1.59469
-0.00124863
1.59515
-1.23881e-05
1.59675
0.000961562
1.59803
0.00111382
1.59446
-0.00213243
1.57927
-0.00727882
1.65726
-0.191203
1.80478
-0.329069
1.90714
-0.263316
1.96988
-0.156867
2.01362
-0.0707649
2.05046
-0.0113757
2.07648
0.025875
2.08746
0.0486498
2.12043
0.0711404
2.13132
0.08111
2.12232
0.0778611
2.10599
0.0688712
2.08737
0.0592735
2.06696
0.0505857
2.04533
0.0420754
2.0234
0.0333156
2.00386
0.0245917
1.98921
0.013396
1.97773
0.00120623
1.96795
-0.00991103
1.95933
-0.0225445
1.94755
-0.0361712
1.93254
-0.0449205
1.91512
-0.0446986
1.89653
-0.0355268
1.8756
-0.0171591
1.85186
0.00555764
1.82508
0.0173778
1.79514
0.0195949
1.76
0.0171558
1.71256
0.01541
1.64688
0.0152267
1.56161
0.0153489
1.45711
0.0136585
1.34072
0.0116604
1.23891
0.0050306
1.19223
-0.0192039
1.20524
-0.0552602
1.24354
-0.0757725
1.28345
-0.0656444
1.31434
-0.0243788
1.33604
0.0264725
1.35942
0.0600191
1.38928
0.0727194
1.42139
0.0716057
1.44796
0.0639515
1.462
0.0523247
1.46027
0.0439297
1.44654
0.0409116
0.0231493
1.60186
1.6055
1.60518
1.6051
1.60593
1.60391
1.60304
1.60139
1.59429
1.57518
1.7263
1.87977
1.86828
1.78794
1.71067
1.65602
1.62234
1.60216
1.6001
1.60629
1.61001
1.60777
1.6004
1.58925
1.5753
1.55942
1.54079
1.51605
1.48295
1.43986
1.38454
1.31915
1.24968
1.18146
1.11933
1.07189
1.04547
1.03587
1.03404
1.03384
1.03256
1.03287
1.03622
1.03927
1.04558
1.06485
1.08353
1.06277
0.987408
0.88633
0.811321
0.790522
0.810634
0.848587
0.88934
0.925446
0.9554
0.984193
1.0202
)
;

boundaryField
{
    wall
    {
        type            calculated;
        value           nonuniform List<scalar> 
1200
(
0.397659
0.141093
0.177733
0.103289
0.0878666
0.0931102
0.100824
0.103116
0.0400181
-0.0317048
-0.181656
-0.196479
-0.120366
-0.0255211
0.0774958
0.168
0.223524
0.395069
0.240073
0.352925
-0.507254
-0.371109
-0.372968
-0.0971422
0.0881748
0.279123
0.315419
0.588946
0.23741
0.343284
-0.977272
-0.660559
-0.614376
-0.0918242
0.161335
0.472526
0.484184
0.909987
0.366475
0.45445
-1.48797
-1.01757
-0.820528
-0.0717375
0.231072
0.699244
0.696725
1.29919
0.566954
0.640343
-1.44657
-1.02315
-0.838906
-0.0881096
0.139219
0.700668
0.661086
1.31081
0.392228
0.386478
-0.974821
-0.627552
-0.452068
0.215837
0.360103
0.981516
0.909198
1.58918
0.482068
0.382658
-0.482038
-0.211998
-0.00648135
0.624631
0.801687
1.53203
1.47248
2.13647
0.757925
0.510044
-0.738967
-0.507538
-0.195505
0.514097
0.850289
1.79806
1.9344
2.56804
0.862928
0.414167
-1.47022
-1.26049
-0.754094
0.0610938
0.554087
1.7639
2.28727
2.83975
0.738712
0.0619874
-2.12816
-1.94587
-1.14628
-0.222777
0.390272
1.82992
2.74834
2.93394
-0.0580663
-3.5211
-2.55597
-2.40391
-1.21851
-0.18753
0.540891
2.16048
3.21646
2.57224
-3.34531
-14.7142
-3.01605
-2.87698
-1.20445
-0.0875402
0.7366
2.58719
3.72799
2.56282
-6.14172
-21.7231
-4.59425
-3.71306
-1.23663
0.0364979
0.92398
3.08291
4.40658
3.81382
-7.22381
-23.6234
-8.76661
-5.52681
-1.47008
0.236719
1.1848
3.54693
5.1426
6.57399
-6.84673
-22.8013
-12.8911
-7.75259
-1.87329
0.541558
1.62834
4.08283
5.8593
9.6725
-5.19882
-20.6982
-14.5583
-9.19453
-2.1
1.0189
2.27119
4.76619
6.72156
12.6166
-3.00364
-17.7437
-14.0694
-9.54774
-1.93029
1.74248
3.18359
5.67067
7.88205
15.0029
-0.522696
-14.3229
-12.682
-9.30455
-1.62585
2.43775
4.03252
6.40339
8.94575
16.1644
1.66022
-11.2704
-11.3688
-8.96922
-1.46883
2.81636
4.45446
6.59613
9.42483
15.9605
3.17905
-9.1382
-10.094
-8.3609
-1.21205
3.1699
4.78013
6.61969
9.56057
15.0179
4.14368
-7.66565
-8.91266
-7.59395
-0.885804
3.53043
5.08831
6.61191
9.45755
13.7317
4.72555
-6.70147
-8.24691
-7.07876
-0.777531
3.67781
5.23904
6.55446
9.14568
12.3278
5.0223
-6.15056
-8.59217
-7.25276
-1.27836
3.21432
4.89215
6.22146
8.53206
10.8933
5.10595
-5.85504
-9.56602
-7.90471
-2.16081
2.31283
4.11417
5.58748
7.59948
9.36147
4.85823
-5.94645
-9.6284
-7.94478
-2.4241
1.88641
3.64708
5.12202
6.66513
7.85006
4.25473
-6.44283
-8.82523
-7.36474
-2.04875
2.07754
3.70641
5.0312
5.98048
6.61256
3.60019
-6.88999
-7.51089
-6.4268
-1.33793
2.60465
4.03
5.07359
5.37042
5.41811
2.79281
-7.51857
-6.66244
-5.9056
-1.02842
2.77839
4.00098
4.74467
4.51721
4.01792
1.76103
-8.45876
-6.48114
-5.87057
-1.10753
2.67474
3.8286
4.36171
3.80693
2.88143
0.870157
-9.10329
-6.70361
-6.08459
-1.37035
2.43702
3.66655
4.1103
3.43522
2.25728
0.343567
-9.15549
-7.01417
-6.35827
-1.69082
2.1134
3.4644
3.86142
3.17551
1.83334
-0.0668031
-9.01151
-7.2319
-6.58871
-1.96214
1.80875
3.26973
3.60762
2.93817
1.46909
-0.479552
-8.86654
-7.3325
-6.77776
-2.16441
1.58139
3.14644
3.41472
2.76583
1.20234
-0.831417
-8.63129
-7.22247
-6.87804
-2.28335
1.429
3.07723
3.25304
2.6248
1.00207
-1.11151
-8.24346
-7.14865
-7.03056
-2.42216
1.29495
3.02917
3.09743
2.48985
0.827563
-1.35279
-7.74941
-6.92802
-7.03273
-2.42443
1.32695
3.12678
3.02966
2.40089
0.674436
-1.62077
-7.22918