/*--------------------------------*- C++ -*----------------------------------*\
  =========                 |
  \\      /  F ield         | OpenFOAM: The Open Source CFD Toolbox
   \\    /   O peration     | Website:  https://openfoam.org
    \\  /    A nd           | Version:  8
     \\/     M anipulation  |
\*---------------------------------------------------------------------------*/
FoamFile
{
    version     2.0;
    format      ascii;
    class       volVectorField;
    location    "400";
    object      U;
}
// * * * * * * * * * * * * * * * * * * * * * * * * * * * * * * * * * * * * * //

dimensions      [0 1 -1 0 0 0 0];

internalField   nonuniform List<vector> 
1200
(
(16.0185 -1.15888 -0.398571)
(16.1192 -0.871207 0.181919)
(16.1471 -0.70124 0.509666)
(16.1413 -0.572237 0.981601)
(16.1535 -0.475428 1.49477)
(16.1838 -0.417636 1.45373)
(16.2162 -0.385258 0.979928)
(16.2424 -0.371281 0.485072)
(16.2923 -0.35574 0.74272)
(16.4175 -0.334238 1.47744)
(16.6402 -0.314517 2.13883)
(16.9722 -0.287172 2.569)
(17.2796 -0.235877 3.03101)
(17.7695 0.0274871 4.6154)
(19.0252 0.475894 8.80451)
(19.8158 0.673267 12.9415)
(19.391 0.640014 14.6117)
(18.2391 0.514794 14.1195)
(16.9397 0.386248 12.7268)
(15.8328 0.281026 11.4093)
(15.0831 0.188436 10.1305)
(14.6702 0.123045 8.94542)
(14.4654 0.0848281 8.27772)
(14.4036 0.0576872 8.62464)
(14.4823 0.0384114 9.60254)
(14.6422 0.0271165 9.66561)
(14.7975 0.0249734 8.85958)
(14.9153 0.0248305 7.54028)
(14.9824 0.0198942 6.68853)
(15.034 0.0102462 6.50636)
(15.1021 0.00248234 6.72944)
(15.1953 0.00256326 7.0409)
(15.2961 0.0132502 7.25906)
(15.3816 0.0346501 7.35953)
(15.4171 0.0630316 7.24862)
(15.3766 0.0993815 7.17401)
(15.2573 0.142331 6.95222)
(15.0425 0.183445 6.58275)
(14.7432 0.20759 6.05691)
(14.3785 0.214988 5.54806)
(13.9711 0.214627 5.25081)
(13.5475 0.212095 5.4241)
(13.1725 0.194203 5.75476)
(12.907 0.146267 6.06597)
(12.8228 0.0765775 6.37168)
(12.8998 0.00805914 6.7875)
(13.1127 -0.0522412 7.5118)
(13.453 -0.0997562 8.34903)
(13.8709 -0.127788 8.99691)
(14.3076 -0.133493 9.62387)
(14.7194 -0.115383 10.2729)
(15.0712 -0.0723805 10.9231)
(15.3431 -0.00390983 11.5696)
(15.4909 0.0832698 12.0406)
(15.4311 0.160848 12.2493)
(15.133 0.193023 11.9542)
(14.685 0.1675 11.1523)
(14.2279 0.0961179 9.93503)
(13.9456 0.0135796 8.8315)
(13.802 -0.0343238 7.76621)
(16.0132 0.417327 -0.141362)
(15.9875 0.539286 0.196921)
(15.987 0.528993 0.37289)
(15.9829 0.503658 0.663457)
(16 0.473109 1.02206)
(16.0442 0.429784 1.028)
(16.0999 0.396906 0.630776)
(16.1509 0.366951 0.213526)
(16.2233 0.331161 0.509879)
(16.3659 0.285544 1.26648)
(16.6073 0.218592 1.95552)
(16.9637 0.184068 2.41608)
(17.3191 0.231716 2.89143)
(17.731 0.513373 3.73121)
(18.745 0.974898 5.55358)
(20.0431 1.09494 7.7889)
(20.8656 0.920752 9.23637)
(21.1105 0.626056 9.59065)
(21.009 0.320958 9.34649)
(20.7739 0.0513372 9.01012)
(20.5014 -0.165566 8.3995)
(20.2093 -0.293212 7.62944)
(19.9425 -0.350778 7.11211)
(19.7147 -0.371088 7.28703)
(19.5544 -0.366748 7.94224)
(19.4572 -0.349688 7.98294)
(19.383 -0.321222 7.40042)
(19.3095 -0.293377 6.45819)
(19.2105 -0.272275 5.93444)
(19.1047 -0.258296 5.89914)
(19.0159 -0.249243 6.11415)
(18.9543 -0.241765 6.38921)
(18.9206 -0.22813 6.62077)
(18.9216 -0.200764 6.81057)
(18.9547 -0.162659 6.911)
(19.0048 -0.117213 7.06367)
(19.0484 -0.076188 7.06522)
(19.0783 -0.0449733 6.89168)
(19.0961 -0.0296134 6.61771)
(19.1022 -0.0258865 6.3962)
(19.1031 -0.0262347 6.35339)
(19.1208 -0.0272751 6.6383)
(19.1662 -0.0434441 7.00545)
(19.2026 -0.080976 7.27)
(19.1529 -0.128196 7.43138)
(19.0071 -0.175042 7.59975)
(18.798 -0.22319 7.95545)
(18.5693 -0.265933 8.39834)
(18.3494 -0.289459 8.74986)
(18.1456 -0.281931 9.16198)
(17.9608 -0.240264 9.65832)
(17.8021 -0.170169 10.1845)
(17.709 -0.0813805 10.6717)
(17.7056 0.00712612 10.9772)
(17.7945 0.0743322 11.1149)
(17.9263 0.0946465 10.9787)
(18.0608 0.0505735 10.5921)
(18.1795 -0.0466898 9.93271)
(18.2596 -0.152548 9.35872)
(18.2903 -0.220032 8.62251)
(15.9479 -0.0966151 -0.178256)
(15.9031 -0.174743 0.120653)
(15.9095 -0.24346 0.37473)
(15.9309 -0.271622 0.617379)
(15.9698 -0.275217 0.824589)
(16.0329 -0.285651 0.843024)
(16.1029 -0.291404 0.454569)
(16.1561 -0.298187 0.00707843)
(16.2247 -0.315644 0.196371)
(16.3649 -0.347092 0.75765)
(16.6152 -0.40298 1.15199)
(16.9955 -0.401975 1.2249)
(17.3984 -0.27845 1.21082)
(17.7794 0.0642834 1.24354)
(18.4209 0.649112 1.47835)
(19.3668 0.999569 1.88315)
(20.2404 1.01201 2.11067)
(20.8303 0.812027 1.93998)
(21.1781 0.521517 1.63394)
(21.3769 0.231231 1.47593)
(21.4775 -0.00159896 1.21816)
(21.5081 -0.137425 0.890635)
(21.4754 -0.187612 0.782066)
(21.3215 -0.190301 1.28489)
(21.0844 -0.194839 2.17099)
(20.9272 -0.219311 2.43569)
(20.8582 -0.232706 2.05891)
(20.8384 -0.237339 1.34514)
(20.7904 -0.225302 1.03392)
(20.6986 -0.203449 1.11308)
(20.5876 -0.185084 1.37694)
(20.4873 -0.174705 1.69886)
(20.4167 -0.162255 1.97159)
(20.3836 -0.134009 2.17504)
(20.3813 -0.0927791 2.29482)
(20.4001 -0.0386583 2.43442)
(20.4431 0.00990485 2.43688)
(20.5084 0.0448037 2.31604)
(20.5919 0.0639284 2.1825)
(20.6916 0.0732865 2.12689)
(20.8132 0.0755205 2.23697)
(20.981 0.0694876 2.636)
(21.1968 0.0453383 3.10108)
(21.3988 0.00970463 3.47723)
(21.5282 -0.0265618 3.77089)
(21.5506 -0.0622288 4.07513)
(21.4537 -0.104474 4.53843)
(21.2433 -0.152289 5.02509)
(20.9361 -0.188817 5.37946)
(20.5547 -0.19167 5.75639)
(20.1237 -0.159066 6.17666)
(19.6602 -0.111528 6.58936)
(19.2194 -0.0630179 6.91066)
(18.8979 -0.023123 7.08739)
(18.7826 -0.000764699 7.28134)
(18.8931 -0.0115637 7.39134)
(19.1738 -0.0726083 7.36722)
(19.4959 -0.162959 7.15445)
(19.7986 -0.257823 7.0843)
(20.0483 -0.291143 6.71644)
(15.9875 -0.00692315 -0.103762)
(15.9756 0.0593754 0.0255639)
(15.9922 0.126709 0.0975646)
(16.0106 0.188151 0.0924246)
(16.0324 0.2353 0.0723236)
(16.0746 0.248525 0.0881496)
(16.128 0.239919 -0.217012)
(16.1738 0.223898 -0.627663)
(16.2417 0.192268 -0.516986)
(16.361 0.136555 -0.0621351)
(16.6056 -0.00838309 0.223382)
(17.0231 -0.107167 0.188528)
(17.5043 -0.0135913 0.0882521)
(17.953 0.289945 -0.0359947)
(18.4865 0.7323 -0.237051)
(19.1627 0.996448 -0.543966)
(19.8193 0.980738 -1.02443)
(20.3103 0.771182 -1.75207)
(20.6268 0.456177 -2.45081)
(20.8122 0.132511 -2.83101)
(20.8778 -0.1119 -3.18572)
(20.8465 -0.252445 -3.5478)
(20.7761 -0.303705 -3.69603)
(20.7404 -0.302753 -3.23095)
(20.763 -0.294997 -2.32585)
(20.7671 -0.318818 -1.8973)
(20.6729 -0.338684 -2.08878)
(20.4937 -0.330007 -2.61782)
(20.3197 -0.294915 -2.79234)
(20.1795 -0.259599 -2.68833)
(20.0794 -0.237884 -2.44971)
(20.0159 -0.231193 -2.12472)
(19.9779 -0.23091 -1.81855)
(19.9601 -0.220908 -1.58991)
(19.958 -0.196306 -1.43659)
(19.9691 -0.156049 -1.30185)
(19.9831 -0.115131 -1.33381)
(19.9971 -0.0779526 -1.52695)
(20.0279 -0.0545819 -1.7055)
(20.0912 -0.0476549 -1.80779)
(20.2046 -0.0616731 -1.77436)
(20.392 -0.100634 -1.48195)
(20.6546 -0.159176 -1.08724)
(20.953 -0.212721 -0.760037)
(21.2386 -0.248745 -0.478319)
(21.4822 -0.262266 -0.139059)
(21.6202 -0.258146 0.430972)
(21.6505 -0.251232 1.10554)
(21.6257 -0.236802 1.70628)
(21.5788 -0.187787 2.36314)
(21.5199 -0.0941136 3.07449)
(21.4238 0.0176001 3.78296)
(21.2524 0.111622 4.38284)
(21.0027 0.158212 4.78155)
(20.7324 0.140384 5.09425)
(20.5158 0.0603818 5.2616)
(20.3883 -0.0685515 5.34974)
(20.3427 -0.203378 5.28366)
(20.3659 -0.32384 5.46522)
(20.4306 -0.326339 5.21611)
(15.9882 -0.00478718 -0.0883492)
(15.9734 0.00420583 -0.0778605)
(15.9782 -0.00766635 -0.0885245)
(15.9917 -0.0336639 -0.161852)
(16.0114 -0.0657558 -0.231777)
(16.0509 -0.108122 -0.140157)
(16.105 -0.161788 -0.362115)
(16.1507 -0.218984 -0.805593)
(16.2171 -0.286576 -0.854631)
(16.3196 -0.360222 -0.557066)
(16.5545 -0.529892 -0.39288)
(17.0309 -0.642951 -0.543788)
(17.6053 -0.513656 -0.740315)
(18.1272 -0.205531 -0.928744)
(18.6421 0.226624 -1.19133)
(19.1956 0.529584 -1.63721)
(19.7203 0.589836 -2.28346)
(20.1356 0.480903 -3.20021)
(20.4396 0.289365 -4.05323)
(20.6465 0.105206 -4.47733)
(20.7356 -0.0252773 -4.80461)
(20.7161 -0.0947803 -5.1144)
(20.6345 -0.115472 -5.26584)
(20.5495 -0.118368 -4.91715)
(20.4801 -0.129519 -4.13528)
(20.3865 -0.151943 -3.66572)
(20.2393 -0.164011 -3.72513)
(20.0595 -0.16192 -4.05014)
(19.885 -0.14721 -4.02099)
(19.7144 -0.128976 -3.84754)
(19.5576 -0.117705 -3.6844)
(19.4287 -0.117449 -3.48101)
(19.3317 -0.122305 -3.28519)
(19.2686 -0.11745 -3.1611)
(19.2384 -0.0954823 -3.09142)
(19.2368 -0.0579695 -3.04305)
(19.2643 -0.0234629 -3.14101)
(19.3399 -0.00566471 -3.39661)
(19.4818 -0.0132573 -3.61417)
(19.6853 -0.0398925 -3.7348)
(19.9356 -0.0792293 -3.68903)
(20.2209 -0.133754 -3.33016)
(20.5291 -0.193575 -2.82373)
(20.8293 -0.236169 -2.36917)
(21.0881 -0.256508 -1.95039)
(21.2931 -0.250796 -1.48649)
(21.461 -0.230342 -0.844585)
(21.6244 -0.208658 -0.147516)
(21.7495 -0.187052 0.459463)
(21.8001 -0.137725 1.1003)
(21.744 -0.0366424 1.75905)
(21.5797 0.100247 2.42518)
(21.3798 0.234196 2.99347)
(21.1859 0.323617 3.36702)
(21.0115 0.338406 3.69509)
(20.8707 0.277346 3.92492)
(20.7666 0.149124 4.13718)
(20.6791 -0.000872854 4.2438)
(20.5959 -0.14628 4.70623)
(20.5265 -0.182327 4.58597)
(15.9895 0.00665137 -0.09358)
(15.9758 0.0204107 -0.168834)
(15.9792 0.0482575 -0.280241)
(15.9902 0.0891517 -0.474454)
(16.007 0.133125 -0.702084)
(16.0412 0.163567 -0.703838)
(16.0872 0.178696 -0.986139)
(16.1281 0.175432 -1.53926)
(16.1963 0.127567 -1.80675)
(16.2796 0.039496 -1.77222)
(16.5097 -0.256435 -1.83875)
(17.083 -0.517839 -2.17064)
(17.7836 -0.423016 -2.59933)
(18.3977 -0.105838 -3.09807)
(18.9499 0.335423 -3.56536)
(19.499 0.629572 -4.10492)
(20.0267 0.680366 -4.79219)
(20.4659 0.555383 -5.70116)
(20.7905 0.317407 -6.4374)
(20.9963 0.0839872 -6.63101)
(21.0573 -0.0818816 -6.65451)
(20.9825 -0.170536 -6.64642)
(20.8171 -0.202074 -6.58828)
(20.6181 -0.207851 -6.25307)
(20.4162 -0.205894 -5.61544)
(20.2007 -0.195311 -5.14733)
(19.9643 -0.166784 -5.05578)
(19.7269 -0.124516 -5.098)
(19.5089 -0.0844312 -4.76734)
(19.2992 -0.0596715 -4.38233)
(19.1046 -0.0578572 -4.12948)
(18.94 -0.0778685 -3.87932)
(18.8106 -0.108647 -3.62433)
(18.7162 -0.129956 -3.43054)
(18.651 -0.128704 -3.26821)
(18.6025 -0.107599 -3.11205)
(18.5646 -0.092113 -3.04404)
(18.5503 -0.100704 -3.10352)
(18.5799 -0.138467 -3.12204)
(18.6608 -0.196411 -3.08432)
(18.7952 -0.267055 -2.94534)
(18.9921 -0.355332 -2.49693)
(19.2531 -0.437439 -1.90562)
(19.5452 -0.481633 -1.38276)
(19.8235 -0.49057 -0.892705)
(20.0574 -0.474765 -0.365758)
(20.2076 -0.433342 0.282649)
(20.2512 -0.369738 0.958018)
(20.2492 -0.271597 1.56594)
(20.2517 -0.110176 2.24614)
(20.2822 0.0958939 2.94569)
(20.2913 0.280946 3.61822)
(20.2532 0.408984 4.15628)
(20.1674 0.473048 4.47743)
(20.0587 0.466629 4.79142)
(19.9502 0.400885 5.06757)
(19.8489 0.283647 5.43082)
(19.7326 0.161049 5.69955)
(19.6103 0.0405284 6.38618)
(19.4723 -0.0241296 6.2568)
(15.9928 0.00677166 -0.101249)
(15.9871 -0.036316 -0.224627)
(16.0042 -0.0894575 -0.316759)
(16.0256 -0.133562 -0.486151)
(16.0427 -0.16958 -0.699482)
(16.07 -0.201717 -0.663863)
(16.1083 -0.238577 -0.912978)
(16.134 -0.284008 -1.47864)
(16.1798 -0.358322 -1.94251)
(16.2038 -0.455683 -2.29623)
(16.402 -0.772519 -2.76011)
(17.1079 -1.06889 -3.23151)
(17.9838 -0.921797 -3.74662)
(18.7344 -0.629278 -4.42909)
(19.3801 -0.274096 -5.16893)
(19.9332 0.00436545 -5.89032)
(20.4242 0.1104 -6.75734)
(20.7927 0.0989006 -7.92345)
(21.0152 0.0175369 -8.99234)
(21.0931 -0.0287006 -9.4738)
(20.9958 -0.0213553 -9.61007)
(20.752 0.0217843 -9.50606)
(20.428 0.0723203 -9.19168)
(20.0908 0.098797 -8.57392)
(19.7724 0.092357 -7.63581)
(19.4698 0.0716645 -6.69626)
(19.179 0.0570911 -6.00776)
(18.9062 0.0514624 -5.39437)
(18.6591 0.0475337 -4.53719)
(18.421 0.0409206 -3.82357)
(18.1869 0.023571 -3.44985)
(17.9685 -0.00850539 -3.18882)
(17.783 -0.049631 -2.95045)
(17.6405 -0.0816277 -2.77736)
(17.5339 -0.0911371 -2.6357)
(17.4388 -0.0813127 -2.50007)
(17.3398 -0.0792241 -2.41056)
(17.249 -0.0991896 -2.42427)
(17.1971 -0.140509 -2.40407)
(17.2004 -0.191034 -2.35706)
(17.2654 -0.244537 -2.25595)
(17.4232 -0.313438 -1.76572)
(17.6877 -0.381105 -1.07885)
(18.0119 -0.40834 -0.429882)
(18.304 -0.382771 0.222407)
(18.4378 -0.308453 0.880834)
(18.427 -0.24746 1.55379)
(18.3659 -0.24723 2.13572)
(18.3338 -0.277324 2.61)
(18.3328 -0.257226 3.15848)
(18.3173 -0.110797 3.76258)
(18.2096 0.128248 4.50439)
(18.0553 0.360934 5.19705)
(17.9123 0.525554 5.64343)
(17.824 0.596137 6.06835)
(17.8052 0.582426 6.44498)
(17.8452 0.490632 6.97215)
(17.8963 0.364834 7.39581)
(17.9586 0.219068 8.31658)
(18.0047 0.104117 8.27895)
(15.957 0.0810018 -0.103545)
(15.9198 0.183734 -0.396845)
(15.9237 0.249223 -0.591834)
(15.9424 0.28577 -0.914211)
(15.9667 0.303316 -1.30514)
(16.0026 0.30194 -1.3171)
(16.0415 0.290627 -1.59668)
(16.0657 0.267415 -2.14645)
(16.1141 0.212518 -2.58001)
(16.0983 0.111804 -2.85226)
(16.2548 -0.537472 -2.94307)
(17.1148 -1.12176 -2.58293)
(18.1277 -0.968217 -2.57562)
(18.8895 -0.537155 -3.83059)
(19.6182 -0.0649388 -6.60138)
(20.3281 0.224867 -9.71367)
(20.8211 0.316443 -12.6703)
(20.845 0.321086 -15.0658)
(20.3938 0.211217 -16.2301)
(19.669 0.08938 -16.0229)
(18.8368 0.00968562 -15.0747)
(18.0425 -0.0329707 -13.7823)
(17.3707 -0.0576044 -12.3724)
(16.8515 -0.0802751 -10.9322)
(16.4746 -0.090766 -9.3946)
(16.1891 -0.076909 -7.87788)
(15.9589 -0.0435946 -6.63609)
(15.7899 -0.00596197 -5.43774)
(15.6826 0.0192514 -4.03331)
(15.617 0.0263665 -2.89331)
(15.591 0.00607183 -2.26675)
(15.6329 -0.0462934 -1.8412)
(15.7535 -0.117211 -1.47575)
(15.924 -0.165326 -1.20811)
(16.0988 -0.162048 -1.00712)
(16.24 -0.119238 -0.831878)
(16.3558 -0.102172 -0.678111)
(16.4749 -0.138368 -0.598175)
(16.619 -0.219809 -0.480058)
(16.7791 -0.319205 -0.330827)
(16.928 -0.411832 -0.143879)
(16.9563 -0.519677 0.522644)
(16.901 -0.600874 1.42496)
(16.8769 -0.632355 2.25664)
(16.8654 -0.630774 3.06513)
(16.8037 -0.607241 3.91655)
(16.6146 -0.562444 4.82535)
(16.2845 -0.474367 5.65043)
(15.9137 -0.34019 6.39981)
(15.6085 -0.127392 7.28831)
(15.3702 0.173499 8.17767)
(15.2658 0.444885 8.89909)
(15.3239 0.618701 9.37923)
(15.5393 0.690259 9.49716)
(15.8799 0.674583 9.58062)
(16.2781 0.597424 9.63536)
(16.684 0.466936 9.96042)
(17.0032 0.325587 10.2503)
(17.224 0.189102 11.1367)
(17.2609 0.104497 10.8847)
(16.0343 -0.421352 -0.0402914)
(16.0176 -0.526912 -0.24099)
(16.0078 -0.522121 -0.238869)
(16.0104 -0.492913 -0.36831)
(16.0113 -0.454172 -0.569588)
(16.0248 -0.426315 -0.39474)
(16.0541 -0.401709 -0.484728)
(16.061 -0.384337 -0.761814)
(16.0663 -0.389153 -0.867572)
(15.9133 -0.425491 -0.742976)
(16.0123 -1.19961 0.0580022)
(17.492 -1.70979 3.36018)
(18.873 -1.27641 6.17017)
(19.5989 -0.592834 7.25665)
(20.0703 -0.0164816 6.87758)
(20.4705 0.36168 5.22255)
(20.8388 0.562234 3.0177)
(21.0002 0.637036 0.526523)
(21.1647 0.582555 -1.66785)
(21.4178 0.486932 -3.19131)
(21.4954 0.389167 -4.16107)
(21.4006 0.296937 -4.74544)
(21.2276 0.210593 -5.04285)
(21.0267 0.125504 -5.12627)
(20.8124 0.0466477 -4.87693)
(20.603 -0.0135016 -4.27063)
(20.4018 -0.0553281 -3.61337)
(20.2328 -0.0951849 -2.80289)
(20.1253 -0.12983 -1.76735)
(20.0502 -0.149291 -0.873481)
(19.9678 -0.167459 -0.344629)
(19.8369 -0.200225 0.0681232)
(19.5691 -0.249053 0.48313)
(19.2554 -0.2906 0.835805)
(18.9631 -0.306684 1.11609)
(18.7208 -0.292331 1.35753)
(18.4749 -0.266397 1.62616)
(18.2036 -0.261341 1.88132)
(17.9115 -0.265795 2.18545)
(17.5832 -0.25777 2.51605)
(17.1736 -0.222052 2.81317)
(16.5888 -0.183265 3.65202)
(15.8155 -0.152947 4.70844)
(14.8496 -0.136954 5.61166)
(13.7309 -0.109776 6.47699)
(12.5927 -0.0506933 7.57913)
(11.8515 0.00455547 9.10407)
(11.8601 -0.00765673 10.5348)
(12.2591 -0.0551764 11.294)
(12.6775 -0.0599388 11.7107)
(13.0541 0.0167076 11.9919)
(13.2751 0.151213 12.2964)
(13.4724 0.273842 12.4965)
(13.7422 0.342288 12.3203)
(14.0701 0.350144 12.0739)
(14.3688 0.314989 11.7759)
(14.575 0.246211 11.8661)
(14.6075 0.185122 12.0084)
(14.5065 0.155146 12.9464)
(14.3084 0.0895952 12.6841)
(16.029 1.17423 0.031249)
(16.1305 0.896071 -0.354183)
(16.1475 0.739394 -0.345532)
(16.1413 0.628944 -0.457145)
(16.1285 0.545197 -0.643786)
(16.1226 0.485798 -0.389535)
(16.1252 0.437925 -0.385495)
(16.1036 0.393168 -0.513625)
(16.0815 0.347646 -0.417869)
(15.7342 0.308363 -0.0656291)
(16.287 -0.490883 3.53594)
(18.7035 -1.0077 14.7741)
(19.0892 -0.869255 21.8016)
(18.2854 -0.661674 23.7026)
(17.4174 -0.545658 22.8742)
(16.7539 -0.467732 20.7629)
(16.3471 -0.399176 17.799)
(16.0956 -0.310848 14.3683)
(15.9737 -0.163982 11.3071)
(15.9753 -0.0226892 9.16873)
(16 0.0851994 7.69177)
(15.9839 0.163767 6.72466)
(15.9208 0.226964 6.17208)
(15.8329 0.281948 5.87573)
(15.7219 0.311575 5.96748)
(15.5958 0.306433 6.46544)
(15.4517 0.281604 6.91408)
(15.2514 0.234721 7.54452)
(14.978 0.172783 8.48734)
(14.6163 0.0944346 9.13319)
(14.116 -0.00260041 9.18435)
(13.4829 -0.0865087 9.0385)
(12.782 -0.1111 8.89179)
(12.0744 -0.0614025 8.65499)
(11.4044 0.0496013 8.26566)
(10.8319 0.202142 7.77007)
(10.4852 0.338817 7.24829)
(10.3403 0.397885 6.73886)
(10.3032 0.392721 6.36579)
(10.3023 0.346115 6.08837)
(10.2897 0.296447 5.70436)
(10.2621 0.25841 6.15991)
(10.2844 0.234015 6.97018)
(10.3178 0.21257 7.62091)
(10.3466 0.178731 8.39092)
(10.4793 0.0672477 9.92852)
(10.7998 -0.184973 12.2785)
(10.8836 -0.460091 14.1414)
(10.3411 -0.562741 14.3955)
(9.29729 -0.449957 13.5563)
(8.27246 -0.177027 12.5551)
(7.82396 0.0894071 12.1587)
(7.91208 0.217423 12.1173)
(8.25926 0.238796 11.6777)
(8.67876 0.215664 11.2183)
(9.05961 0.187087 10.7554)
(9.38499 0.161523 11.0766)
(9.6417 0.156783 11.6512)
(9.96622 0.167253 13.4662)
(10.3846 0.0904078 13.5384)
(16.0533 -1.13105 -0.405888)
(16.1689 -0.880211 0.17195)
(16.1726 -0.732275 0.501487)
(16.1563 -0.620464 0.974047)
(16.146 -0.529447 1.48372)
(16.157 -0.46121 1.43886)
(16.1908 -0.418946 0.963146)
(16.2506 -0.395057 0.468873)
(16.3305 -0.379001 0.726031)
(16.4392 -0.362516 1.4567)
(16.636 -0.346078 2.11187)
(16.9564 -0.320499 2.53409)
(17.27 -0.272999 2.96313)
(17.7023 -0.04244 4.33089)
(18.9032 0.401584 8.24136)
(19.8032 0.625824 12.4624)
(19.5089 0.615357 14.3755)
(18.4278 0.500887 14.0775)
(17.1457 0.375701 12.7908)
(16.0195 0.272315 11.5133)
(15.2294 0.181026 10.243)
(14.7862 0.114194 9.0524)
(14.5661 0.0745813 8.37317)
(14.4903 0.0468889 8.70343)
(14.5446 0.0275393 9.66316)
(14.6859 0.0164116 9.71734)
(14.8368 0.0140873 8.90802)
(14.9612 0.0151329 7.59017)
(15.0361 0.0132612 6.7405)
(15.0836 0.00382823 6.55766)
(15.1401 -0.00642868 6.77696)
(15.2218 -0.00856686 7.0834)
(15.3159 0.000382312 7.2963)
(15.4 0.0202013 7.39103)
(15.4425 0.0478217 7.27593)
(15.4142 0.0817889 7.19686)
(15.3101 0.1214 6.97217)
(15.1184 0.160624 6.6024)
(14.846 0.186673 6.08116)
(14.5086 0.197434 5.57977)
(14.1254 0.200284 5.28829)
(13.7141 0.200946 5.45875)
(13.3352 0.18879 5.78168)
(13.0511 0.147409 6.08473)
(12.9341 0.0816957 6.38493)
(12.9828 0.0131407 6.79991)
(13.1686 -0.0487652 7.52489)
(13.4836 -0.0987803 8.36441)
(13.8849 -0.129499 9.0156)
(14.315 -0.137958 9.64288)
(14.7274 -0.122888 10.2861)
(15.0857 -0.083033 10.9227)
(15.3684 -0.0181665 11.5509)
(15.5342 0.0654856 12.0115)
(15.504 0.142464 12.228)
(15.2413 0.177814 11.9582)
(14.8236 0.157843 11.1888)
(14.3863 0.091663 9.99767)
(14.1072 0.0122771 8.90866)
(13.9675 -0.0390981 7.8474)
(16.0306 0.439525 -0.134519)
(16.0129 0.528838 0.205697)
(16.0024 0.515447 0.38106)
(15.9968 0.4788 0.667422)
(15.9983 0.441607 1.01875)
(16.0212 0.420617 1.01953)
(16.0708 0.402107 0.619647)
(16.1557 0.379475 0.202258)
(16.2661 0.336517 0.496481)
(16.3956 0.278853 1.24654)
(16.6097 0.205784 1.92738)
(16.9535 0.166375 2.37788)
(17.3138 0.209929 2.83182)
(17.6963 0.46103 3.59645)
(18.6359 0.921234 5.27666)
(19.9329 1.0769 7.48294)
(20.8163 0.935036 9.01898)
(21.1251 0.655427 9.48357)
(21.0709 0.354593 9.32779)
(20.8628 0.0858365 9.05519)
(20.6081 -0.13714 8.49141)
(20.3288 -0.273634 7.73955)
(20.072 -0.338916 7.22397)
(19.8452 -0.364882 7.38979)
(19.6647 -0.36322 8.03054)
(19.5456 -0.345541 8.06146)
(19.4633 -0.317201 7.47274)
(19.3957 -0.287182 6.52927)
(19.3041 -0.261643 6.00478)
(19.192 -0.248981 5.96532)
(19.0895 -0.243903 6.17391)
(19.0139 -0.237709 6.44234)
(18.9681 -0.224522 6.66633)
(18.9583 -0.198711 6.8463)
(18.9835 -0.161314 6.93759)
(19.0287 -0.118387 7.08374)
(19.0711 -0.0801515 7.08487)
(19.1029 -0.0516476 6.91611)
(19.1256 -0.0347263 6.64611)
(19.1382 -0.0286988 6.42616)
(19.1467 -0.0274497 6.38279)
(19.1692 -0.0270394 6.66556)
(19.2179 -0.0384645 7.03343)
(19.2659 -0.0711991 7.30506)
(19.2386 -0.115219 7.47647)
(19.1095 -0.160713 7.65269)
(18.9067 -0.208798 8.01251)
(18.6744 -0.254209 8.45661)
(18.4482 -0.281927 8.80766)
(18.2383 -0.279273 9.21542)
(18.0477 -0.242789 9.7035)
(17.884 -0.176674 10.2187)
(17.7835 -0.0906153 10.6938)
(17.7721 -0.00384253 10.9915)
(17.855 0.0634135 11.1288)
(17.9881 0.0863844 10.9985)
(18.1307 0.0473803 10.6219)
(18.2655 -0.0452794 9.97378)
(18.3618 -0.147319 9.41094)
(18.4122 -0.219695 8.68283)
(15.9657 -0.093481 -0.181539)
(15.935 -0.19341 0.114176)
(15.9301 -0.266345 0.367483)
(15.9421 -0.310608 0.609644)
(15.9691 -0.32674 0.815537)
(16.014 -0.314239 0.833887)
(16.0727 -0.300249 0.445326)
(16.1559 -0.300222 -0.00322101)
(16.2657 -0.32992 0.184832)
(16.3958 -0.373775 0.744283)
(16.6163 -0.43733 1.13737)
(16.9826 -0.445521 1.20871)
(17.3896 -0.330039 1.19177)
(17.7668 -0.015798 1.1965)
(18.3756 0.55169 1.3731)
(19.2923 0.919323 1.73711)
(20.1694 0.963917 1.97275)
(20.7944 0.78597 1.83818)
(21.2011 0.507442 1.57481)
(21.4595 0.227935 1.45686)
(21.6108 0.000188205 1.2121)
(21.6917 -0.134696 0.894041)
(21.7272 -0.189371 0.790318)
(21.6521 -0.194084 1.29463)
(21.4203 -0.190304 2.18463)
(21.2007 -0.204719 2.4583)
(21.0783 -0.219052 2.08723)
(21.0466 -0.221903 1.37932)
(21.0139 -0.207195 1.07035)
(20.9255 -0.194982 1.14527)
(20.7992 -0.18644 1.40326)
(20.6681 -0.176519 1.72179)
(20.5596 -0.161852 1.99243)
(20.492 -0.134478 2.19232)
(20.4669 -0.0927636 2.30817)
(20.4703 -0.0416965 2.44247)
(20.5013 0.00383324 2.43918)
(20.5638 0.0354081 2.30925)
(20.6497 0.0568136 2.16929)
(20.7519 0.0679522 2.10888)
(20.876 0.0702353 2.21526)
(21.0391 0.0645172 2.61213)
(21.2468 0.0451681 3.08252)
(21.4538 0.0144722 3.46879)
(21.6023 -0.0170561 3.77625)
(21.6507 -0.0488855 4.09603)
(21.5784 -0.0883635 4.57404)
(21.3886 -0.136513 5.07278)
(21.1022 -0.175673 5.43562)
(20.7379 -0.182408 5.81385)
(20.3161 -0.154134 6.22837)
(19.8564 -0.109131 6.63125)
(19.4114 -0.0631093 6.93919)
(19.0732 -0.0257544 7.09624)
(18.9261 -0.00555536 7.2677)
(19.0011 -0.0174656 7.36349)
(19.2565 -0.0768833 7.33802)
(19.5744 -0.165648 7.13116)
(19.8804 -0.255777 7.07019)
(20.1476 -0.292614 6.71403)
(15.997 0.00216301 -0.103244)
(15.9916 0.0381778 0.02665)
(16.0002 0.0848381 0.0984248)
(16.0139 0.124723 0.0912124)
(16.0366 0.157887 0.0669026)
(16.0665 0.195986 0.0805822)
(16.1055 0.21851 -0.224162)
(16.1744 0.212551 -0.632833)
(16.2744 0.166089 -0.521691)
(16.3981 0.0886574 -0.0704151)
(16.6147 -0.0624805 0.211451)
(17.0133 -0.161791 0.173368)
(17.4884 -0.0659685 0.0706816)
(17.9269 0.245392 -0.0615402)
(18.4472 0.701854 -0.272716)
(19.1143 0.979647 -0.584689)
(19.7674 0.971831 -1.05755)
(20.2565 0.758649 -1.77413)
(20.5636 0.442363 -2.46967)
(20.7206 0.12742 -2.84979)
(20.7528 -0.105217 -3.20107)
(20.7093 -0.23926 -3.56015)
(20.6466 -0.298712 -3.70599)
(20.6115 -0.318853 -3.23702)
(20.5983 -0.327004 -2.32614)
(20.546 -0.336353 -1.89392)
(20.4247 -0.331819 -2.08725)
(20.2743 -0.302651 -2.622)
(20.1513 -0.266544 -2.79788)
(20.046 -0.251008 -2.6938)
(19.9648 -0.252598 -2.45531)
(19.9084 -0.258084 -2.13006)
(19.8696 -0.258151 -1.82299)
(19.8487 -0.243106 -1.59292)
(19.8447 -0.208269 -1.43755)
(19.8497 -0.161069 -1.3006)
(19.8543 -0.112375 -1.33159)
(19.8701 -0.0695255 -1.52502)
(19.9175 -0.0404189 -1.70122)
(20.0053 -0.0333103 -1.80158)
(20.1462 -0.0514682 -1.76771)
(20.3505 -0.0936945 -1.47493)
(20.6102 -0.15047 -1.07831)
(20.8963 -0.201996 -0.748472)
(21.176 -0.236103 -0.464116)
(21.4377 -0.248383 -0.121926)
(21.6447 -0.246858 0.444313)
(21.7558 -0.241863 1.10928)
(21.7852 -0.227206 1.70234)
(21.7584 -0.179886 2.35327)
(21.6961 -0.0924978 3.05776)
(21.5987 0.0130492 3.7587)
(21.4415 0.10516 4.35127)
(21.2156 0.155795 4.74556)
(20.962 0.145697 5.0551)
(20.7477 0.0710474 5.22035)
(20.609 -0.0554004 5.30752)
(20.5532 -0.193045 5.24377)
(20.5585 -0.313285 5.42628)
(20.621 -0.326381 5.18424)
(15.9926 -0.00365424 -0.0883759)
(15.9809 -0.0152468 -0.0783765)
(15.9814 -0.0416973 -0.0901333)
(15.9923 -0.0787664 -0.165068)
(16.0186 -0.119673 -0.237183)
(16.0509 -0.152254 -0.146788)
(16.0861 -0.189132 -0.369149)
(16.1467 -0.243103 -0.812696)
(16.2403 -0.324958 -0.863031)
(16.3462 -0.413454 -0.569913)
(16.5636 -0.58911 -0.414269)
(17.0325 -0.691287 -0.567547)
(17.6058 -0.548569 -0.759309)
(18.1167 -0.227514 -0.937068)
(18.6179 0.218336 -1.19181)
(19.1663 0.527274 -1.63557)
(19.6911 0.586134 -2.28265)
(20.1103 0.475655 -3.20368)
(20.4133 0.292866 -4.06336)
(20.5972 0.121142 -4.49173)
(20.6508 -0.000754462 -4.81938)
(20.6088 -0.0690633 -5.12973)
(20.5212 -0.100282 -5.28188)
(20.4318 -0.124256 -4.93219)
(20.3392 -0.150717 -4.14647)
(20.2149 -0.164837 -3.67407)
(20.0605 -0.162911 -3.73441)
(19.9038 -0.151151 -4.06303)
(19.754 -0.137521 -4.03461)
(19.5944 -0.132335 -3.86222)
(19.4468 -0.137618 -3.70115)
(19.3269 -0.144923 -3.49896)
(19.2369 -0.146422 -3.30316)
(19.1813 -0.132973 -3.17877)
(19.1611 -0.100188 -3.10865)
(19.1686 -0.055543 -3.05963)
(19.2076 -0.0152575 -3.15719)
(19.3057 0.00306678 -3.41156)
(19.4757 -0.00618447 -3.62504)
(19.7036 -0.034895 -3.7398)
(19.9724 -0.074129 -3.68862)
(20.2621 -0.122219 -3.32656)
(20.555 -0.17196 -2.81892)
(20.8292 -0.206753 -2.36419)
(21.0635 -0.223362 -1.94576)
(21.2542 -0.219406 -1.48248)
(21.4181 -0.210441 -0.840212)
(21.5853 -0.203713 -0.142185)
(21.7536 -0.188858 0.461963)
(21.8905 -0.137529 1.0938)
(21.9333 -0.0364 1.73857)
(21.835 0.0967642 2.39138)
(21.6552 0.227184 2.95098)
(21.4617 0.31714 3.31991)
(21.2827 0.338175 3.6424)
(21.137 0.28464 3.86508)
(21.0277 0.164756 4.06918)
(20.944 0.017535 4.17005)
(20.8523 -0.124102 4.62623)
(20.789 -0.171278 4.51486)
(15.9916 0.00552338 -0.0935991)
(15.9778 0.00705353 -0.169282)
(15.9771 0.0316665 -0.281634)
(15.9856 0.0709856 -0.477529)
(16.011 0.112614 -0.707897)
(16.043 0.148926 -0.711539)
(16.0742 0.170189 -0.994442)
(16.1248 0.165921 -1.54949)
(16.2121 0.102158 -1.81901)
(16.2937 -0.00260739 -1.78846)
(16.5171 -0.318591 -1.86274)
(17.1009 -0.563735 -2.19644)
(17.8068 -0.443045 -2.62279)
(18.4179 -0.101461 -3.11198)
(18.9699 0.350934 -3.56327)
(19.5227 0.636783 -4.09371)
(20.0502 0.673606 -4.7787)
(20.4824 0.545043 -5.69005)
(20.7902 0.31999 -6.43039)
(20.9622 0.102282 -6.62609)
(20.9822 -0.0532914 -6.6495)
(20.8775 -0.139839 -6.6433)
(20.6968 -0.178781 -6.59162)
(20.4891 -0.199543 -6.26282)
(20.2727 -0.207984 -5.62759)
(20.0413 -0.189971 -5.15963)
(19.8031 -0.150349 -5.069)
(19.5813 -0.101344 -5.11189)
(19.377 -0.0661747 -4.77643)
(19.1722 -0.0555336 -4.38587)
(18.9868 -0.071369 -4.12903)
(18.8349 -0.101443 -3.87521)
(18.7148 -0.131481 -3.6166)
(18.6267 -0.14566 -3.41979)
(18.5663 -0.135455 -3.25457)
(18.5193 -0.108719 -3.0954)
(18.4826 -0.0889952 -3.02511)
(18.4788 -0.0984814 -3.08421)
(18.5278 -0.141103 -3.10391)
(18.6316 -0.204532 -3.06954)
(18.7928 -0.2784 -2.93599)
(19.0078 -0.359075 -2.49423)
(19.2648 -0.429557 -1.90959)
(19.5387 -0.464316 -1.39227)
(19.8004 -0.466364 -0.905044)
(20.0355 -0.448819 -0.377082)
(20.2238 -0.426471 0.278278)
(20.3256 -0.392632 0.960036)
(20.3731 -0.311177 1.57004)
(20.4008 -0.149418 2.24865)
(20.4326 0.0719026 2.94529)
(20.4423 0.275158 3.61183)
(20.4132 0.413691 4.14111)
(20.3452 0.480222 4.45141)
(20.2521 0.47485 4.7513)
(20.1526 0.410087 5.01328)
(20.0532 0.296095 5.36538)
(19.9451 0.173958 5.63132)
(19.8171 0.0564942 6.3191)
(19.6916 -0.0138768 6.20232)
(15.9939 0.00582451 -0.1008)
(15.9895 -0.0565718 -0.223619)
(16.0052 -0.11084 -0.315288)
(16.023 -0.157914 -0.48514)
(16.0485 -0.196336 -0.700304)
(16.0736 -0.218206 -0.666101)
(16.0946 -0.246563 -0.91768)
(16.1248 -0.286824 -1.48966)
(16.1854 -0.36841 -1.96266)
(16.2057 -0.46904 -2.33039)
(16.4106 -0.814243 -2.79947)
(17.1451 -1.10604 -3.26365)
(18.0296 -0.949251 -3.77897)
(18.7776 -0.656081 -4.45995)
(19.4187 -0.29735 -5.17736)
(19.9679 -0.0195618 -5.88255)
(20.4522 0.0883874 -6.74359)
(20.8086 0.100613 -7.91149)
(21.0089 0.0607602 -8.9839)
(21.0492 0.0364234 -9.46333)
(20.9116 0.0431327 -9.59476)
(20.6402 0.0749853 -9.48422)
(20.3029 0.108394 -9.16395)
(19.9607 0.113481 -8.54279)
(19.6352 0.0911008 -7.60331)
(19.3224 0.0694558 -6.66364)
(19.0262 0.0588375 -5.97708)
(18.7566 0.0571816 -5.36626)
(18.5093 0.0491939 -4.50904)
(18.2646 0.033204 -3.7965)
(18.0321 0.00213726 -3.4252)
(17.825 -0.0384506 -3.16471)
(17.651 -0.0787908 -2.92592)
(17.516 -0.103987 -2.75307)
(17.412 -0.106181 -2.61236)
(17.3136 -0.0921211 -2.47772)
(17.2089 -0.0867873 -2.38917)
(17.1212 -0.106327 -2.4053)
(17.0838 -0.150511 -2.38911)
(17.1083 -0.20277 -2.34969)
(17.204 -0.254553 -2.26007)
(17.3864 -0.306942 -1.78319)
(17.6539 -0.357133 -1.10823)
(17.9766 -0.379533 -0.465253)
(18.3052 -0.37171 0.202398)
(18.5114 -0.323796 0.893258)
(18.5571 -0.274906 1.58958)
(18.5075 -0.268358 2.17801)
(18.466 -0.283781 2.6486)
(18.4601 -0.255479 3.19037)
(18.4576 -0.114157 3.77649)
(18.3681 0.116469 4.49633)
(18.2253 0.345705 5.17194)
(18.0883 0.511733 5.60757)
(17.997 0.588205 6.02242)
(17.9687 0.582401 6.39112)
(17.9948 0.501206 6.91463)
(18.0418 0.382411 7.34203)
(18.0919 0.241395 8.26559)
(18.1444 0.120537 8.23969)
(15.9527 0.0873774 -0.106696)
(15.9155 0.181535 -0.402232)
(15.9213 0.255167 -0.597787)
(15.9367 0.291714 -0.920675)
(15.9727 0.306643 -1.31335)
(16.0096 0.311551 -1.32629)
(16.034 0.303298 -1.60858)
(16.0621 0.285683 -2.16487)
(16.1245 0.233604 -2.60707)
(16.0968 0.140355 -2.89196)
(16.2552 -0.539109 -2.97632)
(17.1309 -1.10589 -2.62708)
(18.1448 -0.946011 -2.65096)
(18.9171 -0.507799 -3.99739)
(19.6705 -0.038238 -6.83018)
(20.3817 0.236482 -9.93264)
(20.8463 0.317615 -12.8333)