/*--------------------------------*- C++ -*----------------------------------*\
  =========                 |
  \\      /  F ield         | OpenFOAM: The Open Source CFD Toolbox
   \\    /   O peration     | Website:  https://openfoam.org
    \\  /    A nd           | Version:  8
     \\/     M anipulation  |
\*---------------------------------------------------------------------------*/
FoamFile
{
    version     2.0;
    format      ascii;
    class       volScalarField;
    location    "600";
    object      k;
}
// * * * * * * * * * * * * * * * * * * * * * * * * * * * * * * * * * * * * * //

dimensions      [0 2 -2 0 0 0 0];

internalField   nonuniform List<scalar> 
1200
(
0.0505472
0.0428478
0.0369112
0.0322398
0.0284973
0.0254525
0.0229421
0.020848
0.0190827
0.0175808
0.0162921
0.0151779
0.0142079
0.0133581
0.0126093
0.011946
0.0113556
0.0108278
0.0103539
0.00992676
0.00954046
0.00918992
0.00887083
0.00857955
0.00831293
0.00806825
0.0078432
0.00763572
0.00744404
0.00726661
0.00710206
0.00694918
0.00680691
0.0066743
0.0065505
0.00643476
0.0063264
0.00622483
0.00612949
0.0060399
0.0059556
0.0058762
0.00580133
0.00573066
0.00566389
0.00560073
0.00554094
0.00548429
0.00543055
0.00537955
0.00533109
0.00528501
0.00524117
0.00519941
0.0051596
0.00512164
0.0050854
0.00505078
0.0050177
0.00498603
0.0434539
0.0320527
0.0244795
0.0192386
0.0154836
0.012711
0.0106113
0.00898651
0.00770553
0.00667904
0.00584462
0.00515771
0.00458584
0.00410494
0.00369685
0.00334772
0.0030468
0.00278569
0.00255772
0.00235755
0.00218088
0.0020242
0.00188463
0.00175979
0.00164769
0.00154667
0.00145534
0.0013725
0.00129715
0.00122842
0.00116557
0.00110796
0.00105503
0.00100629
0.000961328
0.000919765
0.000881276
0.000845573
0.000812399
0.000781524
0.000752746
0.000725884
0.000700777
0.00067728
0.000655263
0.000634608
0.00061521
0.000596973
0.000579809
0.000563639
0.00054839
0.000533997
0.000520399
0.00050754
0.000495371
0.000483844
0.000472909
0.000462501
0.000452498
0.000441924
0.0434334
0.0319432
0.0243158
0.0190352
0.0152511
0.0124596
0.0103484
0.00871755
0.00743418
0.00640789
0.00557547
0.00489176
0.0043239
0.00384748
0.00344417
0.00309993
0.00280392
0.00254765
0.00232439
0.00212879
0.0019565
0.001804
0.00166841
0.00154735
0.00143882
0.00134119
0.00125304
0.0011732
0.00110068
0.0010346
0.000974237
0.000918954
0.000868202
0.000821502
0.000778439
0.000738646
0.000701805
0.000667631
0.000635878
0.000606325
0.000578778
0.000553059
0.000529011
0.000506495
0.000485385
0.000465566
0.000446936
0.000429404
0.000412885
0.000397303
0.00038259
0.000368683
0.000355524
0.000343062
0.000331248
0.000320039
0.000309394
0.000299275
0.000289643
0.000280443
0.0434334
0.0319682
0.0243515
0.0190751
0.0152907
0.0124965
0.0103817
0.00874697
0.00745992
0.00643028
0.00559489
0.0049086
0.0043385
0.00386016
0.00345518
0.00310952
0.00281229
0.00255496
0.00233079
0.0021344
0.00196142
0.00180833
0.00167221
0.00155069
0.00144176
0.00134377
0.00125531
0.00117519
0.00110242
0.00103612
0.000975556
0.000920096
0.000869183
0.000822339
0.000779145
0.000739234
0.000702285
0.000668014
0.000636169
0.00060653
0.000578898
0.000553098
0.000528972
0.00050638
0.000485195
0.000465303
0.000446602
0.000429
0.000412412
0.000396763
0.000381983
0.00036801
0.000354786
0.000342259
0.000330381
0.000319109
0.000308402
0.000298222
0.000288537
0.000279315
0.0434334
0.0319683
0.0243481
0.019069
0.015283
0.0124882
0.0103735
0.00873927
0.00745293
0.00642405
0.00558942
0.00490384
0.00433437
0.00385659
0.00345211
0.00310688
0.00281001
0.002553
0.0023291
0.00213294
0.00196016
0.00180724
0.00167128
0.00154988
0.00144106
0.00134317
0.00125479
0.00117474
0.00110203
0.00103578
0.000975269
0.000919849
0.000868973
0.00082216
0.000778993
0.000739106
0.000702178
0.000667925
0.000636097
0.000606472
0.000578852
0.000553063
0.000528947
0.000506363
0.000485185
0.0004653
0.000446605
0.000429007
0.000412423
0.000396778
0.000382001
0.00036803
0.000354809
0.000342284
0.000330407
0.000319136
0.00030843
0.000298251
0.000288567
0.000279345
0.0434334
0.0319683
0.0243481
0.019069
0.0152831
0.0124882
0.0103735
0.00873929
0.00745294
0.00642407
0.00558943
0.00490385
0.00433438
0.0038566
0.00345212
0.00310688
0.00281001
0.002553
0.00232911
0.00213294
0.00196016
0.00180724
0.00167128
0.00154988
0.00144106
0.00134317
0.00125479
0.00117474
0.00110203
0.00103578
0.000975268
0.000919848
0.000868971
0.000822158
0.000778991
0.000739104
0.000702176
0.000667923
0.000636095
0.00060647
0.00057885
0.000553061
0.000528945
0.000506361
0.000485183
0.000465298
0.000446603
0.000429005
0.000412421
0.000396776
0.000381999
0.000368028
0.000354807
0.000342282
0.000330406
0.000319134
0.000308428
0.00029825
0.000288565
0.000279343
0.0434334
0.0319682
0.0243515
0.0190751
0.0152907
0.0124965
0.0103817
0.00874696
0.00745991
0.00643027
0.00559488
0.00490859
0.00433849
0.00386015
0.00345518
0.00310952
0.00281228
0.00255496
0.00233079
0.00213439
0.00196142
0.00180832
0.00167221
0.00155069
0.00144176
0.00134377
0.0012553
0.00117519
0.00110241
0.00103611
0.000975553
0.000920093
0.00086918
0.000822336
0.000779142
0.000739231
0.000702282
0.00066801
0.000636166
0.000606527
0.000578895
0.000553095
0.000528969
0.000506376
0.000485191
0.000465299
0.000446598
0.000428995
0.000412407
0.000396758
0.000381978
0.000368004
0.00035478
0.000342253
0.000330375
0.000319102
0.000308394
0.000298215
0.000288529
0.000279307
0.0434334
0.0319432
0.0243158
0.0190352
0.0152512
0.0124596
0.0103485
0.00871758
0.0074342
0.0064079
0.00557548
0.00489177
0.0043239
0.00384749
0.00344417
0.00309993
0.00280392
0.00254765
0.00232439
0.00212879
0.0019565
0.001804
0.00166841
0.00154735
0.00143882
0.00134119
0.00125304
0.0011732
0.00110067
0.0010346
0.000974234
0.000918951
0.000868198
0.000821499
0.000778435
0.000738642
0.0007018
0.000667626
0.00063587
0.000606312
0.000578755
0.000553023
0.000528961
0.000506426
0.000485295
0.000465453
0.000446801
0.000429247
0.000412707
0.000397105
0.000382372
0.000368445
0.000355268
0.000342786
0.000330953
0.000319726
0.000309062
0.000298924
0.000289273
0.000280064
0.0434539
0.0320528
0.0244796
0.0192388
0.0154838
0.0127113
0.0106117
0.008987
0.00770611
0.0066797
0.00584537
0.00515853
0.00458671
0.00410585
0.00369778
0.00334866
0.00304774
0.00278661
0.00255862
0.00235843
0.00218173
0.00202502
0.00188541
0.00176054
0.00164841
0.00154736
0.001456
0.00137314
0.00129777
0.00122901
0.00116614
0.0011085
0.00105554
0.00100678
0.000961784
0.000920192
0.000881674
0.000845941
0.00081274
0.000781841
0.000753044
0.000726167
0.00070105
0.000677546
0.000655526
0.000634871
0.000615473
0.000597235
0.000580071
0.0005639
0.000548651
0.000534257
0.00052066
0.000507802
0.000495635
0.00048411
0.000473177
0.00046277
0.000452764
0.000442157
0.0505472
0.0428477
0.0369111
0.0322396
0.0284972
0.0254523
0.0229419
0.0208478
0.0190826
0.0175806
0.0162919
0.0151777
0.0142077
0.0133579
0.0126091
0.0119459
0.0113555
0.0108277
0.0103538
0.00992666
0.00954037
0.00918984
0.00887076
0.00857948
0.00831285
0.00806819
0.00784313
0.00763566
0.00744398
0.00726655
0.00710201
0.00694913
0.00680686
0.00667425
0.00655045
0.00643471
0.00632636
0.00622479
0.00612945
0.00603985
0.00595556
0.00587616
0.00580129
0.00573062
0.00566384
0.00560068
0.00554089
0.00548424
0.00543051
0.0053795
0.00533104
0.00528496
0.00524111
0.00519935
0.00515955
0.00512158
0.00508534
0.00505071
0.00501763
0.00498596
0.0505472
0.0428477
0.0369109
0.0322394
0.0284969
0.0254521
0.0229418
0.0208477
0.0190824
0.0175805
0.0162918
0.0151777
0.0142077
0.0133579
0.0126091
0.0119459
0.0113555
0.0108277
0.0103538
0.00992668
0.00954039
0.00918986
0.00887078
0.0085795
0.00831288
0.00806821
0.00784315
0.00763567
0.007444
0.00726657
0.00710202
0.00694914
0.00680687
0.00667425
0.00655045
0.00643471
0.00632635
0.00622478
0.00612944
0.00603984
0.00595554
0.00587614
0.00580127
0.0057306
0.00566382
0.00560066
0.00554087
0.00548421
0.00543048
0.00537947
0.00533101
0.00528493
0.00524109
0.00519933
0.00515952
0.00512156
0.00508531
0.0050507
0.00501761
0.00498595
0.0434539
0.0320528
0.0244795
0.0192385
0.0154836
0.0127111
0.0106113
0.00898643
0.00770535
0.00667878
0.0058443
0.00515738
0.00458554
0.00410468
0.00369667
0.00334761
0.00304678
0.00278575
0.00255784
0.00235772
0.00218108
0.00202442
0.00188486
0.00176
0.00164789
0.00154686
0.00145551
0.00137266
0.00129731
0.00122858
0.00116573
0.00110812
0.0010552
0.00100647
0.000961515
0.000919962
0.000881483
0.000845789
0.00081262
0.000781749
0.000752974
0.000726113
0.000701007
0.000677511
0.000655493
0.000634837
0.000615435
0.000597193
0.000580023
0.000563846
0.000548591
0.000534192
0.000520589
0.000507728
0.000495557
0.000484028
0.000473091
0.00046268
0.000452675
0.000442086
0.0434334
0.0319432
0.0243159
0.0190353
0.0152512
0.0124596
0.0103485
0.00871754
0.00743415
0.00640785
0.00557543
0.00489172
0.00432385
0.00384744
0.00344413
0.00309989
0.00280388
0.00254761
0.00232436
0.00212876
0.00195647
0.00180397
0.00166839
0.00154732
0.0014388
0.00134117
0.00125302
0.00117318
0.00110066
0.00103458
0.000974219
0.000918937
0.000868185
0.000821485
0.000778422
0.00073863
0.000701788
0.000667614
0.000635861
0.000606309
0.000578761
0.000553042
0.000528994
0.000506478
0.000485367
0.000465548
0.000446918
0.000429384
0.000412864
0.000397282
0.000382568
0.00036866
0.0003555
0.000343037
0.000331222
0.000320012
0.000309366
0.000299246
0.000289613
0.000280412
0.0434334
0.0319682
0.0243515
0.0190751
0.0152907
0.0124965
0.0103817
0.00874694
0.00745989
0.00643025
0.00559486
0.00490857
0.00433847
0.00386013
0.00345516
0.0031095
0.00281227
0.00255495
0.00233078
0.00213438
0.00196141
0.00180832
0.0016722
0.00155068
0.00144175
0.00134376
0.0012553
0.00117519
0.00110241
0.00103611
0.00097555
0.000920089
0.000869177
0.000822333
0.000779139
0.000739228
0.000702279
0.000668007
0.000636163
0.000606523
0.000578892
0.000553091
0.000528965
0.000506373
0.000485187
0.000465295
0.000446594
0.000428992
0.000412404
0.000396754
0.000381974
0.000368001
0.000354777
0.00034225
0.000330372
0.000319099
0.000308392
0.000298212
0.000288527
0.000279305
0.0434334
0.0319682
0.0243481
0.019069
0.0152831
0.0124882
0.0103735
0.00873926
0.00745291
0.00642403
0.0055894
0.00490381
0.00433435
0.00385657
0.00345209
0.00310686
0.00280999
0.00255298
0.00232909
0.00213292
0.00196015
0.00180723
0.00167126
0.00154987
0.00144105
0.00134315
0.00125478
0.00117473
0.00110202
0.00103577
0.000975259
0.00091984
0.000868963
0.00082215
0.000778984
0.000739097
0.000702169
0.000667916
0.000636087
0.000606462
0.000578843
0.000553054
0.000528937
0.000506353
0.000485175
0.00046529
0.000446595
0.000428997
0.000412413
0.000396768
0.000381991
0.00036802
0.000354798
0.000342273
0.000330397
0.000319126
0.000308419
0.000298241
0.000288556
0.000279334
0.0434334
0.0319682
0.0243481
0.019069
0.0152831
0.0124882
0.0103735
0.00873927
0.00745292
0.00642404
0.00558941
0.00490382
0.00433435
0.00385658
0.0034521
0.00310686
0.00281
0.00255299
0.00232909
0.00213293
0.00196015
0.00180723
0.00167127
0.00154987
0.00144105
0.00134316
0.00125478
0.00117473
0.00110202
0.00103577
0.000975259
0.00091984
0.000868963
0.00082215
0.000778983
0.000739096
0.000702168
0.000667915
0.000636087
0.000606461
0.000578842
0.000553053
0.000528936
0.000506352
0.000485174
0.000465289
0.000446594
0.000428996
0.000412412
0.000396767
0.00038199
0.000368019
0.000354797
0.000342272
0.000330396
0.000319125
0.000308418
0.00029824
0.000288555
0.000279333
0.0434334
0.0319682
0.0243515
0.0190751
0.0152907
0.0124964
0.0103817
0.00874693
0.00745988
0.00643024
0.00559485
0.00490857
0.00433847
0.00386013
0.00345516
0.0031095
0.00281227
0.00255494
0.00233078
0.00213438
0.00196141
0.00180831
0.0016722
0.00155068
0.00144175
0.00134376
0.0012553
0.00117518
0.00110241
0.00103611
0.000975548
0.000920088
0.000869176
0.000822332
0.000779137
0.000739227
0.000702277
0.000668006
0.000636161
0.000606522
0.00057889
0.000553089
0.000528963
0.000506371
0.000485185
0.000465293
0.000446592
0.00042899
0.000412402
0.000396752
0.000381972
0.000367998
0.000354774
0.000342247
0.000330369
0.000319096
0.000308388
0.000298209
0.000288523
0.000279301
0.0434334
0.0319432
0.0243159
0.0190353
0.0152512
0.0124596
0.0103485
0.00871756
0.00743418
0.00640788
0.00557545
0.00489174
0.00432387
0.00384746
0.00344414
0.0030999
0.0028039
0.00254762
0.00232437
0.00212877
0.00195648
0.00180398
0.0016684
0.00154733
0.00143881
0.00134117
0.00125302
0.00117319
0.00110066
0.00103458
0.000974221
0.000918939
0.000868186
0.000821486
0.000778422
0.00073863
0.000701787
0.000667613
0.000635858
0.0006063
0.000578743
0.000553011
0.000528948
0.000506414
0.000485282
0.000465442
0.000446792
0.000429239
0.0004127
0.000397099
0.000382366
0.00036844
0.000355262
0.000342781
0.000330948
0.00031972
0.000309056
0.000298918
0.000289267
0.000280057
0.0434539
0.0320529
0.0244797
0.0192388
0.015484
0.0127116
0.010612
0.00898725
0.00770627
0.00667977
0.00584535
0.00515845
0.0045866
0.00410572
0.00369766
0.00334856
0.00304768
0.00278659
0.00255863
0.00235845
0.00218176
0.00202505
0.00188543
0.00176053
0.00164837
0.00154729
0.0014559
0.001373
0.0012976
0.00122882
0.00116594
0.00110829
0.00105534
0.00100659
0.000961611
0.000920041
0.000881546
0.000845838
0.000812659
0.000781783
0.000753006
0.000726147
0.000701044
0.000677553
0.000655542
0.000634893
0.000615498
0.000597261
0.000580096
0.000563923
0.000548672
0.000534277
0.000520678
0.000507821
0.000495654
0.000484128
0.000473195
0.000462788
0.000452784
0.000442174
0.0505473
0.0428478
0.036911
0.0322394
0.0284969
0.0254521
0.0229417
0.0208476
0.0190824
0.0175805
0.0162918
0.0151776
0.0142076
0.0133578
0.0126091
0.0119458
0.0113554
0.0108276
0.0103537
0.00992662
0.00954034
0.0091898
0.00887072
0.00857944
0.00831282
0.00806815
0.0078431
0.00763562
0.00744394
0.00726651
0.00710196
0.00694908
0.00680681
0.00667419
0.00655039
0.00643465
0.00632629
0.00622472
0.00612938
0.00603978
0.00595548
0.00587608
0.00580121
0.00573053
0.00566376
0.0056006
0.00554081
0.00548415
0.00543041
0.0053794
0.00533094
0.00528486
0.00524101
0.00519925
0.00515944
0.00512147
0.00508523
0.0050506
0.00501752
0.00498585
)
;

boundaryField
{
    wall
    {
        type            kqRWallFunction;
        value           nonuniform List<scalar> 
1200
(
0.0505472
0.0434539
0.0434334
0.0434334
0.0434334
0.0434334
0.0434334
0.0434334
0.0434539
0.0505472
0.0428478
0.0320527
0.0319432
0.0319682
0.0319683
0.0319683
0.0319682
0.0319432
0.0320528
0.0428477
0.0369112
0.0244795
0.0243158
0.0243515
0.0243481
0.0243481
0.0243515
0.0243158
0.0244796
0.0369111
0.0322398
0.0192386
0.0190352
0.0190751
0.019069
0.019069
0.0190751
0.0190352
0.0192388
0.0322396
0.0284973
0.0154836
0.0152511
0.0152907
0.015283
0.0152831
0.0152907
0.0152512
0.0154838
0.0284972
0.0254525
0.012711
0.0124596
0.0124965
0.0124882
0.0124882
0.0124965
0.0124596
0.0127113
0.0254523
0.0229421
0.0106113
0.0103484
0.0103817
0.0103735
0.0103735
0.0103817
0.0103485
0.0106117
0.0229419
0.020848
0.00898651
0.00871755
0.00874697
0.00873927
0.00873929
0.00874696
0.00871758
0.008987
0.0208478
0.0190827
0.00770553
0.00743418
0.00745992
0.00745293
0.00745294
0.00745991
0.0074342
0.00770611
0.0190826
0.0175808
0.00667904
0.00640789
0.00643028
0.00642405
0.00642407
0.00643027
0.0064079
0.0066797
0.0175806
0.0162921
0.00584462
0.00557547
0.00559489
0.00558942
0.00558943
0.00559488
0.00557548
0.00584537
0.0162919
0.0151779
0.00515771
0.00489176
0.0049086
0.00490384
0.00490385
0.00490859
0.00489177
0.00515853
0.0151777
0.0142079
0.00458584
0.0043239
0.0043385
0.00433437
0.00433438
0.00433849
0.0043239
0.00458671
0.0142077
0.0133581
0.00410494
0.00384748
0.00386016
0.00385659
0.0038566
0.00386015
0.00384749
0.00410585
0.0133579
0.0126093
0.00369685
0.00344417
0.00345518
0.00345211
0.00345212
0.00345518
0.00344417
0.00369778
0.0126091
0.011946
0.00334772
0.00309993
0.00310952
0.00310688
0.00310688
0.00310952
0.00309993
0.00334866
0.0119459
0.0113556
0.0030468
0.00280392
0.00281229
0.00281001
0.00281001
0.00281228
0.00280392
0.00304774
0.0113555
0.0108278
0.00278569
0.00254765
0.00255496
0.002553
0.002553
0.00255496
0.00254765
0.00278661
0.0108277
0.0103539
0.00255772
0.00232439
0.00233079
0.0023291
0.00232911
0.00233079
0.00232439
0.00255862
0.0103538
0.00992676
0.00235755
0.00212879
0.0021344
0.00213294
0.00213294
0.00213439
0.00212879
0.00235843
0.00992666
0.00954046
0.00218088
0.0019565
0.00196142
0.00196016
0.00196016
0.00196142
0.0019565
0.00218173
0.00954037
0.00918992
0.0020242
0.001804
0.00180833
0.00180724
0.00180724
0.00180832
0.001804
0.00202502
0.00918984
0.00887083
0.00188463
0.00166841
0.00167221
0.00167128
0.00167128
0.00167221
0.00166841
0.00188541
0.00887076
0.00857955
0.00175979
0.00154735
0.00155069
0.00154988
0.00154988
0.00155069
0.00154735
0.00176054
0.00857948
0.00831293
0.00164769
0.00143882
0.00144176
0.00144106
0.00144106
0.00144176
0.00143882
0.00164841
0.00831285
0.00806825
0.00154667
0.00134119
0.00134377
0.00134317
0.00134317
0.00134377
0.00134119
0.00154736
0.00806819
0.0078432
0.00145534
0.00125304
0.00125531
0.00125479
0.00125479
0.0012553
0.00125304
0.001456
0.00784313
0.00763572
0.0013725
0.0011732
0.00117519
0.00117474
0.00117474
0.00117519
0.0011732
0.00137314
0.00763566
0.00744404
0.00129715
0.00110068
0.00110242
0.00110203
0.00110203
0.00110241
0.00110067
0.00129777
0.00744398
0.00726661
0.00122842
0.0010346
0.00103612
0.00103578
0.00103578
0.00103611
0.0010346
0.00122901
0.00726655
0.00710206
0.00116557
0.000974237
0.000975556
0.000975269
0.000975268
0.000975553
0.000974234
0.00116614
0.00710201
0.00694918
0.00110796
0.000918954
0.000920096
0.000919849
0.000919848
0.000920093
0.000918951
0.0011085
0.00694913
0.00680691
0.00105503
0.000868202
0.000869183
0.000868973
0.000868971
0.00086918
0.000868198
0.00105554
0.00680686
0.0066743
0.00100629
0.000821502
0.000822339
0.00082216
0.000822158
0.000822336
0.000821499
0.00100678
0.00667425
0.0065505
0.000961328
0.000778439
0.000779145
0.000778993
0.000778991
0.000779142
0.000778435
0.000961784
0.00655045
0.00643476
0.000919765
0.000738646
0.000739234
0.000739106
0.000739104
0.000739231
0.000738642
0.000920192
0.00643471
0.0063264
0.000881276
0.000701805
0.000702285
0.000702178
0.000702176
0.000702282
0.0007018
0.000881674
0.00632636
0.00622483
0.000845573
0.000667631
0.000668014
0.000667925
0.000667923
0.00066801
0.000667626
0.000845941
0.00622479
0.00612949
0.000812399
0.000635878
0.000636169
0.000636097
0.000636095
0.000636166
0.00063587
0.00081274
0.00612945
0.0060399
0.000781524
0.000606325
0.00060653
0.000606472
0.00060647
0.000606527
0.000606312
0.000781841
0.00603985
0.0059556
0.000752746
0.000578778
0.000578898
0.000578852
0.00057885
0.000578895
0.000578755
0.000753044
0.00595556
0.0058762
0.000725884
0.000553059
0.000553098
0.000553063
0.000553061
0.000553095
0.000553023
0.000726167
0.00587616
0.00580133
0.000700777
0.000529011
0.000528972
0.000528947
0.000528945
0.000528969
0.000528961
0.00070105
0.00580129
0.00573066
0.00067728
0.000506495
0.00050638
0.000506363
0.000506361
0.000506376
0.000506426
0.000677546
0.00573062
0.00566389
0.000655263
0.000485385
0.000485195
0.000485185
0.000485183
0.000485191
0.000485295
0.000655526
0.00566384
0.00560073
0.000634608
0.000465566
0.000465303
0.0004653
0.000465298
0.000465299
0.000465453
0.000634871
0.00560068
0.00554094
0.00061521
0.000446936
0.000446602
0.000446605
0.000446603
0.000446598
0.000446801
0.000615473
0.00554089
0.00548429
0.000596973
0.000429404
0.000429
0.000429007
0.000429005
0.000428995
0.000429247
0.000597235
0.00548424
0.00543055
0.000579809
0.000412885
0.000412412
0.000412423
0.000412421
0.000412407
0.000412707
0.000580071
0.00543051
0.00537955
0.000563639
0.000397303
0.000396763
0.000396778
0.000396776
0.000396758
0.000397105
0.0005639
0.0053795
0.00533109
0.00054839
0.00038259
0.000381983
0.000382001
0.000381999
0.000381978
0.000382372
0.000548651
0.00533104
0.00528501
0.000533997
0.000368683
0.00036801
0.00036803
0.000368028
0.000368004
0.000368445
0.000534257
0.00528496
0.00524117
0.000520399
0.000355524
0.000354786
0.000354809
0.000354807
0.00035478
0.000355268
0.00052066
0.00524111
0.00519941
0.00050754
0.000343062
0.000342259
0.000342284
0.000342282
0.000342253
0.000342786
0.000507802
0.00519935
0.0051596
0.000495371
0.000331248
0.000330381
0.000330407
0.000330406
0.000330375
0.000330953
0.000495635
0.00515955
0.00512164
0.000483844
0.000320039
0.000319109
0.000319136
0.000319134
0.000319102
0.000319726
0.00048411
0.00512158
0.0050854
0.000472909
0.000309394
0.000308402
0.00030843
0.000308428
0.000308394
0.000309062
0.000473177
0.00508534
0.00505078
0.000462501
0.000299275
0.000298222
0.000298251
0.00029825
0.000298215
0.000298924
0.00046277
0.00505071
0.0050177
0.000452498
0.000289643
0.000288537
0.000288567
0.000288565
0.000288529
0.000289273
0.000452764
0.00501763
0.00498603
0.000441924
0.000280443
0.000279315
0.000279345
0.000279343
0.000279307
0.000280064
0.000442157
0.00498596
0.0505472
0.0434539
0.0434334
0.0434334
0.0434334
0.0434334
0.0434334
0.0434334
0.0434539
0.0505473
0.0428477
0.0320528
0.0319432
0.0319682
0.0319682
0.0319682
0.0319682
0.0319432
0.0320529
0.0428478
0.0369109
0.0244795
0.0243159
0.0243515
0.0243481
0.0243481
0.0243515
0.0243159
0.0244797
0.036911
0.0322394
0.0192385
0.0190353
0.0190751
0.019069
0.019069
0.0190751
0.0190353
0.0192388
0.0322394
0.0284969
0.0154836
0.0152512
0.0152907
0.0152831
0.0152831
0.0152907
0.0152512
0.015484
0.0284969
0.0254521
0.0127111
0.0124596
0.0124965
0.0124882
0.0124882
0.0124964
0.0124596
0.0127116
0.0254521
0.0229418
0.0106113
0.0103485
0.0103817
0.0103735
0.0103735
0.0103817
0.0103485
0.010612
0.0229417
0.0208477
0.00898643
0.00871754
0.00874694
0.00873926
0.00873927
0.00874693
0.00871756
0.00898725
0.0208476
0.0190824
0.00770535
0.00743415
0.00745989
0.00745291
0.00745292
0.00745988
0.00743418
0.00770627
0.0190824
0.0175805
0.00667878
0.00640785
0.00643025
0.00642403
0.00642404
0.00643024
0.00640788
0.00667977
0.0175805
0.0162918
0.0058443
0.00557543
0.00559486
0.0055894
0.00558941
0.00559485
0.00557545
0.00584535
0.0162918
0.0151777
0.00515738
0.00489172
0.00490857
0.00490381
0.00490382
0.00490857
0.00489174
0.00515845
0.0151776
0.0142077
0.00458554
0.00432385
0.00433847
0.00433435
0.00433435
0.00433847
0.00432387
0.0045866
0.0142076
0.0133579
0.00410468
0.00384744
0.00386013
0.00385657
0.00385658
0.00386013
0.00384746
0.00410572
0.0133578
0.0126091
0.00369667
0.00344413
0.00345516
0.00345209
0.0034521
0.00345516
0.00344414
0.00369766
0.0126091
0.0119459
0.00334761
0.00309989
0.0031095
0.00310686
0.00310686
0.0031095
0.0030999
0.00334856
0.0119458
0.0113555
0.00304678
0.00280388
0.00281227
0.00280999
0.00281
0.00281227
0.0028039
0.00304768
0.0113554
0.0108277
0.00278575
0.00254761
0.00255495
0.00255298
0.00255299
0.00255494
0.00254762
0.00278659
0.0108276
0.0103538
0.00255784
0.00232436
0.00233078
0.00232909
0.00232909
0.00233078
0.00232437
0.00255863
0.0103537
0.00992668
0.00235772
0.00212876
0.00213438
0.00213292
0.00213293
0.00213438
0.00212877
0.00235845
0.00992662
0.00954039
0.00218108
0.00195647
0.00196141
0.00196015
0.00196015
0.00196141
0.00195648
0.00218176
0.00954034
0.00918986
0.00202442
0.00180397
0.00180832
0.00180723
0.00180723
0.00180831
0.00180398
0.00202505
0.0091898
0.00887078
0.00188486
0.00166839
0.0016722
0.00167126
0.00167127
0.0016722
0.0016684
0.00188543
0.00887072
0.0085795
0.00176
0.00154732
0.00155068
0.00154987
0.00154987
0.00155068
0.00154733
0.00176053
0.00857944
0.00831288
0.00164789
0.0014388
0.00144175
0.00144105
0.00144105
0.00144175
0.00143881
0.00164837
0.00831282
0.00806821
0.00154686
0.00134117
0.00134376
0.00134315
0.00134316
0.00134376
0.00134117
0.00154729
0.00806815
0.00784315
0.00145551
0.00125302
0.0012553
0.00125478
0.00125478
0.0012553
0.00125302
0.0014559
0.0078431
0.00763567
0.00137266
0.00117318
0.00117519
0.00117473
0.00117473
0.00117518
0.00117319
0.001373
0.00763562
0.007444
0.00129731
0.00110066
0.00110241
0.00110202
0.00110202
0.00110241
0.00110066
0.0012976
0.00744394
0.00726657
0.00122858
0.00103458
0.00103611
0.00103577
0.00103577
0.00103611
0.00103458
0.00122882
0.00726651
0.00710202
0.00116573
0.000974219
0.00097555
0.000975259
0.000975259
0.000975548
0.000974221
0.00116594
0.00710196
0.00694914
0.00110812
0.000918937
0.000920089
0.00091984
0.00091984
0.000920088
0.000918939
0.00110829
0.00694908
0.00680687
0.0010552
0.000868185
0.000869177
0.000868963
0.000868963
0.000869176
0.000868186
0.00105534
0.00680681
0.00667425
0.00100647
0.000821485
0.000822333
0.00082215
0.00082215
0.000822332
0.000821486
0.00100659
0.00667419
0.00655045
0.000961515
0.000778422
0.000779139
0.000778984
0.000778983
0.000779137
0.000778422
0.000961611
0.00655039
0.00643471
0.000919962
0.00073863
0.000739228
0.000739097
0.000739096
0.000739227
0.00073863
0.000920041
0.00643465
0.00632635
0.000881483
0.000701788
0.000702279
0.000702169
0.000702168
0.000702277
0.000701787
0.000881546
0.00632629
0.00622478
0.000845789
0.000667614
0.000668007
0.000667916
0.000667915
0.000668006
0.000667613
0.000845838
0.00622472
0.00612944
0.00081262
0.000635861
0.000636163
0.000636087
0.000636087
0.000636161
0.000635858
0.000812659
0.00612938
0.00603984
0.000781749
0.000606309
0.000606523
0.000606462
0.000606461
0.000606522
0.0006063
0.000781783
0.00603978
0.00595554
0.000752974
0.000578761
0.000578892
0.000578843
0.000578842
0.00057889
0.000578743
0.000753006
0.00595548
0.00587614
0.000726113
0.000553042
0.000553091
0.000553054
0.000553053
0.000553089
0.000553011
0.000726147
0.00587608
0.00580127
0.000701007
0.000528994
0.000528965
0.000528937
0.000528936
0.000528963
0.000528948
0.000701044
0.00580121
0.0057306
0.000677511
0.000506478
0.000506373
0.000506353
0.000506352
0.000506371
0.000506414
0.000677553
0.00573053
0.00566382
0.000655493
0.000485367
0.000485187
0.000485175
0.000485174
0.000485185
0.000485282
0.000655542
0.00566376
0.00560066
0.000634837
0.000465548
0.000465295
0.00046529
0.000465289
0.000465293
0.000465442
0.000634893
0.0056006
0.00554087
0.000615435
0.000446918
0.000446594
0.000446595
0.000446594
0.000446592
0.000446792
0.000615498
0.00554081
0.00548421
0.000597193
0.000429384
0.000428992
0.000428997
0.000428996
0.00042899
0.000429239
0.000597261
0.00548415
0.00543048
0.000580023
0.000412864
0.000412404
0.000412413
0.000412412
0.000412402
0.0004127
0.000580096
0.00543041
0.00537947
0.000563846
0.000397282
0.000396754
0.000396768
0.000396767
0.000396752
0.000397099
0.000563923
0.0053794
0.00533101
0.000548591
0.000382568
0.000381974
0.000381991
0.00038199
0.000381972
0.000382366
0.000548672
0.00533094
0.00528493
0.000534192
0.00036866
0.000368001
0.00036802
0.000368019
0.000367998
0.00036844
0.000534277
0.00528486
0.00524109
0.000520589
0.0003555
0.000354777
0.000354798
0.000354797
0.000354774
0.000355262
0.000520678
0.00524101
0.00519933
0.000507728
0.000343037
0.00034225
0.000342273
0.000342272
0.000342247
0.000342781
0.000507821
0.00519925
0.00515952
0.000495557
0.000331222
0.000330372
0.000330397
0.000330396
0.000330369
0.000330948
0.000495654
0.00515944
0.00512156
0.000484028
0.000320012
0.000319099
0.000319126
0.000319125
0.000319096
0.00031972
0.000484128
0.00512147
0.00508531
0.000473091
0.000309366
0.000308392
0.000308419
0.000308418
0.000308388
0.000309056
0.000473195
0.00508523
0.0050507
0.00046268
0.000299246
0.000298212
0.000298241
0.00029824
0.000298209
0.000298918
0.000462788
0.0050506
0.00501761
0.000452675
0.000289613
0.000288527
0.000288556
0.000288555
0.000288523
0.000289267
0.000452784
0.00501752
0.00498595
0.000442086
0.000280412
0.000279305
0.000279334
0.000279333
0.000279301
0.000280057
0.000442174
0.00498585
)
;
    }
    inlet
    {
        type            turbulentIntensityKineticEnergyInlet;
        intensity       0.05;
        value           uniform 0.06;
    }
    outlet
    {
        type            inletOutlet;
        inletValue      uniform 0.003;
        value           nonuniform List<scalar> 
20
(
0.00498603
0.000441924
0.000280443
0.000279315
0.000279345
0.000279343
0.000279307
0.000280064
0.000442157
0.00498596
0.00498595
0.000442086
0.000280412
0.000279305
0.000279334
0.000279333
0.000279301
0.000280057
0.000442174
0.00498585
)
;
    }
    heatWall
    {
        type            kqRWallFunction;
        value           nonuniform List<scalar> 
240
(
0.0505472
0.0505473
0.0428477
0.0428478
0.0369111
0.036911
0.0322396
0.0322394
0.0284972
0.0284969
0.0254523
0.0254521
0.0229419
0.0229417
0.0208478
0.0208476
0.0190826
0.0190824
0.0175806
0.0175805
0.0162919
0.0162918
0.0151777
0.0151776
0.0142077
0.0142076
0.0133579
0.0133578
0.0126091
0.0126091
0.0119459
0.0119458
0.0113555
0.0113554
0.0108277
0.0108276
0.0103538
0.0103537
0.00992666
0.00992662
0.00954037
0.00954034
0.00918984
0.0091898
0.00887076
0.00887072
0.00857948
0.00857944
0.00831285
0.00831282
0.00806819
0.00806815
0.00784313
0.0078431
0.00763566
0.00763562
0.00744398
0.00744394
0.00726655
0.00726651
0.00710201
0.00710196
0.00694913
0.00694908
0.00680686
0.00680681
0.00667425
0.00667419
0.00655045
0.00655039
0.00643471
0.00643465
0.00632636
0.00632629
0.00622479
0.00622472
0.00612945
0.00612938
0.00603985
0.00603978
0.00595556
0.00595548
0.00587616
0.00587608
0.00580129
0.00580121
0.00573062
0.00573053
0.00566384
0.00566376
0.00560068
0.0056006
0.00554089
0.00554081
0.00548424
0.00548415
0.00543051
0.00543041
0.0053795
0.0053794
0.00533104
0.00533094
0.00528496
0.00528486
0.00524111
0.00524101
0.00519935
0.00519925
0.00515955
0.00515944
0.00512158
0.00512147
0.00508534
0.00508523
0.00505071
0.0050506
0.00501763
0.00501752
0.00498596
0.00498585
0.0505472
0.0505472
0.0428478
0.0428477
0.0369112
0.0369109
0.0322398
0.0322394
0.0284973
0.0284969
0.0254525
0.0254521
0.0229421
0.0229418
0.020848
0.0208477
0.0190827
0.0190824
0.0175808
0.0175805
0.0162921
0.0162918
0.0151779
0.0151777
0.0142079
0.0142077
0.0133581
0.0133579
0.0126093
0.0126091
0.011946
0.0119459
0.0113556
0.0113555
0.0108278
0.0108277
0.0103539
0.0103538
0.00992676
0.00992668
0.00954046
0.00954039
0.00918992
0.00918986
0.00887083
0.00887078
0.00857955
0.0085795
0.00831293
0.00831288
0.00806825
0.00806821
0.0078432
0.00784315
0.00763572
0.00763567