/*--------------------------------*- C++ -*----------------------------------*\
  =========                 |
  \\      /  F ield         | OpenFOAM: The Open Source CFD Toolbox
   \\    /   O peration     | Website:  https://openfoam.org
    \\  /    A nd           | Version:  8
     \\/     M anipulation  |
\*---------------------------------------------------------------------------*/
FoamFile
{
    version     2.0;
    format      ascii;
    class       volScalarField;
    location    "600";
    object      nut;
}
// * * * * * * * * * * * * * * * * * * * * * * * * * * * * * * * * * * * * * //

dimensions      [0 2 -1 0 0 0 0];

internalField   nonuniform List<scalar> 
1200
(
0.000201954
0.000185938
0.000172577
0.000161287
0.000151637
0.000143308
0.000136057
0.000129699
0.000124087
0.000119103
0.000114655
0.000110665
0.00010707
0.000103819
0.000100867
9.81783e-05
9.57216e-05
9.34704e-05
9.1402e-05
8.94969e-05
8.77383e-05
8.61113e-05
8.46032e-05
8.32026e-05
8.18995e-05
8.06853e-05
7.9552e-05
7.84927e-05
7.75013e-05
7.65721e-05
7.57001e-05
7.48809e-05
7.41105e-05
7.3385e-05
7.27012e-05
7.20561e-05
7.14468e-05
7.0871e-05
7.03261e-05
6.98103e-05
6.93214e-05
6.88577e-05
6.84177e-05
6.79997e-05
6.76023e-05
6.72244e-05
6.68646e-05
6.65219e-05
6.61952e-05
6.58836e-05
6.55862e-05
6.53022e-05
6.50307e-05
6.47711e-05
6.45227e-05
6.42849e-05
6.40571e-05
6.38386e-05
6.36292e-05
6.34281e-05
0.00011703
0.000100512
8.78387e-05
7.78702e-05
6.98587e-05
6.32958e-05
5.78321e-05
5.32206e-05
4.92817e-05
4.58819e-05
4.29203e-05
4.03193e-05
3.80184e-05
3.59698e-05
3.4135e-05
3.24832e-05
3.09889e-05
2.96313e-05
2.8393e-05
2.72593e-05
2.62181e-05
2.52587e-05
2.43724e-05
2.35513e-05
2.27888e-05
2.20792e-05
2.14174e-05
2.07989e-05
2.02199e-05
1.9677e-05
1.9167e-05
1.86873e-05
1.82354e-05
1.78093e-05
1.74069e-05
1.70264e-05
1.66664e-05
1.63253e-05
1.60018e-05
1.56948e-05
1.54031e-05
1.51258e-05
1.48619e-05
1.46106e-05
1.43712e-05
1.41429e-05
1.3925e-05
1.37171e-05
1.35185e-05
1.33286e-05
1.31471e-05
1.29734e-05
1.28072e-05
1.26479e-05
1.24954e-05
1.23491e-05
1.22088e-05
1.20737e-05
1.19424e-05
1.18021e-05
0.000117003
0.00010034
8.75445e-05
7.74574e-05
6.93323e-05
6.26666e-05
5.71113e-05
5.24182e-05
4.84062e-05
4.49409e-05
4.19204e-05
3.92661e-05
3.69166e-05
3.48235e-05
3.29478e-05
3.12579e-05
2.97281e-05
2.8337e-05
2.70669e-05
2.5903e-05
2.48327e-05
2.38453e-05
2.29317e-05
2.2084e-05
2.12955e-05
2.05603e-05
1.98732e-05
1.92296e-05
1.86258e-05
1.8058e-05
1.75233e-05
1.70189e-05
1.65423e-05
1.60912e-05
1.56638e-05
1.52582e-05
1.48728e-05
1.45062e-05
1.4157e-05
1.38241e-05
1.35064e-05
1.32029e-05
1.29127e-05
1.26349e-05
1.23688e-05
1.21136e-05
1.18688e-05
1.16337e-05
1.14077e-05
1.11904e-05
1.09812e-05
1.07798e-05
1.05857e-05
1.03985e-05
1.02179e-05
1.00435e-05
9.87508e-06
9.71224e-06
9.55468e-06
9.40172e-06
0.000117003
0.000100379
8.76088e-05
7.75386e-05
6.94223e-05
6.27593e-05
5.7203e-05
5.25065e-05
4.84899e-05
4.50194e-05
4.19933e-05
3.93336e-05
3.69789e-05
3.48808e-05
3.30005e-05
3.13063e-05
2.97724e-05
2.83777e-05
2.71042e-05
2.59371e-05
2.48639e-05
2.38739e-05
2.29578e-05
2.21079e-05
2.13173e-05
2.05801e-05
1.98911e-05
1.92459e-05
1.86405e-05
1.80713e-05
1.75352e-05
1.70295e-05
1.65516e-05
1.60994e-05
1.56709e-05
1.52643e-05
1.48779e-05
1.45103e-05
1.41602e-05
1.38264e-05
1.35078e-05
1.32034e-05
1.29122e-05
1.26335e-05
1.23664e-05
1.21102e-05
1.18644e-05
1.16282e-05
1.14012e-05
1.11828e-05
1.09725e-05
1.077e-05
1.05747e-05
1.03863e-05
1.02045e-05
1.00289e-05
9.85922e-06
9.69515e-06
9.53642e-06
9.38279e-06
0.000117003
0.000100379
8.76025e-05
7.75261e-05
6.94048e-05
6.27385e-05
5.71804e-05
5.24834e-05
4.84672e-05
4.49976e-05
4.19728e-05
3.93145e-05
3.69613e-05
3.48647e-05
3.29858e-05
3.12929e-05
2.97604e-05
2.83668e-05
2.70944e-05
2.59283e-05
2.4856e-05
2.38667e-05
2.29514e-05
2.21021e-05
2.13121e-05
2.05754e-05
1.9887e-05
1.92422e-05
1.86372e-05
1.80684e-05
1.75326e-05
1.70272e-05
1.65496e-05
1.60977e-05
1.56694e-05
1.52629e-05
1.48767e-05
1.45094e-05
1.41594e-05
1.38258e-05
1.35073e-05
1.3203e-05
1.29119e-05
1.26333e-05
1.23663e-05
1.21102e-05
1.18644e-05
1.16283e-05
1.14013e-05
1.1183e-05
1.09728e-05
1.07703e-05
1.0575e-05
1.03867e-05
1.02049e-05
1.00293e-05
9.85968e-06
9.69562e-06
9.53691e-06
9.38329e-06
0.000117003
0.000100379
8.76025e-05
7.75262e-05
6.94048e-05
6.27385e-05
5.71805e-05
5.24835e-05
4.84672e-05
4.49976e-05
4.19728e-05
3.93145e-05
3.69614e-05
3.48648e-05
3.29858e-05
3.1293e-05
2.97604e-05
2.83668e-05
2.70944e-05
2.59283e-05
2.4856e-05
2.38667e-05
2.29514e-05
2.21021e-05
2.13121e-05
2.05754e-05
1.9887e-05
1.92422e-05
1.86372e-05
1.80684e-05
1.75326e-05
1.70272e-05
1.65496e-05
1.60976e-05
1.56693e-05
1.52629e-05
1.48767e-05
1.45093e-05
1.41594e-05
1.38258e-05
1.35073e-05
1.3203e-05
1.29119e-05
1.26332e-05
1.23662e-05
1.21102e-05
1.18644e-05
1.16283e-05
1.14013e-05
1.1183e-05
1.09728e-05
1.07702e-05
1.0575e-05
1.03867e-05
1.02049e-05
1.00293e-05
9.85965e-06
9.69559e-06
9.53688e-06
9.38326e-06
0.000117003
0.000100379
8.76087e-05
7.75386e-05
6.94222e-05
6.27593e-05
5.7203e-05
5.25065e-05
4.84899e-05
4.50193e-05
4.19933e-05
3.93335e-05
3.69789e-05
3.48808e-05
3.30004e-05
3.13062e-05
2.97724e-05
2.83776e-05
2.71042e-05
2.59371e-05
2.48639e-05
2.38738e-05
2.29578e-05
2.21078e-05
2.13172e-05
2.058e-05
1.98911e-05
1.92459e-05
1.86405e-05
1.80713e-05
1.75352e-05
1.70294e-05
1.65516e-05
1.60994e-05
1.56709e-05
1.52642e-05
1.48779e-05
1.45103e-05
1.41602e-05
1.38264e-05
1.35078e-05
1.32034e-05
1.29122e-05
1.26334e-05
1.23663e-05
1.21102e-05
1.18643e-05
1.16282e-05
1.14011e-05
1.11827e-05
1.09724e-05
1.07699e-05
1.05746e-05
1.03862e-05
1.02044e-05
1.00288e-05
9.85911e-06
9.69503e-06
9.53629e-06
9.38265e-06
0.000117003
0.00010034
8.75445e-05
7.74575e-05
6.93324e-05
6.26667e-05
5.71114e-05
5.24182e-05
4.84063e-05
4.4941e-05
4.19204e-05
3.92661e-05
3.69167e-05
3.48235e-05
3.29478e-05
3.12579e-05
2.97281e-05
2.8337e-05
2.70669e-05
2.5903e-05
2.48327e-05
2.38453e-05
2.29317e-05
2.2084e-05
2.12955e-05
2.05603e-05
1.98731e-05
1.92296e-05
1.86258e-05
1.8058e-05
1.75233e-05
1.70189e-05
1.65422e-05
1.60912e-05
1.56637e-05
1.52581e-05
1.48727e-05
1.45061e-05
1.41569e-05
1.3824e-05
1.35062e-05
1.32025e-05
1.29121e-05
1.26341e-05
1.23677e-05
1.21122e-05
1.1867e-05
1.16316e-05
1.14053e-05
1.11876e-05
1.09781e-05
1.07763e-05
1.05819e-05
1.03943e-05
1.02133e-05
1.00386e-05
9.86978e-06
9.70655e-06
9.54858e-06
9.39535e-06
0.00011703
0.000100512
8.78389e-05
7.78705e-05
6.98592e-05
6.32965e-05
5.78332e-05
5.32221e-05
4.92836e-05
4.58842e-05
4.2923e-05
4.03225e-05
3.8022e-05
3.59738e-05
3.41393e-05
3.24878e-05
3.09937e-05
2.96362e-05
2.8398e-05
2.72644e-05
2.62232e-05
2.52638e-05
2.43774e-05
2.35563e-05
2.27938e-05
2.20842e-05
2.14223e-05
2.08038e-05
2.02247e-05
1.96817e-05
1.91717e-05
1.86919e-05
1.82399e-05
1.78136e-05
1.7411e-05
1.70304e-05
1.66701e-05
1.63288e-05
1.60052e-05
1.5698e-05
1.54062e-05
1.51287e-05
1.48648e-05
1.46135e-05
1.43741e-05
1.41458e-05
1.3928e-05
1.37201e-05
1.35215e-05
1.33317e-05
1.31502e-05
1.29766e-05
1.28104e-05
1.26512e-05
1.24987e-05
1.23525e-05
1.22123e-05
1.20772e-05
1.19459e-05
1.18052e-05
0.000201954
0.000185938
0.000172577
0.000161287
0.000151637
0.000143307
0.000136057
0.000129698
0.000124086
0.000119103
0.000114654
0.000110664
0.00010707
0.000103818
0.000100867
9.81779e-05
9.57211e-05
9.34699e-05
9.14016e-05
8.94965e-05
8.77379e-05
8.61109e-05
8.46028e-05
8.32022e-05
8.18992e-05
8.06849e-05
7.95517e-05
7.84924e-05
7.7501e-05
7.65718e-05
7.56998e-05
7.48807e-05
7.41102e-05
7.33847e-05
7.27009e-05
7.20558e-05
7.14466e-05
7.08707e-05
7.03259e-05
6.981e-05
6.93211e-05
6.88575e-05
6.84174e-05
6.79994e-05
6.76021e-05
6.72241e-05
6.68643e-05
6.65216e-05
6.61949e-05
6.58833e-05
6.55859e-05
6.53018e-05
6.50304e-05
6.47708e-05
6.45224e-05
6.42845e-05
6.40567e-05
6.38382e-05
6.36288e-05
6.34277e-05
0.000201954
0.000185938
0.000172577
0.000161287
0.000151636
0.000143307
0.000136056
0.000129698
0.000124086
0.000119102
0.000114654
0.000110664
0.00010707
0.000103818
0.000100866
9.81778e-05
9.57211e-05
9.34699e-05
9.14016e-05
8.94966e-05
8.7738e-05
8.6111e-05
8.46029e-05
8.32023e-05
8.18993e-05
8.0685e-05
7.95518e-05
7.84925e-05
7.7501e-05
7.65718e-05
7.56999e-05
7.48807e-05
7.41102e-05
7.33847e-05
7.27009e-05
7.20558e-05
7.14465e-05
7.08707e-05
7.03258e-05
6.98099e-05
6.93211e-05
6.88574e-05
6.84173e-05
6.79993e-05
6.76019e-05
6.7224e-05
6.68642e-05
6.65214e-05
6.61948e-05
6.58831e-05
6.55857e-05
6.53017e-05
6.50302e-05
6.47706e-05
6.45222e-05
6.42844e-05
6.40565e-05
6.38381e-05
6.36287e-05
6.34276e-05
0.00011703
0.000100512
8.78386e-05
7.787e-05
6.98587e-05
6.32959e-05
5.78321e-05
5.32204e-05
4.92811e-05
4.5881e-05
4.29191e-05
4.0318e-05
3.80172e-05
3.59687e-05
3.41342e-05
3.24827e-05
3.09888e-05
2.96316e-05
2.83937e-05
2.72603e-05
2.62193e-05
2.52601e-05
2.43738e-05
2.35527e-05
2.27902e-05
2.20806e-05
2.14187e-05
2.08002e-05
2.02212e-05
1.96782e-05
1.91683e-05
1.86887e-05
1.82369e-05
1.78108e-05
1.74085e-05
1.70282e-05
1.66683e-05
1.63273e-05
1.6004e-05
1.56971e-05
1.54055e-05
1.51282e-05
1.48643e-05
1.46131e-05
1.43737e-05
1.41454e-05
1.39276e-05
1.37196e-05
1.35209e-05
1.33311e-05
1.31495e-05
1.29758e-05
1.28095e-05
1.26503e-05
1.24977e-05
1.23515e-05
1.22112e-05
1.20761e-05
1.19448e-05
1.18042e-05
0.000117003
0.00010034
8.75446e-05
7.74576e-05
6.93324e-05
6.26666e-05
5.71113e-05
5.24181e-05
4.84061e-05
4.49408e-05
4.19202e-05
3.92659e-05
3.69165e-05
3.48233e-05
3.29476e-05
3.12577e-05
2.97279e-05
2.83368e-05
2.70668e-05
2.59028e-05
2.48325e-05
2.38451e-05
2.29315e-05
2.20839e-05
2.12954e-05
2.05601e-05
1.9873e-05
1.92295e-05
1.86256e-05
1.80579e-05
1.75232e-05
1.70187e-05
1.65421e-05
1.60911e-05
1.56636e-05
1.5258e-05
1.48726e-05
1.4506e-05
1.41568e-05
1.38239e-05
1.35062e-05
1.32027e-05
1.29125e-05
1.26347e-05
1.23686e-05
1.21134e-05
1.18686e-05
1.16334e-05
1.14074e-05
1.11901e-05
1.09809e-05
1.07795e-05
1.05853e-05
1.03981e-05
1.02175e-05
1.00431e-05
9.87463e-06
9.71178e-06
9.55418e-06
9.4012e-06
0.000117003
0.000100379
8.76088e-05
7.75386e-05
6.94222e-05
6.27593e-05
5.7203e-05
5.25064e-05
4.84898e-05
4.50193e-05
4.19932e-05
3.93335e-05
3.69788e-05
3.48807e-05
3.30004e-05
3.13062e-05
2.97723e-05
2.83776e-05
2.71041e-05
2.59371e-05
2.48639e-05
2.38738e-05
2.29577e-05
2.21078e-05
2.13172e-05
2.058e-05
1.98911e-05
1.92459e-05
1.86404e-05
1.80712e-05
1.75351e-05
1.70294e-05
1.65515e-05
1.60994e-05
1.56708e-05
1.52642e-05
1.48778e-05
1.45103e-05
1.41602e-05
1.38264e-05
1.35078e-05
1.32033e-05
1.29121e-05
1.26334e-05
1.23663e-05
1.21101e-05
1.18643e-05
1.16281e-05
1.14011e-05
1.11827e-05
1.09724e-05
1.07698e-05
1.05746e-05
1.03862e-05
1.02044e-05
1.00288e-05
9.85907e-06
9.69499e-06
9.53626e-06
9.38261e-06
0.000117003
0.000100379
8.76026e-05
7.75262e-05
6.94049e-05
6.27385e-05
5.71804e-05
5.24834e-05
4.84671e-05
4.49975e-05
4.19727e-05
3.93144e-05
3.69612e-05
3.48646e-05
3.29857e-05
3.12928e-05
2.97603e-05
2.83667e-05
2.70943e-05
2.59282e-05
2.48559e-05
2.38666e-05
2.29513e-05
2.2102e-05
2.1312e-05
2.05754e-05
1.98869e-05
1.92422e-05
1.86371e-05
1.80683e-05
1.75325e-05
1.70271e-05
1.65495e-05
1.60976e-05
1.56693e-05
1.52628e-05
1.48767e-05
1.45093e-05
1.41593e-05
1.38257e-05
1.35072e-05
1.32029e-05
1.29118e-05
1.26331e-05
1.23661e-05
1.21101e-05
1.18643e-05
1.16282e-05
1.14012e-05
1.11829e-05
1.09726e-05
1.07701e-05
1.05749e-05
1.03865e-05
1.02048e-05
1.00292e-05
9.85951e-06
9.69545e-06
9.53673e-06
9.3831e-06
0.000117003
0.000100379
8.76026e-05
7.75262e-05
6.94049e-05
6.27386e-05
5.71805e-05
5.24834e-05
4.84672e-05
4.49975e-05
4.19727e-05
3.93144e-05
3.69613e-05
3.48647e-05
3.29857e-05
3.12929e-05
2.97603e-05
2.83667e-05
2.70943e-05
2.59282e-05
2.48559e-05
2.38666e-05
2.29513e-05
2.2102e-05
2.1312e-05
2.05754e-05
1.98869e-05
1.92422e-05
1.86371e-05
1.80683e-05
1.75325e-05
1.70271e-05
1.65495e-05
1.60976e-05
1.56693e-05
1.52628e-05
1.48766e-05
1.45093e-05
1.41593e-05
1.38257e-05
1.35072e-05
1.32029e-05
1.29118e-05
1.26331e-05
1.23661e-05
1.211e-05
1.18643e-05
1.16282e-05
1.14012e-05
1.11828e-05
1.09726e-05
1.07701e-05
1.05749e-05
1.03865e-05
1.02047e-05
1.00292e-05
9.85949e-06
9.69543e-06
9.53672e-06
9.38309e-06
0.000117003
0.000100379
8.76088e-05
7.75386e-05
6.94222e-05
6.27593e-05
5.72029e-05
5.25064e-05
4.84898e-05
4.50192e-05
4.19932e-05
3.93334e-05
3.69788e-05
3.48807e-05
3.30004e-05
3.13062e-05
2.97723e-05
2.83776e-05
2.71041e-05
2.59371e-05
2.48639e-05
2.38738e-05
2.29577e-05
2.21078e-05
2.13172e-05
2.058e-05
1.98911e-05
1.92459e-05
1.86404e-05
1.80712e-05
1.75351e-05
1.70294e-05
1.65515e-05
1.60993e-05
1.56708e-05
1.52642e-05
1.48778e-05
1.45102e-05
1.41602e-05
1.38264e-05
1.35077e-05
1.32033e-05
1.29121e-05
1.26334e-05
1.23663e-05
1.21101e-05
1.18642e-05
1.16281e-05
1.1401e-05
1.11826e-05
1.09724e-05
1.07698e-05
1.05745e-05
1.03861e-05
1.02043e-05
1.00287e-05
9.85901e-06
9.69493e-06
9.53619e-06
9.38254e-06
0.000117003
0.00010034
8.75447e-05
7.74577e-05
6.93325e-05
6.26667e-05
5.71114e-05
5.24182e-05
4.84062e-05
4.49409e-05
4.19203e-05
3.9266e-05
3.69165e-05
3.48234e-05
3.29477e-05
3.12578e-05
2.9728e-05
2.83369e-05
2.70668e-05
2.59029e-05
2.48326e-05
2.38452e-05
2.29316e-05
2.20839e-05
2.12954e-05
2.05602e-05
1.9873e-05
1.92295e-05
1.86256e-05
1.80579e-05
1.75232e-05
1.70188e-05
1.65421e-05
1.60911e-05
1.56636e-05
1.5258e-05
1.48726e-05
1.4506e-05
1.41568e-05
1.38238e-05
1.3506e-05
1.32024e-05
1.29119e-05
1.26339e-05
1.23675e-05
1.2112e-05
1.18669e-05
1.16315e-05
1.14052e-05
1.11875e-05
1.0978e-05
1.07763e-05
1.05818e-05
1.03942e-05
1.02133e-05
1.00385e-05
9.86969e-06
9.70646e-06
9.54848e-06
9.39524e-06
0.00011703
0.000100512
8.7839e-05
7.78706e-05
6.98596e-05
6.32972e-05
5.7834e-05
5.32228e-05
4.92841e-05
4.58844e-05
4.2923e-05
4.03222e-05
3.80215e-05
3.59732e-05
3.41388e-05
3.24873e-05
3.09934e-05
2.96361e-05
2.8398e-05
2.72645e-05
2.62234e-05
2.5264e-05
2.43775e-05
2.35563e-05
2.27936e-05
2.20837e-05
2.14215e-05
2.08027e-05
2.02234e-05
1.96802e-05
1.917e-05
1.86901e-05
1.82381e-05
1.78119e-05
1.74094e-05
1.7029e-05
1.66689e-05
1.63278e-05
1.60044e-05
1.56974e-05
1.54058e-05
1.51285e-05
1.48647e-05
1.46136e-05
1.43742e-05
1.4146e-05
1.39283e-05
1.37204e-05
1.35218e-05
1.3332e-05
1.31505e-05
1.29768e-05
1.28106e-05
1.26514e-05
1.2499e-05
1.23528e-05
1.22125e-05
1.20775e-05
1.19462e-05
1.18054e-05
0.000201955
0.000185938
0.000172577
0.000161287
0.000151636
0.000143307
0.000136056
0.000129698
0.000124085
0.000119102
0.000114654
0.000110664
0.000107069
0.000103818
0.000100866
9.81776e-05
9.57209e-05
9.34697e-05
9.14013e-05
8.94963e-05
8.77377e-05
8.61108e-05
8.46026e-05
8.3202e-05
8.1899e-05
8.06848e-05
7.95515e-05
7.84922e-05
7.75008e-05
7.65715e-05
7.56996e-05
7.48804e-05
7.41099e-05
7.33844e-05
7.27006e-05
7.20555e-05
7.14462e-05
7.08703e-05
7.03255e-05
6.98096e-05
6.93207e-05
6.8857e-05
6.84169e-05
6.79989e-05
6.76016e-05
6.72236e-05
6.68638e-05
6.6521e-05
6.61943e-05
6.58827e-05
6.55853e-05
6.53012e-05
6.50297e-05
6.47701e-05
6.45217e-05
6.42838e-05
6.4056e-05
6.38375e-05
6.36281e-05
6.3427e-05
)
;

boundaryField
{
    wall
    {
        type            nutkWallFunction;
        Cmu             0.09;
        kappa           0.41;
        E               9.8;
        value           nonuniform List<scalar> 
1200
(
1.45301e-05
1.35454e-05
1.35424e-05
1.35424e-05
1.35424e-05
1.35424e-05
1.35424e-05
1.35424e-05
1.35454e-05
1.453e-05
1.34572e-05
1.17545e-05
1.17357e-05
1.174e-05
1.174e-05
1.174e-05
1.174e-05
1.17357e-05
1.17545e-05
1.34572e-05
1.25548e-05
1.03592e-05
1.03265e-05
1.03337e-05
1.0333e-05
1.0333e-05
1.03337e-05
1.03265e-05
1.03592e-05
1.25548e-05
1.17865e-05
9.24632e-06
9.19991e-06
9.20905e-06
9.20764e-06
9.20764e-06
9.20904e-06
9.19992e-06
9.24636e-06
1.17865e-05
1.11252e-05
8.34059e-06
8.28069e-06
8.29093e-06
8.28894e-06
8.28894e-06
8.29093e-06
8.2807e-06
8.34065e-06
1.11252e-05
1.05507e-05
7.59002e-06
7.51762e-06
7.5283e-06
7.5259e-06
7.5259e-06
7.52829e-06
7.51763e-06
7.59011e-06
1.05507e-05
1.00477e-05
6.9585e-06
6.87469e-06
6.88536e-06
6.88273e-06
6.88274e-06
6.88536e-06
6.8747e-06
6.95862e-06
1.00477e-05
9.60422e-06
6.42021e-06
6.326e-06
6.33638e-06
6.33367e-06
6.33367e-06
6.33638e-06
6.32601e-06
6.42037e-06
9.60419e-06
9.21078e-06
5.95619e-06
5.85248e-06
5.86241e-06
5.85972e-06
5.85972e-06
5.86241e-06
5.85249e-06
5.95641e-06
9.21074e-06
8.85979e-06
5.55224e-06
5.43983e-06
5.44921e-06
5.44661e-06
5.44661e-06
5.44921e-06
5.43984e-06
5.55251e-06
8.85975e-06
8.5451e-06
5.19751e-06
5.07711e-06
5.08591e-06
5.08343e-06
5.08344e-06
5.0859e-06
5.07712e-06
5.19784e-06
8.54507e-06
8.26169e-06
4.88362e-06
4.75583e-06
4.76404e-06
4.76172e-06
4.76172e-06
4.76403e-06
4.75584e-06
4.884e-06
8.26166e-06
8.00539e-06
4.60394e-06
4.46932e-06
4.47694e-06
4.47478e-06
4.47479e-06
4.47693e-06
4.46932e-06
4.60438e-06
8.00535e-06
7.77274e-06
4.35324e-06
4.21222e-06
4.21929e-06
4.2173e-06
4.21731e-06
4.21928e-06
4.21223e-06
4.35373e-06
7.7727e-06
7.56081e-06
4.12726e-06
3.98026e-06
3.98679e-06
3.98497e-06
3.98498e-06
3.98679e-06
3.98026e-06
4.12779e-06
7.56078e-06
7.36717e-06
3.92256e-06
3.76991e-06
3.77595e-06
3.77428e-06
3.77429e-06
3.77594e-06
3.76991e-06
3.92313e-06
7.36713e-06
7.18971e-06
3.7363e-06
3.57829e-06
3.58386e-06
3.58235e-06
3.58235e-06
3.58386e-06
3.5783e-06
3.7369e-06
7.18967e-06
7.02664e-06
3.56613e-06
3.40301e-06
3.40815e-06
3.40677e-06
3.40677e-06
3.40814e-06
3.40301e-06
3.56675e-06
7.02661e-06
6.87642e-06
3.41008e-06
3.24205e-06
3.24679e-06
3.24554e-06
3.24554e-06
3.24678e-06
3.24205e-06
3.41071e-06
6.87639e-06
6.73773e-06
3.2665e-06
3.09373e-06
3.09809e-06
3.09696e-06
3.09696e-06
3.09809e-06
3.09373e-06
3.26714e-06
6.7377e-06
6.60939e-06
3.13396e-06
2.95661e-06
2.96062e-06
2.95959e-06
2.95959e-06
2.96061e-06
2.95661e-06
3.13461e-06
6.60936e-06
6.49041e-06
3.01127e-06
2.82945e-06
2.83314e-06
2.83222e-06
2.83222e-06
2.83314e-06
2.82945e-06
3.01193e-06
6.49038e-06
6.37988e-06
2.8974e-06
2.71121e-06
2.7146e-06
2.71377e-06
2.71377e-06
2.7146e-06
2.71121e-06
2.89806e-06
6.37985e-06
6.27703e-06
2.79146e-06
2.60098e-06
2.60409e-06
2.60334e-06
2.60334e-06
2.60408e-06
2.60098e-06
2.79211e-06
6.27701e-06
6.18117e-06
2.69267e-06
2.49796e-06
2.50081e-06
2.50013e-06
2.50013e-06
2.5008e-06
2.49796e-06
2.69332e-06
6.18114e-06
6.09168e-06
2.60035e-06
2.40146e-06
2.40407e-06
2.40346e-06
2.40346e-06
2.40406e-06
2.40146e-06
2.601e-06
6.09166e-06
6.00802e-06
2.51391e-06
2.31089e-06
2.31326e-06
2.31271e-06
2.31271e-06
2.31326e-06
2.31088e-06
2.51455e-06
6.008e-06
5.9297e-06
2.43283e-06
2.22569e-06
2.22785e-06
2.22737e-06
2.22736e-06
2.22785e-06
2.22569e-06
2.43347e-06
5.92968e-06
5.85628e-06
2.35665e-06
2.14542e-06
2.14738e-06
2.14694e-06
2.14694e-06
2.14737e-06
2.14541e-06
2.35728e-06
5.85626e-06
5.78738e-06
2.28495e-06
2.06964e-06
2.07141e-06
2.07102e-06
2.07102e-06
2.07141e-06
2.06964e-06
2.28558e-06
5.78736e-06
5.72263e-06
2.21738e-06
1.99799e-06
1.99958e-06
1.99923e-06
1.99923e-06
1.99958e-06
1.99798e-06
2.218e-06
5.72261e-06
5.66172e-06
2.15361e-06
1.93013e-06
1.93156e-06
1.93125e-06
1.93125e-06
1.93155e-06
1.93013e-06
2.15422e-06
5.6617e-06
5.60436e-06
2.09335e-06
1.86578e-06
1.86704e-06
1.86677e-06
1.86677e-06
1.86704e-06
1.86577e-06
2.09395e-06
5.60434e-06
5.55029e-06
2.03634e-06
1.80466e-06
1.80577e-06
1.80553e-06
1.80553e-06
1.80576e-06
1.80465e-06
2.03692e-06
5.55027e-06
5.49927e-06
1.98234e-06
1.74653e-06
1.74749e-06
1.74729e-06
1.74728e-06
1.74749e-06
1.74652e-06
1.9829e-06
5.49925e-06
5.45109e-06
1.93115e-06
1.69117e-06
1.692e-06
1.69182e-06
1.69182e-06
1.692e-06
1.69117e-06
1.93168e-06
5.45107e-06
5.40553e-06
1.88256e-06
1.6384e-06
1.6391e-06
1.63894e-06
1.63894e-06
1.63909e-06
1.63839e-06
1.88306e-06
5.40551e-06
5.36243e-06
1.8364e-06
1.58802e-06
1.5886e-06
1.58846e-06
1.58846e-06
1.58859e-06
1.58802e-06
1.83688e-06
5.36241e-06
5.32162e-06
1.79251e-06
1.53989e-06
1.54034e-06
1.54023e-06
1.54023e-06
1.54034e-06
1.53988e-06
1.79297e-06
5.3216e-06
5.28294e-06
1.75075e-06
1.49386e-06
1.49418e-06
1.49409e-06
1.49409e-06
1.49418e-06
1.49384e-06
1.75118e-06
5.28292e-06
5.24626e-06
1.71097e-06
1.44979e-06
1.44999e-06
1.44991e-06
1.44991e-06
1.44998e-06
1.44975e-06
1.71139e-06
5.24624e-06
5.21143e-06
1.67306e-06
1.40756e-06
1.40763e-06
1.40757e-06
1.40756e-06
1.40762e-06
1.4075e-06
1.67347e-06
5.21141e-06
5.17836e-06
1.63691e-06
1.36706e-06
1.36699e-06
1.36695e-06
1.36694e-06
1.36698e-06
1.36697e-06
1.6373e-06
5.17834e-06
5.14692e-06
1.60239e-06
1.32817e-06
1.32797e-06
1.32794e-06
1.32794e-06
1.32796e-06
1.32805e-06
1.60279e-06
5.1469e-06
5.11701e-06
1.56944e-06
1.29082e-06
1.29047e-06
1.29046e-06
1.29045e-06
1.29047e-06
1.29065e-06
1.56983e-06
5.11699e-06
5.08855e-06
1.53794e-06
1.2549e-06
1.25441e-06
1.25441e-06
1.2544e-06
1.25441e-06
1.25469e-06
1.53835e-06
5.08853e-06
5.06143e-06
1.50783e-06
1.22033e-06
1.2197e-06
1.21971e-06
1.2197e-06
1.2197e-06
1.22008e-06
1.50824e-06
5.06141e-06
5.03559e-06
1.47903e-06
1.18705e-06
1.18627e-06
1.18628e-06
1.18628e-06
1.18626e-06
1.18675e-06
1.47945e-06
5.03557e-06
5.01094e-06
1.45146e-06
1.15497e-06
1.15404e-06
1.15407e-06
1.15406e-06
1.15404e-06
1.15462e-06
1.45189e-06
5.01092e-06
4.98741e-06
1.42507e-06
1.12404e-06
1.12296e-06
1.12299e-06
1.12299e-06
1.12295e-06
1.12365e-06
1.4255e-06
4.98739e-06
4.96495e-06
1.39978e-06
1.0942e-06
1.09295e-06
1.09299e-06
1.09299e-06
1.09294e-06
1.09375e-06
1.40021e-06
4.96492e-06
4.94348e-06
1.37554e-06
1.06538e-06
1.06397e-06
1.06402e-06
1.06401e-06
1.06396e-06
1.06489e-06
1.37598e-06
4.94345e-06
4.92295e-06
1.3523e-06
1.03755e-06
1.03597e-06
1.03602e-06
1.03601e-06
1.03595e-06
1.037e-06
1.35275e-06
4.92293e-06
4.90331e-06
1.33e-06
1.01063e-06
1.00888e-06
1.00894e-06
1.00893e-06
1.00887e-06
1.01003e-06
1.33046e-06
4.90329e-06
4.88451e-06
1.3086e-06
9.84606e-07
9.82675e-07
9.82733e-07
9.82729e-07
9.8266e-07
9.8395e-07
1.30907e-06
4.88448e-06
4.8665e-06
1.28805e-06
9.59416e-07
9.57303e-07
9.57365e-07
9.57361e-07
9.57288e-07
9.58704e-07
1.28853e-06
4.86647e-06
4.84924e-06
1.26831e-06
9.35025e-07
9.32726e-07
9.32792e-07
9.32788e-07
9.3271e-07
9.34256e-07
1.26879e-06
4.84921e-06
4.83269e-06
1.24927e-06
9.11391e-07
9.08907e-07
9.08976e-07
9.08972e-07
9.0889e-07
9.10565e-07
1.24976e-06
4.83266e-06
4.81681e-06
1.23074e-06
8.8847e-07
8.85811e-07
8.85882e-07
8.85878e-07
8.85792e-07
8.87582e-07
1.23123e-06
4.81678e-06
4.80156e-06
1.21089e-06
8.66168e-07
8.63405e-07
8.63478e-07
8.63473e-07
8.63384e-07
8.6524e-07
1.21133e-06
4.80153e-06
1.45301e-05
1.35454e-05
1.35424e-05
1.35424e-05
1.35424e-05
1.35424e-05
1.35424e-05
1.35424e-05
1.35454e-05
1.45301e-05
1.34572e-05
1.17545e-05
1.17357e-05
1.174e-05
1.174e-05
1.174e-05
1.174e-05
1.17357e-05
1.17545e-05
1.34572e-05
1.25548e-05
1.03592e-05
1.03266e-05
1.03337e-05
1.0333e-05
1.0333e-05
1.03337e-05
1.03266e-05
1.03592e-05
1.25548e-05
1.17864e-05
9.2463e-06
9.19993e-06
9.20905e-06
9.20765e-06
9.20765e-06
9.20905e-06
9.19994e-06
9.24637e-06
1.17864e-05
1.11251e-05
8.34058e-06
8.2807e-06
8.29093e-06
8.28895e-06
8.28895e-06
8.29093e-06
8.28071e-06
8.34069e-06
1.11251e-05
1.05506e-05
7.59003e-06
7.51762e-06
7.52829e-06
7.5259e-06
7.5259e-06
7.52829e-06
7.51763e-06
7.59019e-06
1.05506e-05
1.00476e-05
6.9585e-06
6.87469e-06
6.88535e-06
6.88273e-06
6.88274e-06
6.88535e-06
6.8747e-06
6.95872e-06
1.00476e-05
9.60416e-06
6.42018e-06
6.326e-06
6.33637e-06
6.33366e-06
6.33367e-06
6.33637e-06
6.32601e-06
6.42046e-06
9.60415e-06
9.21071e-06
5.95612e-06
5.85247e-06
5.8624e-06
5.85971e-06
5.85971e-06
5.86239e-06
5.85248e-06
5.95647e-06
9.2107e-06
8.85973e-06
5.55213e-06
5.43982e-06
5.4492e-06
5.4466e-06
5.4466e-06
5.4492e-06
5.43983e-06
5.55254e-06
8.85972e-06
8.54505e-06
5.19737e-06
5.07709e-06
5.08589e-06
5.08342e-06
5.08343e-06
5.08589e-06
5.0771e-06
5.19784e-06
8.54504e-06
8.26164e-06
4.88346e-06
4.75581e-06
4.76402e-06
4.76171e-06
4.76171e-06
4.76402e-06
4.75582e-06
4.88396e-06
8.26163e-06
8.00534e-06
4.60379e-06
4.46929e-06
4.47692e-06
4.47477e-06
4.47478e-06
4.47692e-06
4.4693e-06
4.60432e-06
8.00533e-06
7.77269e-06
4.3531e-06
4.2122e-06
4.21927e-06
4.21729e-06
4.21729e-06
4.21927e-06
4.21221e-06
4.35366e-06
7.77268e-06
7.56077e-06
4.12715e-06
3.98023e-06
3.98678e-06
3.98496e-06
3.98496e-06
3.98678e-06
3.98024e-06
4.12772e-06
7.56076e-06
7.36713e-06
3.9225e-06
3.76989e-06
3.77593e-06
3.77427e-06
3.77428e-06
3.77593e-06
3.7699e-06
3.92307e-06
7.36711e-06
7.18967e-06
3.73629e-06
3.57827e-06
3.58385e-06
3.58234e-06
3.58234e-06
3.58385e-06
3.57828e-06
3.73686e-06
7.18965e-06
7.02661e-06
3.56617e-06
3.40299e-06
3.40814e-06
3.40676e-06
3.40676e-06
3.40814e-06
3.403e-06
3.56673e-06
7.02659e-06
6.87639e-06
3.41017e-06
3.24203e-06
3.24678e-06
3.24553e-06
3.24553e-06
3.24678e-06
3.24204e-06
3.41072e-06
6.87638e-06
6.7377e-06
3.26662e-06
3.09371e-06
3.09808e-06
3.09695e-06
3.09695e-06
3.09808e-06
3.09372e-06
3.26715e-06
6.73768e-06
6.60937e-06
3.13411e-06
2.95658e-06
2.96061e-06
2.95958e-06
2.95958e-06
2.96061e-06
2.95659e-06
3.13463e-06
6.60935e-06
6.49039e-06
3.01145e-06
2.82943e-06
2.83313e-06
2.8322e-06
2.83221e-06
2.83313e-06
2.82944e-06
3.01195e-06
6.49037e-06
6.37986e-06
2.89759e-06
2.71119e-06
2.71459e-06
2.71375e-06
2.71376e-06
2.71459e-06
2.7112e-06
2.89807e-06
6.37984e-06
6.27701e-06
2.79165e-06
2.60096e-06
2.60408e-06
2.60332e-06
2.60333e-06
2.60408e-06
2.60096e-06
2.79211e-06
6.27699e-06
6.18115e-06
2.69285e-06
2.49794e-06
2.5008e-06
2.50012e-06
2.50012e-06
2.5008e-06
2.49794e-06
2.69329e-06
6.18113e-06
6.09167e-06
2.60053e-06
2.40144e-06
2.40406e-06
2.40345e-06
2.40345e-06
2.40406e-06
2.40145e-06
2.60093e-06
6.09164e-06
6.00801e-06
2.51408e-06
2.31086e-06
2.31325e-06
2.3127e-06
2.3127e-06
2.31325e-06
2.31087e-06
2.51445e-06
6.00798e-06
5.92969e-06
2.43299e-06
2.22567e-06
2.22785e-06
2.22735e-06
2.22735e-06
2.22784e-06
2.22568e-06
2.43333e-06
5.92966e-06
5.85627e-06
2.35681e-06
2.1454e-06
2.14737e-06
2.14693e-06
2.14693e-06
2.14737e-06
2.1454e-06
2.35711e-06
5.85625e-06
5.78736e-06
2.28512e-06
2.06962e-06
2.0714e-06
2.07101e-06
2.07101e-06
2.0714e-06
2.06962e-06
2.28538e-06
5.78734e-06
5.72261e-06
2.21755e-06
1.99797e-06
1.99957e-06
1.99922e-06
1.99922e-06
1.99957e-06
1.99797e-06
2.21778e-06
5.72259e-06
5.66171e-06
2.15379e-06
1.93011e-06
1.93155e-06
1.93124e-06
1.93124e-06
1.93155e-06
1.93011e-06
2.15399e-06
5.66168e-06
5.60435e-06
2.09355e-06
1.86576e-06
1.86703e-06
1.86676e-06
1.86676e-06
1.86703e-06
1.86576e-06
2.09371e-06
5.60432e-06
5.55028e-06
2.03655e-06
1.80463e-06
1.80576e-06
1.80552e-06
1.80552e-06
1.80576e-06
1.80463e-06
2.03669e-06
5.55025e-06
5.49925e-06
1.98257e-06
1.7465e-06
1.74749e-06
1.74727e-06
1.74727e-06
1.74748e-06
1.7465e-06
1.98269e-06
5.49923e-06
5.45107e-06
1.93139e-06
1.69115e-06
1.69199e-06
1.69181e-06
1.69181e-06
1.69199e-06
1.69115e-06
1.93149e-06
5.45104e-06
5.40551e-06
1.88282e-06
1.63837e-06
1.63909e-06
1.63893e-06
1.63893e-06
1.63908e-06
1.63837e-06
1.8829e-06
5.40549e-06
5.36241e-06
1.83668e-06
1.588e-06
1.58859e-06
1.58845e-06
1.58845e-06
1.58858e-06
1.588e-06
1.83675e-06
5.36238e-06
5.3216e-06
1.79281e-06
1.53987e-06
1.54033e-06
1.54022e-06
1.54022e-06
1.54033e-06
1.53986e-06
1.79286e-06
5.32157e-06
5.28292e-06
1.75106e-06
1.49384e-06
1.49417e-06
1.49408e-06
1.49408e-06
1.49417e-06
1.49382e-06
1.7511e-06
5.28289e-06
5.24623e-06
1.71129e-06
1.44976e-06
1.44998e-06
1.4499e-06
1.4499e-06
1.44997e-06
1.44973e-06
1.71134e-06
5.2462e-06
5.21141e-06
1.67339e-06
1.40753e-06
1.40761e-06
1.40755e-06
1.40755e-06
1.40761e-06
1.40748e-06
1.67344e-06
5.21138e-06
5.17833e-06
1.63724e-06
1.36703e-06
1.36698e-06
1.36693e-06
1.36693e-06
1.36697e-06
1.36695e-06
1.63729e-06
5.1783e-06
5.14689e-06
1.60274e-06
1.32814e-06
1.32796e-06
1.32792e-06
1.32792e-06
1.32795e-06
1.32803e-06
1.6028e-06
5.14686e-06
5.11698e-06
1.56978e-06
1.29078e-06
1.29046e-06
1.29044e-06
1.29044e-06
1.29046e-06
1.29063e-06
1.56986e-06
5.11696e-06
5.08852e-06
1.5383e-06
1.25486e-06
1.2544e-06
1.25439e-06
1.25439e-06
1.2544e-06
1.25467e-06
1.53838e-06
5.08849e-06
5.0614e-06
1.50819e-06
1.2203e-06
1.21969e-06
1.21969e-06
1.21969e-06
1.21969e-06
1.22006e-06
1.50828e-06
5.06137e-06
5.03555e-06
1.47938e-06
1.18701e-06
1.18626e-06
1.18627e-06
1.18626e-06
1.18625e-06
1.18673e-06
1.47949e-06
5.03552e-06
5.0109e-06
1.45181e-06
1.15493e-06
1.15403e-06
1.15405e-06
1.15405e-06
1.15402e-06
1.15461e-06
1.45193e-06
5.01087e-06
4.98738e-06
1.42541e-06
1.124e-06
1.12294e-06
1.12297e-06
1.12297e-06
1.12294e-06
1.12363e-06
1.42553e-06
4.98735e-06
4.96491e-06
1.40011e-06
1.09415e-06
1.09294e-06
1.09297e-06
1.09297e-06
1.09293e-06
1.09374e-06
1.40025e-06
4.96488e-06
4.94344e-06
1.37587e-06
1.06534e-06
1.06396e-06
1.064e-06
1.06399e-06
1.06395e-06
1.06488e-06
1.37602e-06
4.94341e-06
4.92291e-06
1.35262e-06
1.03749e-06
1.03595e-06
1.03599e-06
1.03599e-06
1.03594e-06
1.03699e-06
1.35278e-06
4.92288e-06
4.90327e-06
1.33033e-06
1.01058e-06
1.00886e-06
1.00891e-06
1.00891e-06
1.00886e-06
1.01002e-06
1.33049e-06
4.90324e-06
4.88447e-06
1.30893e-06
9.84548e-07
9.82654e-07
9.8271e-07
9.82708e-07
9.82647e-07
9.83938e-07
1.3091e-06
4.88443e-06
4.86646e-06
1.28838e-06
9.59355e-07
9.57281e-07
9.57341e-07
9.57339e-07
9.57274e-07
9.58692e-07
1.28856e-06
4.86642e-06
4.8492e-06
1.26864e-06
9.3496e-07
9.32704e-07
9.32767e-07
9.32765e-07
9.32695e-07
9.34243e-07
1.26883e-06
4.84916e-06
4.83265e-06
1.2496e-06
9.11324e-07
9.08884e-07
9.08951e-07
9.08949e-07
9.08875e-07
9.10551e-07
1.24979e-06
4.83261e-06
4.81677e-06
1.23107e-06
8.88398e-07
8.85787e-07
8.85856e-07
8.85854e-07
8.85777e-07
8.87567e-07
1.23127e-06
4.81673e-06
4.80152e-06
1.2112e-06
8.66093e-07
8.6338e-07
8.63451e-07
8.63449e-07
8.63369e-07
8.65223e-07
1.21137e-06
4.80147e-06
)
;
    }
    inlet
    {
        type            calculated;
        value           uniform 0.00952565;
    }
    outlet
    {
        type            calculated;
        value           nonuniform List<scalar> 
20
(
6.34281e-05
1.18021e-05
9.40172e-06
9.38279e-06
9.38329e-06
9.38326e-06
9.38265e-06
9.39535e-06
1.18052e-05
6.34277e-05
6.34276e-05
1.18042e-05
9.4012e-06
9.38261e-06
9.3831e-06
9.38309e-06
9.38254e-06
9.39524e-06
1.18054e-05
6.3427e-05
)
;
    }
    heatWall
    {
        type            nutkWallFunction;