/*--------------------------------*- C++ -*----------------------------------*\
  =========                 |
  \\      /  F ield         | OpenFOAM: The Open Source CFD Toolbox
   \\    /   O peration     | Website:  https://openfoam.org
    \\  /    A nd           | Version:  8
     \\/     M anipulation  |
\*---------------------------------------------------------------------------*/
FoamFile
{
    version     2.0;
    format      ascii;
    class       volScalarField;
    location    "600";
    object      p_rgh;
}
// * * * * * * * * * * * * * * * * * * * * * * * * * * * * * * * * * * * * * //

dimensions      [1 -1 -2 0 0 0 0];

internalField   nonuniform List<scalar> 
1200
(
567.449
359.673
271.725
241.358
221.142
204.223
190.571
179.19
169.285
160.492
152.583
145.414
138.894
132.931
127.442
122.361
117.637
113.236
109.112
105.225
101.55
98.0687
94.7548
91.5782
88.5272
85.5926
82.7531
79.9941
77.3099
74.6891
72.1196
69.5949
67.1076
64.6495
62.2154
59.8019
57.4057
55.0216
52.6423
50.2667
47.8938
45.5187
43.1392
40.756
38.3681
35.9709
33.56
31.1357
28.7014
26.2561
23.7945
21.3186
18.8259
16.317
13.7957
11.258
8.69434
6.08056
3.37891
-0.0913936
125.219
150.689
157.047
162.932
163.884
161.04
156.777
152.003
147.032
142.071
137.218
132.538
128.07
123.817
119.766
115.901
112.211
108.688
105.314
102.069
98.9441
95.9321
93.0184
90.1849
87.4274
84.7421
82.1142
79.5354
77.0039
74.5118
72.0508
69.618
67.2081
64.8152
62.4359
60.0681
57.7099
55.3573
53.0037
50.6473
48.2889
45.9243
43.5523
41.1744
38.7895
36.3939
33.9834
31.5583
29.1223
26.6745
24.2101
21.7305
19.2338
16.7209
14.1948
11.6533
9.08937
6.48991
3.84139
1.03147
196.637
254.332
260.901
247.682
232.548
217.837
204.032
191.423
180.049
169.818
160.574
152.198
144.606
137.703
131.4
125.617
120.289
115.366
110.796
106.534
102.542
98.7894
95.2441
91.8754
88.6653
85.5954
82.6418
79.7894
77.0277
74.3413
71.7181
69.1505
66.6289
64.144
61.69
59.2615
56.8544
54.4629
52.0792
49.7008
47.3265
44.9507
42.5722
40.1914
37.806
35.4127
33.0066
30.5883
28.1609
25.7223
23.2688
20.7999
18.3147
15.8145
13.2999
10.7712
8.22568
5.66353
3.11246
0.730157
197.122
219.453
212.828
195.133
181.248
170.918
162.262
154.761
148.208
142.363
137.031
132.097
127.498
123.184
119.113
115.25
111.57
108.057
104.695
101.468
98.3631
95.3666
92.4659
89.6489
86.9099
84.2396
81.6252
79.0615
76.5433
74.061
71.6097
69.1864
66.7845
64.3991
62.0274
59.6663
57.3135
54.9655
52.6173
50.2699
47.9214
45.5663
43.2048
40.8369
38.4602
36.0726
33.6702
31.2543
28.8282
26.389
23.9346
21.4633
18.9758
16.4731
13.9542
11.422
8.87745
6.32942
3.81627
1.53836
200.719
220.127
223.658
214.229
204.107
194.689
185.126
175.746
166.945
158.806
151.288
144.351
137.956
132.056
126.602
121.542
116.83
112.429
108.307
104.433
100.776
97.3081
94.0059
90.8493
87.8227
84.9079
82.0873
79.3508
76.6865
74.0809
71.5271
69.0187
66.5456
64.1014
61.682
59.2821
56.8979
54.5244
52.1566
49.7947
47.4347
45.0707
42.7031
40.3311
37.9511
35.5614
33.1584
30.7439
28.3198
25.8826
23.4308
20.9623
18.4786
15.9801
13.4646
10.9364
8.39891
5.86694
3.39253
1.22628
200.715
220.117
223.643
214.204
204.075
194.651
185.085
175.715
166.922
158.784
151.272
144.346
137.957
132.06
126.609
121.552
116.841
112.441
108.319
104.446
100.788
97.3187
94.0153
90.8579
87.8301
84.9132
82.0916
79.3548
76.6891
74.0817
71.5268
69.0174
66.5428
64.0971
61.6765
59.2758
56.8905
54.5151
52.1463
49.7838
47.423
45.0588
42.6921
40.3215
37.9435
35.5559
33.1566
30.747
28.3276
25.894
23.4456
20.9804
18.5004
16.0053
13.4923
10.9661
8.43001
5.89902
3.42379
1.25253
197.112
219.444
212.836
195.145
181.258
170.921
162.259
154.757
148.198
142.338
137.003
132.075
127.475
123.153
119.078
115.211
111.53
108.016
104.654
101.429
98.3254
95.3287
92.4282
89.6138
86.8764
84.205
81.5919
79.0317
76.5139
74.0305
71.5799
69.1571
66.7544
64.3683
61.9965
59.6359
57.2828
54.9322
52.5832
50.236
47.8856
45.5291
43.1674
40.7991
38.4209
36.0303
33.6272
31.2138
28.7895
26.3499
23.8947
21.4233
18.937
16.4351
13.9154
11.3814
8.83422
6.28408
3.76884
1.49334
196.604
254.25
260.807
247.598
232.471
217.747
203.947
191.387
180.044
169.808
160.576
152.222
144.634
137.725
131.416
125.626
120.294
115.365
110.791
106.528
102.535
98.7793
95.231
91.8643
88.6555
85.582
82.6281
79.7791
77.0163
74.326
71.7013
69.1324
66.6082
64.1218
61.6672
59.2393
56.8315
54.4363
52.0524
49.6778
47.3057
44.9337
42.5612
40.1854
37.8031
35.4101
33.0061
30.593
28.1695
25.731
23.2772
20.8092
18.3267
15.8283
13.3131
10.7825
8.23391
5.67016
3.11768
0.734825
125.207
150.682
156.997
162.878
163.823
160.95
156.691
151.947
146.979
141.997
137.148
132.482
128.016
123.76
119.711
115.848
112.162
108.641
105.27
102.031
98.9118
95.9009
92.9863
90.158
87.4053
84.7172
82.0892
79.5153
76.9836
74.4871
72.0239
69.589
67.1766
64.7826
62.4034
60.0369
57.6785
55.322
52.9682
50.6162
48.2598
45.899
43.5331
41.1603
38.778
36.3818
33.9731
31.5538
29.1225
26.6751
24.2112
21.7335
19.2411
16.7319
14.2062
11.6638
9.09762
6.49713
3.84553
1.0313
567.29
359.717
271.708
241.34
221.135
204.186
190.542
179.212
169.324
160.517
152.618
145.468
138.948
132.978
127.484
122.399
117.676
113.273
109.149
105.267
101.597
98.1171
94.8017
91.6315
88.5872
85.6502
82.8106
80.0573
77.3736
74.7488
72.1775
69.652
67.1644
64.7081
62.2768
59.8674
57.4735
55.0874
52.7097
50.338
47.9654
45.5921
43.2161
40.8354
38.447
36.046
33.6362
31.2178
28.7885
26.3438
23.883
21.4095
18.9214
16.4164
13.8952
11.3565
8.79036
6.17529
3.4686
-0.00988864
566.777
359.528
271.614
241.349
221.202
204.219
190.532
179.202
169.343
160.555
152.673
145.544
139.03
133.046
127.53
122.429
117.69
113.262
109.114
105.22
101.546
98.0571
94.7341
91.5655
88.5262
85.5923
82.756
80.0059
77.3246
74.7024
72.1333
69.6077
67.1183
64.6607
62.2284
59.8152
57.4153
55.0261
52.6475
50.2756
47.9046
45.5335
43.1598
40.7788
38.388
35.9887
33.5826
31.167
28.7362
26.2897
23.8311
21.3574
18.8696
16.3661
13.8418
11.2972
8.73188
6.1284
3.43507
-0.0419389
125.094
150.554
156.815
162.803
163.861
161.01
156.738
151.999
147.053
142.079
137.238
132.586
128.123
123.855
119.783
115.905
112.206
108.666
105.275
102.026
98.9001
95.8799
92.9571
90.1282
87.377
84.6888
82.0618
79.4889
76.9578
74.4637
72.003
69.5685
67.1561
64.763
62.3846
60.0166
57.6544
55.2962
52.9426
50.5885
48.2303
45.8688
43.5019
41.1254
38.7375
36.3396
33.9336
31.517
29.0841
26.6352
24.1731
21.696
19.2044
16.6968
14.1693
11.6222
9.05686
6.46745
3.82913
1.0227
196.5
254
260.431
247.273
232.276
217.655
203.904
191.364
180.041
169.816
160.589
152.246
144.665
137.754
131.434
125.64
120.306
115.373
110.793
106.525
102.528
98.7668
95.2139
91.847
88.6373
85.5617
82.6076
79.7579
76.9943
74.3066
71.6843
69.1153
66.592
64.1078
61.6551
59.2274
56.8181
54.4233
52.0415
49.6658
47.2919
44.9203
42.5472
40.1681
37.7811
35.3861
32.9851
30.5747
28.1492
25.7088
23.2555
20.7884
18.307
15.8095
13.2942
10.7607
8.21291
5.65837
3.11676
0.737164
197.031
219.362
212.689
195.009
181.215
170.96
162.332
154.845
148.29
142.419
137.069
132.133
127.527
123.198
119.108
115.234
111.553
108.042
104.681
101.453
98.3459
95.3459
92.4432
89.6283
86.8868
84.2101
81.5943
79.0296
76.5072
74.024
71.5732
69.1476
66.7445
64.3604
61.9902
59.6304
57.2771
54.928
52.5832
50.238
47.8893
45.5384
43.1812
40.8143
38.437
36.0488
33.652
31.2431
28.8171
26.3756
23.9193
21.4492
18.9635
16.4607
13.9418
11.4059
8.85873
6.31617
3.81245
1.53655
200.638
220.042
223.456
213.967
203.921
194.623
185.137
175.792
167
158.843
151.307
144.361
137.961
132.056
126.592
121.529
116.823
112.432
108.317
104.443
100.783
97.3132
94.0102
90.8533
87.8209
84.8982
82.0738
79.3319
76.6612
74.0541
71.4994
68.9871
66.5129
64.0706
61.6526
59.2544
56.871
54.499
52.1361
49.7761
47.4161
45.0567
42.6927
40.3208
37.9408
35.5515
33.1541
30.7445
28.3187
25.8788
23.4246
20.9573
18.4742
15.9743
13.4602
10.9302
8.39118
5.86405
3.39892
1.23277
200.643
220.046
223.453
213.957
203.904
194.605
185.117
175.767
166.974
158.824
151.29
144.344
137.947
132.047
126.587
121.527
116.824
112.435
108.321
104.447
100.788
97.3182
94.015
90.8571
87.8241
84.9017
82.0764
79.3329
76.6615
74.0543
71.4985
68.9853
66.5106
64.0677
61.649
59.2498
56.8658
54.494
52.1307
49.7696
47.4093
45.0497
42.6852
40.3135
37.9345
35.5473
33.1519
30.7435
28.3192
25.8818
23.4301
20.9653
18.4841
15.9862
13.4746
10.9471
8.41046
5.88435
3.41819
1.24733
197.048
219.386
212.715
195.035
181.238
170.987
162.356
154.843
148.271
142.403
137.043
132.088
127.475
123.146
119.057
115.186
111.508
108.001
104.643
101.417
98.3121
95.3162
92.4167
89.6023
86.8622
84.1891
81.5742
79.0081
76.4871
74.0064
71.5562
69.1311
66.7295
64.3465
61.9766
59.6166
57.2639
54.9177
52.5735
50.2265
47.8772
45.5245
43.1636
40.7934
38.4141
36.0256
33.627
31.2136
28.7842
26.3421
23.8856
21.4149
18.9274
16.4234
13.9049
11.3699
8.82369
6.27981
3.77323
1.49741
196.522
253.987
260.405
247.242
232.251
217.648
203.9
191.34
180.011
169.803
160.575
152.218
144.636
137.729
131.413
125.622
120.292
115.362
110.785
106.517
102.521
98.7633
95.2137
91.8452
88.6346
85.5626
82.6088
79.7553
76.9921
74.3071
71.685
69.116
66.5935
64.1092
61.6555
59.2257
56.8158
54.4235
52.0417
49.6648
47.293
44.9224
42.5484
40.1691
37.784
35.3929
32.992
30.5771
28.148
25.7077
23.2545
20.7866
18.3026
15.8028
13.2877
10.7551
8.20855
5.6524
3.10758
0.724927
125.204
150.619
156.881
162.832
163.872
161.039
156.751
151.954
146.977
142.011
137.159
132.489
128.027
123.77
119.709
115.843
112.153
108.624
105.242
101.996
98.8741
95.8608
92.9455
90.1169
87.3655
84.684
82.0603
79.4852
76.9564
74.4681
72.0103
69.5779
67.1674
64.7744
62.3951
60.025
57.6625
55.3078
52.9547
50.5996
48.244
45.8838
43.5163
41.1402
38.7553
36.3627
33.9575
31.5369
29.1013
26.6537
24.193
21.7157
19.2218
16.7123
14.186
11.6406
9.07709
6.48565
3.84108
1.02538
566.793
359.54
271.642
241.353
221.202
204.25
190.553
179.178
169.304
160.535
152.646
145.504
138.997
133.026
127.522
122.433
117.702
113.286
109.147
105.257
101.586
98.1039
94.7895
91.6209
88.5805
85.6541
82.8223
80.0704
77.3918
74.7764
72.2112
69.688
67.2002
64.7417
62.3076
59.8915
57.4906
55.1045
52.7253
50.349
47.9767
45.6028
43.2247
40.8406
38.4498
36.0539
33.6478
31.2281
28.7947
26.3502
23.8935
21.4199
18.9301
16.4252
13.903
11.3608
8.79774
6.1924
3.49159
0.0067899
)
;

boundaryField
{
    wall
    {
        type            fixedFluxPressure;
        gradient        nonuniform List<scalar> 
1200
(
134.582
25.0491
27.4525
18.2407
16.2213
14.2786
12.7467
16.4521
0.828656
99.1652
29.23
27.2529
66.3629
18.1335
16.759
14.0733
11.3948
52.5917
12.7756
35.7867
22.374
46.684
93.8722
27.8849
40.3772
37.9374
24.2407
80.2746
23.3066
13.2055
1.78594
25.8032
81.8944
24.9934
52.6049
49.5723
22.1057
71.0779
9.0939
-2.77621
-12.1763
4.63394
54.425
6.71509
37.56
34.3475
4.17549
43.9605
-9.937
-13.6073
0.715463
5.99326
36.5584
-8.33528
13.4242
9.45455
-13.1719
19.8433
-18.0418
-12.9626
7.87709
8.01618
25.8146
-13.8952
-2.15328
-6.36698
-19.2617
9.23355
-12.1848
-2.31644
-2.43768
0.789273
11.8631
-16.7798
-9.2676
-10.4921
-17.1125
9.31469
-1.42075
6.90852
-11.506
-4.0618
1.66077
-16.4105
-10.979
-10.5467
-14.7634
6.52892
0.547514
4.05395
-12.42
-1.6295
0.535091
-11.1104
-7.47202
-8.12094
-13.1386
0.972034
-2.86271
-3.42565
-17.9819
-3.80205
-2.91445
-7.62961
-3.79179
-3.73709
-8.18945
0.169321
-2.11274
-5.50149
-25.9893
-9.55691
-9.45328
-7.33219
-1.97966
0.214373
-2.6443
0.88227
-1.18984
-7.14717
-27.1818
-10.5598
-11.9079
-5.89372
-1.01661
1.90647
0.00776796
-0.269893
-2.21271
-9.68011
-23.1162
-7.49309
-10.2148
-2.8162
0.000935576
2.59362
1.46347
-0.880853
-1.85207
-9.56091
-17.548
-3.3639
-6.91193
0.930327
1.96255
4.42138
4.06401
0.479555
0.231232
-7.52133
-13.7594
-0.824793
-4.70393
3.11244
2.74893
5.04031
5.12784
0.736934
0.902225
-6.78047
-10.7758
0.886724
-3.45444
3.41029
1.55698
3.60867
4.37908
0.429851
1.65289
-5.41659
-5.39379
4.40246
-1.37543
3.13297
-0.517797
1.29045
3.06565
0.636105
3.50923
-2.57638
-0.507728
7.69247
0.647146
2.82622
-2.0515
-0.336456
2.2286
1.32304
5.60321
0.342572
0.81357
8.638
1.80582
3.03885
-1.94986
-0.213421
2.51132
2.28901
6.97634
1.88834
0.651622
8.74751
2.70532
3.44643
-1.41707
0.141497
2.68206
2.83978
7.54378
2.33455
2.29196
10.4305
4.47393
4.12775
-1.04209
0.132041
2.50095
3.22808
8.02921
2.66902
4.13618
12.265
6.0207
4.51678
-0.889397
0.0356943
2.28656
3.48132
8.17219
2.48586
2.56191
11.3472
5.65971
4.07531
-0.871799
0.123995
2.28951
3.81576
8.26696
2.20851
0.220088
10.0955
5.57114
4.57206
0.279394
1.13788
2.82056
4.19936
8.02502
1.43723
0.0832533
10.6735
6.71788
5.87257
1.84744
2.24255
3.12373
3.88461
6.70392
-0.685164
-0.536468
10.5144
6.82495
6.15136
2.61667
2.97017
3.48832
3.85729
5.83565
-2.25182
-2.34762
9.33376
6.30833
6.34923
3.70037
4.31774
4.68479
4.76732
6.09042
-2.53149
-2.92753
9.2434
6.68272
7.1878
5.00635
5.45435
5.31429
4.84715
5.49077
-3.56568
-2.64674
9.63112
6.94801
7.39717
5.29725
5.4225
4.77982
3.78922
3.84298
-5.47181
-2.7333
9.58992
6.76117
7.28341
5.50118
5.62686
4.72099
3.2776
2.74693
-6.7197
-2.55707
9.89936
7.04507
7.74702
6.29319
6.41341
5.20733
3.29429
2.24295
-7.21143
-2.15711
10.4078
7.38289
8.00326
6.53272
6.44821
4.99959
2.95844
1.84864
-7.20504
-2.25963
10.4414
7.24408
7.73914
6.16824
5.901
4.38098
2.52331
1.64893
-6.7919
-2.61418
10.2652
6.98349
7.46802
5.88809
5.53597
4.00166
2.34663
1.64518
-6.23394
-2.67399
10.3021
6.8138
7.19165
5.57239
5.2496
3.90679
2.70643
2.35666
-4.91052
-1.93868
11.0974
7.2512
7.31823
5.43263
4.99971
3.81079
3.12453
3.17731
-3.51886
-0.91055
12.227
7.93222
7.5304
5.1238
4.28029
2.94871
2.54298
2.77906
-3.50406
-1.03546
12.2483
7.56283
6.84792
4.14585
3.17019
1.9759
2.10567
2.65267
-3.19044
-1.78551
11.7876
7.02037
6.40768
3.76253
2.90336
1.93354
2.55319
3.26999
-2.28886
-2.16273
11.7437
6.95439
6.46639
3.75343
2.76261
1.68783
2.48134
3.10467
-2.33304
-2.94313
11.1273
6.11761
5.61841
2.81914
1.84099
0.922334
2.21026
2.99654
-2.19323
-4.1136
10.1267
5.0389
4.74648
2.11996
1.39777
0.746653
2.49223
3.3121
-1.76323
-4.54169
9.84075
4.69538
4.56278
2.07295
1.59731
1.11181
3.19845
3.95943
-1.10176
-3.94606
10.4396
5.02766
4.67991
2.07438
1.78531
1.34405
3.76466
4.50008
-0.588538
-3.54707
10.9254
5.36255
4.79566
1.99224
1.70618
0.892766
3.38781
3.78534
-1.61201
-4.48085
10.0287
4.35086
3.66099
0.861607
0.892165
-0.0166241
2.78478
3.08111
-2.35986
-6.22394
8.33005
2.75802
2.27184
-0.128522
0.651963
-0.0262696
3.14425
3.34584
-2.08062
-6.91661
7.71297
2.39682
2.23989
0.218874
1.62572
1.00166
4.26604
4.2182
-1.25817
-6.65134
7.94392
2.7339
2.70132
0.727171
2.38528
1.51584
4.6299
4.25394
-1.28398
-7.27602
7.47583
2.69413
3.06393
1.22491
3.0426
1.77146
4.51187
3.61028
-2.11576
-7.71534
6.97667
2.32373
2.82401
0.967081
2.99252
1.64334
4.48162
3.54305
-2.09151
-8.68764
5.94461
1.56929
2.45979
0.84632
3.23296
1.88494
4.80152
3.82347
-1.74479
-9.78822
4.89246
1.01325
2.46635
1.14002
3.78688
2.30541
5.08786
3.8801
-1.78151
-9.20571
5.17537
1.17238
2.47366
0.866399
3.53274
2.0751
5.06597
3.99575
-1.58455
-7.81983
6.28206
2.1207
3.20507
1.21444
3.78355
2.29103
5.47028
4.59888
-0.885357
-7.47506
6.56941
2.57118
3.74078
1.52421
3.90166
2.08863
5.07564
4.07982
-1.48257
-9.54806
4.54956
1.04783
2.65255
0.562739
2.9334
0.84205
3.55655
2.26381
-3.43305
-11.2257
2.49789
-0.850954
0.76662
-1.29359
1.11873
-0.894301
2.02193
0.851652
-4.61727
-9.90585
1.7791
-1.40424
0.366541
-1.30808
1.04664
-0.825316
1.98634
1.15127
-3.3514
-134.582
-25.0491
-27.4525
-18.2407
-16.2213
-14.2786
-12.7467
-16.4521
-0.828644
-99.1652
-29.2299
-27.2523
-66.3627
-18.1334
-16.7589
-14.0733
-11.3947
-52.5915
-12.7741
-35.793
-22.3701
-46.6805
-93.8718
-27.8855
-40.3785
-37.9388
-24.2416
-80.2761
-23.3003
-13.2171
-1.7741
-25.7953
-81.894
-24.9951
-52.6087
-49.5766
-22.1082
-71.0829
-9.08363
2.77462
12.1903
-4.62354
-54.4228
-6.71517
-37.5629
-34.3514
-4.17647
-43.9657
9.94828
13.6045
-0.708075
-5.98414
-36.5542
8.3382
-13.4231
-9.45496
13.1737
-19.8482
18.0515
12.952
-7.87679
-8.00927
-25.8094
13.9002
2.15861
6.37035
19.2656
-9.23894
12.1914
2.29694
2.43759
-0.783416
-11.8571
16.7854
9.27523
10.4973
17.1171
-9.32122
1.4244
-6.93428
11.5098
4.06795
-1.65403
16.4158
10.9868
10.5514
14.7677
-6.53663
-0.545765
-4.08062
12.4284
1.63624
-0.528074
11.1146
7.47821
8.12374
13.1422
-0.980283
2.86395
3.40236
17.9951
3.80955
2.9215
7.63262
3.79571
3.73734
8.19189
-0.177731
2.11417
5.48277
26.0069
9.56538
9.4606
7.33433
1.98154
-0.216573
2.64524
-0.890788
1.19165
7.13288
27.2016
10.5688
11.9154
5.89521
1.01704
-1.91047
-0.00810167
0.261458
2.21503
9.66982
23.1352
7.50212
10.2221
2.81718
-0.00126491
-2.59849
-1.46453
0.872703
1.85474
9.55322
17.5643
3.37243
6.91881
-0.929656
-1.96303
-4.42637
-4.0653
-0.487341
-0.228516
7.51458
13.7717
0.832547
4.71025
-3.11185
-2.74911
-5.04487
-5.12901
-0.744298
-0.899659
6.77354
10.7834
-0.879902
3.46016
-3.40956
-1.5565
-3.61234
-4.37977
-0.436707
-1.65061
5.40858
5.39609
-4.39671
1.38051
-3.13195
0.519161
-1.29295
-3.06565
-0.642448
-3.50741
2.56647
0.504718
-7.68782
-0.642714
-2.82484
2.05376
0.33514
-2.22786
-1.32889
-5.6019
-0.354619
-0.820917
-8.63426
-1.80197
-3.03719
1.9528
0.213086
-2.50995
-2.29438
-6.97545
-1.90205
-0.661953
-8.74445
-2.70201
-3.44468
1.42039
-0.141133
-2.68023
-2.84472
-7.54317
-2.34908
-2.3043
-10.428
-4.47115
-4.12604
1.04555
-0.131202
-2.4988
-3.23263
-8.02873
-2.68355
-4.14981
-12.2629
-6.01838
-4.51519
0.892816
-0.0345938
-2.28425
-3.48554
-8.17173
-2.49961
-2.57579
-11.3454
-5.65776
-4.07391
0.874971
-0.122855
-2.28721
-3.81969
-8.26639
-2.22075
-0.233203
-10.0938
-5.56948
-4.57094
-0.276674
-1.13692
-2.81842
-4.20306
-8.02424
-1.44731
-0.0951653
-10.6717
-6.71648
-5.87179
-1.84531
-2.24192
-3.12186
-3.8881
-6.70282
0.677786
0.525856
-10.5126
-6.82374
-6.15091
-2.61519
-2.96996
-3.4868
-3.86061
-5.83417
2.24742
2.33844
-9.33178
-6.30721
-6.34904
-3.69951
-4.318
-4.68365
-4.77052
-6.08856
2.52991
2.9197
-9.24129
-6.68166
-7.18786
-5.00609
-5.45506
-5.31353
-4.85023
-5.48855
3.56661
2.63989
-9.62891
-6.947
-7.39742
-5.29751
-5.4236
-4.77936
-3.79217
-3.8404
5.47489
2.72713
-9.58765
-6.76017
-7.28377
-5.50183
-5.62825
-4.72077
-3.28042
-2.74404
6.72437
2.55133
-9.89705
-7.04408
-7.74744
-6.29414
-6.41502
-5.20729
-3.29698
-2.23985
7.21696
2.15161
-10.4055
-7.38191
-8.00369
-6.53386
-6.44993
-4.99963
-2.96101
-1.84541
7.21065
2.2542
-10.4391
-7.24312
-7.73956
-6.16945
-5.90268
-4.381
-2.52576
-1.64566
6.79682
2.60874
-10.2629
-6.98254
-7.46838
-5.88927
-5.53752
-4.0016
-2.34898
-1.64197
6.23753
2.66841
-10.2998
-6.81287
-7.19192
-5.57347
-5.25094
-3.9066
-2.70872
-2.35361
4.91231
1.93285
-11.0953
-7.25029
-7.31839
-5.43354
-5.0008
-3.81043
-3.12679
-3.17448
3.51852
0.904401
-12.2249
-7.93135
-7.53044
-5.1245
-4.28108
-2.94818
-2.54524
-2.77648
3.5015
1.02907
-12.2463
-7.56196
-6.84781
-4.14632
-3.17067
-1.97519
-2.10796
-2.65037
3.18572
1.77908
-11.7856
-7.01948
-6.40742
-3.76277
-2.90356
-1.9327
-2.55555
-3.26799
2.282
2.15641
-11.7416
-6.95346
-6.46599
-3.75346
-2.76258
-1.68691
-2.48381
-3.10298
2.32426
2.93702
-11.1252
-6.11662
-5.61785
-2.81898
-1.84075
-0.92136
-2.21286
-2.99514
2.18276
4.10782
-10.1245
-5.03782
-4.74576
-2.11963
-1.39738
-0.745673
-2.49499
-3.31101
1.75126
4.53632
-9.83843
-4.69418
-4.56189
-2.07248
-1.59683
-1.11088
-3.2014
-3.95863
1.08855
3.94112
-10.4372
-5.02635
-4.67888
-2.07381
-1.78478
-1.34321
-3.76779
-4.49955
0.574364
3.54263
-10.9229
-5.36113
-4.79449
-1.99158
-1.70566
-0.892041
-3.39112
-3.78503
1.59718
4.4771
-10.0259
-4.34932
-3.65968
-0.860885
-0.891712
0.0172037
-2.78825
-3.08099
2.34463
6.22111
-8.32707
-2.75635
-2.27038
0.129288
-0.651617
0.0266658
-3.14786
-3.34589
2.06505
6.91483
-7.70975
-2.39501
-2.23832
-0.218108
-1.62553
-1.00148
-4.2698
-4.2184
1.24237
6.65066
-7.94045
-2.73198
-2.69967
-0.726451
-2.38528
-1.51589
-4.63378
-4.25426
1.26811
7.27651
-7.4721
-2.6921
-3.06224
-1.22427
-3.04279
-1.77173
-4.51583
-3.61069
2.09998
7.71707
-6.97268
-2.32161
-2.82231
-0.966526
-2.99289
-1.6438
-4.48564
-3.54354
2.07583
8.69056
-5.94034
-1.56707
-2.45809
-0.845857
-3.23349
-1.88558
-4.80558
-3.82406
1.72913
9.79232
-4.88793
-1.01096
-2.46467
-1.13966
-3.78756
-2.3062
-5.09194
-3.88079
1.76588
9.21081
-5.17061
-1.17003
-2.47201
-0.866132
-3.53353
-2.07601
-5.07005
-3.99654
1.56895
7.82567
-6.2771
-2.11833
-3.20347
-1.21425
-3.78441
-2.29203
-5.47434
-4.59978
0.869727
7.48157
-6.56427
-2.5688
-3.73924
-1.52411
-3.90258
-2.0897
-5.07967
-4.08082
1.46696
9.55531
-4.54423
-1.04543
-2.65106
-0.562723
-2.93436
-0.843172
-3.56052
-2.2649
3.4176
11.2336
-2.49237
0.853378
-0.765158
1.29354
-1.11969
0.89314
-2.02584
-0.852824
4.60195
9.91425
-1.77342
1.40668
-0.365099
1.30798
-1.0476
0.824119
-1.9902
-1.15255
3.33603
)
;
        value           nonuniform List<scalar> 
1200
(
567.786
125.282
196.706
197.168
200.76
200.75
197.144
196.645
125.21
567.537
359.747
150.758
254.498
219.498
220.168
220.152
219.472
254.381
150.715
359.807
271.781
157.165
261.135
212.898
223.759
223.738
212.897
261.007
157.055
271.741
241.362
162.997
247.887
195.196
214.361
214.328
195.201
247.775
162.9
241.332
221.111
163.895
232.684
181.265
204.202
204.161
181.269
232.581
163.798
221.1
204.225
161.055
217.929
170.897
194.723
194.675
170.888
217.797
160.904
204.153
190.591
156.798
204.097
162.228
185.12
185.069
162.211
203.97
156.66
190.536
179.184
152.005
191.453
154.719
175.723
175.688
154.714
191.41
151.943
179.229
169.256
147.022
180.053
148.167
166.918
166.895
148.161
180.06
146.981
169.335
160.462
142.067
169.82
142.335
158.787
158.763
142.304
169.811
141.99
160.509
152.538
137.209
160.567
137.012
151.278
151.262
136.982
160.576
137.143
152.605
145.349
132.514
152.175
132.078
144.346
144.346
132.069
152.224
132.48
145.451
138.826
128.044
144.576
127.483
137.954
137.962
127.475
144.634
128.01
138.924
132.873
123.798
137.677
123.177
132.056
132.066
123.157
137.723
123.756
132.954
127.398
119.758
131.383
119.115
126.607
126.62
119.088
131.417
119.711
127.466
122.326
115.899
125.605
115.258
121.549
121.565
115.224
125.628
115.85
122.382
117.61
112.213
120.281
111.579
116.834
116.851
111.541
120.295
112.166
117.662
113.222
108.699
115.363
108.065
112.428
112.445
108.024
115.367
108.65
113.266
109.111
105.333
110.798
104.702
108.302
108.319
104.659
110.795
105.284
109.15
105.227
102.091
106.538
101.476
104.428
104.446
101.436
106.534
102.049
105.271
101.551
98.9658
102.548
98.3717
100.773
100.789
98.3322
102.542
98.9307
101.603
98.0744
95.9581
98.8004
95.3769
97.3054
97.3191
95.335
98.7874
95.921
98.1239
94.7652
93.0491
95.2591
92.4771
94.0036
94.0153
92.4339
95.2397
93.0068
94.808
91.5847
90.2133
91.8895
89.6589
90.8469
90.8581
89.6195
91.8738
90.1788
91.6373
88.5278
87.4527
88.6791
86.9212
87.8231
87.8328
86.8834
88.666
87.4255
88.5911
85.5929
84.7688
85.6121
84.2542
84.9123
84.9186
84.2126
85.5918
84.7341
85.6488
82.7519
82.1406
82.6588
81.6405
82.0936
82.0988
81.6005
82.6378
82.1039
82.8052
79.9883
79.5588
79.8052
79.0773
79.3599
79.3654
79.0433
79.7911
79.5307
80.0513
77.3026
77.0271
77.0444
76.5612
76.6988
76.7026
76.527
77.0284
76.9975
77.3649
74.6826
74.5359
74.3587
74.0795
74.094
74.0951
74.0423
74.3355
74.4968
74.7353
72.1128
72.0749
71.735
71.6278
71.5407
71.5408
71.5916
71.7096
72.0308
72.1608
69.5885
69.6428
69.1682
69.2057
69.0343
69.0334
69.1701
69.1406
69.5947
69.6339
67.1022
67.2341
66.6474
66.8046
66.5619
66.5589
66.767
66.6157
67.1812
67.1462
64.6438
64.8413
64.1622
64.4184
64.1168
64.1119
64.3793
64.1281
64.7867
64.6909
62.2089
62.4616
61.7075
62.0461
61.6967
61.6905
62.0066
61.6731
62.4075
62.261
59.7952
60.0938
59.2785
59.6843
59.2961
59.2891
59.6458
59.246
60.0427
59.8548
57.4008
57.7376
56.8725
57.3319
56.9116
56.9032
57.2924
56.8392
57.6864
57.4644
55.0193
55.3879
54.4827
54.9844
54.5373
54.526
54.9397
54.4426
55.3288
55.0784
52.6397
53.0344
52.0982
52.6345
52.1671
52.1544
52.5882
52.0576
52.9747
52.7015
50.2622
50.6769
49.7184
50.286
49.8042
49.7912
50.2409
49.6841
50.6242
50.332
47.8884
48.3183
47.344
47.9377
47.4442
47.43
47.8898
47.3117
48.2674
47.9593
45.5114
45.9522
44.9661
45.5804
45.0778
45.0635
45.5314
44.9391
45.9064
45.5865
43.129
43.5777
42.5849
43.2168
42.7085
42.6957
43.1693
42.5672
43.5412
43.2116
40.7447
41.1991
40.2032
40.8484
40.3363
40.3255
40.8018
40.1932
41.17
40.8325
38.3583
38.8157
37.8187
38.472
37.9564
37.9479
38.4242
37.8123
38.7891
38.4455
35.9621
36.4214
35.4262
36.0847
35.5664
35.5602
36.0324
35.4184
36.3911
36.0419
33.5489
34.0087
33.0176
33.6794
33.1606
33.1587
33.627
33.0129
33.9807
33.6302
31.1202
31.5793
30.5953
31.26
30.7436
30.7485
31.2135
30.6007
31.5621
31.2126
28.6842
29.1418
28.1671
28.8338
28.3204
28.3315
28.7919
28.18
29.133
28.7853
26.2397
26.6946
25.7293
26.3958
25.8843
25.8998
26.3535
25.7424
26.6857
26.3406
23.7765
24.229
23.2756
23.9423
23.4338
23.4531
23.899
23.2884
24.2201
23.8777
21.2994
21.7482
20.8058
21.4704
20.9646
20.9878
21.4273
20.8203
21.7423
21.4043
18.8043
19.2489
18.3188
18.9819
18.4806
18.5084
18.9416
18.3386
19.2506
18.9171
16.2926
16.7334
15.8171
16.4792
15.9829
16.0147
16.4408
15.841
16.7415
16.4119
13.7727
14.208
13.3029
13.9604
13.4667
13.5011
13.9205
13.3257
14.2161
13.8912
11.2385
11.6692
10.7766
11.43
10.9394
10.9755
11.3871
10.7961
11.6752
11.3543
8.67574
9.106
8.23217
8.88679
8.40266
8.43973
8.83939
8.2466
9.10775
8.78667
6.05674
6.50146
5.6662
6.33605
5.8683
5.90634
6.28615
5.67906
6.5027
6.16671
3.35085
3.84778
3.11036
3.81819
3.38925
3.42657
3.76655
3.12273
3.84755
3.45704
-0.116215
1.036
0.726643
1.53928
1.22298
1.25516
1.49124
0.739804
1.03408
-0.0182781
566.44
125.031
196.431
196.986
200.597
200.607
197.016
196.481
125.201
566.546
359.454
150.485
253.834
219.317
220.001
220.011
219.358
253.856
150.587
359.449
271.557
156.698
260.197
212.619
223.355
223.358
212.654
260.205
156.822
271.609
241.345
162.739
247.068
194.946
213.835
213.832
194.98
247.065
162.809
241.36
221.233
163.849
232.14
181.198
203.826
203.818
181.227
232.141
163.897
221.236
204.218
160.995
217.563
170.98
194.589
194.58
171.02
217.598
161.085
204.283
190.512
156.717
203.839
162.367
185.142
185.133
162.404
203.878
156.782
190.559
179.208
151.997
191.334
154.887
175.815
175.793
154.885
191.317
151.957
179.16
169.371
147.063
180.036
148.331
167.028
167.001
148.308
179.995
146.975
169.294
160.586
142.083
169.814
142.447
158.862
158.844
142.436
169.801
142.018
160.543
152.718
137.247
160.596
137.088
151.317
151.3
137.064
160.574
137.164
152.66
145.609
132.61
152.269
132.152
144.366
144.344
132.095
152.216
132.491
145.522
139.098
128.15
144.695
127.542
137.964
137.943
127.475
144.636
128.033
139.021
133.104
123.873
137.779
123.205
132.056
132.04
123.142
137.731
123.774
133.05
127.574
119.792
131.452
119.106
126.587
126.576
119.047
131.412
119.709
127.541
122.464
115.907
125.652
115.227
121.522
121.514
115.173
125.621
115.841
122.45
117.718
112.204
120.315
111.545
116.819
116.815
111.497
120.29
112.149
117.716
113.276
108.655
115.377
108.034
112.433
112.432
107.993
115.36
108.615
113.292
109.116
105.256
110.792
104.674
108.322
108.322
104.637
110.781
105.228
109.146
105.219
102.004
106.52
101.446
104.448
104.448
101.41
106.511
101.979
105.253
101.545
98.8784
102.521
98.3373
100.787
100.787
98.3053
102.514
98.8552
101.58
98.0514
95.8539
98.7557
95.3356
97.3159
97.3178
95.3099
98.7551
95.8407
98.0971
94.7237
92.9265
95.1989
92.432
94.0125
94.015
92.411
95.2049
92.925
94.783
91.559
90.0998
91.8329
89.6182
90.8557
90.8569
89.5966
91.8356
90.0961
91.6151
88.5255
87.3517
88.6234
86.8755
87.8204
87.8214
86.8552
88.624
87.3452
88.5766
85.592
84.6621
85.545
84.1955
84.8939
84.8963
84.1814
85.5529
84.667
85.6555
82.7571
82.0354
82.5906
81.579
82.0676
82.0692
81.5657
82.5992
82.0455
82.8276
80.0117
79.4655
79.7421
79.0138
79.3229
79.3223
78.9965
79.7434
79.4698
80.0765
77.3318
76.9347
76.9776
76.4893
76.6488
76.6481
76.4739
76.9799
76.9425
77.4005
74.709
74.4396
74.2892
74.0055
74.041
74.0409
73.9946
74.2976
74.4583
74.7899
72.1401
71.979
71.6674
71.555
71.4857
71.4846
71.5444
71.6768
72.0033
72.228
69.614
69.5438
69.0977
69.1283
68.9714
68.9693
69.1181
69.1077
69.5722
69.7061
67.1237
67.1301
66.5735
66.7245
66.4966
66.4945
66.717
66.586
67.1628
67.2184
64.6664
64.7369
64.0897
64.341
64.0551
64.0529
64.3354
64.1029
64.7703
64.7589
62.235
62.359
61.6377
61.9714
61.6379
61.6351
61.9665
61.6496
62.391
62.3234
59.8219
59.9908
59.2104
59.6124
59.2404
59.2366
59.6067
59.2189
60.0192
59.904
57.4202
57.6267
56.8
57.2587
56.8572
56.8531
57.2543
56.808
57.6546
57.4997
55.0283
55.2657
54.4034
54.9091
54.486
54.4831
54.9102
54.4172
55.301
55.1135
52.65
52.9119
52.0226
52.566
52.1256
52.1226
52.5685
52.0365
52.9482
52.7335
50.2801
50.559
49.6482
50.2219
49.7665
49.7622
50.2216
49.6586
50.5916
50.355
47.91
48.2008
47.2744
47.873
47.4066
47.4023
47.8729
47.287
48.2364
47.9827
45.5408
45.8409
44.9049
45.5242
45.0496
45.045
45.5222
44.917
45.8765
45.6084
43.17
43.4764
42.5345
43.1693
42.6873
42.6817
43.1618
42.5423
43.5082
43.2292
40.7901
41.1007
40.1563
40.8027
40.3156
40.3095
40.7907
40.1613
41.1305
40.8435
38.3977
38.7113
37.7684
38.4252
37.9356
37.9301
38.4108
37.7747
38.7442
38.4513
35.9975
36.3121
35.3725
36.0367
35.5464
35.5431
36.0235
35.3846
36.3533
36.058
33.5937
33.9083
32.9741
33.6428
33.1519
33.1498
33.6272
32.9851
33.9499
33.6537
31.1824
31.4959
30.5677
31.2373
30.7448
30.742
31.2139
30.5693
31.5287
31.2333
28.7533
29.0647
28.1431
28.8114
28.3182
28.3153
28.7819
28.1374
29.0908
28.7978
26.3061
26.6151
25.7019
26.3688
25.8771
25.876
26.3384
25.6962
26.6431
26.3534
23.8492
24.1542
23.2487
23.9116
23.4216
23.4227
23.8814
23.2433
24.184
23.8987
21.3765
21.6783
20.7825
21.4421
20.955
20.9579
21.4109
20.7755
21.7069
21.4251
18.8912
19.1894
18.303
18.9573
18.4722
18.4761
18.9228
18.2906
19.2123
18.9344
16.3905
16.6844
15.8069
16.4546
15.9715
15.9768
16.4177
15.7901
16.7027
16.4297
13.8648
14.1562
13.2912
13.9357
13.4581
13.4658
13.8998
13.275
14.1761
13.9069
11.3167
11.6063
10.7553
11.3979
10.9273
10.9377
11.3642
10.7414
11.6292
11.363
8.7505
9.04024
8.20643
8.84939
8.38744
8.40073
8.81852
8.19584
9.06696
8.80139
6.15224
6.45591
5.6557
6.30954
5.86269
5.87702
6.27774
5.64349
6.48008
6.20094
3.46315
3.82276
3.11886
3.81054
3.4022
3.4154
3.77551
3.10252
3.83906