/*--------------------------------*- C++ -*----------------------------------*\
  =========                 |
  \\      /  F ield         | OpenFOAM: The Open Source CFD Toolbox
   \\    /   O peration     | Website:  https://openfoam.org
    \\  /    A nd           | Version:  8
     \\/     M anipulation  |
\*---------------------------------------------------------------------------*/
FoamFile
{
    version     2.0;
    format      ascii;
    class       volScalarField;
    location    "900";
    object      p;
}
// * * * * * * * * * * * * * * * * * * * * * * * * * * * * * * * * * * * * * //

dimensions      [1 -1 -2 0 0 0 0];

internalField   nonuniform List<scalar> 
1200
(
462.902
255.116
167.191
136.882
116.699
99.775
86.1382
74.8194
64.9921
56.2759
48.4575
41.3921
34.9739
29.1104
23.7227
18.7477
14.1361
9.84585
5.83599
2.07229
-1.47208
-4.82204
-8.00454
-11.0426
-13.9506
-16.7435
-19.4396
-22.0523
-24.5906
-27.0665
-29.4906
-31.87
-34.2124
-36.525
-38.8131
-41.0809
-43.333
-45.5748
-47.8116
-50.045
-52.2769
-54.5103
-56.7475
-58.9892
-61.2382
-63.4983
-65.7719
-68.0583
-70.356
-72.6672
-74.9948
-77.3395
-79.7016
-82.0805
-84.4762
-86.8921
-89.3358
-91.8279
-94.4086
-97.7665
-174.484
-149.022
-142.674
-136.76
-135.773
-138.595
-142.819
-147.539
-152.449
-157.349
-162.125
-166.714
-171.084
-175.234
-179.177
-182.927
-186.497
-189.899
-193.151
-196.269
-199.261
-202.141
-204.922
-207.617
-210.234
-212.779
-215.264
-217.697
-220.083
-222.43
-224.744
-227.031
-229.295
-231.542
-233.775
-235.996
-238.21
-240.42
-242.63
-244.842
-247.058
-249.28
-251.51
-253.747
-255.993
-258.253
-260.526
-262.814
-265.114
-267.428
-269.758
-272.107
-274.473
-276.856
-279.255
-281.674
-284.118
-286.595
-289.122
-291.819
-298.237
-240.543
-234.004
-247.22
-262.313
-276.979
-290.739
-303.279
-314.577
-324.739
-333.903
-342.184
-349.678
-356.48
-362.679
-368.353
-373.565
-378.369
-382.818
-386.954
-390.818
-394.44
-397.855
-401.088
-404.161
-407.094
-409.907
-412.617
-415.236
-417.778
-420.255
-422.677
-425.053
-427.391
-429.698
-431.979
-434.241
-436.488
-438.727
-440.96
-443.19
-445.422
-447.657
-449.897
-452.143
-454.399
-456.668
-458.949
-461.241
-463.546
-465.868
-468.206
-470.562
-472.933
-475.322
-477.728
-480.153
-482.595
-485.025
-487.295
-492.917
-470.571
-477.214
-494.904
-508.751
-519.03
-527.636
-535.086
-541.58
-547.363
-552.626
-557.481
-561.993
-566.212
-570.181
-573.934
-577.494
-580.881
-584.113
-587.208
-590.18
-593.042
-595.808
-598.488
-601.09
-603.623
-606.097
-608.52
-610.896
-613.234
-615.54
-617.817
-620.072
-622.31
-624.534
-626.746
-628.952
-631.154
-633.357
-635.561
-637.768
-639.982
-642.203
-644.431
-646.668
-648.919
-651.184
-653.462
-655.754
-658.061
-660.384
-662.726
-665.085
-667.461
-669.853
-672.263
-674.687
-677.115
-679.507
-681.673
-684.49
-665.061
-661.557
-671.018
-681.121
-690.476
-699.961
-709.264
-717.997
-726.076
-733.532
-740.396
-746.707
-752.509
-757.857
-762.802
-767.391
-771.661
-775.649
-779.389
-782.914
-786.248
-789.416
-792.437
-795.33
-798.11
-800.793
-803.392
-805.917
-808.38
-810.789
-813.153
-815.479
-817.775
-820.046
-822.297
-824.533
-826.76
-828.981
-831.199
-833.416
-835.637
-837.863
-840.094
-842.334
-844.586
-846.85
-849.127
-851.417
-853.721
-856.042
-858.38
-860.735
-863.107
-865.496
-867.9
-870.317
-872.729
-875.083
-877.139
-879.667
-860.239
-856.739
-866.204
-876.311
-885.666
-895.147
-904.444
-913.173
-921.252
-928.705
-935.567
-941.876
-947.68
-953.028
-957.975
-962.564
-966.835
-970.824
-974.566
-978.091
-981.426
-984.594
-987.616
-990.509
-993.29
-995.973
-998.571
-1001.1
-1003.56
-1005.97
-1008.33
-1010.66
-1012.96
-1015.23
-1017.48
-1019.71
-1021.94
-1024.16
-1026.38
-1028.6
-1030.82
-1033.04
-1035.27
-1037.52
-1039.77
-1042.03
-1044.3
-1046.59
-1048.9
-1051.22
-1053.55
-1055.9
-1058.27
-1060.66
-1063.07
-1065.48
-1067.89
-1070.25
-1072.31
-1078.45
-1056.1
-1062.73
-1080.42
-1094.27
-1104.56
-1113.17
-1120.61
-1127.11
-1132.9
-1138.16
-1143.02
-1147.53
-1151.75
-1155.72
-1159.48
-1163.04
-1166.42
-1169.65
-1172.75
-1175.72
-1178.58
-1181.34
-1184.02
-1186.62
-1189.16
-1191.63
-1194.05
-1196.43
-1198.77
-1201.07
-1203.35
-1205.61
-1207.84
-1210.07
-1212.28
-1214.48
-1216.68
-1218.89
-1221.09
-1223.29
-1225.51
-1227.73
-1229.96
-1232.19
-1234.45
-1236.71
-1238.99
-1241.28
-1243.59
-1245.91
-1248.25
-1250.61
-1252.98
-1255.38
-1257.79
-1260.21
-1262.64
-1265.04
-1267.21
-1274.13
-1216.44
-1209.91
-1223.13
-1238.22
-1252.89
-1266.63
-1279.15
-1290.43
-1300.6
-1309.76
-1318.04
-1325.54
-1332.35
-1338.56
-1344.23
-1349.45
-1354.25
-1358.7
-1362.84
-1366.7
-1370.32
-1373.73
-1376.96
-1380.03
-1382.97
-1385.78
-1388.49
-1391.11
-1393.65
-1396.13
-1398.55
-1400.92
-1403.26
-1405.57
-1407.85
-1410.11
-1412.35
-1414.59
-1416.82
-1419.05
-1421.28
-1423.52
-1425.75
-1428
-1430.25
-1432.52
-1434.8
-1437.09
-1439.4
-1441.72
-1444.06
-1446.41
-1448.79
-1451.18
-1453.59
-1456.01
-1458.46
-1460.89
-1463.17
-1540.72
-1515.25
-1508.92
-1503.01
-1502.03
-1504.86
-1509.08
-1513.78
-1518.69
-1523.6
-1528.37
-1532.95
-1537.32
-1541.47
-1545.41
-1549.16
-1552.73
-1556.13
-1559.39
-1562.5
-1565.49
-1568.37
-1571.15
-1573.84
-1576.46
-1579.01
-1581.49
-1583.92
-1586.31
-1588.66
-1590.97
-1593.26
-1595.52
-1597.76
-1599.99
-1602.21
-1604.43
-1606.64
-1608.84
-1611.05
-1613.26
-1615.48
-1617.71
-1619.94
-1622.18
-1624.44
-1626.71
-1629
-1631.3
-1633.61
-1635.94
-1638.29
-1640.66
-1643.04
-1645.44
-1647.86
-1650.31
-1652.79
-1655.32
-1658.03
-1293.72
-1501.44
-1589.38
-1619.69
-1639.88
-1656.81
-1670.43
-1681.73
-1691.56
-1700.28
-1708.1
-1715.16
-1721.58
-1727.45
-1732.84
-1737.82
-1742.43
-1746.72
-1750.73
-1754.49
-1758.03
-1761.38
-1764.56
-1767.6
-1770.5
-1773.3
-1775.99
-1778.6
-1781.14
-1783.62
-1786.04
-1788.42
-1790.76
-1793.07
-1795.36
-1797.62
-1799.87
-1802.12
-1804.35
-1806.58
-1808.81
-1811.05
-1813.28
-1815.53
-1817.78
-1820.04
-1822.31
-1824.6
-1826.89
-1829.21
-1831.54
-1833.88
-1836.24
-1838.62
-1841.02
-1843.44
-1845.89
-1848.39
-1850.97
-1854.35
462.253
255.032
167.113
136.822
116.692
99.7803
86.1675
74.8918
65.0835
56.3588
48.5362
41.4681
35.0319
29.1424
23.7342
18.7497
14.1347
9.84166
5.83334
2.07587
-1.46452
-4.81622
-7.99938
-11.0327
-13.9386
-16.735
-19.4327
-22.0449
-24.5852
-27.063
-29.4864
-31.8648
-34.2053
-36.514
-38.7978
-41.0629
-43.3144
-45.5552
-47.7879
-50.0172
-52.247
-54.4778
-56.7132
-58.9567
-61.2095
-63.4711
-65.7418
-68.0251
-70.3244
-72.6396
-74.9693
-77.3145
-79.6762
-82.0561
-84.4558
-86.8753
-89.3173
-91.8024
-94.3789
-97.7439
-174.566
-149.073
-142.813
-136.863
-135.806
-138.602
-142.806
-147.494
-152.392
-157.304
-162.085
-166.674
-171.06
-175.234
-179.198
-182.959
-186.535
-189.942
-193.196
-196.31
-199.301
-202.183
-204.966
-207.657
-210.272
-212.819
-215.306
-217.739
-220.127
-222.475
-224.79
-227.077
-229.34
-231.584
-233.814
-236.034
-238.248
-240.458
-242.665
-244.874
-247.087
-249.306
-251.533
-253.772
-256.021
-258.281
-260.551
-262.834
-265.135
-267.452
-269.784
-272.132
-274.497
-276.88
-279.283
-281.706
-284.147
-286.618
-289.139
-291.836
-298.363
-240.871
-234.431
-247.579
-262.556
-277.135
-290.831
-303.316
-314.58
-324.731
-333.882
-342.15
-349.645
-356.46
-362.673
-368.356
-373.573
-378.384
-382.837
-386.977
-390.843
-394.469
-397.885
-401.116
-404.188
-407.122
-409.935
-412.644
-415.264
-417.806
-420.283
-422.705
-425.081
-427.417
-429.722
-432.003
-434.265
-436.513
-438.749
-440.98
-443.208
-445.437
-447.67
-449.91
-452.158
-454.415
-456.68
-458.957
-461.25
-463.558
-465.88
-468.218
-470.572
-472.945
-475.336
-477.745
-480.17
-482.606
-485.031
-487.3
-493.007
-470.682
-477.319
-494.956
-508.73
-518.972
-527.575
-535.024
-541.526
-547.324
-552.594
-557.448
-561.964
-566.195
-570.178
-573.94
-577.506
-580.899
-584.139
-587.239
-590.215
-593.08
-595.846
-598.523
-601.123
-603.655
-606.127
-608.547
-610.922
-613.258
-615.563
-617.84
-620.095
-622.331
-624.554
-626.768
-628.976
-631.179
-633.381
-635.584
-637.791
-640.002
-642.22
-644.448
-646.687
-648.936
-651.197
-653.472
-655.765
-658.073
-660.397
-662.737
-665.094
-667.47
-669.865
-672.277
-674.701
-677.123
-679.509
-681.675
-684.576
-665.186
-661.739
-671.185
-681.21
-690.499
-699.965
-709.27
-718.003
-726.082
-733.53
-740.381
-746.681
-752.483
-757.837
-762.788
-767.38
-771.656
-775.654
-779.404
-782.936
-786.274
-789.444
-792.464
-795.356
-798.135
-800.815
-803.411
-805.935
-808.395
-810.803
-813.167
-815.493
-817.789
-820.061
-822.314
-824.553
-826.781
-829.002
-831.22
-833.437
-835.655
-837.878
-840.109
-842.349
-844.598
-846.859
-849.133
-851.423
-853.729
-856.049
-858.386
-860.739
-863.111
-865.501
-867.907
-870.323
-872.73
-875.079
-877.136
-879.746
-860.358
-856.915
-866.365
-876.394
-885.684
-895.151
-904.458
-913.191
-921.267
-928.713
-935.563
-941.86
-947.659
-953.011
-957.961
-962.553
-966.83
-970.828
-974.579
-978.111
-981.45
-984.62
-987.641
-990.533
-993.312
-995.993
-998.59
-1001.11
-1003.57
-1005.98
-1008.35
-1010.67
-1012.97
-1015.24
-1017.5
-1019.73
-1021.96
-1024.18
-1026.4
-1028.62
-1030.84
-1033.06
-1035.29
-1037.53
-1039.78
-1042.04
-1044.31
-1046.6
-1048.91
-1051.22
-1053.56
-1055.91
-1058.28
-1060.67
-1063.07
-1065.49
-1067.89
-1070.24
-1072.3
-1078.51
-1056.19
-1062.83
-1080.47
-1094.24
-1104.49
-1113.1
-1120.56
-1127.07
-1132.87
-1138.14
-1143
-1147.51
-1151.74
-1155.71
-1159.47
-1163.03
-1166.43
-1169.67
-1172.77
-1175.74
-1178.61
-1181.37
-1184.05
-1186.65
-1189.18
-1191.66
-1194.08
-1196.45
-1198.79
-1201.09
-1203.37
-1205.62
-1207.86
-1210.09
-1212.3
-1214.51
-1216.71
-1218.91
-1221.11
-1223.32
-1225.53
-1227.75
-1229.98
-1232.22
-1234.47
-1236.73
-1239
-1241.29
-1243.6
-1245.92
-1248.26
-1250.62
-1253
-1255.39
-1257.8
-1260.22
-1262.65
-1265.04
-1267.21
-1274.21
-1216.75
-1210.32
-1223.47
-1238.45
-1253.02
-1266.72
-1279.22
-1290.48
-1300.62
-1309.77
-1318.04
-1325.53
-1332.34
-1338.55
-1344.22
-1349.44
-1354.25
-1358.7
-1362.84
-1366.71
-1370.33
-1373.75
-1376.98
-1380.05
-1382.99
-1385.8
-1388.51
-1391.13
-1393.67
-1396.15
-1398.57
-1400.95
-1403.29
-1405.59
-1407.88
-1410.14
-1412.39
-1414.62
-1416.85
-1419.08
-1421.31
-1423.54
-1425.78
-1428.02
-1430.28
-1432.54
-1434.82
-1437.11
-1439.42
-1441.74
-1444.08
-1446.43
-1448.8
-1451.19
-1453.6
-1456.02
-1458.46
-1460.89
-1463.16
-1540.7
-1515.24
-1508.99
-1503.07
-1502.03
-1504.82
-1509.05
-1513.77
-1518.67
-1523.57
-1528.35
-1532.94
-1537.31
-1541.47
-1545.42
-1549.18
-1552.75
-1556.15
-1559.4
-1562.52
-1565.51
-1568.39
-1571.17
-1573.87
-1576.48
-1579.03
-1581.52
-1583.95
-1586.34
-1588.69
-1591
-1593.29
-1595.55
-1597.8
-1600.03
-1602.25
-1604.46
-1606.67
-1608.88
-1611.09
-1613.3
-1615.52
-1617.74
-1619.97
-1622.22
-1624.47
-1626.74
-1629.03
-1631.33
-1633.64
-1635.97
-1638.32
-1640.68
-1643.07
-1645.47
-1647.89
-1650.33
-1652.8
-1655.33
-1658.04
-1294.3
-1501.52
-1589.45
-1619.75
-1639.89
-1656.79
-1670.42
-1681.72
-1691.53
-1700.24
-1708.06
-1715.13
-1721.55
-1727.43
-1732.82
-1737.8
-1742.41
-1746.7
-1750.71
-1754.47
-1758.01
-1761.36
-1764.55
-1767.58
-1770.49
-1773.29
-1775.99
-1778.6
-1781.14
-1783.62
-1786.04
-1788.42
-1790.76
-1793.07
-1795.36
-1797.62
-1799.87
-1802.11
-1804.34
-1806.57
-1808.8
-1811.04
-1813.27
-1815.52
-1817.77
-1820.03
-1822.3
-1824.58
-1826.88
-1829.19
-1831.52
-1833.87
-1836.23
-1838.61
-1841
-1843.42
-1845.86
-1848.35
-1850.94
-1854.32
)
;

boundaryField
{
    wall
    {
        type            calculated;
        value           nonuniform List<scalar> 
1200
(
463.227
-174.442
-298.174
-492.872
-684.447
-879.628
-1078.41
-1274.08
-1540.73
-1293.43
255.157
-148.995
-240.378
-470.516
-664.998
-860.179
-1056.05
-1216.29
-1515.26
-1501.39
167.23
-142.604
-233.79
-477.161
-661.466
-856.65
-1062.69
-1209.71
-1508.88
-1589.35
136.911
-136.708
-247.04
-494.878
-670.934
-866.122
-1080.4
-1222.96
-1502.98
-1619.66
116.702
-135.757
-262.192
-508.761
-681.077
-876.269
-1094.29
-1238.11
-1502.04
-1639.87
99.7726
-138.591
-276.901
-519.06
-690.464
-885.658
-1104.6
-1252.82
-1504.88
-1656.81
86.1238
-142.826
-290.692
-527.667
-699.959
-895.146
-1113.21
-1266.59
-1509.1
-1670.44
74.7833
-147.561
-303.261
-535.117
-709.262
-904.437
-1120.64
-1279.11
-1513.79
-1681.73
64.9463
-152.477
-314.575
-541.606
-717.994
-913.164
-1127.13
-1290.41
-1518.7
-1691.57
56.2343
-157.372
-324.742
-547.382
-726.074
-921.245
-1132.91
-1300.59
-1523.61
-1700.31
48.4178
-162.145
-333.913
-552.642
-733.533
-928.701
-1138.17
-1309.76
-1528.38
-1708.12
41.3536
-166.734
-342.202
-557.498
-740.404
-935.568
-1143.02
-1318.04
-1532.95
-1715.18
34.9445
-171.096
-349.695
-562.008
-746.719
-941.884
-1147.54
-1325.55
-1537.32
-1721.6
29.094
-175.235
-356.491
-566.221
-752.522
-947.69
-1151.76
-1332.36
-1541.47
-1727.46
23.7167
-179.167
-362.682
-570.183
-757.867
-953.037
-1155.73
-1338.56
-1545.41
-1732.85
18.7467
-182.911
-368.351
-573.931
-762.81
-957.981
-1159.48
-1344.24
-1549.16
-1737.83
14.1368
-186.478
-373.561
-577.489
-767.396
-962.57
-1163.04
-1349.45
-1552.73
-1742.44
9.84807
-189.878
-378.362
-580.873
-771.663
-966.838
-1166.42
-1354.26
-1556.13
-1746.73
5.8375
-193.129
-382.808
-584.101
-775.647
-970.823
-1169.65
-1358.7
-1559.38
-1750.74
2.07065
-196.248
-386.943
-587.192
-779.382
-974.559
-1172.74
-1362.83
-1562.49
-1754.5
-1.47578
-199.242
-390.805
-590.162
-782.903
-978.081
-1175.7
-1366.69
-1565.48
-1758.04
-4.8249
-202.12
-394.426
-593.024
-786.236
-981.414
-1178.57
-1370.31
-1568.36
-1761.39
-8.0071
-204.9
-397.839
-595.789
-789.402
-984.582
-1181.33
-1373.72
-1571.14
-1764.57
-11.0476
-207.598
-401.074
-598.47
-792.423
-987.603
-1184.01
-1376.95
-1573.83
-1767.6
-13.9567
-210.215
-404.148
-601.073
-795.316
-990.496
-1186.61
-1380.02
-1576.45
-1770.51
-16.7478
-212.758
-407.08
-603.607
-798.097
-993.278
-1189.14
-1382.96
-1578.99
-1773.3
-19.4432
-215.243
-409.893
-606.083
-800.782
-995.963
-1191.62
-1385.77
-1581.48
-1775.99
-22.0561
-217.676
-412.603
-608.506
-803.382
-998.562
-1194.04
-1388.47
-1583.91
-1778.6
-24.5934
-220.061
-415.222
-610.883
-805.908
-1001.09
-1196.42
-1391.09
-1586.29
-1781.14
-27.0683
-222.407
-417.764
-613.222
-808.372
-1003.55
-1198.76
-1393.64
-1588.64
-1783.62
-29.4926
-224.722
-420.241
-615.528
-810.782
-1005.96
-1201.07
-1396.12
-1590.96
-1786.04
-31.8726
-227.008
-422.663
-617.806
-813.146
-1008.33
-1203.34
-1398.54
-1593.24
-1788.42
-34.2158
-229.272
-425.039
-620.061
-815.472
-1010.65
-1205.6
-1400.91
-1595.5
-1790.76
-36.5304
-231.52
-427.378
-622.299
-817.768
-1012.95
-1207.83
-1403.25
-1597.75
-1793.07
-38.8205
-233.754
-429.686
-624.523
-820.039
-1015.22
-1210.06
-1405.55
-1599.98
-1795.36
-41.0897
-235.977
-431.968
-626.736
-822.289
-1017.47
-1212.27
-1407.83
-1602.19
-1797.62
-43.3421
-238.19
-434.228
-628.94
-824.524
-1019.7
-1214.47
-1410.09
-1604.41
-1799.88
-45.5845
-240.4
-436.475
-631.142
-826.75
-1021.93
-1216.67
-1412.34
-1606.62
-1802.12
-47.8234
-242.613
-438.715
-633.344
-828.971
-1024.15
-1218.87
-1414.58
-1608.83
-1804.36
-50.0589
-244.826
-440.949
-635.549
-831.188
-1026.37
-1221.08
-1416.81
-1611.04
-1806.59
-52.2919
-247.043
-443.18
-637.757
-833.406
-1028.59
-1223.28
-1419.04
-1613.25
-1808.82
-54.5266
-249.267
-445.414
-639.972
-835.629
-1030.81
-1225.5
-1421.27
-1615.47
-1811.05
-56.7647
-251.498
-447.651
-642.194
-837.855
-1033.03
-1227.72
-1423.5
-1617.69
-1813.29
-59.0057
-253.735
-449.89
-644.422
-840.087
-1035.27
-1229.94
-1425.74
-1619.92
-1815.53
-61.2528
-255.98
-452.135
-646.659
-842.327
-1037.51
-1232.18
-1427.98
-1622.17
-1817.78
-63.5121
-258.239
-454.391
-648.91
-844.579
-1039.76
-1234.44
-1430.24
-1624.43
-1820.05
-65.7872
-260.514
-456.662
-651.177
-846.846
-1042.02
-1236.7
-1432.51
-1626.7
-1822.32
-68.0752
-262.804
-458.945
-653.457
-849.124
-1044.3
-1238.98
-1434.79
-1628.98
-1824.6
-70.3721
-265.103
-461.236
-655.748
-851.413
-1046.59
-1241.27
-1437.08
-1631.28
-1826.9
-72.6812
-267.415
-463.541
-658.054
-853.717
-1048.89
-1243.58
-1439.39
-1633.6
-1829.22
-75.0078
-269.746
-465.862
-660.378
-856.039
-1051.21
-1245.9
-1441.71
-1635.93
-1831.55
-77.3521
-272.094
-468.201
-662.721
-858.378
-1053.55
-1248.24
-1444.05
-1638.28
-1833.89
-79.7144
-274.461
-470.556
-665.08
-860.733
-1055.9
-1250.6
-1446.41
-1640.64
-1836.25
-82.0929
-276.843
-472.928
-667.456
-863.105
-1058.27
-1252.98
-1448.78
-1643.02
-1838.63
-84.4866
-279.241
-475.315
-669.848
-865.494
-1060.66
-1255.37
-1451.17
-1645.43
-1841.03
-86.9006
-281.659
-477.719
-672.256
-867.897
-1063.06
-1257.78
-1453.58
-1647.85
-1843.45
-89.3451
-284.103
-480.145
-674.68
-870.313
-1065.48
-1260.21
-1456.01
-1650.3
-1845.9
-91.8407
-286.584
-482.59
-677.111
-872.728
-1067.89
-1262.64
-1458.46
-1652.78
-1848.4
-94.4235
-289.113
-485.022
-679.506
-875.085
-1070.25
-1265.04
-1460.89
-1655.32
-1850.99
-97.7779
-291.81
-487.292
-681.672
-877.14
-1072.31
-1267.21
-1463.17
-1658.02
-1854.36
461.928
-174.608
-298.426
-493.051
-684.619
-879.785
-1078.55
-1274.26
-1540.69
-1294.59
254.991
-149.099
-241.035
-470.738
-665.249
-860.417
-1056.24
-1216.9
-1515.23
-1501.57
167.074
-142.884
-234.645
-477.372
-661.83
-857.003
-1062.87
-1210.52
-1509.03
-1589.48
136.792
-136.914
-247.759
-494.982
-671.269
-866.447
-1080.49
-1223.64
-1503.1
-1619.78
116.688
-135.822
-262.677
-508.719
-681.255
-876.435
-1094.23
-1238.56
-1502.02
-1639.89
99.7828
-138.606
-277.212
-518.942
-690.511
-885.692
-1104.45
-1253.09
-1504.8
-1656.79
86.1818
-142.8
-290.877
-527.544
-699.967
-895.153
-1113.06
-1266.77
-1509.03
-1670.42
74.9279
-147.472
-303.335
-534.994
-709.272
-904.465
-1120.54
-1279.25
-1513.76
-1681.71
65.1294
-152.364
-314.582
-541.499
-718.006
-913.2
-1127.05
-1290.5
-1518.66
-1691.51
56.4005
-157.281
-324.727
-547.305
-726.085
-921.275
-1132.86
-1300.63
-1523.56
-1700.21
48.576
-162.064
-333.872
-552.579
-733.529
-928.717
-1138.13
-1309.78
-1528.34
-1708.04
41.5066
-166.654
-342.132
-557.431
-740.373
-935.561
-1142.99
-1318.04
-1532.93
-1715.11
35.0614
-171.047
-349.628
-561.949
-746.668
-941.852
-1147.5
-1325.53
-1537.31
-1721.54
29.1588
-175.234
-356.449
-566.186
-752.47
-947.649
-1151.73
-1332.33
-1541.47
-1727.41
23.7402
-179.208
-362.67
-570.177
-757.827
-953.003
-1155.71
-1338.54
-1545.43
-1732.82
18.7508
-182.975
-368.357
-573.943
-762.781
-957.955
-1159.47
-1344.22
-1549.18
-1737.79
14.134
-186.553
-373.577
-577.512
-767.374
-962.548
-1163.03
-1349.44
-1552.75
-1742.4
9.83943
-189.964
-378.391
-580.908
-771.653
-966.827
-1166.43
-1354.25
-1556.16
-1746.69
5.83181
-193.218
-382.847
-584.152
-775.656
-970.829
-1169.67
-1358.7
-1559.41
-1750.7
2.0775
-196.331
-386.989
-587.255
-779.412
-974.586
-1172.78
-1362.85
-1562.53
-1754.46
-1.46083
-199.321
-390.855
-590.233
-782.946
-978.121
-1175.76
-1366.71
-1565.52
-1758
-4.81337
-202.204
-394.484
-593.099
-786.287
-981.462
-1178.62
-1370.34
-1568.4
-1761.35
-7.99682
-204.987
-397.901
-595.865
-789.458
-984.632
-1181.39
-1373.76
-1571.19
-1764.54
-11.0277
-207.677
-401.13
-598.541
-792.478
-987.654
-1184.07
-1376.99
-1573.88
-1767.58
-13.9325
-210.291
-404.201
-601.139
-795.37
-990.546
-1186.67
-1380.06
-1576.5
-1770.49
-16.7306
-212.84
-407.137
-603.671
-798.148
-993.324
-1189.2
-1383
-1579.04
-1773.28
-19.4291
-215.327
-409.949
-606.142
-800.827
-996.003
-1191.67
-1385.81
-1581.53
-1775.98
-22.0411
-217.759
-412.657
-608.56
-803.421
-998.599
-1194.09
-1388.52
-1583.97
-1778.6
-24.5825
-220.148
-415.278
-610.935
-805.944
-1001.12
-1196.46
-1391.14
-1586.36
-1781.14
-27.0612
-222.498
-417.82
-613.271
-808.402
-1003.58
-1198.8
-1393.68
-1588.7
-1783.62
-29.4843
-224.813
-420.297
-615.574
-810.81
-1005.99
-1201.1
-1396.16
-1591.02
-1786.04
-31.8623
-227.1
-422.719
-617.852
-813.174
-1008.35
-1203.38
-1398.58
-1593.3
-1788.42
-34.2019
-229.363
-425.094
-620.106
-815.501
-1010.68
-1205.63
-1400.96
-1595.57
-1790.76
-36.5087
-231.606
-427.43
-622.342
-817.796
-1012.98
-1207.87
-1403.3
-1597.81
-1793.07
-38.7903
-233.834
-429.734
-624.565
-820.068
-1015.25
-1210.09
-1405.61
-1600.05
-1795.35
-41.0541
-236.054
-432.014
-626.779
-822.322
-1017.5
-1212.31
-1407.89
-1602.27
-1797.62
-43.3053
-238.268
-434.277
-628.988
-824.563
-1019.75
-1214.52
-1410.15
-1604.48
-1799.87
-45.5455
-240.478
-436.525
-631.192
-826.791
-1021.97
-1216.72
-1412.4
-1606.69
-1802.11
-47.7761
-242.683
-438.761
-633.393
-829.012
-1024.2
-1218.92
-1414.64
-1608.89
-1804.34
-50.0033
-244.89
-440.99
-635.596
-831.23
-1026.41
-1221.13
-1416.87
-1611.1
-1806.57
-52.232
-247.101
-443.217
-637.802
-833.447
-1028.63
-1223.33
-1419.1
-1613.31
-1808.8
-54.4615
-249.319
-445.445
-640.012
-835.663
-1030.85
-1225.54
-1421.32
-1615.53
-1811.03
-56.6959
-251.545
-447.676
-642.229
-837.886
-1033.07
-1227.76
-1423.56
-1617.76
-1813.27
-58.9402
-253.784
-449.917
-644.457
-840.116
-1035.3
-1229.99
-1425.79
-1619.99
-1815.51
-61.1949
-256.035
-452.166
-646.696
-842.356
-1037.54
-1232.23
-1428.04
-1622.24
-1817.76
-63.4573
-258.295
-454.423
-648.945
-844.605
-1039.79
-1234.48
-1430.29
-1624.49
-1820.02
-65.7266
-260.563
-456.686
-651.204
-846.863
-1042.05
-1236.73
-1432.55
-1626.76
-1822.29
-68.0082
-262.845
-458.961
-653.478
-849.136
-1044.32
-1239.01
-1434.83
-1629.04
-1824.58
-70.3083
-265.146
-461.255
-655.77
-851.427
-1046.61
-1241.3
-1437.12
-1631.34
-1826.88
-72.6256
-267.464
-463.564
-658.08
-853.733
-1048.91
-1243.61
-1439.43
-1633.66
-1829.19
-74.9563
-269.797
-465.886
-660.403
-856.053
-1051.23
-1245.93
-1441.75
-1635.99
-1831.51
-77.3019
-272.145
-468.224
-662.742
-858.388
-1053.56
-1248.27
-1444.08
-1638.33
-1833.86
-79.6634
-274.509
-470.577
-665.099
-860.741
-1055.91
-1250.63
-1446.44
-1640.7
-1836.22
-82.0437
-276.893
-472.95
-667.475
-863.113
-1058.28
-1253
-1448.81
-1643.08
-1838.6
-84.4454
-279.297
-475.343
-669.87
-865.503
-1060.67
-1255.39
-1451.2
-1645.48
-1840.99
-86.8668
-281.721
-477.754
-672.284
-867.911
-1063.08
-1257.81
-1453.61
-1647.9
-1843.41
-89.308
-284.162
-480.178
-674.707
-870.327
-1065.49
-1260.23
-1456.03
-1650.34
-1845.85
-91.7896
-286.629
-482.611
-677.127
-872.731
-1067.89
-1262.65
-1458.46
-1652.81
-1848.34
-94.364
-289.148
-485.033
-679.51
-875.076
-1070.24
-1265.04
-1460.89
-1655.33
-1850.92
-97.7325
-291.845
-487.303
-681.676
-877.135
-1072.3
-1267.21
-1463.16
-1658.04
-1854.3
)
;
    }
    inlet
    {
        type            calculated;
        value           nonuniform List<scalar> 
20
(
462.902
-174.484
-298.237
-492.917
-684.49
-879.667
-1078.45
-1274.13
-1540.72
-1293.72
462.253
-174.566
-298.363
-493.007
-684.576
-879.746
-1078.51
-1274.21
-1540.7
-1294.3
)
;
    }
    outlet
    {
        type            calculated;
        value           nonuniform List<scalar> 
20
(
-97.5912
-292.76
-487.93
-683.102
-878.274
-1073.45
-1268.62
-1463.79
-1658.97
-1854.23
-97.5912
-292.76
-487.93
-683.102
-878.274
-1073.45
-1268.62
-1463.79
-1658.97
-1854.23
)
;
    }
    heatWall
    {
        type            calculated;
        value           nonuniform List<scalar> 
240
(
-1391.31
-1391.89
-1599.02
-1599.11
-1686.97
-1687.04
-1717.28
-1717.34
-1737.46
-1737.47
-1754.39
-1754.38
-1768.02
-1768.01
-1779.32
-1779.31
-1789.14
-1789.11
-1797.87
-1797.82
-1805.69
-1805.64
-1812.75
-1812.71
-1819.17
-1819.14
-1825.04
-1825.02
-1830.43
-1830.41
-1835.41
-1835.39
-1840.02
-1840
-1844.31
-1844.29
-1848.32
-1848.3
-1852.08
-1852.06
-1855.62
-1855.6
-1858.97
-1858.95
-1862.15
-1862.14
-1865.19
-1865.17
-1868.09
-1868.08
-1870.88
-1870.88
-1873.58
-1873.57
-1876.19
-1876.19
-1878.73
-1878.73
-1881.21
-1881.2
-1883.63
-1883.63
-1886.01
-1886.01
-1888.35
-1888.35
-1890.66
-1890.66
-1892.95
-1892.94
-1895.21
-1895.21
-1897.46
-1897.46
-1899.71
-1899.7
-1901.94
-1901.93
-1904.17
-1904.16
-1906.4
-1906.39
-1908.64
-1908.63
-1910.87
-1910.86
-1913.12
-1913.11
-1915.37
-1915.36
-1917.63
-1917.62
-1919.9
-1919.89
-1922.19
-1922.17
-1924.49
-1924.47
-1926.8
-1926.78
-1929.13
-1929.11
-1931.47
-1931.46
-1933.84
-1933.82
-1936.21
-1936.2
-1938.61
-1938.59
-1941.03
-1941.01
-1943.48
-1943.45
-1945.98
-1945.94
-1948.57
-1948.53
-1951.94
-1951.91
560.488
559.839
352.702
352.619
264.777
264.7
234.468
234.409
214.286
214.279
197.362
197.367
183.725
183.755
172.407
172.479
162.579
162.671
153.863
153.946
146.045
146.124
138.98
139.056
132.562
132.62
126.698
126.73
121.311
121.322
116.336
116.338
111.724
111.723
107.434
107.43
103.424
103.422
99.6607
99.6643
96.1164
96.124
92.7666
92.7724
89.5841
89.5893
86.5462
86.5561
83.6382
83.6502
80.8455
80.854
78.1494
78.1563
75.5368
75.5442
72.9985
73.0039
70.5227
70.5263
68.0987
68.1029
65.7193
65.7246
63.377
63.3841
61.0645
61.0755
58.7765
58.7918
56.5088
56.5267
54.2568
54.2753
52.0149
52.0346
49.7783
49.802
47.5449
47.5727
45.3131
45.343
43.0798
43.1123
40.8427
40.8769
38.601
38.6335
36.352
36.3808
34.092
34.1192
31.8185
31.8486
29.5321
29.5654
27.2345
27.2662
24.9234
24.951
22.5958
22.6214
20.2512
20.2762
17.8892
17.9146
15.5103
15.5348
13.1147
13.1351
10.6988
10.7157
8.25523
8.27373
5.76321
5.78873
3.18255
3.21228
-0.175325
-0.152647
)
;
    }
}


// ************************************************************************* //
