/*--------------------------------*- C++ -*----------------------------------*\
  =========                 |
  \\      /  F ield         | OpenFOAM: The Open Source CFD Toolbox
   \\    /   O peration     | Website:  https://openfoam.org
    \\  /    A nd           | Version:  8
     \\/     M anipulation  |
\*---------------------------------------------------------------------------*/
FoamFile
{
    version     2.0;
    format      ascii;
    class       volScalarField;
    location    "900";
    object      p_rgh;
}
// * * * * * * * * * * * * * * * * * * * * * * * * * * * * * * * * * * * * * //

dimensions      [1 -1 -2 0 0 0 0];

internalField   nonuniform List<scalar> 
1200
(
560.528
352.742
264.818
234.509
214.326
197.402
183.766
172.447
162.619
153.903
146.084
139.018
132.599
126.736
121.348
116.372
111.76
107.469
103.459
99.6944
96.1491
92.798
89.6144
86.5751
83.6658
80.8717
78.1743
75.5605
73.021
70.5441
68.1191
65.7389
63.3957
61.0823
58.7935
56.525
54.2721
52.0295
49.7921
47.5579
45.3252
43.091
40.853
38.6104
36.3606
34.0998
31.8255
29.5384
27.24
24.9282
22.6
20.2547
17.8922
15.5128
13.1167
10.7005
8.25662
5.76426
3.18322
-0.175022
118.315
143.777
150.125
156.039
157.025
154.203
149.979
145.259
140.349
135.448
130.672
126.083
121.712
117.561
113.618
109.868
106.297
102.894
99.6417
96.5235
93.5298
90.6492
87.8669
85.1702
82.5527
80.0065
77.5199
75.0856
72.6983
70.3503
68.0349
65.7474
63.4825
61.235
59.0014
56.7791
54.5646
52.3539
50.1426
47.9298
45.7137
43.4905
41.2597
39.0217
36.7744
34.5145
32.2399
29.9517
27.6512
25.3366
23.005
20.6561
18.2896
15.9062
13.5061
11.0869
8.64333
6.16539
3.63813
0.940695
189.733
247.428
253.967
240.751
225.657
210.991
197.232
184.691
173.393
163.231
154.066
145.784
138.29
131.487
125.288
119.614
114.401
109.596
105.147
101.009
97.1452
93.5213
90.106
86.8714
83.797
80.8628
78.0481
75.3372
72.7171
70.1736
67.6953
65.2727
62.896
60.5569
58.2491
55.967
53.7049
51.4569
49.2173
46.9837
44.7528
42.5197
40.2834
38.0431
35.7961
33.5389
31.2691
28.9875
26.6949
24.3889
22.0666
19.7276
17.3717
14.9994
12.6105
10.204
7.77829
5.33635
2.90588
0.635954
190.225
212.571
205.929
188.238
174.392
164.112
155.506
148.056
141.562
135.779
130.515
125.659
121.147
116.928
112.958
109.205
105.644
102.256
99.0234
95.9282
92.955
90.0913
87.3245
84.6436
82.0403
79.5057
77.03
74.6064
72.2287
69.8893
67.5829
65.3047
63.0486
60.81
58.5856
56.372
54.1657
51.9627
49.7594
47.5546
45.3461
43.1315
40.9102
38.6814
36.4427
34.1915
31.9258
29.6465
27.3542
25.0467
22.7221
20.3799
18.0205
15.6442
13.251
10.8415
8.41679
5.98823
3.59567
1.42956
193.824
213.254
216.757
207.297
197.193
187.839
178.354
169.05
160.317
152.237
144.781
137.916
131.606
125.802
120.454
115.508
110.919
106.649
102.66
98.9184
95.3929
92.0573
88.8888
85.8663
82.9725
80.1908
77.5062
74.9066
72.3802
69.916
67.5057
65.1412
62.8139
60.517
58.2452
55.9933
53.7562
51.5288
49.3071
47.0887
44.8702
42.6484
40.4221
38.1897
35.9487
33.6965
31.4314
29.1536
26.8634
24.5582
22.2364
19.8975
17.542
15.1697
12.7805
10.3759
7.95904
5.5465
3.1923
1.13566
193.819
213.248
216.748
207.283
197.176
187.82
178.339
169.042
160.313
152.233
144.78
137.918
131.608
125.804
120.455
115.508
110.918
106.646
102.657
98.9145
95.3882
92.0518
88.8824
85.8596
82.9655
80.1833
77.4985
74.899
72.3724
69.9077
67.4972
65.1326
62.8053
60.5085
58.237
55.9853
53.748
51.5203
49.2985
47.0801
44.8614
42.6395
40.4133
38.1811
35.9402
33.6882
31.4241
29.1482
26.8597
24.556
22.2357
19.8987
17.5451
15.1745
12.7865
10.3829
7.96673
5.55434
3.19851
1.13756
190.213
212.563
205.926
188.236
174.387
164.1
155.487
148.044
141.549
135.758
130.494
125.64
121.126
116.903
112.932
109.179
105.619
102.232
98.9998
95.9061
92.9341
90.0708
87.3047
84.6252
82.0224
79.4871
77.0117
74.5891
72.2109
69.8706
67.5641
65.2861
63.0305
60.793
58.57
56.3576
54.1518
51.9488
49.7466
47.5435
45.336
43.1222
40.9016
38.6724
36.4322
34.1796
31.9142
29.6365
27.3453
25.0378
22.7135
20.3722
18.014
15.6382
13.2444
10.8338
8.40781
5.97751
3.58157
1.41232
189.704
247.386
253.916
240.703
225.611
210.943
197.2
184.684
173.395
163.227
154.064
145.787
138.287
131.476
125.271
119.593
114.379
109.573
105.125
100.989
97.1266
93.503
90.0886
86.8569
83.7844
80.8501
78.0365
75.3277
72.7074
70.1627
67.6843
65.2622
62.8863
60.5486
58.2424
55.9615
53.6994
51.4503
49.2114
46.9793
44.7493
42.5187
40.2859
38.0481
35.8023
33.5453
31.2768
28.9974
26.7054
24.3979
22.0744
19.7351
17.3795
15.0063
12.6151
10.206
7.77754
5.3332
2.8994
0.625911
118.283
143.754
150.086
155.991
156.971
154.139
149.922
145.219
140.311
135.403
130.633
126.054
121.684
117.531
113.587
109.837
106.268
102.865
99.614
96.4992
93.5074
90.6263
87.8441
85.1502
82.5342
79.9868
77.501
75.069
72.6814
70.3318
68.0165
65.73
63.4664
61.2211
58.9902
56.7704
54.5571
52.3466
50.1377
47.9285
45.7152
43.4965
41.2712
39.0374
36.7923
34.5334
32.2614
29.9769
27.6782
25.3629
23.0309
20.6827
18.3176
15.9343
13.5324
11.1107
8.66439
6.18362
3.65028
0.942842
560.459
352.746
264.804
234.494
214.314
197.386
183.764
172.468
162.643
153.918
146.103
139.045
132.624
126.755
121.364
116.389
111.778
107.489
103.482
99.7233
96.1823
92.8333
89.6526
86.6191
83.714
80.9207
78.226
75.6166
73.0782
70.6006
68.177
65.799
63.4583
61.148
58.8626
56.5972
54.3458
52.1037
49.8689
47.6385
45.4081
43.1758
40.9397
38.6973
36.4458
34.1836
31.9111
29.6276
27.3308
25.0182
22.6893
20.3449
17.9838
15.6047
13.2069
10.7883
8.342
5.84702
3.2586
-0.113882
559.879
352.659
264.74
234.449
214.319
197.408
183.795
172.519
162.711
153.986
146.163
139.094
132.658
126.768
121.359
116.374
111.759
107.465
103.456
99.6978
96.1565
92.8038
89.6195
86.5851
83.678
80.8803
78.1814
75.568
73.0265
70.5476
68.1233
65.7441
63.4027
61.0932
58.8086
56.5427
54.2905
52.049
49.8157
47.5857
45.3552
43.1236
40.8874
38.6431
36.3896
34.1272
31.8558
29.5719
27.2719
24.9561
22.6257
20.2799
17.9177
15.5374
13.1373
10.7175
8.27516
5.7898
3.21298
-0.152353
118.232
143.725
149.985
155.936
156.993
154.196
149.992
145.304
140.406
135.494
130.713
126.123
121.737
117.562
113.598
109.836
106.26
102.852
99.5969
96.4819
93.49
90.6068
87.8234
85.1305
82.5148
79.9656
77.478
75.0441
72.6547
70.3049
67.9893
65.7016
63.4372
61.1922
58.9615
56.7406
54.5258
52.3152
50.1073
47.8982
45.6845
43.4644
41.2361
38.9971
36.747
34.4865
32.2156
29.9312
27.6299
25.3122
22.9794
20.6308
18.2654
15.8816
13.4782
11.0557
8.61349
6.14268
3.6208
0.923379
189.607
247.1
253.54
240.391
225.415
210.836
197.14
184.654
173.39
163.239
154.087
145.819
138.323
131.508
125.294
119.611
114.393
109.582
105.127
100.987
97.1201
93.4925
90.0752
86.8432
83.77
80.8343
78.0199
75.3101
72.6892
70.1453
67.6674
65.2445
62.8683
60.5313
58.2254
55.9437
53.6805
51.4319
49.1947
46.9635
44.7346
42.5046
40.2706
38.0296
35.7805
33.5233
31.2574
28.9793
26.6859
24.3772
22.0543
19.716
17.3612
14.9883
12.5966
10.1867
7.7616
5.32586
2.90045
0.630381
190.136
212.46
205.823
188.187
174.413
164.171
155.568
148.118
141.616
135.817
130.547
125.693
121.177
116.945
112.961
109.199
105.632
102.238
98.998
95.8965
92.9197
90.0535
87.2865
84.6083
82.0072
79.4735
77.0004
74.5794
72.2029
69.8653
67.5602
65.2818
63.026
60.7886
58.5648
56.3503
54.1418
51.9374
49.7351
47.5311
45.3234
43.1116
40.8926
38.6636
36.4241
34.1739
31.9124
29.6362
27.3432
25.034
22.7096
20.3691
18.011
15.6346
13.2397
10.8274
8.40313
5.98044
3.59357
1.42729
193.738
213.128
216.575
207.13
197.104
187.815
178.35
169.045
160.311
152.232
144.783
137.932
131.631
125.828
120.474
115.523
110.93
106.654
102.655
98.9037
95.3713
92.0315
88.8609
85.8389
82.9459
80.1655
77.4838
74.8866
72.3623
69.9009
67.4921
65.1271
62.7996
60.5029
58.2304
55.9765
53.7368
51.5079
49.2864
47.0678
44.85
42.631
40.4069
38.1749
35.934
33.6838
31.4227
29.1476
26.8565
24.5504
22.2293
19.8924
17.5381
15.1658
12.7758
10.369
7.9525
5.54533
3.19655
1.13851
193.741
213.129
216.571
207.121
197.093
187.803
178.336
169.028
160.295
152.218
144.772
137.922
131.624
125.824
120.472
115.521
110.929
106.652
102.653
98.901
95.368
92.028
88.8571
85.8343
82.9408
80.1604
77.4784
74.8806
72.3561
69.8948
67.4858
65.1204
62.7925
60.4951
58.2218
55.9672
53.7271
51.498
49.2759
47.0566
44.8382
42.6185
40.3938
38.1616
35.9212
33.6719
31.4119
29.1381
26.8489
24.5452
22.2264
19.8916
17.5392
15.1689
12.7812
10.3765
7.96157
5.55481
3.20451
1.14225
190.145
212.468
205.831
188.192
174.416
164.173
155.563
148.097
141.585
135.787
130.514
125.657
121.145
116.92
112.942
109.183
105.619
102.227
98.9872
95.8853
92.9081
90.0424
87.2754
84.596
81.9941
79.4609
76.9875
74.5655
72.1893
69.8527
67.5478
65.2692
63.0132
60.7751
58.5503
56.3353
54.1273
51.9241
49.7221
47.518
45.311
43.0991
40.8792
38.6497
36.4103
34.1606
31.8987
29.6219
27.3293
25.0219
22.6989
20.359
18.0012
15.6256
13.2322
10.8212
8.39727
5.97286
3.58229
1.41318
189.618
247.081
253.511
240.359
225.385
210.811
197.11
184.612
173.349
163.207
154.056
145.786
138.296
131.489
125.281
119.602
114.387
109.578
105.124
100.983
97.1159
93.4893
90.0723
86.8384
83.7642
80.8293
78.0143
75.3028
72.6821
70.1395
67.6614
65.2378
62.8606
60.5219
58.2141
55.9308
53.6674
51.4195
49.1816
46.9491
44.72
42.4911
40.2586
38.0206
35.7757
33.522
31.2567
28.9776
26.6843
24.3774
22.0559
19.718
17.3629
14.9906
12.6006
10.1924
7.7677
5.33005
2.90114
0.627836
118.299
143.766
150.011
155.935
156.978
154.179
149.954
145.236
140.332
135.432
130.653
126.063
121.688
117.529
113.577
109.824
106.253
102.849
99.5956
96.4797
93.4873
90.6052
87.8217
85.1262
82.5089
79.9611
77.473
75.037
72.6487
70.3011
67.9861
65.6983
63.4337
61.1878
58.956
56.7344
54.5206
52.3121
50.1045
47.8948
45.6822
43.4642
41.2384
39.0033
36.7585
34.5025
32.2326
29.9474
27.6469
25.3321
23.0018
20.6542
18.2891
15.9065
13.5058
11.0854
8.64378
6.17024
3.64158
0.934584
559.878
352.659
264.736
234.434
214.304
197.399
183.774
172.479
162.673
153.964
146.146
139.079
132.654
126.78
121.384
116.407
111.798
107.509
103.502
99.7437
96.2027
92.8521
89.6689
86.6324
83.7247
80.9296
78.231
75.6164
73.0767
70.6012
68.1784
65.7997
63.4588
61.1491
58.8641
56.5982
54.3478
52.1092
49.8767
47.6467
45.4176
43.1862
40.9497
38.7065
36.4557
34.1968
31.9266
29.6423
27.344
25.0322
22.7054
20.3616
18.0007
15.6225
13.226
10.8092
8.36797
5.88003
3.29473
-0.0827964
)
;

boundaryField
{
    wall
    {
        type            fixedFluxPressure;
        gradient        nonuniform List<scalar> 
1200
(
129.915
16.64
25.1574
17.9291
17.2132
15.7188
13.7264
17.1328
-3.35366
116.104
16.7019
10.4771
65.6654
22.1528
25.0952
23.7594
19.0193
61.1423
-2.34629
17.4151
15.5309
28.0545
85.487
21.2303
36.4315
35.3528
19.0399
80.9855
14.9865
13.7409
11.8863
20.6511
71.9596
10.4088
33.5948
32.5778
8.87001
68.8556
11.118
11.8162
1.39644
6.55756
48.5374
-4.13582
17.8382
16.7179
-5.83991
45.3764
-1.32764
2.05304
-0.972808
1.54753
31.142
-11.7484
4.68915
3.4129
-14.7007
26.2683
-7.87368
-2.50828
-5.73085
-2.51783
18.4878
-12.3666
0.739991
0.630388
-15.3286
17.939
-6.31627
-2.01009
-14.4317
-8.92093
7.42375
-12.3306
0.988704
2.71882
-10.5475
14.4572
-3.3472
-2.08859
-18.336
-11.3595
0.610325
-10.7287
1.19615
3.58989
-7.33689
9.30414
-4.22487
-5.94214
-16.6714
-9.09213
-1.57009
-7.63262
1.09282
3.00965
-5.78867
4.08247
-5.67327
-9.27416
-15.8861
-8.13703
-4.17839
-6.36193
-0.383432
1.68433
-4.0641
1.76685
-3.96179
-8.5061
-15.3955
-7.96074
-6.9571
-6.67683
-3.06776
-0.691123
-3.3839
0.172932
-1.79938
-6.80158
-11.7808
-4.96723
-6.76954
-5.864
-5.07057
-3.18705
-3.85498
-1.86076
-0.807126
-6.01287
-6.55197
-0.154133
-4.16294
-3.47146
-5.22924
-4.12054
-3.54287
-2.71821
0.425776
-5.00916
-2.39105
4.05207
-1.19451
-0.602143
-3.95155
-3.35648
-1.98663
-2.16051
2.04033
-3.8601
-0.431581
6.35486
0.605543
1.26145
-2.9039
-2.63823
-0.833629
-1.82353
2.72477
-3.70342
0.285165
7.4961
1.60292
2.2717
-2.26209
-2.21872
-0.156476
-1.62703
2.95084
-3.87968
0.886274
8.58922
2.84288
3.52878
-1.05417
-1.1978
0.896104
-0.938249
3.32598
-3.86381
0.602235
8.96554
3.96858
5.05199
0.882872
0.640445
2.4965
0.175972
3.70423
-3.90023
-0.655893
8.34433
4.57993
6.30561
2.90086
2.66489
4.14757
1.32285
3.92107
-4.05869
-1.47933
7.97762
5.02845
7.06296
4.28847
4.01972
5.17547
2.13992
4.02512
-4.08428
-1.14543
8.47867
5.78105
7.57137
5.15163
4.74644
5.663
2.7504
4.22706
-3.76639
-1.02505
8.72695
6.16858
7.62212
5.57516
5.07369
5.84557
3.24362
4.47173
-3.29358
-2.00327
7.94572
5.66037
7.05991
5.4874
5.06388
5.83471
3.68639
4.78439
-2.70317
-2.44191
7.58395
5.39932
6.64062
5.34425
4.95694
5.68195
4.03371
5.03851
-2.18241
-1.74325
8.1635
5.71638
6.45694
5.08802
4.60242
5.25922
4.13152
5.11612
-1.83092
-1.43141
8.37688
5.65069
5.93222
4.50365
4.06158
4.86141
4.42044
5.56608
-1.04992
-1.52154
8.29767
5.42744
5.42268
4.0181
3.71394
4.73043
4.98544
6.35338
-0.00290753
-1.10438
8.7107
5.58961
5.18292
3.61635
3.27048
4.31663
5.04571
6.52425
0.265783
-0.716747
9.10503
5.67364
4.8325
3.03944
2.58598
3.57157
4.62518
6.12919
-0.138006
-0.825625
9.14097
5.58652
4.55788
2.72726
2.28712
3.24697
4.56091
6.04814
-0.295433
-1.01882
9.1907
5.6432
4.59381
2.82643
2.44359
3.36886
4.87431
6.31897
-0.152386
-1.37302
9.08791
5.55773
4.53407
2.8526
2.54892
3.45076
5.11517
6.52364
-0.103599
-2.1427
8.58566
5.15107
4.28035
2.79098
2.65336
3.55959
5.3161
6.64187
-0.19848
-2.995
8.01085
4.76334
4.16155
2.93818
3.01286
3.90861
5.65454
6.83685
-0.274886
-3.52817
7.72285
4.66696
4.33039
3.32842
3.58386
4.44487
6.13126
7.19308
-0.194452
-3.65426
7.80507
4.90312
4.76642
3.86156
4.16928
4.88168
6.39305
7.31002
-0.371012
-3.8791
7.76204
5.00004
5.04009
4.16391
4.43728
4.9155
6.15373
6.89277
-1.08133
-4.71007
7.09448
4.53937
4.86103
4.12735
4.49875
4.88854
5.96587
6.64195
-1.54469
-5.55921
6.34972
4.03718
4.70255
4.16291
4.69569
5.076
6.04746
6.73067
-1.62363
-5.9975
5.85527
3.65596
4.54829
4.04132
4.64201
4.98694
5.85521
6.58641
-1.89707
-6.52313
5.2219
3.03199
3.98656
3.47186
4.19155
4.62277
5.52893
6.44183
-2.08711
-6.90562
4.72974
2.56328
3.53829
3.04274
3.91948
4.48129
5.45017
6.56343
-2.00759
-6.57768
4.90996
2.698
3.5593
2.98337
3.91951
4.54285
5.52122
6.80777
-1.82862
-5.82325
5.47223
3.11708
3.73055
2.95276
3.81087
4.40275
5.33461
6.76137
-1.95817
-5.52229
5.59569
3.12046
3.52874
2.56889
3.29009
3.81031
4.66329
6.17851
-2.64028
-6.10117
4.8565
2.33496
2.70598
1.73924
2.45255
3.10919
4.03769
5.7405
-3.09554
-6.73883
4.08197
1.61665
2.05734
1.21339
2.03058
2.93307
3.98205
5.89311
-2.93934
-6.4248
4.24169
1.79417
2.21329
1.38386
2.17235
3.20041
4.23523
6.26251
-2.61753
-5.61198
4.85905
2.3122
2.54474
1.57032
2.17519
3.19936
4.10388
6.17022
-2.79301
-5.19676
5.09528
2.45507
2.50583
1.41987
1.87808
2.92959
3.71915
5.82909
-3.20501
-5.06508
5.03547
2.29023
2.1623
1.0209
1.43601
2.64581
3.44977
5.71335
-3.31756
-5.14703
4.82145
2.08531
1.89099
0.781861
1.20001
2.56624
3.33973
5.70951
-3.34043
-4.95607
4.90193
2.19356
1.91712
0.782262
1.11456
2.53112
3.17141
5.57082
-3.53012
-4.13902
5.56695
2.76543
2.25541
0.941153
1.06545
2.44514
2.92024
5.34593
-3.78582
-3.40316
6.24547
3.45195
2.81334
1.37698
1.28
2.52905
2.73276
5.07431
-4.13385
-3.7188
5.96228
3.32553
2.72154
1.29575
1.03284
2.11272
1.98905
4.14411
-5.16068
-5.12029
4.53662
2.08548
1.54655
0.220286
-0.0954342
0.932104
0.647822
2.69521
-6.57164
-5.96535
3.45877
1.07095
0.403531
-0.867934
-1.20984
-0.147204
-0.336591
1.75513
-7.20262
-4.5409
3.46001
1.10365
0.441776
-0.584762
-0.946903
-0.175151
-0.377555
1.66277
-6.19922
-129.915
-16.64
-25.1574
-17.9291
-17.2132
-15.7188
-13.7264
-17.1328
3.35366
-116.104
-16.7012
-10.4766
-65.6652
-22.1527
-25.0953
-23.7595
-19.0194
-61.1424
2.3462
-17.4156
-15.5282
-28.0521
-85.4863
-21.2302
-36.4317
-35.3533
-19.0403
-80.9858
-14.9862
-13.7412
-11.8822
-20.6468
-71.9581
-10.4081
-33.5947
-32.5781
-8.87022
-68.8558
-11.1167
-11.815
-1.39284
-6.55219
-48.5347
4.1379
-17.8363
-16.7165
5.84096
-45.376
1.32891
-2.05333
0.974913
-1.54211
-31.1386
11.7516
-4.68547
-3.40977
14.7027
-26.2676
7.87439
2.50597
5.7331
2.52338
-18.4841
12.3698
-0.735935
-0.627029
15.3306
-17.9385
6.31644
2.00706
14.4361
8.92718
-7.41978
12.3333
-0.98547
-2.71649
10.5488
-14.4572
3.34709
2.08619
18.3423
11.3664
-0.606316
10.731
-1.19409
-3.58884
7.33734
-9.30452
4.22492
5.94124
16.6777
9.09902
1.57382
7.63448
-1.09165
-3.00948
5.78856
-4.08295
5.67365
9.27467
15.891
8.14353
4.18171
6.36353
0.384217
-1.68447
4.0638
-1.76735
3.96228
8.50693
15.3982
7.96666
6.96003
6.67842
3.06862
0.69117
3.3837
-0.173419
1.79972
6.8017
11.7807
4.97233
6.772
5.86566
5.07173
3.18757
3.85514
1.8604
0.807268
6.012
6.54875
0.158256
4.16483
3.47312
5.23069
4.12156
3.54346
2.71802
-0.425794
5.00744
2.38517
-4.04884
1.19584
0.603732
3.95315
3.35784
1.98752
2.16046
-2.04045
3.85791
0.423964
-6.3523
-0.604659
-1.25999
2.90548
2.63972
0.834649
1.82358
-2.72488
3.70137
-0.293575
-7.49396
-1.60236
-2.27043
2.26351
2.22017
0.157497
1.62715
-2.95083
3.87828
-0.89472
-8.58731
-2.84255
-3.52774
1.05531
1.19906
-0.895214
0.938405
-3.32581
3.86335
-0.610095
-8.9637
-3.96841
-5.05122
-0.882129
-0.63951
-2.49583
-0.175816
-3.70386
3.90085
0.649113
-8.34244
-4.57984
-6.30513
-2.90056
-2.66434
-4.14719
-1.32271
-3.9205
4.0604
1.47375
-7.97564
-5.02838
-7.06272
-4.28857
-4.01954
-5.17535
-2.13981
-4.02438
4.08681
1.14075
-8.47663
-5.78096
-7.57129
-5.15202
-4.74651
-5.66306
-2.75031
-4.22622
3.76931
1.02092
-8.72488
-6.16846
-7.62213
-5.5757
-5.07391
-5.84574
-3.24356
-4.47089
3.29641
1.9995
-7.94362
-5.66017
-7.05992
-5.48798
-5.06414
-5.83493
-3.68637
-4.78361
2.7055
2.43826
-7.58185
-5.39905
-6.64056
-5.34478
-4.95715
-5.68216
-4.03374
-5.03786
2.18391
1.73939
-8.16146
-5.71603
-6.45677
-5.08842
-4.60251
-5.25938
-4.13159
-5.11565
1.83138
1.42715
-8.37493
-5.65029
-5.93192
-4.50386
-4.06151
-4.86148
-4.42057
-5.56583
1.04919
1.51685
-8.29581
-5.42697
-5.42221
-4.0181
-3.71367
-4.73042
-4.98565
-6.35336
0.000931725
1.09931
-8.70892
-5.58908
-5.18231
-3.61615
-3.27003
-4.31654
-5.04599
-6.52446
-0.268882
0.711352
-9.10333
-5.67307
-4.83177
-3.03905
-2.58538
-3.57142
-4.62553
-6.1296
0.134041
0.820109
-9.13932
-5.58591
-4.55705
-2.72674
-2.28642
-3.24679
-4.56133
-6.04873
0.290852
1.01343
-9.18905
-5.64255
-4.59291
-2.82584
-2.44286
-3.36871
-4.87481
-6.3197
0.147409
1.36797
-9.08622
-5.55703
-4.53313
-2.85199
-2.54821
-3.45066
-5.11576
-6.52449
0.0984541
2.13819
-8.58389
-5.15032
-4.27941
-2.79039
-2.65272
-3.55959
-5.31677
-6.6428
0.193389
2.9912
-8.00898
-4.76254
-4.16061
-2.93765
-3.01233
-3.90873
-5.65527
-6.83783
0.270034
3.52513
-7.72085
-4.66612
-4.32949
-3.32798
-3.58347
-4.44512
-6.13206
-7.1941
0.189971
3.65198
-7.80295
-4.90225
-4.76558
-3.86123
-4.16904
-4.88206
-6.39389
-7.31105
0.366989
3.87752
-7.75981
-4.99915
-5.03932
-4.16369
-4.43718
-4.91599
-6.15459
-6.8938
1.07783
4.70913
-7.09213
-4.53847
-4.86033
-4.12724
-4.49878
-4.88914
-5.96674
-6.64296
1.54171
5.55878
-6.34727
-4.03626
-4.70191
-4.16288
-4.69583
-5.07668
-6.04832
-6.73166
1.62106
5.99739
-5.85274
-3.65504
-4.54769
-4.04136
-4.64222
-4.98768
-5.85606
-6.58741
1.89482
6.5231
-5.21933
-3.03106
-3.98599
-3.47192
-4.1918
-4.62354
-5.52975
-6.44283
2.08507
6.90546
-4.72715
-2.56236
-3.53771
-3.0428
-3.91973
-4.48206
-5.45096
-6.56445
2.00568
6.57716
-4.90739
-2.69711
-3.55872
-2.98341
-3.91974
-4.54362
-5.52198
-6.80881
1.82676
5.82214
-5.46973
-3.11622
-3.72995
-2.95277
-3.81105
-4.40349
-5.33533
-6.76243
1.95636
5.52044
-5.59328
-3.11965
-3.52811
-2.56885
-3.29021
-3.81101
-4.66395
-6.17958
2.63855
6.09854
-4.85418
-2.33419
-2.70532
-1.73913
-2.45259
-3.10984
-4.03829
-5.74158
3.09391
6.7354
-4.07974
-1.61592
-2.05664
-1.21322
-2.03053
-2.93367
-3.98261
-5.8942
2.9378
6.42049
-4.23956
-1.79349
-2.21256
-1.38365
-2.17223
-3.20096
-4.23574
-6.2636
2.61609
5.60669
-4.85705
-2.31157
-2.54399
-1.57006
-2.175
-3.19986
-4.10433
-6.17131
2.79176
5.19049
-5.0934
-2.4545
-2.50507
-1.41958
-1.87782
-2.93005
-3.71954
-5.83015
3.20404
5.05786
-5.03372
-2.28973
-2.16154
-1.02058
-1.43567
-2.64623
-3.4501
-5.71438
3.31692
5.13894
-4.81982
-2.08487
-1.89023
-0.781514
-1.19961
-2.56662
-3.33999
-5.71051
3.34016
4.94721
-4.90041
-2.19318
-1.91637
-0.78191
-1.11412
-2.53147
-3.17161
-5.57177
3.53031
4.12945
-5.56553
-2.76512
-2.25469
-0.940813
-1.06498
-2.44547
-2.92037
-5.3468
3.78655
3.39298
-6.24415
-3.45171
-2.81267
-1.37667
-1.27952
-2.52935
-2.73283
-5.07511
4.13519
3.70821
-5.96105
-3.32536
-2.72092
-1.29549
-1.03236
-2.11301
-1.98905
-4.14481
5.16271
5.1095
-4.53545
-2.08536
-1.54599
-0.220065
0.0959073
-0.932379
-0.647751
-2.69581
6.57441
5.95445
-3.45763
-1.07087
-0.403015
0.868112
1.2103
0.146945
0.336726
-1.75564
7.20609
4.52988
-3.4589
-1.10361
-0.44131
0.584889
0.947347
0.174898
0.377741
-1.6632
6.20328
)
;
        value           nonuniform List<scalar> 
1200
(
560.853
118.356
189.796
190.27
193.867
193.859
190.247
189.747
118.274
560.749
352.784
143.803
247.592
212.626
213.317
213.307
212.611
247.539
143.748
352.79
264.856
150.195
254.181
205.982
216.849
216.836
205.974
254.119
150.123
264.839
234.538
156.09
240.931
188.265
207.381
207.365
188.259
240.875
156.018
234.523
214.33
157.042
225.779
174.381
197.238
197.218
174.372
225.725
156.968
214.319
197.4
154.207
211.069
164.083
187.851
187.829
164.063
211.008
154.12
197.38
183.752
149.973
197.278
155.475
178.355
178.34
155.448
197.244
149.907
183.759
172.411
145.237
184.709
148.025
169.052
169.049
148.018
184.72
145.211
172.463
162.573
140.321
173.394
141.536
160.32
160.322
141.53
173.419
140.3
162.629
153.861
135.426
163.227
135.76
152.24
152.241
135.744
163.238
135.389
153.895
146.044
130.652
154.056
130.499
144.78
144.784
130.484
154.069
130.623
146.082
138.979
126.063
145.767
125.643
137.909
137.917
125.632
145.787
126.049
139.028
132.57
121.7
138.273
121.133
131.593
131.6
121.116
138.282
121.682
132.609
126.719
117.561
131.477
116.919
125.789
125.794
116.894
131.469
117.532
126.742
121.341
113.628
125.285
112.957
120.444
120.447
112.927
125.265
113.592
121.355
116.371
109.884
119.615
109.208
115.501
115.502
109.177
119.589
109.844
116.38
111.761
106.316
114.405
105.649
110.914
110.913
105.618
114.375
106.275
111.769
107.472
102.916
109.603
102.265
106.646
106.643
102.234
109.57
102.874
107.48
103.461
99.6641
105.157
99.036
102.662
102.658
99.006
105.125
99.6233
103.473
99.6929
96.5444
101.021
95.9439
98.9256
98.9211
95.9164
100.992
96.5091
99.7132
96.1454
93.5498
97.1578
92.9727
95.4035
95.3982
92.947
97.1319
93.5175
96.1721
92.7952
90.6704
93.5358
90.1102
92.0702
92.0636
90.0849
93.5099
90.6369
92.8239
89.6118
87.8888
90.1215
87.3436
88.9027
88.8951
87.3193
90.0967
87.8553
89.6443
86.5701
85.1901
86.8856
84.6613
85.88
85.8723
84.6398
86.8661
85.1621
86.6122
83.6597
82.5716
83.8105
82.0569
82.9859
82.978
82.0367
83.7945
82.5467
83.7084
80.8673
80.0269
80.8771
79.5219
80.2036
80.1949
79.5003
80.8603
79.9995
80.9159
78.1707
77.5409
78.0623
77.0449
77.5176
77.5088
77.0239
78.0475
77.5148
78.2232
75.5567
75.1063
75.3508
74.6201
74.9167
74.9084
74.6009
75.3402
75.0848
75.6164
73.0182
72.7201
72.7311
72.2417
72.3893
72.3806
72.2217
72.72
72.6976
73.0787
70.5423
70.3731
70.1879
69.9015
69.9237
69.9142
69.8795
70.1742
70.3471
70.6002
68.1171
68.0578
67.7093
67.5944
67.5125
67.5029
67.5721
67.6957
68.0316
68.1762
65.7364
65.7705
65.2868
65.3162
65.1483
65.1387
65.2945
65.2744
65.7458
65.7986
63.3924
63.5053
62.91
63.06
62.821
62.8116
63.0391
62.899
63.4827
63.4581
61.0771
61.2565
60.5699
60.8207
60.5239
60.5151
60.8018
60.5618
61.2376
61.1476
58.7861
59.0216
58.2611
58.596
58.2525
58.2445
58.5797
58.2565
59.0073
58.862
56.5162
56.7985
55.9787
56.3828
56.0015
55.9941
56.3687
55.9768
56.7884
56.5968
54.2631
54.5842
53.7172
54.1776
53.7658
53.7584
54.164
53.7153
54.5754
54.345
52.0199
52.3733
51.4694
51.9753
51.5392
51.5313
51.961
51.4657
52.3638
52.101
49.7803
50.1605
49.2287
49.7716
49.3174
49.3097
49.7588
49.2263
50.1543
49.8651
47.544
47.9458
46.9938
47.5664
47.0991
47.0918
47.5561
46.9944
47.9453
47.6345
45.3102
45.7284
44.762
45.3575
44.8803
44.873
45.3484
44.7639
45.7316
45.4034
43.0747
43.5036
42.5273
43.1415
42.657
42.65
43.1338
42.5325
43.5126
43.1706
40.8357
41.2716
40.2898
40.9191
40.4297
40.4231
40.9128
40.2995
41.2876
40.9347
38.5939
39.0339
38.0498
38.6903
38.1972
38.191
38.6838
38.062
39.0544
38.6928
36.346
36.788
35.8039
36.452
35.9561
35.9497
36.4433
35.8157
36.8092
36.441
34.0859
34.5285
33.5467
34.2003
33.703
33.6965
34.1891
33.5569
34.5488
34.177
31.8101
32.252
31.2749
31.9326
31.4357
31.4303
31.922
31.287
32.2757
31.9033
29.5214
29.9618
28.9915
29.6516
29.1567
29.1533
29.6439
29.0074
29.9916
29.6202
27.2238
27.6618
26.6994
27.3597
26.8669
26.8652
27.3533
26.716
27.6938
27.3243
24.9141
25.3487
24.3946
25.0531
24.5621
24.5615
25.0459
24.4082
25.3783
25.0112
22.5869
23.0177
22.0727
22.7284
22.2399
22.2405
22.7208
22.0838
23.0455
22.6814
20.242
20.6686
19.7332
20.3853
19.9
19.9023
20.3788
19.7438
20.697
20.3367
17.8792
18.3016
17.3769
18.0252
17.5439
17.5481
18.0204
17.3879
18.3319
17.9756
15.5003
15.9184
15.0048
15.649
15.1717
15.1773
15.6445
15.0143
15.9483
15.596
13.1063
13.52
12.6173
13.2566
12.7829
12.7892
13.2505
12.6225
13.5458
13.1975
10.692
11.1025
10.2126
10.8485
10.3793
10.3861
10.8402
10.2129
11.1234
10.7781
8.24731
8.65822
7.78657
8.42356
7.96224
7.96932
8.4131
7.78257
8.67482
8.3292
5.75145
6.17672
5.34152
5.99206
5.54701
5.5541
5.97985
5.33488
6.19041
5.83067
3.16829
3.64675
2.90851
3.59663
3.19008
3.19546
3.58119
2.8986
3.65472
3.24066
-0.186371
0.949335
0.638678
1.43063
1.13415
1.13517
1.41187
0.624991
0.947033
-0.129334
559.554
118.19
189.544
190.091
193.695
193.701
190.11
189.576
118.308
559.588
352.617
143.698
246.935
212.405
213.066
213.069
212.421
246.928
143.771
352.616
264.701
149.914
253.326
205.77
216.484
216.483
205.783
253.309
149.973
264.701
234.42
155.884
240.211
188.16
207.045
207.039
188.17
240.187
155.907
234.405
214.316
156.976
225.294
174.423
197.06
197.051
174.43
225.271
156.981
214.299
197.41
154.192
210.758
164.2
187.804
187.795
164.21
210.746
154.198
197.405
183.809
149.998
197.093
155.599
178.348
178.334
155.602
197.065
149.97
183.779
172.555
145.327
184.635
148.149
169.042
169.022
148.123
184.576
145.244
172.484
162.757
140.434
173.388
141.643
160.308
160.286
141.604
173.326
140.343
162.688
154.028
135.517
163.243
135.836
152.229
152.211
135.802
163.197
135.446
153.987
146.203
130.733
154.097
130.563
144.784
144.768
130.524
154.051
130.663
146.167
139.133
126.143
145.836
125.71
137.939
137.923
125.666
145.785
126.067
139.096
132.688
121.75
138.34
121.191
131.644
131.632
121.155
138.301
121.691
132.67
126.785
117.563
131.519
116.954
125.842
125.835
116.929
131.496
117.528
126.793
121.365
113.588
125.297
112.963
120.484
120.48
112.947
125.287
113.572
121.393
116.375
109.82
119.609
109.196
115.53
115.528
109.186
119.607
109.817
116.417
111.758
106.241
114.389
105.627
110.936
110.935
105.62
114.391
106.246
111.807
107.463
102.83
109.575
102.23
106.657
106.655
102.225
109.58
102.84
107.518
103.454
99.5745
105.117
98.9855
102.653
102.652
98.981
105.123
99.5862
103.512
99.6993
96.461
100.975
95.8808
98.8966
98.8945
95.875
100.979
96.4698
99.7538
96.1601
93.47
97.1075
92.902
95.3606
95.358
92.8953
97.1105
93.4772
96.2129
92.8066
90.5856
93.478
90.0345
92.0187
92.0162
90.0283
93.4824
90.5946
92.8616
89.622
87.8015
90.0598
87.2674
88.847
88.8444
87.2608
90.0643
87.8106
89.6772
86.5901
85.1106
86.829
84.5907
85.8251
85.8216
84.5814
86.8292
85.1143
86.6393
83.6841
82.4958
83.7565
81.9905
82.9324
82.9284
81.9798
83.7542
82.4964
83.7303
80.8847
79.9452
80.8199
79.4573
80.1527
80.1489
79.4477
80.819
79.9484
80.9343
78.185
77.4571
78.0057
76.9855
77.4725
77.4681
76.9753
78.0033
77.4591
78.2338
75.5719
75.0233
75.2965
74.5658
74.8765
74.8712
74.5536
75.2903
75.0212
75.6165
73.0293
72.633
72.6752
72.1899
72.3531
72.3479
72.1785
72.6695
72.6324
73.0761
70.5494
70.2821
70.1311
69.8531
69.8933
69.8883
69.8438
70.128
70.2858
70.6016
68.1253
67.9664
67.6534
67.5488
67.4853
67.48
67.5397
67.6501
67.9711
68.1791
65.7466
65.6786
65.2304
65.2703
65.12
65.1143
65.2608
65.2256
65.6826
65.8001
63.4061
63.4144
62.8544
63.0146
62.7925
62.7861
63.0046
62.8479
63.4175
63.4591
61.0984
61.1706
60.5183
60.7779
60.496
60.4886
60.7663
60.5087
61.1712
61.1495
58.816
58.9414
58.2134
58.5544
58.2231
58.2144
58.5406
58.2
58.9389
58.8647
56.5515
56.7212
55.932
56.3395
55.9683
55.9583
56.3242
55.9155
56.7164
56.5987
54.2996
54.5062
53.6682
54.1299
53.7272
53.7167
54.1152
53.6514
54.5023
54.3486
52.0586
52.2957
51.4194
51.9249
51.4976
51.4869
51.9119
51.4042
52.2949
52.1118
49.8274
50.0895
49.1833
49.723
49.2761
49.2647
49.7099
49.1667
50.0879
49.8805
47.5996
47.8822
46.9534
47.5194
47.0575
47.0449
47.5054
46.934
47.878
47.6507
45.3702
45.6699
44.7254
45.312
44.8399
44.8266
45.2986
44.7054
45.6658
45.4223
43.1399
43.4513
42.497
43.1017
42.6223
42.6081
43.0876
42.4772
43.4482
43.1914
40.9047
41.2243
40.2642
40.8837
40.3993
40.3839
40.868
40.245
41.222
40.9547
38.6597
38.9849
38.0229
38.6547
38.1674
38.1518
38.6384
38.0067
38.9863
38.711
36.4042
36.7333
35.7727
36.4147
35.9266
35.9116
36.3992
35.7623
36.7416
36.4605
34.1411
34.4725
33.5155
34.165
33.6773
33.6636
34.151
33.5103
34.487
34.2034
31.8711
32.2035
31.2515
31.9056
31.4183
31.4057
31.8909
31.2466
32.2183
31.9343
29.5888
29.921
28.9753
29.6311
29.1445
29.133
29.6146
28.9676
29.9326
29.6496
27.2881
27.6194
26.6814
27.3376
26.853
26.8434
27.3213
26.6736
27.6312
27.3505
24.9702
25.3001
24.3715
25.0277
24.5464
24.5397
25.0139
24.3671
25.3166
25.0391
22.6388
22.9668
22.0482
22.7033
22.2257
22.2217
22.6915
22.0465
22.9872
22.7134
20.2926
20.6183
19.7104
20.3637
19.8898
19.8879
20.3523
19.7093
20.6399
20.3699
17.9306
18.2534
17.356
18.0063
17.5361
17.5361
17.9948
17.3545
18.2748
18.0089
15.5499
15.8694
14.9829
15.6298
15.1638
15.1661
15.6192
14.9826
15.8926
15.6312
13.1477
13.4643
12.5897
13.2341
12.7735
12.7785
13.2261
12.5933
13.4924
13.2353
10.726
11.0401
10.1781
10.8204
10.3656
10.3733
10.8149
10.1855
11.0727
10.8194
8.28444
8.5986
7.75333
8.39636
7.94929
7.95898
8.39197
7.76266
8.63335
8.38078
5.80259
6.13136
5.32068
5.97661
5.54482
5.55505
5.97052
5.32838
6.16344
5.89638
3.22788
3.61218
2.89782
3.59261
3.19878
3.20756
3.58267
2.90195
3.63715
3.31268
-0.141031
0.914742
0.627656