/*--------------------------------*- C++ -*----------------------------------*\
  =========                 |
  \\      /  F ield         | OpenFOAM: The Open Source CFD Toolbox
   \\    /   O peration     | Website:  https://openfoam.org
    \\  /    A nd           | Version:  8
     \\/     M anipulation  |
\*---------------------------------------------------------------------------*/
FoamFile
{
    version     2.0;
    format      ascii;
    class       volScalarField;
    location    "700";
    object      k;
}
// * * * * * * * * * * * * * * * * * * * * * * * * * * * * * * * * * * * * * //

dimensions      [0 2 -2 0 0 0 0];

internalField   nonuniform List<scalar> 
1200
(
0.0505472
0.0428478
0.0369112
0.0322398
0.0284973
0.0254525
0.0229421
0.0208479
0.0190827
0.0175807
0.016292
0.0151778
0.0142077
0.0133579
0.0126091
0.0119458
0.0113554
0.0108276
0.0103537
0.00992654
0.00954023
0.00918967
0.00887057
0.00857927
0.00831263
0.00806794
0.00784286
0.00763536
0.00744367
0.00726622
0.00710165
0.00694875
0.00680646
0.00667383
0.00655
0.00643424
0.00632587
0.00622427
0.00612891
0.00603929
0.00595497
0.00587555
0.00580066
0.00572996
0.00566316
0.00559998
0.00554017
0.00548349
0.00542973
0.0053787
0.00533022
0.00528412
0.00524025
0.00519846
0.00515863
0.00512064
0.00508438
0.00504973
0.00501662
0.00498493
0.0434539
0.0320527
0.0244795
0.0192386
0.0154836
0.0127111
0.0106114
0.00898661
0.00770563
0.00667913
0.00584472
0.00515781
0.00458594
0.00410504
0.00369696
0.00334784
0.00304694
0.00278584
0.00255788
0.00235773
0.00218107
0.0020244
0.00188483
0.00175999
0.0016479
0.00154688
0.00145554
0.0013727
0.00129735
0.00122862
0.00116577
0.00110816
0.00105523
0.00100649
0.000961529
0.000919968
0.000881482
0.000845781
0.000812611
0.000781739
0.000752965
0.000726106
0.000701003
0.000677509
0.000655495
0.000634843
0.000615449
0.000597214
0.000580052
0.000563884
0.000548637
0.000534245
0.000520648
0.00050779
0.000495621
0.000484094
0.00047316
0.000462752
0.000452749
0.000442174
0.0434334
0.0319432
0.0243158
0.0190352
0.0152511
0.0124596
0.0103484
0.00871754
0.00743416
0.00640787
0.00557544
0.00489174
0.00432387
0.00384745
0.00344413
0.00309989
0.00280388
0.00254761
0.00232436
0.00212875
0.00195646
0.00180396
0.00166837
0.00154731
0.00143879
0.00134115
0.001253
0.00117316
0.00110064
0.00103456
0.000974198
0.000918915
0.000868163
0.000821464
0.0007784
0.000738608
0.000701766
0.000667592
0.000635838
0.000606285
0.000578737
0.000553017
0.000528969
0.000506453
0.000485342
0.000465522
0.000446892
0.000429359
0.000412839
0.000397257
0.000382543
0.000368635
0.000355476
0.000343013
0.000331198
0.000319988
0.000309342
0.000299222
0.00028959
0.000280389
0.0434334
0.0319682
0.0243515
0.0190751
0.0152907
0.0124965
0.0103817
0.00874695
0.0074599
0.00643025
0.00559486
0.00490857
0.00433846
0.00386012
0.00345515
0.00310948
0.00281225
0.00255492
0.00233075
0.00213436
0.00196138
0.00180829
0.00167217
0.00155065
0.00144172
0.00134373
0.00125527
0.00117515
0.00110238
0.00103608
0.000975516
0.000920055
0.000869143
0.000822299
0.000779105
0.000739194
0.000702245
0.000667974
0.000636129
0.00060649
0.000578859
0.000553058
0.000528933
0.00050634
0.000485155
0.000465264
0.000446563
0.000428961
0.000412373
0.000396724
0.000381944
0.000367971
0.000354748
0.000342221
0.000330344
0.000319071
0.000308364
0.000298185
0.000288501
0.000279279
0.0434334
0.0319683
0.024348
0.019069
0.015283
0.0124882
0.0103735
0.00873926
0.00745291
0.00642403
0.0055894
0.00490381
0.00433434
0.00385656
0.00345208
0.00310684
0.00280997
0.00255296
0.00232907
0.0021329
0.00196012
0.0018072
0.00167124
0.00154984
0.00144102
0.00134313
0.00125475
0.0011747
0.00110199
0.00103574
0.000975229
0.000919809
0.000868933
0.00082212
0.000778953
0.000739066
0.000702138
0.000667885
0.000636057
0.000606432
0.000578813
0.000553024
0.000528907
0.000506324
0.000485146
0.000465261
0.000446566
0.000428968
0.000412385
0.000396739
0.000381963
0.000367992
0.000354771
0.000342246
0.00033037
0.000319099
0.000308393
0.000298215
0.00028853
0.000279309
0.0434334
0.0319683
0.024348
0.019069
0.015283
0.0124882
0.0103735
0.00873927
0.00745292
0.00642404
0.00558941
0.00490382
0.00433435
0.00385657
0.00345208
0.00310685
0.00280998
0.00255296
0.00232907
0.0021329
0.00196013
0.0018072
0.00167124
0.00154984
0.00144102
0.00134313
0.00125475
0.0011747
0.00110199
0.00103574
0.000975228
0.000919808
0.000868931
0.000822119
0.000778952
0.000739065
0.000702137
0.000667883
0.000636055
0.00060643
0.000578811
0.000553022
0.000528906
0.000506322
0.000485144
0.000465259
0.000446564
0.000428966
0.000412383
0.000396737
0.000381961
0.000367991
0.000354769
0.000342244
0.000330368
0.000319097
0.000308391
0.000298213
0.000288529
0.000279307
0.0434334
0.0319682
0.0243515
0.0190751
0.0152907
0.0124965
0.0103817
0.00874694
0.00745989
0.00643025
0.00559486
0.00490857
0.00433846
0.00386012
0.00345515
0.00310948
0.00281225
0.00255492
0.00233075
0.00213436
0.00196138
0.00180828
0.00167217
0.00155065
0.00144172
0.00134373
0.00125526
0.00117515
0.00110237
0.00103607
0.000975514
0.000920053
0.000869141
0.000822297
0.000779103
0.000739192
0.000702242
0.000667971
0.000636127
0.000606487
0.000578856
0.000553055
0.000528929
0.000506337
0.000485152
0.00046526
0.000446559
0.000428957
0.000412369
0.000396719
0.000381939
0.000367966
0.000354742
0.000342215
0.000330337
0.000319065
0.000308357
0.000298178
0.000288493
0.000279271
0.0434334
0.0319432
0.0243158
0.0190352
0.0152512
0.0124596
0.0103485
0.00871756
0.00743418
0.00640788
0.00557545
0.00489174
0.00432387
0.00384745
0.00344414
0.00309989
0.00280388
0.00254761
0.00232436
0.00212875
0.00195646
0.00180396
0.00166837
0.00154731
0.00143879
0.00134115
0.001253
0.00117316
0.00110064
0.00103456
0.000974196
0.000918913
0.000868161
0.000821461
0.000778397
0.000738604
0.000701762
0.000667588
0.000635833
0.000606275
0.000578718
0.000552986
0.000528923
0.000506389
0.000485258
0.000465416
0.000446764
0.00042921
0.00041267
0.000397067
0.000382334
0.000368408
0.00035523
0.000342749
0.000330916
0.000319689
0.000309025
0.000298888
0.000289237
0.000280028
0.0434539
0.0320528
0.0244796
0.0192387
0.0154838
0.0127113
0.0106117
0.00898699
0.00770609
0.00667966
0.0058453
0.00515845
0.00458662
0.00410574
0.00369767
0.00334855
0.00304764
0.00278653
0.00255855
0.00235838
0.0021817
0.002025
0.00188541
0.00176055
0.00164843
0.00154739
0.00145604
0.00137318
0.0012978
0.00122905
0.00116618
0.00110855
0.00105559
0.00100683
0.000961846
0.000920261
0.000881752
0.00084603
0.000812838
0.00078195
0.000753162
0.000726295
0.000701186
0.00067769
0.000655677
0.000635028
0.000615634
0.000597401
0.00058024
0.000564072
0.000548824
0.000534432
0.000520836
0.00050798
0.000495814
0.000484289
0.000473358
0.000462951
0.000452946
0.00044234
0.0505472
0.0428478
0.0369111
0.0322397
0.0284972
0.0254523
0.0229419
0.0208478
0.0190825
0.0175806
0.0162918
0.0151776
0.0142076
0.0133578
0.012609
0.0119457
0.0113553
0.0108275
0.0103536
0.00992645
0.00954014
0.00918959
0.00887049
0.0085792
0.00831256
0.00806787
0.0078428
0.0076353
0.00744361
0.00726616
0.0071016
0.0069487
0.00680641
0.00667378
0.00654996
0.0064342
0.00632582
0.00622423
0.00612886
0.00603925
0.00595493
0.0058755
0.00580061
0.00572992
0.00566312
0.00559994
0.00554012
0.00548344
0.00542969
0.00537866
0.00533017
0.00528407
0.00524019
0.00519841
0.00515858
0.00512058
0.00508431
0.00504967
0.00501656
0.00498486
0.0505472
0.0428477
0.0369109
0.0322394
0.0284969
0.0254521
0.0229417
0.0208476
0.0190824
0.0175805
0.0162917
0.0151775
0.0142075
0.0133578
0.012609
0.0119457
0.0113553
0.0108275
0.0103536
0.00992646
0.00954016
0.00918961
0.00887051
0.00857921
0.00831258
0.00806789
0.00784281
0.00763532
0.00744362
0.00726617
0.0071016
0.0069487
0.00680641
0.00667378
0.00654995
0.00643419
0.00632581
0.00622422
0.00612885
0.00603923
0.00595491
0.00587549
0.00580059
0.00572989
0.00566309
0.00559991
0.0055401
0.00548341
0.00542966
0.00537862
0.00533014
0.00528404
0.00524016
0.00519838
0.00515855
0.00512056
0.00508429
0.00504964
0.00501653
0.00498484
0.0434539
0.0320528
0.0244795
0.0192386
0.0154836
0.0127111
0.0106114
0.00898647
0.00770541
0.00667886
0.00584442
0.00515753
0.00458571
0.00410487
0.00369687
0.00334782
0.00304699
0.00278595
0.00255803
0.0023579
0.00218125
0.00202458
0.001885
0.00176014
0.00164803
0.001547
0.00145565
0.00137281
0.00129745
0.00122873
0.00116588
0.00110828
0.00105535
0.00100663
0.000961678
0.000920127
0.00088165
0.000845956
0.00081279
0.000781921
0.000753147
0.000726288
0.000701184
0.000677688
0.000655672
0.000635017
0.000615617
0.000597377
0.000580209
0.000564036
0.000548784
0.000534389
0.00052079
0.000507933
0.000495767
0.000484243
0.000473312
0.000462907
0.000452907
0.000442325
0.0434334
0.0319432
0.0243159
0.0190353
0.0152512
0.0124596
0.0103484
0.00871752
0.00743413
0.00640783
0.0055754
0.00489169
0.00432382
0.00384741
0.00344409
0.00309985
0.00280385
0.00254758
0.00232432
0.00212872
0.00195643
0.00180394
0.00166835
0.00154728
0.00143876
0.00134113
0.00125298
0.00117315
0.00110062
0.00103454
0.00097418
0.000918897
0.000868146
0.000821446
0.000778383
0.000738591
0.000701749
0.000667576
0.000635821
0.000606268
0.00057872
0.000553
0.000528951
0.000506434
0.000485322
0.000465502
0.000446871
0.000429337
0.000412817
0.000397233
0.000382519
0.00036861
0.00035545
0.000342986
0.000331171
0.000319961
0.000309314
0.000299194
0.00028956
0.000280359
0.0434334
0.0319682
0.0243515
0.0190751
0.0152907
0.0124964
0.0103817
0.00874692
0.00745986
0.00643022
0.00559483
0.00490854
0.00433844
0.0038601
0.00345513
0.00310947
0.00281223
0.00255491
0.00233074
0.00213435
0.00196137
0.00180828
0.00167216
0.00155064
0.00144171
0.00134372
0.00125526
0.00117514
0.00110237
0.00103607
0.00097551
0.000920049
0.000869137
0.000822293
0.000779099
0.000739188
0.000702239
0.000667967
0.000636123
0.000606484
0.000578852
0.000553052
0.000528926
0.000506333
0.000485148
0.000465256
0.000446555
0.000428953
0.000412365
0.000396716
0.000381936
0.000367963
0.000354739
0.000342212
0.000330334
0.000319062
0.000308355
0.000298176
0.000288491
0.000279269
0.0434334
0.0319682
0.0243481
0.019069
0.0152831
0.0124882
0.0103735
0.00873924
0.00745288
0.006424
0.00558937
0.00490379
0.00433432
0.00385654
0.00345206
0.00310682
0.00280996
0.00255294
0.00232905
0.00213289
0.00196011
0.00180719
0.00167122
0.00154983
0.00144101
0.00134311
0.00125473
0.00117469
0.00110198
0.00103573
0.000975219
0.0009198
0.000868923
0.00082211
0.000778944
0.000739057
0.000702129
0.000667876
0.000636048
0.000606423
0.000578803
0.000553014
0.000528898
0.000506314
0.000485136
0.000465251
0.000446556
0.000428958
0.000412375
0.000396729
0.000381953
0.000367982
0.000354761
0.000342236
0.00033036
0.000319089
0.000308382
0.000298204
0.00028852
0.000279298
0.0434334
0.0319683
0.0243481
0.019069
0.0152831
0.0124882
0.0103735
0.00873925
0.0074529
0.00642402
0.00558938
0.00490379
0.00433432
0.00385655
0.00345206
0.00310683
0.00280996
0.00255295
0.00232905
0.00213289
0.00196011
0.00180719
0.00167123
0.00154983
0.00144101
0.00134312
0.00125474
0.00117469
0.00110198
0.00103573
0.00097522
0.0009198
0.000868923
0.000822111
0.000778944
0.000739057
0.000702128
0.000667875
0.000636047
0.000606422
0.000578803
0.000553013
0.000528897
0.000506313
0.000485135
0.00046525
0.000446555
0.000428957
0.000412374
0.000396728
0.000381952
0.000367981
0.00035476
0.000342235
0.000330359
0.000319088
0.000308382
0.000298203
0.000288519
0.000279297
0.0434334
0.0319682
0.0243515
0.0190751
0.0152907
0.0124964
0.0103817
0.00874691
0.00745986
0.00643022
0.00559483
0.00490854
0.00433844
0.0038601
0.00345513
0.00310947
0.00281224
0.00255491
0.00233074
0.00213435
0.00196137
0.00180828
0.00167216
0.00155064
0.00144171
0.00134372
0.00125526
0.00117514
0.00110237
0.00103607
0.000975509
0.000920048
0.000869136
0.000822292
0.000779098
0.000739187
0.000702238
0.000667966
0.000636122
0.000606483
0.000578851
0.00055305
0.000528924
0.000506332
0.000485147
0.000465255
0.000446554
0.000428951
0.000412363
0.000396714
0.000381934
0.00036796
0.000354736
0.000342209
0.000330331
0.000319059
0.000308351
0.000298172
0.000288487
0.000279264
0.0434334
0.0319432
0.0243159
0.0190353
0.0152512
0.0124596
0.0103485
0.00871755
0.00743416
0.00640785
0.00557542
0.00489171
0.00432384
0.00384743
0.00344411
0.00309987
0.00280386
0.00254759
0.00232433
0.00212873
0.00195644
0.00180394
0.00166836
0.00154729
0.00143877
0.00134113
0.00125299
0.00117315
0.00110062
0.00103455
0.000974183
0.0009189
0.000868148
0.000821448
0.000778384
0.000738591
0.000701749
0.000667575
0.00063582
0.000606262
0.000578705
0.000552973
0.00052891
0.000506376
0.000485245
0.000465404
0.000446753
0.000429199
0.00041266
0.000397059
0.000382326
0.0003684
0.000355222
0.000342742
0.000330909
0.000319682
0.000309019
0.000298881
0.000289231
0.000280021
0.0434539
0.0320529
0.0244797
0.0192388
0.015484
0.0127116
0.0106119
0.00898714
0.00770616
0.00667965
0.00584524
0.00515835
0.00458651
0.00410564
0.00369759
0.0033485
0.00304762
0.00278654
0.00255857
0.0023584
0.00218171
0.002025
0.00188539
0.0017605
0.00164835
0.00154728
0.0014559
0.00137303
0.00129764
0.00122889
0.00116602
0.0011084
0.00105546
0.00100672
0.000961755
0.000920192
0.000881704
0.000845999
0.000812823
0.000781948
0.000753171
0.000726312
0.00070121
0.000677718
0.000655707
0.00063506
0.000615666
0.000597432
0.000580268
0.000564098
0.000548849
0.000534456
0.000520859
0.000508003
0.000495837
0.000484312
0.000473379
0.000462973
0.000452968
0.000442357
0.0505473
0.0428478
0.036911
0.0322394
0.0284969
0.0254521
0.0229417
0.0208476
0.0190824
0.0175804
0.0162917
0.0151775
0.0142075
0.0133577
0.0126089
0.0119457
0.0113553
0.0108274
0.0103535
0.0099264
0.0095401
0.00918955
0.00887045
0.00857916
0.00831252
0.00806783
0.00784276
0.00763526
0.00744356
0.00726612
0.00710154
0.00694865
0.00680635
0.00667372
0.0065499
0.00643413
0.00632576
0.00622416
0.0061288
0.00603917
0.00595485
0.00587543
0.00580053
0.00572983
0.00566303
0.00559985
0.00554003
0.00548335
0.00542959
0.00537856
0.00533007
0.00528397
0.00524009
0.0051983
0.00515847
0.00512047
0.0050842
0.00504955
0.00501644
0.00498474
)
;

boundaryField
{
    wall
    {
        type            kqRWallFunction;
        value           nonuniform List<scalar> 
1200
(
0.0505472
0.0434539
0.0434334
0.0434334
0.0434334
0.0434334
0.0434334
0.0434334
0.0434539
0.0505472
0.0428478
0.0320527
0.0319432
0.0319682
0.0319683
0.0319683
0.0319682
0.0319432
0.0320528
0.0428478
0.0369112
0.0244795
0.0243158
0.0243515
0.024348
0.024348
0.0243515
0.0243158
0.0244796
0.0369111
0.0322398
0.0192386
0.0190352
0.0190751
0.019069
0.019069
0.0190751
0.0190352
0.0192387
0.0322397
0.0284973
0.0154836
0.0152511
0.0152907
0.015283
0.015283
0.0152907
0.0152512
0.0154838
0.0284972
0.0254525
0.0127111
0.0124596
0.0124965
0.0124882
0.0124882
0.0124965
0.0124596
0.0127113
0.0254523
0.0229421
0.0106114
0.0103484
0.0103817
0.0103735
0.0103735
0.0103817
0.0103485
0.0106117
0.0229419
0.0208479
0.00898661
0.00871754
0.00874695
0.00873926
0.00873927
0.00874694
0.00871756
0.00898699
0.0208478
0.0190827
0.00770563
0.00743416
0.0074599
0.00745291
0.00745292
0.00745989
0.00743418
0.00770609
0.0190825
0.0175807
0.00667913
0.00640787
0.00643025
0.00642403
0.00642404
0.00643025
0.00640788
0.00667966
0.0175806
0.016292
0.00584472
0.00557544
0.00559486
0.0055894
0.00558941
0.00559486
0.00557545
0.0058453
0.0162918
0.0151778
0.00515781
0.00489174
0.00490857
0.00490381
0.00490382
0.00490857
0.00489174
0.00515845
0.0151776
0.0142077
0.00458594
0.00432387
0.00433846
0.00433434
0.00433435
0.00433846
0.00432387
0.00458662
0.0142076
0.0133579
0.00410504
0.00384745
0.00386012
0.00385656
0.00385657
0.00386012
0.00384745
0.00410574
0.0133578
0.0126091
0.00369696
0.00344413
0.00345515
0.00345208
0.00345208
0.00345515
0.00344414
0.00369767
0.012609
0.0119458
0.00334784
0.00309989
0.00310948
0.00310684
0.00310685
0.00310948
0.00309989
0.00334855
0.0119457
0.0113554
0.00304694
0.00280388
0.00281225
0.00280997
0.00280998
0.00281225
0.00280388
0.00304764
0.0113553
0.0108276
0.00278584
0.00254761
0.00255492
0.00255296
0.00255296
0.00255492
0.00254761
0.00278653
0.0108275
0.0103537
0.00255788
0.00232436
0.00233075
0.00232907
0.00232907
0.00233075
0.00232436
0.00255855
0.0103536
0.00992654
0.00235773
0.00212875
0.00213436
0.0021329
0.0021329
0.00213436
0.00212875
0.00235838
0.00992645
0.00954023
0.00218107
0.00195646
0.00196138
0.00196012
0.00196013
0.00196138
0.00195646
0.0021817
0.00954014
0.00918967
0.0020244
0.00180396
0.00180829
0.0018072
0.0018072
0.00180828
0.00180396
0.002025
0.00918959
0.00887057
0.00188483
0.00166837
0.00167217
0.00167124
0.00167124
0.00167217
0.00166837
0.00188541
0.00887049
0.00857927
0.00175999
0.00154731
0.00155065
0.00154984
0.00154984
0.00155065
0.00154731
0.00176055
0.0085792
0.00831263
0.0016479
0.00143879
0.00144172
0.00144102
0.00144102
0.00144172
0.00143879
0.00164843
0.00831256
0.00806794
0.00154688
0.00134115
0.00134373
0.00134313
0.00134313
0.00134373
0.00134115
0.00154739
0.00806787
0.00784286
0.00145554
0.001253
0.00125527
0.00125475
0.00125475
0.00125526
0.001253
0.00145604
0.0078428
0.00763536
0.0013727
0.00117316
0.00117515
0.0011747
0.0011747
0.00117515
0.00117316
0.00137318
0.0076353
0.00744367
0.00129735
0.00110064
0.00110238
0.00110199
0.00110199
0.00110237
0.00110064
0.0012978
0.00744361
0.00726622
0.00122862
0.00103456
0.00103608
0.00103574
0.00103574
0.00103607
0.00103456
0.00122905
0.00726616
0.00710165
0.00116577
0.000974198
0.000975516
0.000975229
0.000975228
0.000975514
0.000974196
0.00116618
0.0071016
0.00694875
0.00110816
0.000918915
0.000920055
0.000919809
0.000919808
0.000920053
0.000918913
0.00110855
0.0069487
0.00680646
0.00105523
0.000868163
0.000869143
0.000868933
0.000868931
0.000869141
0.000868161
0.00105559
0.00680641
0.00667383
0.00100649
0.000821464
0.000822299
0.00082212
0.000822119
0.000822297
0.000821461
0.00100683
0.00667378
0.00655
0.000961529
0.0007784
0.000779105
0.000778953
0.000778952
0.000779103
0.000778397
0.000961846
0.00654996
0.00643424
0.000919968
0.000738608
0.000739194
0.000739066
0.000739065
0.000739192
0.000738604
0.000920261
0.0064342
0.00632587
0.000881482
0.000701766
0.000702245
0.000702138
0.000702137
0.000702242
0.000701762
0.000881752
0.00632582
0.00622427
0.000845781
0.000667592
0.000667974
0.000667885
0.000667883
0.000667971
0.000667588
0.00084603
0.00622423
0.00612891
0.000812611
0.000635838
0.000636129
0.000636057
0.000636055
0.000636127
0.000635833
0.000812838
0.00612886
0.00603929
0.000781739
0.000606285
0.00060649
0.000606432
0.00060643
0.000606487
0.000606275
0.00078195
0.00603925
0.00595497
0.000752965
0.000578737
0.000578859
0.000578813
0.000578811
0.000578856
0.000578718
0.000753162
0.00595493
0.00587555
0.000726106
0.000553017
0.000553058
0.000553024
0.000553022
0.000553055
0.000552986
0.000726295
0.0058755
0.00580066
0.000701003
0.000528969
0.000528933
0.000528907
0.000528906
0.000528929
0.000528923
0.000701186
0.00580061
0.00572996
0.000677509
0.000506453
0.00050634
0.000506324
0.000506322
0.000506337
0.000506389
0.00067769
0.00572992
0.00566316
0.000655495
0.000485342
0.000485155
0.000485146
0.000485144
0.000485152
0.000485258
0.000655677
0.00566312
0.00559998
0.000634843
0.000465522
0.000465264
0.000465261
0.000465259
0.00046526
0.000465416
0.000635028
0.00559994
0.00554017
0.000615449
0.000446892
0.000446563
0.000446566
0.000446564
0.000446559
0.000446764
0.000615634
0.00554012
0.00548349
0.000597214
0.000429359
0.000428961
0.000428968
0.000428966
0.000428957
0.00042921
0.000597401
0.00548344
0.00542973
0.000580052
0.000412839
0.000412373
0.000412385
0.000412383
0.000412369
0.00041267
0.00058024
0.00542969
0.0053787
0.000563884
0.000397257
0.000396724
0.000396739
0.000396737
0.000396719
0.000397067
0.000564072
0.00537866
0.00533022
0.000548637
0.000382543
0.000381944
0.000381963
0.000381961
0.000381939
0.000382334
0.000548824
0.00533017
0.00528412
0.000534245
0.000368635
0.000367971
0.000367992
0.000367991
0.000367966
0.000368408
0.000534432
0.00528407
0.00524025
0.000520648
0.000355476
0.000354748
0.000354771
0.000354769
0.000354742
0.00035523
0.000520836
0.00524019
0.00519846
0.00050779
0.000343013
0.000342221
0.000342246
0.000342244
0.000342215
0.000342749
0.00050798
0.00519841
0.00515863
0.000495621
0.000331198
0.000330344
0.00033037
0.000330368
0.000330337
0.000330916
0.000495814
0.00515858
0.00512064
0.000484094
0.000319988
0.000319071
0.000319099
0.000319097
0.000319065
0.000319689
0.000484289
0.00512058
0.00508438
0.00047316
0.000309342
0.000308364
0.000308393
0.000308391
0.000308357
0.000309025
0.000473358
0.00508431
0.00504973
0.000462752
0.000299222
0.000298185
0.000298215
0.000298213
0.000298178
0.000298888
0.000462951
0.00504967
0.00501662
0.000452749
0.00028959
0.000288501
0.00028853
0.000288529
0.000288493
0.000289237
0.000452946
0.00501656
0.00498493
0.000442174
0.000280389
0.000279279
0.000279309
0.000279307
0.000279271
0.000280028
0.00044234
0.00498486
0.0505472
0.0434539
0.0434334
0.0434334
0.0434334
0.0434334
0.0434334
0.0434334
0.0434539
0.0505473
0.0428477
0.0320528
0.0319432
0.0319682
0.0319682
0.0319683
0.0319682
0.0319432
0.0320529
0.0428478
0.0369109
0.0244795
0.0243159
0.0243515
0.0243481
0.0243481
0.0243515
0.0243159
0.0244797
0.036911
0.0322394
0.0192386
0.0190353
0.0190751
0.019069
0.019069
0.0190751
0.0190353
0.0192388
0.0322394
0.0284969
0.0154836
0.0152512
0.0152907
0.0152831
0.0152831
0.0152907
0.0152512
0.015484
0.0284969
0.0254521
0.0127111
0.0124596
0.0124964
0.0124882
0.0124882
0.0124964
0.0124596
0.0127116
0.0254521
0.0229417
0.0106114
0.0103484
0.0103817
0.0103735
0.0103735
0.0103817
0.0103485
0.0106119
0.0229417
0.0208476
0.00898647
0.00871752
0.00874692
0.00873924
0.00873925
0.00874691
0.00871755
0.00898714
0.0208476
0.0190824
0.00770541
0.00743413
0.00745986
0.00745288
0.0074529
0.00745986
0.00743416
0.00770616
0.0190824
0.0175805
0.00667886
0.00640783
0.00643022
0.006424
0.00642402
0.00643022
0.00640785
0.00667965
0.0175804
0.0162917
0.00584442
0.0055754
0.00559483
0.00558937
0.00558938
0.00559483
0.00557542
0.00584524
0.0162917
0.0151775
0.00515753
0.00489169
0.00490854
0.00490379
0.00490379
0.00490854
0.00489171
0.00515835
0.0151775
0.0142075
0.00458571
0.00432382
0.00433844
0.00433432
0.00433432
0.00433844
0.00432384
0.00458651
0.0142075
0.0133578
0.00410487
0.00384741
0.0038601
0.00385654
0.00385655
0.0038601
0.00384743
0.00410564
0.0133577
0.012609
0.00369687
0.00344409
0.00345513
0.00345206
0.00345206
0.00345513
0.00344411
0.00369759
0.0126089
0.0119457
0.00334782
0.00309985
0.00310947
0.00310682
0.00310683
0.00310947
0.00309987
0.0033485
0.0119457
0.0113553
0.00304699
0.00280385
0.00281223
0.00280996
0.00280996
0.00281224
0.00280386
0.00304762
0.0113553
0.0108275
0.00278595
0.00254758
0.00255491
0.00255294
0.00255295
0.00255491
0.00254759
0.00278654
0.0108274
0.0103536
0.00255803
0.00232432
0.00233074
0.00232905
0.00232905
0.00233074
0.00232433
0.00255857
0.0103535
0.00992646
0.0023579
0.00212872
0.00213435
0.00213289
0.00213289
0.00213435
0.00212873
0.0023584
0.0099264
0.00954016
0.00218125
0.00195643
0.00196137
0.00196011
0.00196011
0.00196137
0.00195644
0.00218171
0.0095401
0.00918961
0.00202458
0.00180394
0.00180828
0.00180719
0.00180719
0.00180828
0.00180394
0.002025
0.00918955
0.00887051
0.001885
0.00166835
0.00167216
0.00167122
0.00167123
0.00167216
0.00166836
0.00188539
0.00887045
0.00857921
0.00176014
0.00154728
0.00155064
0.00154983
0.00154983
0.00155064
0.00154729
0.0017605
0.00857916
0.00831258
0.00164803
0.00143876
0.00144171
0.00144101
0.00144101
0.00144171
0.00143877
0.00164835
0.00831252
0.00806789
0.001547
0.00134113
0.00134372
0.00134311
0.00134312
0.00134372
0.00134113
0.00154728
0.00806783
0.00784281
0.00145565
0.00125298
0.00125526
0.00125473
0.00125474
0.00125526
0.00125299
0.0014559
0.00784276
0.00763532
0.00137281
0.00117315
0.00117514
0.00117469
0.00117469
0.00117514
0.00117315
0.00137303
0.00763526
0.00744362
0.00129745
0.00110062
0.00110237
0.00110198
0.00110198
0.00110237
0.00110062
0.00129764
0.00744356
0.00726617
0.00122873
0.00103454
0.00103607
0.00103573
0.00103573
0.00103607
0.00103455
0.00122889
0.00726612
0.0071016
0.00116588
0.00097418
0.00097551
0.000975219
0.00097522
0.000975509
0.000974183
0.00116602
0.00710154
0.0069487
0.00110828
0.000918897
0.000920049
0.0009198
0.0009198
0.000920048
0.0009189
0.0011084
0.00694865
0.00680641
0.00105535
0.000868146
0.000869137
0.000868923
0.000868923
0.000869136
0.000868148
0.00105546
0.00680635
0.00667378
0.00100663
0.000821446
0.000822293
0.00082211
0.000822111
0.000822292
0.000821448
0.00100672
0.00667372
0.00654995
0.000961678
0.000778383
0.000779099
0.000778944
0.000778944
0.000779098
0.000778384
0.000961755
0.0065499
0.00643419
0.000920127
0.000738591
0.000739188
0.000739057
0.000739057
0.000739187
0.000738591
0.000920192
0.00643413
0.00632581
0.00088165
0.000701749
0.000702239
0.000702129
0.000702128
0.000702238
0.000701749
0.000881704
0.00632576
0.00622422
0.000845956
0.000667576
0.000667967
0.000667876
0.000667875
0.000667966
0.000667575
0.000845999
0.00622416
0.00612885
0.00081279
0.000635821
0.000636123
0.000636048
0.000636047
0.000636122
0.00063582
0.000812823
0.0061288
0.00603923
0.000781921
0.000606268
0.000606484
0.000606423
0.000606422
0.000606483
0.000606262
0.000781948
0.00603917
0.00595491
0.000753147
0.00057872
0.000578852
0.000578803
0.000578803
0.000578851
0.000578705
0.000753171
0.00595485
0.00587549
0.000726288
0.000553
0.000553052
0.000553014
0.000553013
0.00055305
0.000552973
0.000726312
0.00587543
0.00580059
0.000701184
0.000528951
0.000528926
0.000528898
0.000528897
0.000528924
0.00052891
0.00070121
0.00580053
0.00572989
0.000677688
0.000506434
0.000506333
0.000506314
0.000506313
0.000506332
0.000506376
0.000677718
0.00572983
0.00566309
0.000655672
0.000485322
0.000485148
0.000485136
0.000485135
0.000485147
0.000485245
0.000655707
0.00566303
0.00559991
0.000635017
0.000465502
0.000465256
0.000465251
0.00046525
0.000465255
0.000465404
0.00063506
0.00559985
0.0055401
0.000615617
0.000446871
0.000446555
0.000446556
0.000446555
0.000446554
0.000446753
0.000615666
0.00554003
0.00548341
0.000597377
0.000429337
0.000428953
0.000428958
0.000428957
0.000428951
0.000429199
0.000597432
0.00548335
0.00542966
0.000580209
0.000412817
0.000412365
0.000412375
0.000412374
0.000412363
0.00041266
0.000580268
0.00542959
0.00537862
0.000564036
0.000397233
0.000396716
0.000396729
0.000396728
0.000396714
0.000397059
0.000564098
0.00537856
0.00533014
0.000548784
0.000382519
0.000381936
0.000381953
0.000381952
0.000381934
0.000382326
0.000548849
0.00533007
0.00528404
0.000534389
0.00036861
0.000367963
0.000367982
0.000367981
0.00036796
0.0003684
0.000534456
0.00528397
0.00524016
0.00052079
0.00035545
0.000354739
0.000354761
0.00035476
0.000354736
0.000355222
0.000520859
0.00524009
0.00519838
0.000507933
0.000342986
0.000342212
0.000342236
0.000342235
0.000342209
0.000342742
0.000508003
0.0051983
0.00515855
0.000495767
0.000331171
0.000330334
0.00033036
0.000330359
0.000330331
0.000330909
0.000495837
0.00515847
0.00512056
0.000484243
0.000319961
0.000319062
0.000319089
0.000319088
0.000319059
0.000319682
0.000484312
0.00512047
0.00508429
0.000473312
0.000309314
0.000308355
0.000308382
0.000308382
0.000308351
0.000309019
0.000473379
0.0050842
0.00504964
0.000462907
0.000299194
0.000298176
0.000298204
0.000298203
0.000298172
0.000298881
0.000462973
0.00504955
0.00501653
0.000452907
0.00028956
0.000288491
0.00028852
0.000288519
0.000288487
0.000289231
0.000452968
0.00501644
0.00498484
0.000442325
0.000280359
0.000279269
0.000279298
0.000279297
0.000279264
0.000280021
0.000442357
0.00498474
)
;
    }
    inlet
    {
        type            turbulentIntensityKineticEnergyInlet;
        intensity       0.05;
        value           uniform 0.06;
    }
    outlet
    {
        type            inletOutlet;
        inletValue      uniform 0.003;
        value           nonuniform List<scalar> 
20
(
0.00498493
0.000442174
0.000280389
0.000279279
0.000279309
0.000279307
0.000279271
0.000280028
0.00044234
0.00498486
0.00498484
0.000442325
0.000280359
0.000279269
0.000279298
0.000279297
0.000279264
0.000280021
0.000442357
0.00498474
)
;
    }
    heatWall
    {
        type            kqRWallFunction;
        value           nonuniform List<scalar> 
240
(
0.0505472
0.0505473
0.0428478
0.0428478
0.0369111
0.036911
0.0322397
0.0322394
0.0284972
0.0284969
0.0254523
0.0254521
0.0229419
0.0229417
0.0208478
0.0208476
0.0190825
0.0190824
0.0175806
0.0175804
0.0162918
0.0162917
0.0151776
0.0151775
0.0142076
0.0142075
0.0133578
0.0133577
0.012609
0.0126089
0.0119457
0.0119457
0.0113553
0.0113553
0.0108275
0.0108274
0.0103536
0.0103535
0.00992645
0.0099264
0.00954014
0.0095401
0.00918959
0.00918955
0.00887049
0.00887045
0.0085792
0.00857916
0.00831256
0.00831252
0.00806787
0.00806783
0.0078428
0.00784276
0.0076353
0.00763526
0.00744361
0.00744356
0.00726616
0.00726612
0.0071016
0.00710154
0.0069487
0.00694865
0.00680641
0.00680635
0.00667378
0.00667372
0.00654996
0.0065499
0.0064342
0.00643413
0.00632582
0.00632576
0.00622423
0.00622416
0.00612886
0.0061288
0.00603925
0.00603917
0.00595493
0.00595485
0.0058755
0.00587543
0.00580061
0.00580053
0.00572992
0.00572983
0.00566312
0.00566303
0.00559994
0.00559985
0.00554012
0.00554003
0.00548344
0.00548335
0.00542969
0.00542959
0.00537866
0.00537856
0.00533017
0.00533007
0.00528407
0.00528397
0.00524019
0.00524009
0.00519841
0.0051983
0.00515858
0.00515847
0.00512058
0.00512047
0.00508431
0.0050842
0.00504967
0.00504955
0.00501656
0.00501644
0.00498486
0.00498474
0.0505472
0.0505472
0.0428478
0.0428477
0.0369112
0.0369109
0.0322398
0.0322394
0.0284973
0.0284969
0.0254525
0.0254521
0.0229421
0.0229417
0.0208479
0.0208476
0.0190827
0.0190824
0.0175807
0.0175805
0.016292
0.0162917
0.0151778
0.0151775
0.0142077
0.0142075
0.0133579
0.0133578
0.0126091
0.012609
0.0119458
0.0119457
0.0113554
0.0113553
0.0108276
0.0108275
0.0103537
0.0103536
0.00992654
0.00992646
0.00954023
0.00954016
0.00918967
0.00918961
0.00887057
0.00887051
0.00857927
0.00857921
0.00831263
0.00831258
0.00806794
0.00806789
0.00784286