/*--------------------------------*- C++ -*----------------------------------*\
  =========                 |
  \\      /  F ield         | OpenFOAM: The Open Source CFD Toolbox
   \\    /   O peration     | Website:  https://openfoam.org
    \\  /    A nd           | Version:  8
     \\/     M anipulation  |
\*---------------------------------------------------------------------------*/
FoamFile
{
    version     2.0;
    format      ascii;
    class       volScalarField;
    location    "700";
    object      nut;
}
// * * * * * * * * * * * * * * * * * * * * * * * * * * * * * * * * * * * * * //

dimensions      [0 2 -1 0 0 0 0];

internalField   nonuniform List<scalar> 
1200
(
0.000201954
0.000185938
0.000172577
0.000161287
0.000151637
0.000143308
0.000136057
0.000129699
0.000124086
0.000119103
0.000114655
0.000110664
0.00010707
0.000103818
0.000100866
9.81777e-05
9.57208e-05
9.34695e-05
9.14011e-05
8.94959e-05
8.77372e-05
8.61102e-05
8.46019e-05
8.32012e-05
8.18981e-05
8.06837e-05
7.95503e-05
7.84909e-05
7.74993e-05
7.657e-05
7.56979e-05
7.48786e-05
7.4108e-05
7.33824e-05
7.26985e-05
7.20532e-05
7.14438e-05
7.08678e-05
7.03228e-05
6.98068e-05
6.93177e-05
6.88539e-05
6.84137e-05
6.79955e-05
6.7598e-05
6.72199e-05
6.68599e-05
6.65171e-05
6.61902e-05
6.58784e-05
6.55809e-05
6.52966e-05
6.5025e-05
6.47652e-05
6.45167e-05
6.42786e-05
6.40506e-05
6.3832e-05
6.36224e-05
6.34211e-05
0.00011703
0.000100512
8.78387e-05
7.78702e-05
6.98587e-05
6.32959e-05
5.78324e-05
5.32209e-05
4.9282e-05
4.58822e-05
4.29206e-05
4.03197e-05
3.80188e-05
3.59702e-05
3.41356e-05
3.24838e-05
3.09896e-05
2.96321e-05
2.83939e-05
2.72604e-05
2.62192e-05
2.526e-05
2.43737e-05
2.35527e-05
2.27903e-05
2.20807e-05
2.14189e-05
2.08005e-05
2.02215e-05
1.96785e-05
1.91686e-05
1.8689e-05
1.82372e-05
1.7811e-05
1.74087e-05
1.70283e-05
1.66683e-05
1.63273e-05
1.60039e-05
1.5697e-05
1.54054e-05
1.51281e-05
1.48643e-05
1.46131e-05
1.43737e-05
1.41455e-05
1.39277e-05
1.37199e-05
1.35213e-05
1.33315e-05
1.315e-05
1.29764e-05
1.28102e-05
1.2651e-05
1.24985e-05
1.23523e-05
1.22121e-05
1.2077e-05
1.19457e-05
1.18054e-05
0.000117003
0.00010034
8.75445e-05
7.74574e-05
6.93323e-05
6.26665e-05
5.71113e-05
5.24181e-05
4.84061e-05
4.49408e-05
4.19203e-05
3.92659e-05
3.69165e-05
3.48234e-05
3.29476e-05
3.12578e-05
2.97279e-05
2.83368e-05
2.70667e-05
2.59028e-05
2.48325e-05
2.38451e-05
2.29314e-05
2.20838e-05
2.12952e-05
2.056e-05
1.98728e-05
1.92293e-05
1.86254e-05
1.80577e-05
1.7523e-05
1.70185e-05
1.65419e-05
1.60908e-05
1.56634e-05
1.52578e-05
1.48724e-05
1.45057e-05
1.41566e-05
1.38237e-05
1.35059e-05
1.32024e-05
1.29122e-05
1.26344e-05
1.23682e-05
1.21131e-05
1.18682e-05
1.16331e-05
1.14071e-05
1.11897e-05
1.09806e-05
1.07791e-05
1.0585e-05
1.03978e-05
1.02171e-05
1.00427e-05
9.87425e-06
9.71139e-06
9.5538e-06
9.40081e-06
0.000117003
0.000100379
8.76088e-05
7.75386e-05
6.94223e-05
6.27593e-05
5.7203e-05
5.25065e-05
4.84899e-05
4.50193e-05
4.19932e-05
3.93335e-05
3.69788e-05
3.48807e-05
3.30003e-05
3.13061e-05
2.97722e-05
2.83774e-05
2.7104e-05
2.59369e-05
2.48637e-05
2.38736e-05
2.29575e-05
2.21076e-05
2.1317e-05
2.05798e-05
1.98908e-05
1.92456e-05
1.86401e-05
1.80709e-05
1.75348e-05
1.70291e-05
1.65512e-05
1.6099e-05
1.56705e-05
1.52638e-05
1.48775e-05
1.45099e-05
1.41598e-05
1.3826e-05
1.35074e-05
1.32029e-05
1.29117e-05
1.2633e-05
1.23659e-05
1.21097e-05
1.18639e-05
1.16277e-05
1.14007e-05
1.11822e-05
1.0972e-05
1.07694e-05
1.05741e-05
1.03857e-05
1.02039e-05
1.00283e-05
9.85863e-06
9.69455e-06
9.53582e-06
9.38217e-06
0.000117003
0.000100379
8.76025e-05
7.75261e-05
6.94048e-05
6.27385e-05
5.71804e-05
5.24834e-05
4.84671e-05
4.49975e-05
4.19727e-05
3.93144e-05
3.69612e-05
3.48646e-05
3.29856e-05
3.12928e-05
2.97602e-05
2.83666e-05
2.70941e-05
2.59281e-05
2.48557e-05
2.38665e-05
2.29511e-05
2.21018e-05
2.13118e-05
2.05751e-05
1.98867e-05
1.92419e-05
1.86369e-05
1.8068e-05
1.75323e-05
1.70268e-05
1.65492e-05
1.60973e-05
1.5669e-05
1.52625e-05
1.48763e-05
1.45089e-05
1.4159e-05
1.38253e-05
1.35068e-05
1.32025e-05
1.29114e-05
1.26328e-05
1.23658e-05
1.21097e-05
1.18639e-05
1.16278e-05
1.14008e-05
1.11825e-05
1.09722e-05
1.07697e-05
1.05745e-05
1.03861e-05
1.02043e-05
1.00288e-05
9.85909e-06
9.69503e-06
9.53631e-06
9.38268e-06
0.000117003
0.000100379
8.76025e-05
7.75261e-05
6.94048e-05
6.27385e-05
5.71804e-05
5.24834e-05
4.84672e-05
4.49975e-05
4.19727e-05
3.93144e-05
3.69612e-05
3.48646e-05
3.29857e-05
3.12928e-05
2.97602e-05
2.83666e-05
2.70942e-05
2.59281e-05
2.48557e-05
2.38665e-05
2.29511e-05
2.21018e-05
2.13118e-05
2.05751e-05
1.98867e-05
1.92419e-05
1.86369e-05
1.8068e-05
1.75322e-05
1.70268e-05
1.65492e-05
1.60973e-05
1.56689e-05
1.52625e-05
1.48763e-05
1.45089e-05
1.4159e-05
1.38253e-05
1.35068e-05
1.32025e-05
1.29114e-05
1.26327e-05
1.23657e-05
1.21097e-05
1.18639e-05
1.16278e-05
1.14008e-05
1.11824e-05
1.09722e-05
1.07697e-05
1.05744e-05
1.03861e-05
1.02043e-05
1.00287e-05
9.85906e-06
9.695e-06
9.53628e-06
9.38265e-06
0.000117003
0.000100379
8.76087e-05
7.75386e-05
6.94222e-05
6.27593e-05
5.7203e-05
5.25065e-05
4.84898e-05
4.50193e-05
4.19932e-05
3.93334e-05
3.69788e-05
3.48807e-05
3.30003e-05
3.13061e-05
2.97722e-05
2.83774e-05
2.7104e-05
2.59369e-05
2.48637e-05
2.38736e-05
2.29575e-05
2.21076e-05
2.13169e-05
2.05797e-05
1.98908e-05
1.92456e-05
1.86401e-05
1.80709e-05
1.75348e-05
1.70291e-05
1.65512e-05
1.6099e-05
1.56705e-05
1.52638e-05
1.48774e-05
1.45099e-05
1.41598e-05
1.3826e-05
1.35073e-05
1.32029e-05
1.29117e-05
1.26329e-05
1.23658e-05
1.21097e-05
1.18638e-05
1.16276e-05
1.14006e-05
1.11822e-05
1.09719e-05
1.07693e-05
1.0574e-05
1.03857e-05
1.02038e-05
1.00282e-05
9.85852e-06
9.69443e-06
9.53569e-06
9.38204e-06
0.000117003
0.00010034
8.75445e-05
7.74575e-05
6.93323e-05
6.26666e-05
5.71114e-05
5.24182e-05
4.84062e-05
4.49409e-05
4.19203e-05
3.9266e-05
3.69165e-05
3.48234e-05
3.29477e-05
3.12578e-05
2.97279e-05
2.83368e-05
2.70667e-05
2.59028e-05
2.48325e-05
2.38451e-05
2.29314e-05
2.20838e-05
2.12952e-05
2.056e-05
1.98728e-05
1.92293e-05
1.86254e-05
1.80577e-05
1.7523e-05
1.70185e-05
1.65419e-05
1.60908e-05
1.56634e-05
1.52577e-05
1.48723e-05
1.45057e-05
1.41565e-05
1.38235e-05
1.35057e-05
1.32021e-05
1.29116e-05
1.26336e-05
1.23672e-05
1.21117e-05
1.18665e-05
1.16311e-05
1.14047e-05
1.11871e-05
1.09776e-05
1.07758e-05
1.05813e-05
1.03938e-05
1.02128e-05
1.0038e-05
9.86919e-06
9.70596e-06
9.54798e-06
9.39476e-06
0.00011703
0.000100512
8.78389e-05
7.78705e-05
6.98592e-05
6.32966e-05
5.78332e-05
5.32221e-05
4.92835e-05
4.5884e-05
4.29228e-05
4.03222e-05
3.80216e-05
3.59733e-05
3.41388e-05
3.24873e-05
3.09932e-05
2.96358e-05
2.83976e-05
2.72641e-05
2.6223e-05
2.52637e-05
2.43774e-05
2.35564e-05
2.2794e-05
2.20844e-05
2.14225e-05
2.0804e-05
2.0225e-05
1.9682e-05
1.9172e-05
1.86922e-05
1.82403e-05
1.78141e-05
1.74115e-05
1.7031e-05
1.66709e-05
1.63297e-05
1.60061e-05
1.56991e-05
1.54074e-05
1.51301e-05
1.48662e-05
1.4615e-05
1.43757e-05
1.41475e-05
1.39298e-05
1.3722e-05
1.35235e-05
1.33337e-05
1.31523e-05
1.29787e-05
1.28125e-05
1.26534e-05
1.2501e-05
1.23548e-05
1.22146e-05
1.20796e-05
1.19484e-05
1.18076e-05
0.000201954
0.000185938
0.000172577
0.000161287
0.000151637
0.000143307
0.000136057
0.000129698
0.000124086
0.000119103
0.000114654
0.000110664
0.000107069
0.000103818
0.000100866
9.81772e-05
9.57204e-05
9.34691e-05
9.14007e-05
8.94956e-05
8.77368e-05
8.61098e-05
8.46016e-05
8.32009e-05
8.18977e-05
8.06834e-05
7.955e-05
7.84906e-05
7.7499e-05
7.65697e-05
7.56977e-05
7.48783e-05
7.41077e-05
7.33821e-05
7.26982e-05
7.20529e-05
7.14435e-05
7.08675e-05
7.03225e-05
6.98065e-05
6.93175e-05
6.88537e-05
6.84134e-05
6.79953e-05
6.75978e-05
6.72196e-05
6.68597e-05
6.65168e-05
6.61899e-05
6.58781e-05
6.55806e-05
6.52963e-05
6.50247e-05
6.47649e-05
6.45163e-05
6.42783e-05
6.40502e-05
6.38316e-05
6.3622e-05
6.34207e-05
0.000201954
0.000185938
0.000172577
0.000161287
0.000151636
0.000143307
0.000136056
0.000129698
0.000124085
0.000119102
0.000114654
0.000110664
0.000107069
0.000103818
0.000100866
9.81771e-05
9.57204e-05
9.34691e-05
9.14007e-05
8.94956e-05
8.77369e-05
8.61099e-05
8.46016e-05
8.32009e-05
8.18978e-05
8.06834e-05
7.955e-05
7.84907e-05
7.74991e-05
7.65698e-05
7.56977e-05
7.48784e-05
7.41077e-05
7.33821e-05
7.26982e-05
7.20529e-05
7.14435e-05
7.08675e-05
7.03225e-05
6.98064e-05
6.93174e-05
6.88536e-05
6.84133e-05
6.79951e-05
6.75976e-05
6.72195e-05
6.68595e-05
6.65166e-05
6.61897e-05
6.5878e-05
6.55804e-05
6.52961e-05
6.50245e-05
6.47647e-05
6.45161e-05
6.42781e-05
6.40501e-05
6.38315e-05
6.36219e-05
6.34206e-05
0.00011703
0.000100512
8.78387e-05
7.78702e-05
6.98588e-05
6.3296e-05
5.78322e-05
5.32205e-05
4.92813e-05
4.58813e-05
4.29195e-05
4.03186e-05
3.80179e-05
3.59695e-05
3.41351e-05
3.24837e-05
3.09899e-05
2.96327e-05
2.83947e-05
2.72613e-05
2.62203e-05
2.52611e-05
2.43748e-05
2.35537e-05
2.27912e-05
2.20815e-05
2.14197e-05
2.08012e-05
2.02223e-05
1.96794e-05
1.91695e-05
1.869e-05
1.82383e-05
1.78123e-05
1.741e-05
1.70298e-05
1.66699e-05
1.6329e-05
1.60057e-05
1.56988e-05
1.54072e-05
1.513e-05
1.48662e-05
1.4615e-05
1.43757e-05
1.41474e-05
1.39296e-05
1.37217e-05
1.35231e-05
1.33333e-05
1.31518e-05
1.29782e-05
1.2812e-05
1.26528e-05
1.25004e-05
1.23542e-05
1.2214e-05
1.2079e-05
1.19478e-05
1.18074e-05
0.000117003
0.00010034
8.75446e-05
7.74576e-05
6.93324e-05
6.26666e-05
5.71113e-05
5.24181e-05
4.8406e-05
4.49407e-05
4.19201e-05
3.92658e-05
3.69163e-05
3.48232e-05
3.29475e-05
3.12576e-05
2.97277e-05
2.83366e-05
2.70665e-05
2.59026e-05
2.48323e-05
2.38449e-05
2.29313e-05
2.20836e-05
2.12951e-05
2.05598e-05
1.98727e-05
1.92292e-05
1.86253e-05
1.80575e-05
1.75228e-05
1.70184e-05
1.65417e-05
1.60907e-05
1.56632e-05
1.52576e-05
1.48722e-05
1.45056e-05
1.41564e-05
1.38235e-05
1.35057e-05
1.32022e-05
1.2912e-05
1.26341e-05
1.2368e-05
1.21128e-05
1.18679e-05
1.16328e-05
1.14068e-05
1.11894e-05
1.09802e-05
1.07787e-05
1.05846e-05
1.03974e-05
1.02167e-05
1.00423e-05
9.8738e-06
9.71093e-06
9.55331e-06
9.4003e-06
0.000117003
0.000100379
8.76088e-05
7.75386e-05
6.94222e-05
6.27592e-05
5.72029e-05
5.25064e-05
4.84897e-05
4.50192e-05
4.19931e-05
3.93333e-05
3.69787e-05
3.48806e-05
3.30002e-05
3.1306e-05
2.97722e-05
2.83774e-05
2.71039e-05
2.59368e-05
2.48636e-05
2.38735e-05
2.29575e-05
2.21075e-05
2.13169e-05
2.05797e-05
1.98908e-05
1.92455e-05
1.86401e-05
1.80709e-05
1.75348e-05
1.7029e-05
1.65512e-05
1.6099e-05
1.56704e-05
1.52638e-05
1.48774e-05
1.45098e-05
1.41597e-05
1.38259e-05
1.35073e-05
1.32028e-05
1.29117e-05
1.26329e-05
1.23658e-05
1.21096e-05
1.18638e-05
1.16276e-05
1.14005e-05
1.11821e-05
1.09718e-05
1.07693e-05
1.0574e-05
1.03856e-05
1.02038e-05
1.00282e-05
9.85848e-06
9.69439e-06
9.53565e-06
9.382e-06
0.000117003
0.000100379
8.76026e-05
7.75262e-05
6.94048e-05
6.27385e-05
5.71804e-05
5.24833e-05
4.84671e-05
4.49974e-05
4.19726e-05
3.93143e-05
3.69611e-05
3.48645e-05
3.29855e-05
3.12927e-05
2.97601e-05
2.83665e-05
2.7094e-05
2.5928e-05
2.48556e-05
2.38664e-05
2.2951e-05
2.21017e-05
2.13117e-05
2.05751e-05
1.98866e-05
1.92418e-05
1.86368e-05
1.80679e-05
1.75322e-05
1.70267e-05
1.65491e-05
1.60972e-05
1.56689e-05
1.52624e-05
1.48762e-05
1.45088e-05
1.41589e-05
1.38252e-05
1.35067e-05
1.32024e-05
1.29113e-05
1.26326e-05
1.23656e-05
1.21096e-05
1.18638e-05
1.16277e-05
1.14007e-05
1.11823e-05
1.09721e-05
1.07696e-05
1.05743e-05
1.0386e-05
1.02042e-05
1.00286e-05
9.85892e-06
9.69485e-06
9.53613e-06
9.3825e-06
0.000117003
0.000100379
8.76026e-05
7.75262e-05
6.94049e-05
6.27385e-05
5.71804e-05
5.24834e-05
4.84671e-05
4.49974e-05
4.19726e-05
3.93143e-05
3.69611e-05
3.48645e-05
3.29856e-05
3.12927e-05
2.97601e-05
2.83665e-05
2.70941e-05
2.5928e-05
2.48556e-05
2.38664e-05
2.2951e-05
2.21017e-05
2.13117e-05
2.05751e-05
1.98866e-05
1.92418e-05
1.86368e-05
1.80679e-05
1.75322e-05
1.70267e-05
1.65491e-05
1.60972e-05
1.56689e-05
1.52624e-05
1.48762e-05
1.45088e-05
1.41589e-05
1.38252e-05
1.35067e-05
1.32024e-05
1.29113e-05
1.26326e-05
1.23656e-05
1.21095e-05
1.18637e-05
1.16276e-05
1.14007e-05
1.11823e-05
1.09721e-05
1.07695e-05
1.05743e-05
1.0386e-05
1.02042e-05
1.00286e-05
9.8589e-06
9.69484e-06
9.53612e-06
9.38248e-06
0.000117003
0.000100379
8.76088e-05
7.75386e-05
6.94222e-05
6.27592e-05
5.72029e-05
5.25064e-05
4.84897e-05
4.50192e-05
4.19931e-05
3.93333e-05
3.69787e-05
3.48806e-05
3.30002e-05
3.1306e-05
2.97722e-05
2.83774e-05
2.71039e-05
2.59368e-05
2.48636e-05
2.38735e-05
2.29575e-05
2.21075e-05
2.13169e-05
2.05797e-05
1.98908e-05
1.92455e-05
1.86401e-05
1.80709e-05
1.75348e-05
1.7029e-05
1.65512e-05
1.6099e-05
1.56704e-05
1.52638e-05
1.48774e-05
1.45098e-05
1.41597e-05
1.38259e-05
1.35073e-05
1.32028e-05
1.29116e-05
1.26329e-05
1.23658e-05
1.21096e-05
1.18637e-05
1.16276e-05
1.14005e-05
1.11821e-05
1.09718e-05
1.07692e-05
1.05739e-05
1.03856e-05
1.02037e-05
1.00281e-05
9.85842e-06
9.69433e-06
9.53558e-06
9.38193e-06
0.000117003
0.00010034
8.75447e-05
7.74577e-05
6.93325e-05
6.26667e-05
5.71114e-05
5.24181e-05
4.84061e-05
4.49408e-05
4.19202e-05
3.92659e-05
3.69164e-05
3.48233e-05
3.29475e-05
3.12576e-05
2.97278e-05
2.83367e-05
2.70666e-05
2.59027e-05
2.48323e-05
2.38449e-05
2.29313e-05
2.20836e-05
2.12951e-05
2.05599e-05
1.98727e-05
1.92292e-05
1.86253e-05
1.80576e-05
1.75228e-05
1.70184e-05
1.65417e-05
1.60907e-05
1.56632e-05
1.52576e-05
1.48722e-05
1.45056e-05
1.41564e-05
1.38234e-05
1.35056e-05
1.32019e-05
1.29115e-05
1.26334e-05
1.2367e-05
1.21115e-05
1.18664e-05
1.16309e-05
1.14046e-05
1.1187e-05
1.09775e-05
1.07757e-05
1.05812e-05
1.03936e-05
1.02127e-05
1.00379e-05
9.86908e-06
9.70585e-06
9.54787e-06
9.39463e-06
0.00011703
0.000100512
8.7839e-05
7.78707e-05
6.98595e-05
6.32971e-05
5.78338e-05
5.32225e-05
4.92837e-05
4.5884e-05
4.29226e-05
4.03218e-05
3.80212e-05
3.59729e-05
3.41385e-05
3.2487e-05
3.09931e-05
2.96358e-05
2.83977e-05
2.72642e-05
2.6223e-05
2.52637e-05
2.43772e-05
2.3556e-05
2.27934e-05
2.20836e-05
2.14215e-05
2.08029e-05
2.02238e-05
1.96807e-05
1.91707e-05
1.8691e-05
1.82392e-05
1.78131e-05
1.74107e-05
1.70304e-05
1.66704e-05
1.63294e-05
1.6006e-05
1.5699e-05
1.54075e-05
1.51303e-05
1.48665e-05
1.46153e-05
1.4376e-05
1.41479e-05
1.39302e-05
1.37224e-05
1.35238e-05
1.3334e-05
1.31526e-05
1.2979e-05
1.28128e-05
1.26537e-05
1.25013e-05
1.23551e-05
1.22149e-05
1.20799e-05
1.19486e-05
1.18079e-05
0.000201954
0.000185938
0.000172577
0.000161287
0.000151636
0.000143307
0.000136056
0.000129698
0.000124085
0.000119102
0.000114654
0.000110664
0.000107069
0.000103817
0.000100866
9.81769e-05
9.57201e-05
9.34689e-05
9.14004e-05
8.94953e-05
8.77366e-05
8.61096e-05
8.46014e-05
8.32007e-05
8.18975e-05
8.06832e-05
7.95498e-05
7.84904e-05
7.74988e-05
7.65695e-05
7.56974e-05
7.48781e-05
7.41074e-05
7.33818e-05
7.26979e-05
7.20526e-05
7.14432e-05
7.08671e-05
7.03221e-05
6.98061e-05
6.9317e-05
6.88532e-05
6.8413e-05
6.79948e-05
6.75972e-05
6.72191e-05
6.68591e-05
6.65162e-05
6.61893e-05
6.58775e-05
6.55799e-05
6.52957e-05
6.5024e-05
6.47642e-05
6.45156e-05
6.42776e-05
6.40495e-05
6.38309e-05
6.36212e-05
6.34199e-05
)
;

boundaryField
{
    wall
    {
        type            nutkWallFunction;
        Cmu             0.09;
        kappa           0.41;
        E               9.8;
        value           nonuniform List<scalar> 
1200
(
1.45301e-05
1.35454e-05
1.35424e-05
1.35424e-05
1.35424e-05
1.35424e-05
1.35424e-05
1.35424e-05
1.35454e-05
1.453e-05
1.34572e-05
1.17545e-05
1.17357e-05
1.174e-05
1.174e-05
1.174e-05
1.174e-05
1.17357e-05
1.17545e-05
1.34572e-05
1.25548e-05
1.03592e-05
1.03265e-05
1.03337e-05
1.0333e-05
1.0333e-05
1.03337e-05
1.03265e-05
1.03592e-05
1.25548e-05
1.17865e-05
9.24632e-06
9.19991e-06
9.20905e-06
9.20764e-06
9.20764e-06
9.20904e-06
9.19992e-06
9.24635e-06
1.17865e-05
1.11252e-05
8.34059e-06
8.28069e-06
8.29093e-06
8.28894e-06
8.28894e-06
8.29093e-06
8.28069e-06
8.34064e-06
1.11252e-05
1.05507e-05
7.59004e-06
7.51761e-06
7.52829e-06
7.5259e-06
7.5259e-06
7.52829e-06
7.51762e-06
7.59011e-06
1.05507e-05
1.00477e-05
6.95853e-06
6.87469e-06
6.88536e-06
6.88273e-06
6.88273e-06
6.88536e-06
6.8747e-06
6.95863e-06
1.00477e-05
9.60421e-06
6.42024e-06
6.326e-06
6.33638e-06
6.33366e-06
6.33367e-06
6.33637e-06
6.326e-06
6.42037e-06
9.60418e-06
9.21076e-06
5.95623e-06
5.85248e-06
5.8624e-06
5.85971e-06
5.85971e-06
5.8624e-06
5.85248e-06
5.9564e-06
9.21073e-06
8.85977e-06
5.55228e-06
5.43982e-06
5.4492e-06
5.4466e-06
5.4466e-06
5.4492e-06
5.43983e-06
5.55249e-06
8.85974e-06
8.54508e-06
5.19756e-06
5.0771e-06
5.0859e-06
5.08342e-06
5.08343e-06
5.08589e-06
5.0771e-06
5.19782e-06
8.54505e-06
8.26167e-06
4.88366e-06
4.75582e-06
4.76402e-06
4.7617e-06
4.76171e-06
4.76402e-06
4.75582e-06
4.88396e-06
8.26163e-06
8.00536e-06
4.60399e-06
4.4693e-06
4.47692e-06
4.47477e-06
4.47477e-06
4.47692e-06
4.4693e-06
4.60433e-06
8.00533e-06
7.7727e-06
4.35329e-06
4.21221e-06
4.21927e-06
4.21729e-06
4.21729e-06
4.21927e-06
4.21221e-06
4.35367e-06
7.77267e-06
7.56077e-06
4.12732e-06
3.98024e-06
3.98677e-06
3.98495e-06
3.98495e-06
3.98677e-06
3.98024e-06
4.12773e-06
7.56074e-06
7.36712e-06
3.92263e-06
3.76989e-06
3.77592e-06
3.77426e-06
3.77426e-06
3.77592e-06
3.76989e-06
3.92306e-06
7.36709e-06
7.18965e-06
3.73639e-06
3.57827e-06
3.58384e-06
3.58233e-06
3.58233e-06
3.58384e-06
3.57827e-06
3.73684e-06
7.18962e-06
7.02658e-06
3.56623e-06
3.40299e-06
3.40812e-06
3.40674e-06
3.40675e-06
3.40812e-06
3.40299e-06
3.56669e-06
7.02655e-06
6.87636e-06
3.4102e-06
3.24203e-06
3.24676e-06
3.24551e-06
3.24551e-06
3.24676e-06
3.24203e-06
3.41067e-06
6.87633e-06
6.73766e-06
3.26662e-06
3.0937e-06
3.09806e-06
3.09693e-06
3.09693e-06
3.09806e-06
3.0937e-06
3.2671e-06
6.73763e-06
6.60931e-06
3.1341e-06
2.95657e-06
2.96058e-06
2.95956e-06
2.95956e-06
2.96058e-06
2.95658e-06
3.13458e-06
6.60929e-06
6.49032e-06
3.01143e-06
2.82942e-06
2.8331e-06
2.83218e-06
2.83218e-06
2.8331e-06
2.82942e-06
3.01191e-06
6.49029e-06
6.37979e-06
2.89757e-06
2.71118e-06
2.71456e-06
2.71373e-06
2.71373e-06
2.71456e-06
2.71118e-06
2.89806e-06
6.37976e-06
6.27693e-06
2.79164e-06
2.60094e-06
2.60405e-06
2.6033e-06
2.6033e-06
2.60405e-06
2.60094e-06
2.79212e-06
6.27691e-06
6.18106e-06
2.69286e-06
2.49792e-06
2.50077e-06
2.50009e-06
2.50009e-06
2.50077e-06
2.49792e-06
2.69334e-06
6.18104e-06
6.09157e-06
2.60054e-06
2.40142e-06
2.40402e-06
2.40342e-06
2.40342e-06
2.40402e-06
2.40142e-06
2.60102e-06
6.09154e-06
6.0079e-06
2.51411e-06
2.31084e-06
2.31322e-06
2.31267e-06
2.31267e-06
2.31322e-06
2.31084e-06
2.51458e-06
6.00787e-06
5.92957e-06
2.43303e-06
2.22565e-06
2.22781e-06
2.22732e-06
2.22732e-06
2.22781e-06
2.22565e-06
2.4335e-06
5.92954e-06
5.85614e-06
2.35685e-06
2.14537e-06
2.14733e-06
2.14689e-06
2.14689e-06
2.14733e-06
2.14537e-06
2.35732e-06
5.85612e-06
5.78723e-06
2.28516e-06
2.06959e-06
2.07136e-06
2.07097e-06
2.07097e-06
2.07136e-06
2.06959e-06
2.28562e-06
5.7872e-06
5.72247e-06
2.2176e-06
1.99794e-06
1.99953e-06
1.99919e-06
1.99918e-06
1.99953e-06
1.99794e-06
2.21805e-06
5.72245e-06
5.66155e-06
2.15383e-06
1.93008e-06
1.93151e-06
1.9312e-06
1.9312e-06
1.9315e-06
1.93008e-06
2.15427e-06
5.66153e-06
5.60418e-06
2.09358e-06
1.86573e-06
1.86699e-06
1.86672e-06
1.86672e-06
1.86699e-06
1.86572e-06
2.094e-06
5.60416e-06
5.5501e-06
2.03658e-06
1.8046e-06
1.80571e-06
1.80548e-06
1.80547e-06
1.80571e-06
1.8046e-06
2.03698e-06
5.55008e-06
5.49907e-06
1.98259e-06
1.74647e-06
1.74744e-06
1.74723e-06
1.74723e-06
1.74744e-06
1.74647e-06
1.98297e-06
5.49905e-06
5.45087e-06
1.9314e-06
1.69112e-06
1.69195e-06
1.69176e-06
1.69176e-06
1.69194e-06
1.69111e-06
1.93176e-06
5.45085e-06
5.40531e-06
1.88282e-06
1.63834e-06
1.63904e-06
1.63888e-06
1.63888e-06
1.63903e-06
1.63834e-06
1.88316e-06
5.40529e-06
5.36219e-06
1.83667e-06
1.58797e-06
1.58854e-06
1.5884e-06
1.5884e-06
1.58853e-06
1.58796e-06
1.837e-06
5.36217e-06
5.32137e-06
1.7928e-06
1.53983e-06
1.54028e-06
1.54017e-06
1.54017e-06
1.54028e-06
1.53983e-06
1.7931e-06
5.32135e-06
5.28268e-06
1.75105e-06
1.4938e-06
1.49412e-06
1.49403e-06
1.49403e-06
1.49412e-06
1.49378e-06
1.75133e-06
5.28266e-06
5.24598e-06
1.71128e-06
1.44973e-06
1.44992e-06
1.44985e-06
1.44985e-06
1.44992e-06
1.44969e-06
1.71156e-06
5.24596e-06
5.21115e-06
1.67338e-06
1.40749e-06
1.40756e-06
1.4075e-06
1.4075e-06
1.40756e-06
1.40744e-06
1.67365e-06
5.21113e-06
5.17806e-06
1.63723e-06
1.36698e-06
1.36692e-06
1.36688e-06
1.36688e-06
1.36692e-06
1.36691e-06
1.6375e-06
5.17804e-06
5.14661e-06
1.60273e-06
1.3281e-06
1.3279e-06
1.32787e-06
1.32787e-06
1.3279e-06
1.32799e-06
1.603e-06
5.14659e-06
5.11669e-06
1.56979e-06
1.29074e-06
1.2904e-06
1.29039e-06
1.29038e-06
1.2904e-06
1.29059e-06
1.57006e-06
5.11667e-06
5.08821e-06
1.53831e-06
1.25482e-06
1.25434e-06
1.25434e-06
1.25433e-06
1.25433e-06
1.25462e-06
1.53859e-06
5.08819e-06
5.06108e-06
1.50821e-06
1.22025e-06
1.21963e-06
1.21964e-06
1.21963e-06
1.21962e-06
1.22001e-06
1.5085e-06
5.06106e-06
5.03522e-06
1.47941e-06
1.18696e-06
1.1862e-06
1.18621e-06
1.18621e-06
1.18619e-06
1.18667e-06
1.47971e-06
5.0352e-06
5.01056e-06
1.45186e-06
1.15488e-06
1.15397e-06
1.15399e-06
1.15399e-06
1.15396e-06
1.15455e-06
1.45216e-06
5.01054e-06
4.98702e-06
1.42547e-06
1.12395e-06
1.12288e-06
1.12291e-06
1.12291e-06
1.12287e-06
1.12357e-06
1.42578e-06
4.987e-06
4.96454e-06
1.40019e-06
1.0941e-06
1.09288e-06
1.09291e-06
1.09291e-06
1.09287e-06
1.09368e-06
1.4005e-06
4.96452e-06
4.94306e-06
1.37596e-06
1.06529e-06
1.06389e-06
1.06394e-06
1.06393e-06
1.06388e-06
1.06481e-06
1.37628e-06
4.94304e-06
4.92252e-06
1.35273e-06
1.03744e-06
1.03588e-06
1.03593e-06
1.03593e-06
1.03587e-06
1.03692e-06
1.35305e-06
4.9225e-06
4.90287e-06
1.33044e-06
1.01053e-06
1.0088e-06
1.00885e-06
1.00885e-06
1.00879e-06
1.00995e-06
1.33077e-06
4.90284e-06
4.88405e-06
1.30904e-06
9.84494e-07
9.82591e-07
9.8265e-07
9.82646e-07
9.82577e-07
9.83866e-07
1.30938e-06
4.88403e-06
4.86603e-06
1.2885e-06
9.59301e-07
9.57218e-07
9.57281e-07
9.57277e-07
9.57203e-07
9.5862e-07
1.28885e-06
4.866e-06
4.84875e-06
1.26876e-06
9.34905e-07
9.3264e-07
9.32707e-07
9.32703e-07
9.32624e-07
9.34171e-07
1.26912e-06
4.84873e-06
4.83219e-06
1.24973e-06
9.11268e-07
9.0882e-07
9.0889e-07
9.08886e-07
9.08803e-07
9.10479e-07
1.2501e-06
4.83216e-06
4.8163e-06
1.2312e-06
8.88342e-07
8.85723e-07
8.85794e-07
8.85791e-07
8.85704e-07
8.87495e-07
1.23157e-06
4.81627e-06
4.80103e-06
1.21137e-06
8.66036e-07
8.63315e-07
8.63389e-07
8.63385e-07
8.63296e-07
8.65153e-07
1.21168e-06
4.801e-06
1.45301e-05
1.35454e-05
1.35424e-05
1.35424e-05
1.35424e-05
1.35424e-05
1.35424e-05
1.35424e-05
1.35454e-05
1.45301e-05
1.34572e-05
1.17545e-05
1.17357e-05
1.174e-05
1.174e-05
1.174e-05
1.174e-05
1.17357e-05
1.17545e-05
1.34572e-05
1.25548e-05
1.03592e-05
1.03266e-05
1.03337e-05
1.0333e-05
1.0333e-05
1.03337e-05
1.03266e-05
1.03592e-05
1.25548e-05
1.17864e-05
9.24632e-06
9.19993e-06
9.20905e-06
9.20765e-06
9.20765e-06
9.20904e-06
9.19994e-06
9.24637e-06
1.17864e-05
1.11251e-05
8.3406e-06
8.2807e-06
8.29092e-06
8.28895e-06
8.28895e-06
8.29092e-06
8.28071e-06
8.34069e-06
1.11251e-05
1.05506e-05
7.59005e-06
7.51762e-06
7.52829e-06
7.5259e-06
7.5259e-06
7.52828e-06
7.51763e-06
7.59018e-06
1.05506e-05
1.00476e-05
6.95851e-06
6.87469e-06
6.88535e-06
6.88273e-06
6.88273e-06
6.88535e-06
6.8747e-06
6.95869e-06
1.00476e-05
9.60415e-06
6.42019e-06
6.32599e-06
6.33636e-06
6.33366e-06
6.33366e-06
6.33636e-06
6.326e-06
6.42043e-06
9.60414e-06
9.2107e-06
5.95614e-06
5.85247e-06
5.86239e-06
5.8597e-06
5.8597e-06
5.86239e-06
5.85248e-06
5.95643e-06
9.21069e-06
8.85971e-06
5.55217e-06
5.43981e-06
5.44919e-06
5.44659e-06
5.44659e-06
5.44919e-06
5.43982e-06
5.55249e-06
8.8597e-06
8.54503e-06
5.19742e-06
5.07708e-06
5.08588e-06
5.08341e-06
5.08341e-06
5.08588e-06
5.07709e-06
5.19779e-06
8.54502e-06
8.26161e-06
4.88353e-06
4.7558e-06
4.76401e-06
4.76169e-06
4.7617e-06
4.76401e-06
4.75581e-06
4.88392e-06
8.2616e-06
8.00531e-06
4.60387e-06
4.46928e-06
4.47691e-06
4.47476e-06
4.47476e-06
4.47691e-06
4.46929e-06
4.60428e-06
8.0053e-06
7.77265e-06
4.3532e-06
4.21218e-06
4.21926e-06
4.21727e-06
4.21728e-06
4.21926e-06
4.21219e-06
4.35361e-06
7.77264e-06
7.56073e-06
4.12727e-06
3.98021e-06
3.98676e-06
3.98494e-06
3.98494e-06
3.98676e-06
3.98022e-06
4.12768e-06
7.56071e-06
7.36708e-06
3.92262e-06
3.76987e-06
3.77591e-06
3.77425e-06
3.77425e-06
3.77591e-06
3.76987e-06
3.92303e-06
7.36707e-06
7.18962e-06
3.73642e-06
3.57825e-06
3.58383e-06
3.58231e-06
3.58232e-06
3.58383e-06
3.57826e-06
3.73683e-06
7.1896e-06
7.02655e-06
3.56631e-06
3.40296e-06
3.40811e-06
3.40673e-06
3.40674e-06
3.40811e-06
3.40297e-06
3.5667e-06
7.02653e-06
6.87633e-06
3.4103e-06
3.242e-06
3.24675e-06
3.2455e-06
3.2455e-06
3.24675e-06
3.24201e-06
3.41068e-06
6.87631e-06
6.73763e-06
3.26675e-06
3.09368e-06
3.09805e-06
3.09692e-06
3.09692e-06
3.09805e-06
3.09369e-06
3.26712e-06
6.73761e-06
6.60929e-06
3.13424e-06
2.95655e-06
2.96058e-06
2.95955e-06
2.95955e-06
2.96058e-06
2.95656e-06
3.13459e-06
6.60927e-06
6.4903e-06
3.01157e-06
2.8294e-06
2.8331e-06
2.83217e-06
2.83217e-06
2.8331e-06
2.8294e-06
3.01191e-06
6.49028e-06
6.37977e-06
2.89771e-06
2.71116e-06
2.71456e-06
2.71372e-06
2.71372e-06
2.71456e-06
2.71116e-06
2.89803e-06
6.37975e-06
6.27691e-06
2.79177e-06
2.60092e-06
2.60404e-06
2.60329e-06
2.60329e-06
2.60404e-06
2.60093e-06
2.79208e-06
6.27689e-06
6.18104e-06
2.69298e-06
2.4979e-06
2.50076e-06
2.50008e-06
2.50008e-06
2.50076e-06
2.49791e-06
2.69326e-06
6.18102e-06
6.09155e-06
2.60066e-06
2.4014e-06
2.40402e-06
2.40341e-06
2.40341e-06
2.40402e-06
2.40141e-06
2.60092e-06
6.09153e-06
6.00788e-06
2.51422e-06
2.31082e-06
2.31321e-06
2.31266e-06
2.31266e-06
2.31321e-06
2.31083e-06
2.51446e-06
6.00786e-06
5.92955e-06
2.43314e-06
2.22563e-06
2.2278e-06
2.22731e-06
2.22731e-06
2.2278e-06
2.22563e-06
2.43335e-06
5.92953e-06
5.85612e-06
2.35696e-06
2.14535e-06
2.14732e-06
2.14688e-06
2.14688e-06
2.14732e-06
2.14536e-06
2.35715e-06
5.8561e-06
5.78721e-06
2.28527e-06
2.06957e-06
2.07135e-06
2.07096e-06
2.07096e-06
2.07135e-06
2.06958e-06
2.28545e-06
5.78719e-06
5.72245e-06
2.21772e-06
1.99792e-06
1.99952e-06
1.99917e-06
1.99917e-06
1.99952e-06
1.99792e-06
2.21787e-06
5.72243e-06
5.66153e-06
2.15397e-06
1.93006e-06
1.9315e-06
1.93119e-06
1.93119e-06
1.9315e-06
1.93007e-06
2.1541e-06
5.66151e-06
5.60416e-06
2.09373e-06
1.86571e-06
1.86698e-06
1.86671e-06
1.86671e-06
1.86698e-06
1.86571e-06
2.09385e-06
5.60414e-06
5.55008e-06
2.03674e-06
1.80458e-06
1.80571e-06
1.80546e-06
1.80546e-06
1.80571e-06
1.80458e-06
2.03685e-06
5.55006e-06
5.49905e-06
1.98277e-06
1.74645e-06
1.74743e-06
1.74722e-06
1.74722e-06
1.74743e-06
1.74645e-06
1.98286e-06
5.49902e-06
5.45085e-06
1.9316e-06
1.69109e-06
1.69194e-06
1.69175e-06
1.69175e-06
1.69194e-06
1.69109e-06
1.93168e-06
5.45082e-06
5.40528e-06
1.88303e-06
1.63832e-06
1.63903e-06
1.63887e-06
1.63887e-06
1.63903e-06
1.63832e-06
1.8831e-06
5.40526e-06
5.36217e-06
1.8369e-06
1.58794e-06
1.58853e-06
1.58839e-06
1.58839e-06
1.58853e-06
1.58794e-06
1.83696e-06
5.36215e-06
5.32134e-06
1.79304e-06
1.53981e-06
1.54027e-06
1.54016e-06
1.54015e-06
1.54027e-06
1.53981e-06
1.79308e-06
5.32132e-06
5.28265e-06
1.75129e-06
1.49377e-06
1.49411e-06
1.49401e-06
1.49401e-06
1.49411e-06
1.49376e-06
1.75133e-06
5.28263e-06
5.24595e-06
1.71153e-06
1.4497e-06
1.44991e-06
1.44983e-06
1.44983e-06
1.44991e-06
1.44967e-06
1.71157e-06
5.24593e-06
5.21112e-06
1.67364e-06
1.40746e-06
1.40755e-06
1.40749e-06
1.40749e-06
1.40755e-06
1.40742e-06
1.67367e-06
5.21109e-06
5.17803e-06
1.6375e-06
1.36695e-06
1.36691e-06
1.36686e-06
1.36686e-06
1.36691e-06
1.36688e-06
1.63753e-06
5.17801e-06
5.14658e-06
1.603e-06
1.32807e-06
1.32789e-06
1.32786e-06
1.32785e-06
1.32789e-06
1.32796e-06
1.60304e-06
5.14655e-06
5.11666e-06
1.57005e-06
1.2907e-06
1.29039e-06
1.29037e-06
1.29037e-06
1.29039e-06
1.29056e-06
1.57011e-06
5.11663e-06
5.08818e-06
1.53857e-06
1.25478e-06
1.25433e-06
1.25432e-06
1.25432e-06
1.25432e-06
1.2546e-06
1.53864e-06
5.08815e-06
5.06105e-06
1.50847e-06
1.22021e-06
1.21962e-06
1.21962e-06
1.21962e-06
1.21961e-06
1.21999e-06
1.50855e-06
5.06102e-06
5.03519e-06
1.47967e-06
1.18692e-06
1.18618e-06
1.18619e-06
1.18619e-06
1.18618e-06
1.18665e-06
1.47976e-06
5.03516e-06
5.01052e-06
1.45211e-06
1.15484e-06
1.15395e-06
1.15397e-06
1.15397e-06
1.15395e-06
1.15453e-06
1.45221e-06
5.0105e-06
4.98699e-06
1.42572e-06
1.1239e-06
1.12286e-06
1.12289e-06
1.12289e-06
1.12286e-06
1.12355e-06
1.42582e-06
4.98695e-06
4.9645e-06
1.40044e-06
1.09405e-06
1.09286e-06
1.09289e-06
1.09289e-06
1.09285e-06
1.09366e-06
1.40055e-06
4.96447e-06
4.94302e-06
1.3762e-06
1.06523e-06
1.06388e-06
1.06392e-06
1.06391e-06
1.06387e-06
1.06479e-06
1.37632e-06
4.94299e-06
4.92248e-06
1.35297e-06
1.03739e-06
1.03587e-06
1.03591e-06
1.03591e-06
1.03586e-06
1.0369e-06
1.35309e-06
4.92245e-06
4.90283e-06
1.33069e-06
1.01047e-06
1.00878e-06
1.00883e-06
1.00883e-06
1.00877e-06
1.00994e-06
1.33081e-06
4.90279e-06
4.88401e-06
1.3093e-06
9.84434e-07
9.8257e-07
9.82627e-07
9.82625e-07
9.82564e-07
9.83852e-07
1.30943e-06
4.88397e-06
4.86599e-06
1.28877e-06
9.59238e-07
9.57197e-07
9.57257e-07
9.57255e-07
9.57189e-07
9.58605e-07
1.28889e-06
4.86595e-06
4.84871e-06
1.26904e-06
9.3484e-07
9.32618e-07
9.32682e-07
9.3268e-07
9.3261e-07
9.34156e-07
1.26916e-06
4.84867e-06
4.83215e-06
1.25001e-06
9.112e-07
9.08797e-07
9.08864e-07
9.08862e-07
9.08788e-07
9.10463e-07
1.25013e-06
4.8321e-06
4.81626e-06
1.2315e-06
8.88271e-07
8.85699e-07
8.85769e-07
8.85767e-07
8.85689e-07
8.87479e-07
1.23161e-06
4.81621e-06
4.80099e-06
1.21165e-06
8.65962e-07
8.63291e-07
8.63363e-07
8.63361e-07
8.6328e-07
8.65134e-07
1.21171e-06
4.80094e-06
)
;
    }
    inlet
    {
        type            calculated;
        value           uniform 0.00952565;
    }
    outlet
    {
        type            calculated;
        value           nonuniform List<scalar> 
20
(
6.34211e-05
1.18054e-05
9.40081e-06
9.38217e-06
9.38268e-06
9.38265e-06
9.38204e-06
9.39476e-06
1.18076e-05
6.34207e-05
6.34206e-05
1.18074e-05
9.4003e-06
9.382e-06
9.3825e-06
9.38248e-06
9.38193e-06
9.39463e-06
1.18079e-05
6.34199e-05
)
;
    }
    heatWall
    {
        type            nutkWallFunction;
        Cmu             0.09;