/*--------------------------------*- C++ -*----------------------------------*\
  =========                 |
  \\      /  F ield         | OpenFOAM: The Open Source CFD Toolbox
   \\    /   O peration     | Website:  https://openfoam.org
    \\  /    A nd           | Version:  8
     \\/     M anipulation  |
\*---------------------------------------------------------------------------*/
FoamFile
{
    version     2.0;
    format      ascii;
    class       volScalarField;
    location    "700";
    object      p;
}
// * * * * * * * * * * * * * * * * * * * * * * * * * * * * * * * * * * * * * //

dimensions      [1 -1 -2 0 0 0 0];

internalField   nonuniform List<scalar> 
1200
(
466.539
258.752
170.816
140.481
120.288
103.372
89.728
78.3773
68.5105
59.7561
51.8919
44.7749
38.307
32.3949
26.9576
21.9293
17.2613
12.9147
8.8451
5.01494
1.39971
-2.02157
-5.27626
-8.39071
-11.3774
-14.2479
-17.0226
-19.7151
-22.3326
-24.8868
-27.3891
-29.8464
-32.2662
-34.6565
-37.0223
-39.3677
-41.6966
-44.0145
-46.3277
-48.6375
-50.9448
-53.2543
-55.5679
-57.8852
-60.2079
-62.5403
-64.886
-67.2447
-69.6136
-71.9942
-74.3908
-76.8028
-79.2318
-81.6771
-84.1365
-86.6141
-89.1184
-91.6718
-94.3129
-97.7263
-170.859
-145.392
-139.037
-133.136
-132.164
-134.991
-139.226
-143.971
-148.91
-153.84
-158.655
-163.292
-167.714
-171.917
-175.915
-179.723
-183.355
-186.82
-190.136
-193.32
-196.383
-199.333
-202.186
-204.957
-207.65
-210.272
-212.835
-215.348
-217.814
-220.239
-222.633
-224.998
-227.341
-229.666
-231.976
-234.276
-236.567
-238.852
-241.139
-243.429
-245.721
-248.02
-250.326
-252.638
-254.958
-257.289
-259.635
-261.995
-264.366
-266.749
-269.149
-271.565
-273.999
-276.448
-278.913
-281.394
-283.899
-286.438
-289.027
-291.779
-294.613
-236.915
-230.357
-243.575
-258.688
-273.374
-287.155
-299.729
-311.062
-321.257
-330.46
-338.789
-346.332
-353.185
-359.436
-365.166
-370.437
-375.303
-379.814
-384.016
-387.947
-391.639
-395.123
-398.43
-401.577
-404.585
-407.475
-410.263
-412.96
-415.581
-418.138
-420.638
-423.093
-425.51
-427.896
-430.257
-432.596
-434.921
-437.237
-439.548
-441.856
-444.165
-446.477
-448.791
-451.11
-453.438
-455.778
-458.13
-460.491
-462.865
-465.254
-467.659
-470.081
-472.519
-474.972
-477.44
-479.927
-482.43
-484.922
-487.248
-489.298
-466.958
-473.589
-491.283
-505.149
-515.452
-524.078
-531.546
-538.067
-543.876
-549.172
-554.066
-558.622
-562.89
-566.913
-570.724
-574.349
-577.803
-581.103
-584.267
-587.309
-590.242
-593.079
-595.832
-598.507
-601.114
-603.665
-606.164
-608.618
-611.035
-613.421
-615.778
-618.113
-620.431
-622.734
-625.027
-627.312
-629.593
-631.873
-634.153
-636.436
-638.724
-641.019
-643.321
-645.631
-647.953
-650.29
-652.639
-654.999
-657.374
-659.764
-662.172
-664.597
-667.039
-669.496
-671.969
-674.455
-676.945
-679.399
-681.621
-680.873
-661.452
-657.928
-667.371
-677.488
-686.877
-696.401
-705.738
-714.496
-722.6
-730.083
-736.983
-743.338
-749.193
-754.597
-759.604
-764.258
-768.597
-772.655
-776.464
-780.056
-783.46
-786.697
-789.789
-792.752
-795.604
-798.362
-801.036
-803.638
-806.18
-808.669
-811.112
-813.519
-815.897
-818.248
-820.58
-822.896
-825.201
-827.5
-829.794
-832.087
-834.384
-836.684
-838.989
-841.303
-843.627
-845.963
-848.311
-850.669
-853.042
-855.43
-857.835
-860.256
-862.694
-865.148
-867.616
-870.095
-872.568
-874.984
-877.096
-876.051
-856.634
-853.114
-862.564
-872.686
-882.08
-891.602
-900.93
-909.683
-917.785
-925.263
-932.156
-938.507
-944.361
-949.765
-954.771
-959.425
-963.765
-967.823
-971.633
-975.227
-978.632
-981.871
-984.963
-987.928
-990.781
-993.54
-996.214
-998.816
-1001.36
-1003.85
-1006.29
-1008.7
-1011.08
-1013.43
-1015.76
-1018.08
-1020.39
-1022.69
-1024.98
-1027.27
-1029.57
-1031.87
-1034.17
-1036.48
-1038.8
-1041.14
-1043.48
-1045.84
-1048.21
-1050.59
-1052.99
-1055.41
-1057.85
-1060.3
-1062.77
-1065.24
-1067.72
-1070.13
-1072.25
-1074.83
-1052.49
-1059.11
-1076.8
-1090.67
-1100.98
-1109.61
-1117.08
-1123.6
-1129.42
-1134.72
-1139.61
-1144.17
-1148.44
-1152.47
-1156.28
-1159.9
-1163.36
-1166.66
-1169.82
-1172.86
-1175.79
-1178.63
-1181.38
-1184.05
-1186.66
-1189.21
-1191.7
-1194.16
-1196.58
-1198.96
-1201.32
-1203.66
-1205.98
-1208.28
-1210.57
-1212.86
-1215.14
-1217.42
-1219.7
-1221.98
-1224.27
-1226.56
-1228.86
-1231.17
-1233.5
-1235.83
-1238.18
-1240.54
-1242.92
-1245.31
-1247.72
-1250.14
-1252.58
-1255.04
-1257.51
-1260
-1262.49
-1264.95
-1267.17
-1270.51
-1212.84
-1206.29
-1219.51
-1234.62
-1249.31
-1263.08
-1275.62
-1286.93
-1297.13
-1306.32
-1314.64
-1322.18
-1329.04
-1335.3
-1341.04
-1346.31
-1351.18
-1355.69
-1359.9
-1363.83
-1367.52
-1371
-1374.31
-1377.45
-1380.46
-1383.35
-1386.14
-1388.84
-1391.46
-1394.02
-1396.52
-1398.97
-1401.39
-1403.78
-1406.14
-1408.48
-1410.8
-1413.12
-1415.42
-1417.73
-1420.03
-1422.34
-1424.65
-1426.97
-1429.29
-1431.63
-1433.98
-1436.34
-1438.71
-1441.1
-1443.51
-1445.93
-1448.36
-1450.82
-1453.29
-1455.78
-1458.28
-1460.78
-1463.11
-1537.1
-1511.62
-1505.3
-1499.4
-1498.44
-1501.29
-1505.52
-1510.24
-1515.17
-1520.12
-1524.93
-1529.55
-1533.97
-1538.17
-1542.17
-1545.98
-1549.6
-1553.07
-1556.38
-1559.56
-1562.62
-1565.57
-1568.42
-1571.19
-1573.88
-1576.5
-1579.07
-1581.58
-1584.04
-1586.47
-1588.87
-1591.24
-1593.58
-1595.9
-1598.21
-1600.51
-1602.8
-1605.09
-1607.37
-1609.66
-1611.95
-1614.24
-1616.54
-1618.85
-1621.17
-1623.49
-1625.84
-1628.19
-1630.56
-1632.94
-1635.34
-1637.75
-1640.18
-1642.63
-1645.09
-1647.58
-1650.08
-1652.63
-1655.22
-1657.98
-1290.13
-1497.79
-1585.76
-1616.1
-1636.29
-1653.23
-1666.86
-1678.17
-1688.03
-1696.8
-1704.66
-1711.77
-1718.24
-1724.16
-1729.6
-1734.63
-1739.3
-1743.65
-1747.72
-1751.54
-1755.15
-1758.58
-1761.83
-1764.94
-1767.92
-1770.8
-1773.57
-1776.26
-1778.88
-1781.44
-1783.94
-1786.4
-1788.82
-1791.21
-1793.57
-1795.91
-1798.24
-1800.56
-1802.87
-1805.18
-1807.49
-1809.8
-1812.11
-1814.42
-1816.75
-1819.08
-1821.43
-1823.78
-1826.15
-1828.53
-1830.93
-1833.34
-1835.76
-1838.21
-1840.67
-1843.15
-1845.66
-1848.22
-1850.86
-1854.29
465.872
258.639
170.726
140.449
120.309
103.362
89.7151
78.4203
68.5944
59.8436
51.9945
44.8967
38.4195
32.4781
27.0103
21.9616
17.2786
12.9127
8.83059
5.00234
1.39256
-2.0307
-5.28672
-8.39067
-11.3672
-14.2376
-17.0105
-19.6981
-22.3163
-24.874
-27.3778
-29.8373
-32.2594
-34.6494
-37.0138
-39.3589
-41.6902
-44.0103
-46.3204
-48.6249
-50.9285
-53.2327
-55.5401
-57.8551
-60.1794
-62.512
-64.8521
-67.2028
-69.5692
-71.9514
-74.3471
-76.7583
-79.1849
-81.6288
-84.0933
-86.578
-89.084
-91.6301
-94.2663
-97.69
-170.969
-145.492
-139.228
-133.255
-132.197
-135.021
-139.254
-143.959
-148.874
-153.812
-158.619
-163.239
-167.664
-171.889
-175.912
-179.736
-183.378
-186.858
-190.184
-193.369
-196.431
-199.386
-202.243
-205.007
-207.694
-210.318
-212.88
-215.39
-217.856
-220.285
-222.68
-225.047
-227.392
-229.717
-232.027
-234.327
-236.621
-238.91
-241.194
-243.48
-245.77
-248.064
-250.365
-252.675
-254.997
-257.328
-259.668
-262.02
-264.388
-266.773
-269.172
-271.586
-274.016
-276.464
-278.931
-281.418
-283.924
-286.455
-289.036
-291.789
-294.746
-237.249
-230.812
-243.963
-258.947
-273.545
-287.266
-299.774
-311.064
-321.249
-330.436
-338.74
-346.278
-353.143
-359.412
-365.153
-370.431
-375.307
-379.827
-384.035
-387.97
-391.668
-395.158
-398.461
-401.608
-404.619
-407.508
-410.294
-412.992
-415.614
-418.171
-420.673
-423.128
-425.544
-427.929
-430.288
-432.629
-434.955
-437.268
-439.575
-441.881
-444.186
-446.493
-448.806
-451.127
-453.455
-455.79
-458.136
-460.497
-462.873
-465.263
-467.667
-470.086
-472.522
-474.977
-477.45
-479.938
-482.434
-484.918
-487.243
-489.388
-467.062
-473.72
-491.377
-505.155
-515.397
-524.007
-531.473
-537.999
-543.832
-549.141
-554.035
-558.596
-562.877
-566.914
-570.733
-574.358
-577.813
-581.116
-584.285
-587.331
-590.269
-593.11
-595.862
-598.539
-601.151
-603.701
-606.2
-608.656
-611.072
-613.455
-615.813
-618.147
-620.462
-622.764
-625.055
-627.34
-629.62
-631.898
-634.177
-636.459
-638.744
-641.036
-643.337
-645.65
-647.972
-650.304
-652.65
-655.011
-657.389
-659.781
-662.188
-664.611
-667.052
-669.51
-671.985
-674.472
-676.955
-679.4
-681.62
-680.956
-661.56
-658.132
-667.598
-677.626
-686.912
-696.384
-705.708
-714.47
-722.589
-730.082
-736.98
-743.33
-749.183
-754.591
-759.597
-764.246
-768.58
-772.638
-776.455
-780.055
-783.465
-786.708
-789.804
-792.773
-795.632
-798.391
-801.067
-803.67
-806.21
-808.697
-811.14
-813.545
-815.918
-818.267
-820.597
-822.913
-825.217
-827.514
-829.808
-832.101
-834.395
-836.694
-839
-841.315
-843.638
-845.971
-848.316
-850.677
-853.052
-855.441
-857.845
-860.264
-862.701
-865.154
-867.624
-870.102
-872.57
-874.977
-877.088
-876.124
-856.73
-853.309
-862.781
-872.814
-882.101
-891.575
-900.902
-909.666
-917.78
-925.272
-932.17
-938.516
-944.364
-949.769
-954.773
-959.42
-963.753
-967.811
-971.628
-975.228
-978.639
-981.882
-984.979
-987.949
-990.807
-993.568
-996.245
-998.849
-1001.39
-1003.88
-1006.32
-1008.72
-1011.1
-1013.45
-1015.78
-1018.09
-1020.4
-1022.7
-1024.99
-1027.29
-1029.58
-1031.88
-1034.19
-1036.5
-1038.82
-1041.15
-1043.49
-1045.85
-1048.23
-1050.61
-1053.01
-1055.43
-1057.86
-1060.31
-1062.78
-1065.26
-1067.72
-1070.13
-1072.25
-1074.89
-1052.56
-1059.22
-1076.88
-1090.66
-1100.9
-1109.52
-1117
-1123.54
-1129.38
-1134.7
-1139.6
-1144.17
-1148.44
-1152.47
-1156.29
-1159.91
-1163.36
-1166.66
-1169.83
-1172.87
-1175.81
-1178.64
-1181.4
-1184.07
-1186.68
-1189.23
-1191.73
-1194.19
-1196.6
-1198.99
-1201.34
-1203.68
-1205.99
-1208.29
-1210.58
-1212.87
-1215.15
-1217.43
-1219.71
-1221.99
-1224.28
-1226.57
-1228.88
-1231.19
-1233.51
-1235.85
-1238.19
-1240.56
-1242.93
-1245.32
-1247.73
-1250.15
-1252.59
-1255.05
-1257.53
-1260.01
-1262.5
-1264.95
-1267.17
-1270.59
-1213.13
-1206.7
-1219.86
-1234.84
-1249.43
-1263.15
-1275.68
-1286.97
-1297.14
-1306.33
-1314.64
-1322.18
-1329.04
-1335.3
-1341.03
-1346.31
-1351.18
-1355.7
-1359.9
-1363.84
-1367.53
-1371.02
-1374.33
-1377.47
-1380.48
-1383.37
-1386.16
-1388.86
-1391.48
-1394.03
-1396.54
-1398.99
-1401.41
-1403.79
-1406.16
-1408.5
-1410.82
-1413.14
-1415.45
-1417.75
-1420.06
-1422.36
-1424.68
-1426.99
-1429.32
-1431.65
-1434
-1436.36
-1438.74
-1441.13
-1443.53
-1445.95
-1448.39
-1450.84
-1453.31
-1455.8
-1458.3
-1460.79
-1463.11
-1537.08
-1511.64
-1505.39
-1499.45
-1498.41
-1501.22
-1505.48
-1510.23
-1515.17
-1520.1
-1524.91
-1529.54
-1533.96
-1538.17
-1542.18
-1545.99
-1549.62
-1553.09
-1556.41
-1559.59
-1562.65
-1565.6
-1568.45
-1571.22
-1573.91
-1576.53
-1579.09
-1581.6
-1584.06
-1586.49
-1588.88
-1591.25
-1593.59
-1595.92
-1598.23
-1600.53
-1602.83
-1605.11
-1607.4
-1609.69
-1611.98
-1614.27
-1616.57
-1618.88
-1621.19
-1623.52
-1625.86
-1628.21
-1630.58
-1632.97
-1635.36
-1637.78
-1640.21
-1642.66
-1645.12
-1647.61
-1650.11
-1652.64
-1655.23
-1657.99
-1290.68
-1497.92
-1585.83
-1616.12
-1636.27
-1653.2
-1666.86
-1678.19
-1688.03
-1696.77
-1704.62
-1711.72
-1718.19
-1724.12
-1729.57
-1734.61
-1739.29
-1743.64
-1747.72
-1751.55
-1755.15
-1758.57
-1761.83
-1764.93
-1767.91
-1770.78
-1773.55
-1776.24
-1778.86
-1781.41
-1783.92
-1786.38
-1788.8
-1791.19
-1793.56
-1795.91
-1798.24
-1800.56
-1802.87
-1805.18
-1807.48
-1809.79
-1812.1
-1814.42
-1816.74
-1819.07
-1821.42
-1823.77
-1826.14
-1828.52
-1830.91
-1833.33
-1835.75
-1838.2
-1840.66
-1843.14
-1845.65
-1848.2
-1850.84
-1854.27
)
;

boundaryField
{
    wall
    {
        type            calculated;
        value           nonuniform List<scalar> 
1200
(
466.873
-170.804
-294.547
-489.253
-680.832
-876.014
-1074.8
-1270.47
-1537.1
-1289.85
258.81
-145.341
-236.747
-466.906
-661.399
-856.586
-1052.45
-1212.7
-1511.6
-1497.72
170.861
-138.941
-230.129
-473.524
-657.826
-853.016
-1059.05
-1206.09
-1505.25
-1585.73
140.496
-133.076
-243.38
-491.235
-667.257
-862.454
-1076.75
-1219.33
-1499.38
-1616.09
120.277
-132.147
-258.558
-505.146
-677.417
-872.621
-1090.67
-1234.5
-1498.45
-1636.31
103.377
-134.975
-273.288
-515.479
-686.859
-882.069
-1101.01
-1249.26
-1501.32
-1653.24
89.735
-139.211
-287.099
-524.114
-696.409
-891.617
-1109.66
-1263.05
-1505.54
-1666.86
78.3563
-143.976
-299.707
-531.583
-705.754
-900.944
-1117.12
-1275.58
-1510.24
-1678.16
68.469
-148.927
-311.061
-538.101
-714.51
-909.692
-1123.63
-1286.91
-1515.18
-1688.04
59.7126
-153.854
-321.26
-543.899
-722.605
-917.788
-1129.45
-1297.12
-1520.13
-1696.82
51.8406
-158.673
-330.472
-549.187
-730.084
-925.259
-1134.73
-1306.32
-1524.94
-1704.68
44.7136
-163.319
-338.814
-554.081
-736.985
-932.15
-1139.61
-1314.63
-1529.56
-1711.79
38.2502
-167.738
-346.36
-558.635
-743.342
-938.503
-1144.17
-1322.18
-1533.97
-1718.26
32.3526
-171.931
-353.206
-562.897
-749.198
-944.36
-1148.44
-1329.05
-1538.18
-1724.18
26.9306
-175.917
-359.449
-566.913
-754.6
-949.762
-1152.46
-1335.3
-1542.17
-1729.61
21.9125
-179.717
-365.172
-570.72
-759.607
-954.77
-1156.27
-1341.04
-1545.97
-1734.64
17.2521
-183.344
-370.44
-574.344
-764.264
-959.428
-1159.9
-1346.31
-1549.6
-1739.31
12.9153
-186.802
-375.301
-577.797
-768.605
-963.771
-1163.36
-1351.18
-1553.05
-1743.65
8.85222
-190.112
-379.807
-581.097
-772.663
-967.83
-1166.66
-1355.69
-1556.36
-1747.72
5.02126
-193.296
-384.007
-584.258
-776.468
-971.636
-1169.81
-1359.89
-1559.54
-1751.54
1.40336
-196.359
-387.936
-587.298
-780.057
-975.227
-1172.85
-1363.82
-1562.6
-1755.15
-2.01683
-199.307
-391.625
-590.229
-783.458
-978.629
-1175.78
-1367.51
-1565.55
-1758.58
-5.27076
-202.158
-395.106
-593.064
-786.692
-981.865
-1178.62
-1371
-1568.41
-1761.84
-8.39047
-204.931
-398.414
-595.816
-789.782
-984.956
-1181.37
-1374.3
-1571.17
-1764.95
-11.3822
-207.628
-401.562
-598.491
-792.742
-987.917
-1184.04
-1377.44
-1573.87
-1767.93
-14.253
-210.249
-404.568
-601.096
-795.591
-990.768
-1186.64
-1380.45
-1576.49
-1770.81
-17.0286
-212.813
-407.458
-603.646
-798.348
-993.526
-1189.19
-1383.34
-1579.06
-1773.59
-19.7237
-215.327
-410.247
-606.146
-801.02
-996.198
-1191.69
-1386.13
-1581.57
-1776.27
-22.3409
-217.792
-412.944
-608.599
-803.621
-998.8
-1194.14
-1388.82
-1584.03
-1778.89
-24.8933
-220.217
-415.564
-611.017
-806.164
-1001.35
-1196.57
-1391.45
-1586.47
-1781.45
-27.3949
-222.61
-418.121
-613.403
-808.655
-1003.84
-1198.95
-1394.01
-1588.86
-1783.95
-29.8511
-224.974
-420.621
-615.76
-811.098
-1006.28
-1201.31
-1396.51
-1591.23
-1786.41
-32.2698
-227.315
-423.075
-618.095
-813.506
-1008.69
-1203.65
-1398.97
-1593.57
-1788.83
-34.6601
-229.64
-425.493
-620.415
-815.886
-1011.07
-1205.97
-1401.38
-1595.89
-1791.21
-37.0267
-231.951
-427.88
-622.72
-818.239
-1013.43
-1208.27
-1403.77
-1598.2
-1793.57
-39.3722
-234.25
-430.241
-625.014
-820.571
-1015.76
-1210.56
-1406.13
-1600.5
-1795.91
-41.6999
-236.539
-432.58
-627.298
-822.888
-1018.07
-1212.85
-1408.46
-1602.79
-1798.24
-44.0166
-238.824
-434.904
-629.579
-825.193
-1020.38
-1215.13
-1410.79
-1605.08
-1800.56
-46.3313
-241.111
-437.222
-631.86
-827.494
-1022.68
-1217.41
-1413.11
-1607.36
-1802.87
-48.6437
-243.403
-439.534
-634.142
-829.788
-1024.97
-1219.69
-1415.41
-1609.65
-1805.18
-50.9528
-245.697
-441.843
-636.424
-832.08
-1027.27
-1221.97
-1417.72
-1611.94
-1807.49
-53.2649
-247.998
-444.155
-638.714
-834.378
-1029.56
-1224.26
-1420.02
-1614.23
-1809.8
-55.5816
-250.307
-446.469
-641.011
-836.679
-1031.86
-1226.56
-1422.33
-1616.53
-1812.11
-57.9
-252.62
-448.783
-643.312
-838.984
-1034.17
-1228.86
-1424.64
-1618.83
-1814.42
-60.2219
-254.939
-451.102
-645.622
-841.297
-1036.47
-1231.17
-1426.95
-1621.15
-1816.75
-62.5542
-257.27
-453.429
-647.944
-843.621
-1038.8
-1233.49
-1429.28
-1623.48
-1819.09
-64.9028
-259.618
-455.771
-650.282
-845.959
-1041.13
-1235.83
-1431.62
-1625.83
-1821.43
-67.2655
-261.982
-458.126
-652.634
-848.309
-1043.47
-1238.18
-1433.97
-1628.18
-1823.79
-69.6356
-264.354
-460.488
-654.993
-850.666
-1045.83
-1240.53
-1436.33
-1630.54
-1826.15
-72.0155
-266.737
-462.861
-657.366
-853.037
-1048.2
-1242.91
-1438.7
-1632.93
-1828.53
-74.4126
-269.138
-465.249
-659.756
-855.424
-1050.58
-1245.3
-1441.09
-1635.33
-1830.93
-76.8251
-271.555
-467.655
-662.165
-857.831
-1052.98
-1247.71
-1443.5
-1637.74
-1833.34
-79.2554
-273.99
-470.079
-664.59
-860.252
-1055.4
-1250.13
-1445.91
-1640.17
-1835.77
-81.7014
-276.441
-472.517
-667.032
-862.69
-1057.84
-1252.57
-1448.35
-1642.62
-1838.21
-84.1584
-278.903
-474.969
-669.49
-865.145
-1060.29
-1255.03
-1450.81
-1645.08
-1840.67
-86.6323
-281.382
-477.435
-671.961
-867.612
-1062.76
-1257.5
-1453.28
-1647.56
-1843.15
-89.1358
-283.886
-479.921
-674.447
-870.091
-1065.24
-1259.99
-1455.77
-1650.07
-1845.66
-91.693
-286.43
-482.428
-676.94
-872.568
-1067.71
-1262.49
-1458.28
-1652.62
-1848.22
-94.3366
-289.022
-484.923
-679.399
-874.987
-1070.13
-1264.95
-1460.77
-1655.21
-1850.88
-97.7448
-291.774
-487.25
-681.622
-877.099
-1072.25
-1267.17
-1463.1
-1657.98
-1854.3
465.539
-171.025
-294.813
-489.433
-680.997
-876.161
-1074.92
-1270.63
-1537.07
-1290.95
258.581
-145.543
-237.416
-467.114
-661.614
-856.778
-1052.6
-1213.28
-1511.65
-1497.98
170.681
-139.324
-231.039
-473.786
-658.234
-853.406
-1059.28
-1206.91
-1505.43
-1585.86
140.434
-133.315
-244.157
-491.424
-667.712
-862.89
-1076.92
-1220.04
-1499.47
-1616.13
120.32
-132.214
-259.077
-505.158
-677.696
-872.879
-1090.66
-1234.95
-1498.39
-1636.25
103.356
-135.037
-273.631
-515.37
-686.93
-882.112
-1100.86
-1249.48
-1501.19
-1653.19
89.7081
-139.269
-287.322
-523.972
-696.376
-891.56
-1109.47
-1263.18
-1505.46
-1666.86
78.4412
-143.954
-299.797
-531.436
-705.692
-900.888
-1116.96
-1275.71
-1510.23
-1678.2
68.636
-148.857
-311.065
-537.965
-714.457
-909.656
-1123.51
-1286.99
-1515.17
-1688.03
59.8871
-153.798
-321.245
-543.81
-722.584
-917.778
-1129.36
-1297.15
-1520.08
-1696.75
52.0458
-158.602
-330.424
-549.126
-730.082
-925.276
-1134.69
-1306.33
-1524.9
-1704.59
44.958
-163.212
-338.715
-554.02
-736.979
-932.176
-1139.6
-1314.65
-1529.53
-1711.7
38.4764
-167.639
-346.251
-558.583
-743.326
-938.52
-1144.17
-1322.18
-1533.95
-1718.17
32.5205
-171.875
-353.122
-562.87
-749.178
-944.365
-1148.44
-1329.03
-1538.16
-1724.1
27.0373
-175.91
-359.399
-566.915
-754.588
-949.771
-1152.48
-1335.3
-1542.18
-1729.56
21.9783
-179.742
-365.146
-570.738
-759.594
-954.774
-1156.29
-1341.03
-1545.99
-1734.6
17.2877
-183.39
-370.428
-574.363
-764.24
-959.417
-1159.91
-1346.31
-1549.63
-1739.28
12.912
-186.876
-375.308
-577.818
-768.571
-963.747
-1163.36
-1351.18
-1553.1
-1743.64
8.82344
-190.208
-379.833
-581.123
-772.63
-967.805
-1166.66
-1355.7
-1556.42
-1747.72
4.99599
-193.394
-384.044
-584.293
-776.45
-971.625
-1169.83
-1359.91
-1559.61
-1751.55
1.38887
-196.455
-387.981
-587.342
-780.054
-975.229
-1172.88
-1363.84
-1562.67
-1755.16
-2.03547
-199.413
-391.683
-590.283
-783.467
-978.642
-1175.81
-1367.54
-1565.62
-1758.57
-5.29225
-202.271
-395.175
-593.125
-786.713
-981.887
-1178.65
-1371.03
-1568.47
-1761.82
-8.39093
-205.032
-398.477
-595.877
-789.811
-984.986
-1181.41
-1374.33
-1571.23
-1764.93
-11.3624
-207.716
-401.623
-598.556
-792.783
-987.959
-1184.09
-1377.48
-1573.92
-1767.9
-14.2325
-210.341
-404.635
-601.169
-795.645
-990.82
-1186.7
-1380.49
-1576.54
-1770.77
-17.0045
-212.903
-407.525
-603.72
-798.406
-993.582
-1189.25
-1383.38
-1579.1
-1773.54
-19.6896
-215.41
-410.309
-606.218
-801.082
-996.261
-1191.75
-1386.17
-1581.61
-1776.23
-22.3081
-217.878
-413.009
-608.675
-803.687
-998.865
-1194.2
-1388.87
-1584.07
-1778.85
-24.8675
-220.308
-415.631
-611.09
-806.225
-1001.4
-1196.62
-1391.49
-1586.5
-1781.4
-27.372
-222.703
-418.187
-613.473
-808.711
-1003.89
-1199
-1394.04
-1588.89
-1783.9
-29.8326
-225.072
-420.69
-615.83
-811.154
-1006.33
-1201.35
-1396.54
-1591.26
-1786.36
-32.2559
-227.418
-423.146
-618.164
-813.558
-1008.74
-1203.68
-1399
-1593.6
-1788.79
-34.6458
-229.743
-425.561
-620.478
-815.929
-1011.11
-1206
-1401.41
-1595.93
-1791.19
-37.0094
-232.053
-427.945
-622.778
-818.277
-1013.46
-1208.3
-1403.8
-1598.24
-1793.55
-39.3544
-234.353
-430.304
-625.069
-820.606
-1015.79
-1210.59
-1406.16
-1600.55
-1795.91
-41.6869
-236.648
-432.645
-627.354
-822.921
-1018.1
-1212.88
-1408.51
-1602.84
-1798.24
-44.0082
-238.938
-434.972
-629.634
-825.225
-1020.41
-1215.16
-1410.83
-1605.13
-1800.56
-46.3168
-241.222
-437.284
-631.911
-827.521
-1022.7
-1217.43
-1413.15
-1607.41
-1802.87
-48.6187
-243.506
-439.589
-634.189
-829.814
-1025
-1219.71
-1415.46
-1609.7
-1805.18
-50.9205
-245.795
-441.894
-636.471
-832.108
-1027.29
-1222
-1417.76
-1611.99
-1807.48
-53.2221
-248.087
-444.196
-638.754
-834.401
-1029.59
-1224.28
-1420.07
-1614.28
-1809.79
-55.5265
-250.384
-446.501
-641.044
-836.699
-1031.89
-1226.58
-1422.38
-1616.58
-1812.1
-57.8402
-252.694
-448.813
-643.346
-839.005
-1034.19
-1228.88
-1424.69
-1618.89
-1814.42
-60.1654
-255.016
-451.135
-645.659
-841.32
-1036.51
-1231.2
-1427.01
-1621.21
-1816.74
-62.4981
-257.348
-453.464
-647.982
-843.644
-1038.83
-1233.52
-1429.33
-1623.53
-1819.07
-64.8354
-259.685
-455.797
-650.312
-845.974
-1041.16
-1235.85
-1431.66
-1625.87
-1821.41
-67.1821
-262.033
-458.139
-652.655
-848.318
-1043.5
-1238.2
-1434.01
-1628.23
-1823.76
-69.5471
-264.4
-460.5
-655.017
-850.68
-1045.86
-1240.56
-1436.38
-1630.6
-1826.13
-71.9301
-266.785
-462.877
-657.397
-853.057
-1048.23
-1242.94
-1438.75
-1632.98
-1828.52
-74.3252
-269.183
-465.267
-659.79
-855.447
-1050.62
-1245.33
-1441.14
-1635.38
-1830.91
-76.7361
-271.597
-467.67
-662.196
-857.849
-1053.02
-1247.74
-1443.54
-1637.79
-1833.32
-79.1614
-274.025
-470.088
-664.618
-860.268
-1055.44
-1250.16
-1445.96
-1640.22
-1835.75
-81.6045
-276.472
-472.524
-667.059
-862.705
-1057.87
-1252.6
-1448.4
-1642.67
-1838.19
-84.0714
-278.941
-474.98
-669.517
-865.157
-1060.32
-1255.06
-1450.86
-1645.14
-1840.66
-86.5597
-281.43
-477.456
-671.993
-867.628
-1062.79
-1257.53
-1453.33
-1647.62
-1843.14
-89.0666
-283.936
-479.944
-674.48
-870.106
-1065.27
-1260.02
-1455.81
-1650.12
-1845.64
-91.6089
-286.464
-482.436
-676.96
-872.571
-1067.73
-1262.5
-1458.31
-1652.65
-1848.19
-94.2426
-289.041
-484.916
-679.4
-874.973
-1070.13
-1264.94
-1460.79
-1655.24
-1850.83
-97.6715
-291.795
-487.241
-681.62
-877.084
-1072.25
-1267.17
-1463.12
-1658
-1854.26
)
;
    }
    inlet
    {
        type            calculated;
        value           nonuniform List<scalar> 
20
(
466.539
-170.859
-294.613
-489.298
-680.873
-876.051
-1074.83
-1270.51
-1537.1
-1290.13
465.872
-170.969
-294.746
-489.388
-680.956
-876.124
-1074.89
-1270.59
-1537.08
-1290.68
)
;
    }
    outlet
    {
        type            calculated;
        value           nonuniform List<scalar> 
20
(
-97.5912
-292.76
-487.93
-683.102
-878.274
-1073.45
-1268.62
-1463.79
-1658.97
-1854.23
-97.5912
-292.76
-487.93
-683.102
-878.274
-1073.45
-1268.62
-1463.79
-1658.97
-1854.23
)
;
    }
    heatWall
    {
        type            calculated;
        value           nonuniform List<scalar> 
240
(
-1387.71
-1388.26
-1595.37
-1595.5
-1683.35
-1683.41
-1713.69
-1713.71
-1733.88
-1733.85
-1750.82
-1750.79
-1764.45
-1764.45
-1775.76
-1775.78
-1785.62
-1785.62
-1794.39
-1794.35
-1802.25
-1802.2
-1809.35
-1809.31
-1815.83
-1815.78
-1821.75
-1821.71
-1827.19
-1827.16
-1832.22
-1832.2
-1836.89
-1836.88
-1841.24
-1841.23
-1845.31
-1845.31
-1849.13
-1849.14
-1852.74
-1852.74
-1856.17
-1856.16
-1859.42
-1859.41
-1862.53
-1862.52
-1865.51
-1865.5
-1868.39
-1868.37
-1871.16
-1871.14
-1873.85
-1873.83
-1876.47
-1876.45
-1879.03
-1879
-1881.53
-1881.51
-1883.99
-1883.97
-1886.41
-1886.39
-1888.79
-1888.78
-1891.16
-1891.15
-1893.5
-1893.5
-1895.83
-1895.83
-1898.15
-1898.15
-1900.46
-1900.46
-1902.77
-1902.77
-1905.08
-1905.07
-1907.39
-1907.38
-1909.7
-1909.69
-1912.01
-1912.01
-1914.34
-1914.33
-1916.67
-1916.66
-1919.02
-1919.01
-1921.37
-1921.36
-1923.74
-1923.73
-1926.12
-1926.11
-1928.52
-1928.5
-1930.93
-1930.92
-1933.35
-1933.34
-1935.8
-1935.79
-1938.26
-1938.25
-1940.74
-1940.73
-1943.25
-1943.24
-1945.81
-1945.79
-1948.46
-1948.43
-1951.88
-1951.86
564.126
563.459
356.339
356.225
268.402
268.312
238.067
238.036
217.875
217.896
200.959
200.949
187.315
187.302
175.965
176.007
166.098
166.182
157.344
157.431
149.479
149.582
142.363
142.484
135.895
136.007
129.983
130.066
124.546
124.598
119.517
119.55
114.849
114.867
110.503
110.501
106.433
106.419
102.603
102.591
98.9882
98.9811
95.567
95.5579
92.3124
92.302
89.1981
89.1981
86.2115
86.2216
83.341
83.3514
80.5664
80.5785
77.8739
77.891
75.2565
75.2728
72.7024
72.7152
70.2002
70.2115
67.743
67.7521
65.3232
65.33
62.933
62.9401
60.5673
60.5758
58.2219
58.2308
55.8931
55.8996
53.5753
53.5795
51.2621
51.2695
48.9524
48.9651
46.6452
46.6615
44.3358
44.3574
42.0222
42.05
39.705
39.7351
37.3824
37.4108
35.0501
35.0783
32.7044
32.7383
30.3457
30.3876
27.977
28.0213
25.5964
25.6392
23.1999
23.2436
20.7879
20.8324
18.3589
18.4058
15.9138
15.9621
13.4544
13.4976
10.9769
11.013
8.47265
8.50703
5.91926
5.96101
3.27821
3.32488
-0.135064
-0.0987525
)
;
    }
}


// ************************************************************************* //
