/*--------------------------------*- C++ -*----------------------------------*\
  =========                 |
  \\      /  F ield         | OpenFOAM: The Open Source CFD Toolbox
   \\    /   O peration     | Website:  https://openfoam.org
    \\  /    A nd           | Version:  8
     \\/     M anipulation  |
\*---------------------------------------------------------------------------*/
FoamFile
{
    version     2.0;
    format      ascii;
    class       volScalarField;
    location    "200";
    object      epsilon;
}
// * * * * * * * * * * * * * * * * * * * * * * * * * * * * * * * * * * * * * //

dimensions      [0 2 -3 0 0 0 0];

internalField   nonuniform List<scalar> 
8400
(
1.73092
1.70431
1.67834
1.65287
1.6278
1.60303
1.57849
1.55411
1.52987
1.50575
1.48175
1.45788
1.43415
1.41058
1.3872
1.36402
1.34107
1.31836
1.29591
1.27375
1.25189
1.23034
1.20912
1.18824
1.16771
1.14755
1.12776
1.10836
1.08934
1.07073
1.05252
1.03474
1.01738
1.00046
0.983981
0.967961
0.952407
0.93733
0.922745
0.908667
0.895115
0.882115
0.869697
0.857903
0.846788
0.836431
0.826949
0.818508
0.811325
0.805715
0.036946
0.036872
0.0367995
0.0367307
0.0366679
0.0366129
0.0365673
0.0365328
0.0365105
0.0365015
0.0365068
0.0365274
0.0365639
0.0366172
0.0366879
0.0367767
0.0368841
0.0370108
0.0371573
0.0373243
0.0375123
0.037722
0.0379539
0.0382086
0.0384865
0.0387883
0.0391143
0.0394651
0.0398412
0.0402429
0.0406706
0.0411248
0.0416057
0.0421136
0.0426488
0.0432115
0.0438016
0.0444194
0.0450645
0.0457369
0.0464363
0.047162
0.0479135
0.0486895
0.0494887
0.0503089
0.0511473
0.0519999
0.0528613
0.0537235
0.0481083
0.0482599
0.0484051
0.0485469
0.0486889
0.0488348
0.0489875
0.0491498
0.0493238
0.0495111
0.0497132
0.0499311
0.0501658
0.0504181
0.0506886
0.0509779
0.0512865
0.0516148
0.0519633
0.0523326
0.0527229
0.0531348
0.0535685
0.0540244
0.0545028
0.055004
0.0555281
0.0560752
0.0566455
0.057239
0.0578557
0.0584955
0.0591582
0.0598437
0.0605514
0.061281
0.0620319
0.0628033
0.0635943
0.0644039
0.0652306
0.066073
0.066929
0.0677962
0.0686715
0.069551
0.0704295
0.0713003
0.072155
0.0729819
0.0663593
0.066812
0.0672535
0.0676846
0.0681069
0.0685221
0.0689321
0.0693388
0.0697442
0.0701498
0.0705576
0.0709689
0.0713852
0.071808
0.0722383
0.0726771
0.0731257
0.0735849
0.0740556
0.0745385
0.0750346
0.0755445
0.0760687
0.076608
0.0771627
0.0777333
0.0783201
0.0789235
0.0795436
0.0801808
0.0808351
0.0815067
0.0821957
0.0829019
0.0836254
0.0843661
0.0851236
0.0858978
0.0866883
0.0874947
0.0883167
0.0891538
0.0900055
0.0908712
0.09175
0.0926411
0.0935433
0.094455
0.0953744
0.0962986
0.0674396
0.068258
0.0690681
0.069864
0.0706413
0.0713971
0.07213
0.0728399
0.0735276
0.0741945
0.0748422
0.0754727
0.076088
0.0766899
0.0772806
0.0778619
0.0784354
0.079003
0.0795662
0.0801266
0.0806856
0.0812444
0.0818044
0.0823667
0.0829325
0.0835026
0.084078
0.0846597
0.0852484
0.0858452
0.0864508
0.087066
0.0876917
0.0883286
0.0889777
0.0896396
0.0903153
0.0910057
0.0917118
0.0924347
0.0931758
0.0939367
0.0947191
0.0955251
0.0963574
0.0972189
0.0981137
0.0990466
0.100023
0.101051
0.0523435
0.053339
0.054343
0.055339
0.0563156
0.0572653
0.0581836
0.0590683
0.0599189
0.0607361
0.0615209
0.0622752
0.0630009
0.0637001
0.064375
0.0650277
0.0656604
0.0662752
0.0668739
0.0674587
0.0680314
0.0685937
0.0691474
0.0696942
0.0702357
0.0707734
0.071309
0.0718438
0.0723794
0.0729175
0.0734594
0.0740068
0.0745613
0.0751245
0.0756982
0.0762841
0.0768841
0.0775003
0.0781347
0.0787897
0.0794682
0.0801731
0.0809079
0.0816766
0.082484
0.0833356
0.0842383
0.0852007
0.0862328
0.087347
0.0322157
0.0330533
0.0339093
0.0347671
0.0356148
0.0364442
0.0372503
0.0380302
0.0387828
0.0395077
0.0402054
0.0408767
0.0415228
0.0421451
0.042745
0.043324
0.043884
0.0444263
0.0449528
0.045465
0.0459647
0.0464533
0.0469326
0.0474042
0.0478697
0.0483308
0.0487889
0.0492459
0.0497034
0.0501631
0.0506268
0.0510963
0.0515736
0.0520606
0.0525594
0.0530723
0.0536013
0.054149
0.0547178
0.0553107
0.0559307
0.0565812
0.0572659
0.0579892
0.0587562
0.0595728
0.060446
0.0613847
0.0623993
0.0635021
0.0175074
0.0179624
0.0184406
0.0189293
0.01942
0.0199071
0.0203872
0.020858
0.0213183
0.0217674
0.0222048
0.0226305
0.0230447
0.0234478
0.0238401
0.0242224
0.0245952
0.0249593
0.0253156
0.0256649
0.0260082
0.0263465
0.0266807
0.0270119
0.0273414
0.0276701
0.0279993
0.0283303
0.0286644
0.0290029
0.0293473
0.0296992
0.0300602
0.030432
0.0308164
0.0312153
0.0316306
0.0320645
0.0325193
0.0329974
0.0335015
0.0340345
0.0345995
0.0352001
0.0358402
0.0365247
0.0372591
0.0380501
0.0389058
0.0398359
0.0109171
0.0110126
0.0111268
0.0112556
0.0113956
0.0115438
0.0116981
0.011857
0.0120191
0.0121832
0.0123488
0.0125151
0.0126815
0.0128478
0.0130137
0.0131791
0.013344
0.0135083
0.0136724
0.0138362
0.0140002
0.0141646
0.0143298
0.0144963
0.0146645
0.014835
0.0150083
0.0151852
0.0153662
0.0155523
0.0157442
0.0159428
0.0161492
0.0163644
0.0165895
0.0168259
0.0170748
0.0173376
0.017616
0.0179117
0.0182264
0.0185622
0.0189212
0.0193059
0.0197189
0.0201632
0.0206426
0.0211611
0.0217239
0.0223372
0.00998369
0.00984032
0.00971428
0.00960883
0.00952264
0.00945344
0.00939902
0.00935753
0.00932741
0.00930733
0.00929614
0.00929282
0.00929648
0.00930631
0.00932163
0.00934182
0.00936637
0.00939483
0.00942683
0.00946206
0.0095003
0.00954137
0.00958513
0.00963153
0.00968052
0.00973213
0.0097864
0.00984344
0.00990342
0.00996653
0.010033
0.0101032
0.0101774
0.010256
0.0103395
0.0104285
0.0105234
0.010625
0.0107339
0.0108512
0.0109776
0.0111143
0.0112622
0.0114227
0.0115969
0.0117865
0.011993
0.0122185
0.0124649
0.012735
0.0114248
0.0111886
0.0109698
0.0107703
0.0105887
0.0104225
0.0102699
0.0101294
0.0100001
0.0098815
0.00977312
0.00967452
0.00958521
0.00950471
0.00943256
0.00936824
0.00931127
0.00926115
0.0092174
0.00917954
0.00914708
0.00911959
0.00909665
0.00907786
0.00906282
0.00905116
0.00904253
0.00903667
0.00903331
0.00903221
0.00903312
0.00903582
0.00904013
0.00904589
0.00905297
0.00906127
0.00907075
0.00908142
0.00909336
0.00910672
0.00912171
0.00913869
0.00915788
0.00917966
0.00920463
0.00923332
0.00926639
0.00930454
0.00934846
0.00939867
0.0126894
0.0125135
0.0123579
0.0122096
0.0120689
0.0119346
0.0118047
0.0116782
0.0115548
0.0114343
0.0113166
0.0112021
0.0110909
0.0109832
0.0108792
0.010779
0.010683
0.0105915
0.0105047
0.0104226
0.0103453
0.0102728
0.0102052
0.0101423
0.010084
0.0100299
0.00997999
0.00993416
0.0098924
0.00985453
0.00982029
0.00978934
0.00976124
0.00973559
0.00971205
0.00969015
0.0096693
0.00964902
0.00962893
0.00960875
0.00958837
0.00956675
0.0095444
0.00951968
0.00949322
0.00946469
0.0094349
0.00940477
0.00937613
0.00935041
0.0130849
0.0129895
0.0129007
0.0128164
0.0127352
0.012656
0.0125786
0.0125026
0.012428
0.0123543
0.0122813
0.0122092
0.0121378
0.012067
0.0119968
0.0119271
0.0118581
0.0117897
0.0117221
0.0116554
0.0115897
0.011525
0.0114614
0.0113988
0.0113374
0.0112773
0.0112184
0.0111607
0.0111044
0.0110494
0.0109961
0.0109445
0.0108948
0.010847
0.010801
0.0107569
0.0107145
0.0106739
0.010635
0.0105971
0.0105607
0.0105255
0.0104911
0.0104573
0.0104233
0.0103884
0.0103512
0.0103107
0.010265
0.0102105
0.0131254
0.0130764
0.0130281
0.0129802
0.0129327
0.0128854
0.0128382
0.0127913
0.0127444
0.0126977
0.0126511
0.0126047
0.0125584
0.0125123
0.0124664
0.0124206
0.012375
0.0123296
0.0122844
0.0122394
0.0121946
0.0121501
0.0121059
0.012062
0.0120184
0.0119751
0.0119322
0.0118896
0.0118474
0.0118057
0.0117644
0.0117236
0.0116833
0.0116436
0.0116044
0.0115658
0.0115278
0.0114902
0.0114531
0.0114165
0.0113801
0.0113441
0.0113082
0.0112723
0.011236
0.0111991
0.011161
0.0111213
0.0110795
0.0110347
0.0131409
0.0131089
0.0130768
0.0130446
0.0130124
0.01298
0.0129476
0.0129152
0.0128829
0.0128505
0.0128181
0.0127858
0.0127535
0.0127212
0.012689
0.0126569
0.0126248
0.0125927
0.0125608
0.0125289
0.012497
0.0124653
0.0124336
0.012402
0.0123705
0.0123392
0.0123079
0.0122768
0.0122458
0.0122149
0.0121843
0.0121538
0.0121234
0.0120932
0.0120632
0.0120334
0.0120038
0.0119743
0.0119449
0.0119156
0.0118863
0.011857
0.0118275
0.0117978
0.0117677
0.011737
0.0117055
0.0116728
0.0116386
0.0116026
0.0131474
0.0131233
0.0130993
0.0130753
0.0130515
0.0130277
0.0130039
0.0129802
0.0129565
0.0129329
0.0129093
0.0128857
0.0128621
0.0128386
0.012815
0.0127915
0.012768
0.0127445
0.012721
0.0126976
0.0126741
0.0126506
0.0126271
0.0126036
0.0125802
0.0125567
0.0125333
0.0125099
0.0124865
0.0124631
0.0124398
0.0124165
0.0123932
0.0123699
0.0123467
0.0123235
0.0123003
0.0122771
0.0122539
0.0122306
0.0122073
0.0121839
0.0121602
0.0121363
0.0121121
0.0120873
0.0120621
0.0120361
0.0120099
0.0119835
0.0131546
0.0131377
0.0131207
0.0131035
0.0130861
0.0130687
0.0130511
0.0130335
0.0130157
0.0129979
0.01298
0.012962
0.012944
0.0129259
0.0129078
0.0128896
0.0128713
0.012853
0.0128346
0.0128162
0.0127977
0.0127792
0.0127607
0.0127421
0.0127235
0.0127048
0.0126861
0.0126674
0.0126487
0.0126299
0.0126111
0.0125922
0.0125734
0.0125545
0.0125356
0.0125168
0.0124979
0.0124789
0.01246
0.012441
0.0124219
0.0124026
0.0123832
0.0123636
0.0123436
0.0123233
0.012303
0.0122826
0.0122617
0.01224
0.0131544
0.0131379
0.0131216
0.0131056
0.0130898
0.0130743
0.013059
0.0130439
0.013029
0.0130142
0.0129995
0.0129849
0.0129704
0.0129559
0.0129416
0.0129272
0.0129129
0.0128987
0.0128845
0.0128703
0.0128562
0.0128421
0.0128281
0.0128141
0.0128001
0.0127862
0.0127723
0.0127585
0.0127448
0.0127311
0.0127175
0.0127041
0.0126907
0.0126774
0.0126642
0.012651
0.012638
0.0126249
0.0126116
0.0125981
0.0125842
0.0125697
0.0125543
0.0125383
0.0125222
0.0125062
0.0124898
0.012473
0.0124559
0.0124382
0.0131611
0.0131561
0.0131527
0.0131515
0.0131521
0.0131543
0.0131575
0.0131616
0.0131664
0.0131716
0.0131771
0.0131828
0.0131887
0.0131946
0.0132006
0.0132067
0.0132127
0.0132187
0.0132247
0.0132307
0.0132367
0.0132427
0.0132488
0.013255
0.0132614
0.013268
0.0132748
0.013282
0.0132896
0.0132977
0.0133063
0.0133156
0.0133254
0.0133357
0.0133464
0.0133572
0.0133676
0.0133765
0.0133825
0.0133824
0.0133778
0.0133736
0.0133696
0.0133657
0.0133614
0.0133566
0.0133511
0.0133447
0.013337
0.0133277
0.0136799
0.0142239
0.0147874
0.0153705
0.0159745
0.0166001
0.0172481
0.0179195
0.0186148
0.019335
0.0200809
0.0208532
0.021653
0.022481
0.0233381
0.0242254
0.0251438
0.0260942
0.0270778
0.0280955
0.0291485
0.0302378
0.0313646
0.0325301
0.0337355
0.0349819
0.0362707
0.0376032
0.0389806
0.0404044
0.041876
0.0433968
0.0449683
0.046592
0.0482696
0.0500026
0.0517927
0.0536416
0.0555512
0.0575233
0.0595317
0.0615332
0.0635033
0.0654148
0.067239
0.0689488
0.070518
0.0719214
0.0731376
0.0741769
1.14672
1.10488
1.06576
1.02909
0.994578
0.961943
0.930925
0.901406
0.87329
0.84649
0.820929
0.796536
0.773242
0.750983
0.7297
0.709337
0.689846
0.671179
0.653297
0.636161
0.619734
0.603983
0.588874
0.574375
0.560453
0.54708
0.534227
0.521869
0.509982
0.498545
0.487536
0.476938
0.466732
0.456902
0.447431
0.438305
0.429509
0.42103
0.412857
0.404944
0.397265
0.389804
0.382543
0.375462
0.368539
0.361744
0.355036
0.348353
0.341594
0.334572
1.12226
1.04694
0.978217
0.915315
0.857726
0.804968
0.756631
0.71226
0.671455
0.633859
0.599158
0.567069
0.537345
0.509763
0.484126
0.460262
0.438018
0.417257
0.397858
0.379711
0.362715
0.34678
0.33182
0.31776
0.304529
0.292063
0.280306
0.269206
0.258716
0.248793
0.239397
0.230491
0.222041
0.214016
0.206383
0.199114
0.192183
0.185566
0.17924
0.173209
0.167464
0.161986
0.15676
0.15177
0.147001
0.142439
0.138066
0.133857
0.129786
0.125837
1.12216
1.04659
0.977431
0.91416
0.856201
0.803038
0.754197
0.709252
0.667823
0.629572
0.594198
0.561433
0.531036
0.502795
0.476518
0.452037
0.429202
0.407879
0.387945
0.369293
0.351822
0.33544
0.320064
0.305617
0.292029
0.279236
0.267181
0.255811
0.24508
0.234942
0.225358
0.216291
0.207706
0.199571
0.191858
0.184542
0.177596
0.170998
0.164728
0.158767
0.153096
0.1477
0.142562
0.137668
0.133005
0.128564
0.124338
0.120317
0.116477
0.112771
1.12216
1.04713
0.978561
0.91581
0.858275
0.805422
0.756789
0.711965
0.670588
0.632335
0.596918
0.56408
0.53359
0.50524
0.478846
0.454243
0.431283
0.409835
0.389778
0.371003
0.353412
0.336913
0.321422
0.306863
0.293168
0.280272
0.268119
0.256658
0.245839
0.23562
0.22596
0.216822
0.208171
0.199974
0.192203
0.18483
0.17783
0.171182
0.164864
0.158857
0.153143
0.147707
0.142531
0.137601
0.132901
0.128417
0.124142
0.120075
0.116212
0.112508
1.12216
1.04715
0.978556
0.915737
0.858112
0.805169
0.756455
0.711566
0.670142
0.63186
0.596429
0.56359
0.533109
0.504778
0.478411
0.45384
0.430916
0.409506
0.389488
0.370751
0.353196
0.336731
0.321271
0.306741
0.293072
0.280201
0.268072
0.256632
0.245835
0.235636
0.225994
0.216873
0.208236
0.200052
0.192292
0.184928
0.177936
0.171294
0.164981
0.158978
0.153267
0.147832
0.142657
0.13773
0.133034
0.128554
0.124275
0.120189
0.116303
0.11259
1.12216
1.04719
0.978685
0.915966
0.858449
0.805613
0.756997
0.712193
0.670838
0.63261
0.597219
0.564407
0.533943
0.50562
0.479253
0.454677
0.431745
0.410322
0.390288
0.371532
0.353954
0.337464
0.321977
0.30742
0.293723
0.280825
0.268669
0.257205
0.246383
0.236161
0.226497
0.217352
0.208693
0.200487
0.192704
0.185319
0.178306
0.171643
0.16531
0.159288
0.153557
0.148102
0.142905
0.137955
0.133237
0.128741
0.124448
0.120343
0.116427
0.112687
1.12217
1.04721
0.978715
0.916007
0.858489
0.805642
0.757005
0.712175
0.67079
0.632532
0.597112
0.564274
0.533787
0.505447
0.479068
0.454485
0.431549
0.410126
0.390093
0.37134
0.353766
0.337279
0.321797
0.307244
0.293552
0.280661
0.268513
0.257057
0.246244
0.23603
0.226374
0.217237
0.208585
0.200384
0.192608
0.185228
0.17822
0.171562
0.165233
0.159215
0.153488
0.148036
0.142842
0.137891
0.133169
0.128668
0.124373
0.120268
0.116346
0.112597
1.12217
1.04721
0.978734
0.916043
0.858545
0.805717
0.757102
0.712293
0.67093
0.63269
0.597288
0.564467
0.533995
0.505668
0.479302
0.454729
0.431802
0.410385
0.390357
0.371605
0.35403
0.33754
0.322053
0.307494
0.293796
0.280899
0.268744
0.257281
0.246461
0.236239
0.226573
0.217427
0.208764
0.200553
0.192766
0.185376
0.178358
0.171691
0.165352
0.159323
0.153585
0.148121
0.142916
0.137954
0.13322
0.128702
0.124391
0.120272
0.116334
0.112567
1.12217
1.04722
0.978739
0.916052
0.858557
0.805732
0.757117
0.712306
0.670938
0.632692
0.597282
0.564452
0.533972
0.505637
0.479263
0.454685
0.431753
0.410331
0.390298
0.371542
0.353963
0.337469
0.321979
0.307418
0.29372
0.280822
0.268667
0.257205
0.246385
0.236163
0.226497
0.21735
0.208686
0.200475
0.192688
0.185298
0.178281
0.171615
0.165277
0.159248
0.153508
0.148042
0.142834
0.137869
0.133132
0.128609
0.124291
0.120165
0.11622
0.112445
1.12217
1.04721
0.978736
0.91605
0.858557
0.805736
0.757125
0.712319
0.670956
0.632715
0.59731
0.564484
0.534009
0.505679
0.47931
0.454736
0.431807
0.410388
0.390357
0.371602
0.354023
0.337529
0.322038
0.307477
0.293778
0.28088
0.268725
0.25726
0.246437
0.236211
0.22654
0.217388
0.208719
0.200503
0.192712
0.185318
0.178298
0.171627
0.165285
0.159251
0.153506
0.148033
0.142816
0.137842
0.133096
0.128565
0.124236
0.120099
0.116143
0.112356
1.12217
1.04721
0.978728
0.916039
0.858545
0.805724
0.757115
0.712311
0.670951
0.632713
0.597309
0.564485
0.534011
0.505681
0.479312
0.454738
0.431808
0.410388
0.390356
0.371599
0.354018
0.337524
0.322033
0.307472
0.293773
0.280875
0.268719
0.257252
0.246427
0.236197
0.226523
0.217366
0.208694
0.200476
0.192682
0.185287
0.178265
0.171592
0.165246
0.159208
0.153458
0.14798
0.142757
0.137775
0.133022
0.128483
0.124146
0.120001
0.116035
0.112238
1.12216
1.0472
0.978716
0.916021
0.858524
0.8057
0.75709
0.712286
0.670925
0.632686
0.597281
0.564454
0.533976
0.505642
0.479269
0.45469
0.431755
0.410331
0.390294
0.371534
0.353951
0.337455
0.321964
0.307404
0.293706
0.280808
0.268652
0.257185
0.246358
0.236126
0.22645
0.217293
0.20862
0.200401
0.192608
0.185213
0.178191
0.171518
0.165171
0.15913
0.153377
0.147895
0.142669
0.137682
0.132924
0.12838
0.124037
0.119885
0.115912
0.112108
1.12216
1.0472
0.978701
0.915999
0.858496
0.805672
0.757065
0.712266
0.670913
0.632683
0.597287
0.564469
0.534
0.505673
0.479305
0.45473
0.431799
0.410377
0.390343
0.371585
0.354005
0.337511
0.322022
0.307464
0.293766
0.280867
0.268709
0.257238
0.246407
0.236171
0.22649
0.217327
0.20865
0.200427
0.19263
0.18523
0.178202
0.171523
0.165169
0.159121
0.15336
0.147869
0.142633
0.137637
0.132869
0.128315
0.123962
0.119799
0.115814
0.111998
1.12216
1.04719
0.978677
0.915956
0.858435
0.805593
0.756967
0.712149
0.670777
0.632528
0.597113
0.564277
0.53379
0.505447
0.479065
0.454478
0.431536
0.410107
0.390067
0.371308
0.353728
0.337237
0.321753
0.3072
0.293508
0.280614
0.268461
0.256996
0.246171
0.23594
0.226266
0.21711
0.20844
0.200224
0.192433
0.185039
0.178016
0.17134
0.16499
0.158944
0.153185
0.147696
0.142462
0.137467
0.132699
0.128144
0.12379
0.119625
0.115637
0.111816
1.12216
1.04717
0.978648
0.915918
0.8584
0.805571
0.756968
0.712178
0.670836
0.632614
0.597225
0.56441
0.53394
0.505609
0.479234
0.454651
0.431711
0.41028
0.390239
0.371476
0.353893
0.337397
0.321908
0.307347
0.293648
0.280746
0.268583
0.257108
0.246273
0.236033
0.22635
0.217185
0.208506
0.200281
0.192479
0.185074
0.17804
0.171353
0.164992
0.158935
0.153165
0.147665
0.14242
0.137415
0.132635
0.128068
0.123701
0.119522
0.11552
0.111684
1.12216
1.04713
0.978526
0.915699
0.858077
0.805144
0.756445
0.71157
0.670156
0.631877
0.596443
0.563594
0.533101
0.504756
0.478375
0.453793
0.43086
0.409443
0.389419
0.370677
0.353117
0.336648
0.321184
0.30665
0.292977
0.280101
0.267964
0.256515
0.245704
0.235489
0.22583
0.216688
0.208031
0.199825
0.192042
0.184653
0.177634
0.170962
0.164613
0.15857
0.152812
0.147324
0.142089
0.137093
0.132322
0.127762
0.1234
0.119225
0.115227
0.111394
1.12216
1.04712
0.97854
0.915787
0.858258
0.805419
0.756802
0.711991
0.670621
0.632366
0.596939
0.564084
0.533572
0.5052
0.478787
0.454168
0.431197
0.409741
0.389679
0.370901
0.353306
0.336802
0.321307
0.306743
0.293041
0.280138
0.267976
0.256505
0.245674
0.235442
0.225766
0.216609
0.207937
0.199718
0.191922
0.184521
0.177491
0.170809
0.164453
0.158403
0.152641
0.14715
0.141914
0.136917
0.132146
0.127588
0.12323
0.119062
0.115075
0.11126
1.12216
1.04658
0.97742
0.914153
0.856205
0.803058
0.754234
0.709302
0.667878
0.629621
0.59423
0.561441
0.531016
0.502746
0.476445
0.451946
0.429099
0.40777
0.387835
0.369183
0.351712
0.33533
0.319952
0.305502
0.291911
0.279115
0.267057
0.255686
0.244953
0.234815
0.225229
0.21616
0.207572
0.199434
0.191717
0.184395
0.177442
0.170838
0.16456
0.158591
0.152912
0.147506
0.14236
0.137459
0.132792
0.128348
0.124119
0.1201
0.116291
0.112697
1.12226
1.04694
0.978216
0.915322
0.857749
0.805011
0.756695
0.712338
0.671537
0.633934
0.599213
0.567098
0.537343
0.509733
0.484076
0.4602
0.437954
0.417199
0.397812
0.379681
0.362703
0.346787
0.331847
0.317808
0.304602
0.292167
0.280447
0.269392
0.258955
0.249093
0.239768
0.230942
0.222584
0.214665
0.207156
0.200035
0.19328
0.18687
0.180789
0.175019
0.169548
0.164362
0.159451
0.154807
0.150424
0.146304
0.142451
0.138884
0.135644
0.13282
1.14672
1.10488
1.06576
1.0291
0.994598
0.961978
0.930973
0.901464
0.873348
0.846538
0.820956
0.79653
0.773198
0.750899
0.72958
0.70919
0.689679
0.671003
0.653116
0.635977
0.619545
0.603784
0.588658
0.574134
0.560183
0.546775
0.533885
0.521485
0.509552
0.498061
0.486991
0.47632
0.466029
0.4561
0.446515
0.437258
0.428314
0.419668
0.411304
0.403207
0.395363
0.387756
0.380372
0.373198
0.36622
0.359424
0.352795
0.346315
0.339966
0.333718
0.119934
0.0172274
0.00695635
0.00593297
0.00555421
0.00543143
0.00519412
0.0050461
0.0048499
0.00468734
0.00452475
0.00435309
0.00422089
0.00403974
0.00393551
0.00374224
0.00373495
0.00411151
0.00972631
0.0708507
0.120323
0.0173391
0.00702731
0.00600075
0.00562013
0.00549559
0.0052565
0.00510665
0.00490891
0.00474463
0.00458064
0.00440711
0.00427344
0.00409033
0.00398482
0.0037897
0.00378208
0.00416213
0.0098171
0.0711198
0.120726
0.0174462
0.00709881
0.00606944
0.00568701
0.00556079
0.00532006
0.00516847
0.00496922
0.0048031
0.00463751
0.00446196
0.00432679
0.0041418
0.00403512
0.00383824
0.00383026
0.00421376
0.00990741
0.0713633
0.121128
0.0175517
0.00717098
0.00613917
0.00575506
0.0056272
0.00538478
0.0052313
0.00503039
0.00486232
0.00469512
0.00451763
0.00438108
0.00419431
0.00408646
0.00388778
0.00387931
0.00426565
0.0099912
0.0716073
0.121534
0.0176571
0.00724417
0.00621004
0.00582428
0.00569467
0.00545045
0.00529498
0.00509236
0.0049223
0.00475354
0.00457419
0.00443633
0.00424781
0.00413871
0.00393815
0.00392901
0.00431749
0.0100715
0.0718537
0.121942
0.0177635
0.00731855
0.00628209
0.00589462
0.00576315
0.00551708
0.00535956
0.00515519
0.00498315
0.00481288
0.00463172
0.00449255
0.00430221
0.00419175
0.00398921
0.00397928
0.00436941
0.0101495
0.0721046
0.122353
0.0178713
0.00739418
0.00635532
0.0059661
0.00583273
0.00558477
0.00542515
0.00521903
0.00504501
0.00487326
0.00469028
0.00454971
0.00435744
0.00424552
0.00404094
0.00403022
0.00442173
0.010227
0.072361
0.122768
0.0179806
0.00747112
0.00642978
0.00603882
0.00590351
0.00565362
0.00549188
0.00528401
0.00510803
0.00493476
0.00474985
0.00460777
0.00441347
0.00430007
0.00409349
0.00408204
0.00447482
0.0103053
0.0726218
0.123187
0.0180916
0.00754945
0.00650552
0.00611282
0.0059755
0.00572369
0.00555981
0.00535022
0.00517223
0.00499735
0.00481041
0.00466674
0.00447041
0.00435558
0.00414703
0.00413488
0.00452889
0.0103849
0.0728847
0.123609
0.0182044
0.00762913
0.00658252
0.00618804
0.00604868
0.00579498
0.00562898
0.00541764
0.00523753
0.00506095
0.00487193
0.00472668
0.00452836
0.00441213
0.00420162
0.00418873
0.00458386
0.0104652
0.0731488
0.124034
0.0183188
0.00771011
0.00666073
0.00626445
0.00612304
0.00586747
0.00569929
0.00548613
0.00530384
0.00512556
0.00493449
0.00478769
0.00458739
0.00446973
0.0042572
0.00424348
0.00463961
0.0105457
0.0734145
0.124464
0.0184348
0.00779233
0.00674014
0.00634205
0.00619856
0.00594108
0.00577064
0.00555561
0.00537117
0.00519127
0.00499819
0.00484981
0.00464748
0.00452834
0.00431373
0.00429909
0.00469609
0.0106262
0.0736835
0.124898
0.0185525
0.00787584
0.00682081
0.00642087
0.00627522
0.00601577
0.00584303
0.00562622
0.00543972
0.00525822
0.00506307
0.00491303
0.00470861
0.00458797
0.00437123
0.00435563
0.00475338
0.0107072
0.0739578
0.125337
0.018672
0.00796065
0.00690276
0.00650092
0.00635302
0.00609161
0.00591664
0.00569816
0.00550961
0.00532645
0.0051291
0.00497736
0.00477083
0.00464867
0.00442977
0.00441318
0.00481165
0.0107894
0.0742383
0.125783
0.018793
0.00804676
0.006986
0.00658223
0.00643208
0.00616879
0.00599168
0.00577154
0.00558085
0.00539588
0.00519627
0.00504283
0.0048342
0.0047105
0.0044894
0.00447184
0.00487107
0.0108738
0.0745248
0.126234
0.0189149
0.00813417
0.00707056
0.00666491
0.00651256
0.00624747
0.00606818
0.00584629
0.00565329
0.00546646
0.0052646
0.00510948
0.00489873
0.00477347
0.00455019
0.00453169
0.00493178
0.0109606
0.0748153
0.126691
0.0190373
0.00822295
0.0071565
0.00674904
0.00659451
0.00632761
0.00614603
0.00592225
0.00572688
0.00553819
0.00533411
0.00517731
0.00496442
0.00483763
0.0046122
0.00459278
0.00499378
0.0110496
0.0751078
0.127149
0.0191606
0.00831317
0.00724385
0.00683465
0.00667789
0.00640909
0.00622508
0.00599936
0.00580163
0.00561112
0.00540484
0.00524634
0.00503133
0.00490303
0.00467544
0.00465504
0.00505693
0.0111397
0.0754016
0.127609
0.0192852
0.00840492
0.00733266
0.0069217
0.00676263
0.00649184
0.00630535
0.0060777
0.00587762
0.0056853
0.00547683
0.00531665
0.00509954
0.0049697
0.00473986
0.00471834
0.005121
0.0112302
0.0756982
0.12807
0.0194116
0.00849825
0.00742297
0.00701022
0.00684873
0.00657591
0.00638692
0.00615737
0.00595495
0.00576084
0.00555017
0.00538833
0.00516908
0.00503761
0.00480538
0.00478263
0.00518596
0.011321
0.076
0.128534
0.0195404
0.00859328
0.00751485
0.00710024
0.00693627
0.00666142
0.00646991
0.00623847
0.00603371
0.00583781
0.00562497
0.00546142
0.00523994
0.0051067
0.00487199
0.00484801
0.00525199
0.0114129
0.0763087
0.129002
0.0196719
0.00869006
0.00760835
0.00719185
0.00702533
0.00674843
0.0065544
0.00632107
0.00611398
0.00591629
0.00570123
0.00553589
0.00531206
0.005177
0.00493983
0.00491468
0.00531935
0.011507
0.0766239
0.129477
0.0198059
0.00878856
0.00770349
0.00728504
0.00711592
0.00683699
0.00664043
0.00640524
0.00619579
0.00599627
0.00577891
0.00561168
0.00538548
0.00524861
0.00500902
0.00498274
0.00538818
0.0116035
0.0769443
0.129959
0.0199416
0.00888868
0.00780023
0.00737982
0.00720809
0.00692716
0.00672807
0.006491
0.00627912
0.0060777
0.00585795
0.00568882
0.00546024
0.0053216
0.0050796
0.00505219
0.00545843
0.0117023
0.0772685
0.130447
0.0200787
0.0089904
0.00789856
0.00747622
0.00730188
0.00701898
0.00681734
0.00657833
0.00636394
0.00616054
0.00593837
0.00576732
0.00553637
0.00539593
0.00515151
0.00512293
0.00553
0.0118027
0.0775962
0.13094
0.0202171
0.00909378
0.00799855
0.00757434
0.00739741
0.00711255
0.00690828
0.00666725
0.00645027
0.00624485
0.00602022
0.00584722
0.00561385
0.00547159
0.00522471
0.00519495
0.00560286
0.0119046
0.0779278
0.131436
0.0203576
0.00919901
0.00810033
0.00767431
0.0074948
0.00720794
0.00700094
0.00675782
0.00653818
0.0063307
0.00610356
0.00592854
0.00569271
0.00554859
0.00529927
0.00526832
0.00567712
0.0120083
0.0782635
0.131937
0.0205007
0.00930624
0.00820407
0.00777629
0.00759414
0.00730523
0.00709541
0.00685014
0.00662778
0.00641818
0.00618843
0.00601136
0.00577305
0.0056271
0.00537532
0.00534316
0.00575287
0.0121137
0.0786035
0.132443
0.0206467
0.00941562
0.00830988
0.00788037
0.0076955
0.00740447
0.00719174
0.00694427
0.00671912
0.00650733
0.00627495
0.00609583
0.00585506
0.00570727
0.00545298
0.00541951
0.00583018
0.0122211
0.0789483
0.132956
0.0207957
0.00952721
0.0084178
0.00798652
0.00779883
0.0075056
0.00728991
0.00704021
0.00681223
0.00659824
0.00636324
0.00618209
0.00593888
0.00578917
0.00553227
0.0054974
0.00590903
0.0123303
0.0792984
0.133476
0.0209472
0.00964091
0.00852774
0.00809462
0.00790399
0.00760853
0.00738984
0.00713791
0.00690712
0.00669097
0.00645339
0.00627023
0.00602451
0.00587278
0.00561315
0.0055768
0.00598944
0.0124415
0.0796538
0.134003
0.0211005
0.00975651
0.00863955
0.00820452
0.00801087
0.00771319
0.00749151
0.0072374
0.00700382
0.00678556
0.00654542
0.00636019
0.00611187
0.005958
0.00569559
0.00565774
0.00607142
0.0125547
0.0800144
0.134536
0.0212551
0.00987386
0.00875314
0.00831617
0.00811948
0.00781961
0.00759497
0.00733872
0.00710239
0.00688202
0.00663925
0.00645185
0.00620086
0.00604481
0.00577958
0.00574022
0.00615495
0.0126695
0.0803799
0.135074
0.0214113
0.00999305
0.00886862
0.00842972
0.00822998
0.00792794
0.00770033
0.00744194
0.00720281
0.00698026
0.00673478
0.00654516
0.00629144
0.00613319
0.00586515
0.00582425
0.00623998
0.0127858
0.0807512
0.135616
0.0215701
0.0101144
0.00898624
0.00854541
0.00834257
0.00803833
0.00780768
0.00754708
0.00730506
0.00708024
0.00683199
0.0066401
0.00638365
0.00622319
0.00595231
0.00590986
0.00632657
0.0129038
0.0811293
0.136166
0.0217323
0.0102381
0.00910619
0.00866339
0.00845736
0.00815086
0.00791707
0.00765416
0.00740914
0.007182
0.00693093
0.00673677
0.00647757
0.00631488
0.00604117
0.00599719
0.00641487
0.013024
0.0815151
0.136725
0.0218975
0.0103642
0.00922848
0.00878368
0.00857438
0.00826553
0.00802849
0.00776321
0.00751514
0.00728566
0.00703177
0.00683531
0.00657333
0.0064084
0.00613186
0.00608637
0.00650509
0.013147
0.081908
0.137296
0.0220645
0.0104925
0.00935299
0.00890621
0.00869357
0.00838235
0.008142
0.00787432
0.0076232
0.00739139
0.00713464
0.00693583
0.00667103
0.00650386
0.00622451
0.00617752
0.00659733
0.0132729
0.0823065
0.137875
0.0222321
0.0106228
0.00947965
0.00903093
0.00881493
0.00850134
0.00825768
0.00798765
0.0077335
0.00749931
0.00723963
0.0070384
0.00677076
0.00660133
0.00631915
0.00627059
0.0066915
0.0134011
0.0827096
0.138457
0.0224004
0.0107552
0.00960848
0.0091579
0.00893854
0.00862263
0.0083757
0.00810334
0.00784609
0.00760944
0.00734673
0.00714303
0.00687251
0.00670079
0.00641571
0.0063655
0.00678744
0.0135311
0.0831179
0.13904
0.0225706
0.0108901
0.00973963
0.00928722
0.0090645
0.00874634
0.00849614
0.00822142
0.00796095
0.00772171
0.00745589
0.00724968
0.00697627
0.0068022
0.00651414
0.00646219
0.00688511
0.0136627
0.0835328
0.139626
0.0227439
0.0110275
0.00987326
0.00941905
0.00919298
0.00887258
0.00861902
0.0083418
0.00807797
0.00783606
0.00756709
0.00735838
0.00708204
0.00690557
0.00661448
0.00656078
0.00698469
0.0137964
0.0839556
0.140217
0.0229211
0.0111676
0.0100095
0.00955354
0.00932406
0.00900136
0.00874428
0.00846441
0.00819712
0.00795253
0.00768044
0.00746922
0.00718994
0.00701104
0.00671691
0.00666148
0.00708646
0.0139331
0.0843865
0.140816
0.0231022
0.0113106
0.0101486
0.00969081
0.0094578
0.00913263
0.00887185
0.00858925
0.00831848
0.00807126
0.0077961
0.00758238
0.00730014
0.00711879
0.00682164
0.00676448
0.00719064
0.0140734
0.0848245
0.141424
0.0232871
0.0114564
0.0102905
0.00983087
0.00959414
0.00926634
0.00900176
0.00871643
0.00844226
0.00819246
0.00791424
0.007698
0.00741278
0.00722897
0.00692878
0.00686985
0.00729727
0.014217
0.0852687
0.142043
0.0234754
0.0116052
0.0104353
0.00997367
0.00973302
0.00940251
0.00913412
0.00884615
0.00856863
0.00831628
0.00803497
0.00781617
0.00752795
0.00734164
0.00703834
0.00697754
0.00740624
0.0143637
0.0857188
0.142672
0.0236666
0.0117567
0.0105828
0.0101191
0.00987444
0.00954126
0.00926912
0.00897857
0.0086977
0.00844276
0.00815833
0.00793692
0.00764566
0.00745677
0.00715026
0.00708746
0.00751742
0.0145127
0.0861753
0.14331
0.0238599
0.011911
0.010733
0.0102672
0.0100185
0.00968277
0.00940691
0.00911378
0.0088295
0.00857192
0.00828431
0.00806025
0.00776588
0.0075743
0.00726447
0.00719958
0.00763079
0.014664
0.0866394
0.143957
0.024055
0.0120679
0.010886
0.0104182
0.0101655
0.00982721
0.00954759
0.00925182
0.00896405
0.00870376
0.00841292
0.00818614
0.00788858
0.0076942
0.00738098
0.00731397
0.00774644
0.0148178
0.087112
0.144609
0.0242525
0.0122277
0.0110418
0.0105721
0.0103155
0.00997466
0.00969119
0.00939271
0.00910138
0.00883833
0.00854419
0.00831458
0.00801374
0.0078165
0.00749988