/*--------------------------------*- C++ -*----------------------------------*\
  =========                 |
  \\      /  F ield         | OpenFOAM: The Open Source CFD Toolbox
   \\    /   O peration     | Website:  https://openfoam.org
    \\  /    A nd           | Version:  8
     \\/     M anipulation  |
\*---------------------------------------------------------------------------*/
FoamFile
{
    version     2.0;
    format      ascii;
    class       volScalarField;
    location    "200";
    object      k;
}
// * * * * * * * * * * * * * * * * * * * * * * * * * * * * * * * * * * * * * //

dimensions      [0 2 -2 0 0 0 0];

internalField   nonuniform List<scalar> 
8400
(
0.0778243
0.0770485
0.0762874
0.0755368
0.0747938
0.0740556
0.0733196
0.0725842
0.0718483
0.0711114
0.0703734
0.0696347
0.0688956
0.0681568
0.067419
0.066683
0.0659493
0.0652189
0.0644924
0.0637705
0.0630538
0.062343
0.0616387
0.0609416
0.0602521
0.0595709
0.0588985
0.0582354
0.0575821
0.0569392
0.0563072
0.0556865
0.0550777
0.0544814
0.0538981
0.0533283
0.0527728
0.0522322
0.0517072
0.0511986
0.0507073
0.0502346
0.0497819
0.0493509
0.0489442
0.0485649
0.0482179
0.0479101
0.0476502
0.047451
0.00603245
0.00602512
0.00601812
0.0060117
0.0060061
0.00600154
0.0059982
0.00599623
0.00599577
0.00599695
0.00599988
0.00600463
0.00601131
0.00601997
0.0060307
0.00604356
0.0060586
0.00607588
0.00609545
0.00611736
0.00614167
0.0061684
0.0061976
0.00622931
0.00626357
0.0063004
0.00633982
0.00638186
0.00642654
0.00647385
0.0065238
0.0065764
0.00663163
0.00668948
0.00674994
0.00681298
0.00687856
0.00694665
0.00701719
0.00709012
0.00716535
0.00724281
0.00732238
0.00740391
0.00748723
0.00757212
0.00765826
0.00774528
0.00783268
0.0079197
0.00719024
0.00720431
0.00721794
0.00723145
0.0072452
0.00725953
0.00727475
0.00729112
0.00730884
0.00732808
0.00734897
0.0073716
0.00739606
0.00742241
0.00745071
0.00748099
0.00751328
0.00754762
0.00758402
0.00762251
0.0076631
0.00770579
0.00775059
0.00779751
0.00784655
0.00789768
0.00795091
0.00800621
0.00806354
0.00812289
0.0081842
0.00824743
0.00831253
0.00837944
0.00844809
0.00851841
0.00859031
0.0086637
0.00873846
0.00881448
0.00889161
0.0089697
0.00904855
0.00912796
0.00920764
0.00928725
0.00936635
0.00944441
0.00952072
0.00959435
0.00887605
0.00891519
0.00895342
0.00899082
0.00902753
0.00906371
0.00909952
0.00913515
0.00917075
0.00920649
0.0092425
0.00927891
0.00931586
0.00935344
0.00939176
0.00943089
0.00947093
0.00951192
0.00955395
0.00959705
0.00964128
0.00968667
0.00973326
0.00978109
0.00983016
0.0098805
0.00993212
0.00998503
0.0100392
0.0100947
0.0101514
0.0102094
0.0102686
0.010329
0.0103907
0.0104535
0.0105174
0.0105824
0.0106484
0.0107155
0.0107836
0.0108525
0.0109224
0.010993
0.0110645
0.0111366
0.0112093
0.0112825
0.011356
0.0114298
0.00894224
0.00901353
0.0090839
0.00915286
0.00922003
0.0092852
0.00934826
0.00940923
0.00946819
0.00952529
0.00958068
0.00963454
0.00968705
0.00973838
0.00978871
0.0098382
0.00988699
0.00993524
0.00998307
0.0100306
0.010078
0.0101252
0.0101725
0.0102199
0.0102675
0.0103153
0.0103635
0.0104121
0.0104612
0.0105108
0.0105611
0.0106119
0.0106635
0.0107158
0.010769
0.0108231
0.0108781
0.0109341
0.0109912
0.0110495
0.0111091
0.01117
0.0112324
0.0112965
0.0113624
0.0114304
0.0115008
0.0115738
0.0116501
0.01173
0.00753255
0.00762722
0.00772218
0.00781584
0.00790718
0.00799555
0.00808058
0.00816212
0.00824019
0.00831488
0.00838636
0.00845481
0.00852046
0.00858351
0.0086442
0.00870274
0.00875933
0.00881417
0.00886745
0.00891937
0.00897008
0.00901975
0.00906855
0.00911662
0.00916413
0.00921119
0.00925797
0.00930458
0.00935118
0.00939788
0.00944483
0.00949215
0.00954
0.00958851
0.00963782
0.00968808
0.00973944
0.00979206
0.00984611
0.00990177
0.00995925
0.0100188
0.0100806
0.0101451
0.0102125
0.0102832
0.0103579
0.0104371
0.0105215
0.0106122
0.00543961
0.00553325
0.00562818
0.00572254
0.00581507
0.00590494
0.00599167
0.00607504
0.00615497
0.00623153
0.0063048
0.00637495
0.00644214
0.00650655
0.00656838
0.00662782
0.00668507
0.00674032
0.00679376
0.00684558
0.00689596
0.00694509
0.00699313
0.00704028
0.00708669
0.00713255
0.00717802
0.00722329
0.00726851
0.00731387
0.00735955
0.00740572
0.00745258
0.00750031
0.0075491
0.00759916
0.00765068
0.00770387
0.00775896
0.00781617
0.00787576
0.007938
0.0080032
0.0080717
0.00814389
0.00822026
0.00830137
0.0083879
0.00848069
0.00858073
0.00361933
0.00368156
0.00374644
0.00381221
0.00387773
0.00394227
0.00400541
0.00406691
0.00412662
0.00418451
0.00424057
0.00429483
0.00434733
0.00439817
0.00444741
0.00449517
0.00454156
0.00458667
0.00463065
0.0046736
0.00471567
0.00475699
0.00479769
0.00483792
0.00487782
0.00491753
0.00495722
0.00499703
0.00503713
0.00507769
0.00511887
0.00516085
0.00520381
0.00524795
0.00529346
0.00534053
0.00538938
0.0054402
0.00549323
0.00554868
0.00560682
0.00566788
0.00573217
0.00579997
0.00587165
0.00594762
0.00602836
0.00611446
0.00620663
0.00630573
0.00264441
0.00265951
0.00267757
0.00269793
0.00272002
0.00274337
0.00276763
0.00279253
0.00281786
0.00284346
0.0028692
0.00289497
0.0029207
0.00294635
0.00297186
0.00299723
0.00302245
0.00304754
0.00307251
0.00309741
0.00312227
0.00314714
0.00317209
0.00319718
0.00322249
0.00324809
0.00327409
0.00330057
0.00332764
0.0033554
0.00338397
0.00341349
0.00344408
0.00347589
0.00350906
0.00354376
0.00358013
0.00361837
0.00365864
0.00370115
0.00374609
0.00379368
0.00384415
0.00389774
0.00395473
0.00401543
0.0040802
0.00414947
0.00422377
0.00430373
0.00249576
0.00247172
0.00245043
0.0024325
0.00241775
0.00240583
0.00239639
0.00238914
0.00238382
0.00238023
0.00237817
0.00237747
0.00237798
0.00237957
0.00238212
0.00238553
0.0023897
0.00239457
0.00240005
0.00240611
0.00241269
0.00241978
0.00242734
0.00243536
0.00244385
0.0024528
0.00246222
0.00247214
0.00248257
0.00249356
0.00250514
0.00251736
0.00253028
0.00254396
0.00255848
0.00257392
0.00259038
0.00260794
0.00262673
0.00264686
0.00266848
0.00269171
0.00271673
0.00274368
0.00277275
0.00280412
0.00283802
0.00287467
0.00291435
0.00295741
0.00273118
0.0026937
0.00265874
0.00262659
0.00259712
0.00256998
0.00254488
0.00252162
0.0025001
0.00248024
0.002462
0.00244531
0.00243012
0.00241638
0.002404
0.00239293
0.00238308
0.00237438
0.00236674
0.00236009
0.00235436
0.00234947
0.00234534
0.00234193
0.00233916
0.00233698
0.00233534
0.00233419
0.00233348
0.00233316
0.00233321
0.00233357
0.00233422
0.00233513
0.0023363
0.00233769
0.00233932
0.00234118
0.0023433
0.00234569
0.00234841
0.00235148
0.00235501
0.00235904
0.00236367
0.00236899
0.00237512
0.00238216
0.0023902
0.00239936
0.00292747
0.00290065
0.0028769
0.00285414
0.00283242
0.00281154
0.00279135
0.00277157
0.00275214
0.00273312
0.00271446
0.00269621
0.00267843
0.00266117
0.00264446
0.00262836
0.00261289
0.00259808
0.00258396
0.00257054
0.00255781
0.00254577
0.00253445
0.00252383
0.00251392
0.0025047
0.00249619
0.00248838
0.00248123
0.00247469
0.00246872
0.00246326
0.00245825
0.00245364
0.00244935
0.00244533
0.00244148
0.00243774
0.00243401
0.00243023
0.00242634
0.00242231
0.00241803
0.00241349
0.00240871
0.00240367
0.00239844
0.00239322
0.00238824
0.00238384
0.00298707
0.0029727
0.00295927
0.00294646
0.00293411
0.00292207
0.00291024
0.00289859
0.0028871
0.00287574
0.00286448
0.00285331
0.00284224
0.00283126
0.00282037
0.00280957
0.00279885
0.00278823
0.00277771
0.00276729
0.00275698
0.00274678
0.00273671
0.00272677
0.00271697
0.00270735
0.00269791
0.00268868
0.00267967
0.00267087
0.00266229
0.00265397
0.00264591
0.0026381
0.00263056
0.00262332
0.00261635
0.00260965
0.00260316
0.00259689
0.00259075
0.00258474
0.00257886
0.00257303
0.00256716
0.00256118
0.00255486
0.002548
0.00254025
0.00253103
0.00299315
0.00298575
0.00297844
0.00297119
0.00296398
0.00295679
0.00294962
0.00294246
0.00293532
0.00292819
0.00292107
0.00291396
0.00290687
0.0028998
0.00289274
0.0028857
0.00287869
0.00287169
0.00286472
0.00285777
0.00285085
0.00284396
0.00283709
0.00283026
0.00282346
0.00281671
0.00281
0.00280335
0.00279675
0.00279021
0.00278374
0.00277733
0.00277098
0.00276471
0.00275851
0.00275238
0.00274633
0.00274035
0.00273443
0.00272856
0.00272274
0.00271693
0.00271113
0.00270532
0.00269944
0.00269347
0.0026873
0.00268087
0.00267407
0.00266677
0.00299549
0.00299065
0.0029858
0.00298092
0.00297603
0.00297113
0.00296621
0.00296129
0.00295636
0.00295143
0.0029465
0.00294157
0.00293664
0.00293171
0.00292679
0.00292187
0.00291695
0.00291204
0.00290714
0.00290224
0.00289735
0.00289247
0.00288759
0.00288272
0.00287786
0.00287302
0.00286819
0.00286338
0.00285858
0.00285381
0.00284905
0.00284431
0.0028396
0.0028349
0.00283022
0.00282556
0.00282093
0.0028163
0.00281169
0.00280709
0.00280249
0.00279787
0.00279322
0.00278853
0.00278376
0.0027789
0.0027739
0.00276871
0.00276327
0.00275754
0.00299648
0.00299282
0.00298918
0.00298556
0.00298194
0.00297833
0.00297473
0.00297113
0.00296753
0.00296394
0.00296035
0.00295676
0.00295317
0.00294958
0.00294599
0.0029424
0.00293881
0.00293522
0.00293163
0.00292804
0.00292444
0.00292084
0.00291725
0.00291365
0.00291004
0.00290644
0.00290284
0.00289925
0.00289565
0.00289206
0.00288846
0.00288487
0.00288128
0.00287769
0.00287409
0.0028705
0.0028669
0.0028633
0.0028597
0.00285609
0.00285246
0.00284881
0.00284513
0.0028414
0.00283762
0.00283375
0.0028298
0.00282574
0.00282165
0.00281754
0.00299756
0.002995
0.00299243
0.00298982
0.00298719
0.00298454
0.00298188
0.0029792
0.00297651
0.0029738
0.00297108
0.00296835
0.00296561
0.00296286
0.0029601
0.00295733
0.00295455
0.00295176
0.00294896
0.00294615
0.00294333
0.0029405
0.00293767
0.00293483
0.00293198
0.00292912
0.00292627
0.0029234
0.00292053
0.00291766
0.00291478
0.00291189
0.002909
0.0029061
0.00290319
0.00290029
0.00289737
0.00289446
0.00289153
0.00288859
0.00288564
0.00288267
0.00287966
0.00287662
0.00287353
0.0028704
0.00286724
0.00286408
0.00286083
0.00285745
0.00299753
0.00299503
0.00299256
0.00299014
0.00298775
0.0029854
0.00298308
0.00298079
0.00297852
0.00297628
0.00297405
0.00297184
0.00296963
0.00296744
0.00296526
0.00296308
0.00296091
0.00295874
0.00295658
0.00295442
0.00295227
0.00295012
0.00294798
0.00294584
0.00294371
0.00294159
0.00293947
0.00293736
0.00293527
0.00293318
0.0029311
0.00292904
0.00292699
0.00292494
0.00292291
0.00292088
0.00291885
0.00291681
0.00291475
0.00291264
0.00291046
0.00290818
0.00290578
0.00290331
0.00290083
0.00289834
0.0028958
0.00289321
0.00289055
0.00288781
0.00299855
0.00299779
0.00299728
0.0029971
0.00299721
0.00299755
0.00299806
0.0029987
0.00299944
0.00300025
0.00300111
0.003002
0.00300292
0.00300385
0.00300479
0.00300573
0.00300667
0.00300761
0.00300855
0.00300948
0.00301041
0.00301135
0.0030123
0.00301326
0.00301424
0.00301525
0.00301629
0.00301739
0.00301854
0.00301976
0.00302105
0.00302241
0.00302385
0.00302534
0.00302686
0.00302835
0.00302972
0.00303081
0.00303134
0.0030307
0.00303006
0.00302943
0.00302883
0.0030282
0.0030275
0.00302671
0.00302582
0.00302479
0.00302358
0.00302212
0.00307682
0.00315783
0.00324068
0.00332531
0.00341184
0.00350033
0.00359084
0.0036834
0.00377806
0.00387487
0.00397387
0.00407511
0.00417862
0.00428446
0.00439266
0.00450327
0.00461635
0.00473194
0.00485008
0.00497082
0.00509423
0.00522033
0.0053492
0.00548087
0.00561541
0.00575285
0.00589326
0.0060367
0.0061832
0.00633283
0.00648564
0.00664169
0.00680104
0.00696374
0.00712986
0.00729945
0.0074726
0.00764936
0.0078298
0.008014
0.0081973
0.00837746
0.0085524
0.00872
0.00887808
0.00902471
0.00915807
0.00927642
0.00937837
0.00946513
0.0589323
0.0574899
0.0561248
0.05483
0.0535973
0.0524185
0.0512856
0.0501957
0.0491464
0.0481356
0.0471614
0.0462222
0.0453163
0.0444422
0.0435985
0.0427838
0.0419967
0.041236
0.0405007
0.0397896
0.0391019
0.0384366
0.0377928
0.0371697
0.0365665
0.0359824
0.0354165
0.0348682
0.0343368
0.0338215
0.0333219
0.0328373
0.0323672
0.0319112
0.0314688
0.0310394
0.0306228
0.0302186
0.0298263
0.0294441
0.0290707
0.0287055
0.028348
0.0279971
0.027652
0.0273112
0.0269727
0.0266336
0.0262883
0.0259265
0.0580914
0.0554622
0.0530079
0.0507106
0.0485608
0.0465486
0.044666
0.0429021
0.0412472
0.0396923
0.0382296
0.0368517
0.035552
0.0343247
0.0331641
0.0320655
0.0310242
0.0300364
0.0290984
0.0282068
0.0273587
0.0265512
0.0257818
0.025048
0.0243476
0.0236784
0.0230386
0.0224263
0.0218399
0.0212778
0.0207387
0.0202211
0.0197238
0.0192456
0.0187852
0.0183415
0.0179134
0.0174999
0.0171
0.0167144
0.0163428
0.0159845
0.0156389
0.0153053
0.0149831
0.0146715
0.0143699
0.0140772
0.0137922
0.0135135
0.0580878
0.0554498
0.0529793
0.0506677
0.0485029
0.0464739
0.0445699
0.042781
0.0410982
0.0395132
0.0380185
0.0366073
0.0352736
0.0340115
0.0328161
0.0316825
0.0306067
0.0295847
0.028613
0.0276884
0.0268081
0.0259692
0.0251693
0.0244059
0.0236769
0.0229802
0.0223139
0.0216763
0.0210658
0.0204808
0.01992
0.019382
0.0188656
0.0183698
0.0178934
0.0174356
0.0169954
0.016572
0.0161644
0.0157721
0.0153944
0.0150305
0.0146799
0.0143421
0.0140164
0.0137026
0.0134002
0.013109
0.0128283
0.0125568
0.0580878
0.0554688
0.05302
0.0507284
0.0485809
0.0465655
0.0446717
0.0428899
0.0412115
0.0396287
0.0381345
0.0367225
0.0353868
0.034122
0.0329231
0.0317857
0.0307057
0.0296793
0.028703
0.0277738
0.0268887
0.0260451
0.0252403
0.0244722
0.0237385
0.0230371
0.0223663
0.0217242
0.0211094
0.0205203
0.0199554
0.0194137
0.0188937
0.0183944
0.0179148
0.0174537
0.0170103
0.0165838
0.0161733
0.0157781
0.0153975
0.0150309
0.0146778
0.0143374
0.0140092
0.0136928
0.0133875
0.0130933
0.0128099
0.0125365
0.0580878
0.0554693
0.0530196
0.0507254
0.0485745
0.0465555
0.0446584
0.0428738
0.0411932
0.0396089
0.0381139
0.0367015
0.0353659
0.0341016
0.0329035
0.0317672
0.0306884
0.0296634
0.0286887
0.0277611
0.0268777
0.0260356
0.0252324
0.0244657
0.0237334
0.0230333
0.0223637
0.0217229
0.0211092
0.0205211
0.0199574
0.0194166
0.0188975
0.0183991
0.0179202
0.0174598
0.017017
0.016591
0.0161809
0.0157861
0.0154058
0.0150394
0.0146864
0.0143461
0.0140181
0.0137017
0.0133964
0.0131017
0.0128174
0.012543
0.0580879
0.0554708
0.053024
0.0507336
0.0485869
0.0465724
0.0446795
0.0428989
0.0412218
0.0396404
0.0381478
0.0367373
0.0354031
0.0341397
0.0329424
0.0318064
0.0307278
0.0297028
0.0287279
0.0277999
0.026916
0.0260733
0.0252694
0.0245019
0.0237686
0.0230676
0.0223971
0.0217552
0.0211406
0.0205516
0.0199868
0.0194451
0.0189251
0.0184256
0.0179457
0.0174843
0.0170406
0.0166135
0.0162024
0.0158065
0.0154252
0.0150577
0.0147035
0.014362
0.0140326
0.0137149
0.0134084
0.0131124
0.0128265
0.0125504
0.0580879
0.0554711
0.053025
0.050735
0.0485883
0.0465734
0.0446798
0.0428981
0.0412198
0.0396373
0.0381434
0.0367317
0.0353965
0.0341322
0.0329341
0.0317976
0.0307186
0.0296933
0.0287182
0.0277902
0.0269063
0.0260637
0.0252599
0.0244926
0.0237595
0.0230588
0.0223885
0.0217469
0.0211326
0.0205439
0.0199795
0.0194381
0.0189185
0.0184193
0.0179397
0.0174786
0.0170351
0.0166082
0.0161973
0.0158016
0.0154204
0.0150531
0.0146989
0.0143574
0.0140279
0.0137099
0.0134031
0.0131068
0.0128204
0.0125437
0.0580879
0.0554713
0.0530256
0.0507363
0.0485904
0.0465763
0.0446836
0.0429029
0.0412256
0.039644
0.038151
0.0367403
0.0354058
0.0341423
0.0329449
0.031809
0.0307305
0.0297057
0.028731
0.0278033
0.0269196
0.0260771
0.0252734
0.0245059
0.0237727
0.0230718
0.0224013
0.0217595
0.0211449
0.020556
0.0199912
0.0194494
0.0189293
0.0184297
0.0179496
0.017488
0.0170439
0.0166165
0.016205
0.0158087
0.0154269
0.0150588
0.0147039
0.0143616
0.0140313
0.0137124
0.0134044
0.013107
0.0128195
0.0125414
0.0580879
0.0554714
0.0530258
0.0507367
0.0485909
0.046577
0.0446843
0.0429035
0.041226
0.0396441
0.0381508
0.0367397
0.0354048
0.0341409
0.0329431
0.0318068
0.0307281
0.029703
0.0287281
0.0278001
0.0269162
0.0260735
0.0252695
0.0245019
0.0237686
0.0230676
0.022397
0.0217552
0.0211406
0.0205516
0.0199868
0.0194449
0.0189248
0.0184251
0.0179449
0.0174832
0.017039
0.0166116
0.0162
0.0158036
0.0154216
0.0150534
0.0146982
0.0143556
0.014025
0.0137057
0.0133972
0.0130992
0.0128111
0.0125323
0.0580879
0.0554714
0.0530259
0.0507368
0.0485911
0.0465772
0.0446847
0.0429041
0.0412268
0.0396451
0.038152
0.0367411
0.0354065
0.0341428
0.0329452
0.0318091
0.0307306
0.0297057
0.0287309
0.0278031
0.0269192
0.0260766
0.0252727
0.0245051
0.0237718
0.0230707
0.0224001
0.0217583
0.0211435
0.0205544
0.0199894
0.0194474
0.0189269
0.018427
0.0179465
0.0174845
0.01704
0.0166123
0.0162005
0.0158037
0.0154213
0.0150526
0.014697
0.0143538
0.0140225
0.0137025
0.0133933
0.0130944
0.0128054
0.0125257
0.0580879
0.0554714
0.0530258
0.0507366
0.0485909
0.046577
0.0446844
0.0429038
0.0412265
0.0396449
0.0381519
0.036741
0.0354064
0.0341428
0.0329452
0.0318092
0.0307306
0.0297056
0.0287309
0.027803
0.0269191
0.0260764
0.0252724
0.0245048
0.0237714
0.0230704
0.0223997
0.0217578
0.0211429
0.0205537
0.0199885
0.0194463
0.0189256
0.0184254
0.0179447
0.0174825
0.0170379
0.0166099
0.0161978
0.0158008
0.0154181
0.015049
0.0146929
0.0143492
0.0140173
0.0136967
0.0133868
0.0130872
0.0127974
0.0125168
0.0580879
0.0554713
0.0530256
0.0507362
0.0485903
0.0465762
0.0446835
0.0429027
0.0412254
0.0396436
0.0381505
0.0367395
0.0354047
0.0341409
0.0329431
0.0318069
0.0307281
0.0297029
0.0287279
0.0277998
0.0269158
0.0260729
0.0252688
0.0245011
0.0237677
0.0230666
0.0223959
0.021754
0.021139
0.0205497
0.0199844
0.019442
0.0189212
0.018421
0.0179402
0.0174779
0.0170331
0.0166051
0.0161928
0.0157956
0.0154127
0.0150433
0.0146869
0.0143428
0.0140105
0.0136893
0.013379
0.0130788
0.0127883
0.0125071
0.0580878
0.0554712
0.0530252
0.0507355
0.0485894
0.0465752
0.0446825
0.0429018
0.0412247
0.0396433
0.0381505
0.0367399
0.0354056
0.0341422
0.0329448
0.0318089
0.0307303
0.0297054
0.0287305
0.0278026
0.0269186
0.0260759
0.0252718
0.0245042
0.0237709
0.0230698
0.022399
0.021757
0.0211419
0.0205523
0.0199868
0.0194442
0.0189231
0.0184226
0.0179415
0.0174789
0.0170338
0.0166054
0.0161927
0.015795
0.0154115
0.0150416
0.0146845
0.0143397
0.0140066
0.0136848
0.0133735
0.0130725
0.012781
0.0124988
0.0580878
0.0554709
0.0530245
0.0507341
0.0485872
0.0465721
0.0446785
0.042897
0.0412189
0.0396366
0.0381429
0.0367314
0.0353963
0.034132
0.0329339
0.0317972
0.0307181
0.0296926
0.0287173
0.027789
0.0269047
0.0260618
0.0252578
0.0244902
0.0237569
0.0230559
0.0223853
0.0217433
0.0211284
0.020539
0.0199737
0.0194312
0.0189104
0.0184101
0.0179292
0.0174668
0.0170219
0.0165936
0.016181
0.0157834
0.0153999
0.0150299
0.0146728
0.0143279
0.0139947
0.0136726
0.0133612
0.0130598
0.0127679
0.0124852
0.0580878
0.0554706
0.0530235
0.0507328
0.0485859
0.0465713
0.0446785
0.042898
0.0412211
0.03964
0.0381475
0.0367371
0.0354029
0.0341394
0.0329418
0.0318055
0.0307266
0.0297012
0.0287259
0.0277976
0.0269132
0.0260702
0.0252659
0.024498
0.0237644
0.023063
0.022392
0.0217496
0.0211343
0.0205444
0.0199786
0.0194356
0.0189143
0.0184134
0.017932
0.017469
0.0170234
0.0165945
0.0161812
0.0157828
0.0153986
0.0150279
0.01467
0.0143243
0.0139902
0.0136672
0.0133547
0.0130522
0.0127593
0.0124754
0.0580878
0.0554691
0.0530192
0.0507247
0.0485736
0.0465547
0.0446577
0.0428733
0.0411931
0.039609
0.0381141
0.0367016
0.0353658
0.0341011
0.0329026
0.0317658
0.0306866
0.0296611
0.028686
0.0277579
0.0268741
0.0260316
0.025228
0.024461
0.0237282
0.0230277
0.0223576
0.0217161
0.0211016
0.0205127
0.0199478
0.0194058
0.0188853
0.0183853
0.0179047
0.0174424
0.0169976
0.0165692
0.0161565
0.0157587
0.015375
0.0150047
0.0146472
0.0143019
0.0139681
0.0136453
0.013333
0.0130306
0.0127377
0.0124537
0.0580878
0.0554686
0.0530197
0.0507279
0.0485804
0.0465652
0.0446716
0.0428901
0.041212
0.0396294
0.0381352
0.0367229
0.0353868
0.0341213
0.0329217
0.0317836
0.0307029
0.0296758
0.028699
0.0277693
0.0268838
0.0260397
0.0252345
0.0244659
0.0237316
0.0230297
0.0223583
0.0217155
0.0210998
0.0205098
0.0199439
0.0194009
0.0188795
0.0183786
0.0178972
0.0174341
0.0169885
0.0165594
0.0161461
0.0157477
0.0153635
0.0149929
0.0146351
0.0142895
0.0139556
0.0136329
0.0133208
0.0130188
0.0127266
0.0124438
0.0580877
0.0554498
0.0529792
0.0506675
0.0485028
0.046474
0.0445704
0.0427819
0.0410994
0.0395145
0.0380197
0.0366082
0.0352738
0.0340109
0.0328145
0.0316801
0.0306034
0.0295808
0.0286085
0.0276836
0.0268029
0.0259638
0.0251636
0.0243999
0.0236706
0.0229736
0.0223071
0.0216692
0.0210584
0.0204732
0.0199121
0.0193739
0.0188573
0.0183611
0.0178844
0.0174262
0.0169854
0.0165613
0.0161531
0.0157601
0.0153816
0.015017
0.0146657
0.0143272
0.014001
0.013687
0.0133847
0.0130943
0.012816
0.0125507
0.0580914
0.0554621
0.0530079
0.0507106
0.048561
0.0465492
0.0446671
0.0429038
0.0412493
0.0396947
0.0382319
0.0368537
0.0355534
0.0343253
0.033164
0.0320647
0.0310231
0.0300351
0.0290972
0.028206
0.0273585
0.0265518
0.0257834
0.0250508
0.0243517
0.0236843
0.0230465
0.0224366
0.0218532
0.0212947
0.0207597
0.0202471
0.0197556
0.0192842
0.0188319
0.0183979
0.0179814
0.0175816
0.0171981
0.0168303
0.0164776
0.0161399
0.0158168
0.0155082
0.0152143
0.0149353
0.0146721
0.0144263
0.0142012
0.0140036
0.0589322
0.0574899
0.0561248
0.0548301
0.0535975
0.052419
0.0512864
0.0501968
0.0491477
0.0481368
0.0471624
0.0462226
0.0453159
0.0444408
0.0435959
0.0427799
0.0419918
0.0412301
0.040494
0.0397823
0.0390939
0.0384278
0.0377832
0.0371591
0.0365546
0.0359689
0.0354013
0.0348509
0.0343172
0.0337993
0.0332967
0.0328086
0.0323344
0.0318736
0.0314257
0.0309899
0.030566
0.0301532
0.0297513
0.0293595
0.0289775
0.0286047
0.0282405
0.0278845
0.027536
0.0271944
0.0268592
0.0265294
0.0262043
0.0258824
0.0130877
0.00358806
0.00196006
0.00176285
0.00168702
0.00166208
0.00161333
0.00158255
0.00154127
0.00150666
0.00147162
0.00143414
0.00140492
0.0013644
0.00134082
0.00129655
0.0012949
0.00138061
0.00245151
0.00920838
0.0131165
0.00360345
0.00197335
0.00177623
0.00170032
0.00167513
0.00162621
0.00159519
0.00155377
0.00151893
0.00148372
0.00144597
0.00141655
0.00137576
0.001352
0.00130751
0.00130579
0.00139196
0.00246688
0.00923166
0.0131457
0.00361822
0.00198668
0.00178973
0.00171375
0.00168833
0.00163928
0.00160802
0.00156645
0.00153136
0.00149594
0.00145792
0.0014283
0.00138728
0.00136336
0.00131866
0.00131686
0.00140345
0.00248199
0.00925244
0.0131751
0.00363276
0.00200013
0.00180341
0.0017274
0.00170174
0.00165254
0.00162101
0.00157926
0.00154388
0.00150826
0.00146999
0.00144022
0.00139899
0.00137492
0.00132999
0.00132806
0.00141492
0.00249581
0.00927346
0.0132047
0.0036473
0.00201373
0.00181727
0.00174123
0.00171532
0.00166594
0.00163412
0.00159215
0.00155649
0.0015207
0.00148221
0.0014523
0.00141087
0.0013866
0.00134142
0.00133933
0.00142629
0.00250892
0.00929477
0.0132345
0.00366194
0.00202751
0.00183131
0.00175523
0.00172905
0.00167948
0.00164735
0.00160518
0.00156925
0.0015333
0.0014946
0.00146454
0.00142287
0.00139839
0.00135294
0.00135068
0.00143765
0.00252168
0.00931657
0.0132645
0.00367674
0.00204148
0.00184553
0.00176941
0.00174296
0.00169319
0.00166074
0.00161838
0.0015822
0.0015461
0.00150718
0.00147692
0.001435
0.00141028
0.00136458
0.00136215
0.00144907
0.00253442
0.00933887
0.0132946
0.00369174
0.00205565
0.00185994
0.00178378
0.00175704
0.00170708
0.00167434
0.0016318
0.00159537
0.0015591
0.00151992
0.00148945
0.00144725
0.00142231
0.00137637
0.00137381
0.00146066
0.00254737
0.00936146
0.0133249
0.00370698
0.00207003
0.00187454
0.00179834
0.0017713
0.00172116
0.00168813
0.00164542
0.00160873
0.00157227
0.00153281
0.00150211
0.00145965
0.00143452
0.00138835
0.00138566
0.00147243
0.00256053
0.00938412
0.0133555
0.0037224
0.00208457
0.00188929
0.00181305
0.00178572
0.00173542
0.00170211
0.00165922
0.00162225
0.00158559
0.00154585
0.00151494
0.00147223
0.00144691
0.00140052
0.00139767
0.00148433
0.00257372
0.00940675
0.0133863
0.00373794
0.00209927
0.00190421
0.00182792
0.0018003
0.00174984
0.00171623
0.00167317
0.00163592
0.00159906
0.00155906
0.00152794
0.001485
0.00145949
0.00141285
0.00140981
0.00149632
0.00258681
0.00942951
0.0134174
0.00375364
0.00211413
0.00191928
0.00184294
0.00181502
0.00176439
0.00173049
0.00168726
0.00164974
0.00161271
0.00157245
0.00154114
0.00149795
0.00147222
0.00142532
0.00142208
0.0015084
0.00259983
0.00945267
0.0134487
0.00376955
0.00212917
0.00193453
0.00185813
0.0018299
0.0017791
0.00174492
0.00170153
0.00166376
0.00162655
0.00158603
0.00155451
0.00151107
0.00148512
0.00143795
0.0014345
0.00152062
0.00261297
0.00947642
0.0134805
0.0037857
0.00214439
0.00194997
0.0018735
0.00184496
0.00179401
0.00175955
0.00171603
0.001678
0.0016406
0.0015998
0.00156806
0.00152436
0.00149819
0.00145075
0.00144712
0.00153304
0.00262644
0.00950074
0.0135127
0.00380199
0.0021598
0.00196559
0.00188907
0.00186024
0.00180916
0.00177443
0.00173075
0.00169244
0.00165483
0.00161374
0.00158179
0.00153783
0.00151145
0.00146376
0.00145996
0.00154571
0.00264035
0.00952543
0.0135454
0.00381831
0.00217539
0.00198141
0.00190486
0.00187575
0.00182454
0.00178952
0.00174566
0.00170705
0.00166922
0.00162785
0.00159569
0.00155149
0.00152491
0.00147699
0.00147301
0.00155859
0.00265459
0.00955023
0.0135783
0.00383464
0.00219117
0.00199743
0.00192088
0.00189148
0.00184013
0.0018048
0.00176074
0.0017218
0.00168376
0.00164213
0.00160977
0.00156534
0.00153858
0.00149042
0.00148624
0.00157165
0.00266897
0.00957503
0.0136111
0.00385108
0.00220717
0.00201366
0.00193712
0.00190742
0.0018559
0.00182023
0.00177596
0.00173672
0.00169847
0.00165659
0.00162405
0.0015794
0.00155244
0.00150402
0.00149962
0.00158482
0.00268329
0.00959996
0.0136438
0.00386776
0.00222341
0.00203011
0.00195356
0.00192353
0.00187184
0.00183582
0.00179135
0.00175181
0.00171339
0.00167127
0.00163854
0.00159365
0.00156647
0.00151777
0.00151313
0.0015981
0.00269755
0.00962526
0.0136766
0.0038848
0.0022399
0.00204678
0.0019702
0.00193983
0.00188796
0.0018516
0.00180695
0.00176714
0.00172853
0.00168617
0.00165325
0.00160809
0.00158067
0.00153167
0.0015268
0.00161153
0.00271189
0.00965116
0.0137097
0.00390222
0.00225663
0.00206367
0.00198705
0.00195634
0.00190429
0.00186761
0.0018228
0.0017827
0.00174392
0.0017013
0.00166816
0.00162272
0.00159505
0.00154576
0.00154068
0.00162516
0.00272652
0.00967771
0.0137433
0.00391995
0.00227359
0.00208078
0.00200413
0.00197306
0.00192086
0.00188386
0.00183889
0.00179851
0.00175954
0.00171664
0.00168326
0.00163755
0.00160963
0.00156008
0.00155479
0.00163905
0.0027416
0.00970475
0.0137775
0.00393785
0.00229076
0.00209811
0.00202143
0.00199002
0.00193767
0.00190036
0.00185522
0.00181454
0.00177536
0.00173217
0.00169856
0.00165257
0.00162443
0.00157462
0.00156915
0.0016532
0.0027571
0.00973208
0.0138121
0.00395584
0.00230813
0.00211566
0.00203895
0.0020072
0.00195471
0.00191708
0.00187177
0.00183078
0.00179138
0.0017479
0.00171405
0.0016678
0.00163945
0.00158939
0.00158372
0.00166758
0.00277291
0.00975953
0.0138471
0.0039739
0.00232571
0.00213341
0.00205669
0.00202462
0.00197199
0.00193403
0.00188853
0.00184723
0.0018076
0.00176383
0.00172976
0.00168325
0.00165468
0.00160437
0.00159849
0.00168216
0.00278887
0.00978709
0.0138822
0.00399209
0.00234351
0.00215139
0.00207468
0.00204228
0.00198952
0.00195122
0.00190552
0.00186389
0.00182404
0.00177998
0.00174568
0.00169891
0.00167012
0.00161955
0.00161344
0.00169692
0.00280492
0.00981485
0.0139173
0.00401054
0.00236157
0.00216963
0.00209293
0.0020602
0.0020073
0.00196865
0.00192276
0.0018808
0.00184073
0.00179638
0.00176184
0.00171481
0.00168578
0.00163494
0.0016286
0.00171188
0.00282109
0.00984294
0.0139527
0.00402934
0.00237992
0.00218815
0.00211147
0.0020784
0.00202534
0.00198634
0.00194024
0.00189795
0.00185766
0.00181302
0.00177827
0.00173097
0.0017017
0.00165057
0.00164398
0.00172706
0.00283746
0.00987146
0.0139885
0.00404853
0.00239857
0.00220695
0.00213029
0.00209685
0.00204363
0.00200426
0.00195796
0.00191535
0.00187485
0.00182994
0.00179496
0.0017474
0.00171788
0.00166645
0.0016596
0.00174249
0.0028541
0.00990045
0.0140249
0.004068
0.00241748
0.00222602
0.00214935
0.00211553
0.00206213
0.0020224
0.00197591
0.001933
0.00189231
0.00184713
0.00181193
0.00176411
0.00173431
0.00168258
0.00167546
0.00175815
0.002871
0.00992987
0.0140618
0.00408763
0.00243662
0.00224531
0.00216862
0.0021344
0.00208084
0.00204075
0.0019941
0.00195089
0.00191001
0.00186458
0.00182915
0.00178105
0.00175098
0.00169894
0.00169155
0.00177404
0.00288814
0.0099597
0.0140991
0.00410732
0.00245595
0.00226481
0.0021881
0.00215349
0.00209976
0.00205933
0.00201252
0.00196903
0.00192797
0.00188226
0.0018466
0.00179821
0.00176786
0.00171551
0.00170786
0.00179014
0.00290546
0.00998994
0.0141367
0.00412711
0.00247549
0.00228454
0.00220781
0.00217281
0.00211895
0.00207818
0.00203121
0.00198742
0.00194616
0.00190016
0.00186424
0.00181556
0.00178493
0.00173229
0.00172438
0.00180645
0.00292298
0.0100206
0.0141745
0.00414715
0.00249531
0.00230455
0.00222781
0.00219243
0.00213843
0.00209731
0.00205017
0.00200606
0.00196457
0.00191826
0.00188209
0.00183311
0.00180222
0.00174929
0.00174114
0.001823
0.00294073
0.0100518
0.0142126
0.00416756
0.00251544
0.00232487
0.00224813
0.00221237
0.00215822
0.00211675
0.0020694
0.00202495
0.00198321
0.00193659
0.00190015
0.0018509
0.00181975
0.00176655
0.00175816
0.00183981
0.00295881
0.0100835
0.0142513
0.00418834
0.0025359
0.00234551
0.00226879
0.00223264
0.00217833
0.00213647
0.00208891
0.0020441
0.00200212
0.00195518
0.00191849
0.00186895
0.00183755
0.0017841
0.00177547
0.00185691
0.00297725
0.0101157
0.0142906
0.00420935
0.00255666
0.00236645
0.00228975
0.0022532
0.00219873
0.00215648
0.00210871
0.00206354
0.00202131
0.00197406
0.00193712
0.00188731
0.00185566
0.00180194
0.00179307
0.00187431
0.00299604
0.0101482
0.0143304
0.00423046
0.00257768
0.00238766
0.00231098
0.00227404
0.00221942
0.00217679
0.00212881
0.00208329
0.00204082
0.00199326
0.00195606
0.00190598
0.00187406
0.00182006
0.00181094
0.00189198
0.0030151
0.0101811
0.0143704
0.00425163
0.00259895
0.00240913
0.0023325
0.00229517
0.00224041
0.0021974
0.00214922
0.00210335
0.00206064
0.00201277
0.0019753
0.00192493
0.00189275
0.00183846
0.00182906
0.00190989
0.00303436
0.0102142
0.0144104
0.004273
0.0026205
0.00243088
0.0023543
0.00231659
0.0022617
0.00221831
0.00216994
0.00212372
0.00208076
0.00203256
0.00199482
0.00194416
0.00191169
0.00185711
0.00184742
0.00192806
0.00305381