/*--------------------------------*- C++ -*----------------------------------*\
  =========                 |
  \\      /  F ield         | OpenFOAM: The Open Source CFD Toolbox
   \\    /   O peration     | Website:  https://openfoam.org
    \\  /    A nd           | Version:  8
     \\/     M anipulation  |
\*---------------------------------------------------------------------------*/
FoamFile
{
    version     2.0;
    format      ascii;
    class       volScalarField;
    location    "200";
    object      nut;
}
// * * * * * * * * * * * * * * * * * * * * * * * * * * * * * * * * * * * * * //

dimensions      [0 2 -1 0 0 0 0];

internalField   nonuniform List<scalar> 
8400
(
0.000314916
0.000313489
0.000312081
0.000310685
0.000309295
0.000307904
0.000306507
0.000305101
0.000303683
0.00030225
0.000300805
0.000299345
0.000297873
0.000296389
0.000294896
0.000293394
0.000291886
0.000290373
0.000288857
0.000287341
0.000285824
0.00028431
0.000282801
0.000281297
0.000279802
0.000278316
0.000276843
0.000275383
0.000273939
0.000272513
0.000271106
0.000269719
0.000268356
0.000267018
0.000265706
0.000264424
0.000263173
0.000261955
0.000260773
0.000259629
0.000258526
0.000257468
0.000256458
0.000255502
0.000254606
0.00025378
0.000253035
0.000252391
0.00025187
0.000251508
8.86467e-05
8.86089e-05
8.85772e-05
8.85538e-05
8.85405e-05
8.8539e-05
8.85504e-05
8.8576e-05
8.86167e-05
8.86734e-05
8.87468e-05
8.88376e-05
8.89462e-05
8.9073e-05
8.92185e-05
8.93831e-05
8.95669e-05
8.97703e-05
8.99932e-05
9.02359e-05
9.04984e-05
9.07805e-05
9.10821e-05
9.14034e-05
9.1744e-05
9.21039e-05
9.24828e-05
9.28804e-05
9.32963e-05
9.373e-05
9.41811e-05
9.46488e-05
9.51328e-05
9.56323e-05
9.61469e-05
9.66757e-05
9.72181e-05
9.77735e-05
9.83409e-05
9.89195e-05
9.95085e-05
0.000100107
0.000100714
0.000101328
0.000101948
0.000102573
0.0001032
0.000103828
0.000104454
0.000105074
9.67185e-05
9.67923e-05
9.68676e-05
9.69466e-05
9.70315e-05
9.71247e-05
9.72283e-05
9.73439e-05
9.74728e-05
9.76159e-05
9.77741e-05
9.79478e-05
9.81376e-05
9.83437e-05
9.85661e-05
9.88049e-05
9.90602e-05
9.93318e-05
9.96196e-05
9.99233e-05
0.000100242
0.000100577
0.000100926
0.00010129
0.000101667
0.000102058
0.000102462
0.000102879
0.000103307
0.000103746
0.000104195
0.000104654
0.000105122
0.000105598
0.00010608
0.00010657
0.000107064
0.000107564
0.000108067
0.000108574
0.000109082
0.000109591
0.0001101
0.000110607
0.000111112
0.000111613
0.000112106
0.00011259
0.000113062
0.000113516
0.000106851
0.000107065
0.000107277
0.000107486
0.000107693
0.000107901
0.000108108
0.000108317
0.000108529
0.000108744
0.000108963
0.000109186
0.000109416
0.000109651
0.000109893
0.000110141
0.000110397
0.00011066
0.00011093
0.000111208
0.000111494
0.000111786
0.000112087
0.000112394
0.000112708
0.00011303
0.000113358
0.000113693
0.000114035
0.000114382
0.000114735
0.000115093
0.000115456
0.000115824
0.000116196
0.000116572
0.000116952
0.000117335
0.000117721
0.00011811
0.000118502
0.000118895
0.000119291
0.000119688
0.000120087
0.000120487
0.000120888
0.00012129
0.000121693
0.000122095
0.000106714
0.000107122
0.000107525
0.00010792
0.000108305
0.000108679
0.000109041
0.000109391
0.00010973
0.000110059
0.00011038
0.000110692
0.000110996
0.000111295
0.000111589
0.000111879
0.000112165
0.000112449
0.000112731
0.000113011
0.00011329
0.000113568
0.000113847
0.000114126
0.000114405
0.000114686
0.000114968
0.000115252
0.000115537
0.000115825
0.000116115
0.000116408
0.000116703
0.000117002
0.000117304
0.00011761
0.00011792
0.000118234
0.000118552
0.000118876
0.000119205
0.00011954
0.000119881
0.00012023
0.000120587
0.000120953
0.00012133
0.000121719
0.000122123
0.000122545
9.75582e-05
9.81592e-05
9.87593e-05
9.93488e-05
9.99211e-05
0.000100473
0.000101001
0.000101507
0.000101989
0.000102449
0.000102888
0.000103308
0.00010371
0.000104096
0.000104466
0.000104823
0.000105167
0.0001055
0.000105824
0.000106138
0.000106445
0.000106745
0.000107039
0.000107328
0.000107613
0.000107896
0.000108176
0.000108454
0.000108733
0.000109011
0.000109291
0.000109572
0.000109857
0.000110145
0.000110437
0.000110735
0.000111039
0.000111349
0.000111668
0.000111995
0.000112332
0.000112679
0.000113038
0.000113411
0.000113798
0.000114201
0.000114624
0.000115069
0.000115539
0.000116039
8.26627e-05
8.33659e-05
8.40736e-05
8.4772e-05
8.54521e-05
8.61084e-05
8.67379e-05
8.73396e-05
8.79135e-05
8.84606e-05
8.89819e-05
8.94787e-05
8.99529e-05
9.04059e-05
9.08392e-05
9.12546e-05
9.16534e-05
9.20371e-05
9.24073e-05
9.27653e-05
9.31126e-05
9.34504e-05
9.37803e-05
9.41033e-05
9.44209e-05
9.47345e-05
9.50453e-05
9.53546e-05
9.56637e-05
9.59739e-05
9.62863e-05
9.66024e-05
9.69233e-05
9.72504e-05
9.75848e-05
9.79278e-05
9.82805e-05
9.8644e-05
9.90195e-05
9.9408e-05
9.98108e-05
0.000100229
0.000100664
0.000101117
0.00010159
0.000102086
0.000102606
0.000103155
0.000103735
0.000104352
6.73406e-05
6.79113e-05
6.85024e-05
6.90975e-05
6.96865e-05
7.02631e-05
7.08238e-05
7.1367e-05
7.18917e-05
7.2398e-05
7.28862e-05
7.33566e-05
7.38103e-05
7.42479e-05
7.46705e-05
7.5079e-05
7.54747e-05
7.58587e-05
7.6232e-05
7.6596e-05
7.69519e-05
7.7301e-05
7.76445e-05
7.79838e-05
7.83202e-05
7.86551e-05
7.89899e-05
7.93261e-05
7.9665e-05
8.0008e-05
8.03566e-05
8.07121e-05
8.10762e-05
8.14501e-05
8.18351e-05
8.22328e-05
8.26442e-05
8.30707e-05
8.35135e-05
8.39735e-05
8.44521e-05
8.49503e-05
8.54693e-05
8.60104e-05
8.65751e-05
8.7165e-05
8.77826e-05
8.84307e-05
8.91128e-05
8.98336e-05
5.7649e-05
5.78036e-05
5.799e-05
5.82016e-05
5.84319e-05
5.86763e-05
5.89306e-05
5.9192e-05
5.94582e-05
5.97275e-05
5.99982e-05
6.02696e-05
6.05407e-05
6.08109e-05
6.10798e-05
6.13474e-05
6.16136e-05
6.18784e-05
6.21422e-05
6.24053e-05
6.26683e-05
6.29318e-05
6.31963e-05
6.34627e-05
6.37319e-05
6.40048e-05
6.42823e-05
6.45655e-05
6.48554e-05
6.51532e-05
6.54601e-05
6.57772e-05
6.61057e-05
6.6447e-05
6.68022e-05
6.71726e-05
6.75595e-05
6.7964e-05
6.83872e-05
6.88303e-05
6.92944e-05
6.97807e-05
7.02901e-05
7.08238e-05
7.13831e-05
7.19694e-05
7.25843e-05
7.32303e-05
7.39103e-05
7.46283e-05
5.61511e-05
5.58767e-05
5.56309e-05
5.54215e-05
5.52469e-05
5.51038e-05
5.4989e-05
5.4899e-05
5.48315e-05
5.47842e-05
5.47552e-05
5.47424e-05
5.47445e-05
5.47599e-05
5.47872e-05
5.48253e-05
5.48731e-05
5.49297e-05
5.49943e-05
5.50664e-05
5.51454e-05
5.5231e-05
5.5323e-05
5.54211e-05
5.55255e-05
5.56363e-05
5.57537e-05
5.58779e-05
5.60093e-05
5.61484e-05
5.62955e-05
5.64513e-05
5.66164e-05
5.67917e-05
5.69779e-05
5.7176e-05
5.73869e-05
5.76116e-05
5.78514e-05
5.81069e-05
5.83794e-05
5.86703e-05
5.89808e-05
5.93121e-05
5.96651e-05
6.00415e-05
6.04427e-05
6.08697e-05
6.13249e-05
6.1811e-05
5.87618e-05
5.83669e-05
5.79955e-05
5.76499e-05
5.73304e-05
5.70333e-05
5.67559e-05
5.6496e-05
5.62537e-05
5.60283e-05
5.58192e-05
5.56263e-05
5.54495e-05
5.52883e-05
5.51419e-05
5.50102e-05
5.48922e-05
5.4787e-05
5.46935e-05
5.4611e-05
5.45389e-05
5.4476e-05
5.44219e-05
5.43758e-05
5.43373e-05
5.4306e-05
5.42815e-05
5.42631e-05
5.42503e-05
5.42424e-05
5.42389e-05
5.42394e-05
5.42438e-05
5.42518e-05
5.42634e-05
5.42786e-05
5.42974e-05
5.432e-05
5.43466e-05
5.43778e-05
5.44143e-05
5.44557e-05
5.45044e-05
5.45614e-05
5.46272e-05
5.4703e-05
5.47902e-05
5.48894e-05
5.50012e-05
5.51273e-05
6.07833e-05
6.05138e-05
6.02764e-05
6.00471e-05
5.98261e-05
5.96104e-05
5.94042e-05
5.91993e-05
5.89959e-05
5.87964e-05
5.85993e-05
5.8405e-05
5.82151e-05
5.80307e-05
5.78523e-05
5.76809e-05
5.75163e-05
5.73574e-05
5.72046e-05
5.70577e-05
5.6916e-05
5.67795e-05
5.66485e-05
5.65232e-05
5.64044e-05
5.62933e-05
5.61911e-05
5.60976e-05
5.60112e-05
5.59306e-05
5.58548e-05
5.57838e-05
5.57172e-05
5.56545e-05
5.55949e-05
5.55375e-05
5.54822e-05
5.54287e-05
5.53746e-05
5.53184e-05
5.52588e-05
5.51997e-05
5.51336e-05
5.50694e-05
5.50044e-05
5.49395e-05
5.48737e-05
5.48099e-05
5.47488e-05
5.46973e-05
6.13709e-05
6.12282e-05
6.10941e-05
6.09648e-05
6.08403e-05
6.0719e-05
6.05993e-05
6.04804e-05
6.03622e-05
6.02455e-05
6.01297e-05
6.00143e-05
5.98999e-05
5.97868e-05
5.96748e-05
5.95643e-05
5.9455e-05
5.93467e-05
5.92393e-05
5.91322e-05
5.90251e-05
5.89182e-05
5.88117e-05
5.87056e-05
5.86001e-05
5.84958e-05
5.83938e-05
5.82947e-05
5.81984e-05
5.81043e-05
5.8012e-05
5.79214e-05
5.78323e-05
5.77451e-05
5.76604e-05
5.75783e-05
5.74991e-05
5.74224e-05
5.73465e-05
5.72743e-05
5.72004e-05
5.71262e-05
5.70525e-05
5.69788e-05
5.6904e-05
5.68295e-05
5.67527e-05
5.66702e-05
5.65769e-05
5.64665e-05
6.1431e-05
6.13565e-05
6.12828e-05
6.121e-05
6.11369e-05
6.10641e-05
6.09914e-05
6.09188e-05
6.08463e-05
6.07738e-05
6.07012e-05
6.06286e-05
6.05561e-05
6.04838e-05
6.04116e-05
6.03396e-05
6.02678e-05
6.01963e-05
6.01249e-05
6.00536e-05
5.99823e-05
5.99111e-05
5.98399e-05
5.97687e-05
5.96978e-05
5.96272e-05
5.95573e-05
5.94879e-05
5.94191e-05
5.93508e-05
5.9283e-05
5.92156e-05
5.91486e-05
5.9082e-05
5.90158e-05
5.89499e-05
5.88848e-05
5.88202e-05
5.87561e-05
5.86918e-05
5.86284e-05
5.85638e-05
5.84993e-05
5.84344e-05
5.83687e-05
5.83021e-05
5.82335e-05
5.81619e-05
5.80856e-05
5.80035e-05
6.14544e-05
6.14057e-05
6.13565e-05
6.13073e-05
6.12577e-05
6.12081e-05
6.11585e-05
6.11085e-05
6.10584e-05
6.10082e-05
6.0958e-05
6.09078e-05
6.08576e-05
6.08073e-05
6.0757e-05
6.07067e-05
6.06565e-05
6.06063e-05
6.05561e-05
6.0506e-05
6.04558e-05
6.04057e-05
6.03555e-05
6.03053e-05
6.02552e-05
6.02051e-05
6.01553e-05
6.01056e-05
6.00561e-05
6.00067e-05
5.99575e-05
5.99083e-05
5.98592e-05
5.98102e-05
5.97612e-05
5.97122e-05
5.96634e-05
5.96144e-05
5.95659e-05
5.95169e-05
5.9468e-05
5.94186e-05
5.93689e-05
5.93186e-05
5.92674e-05
5.9215e-05
5.91609e-05
5.91049e-05
5.90456e-05
5.89835e-05
6.14643e-05
6.14274e-05
6.13905e-05
6.13538e-05
6.13171e-05
6.12805e-05
6.1244e-05
6.12074e-05
6.11709e-05
6.11344e-05
6.10978e-05
6.10613e-05
6.10247e-05
6.09881e-05
6.09515e-05
6.09149e-05
6.08783e-05
6.08416e-05
6.08049e-05
6.07681e-05
6.07313e-05
6.06944e-05
6.06575e-05
6.06206e-05
6.05836e-05
6.05466e-05
6.05096e-05
6.04727e-05
6.04358e-05
6.03989e-05
6.0362e-05
6.0325e-05
6.0288e-05
6.02509e-05
6.02135e-05
6.01761e-05
6.01387e-05
6.0101e-05
6.00633e-05
6.00255e-05
5.99875e-05
5.99492e-05
5.99106e-05
5.98715e-05
5.98317e-05
5.9791e-05
5.97492e-05
5.97065e-05
5.96638e-05
5.9621e-05
6.14752e-05
6.14493e-05
6.14232e-05
6.13968e-05
6.13701e-05
6.13433e-05
6.13162e-05
6.1289e-05
6.12617e-05
6.12341e-05
6.12065e-05
6.11788e-05
6.11509e-05
6.11229e-05
6.10948e-05
6.10666e-05
6.10382e-05
6.10098e-05
6.09812e-05
6.09526e-05
6.09238e-05
6.08949e-05
6.08659e-05
6.08368e-05
6.08076e-05
6.07784e-05
6.07492e-05
6.07199e-05
6.06907e-05
6.06613e-05
6.06319e-05
6.06024e-05
6.05728e-05
6.05429e-05
6.0513e-05
6.04829e-05
6.04526e-05
6.04225e-05
6.0392e-05
6.03616e-05
6.03309e-05
6.03e-05
6.02688e-05
6.0237e-05
6.02048e-05
6.01724e-05
6.01396e-05
6.01069e-05
6.00726e-05
6.0037e-05
6.1475e-05
6.14496e-05
6.14246e-05
6.14e-05
6.13758e-05
6.13519e-05
6.13284e-05
6.13052e-05
6.12822e-05
6.12594e-05
6.12368e-05
6.12144e-05
6.11921e-05
6.11699e-05
6.11478e-05
6.11257e-05
6.11037e-05
6.10817e-05
6.10597e-05
6.10377e-05
6.10158e-05
6.09938e-05
6.0972e-05
6.09501e-05
6.09284e-05
6.09067e-05
6.08851e-05
6.08636e-05
6.08423e-05
6.0821e-05
6.07998e-05
6.07786e-05
6.07574e-05
6.07362e-05
6.0715e-05
6.06936e-05
6.06721e-05
6.06503e-05
6.06282e-05
6.06052e-05
6.05815e-05
6.05566e-05
6.05304e-05
6.05048e-05
6.04792e-05
6.0453e-05
6.04263e-05
6.0399e-05
6.03711e-05
6.03423e-05
6.14852e-05
6.14776e-05
6.14727e-05
6.14711e-05
6.14725e-05
6.14764e-05
6.14821e-05
6.14892e-05
6.14973e-05
6.15063e-05
6.15158e-05
6.15257e-05
6.15359e-05
6.15463e-05
6.15568e-05
6.15673e-05
6.15778e-05
6.15882e-05
6.15986e-05
6.16089e-05
6.16192e-05
6.16295e-05
6.16398e-05
6.16501e-05
6.16606e-05
6.16714e-05
6.16824e-05
6.16937e-05
6.17055e-05
6.17178e-05
6.17304e-05
6.17434e-05
6.17565e-05
6.17696e-05
6.17819e-05
6.17929e-05
6.18011e-05
6.18042e-05
6.17982e-05
6.17724e-05
6.17673e-05
6.17614e-05
6.17552e-05
6.17474e-05
6.17387e-05
6.17289e-05
6.17179e-05
6.17057e-05
6.16917e-05
6.16754e-05
6.2282e-05
6.30962e-05
6.39181e-05
6.47469e-05
6.55834e-05
6.6428e-05
6.72808e-05
6.81419e-05
6.90115e-05
6.98896e-05
7.07763e-05
7.16716e-05
7.25756e-05
7.34884e-05
7.441e-05
7.53405e-05
7.62798e-05
7.72282e-05
7.81856e-05
7.91521e-05
8.01278e-05
8.11127e-05
8.21069e-05
8.31105e-05
8.41236e-05
8.51462e-05
8.61783e-05
8.72201e-05
8.82715e-05
8.93325e-05
9.04031e-05
9.14835e-05
9.25735e-05
9.36733e-05
9.47831e-05
9.59027e-05
9.70325e-05
9.81727e-05
9.9323e-05
0.000100484
0.000101587
0.00010265
0.000103663
0.000104616
0.000105502
0.000106312
0.000107041
0.000107683
0.000108232
0.000108699
0.000272578
0.000269222
0.000266007
0.000262921
0.00025995
0.000257076
0.000254284
0.000251568
0.000248924
0.00024635
0.000243843
0.0002414
0.000239021
0.000236703
0.000234446
0.000232246
0.000230102
0.000228012
0.000225973
0.000223983
0.000222041
0.000220144
0.000218292
0.000216484
0.000214719
0.000212996
0.000211314
0.000209672
0.000208068
0.000206502
0.000204972
0.000203477
0.000202016
0.000200589
0.000199194
0.000197831
0.0001965
0.000195199
0.000193929
0.000192683
0.000191457
0.000190251
0.000189063
0.000187889
0.000186729
0.000185576
0.000184426
0.000183266
0.000182078
0.000180818
0.000270627
0.000264433
0.000258517
0.000252854
0.000247437
0.000242257
0.000237308
0.000232574
0.000228042
0.000223699
0.000219533
0.000215537
0.000211699
0.000208011
0.000204466
0.000201053
0.000197766
0.000194596
0.000191537
0.000188581
0.000185724
0.00018296
0.000180287
0.000177701
0.000175196
0.000172771
0.00017042
0.000168141
0.000165928
0.000163779
0.000161691
0.00015966
0.000157684
0.000155761
0.000153886
0.000152058
0.000150274
0.000148531
0.000146825
0.000145162
0.00014354
0.000141959
0.000140418
0.000138913
0.000137443
0.000136008
0.000134606
0.00013324
0.000131911
0.000130607
0.000270618
0.000264403
0.000258446
0.000252745
0.000247288
0.000242061
0.000237051
0.000232244
0.000227629
0.000223193
0.000218928
0.000214823
0.000210871
0.000207064
0.000203393
0.000199852
0.000196432
0.000193128
0.000189932
0.000186839
0.000183845
0.000180944
0.000178134
0.00017541
0.000172769
0.000170207
0.000167722
0.000165308
0.000162964
0.000160686
0.00015847
0.000156315
0.000154219
0.000152179
0.000150193
0.00014826
0.000146377
0.000144544
0.000142756
0.000141015
0.000139316
0.000137661
0.000136046
0.000134473
0.000132938
0.00013144
0.000129975
0.000128544
0.000127156
0.000125835
0.000270618
0.000264447
0.000258543
0.000252894
0.000247484
0.000242297
0.000237319
0.000232538
0.000227942
0.00022352
0.000219263
0.000215163
0.000211212
0.000207403
0.000203728
0.000200179
0.000196752
0.000193437
0.000190231
0.000187126
0.00018412
0.000181207
0.000178385
0.000175648
0.000172994
0.000170419
0.00016792
0.000165492
0.000163133
0.00016084
0.000158611
0.000156442
0.000154333
0.000152279
0.000150281
0.000148336
0.000146441
0.000144595
0.000142795
0.000141041
0.00013933
0.000137662
0.000136036
0.00013445
0.000132906
0.000131402
0.000129934
0.000128495
0.000127082
0.000125723
0.000270618
0.000264447
0.000258541
0.000252885
0.000247465
0.000242269
0.000237282
0.000232493
0.000227891
0.000223464
0.000219205
0.000215103
0.000211152
0.000207344
0.00020367
0.000200123
0.000196698
0.000193386
0.000190183
0.000187083
0.000184081
0.000181174
0.000178356
0.000175625
0.000172977
0.000170407
0.000167912
0.000165488
0.000163133
0.000160844
0.000158618
0.000156453
0.000154346
0.000152297
0.000150303
0.00014836
0.000146469
0.000144625
0.000142829
0.000141076
0.000139368
0.000137701
0.000136075
0.000134488
0.000132941
0.000131434
0.000129968
0.000128538
0.000127131
0.000125761
0.000270618
0.00026445
0.00025855
0.000252903
0.000247495
0.000242311
0.000237337
0.000232561
0.00022797
0.000223554
0.000219304
0.000215211
0.000211266
0.000207462
0.000203792
0.000200248
0.000196825
0.000193514
0.000190312
0.000187212
0.000184211
0.000181304
0.000178487
0.000175756
0.000173106
0.000170535
0.000168038
0.000165612
0.000163254
0.000160962
0.000158733
0.000156566
0.000154457
0.000152406
0.000150409
0.000148464
0.00014657
0.000144723
0.000142923
0.000141167
0.000139455
0.000137784
0.000136155
0.000134565
0.000133013
0.000131497
0.00013002
0.000128583
0.000127176
0.0001258
0.000270618
0.00026445
0.000258551
0.000252906
0.000247498
0.000242313
0.000237337
0.000232559
0.000227965
0.000223546
0.000219293
0.000215197
0.000211249
0.000207442
0.000203768
0.000200221
0.000196795
0.000193482
0.000190279
0.000187178
0.000184177
0.00018127
0.000178454
0.000175723
0.000173074
0.000170503
0.000168006
0.00016558
0.000163223
0.000160931
0.000158704
0.000156537
0.00015443
0.00015238
0.000150384
0.00014844
0.000146546
0.0001447
0.0001429
0.000141144
0.000139432
0.000137761
0.000136131
0.000134542
0.000132991
0.000131475
0.000129995
0.000128553
0.000127144
0.000125767
0.000270618
0.00026445
0.000258553
0.000252909
0.000247503
0.00024232
0.000237348
0.000232572
0.000227982
0.000223566
0.000219316
0.000215223
0.000211278
0.000207474
0.000203802
0.000200257
0.000196833
0.000193522
0.00019032
0.000187221
0.000184222
0.000181317
0.000178501
0.000175772
0.000173123
0.000170552
0.000168055
0.000165628
0.00016327
0.000160978
0.00015875
0.000156583
0.000154475
0.000152423
0.000150426
0.00014848
0.000146584
0.000144736
0.000142933
0.000141175
0.00013946
0.000137786
0.000136153
0.000134559
0.000133005
0.000131487
0.000130002
0.000128553
0.000127138
0.000125755
0.000270618
0.000264451
0.000258554
0.00025291
0.000247505
0.000242323
0.00023735
0.000232574
0.000227983
0.000223567
0.000219316
0.000215222
0.000211276
0.00020747
0.000203797
0.00020025
0.000196824
0.000193512
0.000190309
0.00018721
0.00018421
0.000181304
0.000178488
0.000175758
0.000173108
0.000170536
0.000168038
0.000165611
0.000163253
0.000160961
0.000158733
0.000156566
0.000154458
0.000152406
0.000150407
0.000148461
0.000146563
0.000144713
0.00014291
0.000141151
0.000139435
0.000137761
0.000136126
0.000134531
0.000132973
0.000131453
0.000129967
0.000128515
0.000127096
0.000125709
0.000270618
0.000264451
0.000258555
0.000252912
0.000247507
0.000242325
0.000237352
0.000232576
0.000227985
0.00022357
0.00021932
0.000215226
0.00021128
0.000207475
0.000203803
0.000200257
0.000196831
0.00019352
0.000190318
0.000187219
0.00018422
0.000181315
0.000178499
0.000175769
0.000173119
0.000170547
0.000168049
0.000165622
0.000163264
0.000160973
0.000158744
0.000156577
0.000154469
0.000152416
0.000150416
0.000148467
0.000146568
0.000144716
0.00014291
0.000141149
0.000139432
0.000137756
0.00013612
0.000134522
0.000132961
0.000131437
0.000129948
0.000128491
0.000127067
0.000125674
0.000270618
0.000264452
0.000258556
0.000252913
0.000247508
0.000242325
0.000237352
0.000232575
0.000227984
0.000223569
0.000219318
0.000215225
0.000211279
0.000207474
0.000203802
0.000200256
0.000196831
0.00019352
0.000190318
0.000187219
0.00018422
0.000181315
0.000178499
0.000175767
0.000173117
0.000170545
0.000168047
0.00016562
0.000163262
0.000160971
0.000158743
0.000156575
0.000154465
0.000152411
0.00015041
0.000148459
0.000146558
0.000144704
0.000142897
0.000141135
0.000139416
0.000137739
0.000136101
0.000134501
0.000132938
0.00013141
0.000129916
0.000128455
0.000127027
0.000125629
0.000270618
0.000264453
0.000258557
0.000252914
0.000247508
0.000242324
0.00023735
0.000232572
0.00022798
0.000223564
0.000219313
0.000215219
0.000211273
0.000207467
0.000203795
0.000200249
0.000196823
0.000193512
0.000190309
0.00018721
0.00018421
0.000181303
0.000178486
0.000175754
0.000173103
0.00017053
0.000168032
0.000165605
0.000163248
0.000160956
0.000158728
0.00015656
0.000154449
0.000152394
0.000150391
0.000148439
0.000146537
0.000144682
0.000142875
0.000141112
0.000139392
0.000137713
0.000136074
0.000134472
0.000132906
0.000131375
0.000129878
0.000128414
0.000126981
0.000125579
0.000270618
0.000264453
0.000258557
0.000252914
0.000247507
0.000242322
0.000237347
0.000232569
0.000227977
0.000223561
0.000219311
0.000215218
0.000211274
0.00020747
0.0002038
0.000200256
0.000196832
0.000193521
0.00019032
0.000187221
0.000184221
0.000181314
0.000178497
0.000175764
0.000173114
0.000170541
0.000168043
0.000165617
0.000163259
0.000160968
0.000158739
0.00015657
0.000154458
0.000152401
0.000150396
0.000148443
0.000146539
0.000144683
0.000142874
0.000141109
0.000139387
0.000137706
0.000136063
0.000134458
0.000132888
0.000131353
0.000129851
0.000128382
0.000126944
0.000125537
0.000270618
0.000264453
0.000258557
0.000252911
0.000247502
0.000242314
0.000237336
0.000232555
0.000227959
0.00022354
0.000219287
0.000215192
0.000211245
0.000207439
0.000203767
0.000200221
0.000196794
0.000193482
0.000190278
0.000187177
0.000184175
0.000181266
0.000178447
0.000175713
0.000173062
0.000170489
0.000167991
0.000165565
0.000163207
0.000160916
0.000158687
0.000156517
0.000154405
0.000152348
0.000150344
0.00014839
0.000146487
0.000144631
0.000142822
0.000141058
0.000139335
0.000137654
0.00013601
0.000134403
0.000132832
0.000131295
0.000129791
0.000128319
0.000126878
0.000125467
0.000270619
0.000264453
0.000258555
0.000252909
0.000247499
0.000242312
0.000237335
0.000232556
0.000227964
0.000223548
0.000219299
0.000215208
0.000211265
0.000207462
0.000203793
0.000200249
0.000196825
0.000193513
0.00019031
0.000187209
0.000184206
0.000181296
0.000178476
0.000175741
0.000173089
0.000170515
0.000168016
0.000165589
0.00016323
0.000160936
0.000158705
0.000156534
0.00015442
0.00015236
0.000150354
0.000148399
0.000146493
0.000144636
0.000142824
0.000141056
0.000139331
0.000137645
0.000135997
0.000134386
0.00013281
0.000131268
0.000129759
0.000128282
0.000126835
0.000125417
0.000270619
0.00026445
0.000258545
0.000252889
0.000247467
0.000242268
0.000237278
0.000232488
0.000227885
0.000223459
0.000219202
0.000215103
0.000211154
0.000207347
0.000203674
0.000200127
0.000196699
0.000193386
0.00019018
0.000187077
0.000184073
0.000181163
0.000178343
0.000175609
0.000172957
0.000170384
0.000167887
0.000165461
0.000163103
0.000160811
0.000158581
0.000156412
0.000154299
0.000152242
0.000150238
0.000148286
0.000146382
0.000144527
0.000142716
0.000140949
0.000139224
0.000137539
0.000135891
0.00013428
0.000132704
0.000131163
0.000129653
0.000128175
0.000126728
0.000125308
0.000270619
0.000264449
0.000258546
0.000252896
0.000247484
0.000242294
0.000237314
0.000232532
0.000227936
0.000223516
0.000219262
0.000215166
0.000211218
0.00020741
0.000203735
0.000200186
0.000196755
0.000193436
0.000190226
0.000187118
0.000184108
0.000181192
0.000178366
0.000175627
0.00017297
0.000170392
0.000167889
0.000165458
0.000163095
0.000160798
0.000158564
0.000156389
0.000154273
0.000152213
0.000150206
0.000148251
0.000146344
0.000144485
0.000142671
0.000140901
0.000139172
0.000137484
0.000135834
0.000134221
0.000132644
0.000131102
0.000129594
0.000128117
0.000126672
0.000125259
0.000270619
0.000264404
0.000258447
0.000252745
0.000247285
0.000242056
0.000237044
0.000232237
0.000227623
0.000223191
0.00021893
0.00021483
0.000210882
0.000207076
0.000203405
0.000199861
0.000196438
0.000193128
0.000189927
0.00018683
0.000183831
0.000180928
0.000178115
0.00017539
0.000172747
0.000170184
0.000167696
0.00016528
0.000162933
0.000160652
0.000158435
0.000156279
0.000154181
0.00015214
0.000150152
0.000148217
0.000146331
0.000144494
0.000142703
0.000140956
0.000139253
0.000137593
0.000135974
0.000134396
0.000132859
0.000131361
0.000129904
0.000128489
0.000127117
0.000125796
0.000270627
0.000264433
0.000258517
0.000252852
0.000247433
0.000242251
0.0002373
0.000232567
0.000228037
0.000223699
0.000219539
0.000215549
0.000211716
0.000208032
0.000204486
0.000201072
0.000197781
0.000194607
0.000191543
0.000188585
0.000185727
0.000182965
0.000180295
0.000177713
0.000175214
0.000172795
0.000170451
0.00016818
0.000165977
0.000163841
0.000161769
0.000159758
0.000157807
0.000155913
0.000154075
0.00015229
0.000150557
0.000148875
0.000147242
0.000145659
0.000144125
0.00014264
0.000141205
0.000139822
0.000138492
0.000137219
0.000136006
0.000134865
0.000133811
0.000132879
0.000272579
0.000269223
0.000266007
0.00026292
0.000259947
0.000257072
0.000254279
0.000251563
0.000248921
0.000246349
0.000243845
0.000241407
0.00023903
0.000236714
0.000234456
0.000232253
0.000230104
0.000228007
0.000225961
0.000223965
0.000222017
0.000220117
0.000218261
0.000216451
0.000214682
0.000212955
0.000211267
0.000209618
0.000208007
0.000206431
0.000204891
0.000203385
0.000201911
0.000200469
0.000199056
0.000197672
0.000196316
0.000194987
0.000193683
0.000192403
0.000191148
0.000189915
0.000188703
0.000187511
0.000186338
0.00018518
0.000184037
0.000182906
0.000181783
0.000180664
0.000128536
6.72578e-05
4.9705e-05
4.71413e-05
4.61168e-05
4.57756e-05
4.50999e-05
4.46683e-05
4.40829e-05
4.35859e-05
4.30763e-05
4.25232e-05
4.20866e-05
4.14737e-05
4.1113e-05
4.04287e-05
4.04043e-05
4.17239e-05
5.56112e-05
0.000107712
0.000128685
6.73992e-05
4.98727e-05
4.7319e-05
4.62974e-05
4.59542e-05
4.52793e-05
4.48466e-05
4.42619e-05
4.37636e-05
4.32531e-05
4.26981e-05
4.226e-05
4.16459e-05
4.12844e-05
4.06e-05
4.05749e-05
4.18966e-05
5.57898e-05
0.000107848
0.000128827
6.75354e-05
5.00396e-05
4.74974e-05
4.64789e-05
4.6134e-05
4.54601e-05
4.50261e-05
4.44417e-05
4.39414e-05
4.34298e-05
4.28731e-05
4.24344e-05
4.182e-05
4.14581e-05
4.07735e-05
4.07466e-05
4.20692e-05
5.59606e-05
0.000107964
0.000128975
6.76703e-05
5.02088e-05
4.76786e-05
4.66635e-05
4.63166e-05
4.56433e-05
4.52071e-05
4.46217e-05
4.41189e-05
4.36064e-05
4.30488e-05
4.26106e-05
4.19965e-05
4.1634e-05
4.09483e-05
4.09187e-05
4.22395e-05
5.61109e-05
0.000108086
0.000129123
6.78057e-05
5.03799e-05
4.78618e-05
4.68501e-05
4.65011e-05
4.58277e-05
4.53884e-05
4.48016e-05
4.42963e-05
4.37837e-05
4.32263e-05
4.27886e-05
4.21745e-05
4.18101e-05
4.11226e-05
4.10898e-05
4.24062e-05
5.62501e-05
0.000108211
0.000129272
6.79416e-05
5.05527e-05
4.80467e-05
4.70387e-05
4.66873e-05
4.60134e-05
4.55706e-05
4.49825e-05
4.44756e-05
4.39636e-05
4.34062e-05
4.29684e-05
4.23529e-05
4.19859e-05
4.12967e-05
4.12613e-05
4.2572e-05
5.63864e-05
0.000108341
0.000129421
6.80787e-05
5.07275e-05
4.82336e-05
4.72292e-05
4.68752e-05
4.62006e-05
4.57547e-05
4.51662e-05
4.46584e-05
4.41468e-05
4.35886e-05
4.31493e-05
4.25317e-05
4.21622e-05
4.14721e-05
4.1435e-05
4.27398e-05
5.65263e-05
0.000108474
0.00012957
6.82183e-05
5.09046e-05
4.84224e-05
4.74215e-05
4.70647e-05
4.63898e-05
4.59417e-05
4.53536e-05
4.48446e-05
4.43327e-05
4.37726e-05
4.33312e-05
4.27116e-05
4.23405e-05
4.16502e-05
4.16119e-05
4.29108e-05
5.66718e-05
0.000108608
0.000129719
6.83604e-05
5.10833e-05
4.86125e-05
4.76148e-05
4.72555e-05
4.65811e-05
4.61312e-05
4.55435e-05
4.5033e-05
4.45202e-05
4.39579e-05
4.35144e-05
4.28936e-05
4.25214e-05
4.18314e-05
4.17917e-05
4.30844e-05
5.68201e-05
0.000108741
0.000129871
6.85032e-05
5.12627e-05
4.88033e-05
4.78089e-05
4.74472e-05
4.67736e-05
4.63219e-05
4.57344e-05
4.52223e-05
4.47087e-05
4.41445e-05
4.36994e-05
4.30779e-05
4.27049e-05
4.2015e-05
4.19729e-05
4.32586e-05
5.69664e-05
0.000108872
0.000130024
6.86452e-05
5.14423e-05
4.89948e-05
4.80035e-05
4.76393e-05
4.69663e-05
4.65127e-05
4.59257e-05
4.54125e-05
4.48986e-05
4.43327e-05
4.38865e-05
4.32644e-05
4.28904e-05
4.21998e-05
4.21545e-05
4.34322e-05
5.7108e-05
0.000109003
0.000130177
6.87874e-05
5.16226e-05
4.91871e-05
4.81987e-05
4.78317e-05
4.71592e-05
4.67042e-05
4.61184e-05
4.56043e-05
4.50901e-05
4.45227e-05
4.40758e-05
4.3453e-05
4.30774e-05
4.23853e-05
4.23365e-05
4.36056e-05
5.72471e-05
0.000109139
0.000130332
6.89318e-05
5.18044e-05
4.93808e-05
4.8395e-05
4.80251e-05
4.73537e-05
4.68979e-05
4.63135e-05
4.57983e-05
4.52836e-05
4.47148e-05
4.42671e-05
4.36433e-05
4.32657e-05
4.25719e-05
4.25202e-05
4.37807e-05
5.73898e-05
0.000109282
0.000130489
6.90785e-05
5.19879e-05
4.95763e-05
4.85931e-05
4.82211e-05
4.75513e-05
4.70947e-05
4.65111e-05
4.59944e-05
4.54789e-05
4.49088e-05
4.44601e-05
4.38351e-05
4.34555e-05
4.27609e-05
4.27071e-05
4.39601e-05
5.75413e-05
0.000109428
0.000130649
6.92258e-05
5.21732e-05
4.97736e-05
4.8794e-05
4.84203e-05
4.77525e-05
4.72944e-05
4.67109e-05
4.61921e-05
4.56758e-05
4.51043e-05
4.46544e-05
4.40284e-05
4.36477e-05
4.29533e-05
4.28979e-05
4.4144e-05
5.77012e-05
0.000109575
0.000130812
6.93717e-05
5.23602e-05
4.99731e-05
4.89978e-05
4.86228e-05
4.79563e-05
4.74959e-05
4.69119e-05
4.63907e-05
4.58735e-05
4.53007e-05
4.485e-05
4.42237e-05
4.38429e-05
4.3149e-05
4.30916e-05
4.43307e-05
5.78633e-05
0.000109718
0.000130975
6.95162e-05
5.25493e-05
5.01747e-05
4.92042e-05
4.88274e-05
4.81617e-05
4.76984e-05
4.71135e-05
4.65899e-05
4.60717e-05
4.54981e-05
4.50472e-05
4.44214e-05
4.40405e-05
4.33464e-05
4.32858e-05
4.45168e-05
5.80207e-05
0.00010986
0.000131134
6.96621e-05
5.2741e-05
5.03786e-05
4.94127e-05
4.90336e-05
4.83679e-05
4.79014e-05
4.73155e-05
4.67897e-05
4.62711e-05
4.56973e-05
4.52467e-05
4.46213e-05
4.42393e-05
4.35438e-05
4.34793e-05
4.47011e-05
5.81706e-05
0.000110002
0.00013129
6.9813e-05
5.29358e-05
5.05848e-05
4.96229e-05
4.92408e-05
4.85749e-05
4.81052e-05
4.75188e-05
4.69913e-05
4.64729e-05
4.58992e-05
4.54486e-05
4.48226e-05
4.44383e-05
4.37408e-05
4.36725e-05
4.48846e-05
5.83169e-05
0.000110149
0.000131447
6.9971e-05
5.31337e-05
5.07933e-05
4.98348e-05
4.94494e-05
4.87833e-05
4.83109e-05
4.77246e-05
4.71959e-05
4.6678e-05
4.61039e-05
4.56524e-05
4.50247e-05
4.46377e-05
4.39386e-05
4.38674e-05
4.507e-05
5.84659e-05
0.000110303
0.000131607
7.01346e-05
5.33339e-05
5.10038e-05
5.00483e-05
4.96596e-05
4.8994e-05
4.85195e-05
4.79337e-05
4.74041e-05
4.68862e-05
4.63108e-05
4.58575e-05
4.52278e-05
4.48386e-05
4.4139e-05
4.40659e-05
4.52594e-05
5.86226e-05
0.000110462
0.000131774
7.03001e-05
5.35357e-05
5.12159e-05
5.02636e-05
4.98722e-05
4.92075e-05
4.87313e-05
4.81463e-05
4.76152e-05
4.70965e-05
4.65191e-05
4.60637e-05
4.54326e-05
4.50421e-05
4.43427e-05
4.42682e-05
4.54534e-05
5.87881e-05
0.000110623
0.000131945
7.0464e-05
5.37384e-05
5.14296e-05
5.04808e-05
5.00871e-05
4.94239e-05
4.8946e-05
4.83612e-05
4.78279e-05
4.73079e-05
4.67283e-05
4.62712e-05
4.56393e-05
4.52483e-05
4.45495e-05
4.44735e-05
4.56511e-05
5.89602e-05
0.000110784
0.000132117
7.06253e-05
5.39421e-05