/*--------------------------------*- C++ -*----------------------------------*\
  =========                 |
  \\      /  F ield         | OpenFOAM: The Open Source CFD Toolbox
   \\    /   O peration     | Website:  https://openfoam.org
    \\  /    A nd           | Version:  8
     \\/     M anipulation  |
\*---------------------------------------------------------------------------*/
FoamFile
{
    version     2.0;
    format      ascii;
    class       surfaceScalarField;
    location    "200";
    object      phi;
}
// * * * * * * * * * * * * * * * * * * * * * * * * * * * * * * * * * * * * * //

dimensions      [1 0 -1 0 0 0 0];

internalField   nonuniform List<scalar> 
16360
(
-4.67253
-0.0265001
-4.6465
-0.0260293
-4.62103
-0.0254675
-4.59629
-0.0247314
-4.57247
-0.0238225
-4.54969
-0.0227774
-4.52804
-0.0216404
-4.50758
-0.0204553
-4.48833
-0.0192579
-4.47026
-0.0180756
-4.45333
-0.0169287
-4.43751
-0.0158314
-4.42272
-0.0147934
-4.4089
-0.0138196
-4.39599
-0.0129131
-4.38392
-0.0120737
-4.37262
-0.0113005
-4.36203
-0.0105929
-4.35208
-0.00994888
-4.34271
-0.00936671
-4.33387
-0.00884354
-4.32549
-0.00837784
-4.31753
-0.00796849
-4.30992
-0.00761159
-4.30262
-0.00730482
-4.29557
-0.00704677
-4.28872
-0.00683595
-4.28204
-0.00667188
-4.27548
-0.00655429
-4.269
-0.00648308
-4.26254
-0.00645908
-4.25606
-0.00648326
-4.24951
-0.00655634
-4.24284
-0.00667958
-4.23599
-0.00685533
-4.22891
-0.00708738
-4.22154
-0.00738156
-4.2138
-0.00774608
-4.20561
-0.00819229
-4.19688
-0.00873613
-4.18749
-0.00939948
-4.17729
-0.0102121
-4.16607
-0.0112157
-4.1536
-0.0124715
-4.13953
-0.0140764
-4.12333
-0.0161878
-4.10431
-0.0190189
-4.08154
-0.0227653
-4.05379
-0.0277618
-0.0360148
-4.01779
-4.7274
-0.0503685
-4.70314
-0.0502842
-4.67917
-0.0494284
-4.65589
-0.0480082
-4.63351
-0.0461891
-4.61219
-0.0440934
-4.592
-0.0418259
-4.57298
-0.0394741
-4.55514
-0.0371091
-4.53843
-0.0347838
-4.52283
-0.0325373
-4.50828
-0.0303934
-4.49471
-0.02837
-4.48205
-0.0264752
-4.47025
-0.0247132
-4.45924
-0.0230843
-4.44895
-0.021587
-4.43932
-0.0202181
-4.4303
-0.0189722
-4.42182
-0.0178455
-4.41383
-0.0168337
-4.40628
-0.0159312
-4.39911
-0.0151335
-4.39228
-0.0144363
-4.38574
-0.0138355
-4.37945
-0.0133283
-4.37336
-0.0129121
-4.36743
-0.0125852
-4.36163
-0.0123461
-4.35591
-0.0121939
-4.35025
-0.0121285
-4.34459
-0.0121499
-4.3389
-0.0122589
-4.33314
-0.0124573
-4.32725
-0.012749
-4.32121
-0.01314
-4.31496
-0.0136393
-4.30845
-0.0142595
-4.30163
-0.015018
-4.29444
-0.015939
-4.28679
-0.0170548
-4.27859
-0.0184103
-4.26973
-0.0200681
-4.26007
-0.0221166
-4.24946
-0.0246878
-4.23766
-0.0279765
-4.22444
-0.0322361
-4.2094
-0.0377906
-4.19182
-0.0453152
-0.056261
-4.17155
-4.61152
-0.0776335
-4.58533
-0.0764715
-4.55996
-0.0747917
-4.53547
-0.0724964
-4.51199
-0.0696626
-4.48964
-0.0664399
-4.46848
-0.0629827
-4.44854
-0.059422
-4.42979
-0.0558626
-4.4122
-0.0523801
-4.39572
-0.0490284
-4.38028
-0.0458429
-4.36581
-0.042844
-4.35224
-0.0400421
-4.33951
-0.0374432
-4.32755
-0.0350449
-4.31629
-0.0328441
-4.30567
-0.0308344
-4.29564
-0.029009
-4.28612
-0.0273611
-4.27708
-0.0258816
-4.26845
-0.0245647
-4.26018
-0.0234034
-4.25222
-0.0223909
-4.24453
-0.0215223
-4.23706
-0.0207928
-4.22976
-0.0201987
-4.2226
-0.0197373
-4.21554
-0.0194065
-4.20853
-0.0192046
-4.20153
-0.0191314
-4.1945
-0.0191869
-4.1874
-0.0193721
-4.18018
-0.0196902
-4.17279
-0.0201473
-4.16519
-0.020752
-4.15731
-0.0215168
-4.14912
-0.0224595
-4.14054
-0.0236049
-4.1315
-0.0249853
-4.12192
-0.0266444
-4.11169
-0.0286412
-4.10071
-0.0310556
-4.08882
-0.0339983
-4.07588
-0.0376233
-4.06172
-0.0421369
-4.04617
-0.0477906
-4.02907
-0.0549024
-4.01033
-0.0640659
-0.0765792
-3.99
-4.49505
-0.101787
-4.4701
-0.101418
-4.44544
-0.0994477
-4.4216
-0.0963269
-4.39886
-0.0924038
-4.37733
-0.0879648
-4.35706
-0.0832469
-4.33805
-0.0784354
-4.32025
-0.0736658
-4.30361
-0.0690347
-4.28804
-0.0646042
-4.27347
-0.0604122
-4.25984
-0.0564822
-4.24706
-0.0528224
-4.23507
-0.0494351
-4.22379
-0.0463152
-4.21318
-0.0434568
-4.20316
-0.0408505
-4.19368
-0.0384855
-4.18469
-0.036351
-4.17614
-0.034437
-4.16798
-0.0327335
-4.16015
-0.0312307
-4.15262
-0.0299208
-4.14534
-0.0287965
-4.13827
-0.0278516
-4.13138
-0.0270814
-4.12463
-0.0264812
-4.11799
-0.0260477
-4.11142
-0.0257788
-4.10488
-0.0256728
-4.09834
-0.0257289
-4.09177
-0.025948
-4.08514
-0.0263335
-4.0784
-0.0268917
-4.07152
-0.0276318
-4.06447
-0.0285679
-4.05721
-0.02972
-4.0497
-0.0311156
-4.0419
-0.0327908
-4.03375
-0.034795
-4.0252
-0.0371938
-4.01618
-0.0400751
-4.00662
-0.043559
-3.99643
-0.047807
-3.98553
-0.0530265
-3.97385
-0.0594677
-3.9613
-0.0674514
-3.9479
-0.0774779
-0.0901729
-3.93431
-4.3036
-0.12913
-4.2774
-0.127614
-4.25223
-0.124612
-4.22822
-0.120334
-4.2055
-0.11512
-4.18413
-0.109334
-4.16409
-0.103282
-4.14534
-0.0971926
-4.12778
-0.0912244
-4.11134
-0.0854808
-4.09593
-0.0800266
-4.08145
-0.0748979
-4.06782
-0.0701102
-4.05497
-0.0656688
-4.04283
-0.0615696
-4.03134
-0.0578048
-4.02044
-0.0543613
-4.01006
-0.0512258
-4.00016
-0.0483864
-3.99068
-0.0458279
-3.98159
-0.0435366
-3.97282
-0.0415005
-3.96435
-0.0397079
-3.95612
-0.0381484
-3.94811
-0.0368134
-3.94026
-0.0356954
-3.93255
-0.0347878
-3.92494
-0.0340849
-3.91741
-0.0335827
-3.90991
-0.0332778
-3.90242
-0.0331673
-3.89491
-0.0332498
-3.88733
-0.0335263
-3.87967
-0.0339997
-3.87189
-0.0346754
-3.86395
-0.0355629
-3.85585
-0.0366767
-3.84753
-0.0380364
-3.83898
-0.0396684
-3.83017
-0.0416089
-3.82107
-0.0439071
-3.81163
-0.0466289
-3.80185
-0.0498621
-3.79169
-0.0537231
-3.78113
-0.058366
-3.77017
-0.063986
-3.75881
-0.070823
-3.7471
-0.079168
-3.73518
-0.0894039
-0.102124
-3.72323
-4.04484
-0.153205
-4.02008
-0.152373
-3.996
-0.14869
-3.97319
-0.143141
-3.95186
-0.136452
-3.93201
-0.129183
-3.91356
-0.121732
-3.89639
-0.114363
-3.88038
-0.107241
-3.8654
-0.100463
-3.85135
-0.0940805
-3.83813
-0.088118
-3.82566
-0.0825796
-3.81387
-0.0774624
-3.80268
-0.0727525
-3.79205
-0.068436
-3.78191
-0.0644957
-3.77222
-0.060914
-3.76293
-0.0576727
-3.754
-0.0547551
-3.7454
-0.0521453
-3.73708
-0.0498272
-3.729
-0.0477874
-3.72114
-0.0460144
-3.71346
-0.0444977
-3.70592
-0.043228
-3.69851
-0.0421976
-3.69119
-0.0414001
-3.68395
-0.0408297
-3.67675
-0.0404816
-3.66956
-0.0403523
-3.66238
-0.0404398
-3.65516
-0.040744
-3.64789
-0.0412666
-3.64055
-0.0420123
-3.63311
-0.0429897
-3.62558
-0.0442115
-3.61792
-0.0456947
-3.61012
-0.0474634
-3.60219
-0.0495504
-3.5941
-0.0519997
-3.58585
-0.0548724
-3.57746
-0.058249
-3.56895
-0.0622348
-3.56035
-0.0669661
-3.55172
-0.0726149
-3.54317
-0.0793856
-3.5348
-0.0875319
-3.52685
-0.0973653
-0.109233
-3.51974
-3.6939
-0.178716
-3.66961
-0.176667
-3.64693
-0.171367
-3.62605
-0.164021
-3.60693
-0.155563
-3.58943
-0.146692
-3.57331
-0.137852
-3.55837
-0.1293
-3.54444
-0.121174
-3.53137
-0.113538
-3.51904
-0.106415
-3.50736
-0.0998063
-3.49623
-0.0937012
-3.48561
-0.0880801
-3.47544
-0.0829227
-3.46566
-0.0782072
-3.45625
-0.0739101
-3.44715
-0.0700091
-3.43834
-0.0664836
-3.42979
-0.0633137
-3.42146
-0.0604799
-3.41332
-0.0579654
-3.40536
-0.0557554
-3.39755
-0.053836
-3.38985
-0.0521953
-3.38226
-0.0508233
-3.37474
-0.0497112
-3.36729
-0.0488509
-3.35989
-0.0482356
-3.35251
-0.0478597
-3.34515
-0.0477187
-3.33778
-0.0478096
-3.33039
-0.0481308
-3.32296
-0.0486833
-3.3155
-0.0494702
-3.30798
-0.0504976
-3.30042
-0.0517743
-3.2928
-0.0533138
-3.28513
-0.055135
-3.27742
-0.0572648
-3.26969
-0.0597397
-3.26196
-0.0626101
-3.25426
-0.0659451
-3.24666
-0.0698352
-3.23922
-0.0743971
-3.23206
-0.0797804
-3.22529
-0.0861631
-3.21908
-0.0937498
-3.21367
-0.10278
-0.11361
-3.20929
-3.22998
-0.200436
-3.20867
-0.197977
-3.18938
-0.190649
-3.1724
-0.180999
-3.15747
-0.170492
-3.1442
-0.159971
-3.13219
-0.149858
-3.12116
-0.140334
-3.11088
-0.131457
-3.10119
-0.123232
-3.09197
-0.115637
-3.08314
-0.108638
-3.07463
-0.102203
-3.06641
-0.0963007
-3.05843
-0.0909002
-3.05066
-0.0859699
-3.04308
-0.0814839
-3.03567
-0.0774164
-3.02841
-0.0737431
-3.02129
-0.0704415
-3.01428
-0.0674917
-3.00738
-0.0648752
-3.00057
-0.0625751
-2.99383
-0.0605768
-2.98717
-0.0588681
-2.98055
-0.057438
-2.97399
-0.0562763
-2.96747
-0.0553746
-2.96098
-0.0547254
-2.95452
-0.0543222
-2.94808
-0.0541598
-2.94165
-0.0542345
-2.93523
-0.0545442
-2.92882
-0.0550881
-2.92241
-0.0558673
-2.91601
-0.0568842
-2.90964
-0.0581437
-2.9033
-0.059654
-2.89701
-0.0614264
-2.8908
-0.0634788
-2.8847
-0.0658379
-2.87878
-0.0685388
-2.87309
-0.071634
-2.86773
-0.0751903
-2.86283
-0.0793005
-2.85853
-0.0840775
-2.85503
-0.0896712
-2.85253
-0.0962492
-2.85131
-0.104005
-0.113182
-2.85175
-2.6392
-0.222307
-2.62067
-0.216512
-2.60605
-0.205272
-2.59466
-0.192388
-2.58562
-0.179533
-2.57813
-0.167456
-2.57164
-0.156356
-2.56575
-0.146224
-2.56023
-0.13698
-2.55493
-0.128535
-2.54976
-0.12081
-2.54465
-0.113741
-2.53958
-0.107272
-2.53452
-0.101357
-2.52946
-0.0959558
-2.52439
-0.0910362
-2.51931
-0.0865653
-2.51421
-0.0825139
-2.5091
-0.078857
-2.50397
-0.0755711
-2.49884
-0.0726346
-2.4937
-0.0700283
-2.48855
-0.067735
-2.48339
-0.06574
-2.47824
-0.0640304
-2.47309
-0.0625945
-2.46794
-0.0614225
-2.46281
-0.0605054
-2.4577
-0.0598349
-2.45262
-0.0594042
-2.44757
-0.0592087
-2.44256
-0.0592448
-2.43758
-0.0595096
-2.43266
-0.060001
-2.42781
-0.060717
-2.42303
-0.061657
-2.41835
-0.0628217
-2.41379
-0.0642136
-2.40939
-0.0658357
-2.40518
-0.0676954
-2.40121
-0.069807
-2.39756
-0.0721922
-2.3943
-0.0748809
-2.39158
-0.0779173
-2.38951
-0.081361
-2.3883
-0.0852927
-2.38815
-0.0898198
-2.38933
-0.0950785
-2.39212
-0.101211
-0.108423
-2.39689
-1.91758
-0.243299
-1.90248
-0.231612
-1.89374
-0.21401
-1.88925
-0.196885
-1.88723
-0.181567
-1.88644
-0.168245
-1.8862
-0.156607
-1.88611
-0.146317
-1.88597
-0.137117
-1.88568
-0.128825
-1.88519
-0.121306
-1.88446
-0.114465
-1.88349
-0.10823
-1.8823
-0.102549
-1.88087
-0.0973758
-1.87923
-0.0926696
-1.8774
-0.0883964
-1.87538
-0.0845276
-1.87321
-0.081036
-1.87089
-0.0778966
-1.86845
-0.0750884
-1.86589
-0.0725923
-1.86325
-0.0703905
-1.86053
-0.068468
-1.85776
-0.0668124
-1.85494
-0.0654131
-1.8521
-0.0642601
-1.84927
-0.0633435
-1.84644
-0.0626554
-1.84365
-0.0621908
-1.84091
-0.0619462
-1.83823
-0.0619184
-1.83563
-0.0621041
-1.83312
-0.0624992
-1.83073
-0.063099
-1.82848
-0.0639001
-1.82641
-0.0648989
-1.82453
-0.0660913
-1.82289
-0.0674742
-1.82155
-0.0690419
-1.82057
-0.0707894
-1.82003
-0.0727264
-1.82005
-0.0748585
-1.82076
-0.0772028
-1.82233
-0.0797794
-1.82499
-0.0826264
-1.82901
-0.0858046
-1.83469
-0.0894124
-1.84234
-0.0935571
-0.0983154
-1.85246
-1.0925
-0.274086
-1.08036
-0.24376
-1.07809
-0.216276
-1.08065
-0.194327
-1.08516
-0.177072
-1.09023
-0.163188
-1.09524
-0.151609
-1.09992
-0.141635
-1.10419
-0.132856
-1.10801
-0.125011
-1.11137
-0.117941
-1.11429
-0.111536
-1.11679
-0.105721
-1.1189
-0.100435
-1.12064
-0.0956288
-1.12204
-0.0912627
-1.12313
-0.0873032
-1.12395
-0.0837185
-1.12452
-0.08048
-1.12486
-0.077565
-1.12502
-0.0749532
-1.12501
-0.0726235
-1.12486
-0.0705578
-1.1246
-0.0687425
-1.12426
-0.0671671
-1.12386
-0.0658215
-1.12343
-0.064695
-1.12299
-0.0637785
-1.12257
-0.0630665
-1.12221
-0.0625565
-1.1219
-0.0622461
-1.12169
-0.0621324
-1.12158
-0.0622113
-1.1216
-0.0624763
-1.12177
-0.0629204
-1.12213
-0.0635391
-1.12271
-0.0643255
-1.12354
-0.0652686
-1.12466
-0.0663565
-1.12613
-0.0675734
-1.12802
-0.0689063
-1.13042
-0.0703254
-1.13344
-0.0718312
-1.13722
-0.0734065
-1.14197
-0.0750297
-1.1479
-0.0766862
-1.15533
-0.0783802
-1.16459
-0.0801608
-1.17604
-0.0821173
-0.0841868
-1.19018
-0.204447
-0.309119
-0.203687
-0.244523
-0.208695
-0.211279
-0.216404
-0.186638
-0.225197
-0.168302
-0.234059
-0.154331
-0.24256
-0.143125
-0.250508
-0.133703
-0.257832
-0.125532
-0.264532
-0.118309
-0.270618
-0.111849
-0.276109
-0.10603
-0.281041
-0.100767
-0.285453
-0.0959983
-0.289385
-0.0916729
-0.292882
-0.0877487
-0.295988
-0.0841903
-0.298741
-0.0809665
-0.30118
-0.0780521
-0.303344
-0.0754257
-0.305262
-0.0730659
-0.306963
-0.0709527
-0.308478
-0.0690686
-0.30984
-0.0673999
-0.31108
-0.0659354
-0.312233
-0.0646652
-0.313333
-0.0635802
-0.314421
-0.0626734
-0.315532
-0.0619406
-0.316699
-0.0613791
-0.317949
-0.0609871
-0.319312
-0.0607631
-0.320813
-0.0607037
-0.322483
-0.0607997
-0.324359
-0.0610384
-0.326483
-0.0614104
-0.328894
-0.0619075
-0.331642
-0.0625191
-0.334771
-0.0632275
-0.338339
-0.0639958
-0.34242
-0.0648008
-0.347114
-0.0656086
-0.352533
-0.066374
-0.358833
-0.0670613
-0.366207
-0.0676228
-0.374894
-0.0679865
-0.385193
-0.0680875
-0.397503
-0.067878
-0.4122
-0.0674538
-0.0667645
-0.429646
0.697622
-0.290658
0.685542
-0.232456
0.673078
-0.198832
0.662705
-0.176276
0.652846
-0.158465
0.64282
-0.144327
0.632751
-0.133071
0.622894
-0.123855
0.613424
-0.116064
0.604442
-0.109329
0.596015
-0.103418
0.588172
-0.0981756
0.58091
-0.0934948
0.574215
-0.0892954
0.568062
-0.0855157
0.562417
-0.0821076
0.557248
-0.0790322
0.552518
-0.0762581
0.548193
-0.0737584
0.544239
-0.0715093
0.540625
-0.0694903
0.537322
-0.0676835
0.534299
-0.0660729
0.531528
-0.0646451
0.528976
-0.0633888
0.526612
-0.0622943
0.524396
-0.0613543
0.522292
-0.0605623
0.520267
-0.0599129
0.518288
-0.0594015
0.516321
-0.0590252
0.514329
-0.0587795
0.512273
-0.0586559
0.510112
-0.058643
0.507796
-0.0587279
0.50527
-0.0588927
0.502465
-0.0591154
0.499302
-0.0593743
0.495704
-0.0596375
0.491568
-0.0598739
0.486806
-0.0600319
0.481298
-0.060083
0.47491
-0.0599671
0.467495
-0.0596296
0.458887
-0.058999
0.448867
-0.057973
0.437175
-0.0564151
0.423366
-0.0541094
0.406672
-0.0508091
-0.0460966
0.385973
1.63257
-0.259448
1.60843
-0.208321
1.58922
-0.179623
1.57183
-0.158892
1.55614
-0.142785
1.5416
-0.129785
1.52789
-0.119357
1.51494
-0.110912
1.50277
-0.103893
1.49137
-0.0979223
1.48072
-0.0927617
1.4708
-0.0882501
1.46158
-0.08427
1.45302
-0.0807338
1.44509
-0.0775759
1.43773
-0.0747476
1.4309
-0.0722101
1.42456
-0.0699311
1.41868
-0.0678843
1.4132
-0.0660478
1.40811
-0.0644031
1.40335
-0.062934
1.3989
-0.0616264
1.39472
-0.0604688
1.39079
-0.059452
1.38708
-0.0585682
1.38354
-0.0578103
1.38016
-0.057172
1.3769
-0.0566477
1.37373
-0.0562326
1.37063
-0.0559211
1.36754
-0.0557051
1.36445
-0.0555714
1.36131
-0.0555038
1.35806
-0.0554827
1.35465
-0.0554805
1.351
-0.0554654
1.34703
-0.0554007
1.34263
-0.0552332
1.3377
-0.0549192
1.33207
-0.054393
1.3256
-0.0535922
1.31809
-0.0524417
1.30933
-0.050858
1.29908
-0.0487423
1.28707
-0.0459721
1.27303
-0.042389
1.2567
-0.0378023
1.23803
-0.0321561
-0.0254426
1.21736
2.63616
-0.19269
2.59826
-0.170433
2.56361
-0.144966
2.53506
-0.130344
2.51106
-0.118795
2.4903
-0.10903
2.47197
-0.101028
2.45556
-0.0945014
2.44073
-0.089064
2.42724
-0.0844317
2.4149
-0.0804242
2.40357
-0.0769196
2.39313
-0.073828
2.38348
-0.0710806
2.37453
-0.0686267
2.36621
-0.0664282
2.35845
-0.064454
2.35119
-0.0626794
2.34439
-0.0610845
2.33799
-0.0596527
2.33195
-0.0583693
2.32624
-0.0572222
2.32082
-0.056201
2.31565
-0.0552973
2.31071
-0.0545041
2.30597
-0.0538147
2.30139
-0.0532233
2.29695
-0.0527246
2.29262
-0.0523134
2.28836
-0.0519834
2.28416
-0.051726
2.27997
-0.0515294
2.27577
-0.0513778
2.27151
-0.0512493
2.26713
-0.0511155
2.26259
-0.0509404
2.2578
-0.0506796
2.25269
-0.0502775
2.24712
-0.0496713
2.24099
-0.0487796
2.23412
-0.0475296
2.22636
-0.0458252
2.21748
-0.0435675
2.20727
-0.0406434
2.19546
-0.0369305
2.18173
-0.0322505
2.16568
-0.0263314
2.14666
-0.0187919
2.1243
-0.00978898
-0.000175069
2.09904
3.50203
-0.189725
3.48151
-0.149912
3.47249
-0.135943
3.46468
-0.122537
3.45763
-0.111753
3.45141
-0.10281
3.44572
-0.0953318
3.44028
-0.0890652
3.43495
-0.0837421
3.42967
-0.0791502
3.42439
-0.0751451
3.41909
-0.0716234
3.41376
-0.0685044
3.4084
-0.0657262
3.40301
-0.0632407
3.39759
-0.0610094
3.39213
-0.0590015
3.38664
-0.0571924
3.38111
-0.0555615
3.37555
-0.0540911
3.36994
-0.0527664
3.3643
-0.051575
3.35861
-0.0505061
3.35288
-0.0495506
3.34708
-0.0487005
3.34122
-0.0479485
3.3353
-0.0472879
3.32929
-0.0467122
3.32318
-0.0462145
3.31698
-0.0457855
3.31065
-0.0454136
3.3042
-0.0450837
3.29758
-0.0447763
3.29079
-0.044464
3.28378
-0.0441102
3.27651
-0.04367
3.26891
-0.043086
3.26093
-0.0422805
3.25244
-0.0411739
3.24333
-0.0396607
3.23344
-0.0376364
3.2226
-0.0349822
3.21059
-0.0315673
3.19722
-0.0272765
3.18235
-0.0220689
3.16591
-0.0158195
3.14794
-0.00836933
3.12922
-8.59887e-05
3.11025
0.00918221
0.0208563
3.08921
5.1404
-0.0967187
5.08756
-0.0970663
5.03404
-0.0824314
4.98791
-0.0764086
4.94717
-0.071012
4.91046
-0.066093
4.87698
-0.0618525
4.84611
-0.0582013
4.81739
-0.0550227
4.79047
-0.0522309
4.76509
-0.0497634
4.74103
-0.0475711
4.71814
-0.0456149
4.69627
-0.0438628
4.67531
-0.0422886
4.65517
-0.0408712
4.63576
-0.0395934
4.617
-0.0384405
4.59884
-0.0374003
4.58121
-0.0364628
4.56407
-0.0356192
4.54736
-0.0348623
4.53105
-0.0341859
4.5151
-0.0335846
4.49946
-0.0330538
4.48411
-0.0325891
4.46901
-0.0321865
4.45414
-0.031841
4.43947
-0.0315469
4.42497
-0.0312964
4.41062
-0.0310788
4.3964
-0.0308794
4.38229
-0.0306791
4.36827
-0.030451
4.35432
-0.0301576
4.34039
-0.0297482
4.32647
-0.0291561
4.31248
-0.0282943
4.29836
-0.0270492
4.284
-0.0253047
4.26929
-0.0229319
4.25409
-0.0197776
4.23812
-0.0156001
4.22099
-0.0101477
4.20263
-0.00371609
4.1836
0.00321873
4.16447
0.0107784
4.14486
0.0195388
4.1238
0.0302542
0.0439205
4.10075
5.13332
-0.113455
5.13009
-0.0938351
5.1458
-0.0981447
5.16145
-0.092058
5.17617
-0.0857305
5.18999
-0.0799132
5.20247
-0.0743318
5.21336
-0.0690971
5.22266
-0.0643251
5.23046
-0.0600308
5.23688
-0.0561826
5.24204
-0.0527403
5.24609
-0.0496628
5.24913
-0.0469103
5.25128
-0.0444465
5.25265
-0.0422393
5.25331
-0.0402606
5.25336
-0.0384864
5.25286
-0.0368961
5.25187
-0.0354723
5.25046
-0.0341998
5.24867
-0.0330657
5.24656
-0.0320592
5.24416
-0.0311704
5.2415
-0.0303905
5.23863
-0.0297111
5.23558
-0.0291236
5.23235
-0.0286185
5.22898
-0.0281846
5.22549
-0.0278084
5.22187
-0.027473
5.21813
-0.0271553
5.21426
-0.0268231
5.21024
-0.0264337
5.20601
-0.025929
5.20149
-0.0252272
5.19655
-0.024207
5.19098
-0.0227083
5.18444
-0.0205048
5.17655
-0.0174148
5.16696
-0.0133491
5.15546
-0.00828138
5.14227
-0.00242204
5.12837
0.00375005
5.11439
0.0102536
5.09998
0.0176231
5.0848
0.0259605
5.06883
0.0355205
5.0521
0.0469841
0.0623538
5.03367
8.84033
0.0021516
8.78617
-0.03967
8.72349
-0.0354731
8.66622
-0.0347851
8.61409
-0.0336024
8.56579
-0.031615
8.52075
-0.029291
8.47859
-0.0269407
8.43897
-0.0247122
8.4016
-0.0226597
8.3662
-0.0207949
8.33257
-0.0191125
8.3005
-0.0176007
8.26983
-0.0162447
8.24041
-0.0150285
8.2121
-0.0139372
8.18479
-0.0129574
8.15838
-0.0120775
8.13277
-0.0112873
8.10788
-0.0105779
8.08363
-0.00994177
8.05995
-0.0093729
8.03676
-0.00886595
8.01402
-0.00841611
7.99166
-0.00801899
7.96962
-0.00767049
7.94787
-0.00736628
7.92635
-0.00710117
7.90503
-0.00686921
7.88387
-0.00666317
7.86286
-0.00647308
7.84198
-0.00628648
7.82123
-0.00608712
7.80064
-0.00585193
7.78025
-0.0055493
7.76017
-0.00513738
7.74051
-0.00455109
7.7215
-0.00368577
7.70334
-0.00235011
7.68595
-1.62495e-05
7.66875
0.00385253
7.65131
0.00914816
7.63334
0.0155564
7.61404
0.0230473
7.59273
0.0315746
7.56936
0.0410045
7.54399
0.05134
7.51691
0.0626191
7.48912
0.0747846
0.0865538
7.46493
4.10582
4.06615
4.03068
3.9959
3.96229
3.93068
3.90139
3.87445
3.84973
3.82707
3.80628
3.78716
3.76956
3.75331
3.73828
3.72434
3.71139
3.69931
3.68803
3.67745
3.66752
3.65815
3.64929
3.64088
3.63287
3.6252
3.61783
3.61073
3.60385
3.59718
3.5907
3.58441
3.57832
3.57247
3.56692
3.56179
3.55724
3.55356
3.55121
3.55119
3.55503
3.56417
3.57973
3.60278
3.63435
3.67536
3.7267
3.78933
3.86411
3.95067
0.406431
-0.00852699
0.409415
-0.00298351
0.411569
-0.00215414
0.412615
-0.00104616
0.412945
-0.000329424
0.412903
4.16669e-05
0.412662
0.000240702
0.412304
0.000358159
0.411874
0.000429636
0.411402
0.000472453
0.410904
0.000497408
0.410393
0.00051133
0.409875
0.000518281
0.409354
0.000520659
0.408834
0.000519917
0.408318
0.000516949
0.407805
0.000512326
0.407299
0.000506398
0.4068
0.000499394
0.406309
0.000491456
0.405827
0.000482681
0.405355
0.000473125
0.404893
0.000462803
0.404442
0.000451681
0.404004
0.000439665
0.403579
0.000426613
0.403168
0.000412345
0.402774
0.000396645
0.402398
0.000379249
0.402041
0.000359853
0.401706
0.000338147
0.401397
0.000313819
0.401115
0.000286442
0.400865
0.000255587
0.400651
0.000220262
0.400478
0.000179729
0.400352
0.000133026
0.400281
7.89726e-05
0.400273
1.62087e-05
0.400338
-5.71848e-05
0.40049
-0.000143786
0.400745
-0.000246834
0.401123
-0.000370636
0.401651
-0.000521447
0.402366
-0.000708744
0.403317
-0.000947598
0.404583
-0.0012637
0.406288
-0.00170434
0.408652
-0.00236718
-0.00346881
0.412116
0.393849
-0.00447215
0.393011
-0.00214519
0.3916
-0.000743163
0.39086
-0.000305579
0.390508
2.25004e-05
0.390324
0.000225275
0.390244
0.000320985
0.390236
0.000365808
0.390278
0.000387417
0.390354
0.000396457
0.390453
0.000398248
0.390568
0.000396071
0.390695
0.000391797
0.390829
0.000386352
0.390969
0.000380194
0.391113
0.00037353
0.39126
0.00036642
0.391408
0.000358853
0.391557
0.000350748
0.391708
0.000341987
0.391859
0.000332429
0.392012
0.000321906
0.392167
0.000310216
0.392324
0.000297118
0.392484
0.000282325
0.392649
0.000265513
0.392819
0.000246317
0.392997
0.000224302
0.393183
0.000198914
0.39338
0.000169483
0.393591
0.00013532
0.393818
9.58079e-05
0.394064
4.9875e-05
0.394334
-3.73718e-06
0.394633
-6.63621e-05
0.394965
-0.000139525
0.395337
-0.000225177
0.395756
-0.0003257
0.396231
-0.000443934
0.396772
-0.00058375
0.397392
-0.000749796
0.398106
-0.000948036
0.398933
-0.00118637
0.399897
-0.00147559
0.401025
-0.00183098
0.402356
-0.00227522
0.403935
-0.00284312
0.405815
-0.00358909
0.408038
-0.00459951
-0.00600954
0.410564
0.394415
-0.000983143
0.39327
-0.000999525
0.393072
-0.000545374
0.393098
-0.000331778
0.393325
-0.000204247
0.393631
-8.04984e-05
0.393934
1.78499e-05
0.394211
8.82635e-05
0.394459
0.000139899
0.394677
0.000178322
0.394869
0.000206604
0.395038
0.000227046
0.395188
0.000241505
0.395323
0.000251342
0.395446
0.000257495
0.395559
0.000260633
0.395665
0.000261187
0.395765
0.000259434
0.395861
0.00025551
0.395954
0.000249469
0.396046
0.000241292
0.396139
0.000230891
0.396233
0.000218116
0.396329
0.000202732
0.39643
0.000184418
0.396536
0.000162788
0.396648
0.000137393
0.396769
0.000107677
0.3969
7.28679e-05
0.397044
3.20048e-05
0.397202
-1.58809e-05
0.397377
-7.19728e-05
0.397573
-0.000137663
0.397794
-0.000214655
0.398042
-0.000304581
0.398324
-0.000409893
0.398644
-0.000533427
0.39901
-0.000678577
0.399428
-0.000849518
0.399909
-0.00105145
0.400462
-0.00129072
0.401101
-0.0015754
0.401841
-0.00191598
0.402699
-0.00232609
0.403698
-0.00282397
0.404861
-0.00343473
0.406212
-0.0041936
0.407769
-0.00515051
0.409536
-0.00637388
-0.00795173
0.411466
0.397506
-0.000584352
0.397328
-0.000821626
0.3974
-0.000618131
0.397462
-0.000393539
0.397485
-0.000227358
0.397491
-8.66668e-05
0.397481
2.80826e-05
0.397457
0.000112031
0.397427
0.000170427
0.397395
0.000210384
0.397364
0.000236924
0.397338
0.000253571
0.397316
0.000262952
0.397301
0.000266981
0.397292
0.000266997
0.397289
0.000263861
0.397292
0.000258127
0.397302
0.000250105
0.397318
0.000239931
0.397341
0.000227621
0.39737
0.000213096
0.397406
0.000196189
0.397449
0.000176646
0.3975
0.000154103
0.397559
0.000128059
0.397627
9.79472e-05
0.397705
6.31926e-05
0.397793
2.29286e-05
0.397895
-2.37744e-05
0.398011
-7.79492e-05
0.398142
-0.000140849
0.398292
-0.000214177
0.398463
-0.000299671
0.398657
-0.000399413
0.398878
-0.00051583
0.399132
-0.000651956
0.399421
-0.000811366
0.399753
-0.000998311
0.400134
-0.00121797
0.400572
-0.00147662
0.401075
-0.00178183
0.401654
-0.00214304
0.402321
-0.00257211
0.403087
-0.00308408
0.403967
-0.00369818
0.404975
-0.00443896
0.406119
-0.00533798
0.407401
-0.00643568
0.4088
-0.00778127
-0.00942774
0.410265
0.397558
-0.000237745
0.397117
-0.00038098
0.39681
-0.000310953
0.396605
-0.000189038
0.396473
-9.5087e-05
0.396409
-2.232e-05
0.396399
3.72446e-05
0.396429
8.29434e-05
0.396483
0.000115727
0.396555
0.000138645
0.396638
0.000154271
0.396727
0.000164323
0.39682
0.000170024
0.396915
0.000172261
0.39701
0.000171659
0.397106
0.000168583
0.397201
0.000163236
0.397296
0.000155667
0.397391
0.000145829
0.397486
0.000133593
0.397581
0.000118758
0.397678
0.000101059
0.397776
8.01505e-05
0.397876
5.5605e-05
0.39798
2.67713e-05
0.398088
-7.02465e-06
0.398201
-4.6622e-05
0.398321
-9.30008e-05
0.39845
-0.000147226
0.398588
-0.000210481
0.398738
-0.000284346
0.398902
-0.000370673
0.399083
-0.00047155
0.399282
-0.000589454
0.399504
-0.000727333
0.399752
-0.000888696
0.40003
-0.0010777
0.400343
-0.00129928
0.400697
-0.00155933
0.401098
-0.00186489
0.401553
-0.00222444
0.40207
-0.00264815
0.402656
-0.0031484
0.403321
-0.00374047
0.404072
-0.00444306
0.404915
-0.00527889
0.405852
-0.0062752
0.406877
-0.00746394
0.407969
-0.00888112
-0.010562
0.409092
0.397791
-0.000124896
0.397641
-0.000230024
0.397564
-0.00023427
0.39756
-0.000184789
0.397592
-0.000127927
0.397644
-7.44157e-05
0.397706
-2.44771e-05
0.39777
1.93422e-05
0.39783
5.4998e-05
0.397886
8.25761e-05
0.397938
0.000103086
0.397984
0.000117558
0.398028
0.000126885
0.398068
0.00013185
0.398107
0.000133054
0.398145
0.000130944
0.398183
0.000125794
0.398221
0.000117734
0.398261
0.000106782
0.398302
9.28476e-05
0.398346
7.57412e-05
0.398394
5.52237e-05
0.398445
3.09234e-05
0.3985
2.35336e-06
0.39856
-3.10631e-05
0.398626
-7.00898e-05
0.398699
-0.000115742
0.398779
-0.000169065
0.398868
-0.000231277
0.398967
-0.000303814
0.399078
-0.000388419
0.399202
-0.000487132
0.399341
-0.00060234
0.399498
-0.00073687
0.399675
-0.000894036
0.399875
-0.00107773
0.400102
-0.00129258
0.400359
-0.00154403
0.400651
-0.00183844
0.400982
-0.00218337
0.401358
-0.0025878
0.401784
-0.00306226
0.402265
-0.00361925
0.402806
-0.00427358
0.403412
-0.00504268
0.404083
-0.00594685
0.404817
-0.00700906
0.405604
-0.00825432
0.406424
-0.00970861
-0.0113948
0.407245
0.397842
-6.24115e-05
0.397734
-0.000122471
0.397633
-0.000133496
0.397556
-0.000107528
0.397498
-6.94899e-05
0.397455
-3.20028e-05
0.397429
1.7905e-06
0.397418
3.03708e-05
0.39742
5.26847e-05
0.397434
6.87633e-05
0.397458
7.93806e-05
0.39749
8.54195e-05
0.397529
8.76184e-05
0.397575
8.65792e-05
0.397625
8.27259e-05
0.39768
7.63332e-05
0.397739
6.75185e-05
0.397801
5.6281e-05
0.397865
4.25004e-05
0.397933
2.59677e-05
0.398004
6.39167e-06
0.398077
-1.66207e-05
0.398153
-4.35591e-05
0.398232
-7.50415e-05
0.398316
-0.000111713
0.398403
-0.000154454
0.398495
-0.000204322
0.398593
-0.000262501
0.398697
-0.000330363
0.398808
-0.000409525
0.398928
-0.000501875
0.399058
-0.000609626
0.3992
-0.000735393
0.399355
-0.000882262
0.399525
-0.00105382
0.399713
-0.00125425
0.399921
-0.00148852
0.400151
-0.0017624
0.400408
-0.00208256
0.400695
-0.00245685
0.401014
-0.00289441
0.401369
-0.00340587
0.401763
-0.00400358
0.4022
-0.00470164
0.40268
-0.00551614
0.403202
-0.00646514
0.403761
-0.00756802
0.404348
-0.0088449
0.404947
-0.0103155
-0.0119973
0.405538
0.397872
-3.0389e-05
0.397814
-6.45847e-05
0.397759
-7.77152e-05
0.397721
-7.04408e-05
0.397705
-5.36061e-05
0.397708
-3.49847e-05
0.397727
-1.73063e-05
0.397759
-1.60405e-06
0.397801
1.13328e-05
0.397848
2.11223e-05
0.3979
2.78352e-05
0.397954
3.17036e-05
0.398008
3.29627e-05
0.398063
3.17698e-05
0.398118
2.82307e-05
0.398172
2.23633e-05
0.398226
1.41049e-05
0.39828
3.32594e-06
0.398333
-1.01707e-05
0.398386
-2.66483e-05
0.39844
-4.64337e-05
0.398495
-6.99788e-05
0.398551
-9.78169e-05
0.398608
-0.00013058
0.398668
-0.000169009
0.398731
-0.000214017
0.398797
-0.000266683
0.398867
-0.000328254
0.398942
-0.000400187
0.399022
-0.000484185
0.399109
-0.000582234
0.399204
-0.000696675
0.399307
-0.000830272
0.399421
-0.000986252
0.399546
-0.00116837
0.399684
-0.00138104
0.399836
-0.00162938
0.400006
-0.00191931
0.400194
-0.00225775
0.400403
-0.00265264
0.400634
-0.00311307
0.400889
-0.00364961
0.40117
-0.00427423
0.401477
-0.00500034
0.40181
-0.00584277
0.402166
-0.00681771
0.402541
-0.00794198
0.402924
-0.00923202
0.403304
-0.0107029
-0.0123671
0.403662
0.397884
-1.01384e-05
0.397845
-2.53273e-05
0.397801
-3.40171e-05
0.397764
-3.33433e-05
0.397737
-2.72818e-05
0.397722
-1.95651e-05
0.397717
-1.19997e-05
0.39772
-5.40933e-06
0.397732
-3.97348e-07
0.397751
2.66665e-06
0.397775
3.68639e-06
0.397804
2.70106e-06
0.397837
-2.15341e-07
0.397874
-5.01699e-06
0.397914
-1.17033e-05
0.397957
-2.03412e-05
0.398003
-3.10545e-05
0.39805
-4.40341e-05
0.3981
-5.95235e-05
0.398153
-7.78303e-05
0.398206
-9.93441e-05
0.398262
-0.000124551
0.39832
-0.000154029
0.39838
-0.00018846
0.398442
-0.000228653
0.398507
-0.000275563
0.398574
-0.000330309
0.398644
-0.000394194
0.398718
-0.000468729
0.398795
-0.000555676
0.398877
-0.000657099
0.398963
-0.00077544
0.399055
-0.000913542
0.399153
-0.0010747
0.399258
-0.0012628
0.39937
-0.00148236
0.399492
-0.00173852
0.399622
-0.00203731
0.399763
-0.00238569
0.399915
-0.00279158
0.400078
-0.00326403
0.400254
-0.00381338
0.400441
-0.00445119
0.40064
-0.00519028
0.400848
-0.00604456
0.401063
-0.00702872
0.401279
-0.00815789
0.40149
-0.00944651
0.401686
-0.0109074
-0.0125513
0.401859
0.397889
4.7598e-06
0.39786
4.51236e-06
0.397825
7.26533e-07
0.397794
-3.01988e-06
0.397774
-6.68999e-06
0.397764
-1.03207e-05
0.397766
-1.39527e-05
0.397779
-1.76622e-05
0.3978
-2.15848e-05
0.397828
-2.58618e-05
0.397863
-3.06415e-05
0.397901
-3.60615e-05
0.397944
-4.22861e-05
0.397988
-4.94882e-05
0.398035
-5.7874e-05
0.398082
-6.76763e-05
0.398131
-7.91571e-05
0.39818
-9.26166e-05
0.398229
-0.000108388
0.398279
-0.000126851
0.398329
-0.000148457
0.39838
-0.000173729
0.398431
-0.000203279
0.398482
-0.000237822
0.398534
-0.00027819
0.398587
-0.000325355
0.398641
-0.00038044
0.398696
-0.000444754
0.398752
-0.000519823
0.398809
-0.000607417
0.398868
-0.000709628
0.39893
-0.000828921
0.398993
-0.000968138
0.399058
-0.00113059
0.399126
-0.00132018
0.399197
-0.0015414
0.399269
-0.00179938
0.399345
-0.00210011
0.399423
-0.00245045
0.399502
-0.00285823
0.399583
-0.00333241
0.399665
-0.00388301
0.399745
-0.00452131
0.399823
-0.00525961
0.399897
-0.00611126
0.399961
-0.00709004