/*--------------------------------*- C++ -*----------------------------------*\
  =========                 |
  \\      /  F ield         | OpenFOAM: The Open Source CFD Toolbox
   \\    /   O peration     | Website:  https://openfoam.org
    \\  /    A nd           | Version:  8
     \\/     M anipulation  |
\*---------------------------------------------------------------------------*/
FoamFile
{
    version     2.0;
    format      ascii;
    class       volScalarField;
    location    "200";
    object      T;
}
// * * * * * * * * * * * * * * * * * * * * * * * * * * * * * * * * * * * * * //

dimensions      [0 0 0 1 0 0 0];

internalField   nonuniform List<scalar> 
8400
(
293.2
293.198
293.198
293.198
293.198
293.197
293.197
293.197
293.196
293.196
293.195
293.194
293.194
293.193
293.192
293.191
293.19
293.189
293.188
293.187
293.186
293.185
293.183
293.182
293.181
293.179
293.178
293.176
293.175
293.174
293.172
293.171
293.169
293.168
293.167
293.165
293.164
293.163
293.162
293.161
293.16
293.159
293.158
293.158
293.157
293.156
293.156
293.155
293.154
293.154
293.227
293.225
293.225
293.225
293.225
293.225
293.225
293.224
293.224
293.224
293.224
293.223
293.223
293.222
293.222
293.221
293.221
293.22
293.219
293.219
293.218
293.217
293.216
293.216
293.215
293.214
293.213
293.212
293.211
293.21
293.209
293.209
293.208
293.207
293.206
293.206
293.205
293.204
293.203
293.203
293.202
293.202
293.201
293.201
293.2
293.2
293.199
293.199
293.198
293.198
293.224
293.221
293.222
293.221
293.221
293.221
293.221
293.221
293.22
293.22
293.22
293.22
293.22
293.219
293.219
293.219
293.218
293.218
293.217
293.217
293.217
293.216
293.216
293.215
293.215
293.214
293.214
293.213
293.212
293.212
293.211
293.211
293.211
293.21
293.21
293.209
293.209
293.209
293.208
293.208
293.208
293.208
293.207
293.207
293.207
293.207
293.207
293.207
293.207
293.207
293.232
293.229
293.228
293.227
293.227
293.226
293.225
293.225
293.224
293.224
293.223
293.223
293.222
293.222
293.221
293.221
293.22
293.22
293.219
293.219
293.218
293.218
293.217
293.217
293.216
293.216
293.215
293.215
293.214
293.214
293.213
293.213
293.212
293.212
293.212
293.211
293.211
293.211
293.21
293.21
293.21
293.209
293.209
293.209
293.209
293.209
293.208
293.208
293.208
293.208
293.276
293.269
293.264
293.26
293.256
293.253
293.25
293.247
293.245
293.243
293.241
293.24
293.238
293.237
293.236
293.234
293.233
293.232
293.231
293.231
293.23
293.229
293.228
293.228
293.227
293.226
293.226
293.225
293.225
293.224
293.224
293.223
293.223
293.222
293.222
293.221
293.221
293.221
293.22
293.22
293.22
293.22
293.219
293.219
293.219
293.219
293.218
293.218
293.218
293.217
293.469
293.448
293.43
293.413
293.398
293.384
293.372
293.361
293.352
293.343
293.336
293.329
293.324
293.319
293.314
293.31
293.306
293.303
293.3
293.298
293.295
293.293
293.291
293.289
293.288
293.286
293.285
293.283
293.282
293.281
293.28
293.279
293.278
293.277
293.276
293.275
293.274
293.273
293.272
293.271
293.27
293.269
293.268
293.267
293.265
293.264
293.262
293.261
293.259
293.257
294.09
294.032
293.978
293.928
293.882
293.84
293.802
293.769
293.739
293.712
293.688
293.666
293.647
293.63
293.615
293.601
293.589
293.578
293.568
293.559
293.551
293.543
293.537
293.531
293.525
293.52
293.515
293.51
293.506
293.502
293.498
293.494
293.49
293.486
293.483
293.479
293.475
293.471
293.467
293.462
293.457
293.453
293.447
293.442
293.436
293.429
293.422
293.414
293.406
293.397
295.488
295.381
295.277
295.178
295.085
295
294.921
294.849
294.784
294.724
294.67
294.621
294.576
294.535
294.498
294.464
294.434
294.406
294.38
294.357
294.335
294.315
294.297
294.28
294.265
294.25
294.236
294.222
294.21
294.197
294.185
294.173
294.161
294.149
294.137
294.124
294.111
294.098
294.084
294.069
294.054
294.037
294.02
294.001
293.981
293.96
293.936
293.911
293.884
293.854
297.548
297.425
297.304
297.186
297.073
296.967
296.868
296.775
296.688
296.607
296.532
296.462
296.397
296.337
296.281
296.229
296.181
296.137
296.095
296.057
296.02
295.987
295.955
295.925
295.896
295.869
295.843
295.818
295.794
295.77
295.746
295.722
295.698
295.673
295.648
295.623
295.596
295.568
295.539
295.508
295.475
295.441
295.404
295.365
295.323
295.278
295.229
295.177
295.121
295.059
299.289
299.219
299.148
299.078
299.01
298.944
298.88
298.819
298.76
298.704
298.651
298.6
298.551
298.505
298.461
298.419
298.38
298.342
298.307
298.273
298.241
298.21
298.181
298.152
298.125
298.098
298.072
298.047
298.022
297.996
297.971
297.945
297.919
297.892
297.865
297.836
297.805
297.774
297.74
297.705
297.667
297.626
297.583
297.538
297.489
297.436
297.38
297.319
297.254
297.184
299.946
299.934
299.921
299.909
299.896
299.883
299.87
299.858
299.845
299.832
299.819
299.807
299.794
299.782
299.77
299.759
299.748
299.737
299.726
299.716
299.705
299.695
299.686
299.676
299.666
299.657
299.648
299.638
299.629
299.619
299.609
299.598
299.588
299.576
299.565
299.552
299.539
299.525
299.51
299.493
299.476
299.457
299.437
299.415
299.391
299.366
299.339
299.31
299.279
299.246
300.002
300.002
300.002
300.002
300.003
300.003
300.003
300.003
300.004
300.004
300.004
300.004
300.004
300.004
300.004
300.004
300.004
300.004
300.004
300.004
300.004
300.004
300.004
300.004
300.004
300.004
300.004
300.004
300.004
300.004
300.004
300.004
300.004
300.004
300.004
300.004
300.004
300.003
300.003
300.003
300.002
300.002
300.001
300
299.999
299.998
299.996
299.995
299.993
299.992
300.001
300.001
300.002
300.002
300.003
300.003
300.004
300.004
300.004
300.005
300.005
300.005
300.005
300.006
300.006
300.006
300.006
300.007
300.007
300.007
300.007
300.008
300.008
300.008
300.008
300.009
300.009
300.009
300.009
300.01
300.01
300.01
300.01
300.011
300.011
300.011
300.012
300.012
300.012
300.013
300.013
300.014
300.014
300.015
300.015
300.016
300.016
300.017
300.017
300.018
300.002
300.003
300.003
300.003
300.004
300.004
300.005
300.005
300.005
300.006
300.006
300.006
300.007
300.007
300.007
300.007
300.008
300.008
300.008
300.009
300.009
300.009
300.009
300.01
300.01
300.01
300.011
300.011
300.011
300.011
300.012
300.012
300.012
300.013
300.013
300.013
300.014
300.014
300.015
300.015
300.016
300.016
300.017
300.017
300.018
300.018
300.019
300.02
300.02
300.021
300.005
300.006
300.006
300.006
300.007
300.007
300.008
300.008
300.008
300.009
300.009
300.009
300.01
300.01
300.011
300.011
300.011
300.012
300.012
300.012
300.013
300.013
300.014
300.014
300.014
300.015
300.015
300.016
300.016
300.017
300.017
300.018
300.018
300.019
300.019
300.02
300.02
300.021
300.021
300.022
300.023
300.023
300.024
300.025
300.025
300.026
300.027
300.028
300.028
300.029
300.003
300.004
300.004
300.004
300.005
300.006
300.007
300.007
300.008
300.009
300.01
300.011
300.012
300.012
300.013
300.014
300.015
300.016
300.017
300.018
300.018
300.019
300.02
300.021
300.022
300.023
300.024
300.024
300.025
300.026
300.027
300.028
300.029
300.03
300.031
300.031
300.032
300.033
300.034
300.035
300.036
300.037
300.038
300.039
300.04
300.041
300.041
300.042
300.043
300.043
300.014
300.017
300.019
300.021
300.023
300.025
300.027
300.028
300.03
300.031
300.032
300.033
300.035
300.036
300.037
300.038
300.039
300.04
300.041
300.042
300.043
300.044
300.045
300.046
300.046
300.047
300.048
300.049
300.05
300.051
300.051
300.052
300.053
300.054
300.055
300.055
300.056
300.057
300.058
300.059
300.059
300.06
300.061
300.062
300.063
300.064
300.064
300.065
300.066
300.066
300.003
300.003
300.001
300
300
300
300.001
300.001
300.002
300.003
300.004
300.005
300.006
300.007
300.008
300.009
300.011
300.012
300.013
300.014
300.016
300.017
300.018
300.02
300.021
300.022
300.024
300.025
300.026
300.028
300.029
300.03
300.032
300.033
300.034
300.036
300.037
300.039
300.04
300.041
300.043
300.044
300.046
300.047
300.048
300.048
300.049
300.049
300.049
300.049
300.029
300.036
300.043
300.051
300.058
300.064
300.07
300.076
300.081
300.086
300.091
300.095
300.099
300.103
300.107
300.111
300.114
300.117
300.12
300.123
300.126
300.129
300.132
300.135
300.138
300.14
300.143
300.145
300.148
300.151
300.153
300.156
300.158
300.161
300.163
300.166
300.169
300.171
300.174
300.176
300.179
300.181
300.184
300.187
300.19
300.193
300.197
300.202
300.206
300.211
299.998
299.996
299.993
299.99
299.987
299.984
299.981
299.978
299.976
299.974
299.972
299.97
299.969
299.968
299.966
299.965
299.964
299.963
299.962
299.961
299.961
299.96
299.959
299.959
299.958
299.958
299.957
299.957
299.956
299.956
299.956
299.955
299.955
299.954
299.954
299.954
299.954
299.953
299.953
299.953
299.953
299.953
299.954
299.954
299.955
299.957
299.958
299.96
299.962
299.966
303.148
303.145
303.143
303.14
303.137
303.135
303.132
303.13
303.127
303.125
303.123
303.12
303.118
303.116
303.113
303.111
303.109
303.107
303.105
303.102
303.1
303.098
303.096
303.094
303.092
303.09
303.088
303.086
303.084
303.082
303.08
303.079
303.077
303.075
303.073
303.071
303.069
303.068
303.066
303.064
303.062
303.061
303.059
303.057
303.056
303.054
303.053
303.052
303.051
303.05
303.15
303.15
303.15
303.15
303.15
303.15
303.15
303.149
303.149
303.149
303.149
303.149
303.148
303.148
303.148
303.148
303.148
303.147
303.147
303.147
303.146
303.146
303.146
303.146
303.145
303.145
303.145
303.144
303.144
303.144
303.143
303.143
303.143
303.142
303.142
303.142
303.141
303.141
303.141
303.141
303.14
303.14
303.14
303.139
303.139
303.139
303.139
303.139
303.138
303.138
303.15
303.15
303.15
303.15
303.15
303.15
303.15
303.15
303.15
303.15
303.15
303.15
303.15
303.15
303.15
303.15
303.15
303.15
303.15
303.15
303.15
303.15
303.15
303.15
303.15
303.15
303.15
303.15
303.15
303.15
303.15
303.15
303.15
303.15
303.15
303.149
303.149
303.149
303.149
303.149
303.149
303.149
303.149
303.149
303.149
303.149
303.149
303.149
303.149
303.149
303.15
303.15
303.15
303.15
303.15
303.15
303.15
303.15
303.15
303.15
303.15
303.15
303.15
303.15
303.15
303.15
303.15
303.15
303.15
303.15
303.15
303.15
303.15
303.15
303.15
303.15
303.15
303.15
303.15
303.15
303.15
303.15
303.15
303.15
303.15
303.15
303.15
303.15
303.15
303.15
303.15
303.15
303.15
303.15
303.15
303.15
303.15
303.15
303.15
303.15
303.15
303.15
303.15
303.15
303.15
303.15
303.15
303.15
303.15
303.15
303.15
303.15
303.15
303.15
303.15
303.15
303.15
303.15
303.15
303.15
303.15
303.15
303.15
303.15
303.15
303.15
303.15
303.15
303.15
303.15
303.15
303.15
303.15
303.15
303.15
303.15
303.15
303.15
303.15
303.15
303.15
303.15
303.15
303.15
303.15
303.15
303.15
303.15
303.15
303.15
303.15
303.15
303.15
303.15
303.15
303.15
303.15
303.15
303.15
303.15
303.15
303.15
303.15
303.15
303.15
303.15
303.15
303.15
303.15
303.15
303.15
303.15
303.15
303.15
303.15
303.15
303.15
303.15
303.15
303.15
303.15
303.15
303.15
303.15
303.15
303.15
303.15
303.15
303.15
303.15
303.15
303.15
303.15
303.15
303.15
303.15
303.15
303.15
303.15
303.15
303.15
303.15
303.15
303.15
303.15
303.15
303.15
303.15
303.15
303.15
303.15
303.15
303.15
303.15
303.15
303.15
303.15
303.15
303.15
303.15
303.15
303.15
303.15
303.15
303.15
303.15
303.15
303.15
303.15
303.15
303.15
303.15
303.15
303.15
303.15
303.15
303.15
303.15
303.15
303.15
303.15
303.15
303.15
303.15
303.15
303.15
303.15
303.15
303.15
303.15
303.15
303.15
303.15
303.15
303.15
303.15
303.15
303.15
303.15
303.15
303.15
303.15
303.15
303.15
303.15
303.15
303.15
303.15
303.15
303.15
303.15
303.15
303.15
303.15
303.15
303.15
303.15
303.15
303.15
303.15
303.15
303.15
303.15
303.15
303.15
303.15
303.15
303.15
303.15
303.15
303.15
303.15
303.15
303.15
303.15
303.15
303.15
303.15
303.15
303.15
303.15
303.15
303.15
303.15
303.15
303.15
303.15
303.15
303.15
303.15
303.15
303.15
303.15
303.15
303.15
303.15
303.15
303.15
303.15
303.15
303.15
303.15
303.15
303.15
303.15
303.15
303.15
303.15
303.15
303.15
303.15
303.15
303.15
303.15
303.15
303.15
303.15
303.15
303.15
303.15
303.15
303.15
303.15
303.15
303.15
303.15
303.15
303.15
303.15
303.15
303.15
303.15
303.15
303.15
303.15
303.15
303.15
303.15
303.15
303.15
303.15
303.15
303.15
303.15
303.15
303.15
303.15
303.15
303.15
303.15
303.15
303.15
303.15
303.15
303.15
303.15
303.15
303.15
303.15
303.15
303.15
303.15
303.15
303.15
303.15
303.15
303.15
303.15
303.15
303.15
303.15
303.15
303.15
303.15
303.15
303.15
303.15
303.15
303.15
303.15
303.15
303.15
303.15
303.15
303.15
303.15
303.15
303.15
303.15
303.15
303.15
303.15
303.15
303.15
303.15
303.15
303.15
303.15
303.15
303.15
303.15
303.15
303.15
303.15
303.15
303.15
303.15
303.15
303.15
303.15
303.15
303.15
303.15
303.15
303.15
303.15
303.15
303.15
303.15
303.15
303.15
303.15
303.15
303.15
303.15
303.15
303.15
303.15
303.15
303.15
303.15
303.15
303.15
303.15
303.15
303.15
303.15
303.15
303.15
303.15
303.15
303.15
303.15
303.15
303.15
303.15
303.15
303.15
303.15
303.15
303.15
303.15
303.15
303.15
303.15
303.15
303.15
303.15
303.15
303.15
303.15
303.15
303.15
303.15
303.15
303.15
303.15
303.15
303.15
303.15
303.15
303.15
303.15
303.15
303.15
303.15
303.15
303.15
303.15
303.15
303.15
303.15
303.15
303.15
303.15
303.15
303.15
303.15
303.15
303.15
303.15
303.15
303.15
303.15
303.15
303.15
303.15
303.15
303.15
303.15
303.15
303.15
303.15
303.15
303.15
303.15
303.15
303.15
303.15
303.15
303.15
303.15
303.15
303.15
303.15
303.15
303.15
303.15
303.15
303.15
303.15
303.15
303.15
303.15
303.15
303.15
303.15
303.15
303.15
303.15
303.15
303.15
303.15
303.15
303.15
303.15
303.15
303.15
303.15
303.15
303.15
303.15
303.15
303.15
303.15
303.15
303.15
303.15
303.15
303.15
303.15
303.15
303.15
303.15
303.15
303.15
303.15
303.15
303.15
303.15
303.15
303.15
303.15
303.15
303.15
303.15
303.15
303.15
303.15
303.15
303.15
303.15
303.15
303.15
303.15
303.15
303.15
303.15
303.15
303.15
303.15
303.15
303.15
303.15
303.15
303.15
303.15
303.15
303.15
303.15
303.15
303.15
303.15
303.15
303.15
303.15
303.15
303.15
303.15
303.15
303.15
303.15
303.15
303.15
303.15
303.15
303.15
303.15
303.15
303.15
303.15
303.15
303.15
303.15
303.15
303.15
303.15
303.15
303.15
303.15
303.15
303.15
303.15
303.15
303.15
303.15
303.15
303.15
303.15
303.15
303.15
303.15
303.15
303.15
303.15
303.15
303.15
303.15
303.15
303.15
303.15
303.15
303.15
303.15
303.15
303.15
303.15
303.15
303.15
303.15
303.15
303.15
303.15
303.15
303.15
303.15
303.15
303.15
303.15
303.15
303.15
303.15
303.15
303.15
303.15
303.15
303.15
303.15
303.15
303.15
303.15
303.15
303.15
303.15
303.15
303.15
303.15
303.15
303.15
303.15
303.15
303.15
303.15
303.15
303.15
303.15
303.15
303.15
303.15
303.15
303.15
303.15
303.15
303.15
303.15
303.15
303.15
303.15
303.15
303.15
303.15
303.15
303.15
303.15
303.15
303.15
303.15
303.15
303.15
303.15
303.15
303.15
303.15
303.15
303.15
303.15
303.15
303.15
303.15
303.15
303.15
303.15
303.15
303.15
303.15
303.15
303.15
303.15
303.15
303.15
303.15
303.15
303.15
303.15
303.15
303.15
303.15
303.15
303.15
303.15
303.15
303.15
303.15
303.15
303.15
303.15
303.15
303.15
303.15
303.15
303.15
303.15
303.15
303.15
303.15
303.15
303.15
303.15
303.15
303.15
303.15
303.15
303.149
303.149
303.149
303.149
303.149
303.149
303.149
303.149
303.149
303.149
303.149
303.149
303.149
303.149
303.148
303.148
303.148
303.148
303.15
303.15
303.15
303.15
303.15
303.15
303.15
303.149
303.149
303.149
303.149
303.149
303.148
303.148
303.148
303.148
303.148
303.147
303.147
303.147
303.146
303.146
303.146
303.146
303.145
303.145
303.145
303.144
303.144
303.144
303.143
303.143
303.142
303.142
303.142
303.141
303.141
303.14
303.14
303.14
303.139
303.139
303.138
303.137
303.137
303.136
303.136
303.135
303.134
303.133
303.148
303.145
303.143
303.14
303.137
303.135
303.132
303.13
303.127
303.125
303.123
303.12
303.118
303.116
303.113
303.111
303.109
303.107
303.105
303.102
303.1
303.098
303.096
303.094
303.092
303.09
303.088
303.086
303.084
303.082
303.08
303.078
303.077
303.075
303.073
303.071
303.069
303.067
303.066
303.064
303.062
303.06
303.059
303.057
303.055
303.053
303.052
303.05
303.048
303.047
295.834
295.997
296.074
296.085
296.082
296.075
296.072
296.068
296.067
296.067
296.069
296.069
296.071
296.073
296.077
296.081
296.083
296.066
295.979
295.767
296.005
296.167
296.244
296.255
296.252
296.245
296.242
296.238
296.237
296.237
296.239
296.239
296.241
296.243
296.247
296.252
296.254
296.236
296.149
295.938
296.18
296.341
296.419
296.43
296.427
296.42
296.416
296.412
296.412
296.411
296.413
296.414
296.415
296.418
296.422
296.426
296.428
296.411
296.323
296.112
296.359
296.52
296.598
296.609
296.606
296.599
296.595
296.591
296.59
296.59
296.592
296.592
296.594
296.596
296.601
296.605
296.607
296.589
296.502
296.291
296.543
296.702
296.782
296.793
296.789
296.781
296.777
296.773
296.773
296.772
296.774
296.775
296.777
296.779
296.783
296.788
296.79
296.772
296.684
296.474
296.729
296.889
296.968
296.979
296.976
296.968
296.964
296.959
296.959
296.959
296.961
296.961
296.963
296.965
296.97
296.974
296.976
296.958
296.871
296.661
296.92
297.079
297.158
297.169
297.166
297.157
297.153
297.149
297.149
297.148
297.15
297.151
297.152
297.155
297.159
297.164
297.166
297.148
297.06
296.851
297.113
297.271
297.351
297.362
297.358
297.35
297.346
297.341
297.341
297.34
297.342
297.343
297.345
297.347
297.352
297.356
297.359
297.341
297.253
297.044
297.308
297.466
297.546
297.557
297.553
297.545
297.541
297.536
297.536
297.535
297.537
297.538
297.539
297.542
297.546
297.551
297.554
297.536
297.448
297.24
297.506
297.663
297.744
297.754
297.75
297.742
297.738
297.733
297.732
297.732
297.734
297.734
297.736
297.738
297.743
297.748
297.75
297.733
297.645
297.437
297.704
297.862
297.942
297.953
297.949
297.94
297.936
297.931
297.931
297.93
297.932
297.933
297.934
297.937
297.941
297.946
297.949
297.931
297.843
297.637
297.904
298.062
298.142
298.152
298.148
298.14
298.135
298.13
298.13
298.129
298.131
298.132
298.133
298.136
298.14
298.145
298.148
298.13
298.043
297.837
298.105
298.262
298.342
298.352
298.348
298.34
298.335
298.33
298.33
298.329
298.331
298.332
298.333
298.336
298.34
298.345
298.348
298.33
298.243
298.037
298.305
298.462
298.542
298.552
298.548
298.539
298.535
298.53
298.53
298.529
298.531
298.531
298.533
298.535
298.54
298.545
298.548
298.53
298.443
298.238
298.505
298.662
298.742
298.752
298.748
298.739
298.735
298.73
298.729
298.728
298.73
298.731
298.732
298.735
298.739
298.744
298.747
298.73
298.643
298.438
298.704
298.861
298.94
298.95
298.946
298.937
298.933
298.928
298.927
298.927
298.929
298.929
298.93
298.933
298.938
298.943
298.945
298.928
298.842
298.638
298.902
299.059
299.137
299.147
299.143
299.134
299.13
299.125
299.124
299.124
299.126
299.126
299.127
299.13
299.134
299.14
299.142
299.125
299.039
298.836
299.097
299.254
299.333
299.342
299.338
299.329
299.325
299.32
299.32
299.319
299.321
299.321
299.322
299.325
299.329
299.334
299.337
299.32
299.234
299.032
299.29
299.447
299.525
299.534
299.531
299.522
299.518
299.513
299.512
299.511
299.513
299.513
299.515
299.517
299.522
299.527
299.529
299.512
299.427
299.225
299.48
299.638
299.715
299.724
299.72
299.712
299.707
299.703
299.702
299.701
299.703
299.703
299.704
299.707
299.711
299.716
299.719
299.702
299.618
299.416
299.667
299.825
299.901
299.91
299.906
299.898
299.894
299.889
299.888
299.887
299.889
299.889
299.89
299.893
299.897
299.902
299.905
299.888
299.804
299.603
299.849
300.008
300.083
300.092
300.088
300.08
300.076
300.071
300.071
300.07
300.071
300.072
300.073
300.075
300.08
300.085
300.087
300.07
299.987
299.786
300.028
300.186
300.261
300.27
300.267
300.259
300.254
300.25
300.249
300.248
300.25
300.25
300.251
300.254
300.258
300.263
300.265
300.248
300.166
299.966
300.202
300.361
300.435
300.444
300.44
300.432
300.428
300.424
300.423
300.422
300.423
300.424
300.425
300.427
300.431
300.436
300.438
300.422
300.34
300.14
300.371
300.53
300.604
300.612
300.609
300.601
300.597
300.593
300.592
300.591
300.592
300.593
300.594
300.596
300.6
300.605
300.607
300.591
300.509
300.31
300.535
300.694
300.767
300.775
300.772
300.764
300.761
300.756
300.756
300.755
300.756
300.756
300.757
300.76
300.764
300.768
300.77
300.754
300.673
300.474
300.693
300.853
300.925
300.933
300.93
300.922
300.919
300.915
300.914
300.913
300.914
300.915
300.916
300.918
300.922
300.926
300.928
300.912
300.832
300.633
300.845
301.006
301.077
301.085
301.082
301.075
301.071
301.067
301.066
301.066
301.067
301.067
301.068
301.07
301.074
301.078
301.079
301.064
300.985
300.787
300.992
301.153
301.223
301.231
301.228
301.221
301.218
301.214
301.213
301.212
301.213
301.213
301.214
301.217
301.22
301.224
301.225
301.21
301.131
300.934
301.132
301.294
301.363
301.371
301.368
301.361
301.358
301.354
301.353
301.353
301.354
301.354
301.355
301.357
301.36
301.364
301.365
301.35
301.272
301.075
301.266
301.428
301.496
301.504
301.501
301.495
301.492
301.489
301.488
301.487
301.488
301.488
301.489
301.491
301.494
301.498
301.499
301.484
301.407
301.21
301.394
301.557
301.624
301.631
301.629
301.623
301.62
301.616
301.616
301.615
301.616
301.616
301.617
301.619
301.622
301.625
301.626
301.611
301.535
301.338
301.515
301.679
301.744
301.752
301.75
301.744
301.741
301.738
301.737
301.737
301.737
301.737
301.738
301.74
301.743
301.746
301.747
301.732
301.657
301.46
301.63
301.794
301.859
301.867
301.864
301.859
301.856
301.853
301.852
301.852
301.852
301.853
301.853
301.855
301.858
301.861
301.862
301.847
301.772
301.576
301.739
301.903
301.967
301.975
301.972
301.967
301.965
301.962
301.961
301.961
301.961
301.961
301.962
301.964
301.966
301.969
301.97
301.955
301.881
301.685
301.841
302.006
302.069
302.076
302.074
302.07
302.067
302.064
302.064
302.063
302.064
302.064
302.064
302.066
302.069
302.071
302.072
302.057
301.983
301.788
301.937
302.102
302.164
302.172
302.17
302.165
302.163
302.161
302.16
302.159
302.16
302.16
302.161
302.162
302.164
302.167
302.167
302.153
302.08
301.885
302.027
302.192
302.254
302.261
302.259
302.255
302.253
302.251
302.25
302.249
302.25
302.25
302.251
302.252
302.254
302.257
302.257
302.242
302.17
301.975
302.11
302.277
302.337
302.344
302.343
302.339
302.337
302.335
302.334
302.333
302.334
302.334
302.335
302.336
302.338
302.34
302.34
302.326
302.254
302.06
302.188
302.355
302.414
302.422
302.42
302.417
302.415
302.413
302.412
302.412
302.412
302.412
302.413
302.414
302.416
302.418
302.418
302.403
302.333
302.138
302.261
302.428
302.486
302.494
302.492
302.489
302.487
302.485
302.485
302.484
302.485
302.485
302.485
302.486
302.488
302.49
302.49
302.475
302.405
302.211
302.328
302.495
302.553
302.56
302.559
302.556
302.554
302.552
302.552
302.551
302.552
302.552
302.552
302.553
302.555
302.557
302.556
302.542
302.472
302.279
302.389
302.557
302.614
302.621
302.62
302.617
302.616
302.614
302.614
302.613
302.613
302.614
302.614
302.615
302.616
302.618
302.617
302.603
302.534
302.341
302.446
302.614
302.67
302.677
302.677
302.674
302.672
302.671
302.67
302.67
302.67
302.67
302.671
302.672
302.673
302.674
302.674
302.66
302.591
302.398
302.498
302.666
302.722
302.729
302.728
302.726
302.724
302.723
302.722
302.722
302.722
302.722
302.723
302.724
302.725
302.726
302.725
302.712
302.644
302.451
302.546
302.714
302.769
302.776
302.775
302.773
302.772
302.77
302.77
302.77
302.77
302.77
302.77
302.771
302.772
302.773
302.772
302.759
302.691
302.499
302.589
302.757
302.811
302.818
302.818
302.816
302.815
302.814
302.813
302.813
302.813
302.813
302.813
302.814
302.815
302.816
302.815
302.801
302.735
302.543
302.628
302.797
302.85
302.857
302.857
302.855
302.854
302.853
302.852
302.852
302.852
302.852
302.853
302.853
302.854
302.855
302.854
302.84
302.774
302.583
302.664
302.832
302.885
302.892
302.892
302.89
302.889
302.888
302.888
302.888
302.888
302.888
302.888
302.889
302.889
302.89
302.889
302.876
302.81
302.619
302.696
302.864
302.916
302.923
302.923
302.922
302.921
302.92
302.92
302.92
302.92
302.92
302.92
302.92
302.921
302.922
302.92
302.907
302.842
302.651
302.725
302.893
302.945
302.952
302.952
302.95
302.95
302.949
302.948
302.948
302.948
302.948
302.949
302.949
302.95
302.95
302.949
302.936
302.871
302.681
302.751
302.919
302.97
302.977
302.977
302.976
302.975
302.974
302.974
302.974
302.974
302.974
302.974
302.975
302.975
302.976
302.974
302.961
302.897
302.707
302.774
302.942
302.993
302.999
302.999
302.998
302.998
302.997
302.997
302.997
302.997
302.997
302.997
302.997
302.998
302.998
302.997
302.984
302.92
302.731
302.795
302.963
303.013
303.019
303.02
303.019
303.018
303.018
303.017
303.017
303.017
303.017
303.017
303.018
303.018
303.019
303.017
303.004
302.941
302.752
302.814
302.981
303.03
303.037
303.037
303.036
303.036
303.035
303.035
303.035
303.035
303.035
303.035
303.036
303.036
303.036
303.035
303.022
302.959
302.77
302.83
302.997
303.046
303.053
303.053
303.052
303.052
303.051
303.051
303.051
303.051
303.051
303.051
303.052
303.052
303.052
303.05
303.037
302.975
302.787
302.845
303.011
303.06
303.066
303.067
303.066
303.066
303.065
303.065
303.065
303.065
303.065
303.065
303.065
303.066
303.066
303.064
303.051
302.989
302.802
302.857
303.024
303.072
303.078
303.079
303.078
303.078
303.078
303.077
303.077
303.077
303.077
303.077
303.078
303.078
303.078
303.076
303.064
303.002
302.815
302.869
303.035
303.082
303.089
303.089
303.089
303.089
303.088
303.088
303.088
303.088
303.088
303.088
303.088
303.089
303.089
303.087
303.074
303.013
302.827
302.879
303.044
303.091
303.098
303.098
303.098
303.098
303.098
303.097
303.097
303.097
303.097
303.097
303.098
303.098
303.098
303.096
303.083
303.023
302.837
302.888
303.053
303.099
303.106
303.106
303.106
303.106
303.106
303.105
303.105
303.105
303.105
303.105
303.106
303.106
303.106
303.104
303.091
303.031
302.846
302.895
303.06
303.106
303.113
303.113
303.113
303.113
303.112
303.112
303.112
303.112
303.112
303.112
303.113
303.113
303.113
303.111
303.098
303.039
302.854
302.902
303.067
303.112
303.119
303.119
303.119
303.119
303.118
303.118
303.118
303.118
303.118
303.118
303.119
303.119
303.119
303.117
303.104
303.045
302.861
302.908
303.072
303.117
303.124
303.124
303.124
303.124
303.124
303.124
303.123
303.123
303.124
303.124
303.124
303.124
303.124
303.122
303.11
303.051
302.868
302.913
303.077
303.122
303.128
303.128
303.128
303.128
303.128
303.128
303.128
303.128
303.128
303.128
303.128
303.128
303.128
303.126
303.114
303.055
302.873
302.918
303.081
303.125
303.131
303.132
303.132
303.132
303.132
303.132
303.132
303.132
303.132
303.132
303.132
303.132
303.132
303.13
303.118
303.06
302.878
302.922
303.084
303.128
303.135
303.135
303.135
303.135
303.135
303.135
303.135
303.135
303.135
303.135
303.135
303.135
303.135
303.133
303.121
303.063
302.882
302.926
303.088
303.131
303.137
303.138
303.138
303.138
303.137
303.137
303.137
303.137
303.137
303.137
303.137
303.138
303.137
303.135
303.124
303.066
302.886
302.929
303.09
303.133
303.139
303.14
303.14
303.14
303.14
303.14
303.14
303.14
303.14
303.14
303.14
303.14
303.139
303.138
303.126
303.069
302.89
302.932
303.092
303.135
303.141
303.142
303.142
303.142
303.142
303.142
303.142
303.142
303.142
303.142
303.142
303.142
303.141
303.139
303.128
303.072
302.893
302.934
303.094
303.137
303.143
303.143
303.143
303.143
303.143
303.143
303.143
303.143
303.143
303.143
303.143
303.143
303.143
303.141
303.13
303.074
302.895
302.937
303.096
303.138
303.144
303.145
303.144
303.144
303.144
303.144
303.144
303.144
303.144
303.144
303.144
303.144
303.144
303.142
303.131
303.075
302.898
302.939
303.098
303.139
303.145
303.146
303.146
303.146
303.145
303.145
303.145
303.145
303.145
303.145
303.145
303.145
303.145
303.143
303.132
303.077
302.9
302.941
303.099
303.14
303.146
303.146
303.146
303.146
303.146
303.146
303.146
303.146
303.146
303.146
303.146
303.146
303.146
303.144
303.133
303.078
302.903
302.943
303.1
303.141
303.147
303.147
303.147
303.147
303.147
303.147
303.147
303.147
303.147
303.147
303.147
303.147
303.147
303.145
303.134
303.08
302.905
302.944
303.101
303.142
303.147
303.148
303.148
303.148
303.148
303.148
303.148
303.148
303.148
303.148
303.148
303.148
303.147
303.146
303.135
303.081
302.906
302.946
303.102
303.142
303.148
303.148
303.148
303.148
303.148
303.148
303.148
303.148
303.148
303.148
303.148
303.148
303.148
303.146
303.135
303.082
302.908
302.947
303.103
303.143
303.148
303.149
303.149
303.149
303.149
303.149
303.149
303.149
303.149
303.149
303.149
303.149
303.148
303.146
303.136
303.083
302.91
302.949
303.104
303.143
303.148
303.149
303.149
303.149
303.149
303.149
303.149
303.149
303.149
303.149
303.149
303.149
303.149
303.147
303.136
303.084
302.912
302.95
303.104
303.143
303.149
303.149
303.149
303.149
303.149
303.149
303.149
303.149
303.149
303.149
303.149
303.149
303.149
303.147
303.137
303.084
302.913
302.951
303.105
303.144
303.149
303.149
303.149
303.149
303.149
303.149
303.149
303.149
303.149
303.149
303.149
303.149
303.149
303.147
303.137
303.085
302.915
302.953
303.106
303.144
303.149
303.149
303.149
303.149
303.149
303.149
303.149
303.149
303.149
303.149
303.149
303.149
303.149
303.147
303.137
303.086
302.916
302.954
303.106
303.144
303.149
303.15
303.15
303.15
303.15
303.15
303.15
303.15
303.15
303.15
303.15
303.15
303.149
303.148
303.137
303.087
302.918
302.955
303.107
303.144
303.149
303.15
303.15
303.15
303.15
303.15
303.15
303.15
303.15
303.15
303.15
303.15
303.149
303.148
303.138
303.087
302.919
302.956
303.107
303.145
303.149
303.15
303.15
303.15
303.15
303.15
303.15
303.15
303.15
303.15
303.15
303.15
303.149
303.148
303.138
303.088
302.921
302.957
303.108
303.145
303.149
303.15
303.15
303.15
303.15
303.15
303.15
303.15
303.15
303.15
303.15
303.15
303.15
303.148
303.138
303.089
302.922
302.959
303.108
303.145
303.149
303.15
303.15
303.15
303.15
303.15
303.15
303.15
303.15
303.15
303.15
303.15
303.15
303.148
303.138
303.089
302.923
302.96
303.109
303.145
303.149
303.15
303.15
303.15
303.15
303.15
303.15
303.15
303.15
303.15
303.15
303.15
303.15
303.148
303.138
303.09
302.925
302.961
303.109
303.145
303.149
303.15
303.15
303.15
303.15
303.15
303.15
303.15
303.15
303.15
303.15
303.15
303.15
303.148
303.139
303.09
302.926
302.962
303.11
303.145
303.149
303.15
303.15
303.15
303.15
303.15
303.15
303.15
303.15
303.15
303.15
303.15
303.15
303.148
303.139
303.091
302.928
302.963
303.11
303.145
303.149
303.15
303.15
303.15
303.15
303.15
303.15
303.15
303.15