/*--------------------------------*- C++ -*----------------------------------*\
  =========                 |
  \\      /  F ield         | OpenFOAM: The Open Source CFD Toolbox
   \\    /   O peration     | Website:  https://openfoam.org
    \\  /    A nd           | Version:  8
     \\/     M anipulation  |
\*---------------------------------------------------------------------------*/
FoamFile
{
    version     2.0;
    format      ascii;
    class       volVectorField;
    location    "200";
    object      U;
}
// * * * * * * * * * * * * * * * * * * * * * * * * * * * * * * * * * * * * * //

dimensions      [0 1 -1 0 0 0 0];

internalField   nonuniform List<vector> 
8400
(
(-47.0307 -0.499264 1.33723e-16)
(-46.6926 -0.509318 1.29564e-16)
(-46.4394 -0.520062 1.25524e-16)
(-46.1871 -0.530404 1.1869e-16)
(-45.9435 -0.540137 1.13775e-16)
(-45.7099 -0.549341 1.11805e-16)
(-45.4872 -0.558185 1.07944e-16)
(-45.2763 -0.566853 1.0411e-16)
(-45.0774 -0.575506 1.00331e-16)
(-44.8905 -0.584275 9.36429e-17)
(-44.7153 -0.593261 8.98166e-17)
(-44.5514 -0.602536 8.94052e-17)
(-44.3982 -0.612152 8.65411e-17)
(-44.2551 -0.622145 8.38e-17)
(-44.1213 -0.632549 8.12673e-17)
(-43.9963 -0.643392 7.60243e-17)
(-43.8794 -0.654701 7.25784e-17)
(-43.7699 -0.666496 7.21207e-17)
(-43.6673 -0.678796 7.00091e-17)
(-43.5707 -0.691614 6.7993e-17)
(-43.4797 -0.704966 6.61959e-17)
(-43.3935 -0.718877 6.46273e-17)
(-43.3118 -0.733381 6.30594e-17)
(-43.2339 -0.748517 6.1224e-17)
(-43.1593 -0.764326 5.92544e-17)
(-43.0876 -0.780853 5.7053e-17)
(-43.0183 -0.798148 5.74905e-17)
(-42.9508 -0.816269 5.61952e-17)
(-42.8848 -0.835279 5.20601e-17)
(-42.8197 -0.855251 4.98533e-17)
(-42.7551 -0.87627 4.77651e-17)
(-42.6905 -0.898437 4.57105e-17)
(-42.6255 -0.921865 4.65507e-17)
(-42.5595 -0.946687 4.50516e-17)
(-42.492 -0.973056 4.04673e-17)
(-42.4225 -1.00116 3.79981e-17)
(-42.3504 -1.03121 3.54673e-17)
(-42.275 -1.06348 3.28602e-17)
(-42.1956 -1.0983 3.01449e-17)
(-42.1113 -1.13607 2.74591e-17)
(-42.0211 -1.17731 2.44103e-17)
(-41.9237 -1.22268 2.35189e-17)
(-41.8173 -1.27303 1.98783e-17)
(-41.6996 -1.32954 1.28903e-17)
(-41.5677 -1.39389 7.80217e-18)
(-41.4181 -1.46848 2.40175e-18)
(-41.2471 -1.5566 -1.10233e-18)
(-41.0449 -1.66293 -8.1366e-18)
(-40.7846 -1.79624 -2.21851e-17)
(-40.4342 -1.97606 -3.60183e-17)
(-47.5636 -0.0472337 1.00472e-15)
(-47.2526 -0.032043 1.0186e-15)
(-47.0151 -0.0116395 1.03206e-15)
(-46.7775 0.0129222 1.0451e-15)
(-46.5484 0.0406492 1.05822e-15)
(-46.3294 0.0706747 1.07209e-15)
(-46.1214 0.102195 1.08513e-15)
(-45.925 0.134506 1.09779e-15)
(-45.7404 0.167027 1.10975e-15)
(-45.5674 0.19932 1.12018e-15)
(-45.4058 0.231067 1.13111e-15)
(-45.2549 0.262062 1.1428e-15)
(-45.1141 0.292175 1.15345e-15)
(-44.9829 0.321338 1.16396e-15)
(-44.8605 0.349519 1.17429e-15)
(-44.7464 0.376715 1.18362e-15)
(-44.6399 0.402946 1.19371e-15)
(-44.5403 0.428258 1.20481e-15)
(-44.4471 0.452715 1.21519e-15)
(-44.3596 0.476393 1.22558e-15)
(-44.2772 0.499365 1.23601e-15)
(-44.1995 0.521697 1.2465e-15)
(-44.1259 0.543447 1.25814e-15)
(-44.0559 0.564677 1.26969e-15)
(-43.9891 0.585447 1.28587e-15)
(-43.925 0.605821 1.30036e-15)
(-43.8632 0.625866 1.31633e-15)
(-43.8033 0.645649 1.33202e-15)
(-43.7448 0.665239 1.34586e-15)
(-43.6874 0.684704 1.36111e-15)
(-43.6306 0.704107 1.37697e-15)
(-43.5741 0.723508 1.39092e-15)
(-43.5175 0.74297 1.4037e-15)
(-43.4603 0.762555 1.4145e-15)
(-43.4021 0.78232 1.42347e-15)
(-43.3426 0.802313 1.43284e-15)
(-43.2813 0.822571 1.44219e-15)
(-43.2176 0.843114 1.45157e-15)
(-43.1512 0.863934 1.46205e-15)
(-43.0814 0.884982 1.47161e-15)
(-43.0074 0.906152 1.48028e-15)
(-42.9285 0.927251 1.49123e-15)
(-42.8437 0.947942 1.50201e-15)
(-42.7516 0.967633 1.51201e-15)
(-42.6506 0.985264 1.52405e-15)
(-42.5393 0.999091 1.53644e-15)
(-42.4163 1.00667 1.54841e-15)
(-42.278 1.00449 1.56187e-15)
(-42.1131 0.983873 1.57571e-15)
(-41.9078 0.921116 1.59067e-15)
(-46.4238 -0.937287 5.58042e-16)
(-46.0797 -0.943158 5.63892e-16)
(-45.8268 -0.943464 5.6981e-16)
(-45.5763 -0.938397 5.74791e-16)
(-45.3357 -0.928969 5.80448e-16)
(-45.1061 -0.916401 5.87309e-16)
(-44.8881 -0.901891 5.9355e-16)
(-44.6823 -0.886475 5.99545e-16)
(-44.4885 -0.870988 6.05188e-16)
(-44.3066 -0.85605 6.10428e-16)
(-44.1361 -0.842095 6.15606e-16)
(-43.9764 -0.829412 6.20736e-16)
(-43.8267 -0.818181 6.25524e-16)
(-43.6864 -0.808508 6.29956e-16)
(-43.5549 -0.800449 6.34024e-16)
(-43.4314 -0.794017 6.36731e-16)
(-43.3152 -0.789196 6.40028e-16)
(-43.2059 -0.785943 6.44257e-16)
(-43.1026 -0.784204 6.47507e-16)
(-43.0048 -0.783924 6.50433e-16)
(-42.912 -0.785058 6.53074e-16)
(-42.8236 -0.787572 6.55573e-16)
(-42.739 -0.791443 6.5816e-16)
(-42.6578 -0.796648 6.61126e-16)
(-42.5796 -0.80317 6.64714e-16)
(-42.5039 -0.810994 6.68875e-16)
(-42.4301 -0.82011 6.74451e-16)
(-42.358 -0.830516 6.79494e-16)
(-42.287 -0.842221 6.83413e-16)
(-42.2168 -0.855243 6.88655e-16)
(-42.1468 -0.869613 6.94816e-16)
(-42.0768 -0.885375 7.01494e-16)
(-42.0062 -0.902583 7.09287e-16)
(-41.9347 -0.921306 7.1601e-16)
(-41.8617 -0.941633 7.21306e-16)
(-41.7869 -0.963677 7.27315e-16)
(-41.7096 -0.987581 7.33416e-16)
(-41.6295 -1.01353 7.39667e-16)
(-41.5458 -1.04176 7.46087e-16)
(-41.4579 -1.07259 7.52911e-16)
(-41.3652 -1.10638 7.5991e-16)
(-41.2665 -1.14366 7.67108e-16)
(-41.1608 -1.18509 7.74513e-16)
(-41.0469 -1.23156 7.82069e-16)
(-40.9231 -1.28433 7.90296e-16)
(-40.788 -1.34514 7.9958e-16)
(-40.6403 -1.41604 8.10977e-16)
(-40.4776 -1.49943 8.22217e-16)
(-40.2952 -1.60038 8.32218e-16)
(-40.0906 -1.73161 8.45027e-16)
(-45.2383 -0.648341 1.92645e-16)
(-44.92 -0.629272 1.94635e-16)
(-44.6755 -0.599179 1.96601e-16)
(-44.4316 -0.559834 1.9845e-16)
(-44.198 -0.513395 2.00168e-16)
(-43.9762 -0.462108 2.0197e-16)
(-43.7669 -0.40801 2.03772e-16)
(-43.5703 -0.352779 2.05378e-16)
(-43.386 -0.297701 2.06782e-16)
(-43.2136 -0.243707 2.06866e-16)
(-43.0524 -0.19143 2.0775e-16)
(-42.9017 -0.141281 2.09788e-16)
(-42.7606 -0.0935145 2.10832e-16)
(-42.6284 -0.0482613 2.11642e-16)
(-42.5045 -0.00557686 2.12248e-16)
(-42.3882 0.034556 2.1152e-16)
(-42.2787 0.0721973 2.11646e-16)
(-42.1756 0.107441 2.12894e-16)
(-42.0781 0.140392 2.13101e-16)
(-41.9858 0.171156 2.13092e-16)
(-41.898 0.199828 2.1294e-16)
(-41.8143 0.226496 2.127e-16)
(-41.7343 0.251244 2.12495e-16)
(-41.6575 0.274153 2.12349e-16)
(-41.5835 0.295303 2.12253e-16)
(-41.5118 0.314766 2.12231e-16)
(-41.4421 0.332608 2.1348e-16)
(-41.3741 0.348882 2.13718e-16)
(-41.3072 0.36363 2.12568e-16)
(-41.2412 0.376878 2.12488e-16)
(-41.1758 0.388639 2.12746e-16)
(-41.1105 0.398907 2.1334e-16)
(-41.045 0.40766 2.15433e-16)
(-40.9791 0.41485 2.16575e-16)
(-40.9123 0.420401 2.16272e-16)
(-40.8443 0.424199 2.16884e-16)
(-40.7748 0.42608 2.17607e-16)
(-40.7034 0.425812 2.18403e-16)
(-40.6297 0.42308 2.20573e-16)
(-40.5534 0.417463 2.21476e-16)
(-40.4739 0.4084 2.21028e-16)
(-40.3908 0.395142 2.21855e-16)
(-40.3033 0.376692 2.22249e-16)
(-40.2107 0.351724 2.22233e-16)
(-40.1122 0.318473 2.23567e-16)
(-40.007 0.274698 2.24072e-16)
(-39.8945 0.217761 2.24616e-16)
(-39.7736 0.144542 2.25256e-16)
(-39.6426 0.050551 2.2451e-16)
(-39.5007 -0.0709819 2.25881e-16)
(-43.3386 -1.36167 1.09754e-16)
(-42.9931 -1.36294 1.13055e-16)
(-42.7413 -1.34944 1.16369e-16)
(-42.4941 -1.32422 1.18532e-16)
(-42.26 -1.29052 1.21665e-16)
(-42.0391 -1.25143 1.26052e-16)
(-41.8319 -1.2096 1.2946e-16)
(-41.6378 -1.16701 1.32671e-16)
(-41.4561 -1.12511 1.35674e-16)
(-41.286 -1.08487 1.38451e-16)
(-41.1266 -1.04689 1.41447e-16)
(-40.977 -1.01153 1.44678e-16)
(-40.8364 -0.978974 1.47698e-16)
(-40.704 -0.94929 1.5056e-16)
(-40.579 -0.922462 1.533e-16)
(-40.4608 -0.898416 1.54762e-16)
(-40.3488 -0.877038 1.568e-16)
(-40.2424 -0.858197 1.59949e-16)
(-40.141 -0.841762 1.62324e-16)
(-40.044 -0.827607 1.64535e-16)
(-39.9511 -0.815625 1.66637e-16)
(-39.8617 -0.805715 1.68675e-16)
(-39.7754 -0.797781 1.70768e-16)
(-39.6919 -0.79173 1.72944e-16)
(-39.6106 -0.787479 1.75211e-16)
(-39.5313 -0.784954 1.77628e-16)
(-39.4536 -0.78409 1.80209e-16)
(-39.3771 -0.784832 1.82499e-16)
(-39.3015 -0.787139 1.84498e-16)
(-39.2264 -0.790984 1.86649e-16)
(-39.1515 -0.79635 1.88971e-16)
(-39.0766 -0.803231 1.91482e-16)
(-39.0012 -0.811639 1.94815e-16)
(-38.9251 -0.821599 1.97666e-16)
(-38.8479 -0.833159 1.99702e-16)
(-38.7694 -0.846393 2.02228e-16)
(-38.6893 -0.861422 2.04884e-16)
(-38.6074 -0.878418 2.07643e-16)
(-38.5232 -0.89762 2.10425e-16)
(-38.4366 -0.919361 2.13388e-16)
(-38.3472 -0.944108 2.16255e-16)
(-38.2548 -0.972503 2.19583e-16)
(-38.1589 -1.00544 2.22447e-16)
(-38.0594 -1.04415 2.24459e-16)
(-37.9559 -1.09032 2.26944e-16)
(-37.8484 -1.1462 2.29808e-16)
(-37.7369 -1.21462 2.33441e-16)
(-37.6217 -1.29926 2.36378e-16)
(-37.5024 -1.40531 2.37805e-16)
(-37.3791 -1.53984 2.39372e-16)
(-40.7278 -1.25585 2.13363e-17)
(-40.4098 -1.235 2.34503e-17)
(-40.1692 -1.19241 2.56469e-17)
(-39.9333 -1.13365 2.67855e-17)
(-39.7122 -1.06398 2.89483e-17)
(-39.506 -0.988103 3.24306e-17)
(-39.3144 -0.909697 3.50625e-17)
(-39.1362 -0.831376 3.75698e-17)
(-38.9702 -0.754892 3.99327e-17)
(-38.8151 -0.681352 4.1556e-17)
(-38.6699 -0.611418 4.37584e-17)
(-38.5334 -0.545456 4.67463e-17)
(-38.4049 -0.483632 4.92251e-17)
(-38.2835 -0.425985 5.15377e-17)
(-38.1685 -0.372465 5.36772e-17)
(-38.0593 -0.322962 5.50212e-17)
(-37.9554 -0.277329 5.69274e-17)
(-37.8562 -0.23541 5.96663e-17)
(-37.7613 -0.197049 6.18635e-17)
(-37.6701 -0.1621 6.39131e-17)
(-37.5824 -0.130425 6.58755e-17)
(-37.4976 -0.101891 6.77943e-17)
(-37.4155 -0.0763737 6.97256e-17)
(-37.3358 -0.0537554 7.16833e-17)
(-37.258 -0.0339305 7.36821e-17)
(-37.1819 -0.0168051 7.57814e-17)
(-37.1072 -0.00229923 7.93005e-17)
(-37.0336 0.00965128 8.17963e-17)
(-36.9608 0.0190942 8.28233e-17)
(-36.8886 0.0260622 8.4845e-17)
(-36.8167 0.0305724 8.70233e-17)
(-36.7449 0.0326238 8.93771e-17)
(-36.673 0.0321976 9.25591e-17)
(-36.6006 0.0292547 9.53174e-17)
(-36.5276 0.0237283 9.73083e-17)
(-36.4539 0.0155142 9.97977e-17)
(-36.3791 0.00446257 1.02504e-16)
(-36.3033 -0.00962713 1.05397e-16)
(-36.2262 -0.0270173 1.09216e-16)
(-36.1477 -0.0480532 1.12483e-16)
(-36.0677 -0.0731917 1.15232e-16)
(-35.9863 -0.103036 1.19645e-16)
(-35.9033 -0.13837 1.23704e-16)
(-35.819 -0.180198 1.27107e-16)
(-35.7335 -0.229801 1.31929e-16)
(-35.6473 -0.288753 1.36356e-16)
(-35.5611 -0.358906 1.41236e-16)
(-35.4765 -0.442434 1.46558e-16)
(-35.3949 -0.542146 1.51341e-16)
(-35.317 -0.661895 1.57087e-16)
(-37.2221 -1.79071 -3.05508e-17)
(-36.8983 -1.78541 -3.11324e-17)
(-36.668 -1.75 -3.16968e-17)
(-36.4491 -1.69494 -3.27581e-17)
(-36.2488 -1.62839 -3.339e-17)
(-36.0656 -1.55661 -3.32392e-17)
(-35.8973 -1.48384 -3.32869e-17)
(-35.7418 -1.41272 -3.33995e-17)
(-35.5973 -1.34478 -3.35752e-17)
(-35.462 -1.28082 -3.43753e-17)
(-35.3347 -1.2212 -3.475e-17)
(-35.2144 -1.16603 -3.43397e-17)
(-35.1001 -1.11526 -3.42098e-17)
(-34.9913 -1.06874 -3.41831e-17)
(-34.8871 -1.02628 -3.42502e-17)
(-34.7872 -0.987666 -3.49919e-17)
(-34.6911 -0.95267 -3.52961e-17)
(-34.5984 -0.921071 -3.47923e-17)
(-34.5087 -0.892665 -3.45891e-17)
(-34.4217 -0.867267 -3.44827e-17)
(-34.3371 -0.844701 -3.44155e-17)
(-34.2546 -0.824805 -3.43499e-17)
(-34.174 -0.80743 -3.4259e-17)
(-34.0949 -0.792444 -3.41287e-17)
(-34.0173 -0.779728 -3.39494e-17)
(-33.9407 -0.76918 -3.36668e-17)
(-33.8651 -0.760715 -3.26337e-17)
(-33.7903 -0.754264 -3.19971e-17)
(-33.716 -0.749773 -3.21772e-17)
(-33.6421 -0.7472 -3.19887e-17)
(-33.5683 -0.746521 -3.16443e-17)
(-33.4947 -0.747725 -3.11322e-17)
(-33.4209 -0.750815 -2.98003e-17)
(-33.3469 -0.755818 -2.90757e-17)
(-33.2725 -0.762791 -2.92879e-17)
(-33.1977 -0.771828 -2.89964e-17)
(-33.1224 -0.783064 -2.85459e-17)
(-33.0465 -0.79669 -2.79408e-17)
(-32.9702 -0.812965 -2.72361e-17)
(-32.8935 -0.832243 -2.64117e-17)
(-32.8165 -0.855006 -2.52055e-17)
(-32.7393 -0.881913 -2.32979e-17)
(-32.6623 -0.913847 -2.20346e-17)
(-32.586 -0.951956 -2.1189e-17)
(-32.5108 -0.99771 -1.99306e-17)
(-32.4377 -1.05294 -1.8663e-17)
(-32.3678 -1.11985 -1.62454e-17)
(-32.3027 -1.20096 -1.40282e-17)
(-32.2447 -1.29922 -1.30143e-17)
(-32.1948 -1.4185 -1.14457e-17)
(-32.5577 -1.81768 -2.91836e-17)
(-32.2741 -1.78999 -3.1078e-17)
(-32.0752 -1.72142 -3.30531e-17)
(-31.8932 -1.62978 -3.55855e-17)
(-31.7337 -1.52725 -3.77454e-17)
(-31.5926 -1.42192 -3.91226e-17)
(-31.466 -1.31848 -4.06329e-17)
(-31.3505 -1.21936 -4.22082e-17)
(-31.2434 -1.12571 -4.38376e-17)
(-31.1431 -1.03798 -4.6019e-17)
(-31.048 -0.956245 -4.78198e-17)
(-30.9573 -0.880415 -4.88103e-17)
(-30.8703 -0.810304 -4.99517e-17)
(-30.7862 -0.745687 -5.11732e-17)
(-30.7049 -0.686319 -5.24636e-17)
(-30.6258 -0.631952 -5.43577e-17)
(-30.5488 -0.582349 -5.58382e-17)
(-30.4735 -0.537282 -5.64709e-17)
(-30.3999 -0.49654 -5.72779e-17)
(-30.3276 -0.459923 -5.81579e-17)
(-30.2567 -0.42724 -5.90484e-17)
(-30.1868 -0.398312 -5.99182e-17)
(-30.118 -0.372974 -6.07548e-17)
(-30.05 -0.351076 -6.15542e-17)
(-29.9827 -0.332485 -6.23066e-17)
(-29.9161 -0.317078 -6.29606e-17)
(-29.8501 -0.304748 -6.2897e-17)
(-29.7846 -0.295401 -6.31833e-17)
(-29.7194 -0.28895 -6.42758e-17)
(-29.6545 -0.285322 -6.50977e-17)
(-29.5899 -0.284452 -6.57859e-17)
(-29.5255 -0.286285 -6.63653e-17)
(-29.4612 -0.290781 -6.62669e-17)
(-29.3971 -0.297914 -6.63781e-17)
(-29.333 -0.307683 -6.72666e-17)
(-29.269 -0.320106 -6.80168e-17)
(-29.2052 -0.335223 -6.86344e-17)
(-29.1417 -0.353105 -6.91603e-17)
(-29.0787 -0.373863 -6.95949e-17)
(-29.0163 -0.397666 -6.89795e-17)
(-28.9548 -0.424772 -6.91642e-17)
(-28.8949 -0.455551 -6.96342e-17)
(-28.8369 -0.490529 -6.95778e-17)
(-28.7817 -0.53042 -7.06335e-17)
(-28.7304 -0.576163 -7.14617e-17)
(-28.6842 -0.628966 -7.159e-17)
(-28.6448 -0.690318 -7.10293e-17)
(-28.6145 -0.761928 -7.04412e-17)
(-28.5964 -0.845774 -7.13555e-17)
(-28.5928 -0.944642 -7.2576e-17)
(-26.6399 -2.18763 -7.80343e-18)
(-26.3738 -2.15735 -9.30267e-18)
(-26.2154 -2.07367 -1.09858e-17)
(-26.0866 -1.96808 -1.28632e-17)
(-25.9856 -1.85717 -1.47394e-17)
(-25.9034 -1.74953 -1.62734e-17)
(-25.8335 -1.6486 -1.76479e-17)
(-25.7713 -1.55539 -1.92057e-17)
(-25.7138 -1.46981 -2.09257e-17)
(-25.6592 -1.39145 -2.33137e-17)
(-25.6063 -1.31975 -2.54159e-17)
(-25.5544 -1.25418 -2.67085e-17)
(-25.503 -1.19426 -2.81569e-17)
(-25.452 -1.13954 -2.97739e-17)
(-25.401 -1.08963 -3.15413e-17)
(-25.3499 -1.04418 -3.39853e-17)
(-25.2987 -1.00285 -3.6115e-17)
(-25.2474 -0.965373 -3.73585e-17)
(-25.196 -0.931477 -3.87542e-17)
(-25.1444 -0.900926 -4.02847e-17)
(-25.0927 -0.873501 -4.18655e-17)
(-25.041 -0.849009 -4.34515e-17)
(-24.9891 -0.827279 -4.50248e-17)
(-24.9373 -0.808166 -4.65875e-17)
(-24.8854 -0.791546 -4.81262e-17)
(-24.8336 -0.777316 -4.95635e-17)
(-24.7819 -0.76539 -5.08318e-17)
(-24.7303 -0.755698 -5.20696e-17)
(-24.6789 -0.748182 -5.36697e-17)
(-24.6278 -0.742796 -5.54663e-17)
(-24.577 -0.739516 -5.70783e-17)
(-24.5265 -0.738329 -5.85029e-17)
(-24.4765 -0.739243 -5.97303e-17)
(-24.427 -0.742283 -6.09092e-17)
(-24.378 -0.747492 -6.24432e-17)
(-24.3299 -0.754933 -6.41894e-17)
(-24.2826 -0.764687 -6.57628e-17)
(-24.2365 -0.776867 -6.72068e-17)
(-24.1918 -0.791614 -6.77705e-17)
(-24.1489 -0.809119 -6.88677e-17)
(-24.1081 -0.829653 -7.06277e-17)
(-24.0702 -0.853582 -7.08878e-17)
(-24.0358 -0.881395 -7.14389e-17)
(-24.0061 -0.913736 -7.28873e-17)
(-23.9821 -0.951449 -7.31842e-17)
(-23.9656 -0.995612 -7.35771e-17)
(-23.9583 -1.04759 -7.34964e-17)
(-23.9629 -1.10898 -7.28829e-17)
(-23.9833 -1.18154 -7.28753e-17)
(-24.0227 -1.26775 -7.1609e-17)
(-19.3885 -2.30227 4.97022e-18)
(-19.1527 -2.21987 4.67481e-18)
(-19.0467 -2.07232 4.24499e-18)
(-18.9851 -1.91697 3.01742e-18)
(-18.9551 -1.76985 2.15823e-18)
(-18.9422 -1.63624 2.44526e-18)
(-18.9375 -1.51597 2.63376e-18)
(-18.9359 -1.40744 2.56152e-18)
(-18.9347 -1.30898 2.26496e-18)
(-18.9324 -1.21924 1.4519e-18)
(-18.9284 -1.13716 6.37e-19)
(-18.9221 -1.06197 5.81409e-19)
(-18.9135 -0.993062 6.58016e-19)
(-18.9025 -0.929952 4.68377e-19)
(-18.8893 -0.87225 4.8408e-20)
(-18.8738 -0.819624 -1.23108e-18)
(-18.8563 -0.77178 -2.34236e-18)
(-18.8369 -0.72846 -2.47185e-18)
(-18.8157 -0.689425 -2.70286e-18)
(-18.793 -0.654456 -3.22515e-18)
(-18.7689 -0.623349 -3.92973e-18)
(-18.7437 -0.595917 -4.7594e-18)
(-18.7174 -0.571989 -5.68718e-18)
(-18.6903 -0.551412 -6.70557e-18)
(-18.6626 -0.53405 -7.81493e-18)
(-18.6345 -0.519779 -8.94812e-18)
(-18.6061 -0.508483 -9.72571e-18)
(-18.5776 -0.500041 -1.06684e-17)
(-18.5492 -0.494343 -1.24934e-17)
(-18.5211 -0.491291 -1.46226e-17)
(-18.4934 -0.490803 -1.66717e-17)
(-18.4663 -0.492803 -1.8665e-17)
(-18.4399 -0.497219 -2.02763e-17)
(-18.4144 -0.503976 -2.20986e-17)
(-18.3901 -0.513003 -2.48315e-17)
(-18.3671 -0.524234 -2.79501e-17)
(-18.3457 -0.537607 -3.10864e-17)
(-18.3262 -0.55307 -3.43093e-17)
(-18.309 -0.570586 -3.77218e-17)
(-18.2946 -0.590133 -4.10061e-17)
(-18.2834 -0.611721 -4.48557e-17)
(-18.2763 -0.635441 -4.91045e-17)
(-18.2742 -0.661459 -5.36221e-17)
(-18.2783 -0.690059 -5.93276e-17)
(-18.2901 -0.721653 -6.56687e-17)
(-18.3116 -0.756867 -7.19496e-17)
(-18.3448 -0.796596 -7.84874e-17)
(-18.3929 -0.84201 -8.62872e-17)
(-18.4606 -0.894332 -9.60565e-17)
(-18.5528 -0.955072 -1.0693e-16)
(-11.1102 -2.527 6.65046e-18)
(-10.896 -2.35731 6.71696e-18)
(-10.8276 -2.15388 6.40983e-18)
(-10.8379 -1.971 5.06453e-18)
(-10.8753 -1.81681 3.60496e-18)
(-10.924 -1.68753 3.81471e-18)
(-10.9747 -1.57709 4.71892e-18)
(-11.0233 -1.48095 5.19179e-18)
(-11.0683 -1.39609 5.24951e-18)
(-11.1089 -1.32043 4.40801e-18)
(-11.145 -1.25254 3.60008e-18)
(-11.1767 -1.19137 4.30918e-18)
(-11.2041 -1.13614 5.52235e-18)
(-11.2275 -1.08622 6.30982e-18)
(-11.247 -1.04107 6.69883e-18)
(-11.263 -1.00025 6.68548e-18)
(-11.2756 -0.963363 6.42578e-18)
(-11.2853 -0.930068 7.15958e-18)
(-11.2923 -0.900062 8.70124e-18)
(-11.2969 -0.873074 9.87321e-18)
(-11.2994 -0.848863 1.08598e-17)
(-11.3002 -0.827214 1.17737e-17)
(-11.2994 -0.807943 1.26849e-17)
(-11.2973 -0.790898 1.36349e-17)
(-11.2943 -0.775957 1.46612e-17)
(-11.2907 -0.76302 1.5919e-17)
(-11.2867 -0.751992 1.80258e-17)
(-11.2825 -0.742791 2.01746e-17)
(-11.2784 -0.735359 2.10513e-17)
(-11.2748 -0.729669 2.15773e-17)
(-11.2717 -0.725718 2.25657e-17)
(-11.2694 -0.723514 2.39874e-17)
(-11.2681 -0.723065 2.63891e-17)
(-11.2681 -0.724366 2.89696e-17)
(-11.2696 -0.727411 3.03347e-17)
(-11.273 -0.732201 3.13284e-17)
(-11.2785 -0.738746 3.27566e-17)
(-11.2864 -0.747044 3.44704e-17)
(-11.2972 -0.757091 3.70962e-17)
(-11.3113 -0.768873 3.94521e-17)
(-11.3294 -0.782359 4.12171e-17)
(-11.3521 -0.797539 4.43072e-17)
(-11.3806 -0.814433 4.78139e-17)
(-11.4161 -0.833099 5.01502e-17)
(-11.4601 -0.85362 5.22357e-17)
(-11.5147 -0.876164 5.45098e-17)
(-11.5822 -0.901109 5.67951e-17)
(-11.6658 -0.929139 5.9369e-17)
(-11.771 -0.960935 6.07514e-17)
(-11.9044 -0.996674 6.03911e-17)
(-1.99203 -2.83618 6.31692e-18)
(-2.14746 -2.35252 7.37598e-18)
(-2.08101 -2.09121 8.25707e-18)
(-2.14232 -1.86983 8.20232e-18)
(-2.22181 -1.69412 5.06639e-18)
(-2.30812 -1.55547 3.11742e-18)
(-2.39395 -1.43935 4.58746e-18)
(-2.47596 -1.33696 5.82774e-18)
(-2.55259 -1.2444 6.37305e-18)
(-2.6233 -1.1598 5.65574e-18)
(-2.68803 -1.08202 2.58822e-18)
(-2.74687 -1.01028 9.78035e-19)
(-2.80002 -0.944072 2.5432e-18)
(-2.84779 -0.882981 3.57854e-18)
(-2.89056 -0.826668 3.75836e-18)
(-2.92868 -0.774829 2.25171e-18)
(-2.96256 -0.727207 -1.29857e-18)
(-2.99256 -0.683577 -2.90261e-18)
(-3.01907 -0.643759 -1.9119e-18)
(-3.04248 -0.607597 -1.649e-18)
(-3.06319 -0.574939 -1.88583e-18)
(-3.08154 -0.545637 -2.4296e-18)
(-3.09787 -0.519561 -3.23209e-18)
(-3.11256 -0.496621 -4.2252e-18)
(-3.12598 -0.476749 -5.37914e-18)
(-3.13853 -0.459859 -6.06991e-18)
(-3.15054 -0.44584 -5.32099e-18)
(-3.16234 -0.434589 -2.66795e-18)
(-3.17422 -0.426042 -2.18378e-18)
(-3.1865 -0.420174 -4.32736e-18)
(-3.19955 -0.416973 -5.7431e-18)
(-3.21371 -0.416399 -6.24575e-18)
(-3.22933 -0.418362 -5.54481e-18)
(-3.24676 -0.42272 -2.27532e-18)
(-3.26635 -0.429298 -5.19458e-19)
(-3.28852 -0.437956 -1.59341e-18)
(-3.31371 -0.448572 -1.91729e-18)
(-3.34239 -0.460967 -1.54535e-18)
(-3.375 -0.474871 -8.91198e-19)
(-3.41203 -0.489909 2.29369e-18)
(-3.45417 -0.505719 5.05119e-18)
(-3.50221 -0.521864 6.67053e-18)
(-3.557 -0.537922 1.15619e-17)
(-3.61996 -0.553335 1.5361e-17)
(-3.69247 -0.56751 1.74136e-17)
(-3.77646 -0.57976 2.31742e-17)
(-3.87407 -0.58969 3.03427e-17)
(-3.98834 -0.597693 3.80555e-17)
(-4.12526 -0.604866 4.38551e-17)
(-4.29689 -0.610219 4.73196e-17)
(7.20192 -3.52358 5.32851e-18)
(6.96259 -2.74636 5.53318e-18)
(6.79171 -2.31404 5.60899e-18)
(6.69355 -2.04436 6.80881e-18)
(6.60417 -1.85323 7.38138e-18)
(6.50677 -1.71459 6.13636e-18)
(6.40578 -1.61356 5.47942e-18)
(6.30558 -1.53779 5.374e-18)
(6.20834 -1.47878 5.38655e-18)
(6.11535 -1.43144 6.58848e-18)
(6.02749 -1.39269 7.0387e-18)
(5.94529 -1.36055 5.54542e-18)
(5.86891 -1.33363 4.7449e-18)
(5.79829 -1.31092 4.56748e-18)
(5.73322 -1.2917 4.49197e-18)
(5.67345 -1.27537 5.83695e-18)
(5.61868 -1.26146 6.40467e-18)
(5.56859 -1.24957 4.77328e-18)
(5.52283 -1.23934 3.86456e-18)
(5.48106 -1.23048 3.34095e-18)
(5.44292 -1.22274 2.98566e-18)
(5.40805 -1.2159 2.7307e-18)
(5.37613 -1.20977 2.49159e-18)
(5.34683 -1.2042 2.22566e-18)
(5.31982 -1.19907 1.6492e-18)
(5.29475 -1.19429 9.8683e-19)
(5.27125 -1.18978 -1.13119e-18)
(5.249 -1.18548 -2.27947e-18)
(5.22769 -1.1813 -1.12831e-18)
(5.207 -1.17722 -7.93535e-19)
(5.18655 -1.17321 -1.14948e-18)
(5.16595 -1.16928 -1.55912e-18)
(5.14476 -1.16543 -3.78509e-18)
(5.12251 -1.16162 -5.36659e-18)
(5.09874 -1.15782 -4.39569e-18)
(5.07292 -1.15398 -4.04852e-18)
(5.04437 -1.1501 -3.96506e-18)
(5.0123 -1.14618 -3.8511e-18)
(4.97591 -1.14222 -4.09099e-18)
(4.93419 -1.13818 -4.45957e-18)
(4.88631 -1.13395 -4.46712e-18)
(4.83108 -1.1295 -5.9245e-18)
(4.76734 -1.12476 -6.07995e-18)
(4.69366 -1.11968 -3.9959e-18)
(4.60859 -1.11416 -2.92943e-18)
(4.51032 -1.10792 -2.53761e-18)
(4.39669 -1.10043 -4.03637e-18)
(4.26429 -1.0908 -4.04761e-18)
(4.10921 -1.07893 5.45622e-19)
(3.90336 -1.06289 5.23366e-18)
(16.6112 -2.25125 4.99792e-18)
(16.3209 -1.78965 5.08835e-18)
(16.0419 -1.47409 4.96127e-18)
(15.8539 -1.24119 5.54263e-18)
(15.7006 -1.0448 6.09917e-18)
(15.5536 -0.87391 5.6362e-18)
(15.412 -0.725895 5.38085e-18)
(15.278 -0.596565 5.34443e-18)
(15.152 -0.481621 5.08767e-18)
(15.0337 -0.378105 5.67583e-18)
(14.9228 -0.284174 6.1934e-18)
(14.8194 -0.198582 5.65038e-18)
(14.7232 -0.120402 5.34555e-18)
(14.6338 -0.0489236 5.27534e-18)
(14.5508 0.0163981 4.98986e-18)
(14.4739 0.075993 5.6017e-18)
(14.4025 0.130221 6.03512e-18)
(14.3363 0.179402 5.38013e-18)
(14.2749 0.223829 4.97084e-18)
(14.2179 0.26376 4.67337e-18)
(14.1648 0.299432 4.4484e-18)
(14.1153 0.331059 4.2476e-18)
(14.0691 0.35883 4.05098e-18)
(14.0257 0.382904 3.83662e-18)
(13.9849 0.403415 3.50946e-18)
(13.9464 0.420489 3.37365e-18)
(13.9098 0.434246 2.3858e-18)
(13.8749 0.444806 1.60804e-18)
(13.8414 0.452278 1.96177e-18)
(13.8089 0.456758 2.04094e-18)
(13.7772 0.458347 1.88649e-18)
(13.7459 0.457169 1.85736e-18)
(13.7146 0.453405 8.65189e-19)
(13.6829 0.447301 -4.89071e-20)
(13.6504 0.439153 1.26995e-19)
(13.6165 0.429313 1.1295e-20)
(13.5805 0.41821 -3.08302e-19)
(13.5416 0.406356 -6.22926e-19)
(13.4988 0.394414 -1.52416e-18)
(13.451 0.383156 -2.12443e-18)
(13.397 0.373515 -1.58548e-18)
(13.3352 0.36652 -2.28939e-18)
(13.264 0.363404 -3.00171e-18)
(13.1811 0.36563 -2.44111e-18)
(13.0845 0.374971 -2.71554e-18)
(12.9717 0.393636 -2.4113e-18)
(12.8398 0.424421 -2.52216e-18)
(12.6861 0.470699 -3.235e-18)
(12.5094 0.535531 -2.63004e-18)
(12.3004 0.621072 -1.8923e-18)
(26.8676 -3.27155 4.51311e-18)
(26.3626 -2.89926 4.56659e-18)
(25.8999 -2.63862 4.36989e-18)
(25.5748 -2.47657 4.79442e-18)
(25.3253 -2.36536 5.30506e-18)
(25.1082 -2.28543 4.95315e-18)
(24.9136 -2.23015 4.75848e-18)
(24.7396 -2.1933 4.7186e-18)
(24.5834 -2.16889 4.30238e-18)
(24.4418 -2.15262 4.65351e-18)
(24.3125 -2.1417 5.28041e-18)
(24.1939 -2.13428 4.97392e-18)
(24.0848 -2.12908 4.82303e-18)
(23.984 -2.12521 4.80945e-18)
(23.8906 -2.12204 4.4151e-18)
(23.8039 -2.11918 4.77467e-18)
(23.7232 -2.11633 5.36354e-18)
(23.6478 -2.11327 4.96785e-18)
(23.5772 -2.10987 4.70641e-18)
(23.511 -2.10601 4.51247e-18)
(23.4486 -2.10162 4.3524e-18)
(23.3896 -2.09666 4.20748e-18)
(23.3337 -2.0911 4.06985e-18)
(23.2806 -2.08493 3.9311e-18)
(23.2298 -2.07817 3.72295e-18)
(23.1811 -2.0708 3.95087e-18)
(23.1342 -2.06283 3.37605e-18)
(23.0887 -2.05427 2.59054e-18)
(23.0446 -2.04511 2.79917e-18)
(23.0013 -2.03536 2.86505e-18)
(22.9588 -2.02502 2.82063e-18)
(22.9165 -2.01404 3.12487e-18)
(22.8743 -2.00238 2.68929e-18)
(22.8316 -1.98993 2.06467e-18)
(22.788 -1.97659 2.33934e-18)
(22.743 -1.96222 2.37742e-18)
(22.6959 -1.94665 2.27043e-18)
(22.6458 -1.92968 2.50009e-18)
(22.5918 -1.91107 2.14778e-18)
(22.5327 -1.89059 1.2897e-18)
(22.467 -1.86805 1.04285e-18)
(22.3932 -1.8433 4.09646e-19)
(22.3093 -1.81627 -1.58062e-19)
(22.213 -1.78693 1.47707e-19)
(22.1021 -1.75529 -9.25933e-20)
(21.9738 -1.72112 -8.79176e-20)
(21.8245 -1.68343 -4.57085e-19)
(21.649 -1.63999 -1.17001e-18)
(21.4422 -1.58808 -4.5246e-19)
(21.1919 -1.52963 -2.42093e-19)
(35.1649 -0.0838458 3.6636e-18)
(35.126 0.214456 3.71978e-18)
(34.9397 0.428331 3.45115e-18)
(34.8191 0.587561 3.76068e-18)
(34.7506 0.721202 4.23099e-18)
(34.6921 0.838212 4.03506e-18)
(34.634 0.939167 3.93996e-18)
(34.5779 1.02548 3.93419e-18)
(34.5239 1.09968 3.63745e-18)
(34.471 1.16394 3.91948e-18)
(34.418 1.21974 4.36904e-18)
(34.3649 1.26818 4.16385e-18)
(34.3115 1.31012 4.07588e-18)
(34.2578 1.34629 4.08637e-18)
(34.2038 1.37726 3.80307e-18)
(34.1494 1.40353 4.04924e-18)
(34.0946 1.42551 4.46046e-18)
(34.0396 1.44358 4.22318e-18)
(33.9842 1.45805 4.05884e-18)
(33.9285 1.46921 3.93564e-18)
(33.8724 1.4773 3.81528e-18)
(33.8159 1.48253 3.68708e-18)
(33.759 1.48507 3.53333e-18)
(33.7015 1.48508 3.37372e-18)
(33.6435 1.48269 3.1606e-18)
(33.5849 1.47804 3.33371e-18)
(33.5256 1.47124 3.03665e-18)
(33.4655 1.46241 2.5563e-18)
(33.4046 1.45165 2.65779e-18)
(33.3427 1.43909 2.59775e-18)
(33.2797 1.4249 2.43719e-18)
(33.2154 1.40928 2.66073e-18)
(33.1497 1.3925 2.44391e-18)
(33.0822 1.3749 2.04181e-18)
(33.0128 1.35694 2.22565e-18)
(32.9409 1.33919 2.27632e-18)
(32.866 1.32241 2.22631e-18)
(32.7876 1.30755 2.18202e-18)
(32.7047 1.29584 1.92924e-18)
(32.6162 1.28873 1.74335e-18)
(32.5207 1.28789 2.21141e-18)
(32.4166 1.2953 1.9277e-18)
(32.302 1.31321 1.36548e-18)
(32.1746 1.3441 1.48343e-18)
(32.0325 1.38975 1.25465e-18)
(31.8746 1.45128 1.43346e-18)
(31.7001 1.52915 1.27757e-18)
(31.5093 1.62267 4.63821e-19)
(31.3195 1.72457 3.2617e-19)
(31.1239 1.83539 5.23261e-19)
(52.1589 -4.39464 3.49608e-18)
(51.4642 -4.19713 3.5166e-18)
(50.8103 -4.05145 3.08063e-18)
(50.2962 -3.94315 3.24475e-18)
(49.8719 -3.85252 3.8213e-18)
(49.4918 -3.77243 3.66743e-18)
(49.1419 -3.70129 3.57732e-18)
(48.8194 -3.6377 3.55915e-18)
(48.521 -3.57997 3.06686e-18)
(48.2424 -3.52666 3.20277e-18)
(47.9804 -3.47676 3.76408e-18)
(47.7327 -3.42956 3.58275e-18)
(47.4973 -3.38454 3.4777e-18)
(47.2728 -3.34132 3.46784e-18)
(47.058 -3.2996 3.40248e-18)
(46.8518 -3.25917 3.4544e-18)
(46.6533 -3.21988 3.52519e-18)
(46.4618 -3.18159 3.372e-18)
(46.2765 -3.14421 3.27114e-18)
(46.0969 -3.10766 3.19244e-18)
(45.9224 -3.07188 3.117e-18)
(45.7525 -3.03681 3.044e-18)
(45.5868 -3.00241 2.96583e-18)
(45.4248 -2.96863 2.87071e-18)
(45.2661 -2.93541 2.72128e-18)
(45.1105 -2.90271 3.05487e-18)
(44.9575 -2.87047 2.70348e-18)
(44.807 -2.83864 1.99016e-18)
(44.6586 -2.80716 2.06367e-18)
(44.512 -2.77595 2.07244e-18)
(44.3671 -2.74492 2.00322e-18)
(44.2236 -2.71396 2.27331e-18)
(44.0813 -2.68293 1.86557e-18)
(43.9399 -2.65168 1.20207e-18)
(43.7993 -2.62 1.33163e-18)
(43.6591 -2.58763 1.39922e-18)
(43.519 -2.55425 1.41529e-18)
(43.3785 -2.51948 1.81327e-18)
(43.2372 -2.48289 1.69331e-18)
(43.0941 -2.44412 1.1508e-18)
(42.9481 -2.40297 1.20425e-18)
(42.7979 -2.3592 1.05692e-18)
(42.6419 -2.31193 8.62079e-19)
(42.4768 -2.25879 1.053e-18)
(42.2994 -2.19689 1.1617e-18)
(42.1093 -2.12439 1.17313e-18)
(41.9178 -2.03628 9.95954e-19)
(41.7258 -1.93374 7.95668e-19)
(41.5213 -1.81012 1.19527e-18)
(41.2895 -1.65381 1.64753e-18)
(51.3949 3.32701 3.77464e-18)
(51.5758 3.42866 3.80369e-18)
(51.6315 3.43608 3.35343e-18)
(51.7458 3.42908 3.51333e-18)
(51.9034 3.41267 4.06595e-18)
(52.0564 3.38851 3.90334e-18)
(52.1907 3.35988 3.79127e-18)
(52.3076 3.32839 3.74492e-18)
(52.4087 3.29472 3.26906e-18)
(52.4944 3.25935 3.4753e-18)
(52.5655 3.22274 4.01891e-18)
(52.6234 3.18525 3.84901e-18)
(52.6693 3.14716 3.73297e-18)
(52.7046 3.10868 3.6734e-18)
(52.7304 3.07002 3.57316e-18)
(52.7478 3.0313 3.64174e-18)
(52.7578 2.99263 3.71903e-18)
(52.7611 2.9541 3.58183e-18)
(52.7586 2.91572 3.48008e-18)
(52.751 2.87753 3.40149e-18)
(52.7388 2.83951 3.33148e-18)
(52.7226 2.80166 3.26934e-18)
(52.7028 2.76396 3.21436e-18)
(52.6799 2.72639 3.15956e-18)
(52.6544 2.68892 3.07276e-18)
(52.6265 2.65153 3.44018e-18)
(52.5965 2.61421 3.19026e-18)
(52.5648 2.57695 2.5805e-18)
(52.5316 2.53979 2.65953e-18)
(52.497 2.50278 2.68747e-18)
(52.4612 2.46603 2.66378e-18)
(52.4242 2.42972 3.07975e-18)
(52.3859 2.39411 2.8687e-18)
(52.3462 2.35958 2.27814e-18)
(52.3047 2.3267 2.36048e-18)
(52.2608 2.29631 2.38465e-18)
(52.2134 2.26959 2.35822e-18)
(52.1609 2.24826 2.32227e-18)
(52.1007 2.23466 2.12614e-18)
(52.0292 2.23161 2.01701e-18)
(51.9423 2.24128 2.44474e-18)
(51.8364 2.26446 2.22403e-18)
(51.7095 2.30029 1.7237e-18)
(51.5676 2.34484 1.8466e-18)
(51.4305 2.39162 1.72447e-18)
(51.2935 2.43972 2.11206e-18)
(51.145 2.48666 2.04105e-18)
(50.9863 2.53807 1.04698e-18)
(50.8209 2.60312 7.87258e-19)
(50.6373 2.70088 1.7959e-18)
(89.4701 -6.54467 4.23548e-18)
(88.6109 -6.47428 4.25052e-18)
(87.8955 -6.3281 4.16093e-18)
(87.2988 -6.13909 4.18518e-18)
(86.7614 -5.94036 4.30575e-18)
(86.2619 -5.74444 4.2458e-18)
(85.7948 -5.55565 4.18787e-18)
(85.3578 -5.37636 4.15903e-18)
(84.9481 -5.20776 3.73072e-18)
(84.5624 -5.05002 3.91564e-18)
(84.1977 -4.90271 4.44512e-18)
(83.8518 -4.76519 4.25964e-18)
(83.5224 -4.6367 4.14443e-18)
(83.2078 -4.51652 4.09555e-18)
(82.9065 -4.40393 4.06269e-18)
(82.617 -4.29826 4.09681e-18)
(82.338 -4.19891 4.10608e-18)
(82.0686 -4.10534 4.01673e-18)