/*--------------------------------*- C++ -*----------------------------------*\
  =========                 |
  \\      /  F ield         | OpenFOAM: The Open Source CFD Toolbox
   \\    /   O peration     | Website:  https://openfoam.org
    \\  /    A nd           | Version:  8
     \\/     M anipulation  |
\*---------------------------------------------------------------------------*/
FoamFile
{
    version     2.0;
    format      ascii;
    class       volScalarField;
    location    "700";
    object      alphat;
}
// * * * * * * * * * * * * * * * * * * * * * * * * * * * * * * * * * * * * * //

dimensions      [1 -1 -1 0 0 0 0];

internalField   nonuniform List<scalar> 
8400
(
0.0724904
0.0717285
0.0710348
0.0703884
0.0697797
0.0691989
0.0686294
0.0680526
0.0674571
0.0668412
0.0662109
0.0655793
0.0649651
0.0643914
0.0638853
0.0634781
0.063209
0.063127
0.0632841
0.0636932
0.0642414
0.0646587
0.0646839
0.0642663
0.0634541
0.0623067
0.0612273
0.0601308
0.0589965
0.0579947
0.0571682
0.0563574
0.0554506
0.0544674
0.0534157
0.0523055
0.0511385
0.0499231
0.0486583
0.0473338
0.0459391
0.0444595
0.0428769
0.0411828
0.0393806
0.037494
0.0355755
0.0337136
0.0320282
0.0306508
0.0560931
0.0560752
0.0560368
0.0559998
0.0559573
0.0559088
0.0558566
0.055802
0.0557404
0.0556654
0.0555685
0.0554408
0.0552689
0.0550314
0.0546977
0.0542322
0.0536036
0.0528051
0.0518977
0.0510644
0.0505615
0.0504657
0.0505659
0.0506381
0.0506678
0.0506241
0.05028
0.0499928
0.0499427
0.0499193
0.0497414
0.0495077
0.0492779
0.0490312
0.0487611
0.04847
0.0481464
0.0477764
0.0473374
0.0468052
0.0461492
0.045333
0.0443217
0.0430822
0.0415886
0.0398351
0.0378461
0.0356905
0.0334959
0.0314509
0.0582893
0.0578541
0.0576442
0.0575213
0.0574629
0.0574751
0.057582
0.0577762
0.0580175
0.0582761
0.0585118
0.0586837
0.0587576
0.0587082
0.0585089
0.0581219
0.0574765
0.056472
0.0550593
0.0534468
0.0521609
0.0515376
0.0512916
0.0507402
0.0509802
0.0510562
0.0511206
0.0511954
0.0512571
0.0512701
0.0511357
0.0510397
0.0509583
0.0508622
0.0507532
0.050636
0.0504999
0.0503316
0.0501128
0.0498197
0.0494214
0.048881
0.0481561
0.0472007
0.0459687
0.0444226
0.0425449
0.0403535
0.0379315
0.0354512
0.0611736
0.0611044
0.0610329
0.0609596
0.060885
0.0608092
0.0607356
0.0606671
0.0606044
0.0605478
0.0604979
0.0604537
0.0604126
0.0603729
0.0603336
0.0602912
0.060239
0.0601683
0.0600676
0.0599858
0.0598838
0.0597446
0.0594932
0.0504222
0.051552
0.0517844
0.0519885
0.052168
0.0522708
0.0522877
0.0516593
0.051846
0.0518601
0.0518564
0.0518654
0.051868
0.0518631
0.0518368
0.0517756
0.0516651
0.0514775
0.0511808
0.0507371
0.0500994
0.0492189
0.0480434
0.0465213
0.0446234
0.0423655
0.03985
0.0612113
0.0611854
0.0611592
0.0611326
0.0611059
0.0610797
0.0610535
0.061027
0.0610001
0.0609727
0.060945
0.0609169
0.0608882
0.060859
0.0608296
0.0608006
0.0607726
0.0607428
0.0607124
0.0606578
0.0605898
0.0605011
0.0603762
0.0593722
0.0584105
0.0574714
0.0566736
0.0561537
0.056252
0.0536964
0.0515375
0.0523583
0.0524905
0.0522673
0.0523658
0.0524584
0.0525406
0.0526086
0.05266
0.0526788
0.0526466
0.05254
0.0523244
0.0519601
0.0514047
0.05061
0.0495249
0.0480956
0.046287
0.0441205
0.0612016
0.0611652
0.0611287
0.061092
0.0610552
0.061018
0.0609804
0.0609421
0.0609037
0.0608652
0.0608265
0.0607873
0.0607478
0.060708
0.0606682
0.0606281
0.0605874
0.0605521
0.0605225
0.060498
0.0604745
0.0604452
0.0604002
0.0601767
0.0597758
0.0592363
0.0586332
0.0580582
0.0575953
0.0567475
0.0561105
0.0562525
0.0521172
0.052335
0.0524785
0.0526001
0.0527488
0.0528869
0.0530201
0.0531371
0.0532263
0.05326
0.0532141
0.0530521
0.0527444
0.0522558
0.0515502
0.0505825
0.0493042
0.0476923
0.0611971
0.0611555
0.0611136
0.0610711
0.0610283
0.0609849
0.060941
0.0608968
0.0608519
0.0608064
0.0607605
0.0607142
0.0606674
0.0606202
0.0605724
0.060525
0.0604789
0.0604349
0.0603947
0.0603607
0.0603346
0.0603152
0.0602963
0.0602345
0.0600796
0.0598082
0.0594334
0.058995
0.0585352
0.057978
0.0573998
0.0569365
0.0555822
0.054804
0.0524107
0.0524714
0.0526641
0.0528294
0.0530426
0.0532449
0.0534527
0.0535899
0.0536757
0.0536631
0.0535249
0.0532436
0.0528012
0.0521757
0.0513339
0.0502505
0.0611896
0.0611397
0.0610899
0.0610392
0.060988
0.0609367
0.0608845
0.060832
0.0607789
0.0607251
0.0606702
0.0606146
0.0605584
0.0605019
0.0604459
0.060391
0.0603387
0.0602896
0.0602449
0.0602064
0.0601773
0.0601595
0.0601506
0.0601353
0.0600809
0.0599534
0.0597372
0.0594377
0.0590755
0.058644
0.0581509
0.0576364
0.0568412
0.0560201
0.0546614
0.0537157
0.0520699
0.0526591
0.0529629
0.0532162
0.0534939
0.0537097
0.0539051
0.0540035
0.053985
0.0538377
0.0535598
0.0531451
0.05258
0.0518548
0.0611799
0.0611187
0.0610572
0.0609953
0.0609328
0.0608697
0.0608061
0.0607413
0.0606757
0.0606099
0.0605434
0.0604769
0.0604105
0.0603445
0.0602794
0.0602168
0.0601582
0.0601048
0.060058
0.0600206
0.0599932
0.0599778
0.0599754
0.0599811
0.0599737
0.0599243
0.0598101
0.0596177
0.0593527
0.0590168
0.0586095
0.0581463
0.0575451
0.0568436
0.0558948
0.0549334
0.0537401
0.0531834
0.0524158
0.0538459
0.0534694
0.0537439
0.0540295
0.0542115
0.0542772
0.0542161
0.0540436
0.0537537
0.0533429
0.0528117
0.0611631
0.0610824
0.0610019
0.0609207
0.06084
0.0607579
0.0606763
0.0605936
0.0605106
0.0604279
0.060345
0.0602614
0.0601778
0.0600965
0.0600206
0.0599521
0.0598911
0.0598388
0.0597967
0.0597681
0.0597531
0.0597527
0.0597662
0.0597909
0.0598149
0.0598147
0.0597669
0.0596536
0.0594682
0.0592106
0.0588803
0.0584844
0.0579923
0.0574057
0.0566718
0.0558594
0.0549642
0.0542741
0.0535908
0.0534462
0.0535173
0.0538365
0.0541608
0.0543841
0.0544976
0.0544849
0.0543806
0.05417
0.0538491
0.0534246
0.0611306
0.0610101
0.0608932
0.0607775
0.060663
0.0605482
0.0604323
0.0603166
0.0602019
0.0600858
0.0599732
0.0598659
0.0597649
0.0596726
0.0595912
0.0595241
0.0594735
0.0594422
0.0594272
0.0594284
0.0594448
0.0594767
0.0595227
0.0595752
0.0596285
0.0596669
0.0596664
0.0596092
0.0594843
0.0592903
0.0590246
0.0586907
0.0582783
0.0577856
0.0571907
0.0565224
0.0558132
0.0551954
0.0546873
0.054472
0.0542954
0.0543342
0.0544722
0.0546129
0.0547022
0.0547153
0.0546406
0.0544722
0.0542091
0.0538577
0.0610382
0.0608107
0.0606071
0.0604281
0.0602483
0.0600812
0.0599054
0.0597344
0.059574
0.0594174
0.0592675
0.0591339
0.0590261
0.0589472
0.0588953
0.0588768
0.0588877
0.0589246
0.0589798
0.0590437
0.0591109
0.0591857
0.0592666
0.0593536
0.0594393
0.0595088
0.0595421
0.0595252
0.0594438
0.0592958
0.0590803
0.0587995
0.05845
0.0580316
0.057537
0.0569852
0.0564098
0.0558863
0.0554617
0.0551983
0.0550549
0.0549796
0.0549659
0.0549768
0.0549818
0.0549519
0.0548637
0.0547028
0.0544664
0.0541574
0.0603833
0.0600524
0.0597546
0.0594699
0.0591928
0.0589346
0.0586916
0.0584815
0.0583025
0.0581635
0.0580725
0.058033
0.0580408
0.0580886
0.0581641
0.0582606
0.0583688
0.058481
0.0585951
0.0587093
0.0588195
0.0589366
0.0590594
0.0591774
0.0592749
0.0593648
0.0594184
0.0594239
0.0593699
0.0592533
0.0590741
0.0588343
0.058534
0.0581746
0.0577575
0.0572975
0.0568233
0.0563844
0.0560202
0.0557611
0.0556017
0.0554767
0.0553935
0.055334
0.0552761
0.0551961
0.055076
0.0549041
0.0546761
0.0543916
0.0587062
0.0583119
0.0579665
0.0576769
0.0574531
0.0572928
0.0571946
0.0571519
0.0571558
0.0572005
0.0572796
0.0573826
0.0575018
0.0576337
0.0577747
0.057921
0.0580723
0.0582235
0.0583701
0.0585112
0.058648
0.0587796
0.0589097
0.0590361
0.0591458
0.059239
0.0593012
0.0593181
0.0592735
0.0591755
0.0590201
0.0588104
0.0585482
0.0582368
0.0578808
0.0574932
0.0570971
0.0567275
0.0564137
0.0561725
0.0559997
0.0558547
0.0557412
0.0556407
0.0555363
0.0554136
0.055262
0.0550734
0.0548448
0.0545755
0.0571912
0.0570205
0.0569093
0.0568565
0.0568556
0.0568921
0.056957
0.0570403
0.0571356
0.0572382
0.0573455
0.0574575
0.0575756
0.0576985
0.0578239
0.0579504
0.0580796
0.0582108
0.0583409
0.0584664
0.0585897
0.058714
0.0588338
0.0589443
0.0590424
0.059123
0.0591779
0.0591934
0.0591577
0.0590751
0.058921
0.0587353
0.0585036
0.058231
0.0579237
0.0575934
0.0572598
0.0569484
0.0566784
0.0564578
0.056282
0.0561404
0.0560043
0.0558728
0.0557344
0.0555804
0.0554045
0.0552026
0.054974
0.0547202
0.0568286
0.0568586
0.0569133
0.0569874
0.0570739
0.0571663
0.0572604
0.0573543
0.0574474
0.0575398
0.057632
0.0577245
0.0578171
0.0579101
0.0580036
0.0580981
0.0581937
0.05829
0.0583883
0.0584892
0.0585873
0.0586823
0.0587743
0.0588601
0.0589355
0.0589948
0.0590316
0.0590372
0.0590026
0.0589261
0.058798
0.0586368
0.0583901
0.0581626
0.0578937
0.0576113
0.0573306
0.0570673
0.0568329
0.0566315
0.0564596
0.0563095
0.056163
0.0560136
0.0558553
0.0556836
0.0554956
0.055291
0.0550726
0.0548443
0.0569271
0.057004
0.0570864
0.0571712
0.0572562
0.0573414
0.057426
0.0575097
0.057592
0.0576729
0.0577528
0.0578321
0.0579105
0.0579884
0.0580661
0.0581437
0.0582221
0.0583007
0.0583772
0.0584518
0.058526
0.0585983
0.0586653
0.0587262
0.0587778
0.0588151
0.0588339
0.0588286
0.0587928
0.0587222
0.0586132
0.0584702
0.0582665
0.0580195
0.0577958
0.0575527
0.057316
0.0570928
0.0568883
0.0567045
0.0565383
0.0563841
0.056233
0.056073
0.0559028
0.0557234
0.0555381
0.0553521
0.0551706
0.0549976
0.0569328
0.0570011
0.0570712
0.0571419
0.057213
0.0572852
0.057358
0.057431
0.0575039
0.0575768
0.0576496
0.0577224
0.0577952
0.0578677
0.0579394
0.0580098
0.0580785
0.0581451
0.0582107
0.0582736
0.0583332
0.0583894
0.0584401
0.0584831
0.0585175
0.0585403
0.058547
0.058535
0.0585004
0.0584389
0.0583467
0.0582237
0.0580609
0.0578662
0.057599
0.0574133
0.0572119
0.0570216
0.0568422
0.0566741
0.0565136
0.0563567
0.0561996
0.0560362
0.0558744
0.0557239
0.0555936
0.0554901
0.0554161
0.0553692
0.0567751
0.0568247
0.0568756
0.0569284
0.0569833
0.0570403
0.0570985
0.0571581
0.0572194
0.0572824
0.0573465
0.0574109
0.0574751
0.0575391
0.0576029
0.0576656
0.0577269
0.0577865
0.0578436
0.0578976
0.0579484
0.0579941
0.0580352
0.0580694
0.0580944
0.0581101
0.0581137
0.0581023
0.0580733
0.058024
0.0579532
0.0578586
0.0577371
0.0575871
0.0573719
0.0571408
0.0569833
0.0568227
0.0566657
0.0565121
0.0563591
0.0562043
0.0560456
0.0559729
0.0559747
0.0560436
0.056169
0.0563391
0.0565408
0.056758
0.0815249
0.0807389
0.0799396
0.0791187
0.0782738
0.0774054
0.0765166
0.0756118
0.0746964
0.0737761
0.0728566
0.0719437
0.0710426
0.0701577
0.069293
0.0684524
0.0676378
0.0668516
0.0660956
0.0653696
0.0646748
0.0640102
0.0633753
0.0627703
0.0621936
0.0616442
0.0611202
0.0606187
0.0601377
0.0596733
0.0592223
0.0587825
0.0583545
0.0579473
0.0575794
0.0571497
0.0575008
0.0578255
0.0581933
0.0586042
0.0590552
0.0595512
0.0601023
0.0606336
0.0611498
0.0616526
0.0621415
0.0626139
0.063066
0.0634945
0.00545353
0.00543408
0.00541479
0.00539474
0.00537387
0.00535222
0.0053299
0.00530702
0.00528367
0.00525998
0.00523606
0.00521201
0.00518792
0.00516383
0.00513979
0.0051158
0.00509186
0.00506796
0.00504408
0.00502024
0.00499974
0.00495688
0.00492172
0.00489183
0.00486515
0.00484043
0.00482612
0.00480547
0.00478222
0.00475841
0.00473506
0.00471258
0.00469099
0.00467017
0.0046499
0.00463
0.00461033
0.00459081
0.00457142
0.00455227
0.00453348
0.00451549
0.00449835
0.00448156
0.00446463
0.00444749
0.00443004
0.00441928
0.00443178
0.00446262
0.00538771
0.00527331
0.00516258
0.00505501
0.00495179
0.00485298
0.00475837
0.00466775
0.00458091
0.00449768
0.00441793
0.00434154
0.00426838
0.00419835
0.00413128
0.00406701
0.00400533
0.00394606
0.00388911
0.00383492
0.0164784
0.0164245
0.0163775
0.0163127
0.0162275
0.0161288
0.0159682
0.0158604
0.0158022
0.0157792
0.0157753
0.0157771
0.0157753
0.0157645
0.0157427
0.0157101
0.0156679
0.0156178
0.0155614
0.015499
0.0154314
0.0153586
0.0152815
0.0152043
0.0151294
0.0150529
0.0149687
0.0148662
0.0147684
0.00335157
0.00538677
0.00527035
0.00515718
0.0050471
0.00494051
0.00483745
0.00473789
0.00464173
0.00454889
0.00445929
0.0043729
0.00428968
0.00420955
0.00413244
0.00405822
0.00398674
0.00391782
0.00385125
0.00378702
0.015882
0.0157677
0.0156556
0.0155412
0.0154253
0.0153089
0.0151933
0.0150787
0.0149693
0.0148659
0.014768
0.0146746
0.014584
0.0144947
0.0144054
0.0143151
0.0142233
0.0141297
0.0140343
0.0139371
0.0138392
0.0137407
0.0136419
0.0135431
0.0134458
0.0133527
0.0132671
0.0131851
0.0130814
0.0129093
0.0126422
0.00538668
0.00527091
0.00515861
0.00504941
0.00494363
0.00484123
0.00474212
0.00464624
0.0045535
0.00446388
0.00437734
0.00429387
0.00421343
0.00413596
0.00406134
0.00398945
0.00392009
0.00385308
0.00378834
0.0158939
0.0157726
0.0156495
0.0155256
0.0154017
0.0152786
0.0151569
0.0150371
0.0149195
0.0148041
0.0146907
0.0145788
0.0144681
0.0143578
0.0142476
0.0141368
0.0140253
0.0139128
0.0137992
0.0136846
0.0135692
0.0134534
0.0133376
0.0132218
0.0131054
0.0129893
0.0128811
0.0127972
0.0127501
0.0127102
0.0125474
0.00538666
0.00527087
0.00515852
0.00504921
0.00494328
0.00484073
0.00474149
0.00464546
0.00455259
0.00446284
0.0043762
0.00429263
0.00421212
0.00413461
0.00406001
0.00398816
0.00391889
0.00385201
0.00378744
0.0158898
0.0157699
0.0156479
0.0155248
0.0154014
0.0152785
0.0151569
0.0150369
0.0149187
0.0148023
0.0146875
0.014574
0.0144611
0.0143486
0.0142358
0.0141224
0.0140081
0.0138927
0.0137762
0.0136584
0.0135397
0.0134204
0.0133017
0.0131845
0.0130681
0.012948
0.0128187
0.0126855
0.012579
0.0125309
0.012446
0.00538667
0.00527096
0.00515875
0.00504965
0.00494395
0.00484165
0.00474265
0.00464683
0.00455413
0.0044645
0.00437792
0.00429439
0.00421391
0.00413642
0.00406185
0.00399004
0.00392085
0.00385406
0.00378959
0.0159092
0.0157889
0.0156665
0.0155428
0.0154187
0.0152951
0.0151726
0.0150516
0.0149324
0.014815
0.0146992
0.0145846
0.0144707
0.0143572
0.0142435
0.0141292
0.014014
0.0138978
0.0137805
0.0136621
0.0135426
0.0134223
0.0133017
0.0131829
0.0130693
0.0129623
0.0128547
0.0127324
0.0126
0.0125064
0.0124212
0.00538667
0.00527099
0.00515882
0.00504976
0.0049441
0.00484181
0.00474278
0.0046469
0.0045541
0.00446433
0.00437759
0.0042939
0.00421326
0.00413565
0.00406098
0.00398914
0.00391996
0.00385323
0.00378886
0.0159065
0.0157875
0.0156661
0.0155432
0.0154196
0.0152963
0.0151739
0.015053
0.0149337
0.0148161
0.0147001
0.0145853
0.0144712
0.0143574
0.0142435
0.0141289
0.0140136
0.0138972
0.0137797
0.0136615
0.0135426
0.0134231
0.0133025
0.0131805
0.0130596
0.0129459
0.0128431
0.012741
0.0126228
0.0125148
0.012419
0.00538668
0.00527103
0.00515891
0.0050499
0.00494431
0.0048421
0.00474313
0.00464729
0.00455449
0.00446469
0.00437791
0.00429416
0.00421348
0.00413584
0.00406119
0.0039894
0.00392031
0.0038537
0.00378947
0.015914
0.0157951
0.0156738
0.0155509
0.0154271
0.0153034
0.0151805
0.0150589
0.014939
0.0148207
0.014704
0.0145884
0.0144737
0.0143592
0.0142446
0.0141295
0.0140136
0.0138967
0.0137789
0.0136602
0.0135412
0.0134227
0.013305
0.013187
0.013067
0.0129473
0.0128356
0.0127347
0.0126287
0.0125225
0.0124221
0.00538669
0.00527105
0.00515896
0.00505
0.00494446
0.00484227
0.00474331
0.00464745
0.00455458
0.00446469
0.00437778
0.00429392
0.00421312
0.00413539
0.00406069
0.00398889
0.00391982
0.00385329
0.00378916
0.0159141
0.0157959
0.0156751
0.0155524
0.0154288
0.0153051
0.015182
0.0150602
0.0149399
0.0148213
0.0147041
0.014588
0.0144727
0.0143577
0.0142426
0.0141269
0.0140106
0.0138935
0.0137755
0.0136568
0.0135374
0.0134182
0.0133005
0.0131853
0.0130708
0.0129546
0.0128396
0.0127339
0.0126307
0.0125279
0.0124273
0.00538669
0.00527108
0.00515901
0.00505009
0.00494459
0.00484244
0.0047435
0.00464762
0.00455471
0.00446475
0.00437776
0.00429381
0.00421294
0.00413517
0.00406045
0.00398867
0.00391967
0.00385322
0.00378921
0.0159166
0.0157987
0.0156782
0.0155557
0.015432
0.0153081
0.0151848
0.0150626
0.0149419
0.0148227
0.014705
0.0145883
0.0144723
0.0143565
0.0142406
0.0141242
0.0140073
0.0138897
0.0137718
0.0136536
0.0135351
0.0134164
0.0132982
0.0131825
0.0130701
0.0129585
0.0128462
0.0127383
0.0126345
0.0125327
0.0124323
0.0053867
0.0052711
0.00515906
0.00505017
0.00494469
0.00484257
0.00474363
0.00464773
0.00455478
0.00446474
0.00437767
0.00429363
0.00421269
0.00413487
0.00406012
0.00398835
0.00391938
0.003853
0.00378906
0.0159174
0.0157999
0.0156797
0.0155573
0.0154338
0.0153099
0.0151864
0.015064
0.0149429
0.0148233
0.014705
0.0145877
0.014471
0.0143544
0.0142377
0.0141205
0.0140028
0.0138846
0.0137661
0.0136478
0.0135301
0.0134127
0.0132958
0.0131801
0.0130674
0.0129577
0.0128486
0.0127411
0.0126368
0.0125346
0.0124336
0.0053867
0.00527111
0.0051591
0.00505023
0.00494478
0.00484267
0.00474372
0.0046478
0.00455479
0.00446469
0.00437753
0.00429341
0.00421239
0.0041345
0.00405971
0.00398793
0.00391897
0.00385262
0.00378873
0.0159165
0.0157994
0.0156795
0.0155575
0.0154341
0.0153103
0.0151868
0.0150643
0.014943
0.014823
0.0147042
0.0145862
0.0144687
0.0143513
0.0142336
0.0141156
0.0139972
0.0138785
0.0137595
0.0136409
0.0135232
0.0134069
0.0132916
0.0131773
0.0130648
0.0129556
0.0128481
0.012742
0.0126375
0.0125347
0.0124328
0.00538671
0.00527114
0.00515913
0.00505028
0.00494484
0.00484273
0.00474379
0.00464785
0.00455482
0.00446468
0.00437749
0.00429332
0.00421226
0.00413436
0.00405957
0.0039878
0.00391888
0.00385257
0.00378874
0.0159178
0.0158009
0.0156811
0.0155591
0.0154358
0.015312
0.0151884
0.0150657
0.0149441
0.0148236
0.0147042
0.0145854
0.014467
0.0143486
0.0142298
0.0141108
0.0139914
0.0138721
0.0137529
0.0136342
0.0135163
0.0134003
0.0132862
0.0131735
0.0130623
0.0129536
0.0128467
0.0127415
0.0126371
0.0125337
0.0124307
0.00538671
0.00527114
0.00515914
0.00505027
0.00494482
0.00484267
0.00474368
0.00464768
0.00455456
0.00446432
0.00437702
0.00429275
0.00421159
0.00413359
0.00405873
0.00398691
0.00391796
0.00385163
0.0037878
0.0159116
0.0157953
0.015676
0.0155546
0.0154317
0.0153083
0.0151851
0.0150625
0.0149409
0.0148203
0.0147004
0.0145812
0.014462
0.0143428
0.0142232
0.0141033
0.0139832
0.0138633
0.013744
0.0136256
0.0135083
0.0133927
0.0132793
0.013168
0.0130584
0.0129506
0.0128446
0.0127397
0.0126357
0.0125318
0.0124278
0.00538672
0.00527115
0.00515914
0.00505028
0.00494484
0.00484272
0.00474376
0.00464779
0.0045547
0.00446449
0.00437721
0.00429297
0.00421183
0.00413385
0.00405902
0.00398722
0.00391828
0.00385197
0.00378813
0.0159146
0.0157978
0.0156782
0.0155565
0.0154334
0.0153097
0.0151862
0.0150632
0.0149411
0.0148198
0.0146992
0.014579
0.0144588
0.0143384
0.0142177
0.0140967
0.0139758
0.0138552
0.0137354
0.013617
0.0135004
0.0133855
0.0132729
0.0131627
0.0130545
0.0129478
0.0128428
0.0127385
0.0126348
0.0125311
0.0124269
0.00538672
0.0052711
0.00515899
0.00504997
0.00494434
0.004842
0.0047428
0.00464659
0.00455327
0.00446285
0.00437538
0.00429096
0.00420969
0.00413161
0.0040567
0.00398484
0.00391586
0.00384951
0.00378565
0.0158954
0.0157796
0.0156611
0.0155403
0.0154182
0.0152955
0.0151728
0.0150506
0.0149291
0.0148082
0.0146878
0.0145676
0.0144473
0.0143268
0.0142061
0.0140852
0.0139645
0.0138445
0.0137256
0.0136083
0.0134932
0.0133803
0.0132698
0.0131619
0.0130562
0.0129522
0.0128497
0.0127482
0.012647
0.012546
0.012445
0.00538672
0.00527109
0.00515905
0.00505018
0.00494472
0.00484256
0.00474352
0.00464744
0.00455422
0.00446386
0.00437643
0.00429203
0.00421075
0.00413263
0.00405766
0.00398572
0.00391663
0.00385016
0.00378617
0.015899
0.0157825
0.0156634
0.0155423
0.0154201
0.0152975
0.0151751
0.0150535
0.0149329
0.0148132
0.0146942
0.0145757
0.0144574
0.0143393
0.0142213
0.0141037
0.0139867
0.013871
0.0137569
0.013645
0.0135358
0.0134294
0.0133258
0.0132252
0.0131272
0.0130317
0.0129379
0.0128459
0.0127553
0.0126659
0.012578
0.00538672
0.00527028
0.00515728
0.0050475
0.00494122
0.00483839
0.00473884
0.0046424
0.00454897
0.00445854
0.00437116
0.00428692
0.00420592
0.00412818
0.00405366
0.00398224
0.00391373
0.00384789
0.00378459
0.0158897
0.0157745
0.0156613
0.0155435
0.0154241
0.0153052
0.015188
0.0150798
0.01498
0.014885
0.0147923
0.0147004
0.0146089
0.0145175
0.0144263
0.0143355
0.0142454
0.0141564
0.014069
0.0139834
0.0139002
0.0138196
0.0137417
0.0136664
0.0135936
0.0135233
0.0134554
0.0133895
0.0133264
0.0132664
0.013211
0.00538707
0.00527168
0.00516043
0.00505265
0.00494963
0.00485096
0.00475623
0.00466514
0.00457749
0.00449322
0.00441235
0.00433493
0.00426103
0.00419065
0.00412372
0.00406011
0.00399959
0.0039419
0.0038868
0.00383428
0.00375251
0.0160144
0.0160199
0.0159556
0.0158598
0.0157531
0.0156476
0.0156619
0.0157204
0.0157856
0.0158415
0.0158824
0.0159075
0.015918
0.0159164
0.0159047
0.0158849
0.0158588
0.015828
0.0157934
0.0157562
0.0157171
0.0156765
0.015635
0.0155927
0.0155505
0.015509
0.0154689
0.0154325
0.0154037
0.00545611
0.00543542
0.00541446
0.00539344
0.00537143
0.00534859
0.00532508
0.00530111
0.00527691
0.00525271
0.00522873
0.00520507
0.00518179
0.00515881
0.00513604
0.00511333
0.00509053
0.00506753
0.00504428
0.00502078
0.00500781
0.00499008
0.00496942
0.00494678
0.00492302
0.00489873
0.00485334
0.00481571
0.00478364
0.00475537
0.00472955
0.00470521
0.0046817
0.00465862
0.00463577
0.00461316
0.00459086
0.004569
0.00454774
0.00452721
0.00450744
0.00448844
0.00447012
0.00445234
0.00443488
0.00441741
0.00439978
0.00438167
0.00436277
0.00434275
0.0138429
0.0256072
0.0131151
0.0304711
0.0165123
0.0103182
0.00724937
0.00559099
0.00465585
0.00411184
0.0037787
0.00355643
0.00339139
0.00325659
0.00313896
0.00303214
0.00293241
0.00283468
0.00272746
0.00257877
0.0159408
0.0142503
0.0303615
0.016316
0.0104888
0.00751466
0.00581458
0.00481265
0.00421715
0.00385191
0.00361058
0.00343326
0.00328892
0.00316308
0.00304982
0.00294638
0.00285084
0.00275945
0.00266177
0.00253322
0.0175953
0.00717387
0.0167993
0.0111485
0.00805738
0.00617948
0.0050375
0.00435511
0.00394235
0.00367607
0.00348423
0.00332894
0.00319287
0.00306965
0.00295766
0.00285618
0.00276458
0.00267984
0.00259206
0.0024843
0.00741418
0.0178849
0.0125083
0.00905322
0.00678581
0.00537954
0.00454785
0.00405952
0.00375702
0.00354685
0.00337945
0.00323195
0.00309635
0.00297176
0.00285914
0.0027585
0.00267003
0.00259154
0.00251266
0.00242356
0.00288586
0.0137508
0.0106067
0.00778703
0.00592975
0.00483943
0.00422323
0.00386268
0.00362652
0.00344518
0.00328601
0.00313713
0.00299732
0.00286931
0.00275521
0.00265464
0.00256847
0.00249571
0.00242435
0.00235557
0.00324979
0.0132685
0.00957513
0.00688619
0.00531737
0.00446898
0.00400666
0.00372851
0.00352902
0.00335844
0.0031971
0.00304136
0.00289501
0.00276309
0.00264751
0.00254647
0.00246155
0.00239302
0.0023247
0.00228004
0.00347136
0.0126123
0.00863181
0.00616529
0.00487115
0.00421604
0.0038617
0.00363364
0.00345072
0.00327912
0.00310924
0.00294395
0.00279086
0.002656
0.00253966
0.00243775
0.0023528
0.00228578
0.00220946
0.00218084
0.00359963
0.01186
0.00780563
0.00560605
0.00455442
0.00404648
0.00376405
0.00356306
0.00338326
0.00320331
0.00302165
0.00284652
0.00268826
0.00255266
0.00243699
0.00233421
0.00224786
0.00217758
0.00207353
0.00211764
0.00367946
0.0111026
0.00711038
0.00518446
0.00433541
0.00393474
0.00369714
0.00350742
0.00332217
0.00312985
0.0029357
0.00275251
0.00259234
0.00245918
0.0023461
0.00224312
0.00215434
0.00207376
0.00192275
0.00203773
0.00372978
0.010384
0.00654105
0.00487454
0.00418802
0.00386227
0.00365002
0.00346116
0.00326552
0.0030595
0.00285433
0.00266661
0.00250886
0.0023818
0.00227339
0.00217194
0.00208051
0.00198168
0.00177764
0.00197343
0.00376078
0.00972482
0.00608504
0.00465246
0.00409197
0.00381622
0.00361586
0.00342151
0.00321331
0.00299442
0.00278148
0.00259389
0.00244305
0.00232522
0.00222336
0.00212636
0.00203296
0.00191258
0.00171679
0.00194129
0.00377848
0.00913388
0.00572791
0.00449811
0.00403209
0.00378785
0.0035906
0.00338746
0.00316677
0.00293756
0.00272125
0.00253857
0.00239817
0.0022913
0.00219727
0.00210793
0.00201338
0.0018729
0.0017573
0.00193677
0.00378678
0.00861574
0.00545551
0.00439512
0.00399747
0.0037716
0.00357224
0.00335932
0.00312787
0.00289203
0.00267703
0.00250305
0.0023746
0.00227858
0.00219294
0.00211296
0.00201699
0.0018575
0.00177514
0.00194678
0.0037887
0.00817367
0.00525496
0.00433054
0.00398049
0.00376418
0.00356009
0.00333811
0.00309883
0.00286052
0.00265076
0.00248729
0.00236992
0.00228298
0.00220547
0.00213371
0.00203533
0.00186691
0.00178803
0.00196155
0.00378642
0.00780867
0.00511461
0.00429459
0.00397619
0.00376397
0.00355437
0.00332518
0.00308156
0.00284464
0.0026425
0.00248907
0.00238024
0.00229977
0.00222904
0.00216175
0.00205995
0.00189657
0.00181051
0.00197506
0.00378172
0.0075217
0.00502472
0.00428037
0.00398164
0.0037703
0.00355559
0.00332178
0.00307736
0.00284469
0.00265074
0.00250503
0.00240142
0.0023248
0.0022585
0.00219057
0.00208109
0.00193675
0.00183927
0.00198712
0.00377562
0.00731356
0.00497746
0.00428319
0.00399523
0.00378305
0.00356424
0.00332874
0.00308653
0.00285945
0.00267276
0.00253188
0.00243048
0.00235537
0.0022906
0.00221657
0.00208899
0.00195584
0.00186283
0.0020019
0.00376918
0.00718486
0.00496662
0.00429993
0.00401608
0.00380227
0.00358065
0.00334634
0.00310852
0.00288911
0.00270616
0.00256593
0.00246427
0.00239008
0.00232406
0.00223894
0.00207982
0.0019149
0.00187366
0.00202249
0.0037636
0.00713417
0.00498672
0.00432856
0.00404364
0.00382798
0.003609
0.00337738
0.00314429
0.00292897
0.00274787
0.00260731
0.00250383
0.00242662
0.00235902
0.00225976
0.00206147
0.00171398
0.00187535
0.00204992
0.00376027
0.00715558
0.00503224
0.00436847
0.00408036
0.00386384
0.00364685
0.00341937
0.00319112
0.00297943
0.00279938
0.00265762
0.0025516
0.00247082
0.00239484
0.00228334
0.00206003
0.00164354
0.00189199
0.00207973
0.00376081
0.00723251
0.00510503
0.00441922
0.00412412
0.00390778
0.00369428
0.00347218
0.00324935
0.00304127
0.00286206
0.00271865
0.00260969
0.00252517
0.00244342
0.00232457
0.00210511
0.00172561
0.0019102
0.00210946
0.00376676
0.00734931
0.00519139
0.00447799
0.00417495
0.00395977
0.00375105
0.0035355
0.00331894
0.00311504
0.00293705
0.00279223
0.00268052
0.00259269
0.00250752
0.00238828
0.00218819
0.00189046
0.00193674
0.00213758
0.00377879
0.00749008
0.00529119
0.00454483
0.00423255
0.00401928
0.00381658
0.00360876
0.00339953
0.00320087
0.00302506
0.00287986
0.00276635
0.00267661
0.00259078
0.0024756
0.00229426
0.00205918
0.00197756
0.00216201
0.0037956
0.00765095
0.0054036
0.00461949
0.00429635
0.00408539
0.0038898
0.00369088
0.00349026
0.0032982
0.00312604
0.00298209
0.0028685
0.00277897
0.00269534
0.00258715
0.00241987
0.00218809
0.0020265
0.00218061
0.00381569
0.00782728
0.00552712
0.00470116
0.00436537
0.00415688
0.00396924
0.00378024
0.00358954
0.00340562
0.00323896
0.00309824
0.00298675
0.00289984
0.00282113
0.00272156
0.0025636
0.00232225
0.0020681
0.0021914
0.00383749
0.00801365
0.00565943
0.00478869
0.00443826
0.00423214
0.00405304
0.00387476
0.00369512
0.00352094
0.0033617
0.0032263
0.00311933
0.0030378
0.00296768
0.00288124
0.00273699
0.00248467
0.00208133
0.00219128
0.00385935
0.00820397
0.00579718
0.0048805
0.00451345
0.00430926
0.00413905
0.00397202
0.00380425
0.00364118
0.00349118
0.00336311
0.00326287
0.00318945
0.0031319
0.00306567
0.00295169
0.00274376
0.00243373
0.00218387
0.00387977
0.00839218
0.00593643
0.00497451
0.0045893
0.00438625
0.00422486
0.00406935
0.00391398
0.00376293
0.00362352
0.00350438
0.0034125
0.00334902
0.00330647
0.00326462
0.00318773
0.00302413
0.00271713
0.00217572
0.00389757
0.00857302
0.00607349
0.00506853
0.00466419
0.00446125
0.00430814
0.00416401
0.00402103
0.00388229
0.00375409
0.00364477
0.00356195
0.0035088
0.00348141
0.00346444
0.00342697
0.00331296
0.00299934
0.00215839
0.00391176
0.0087425
0.00620519
0.0051606
0.00473673
0.00453256
0.00438683
0.00425352
0.00412228
0.00399535
0.00387811
0.00377847
0.00370426
0.00366047
0.00364667
0.00365257
0.00365575
0.00361661
0.00345407
0.00298646
0.00392162
0.00889833
0.0063293
0.00524913
0.00480593
0.00459892
0.00445929
0.00433581
0.0042151
0.00409877
0.00399128
0.00390006
0.00383281
0.00379624
0.00379298
0.00381716
0.00385497
0.00388906
0.00392025
0.00403157
0.00392656
0.0090398
0.00644485
0.00533321
0.00487131
0.00465962
0.00452444
0.00440936
0.00429771
0.00419021
0.00409055
0.00400558
0.00394269
0.00391013
0.0039131
0.00394892
0.00400679
0.00406618
0.00411102
0.00416029
0.00392738
0.00917361
0.00654689
0.00540859
0.00493293
0.00471492
0.00458218
0.00447361
0.00436946
0.00426892
0.00417479
0.00409352
0.00403212
0.00399984
0.00400453
0.00404693
0.00411886
0.00419617
0.00424653
0.00426567
0.0039276
0.00929013
0.00663785
0.00547587
0.00498611
0.00476552
0.00463333
0.00452916
0.0044309
0.00433557
0.00424497
0.00416518
0.00410287
0.00406768
0.00407052
0.00411568
0.00419888
0.00429489
0.00435852
0.00436613
0.00392769
0.00939041
0.00671808
0.00553641
0.00503453
0.00480886
0.00467887
0.00457763
0.00448377
0.0043921
0.0043037
0.00422396
0.00415919
0.00411915
0.00411799
0.0041633
0.00425641
0.00437199
0.00445385
0.00446005
0.00392833
0.00947618
0.00678851
0.00559041
0.00507868
0.00484917
0.0047184
0.00461976
0.00453002
0.00444079
0.00435399
0.00427372
0.00420599
0.00416073
0.00415451
0.00419852
0.00429986
0.00443399
0.00453505
0.00454406
0.00392992
0.00954648
0.00685034
0.00563916
0.00511989
0.00488801
0.00475623
0.00465787
0.00456978
0.00448408
0.0043987
0.00431765
0.00424754
0.00419774
0.00418662
0.00422876
0.00433623
0.00448626
0.00460557
0.0046204
0.00393143
0.00960489
0.00690465
0.0056833
0.00515849
0.0049252
0.00479325
0.00469522
0.00460737
0.00452239
0.00443832
0.00435821
0.0042868
0.00423399
0.00421897
0.00425971
0.00437144
0.00453345
0.00466816
0.00469105
0.00393323
0.00965378
0.00695217
0.00572336
0.00519512
0.00496124
0.0048294
0.00473178
0.00464426
0.00455959
0.00447581
0.00439609
0.00432415
0.00427058
0.00425395
0.00429478
0.00440972
0.0045799
0.00472665
0.00475834
0.00393544
0.00969486
0.00699443
0.00576009
0.00522993
0.0049963
0.00486468
0.00476736
0.0046803
0.00459599
0.00451207
0.00443299
0.00436085
0.00430685
0.00428967
0.0043316
0.00445129
0.00463034
0.00478689
0.00482403
0.00393783
0.00972902
0.00703212
0.00579418
0.0052631
0.00503034
0.00489935
0.00480216
0.00471528
0.00463139
0.0045477
0.00446888
0.00439704
0.00434274
0.00432578
0.00436959
0.00449513
0.00468353
0.00484828
0.00488872
0.00394073
0.00975812
0.00706603
0.00582604
0.00529501
0.0050632
0.0049331
0.00483641
0.00474989
0.00466595
0.004583
0.00450412
0.00443263
0.0043782