/*--------------------------------*- C++ -*----------------------------------*\
  =========                 |
  \\      /  F ield         | OpenFOAM: The Open Source CFD Toolbox
   \\    /   O peration     | Website:  https://openfoam.org
    \\  /    A nd           | Version:  8
     \\/     M anipulation  |
\*---------------------------------------------------------------------------*/
FoamFile
{
    version     2.0;
    format      ascii;
    class       volScalarField;
    location    "700";
    object      epsilon;
}
// * * * * * * * * * * * * * * * * * * * * * * * * * * * * * * * * * * * * * //

dimensions      [0 2 -3 0 0 0 0];

internalField   nonuniform List<scalar> 
8400
(
0.0216274
0.0209708
0.0203221
0.0196772
0.0190476
0.0184454
0.0178764
0.0173395
0.0168302
0.0163432
0.0158743
0.0154205
0.014982
0.0145631
0.0141726
0.0138242
0.013535
0.0133265
0.0132268
0.0132708
0.0134868
0.0138586
0.0142872
0.0146114
0.0146793
0.0144067
0.0139108
0.0134033
0.0128878
0.0123649
0.0119294
0.011552
0.0111675
0.0107551
0.0103205
0.00986906
0.00940907
0.0089468
0.00848636
0.00802818
0.00756996
0.00710693
0.00663367
0.00614532
0.00563923
0.00511565
0.00457996
0.00404306
0.00352096
0.00303523
0.00971619
0.00975994
0.00980069
0.009844
0.00988525
0.00992171
0.00995253
0.00997839
0.0100003
0.0100184
0.0100323
0.0100407
0.0100404
0.0100256
0.00998453
0.00989874
0.00974309
0.00949101
0.00912624
0.00866475
0.00817813
0.00777616
0.007532
0.00743758
0.00744013
0.00748194
0.00747854
0.00739008
0.00731775
0.00732366
0.00731916
0.00729488
0.00726615
0.00723594
0.00720203
0.00716371
0.00711819
0.00706168
0.00698887
0.00689334
0.00676728
0.00660209
0.00638884
0.00611894
0.00578528
0.00538413
0.0049174
0.00439496
0.00383818
0.00328047
0.0112585
0.0110574
0.0109997
0.011
0.0110251
0.0110465
0.0110678
0.0111043
0.0111629
0.0112438
0.0113461
0.0114648
0.0115898
0.0117044
0.0117864
0.0118092
0.0117405
0.0115364
0.0111383
0.0105014
0.00968207
0.00886856
0.00823181
0.00778826
0.00755631
0.00759715
0.0076416
0.00768688
0.00773238
0.00776615
0.00776709
0.00775906
0.00775927
0.00776127
0.00776104
0.00775948
0.00775438
0.00774184
0.00771703
0.00767315
0.00760175
0.00749301
0.00733514
0.00711521
0.00682068
0.00643994
0.00596486
0.00539516
0.00474518
0.00405004
0.0131306
0.0130858
0.0130397
0.0129927
0.0129449
0.0128965
0.0128484
0.0128015
0.0127562
0.0127135
0.0126735
0.0126367
0.0126036
0.0125745
0.0125491
0.0125261
0.0125037
0.0124779
0.0124426
0.0123931
0.0123334
0.0122558
0.0121411
0.0106434
0.00776109
0.00782616
0.00792817
0.00803123
0.00811805
0.00817199
0.0080047
0.00797742
0.00801145
0.00804383
0.00807581
0.00810669
0.00813533
0.00815953
0.00817549
0.00817746
0.00815839
0.00810819
0.00801439
0.00786291
0.00763785
0.00732276
0.00690124
0.00635979
0.00569506
0.00492648
0.0131547
0.013138
0.013121
0.0131039
0.0130867
0.0130695
0.0130521
0.0130347
0.013017
0.012999
0.0129808
0.0129621
0.012943
0.0129234
0.0129034
0.012883
0.0128622
0.0128413
0.0128195
0.0127948
0.0127608
0.0127145
0.0126496
0.0124426
0.0118082
0.0112001
0.0106605
0.0102506
0.0100484
0.00995713
0.00813739
0.00805402
0.00812428
0.0081449
0.00821032
0.00826914
0.00832532
0.00837833
0.00842684
0.00846797
0.00849527
0.0084991
0.00846697
0.00838437
0.00823582
0.00800455
0.00767124
0.00721487
0.00661506
0.00586457
0.0131483
0.0131247
0.0131011
0.0130774
0.0130537
0.01303
0.0130061
0.0129822
0.0129582
0.0129343
0.0129103
0.0128862
0.0128621
0.0128381
0.012814
0.01279
0.0127661
0.0127421
0.0127198
0.0126996
0.0126811
0.0126616
0.012636
0.0125785
0.0123922
0.0121008
0.0117459
0.0113829
0.0110611
0.0107739
0.01024
0.00985544
0.00912707
0.00811351
0.00820447
0.00828462
0.0083655
0.00843991
0.0085156
0.00859174
0.00866359
0.00871919
0.00874464
0.00872492
0.00864496
0.00849109
0.00824824
0.0078969
0.0074113
0.00676342
0.0131454
0.0131184
0.0130912
0.0130637
0.013036
0.0130081
0.01298
0.0129516
0.0129231
0.0128944
0.0128656
0.0128366
0.0128075
0.0127784
0.0127491
0.0127197
0.0126906
0.0126624
0.0126359
0.0126124
0.0125929
0.0125775
0.0125639
0.0125431
0.012479
0.0123487
0.0121499
0.0119008
0.0116279
0.0113448
0.0109891
0.0106053
0.010096
0.0094959
0.00876574
0.00813106
0.00826117
0.00836687
0.00846795
0.00858153
0.00870637
0.00881655
0.00889883
0.00893653
0.00891479
0.00882354
0.00865348
0.0083934
0.00802472
0.00751767
0.0131406
0.0131085
0.013076
0.0130433
0.0130104
0.0129772
0.0129438
0.0129101
0.0128762
0.012842
0.0128076
0.0127729
0.012738
0.012703
0.0126681
0.0126335
0.0126
0.0125682
0.0125391
0.0125138
0.0124937
0.0124795
0.0124708
0.0124636
0.0124421
0.0123858
0.0122799
0.0121223
0.011922
0.0116892
0.0114086
0.0110802
0.0106781
0.0101933
0.00959778
0.00897767
0.00840704
0.00812816
0.0083096
0.00845845
0.00867399
0.00883861
0.00897674
0.00906684
0.0090939
0.00905103
0.00893336
0.00873801
0.0084574
0.0080744
0.0131344
0.013095
0.0130555
0.0130156
0.0129754
0.012935
0.0128942
0.0128532
0.012812
0.0127703
0.0127284
0.0126863
0.0126442
0.0126025
0.0125614
0.0125213
0.0124831
0.0124479
0.0124168
0.0123913
0.0123727
0.012362
0.012359
0.0123614
0.0123605
0.0123421
0.0122902
0.0121955
0.0120568
0.0118779
0.0116548
0.0113838
0.0110547
0.0106558
0.0101743
0.00964121
0.00909821
0.00869422
0.00844787
0.00823968
0.00865831
0.00884852
0.00902812
0.00915777
0.00922135
0.00921407
0.00913335
0.00898076
0.00875563
0.00845372
0.0131235
0.0130717
0.0130201
0.0129685
0.0129166
0.0128647
0.0128123
0.0127596
0.0127065
0.0126532
0.0125997
0.0125465
0.0124941
0.0124431
0.0123942
0.0123483
0.012307
0.0122716
0.0122433
0.0122239
0.0122141
0.0122139
0.0122227
0.0122383
0.0122546
0.0122608
0.0122436
0.0121917
0.0120995
0.0119666
0.0117911
0.0115704
0.0112992
0.0109698
0.0105766
0.0101339
0.00967583
0.00928928
0.00900099
0.00888024
0.00882495
0.0089399
0.00911299
0.00925121
0.00932944
0.00934142
0.00928368
0.0091592
0.00896904
0.00871443
0.0131028
0.0130262
0.0129513
0.0128777
0.0128045
0.0127314
0.0126586
0.0125856
0.0125121
0.0124393
0.0123671
0.0122965
0.0122289
0.0121659
0.0121094
0.0120619
0.0120254
0.0120011
0.0119902
0.0119926
0.0120063
0.0120302
0.0120617
0.0120979
0.0121341
0.0121614
0.0121692
0.0121473
0.0120891
0.0119919
0.0118545
0.0116752
0.0114511
0.0111778
0.010854
0.0104893
0.0101107
0.00977166
0.00950706
0.00935739
0.00927325
0.00927621
0.00933477
0.00940435
0.00945129
0.0094547
0.00940394
0.00929501
0.00912717
0.00890292
0.013041
0.0128929
0.0127653
0.0126456
0.0125315
0.0124156
0.0123019
0.0121892
0.0120764
0.011967
0.0118636
0.01177
0.011691
0.0116317
0.0115965
0.0115867
0.0115991
0.0116288
0.0116715
0.0117239
0.0117811
0.0118408
0.0119015
0.0119608
0.0120157
0.0120601
0.0120857
0.0120837
0.0120486
0.0119774
0.0118688
0.0117219
0.0115354
0.0113071
0.0110379
0.0107364
0.0104235
0.010135
0.00990165
0.00974682
0.00966974
0.00961811
0.00960452
0.00960795
0.00960495
0.00957654
0.00951
0.00939822
0.00923765
0.00902929
0.012602
0.012384
0.0121803
0.0119795
0.0117883
0.0116101
0.011449
0.0113107
0.011201
0.0111204
0.0110708
0.0110508
0.011057
0.0110863
0.0111366
0.011203
0.0112791
0.011361
0.0114458
0.0115316
0.011616
0.0116966
0.0117737
0.0118505
0.0119187
0.0119712
0.0120055
0.0120142
0.0119921
0.0119375
0.0118492
0.0117264
0.0115689
0.0113759
0.0111497
0.0108982
0.010638
0.0103946
0.010191
0.0100421
0.00994724
0.00987684
0.0098298
0.0097933
0.00975174
0.00969215
0.00960464
0.00948248
0.00932183
0.00912342
0.0116548
0.0114239
0.0112154
0.0110403
0.010902
0.0108018
0.0107366
0.0107033
0.0106977
0.0107146
0.0107496
0.0107992
0.0108604
0.010931
0.0110092
0.0110923
0.0111784
0.0112666
0.0113553
0.0114435
0.0115298
0.0116135
0.011693
0.0117684
0.0118359
0.0118896
0.0119264
0.0119412
0.0119257
0.0118796
0.011804
0.0116983
0.0115625
0.0113969
0.0112043
0.0109922
0.0107742
0.0105685
0.0103913
0.010252
0.01015
0.0100743
0.0100058
0.00994069
0.00986988
0.00978483
0.00967821
0.00954488
0.0093823
0.00919186
0.0108476
0.0107433
0.0106671
0.0106224
0.0106052
0.0106105
0.0106332
0.0106687
0.0107128
0.0107633
0.0108186
0.0108774
0.0109389
0.0110029
0.0110694
0.011138
0.0112085
0.0112802
0.0113529
0.0114267
0.0114996
0.0115705
0.0116393
0.0117042
0.0117616
0.0118083
0.0118407
0.0118547
0.0118439
0.0118063
0.0117404
0.011642
0.0115223
0.0113776
0.0112115
0.0110309
0.0108465
0.0106713
0.0105167
0.0103881
0.0102843
0.0101994
0.0101181
0.0100355
0.00994589
0.00984333
0.009723
0.00958206
0.0094202
0.00924008
0.010563
0.0105611
0.0105731
0.0105974
0.0106313
0.0106717
0.0107165
0.0107642
0.0108137
0.0108645
0.010916
0.0109681
0.011021
0.0110747
0.0111292
0.0111845
0.0112407
0.0112978
0.0113554
0.0114132
0.0114708
0.0115272
0.0115815
0.0116321
0.0116768
0.0117131
0.0117381
0.0117479
0.0117382
0.0117063
0.0116502
0.0115666
0.0114549
0.011322
0.0111771
0.0110215
0.010864
0.010714
0.0105784
0.0104601
0.0103574
0.0102653
0.0101759
0.0100821
0.00997965
0.00986513
0.00973648
0.00959379
0.00943938
0.0092773
0.0105214
0.0105515
0.010586
0.0106238
0.0106641
0.0107061
0.0107494
0.0107935
0.0108383
0.0108838
0.0109296
0.0109757
0.0110223
0.0110694
0.0111167
0.0111643
0.011212
0.0112596
0.0113072
0.0113545
0.0114007
0.0114454
0.0114878
0.0115267
0.0115605
0.0115873
0.0116048
0.0116102
0.0116004
0.0115727
0.0115247
0.0114541
0.0113609
0.0112408
0.011102
0.0109669
0.0108313
0.0107017
0.010582
0.0104728
0.0103719
0.0102757
0.0101801
0.0100784
0.00996789
0.00984795
0.00972024
0.00958821
0.00945657
0.00932972
0.0105067
0.0105372
0.0105691
0.0106023
0.0106365
0.0106716
0.0107075
0.0107443
0.010782
0.0108204
0.0108595
0.0108993
0.0109396
0.0109804
0.0110214
0.0110627
0.0111039
0.011145
0.0111855
0.0112251
0.0112634
0.0112999
0.0113338
0.0113644
0.0113902
0.0114101
0.0114223
0.0114247
0.0114151
0.0113914
0.0113518
0.0112946
0.0112186
0.0111207
0.0109942
0.010864
0.0107458
0.0106329
0.0105259
0.0104238
0.0103248
0.0102263
0.0101254
0.0100195
0.00990984
0.00980168
0.00970121
0.00961357
0.00954215
0.00948766
0.0104426
0.0104626
0.0104838
0.0105059
0.0105292
0.0105537
0.0105794
0.0106064
0.0106346
0.010664
0.0106945
0.010726
0.0107585
0.0107918
0.0108256
0.0108599
0.0108943
0.0109286
0.0109625
0.0109956
0.0110274
0.0110574
0.011085
0.0111096
0.0111302
0.0111457
0.0111549
0.0111566
0.0111492
0.0111314
0.0111017
0.0110589
0.0110017
0.0109282
0.0108351
0.010697
0.0105912
0.0104906
0.0103933
0.0102973
0.0102009
0.0101023
0.00999976
0.00992153
0.00988299
0.00988079
0.00991087
0.00996796
0.0100454
0.0101346
0.0305564
0.0297703
0.0289883
0.0281991
0.0274
0.0265906
0.025773
0.0249509
0.024129
0.0233122
0.0225056
0.0217138
0.0209411
0.0201915
0.0194684
0.0187744
0.0181118
0.0174821
0.016886
0.016324
0.0157959
0.015301
0.0148383
0.0144063
0.0140033
0.0136272
0.0132758
0.0129466
0.0126368
0.0123433
0.0120633
0.0117941
0.0115339
0.0112819
0.0110384
0.0107748
0.0107543
0.0108145
0.0109358
0.0111045
0.0113116
0.0115531
0.0118305
0.0121192
0.0124011
0.0126751
0.0129396
0.0131922
0.0134293
0.013647
9.329e-06
9.20702e-06
9.08893e-06
8.97467e-06
8.86318e-06
8.75256e-06
8.64309e-06
8.53511e-06
8.42897e-06
8.32487e-06
8.22288e-06
8.12296e-06
8.02491e-06
7.92856e-06
7.83371e-06
7.74024e-06
7.64808e-06
7.55724e-06
7.46779e-06
7.37979e-06
7.28643e-06
7.19261e-06
7.09787e-06
7.00316e-06
6.90963e-06
6.81806e-06
6.70811e-06
6.60875e-06
6.51726e-06
6.43154e-06
6.35006e-06
6.27165e-06
6.19554e-06
6.12131e-06
6.04875e-06
5.97784e-06
5.90866e-06
5.84136e-06
5.77615e-06
5.7131e-06
5.6523e-06
5.59323e-06
5.53586e-06
5.48039e-06
5.42755e-06
5.37936e-06
5.33772e-06
5.28573e-06
5.17228e-06
4.96817e-06
8.98082e-06
8.3844e-06
7.83927e-06
7.33996e-06
6.88397e-06
6.46845e-06
6.08898e-06
5.74182e-06
5.42367e-06
5.13157e-06
4.86285e-06
4.6151e-06
4.38621e-06
4.17427e-06
3.97764e-06
3.79494e-06
3.625e-06
3.46691e-06
3.32e-06
3.18287e-06
7.28869e-07
7.26418e-07
7.22191e-07
7.17508e-07
7.13043e-07
7.09122e-07
7.11555e-07
7.14699e-07
7.17444e-07
7.19291e-07
7.20109e-07
7.19981e-07
7.19092e-07
7.17645e-07
7.15819e-07
7.13747e-07
7.11515e-07
7.09166e-07
7.06708e-07
7.04171e-07
7.01591e-07
6.99075e-07
6.9661e-07
6.94043e-07
6.91126e-07
6.88008e-07
6.86482e-07
6.92625e-07
7.15118e-07
3.21654e-06
8.97876e-06
8.37702e-06
7.82402e-06
7.31665e-06
6.85112e-06
6.42371e-06
6.03097e-06
5.66969e-06
5.33697e-06
5.03015e-06
4.74678e-06
4.4846e-06
4.24159e-06
4.01593e-06
3.80602e-06
3.61047e-06
3.4281e-06
3.25786e-06
3.09923e-06
7.28149e-07
7.22384e-07
7.1673e-07
7.11191e-07
7.05795e-07
7.00561e-07
6.95494e-07
6.90782e-07
6.86277e-07
6.81898e-07
6.77563e-07
6.73209e-07
6.68798e-07
6.64316e-07
6.59765e-07
6.55157e-07
6.50508e-07
6.45838e-07
6.41173e-07
6.36547e-07
6.31978e-07
6.27499e-07
6.23182e-07
6.19148e-07
6.15458e-07
6.11722e-07
6.0649e-07
5.97415e-07
5.84236e-07
5.744e-07
5.86471e-07
8.97875e-06
8.38107e-06
7.83252e-06
7.32897e-06
6.86643e-06
6.44108e-06
6.04954e-06
5.68879e-06
5.35609e-06
5.04888e-06
4.76482e-06
4.50174e-06
4.25767e-06
4.03082e-06
3.81963e-06
3.6227e-06
3.43886e-06
3.26709e-06
3.10683e-06
7.29051e-07
7.23137e-07
7.17302e-07
7.11573e-07
7.05962e-07
7.00468e-07
6.95081e-07
6.89783e-07
6.84548e-07
6.79346e-07
6.74146e-07
6.68924e-07
6.63659e-07
6.58341e-07
6.52963e-07
6.4753e-07
6.42051e-07
6.36545e-07
6.31038e-07
6.25559e-07
6.20132e-07
6.14761e-07
6.09447e-07
6.04292e-07
5.99722e-07
5.96557e-07
5.95367e-07
5.94637e-07
5.89233e-07
5.75651e-07
5.71855e-07
8.97873e-06
8.38111e-06
7.83227e-06
7.32806e-06
6.86469e-06
6.43851e-06
6.04625e-06
5.68497e-06
5.35192e-06
5.04458e-06
4.76057e-06
4.49771e-06
4.25398e-06
4.02755e-06
3.81681e-06
3.62036e-06
3.43698e-06
3.26563e-06
3.10574e-06
7.28938e-07
7.23069e-07
7.17265e-07
7.11555e-07
7.05951e-07
7.00453e-07
6.95051e-07
6.89724e-07
6.84446e-07
6.79189e-07
6.73924e-07
6.68628e-07
6.63282e-07
6.57876e-07
6.52404e-07
6.4687e-07
6.41282e-07
6.35658e-07
6.3002e-07
6.24408e-07
6.18874e-07
6.13452e-07
6.0808e-07
6.02523e-07
5.96512e-07
5.90325e-07
5.85452e-07
5.83771e-07
5.83575e-07
5.76858e-07
5.71132e-07
8.97872e-06
8.38136e-06
7.83302e-06
7.32941e-06
6.86665e-06
6.44108e-06
6.04937e-06
5.68859e-06
5.35599e-06
5.04907e-06
4.76546e-06
4.50297e-06
4.25957e-06
4.03343e-06
3.82293e-06
3.62664e-06
3.44334e-06
3.27199e-06
3.11201e-06
7.29892e-07
7.23982e-07
7.18131e-07
7.12369e-07
7.0671e-07
7.01157e-07
6.957e-07
6.90322e-07
6.84995e-07
6.79691e-07
6.74384e-07
6.69048e-07
6.63666e-07
6.58225e-07
6.52721e-07
6.47159e-07
6.41549e-07
6.35905e-07
6.30242e-07
6.24585e-07
6.18987e-07
6.13565e-07
6.08481e-07
6.03775e-07
5.99065e-07
5.93569e-07
5.87176e-07
5.81941e-07
5.80083e-07
5.76299e-07
5.7148e-07
8.97871e-06
8.38132e-06
7.83299e-06
7.32927e-06
6.86632e-06
6.44045e-06
6.04842e-06
5.68733e-06
5.35448e-06
5.0474e-06
4.76374e-06
4.50129e-06
4.25802e-06
4.03207e-06
3.82178e-06
3.6257e-06
3.44259e-06
3.27138e-06
3.11151e-06
7.29849e-07
7.23963e-07
7.18124e-07
7.12365e-07
7.06703e-07
7.01144e-07
6.9568e-07
6.90292e-07
6.84957e-07
6.79647e-07
6.74334e-07
6.68994e-07
6.63608e-07
6.58166e-07
6.52665e-07
6.47108e-07
6.41509e-07
6.35888e-07
6.30267e-07
6.2465e-07
6.1902e-07
6.1338e-07
6.07858e-07
6.02765e-07
5.98346e-07
5.94178e-07
5.89115e-07
5.83233e-07
5.79312e-07
5.75661e-07
5.71467e-07
8.97869e-06
8.38126e-06
7.83289e-06
7.32913e-06
6.86611e-06
6.44019e-06
6.04814e-06
5.68708e-06
5.35437e-06
5.0475e-06
4.76413e-06
4.50204e-06
4.25916e-06
4.03359e-06
3.82366e-06
3.62789e-06
3.44502e-06
3.27396e-06
3.11416e-06
7.30257e-07
7.24352e-07
7.18486e-07
7.12694e-07
7.06995e-07
7.01398e-07
6.95896e-07
6.90471e-07
6.85101e-07
6.79757e-07
6.74413e-07
6.69043e-07
6.63632e-07
6.58168e-07
6.52651e-07
6.47083e-07
6.41478e-07
6.35858e-07
6.30264e-07
6.24739e-07
6.19296e-07
6.13877e-07
6.08389e-07
6.02905e-07
5.97833e-07
5.93524e-07
5.89357e-07
5.84238e-07
5.79597e-07
5.75471e-07
5.71331e-07
8.97866e-06
8.38117e-06
7.83269e-06
7.3288e-06
6.86561e-06
6.4395e-06
6.04728e-06
5.6861e-06
5.35332e-06
5.04648e-06
4.76322e-06
4.50131e-06
4.25864e-06
4.03332e-06
3.82361e-06
3.62803e-06
3.4453e-06
3.27433e-06
3.11455e-06
7.3033e-07
7.24426e-07
7.18552e-07
7.12746e-07
7.0703e-07
7.01411e-07
6.95886e-07
6.90438e-07
6.85044e-07
6.79676e-07
6.74307e-07
6.68914e-07
6.63482e-07
6.58005e-07
6.52482e-07
6.46921e-07
6.41332e-07
6.35725e-07
6.30125e-07
6.24579e-07
6.19163e-07
6.13922e-07
6.08771e-07
6.03535e-07
5.98264e-07
5.93428e-07
5.89201e-07
5.84644e-07
5.80019e-07
5.75617e-07
5.71326e-07
8.97864e-06
8.38107e-06
7.83248e-06
7.32843e-06
6.86507e-06
6.43879e-06
6.04643e-06
5.68518e-06
5.35241e-06
5.04567e-06
4.76259e-06
4.50092e-06
4.25854e-06
4.0335e-06
3.82407e-06
3.62874e-06
3.44619e-06
3.27535e-06
3.11563e-06
7.30501e-07
7.2459e-07
7.18703e-07
7.12878e-07
7.07138e-07
7.01494e-07
6.9594e-07
6.90463e-07
6.85037e-07
6.79635e-07
6.74232e-07
6.68808e-07
6.63348e-07
6.57848e-07
6.52314e-07
6.46759e-07
6.41202e-07
6.35657e-07
6.30129e-07
6.24624e-07
6.19186e-07
6.1391e-07
6.0886e-07
6.03922e-07
5.9889e-07
5.93895e-07
5.89355e-07
5.84894e-07
5.80361e-07
5.75857e-07
5.7141e-07
8.97862e-06
8.38096e-06
7.83225e-06
7.32804e-06
6.86449e-06
6.43803e-06
6.04553e-06
5.68418e-06
5.3514e-06
5.04473e-06
4.76178e-06
4.5003e-06
4.25814e-06
4.03333e-06
3.82413e-06
3.62898e-06
3.44659e-06
3.27585e-06
3.11619e-06
7.30596e-07
7.24684e-07
7.1879e-07
7.12954e-07
7.07198e-07
7.01533e-07
6.95955e-07
6.90447e-07
6.84986e-07
6.79546e-07
6.74103e-07
6.68639e-07
6.63143e-07
6.57614e-07
6.52058e-07
6.4649e-07
6.40935e-07
6.35422e-07
6.29969e-07
6.24574e-07
6.19221e-07
6.13941e-07
6.08837e-07
6.03955e-07
5.99132e-07
5.94238e-07
5.89527e-07
5.84965e-07
5.80415e-07
5.75849e-07
5.71283e-07
8.9786e-06
8.38086e-06
7.83202e-06
7.32764e-06
6.86391e-06
6.43726e-06
6.04461e-06
5.68315e-06
5.35033e-06
5.04367e-06
4.7608e-06
4.49944e-06
4.25743e-06
4.03279e-06
3.82375e-06
3.62875e-06
3.44647e-06
3.27582e-06
3.11622e-06
7.3061e-07
7.24705e-07
7.18812e-07
7.12971e-07
7.07206e-07
7.01525e-07
6.95925e-07
6.90389e-07
6.84893e-07
6.79412e-07
6.73925e-07
6.68417e-07
6.62882e-07
6.57324e-07
6.51752e-07
6.4618e-07
6.40628e-07
6.35124e-07
6.29701e-07
6.24381e-07
6.19148e-07
6.13969e-07
6.08871e-07
6.03946e-07
5.99173e-07
5.94386e-07
5.8964e-07
5.84973e-07
5.80339e-07
5.75691e-07
5.71019e-07
8.97858e-06
8.38076e-06
7.83178e-06
7.32724e-06
6.86334e-06
6.43655e-06
6.04378e-06
5.68228e-06
5.34947e-06
5.04288e-06
4.76013e-06
4.49894e-06
4.25713e-06
4.0327e-06
3.82386e-06
3.62904e-06
3.44693e-06
3.27641e-06
3.11691e-06
7.30722e-07
7.24817e-07
7.1892e-07
7.13071e-07
7.07291e-07
7.01589e-07
6.9596e-07
6.90386e-07
6.84845e-07
6.79315e-07
6.73775e-07
6.68214e-07
6.62629e-07
6.5703e-07
6.51433e-07
6.45859e-07
6.40324e-07
6.34846e-07
6.29448e-07
6.24162e-07
6.19e-07
6.1393e-07
6.08913e-07
6.03982e-07
5.99187e-07
5.94429e-07
5.89675e-07
5.84938e-07
5.80207e-07
5.75459e-07
5.7068e-07
8.97856e-06
8.38065e-06
7.8315e-06
7.32674e-06
6.86258e-06
6.43553e-06
6.04252e-06
5.68079e-06
5.34779e-06
5.04107e-06
4.75823e-06
4.49699e-06
4.25517e-06
4.03077e-06
3.82197e-06
3.62721e-06
3.44516e-06
3.27471e-06
3.11529e-06
7.30492e-07
7.2461e-07
7.18731e-07
7.12895e-07
7.0712e-07
7.01415e-07
6.95772e-07
6.90176e-07
6.84604e-07
6.79036e-07
6.73455e-07
6.67853e-07
6.62232e-07
6.56604e-07
6.50989e-07
6.45416e-07
6.39907e-07
6.34478e-07
6.29137e-07
6.23899e-07
6.18783e-07
6.13787e-07
6.08862e-07
6.0398e-07
5.99172e-07
5.94405e-07
5.89635e-07
5.84845e-07
5.80033e-07
5.7519e-07
5.70312e-07
8.97854e-06
8.38052e-06
7.83119e-06
7.32627e-06
6.86204e-06
6.43499e-06
6.04205e-06
5.68046e-06
5.34763e-06
5.0411e-06
4.75846e-06
4.49742e-06
4.25579e-06
4.03155e-06
3.82289e-06
3.62825e-06
3.44629e-06
3.27592e-06
3.11655e-06
7.30673e-07
7.24775e-07
7.1888e-07
7.13023e-07
7.07223e-07
7.01485e-07
6.95802e-07
6.90156e-07
6.84529e-07
6.789e-07
6.73257e-07
6.67597e-07
6.61925e-07
6.56258e-07
6.50618e-07
6.45033e-07
6.39532e-07
6.34137e-07
6.28851e-07
6.23672e-07
6.18604e-07
6.13651e-07
6.08784e-07
6.03957e-07
5.99158e-07
5.94378e-07
5.89583e-07
5.84754e-07
5.79883e-07
5.74973e-07
5.70029e-07
8.97853e-06
8.38015e-06
7.83016e-06
7.32445e-06
6.85935e-06
6.43145e-06
6.03773e-06
5.67546e-06
5.34209e-06
5.03515e-06
4.75223e-06
4.49102e-06
4.2493e-06
4.02504e-06
3.81644e-06
3.62191e-06
3.4401e-06
3.26993e-06
3.11079e-06
7.29821e-07
7.23976e-07
7.18129e-07
7.12314e-07
7.06548e-07
7.00833e-07
6.95163e-07
6.89521e-07
6.83889e-07
6.7825e-07
6.72595e-07
6.66925e-07
6.61252e-07
6.55595e-07
6.4998e-07
6.44434e-07
6.38984e-07
6.33655e-07
6.28456e-07
6.23379e-07
6.18411e-07
6.13547e-07
6.08768e-07
6.04032e-07
5.99313e-07
5.94592e-07
5.89851e-07
5.85074e-07
5.80259e-07
5.75416e-07
5.70562e-07
8.97852e-06
8.38e-06
7.83021e-06
7.32503e-06
6.8606e-06
6.43335e-06
6.04019e-06
5.67834e-06
5.34524e-06
5.03842e-06
4.7555e-06
4.49416e-06
4.25225e-06
4.02775e-06
3.81888e-06
3.62406e-06
3.442e-06
3.27158e-06
3.11223e-06
7.30014e-07
7.24143e-07
7.18275e-07
7.12443e-07
7.06663e-07
7.00938e-07
6.95259e-07
6.89617e-07
6.83993e-07
6.78376e-07
6.7276e-07
6.67149e-07
6.61557e-07
6.56008e-07
6.50528e-07
6.45143e-07
6.39876e-07
6.34747e-07
6.29767e-07
6.24932e-07
6.20223e-07
6.15622e-07
6.11112e-07
6.0666e-07
6.02241e-07
5.97832e-07
5.93424e-07
5.89014e-07
5.8461e-07
5.80239e-07
5.75942e-07
8.97849e-06
8.37579e-06
7.82143e-06
7.3123e-06
6.84476e-06
6.41535e-06
6.02092e-06
5.65854e-06
5.32551e-06
5.01922e-06
4.73718e-06
4.47699e-06
4.23641e-06
4.01339e-06
3.80609e-06
3.61293e-06
3.43256e-06
3.26388e-06
3.1063e-06
7.294e-07
7.23793e-07
7.18185e-07
7.1267e-07
7.07273e-07
7.01995e-07
6.96833e-07
6.91961e-07
6.8713e-07
6.82352e-07
6.77636e-07
6.72983e-07
6.684e-07
6.63897e-07
6.59488e-07
6.55188e-07
6.51009e-07
6.4696e-07
6.43045e-07
6.39263e-07
6.35598e-07
6.32027e-07
6.28535e-07
6.251e-07
6.21707e-07
6.18343e-07
6.1501e-07
6.11724e-07
6.08517e-07
6.0545e-07
6.02613e-07
8.98023e-06
8.38239e-06
7.83575e-06
7.33474e-06
6.87694e-06
6.4595e-06
6.07846e-06
5.73041e-06
5.41228e-06
5.12122e-06
4.85451e-06
4.60959e-06
4.38408e-06
4.1758e-06
3.98282e-06
3.80349e-06
3.63644e-06
3.48063e-06
3.33537e-06
3.19895e-06
3.11461e-06
7.26572e-07
7.19422e-07
7.14012e-07
7.09809e-07
7.06642e-07
7.16227e-07
7.2212e-07
7.25618e-07
7.27553e-07
7.28448e-07
7.28627e-07
7.28295e-07
7.27588e-07
7.26594e-07
7.25375e-07
7.23979e-07
7.22436e-07
7.20772e-07
7.19003e-07
7.17133e-07
7.15165e-07
7.1311e-07
7.10975e-07
7.08776e-07
7.06544e-07
7.04325e-07
7.02196e-07
7.00282e-07
6.98799e-07
9.33003e-06
9.20649e-06
9.08688e-06
8.97147e-06
8.85876e-06
8.74721e-06
8.63715e-06
8.52905e-06
8.42331e-06
8.32017e-06
8.21968e-06
8.1217e-06
8.02602e-06
7.93232e-06
7.84032e-06
7.74976e-06
7.66046e-06
7.57229e-06
7.4852e-06
7.39901e-06
7.28829e-06
7.18006e-06
7.07392e-06
6.97039e-06
6.86971e-06
6.77183e-06
6.67757e-06
6.58613e-06
6.49719e-06
6.41071e-06
6.32682e-06
6.2457e-06
6.16747e-06
6.09219e-06
6.01985e-06
5.95026e-06
5.88322e-06
5.81842e-06
5.75552e-06
5.69419e-06
5.63415e-06
5.57504e-06
5.51659e-06
5.45854e-06
5.40064e-06
5.34266e-06
5.28439e-06
5.2256e-06
5.16613e-06
5.1062e-06
4.12672e-05
1.11584e-05
5.02535e-06
6.97505e-07
5.03842e-07
3.74121e-07
2.89694e-07
2.36959e-07
2.04966e-07
1.8553e-07
1.73214e-07
1.64745e-07
1.58307e-07
1.52965e-07
1.48265e-07
1.43975e-07
1.39908e-07
1.35771e-07
1.30618e-07
1.23509e-07
1.55464e-05
4.72963e-06
6.9383e-07
5.26295e-07
4.00902e-07
3.10615e-07
2.50759e-07
2.1349e-07
1.90825e-07
1.76703e-07
1.67238e-07
1.60203e-07
1.54438e-07
1.49407e-07
1.44887e-07
1.4077e-07
1.3694e-07
1.33158e-07
1.28616e-07
1.22194e-07
5.93648e-06
3.21756e-06
5.83139e-07
4.4612e-07
3.41609e-07
2.69885e-07
2.24693e-07
1.97438e-07
1.80873e-07
1.70139e-07
1.62391e-07
1.56132e-07
1.50669e-07
1.4575e-07
1.41312e-07
1.37325e-07
1.33722e-07
1.30308e-07
1.26441e-07
1.20866e-07
3.9596e-06
6.83426e-07
5.20006e-07
3.89298e-07
2.98249e-07
2.40677e-07
2.06424e-07
1.86245e-07
1.73731e-07
1.65075e-07
1.58246e-07
1.5229e-07
1.46859e-07
1.41907e-07
1.37477e-07
1.33583e-07
1.30193e-07
1.27152e-07
1.23985e-07
1.19419e-07
3.97575e-06
6.49371e-07
4.69299e-07
3.43809e-07
2.65411e-07
2.19652e-07
1.9367e-07
1.78411e-07
1.68472e-07
1.60959e-07
1.54481e-07
1.48491e-07
1.42901e-07
1.37816e-07
1.33343e-07
1.29509e-07
1.26318e-07
1.23645e-07
1.21152e-07
1.17675e-07
4.11089e-06
6.12466e-07
4.23198e-07
3.06776e-07
2.40712e-07
2.04687e-07
1.84819e-07
1.72856e-07
1.64426e-07
1.57395e-07
1.50862e-07
1.446e-07
1.38727e-07
1.33453e-07
1.2891e-07
1.25108e-07
1.22098e-07
1.19799e-07
1.17969e-07
1.1539e-07
4.20719e-06
5.73915e-07
3.8248e-07
2.77191e-07
2.22428e-07
1.94172e-07
1.78679e-07
1.68805e-07
1.61122e-07
1.54104e-07
1.47235e-07
1.40547e-07
1.34325e-07
1.28853e-07
1.24241e-07
1.20442e-07
1.17581e-07
1.15656e-07
1.14542e-07
1.12005e-07
4.25248e-06
5.36134e-07
3.47464e-07
2.54009e-07
2.09127e-07
1.86871e-07
1.74388e-07
1.65721e-07
1.58244e-07
1.50912e-07
1.43522e-07
1.36328e-07
1.2976e-07
1.24132e-07
1.19473e-07
1.1565e-07
1.12908e-07
1.11347e-07
1.11026e-07
1.06748e-07
4.25734e-06
5.00414e-07
3.17964e-07
2.36197e-07
1.9964e-07
1.81863e-07
1.71341e-07
1.63243e-07
1.55597e-07
1.47736e-07
1.39723e-07
1.32021e-07
1.25174e-07
1.1948e-07
1.14823e-07
1.1095e-07
1.08299e-07
1.07069e-07
1.07244e-07
1.04478e-07
4.234e-06
4.67382e-07
2.93585e-07
2.22811e-07
1.93032e-07
1.78472e-07
1.69124e-07
1.61147e-07
1.53081e-07
1.44567e-07
1.35911e-07
1.27773e-07
1.20781e-07
1.15151e-07
1.10557e-07
1.0662e-07
1.04026e-07
1.03034e-07
1.03063e-07
1.03514e-07
4.19075e-06
4.37372e-07
2.73862e-07
2.13017e-07
1.88565e-07
1.76209e-07
1.67463e-07
1.59306e-07
1.5067e-07
1.41458e-07
1.32218e-07
1.23786e-07
1.16833e-07
1.11417e-07
1.06949e-07
1.02956e-07
1.00383e-07
9.94493e-08
1.00762e-07
1.02935e-07
4.13313e-06
4.10605e-07
2.58287e-07
2.06076e-07
1.85662e-07
1.74728e-07
1.66188e-07
1.57661e-07
1.4839e-07
1.38512e-07
1.28813e-07
1.20283e-07
1.13569e-07
1.08504e-07
1.04212e-07
1.00214e-07
9.76194e-08
9.64118e-08
9.87287e-08
1.0249e-07
4.06538e-06
3.87225e-07
2.4634e-07
2.01355e-07
1.83885e-07
1.73796e-07
1.65201e-07
1.56205e-07
1.463e-07
1.35856e-07
1.25878e-07
1.17463e-07
1.11157e-07
1.06529e-07
1.02443e-07
9.85333e-08
9.58888e-08
9.3829e-08
9.69199e-08
1.02112e-07
3.99064e-06
3.67282e-07
2.37496e-07
1.98327e-07
1.82912e-07
1.73261e-07
1.64455e-07
1.54962e-07
1.44489e-07
1.33627e-07
1.23573e-07
1.15457e-07
1.09651e-07
1.0547e-07
1.01608e-07
9.79012e-08
9.52092e-08
9.18664e-08
9.53116e-08
1.01841e-07
3.91162e-06
3.50761e-07
2.31254e-07
1.96568e-07
1.82516e-07
1.73032e-07
1.6394e-07
1.53976e-07
1.43049e-07
1.31948e-07
1.22003e-07
1.14294e-07
1.08981e-07
1.0519e-07
1.0157e-07
9.81572e-08
9.54387e-08
9.15457e-08
9.43352e-08
1.01757e-07
3.83064e-06
3.37577e-07
2.27153e-07
1.95753e-07
1.82546e-07
1.73063e-07
1.63668e-07
1.53302e-07
1.42067e-07
1.30905e-07
1.21199e-07
1.1391e-07
1.08995e-07
1.05495e-07
1.02138e-07
9.90438e-08
9.62921e-08
9.21605e-08
9.4143e-08
1.01994e-07
3.74969e-06
3.27609e-07
2.24801e-07
1.95649e-07
1.82913e-07
1.73339e-07
1.63665e-07
1.52995e-07
1.41607e-07
1.30534e-07
1.21127e-07
1.1418e-07
1.09519e-07
1.06206e-07
1.03117e-07
1.00295e-07
9.74446e-08
9.31363e-08
9.45421e-08
1.02647e-07
3.67021e-06
3.2073e-07
2.23889e-07
1.96107e-07
1.83569e-07
1.73859e-07
1.63958e-07
1.53095e-07
1.41701e-07
1.30821e-07
1.217e-07
1.14971e-07
1.10413e-07
1.07194e-07
1.04346e-07
1.017e-07
9.8625e-08
9.40537e-08
9.51902e-08
1.03675e-07
3.59347e-06
3.16843e-07
2.24193e-07
1.97038e-07
1.84491e-07
1.74631e-07
1.64581e-07
1.53718e-07
1.42424e-07
1.31741e-07
1.22791e-07
1.16117e-07
1.11529e-07
1.08339e-07
1.05714e-07
1.03123e-07
9.96409e-08
9.46734e-08
9.57048e-08
1.04966e-07
3.52063e-06
3.15838e-07
2.25553e-07
1.98404e-07
1.85737e-07
1.75757e-07
1.65657e-07
1.54849e-07
1.43701e-07
1.33183e-07
1.24311e-07
1.17594e-07
1.12895e-07
1.09633e-07
1.07117e-07
1.04507e-07
1.00451e-07
9.3569e-08
9.61682e-08
1.06228e-07
3.45279e-06
3.17757e-07
2.27884e-07
2.00192e-07
1.87295e-07
1.7724e-07
1.67162e-07
1.56476e-07
1.45504e-07
1.35127e-07
1.26273e-07
1.19442e-07
1.1457e-07
1.11195e-07
1.08652e-07
1.05948e-07
1.01395e-07
9.33855e-08
9.75838e-08
1.07289e-07
3.40245e-06
3.21182e-07
2.30781e-07
2.02318e-07
1.89166e-07
1.79082e-07
1.69094e-07
1.58592e-07
1.47829e-07
1.37589e-07
1.2872e-07
1.21728e-07
1.16635e-07
1.13106e-07
1.10531e-07
1.07908e-07
1.03536e-07
9.44158e-08
9.95497e-08
1.08139e-07
3.37045e-06
3.2568e-07
2.34215e-07
2.04788e-07
1.91355e-07
1.81282e-07
1.71444e-07
1.61183e-07
1.50671e-07
1.40584e-07
1.31699e-07
1.24529e-07
1.19185e-07
1.15456e-07
1.12831e-07
1.10406e-07
1.06817e-07
1.00014e-07
1.01543e-07
1.08763e-07
3.35491e-06
3.31161e-07
2.3818e-07
2.076e-07
1.93852e-07
1.83824e-07
1.74189e-07
1.64225e-07
1.54014e-07
1.4412e-07
1.35249e-07
1.2792e-07
1.22322e-07
1.18349e-07
1.15612e-07
1.13308e-07
1.10321e-07
1.05831e-07
1.03263e-07
1.09141e-07
3.35382e-06
3.37518e-07
2.42655e-07
2.1074e-07
1.96637e-07
1.8668e-07
1.77295e-07
1.6768e-07
1.57827e-07
1.48187e-07
1.39388e-07
1.31952e-07
1.26131e-07
1.21903e-07
1.18987e-07
1.16672e-07
1.13832e-07
1.09487e-07
1.04507e-07
1.09237e-07
3.36486e-06
3.446e-07
2.47589e-07
2.14178e-07
1.99677e-07
1.89811e-07
1.80716e-07
1.71495e-07
1.62059e-07
1.52745e-07
1.44097e-07
1.36637e-07
1.30661e-07
1.26214e-07
1.23106e-07
1.20732e-07
1.17937e-07
1.13207e-07
1.04878e-07
1.09004e-07
3.38567e-06
3.5223e-07
2.52909e-07
2.17872e-07
2.02924e-07
1.93166e-07
1.8439e-07
1.75604e-07
1.66641e-07
1.57727e-07
1.49324e-07
1.4194e-07
1.35907e-07
1.31332e-07
1.28097e-07
1.25718e-07
1.23116e-07
1.18445e-07
1.08264e-07
1.08516e-07
3.41387e-06
3.60222e-07
2.58523e-07
2.21766e-07
2.06324e-07
1.96685e-07
1.8825e-07
1.79926e-07
1.71479e-07
1.6304e-07
1.5498e-07
1.47781e-07
1.41812e-07
1.37238e-07
1.34e-07
1.31743e-07
1.296e-07
1.26115e-07
1.20163e-07
1.07876e-07
3.44716e-06
3.68381e-07
2.64318e-07
2.25792e-07
2.09813e-07
2.00295e-07
1.92217e-07
1.84367e-07
1.76464e-07
1.68561e-07
1.6094e-07
1.54038e-07
1.48256e-07
1.43816e-07
1.40717e-07
1.38696e-07
1.36999e-07
1.34016e-07
1.27282e-07
1.06834e-07
3.48354e-06
3.76521e-07
2.70174e-07
2.29872e-07
2.13322e-07
2.03921e-07
1.96205e-07
1.88826e-07
1.81475e-07
1.74146e-07
1.67043e-07
1.60548e-07
1.55068e-07
1.50884e-07
1.48058e-07
1.46409e-07
1.4534e-07
1.43311e-07
1.36264e-07
1.05849e-07
3.52116e-06
3.84469e-07
2.7597e-07
2.33926e-07
2.1678e-07
2.07482e-07
2.0012e-07
1.93202e-07
1.86384e-07
1.79639e-07