/*--------------------------------*- C++ -*----------------------------------*\
  =========                 |
  \\      /  F ield         | OpenFOAM: The Open Source CFD Toolbox
   \\    /   O peration     | Website:  https://openfoam.org
    \\  /    A nd           | Version:  8
     \\/     M anipulation  |
\*---------------------------------------------------------------------------*/
FoamFile
{
    version     2.0;
    format      ascii;
    class       volScalarField;
    location    "700";
    object      nut;
}
// * * * * * * * * * * * * * * * * * * * * * * * * * * * * * * * * * * * * * //

dimensions      [0 2 -1 0 0 0 0];

internalField   nonuniform List<scalar> 
8400
(
7.2804e-05
7.20389e-05
7.13421e-05
7.0693e-05
7.00816e-05
6.94982e-05
6.89262e-05
6.83469e-05
6.77487e-05
6.71301e-05
6.6497e-05
6.58626e-05
6.52456e-05
6.46694e-05
6.4161e-05
6.3752e-05
6.34815e-05
6.33989e-05
6.35565e-05
6.39671e-05
6.45175e-05
6.49364e-05
6.49615e-05
6.4542e-05
6.37262e-05
6.25739e-05
6.14899e-05
6.03887e-05
5.92497e-05
5.82436e-05
5.74136e-05
5.65993e-05
5.56887e-05
5.47013e-05
5.36452e-05
5.25303e-05
5.13584e-05
5.01379e-05
4.88678e-05
4.75376e-05
4.6137e-05
4.46511e-05
4.30618e-05
4.13604e-05
3.95505e-05
3.76558e-05
3.5729e-05
3.38591e-05
3.21664e-05
3.07831e-05
5.6336e-05
5.63182e-05
5.62797e-05
5.62426e-05
5.62e-05
5.61514e-05
5.60989e-05
5.60441e-05
5.59823e-05
5.59069e-05
5.58096e-05
5.56814e-05
5.55087e-05
5.52701e-05
5.49348e-05
5.44672e-05
5.38357e-05
5.30336e-05
5.21221e-05
5.12851e-05
5.07799e-05
5.06836e-05
5.07841e-05
5.08565e-05
5.08864e-05
5.08426e-05
5.0497e-05
5.02086e-05
5.01583e-05
5.01348e-05
4.99562e-05
4.97215e-05
4.94907e-05
4.92429e-05
4.89716e-05
4.86793e-05
4.83543e-05
4.79827e-05
4.75419e-05
4.70074e-05
4.63485e-05
4.55288e-05
4.45132e-05
4.32683e-05
4.17682e-05
4.00072e-05
3.80095e-05
3.58446e-05
3.36406e-05
3.15867e-05
5.85412e-05
5.81042e-05
5.78934e-05
5.77701e-05
5.77114e-05
5.77237e-05
5.78311e-05
5.80262e-05
5.82685e-05
5.85282e-05
5.87649e-05
5.89375e-05
5.90116e-05
5.8962e-05
5.87618e-05
5.8373e-05
5.77249e-05
5.67161e-05
5.52973e-05
5.36779e-05
5.23864e-05
5.17602e-05
5.15131e-05
5.09593e-05
5.12004e-05
5.12767e-05
5.13415e-05
5.14167e-05
5.14786e-05
5.14917e-05
5.13567e-05
5.12603e-05
5.11786e-05
5.1082e-05
5.09725e-05
5.08548e-05
5.07182e-05
5.05493e-05
5.03295e-05
5.00351e-05
4.96351e-05
4.90923e-05
4.83643e-05
4.74048e-05
4.61674e-05
4.46146e-05
4.27288e-05
4.05278e-05
3.80954e-05
3.56042e-05
6.14372e-05
6.13677e-05
6.12959e-05
6.12223e-05
6.11473e-05
6.10712e-05
6.09973e-05
6.09285e-05
6.08655e-05
6.08087e-05
6.07586e-05
6.07142e-05
6.06729e-05
6.0633e-05
6.05936e-05
6.0551e-05
6.04986e-05
6.04277e-05
6.03267e-05
6.02445e-05
6.01421e-05
6.00023e-05
5.97495e-05
5.06391e-05
5.17741e-05
5.20081e-05
5.22133e-05
5.23937e-05
5.2497e-05
5.25139e-05
5.18828e-05
5.20701e-05
5.20844e-05
5.20807e-05
5.20897e-05
5.20924e-05
5.20875e-05
5.20611e-05
5.19997e-05
5.18887e-05
5.17003e-05
5.14023e-05
5.09566e-05
5.03162e-05
4.94318e-05
4.82511e-05
4.67224e-05
4.48162e-05
4.25485e-05
4.00221e-05
6.14752e-05
6.14492e-05
6.14229e-05
6.13962e-05
6.13695e-05
6.13432e-05
6.13169e-05
6.12904e-05
6.12634e-05
6.1236e-05
6.12082e-05
6.11801e-05
6.11514e-05
6.11222e-05
6.10928e-05
6.10639e-05
6.10359e-05
6.10061e-05
6.09759e-05
6.09212e-05
6.08532e-05
6.07642e-05
6.0639e-05
5.96306e-05
5.86647e-05
5.77215e-05
5.69201e-05
5.63977e-05
5.64963e-05
5.39294e-05
5.17605e-05
5.25848e-05
5.27176e-05
5.24935e-05
5.25924e-05
5.26854e-05
5.2768e-05
5.28364e-05
5.2888e-05
5.29069e-05
5.28746e-05
5.27675e-05
5.25509e-05
5.2185e-05
5.16272e-05
5.08291e-05
4.97391e-05
4.83036e-05
4.64871e-05
4.43111e-05
6.14653e-05
6.14288e-05
6.13921e-05
6.13553e-05
6.13182e-05
6.12809e-05
6.12431e-05
6.12047e-05
6.11661e-05
6.11274e-05
6.10885e-05
6.10492e-05
6.10095e-05
6.09695e-05
6.09296e-05
6.08893e-05
6.08484e-05
6.0813e-05
6.07834e-05
6.0759e-05
6.07355e-05
6.07064e-05
6.06616e-05
6.04376e-05
6.00352e-05
5.94937e-05
5.8888e-05
5.83105e-05
5.78455e-05
5.69939e-05
5.6354e-05
5.64963e-05
5.23429e-05
5.25615e-05
5.27057e-05
5.28279e-05
5.29773e-05
5.3116e-05
5.32497e-05
5.33672e-05
5.34568e-05
5.34906e-05
5.34445e-05
5.32819e-05
5.29728e-05
5.24821e-05
5.17734e-05
5.08013e-05
4.95174e-05
4.78985e-05
6.14608e-05
6.14191e-05
6.1377e-05
6.13343e-05
6.12913e-05
6.12478e-05
6.12037e-05
6.11593e-05
6.11142e-05
6.10685e-05
6.10224e-05
6.09758e-05
6.09288e-05
6.08814e-05
6.08334e-05
6.07858e-05
6.07395e-05
6.06953e-05
6.06549e-05
6.06208e-05
6.05946e-05
6.05753e-05
6.05566e-05
6.04948e-05
6.03395e-05
6.00673e-05
5.96911e-05
5.9251e-05
5.87892e-05
5.82296e-05
5.76488e-05
5.71834e-05
5.5823e-05
5.50413e-05
5.26376e-05
5.26986e-05
5.28921e-05
5.30581e-05
5.32723e-05
5.34754e-05
5.36842e-05
5.3822e-05
5.39082e-05
5.38956e-05
5.37568e-05
5.34742e-05
5.30299e-05
5.24016e-05
5.1556e-05
5.04678e-05
6.14533e-05
6.14032e-05
6.13531e-05
6.13022e-05
6.12509e-05
6.11993e-05
6.11468e-05
6.10942e-05
6.10408e-05
6.09868e-05
6.09316e-05
6.08758e-05
6.08193e-05
6.07626e-05
6.07064e-05
6.06513e-05
6.05987e-05
6.05494e-05
6.05045e-05
6.04658e-05
6.04366e-05
6.04188e-05
6.04099e-05
6.03947e-05
6.03403e-05
6.02125e-05
5.99957e-05
5.96952e-05
5.93315e-05
5.88982e-05
5.84031e-05
5.78862e-05
5.70875e-05
5.62627e-05
5.4898e-05
5.39482e-05
5.22953e-05
5.2887e-05
5.31921e-05
5.34466e-05
5.37254e-05
5.39423e-05
5.41386e-05
5.42374e-05
5.42189e-05
5.4071e-05
5.37918e-05
5.33753e-05
5.28076e-05
5.20791e-05
6.14435e-05
6.1382e-05
6.13203e-05
6.12581e-05
6.11953e-05
6.1132e-05
6.10681e-05
6.1003e-05
6.09371e-05
6.08711e-05
6.08043e-05
6.07375e-05
6.06709e-05
6.06045e-05
6.05392e-05
6.04763e-05
6.04175e-05
6.03637e-05
6.03168e-05
6.02792e-05
6.02517e-05
6.02362e-05
6.02339e-05
6.02396e-05
6.02323e-05
6.0183e-05
6.00685e-05
5.98756e-05
5.96096e-05
5.92724e-05
5.88634e-05
5.83982e-05
5.77943e-05
5.70897e-05
5.61367e-05
5.51711e-05
5.39727e-05
5.34136e-05
5.26426e-05
5.40789e-05
5.37008e-05
5.39765e-05
5.42634e-05
5.44462e-05
5.45123e-05
5.4451e-05
5.42777e-05
5.39866e-05
5.35739e-05
5.30403e-05
6.14266e-05
6.13456e-05
6.12648e-05
6.11832e-05
6.11022e-05
6.10197e-05
6.09377e-05
6.08547e-05
6.07714e-05
6.06883e-05
6.0605e-05
6.05211e-05
6.04371e-05
6.03555e-05
6.02792e-05
6.02104e-05
6.01491e-05
6.00967e-05
6.00543e-05
6.00256e-05
6.00106e-05
6.00101e-05
6.00237e-05
6.00485e-05
6.00727e-05
6.00727e-05
6.00249e-05
5.99113e-05
5.97253e-05
5.94667e-05
5.91352e-05
5.87376e-05
5.82434e-05
5.76542e-05
5.69171e-05
5.61012e-05
5.52021e-05
5.45089e-05
5.38227e-05
5.36774e-05
5.37489e-05
5.40695e-05
5.43952e-05
5.46196e-05
5.47336e-05
5.4721e-05
5.46162e-05
5.44047e-05
5.40824e-05
5.3656e-05
6.1394e-05
6.1273e-05
6.11556e-05
6.10394e-05
6.09244e-05
6.08091e-05
6.06927e-05
6.05764e-05
6.04612e-05
6.03447e-05
6.02316e-05
6.01238e-05
6.00225e-05
5.99297e-05
5.9848e-05
5.97806e-05
5.97298e-05
5.96983e-05
5.96833e-05
5.96845e-05
5.97009e-05
5.9733e-05
5.97792e-05
5.98319e-05
5.98855e-05
5.99241e-05
5.99238e-05
5.98666e-05
5.97413e-05
5.95466e-05
5.92799e-05
5.89446e-05
5.85304e-05
5.80356e-05
5.74382e-05
5.67669e-05
5.60547e-05
5.54342e-05
5.49239e-05
5.47077e-05
5.45303e-05
5.45693e-05
5.4708e-05
5.48494e-05
5.49392e-05
5.49523e-05
5.48773e-05
5.47082e-05
5.44439e-05
5.40909e-05
6.13012e-05
6.10727e-05
6.08682e-05
6.06884e-05
6.05079e-05
6.03401e-05
6.01636e-05
5.99917e-05
5.98307e-05
5.96734e-05
5.95229e-05
5.93887e-05
5.92804e-05
5.92012e-05
5.91491e-05
5.91305e-05
5.91414e-05
5.91785e-05
5.9234e-05
5.92981e-05
5.93656e-05
5.94407e-05
5.9522e-05
5.96093e-05
5.96955e-05
5.97653e-05
5.97989e-05
5.97821e-05
5.97005e-05
5.9552e-05
5.93357e-05
5.90538e-05
5.87028e-05
5.82827e-05
5.77859e-05
5.72318e-05
5.66539e-05
5.61281e-05
5.57017e-05
5.54372e-05
5.52931e-05
5.52176e-05
5.52039e-05
5.52149e-05
5.52199e-05
5.519e-05
5.51014e-05
5.49398e-05
5.47023e-05
5.4392e-05
6.06435e-05
6.03111e-05
6.00121e-05
5.97262e-05
5.94479e-05
5.91885e-05
5.89445e-05
5.87335e-05
5.85537e-05
5.84141e-05
5.83227e-05
5.8283e-05
5.82909e-05
5.83389e-05
5.84147e-05
5.85116e-05
5.86204e-05
5.8733e-05
5.88476e-05
5.89623e-05
5.90729e-05
5.91906e-05
5.93139e-05
5.94324e-05
5.95304e-05
5.96207e-05
5.96746e-05
5.96803e-05
5.96262e-05
5.95092e-05
5.93294e-05
5.90887e-05
5.87871e-05
5.84262e-05
5.80074e-05
5.75454e-05
5.70692e-05
5.66284e-05
5.62627e-05
5.60024e-05
5.58424e-05
5.57168e-05
5.56334e-05
5.55736e-05
5.55155e-05
5.54352e-05
5.53146e-05
5.5142e-05
5.4913e-05
5.46272e-05
5.89591e-05
5.85631e-05
5.82163e-05
5.79254e-05
5.77007e-05
5.75397e-05
5.74411e-05
5.73982e-05
5.74021e-05
5.7447e-05
5.75264e-05
5.76299e-05
5.77495e-05
5.7882e-05
5.80236e-05
5.81706e-05
5.83226e-05
5.84744e-05
5.86216e-05
5.87633e-05
5.89007e-05
5.90329e-05
5.91635e-05
5.92906e-05
5.94008e-05
5.94944e-05
5.9557e-05
5.9574e-05
5.95294e-05
5.9431e-05
5.92751e-05
5.90645e-05
5.88013e-05
5.84886e-05
5.81312e-05
5.77419e-05
5.73442e-05
5.6973e-05
5.66578e-05
5.64157e-05
5.62421e-05
5.60965e-05
5.59826e-05
5.58817e-05
5.57769e-05
5.56537e-05
5.55014e-05
5.5312e-05
5.50824e-05
5.4812e-05
5.74377e-05
5.72663e-05
5.71546e-05
5.71016e-05
5.71006e-05
5.71373e-05
5.72025e-05
5.72861e-05
5.73818e-05
5.74849e-05
5.75927e-05
5.77052e-05
5.78238e-05
5.79472e-05
5.80731e-05
5.82002e-05
5.83299e-05
5.84617e-05
5.85924e-05
5.87184e-05
5.88423e-05
5.89671e-05
5.90874e-05
5.91984e-05
5.9297e-05
5.9378e-05
5.94331e-05
5.94489e-05
5.94131e-05
5.93302e-05
5.91756e-05
5.89891e-05
5.87564e-05
5.84828e-05
5.81742e-05
5.78425e-05
5.75075e-05
5.71949e-05
5.69237e-05
5.67022e-05
5.65257e-05
5.63836e-05
5.62468e-05
5.61149e-05
5.59758e-05
5.58212e-05
5.56446e-05
5.54418e-05
5.52122e-05
5.49572e-05
5.70737e-05
5.71038e-05
5.71587e-05
5.72331e-05
5.732e-05
5.74128e-05
5.75073e-05
5.76017e-05
5.76952e-05
5.77879e-05
5.78806e-05
5.79734e-05
5.80665e-05
5.81598e-05
5.82537e-05
5.83487e-05
5.84447e-05
5.85414e-05
5.86402e-05
5.87415e-05
5.884e-05
5.89354e-05
5.90278e-05
5.9114e-05
5.91897e-05
5.92493e-05
5.92863e-05
5.9292e-05
5.92573e-05
5.91806e-05
5.9052e-05
5.88902e-05
5.86425e-05
5.8414e-05
5.81441e-05
5.78605e-05
5.75786e-05
5.73143e-05
5.70789e-05
5.68767e-05
5.67041e-05
5.65533e-05
5.64062e-05
5.62563e-05
5.60974e-05
5.59249e-05
5.57361e-05
5.55306e-05
5.53112e-05
5.50819e-05
5.71727e-05
5.72499e-05
5.73328e-05
5.74178e-05
5.75032e-05
5.75888e-05
5.76738e-05
5.77579e-05
5.78406e-05
5.79219e-05
5.80022e-05
5.80818e-05
5.81605e-05
5.82388e-05
5.83168e-05
5.83947e-05
5.84735e-05
5.85524e-05
5.86293e-05
5.87042e-05
5.87787e-05
5.88513e-05
5.89185e-05
5.89797e-05
5.90315e-05
5.9069e-05
5.90879e-05
5.90826e-05
5.90467e-05
5.89758e-05
5.88664e-05
5.87229e-05
5.85184e-05
5.82704e-05
5.80458e-05
5.78016e-05
5.7564e-05
5.73399e-05
5.71346e-05
5.69501e-05
5.67831e-05
5.66283e-05
5.64766e-05
5.63159e-05
5.6145e-05
5.59649e-05
5.57787e-05
5.5592e-05
5.54096e-05
5.52358e-05
5.71787e-05
5.72472e-05
5.73176e-05
5.73887e-05
5.74601e-05
5.75327e-05
5.76059e-05
5.76792e-05
5.77524e-05
5.78257e-05
5.78988e-05
5.7972e-05
5.8045e-05
5.81179e-05
5.81899e-05
5.82606e-05
5.83296e-05
5.83965e-05
5.84623e-05
5.85255e-05
5.85854e-05
5.86418e-05
5.86927e-05
5.87358e-05
5.87703e-05
5.87932e-05
5.88e-05
5.87879e-05
5.87532e-05
5.86914e-05
5.85988e-05
5.84754e-05
5.8312e-05
5.81164e-05
5.78481e-05
5.76617e-05
5.74594e-05
5.72684e-05
5.70883e-05
5.69196e-05
5.67583e-05
5.66008e-05
5.64431e-05
5.6279e-05
5.61165e-05
5.59654e-05
5.58345e-05
5.57305e-05
5.56562e-05
5.5609e-05
5.70204e-05
5.70702e-05
5.71214e-05
5.71744e-05
5.72296e-05
5.72869e-05
5.73454e-05
5.74053e-05
5.74669e-05
5.75302e-05
5.75946e-05
5.76593e-05
5.77238e-05
5.77882e-05
5.78523e-05
5.79153e-05
5.79768e-05
5.80366e-05
5.8094e-05
5.81482e-05
5.81992e-05
5.82451e-05
5.82863e-05
5.83206e-05
5.83457e-05
5.83615e-05
5.8365e-05
5.83536e-05
5.83245e-05
5.82749e-05
5.82038e-05
5.81088e-05
5.79868e-05
5.78362e-05
5.762e-05
5.7388e-05
5.72299e-05
5.70687e-05
5.6911e-05
5.67568e-05
5.66032e-05
5.64478e-05
5.62884e-05
5.62154e-05
5.62173e-05
5.62864e-05
5.64124e-05
5.65832e-05
5.67857e-05
5.70038e-05
8.18767e-05
8.10873e-05
8.02847e-05
7.94603e-05
7.86119e-05
7.77399e-05
7.68473e-05
7.59387e-05
7.50194e-05
7.40952e-05
7.31718e-05
7.2255e-05
7.13501e-05
7.04614e-05
6.9593e-05
6.87488e-05
6.79307e-05
6.71411e-05
6.63818e-05
6.56527e-05
6.49549e-05
6.42874e-05
6.36497e-05
6.3042e-05
6.24628e-05
6.1911e-05
6.13847e-05
6.08811e-05
6.03979e-05
5.99315e-05
5.94785e-05
5.90368e-05
5.86069e-05
5.8198e-05
5.78285e-05
5.7397e-05
5.77497e-05
5.80758e-05
5.84453e-05
5.8858e-05
5.93109e-05
5.98091e-05
6.03627e-05
6.08963e-05
6.14147e-05
6.19196e-05
6.24106e-05
6.2885e-05
6.33391e-05
6.37694e-05
5.48225e-06
5.46269e-06
5.4433e-06
5.42314e-06
5.40215e-06
5.38038e-06
5.35794e-06
5.33493e-06
5.31145e-06
5.28763e-06
5.26358e-06
5.2394e-06
5.21518e-06
5.19096e-06
5.16679e-06
5.14267e-06
5.1186e-06
5.09457e-06
5.07056e-06
5.04659e-06
5.02598e-06
4.98289e-06
4.94754e-06
4.91749e-06
4.89067e-06
4.86582e-06
4.85142e-06
4.83067e-06
4.80729e-06
4.78335e-06
4.75988e-06
4.73727e-06
4.71557e-06
4.69463e-06
4.67426e-06
4.65425e-06
4.63448e-06
4.61485e-06
4.59536e-06
4.57611e-06
4.55722e-06
4.53912e-06
4.52189e-06
4.50502e-06
4.48799e-06
4.47076e-06
4.45321e-06
4.4424e-06
4.45496e-06
4.48596e-06
5.41609e-06
5.30108e-06
5.18977e-06
5.08163e-06
4.97787e-06
4.87854e-06
4.78343e-06
4.69233e-06
4.60503e-06
4.52137e-06
4.4412e-06
4.3644e-06
4.29086e-06
4.22046e-06
4.15304e-06
4.08842e-06
4.02642e-06
3.96684e-06
3.90958e-06
3.85511e-06
1.65652e-05
1.6511e-05
1.64637e-05
1.63986e-05
1.6313e-05
1.62137e-05
1.60523e-05
1.59439e-05
1.58854e-05
1.58623e-05
1.58584e-05
1.58602e-05
1.58583e-05
1.58475e-05
1.58256e-05
1.57928e-05
1.57503e-05
1.57e-05
1.56432e-05
1.55805e-05
1.55126e-05
1.54394e-05
1.53619e-05
1.52842e-05
1.52089e-05
1.51321e-05
1.50474e-05
1.49444e-05
1.48461e-05
3.36919e-06
5.41514e-06
5.2981e-06
5.18434e-06
5.07368e-06
4.96653e-06
4.86293e-06
4.76285e-06
4.66618e-06
4.57284e-06
4.48278e-06
4.39593e-06
4.31227e-06
4.23172e-06
4.1542e-06
4.0796e-06
4.00774e-06
3.93845e-06
3.87154e-06
3.80696e-06
1.59657e-05
1.58508e-05
1.57381e-05
1.56231e-05
1.55066e-05
1.53896e-05
1.52733e-05
1.51581e-05
1.50481e-05
1.49441e-05
1.48458e-05
1.47519e-05
1.46608e-05
1.45711e-05
1.44813e-05
1.43905e-05
1.42982e-05
1.42041e-05
1.41082e-05
1.40105e-05
1.39121e-05
1.38131e-05
1.37137e-05
1.36144e-05
1.35166e-05
1.3423e-05
1.33369e-05
1.32545e-05
1.31503e-05
1.29772e-05
1.27087e-05
5.41505e-06
5.29867e-06
5.18578e-06
5.07601e-06
4.96967e-06
4.86673e-06
4.7671e-06
4.67071e-06
4.57749e-06
4.48739e-06
4.40039e-06
4.31648e-06
4.23562e-06
4.15774e-06
4.08273e-06
4.01046e-06
3.94074e-06
3.87337e-06
3.80829e-06
1.59776e-05
1.58557e-05
1.5732e-05
1.56074e-05
1.54829e-05
1.53591e-05
1.52368e-05
1.51163e-05
1.49981e-05
1.48821e-05
1.47681e-05
1.46556e-05
1.45443e-05
1.44335e-05
1.43226e-05
1.42113e-05
1.40992e-05
1.39861e-05
1.38719e-05
1.37567e-05
1.36407e-05
1.35243e-05
1.34079e-05
1.32915e-05
1.31744e-05
1.30577e-05
1.29489e-05
1.28645e-05
1.28172e-05
1.27772e-05
1.26135e-05
5.41504e-06
5.29864e-06
5.18569e-06
5.0758e-06
4.96931e-06
4.86622e-06
4.76646e-06
4.66993e-06
4.57657e-06
4.48635e-06
4.39924e-06
4.31524e-06
4.23431e-06
4.15639e-06
4.08139e-06
4.00916e-06
3.93953e-06
3.8723e-06
3.80738e-06
1.59734e-05
1.58529e-05
1.57303e-05
1.56066e-05
1.54825e-05
1.5359e-05
1.52367e-05
1.51161e-05
1.49973e-05
1.48803e-05
1.47649e-05
1.46507e-05
1.45373e-05
1.44241e-05
1.43108e-05
1.41968e-05
1.40819e-05
1.39659e-05
1.38487e-05
1.37303e-05
1.3611e-05
1.34911e-05
1.33718e-05
1.3254e-05
1.31369e-05
1.30162e-05
1.28862e-05
1.27523e-05
1.26453e-05
1.25969e-05
1.25116e-05
5.41504e-06
5.29872e-06
5.18592e-06
5.07624e-06
4.96999e-06
4.86715e-06
4.76763e-06
4.6713e-06
4.57812e-06
4.48801e-06
4.40098e-06
4.31701e-06
4.23611e-06
4.15821e-06
4.08324e-06
4.01106e-06
3.9415e-06
3.87436e-06
3.80955e-06
1.5993e-05
1.5872e-05
1.5749e-05
1.56247e-05
1.55e-05
1.53757e-05
1.52525e-05
1.51309e-05
1.50111e-05
1.48931e-05
1.47766e-05
1.46614e-05
1.4547e-05
1.44328e-05
1.43185e-05
1.42036e-05
1.40878e-05
1.3971e-05
1.38531e-05
1.3734e-05
1.3614e-05
1.3493e-05
1.33718e-05
1.32523e-05
1.31382e-05
1.30306e-05
1.29224e-05
1.27994e-05
1.26664e-05
1.25723e-05
1.24866e-05
5.41504e-06
5.29875e-06
5.18599e-06
5.07635e-06
4.97014e-06
4.86731e-06
4.76776e-06
4.67138e-06
4.57809e-06
4.48784e-06
4.40065e-06
4.31652e-06
4.23545e-06
4.15743e-06
4.08237e-06
4.01015e-06
3.9406e-06
3.87352e-06
3.80881e-06
1.59903e-05
1.58706e-05
1.57486e-05
1.5625e-05
1.55008e-05
1.53769e-05
1.52539e-05
1.51323e-05
1.50123e-05
1.48942e-05
1.47775e-05
1.46621e-05
1.45474e-05
1.4433e-05
1.43185e-05
1.42034e-05
1.40874e-05
1.39704e-05
1.38523e-05
1.37334e-05
1.36139e-05
1.34938e-05
1.33725e-05
1.32499e-05
1.31284e-05
1.3014e-05
1.29107e-05
1.28081e-05
1.26893e-05
1.25807e-05
1.24844e-05
5.41505e-06
5.29879e-06
5.18608e-06
5.0765e-06
4.97035e-06
4.8676e-06
4.76811e-06
4.67177e-06
4.57847e-06
4.48821e-06
4.40096e-06
4.31678e-06
4.23567e-06
4.15762e-06
4.08258e-06
4.01041e-06
3.94095e-06
3.874e-06
3.80943e-06
1.59978e-05
1.58783e-05
1.57564e-05
1.56328e-05
1.55084e-05
1.5384e-05
1.52605e-05
1.51382e-05
1.50177e-05
1.48988e-05
1.47814e-05
1.46653e-05
1.45499e-05
1.44348e-05
1.43196e-05
1.42039e-05
1.40874e-05
1.39699e-05
1.38514e-05
1.37321e-05
1.36125e-05
1.34934e-05
1.33751e-05
1.32564e-05
1.31359e-05
1.30155e-05
1.29032e-05
1.28018e-05
1.26952e-05
1.25884e-05
1.24876e-05
5.41506e-06
5.29881e-06
5.18613e-06
5.0766e-06
4.9705e-06
4.86777e-06
4.7683e-06
4.67193e-06
4.57857e-06
4.4882e-06
4.40084e-06
4.31653e-06
4.23531e-06
4.15717e-06
4.08207e-06
4.00989e-06
3.94047e-06
3.87358e-06
3.80912e-06
1.59979e-05
1.58791e-05
1.57577e-05
1.56344e-05
1.55101e-05
1.53857e-05
1.5262e-05
1.51395e-05
1.50186e-05
1.48993e-05
1.47815e-05
1.46649e-05
1.4549e-05
1.44333e-05
1.43176e-05
1.42013e-05
1.40844e-05
1.39666e-05
1.38481e-05
1.37287e-05
1.36087e-05
1.34889e-05
1.33706e-05
1.32548e-05
1.31397e-05
1.30228e-05
1.29072e-05
1.28009e-05
1.26972e-05
1.25938e-05
1.24927e-05
5.41506e-06
5.29884e-06
5.18618e-06
5.07668e-06
4.97063e-06
4.86794e-06
4.76848e-06
4.6721e-06
4.5787e-06
4.48826e-06
4.40082e-06
4.31642e-06
4.23513e-06
4.15695e-06
4.08184e-06
4.00968e-06
3.94031e-06
3.87352e-06
3.80916e-06
1.60004e-05
1.58819e-05
1.57608e-05
1.56376e-05
1.55133e-05
1.53888e-05
1.52648e-05
1.5142e-05
1.50206e-05
1.49008e-05
1.47824e-05
1.46651e-05
1.45485e-05
1.44321e-05
1.43156e-05
1.41986e-05
1.4081e-05
1.39629e-05
1.38443e-05
1.37255e-05
1.36064e-05
1.3487e-05
1.33683e-05
1.32519e-05
1.31389e-05
1.30268e-05
1.29139e-05
1.28054e-05
1.27011e-05
1.25987e-05
1.24978e-05
5.41507e-06
5.29886e-06
5.18623e-06
5.07676e-06
4.97074e-06
4.86807e-06
4.76862e-06
4.67221e-06
4.57876e-06
4.48826e-06
4.40073e-06
4.31625e-06
4.23488e-06
4.15664e-06
4.0815e-06
4.00935e-06
3.94003e-06
3.87329e-06
3.80902e-06
1.60012e-05
1.58831e-05
1.57622e-05
1.56393e-05
1.5515e-05
1.53905e-05
1.52664e-05
1.51433e-05
1.50216e-05
1.49014e-05
1.47825e-05
1.46645e-05
1.45472e-05
1.443e-05
1.43127e-05
1.41949e-05
1.40765e-05
1.39577e-05
1.38386e-05
1.37197e-05
1.36013e-05
1.34834e-05
1.33658e-05
1.32495e-05
1.31362e-05
1.30259e-05
1.29163e-05
1.28082e-05
1.27034e-05
1.26006e-05
1.24991e-05
5.41508e-06
5.29887e-06
5.18627e-06
5.07683e-06
4.97082e-06
4.86817e-06
4.7687e-06
4.67228e-06
4.57878e-06
4.4882e-06
4.40059e-06
4.31602e-06
4.23457e-06
4.15627e-06
4.08109e-06
4.00893e-06
3.93961e-06
3.87291e-06
3.80869e-06
1.60003e-05
1.58826e-05
1.57621e-05
1.56394e-05
1.55154e-05
1.53909e-05
1.52668e-05
1.51437e-05
1.50217e-05
1.49011e-05
1.47817e-05
1.4663e-05
1.45449e-05
1.44268e-05
1.43086e-05
1.419e-05
1.40709e-05
1.39516e-05
1.3832e-05
1.37127e-05
1.35944e-05
1.34775e-05
1.33616e-05
1.32467e-05
1.31336e-05
1.30238e-05
1.29158e-05
1.28091e-05
1.2704e-05
1.26007e-05
1.24983e-05
5.41508e-06
5.2989e-06
5.1863e-06
5.07687e-06
4.97088e-06
4.86824e-06
4.76877e-06
4.67233e-06
4.57881e-06
4.48819e-06
4.40054e-06
4.31593e-06
4.23445e-06
4.15613e-06
4.08095e-06
4.0088e-06
3.93952e-06
3.87286e-06
3.8087e-06
1.60016e-05
1.58841e-05
1.57637e-05
1.56411e-05
1.55171e-05
1.53926e-05
1.52684e-05
1.51451e-05
1.50228e-05
1.49017e-05
1.47816e-05
1.46623e-05
1.45432e-05
1.44241e-05
1.43048e-05
1.41851e-05
1.40651e-05
1.39451e-05
1.38254e-05
1.3706e-05
1.35875e-05
1.34709e-05
1.33561e-05
1.32429e-05
1.31311e-05
1.30218e-05
1.29144e-05
1.28086e-05
1.27037e-05
1.25997e-05
1.24962e-05
5.41508e-06
5.2989e-06
5.18631e-06
5.07687e-06
4.97086e-06
4.86818e-06
4.76867e-06
4.67215e-06
4.57855e-06
4.48783e-06
4.40007e-06
4.31536e-06
4.23377e-06
4.15536e-06
4.08011e-06
4.00791e-06
3.93859e-06
3.87192e-06
3.80775e-06
1.59954e-05
1.58785e-05
1.57586e-05
1.56365e-05
1.5513e-05
1.5389e-05
1.5265e-05
1.51418e-05
1.50196e-05
1.48983e-05
1.47779e-05
1.4658e-05
1.45382e-05
1.44183e-05
1.42981e-05
1.41776e-05
1.40569e-05
1.39363e-05
1.38163e-05
1.36974e-05
1.35794e-05
1.34632e-05
1.33492e-05
1.32374e-05
1.31272e-05
1.30188e-05
1.29122e-05
1.28068e-05
1.27022e-05
1.25978e-05
1.24933e-05
5.41509e-06
5.29891e-06
5.18631e-06
5.07688e-06
4.97088e-06
4.86823e-06
4.76875e-06
4.67227e-06
4.57869e-06
4.488e-06
4.40027e-06
4.31558e-06
4.23401e-06
4.15563e-06
4.0804e-06
4.00822e-06
3.93892e-06
3.87225e-06
3.80809e-06
1.59985e-05
1.5881e-05
1.57608e-05
1.56384e-05
1.55147e-05
1.53904e-05
1.52662e-05
1.51426e-05
1.50198e-05
1.48979e-05
1.47767e-05
1.46558e-05
1.4535e-05
1.44139e-05
1.42926e-05
1.4171e-05
1.40494e-05
1.39281e-05
1.38077e-05
1.36887e-05
1.35715e-05
1.3456e-05
1.33428e-05
1.3232e-05
1.31232e-05
1.3016e-05
1.29104e-05
1.28056e-05
1.27013e-05
1.25971e-05
1.24923e-05
5.41509e-06
5.29887e-06
5.18616e-06
5.07657e-06
4.97038e-06
4.8675e-06
4.76778e-06
4.67106e-06
4.57725e-06
4.48635e-06
4.39842e-06
4.31356e-06
4.23186e-06
4.15337e-06
4.07806e-06
4.00582e-06
3.93648e-06
3.86978e-06
3.80559e-06
1.59791e-05
1.58627e-05
1.57435e-05
1.56222e-05
1.54994e-05
1.53761e-05
1.52527e-05
1.51299e-05
1.50077e-05
1.48862e-05
1.47652e-05
1.46443e-05
1.45234e-05
1.44023e-05
1.42809e-05
1.41594e-05
1.40381e-05
1.39174e-05
1.37978e-05
1.36799e-05
1.35643e-05
1.34507e-05
1.33397e-05
1.32312e-05
1.31249e-05
1.30204e-05
1.29173e-05
1.28153e-05
1.27136e-05
1.26121e-05
1.25105e-05
5.41509e-06
5.29886e-06
5.18622e-06
5.07677e-06
4.97076e-06
4.86807e-06
4.76851e-06
4.67191e-06
4.5782e-06
4.48737e-06
4.39948e-06
4.31463e-06
4.23292e-06
4.1544e-06
4.07903e-06
4.00671e-06
3.93726e-06
3.87044e-06
3.80611e-06
1.59828e-05
1.58656e-05
1.57459e-05
1.56242e-05
1.55013e-05
1.53781e-05
1.5255e-05
1.51328e-05
1.50116e-05
1.48913e-05
1.47716e-05
1.46525e-05
1.45335e-05
1.44148e-05
1.42962e-05
1.4178e-05
1.40604e-05
1.3944e-05
1.38294e-05
1.37168e-05
1.36071e-05
1.35001e-05
1.3396e-05
1.32948e-05
1.31963e-05
1.31003e-05
1.3006e-05
1.29135e-05
1.28225e-05
1.27326e-05
1.26443e-05
5.41509e-06
5.29804e-06
5.18444e-06
5.07408e-06
4.96725e-06
4.86388e-06
4.7638e-06
4.66685e-06
4.57293e-06
4.48202e-06
4.39418e-06
4.3095e-06
4.22807e-06
4.14992e-06
4.07501e-06
4.00321e-06
3.93435e-06
3.86816e-06
3.80452e-06
1.59734e-05
1.58576e-05
1.57438e-05
1.56254e-05
1.55054e-05
1.53858e-05
1.5268e-05
1.51593e-05
1.50589e-05
1.49634e-05
1.48702e-05
1.47778e-05
1.46858e-05
1.45939e-05
1.45022e-05
1.4411e-05
1.43204e-05
1.4231e-05
1.41431e-05
1.40571e-05
1.39734e-05
1.38924e-05
1.38141e-05
1.37383e-05
1.36652e-05
1.35945e-05
1.35262e-05
1.346e-05
1.33965e-05
1.33363e-05
1.32806e-05
5.41544e-06
5.29944e-06
5.18761e-06
5.07926e-06
4.9757e-06
4.87651e-06
4.78128e-06
4.68971e-06
4.6016e-06
4.51689e-06
4.43559e-06
4.35776e-06
4.28347e-06
4.21271e-06
4.14544e-06
4.08149e-06
4.02065e-06
3.96265e-06
3.90726e-06
3.85446e-06
3.77226e-06
1.60987e-05
1.61043e-05
1.60396e-05
1.59433e-05
1.5836e-05
1.57299e-05
1.57444e-05
1.58031e-05
1.58687e-05
1.59249e-05
1.5966e-05
1.59912e-05
1.60018e-05
1.60001e-05
1.59883e-05
1.59685e-05
1.59423e-05
1.59112e-05
1.58765e-05
1.58391e-05
1.57997e-05
1.57589e-05
1.57172e-05
1.56747e-05
1.56323e-05
1.55906e-05
1.55502e-05
1.55137e-05
1.54847e-05
5.48485e-06
5.46404e-06
5.44296e-06
5.42183e-06
5.3997e-06
5.37673e-06
5.35309e-06
5.32899e-06
5.30465e-06
5.28033e-06
5.25621e-06
5.23243e-06
5.20902e-06
5.18592e-06
5.16302e-06
5.14018e-06
5.11726e-06
5.09414e-06
5.07076e-06
5.04714e-06
5.03409e-06
5.01626e-06
4.99549e-06
4.97273e-06
4.94884e-06
4.92442e-06
4.87879e-06
4.84096e-06
4.80872e-06
4.78029e-06
4.75434e-06
4.72986e-06
4.70623e-06
4.68303e-06
4.66006e-06
4.63732e-06
4.6149e-06
4.59292e-06
4.57155e-06
4.55091e-06
4.53103e-06
4.51193e-06
4.49352e-06
4.47564e-06
4.45809e-06
4.44052e-06
4.4228e-06
4.40459e-06
4.38559e-06
4.36546e-06
1.39125e-05
2.57377e-05
1.31817e-05
3.06236e-05
1.65929e-05
1.03666e-05
7.28178e-06
5.61458e-06
4.67428e-06
4.12709e-06
3.79185e-06
3.56811e-06
3.40196e-06
3.2663e-06
3.14798e-06
3.0406e-06
2.94039e-06
2.84227e-06
2.73466e-06
2.58551e-06
1.60218e-05
1.43233e-05
3.05157e-05
1.63975e-05
1.05397e-05
7.54963e-06
5.84027e-06
4.83268e-06
4.2336e-06
3.86599e-06
3.62299e-06
3.4444e-06
3.29908e-06
3.17244e-06
3.05853e-06
2.95457e-06
2.8586e-06
2.76683e-06
2.66881e-06
2.53985e-06
1.7686e-05
7.21069e-06
1.68846e-05
1.12039e-05
8.09618e-06
6.20794e-06
5.05946e-06
4.37296e-06
3.95748e-06
3.6893e-06
3.49602e-06
3.3396e-06
3.20262e-06
3.07865e-06
2.96605e-06
2.86409e-06
2.77208e-06
2.68701e-06
2.59892e-06
2.49082e-06
7.45249e-06
1.79768e-05
1.25717e-05
9.09806e-06
6.81824e-06
5.40405e-06
4.5674e-06
4.07588e-06
3.77119e-06
3.55939e-06
3.3907e-06
3.24214e-06
3.10569e-06
2.98039e-06
2.8672e-06
2.76609e-06
2.67725e-06
2.59845e-06
2.5193e-06
2.42992e-06
2.90079e-06
1.38215e-05
1.06604e-05
7.82544e-06
5.95787e-06
4.86122e-06
4.2411e-06
3.87797e-06
3.63993e-06
3.45712e-06
3.29674e-06
3.14686e-06
3.00623e-06
2.87754e-06
2.7629e-06
2.6619e-06
2.57538e-06
2.50236e-06
2.43075e-06
2.36176e-06
3.26661e-06
1.33367e-05
9.62354e-06
6.92e-06
5.34237e-06
4.48884e-06
4.02333e-06
3.74297e-06
3.54178e-06
3.36982e-06
3.20732e-06
3.0506e-06
2.90347e-06
2.7709e-06
2.65482e-06
2.55337e-06
2.46814e-06
2.39937e-06
2.33084e-06
2.28603e-06
3.48935e-06
1.26772e-05
8.67539e-06
6.1954e-06
4.89383e-06
4.2345e-06
3.87746e-06
3.64742e-06
3.4629e-06
3.28995e-06
3.11894e-06
2.95271e-06
2.79884e-06
2.66338e-06
2.54657e-06
2.44429e-06
2.35905e-06
2.29181e-06
2.21527e-06
2.18657e-06
3.6183e-06
1.1921e-05
7.84496e-06
5.63328e-06
4.57539e-06
4.0639e-06
3.77909e-06
3.57624e-06
3.39488e-06
3.2136e-06
3.03083e-06
2.85477e-06
2.69579e-06
2.55963e-06
2.44352e-06
2.3404e-06
2.25378e-06
2.18329e-06
2.07897e-06
2.12319e-06
3.69855e-06
1.11597e-05
7.14613e-06
5.20948e-06
4.35514e-06
3.95138e-06
3.71156e-06
3.52003e-06
3.33324e-06
3.1396e-06
2.94436e-06
2.76029e-06
2.59944e-06
2.46577e-06
2.35229e-06
2.24899e-06
2.15996e-06
2.07916e-06
1.92777e-06
2.04305e-06
3.74913e-06
1.04374e-05
6.57385e-06
4.8979e-06
4.20683e-06
3.87828e-06
3.6639e-06
3.47324e-06
3.27606e-06
3.06873e-06
2.8625e-06
2.67394e-06
2.51557e-06
2.38805e-06
2.27929e-06
2.17755e-06
2.08588e-06
1.98681e-06
1.78226e-06
1.97857e-06
3.78031e-06
9.77482e-06
6.11547e-06
4.67458e-06
4.11009e-06
3.83171e-06
3.62924e-06
3.43307e-06
3.22333e-06
3.00316e-06
2.78919e-06
2.60082e-06
2.44943e-06
2.33121e-06
2.22905e-06
2.13178e-06
2.03815e-06
1.91749e-06
1.72123e-06
1.94634e-06
3.7981e-06
9.18083e-06
5.75647e-06
4.51933e-06
4.04967e-06
3.80288e-06
3.60351e-06
3.39854e-06
3.17631e-06
2.94585e-06
2.72857e-06
2.54519e-06
2.40431e-06
2.2971e-06
2.20282e-06
2.11326e-06
2.01848e-06
1.87767e-06
1.76183e-06
1.9418e-06
3.80645e-06
8.66001e-06
5.48262e-06
4.41567e-06
4.01463e-06
3.78623e-06
3.58472e-06
3.36996e-06
3.13699e-06
2.89994e-06
2.68405e-06
2.50944e-06
2.38058e-06
2.28429e-06
2.19843e-06
2.11826e-06
2.02207e-06
1.86221e-06
1.7797e-06
1.95182e-06
3.80839e-06
8.21565e-06
5.28098e-06
4.35061e-06
3.9973e-06
3.77845e-06
3.57217e-06
3.34836e-06
3.10759e-06
2.86814e-06
2.65755e-06
2.49354e-06
2.37582e-06
2.28866e-06
2.21096e-06
2.13904e-06
2.04044e-06
1.87162e-06
1.79261e-06
1.96662e-06
3.80609e-06
7.84875e-06
5.13985e-06
4.31431e-06
3.99273e-06
3.77792e-06
3.56612e-06
3.33511e-06
3.09005e-06
2.85205e-06
2.64916e-06
2.49526e-06
2.38613e-06
2.30546e-06
2.23458e-06
2.16715e-06
2.06512e-06
1.90134e-06
1.81513e-06
1.98016e-06
3.80137e-06
7.56028e-06
5.04943e-06
4.29986e-06
3.99795e-06
3.78399e-06
3.56705e-06
3.33146e-06
3.08565e-06
2.85197e-06
2.65735e-06
2.51121e-06
2.40734e-06
2.33055e-06
2.26412e-06
2.19604e-06
2.08631e-06
1.94162e-06
1.84396e-06
1.99225e-06
3.79525e-06
7.35105e-06
5.00185e-06
4.30253e-06
4.01137e-06
3.79653e-06
3.57549e-06
3.33824e-06
3.09471e-06
2.86669e-06
2.67938e-06
2.53811e-06
2.43647e-06
2.3612e-06
2.29631e-06
2.22212e-06
2.09424e-06
1.96076e-06
1.86757e-06
2.00707e-06
3.78877e-06
7.22167e-06
4.99088e-06
4.31921e-06
4.0321e-06
3.8156e-06
3.59176e-06
3.35575e-06
3.11668e-06
2.89638e-06
2.71284e-06
2.57225e-06
2.47036e-06
2.39601e-06
2.32987e-06
2.24455e-06
2.08505e-06
1.91972e-06
1.87843e-06
2.02772e-06
3.78317e-06
7.1707e-06
5.01102e-06
4.34784e-06
4.05961e-06
3.84124e-06
3.62008e-06
3.3868e-06
3.15249e-06
2.93633e-06
2.75466e-06
2.61373e-06
2.51002e-06
2.43266e-06
2.36492e-06
2.26544e-06
2.06667e-06
1.71831e-06
1.88014e-06
2.05522e-06
3.77982e-06
7.19221e-06
5.05671e-06
4.38783e-06
4.09637e-06
3.87713e-06
3.65797e-06
3.42886e-06
3.19943e-06
2.98691e-06
2.80631e-06
2.66418e-06
2.55792e-06
2.47698e-06
2.40084e-06
2.2891e-06
2.06524e-06
1.6477e-06
1.89683e-06
2.08512e-06
3.78037e-06
7.26952e-06
5.12983e-06
4.43877e-06
4.14025e-06
3.92118e-06
3.70552e-06
3.4818e-06
3.25781e-06
3.04892e-06
2.86915e-06
2.72537e-06
2.61617e-06
2.53147e-06
2.44955e-06
2.33044e-06
2.11045e-06
1.72999e-06
1.91509e-06
2.11493e-06
3.78635e-06
7.38694e-06
5.21664e-06
4.49782e-06
4.1913e-06
3.97336e-06
3.76249e-06
3.54533e-06
3.32761e-06
3.1229e-06
2.94434e-06
2.79915e-06
2.68718e-06
2.59917e-06
2.51383e-06
2.39433e-06
2.19374e-06
1.89527e-06
1.9417e-06
2.14313e-06
3.79845e-06
7.52847e-06
5.31698e-06
4.56504e-06
4.2492e-06
4.03315e-06
3.82828e-06
3.61884e-06
3.40846e-06
3.20898e-06
3.0326e-06
2.88701e-06
2.77324e-06
2.68331e-06
2.59731e-06
2.48188e-06
2.3001e-06
2.06444e-06
1.98263e-06
2.16763e-06
3.81535e-06
7.69024e-06
5.43006e-06
4.64018e-06