/*--------------------------------*- C++ -*----------------------------------*\
  =========                 |
  \\      /  F ield         | OpenFOAM: The Open Source CFD Toolbox
   \\    /   O peration     | Website:  https://openfoam.org
    \\  /    A nd           | Version:  8
     \\/     M anipulation  |
\*---------------------------------------------------------------------------*/
FoamFile
{
    version     2.0;
    format      ascii;
    class       volScalarField;
    location    "700";
    object      p_rgh;
}
// * * * * * * * * * * * * * * * * * * * * * * * * * * * * * * * * * * * * * //

dimensions      [1 -1 -2 0 0 0 0];

internalField   nonuniform List<scalar> 
8400
(
9480.59
22246.1
33537.3
42974.1
51297.6
58979.8
66233.4
73235
80281.6
87792
96262.5
106302
118811
135186
157343
187306
226247
273090
323645
371684
411987
442608
464173
477772
484464
486621
487597
490106
495726
504372
514164
522924
530199
536232
541278
545709
549940
554356
559257
564823
571068
577848
584888
591848
598394
604258
609260
613350
616672
619477
8739.57
22883.8
34234.1
43207.9
51164.6
58661.8
65767.6
72537.7
79185.8
86002.2
93320.1
101629
111848
125654
145545
174310
213747
262882
316917
368479
411409
443721
466644
481273
487206
486832
485534
486881
492776
502915
514335
523660
530961
536864
541609
545653
549479
553520
558111
563447
569551
576278
583340
590380
597055
603089
608298
612617
616155
619140
11392.4
26895.8
37110.2
45318.2
52819.7
60168.6
67283
74096.8
80754.5
87498
94632
102607
112268
125250
144124
172002
211403
262354
320442
376933
423275
456532
479466
494440
497192
490963
485141
483446
488125
499747
514597
525232
532591
538318
542515
545849
548949
552337
556404
561380
567306
574025
581211
588461
595389
601698
607196
611807
615606
618802
4489.98
20854.1
33164.1
42211.5
50207.9
57819.5
64946.3
71672.5
78201.6
84777.3
91666.1
99270.6
108440
120892
139391
167341
207612
260458
321003
379372
427324
463468
490618
507548
506426
490350
473728
463769
466813
488460
517192
529921
535724
540899
544014
546183
548163
550563
553835
558277
563968
570731
578169
585788
593131
599856
605754
610737
614854
618290
-30439.6
577.815
25023
39360.9
49808.3
59095.4
67672.6
75638.8
83310.2
91021
99151.5
108274
119335
133757
153248
179278
212406
251765
295284
341022
387344
431909
471001
497063
498044
480817
464439
459322
475789
514629
537043
535443
536559
543689
545669
546504
547099
548295
550635
554501
559993
566895
574706
582815
590678
597899
604247
609630
614079
617753
-8811.34
9339.45
30910.9
46328.8
57699.6
67488
76276.8
84120.3
91304.8
98356.6
105792
114113
123948
136003
150935
169201
190854
215319
242131
271906
305463
342152
378906
410274
430419
441900
452847
468708
492997
522125
532216
536820
547108
550411
547210
546819
545923
545905
547317
550587
555867
562943
571173
579815
588237
595979
602783
608557
613328
617230
-10386.1
8023.23
28617.1
44192.9
55887
65684.6
74322
82051.1
89178.4
96084.7
103199
110977
119860
130291
142684
157305
174234
193468
215124
239382
266185
295105
325215
355056
383102
409731
436540
464094
491519
515406
529087
539452
548410
549335
549811
547864
544429
543373
543791
546272
551313
558794
567676
576990
586034
594308
601545
607664
612708
616800
-2596.98
15469.2
34580.9
49298.8
60580.8
70047.2
78397.9
85932.3
92920
99651.5
106419
113542
121348
130164
140309
152046
165553
180927
198228
217487
238743
262141
287916
316204
346788
379195
412621
445620
476241
502437
522259
536869
545929
548849
549183
546124
543267
540811
539415
540982
545885
554257
564281
574554
584312
593107
600719
607108
612343
616556
-392.207
19027.8
37194.7
51048.5
61971.8
71248.9
79397.4
86676.7
93319.6
99562
105643
111823
118378
125592
133745
143102
153897
166334
180587
196827
215273
236251
260203
287564
318463
352438
388297
424179
457932
487720
512049
530206
541971
547828
549114
546589
542808
538912
538692
540864
544708
552580
562919
573658
583772
592802
600575
607071
612366
616600
4113.8
24377.4
41647.7
54667.4
65125.1
74028
81754.7
88546.1
94635.9
100246
105601
110937
116499
122543
129333
137139
146236
156886
169344
183860
200715
220253
242896
269095
299132
332806
369131
406342
442266
474878
502503
523994
539017
547804
551152
550298
547178
543736
542865
544208
548652
555974
565368
575435
585099
593802
601343
607677
612849
616979
7258.54
28502.9
44850.5
57130.4
67155.8
75666.5
82977
89340.6
94992.7
100146
105011
109799
114733
120054
126023
132921
141051
150714
162210
175830
191873
210658
232555
257978
287272
320445
356739
394558
431813
466405
496519
520828
538738
550237
555989
557268
555831
553632
552697
553761
557422
563297
570956
579562
588113
595989
602926
608831
613700
617612
11710.8
31576.5
46624.3
58485.8
68314.1
76614.3
83705.6
89855.4
95295.4
100236
104875
109414
114062
119052
124641
131114
138781
147963
158984
172167
187835
206316
227958
253122
282136
315151
351482
389604
427586
463421
495242
521602
541747
555545
563542
566870
567088
565926
565034
565490
567989
572360
578251
585155
592277
599021
605091
610359
614780
618382
13042.6
32216
46758.7
58583.8
68388.3
76642
83690.4
89805.4
95218.1
100138
104762
109290
113929
118908
124481
130932
138574
147735
158756
171981
187758
206440
228386
253935
283398
316803
353345
391557
429700
466073
498795
526361
547999
563492
573232
578157
579603
579087
578099
577822
579026
581814
586008
591249
596914
602450
607556
612091
615986
619219
12582.6
30633.2
45373.6
57457.9
67485
75930.7
83149.1
89419.7
94980.6
100045
104814
109493
114296
119458
125239
131927
139838
149303
160671
174293
190529
209749
232337
258698
289190
323528
360662
399123
437410
473943
506794
534701
557061
573524
584330
590233
592361
592066
590746
589618
589529
590828
593460
597176
601493
605891
610059
613859
617208
620057
11715.4
28482.9
43110.4
55375.6
65705.7
74481.6
82025.9
88611.7
94481.3
99854.4
104942
109957
115128
120698
126940
134149
142644
152763
164860
179294
196432
216651
240320
267792
299263
334328
371982
410846
449424
485813
518160
545779
568187
584893
596090
602359
604643
604161
602265
600206
598915
598880
600141
602531
605669
609068
612400
615522
618356
620838
11276.1
26900.9
41084.8
53309
63818
72877.9
80755.3
87700.3
93945.3
99709.4
105210
110672
116332
122447
129300
137198
146470
157466
170547
186083
204445
225993
251055
279869
312453
348341
386572
425792
464393
500446
532277
559105
580545
596663
607732
613921
615961
614964
612281
609231
606835
605656
605803
607113
609265
611816
614436
616976
619358
621512
10789.2
25399.3
39083.3
51173.2
61788.7
71095.7
79301.6
86625.2
93284.9
99498.2
105487
111486
117739
124512
132096
140805
150974
162962
177144
193896
213590
236564
263087
293294
327056
363833
402642
442120
480622
516334
547699
573763
593982
608595
618576
624341
625950
624262
620643
616555
613149
611036
610323
610806
612172
614031
616073
618144
620160
622044
10519.8
24355.4
37602.3
49538.5
60208.5
69707
78191.4
85850.1
92887.7
99519.9
105975
112495
119337
126778
135115
144667
155776
168801
184115
202094
223100
247444
275342
306837
341696
379298
418621
458288
496668
532039
562896
588193
607345
620475
628668
633244
634311
631912
627312
622184
617887
615085
613806
613742
614531
615831
617391
619073
620786
622447
10248.8
23448.4
36336.1
48132.3
58827.5
68467
77167.6
85088
92414.3
99354.8
106139
113019
120262
128159
137024
147185
158993
172815
189019
207978
230034
255474
284469
317004
352777
391124
430990
470977
509453
544738
575346
600185
618646
630782
637474
640538
640728
637636
632041
625835
620696
617389
615818
615491
615951
616891
618130
619558
621083
622605
10235.8
23064.7
35743.6
47454.6
58168.1
67902.2
76749.8
84851.5
92381.3
99541.3
106558
113682
121195
129398
138615
149192
161492
175891
192762
212473
235356
261677
291579
325009
361632
400750
441276
481774
520575
555974
586462
610907
628657
639683
644828
646179
645335
641905
635643
628521
622598
618821
617027
616565
616856
617585
618619
619877
621266
622677
630601
630601
630601
630601
630601
630601
630601
630601
630601
630601
630601
630601
630601
630601
630601
630601
630601
630601
630602
630602
630602
630602
630602
630602
630602
630602
630602
630602
630602
630603
630603
630603
630603
630603
630603
630603
630603
630604
630604
630604
630604
630604
630604
630604
630604
630605
630605
630605
630605
630605
630600
630600
630600
630600
630600
630600
630600
630600
630601
630601
630601
630601
630601
630601
630601
630601
630601
630601
630601
630601
630602
630602
630602
630602
630602
630602
630602
630602
630602
630602
630602
630602
630603
630603
630603
630603
630603
630603
630603
630604
630604
630604
630604
630604
630604
630604
630604
630604
630604
630605
630600
630600
630600
630600
630600
630601
630601
630601
630601
630601
630601
630601
630601
630601
630601
630601
630601
630601
630601
630601
630602
630602
630602
630602
630602
630602
630602
630602
630602
630602
630602
630602
630603
630603
630603
630603
630603
630603
630603
630604
630604
630604
630604
630604
630604
630604
630604
630604
630604
630605
630600
630600
630600
630600
630600
630600
630600
630601
630601
630601
630601
630601
630601
630601
630601
630601
630601
630601
630601
630601
630602
630602
630602
630602
630602
630602
630602
630602
630602
630602
630602
630602
630603
630603
630603
630603
630603
630603
630603
630604
630604
630604
630604
630604
630604
630604
630604
630604
630605
630605
630600
630600
630600
630600
630600
630600
630601
630601
630601
630601
630601
630601
630601
630601
630601
630601
630601
630601
630601
630601
630602
630602
630602
630602
630602
630602
630602
630602
630602
630602
630602
630602
630603
630603
630603
630603
630603
630603
630603
630604
630604
630604
630604
630604
630604
630604
630604
630604
630605
630605
630600
630600
630600
630600
630600
630600
630600
630601
630601
630601
630601
630601
630601
630601
630601
630601
630601
630601
630601
630601
630602
630602
630602
630602
630602
630602
630602
630602
630602
630602
630602
630602
630603
630603
630603
630603
630603
630603
630603
630604
630604
630604
630604
630604
630604
630604
630604
630604
630605
630605
630600
630600
630600
630600
630600
630600
630601
630601
630601
630601
630601
630601
630601
630601
630601
630601
630601
630601
630601
630601
630602
630602
630602
630602
630602
630602
630602
630602
630602
630602
630602
630602
630603
630603
630603
630603
630603
630603
630603
630604
630604
630604
630604
630604
630604
630604
630604
630604
630605
630605
630600
630600
630600
630600
630600
630600
630601
630601
630601
630601
630601
630601
630601
630601
630601
630601
630601
630601
630601
630601
630602
630602
630602
630602
630602
630602
630602
630602
630602
630602
630602
630602
630603
630603
630603
630603
630603
630603
630603
630604
630604
630604
630604
630604
630604
630604
630604
630604
630605
630605
630600
630600
630600
630600
630600
630600
630601
630601
630601
630601
630601
630601
630601
630601
630601
630601
630601
630601
630601
630601
630602
630602
630602
630602
630602
630602
630602
630602
630602
630602
630602
630602
630603
630603
630603
630603
630603
630603
630603
630604
630604
630604
630604
630604
630604
630604
630604
630604
630605
630605
630600
630600
630600
630600
630600
630600
630601
630601
630601
630601
630601
630601
630601
630601
630601
630601
630601
630601
630601
630601
630602
630602
630602
630602
630602
630602
630602
630602
630602
630602
630602
630603
630603
630603
630603
630603
630603
630603
630603
630604
630604
630604
630604
630604
630604
630604
630604
630604
630605
630605
630600
630600
630600
630600
630600
630600
630601
630601
630601
630601
630601
630601
630601
630601
630601
630601
630601
630601
630601
630601
630602
630602
630602
630602
630602
630602
630602
630602
630602
630602
630602
630603
630603
630603
630603
630603
630603
630603
630603
630604
630604
630604
630604
630604
630604
630604
630604
630605
630605
630605
630600
630600
630600
630600
630600
630601
630601
630601
630601
630601
630601
630601
630601
630601
630601
630601
630601
630601
630601
630601
630602
630602
630602
630602
630602
630602
630602
630602
630602
630602
630602
630603
630603
630603
630603
630603
630603
630603
630603
630604
630604
630604
630604
630604
630604
630604
630604
630605
630605
630605
630600
630600
630600
630600
630600
630601
630601
630601
630601
630601
630601
630601
630601
630601
630601
630601
630601
630601
630601
630601
630601
630602
630602
630602
630602
630602
630602
630602
630602
630602
630602
630603
630603
630603
630603
630603
630603
630603
630603
630604
630604
630604
630604
630604
630604
630604
630604
630605
630605
630605
630600
630600
630600
630600
630600
630601
630601
630601
630601
630601
630601
630601
630601
630601
630601
630601
630601
630601
630601
630601
630601
630602
630602
630602
630602
630602
630602
630602
630602
630602
630602
630603
630603
630603
630603
630603
630603
630603
630603
630604
630604
630604
630604
630604
630604
630604
630604
630605
630605
630605
630600
630600
630600
630600
630600
630601
630601
630601
630601
630601
630601
630601
630601
630601
630601
630601
630601
630601
630601
630601
630601
630602
630602
630602
630602
630602
630602
630602
630602
630602
630602
630603
630603
630603
630603
630603
630603
630603
630603
630604
630604
630604
630604
630604
630604
630604
630604
630605
630605
630605
630600
630600
630600
630600
630600
630601
630601
630601
630601
630601
630601
630601
630601
630601
630601
630601
630601
630601
630601
630601
630601
630602
630602
630602
630602
630602
630602
630602
630602
630602
630602
630603
630603
630603
630603
630603
630603
630603
630604
630604
630604
630604
630604
630604
630604
630604
630604
630605
630605
630605
630600
630600
630600
630600
630600
630601
630601
630601
630601
630601
630601
630601
630601
630601
630601
630601
630601
630601
630601
630601
630601
630602
630602
630602
630602
630602
630602
630602
630602
630602
630602
630603
630603
630603
630603
630603
630603
630603
630604
630604
630604
630604
630604
630604
630604
630604
630605
630605
630605
630605
630600
630600
630600
630601
630601
630601
630601
630601
630601
630601
630601
630601
630601
630601
630601
630601
630601
630601
630601
630601
630601
630602
630602
630602
630602
630602
630602
630602
630602
630602
630602
630603
630603
630603
630603
630603
630603
630603
630604
630604
630604
630604
630604
630604
630604
630604
630605
630605
630605
630605
630600
630600
630600
630600
630600
630600
630601
630601
630601
630601
630601
630601
630601
630601
630601
630601
630601
630601
630601
630601
630602
630602
630602
630602
630602
630602
630602
630602
630602
630602
630603
630603
630603
630603
630603
630603
630603
630603
630604
630604
630604
630604
630604
630604
630604
630604
630605
630605
630605
630605
630601
630601
630601
630601
630601
630601
630601
630601
630601
630601
630601
630601
630601
630601
630601
630601
630601
630601
630601
630602
630602
630602
630602
630602
630602
630602
630602
630602
630603
630603
630603
630603
630603
630603
630603
630603
630604
630604
630604
630604
630604
630604
630604
630605
630605
630605
630605
630605
630605
630606
630651
630651
630651
630650
630650
630649
630649
630648
630647
630647
630646
630645
630645
630644
630644
630644
630644
630644
630644
630644
630651
630651
630650
630650
630650
630649
630648
630648
630647
630646
630646
630645
630645
630645
630644
630644
630644
630644
630644
630645
630650
630650
630650
630649
630649
630648
630648
630647
630647
630646
630646
630645
630645
630645
630644
630644
630644
630645
630645
630645
630650
630649
630649
630649
630648
630648
630647
630647
630646
630646
630645
630645
630645
630644
630644
630644
630644
630645
630645
630645
630649
630649
630648
630648
630648
630647
630647
630646
630646
630645
630645
630645
630644
630644
630644
630644
630644
630644
630645
630645
630648
630648
630647
630647
630647
630647
630646
630646
630645
630645
630644
630644
630644
630644
630644
630644
630644
630644
630644
630644
630647
630647
630646
630646
630646
630646
630645
630645
630645
630644
630644
630644
630643
630643
630643
630643
630643
630644
630644
630644
630646
630646
630645
630645
630645
630645
630645
630644
630644
630644
630643
630643
630643
630643
630643
630643
630643
630643
630643
630643
630644
630644
630644
630644
630644
630644
630644
630644
630643
630643
630643
630643
630642
630642
630642
630642
630642
630643
630643
630643
630643
630643
630643
630643
630643
630643
630643
630643
630643
630642
630642
630642
630642
630642
630642
630642
630642
630642
630642
630642
630642
630642
630642
630642
630642
630642
630642
630642
630642
630642
630641
630641
630641
630641
630641
630641
630642
630642
630642
630642
630641
630641
630641
630641
630641
630641
630641
630641
630641
630641
630641
630641
630641
630641
630641
630641
630641
630641
630641
630641
630640
630640
630640
630640
630641
630641
630641
630641
630641
630641
630640
630640
630640
630640
630640
630640
630641
630641
630641
630641
630639
630639
630639
630639
630640
630640
630640
630640
630640
630640
630640
630640
630640
630640
630640
630640
630640
630640
630640
630640
630638
630638
630638
630639
630639
630639
630640
630640
630640
630640
630639
630639
630639
630639
630639
630640
630640
630640
630640
630640
630637
630637
630637
630638
630638
630639
630639
630639
630639
630639
630639
630639
630639
630639
630639
630639
630639
630639
630639
630639
630636
630636
630636
630637
630638
630638
630639
630639
630639
630639
630639
630639
630639
630638
630638
630638
630638
630638
630638
630638
630635
630635
630636
630636
630637
630638
630638
630638
630639
630639
630638
630638
630638
630638
630638
630638
630637
630637
630637
630638
630634
630634
630635
630636
630636
630637
630638
630638
630638
630638
630638
630638
630638
630638
630638
630637
630637
630637
630637
630637
630633
630634
630634
630635
630636
630637
630637
630638
630638
630638
630638
630638
630637
630637
630637
630637
630636
630636
630636
630637
630633
630633
630633
630634
630635
630636
630637
630637
630637
630638
630637
630637
630637
630637
630637
630636
630636
630636
630636
630636
630632
630632
630633
630634
630635
630636
630636
630637
630637
630637
630637
630637
630637
630637
630637
630636
630636
630636
630636
630636
630631
630631
630632
630633
630634
630635
630636
630636
630637
630637
630637
630637
630637
630636
630636
630636
630636
630636
630636
630636
630630
630631
630631
630632
630633
630634
630635
630636
630636
630636
630636
630636
630636
630636
630636
630636
630636
630636
630636
630636
630630
630630
630630
630631
630633
630634
630635
630635
630636
630636
630636
630636
630636
630636
630636
630636
630636
630636
630636
630636
630629
630629
630630
630631
630632
630633
630634
630635
630635
630636
630636
630636
630636
630636
630636
630636
630636
630636
630636
630636
630628
630629
630629
630630
630631
630632
630633
630634
630635
630635
630635
630636
630636
630636
630636
630636
630636
630636
630636
630636
630628
630628
630628
630629
630630
630632
630633
630634
630634
630635
630635
630635
630635
630635
630635
630636
630636
630636
630636
630636
630627
630627
630628
630628
630629
630631
630632
630633
630634
630634
630635
630635
630635
630635
630635
630635
630636
630636
630636
630636
630627
630627
630627
630628
630629
630630
630631
630632
630633
630634
630634
630634
630635
630635
630635
630635
630635
630636
630636
630636
630626
630626
630626
630627
630628
630629
630630
630631
630632
630633
630633
630634
630634
630634
630634
630635
630635
630635
630636
630636
630626
630626
630626
630626
630627
630628
630629
630630
630631
630632
630633
630633
630633
630634
630634
630634
630634
630635
630635
630635
630625
630625
630625
630625
630626
630627
630628
630629
630630
630631
630632
630632
630633
630633
630633
630634
630634
630634
630634
630635
630625
630625
630625
630625
630625
630626
630627
630628
630629
630630
630631
630631
630632
630632
630633
630633
630633
630633
630634
630634
630624
630624
630624
630624
630625
630625
630626
630627
630628
630629
630630
630630
630631
630631
630632
630632
630632
630633
630633
630633
630624
630624
630624
630624
630624
630624
630625
630626
630627
630628
630628
630629
630630
630630
630631
630631
630631
630632
630632
630632
630623
630623
630623
630623
630623
630624
630624
630625
630626
630626
630627
630628
630628
630629
630629
630630
630630
630631
630631
630632
630623
630623
630623
630623
630623
630623
630624
630624
630625
630625
630626
630627
630627
630628
630628
630629
630629
630630
630631
630631
630623
630623
630623
630623
630623
630623
630623
630623
630624
630624
630625
630625
630626
630626
630627
630627
630628
630629
630630
630630
630622
630622
630622
630622
630622
630622
630622
630623
630623
630623
630624
630624
630625
630625
630626
630626
630627
630628
630628
630629
630622
630622
630622
630622
630622
630622
630622
630622
630622
630623
630623
630623
630624
630624
630624
630625
630625
630626
630627
630628
630622
630622
630622
630621
630621
630621
630622
630622
630622
630622
630622
630622
630623
630623
630623
630624
630624
630625
630626
630626
630621
630621
630621
630621
630621
630621
630621
630621
630621
630621
630622
630622
630622
630622
630622
630623
630623
630624
630624
630625
630621
630621
630621
630621
630621
630621
630621
630621
630621
630621
630621
630621
630621
630621
630622
630622
630622
630623
630623
630623
630621
630621
630621
630621
630620
630620
630620
630620
630620
630621
630621
630621
630621
630621
630621
630621
630621
630622
630622
630622
630621
630620
630620
630620
630620
630620
630620
630620
630620
630620
630620
630620
630620
630620
630620
630621
630621
630621
630621
630621
630620
630620
630620
630620
630620
630620
630620
630620
630620
630620
630620
630620
630620
630620
630620
630620
630620
630620
630620
630621
630620
630620
630620
630620
630620
630620
630620
630620
630620
630620
630620
630620
630620
630620
630620
630620
630620
630620
630620
630620
630620
630620
630619
630619
630619
630619
630619
630619
630619
630619
630619
630619
630619
630619
630619
630619
630619
630619
630620
630620
630619
630619
630619
630619
630619
630619
630619
630619
630619
630619
630619
630619
630619
630619
630619
630619
630619
630619
630619
630619
630619
630619
630619
630619
630619
630619
630619
630619
630619
630619
630619
630619
630619
630619
630619
630619
630619
630619
630619
630619
630619
630619
630619
630619
630619
630619
630619
630619
630619
630619
630619
630619
630619
630619
630619
630619
630619
630619
630619
630619
630619
630619
630619
630619
630619
630619
630619
630619
630619
630619
630619
630619
630619
630619
630619
630619
630619
630619
630619
630619
630619
630619
630618
630618
630618
630618
630618
630618
630618
630618
630618
630618
630618
630618
630618
630618
630618
630618
630618
630619
630619
630618
630618
630618
630618
630618
630618
630618
630618
630618
630618
630618
630618
630618
630618
630618
630618
630618
630618
630619
630618
630618
630618
630618
630618
630618
630618
630618
630618
630618
630618
630618
630618
630618
630618
630618
630618
630618
630618
630618
630618
630618
630618
630618
630618
630618
630618
630618
630618
630618
630618
630618
630618
630618
630618
630618
630618
630618
630618
630618
630618
630618
630618
630618
630618
630618
630618
630618
630618
630618
630618
630618
630618
630618
630618
630618
630618
630618
630618
630618
630618
630618
630618
630618
630618
630618
630618
630618
630618
630618
630618
630618
630618
630618
630618
630618
630618
630618
630618
630618
630618
630618
630618
630618
630618
630618
630618
630617
630617
630617
630617
630617
630617
630617
630617
630617
630617
630617
630618
630618
630618
630618
630618
630618
630617
630617
630617
630617
630617
630617
630617
630617
630617
630617
630617
630617
630617
630617
630617
630618
630618
630618
630617
630617
630617
630617
630617
630617
630617
630617
630617
630617
630617
630617
630617
630617
630617
630617
630617
630618
630618
630617
630617
630617
630617
630617
630617
630617
630617
630617
630617
630617
630617
630617
630617
630617
630617
630617
630617
630617
630617
630617
630617
630617
630617
630617
630617
630617
630617
630617
630617
630617
630617
630617
630617
630617
630617
630617
630617
630617
630617
630617
630617
630617
630617
630617
630617
630617
630617
630617
630617
630617
630617
630617
630617
630617
630617
630617
630617
630617
630617
630617
630617
630617
630617
630617
630617
630617
630617
630617
630617
630617
630617
630617
630617
630617
630617
630617
630617
630617
630617
630617
630617
630617
630617
630617
630617
630617
630617
630617
630617
630617
630617
630617
630617
630617
630617
630617
630617
630617
630617
630617
630617
630617
630617
630617
630617
630617
630617
630617
630617
630617
630617
630616
630616
630616
630616
630617
630617
630617
630617
630617
630617
630617
630616
630616
630616
630616
630616
630616
630616
630616
630616
630616
630616
630616
630616
630616
630617
630617
630617
630617
630616
630616
630616
630616
630616
630616
630616
630616
630616
630616
630616
630616
630616
630616
630616
630616
630616
630617
630617
630617
630616
630616
630616
630616
630616
630616
630616
630616
630616
630616
630616
630616
630616
630616
630616
630616
630616
630617
630617
630616
630616
630616
630616
630616
630616
630616
630616
630616
630616
630616
630616
630616
630616
630616
630616
630616
630616
630617
630617
630616
630616
630616
630616
630616
630616
630616
630616
630616
630616
630616
630616
630616
630616
630616
630616
630616
630616
630616
630617
630616
630616
630616
630616
630616
630616
630616
630616
630616
630616
630616
630616
630616
630616
630616
630616
630616
630616
630616
630616
630616
630616
630616
630616
630616
630616
630616
630616
630616
630616
630616
630616
630616
630616
630616
630616
630616
630616
630616
630616
630616
630616
630616
630616
630616
630616
630616
630616
630616
630616
630616
630616
630616
630616
630616
630616
630616
630616
630616
630616
630616
630616
630616
630616
630616
630616
630616
630616
630616
630616
630616
630616
630616
630616
630616
630616
630616
630616
630616
630616
630616
630616
630616
630616
630616
630616
630616
630616
630616
630616
630616
630616
630616
630616
630616
630616
630616
630616
630616
630616
630616
630616
630616
630616
630616
630616
630616
630616
630616
630616
630616
630616
630616
630616
630616
630616
630616
630616
630616
630616
630616
630616
630616
630616
630616
630616
630616
630616
630616
630616
630616
630616
630616
630616
630616
630616
630616
630616
630616
630616
630616
630616
630616
630616
630616
630616
630616
630616
630616
630616
630616
630616
630616
630615
630615
630615
630616
630616
630616
630616
630616
630616
630616
630616
630616
630616
630616
630616
630616
630615
630615
630615
630615
630615
630615
630615
630615
630616
630616
630616
630616
630616
630616
630616
630615
630615
630615
630615
630615
630615
630615
630615
630615
630615
630615
630615
630615
630616
630616
630616
630616
630616
630615
630615
630615
630615
630615
630615
630615
630615
630615
630615
630615
630615
630615
630615
630615
630615
630616
630616
630616
630616
630615
630615
630615
630615
630615
630615
630615
630615
630615
630615
630615
630615
630615
630615
630615
630615
630616
630616
630616
630615
630615
630615
630615
630615
630615
630615
630615
630615
630615
630615
630615
630615
630615
630615
630615
630615
630616
630616
630616
630615
630615
630615
630615
630615
630615
630615
630615
630615
630615
630615
630615
630615
630615
630615
630615
630615
630616
630616
630616
630615
630615
630615
630615
630615
630615
630615
630615
630615
630615
630615
630615
630615
630615
630615
630615
630615
630615
630616
630616
630615
630615
630615
630615
630615
630615
630615
630615
630615
630615
630615
630615
630615
630615
630615
630615
630615
630615
630616
630616
630615
630615
630615
630615
630615
630615
630615
630615
630615
630615
630615
630615
630615
630615
630615
630615
630615
630615
630616
630616
630615
630615
630615
630615
630615
630615
630615
630615
630615
630615
630615
630615
630615
630615
630615
630615
630615
630615
630616
630616
630615
630615
630615
630615
630615
630615
630615
630615
630615
630615
630615
630615
630615
630615
630615
630615
630615
630615
630616
630615
630615
630615
630615
630615
630615
630615
630615
630615
630615
630615
630615
630615
630615
630615
630615
630615
630615
630615
630616
630615
630615
630615
630615
630615
630615
630615
630615
630615
630615
630615
630615
630615
630615
630615
630615
630615
630615
630615
630616
630615
630615
630615
630615
630615
630615
630615
630615
630615
630615
630615
630615
630615
630615
630615
630615
630615
630615
630615
630616
630615
630615
630615
630615
630615
630615
630615
630615
630615
630615
630615
630615
630615
630615
630615
630615
630615
630615
630615
630616
630615
630615
630615
630615
630615
630615
630615
630615
630615
630615
630615
630615
630615
630615
630615
630615
630615
630615
630615
630615
630615
630615
630615
630615
630615
630615
630615
630615
630615
630615
630615
630615
630615
630615
630615
630615
630615
630615
630615
630615
630615
630615
630615
630615
630615
630615
630615
630615
630615
630615
630615
630615
630615
630615
630615
630615
630615
630615
630615
630615
630615
630615
630615
630615
630615
630615
630615
630615
630615
630615
630615
630615
630615
630615
630615
630615
630615
630615
630615
630615
630615
630615
630615
630615
630615
630615
630615
630615
630615
630615
630615
630615
630615
630615
630615
630615
630615
630615
630615
630615
630615
630615
630615
630615
630615
630615
630615
630615
630615
630615
630615
630615
630615
630615
630615
630615
630615
630615
630615
630615
630615
630615
630615
630615
630615
630615
630615
630615
630615
630615
630615
630615
630615
630615
630615
630615
630615
630615
630615
630615
630615
630615
630615
630615
630615
630615
630615
630615
630615
630615
630615
630615
630615
630615
630615
630615
630615
630615
630615
630615
630615
630614
630614
630614
630614
630614
630614
630614
630614
630614
630614
630614
630614
630614
630614
630614
630614
630615
630615
630615
630614
630614
630614
630614
630614
630614
630614
630614
630614
630614
630614
630614
630614
630614
630614
630614
630614
630614
630615
630615
630614
630614
630614
630614
630614
630614
630614
630614
630614
630614
630614
630614
630614
630614
630614
630614
630614
630614
630615
630614
630614
630614
630614
630614
630614
630614
630614
630614
630614
630614
630614
630614
630614
630614
630614
630614
630614
630614
630614
630614
630614
630614
630614