/*--------------------------------*- C++ -*----------------------------------*\
  =========                 |
  \\      /  F ield         | OpenFOAM: The Open Source CFD Toolbox
   \\    /   O peration     | Website:  https://openfoam.org
    \\  /    A nd           | Version:  8
     \\/     M anipulation  |
\*---------------------------------------------------------------------------*/
FoamFile
{
    version     2.0;
    format      ascii;
    class       surfaceScalarField;
    location    "700";
    object      phi;
}
// * * * * * * * * * * * * * * * * * * * * * * * * * * * * * * * * * * * * * //

dimensions      [1 0 -1 0 0 0 0];

internalField   nonuniform List<scalar> 
16360
(
-3.3097
-0.0264223
-3.28117
-0.0285253
-3.25399
-0.0271866
-3.228
-0.0259964
-3.20186
-0.0261304
-3.17521
-0.0266421
-3.14869
-0.0265147
-3.12298
-0.025721
-3.09818
-0.0247997
-3.07383
-0.0243516
-3.04875
-0.0250763
-3.02066
-0.028085
-2.98546
-0.0351955
-2.93661
-0.0488502
-2.86521
-0.0714068
-2.76149
-0.103718
-2.61825
-0.143253
-2.43559
-0.182667
-2.22512
-0.210464
-2.00969
-0.215424
-1.81513
-0.194547
-1.65891
-0.156204
-1.54636
-0.112563
-1.47899
-0.0673719
-1.45822
-0.0207533
-1.47244
0.0142197
-1.4983
0.0258679
-1.51475
0.0164784
-1.50733
-0.00740755
-1.47261
-0.0347447
-1.42293
-0.0496965
-1.37744
-0.0454787
-1.33913
-0.0383071
-1.30661
-0.0325403
-1.27859
-0.0280037
-1.25278
-0.0258348
-1.22616
-0.0266217
-1.19568
-0.0304539
-1.15867
-0.0370448
-1.113
-0.0456778
-1.05759
-0.0553908
-0.992558
-0.0650391
-0.919144
-0.0734192
-0.83956
-0.0795687
-0.756636
-0.0829307
-0.673341
-0.0833094
-0.592503
-0.0808184
-0.51671
-0.0757849
-0.448006
-0.0687204
-0.0606861
-0.38735
-2.28795
-0.0552416
-2.25108
-0.0654129
-2.22443
-0.0538429
-2.20311
-0.0473321
-2.18538
-0.0438424
-2.17133
-0.0406694
-2.16178
-0.0360475
-2.15633
-0.0311644
-2.15366
-0.02746
-2.15258
-0.0254144
-2.15214
-0.0255083
-2.15093
-0.0292924
-2.14627
-0.0398674
-2.13374
-0.0613873
-2.10764
-0.0974989
-2.06218
-0.149141
-1.99333
-0.212084
-1.90101
-0.274981
-1.79172
-0.319767
-1.67896
-0.328175
-1.57695
-0.296566
-1.4929
-0.240282
-1.42616
-0.17933
-1.38077
-0.112782
-1.37571
-0.025761
-1.41217
0.0506857
-1.45741
0.0710459
-1.48589
0.0449644
-1.47938
-0.013868
-1.43346
-0.0806514
-1.37016
-0.112988
-1.32391
-0.0917132
-1.28844
-0.0737681
-1.25915
-0.0618548
-1.23536
-0.0517712
-1.21438
-0.0468285
-1.19289
-0.0481204
-1.16763
-0.0557389
-1.13572
-0.0689677
-1.09497
-0.086426
-1.04424
-0.106137
-0.983582
-0.125698
-0.91427
-0.142711
-0.83856
-0.155287
-0.759179
-0.162326
-0.67895
-0.163534
-0.600543
-0.159223
-0.52629
-0.150053
-0.458067
-0.136971
-0.12153
-0.397243
-0.366242
-0.0852281
-0.381749
-0.0499363
-0.398614
-0.0369905
-0.415725
-0.0302012
-0.431523
-0.0279999
-0.447149
-0.0250221
-0.462767
-0.0204597
-0.476947
-0.0170222
-0.489353
-0.0150505
-0.499861
-0.0148543
-0.508288
-0.0170199
-0.51469
-0.0228509
-0.519578
-0.0349786
-0.52424
-0.0567585
-0.531532
-0.0902427
-0.546809
-0.133874
-0.577698
-0.181193
-0.631316
-0.221379
-0.712796
-0.238295
-0.822698
-0.21825
-0.946138
-0.173128
-1.05595
-0.130481
-1.12225
-0.113042
-1.14576
-0.089278
-1.18772
0.0161998
-1.27539
0.138361
-1.35981
0.155477
-1.41329
0.0984135
-1.4194
-0.00775122
-1.36464
-0.135402
-1.27216
-0.205483
-1.22802
-0.135828
-1.19789
-0.103905
-1.17284
-0.0869186
-1.15579
-0.0687873
-1.14253
-0.0600732
-1.12908
-0.0615912
-1.11169
-0.073128
-1.08721
-0.0934446
-1.05327
-0.120369
-1.00861
-0.150803
-0.953299
-0.181007
-0.888849
-0.207179
-0.817773
-0.226384
-0.742973
-0.237132
-0.667271
-0.239221
-0.593162
-0.233337
-0.522664
-0.220565
-0.457379
-0.202269
-0.180386
-0.398515
1.93859
-0.0376066
1.8842
0.00445435
1.83804
0.00917705
1.79727
0.0105905
1.76093
0.00835245
1.73488
0.00102415
1.72492
-0.0104942
1.73184
-0.023948
1.755
-0.0382041
1.79268
-0.0525269
1.8425
-0.0668366
1.90102
-0.0813849
1.96228
-0.0962303
2.016
-0.110452
2.04698
-0.121198
2.03616
-0.123054
1.96333
-0.108358
1.81203
-0.0700609
1.58129
-0.00753339
1.29647
0.0665796
0.978776
0.144566
0.619978
0.228312
0.190171
0.316793
-0.284262
0.385137
-0.678324
0.410301
-0.936084
0.396159
-1.12062
0.340033
-1.24376
0.221537
-1.28302
0.0315211
-1.21838
-0.200024
-1.0864
-0.337479
-1.0733
-0.148909
-1.06211
-0.115056
-1.04226
-0.106765
-1.03663
-0.0744366
-1.03483
-0.0618388
-1.03269
-0.0637342
-1.02605
-0.0797895
-1.01153
-0.107967
-0.986478
-0.145418
-0.949514
-0.187779
-0.900764
-0.229765
-0.842141
-0.265806
-0.776705
-0.291823
-0.707679
-0.306149
-0.63793
-0.308974
-0.569724
-0.301542
-0.50477
-0.285522
-0.444334
-0.262696
-0.235297
-0.389403
5.17146
0.0392857
5.13486
0.0410551
5.09783
0.0462102
5.06599
0.0424337
5.03967
0.0346708
5.01607
0.0246194
4.99239
0.0131781
4.96689
0.00155754
4.9381
-0.00939523
4.90534
-0.0197557
4.86789
-0.0293853
4.82445
-0.0379494
4.77304
-0.0448258
4.71128
-0.0486846
4.63711
-0.0470176
4.54993
-0.0358756
4.45043
-0.00886699
4.33684
0.0435292
4.20176
0.127542
4.02541
0.242919
3.78936
0.380618
3.48969
0.527989
3.13499
0.671493
2.736
0.784109
2.3101
0.836187
1.8783
0.827952
1.45489
0.763458
1.02702
0.649418
0.524713
0.533819
-0.139484
0.464206
-0.693254
0.216281
-0.892056
0.0498887
-0.901745
-0.10532
-0.865533
-0.143
-0.88099
-0.0589433
-0.892374
-0.0504447
-0.904014
-0.0521159
-0.909808
-0.0739903
-0.906733
-0.111039
-0.891702
-0.160462
-0.863668
-0.215811
-0.822602
-0.27084
-0.770935
-0.317494
-0.712468
-0.350306
-0.650777
-0.367852
-0.588668
-0.371091
-0.528128
-0.362069
-0.470495
-0.343143
-0.416671
-0.316494
-0.284529
-0.367428
3.6366
0.081409
3.60353
0.0741326
3.5825
0.0672404
3.56454
0.0603866
3.54772
0.0514945
3.53092
0.0414119
3.51341
0.0306953
3.49545
0.0195185
3.47746
0.00859597
3.45869
-0.000988457
3.43803
-0.00872472
3.41432
-0.014253
3.38631
-0.0168139
3.35272
-0.0150906
3.31256
-0.00684603
3.26484
0.0118556
3.21056
0.0454223
3.1568
0.0973013
3.11196
0.172377
3.07819
0.276681
3.04735
0.411453
3.00443
0.57091
2.9356
0.740328
2.82517
0.894554
2.65673
1.00464
2.42959
1.05508
2.14878
1.04428
1.81524
0.982971
1.45012
0.898933
1.10992
0.804395
0.678995
0.647246
0.197565
0.5313
-0.285873
0.378093
-0.60147
0.172602
-0.693994
0.0335328
-0.712
-0.0324611
-0.741922
-0.0221861
-0.759495
-0.0564149
-0.768424
-0.102128
-0.763722
-0.16517
-0.746773
-0.232748
-0.715399
-0.302235
-0.672573
-0.360338
-0.623135
-0.399739
-0.570966
-0.420034
-0.51867
-0.423389
-0.467896
-0.412842
-0.419555
-0.391482
-0.37418
-0.36185
-0.326385
-0.332321
3.18116
0.137412
3.13617
0.119119
3.09735
0.106064
3.0638
0.093929
3.0339
0.0813993
3.00658
0.0687341
2.98082
0.0564633
2.95545
0.0448905
2.92965
0.0343946
2.90316
0.0255057
2.87548
0.0189563
2.84556
0.0156802
2.81203
0.0167097
2.77347
0.0234592
2.72874
0.0378541
2.6785
0.0620766
2.6255
0.0983999
2.5731
0.1497
2.52605
0.219422
2.49142
0.311314
2.4745
0.428378
2.47432
0.571084
2.48131
0.733343
2.4767
0.899171
2.43767
1.04368
2.34848
1.14427
2.20232
1.19045
2.00063
1.18464
1.75985
1.13971
1.49701
1.06723
1.18189
0.962358
0.860578
0.852598
0.534231
0.704469
0.160038
0.546781
-0.193536
0.387061
-0.432547
0.206568
-0.536958
0.082228
-0.568809
-0.024611
-0.59179
-0.0791537
-0.595698
-0.161246
-0.594211
-0.234237
-0.5756
-0.320853
-0.54433
-0.391589
-0.506877
-0.437194
-0.467179
-0.459728
-0.427444
-0.463124
-0.388885
-0.451393
-0.352
-0.428362
-0.31701
-0.396834
-0.359167
-0.284227
2.6387
0.181757
2.59681
0.161018
2.56187
0.140998
2.5317
0.124101
2.50489
0.108219
2.48038
0.0932455
2.45717
0.0796715
2.43425
0.0678106
2.41067
0.0579543
2.38563
0.050537
2.3584
0.0461719
2.32842
0.0456461
2.29523
0.0499038
2.25859
0.0601109
2.21877
0.0776961
2.17659
0.104284
2.13334
0.141645
2.09124
0.191788
2.0537
0.256951
2.02539
0.339627
2.01137
0.442404
2.01511
0.567344
2.03497
0.71349
2.06112
0.873023
2.07628
1.02852
2.06225
1.15829
2.00628
1.24641
1.90386
1.28708
1.7596
1.28396
1.58088
1.24594
1.36795
1.17527
1.14167
1.07887
0.894841
0.951283
0.633262
0.808354
0.372675
0.647651
0.0972652
0.481974
-0.142752
0.322215
-0.309309
0.14194
-0.394587
0.00615617
-0.385666
-0.170119
-0.398334
-0.221592
-0.396004
-0.323203
-0.381303
-0.406301
-0.361017
-0.457484
-0.338414
-0.482336
-0.315009
-0.486547
-0.291656
-0.474736
-0.268635
-0.451372
-0.246048
-0.419431
-0.381206
-0.224016
2.12705
0.231459
2.08672
0.201351
2.05229
0.175427
2.02288
0.15352
1.99722
0.133883
1.97415
0.116328
1.9526
0.101219
1.93168
0.0887482
1.91056
0.0790773
1.8886
0.0725174
1.86523
0.0695563
1.84003
0.0708513
1.81271
0.0772209
1.78316
0.0896402
1.75161
0.109231
1.71869
0.137217
1.68543
0.174903
1.6535
0.223709
1.6253
0.285153
1.60397
0.360935
1.59333
0.453023
1.59713
0.56355
1.61702
0.693619
1.64963
0.840396
1.6848
0.993346
1.708
1.13509
1.70593
1.24846
1.67048
1.32254
1.59999
1.35445
1.49806
1.34787
1.36864
1.3047
1.21967
1.22784
1.05103
1.11991
0.871825
0.98757
0.685771
0.833703
0.499186
0.668518
0.329379
0.491988
0.159399
0.311933
-0.0197279
0.185321
-0.135112
-0.0547649
-0.157278
-0.199401
-0.170103
-0.310367
-0.178985
-0.397425
-0.183924
-0.45255
-0.185013
-0.481268
-0.182727
-0.488853
-0.177917
-0.479548
-0.171243
-0.458034
-0.163028
-0.427643
-0.390881
-0.153353
1.56302
0.277004
1.52825
0.236125
1.49996
0.203712
1.47627
0.177233
1.45617
0.15398
1.43844
0.134065
1.422
0.117663
1.40607
0.104682
1.39006
0.0950903
1.37349
0.0890691
1.35603
0.0869864
1.33749
0.0893777
1.31779
0.0969176
1.29704
0.110402
1.27554
0.130731
1.25386
0.158885
1.23283
0.195906
1.21366
0.242884
1.19791
0.300934
1.1876
0.371256
1.1853
0.455313
1.19393
0.554916
1.21579
0.671768
1.25063
0.805568
1.29352
0.950452
1.33507
1.09355
1.36457
1.21896
1.37354
1.31356
1.35775
1.37023
1.31757
1.38805
1.25487
1.36742
1.17273
1.30997
1.07347
1.21918
0.962254
1.09879
0.842369
0.953571
0.721022
0.789855
0.601661
0.61136
0.485955
0.427672
0.416806
0.25445
0.289708
0.0723112
0.182265
-0.0919476
0.108243
-0.236352
0.0551294
-0.344296
0.0159177
-0.413342
-0.0133908
-0.451961
-0.0353516
-0.466872
-0.0515434
-0.46336
-0.0631543
-0.446438
-0.0708705
-0.419922
-0.386789
-0.0749368
0.969539
0.325278
0.942768
0.262907
0.921689
0.224797
0.905933
0.192992
0.893749
0.166173
0.883259
0.144575
0.873376
0.12757
0.863521
0.114559
0.85338
0.105267
0.842788
0.0996958
0.831725
0.0980763
0.820282
0.100824
0.808661
0.108517
0.797183
0.121863
0.786266
0.141646
0.776419
0.168733
0.768296
0.204042
0.762693
0.248502
0.760603
0.303041
0.763283
0.368591
0.772414
0.446229
0.78997
0.53737
0.817907
0.643798
0.856978
0.766515
0.905382
0.902063
0.958146
1.04078
1.00795
1.16917
1.04759
1.27392
1.07214
1.34569
1.07986
1.38033
1.07045
1.37683
1.04465
1.33577
1.00404
1.2598
0.951012
1.15179
0.888068
1.01651
0.818906
0.859023
0.745055
0.685208
0.669548
0.503154
0.601002
0.322987
0.522996
0.150312
0.441345
-0.0102911
0.359832
-0.15483
0.28345
-0.26792
0.217216
-0.347119
0.16172
-0.396469
0.116055
-0.421201
0.0790163
-0.426317
0.0491841
-0.416608
0.0255077
-0.396245
-0.368615
0.00734427
0.33725
0.337524
0.329663
0.270472
0.32623
0.228253
0.325351
0.193863
0.324582
0.166935
0.323107
0.146043
0.320848
0.12984
0.317812
0.117577
0.314128
0.108905
0.310058
0.103709
0.306
0.102101
0.302407
0.104404
0.29975
0.111168
0.298452
0.123167
0.298824
0.141311
0.301065
0.166521
0.305461
0.19968
0.312441
0.241555
0.322646
0.292839
0.33698
0.354217
0.356726
0.426468
0.383477
0.510617
0.419139
0.608158
0.464103
0.72157
0.518344
0.847828
0.580731
0.978386
0.646308
1.1036
0.709291
1.21092
0.764763
1.29022
0.81028
1.33481
0.843928
1.34319
0.864793
1.31491
0.873033
1.25154
0.869283
1.15553
0.854635
1.03116
0.830397
0.883261
0.797319
0.718273
0.756719
0.543749
0.710761
0.368943
0.658921
0.202153
0.59715
0.0514974
0.525282
-0.0829735
0.450102
-0.192755
0.377696
-0.27471
0.311206
-0.32997
0.252102
-0.362095
0.200836
-0.375051
0.157158
-0.372923
0.12052
-0.359591
-0.338398
0.0903238
-0.285191
0.286421
-0.264569
0.249836
-0.249665
0.213332
-0.238401
0.18259
-0.229147
0.157683
-0.220929
0.137777
-0.213285
0.12217
-0.206101
0.110383
-0.19938
0.102178
-0.193132
0.0974861
-0.187368
0.0963858
-0.182026
0.0990979
-0.176857
0.106023
-0.171419
0.11775
-0.165104
0.135005
-0.157185
0.158574
-0.146855
0.189296
-0.133302
0.227954
-0.115716
0.275231
-0.0932983
0.331798
-0.0651618
0.398353
-0.030231
0.47569
0.0131425
0.564785
0.0662339
0.668474
0.129659
0.784411
0.203586
0.904472
0.285083
1.0221
0.368957
1.12703
0.449528
1.20965
0.526329
1.25801
0.595402
1.27411
0.654792
1.25551
0.703658
1.20267
0.741302
1.11789
0.7675
1.00497
0.782073
0.868689
0.784757
0.715586
0.775337
0.553153
0.754109
0.390163
0.721278
0.234983
0.677415
0.0953534
0.62136
-0.0269378
0.557561
-0.128957
0.490494
-0.207631
0.424083
-0.263552
0.361125
-0.299132
0.303397
-0.31732
0.251806
-0.321329
0.20665
-0.314425
-0.299603
0.167869
-0.883842
0.232066
-0.845943
0.211963
-0.818832
0.186218
-0.798033
0.161777
-0.780581
0.140243
-0.764899
0.122126
-0.750181
0.107485
-0.73602
0.0962635
-0.722204
0.0884064
-0.708608
0.0839304
-0.695164
0.0829429
-0.681778
0.0856708
-0.668272
0.0924754
-0.654379
0.103833
-0.639716
0.120317
-0.623714
0.142573
-0.60568
0.17128
-0.584826
0.207089
-0.560216
0.25061
-0.530846
0.302434
-0.495652
0.363152
-0.453466
0.43349
-0.403049
0.514373
-0.341695
0.607139
-0.267586
0.710298
-0.180775
0.817648
-0.0821651
0.923501
0.0257811
1.0191
0.135573
1.09987
0.241534
1.15204
0.340316
1.17533
0.431688
1.16415
0.514449
1.11992
0.586692
1.04565
0.64736
0.944292
0.69528
0.820765
0.729193
0.681674
0.747877
0.534476
0.750796
0.387249
0.738273
0.247494
0.712065
0.121549
0.672113
0.0130074
0.621346
-0.078195
0.563589
-0.149872
0.502777
-0.202737
0.442048
-0.238397
0.383757
-0.259022
0.329498
-0.267062
0.280215
-0.265129
-0.255751
0.236374
-1.41705
0.183367
-1.37649
0.171404
-1.34414
0.153892
-1.31771
0.135376
-1.29535
0.117895
-1.2757
0.102504
-1.25787
0.0896732
-1.24127
0.079634
-1.22542
0.0725157
-1.20997
0.0684381
-1.19458
0.0675494
-1.17894
0.0700628
-1.16271
0.0762822
-1.14545
0.0866105
-1.12666
0.101531
-1.10567
0.121592
-1.08176
0.147365
-1.05411
0.179411
-1.02181
0.218277
-0.983906
0.264497
-0.939322
0.318576
-0.886853
0.381046
-0.825034
0.452541
-0.751349
0.533442
-0.663439
0.622396
-0.561043
0.715268
-0.444957
0.807422
-0.318324
0.892467
-0.183994
0.965539
-0.0473628
1.01543
0.0863179
1.04168
0.209533
1.04095
0.320441
1.00902
0.421402
0.94469
0.511147
0.854539
0.587681
0.744223
0.648889
0.620482
0.692736
0.490643
0.71805
0.361927
0.724937
0.240591
0.714986
0.131496
0.690204
0.0377921
0.652802
-0.0407996
0.60615
-0.103228
0.553786
-0.150372
0.498774
-0.183378
0.443667
-0.203902
0.390427
-0.213806
0.340426
-0.215114
-0.209856
0.29454
-1.89246
0.139287
-1.85315
0.132095
-1.81966
0.120388
-1.79124
0.106988
-1.76698
0.0936238
-1.74589
0.0814008
-1.72717
0.0709417
-1.71014
0.0625996
-1.69421
0.0566016
-1.67886
0.0531212
-1.66362
0.0523309
-1.64798
0.0544453
-1.63142
0.0597359
-1.61337
0.0685399
-1.59313
0.0812579
-1.56992
0.0983478
-1.54286
0.12029
-1.51102
0.147561
-1.47331
0.180614
-1.42868
0.219869
-1.3759
0.265765
-1.31357
0.318701
-1.23996
0.37895
-1.15293
0.446429
-1.05053
0.519988
-0.932162
0.596903
-0.798405
0.673666
-0.651712
0.745769
-0.494511
0.808347
-0.332817
0.853755
-0.170869
0.87974
-0.0133505
0.883439
0.131529
0.864133
0.258524
0.817683
0.37249
0.74058
0.473642
0.64308
0.558836
0.53529
0.625066
0.424416
0.670544
0.316448
0.695175
0.215949
0.700572
0.126083
0.689541
0.0488142
0.664494
-0.0157574
0.628699
-0.0674348
0.585324
-0.106993
0.537278
-0.135327
0.487117
-0.153734
0.436957
-0.163638
0.388412
-0.166567
-0.164069
0.342621
-2.31595
0.100315
-2.27962
0.0958008
-2.24736
0.0881299
-2.21927
0.078892
-2.19495
0.0693171
-2.17381
0.0602821
-2.1552
0.0523588
-2.13851
0.0459156
-2.12312
0.0412102
-2.10845
0.0384397
-2.09392
0.0377811
-2.07893
0.0394278
-2.06281
0.0436064
-2.04486
0.0505815
-2.02425
0.060661
-2.00006
0.0741877
-1.97127
0.0915143
-1.93675
0.113019
-1.89527
0.139095
-1.84547
0.170078
-1.78595
0.206262
-1.71514
0.247893
-1.63127
0.295092
-1.53245
0.347617
-1.41704
0.404564
-1.2843
0.464138
-1.13445
0.523832
-0.969122
0.580453
-0.790931
0.630162
-0.605269
0.668104
-0.417131
0.691608
-0.232171
0.698473
-0.0555595
0.687519
0.104305
0.657828
0.24249
0.602408
0.364895
0.520683
0.471368
0.428814
0.557306
0.33848
0.620327
0.253434
0.660332
0.175941
0.679197
0.107204
0.680016
0.0479818
0.665671
-0.00142172
0.639417
-0.0411834
0.604261
-0.0718336
0.56304
-0.0940974
0.518267
-0.108952
0.472083
-0.117452
0.426193
-0.120687
-0.11974
0.381849
-2.69281
0.0647097
-2.65928
0.062271
-2.62879
0.0576529
-2.60175
0.0518333
-2.57805
0.045623
-2.55739
0.0396196
-2.53928
0.0342448
-2.52319
0.0297993
-2.5085
0.0265042
-2.4946
0.0245313
-2.48085
0.0240285
-2.46655
0.0251363
-2.45094
0.0280142
-2.4332
0.0328517
-2.41241
0.0398623
-2.38753
0.0492814
-2.35739
0.0613595
-2.32071
0.0763517
-2.27611
0.0945001
-2.22208
0.116039
-2.15699
0.141181
-2.07913
0.170043
-1.98673
0.202665
-1.87797
0.238851
-1.75137
0.277964
-1.60611
0.318876
-1.44226
0.359987
-1.26103
0.399226
-1.06491
0.434054
-0.858405
0.461592
-0.64667
0.479865
-0.43569
0.487495
-0.231456
0.483285
-0.0399694
0.466336
0.126066
0.436358
0.271435
0.3753
0.3973
0.302944
0.499809
0.235963
0.576815
0.17643
0.62876
0.124
0.658092
0.0778684
0.66819
0.0378707
0.662432
0.00431942
0.644124
-0.0228885
0.616109
-0.0438241
0.581092
-0.0590789
0.541493
-0.0693495
0.499413
-0.0753755
0.45657
-0.0778568
-0.077439
0.414251
-3.0148
0.0317873
-2.9832
0.0306569
-2.954
0.0284324
-2.92774
0.0255755
-2.90459
0.0224679
-2.8844
0.0194139
-2.86682
0.0166474
-2.85136
0.0143403
-2.83745
0.0126105
-2.82445
0.0115452
-2.81166
0.0112334
-2.7983
0.0117683
-2.78353
0.0132351
-2.76641
0.0157252
-2.74591
0.0193558
-2.72089
0.0242508
-2.69005
0.030524
-2.65201
0.0383067
-2.60524
0.0477306
-2.5481
0.0589021
-2.47885
0.0719251
-2.39566
0.0868629
-2.29669
0.103704
-2.1802
0.122341
-2.04469
0.142465
-1.88932
0.163515
-1.71404
0.184707
-1.51984
0.205027
-1.30904
0.223245
-1.08548
0.238031
-0.854015
0.248397
-0.620269
0.253748
-0.390693
0.253704
-0.172489
0.248113
0.0294916
0.234358
0.206326
0.198446
0.348651
0.160626
0.463233
0.121395
0.549509
0.0901617
0.609187
0.0643247
0.645471
0.0415733
0.661954
0.0213708
0.662174
0.00408084
0.649192
-0.00992012
0.625971
-0.0206085
0.595214
-0.0283244
0.559348
-0.0334898
0.520481
-0.03652
0.48035
-0.0377403
-0.0373366
0.44023
-3.26486
-3.2342
-3.20577
-3.18019
-3.15772
-3.13831
-3.12166
-3.10732
-3.09472
-3.08318
-3.07194
-3.06017
-3.04694
-3.03122
-3.01186
-2.98762
-2.9571
-2.91879
-2.87106
-2.81215
-2.74023
-2.65337
-2.54966
-2.42732
-2.28485
-2.12134
-1.93664
-1.73161
-1.50837
-1.27034
-1.02195
-0.768213
-0.51452
-0.266421
-0.0320718
0.166372
0.327012
0.448418
0.538583
0.602901
0.64446
0.665817
0.66989
0.659967
0.63936
0.611034
0.577538
0.541008
0.503258
0.465916
0.00811983
-0.000161741
0.00815895
-4.8479e-05
0.00817992
-3.13264e-05
0.00817857
-8.22627e-06
0.00816212
6.96694e-06
0.00813757
1.50552e-05
0.00810857
1.94939e-05
0.00807689
2.21284e-05
0.00804362
2.36874e-05
0.00800948
2.45257e-05
0.00797497
2.48862e-05
0.00794038
2.49471e-05
0.00790589
2.48304e-05
0.00787161
2.46178e-05
0.00783759
2.43671e-05
0.0078038
2.41283e-05
0.0077702
2.3962e-05
0.00773657
2.3992e-05
0.00770237
2.4574e-05
0.00766762
2.51205e-05
0.0076323
2.57224e-05
0.00759736
2.5377e-05
0.0075632
2.47272e-05
0.00752997
2.37969e-05
0.00749757
2.29668e-05
0.00746584
2.2304e-05
0.00743484
2.15824e-05
0.00740461
2.083e-05
0.00737517
2.0052e-05
0.00734646
1.93612e-05
0.00731841
1.87337e-05
0.00729107
1.8081e-05
0.00726449
1.73697e-05
0.00723874
1.65888e-05
0.0072139
1.57288e-05
0.0071901
1.47599e-05
0.00716747
1.36563e-05
0.00714618
1.23949e-05
0.00712641
1.09479e-05
0.00710841
9.27524e-06
0.00709251
7.29008e-06
0.0070792
4.86092e-06
0.00706915
1.78542e-06
0.00706315
-2.18504e-06
0.00706164
-6.9913e-06
0.00706389
-1.14865e-05
0.00706793
-1.30072e-05
0.0070739
-9.0763e-06
0.0070906
-6.40731e-07
5.47223e-06
0.00713465
0.00787389
-8.69074e-05
0.00784553
-3.8086e-05
0.00780465
-8.32992e-06
0.007777
2.14613e-06
0.00775645
1.02623e-05
0.0077388
1.54052e-05
0.00772283
1.81205e-05
0.00770807
1.95175e-05
0.00769415
2.01948e-05
0.00768085
2.04003e-05
0.00766801
2.02752e-05
0.00765557
1.99418e-05
0.00764346
1.95049e-05
0.00763162
1.90465e-05
0.00761997
1.8624e-05
0.00760846
1.82731e-05
0.00759709
1.80052e-05
0.00758598
1.78049e-05
0.00757541
1.78648e-05
0.00756408
1.92636e-05
0.00755284
1.99751e-05
0.00754234
1.91409e-05
0.00753298
1.75297e-05
0.00752411
1.61252e-05
0.00751547
1.50874e-05
0.00750723
1.40491e-05
0.00749938
1.29853e-05
0.00749173
1.20872e-05
0.00748413
1.13319e-05
0.00747657
1.06891e-05
0.00746907
1.00912e-05
0.00746169
9.4329e-06
0.00745446
8.66718e-06
0.00744746
7.77201e-06
0.0074408
6.68196e-06
0.00743465
5.34608e-06
0.00742917
3.71532e-06
0.00742458
1.7252e-06
0.00742114
-7.00823e-07
0.00741917
-3.65101e-06
0.00741892
-7.19649e-06
0.00742066
-1.14106e-05
0.0074247
-1.64374e-05
0.00743192
-2.27304e-05
0.00744456
-3.15237e-05
0.00746689
-4.51515e-05
0.0075022
-6.61583e-05
0.00754462
-9.4463e-05
0.00757347
-0.00012326
-0.000139522
0.0075632
0.0078832
-1.96143e-05
0.00784767
-1.82561e-05
0.00783033
-6.78097e-06
0.00781749
-2.76428e-07
0.00780818
4.33422e-06
0.00779995
8.38386e-06
0.00779138
1.14048e-05
0.00778217
1.34209e-05
0.00777236
1.46897e-05
0.00776204
1.53996e-05
0.00775132
1.56779e-05
0.00774032
1.56448e-05
0.00772912
1.54201e-05
0.00771781
1.51109e-05
0.00770642
1.48004e-05
0.00769498
1.4545e-05
0.00768348
1.43809e-05
0.00767186
1.43442e-05
0.00765989
1.48512e-05
0.00764895
1.55431e-05
0.00763907
1.56094e-05
0.00762927
1.48831e-05
0.00761934
1.34238e-05
0.00760931
1.21377e-05
0.0075993
1.11036e-05
0.00758935
1.00459e-05
0.00757943
8.99847e-06
0.00756968
7.98625e-06
0.00756019
7.04442e-06
0.00755103
6.15185e-06
0.00754224
5.27222e-06
0.00753387
4.28825e-06
0.00752599
3.12752e-06
0.00751867
1.77838e-06
0.00751199
1.51924e-07
0.0075061
-1.84414e-06
0.00750114
-4.28979e-06
0.00749731
-7.26354e-06
0.00749482
-1.08679e-05
0.00749396
-1.52416e-05
0.00749507
-2.05407e-05
0.00749841
-2.6904e-05
0.00750392
-3.43229e-05
0.00751095
-4.24803e-05
0.00751873
-5.0842e-05
0.00752846
-5.96672e-05
0.00754659
-7.22424e-05
0.00758289
-9.62167e-05
0.00763289
-0.000138144
-0.000187242
0.00764363
0.00794416
-1.30621e-05
0.0079273
-1.67158e-05
0.00791505
-9.94529e-06
0.00790267
-2.77478e-06
0.00788917
2.97571e-06
0.00787494
7.72699e-06
0.00786011
1.13399e-05
0.00784486
1.37356e-05
0.00782948
1.51219e-05
0.00781416
1.57496e-05
0.00779905
1.58278e-05
0.0077842
1.55302e-05
0.00776967
1.50088e-05
0.00775548
1.4393e-05
0.00774161
1.37822e-05
0.00772807
1.32451e-05
0.00771481
1.28283e-05
0.00770182
1.25917e-05
0.00768927
1.28396e-05
0.00767751
1.31951e-05
0.00766665
1.26669e-05
0.00765607
1.16659e-05
0.00764528
1.04141e-05
0.0076344
9.23029e-06
0.00762358
8.17685e-06
0.00761281
7.10288e-06
0.00760215
5.98064e-06
0.00759169
4.82403e-06
0.00758152
3.65856e-06
0.00757171
2.47545e-06
0.00756235
1.22558e-06
0.00755352
-2.03404e-07
0.0075453
-1.88314e-06
0.00753779
-3.83995e-06
0.00753108
-6.16066e-06
0.00752528
-8.95307e-06
0.00752052
-1.23145e-05
0.00751694
-1.63354e-05
0.00751467
-2.11173e-05
0.0075139
-2.6789e-05
0.00751494
-3.35544e-05
0.00751831
-4.17859e-05
0.00752472
-5.20503e-05
0.00753456
-6.48752e-05
0.00754685
-8.00908e-05
0.00755876
-9.61936e-05
0.00756933
-0.000111403
0.00758663
-0.000127955
0.00762264
-0.000156954
-0.000205476
0.00763342
0.00794501
-7.30593e-06
0.00792274
-9.66906e-06
0.00790295
-5.48527e-06
0.00788548
-1.13139e-07
0.00786923
4.4405e-06
0.00785405
8.06684e-06
0.00783973
1.07988e-05
0.007826
1.2578e-05
0.00781272
1.34913e-05
0.00779982
1.37211e-05
0.00778725
1.34604e-05
0.00777497
1.28798e-05
0.00776295
1.21245e-05
0.00775115
1.13129e-05
0.00773954
1.05341e-05
0.00772812
9.84868e-06
0.00771689
9.28759e-06
0.00770591
8.84846e-06
0.00769564
8.59033e-06
0.00768611
8.64738e-06
0.00767684
8.13921e-06
0.00766747
7.23719e-06
0.00765784
6.26575e-06
0.00764799
5.32016e-06
0.00763803
4.40243e-06
0.00762802
3.42978e-06
0.00761799
2.3613e-06
0.00760803
1.19298e-06
0.00759823
-7.71705e-08
0.00758872
-1.47228e-06
0.00757961
-3.04163e-06
0.00757097
-4.86244e-06
0.00756289
-6.9971e-06
0.00755545
-9.49328e-06
0.00754873
-1.24327e-05
0.00754284
-1.59223e-05
0.00753786
-2.00745e-05
0.00753394
-2.50048e-05
0.00753117
-3.08343e-05
0.00752965
-3.76638e-05
0.00752938
-4.55627e-05
0.00753044
-5.46446e-05
0.00753329
-6.52541e-05
0.00753911
-7.82411e-05
0.00754906
-9.49842e-05
0.00756185
-0.000116212
0.0075731
-0.000139921
0.00758317
-0.000162441
0.00760836
-0.000186901
-0.000225801
0.00762381
0.00794938
-5.92614e-06
0.00793251
-8.01856e-06
0.00791701
-5.3213e-06
0.00790332
-1.23521e-06
0.00789019
2.78167e-06
0.00787725
6.18582e-06
0.00786435
8.82955e-06
0.00785141
1.06328e-05
0.00783839
1.1603e-05
0.00782532
1.1865e-05
0.00781226
1.15962e-05
0.00779925
1.09732e-05
0.00778632
1.01509e-05
0.00777349
9.25659e-06
0.00776079
8.38726e-06
0.00774822
7.60985e-06
0.00773577
6.96721e-06
0.00772341
6.49392e-06
0.00771113
6.34767e-06
0.00769936
6.33371e-06
0.00768813
5.57209e-06
0.00767701
4.56296e-06
0.0076659
3.5893e-06
0.00765483
2.63743e-06
0.00764384
1.67436e-06
0.00763296
6.36298e-07
0.00762222
-5.23145e-07
0.00761166
-1.83044e-06
0.00760138
-3.30856e-06
0.00759145
-4.98899e-06
0.00758195
-6.91432e-06
0.00757296
-9.14071e-06
0.00756451
-1.17291e-05
0.00755669
-1.47431e-05
0.00754955
-1.82652e-05
0.00754317
-2.23962e-05
0.00753761
-2.72476e-05
0.00753301
-3.29535e-05
0.00752951
-3.96893e-05
0.00752729
-4.766e-05
0.00752643
-5.70488e-05
0.00752678
-6.79351e-05
0.00752805
-8.02336e-05
0.00753044
-9.39455e-05
0.00753534
-0.000109966
0.00754404
-0.000130383
0.00755372
-0.000156441
0.00755947
-0.000185189
0.00757385
-0.000213344
-0.000247994
0.00758772
0.0079502
-5.35663e-06
0.00793397
-6.99604e-06
0.00791787
-4.52844e-06
0.00790275
-9.0208e-07
0.00788795
2.80397e-06
0.00787337
5.96393e-06
0.00785902
8.33475e-06
0.00784493
9.85494e-06
0.00783108
1.05526e-05
0.00781749
1.0548e-05
0.00780415
1.00131e-05
0.00779108
9.12981e-06
0.00777826
8.06276e-06
0.0077657
6.94557e-06
0.00775336
5.8763e-06
0.00774125
4.91711e-06
0.00772935
4.09641e-06
0.00771771
3.40716e-06
0.00770667
2.86995e-06
0.00769632
2.59778e-06
0.00768625
1.84388e-06
0.00767613
8.92103e-07
0.00766593
2.15059e-08
0.00765566
-8.31197e-07
0.00764537
-1.72788e-06
0.00763508
-2.73072e-06
0.00762483
-3.89243e-06
0.00761469
-5.25445e-06
0.00760472
-6.84807e-06
0.007595
-8.70529e-06
0.0075856
-1.08661e-05
0.00757658
-1.33799e-05
0.007568
-1.63065e-05
0.00755992
-1.97155e-05
0.0075524
-2.36931e-05
0.0075455
-2.83381e-05
0.00753929
-3.37527e-05
0.00753379
-4.00482e-05
0.00752909
-4.73629e-05
0.00752537
-5.58995e-05
0.00752285
-6.59533e-05
0.0075217
-7.78661e-05
0.00752171
-9.1823e-05
0.00752227
-0.000107616
0.00752354
-0.000124934
0.00752733
-0.000144661
0.00753367
-0.000169225
0.0075365
-0.000199223
0.00754223
-0.000230886
-0.000265611
0.00754971
0.00795063
-5.20953e-06
0.00793516
-6.7384e-06
0.00791982
-4.49293e-06
0.00790547
-1.33178e-06
0.00789159
1.92342e-06
0.00787804
4.70751e-06
0.00786476
6.77412e-06
0.00785169
8.0453e-06
0.00783879
8.5522e-06
0.00782602
8.40195e-06
0.00781335
7.7504e-06
0.00780079
6.76941e-06
0.00778832
5.61905e-06
0.00777595
4.429e-06
0.00776367
3.29277e-06
0.0077515
2.27361e-06
0.00773941
1.40512e-06
0.00772739
7.00068e-07
0.00771548
2.53393e-07
0.007704
-2.10492e-09
0.00769288
-8.27989e-07
0.00768177
-1.78872e-06
0.00767068
-2.64434e-06
0.0076596
-3.48472e-06
0.00764857
-4.3863e-06
0.00763762
-5.41922e-06
0.00762676
-6.64146e-06
0.00761605
-8.0979e-06
0.00760554
-9.82491e-06
0.00759527
-1.18589e-05
0.00758531
-1.42407e-05
0.0075757
-1.70171e-05
0.00756648
-2.02451e-05
0.00755771
-2.39944e-05
0.00754943
-2.83514e-05
0.0075417
-3.34193e-05
0.00753458
-3.93161e-05
0.00752809
-4.6165e-05
0.00752221
-5.40784e-05
0.00751697
-6.31755e-05
0.00751248
-7.36426e-05
0.00750898
-8.58022e-05
0.00750671
-0.000100138
0.00750521
-0.000117011
0.00750375
-0.000136064
0.00750321
-0.000156828
0.00750525
-0.000180536
0.00750565
-0.000209303
0.00750587
-0.000241723
-0.00027701
0.00750698
0.00795068
-5.10386e-06
0.00793537
-6.62251e-06
0.00792017
-4.57892e-06
0.00790584
-1.77057e-06
0.00789188
1.12784e-06
0.00787818
3.61163e-06
0.00786469
5.43539e-06
0.00785136
6.507e-06
0.00783817
6.84891e-06
0.0078251
6.55982e-06
0.00781213
5.78797e-06
0.00779928
4.69878e-06
0.00778653
3.44493e-06
0.00777392
2.15176e-06
0.00776143
9.13152e-07
0.00774909
-2.07614e-07
0.0077369
-1.1799e-06
0.00772488
-2.00439e-06
0.00771327
-2.64275e-06
0.00770224
-3.04618e-06
0.00769149
-3.87087e-06
0.00768073
-4.78926e-06
0.00766992
-5.58583e-06
0.0076591
-6.36647e-06
0.00764827
-7.22529e-06
0.00763747
-8.2406e-06
0.00762671
-9.47307e-06
0.00761605
-1.09694e-05
0.00760551
-1.27686e-05
0.00759515
-1.4908e-05
0.00758501
-1.74275e-05
0.00757513
-2.03729e-05
0.00756555
-2.38e-05
0.00755628
-2.77753e-05
0.00754738
-3.23774e-05
0.00753887
-3.76999e-05
0.0075308
-4.38644e-05
0.00752321
-5.10209e-05
0.00751613
-5.93191e-05
0.00750951
-6.8888e-05
0.00750332
-7.98348e-05
0.00749762
-9.22897e-05
0.00749265
-0.000106609
0.0074885
-0.000123375
0.00748442
-0.000142927
0.00748014
-0.000164742
0.00747742
-0.000188728
0.00747448
-0.000216346
0.00747058
-0.000248018
-0.000283039
0.00746642
0.0079506
-4.92117e-06
0.00793529
-6.48779e-06
0.00792017
-4.73792e-06
0.00790599
-2.34863e-06
0.00789226
1.011e-07
0.00787889
2.19981e-06
0.00786578
3.70988e-06
0.00785288
4.54133e-06
0.00784012
4.70582e-06
0.00782747
4.29167e-06
0.00781488
3.43586e-06
0.00780235
2.28787e-06
0.00778988
9.85558e-07
0.00777748
-3.50775e-07
0.00776514
-1.6277e-06
0.00775289
-2.78354e-06
0.00774072
-3.79058e-06
0.00772864
-4.64659e-06
0.00771679
-5.30319e-06
0.00770542
-5.74928e-06
0.00769433
-6.55895e-06
0.0076832
-7.41656e-06
0.00767203
-8.14995e-06
0.00766085
-8.87615e-06
0.00764966
-9.69677e-06
0.0076385
-1.06938e-05
0.00762738
-1.193e-05
0.00761633
-1.34519e-05
0.00760539
-1.52977e-05
0.00759459
-1.75044e-05
0.00758396
-2.01111e-05
0.00757352
-2.31622e-05
0.00756331
-2.67125e-05
0.00755334
-3.08279e-05
0.00754363
-3.55845e-05
0.00753418