/*--------------------------------*- C++ -*----------------------------------*\
  =========                 |
  \\      /  F ield         | OpenFOAM: The Open Source CFD Toolbox
   \\    /   O peration     | Website:  https://openfoam.org
    \\  /    A nd           | Version:  8
     \\/     M anipulation  |
\*---------------------------------------------------------------------------*/
FoamFile
{
    version     2.0;
    format      ascii;
    class       volScalarField;
    location    "700";
    object      T;
}
// * * * * * * * * * * * * * * * * * * * * * * * * * * * * * * * * * * * * * //

dimensions      [0 0 0 1 0 0 0];

internalField   nonuniform List<scalar> 
8400
(
300.06
300.059
300.06
300.06
300.059
300.057
300.054
300.051
300.048
300.044
300.041
300.038
300.034
300.03
300.025
300.017
300.008
299.998
299.987
299.975
299.965
299.955
299.946
299.939
299.935
299.934
299.936
299.938
299.941
299.943
299.946
299.948
299.952
299.956
299.962
299.968
299.975
299.982
299.989
299.995
300.001
300.006
300.011
300.015
300.018
300.02
300.021
300.022
300.022
300.021
300.077
300.081
300.085
300.09
300.093
300.096
300.098
300.1
300.101
300.101
300.1
300.099
300.096
300.093
300.087
300.081
300.073
300.064
300.054
300.044
300.035
300.026
300.021
300.018
300.018
300.02
300.022
300.025
300.027
300.028
300.028
300.028
300.028
300.029
300.031
300.032
300.033
300.035
300.036
300.037
300.038
300.038
300.038
300.037
300.037
300.035
300.034
300.032
300.03
300.028
300.042
300.046
300.051
300.054
300.056
300.058
300.059
300.06
300.06
300.059
300.057
300.054
300.051
300.047
300.043
300.042
300.042
300.044
300.047
300.047
300.044
300.039
300.034
300.033
300.037
300.04
300.042
300.043
300.044
300.044
300.043
300.043
300.043
300.044
300.045
300.047
300.048
300.049
300.05
300.051
300.051
300.051
300.05
300.049
300.047
300.044
300.041
300.038
300.034
300.03
300.002
300.003
300.002
300.002
300.002
300.001
300.001
300.001
300.001
300.001
300.001
300.001
300.001
300.001
300.001
300.002
300.004
300.009
300.013
300.016
300.016
300.012
300
299.974
300
300.032
300.048
300.058
300.062
300.063
300.056
300.051
300.053
300.054
300.056
300.057
300.059
300.06
300.061
300.062
300.062
300.062
300.061
300.06
300.057
300.054
300.049
300.045
300.039
300.034
300.009
300.01
300.011
300.013
300.015
300.017
300.02
300.023
300.027
300.031
300.037
300.042
300.048
300.055
300.063
300.071
300.08
300.09
300.101
300.112
300.124
300.136
300.144
300.147
300.146
300.143
300.135
300.124
300.112
300.101
300.062
300.059
300.062
300.063
300.064
300.066
300.067
300.068
300.069
300.07
300.07
300.07
300.07
300.068
300.066
300.062
300.058
300.052
300.045
300.038
300.003
300.003
300.002
300.002
300.002
300.001
300.001
300.001
300
300
299.999
299.998
299.998
299.997
299.997
299.998
299.999
300.002
300.007
300.015
300.027
300.044
300.065
300.086
300.105
300.119
300.125
300.124
300.119
300.111
300.1
300.088
300.074
300.068
300.069
300.071
300.071
300.072
300.072
300.073
300.073
300.074
300.074
300.074
300.073
300.07
300.065
300.06
300.052
300.044
300.003
300.004
300.004
300.004
300.004
300.004
300.005
300.005
300.005
300.004
300.004
300.003
300.003
300.002
300.001
300.001
300
300
300
300.001
300.005
300.012
300.024
300.041
300.06
300.078
300.093
300.101
300.105
300.104
300.099
300.09
300.08
300.072
300.066
300.07
300.071
300.071
300.071
300.071
300.072
300.073
300.075
300.076
300.076
300.075
300.072
300.067
300.059
300.051
300.002
300.002
300.002
300.002
300.002
300.003
300.003
300.003
300.003
300.003
300.003
300.003
300.003
300.002
300.002
300.002
300.001
300.001
300
300
300
300.002
300.007
300.017
300.031
300.047
300.063
300.076
300.084
300.089
300.089
300.085
300.079
300.073
300.067
300.065
300.065
300.067
300.067
300.066
300.067
300.07
300.072
300.075
300.077
300.078
300.076
300.072
300.066
300.058
300.001
300.002
300.002
300.002
300.002
300.002
300.002
300.002
300.002
300.003
300.003
300.003
300.003
300.002
300.002
300.002
300.002
300.001
300.001
300
300
300
300.002
300.007
300.015
300.027
300.041
300.054
300.065
300.073
300.077
300.077
300.075
300.071
300.066
300.063
300.062
300.063
300.062
300.062
300.063
300.065
300.069
300.073
300.076
300.079
300.079
300.077
300.072
300.064
300.001
300.001
300.001
300.001
300.001
300.001
300.001
300.002
300.002
300.002
300.002
300.002
300.002
300.002
300.002
300.002
300.002
300.002
300.001
300.001
300
300
300
300.002
300.008
300.016
300.027
300.039
300.05
300.059
300.065
300.068
300.068
300.067
300.065
300.063
300.062
300.061
300.061
300.061
300.061
300.063
300.066
300.071
300.075
300.078
300.08
300.079
300.075
300.07
300
300
300
300
300.001
300.001
300.001
300.001
300.001
300.001
300.001
300.001
300.001
300.001
300.001
300.002
300.002
300.002
300.001
300.001
300.001
300
300
300.001
300.004
300.01
300.019
300.029
300.039
300.048
300.055
300.059
300.062
300.063
300.062
300.062
300.061
300.061
300.061
300.062
300.062
300.064
300.067
300.071
300.075
300.078
300.08
300.08
300.078
300.073
300
300
300
300
300
300
300
300.001
300.001
300.001
300.001
300.001
300.001
300.001
300.001
300.002
300.002
300.002
300.002
300.001
300.001
300
300
300.001
300.003
300.008
300.015
300.023
300.032
300.04
300.047
300.053
300.056
300.058
300.06
300.06
300.061
300.062
300.062
300.063
300.064
300.066
300.069
300.072
300.075
300.078
300.08
300.08
300.079
300.075
300.001
300
300
300
300
300
300
300.001
300.001
300.001
300.001
300.001
300.001
300.001
300.002
300.002
300.002
300.002
300.002
300.001
300.001
300.001
300
300.001
300.003
300.008
300.014
300.021
300.028
300.036
300.042
300.047
300.052
300.055
300.057
300.059
300.061
300.062
300.064
300.065
300.067
300.068
300.071
300.074
300.076
300.079
300.08
300.081
300.079
300.076
300.002
300.001
300.001
300.001
300.001
300.001
300.001
300.001
300.001
300.001
300.001
300.002
300.002
300.002
300.002
300.002
300.002
300.002
300.002
300.002
300.002
300.002
300.003
300.004
300.006
300.01
300.015
300.021
300.027
300.034
300.039
300.044
300.048
300.052
300.055
300.058
300.06
300.062
300.065
300.067
300.068
300.07
300.073
300.075
300.078
300.08
300.081
300.081
300.08
300.077
300.005
300.004
300.004
300.004
300.004
300.004
300.004
300.004
300.005
300.005
300.005
300.006
300.006
300.006
300.006
300.007
300.007
300.007
300.007
300.007
300.007
300.007
300.008
300.009
300.011
300.014
300.018
300.022
300.028
300.033
300.038
300.043
300.047
300.05
300.054
300.057
300.06
300.063
300.066
300.068
300.07
300.072
300.075
300.077
300.079
300.081
300.081
300.081
300.08
300.077
300.011
300.009
300.01
300.01
300.011
300.011
300.012
300.012
300.013
300.014
300.014
300.015
300.015
300.016
300.016
300.016
300.016
300.016
300.016
300.015
300.015
300.016
300.016
300.017
300.018
300.02
300.022
300.026
300.03
300.034
300.038
300.042
300.046
300.05
300.054
300.057
300.06
300.064
300.067
300.069
300.072
300.074
300.076
300.078
300.08
300.081
300.082
300.081
300.08
300.078
300.02
300.019
300.02
300.021
300.022
300.023
300.025
300.026
300.027
300.028
300.029
300.029
300.03
300.03
300.03
300.03
300.03
300.03
300.029
300.029
300.028
300.028
300.027
300.027
300.028
300.028
300.029
300.031
300.034
300.036
300.039
300.043
300.046
300.05
300.054
300.058
300.061
300.065
300.068
300.071
300.073
300.076
300.077
300.079
300.081
300.082
300.082
300.081
300.08
300.077
300.033
300.033
300.034
300.036
300.037
300.039
300.041
300.042
300.044
300.045
300.047
300.048
300.049
300.049
300.05
300.05
300.049
300.049
300.048
300.047
300.046
300.044
300.043
300.042
300.041
300.04
300.04
300.04
300.041
300.042
300.044
300.046
300.049
300.052
300.056
300.059
300.063
300.066
300.069
300.072
300.075
300.077
300.079
300.08
300.081
300.082
300.082
300.081
300.079
300.077
300.039
300.04
300.042
300.045
300.047
300.049
300.052
300.054
300.057
300.059
300.061
300.063
300.064
300.065
300.066
300.067
300.067
300.067
300.066
300.065
300.064
300.062
300.061
300.059
300.057
300.055
300.054
300.052
300.052
300.051
300.052
300.053
300.054
300.055
300.058
300.061
300.065
300.068
300.071
300.074
300.076
300.078
300.08
300.081
300.081
300.081
300.081
300.08
300.078
300.075
300.023
300.025
300.029
300.033
300.037
300.041
300.045
300.049
300.052
300.056
300.059
300.062
300.065
300.067
300.069
300.071
300.072
300.072
300.073
300.072
300.072
300.071
300.07
300.069
300.067
300.066
300.064
300.062
300.061
300.06
300.06
300.059
300.059
300.059
300.06
300.062
300.065
300.068
300.071
300.073
300.075
300.076
300.077
300.077
300.077
300.077
300.076
300.074
300.072
300.069
303.148
303.144
303.141
303.138
303.135
303.132
303.129
303.126
303.123
303.12
303.117
303.114
303.111
303.108
303.105
303.102
303.099
303.096
303.093
303.09
303.088
303.085
303.083
303.08
303.078
303.076
303.074
303.071
303.069
303.067
303.065
303.063
303.061
303.059
303.057
303.055
303.053
303.051
303.049
303.047
303.045
303.043
303.042
303.04
303.038
303.037
303.035
303.034
303.032
303.031
303.15
303.15
303.15
303.15
303.15
303.15
303.149
303.149
303.149
303.149
303.148
303.148
303.148
303.148
303.147
303.147
303.147
303.146
303.146
303.145
303.145
303.144
303.144
303.143
303.142
303.141
303.141
303.14
303.139
303.138
303.137
303.136
303.136
303.135
303.134
303.133
303.132
303.132
303.131
303.13
303.129
303.129
303.128
303.127
303.126
303.126
303.125
303.124
303.123
303.121
303.15
303.15
303.15
303.15
303.15
303.15
303.15
303.15
303.15
303.15
303.15
303.15
303.15
303.15
303.15
303.15
303.15
303.15
303.15
303.15
303.15
303.15
303.149
303.149
303.149
303.149
303.149
303.149
303.149
303.148
303.148
303.148
303.148
303.148
303.147
303.147
303.147
303.147
303.146
303.146
303.146
303.146
303.146
303.145
303.145
303.145
303.145
303.144
303.144
303.144
303.15
303.15
303.15
303.15
303.15
303.15
303.15
303.15
303.15
303.15
303.15
303.15
303.15
303.15
303.15
303.15
303.15
303.15
303.15
303.15
303.15
303.15
303.15
303.15
303.15
303.15
303.15
303.15
303.15
303.15
303.15
303.15
303.15
303.15
303.15
303.15
303.15
303.15
303.15
303.149
303.149
303.149
303.149
303.149
303.149
303.149
303.149
303.149
303.149
303.149
303.15
303.15
303.15
303.15
303.15
303.15
303.15
303.15
303.15
303.15
303.15
303.15
303.15
303.15
303.15
303.15
303.15
303.15
303.15
303.15
303.15
303.15
303.15
303.15
303.15
303.15
303.15
303.15
303.15
303.15
303.15
303.15
303.15
303.15
303.15
303.15
303.15
303.15
303.15
303.15
303.15
303.15
303.15
303.15
303.15
303.15
303.15
303.15
303.15
303.15
303.15
303.15
303.15
303.15
303.15
303.15
303.15
303.15
303.15
303.15
303.15
303.15
303.15
303.15
303.15
303.15
303.15
303.15
303.15
303.15
303.15
303.15
303.15
303.15
303.15
303.15
303.15
303.15
303.15
303.15
303.15
303.15
303.15
303.15
303.15
303.15
303.15
303.15
303.15
303.15
303.15
303.15
303.15
303.15
303.15
303.15
303.15
303.15
303.15
303.15
303.15
303.15
303.15
303.15
303.15
303.15
303.15
303.15
303.15
303.15
303.15
303.15
303.15
303.15
303.15
303.15
303.15
303.15
303.15
303.15
303.15
303.15
303.15
303.15
303.15
303.15
303.15
303.15
303.15
303.15
303.15
303.15
303.15
303.15
303.15
303.15
303.15
303.15
303.15
303.15
303.15
303.15
303.15
303.15
303.15
303.15
303.15
303.15
303.15
303.15
303.15
303.15
303.15
303.15
303.15
303.15
303.15
303.15
303.15
303.15
303.15
303.15
303.15
303.15
303.15
303.15
303.15
303.15
303.15
303.15
303.15
303.15
303.15
303.15
303.15
303.15
303.15
303.15
303.15
303.15
303.15
303.15
303.15
303.15
303.15
303.15
303.15
303.15
303.15
303.15
303.15
303.15
303.15
303.15
303.15
303.15
303.15
303.15
303.15
303.15
303.15
303.15
303.15
303.15
303.15
303.15
303.15
303.15
303.15
303.15
303.15
303.15
303.15
303.15
303.15
303.15
303.15
303.15
303.15
303.15
303.15
303.15
303.15
303.15
303.15
303.15
303.15
303.15
303.15
303.15
303.15
303.15
303.15
303.15
303.15
303.15
303.15
303.15
303.15
303.15
303.15
303.15
303.15
303.15
303.15
303.15
303.15
303.15
303.15
303.15
303.15
303.15
303.15
303.15
303.15
303.15
303.15
303.15
303.15
303.15
303.15
303.15
303.15
303.15
303.15
303.15
303.15
303.15
303.15
303.15
303.15
303.15
303.15
303.15
303.15
303.15
303.15
303.15
303.15
303.15
303.15
303.15
303.15
303.15
303.15
303.15
303.15
303.15
303.15
303.15
303.15
303.15
303.15
303.15
303.15
303.15
303.15
303.15
303.15
303.15
303.15
303.15
303.15
303.15
303.15
303.15
303.15
303.15
303.15
303.15
303.15
303.15
303.15
303.15
303.15
303.15
303.15
303.15
303.15
303.15
303.15
303.15
303.15
303.15
303.15
303.15
303.15
303.15
303.15
303.15
303.15
303.15
303.15
303.15
303.15
303.15
303.15
303.15
303.15
303.15
303.15
303.15
303.15
303.15
303.15
303.15
303.15
303.15
303.15
303.15
303.15
303.15
303.15
303.15
303.15
303.15
303.15
303.15
303.15
303.15
303.15
303.15
303.15
303.15
303.15
303.15
303.15
303.15
303.15
303.15
303.15
303.15
303.15
303.15
303.15
303.15
303.15
303.15
303.15
303.15
303.15
303.15
303.15
303.15
303.15
303.15
303.15
303.15
303.15
303.15
303.15
303.15
303.15
303.15
303.15
303.15
303.15
303.15
303.15
303.15
303.15
303.15
303.15
303.15
303.15
303.15
303.15
303.15
303.15
303.15
303.15
303.15
303.15
303.15
303.15
303.15
303.15
303.15
303.15
303.15
303.15
303.15
303.15
303.15
303.15
303.15
303.15
303.15
303.15
303.15
303.15
303.15
303.15
303.15
303.15
303.15
303.15
303.15
303.15
303.15
303.15
303.15
303.15
303.15
303.15
303.15
303.15
303.15
303.15
303.15
303.15
303.15
303.15
303.15
303.15
303.15
303.15
303.15
303.15
303.15
303.15
303.15
303.15
303.15
303.15
303.15
303.15
303.15
303.15
303.15
303.15
303.15
303.15
303.15
303.15
303.15
303.15
303.15
303.15
303.15
303.15
303.15
303.15
303.15
303.15
303.15
303.15
303.15
303.15
303.15
303.15
303.15
303.15
303.15
303.15
303.15
303.15
303.15
303.15
303.15
303.15
303.15
303.15
303.15
303.15
303.15
303.15
303.15
303.15
303.15
303.15
303.15
303.15
303.15
303.15
303.15
303.15
303.15
303.15
303.15
303.15
303.15
303.15
303.15
303.15
303.15
303.15
303.15
303.15
303.15
303.15
303.15
303.15
303.15
303.15
303.15
303.15
303.15
303.15
303.15
303.15
303.15
303.15
303.15
303.15
303.15
303.15
303.15
303.15
303.15
303.15
303.15
303.15
303.15
303.15
303.15
303.15
303.15
303.15
303.15
303.15
303.15
303.15
303.15
303.15
303.15
303.15
303.15
303.15
303.15
303.15
303.15
303.15
303.15
303.15
303.15
303.15
303.15
303.15
303.15
303.15
303.15
303.15
303.15
303.15
303.15
303.15
303.15
303.15
303.15
303.15
303.15
303.15
303.15
303.15
303.15
303.15
303.15
303.15
303.15
303.15
303.15
303.15
303.15
303.15
303.15
303.15
303.15
303.15
303.15
303.15
303.15
303.15
303.15
303.15
303.15
303.15
303.15
303.15
303.15
303.15
303.15
303.15
303.15
303.15
303.15
303.15
303.15
303.15
303.15
303.15
303.15
303.15
303.15
303.15
303.15
303.15
303.149
303.149
303.149
303.149
303.149
303.149
303.149
303.149
303.149
303.149
303.148
303.148
303.148
303.15
303.15
303.15
303.15
303.15
303.15
303.15
303.15
303.15
303.15
303.15
303.15
303.15
303.15
303.15
303.15
303.15
303.15
303.15
303.15
303.15
303.15
303.149
303.149
303.149
303.149
303.149
303.149
303.149
303.148
303.148
303.148
303.148
303.147
303.147
303.147
303.147
303.146
303.146
303.146
303.145
303.145
303.145
303.144
303.144
303.143
303.143
303.142
303.142
303.141
303.15
303.15
303.15
303.15
303.15
303.15
303.149
303.149
303.149
303.149
303.149
303.148
303.148
303.148
303.147
303.147
303.147
303.146
303.146
303.145
303.145
303.144
303.144
303.143
303.142
303.141
303.14
303.139
303.139
303.138
303.137
303.136
303.135
303.134
303.133
303.132
303.132
303.131
303.13
303.129
303.128
303.127
303.126
303.125
303.123
303.122
303.121
303.12
303.118
303.117
303.148
303.144
303.141
303.138
303.135
303.132
303.129
303.126
303.123
303.12
303.117
303.114
303.111
303.108
303.105
303.102
303.099
303.096
303.093
303.091
303.088
303.085
303.083
303.08
303.078
303.076
303.074
303.072
303.069
303.067
303.065
303.063
303.061
303.059
303.057
303.055
303.053
303.051
303.049
303.047
303.045
303.043
303.041
303.039
303.037
303.035
303.033
303.031
303.029
303.027
302.359
302.586
302.534
302.295
301.877
301.281
300.538
299.705
298.849
298.026
297.278
296.626
296.078
295.63
295.272
294.993
294.778
294.618
294.503
294.422
302.532
302.664
302.538
302.246
301.776
301.135
300.361
299.513
298.659
297.85
297.124
296.499
295.978
295.555
295.22
294.96
294.762
294.615
294.508
294.43
302.772
302.711
302.526
302.185
301.666
300.98
300.172
299.309
298.454
297.66
296.957
296.358
295.865
295.469
295.159
294.92
294.741
294.608
294.513
294.44
302.823
302.723
302.505
302.121
301.55
300.815
299.97
299.088
298.233
297.452
296.772
296.201
295.737
295.369
295.085
294.87
294.711
294.596
294.514
294.45
302.842
302.73
302.484
302.052
301.425
300.636
299.751
298.848
297.991
297.223
296.565
296.023
295.59
295.253
294.997
294.808
294.671
294.575
294.509
294.458
302.856
302.736
302.46
301.978
301.289
300.441
299.512
298.585
297.725
296.969
296.336
295.823
295.422
295.118
294.893
294.731
294.619
294.544
294.495
294.461
302.869
302.74
302.432
301.896
301.14
300.227
299.251
298.298
297.434
296.692
296.083
295.602
295.235
294.965
294.772
294.64
294.554
294.501
294.474
294.455
302.879
302.742
302.401
301.804
300.975
299.993
298.966
297.987
297.119
296.391
295.809
295.362
295.032
294.798
294.639
294.536
294.476
294.447
294.446
294.432
302.889
302.743
302.365
301.703
300.795
299.74
298.66
297.654
296.783
296.073
295.52
295.11
294.819
294.623
294.498
294.424
294.391
294.386
294.41
294.412
302.896
302.742
302.324
301.592
300.599
299.468
298.334
297.304
296.434
295.745
295.226
294.856
294.607
294.449
294.358
294.312
294.304
294.322
294.367
294.39
302.903
302.739
302.278
301.471
300.391
299.182
297.996
296.945
296.082
295.418
294.939
294.613
294.408
294.289
294.23
294.209
294.222
294.258
294.336
294.37
302.908
302.734
302.228
301.343
300.173
298.887
297.653
296.587
295.737
295.107
294.672
294.395
294.235
294.154
294.124
294.125
294.153
294.199
294.299
294.351
302.912
302.728
302.174
301.21
299.949
298.589
297.315
296.242
295.414
294.824
294.438
294.213
294.098
294.054
294.049
294.066
294.104
294.148
294.264
294.335
302.916
302.719
302.118
301.073
299.725
298.298
296.991
295.921
295.124
294.581
294.249
294.075
294.004
293.991
294.006
294.035
294.076
294.11
294.231
294.321
302.919
302.71
302.06
300.937
299.507
298.021
296.693
295.637
294.878
294.386
294.109
293.983
293.949
293.961
293.991
294.026
294.065
294.095
294.206
294.311
302.921
302.7
302.003
300.806
299.301
297.767
296.429
295.397
294.682
294.243
294.016
293.932
293.926
293.956
293.996
294.032
294.067
294.09
294.192
294.307
302.923
302.689
301.949
300.683
299.113
297.545
296.209
295.207
294.539
294.149
293.964
293.911
293.925
293.965
294.01
294.047
294.078
294.094
294.19
294.309
302.924
302.679
301.899
300.573
298.951
297.361
296.037
295.07
294.447
294.098
293.944
293.91
293.933
293.979
294.028
294.065
294.096
294.106
294.198
294.317
302.925
302.67
301.856
300.481
298.818
297.221
295.918
294.988
294.4
294.079
293.943
293.919
293.947
293.994
294.044
294.085
294.117
294.125
294.211
294.329
302.927
302.663
301.822
300.412
298.731
297.136
295.853
294.948
294.382
294.078
293.952
293.931
293.961
294.009
294.06
294.104
294.137
294.144
294.223
294.34
302.928
302.66
301.808
300.383
298.692
297.1
295.83
294.939
294.386
294.089
293.966
293.946
293.975
294.023
294.075
294.121
294.154
294.165
294.232
294.351
302.931
302.668
301.821
300.397
298.704
297.113
295.846
294.96
294.409
294.112
293.986
293.962
293.988
294.035
294.09
294.138
294.172
294.183
294.241
294.36
302.935
302.687
301.863
300.457
298.77
297.176
295.904
295.011
294.452
294.146
294.012
293.98
294.002
294.047
294.103
294.156
294.194
294.215
294.251
294.37
302.941
302.716
301.932
300.563
298.892
297.293
296.007
295.096
294.519
294.195
294.046
294.003
294.017
294.059
294.115
294.171
294.217
294.247
294.265
294.38
302.948
302.754
302.026
300.716
299.073
297.47
296.16
295.219
294.612
294.262
294.092
294.032
294.036
294.071
294.125
294.185
294.237
294.274
294.284
294.39
302.955
302.798
302.14
300.911
299.313
297.71
296.37
295.389
294.741
294.355
294.154
294.073
294.061
294.087
294.136
294.196
294.254
294.298
294.308
294.399
302.962
302.845
302.269
301.143
299.613
298.02
296.648
295.615
294.914
294.481
294.241
294.131
294.099
294.111
294.151
294.207
294.268
294.319
294.344
294.408
302.968
302.891
302.405
301.402
299.967
298.402
297
295.91
295.145
294.653
294.364
294.215
294.155
294.149
294.176
294.225
294.284
294.34
294.384
294.414
302.973
302.936
302.54
301.675
300.364
298.854
297.436
296.287
295.449
294.886
294.536
294.338
294.241
294.208
294.218
294.255
294.309
294.365
294.409
294.419
302.976
302.975
302.667
301.948
300.789
299.369
297.958
296.759
295.844
295.201
294.778
294.518
294.372
294.304
294.288
294.309
294.353
294.404
294.447
294.422
302.977
303.008
302.78
302.205
301.219
299.928
298.561
297.331
296.346
295.618
295.112
294.778
294.571
294.455
294.404
294.401
294.428
294.472
294.522
294.569
302.976
303.034
302.875
302.435
301.631
300.504
299.225
298
296.962
296.155
295.563
295.147
294.866
294.689
294.591
294.553
294.556
294.585
294.63
294.695
302.974
303.053
302.951
302.629
302.003
301.063
299.918
298.744
297.687
296.82
296.149
295.65
295.29
295.042
294.884
294.798
294.765
294.769
294.801
294.865
302.97
303.067
303.008
302.783
302.317
301.572
300.598
299.526
298.497
297.602
296.874
296.303
295.866
295.542
295.315
295.17
295.089
295.053
295.051
295.091
302.966
303.075
303.05
302.9
302.569
302.007
301.222
300.296
299.345
298.468
297.716
297.097
296.6
296.207
295.909
295.694
295.548
295.451
295.393
295.386
302.961
303.08
303.079
302.985
302.758
302.354
301.754
301
300.173
299.362
298.629
297.998
297.467
297.026
296.664
296.377
296.153
295.975
295.835
295.762
302.955
303.081
303.098
303.043
302.894
302.614
302.178
301.599
300.921
300.218
299.546
298.942
298.413
297.952
297.551
297.201
296.896
296.623
296.379
296.226
302.95
303.081
303.109
303.082
302.989
302.802
302.498
302.072
301.549
300.975
300.397
299.854
299.361
298.915
298.504
298.117
297.745
297.375
297.017
296.775
302.944
303.08
303.116
303.107
303.052
302.933
302.729
302.43
302.044
301.596
301.126
300.666
300.235
299.83
299.44
299.047
298.636
298.191
297.728
297.401
302.939
303.078
303.119
303.122
303.092
303.02
302.889
302.689
302.417
302.086
301.722
301.35
300.987
300.638
300.289
299.919
299.504
299.02
298.484
298.091
302.934
303.075
303.12
303.131
303.117
303.075
302.995
302.867
302.685
302.453
302.185
301.898
301.609
301.322
301.027
300.701
300.313
299.83
299.259
298.823
302.93
303.073
303.12
303.136
303.131
303.108
303.062
302.984
302.869
302.714
302.527
302.318
302.099
301.875
301.638
301.366
301.028
300.579
300.019
299.571
302.926
303.07
303.119
303.138
303.139
303.128
303.103
303.058
302.988
302.89
302.766
302.622
302.465
302.297
302.115
301.901
301.623
301.236
300.728
300.301
302.922
303.068
303.118
303.139
303.143
303.139
303.126
303.101
303.061
303.002
302.925
302.831
302.723
302.605
302.472
302.31
302.095
301.784
301.357
300.978
302.918
303.065
303.117
303.139
303.145
303.144
303.138
303.125
303.104
303.07
303.025
302.966
302.897
302.817
302.724
302.608
302.449
302.214
301.88
301.566
302.915
303.063
303.116
303.139
303.146
303.147
303.144
303.138
303.127
303.109
303.084
303.05
303.007
302.956
302.893
302.814
302.701
302.533
302.287
302.04
302.913
303.061
303.115
303.139
303.147
303.148
303.147
303.145
303.139
303.13
303.117
303.098
303.073
303.041
303.001
302.947
302.87
302.753
302.58
302.389
302.91
303.06
303.114
303.138
303.147
303.149
303.149
303.148
303.145
303.141
303.134
303.124
303.11
303.091
303.065
303.03
302.977
302.896
302.773
302.622
302.908
303.058
303.113
303.138
303.147
303.149
303.149
303.149
303.148
303.146
303.143
303.137
303.13
303.118
303.102
303.078
303.04
302.98
302.887
302.759
302.907
303.057
303.112
303.138
303.146
303.149
303.15
303.15
303.149
303.148
303.147
303.144
303.14
303.133
303.122
303.104
303.074
303.025
302.947
302.83
302.905
303.056
303.112
303.137
303.146
303.149
303.15
303.15
303.15
303.149
303.148
303.147
303.144
303.14
303.132
303.118
303.092
303.048
302.976
302.862
302.904
303.055
303.111
303.137
303.146
303.149
303.15
303.15
303.15
303.15
303.149
303.148
303.147
303.144
303.137
303.125
303.102
303.06
302.99
302.877
302.903
303.054
303.111
303.137
303.146
303.149
303.15
303.15
303.15
303.15
303.15
303.149
303.148
303.145
303.14
303.129
303.107
303.066
302.996
302.884
302.903
303.054
303.11
303.137
303.146
303.149
303.15
303.15
303.15
303.15
303.15
303.149
303.149
303.146
303.142
303.131
303.11
303.07
303.001
302.889
302.902
303.054
303.11
303.137
303.146
303.149
303.15
303.15
303.15
303.15
303.15
303.15
303.149
303.147
303.143
303.133
303.112
303.072
303.003
302.892
302.902
303.053
303.11
303.137
303.146
303.149
303.15
303.15
303.15
303.15
303.15
303.15
303.149
303.147
303.143
303.134
303.114
303.074
303.005
302.894
302.902
303.053
303.11
303.137
303.146
303.149
303.15
303.15
303.15
303.15
303.15
303.15
303.149
303.148
303.144
303.135
303.115
303.075
303.007
302.896
302.902
303.053
303.11
303.137
303.146
303.149
303.15
303.15
303.15
303.15
303.15
303.15
303.149
303.148
303.144
303.135
303.115
303.076
303.008
302.898
302.902
303.053
303.11
303.137
303.146
303.149
303.15
303.15
303.15
303.15
303.15
303.15
303.149
303.148
303.144
303.136
303.116
303.077
303.009
302.899
302.903
303.053
303.11
303.137
303.146
303.149
303.15
303.15
303.15
303.15
303.15
303.15
303.149
303.148
303.145
303.136
303.117
303.078
303.01
302.901
302.903
303.053
303.11
303.137
303.146
303.149
303.15
303.15
303.15
303.15
303.15
303.15
303.149
303.148
303.145
303.136
303.117
303.078
303.011
302.902
302.904
303.054
303.11
303.137
303.146
303.149
303.15
303.15
303.15
303.15
303.15
303.15
303.149
303.148
303.145
303.136
303.117
303.079
303.012
302.903
302.905
303.054
303.11
303.137
303.146
303.149
303.15
303.15
303.15
303.15
303.15
303.15
303.149
303.148
303.145
303.137
303.118
303.079
303.012
302.904
302.905
303.054
303.111
303.137
303.146
303.149
303.15
303.15
303.15
303.15
303.15
303.15
303.149
303.148
303.145
303.137
303.118
303.08
303.013
302.905
302.906
303.055
303.111
303.137
303.146
303.149
303.15
303.15
303.15
303.15
303.15
303.15
303.149
303.148
303.145
303.137
303.118
303.08
303.013
302.905
302.907
303.055
303.111
303.137
303.146
303.149
303.15
303.15
303.15
303.15
303.15
303.15
303.149
303.148
303.145
303.137
303.118
303.08
303.013
302.906
302.908
303.056
303.112
303.138
303.147
303.149
303.15
303.15
303.15
303.15
303.15
303.15
303.149
303.148
303.145
303.137
303.118
303.08
303.014
302.907
302.909
303.057
303.112
303.138
303.147
303.149
303.15
303.15
303.15
303.15
303.15
303.15
303.15
303.148
303.145
303.137
303.118
303.081
303.014
302.908
302.91
303.057
303.112
303.138
303.147
303.149
303.15
303.15
303.15
303.15
303.15
303.15
303.15
303.148
303.145
303.137
303.119
303.081
303.014
302.908
302.911
303.058
303.113
303.138
303.147
303.149
303.15
303.15
303.15
303.15
303.15
303.15
303.15
303.148
303.145
303.137
303.119
303.081
303.014
302.909
302.913
303.059
303.113
303.138
303.147
303.149
303.15
303.15
303.15
303.15
303.15
303.15
303.15
303.148
303.145
303.137
303.119
303.081
303.014
302.909
302.914
303.06
303.114
303.139
303.147
303.149
303.15
303.15
303.15
303.15
303.15
303.15
303.15
303.148
303.145
303.137
303.119
303.081
303.014
302.91
302.915
303.06
303.114
303.139
303.147
303.149
303.15
303.15
303.15
303.15
303.15
303.15
303.15
303.149
303.145
303.138
303.119
303.081
303.015
302.911
302.916
303.061
303.115
303.139
303.147
303.149
303.15
303.15
303.15
303.15
303.15
303.15
303.15
303.149
303.146
303.138
303.119
303.081
303.015
302.911
302.917
303.062
303.115
303.139
303.147
303.149
303.15
303.15
303.15
303.15
303.15
303.15
303.15
303.149
303.146
303.138
303.119
303.081
303.015
302.912
302.919
303.062
303.115
303.139
303.147
303.149
303.15
303.15
303.15
303.15
303.15
303.15
303.15
303.149
303.146
303.138
303.119
303.081
303.015
302.912
302.92
303.063
303.116
303.139
303.147
303.149
303.15
303.15
303.15
303.15
303.15
303.15
303.15
303.149
303.146
303.138
303.119
303.082
303.015
302.913
302.921
303.064
303.116
303.139
303.147
303.149
303.15
303.15
303.15
303.15
303.15
303.15
303.15
303.149
303.146
303.138
303.12
303.082
303.016
302.914
302.922
303.064
303.116
303.14
303.147
303.149
303.15
303.15
303.15
303.15
303.15
303.15
303.15
303.149
303.146
303.138
303.12
303.082
303.016
302.915
302.924
303.065
303.117
303.14
303.147
303.149
303.15
303.15
303.15
303.15
303.15
303.15
303.15
303.149
303.146
303.138
303.12
303.083
303.017
302.915
302.925
303.066
303.117
303.14
303.147
303.149
303.15
303.15
303.15
303.15
303.15
303.15
303.15
303.149
303.146
303.138
303.121
303.083
303.017
302.916
302.926
303.066
303.117
303.14
303.147
303.149
303.15
303.15
303.15
303.15
303.15
303.15
303.15
303.149
303.146
303.139
303.121
303.084
303.018
302.917
302.927
303.067
303.118
303.14
303.147
303.149
303.15
303.15
303.15
303.15
303.15
303.15
303.15
303.149
303.146
303.139
303.121
303.084
303.019
302.918
302.929
303.068
303.118
303.14
303.147
303.149
303.15
303.15
303.15
303.15
303.15
303.15
303.15
303.149
303.146
303.139
303.122
303.085
303.02
302.919
302.93
303.068
303.118
303.14
303.147
303.149
303.15
303.15
303.15
303.15
303.15
303.15
303.15
303.149
303.146
303.139
303.122
303.086
303.02
302.92
302.931
303.069
303.118
303.14
303.148
303.149
303.15
303.15
303.15
303.15
303.15
303.15
303.15
303.149
303.146
303.139
303.123
303.087
303.021
302.921
302.932
303.069
303.119
303.14
303.148
303.149
303.15
303.15
303.15
303.15
303.15
303.15
303.15
303.149
303.146
303.14
303.123
303.087
303.022
302.922
302.933
303.07
303.119
303.141
303.148
303.149
303.15
303.15
303.15
303.15
303.15
303.15
303.15
303.149
303.147
303.14
303.124
303.088
303.023
302.923
302.935
303.071
303.119
303.141
303.148
303.149
303.15
303.15
303.15
303.15
303.15
303.15
303.15
303.149
303.147
303.14
303.124
303.089
303.025
302.924
302.936
303.071
303.12
303.141
303.148
303.149
303.15
303.15
303.15
303.15
303.15
303.15
303.15
303.149
303.147
303.141
303.125
303.09
303.026
302.925
302.937
303.072
303.12
303.141
303.148
303.149
303.15
303.15
303.15
303.15
303.15
303.15
303.15
303.149
303.147
303.141
303.125
303.091
303.027
302.925
302.938
303.073
303.12
303.141
303.148
303.149
303.15
303.15
303.15
303.15
303.15
303.15
303.15
303.149
303.147
303.141
303.126
303.092
303.028
302.926
302.939
303.073