/*--------------------------------*- C++ -*----------------------------------*\
  =========                 |
  \\      /  F ield         | OpenFOAM: The Open Source CFD Toolbox
   \\    /   O peration     | Website:  https://openfoam.org
    \\  /    A nd           | Version:  8
     \\/     M anipulation  |
\*---------------------------------------------------------------------------*/
FoamFile
{
    version     2.0;
    format      ascii;
    class       volScalarField;
    location    "1000";
    object      epsilon;
}
// * * * * * * * * * * * * * * * * * * * * * * * * * * * * * * * * * * * * * //

dimensions      [0 2 -3 0 0 0 0];

internalField   nonuniform List<scalar> 
8400
(
0.0759124
0.0704992
0.0649042
0.0594032
0.0541381
0.0491646
0.0445115
0.0401969
0.0362288
0.0326058
0.0293166
0.0268238
0.0252497
0.0245158
0.0245068
0.0251821
0.026637
0.0291348
0.0331436
0.0393174
0.0481394
0.0583479
0.0665156
0.0698435
0.069126
0.0676699
0.0661964
0.0647815
0.0633879
0.0619925
0.0605919
0.0591867
0.0577828
0.0563898
0.0550109
0.0536535
0.0523234
0.0510218
0.0497507
0.048513
0.0473115
0.0461469
0.045019
0.0439268
0.042933
0.0421642
0.0416061
0.0412494
0.0410886
0.0411239
0.014351
0.0151051
0.0154867
0.0153697
0.0148518
0.0140555
0.0130912
0.0120826
0.0111918
0.0106366
0.0106531
0.0108145
0.0109622
0.0110663
0.0111191
0.0111218
0.0110741
0.0109876
0.0109142
0.0110041
0.0115797
0.0132772
0.0164441
0.0188437
0.0204971
0.0210848
0.0209192
0.020176
0.018933
0.0173475
0.0155932
0.0138176
0.0121228
0.010573
0.00919893
0.00801104
0.00700822
0.00618179
0.0055184
0.00500229
0.00461875
0.00435552
0.00420232
0.00415134
0.00416718
0.00418425
0.00420346
0.00422612
0.00425413
0.00428982
0.00986223
0.00997941
0.0103632
0.0106658
0.0108643
0.0109757
0.0110457
0.0111351
0.0113044
0.0115062
0.0116466
0.0117081
0.0117059
0.0117481
0.0118011
0.0118529
0.0118908
0.0118971
0.011838
0.0116378
0.010711
0.00780214
0.00818446
0.00902178
0.00962106
0.00977273
0.00965827
0.00928817
0.00864996
0.00786531
0.0070626
0.00633036
0.00571115
0.00521744
0.00484323
0.00457246
0.00438587
0.00426432
0.00419059
0.00414983
0.00412958
0.00412025
0.00411505
0.00411022
0.00410174
0.00407734
0.00403785
0.00398444
0.00391864
0.00384245
0.0131009
0.012983
0.0128298
0.0126898
0.0125858
0.0125138
0.0124328
0.0123225
0.0122031
0.0120966
0.0120244
0.0119963
0.0120075
0.0120425
0.0120845
0.0121194
0.0121382
0.0121339
0.0120963
0.01205
0.0119707
0.0113572
0.00918915
0.00647444
0.0064879
0.00647229
0.00642216
0.00627981
0.00598558
0.00564534
0.00533979
0.00510964
0.00496397
0.0048944
0.00488535
0.00491917
0.00497942
0.00505215
0.00512646
0.00519465
0.0052513
0.0052929
0.00531714
0.00532299
0.00531177
0.0052791
0.00522433
0.00514681
0.00504594
0.00492138
0.0131556
0.0131392
0.0131225
0.0131056
0.0130879
0.0130691
0.0130488
0.013026
0.0129995
0.0129692
0.0129346
0.0128968
0.0128566
0.0128151
0.012773
0.0127302
0.0126856
0.0126388
0.0125907
0.0125204
0.0124291
0.0122041
0.0113771
0.0100776
0.00919705
0.00840711
0.00613528
0.00542426
0.00531276
0.005209
0.00515895
0.00517312
0.00524349
0.00535469
0.00549041
0.00563619
0.00578111
0.00591762
0.00604077
0.00614788
0.00623711
0.0063073
0.00635759
0.00638716
0.00639676
0.00639088
0.00636753
0.00632444
0.00625875
0.00616736
0.0131516
0.0131316
0.0131114
0.0130912
0.013071
0.0130505
0.0130295
0.013008
0.0129856
0.0129621
0.0129377
0.0129123
0.0128858
0.0128588
0.0128312
0.0128033
0.0127746
0.0127421
0.0127013
0.0126483
0.0125782
0.0124535
0.0120896
0.0114104
0.0105588
0.00948349
0.00768931
0.00590384
0.00518047
0.00521815
0.00530904
0.00544406
0.00560798
0.00578519
0.00596257
0.00613088
0.00628506
0.006423
0.00654413
0.0066489
0.00673812
0.00681263
0.00687289
0.00691911
0.00695111
0.00697799
0.00699839
0.00700945
0.00700743
0.00698802
0.0131488
0.0131257
0.0131023
0.0130787
0.0130551
0.0130311
0.0130067
0.0129819
0.0129568
0.0129309
0.0129048
0.0128779
0.0128506
0.0128231
0.0127956
0.0127675
0.0127387
0.0127097
0.012679
0.0126429
0.0125952
0.012516
0.0123136
0.0118867
0.0111897
0.010128
0.00847074
0.00657484
0.0053484
0.00529659
0.00546674
0.00565632
0.00584985
0.00603557
0.00620579
0.0063565
0.00648704
0.00659872
0.00669375
0.00677444
0.00684341
0.00690316
0.00695558
0.00700256
0.00704537
0.00709454
0.00715153
0.00721209
0.00727038
0.00732019
0.0131455
0.0131187
0.0130916
0.0130643
0.0130368
0.013009
0.0129804
0.0129512
0.0129211
0.0128908
0.0128601
0.0128291
0.0127984
0.0127678
0.0127356
0.012704
0.0126745
0.0126478
0.012623
0.0125973
0.012565
0.0125109
0.0123782
0.0120725
0.0114908
0.0104977
0.00892839
0.00703324
0.00562165
0.0053604
0.00556169
0.00576853
0.00595946
0.0061273
0.00626901
0.00638415
0.00647463
0.00654347
0.00659446
0.00663153
0.00665935
0.00668323
0.00670821
0.00673936
0.00678067
0.00684563
0.00694086
0.00705689
0.00718241
0.00730607
0.0131406
0.0131085
0.0130762
0.0130433
0.0130098
0.0129758
0.0129411
0.0129062
0.0128701
0.0128341
0.0127976
0.0127615
0.012724
0.0126857
0.0126505
0.012619
0.012592
0.0125699
0.0125517
0.0125346
0.0125139
0.0124768
0.0123804
0.0121388
0.0116308
0.0106996
0.00919975
0.00734082
0.00586308
0.00542373
0.00559738
0.00580178
0.0059754
0.00611523
0.00622064
0.00629201
0.00633103
0.00634005
0.00632303
0.00628578
0.00623701
0.00618832
0.00615292
0.00614438
0.00617469
0.00625379
0.00640432
0.00659808
0.00681519
0.00703523
0.0131325
0.0130912
0.0130501
0.0130087
0.0129667
0.0129234
0.0128792
0.0128342
0.012789
0.0127427
0.0126956
0.0126483
0.0126043
0.0125655
0.012533
0.0125073
0.0124888
0.0124766
0.012469
0.012463
0.0124537
0.0124292
0.0123533
0.0121461
0.0116808
0.0107921
0.00934693
0.00754137
0.00606012
0.00550143
0.00558627
0.00578506
0.00593823
0.00605124
0.00612456
0.00615794
0.00615081
0.0061008
0.00600683
0.00587113
0.00570365
0.00552613
0.00537084
0.00527398
0.005268
0.00536707
0.00561249
0.00590765
0.00624084
0.00658212
0.0131173
0.0130585
0.0130003
0.0129421
0.0128838
0.0128247
0.0127644
0.0127035
0.0126426
0.0125809
0.0125227
0.0124697
0.0124251
0.0123925
0.0123727
0.0123651
0.0123668
0.0123728
0.0123804
0.012388
0.0123899
0.012375
0.0123101
0.0121184
0.011672
0.0108062
0.00940375
0.00766362
0.00621926
0.00559103
0.0055781
0.00573386
0.00586852
0.00596439
0.00602146
0.00603907
0.00601502
0.0059457
0.00583179
0.00567704
0.00548959
0.00529175
0.00510094
0.00486378
0.00442844
0.00446165
0.00484036
0.0052098
0.0056413
0.00610192
0.0130771
0.012978
0.0128844
0.0127923
0.0127012
0.0126094
0.0125137
0.0124201
0.0123265
0.0122414
0.0121743
0.012136
0.0121339
0.0121532
0.0121821
0.0122147
0.0122451
0.0122725
0.0122964
0.0123165
0.0123274
0.0123181
0.0122557
0.0120639
0.0116162
0.010756
0.00938969
0.00772898
0.00635315
0.00569244
0.00558763
0.00568014
0.0057853
0.00586346
0.00590842
0.0059188
0.00589255
0.00582725
0.00572427
0.00558779
0.00542551
0.00525203
0.00507843
0.00489926
0.00473588
0.00467904
0.00476154
0.00501081
0.00540379
0.0058786
0.0127707
0.012625
0.0124708
0.012323
0.0121888
0.0120792
0.0119996
0.0119441
0.0119178
0.0119137
0.0119242
0.0119503
0.0119873
0.0120299
0.0120753
0.0121195
0.0121593
0.0121959
0.0122273
0.0122512
0.0122625
0.0122494
0.0121787
0.0119778
0.0115269
0.0106506
0.00931718
0.00775486
0.0064762
0.00581245
0.00562763
0.00564534
0.0057056
0.00575727
0.00578648
0.00578909
0.00576341
0.00570895
0.00562754
0.00552296
0.00540194
0.00527473
0.00515104
0.0050392
0.00495588
0.00492676
0.00499525
0.00519786
0.00553122
0.00595483
0.012249
0.0121177
0.0120013
0.0119112
0.0118513
0.0118147
0.0117972
0.0117958
0.0118085
0.0118319
0.0118626
0.0118985
0.0119381
0.0119798
0.0120221
0.0120641
0.0121034
0.0121384
0.0121669
0.0121855
0.0121869
0.0121563
0.0120601
0.011832
0.0113672
0.0105218
0.00922618
0.0077575
0.00660327
0.00596289
0.00571567
0.00565785
0.00566264
0.0056778
0.00568416
0.0056749
0.00564768
0.00560232
0.00554057
0.00546558
0.0053823
0.00529757
0.00521884
0.00515454
0.00511945
0.00514507
0.00526716
0.00550074
0.00583241
0.00622847
0.0118553
0.0117985
0.0117566
0.0117324
0.0117237
0.0117269
0.0117392
0.0117584
0.0117837
0.011813
0.0118455
0.0118807
0.0119173
0.0119543
0.0119908
0.0120252
0.012056
0.0120814
0.0120981
0.0121016
0.0120824
0.012023
0.0118903
0.0116264
0.0111459
0.0103412
0.0091527
0.00775487
0.00674818
0.00615761
0.00587394
0.00575381
0.00570421
0.00567992
0.00566087
0.00563863
0.00560987
0.00557396
0.00553231
0.00548767
0.00544402
0.00540669
0.00538216
0.00537928
0.00541381
0.00551865
0.00571058
0.00598439
0.00631979
0.00668888
0.011684
0.0116771
0.0116778
0.0116854
0.0116987
0.0117163
0.0117372
0.011761
0.0117865
0.0118133
0.0118412
0.0118696
0.0118978
0.0119251
0.0119505
0.0119727
0.0119898
0.0119994
0.0119973
0.0119774
0.0119292
0.0118347
0.0116632
0.0113674
0.0108817
0.0101298
0.00906853
0.0077857
0.00692489
0.00641032
0.00612437
0.00597047
0.00588517
0.005834
0.00579966
0.00577403
0.00575356
0.00573728
0.00572619
0.00572262
0.00572999
0.00575276
0.00579655
0.00586913
0.00598604
0.00616313
0.00640031
0.00668409
0.00699648
0.00731875
0.0116397
0.0116517
0.0116658
0.0116817
0.0116993
0.0117171
0.0117358
0.011755
0.011774
0.011793
0.0118113
0.0118288
0.0118451
0.0118592
0.0118698
0.0118755
0.0118742
0.0118627
0.0118365
0.0117888
0.0117089
0.0115799
0.0113761
0.0110617
0.0105896
0.00990899
0.00899192
0.00784069
0.00714169
0.00673022
0.00648233
0.00633507
0.00624832
0.00619868
0.00617328
0.00616548
0.00617212
0.00619206
0.00622564
0.00627429
0.0063402
0.00642611
0.00653533
0.00667197
0.00684506
0.00705202
0.00728748
0.00754156
0.00780462
0.0080681
0.0116117
0.0116245
0.0116374
0.0116497
0.0116616
0.011673
0.0116836
0.0116933
0.0117022
0.0117097
0.0117156
0.0117195
0.0117208
0.0117185
0.0117113
0.0116977
0.0116751
0.0116401
0.0115881
0.0115123
0.0114033
0.0112474
0.0110256
0.0107129
0.0102779
0.00968803
0.00892609
0.00791246
0.00740039
0.00711742
0.00694758
0.00685058
0.00680243
0.00678867
0.00680057
0.00683302
0.00688316
0.00694937
0.00703092
0.00712779
0.00724029
0.00736882
0.0075136
0.00767481
0.00785297
0.00804486
0.00825045
0.00846926
0.00870044
0.00894143
0.0115231
0.0115292
0.0115337
0.0115366
0.011538
0.0115379
0.0115361
0.0115327
0.0115274
0.0115197
0.0115097
0.0114967
0.0114797
0.011458
0.0114303
0.0113948
0.0113492
0.0112902
0.0112138
0.0111147
0.0109852
0.0108161
0.010595
0.0103071
0.00993404
0.00945596
0.00886086
0.00798685
0.00769192
0.00755734
0.00749689
0.00748465
0.00750647
0.00755357
0.00762014
0.00770224
0.00779708
0.00790256
0.00801709
0.00813945
0.00826862
0.00840367
0.00854474
0.00869879
0.00890022
0.00915167
0.00945283
0.00980029
0.010186
0.0105946
0.0220098
0.0214535
0.0209155
0.0203823
0.0198508
0.0193192
0.0187871
0.0182555
0.0177256
0.0171994
0.0166787
0.0161657
0.0156621
0.0151699
0.0146899
0.0142223
0.0137666
0.0133212
0.0128833
0.0124489
0.0120133
0.0115712
0.0111185
0.0106532
0.0101749
0.0096811
0.00915637
0.00835443
0.00844244
0.00866481
0.00895891
0.00930519
0.0096946
0.0101226
0.0105874
0.0110884
0.0116267
0.0122038
0.0128225
0.0134863
0.0141998
0.0149689
0.0157985
0.0166825
0.0175755
0.0184738
0.0193754
0.0202789
0.0211828
0.0220858
9.32895e-06
9.20512e-06
9.08457e-06
8.96823e-06
8.85454e-06
8.74184e-06
8.63056e-06
8.52107e-06
8.4133e-06
8.30726e-06
8.20312e-06
8.10114e-06
8.0015e-06
7.9042e-06
7.80903e-06
7.71566e-06
7.62367e-06
7.53274e-06
7.44262e-06
7.35314e-06
7.2572e-06
7.15865e-06
7.05926e-06
6.96096e-06
6.84434e-06
6.73967e-06
6.64499e-06
6.55858e-06
6.47902e-06
6.40506e-06
6.3355e-06
6.26922e-06
6.20522e-06
6.14264e-06
6.08083e-06
6.01942e-06
5.95827e-06
5.89755e-06
5.83763e-06
5.77901e-06
5.72157e-06
5.66577e-06
5.61206e-06
5.5607e-06
5.51164e-06
5.46459e-06
5.41907e-06
5.37434e-06
5.32908e-06
5.28063e-06
8.97974e-06
8.38025e-06
7.83008e-06
7.32542e-06
6.86439e-06
6.44449e-06
6.06148e-06
5.71172e-06
5.39212e-06
5.09993e-06
4.83257e-06
4.58759e-06
4.36265e-06
4.15564e-06
3.96459e-06
3.78775e-06
3.62357e-06
3.47073e-06
3.32823e-06
3.19443e-06
7.31105e-07
7.29026e-07
7.25139e-07
7.20623e-07
7.22048e-07
7.23924e-07
7.2551e-07
7.26535e-07
7.26963e-07
7.26855e-07
7.26296e-07
7.25367e-07
7.24127e-07
7.22615e-07
7.20853e-07
7.18859e-07
7.1664e-07
7.14201e-07
7.11565e-07
7.08766e-07
7.0593e-07
7.03095e-07
7.00284e-07
6.97505e-07
6.94757e-07
6.92014e-07
6.89221e-07
6.86288e-07
6.831e-07
6.79574e-07
8.97753e-06
8.37292e-06
7.81636e-06
7.30528e-06
6.83639e-06
6.40624e-06
6.0115e-06
5.649e-06
5.31576e-06
5.00914e-06
4.72671e-06
4.46622e-06
4.22561e-06
4.00294e-06
3.79647e-06
3.60457e-06
3.42583e-06
3.25899e-06
3.10328e-06
7.29032e-07
7.23317e-07
7.17498e-07
7.11575e-07
7.05592e-07
6.99817e-07
6.94188e-07
6.88722e-07
6.83424e-07
6.78294e-07
6.73327e-07
6.68511e-07
6.63826e-07
6.59247e-07
6.54746e-07
6.50298e-07
6.45881e-07
6.41493e-07
6.37146e-07
6.32853e-07
6.28631e-07
6.24506e-07
6.20503e-07
6.16644e-07
6.12937e-07
6.09384e-07
6.05981e-07
6.02714e-07
5.99544e-07
5.96375e-07
5.93044e-07
8.97777e-06
8.37705e-06
7.82493e-06
7.31777e-06
6.85203e-06
6.42406e-06
6.03054e-06
5.66846e-06
5.33501e-06
5.02762e-06
4.74393e-06
4.48179e-06
4.23922e-06
4.01437e-06
3.80559e-06
3.61133e-06
3.43023e-06
3.26108e-06
3.10313e-06
7.286e-07
7.2266e-07
7.16609e-07
7.10479e-07
7.0431e-07
6.98144e-07
6.92023e-07
6.8598e-07
6.80044e-07
6.74229e-07
6.6854e-07
6.62969e-07
6.57499e-07
6.52109e-07
6.46777e-07
6.41487e-07
6.36227e-07
6.30994e-07
6.25801e-07
6.20666e-07
6.15616e-07
6.1068e-07
6.05888e-07
6.01263e-07
5.96818e-07
5.9255e-07
5.8845e-07
5.84511e-07
5.80737e-07
5.771e-07
5.73427e-07
8.97786e-06
8.37724e-06
7.82488e-06
7.31719e-06
6.85081e-06
6.42227e-06
6.0283e-06
5.66587e-06
5.3322e-06
5.02468e-06
4.74095e-06
4.4788e-06
4.23625e-06
4.01143e-06
3.80267e-06
3.60842e-06
3.42733e-06
3.25816e-06
3.10035e-06
7.28156e-07
7.22152e-07
7.16005e-07
7.09786e-07
7.0356e-07
6.9738e-07
6.91286e-07
6.85307e-07
6.79457e-07
6.73741e-07
6.6815e-07
6.62667e-07
6.57266e-07
6.51923e-07
6.4661e-07
6.41307e-07
6.36003e-07
6.30698e-07
6.25404e-07
6.20142e-07
6.14943e-07
6.0984e-07
6.04864e-07
6.00043e-07
5.95395e-07
5.90927e-07
5.8662e-07
5.8245e-07
5.78413e-07
5.74538e-07
5.70723e-07
8.97786e-06
8.37772e-06
7.826e-06
7.31913e-06
6.85367e-06
6.42606e-06
6.03296e-06
5.67129e-06
5.33825e-06
5.03124e-06
4.7479e-06
4.48603e-06
4.24365e-06
4.0189e-06
3.81011e-06
3.61575e-06
3.43447e-06
3.26505e-06
3.10678e-06
7.29134e-07
7.23145e-07
7.17039e-07
7.10852e-07
7.04624e-07
6.98398e-07
6.92217e-07
6.86117e-07
6.80128e-07
6.74265e-07
6.68532e-07
6.6292e-07
6.57409e-07
6.51976e-07
6.46595e-07
6.41244e-07
6.3591e-07
6.30591e-07
6.25293e-07
6.20035e-07
6.14843e-07
6.09746e-07
6.04773e-07
5.99945e-07
5.9528e-07
5.90788e-07
5.86458e-07
5.8226e-07
5.78157e-07
5.74167e-07
5.70253e-07
8.97781e-06
8.37777e-06
7.82618e-06
7.31938e-06
6.8539e-06
6.42623e-06
6.03303e-06
5.67126e-06
5.33812e-06
5.03105e-06
4.74769e-06
4.48586e-06
4.24353e-06
4.01886e-06
3.81017e-06
3.61591e-06
3.43471e-06
3.26536e-06
3.10712e-06
7.29224e-07
7.23263e-07
7.1718e-07
7.11012e-07
7.04801e-07
6.98592e-07
6.9243e-07
6.86356e-07
6.80399e-07
6.74578e-07
6.68895e-07
6.63338e-07
6.57888e-07
6.52516e-07
6.47193e-07
6.41896e-07
6.36607e-07
6.31323e-07
6.2605e-07
6.20804e-07
6.15611e-07
6.10502e-07
6.05504e-07
6.00637e-07
5.95916e-07
5.91351e-07
5.86942e-07
5.8267e-07
5.78495e-07
5.74409e-07
5.7039e-07
8.97782e-06
8.37781e-06
7.82634e-06
7.31967e-06
6.85435e-06
6.42684e-06
6.03383e-06
5.67226e-06
5.33933e-06
5.03247e-06
4.74931e-06
4.48767e-06
4.24553e-06
4.02102e-06
3.81245e-06
3.61828e-06
3.43714e-06
3.26781e-06
3.10957e-06
7.29597e-07
7.23614e-07
7.175e-07
7.11297e-07
7.05051e-07
6.98811e-07
6.92625e-07
6.86533e-07
6.80564e-07
6.74735e-07
6.69049e-07
6.63493e-07
6.58046e-07
6.52681e-07
6.47368e-07
6.42083e-07
6.36807e-07
6.31536e-07
6.26274e-07
6.21039e-07
6.15852e-07
6.10741e-07
6.05736e-07
6.00857e-07
5.96115e-07
5.91511e-07
5.87047e-07
5.82717e-07
5.78488e-07
5.74339e-07
5.70252e-07
8.97783e-06
8.37786e-06
7.82645e-06
7.31987e-06
6.85462e-06
6.42716e-06
6.03418e-06
5.67262e-06
5.33969e-06
5.03283e-06
4.74965e-06
4.48797e-06
4.24579e-06
4.02125e-06
3.81265e-06
3.61844e-06
3.43724e-06
3.26785e-06
3.10969e-06
7.29607e-07
7.23551e-07
7.17324e-07
7.11003e-07
7.04661e-07
6.98363e-07
6.92153e-07
6.86065e-07
6.80118e-07
6.74318e-07
6.68659e-07
6.63127e-07
6.57696e-07
6.52338e-07
6.47029e-07
6.41744e-07
6.36468e-07
6.31197e-07
6.25938e-07
6.20708e-07
6.15529e-07
6.10426e-07
6.05425e-07
6.00549e-07
5.95809e-07
5.91203e-07
5.86724e-07
5.82369e-07
5.78116e-07
5.73939e-07
5.6982e-07
8.97784e-06
8.37791e-06
7.82654e-06
7.32002e-06
6.85484e-06
6.42745e-06
6.03454e-06
5.67305e-06
5.3402e-06
5.03339e-06
4.75028e-06
4.48867e-06
4.24654e-06
4.02202e-06
3.81342e-06
3.61919e-06
3.43796e-06
3.2685e-06
3.11028e-06
7.29684e-07
7.23605e-07
7.17348e-07
7.10991e-07
7.04614e-07
6.98281e-07
6.92043e-07
6.85933e-07
6.7997e-07
6.74161e-07
6.68499e-07
6.62968e-07
6.57544e-07
6.52199e-07
6.46905e-07
6.4164e-07
6.36387e-07
6.3114e-07
6.25904e-07
6.20694e-07
6.15533e-07
6.10441e-07
6.05443e-07
6.00557e-07
5.95797e-07
5.91165e-07
5.86651e-07
5.82246e-07
5.77937e-07
5.73702e-07
5.69524e-07
8.97785e-06
8.37795e-06
7.82661e-06
7.32014e-06
6.855e-06
6.42767e-06
6.03481e-06
5.67338e-06
5.34057e-06
5.03382e-06
4.75074e-06
4.48915e-06
4.24703e-06
4.02252e-06
3.81391e-06
3.61965e-06
3.43836e-06
3.26884e-06
3.11052e-06
7.29711e-07
7.23617e-07
7.17343e-07
7.10972e-07
7.04587e-07
6.98253e-07
6.92022e-07
6.85927e-07
6.79986e-07
6.74202e-07
6.6857e-07
6.63069e-07
6.57676e-07
6.52361e-07
6.47096e-07
6.41855e-07
6.36623e-07
6.31394e-07
6.26169e-07
6.20964e-07
6.15799e-07
6.10694e-07
6.05673e-07
6.00753e-07
5.95944e-07
5.91254e-07
5.86675e-07
5.82197e-07
5.77807e-07
5.7349e-07
5.69232e-07
8.97786e-06
8.37798e-06
7.82666e-06
7.32019e-06
6.85508e-06
6.42775e-06
6.03492e-06
5.67352e-06
5.34073e-06
5.03401e-06
4.75097e-06
4.48941e-06
4.2473e-06
4.02278e-06
3.81414e-06
3.61983e-06
3.43848e-06
3.26887e-06
3.11045e-06
7.29691e-07
7.23594e-07
7.17332e-07
7.10998e-07
7.04677e-07
6.98435e-07
6.92318e-07
6.86349e-07
6.80536e-07
6.74875e-07
6.69351e-07
6.63939e-07
6.58612e-07
6.5334e-07
6.48095e-07
6.42853e-07
6.37603e-07
6.32338e-07
6.27066e-07
6.21801e-07
6.16564e-07
6.11381e-07
6.06271e-07
6.01254e-07
5.96344e-07
5.91544e-07
5.86851e-07
5.82259e-07
5.77757e-07
5.73334e-07
5.68977e-07
8.97786e-06
8.37799e-06
7.82666e-06
7.32017e-06
6.85506e-06
6.42777e-06
6.03498e-06
5.67365e-06
5.34096e-06
5.03433e-06
4.75137e-06
4.4899e-06
4.24786e-06
4.0234e-06
3.81479e-06
3.62049e-06
3.43912e-06
3.26946e-06
3.11098e-06
7.29753e-07
7.23631e-07
7.17343e-07
7.10983e-07
7.0464e-07
6.98381e-07
6.92253e-07
6.8628e-07
6.80473e-07
6.74827e-07
6.69324e-07
6.63941e-07
6.58647e-07
6.53412e-07
6.48206e-07
6.43003e-07
6.37788e-07
6.32554e-07
6.27305e-07
6.22056e-07
6.16823e-07
6.1163e-07
6.06502e-07
6.01451e-07
5.96496e-07
5.91642e-07
5.86886e-07
5.82225e-07
5.77651e-07
5.73156e-07
5.68732e-07
8.97788e-06
8.37799e-06
7.8266e-06
7.32002e-06
6.8548e-06
6.4274e-06
6.03449e-06
5.67303e-06
5.34022e-06
5.03348e-06
4.75042e-06
4.48885e-06
4.24672e-06
4.02217e-06
3.81347e-06
3.61908e-06
3.43762e-06
3.26788e-06
3.10931e-06
7.29489e-07
7.23358e-07
7.17052e-07
7.10667e-07
7.04288e-07
6.97987e-07
6.91812e-07
6.85795e-07
6.7995e-07
6.74276e-07
6.68761e-07
6.63384e-07
6.58113e-07
6.52917e-07
6.47763e-07
6.42623e-07
6.37476e-07
6.32312e-07
6.27131e-07
6.21941e-07
6.16759e-07
6.11601e-07
6.06495e-07
6.01454e-07
5.9649e-07
5.91612e-07
5.86823e-07
5.8212e-07
5.775e-07
5.72958e-07
5.68489e-07
8.97788e-06
8.37792e-06
7.82644e-06
7.31983e-06
6.85466e-06
6.42738e-06
6.03466e-06
5.67344e-06
5.34087e-06
5.03436e-06
4.75152e-06
4.49012e-06
4.24811e-06
4.02363e-06
3.81496e-06
3.62055e-06
3.43903e-06
3.26919e-06
3.11049e-06
7.29633e-07
7.2348e-07
7.17173e-07
7.10798e-07
7.04431e-07
6.98136e-07
6.91955e-07
6.85919e-07
6.80044e-07
6.74334e-07
6.68781e-07
6.63367e-07
6.58065e-07
6.52846e-07
6.47678e-07
6.42532e-07
6.37386e-07
6.3223e-07
6.27059e-07
6.21879e-07
6.16707e-07
6.11557e-07
6.06446e-07
6.01396e-07
5.96418e-07
5.9152e-07
5.86704e-07
5.81973e-07
5.77326e-07
5.72763e-07
5.68282e-07
8.97789e-06
8.37764e-06
7.82556e-06
7.31822e-06
6.85227e-06
6.42422e-06
6.0308e-06
5.66897e-06
5.33592e-06
5.02905e-06
4.74594e-06
4.48436e-06
4.24225e-06
4.01773e-06
3.80905e-06
3.61467e-06
3.43321e-06
3.26346e-06
3.10489e-06
7.2889e-07
7.23005e-07
7.1706e-07
7.11075e-07
7.05066e-07
6.99052e-07
6.93058e-07
6.87113e-07
6.81245e-07
6.75474e-07
6.69814e-07
6.64267e-07
6.58822e-07
6.53463e-07
6.48167e-07
6.42912e-07
6.37678e-07
6.32456e-07
6.27238e-07
6.22031e-07
6.1684e-07
6.11689e-07
6.06588e-07
6.0155e-07
5.96592e-07
5.91723e-07
5.86947e-07
5.82268e-07
5.77689e-07
5.73216e-07
5.68855e-07
8.97789e-06
8.37753e-06
7.82567e-06
7.3189e-06
6.85365e-06
6.4263e-06
6.03348e-06
5.67211e-06
5.33938e-06
5.03268e-06
4.74962e-06
4.48798e-06
4.24572e-06
4.02097e-06
3.81202e-06
3.61733e-06
3.43552e-06
3.2654e-06
3.10646e-06
7.29078e-07
7.23153e-07
7.17189e-07
7.1121e-07
7.05222e-07
6.9924e-07
6.93286e-07
6.87388e-07
6.8157e-07
6.75854e-07
6.70252e-07
6.64769e-07
6.594e-07
6.54128e-07
6.48935e-07
6.438e-07
6.38709e-07
6.33648e-07
6.28612e-07
6.23608e-07
6.18639e-07
6.13722e-07
6.08878e-07
6.04116e-07
5.99452e-07
5.94902e-07
5.90472e-07
5.86177e-07
5.82029e-07
5.78051e-07
5.74265e-07
8.97788e-06
8.37334e-06
7.81691e-06
7.30619e-06
6.83783e-06
6.40834e-06
6.0143e-06
5.65246e-06
5.31985e-06
5.01371e-06
4.73153e-06
4.471e-06
4.23e-06
4.0066e-06
3.79906e-06
3.6058e-06
3.42544e-06
3.25679e-06
3.09935e-06
7.28217e-07
7.22528e-07
7.1676e-07
7.11237e-07
7.05712e-07
7.00246e-07
6.94888e-07
6.89669e-07
6.84603e-07
6.79694e-07
6.7494e-07
6.70334e-07
6.65864e-07
6.61513e-07
6.57268e-07
6.53106e-07
6.49014e-07
6.44981e-07
6.41e-07
6.37071e-07
6.33205e-07
6.29409e-07
6.25697e-07
6.22085e-07
6.18592e-07
6.15232e-07
6.12022e-07
6.08988e-07
6.06158e-07
6.03587e-07
6.0135e-07
8.97961e-06
8.37996e-06
7.83125e-06
7.32865e-06
6.86983e-06
6.45222e-06
6.07152e-06
5.72389e-06
5.4059e-06
5.11447e-06
4.84682e-06
4.60048e-06
4.37324e-06
4.16311e-06
3.96832e-06
3.78732e-06
3.61877e-06
3.46161e-06
3.31503e-06
3.17802e-06
3.1452e-06
7.27937e-07
7.31031e-07
3.08997e-06
3.09191e-06
3.09044e-06
7.31916e-07
7.31237e-07
7.30432e-07
7.29509e-07
7.28468e-07
7.27308e-07
7.26034e-07
7.24655e-07
7.23182e-07
7.21619e-07
7.19974e-07
7.18263e-07
7.16489e-07
7.14667e-07
7.12821e-07
7.1096e-07
7.09104e-07
7.07274e-07
7.05494e-07
7.03792e-07
7.0221e-07
7.00813e-07
6.99709e-07
6.99103e-07
9.32931e-06
9.20438e-06
9.0836e-06
8.96787e-06
8.85615e-06
8.74639e-06
8.63854e-06
8.53267e-06
8.42886e-06
8.32721e-06
8.22778e-06
8.13054e-06
8.03538e-06
7.94207e-06
7.85032e-06
7.75981e-06
7.67023e-06
7.58135e-06
7.4931e-06
7.40544e-06
7.31115e-06
7.19085e-06
7.08073e-06
6.97707e-06
6.87856e-06
6.78499e-06
6.6964e-06
6.61271e-06
6.53354e-06
6.45824e-06
6.386e-06
6.31594e-06
6.24725e-06
6.17925e-06
6.11153e-06
6.04389e-06
5.97626e-06
5.90889e-06
5.84211e-06
5.77617e-06
5.71145e-06
5.64822e-06
5.58657e-06
5.52651e-06
5.46796e-06
5.41071e-06
5.35452e-06
5.29912e-06
5.24416e-06
5.18956e-06
3.64757e-07
2.90357e-07
2.24465e-07
1.8818e-07
1.70289e-07
1.60531e-07
1.53834e-07
1.48478e-07
1.43778e-07
1.39507e-07
1.35568e-07
1.32084e-07
1.29319e-07
1.27495e-07
1.26764e-07
1.27226e-07
1.29523e-07
1.34054e-07
1.42632e-07
1.51685e-07
3.68781e-07
2.92894e-07
2.28114e-07
1.90984e-07
1.72503e-07
1.62533e-07
1.55852e-07
1.50571e-07
1.45933e-07
1.41726e-07
1.37875e-07
1.34463e-07
1.31675e-07
1.29723e-07
1.28745e-07
1.28899e-07
1.30873e-07
1.35133e-07
1.43893e-07
1.53373e-07
3.66368e-07
2.95978e-07
2.32084e-07
1.94001e-07
1.74798e-07
1.64552e-07
1.57826e-07
1.5259e-07
1.48005e-07
1.43832e-07
1.39998e-07
1.36585e-07
1.33739e-07
1.31658e-07
1.30484e-07
1.30427e-07
1.32211e-07
1.36307e-07
1.45208e-07
1.55016e-07
3.71913e-07
3.00317e-07
2.35945e-07
1.96865e-07
1.77016e-07
1.66515e-07
1.59742e-07
1.54553e-07
1.50014e-07
1.45862e-07
1.42015e-07
1.3856e-07
1.35634e-07
1.33425e-07
1.32088e-07
1.31857e-07
1.33532e-07
1.37589e-07
1.46619e-07
1.56714e-07
3.75981e-07
3.04662e-07
2.39768e-07
1.9971e-07
1.79216e-07
1.68448e-07
1.61611e-07
1.56454e-07
1.51947e-07
1.47792e-07
1.43901e-07
1.40373e-07
1.37363e-07
1.35027e-07
1.33525e-07
1.33129e-07
1.34739e-07
1.38866e-07
1.48059e-07
1.58409e-07
3.79441e-07
3.08957e-07
2.43567e-07
2.02541e-07
1.81395e-07
1.70347e-07
1.63431e-07
1.58276e-07
1.53789e-07
1.49612e-07
1.45674e-07
1.42071e-07
1.3896e-07
1.36486e-07
1.34793e-07
1.34222e-07
1.35799e-07
1.40095e-07
1.49514e-07
1.60113e-07
3.82812e-07
3.13173e-07
2.47324e-07
2.05341e-07
1.83545e-07
1.72204e-07
1.6519e-07
1.6002e-07
1.55532e-07
1.51341e-07
1.47358e-07
1.43679e-07
1.40451e-07
1.37825e-07
1.35919e-07
1.35157e-07
1.36723e-07
1.41269e-07
1.50975e-07
1.61826e-07
3.8623e-07
3.17297e-07
2.51008e-07
2.08089e-07
1.85647e-07
1.74015e-07
1.66887e-07
1.61694e-07
1.572e-07
1.52995e-07
1.48964e-07
1.45201e-07
1.41847e-07
1.39055e-07
1.36925e-07
1.35962e-07
1.37538e-07
1.42401e-07
1.52441e-07
1.6354e-07
3.89687e-07
3.21326e-07
2.54587e-07
2.10762e-07
1.87699e-07
1.75778e-07
1.68535e-07
1.63316e-07
1.58806e-07
1.54578e-07
1.50503e-07
1.46652e-07
1.4317e-07
1.40198e-07
1.37829e-07
1.36661e-07
1.38267e-07
1.43501e-07
1.53908e-07
1.65243e-07
3.93132e-07
3.2524e-07
2.58047e-07
2.13356e-07
1.89702e-07
1.77504e-07
1.70159e-07
1.64893e-07
1.60361e-07
1.56101e-07
1.5198e-07
1.48045e-07
1.4443e-07
1.41271e-07
1.38648e-07
1.37269e-07
1.38923e-07
1.4456e-07
1.55355e-07
1.66919e-07
3.96549e-07
3.29035e-07
2.61393e-07
2.15878e-07
1.91661e-07
1.7921e-07
1.71762e-07
1.6644e-07
1.61867e-07
1.57578e-07
1.53411e-07
1.49391e-07
1.45639e-07
1.42284e-07
1.39393e-07
1.37798e-07
1.39508e-07
1.45567e-07
1.5676e-07
1.68551e-07
3.99937e-07
3.32722e-07
2.64626e-07
2.18336e-07
1.93591e-07
1.80906e-07
1.73344e-07
1.67966e-07
1.63346e-07
1.59022e-07
1.54806e-07
1.50695e-07
1.46803e-07
1.43243e-07
1.40072e-07
1.38257e-07
1.40031e-07
1.46518e-07
1.58109e-07
1.70132e-07
4.0332e-07
3.36326e-07
2.67755e-07
2.20726e-07
1.95494e-07
1.82588e-07
1.74917e-07
1.69473e-07
1.64815e-07
1.60448e-07
1.56173e-07
1.51962e-07
1.47925e-07
1.44147e-07
1.40695e-07
1.38661e-07
1.40506e-07
1.47415e-07
1.59394e-07
1.71653e-07
4.06701e-07
3.39832e-07
2.70775e-07
2.23053e-07
1.97374e-07
1.84256e-07
1.76493e-07
1.70988e-07
1.66287e-07
1.61866e-07
1.5752e-07
1.532e-07
1.49009e-07
1.45008e-07
1.41277e-07
1.39035e-07
1.40958e-07
1.48267e-07
1.60612e-07
1.73099e-07
4.10101e-07
3.43252e-07
2.73686e-07
2.25316e-07
1.99234e-07
1.85926e-07
1.78075e-07
1.72518e-07
1.67766e-07
1.63278e-07
1.58848e-07
1.54413e-07
1.50064e-07
1.4584e-07
1.41842e-07
1.39408e-07
1.41409e-07
1.49077e-07
1.61752e-07
1.74456e-07
4.13507e-07
3.46593e-07
2.76494e-07
2.27525e-07
2.01073e-07
1.876e-07
1.7967e-07
1.74062e-07
1.69248e-07
1.64684e-07
1.60162e-07
1.55605e-07
1.51099e-07
1.46657e-07
1.42409e-07
1.39806e-07
1.41879e-07
1.49843e-07
1.62801e-07
1.75712e-07
4.16941e-07
3.49872e-07
2.79198e-07
2.29679e-07
2.02896e-07
1.89275e-07
1.81277e-07
1.75616e-07
1.7073e-07
1.66087e-07
1.61468e-07
1.56787e-07
1.52126e-07
1.47472e-07
1.42999e-07
1.40252e-07
1.42376e-07
1.50561e-07
1.63749e-07
1.76859e-07
4.20415e-07
3.53082e-07
2.81806e-07
2.31773e-07
2.04698e-07
1.9094e-07
1.82886e-07
1.77169e-07
1.72212e-07
1.67491e-07
1.62771e-07
1.57966e-07
1.53153e-07
1.48298e-07
1.4363e-07
1.40764e-07
1.42914e-07
1.51234e-07
1.64594e-07
1.77894e-07
4.23964e-07
3.56238e-07
2.84317e-07
2.33809e-07
2.06475e-07
1.92593e-07
1.8449e-07
1.7872e-07
1.73697e-07
1.68899e-07
1.64078e-07
1.5915e-07
1.5419e-07
1.49152e-07
1.44324e-07
1.41366e-07
1.4351e-07
1.51874e-07
1.65344e-07
1.78821e-07
4.27578e-07
3.59342e-07
2.86727e-07
2.35786e-07
2.08221e-07
1.94238e-07
1.86088e-07
1.80274e-07
1.75193e-07
1.70318e-07
1.65396e-07
1.60349e-07
1.55251e-07
1.50053e-07
1.45106e-07
1.42083e-07
1.44186e-07
1.525e-07
1.66013e-07
1.79644e-07
4.31284e-07
3.62402e-07
2.89039e-07
2.37703e-07
2.09941e-07
1.95874e-07
1.87685e-07
1.81837e-07
1.76701e-07
1.71751e-07
1.6673e-07
1.61572e-07
1.56351e-07
1.51024e-07
1.45999e-07
1.42936e-07
1.44961e-07
1.53131e-07
1.66614e-07
1.80369e-07
4.35113e-07
3.65432e-07
2.9126e-07
2.39563e-07
2.11642e-07
1.975e-07
1.89285e-07
1.83406e-07
1.78218e-07
1.73197e-07
1.68084e-07
1.62829e-07
1.57506e-07
1.52082e-07
1.47019e-07
1.43941e-07
1.45847e-07
1.53783e-07
1.6716e-07
1.81003e-07
4.39097e-07
3.68436e-07
2.93392e-07
2.41369e-07
2.13317e-07
1.99111e-07
1.9088e-07
1.84973e-07
1.79739e-07
1.74655e-07
1.69459e-07
1.64127e-07
1.58725e-07
1.53237e-07
1.48173e-07
1.45098e-07
1.46848e-07
1.54469e-07
1.6767e-07
1.81557e-07
4.43268e-07
3.71414e-07
2.95435e-07
2.43113e-07
2.14944e-07
2.00697e-07
1.92459e-07
1.86531e-07
1.81259e-07
1.76123e-07
1.70861e-07
1.65472e-07
1.60013e-07
1.54492e-07
1.4946e-07
1.46402e-07
1.47962e-07
1.55209e-07
1.68164e-07
1.82049e-07
4.47646e-07
3.74357e-07
2.97384e-07
2.44778e-07
2.1651e-07
2.0225e-07
1.94019e-07
1.88079e-07
1.82779e-07
1.77605e-07
1.72296e-07
1.66869e-07
1.61371e-07
1.55847e-07
1.50874e-07
1.47843e-07
1.49191e-07
1.56023e-07
1.68674e-07
1.82499e-07
4.52245e-07
3.77261e-07
2.99235e-07
2.46343e-07
2.18012e-07
2.0377e-07
1.95561e-07
1.8962e-07
1.84307e-07
1.7911e-07
1.73768e-07
1.68319e-07
1.62799e-07
1.57298e-07
1.52405e-07
1.49413e-07
1.5054e-07
1.56936e-07
1.6923e-07
1.82931e-07
4.5709e-07
3.8014e-07
3.00985e-07
2.47802e-07
2.19451e-07
2.05262e-07
1.97093e-07
1.91164e-07
1.85853e-07
1.80645e-07
1.75282e-07
1.69824e-07
1.64295e-07
1.58841e-07
1.54044e-07
1.51103e-07
1.52012e-07
1.57969e-07
1.69859e-07
1.83364e-07
4.62219e-07
3.83017e-07
3.02626e-07
2.49161e-07
2.20837e-07
2.06732e-07
1.9862e-07
1.92718e-07
1.87421e-07
1.8221e-07
1.76837e-07
1.71381e-07
1.65859e-07
1.60469e-07
1.55784e-07
1.52904e-07
1.53609e-07
1.59136e-07
1.70585e-07
1.8382e-07
4.67678e-07
3.85916e-07
3.04151e-07
2.50424e-07
2.22175e-07
2.08184e-07
2.00145e-07
1.94283e-07
1.8901e-07
1.83803e-07
1.78433e-07
1.72988e-07
1.67485e-07
1.62175e-07
1.57614e-07
1.54804e-07
1.55327e-07
1.60447e-07
1.7143e-07
1.84325e-07
4.73527e-07
3.88839e-07
3.05561e-07
2.51596e-07
2.23464e-07
2.09616e-07
2.0167e-07
1.95858e-07
1.90615e-07
1.85421e-07
1.80066e-07
1.74642e-07
1.6917e-07
1.63952e-07