/*--------------------------------*- C++ -*----------------------------------*\
  =========                 |
  \\      /  F ield         | OpenFOAM: The Open Source CFD Toolbox
   \\    /   O peration     | Website:  https://openfoam.org
    \\  /    A nd           | Version:  8
     \\/     M anipulation  |
\*---------------------------------------------------------------------------*/
FoamFile
{
    version     2.0;
    format      ascii;
    class       volScalarField;
    location    "1000";
    object      k;
}
// * * * * * * * * * * * * * * * * * * * * * * * * * * * * * * * * * * * * * //

dimensions      [0 2 -2 0 0 0 0];

internalField   nonuniform List<scalar> 
8400
(
0.00900128
0.00850741
0.008011
0.00752328
0.00705044
0.00659595
0.00616209
0.00575057
0.0053621
0.0050003
0.00470943
0.00450813
0.00439642
0.00436798
0.00441875
0.00455204
0.00478432
0.00514829
0.00569268
0.00646457
0.00744649
0.00843028
0.00897593
0.0090806
0.00897854
0.00886111
0.00874576
0.0086331
0.00852031
0.00840576
0.00828864
0.00816958
0.00804861
0.00792617
0.00780328
0.00768111
0.00756005
0.00744013
0.00732161
0.00720481
0.00709022
0.00697803
0.0068682
0.00676073
0.00665573
0.0065696
0.0065049
0.0064609
0.00643717
0.00643381
0.00343129
0.00348331
0.00346693
0.00338419
0.00325345
0.00309374
0.00292565
0.00277612
0.00268176
0.00267063
0.00268588
0.00270485
0.00271983
0.00273013
0.00273558
0.00273727
0.00273782
0.00274604
0.00278599
0.00290643
0.00316319
0.00358622
0.00400677
0.00427272
0.0044252
0.00442641
0.00434272
0.00420347
0.00401335
0.00378122
0.00352133
0.00324932
0.00297833
0.00271832
0.00247593
0.00225539
0.00205939
0.00188927
0.00174544
0.00162761
0.00153501
0.0014668
0.00142217
0.00140024
0.00139996
0.00140376
0.00140812
0.0014133
0.00141967
0.0014277
0.0026325
0.00268246
0.00274219
0.00277257
0.0027785
0.00277279
0.00277234
0.00279023
0.00281372
0.00281993
0.00281711
0.00281262
0.00280693
0.00280537
0.0028062
0.00280764
0.00280772
0.00280436
0.00279494
0.00276981
0.00269483
0.00239856
0.0025343
0.00269462
0.00276181
0.00273626
0.00266463
0.00256217
0.00242465
0.00226219
0.0020924
0.00193128
0.00178914
0.00167095
0.00157753
0.00150705
0.00145628
0.00142145
0.00139887
0.00138514
0.00137724
0.00137278
0.00137004
0.00136792
0.00136587
0.00136134
0.00135353
0.00134265
0.001329
0.00131298
0.00299018
0.00296814
0.00294682
0.00293036
0.00292073
0.00291638
0.00291121
0.00290364
0.00289401
0.00288362
0.00287431
0.0028674
0.00286309
0.00286069
0.00285899
0.00285671
0.00285259
0.00284511
0.00283682
0.00282782
0.00280844
0.00270532
0.00254082
0.0022084
0.00209463
0.00204941
0.00200023
0.00194476
0.00186667
0.00177761
0.00169463
0.00162847
0.00158277
0.00155638
0.0015458
0.00154679
0.00155531
0.00156785
0.00158167
0.00159486
0.00160608
0.00161449
0.00161954
0.00162102
0.00161892
0.00161288
0.00160225
0.00158688
0.00156663
0.00154138
0.00299771
0.00299526
0.00299281
0.00299031
0.0029877
0.00298496
0.00298204
0.00297886
0.00297535
0.00297144
0.00296704
0.00296216
0.00295689
0.00295124
0.00294533
0.00293912
0.0029325
0.00292554
0.00291571
0.00290271
0.00288571
0.00284952
0.00275912
0.0025794
0.00241285
0.00227721
0.00197636
0.00172304
0.00168621
0.00164686
0.00162016
0.00161048
0.00161636
0.00163388
0.00165857
0.00168663
0.0017153
0.00174265
0.00176749
0.0017891
0.00180713
0.00182141
0.00183178
0.00183814
0.00184035
0.00183925
0.00183467
0.00182624
0.00181344
0.00179566
0.00299711
0.00299409
0.00299102
0.00298794
0.00298482
0.00298166
0.00297842
0.00297509
0.00297159
0.00296801
0.00296426
0.00296039
0.0029564
0.00295232
0.00294822
0.0029441
0.00293971
0.00293459
0.00292816
0.00291965
0.00290815
0.00288851
0.00284107
0.00274372
0.00261398
0.00245826
0.00220723
0.00188902
0.00163476
0.0016254
0.00163237
0.00165315
0.00168323
0.00171807
0.00175397
0.00178835
0.00181987
0.00184798
0.00187252
0.00189355
0.00191127
0.00192591
0.00193768
0.00194671
0.00195292
0.0019573
0.00196045
0.00196196
0.00196122
0.00195743
0.00299668
0.00299319
0.00298964
0.00298606
0.00298244
0.00297869
0.00297489
0.002971
0.00296704
0.00296293
0.00295875
0.00295451
0.00295019
0.00294591
0.00294173
0.00293732
0.00293307
0.00292887
0.00292436
0.00291887
0.00291139
0.00289909
0.00287075
0.00280949
0.00270977
0.00256457
0.00233357
0.00202011
0.00170533
0.001629
0.00165643
0.00169273
0.00173222
0.00177106
0.00180695
0.00183863
0.00186577
0.00188862
0.00190767
0.00192347
0.00193659
0.00194762
0.00195709
0.00196544
0.00197292
0.00198033
0.00198931
0.00199934
0.0020095
0.00201867
0.00299618
0.00299211
0.002988
0.00298378
0.00297959
0.00297524
0.00297081
0.00296619
0.00296146
0.00295661
0.0029517
0.00294678
0.00294188
0.00293708
0.00293198
0.00292721
0.00292291
0.00291908
0.00291557
0.00291185
0.00290695
0.00289879
0.00287993
0.00283671
0.0027563
0.0026235
0.00240569
0.00209998
0.00177879
0.00164518
0.00167285
0.00171601
0.00175739
0.00179417
0.00182518
0.0018502
0.00186952
0.00188379
0.00189388
0.00190068
0.00190521
0.00190854
0.00191176
0.00191601
0.00192214
0.00193053
0.00194477
0.00196372
0.00198554
0.00200816
0.0029954
0.0029905
0.00298555
0.00298051
0.0029753
0.00297004
0.00296462
0.00295907
0.00295333
0.00294755
0.0029417
0.00293592
0.00293004
0.00292395
0.00291839
0.00291365
0.00290974
0.00290664
0.00290425
0.00290204
0.00289914
0.00289374
0.00288014
0.00284658
0.0027778
0.00265406
0.00244505
0.00214694
0.00183068
0.00166755
0.00167961
0.00172488
0.00176445
0.00179672
0.00182116
0.00183794
0.00184748
0.00185033
0.00184739
0.00183981
0.00182922
0.00181772
0.00180785
0.00180237
0.00180378
0.00181295
0.00183443
0.00186586
0.00190341
0.00194346
0.00299409
0.00298781
0.00298145
0.00297501
0.00296844
0.00296162
0.00295465
0.00294757
0.00294034
0.00293293
0.00292523
0.00291733
0.00290996
0.00290362
0.00289863
0.00289508
0.00289277
0.00289151
0.00289099
0.00289064
0.00288963
0.00288635
0.00287593
0.00284759
0.00278509
0.00266632
0.00246236
0.00217126
0.00186467
0.00168994
0.00168042
0.00172329
0.00176041
0.001788
0.00180654
0.00181614
0.00181694
0.00180882
0.00179177
0.00176601
0.00173304
0.00169614
0.00166078
0.00163392
0.00162241
0.00163205
0.00166959
0.00171894
0.00177703
0.00183924
0.00299169
0.0029826
0.00297352
0.00296442
0.00295505
0.00294528
0.00293525
0.00292471
0.00291394
0.0029031
0.00289295
0.00288424
0.00287742
0.00287309
0.00287133
0.00287146
0.00287281
0.00287489
0.00287703
0.00287878
0.00287957
0.00287788
0.00286922
0.0028432
0.00278305
0.00266554
0.00246352
0.00217912
0.00188556
0.00171016
0.00168277
0.00171518
0.0017486
0.00177328
0.00178882
0.00179523
0.00179236
0.00178022
0.0017589
0.00172865
0.00169122
0.00165015
0.00160912
0.00156005
0.00146312
0.00141432
0.00150516
0.00157021
0.00164537
0.00172924
0.00298505
0.00296868
0.00295315
0.00293784
0.00292215
0.00290581
0.00288758
0.00286863
0.00284884
0.00283093
0.00282093
0.00282055
0.00282839
0.00283676
0.00284299
0.00284896
0.00285474
0.00285991
0.0028642
0.00286763
0.00286981
0.00286902
0.00286075
0.00283458
0.00277342
0.00265392
0.00245173
0.00217484
0.00189774
0.0017285
0.00168771
0.00170664
0.00173354
0.0017547
0.00176793
0.00177295
0.00176967
0.00175817
0.00173867
0.00171161
0.00167851
0.00164229
0.00160572
0.00156791
0.00152799
0.00150475
0.00150568
0.00153621
0.00159642
0.00167846
0.0029314
0.00290617
0.00287945
0.00285409
0.00283195
0.00281522
0.00280309
0.00279541
0.00279198
0.00279218
0.00279555
0.00280214
0.002811
0.00281972
0.00282762
0.00283521
0.00284219
0.00284832
0.00285342
0.00285739
0.00285959
0.00285808
0.00284828
0.0028202
0.00275743
0.00263416
0.0024287
0.00216169
0.00190517
0.00174676
0.00169625
0.00170064
0.00171816
0.00173393
0.00174412
0.00174788
0.00174505
0.00173575
0.00172038
0.00169958
0.00167467
0.00164774
0.00162096
0.0015958
0.00157463
0.00156119
0.00156039
0.00158086
0.00162708
0.00169592
0.0028475
0.00282661
0.00280779
0.0027937
0.00278442
0.00277936
0.00277761
0.00277847
0.00278155
0.00278607
0.00279175
0.00279842
0.00280566
0.00281301
0.00282018
0.00282708
0.00283346
0.0028391
0.0028437
0.00284676
0.00284724
0.00284285
0.00282877
0.0027956
0.00272842
0.00260487
0.00240539
0.00214249
0.00191131
0.00176744
0.00171063
0.00170104
0.00170728
0.00171566
0.00172142
0.00172307
0.00172015
0.00171274
0.00170124
0.00168631
0.00166893
0.00165048
0.00163244
0.00161619
0.00160361
0.00159816
0.00160601
0.00163323
0.00168119
0.00174627
0.00278759
0.00277899
0.00277273
0.00276939
0.00276867
0.00276982
0.00277251
0.0027763
0.00278091
0.0027861
0.00279167
0.00279751
0.00280348
0.00280946
0.00281529
0.00282076
0.00282561
0.00282956
0.00283216
0.00283267
0.00282963
0.00282031
0.00279981
0.0027596
0.00268688
0.00256431
0.00237728
0.00212754
0.00191969
0.00179329
0.00173407
0.00171304
0.00170814
0.00170826
0.00170866
0.00170745
0.00170393
0.00169799
0.00168996
0.00168038
0.00167003
0.00165991
0.00165117
0.00164513
0.00164373
0.00165124
0.00167292
0.00171117
0.00176428
0.00182803
0.00276353
0.0027628
0.00276324
0.00276488
0.00276732
0.00277051
0.00277416
0.00277817
0.00278241
0.00278678
0.00279124
0.00279572
0.00280011
0.00280432
0.00280823
0.00281156
0.00281402
0.00281524
0.00281458
0.00281101
0.00280287
0.00278727
0.00275954
0.00271242
0.00263572
0.0025169
0.00234602
0.00211826
0.00193321
0.00182709
0.00177036
0.0017428
0.00172986
0.00172352
0.00171976
0.00171676
0.00171374
0.00171052
0.00170729
0.00170452
0.00170285
0.0017031
0.00170623
0.00171343
0.00172653
0.00174926
0.00178369
0.00182924
0.00188317
0.00194201
0.00275854
0.00276048
0.00276274
0.00276532
0.00276807
0.00277091
0.00277385
0.00277681
0.00277972
0.00278258
0.00278534
0.0027879
0.00279021
0.00279213
0.00279346
0.00279391
0.00279314
0.00279067
0.00278575
0.00277718
0.00276323
0.0027412
0.00270706
0.00265506
0.00257772
0.00246662
0.00231538
0.00211394
0.00195441
0.00187121
0.00182288
0.00179578
0.00178093
0.00177305
0.00176926
0.00176808
0.00176883
0.00177131
0.00177561
0.00178203
0.001791
0.00180306
0.00181882
0.001839
0.00186461
0.00189753
0.00193722
0.00198226
0.00203077
0.00208088
0.00275434
0.00275616
0.0027579
0.00275957
0.00276117
0.00276264
0.002764
0.00276518
0.00276617
0.00276695
0.00276746
0.0027676
0.00276726
0.00276628
0.00276443
0.00276142
0.00275686
0.00275015
0.0027405
0.00272678
0.00270736
0.00268001
0.00264167
0.0025883
0.00251486
0.00241604
0.00228734
0.00211332
0.00198523
0.00192717
0.0018934
0.00187458
0.00186537
0.00186259
0.00186438
0.00186967
0.00187787
0.00188872
0.00190211
0.00191809
0.00193675
0.00195823
0.00198268
0.00201019
0.00204106
0.00207524
0.00211262
0.00215295
0.00219593
0.00224099
0.00273929
0.00273966
0.00273974
0.00273954
0.00273911
0.00273842
0.00273744
0.00273616
0.00273456
0.00273258
0.00273013
0.00272713
0.00272346
0.00271893
0.00271331
0.00270628
0.00269747
0.00268631
0.00267209
0.00265387
0.0026304
0.00260007
0.0025609
0.00251052
0.00244605
0.00236421
0.00226094
0.00211376
0.00202673
0.0019952
0.00198079
0.00197663
0.00197943
0.00198724
0.00199885
0.00201343
0.00203042
0.00204945
0.00207026
0.00209265
0.00211647
0.00214157
0.00216785
0.00219558
0.00222861
0.00227028
0.00232076
0.00237934
0.00244455
0.00251373
0.00424466
0.00417251
0.00410168
0.00403051
0.0039586
0.00388572
0.00381185
0.00373714
0.00366178
0.00358607
0.00351034
0.0034349
0.00336005
0.003286
0.00321297
0.00314099
0.00307001
0.0029998
0.00292996
0.00285989
0.00278885
0.00271595
0.00264038
0.0025617
0.00247982
0.00239429
0.00230099
0.00216001
0.0021476
0.00217564
0.00221997
0.00227475
0.00233742
0.00240661
0.00248154
0.00256179
0.00264712
0.00273748
0.00283294
0.00293371
0.00304016
0.00315286
0.00327245
0.00339911
0.00352908
0.00365832
0.00378665
0.0039139
0.00403987
0.00416438
2.38373e-05
2.35981e-05
2.33744e-05
2.31678e-05
2.29693e-05
2.27749e-05
2.25825e-05
2.23924e-05
2.22044e-05
2.20184e-05
2.18345e-05
2.16531e-05
2.14743e-05
2.1298e-05
2.1124e-05
2.09517e-05
2.07809e-05
2.06115e-05
2.04434e-05
2.0277e-05
2.01092e-05
1.99001e-05
1.97043e-05
1.95184e-05
1.93292e-05
1.91452e-05
1.897e-05
1.8805e-05
1.86499e-05
1.85034e-05
1.83641e-05
1.82303e-05
1.81004e-05
1.79729e-05
1.78467e-05
1.77214e-05
1.75971e-05
1.74742e-05
1.73534e-05
1.72355e-05
1.71209e-05
1.70102e-05
1.69035e-05
1.68011e-05
1.67028e-05
1.66081e-05
1.6516e-05
1.64256e-05
1.63353e-05
1.62422e-05
2.32209e-05
2.21349e-05
2.11362e-05
2.0213e-05
1.93559e-05
1.8559e-05
1.78176e-05
1.71267e-05
1.64821e-05
1.58803e-05
1.53183e-05
1.47928e-05
1.43012e-05
1.38406e-05
1.34086e-05
1.30027e-05
1.26203e-05
1.22591e-05
1.19173e-05
1.1595e-05
1.14863e-05
1.14421e-05
1.13936e-05
1.13378e-05
1.13039e-05
1.12868e-05
1.12798e-05
1.12769e-05
1.1274e-05
1.12687e-05
1.12597e-05
1.12468e-05
1.12297e-05
1.1209e-05
1.1185e-05
1.11578e-05
1.11271e-05
1.10933e-05
1.10563e-05
1.10165e-05
1.09746e-05
1.09313e-05
1.08872e-05
1.08426e-05
1.07979e-05
1.0753e-05
1.07069e-05
1.06575e-05
1.06015e-05
1.05376e-05
2.32203e-05
2.21302e-05
2.11213e-05
2.01856e-05
1.9313e-05
1.84975e-05
1.77337e-05
1.70171e-05
1.63442e-05
1.57118e-05
1.51169e-05
1.4557e-05
1.40295e-05
1.35321e-05
1.30626e-05
1.26186e-05
1.21984e-05
1.17998e-05
1.14219e-05
1.1327e-05
1.1236e-05
1.11481e-05
1.10601e-05
1.09716e-05
1.08841e-05
1.07981e-05
1.0714e-05
1.0632e-05
1.05522e-05
1.04747e-05
1.03992e-05
1.03258e-05
1.02541e-05
1.0184e-05
1.0115e-05
1.0047e-05
9.97983e-06
9.91332e-06
9.84749e-06
9.78241e-06
9.71825e-06
9.65526e-06
9.59368e-06
9.53375e-06
9.47572e-06
9.42009e-06
9.36753e-06
9.31798e-06
9.26852e-06
9.21165e-06
2.32209e-05
2.21386e-05
2.11388e-05
2.0211e-05
1.93448e-05
1.85337e-05
1.77729e-05
1.70581e-05
1.63858e-05
1.57529e-05
1.51567e-05
1.45945e-05
1.4064e-05
1.3563e-05
1.30893e-05
1.26408e-05
1.22157e-05
1.18122e-05
1.14295e-05
1.13285e-05
1.12323e-05
1.11377e-05
1.10437e-05
1.09501e-05
1.08565e-05
1.07634e-05
1.06708e-05
1.05793e-05
1.0489e-05
1.04002e-05
1.03129e-05
1.02273e-05
1.01431e-05
1.00602e-05
9.97841e-06
9.8975e-06
9.81732e-06
9.73782e-06
9.65908e-06
9.58128e-06
9.50465e-06
9.42952e-06
9.35619e-06
9.28483e-06
9.2154e-06
9.14778e-06
9.08245e-06
9.02101e-06
8.96434e-06
8.90592e-06
2.32212e-05
2.2139e-05
2.11388e-05
2.02102e-05
1.93428e-05
1.85306e-05
1.77687e-05
1.70531e-05
1.63802e-05
1.57469e-05
1.51504e-05
1.45881e-05
1.40576e-05
1.35565e-05
1.30828e-05
1.26343e-05
1.22092e-05
1.18057e-05
1.14231e-05
1.13224e-05
1.12259e-05
1.11306e-05
1.10357e-05
1.09411e-05
1.08468e-05
1.07532e-05
1.06605e-05
1.05692e-05
1.04793e-05
1.03911e-05
1.03046e-05
1.02196e-05
1.0136e-05
1.00534e-05
9.97161e-06
9.89037e-06
9.80951e-06
9.72895e-06
9.64876e-06
9.56915e-06
9.4904e-06
9.41287e-06
9.33701e-06
9.26326e-06
9.1918e-06
9.12226e-06
9.054e-06
8.9875e-06
8.92527e-06
8.86451e-06
2.32214e-05
2.21399e-05
2.11407e-05
2.02136e-05
1.93481e-05
1.85378e-05
1.77776e-05
1.70635e-05
1.6392e-05
1.57599e-05
1.51644e-05
1.46029e-05
1.4073e-05
1.35724e-05
1.30989e-05
1.26505e-05
1.22253e-05
1.18216e-05
1.14386e-05
1.13372e-05
1.12404e-05
1.11451e-05
1.10503e-05
1.09557e-05
1.08613e-05
1.07671e-05
1.06735e-05
1.05809e-05
1.04896e-05
1.03997e-05
1.03115e-05
1.02249e-05
1.01397e-05
1.00559e-05
9.973e-06
9.8909e-06
9.80939e-06
9.7284e-06
9.64795e-06
9.56817e-06
9.48929e-06
9.41159e-06
9.33535e-06
9.26101e-06
9.18904e-06
9.11962e-06
9.05202e-06
8.98533e-06
8.92111e-06
8.8588e-06
2.32214e-05
2.21401e-05
2.11411e-05
2.0214e-05
1.93485e-05
1.8538e-05
1.77776e-05
1.70632e-05
1.63914e-05
1.57591e-05
1.51634e-05
1.46018e-05
1.40719e-05
1.35713e-05
1.3098e-05
1.26498e-05
1.22249e-05
1.18214e-05
1.14386e-05
1.13379e-05
1.12416e-05
1.11468e-05
1.10525e-05
1.09582e-05
1.08641e-05
1.07702e-05
1.06769e-05
1.05846e-05
1.04937e-05
1.04043e-05
1.03167e-05
1.02308e-05
1.01463e-05
1.00632e-05
9.98106e-06
9.89964e-06
9.81874e-06
9.73827e-06
9.65821e-06
9.57871e-06
9.49999e-06
9.42234e-06
9.34598e-06
9.2711e-06
9.19805e-06
9.12737e-06
9.05901e-06
8.99193e-06
8.92645e-06
8.86257e-06
2.32213e-05
2.21403e-05
2.11416e-05
2.02147e-05
1.93494e-05
1.85392e-05
1.77792e-05
1.70652e-05
1.63938e-05
1.57618e-05
1.51666e-05
1.46054e-05
1.40759e-05
1.35757e-05
1.31027e-05
1.26549e-05
1.22302e-05
1.18269e-05
1.14442e-05
1.13434e-05
1.1247e-05
1.11519e-05
1.10572e-05
1.09626e-05
1.0868e-05
1.07737e-05
1.06801e-05
1.05875e-05
1.04964e-05
1.04069e-05
1.03192e-05
1.02332e-05
1.01488e-05
1.00657e-05
9.98365e-06
9.90236e-06
9.8216e-06
9.74126e-06
9.66131e-06
9.58188e-06
9.50316e-06
9.4255e-06
9.34918e-06
9.27431e-06
9.20097e-06
9.12947e-06
9.06021e-06
8.99258e-06
8.9264e-06
8.86153e-06
2.32213e-05
2.21403e-05
2.11418e-05
2.02151e-05
1.93499e-05
1.85398e-05
1.77798e-05
1.70658e-05
1.63944e-05
1.57624e-05
1.51671e-05
1.46058e-05
1.40762e-05
1.35759e-05
1.31028e-05
1.26549e-05
1.22301e-05
1.18267e-05
1.14441e-05
1.13434e-05
1.12467e-05
1.11509e-05
1.10552e-05
1.09594e-05
1.08638e-05
1.07687e-05
1.06745e-05
1.05817e-05
1.04906e-05
1.04012e-05
1.03137e-05
1.02279e-05
1.01436e-05
1.00607e-05
9.97872e-06
9.89749e-06
9.81678e-06
9.73647e-06
9.65658e-06
9.57721e-06
9.49853e-06
9.42085e-06
9.34449e-06
9.26971e-06
9.19654e-06
9.12495e-06
9.05528e-06
8.98733e-06
8.92084e-06
8.85555e-06
2.32213e-05
2.21404e-05
2.1142e-05
2.02154e-05
1.93503e-05
1.85403e-05
1.77804e-05
1.70666e-05
1.63952e-05
1.57634e-05
1.51681e-05
1.4607e-05
1.40775e-05
1.35773e-05
1.31043e-05
1.26563e-05
1.22316e-05
1.18281e-05
1.14454e-05
1.13447e-05
1.12478e-05
1.11517e-05
1.10556e-05
1.09594e-05
1.08633e-05
1.07678e-05
1.06732e-05
1.05801e-05
1.04887e-05
1.03991e-05
1.03115e-05
1.02257e-05
1.01415e-05
1.00586e-05
9.97683e-06
9.89582e-06
9.81537e-06
9.73533e-06
9.65573e-06
9.57665e-06
9.49822e-06
9.42068e-06
9.3443e-06
9.26934e-06
9.196e-06
9.12417e-06
9.05394e-06
8.9853e-06
8.91805e-06
8.85195e-06
2.32214e-05
2.21405e-05
2.11421e-05
2.02156e-05
1.93506e-05
1.85406e-05
1.77808e-05
1.7067e-05
1.63958e-05
1.5764e-05
1.51688e-05
1.46077e-05
1.40782e-05
1.35781e-05
1.31051e-05
1.26571e-05
1.22323e-05
1.18288e-05
1.1446e-05
1.13451e-05
1.12481e-05
1.11519e-05
1.10556e-05
1.09592e-05
1.08631e-05
1.07675e-05
1.06731e-05
1.05802e-05
1.0489e-05
1.03998e-05
1.03126e-05
1.02272e-05
1.01434e-05
1.0061e-05
9.97959e-06
9.89895e-06
9.81882e-06
9.73904e-06
9.6596e-06
9.58058e-06
9.50215e-06
9.42446e-06
9.34778e-06
9.27234e-06
9.19833e-06
9.12578e-06
9.05466e-06
8.98496e-06
8.91657e-06
8.84927e-06
2.32214e-05
2.21407e-05
2.11423e-05
2.02157e-05
1.93507e-05
1.85407e-05
1.77809e-05
1.70672e-05
1.63959e-05
1.57641e-05
1.5169e-05
1.46079e-05
1.40784e-05
1.35782e-05
1.31052e-05
1.26572e-05
1.22323e-05
1.18287e-05
1.14457e-05
1.13448e-05
1.12478e-05
1.11516e-05
1.10555e-05
1.09596e-05
1.08641e-05
1.07696e-05
1.06765e-05
1.0585e-05
1.04955e-05
1.04078e-05
1.0322e-05
1.0238e-05
1.01553e-05
1.00737e-05
9.99284e-06
9.91247e-06
9.83237e-06
9.75238e-06
9.6725e-06
9.59283e-06
9.51358e-06
9.43494e-06
9.35711e-06
9.28038e-06
9.20493e-06
9.13085e-06
9.05813e-06
8.98677e-06
8.9167e-06
8.84777e-06
2.32214e-05
2.21407e-05
2.11423e-05
2.02157e-05
1.93506e-05
1.85407e-05
1.77809e-05
1.70673e-05
1.63961e-05
1.57645e-05
1.51695e-05
1.46086e-05
1.40793e-05
1.35793e-05
1.31064e-05
1.26585e-05
1.22336e-05
1.183e-05
1.1447e-05
1.13459e-05
1.12487e-05
1.11521e-05
1.10557e-05
1.09595e-05
1.08638e-05
1.0769e-05
1.06757e-05
1.05842e-05
1.04947e-05
1.04072e-05
1.03217e-05
1.02379e-05
1.01556e-05
1.00745e-05
9.99417e-06
9.9143e-06
9.83467e-06
9.75512e-06
9.67558e-06
9.59616e-06
9.51696e-06
9.4383e-06
9.36029e-06
9.28314e-06
9.20713e-06
9.13235e-06
9.05879e-06
8.9865e-06
8.91541e-06
8.84542e-06
2.32215e-05
2.21408e-05
2.11422e-05
2.02155e-05
1.93501e-05
1.85399e-05
1.77799e-05
1.70659e-05
1.63944e-05
1.57625e-05
1.51672e-05
1.4606e-05
1.40764e-05
1.35762e-05
1.31031e-05
1.2655e-05
1.223e-05
1.18262e-05
1.1443e-05
1.1342e-05
1.12447e-05
1.11481e-05
1.10515e-05
1.0955e-05
1.08589e-05
1.07637e-05
1.06699e-05
1.05778e-05
1.04878e-05
1.03999e-05
1.03142e-05
1.02304e-05
1.01483e-05
1.00675e-05
9.98769e-06
9.9085e-06
9.82966e-06
9.75094e-06
9.67224e-06
9.59362e-06
9.5151e-06
9.4369e-06
9.3593e-06
9.28237e-06
9.20632e-06
9.13131e-06
9.05737e-06
8.98456e-06
8.91288e-06
8.84226e-06
2.32215e-05
2.21407e-05
2.1142e-05
2.02151e-05
1.93498e-05
1.85398e-05
1.77801e-05
1.70665e-05
1.63955e-05
1.57641e-05
1.51692e-05
1.46085e-05
1.40793e-05
1.35793e-05
1.31064e-05
1.26584e-05
1.22333e-05
1.18295e-05
1.14461e-05
1.13445e-05
1.12468e-05
1.115e-05
1.10533e-05
1.09569e-05
1.08609e-05
1.07658e-05
1.0672e-05
1.05798e-05
1.04895e-05
1.04013e-05
1.03151e-05
1.02308e-05
1.01482e-05
1.0067e-05
9.98693e-06
9.90752e-06
9.82854e-06
9.74976e-06
9.67109e-06
9.59249e-06
9.51407e-06
9.4359e-06
9.35821e-06
9.2812e-06
9.20499e-06
9.12974e-06
9.05552e-06
8.98239e-06
8.91039e-06
8.83953e-06
2.32215e-05
2.21402e-05
2.11404e-05
2.02121e-05
1.93453e-05
1.85336e-05
1.77724e-05
1.70574e-05
1.63852e-05
1.57527e-05
1.51571e-05
1.45957e-05
1.4066e-05
1.35658e-05
1.30927e-05
1.26446e-05
1.22195e-05
1.18157e-05
1.14325e-05
1.13319e-05
1.12362e-05
1.11423e-05
1.10496e-05
1.09574e-05
1.08657e-05
1.07743e-05
1.06833e-05
1.05931e-05
1.05039e-05
1.04158e-05
1.03291e-05
1.02438e-05
1.01599e-05
1.00773e-05
9.99567e-06
9.91488e-06
9.83468e-06
9.75488e-06
9.67544e-06
9.59626e-06
9.51745e-06
9.4392e-06
9.36155e-06
9.28469e-06
9.20883e-06
9.13407e-06
9.06055e-06
8.98836e-06
8.91765e-06
8.84847e-06
2.32215e-05
2.21401e-05
2.11406e-05
2.02134e-05
1.93479e-05
1.85376e-05
1.77776e-05
1.70636e-05
1.63921e-05
1.57601e-05
1.51647e-05
1.46033e-05
1.40735e-05
1.3573e-05
1.30994e-05
1.26508e-05
1.22252e-05
1.18207e-05
1.14367e-05
1.13352e-05
1.12386e-05
1.11443e-05
1.10513e-05
1.09593e-05
1.08679e-05
1.07771e-05
1.0687e-05
1.05977e-05
1.05094e-05
1.04225e-05
1.03369e-05
1.0253e-05
1.01705e-05
1.00894e-05
1.00096e-05
9.93085e-06
9.85296e-06
9.77578e-06
9.69921e-06
9.62331e-06
9.54798e-06
9.4735e-06
9.40001e-06
9.32764e-06
9.25666e-06
9.18721e-06
9.11955e-06
9.05389e-06
8.99059e-06
8.93007e-06
2.32215e-05
2.21325e-05
2.11244e-05
2.01894e-05
1.93175e-05
1.85024e-05
1.77392e-05
1.70234e-05
1.63513e-05
1.57195e-05
1.51252e-05
1.45654e-05
1.40377e-05
1.35396e-05
1.30687e-05
1.26229e-05
1.22003e-05
1.17989e-05
1.14182e-05
1.13207e-05
1.12278e-05
1.11375e-05
1.10503e-05
1.09637e-05
1.08797e-05
1.07976e-05
1.07195e-05
1.06425e-05
1.0567e-05
1.04933e-05
1.04214e-05
1.03513e-05
1.02831e-05
1.02166e-05
1.01517e-05
1.00881e-05
1.00258e-05
9.96454e-06
9.90421e-06
9.84487e-06
9.78655e-06
9.72931e-06
9.67334e-06
9.61884e-06
9.56608e-06
9.51536e-06
9.46706e-06
9.42165e-06
9.37988e-06
9.34292e-06
2.32246e-05
2.21443e-05
2.11504e-05
2.02307e-05
1.93764e-05
1.85822e-05
1.78429e-05
1.71546e-05
1.65128e-05
1.59134e-05
1.53525e-05
1.4827e-05
1.43338e-05
1.38701e-05
1.34333e-05
1.30211e-05
1.26312e-05
1.22617e-05
1.19125e-05
1.15818e-05
1.13844e-05
1.13312e-05
1.13441e-05
1.11839e-05
1.10793e-05
1.10099e-05
1.11267e-05
1.11984e-05
1.12398e-05
1.12609e-05
1.1268e-05
1.12652e-05
1.12554e-05
1.12403e-05
1.12215e-05
1.11999e-05
1.11762e-05
1.1151e-05
1.11244e-05
1.10968e-05
1.10684e-05
1.10396e-05
1.10105e-05
1.09817e-05
1.09533e-05
1.09259e-05
1.09001e-05
1.08768e-05
1.08577e-05
1.08455e-05
2.38239e-05
2.35944e-05
2.33797e-05
2.31762e-05
2.2981e-05
2.27908e-05
2.26037e-05
2.24184e-05
2.22349e-05
2.20537e-05
2.18753e-05
2.16997e-05
2.15271e-05
2.13571e-05
2.11894e-05
2.10236e-05
2.08594e-05
2.06962e-05
2.05326e-05
2.03708e-05
2.01677e-05
2.00048e-05
1.97935e-05
1.95925e-05
1.94018e-05
1.9221e-05
1.90509e-05
1.88897e-05
1.87359e-05
1.85879e-05
1.84447e-05
1.8305e-05
1.81681e-05
1.80329e-05
1.78989e-05
1.77656e-05
1.76331e-05
1.75015e-05
1.73713e-05
1.72432e-05
1.71173e-05
1.69941e-05
1.68738e-05
1.67561e-05
1.6641e-05
1.65281e-05
1.6417e-05
1.63072e-05
1.61981e-05
1.60883e-05
5.70227e-06
4.58617e-06
3.59872e-06
3.01055e-06
2.7143e-06
2.55587e-06
2.45214e-06
2.3718e-06
2.30155e-06
2.23762e-06
2.17858e-06
2.12594e-06
2.08247e-06
2.05084e-06
2.03306e-06
2.03252e-06
2.062e-06
2.12997e-06
2.26863e-06
2.41049e-06
5.74972e-06
4.65609e-06
3.66118e-06
3.05769e-06
2.75059e-06
2.58833e-06
2.48372e-06
2.40413e-06
2.33469e-06
2.27096e-06
2.2119e-06
2.15881e-06
2.11388e-06
2.07972e-06
2.05816e-06
2.05361e-06
2.08009e-06
2.14652e-06
2.28834e-06
2.43239e-06
5.81697e-06
4.72024e-06
3.71794e-06
3.09934e-06
2.78204e-06
2.6155e-06
2.50977e-06
2.43032e-06
2.36096e-06
2.29705e-06
2.23736e-06
2.18306e-06
2.13624e-06
2.0994e-06
2.07453e-06
2.06704e-06
2.09234e-06
2.15989e-06
2.30509e-06
2.45338e-06
5.86909e-06
4.7834e-06
3.77488e-06
3.14159e-06
2.81403e-06
2.64319e-06
2.53618e-06
2.45665e-06
2.38745e-06
2.32332e-06
2.26284e-06
2.20723e-06
2.15849e-06
2.11918e-06
2.09115e-06
2.08067e-06
2.10479e-06
2.17417e-06
2.32292e-06
2.47756e-06
5.9195e-06
4.844e-06
3.82991e-06
3.18235e-06
2.8447e-06
2.66933e-06
2.56094e-06
2.48103e-06
2.41173e-06
2.34713e-06
2.28575e-06
2.22875e-06
2.17823e-06
2.13664e-06
2.10577e-06
2.09272e-06
2.11637e-06
2.18846e-06
2.34074e-06
2.5011e-06
5.96908e-06
4.90162e-06
3.88256e-06
3.22131e-06
2.874e-06
2.69408e-06
2.58408e-06
2.50364e-06
2.43417e-06
2.36906e-06
2.30677e-06
2.24829e-06
2.19585e-06
2.15157e-06
2.11738e-06
2.10148e-06
2.1253e-06
2.20162e-06
2.35831e-06
2.52426e-06
6.01759e-06
4.95635e-06
3.9329e-06
3.25853e-06
2.90198e-06
2.71763e-06
2.60584e-06
2.52484e-06
2.45491e-06
2.38931e-06
2.32631e-06
2.26665e-06
2.21245e-06
2.16542e-06
2.12748e-06
2.1081e-06
2.13191e-06
2.21323e-06
2.37524e-06
2.54705e-06
6.06507e-06
5.00848e-06
3.98082e-06
3.29412e-06
2.92863e-06
2.74018e-06
2.62665e-06
2.54492e-06
2.47443e-06
2.40829e-06
2.34448e-06
2.28352e-06
2.22745e-06
2.17782e-06
2.13615e-06
2.11325e-06
2.13705e-06
2.22374e-06
2.39153e-06
2.56942e-06
6.11158e-06
5.05834e-06
4.02647e-06
3.3281e-06
2.95409e-06
2.76198e-06
2.64673e-06
2.56423e-06
2.49326e-06
2.42665e-06
2.36204e-06
2.29964e-06
2.24135e-06
2.18879e-06
2.14326e-06
2.11703e-06
2.14116e-06
2.23354e-06
2.40729e-06
2.59124e-06
6.15753e-06
5.10628e-06
4.06996e-06
3.3606e-06
2.97887e-06
2.78336e-06
2.66643e-06
2.58303e-06
2.51156e-06
2.44453e-06
2.37907e-06
2.31522e-06
2.25467e-06
2.19884e-06
2.14923e-06
2.11972e-06
2.14448e-06
2.24274e-06
2.42245e-06
2.61235e-06
6.20312e-06
5.15265e-06
4.11153e-06
3.39192e-06
3.00322e-06
2.80466e-06
2.68621e-06
2.60192e-06
2.52971e-06
2.46199e-06
2.39558e-06
2.33022e-06
2.26747e-06
2.20837e-06
2.15459e-06
2.1218e-06
2.14732e-06
2.25134e-06
2.43683e-06
2.63259e-06
6.24866e-06
5.19789e-06
4.15166e-06
3.42252e-06
3.02751e-06
2.82595e-06
2.70616e-06
2.62103e-06
2.54814e-06
2.47947e-06
2.41189e-06
2.34486e-06
2.27985e-06
2.21753e-06
2.15968e-06
2.12374e-06
2.15001e-06
2.25941e-06
2.45032e-06
2.65184e-06
6.29454e-06
5.24247e-06
4.19062e-06
3.45255e-06
3.05181e-06
2.84744e-06
2.72645e-06
2.64041e-06
2.56677e-06
2.49713e-06
2.42831e-06
2.35945e-06
2.29206e-06
2.22651e-06
2.16476e-06
2.12589e-06
2.15291e-06
2.26707e-06
2.4629e-06
2.67005e-06
6.34138e-06
5.28678e-06
4.22867e-06
3.48222e-06
3.07622e-06
2.86932e-06
2.74714e-06
2.66033e-06
2.58578e-06
2.51515e-06
2.445e-06
2.37428e-06
2.30445e-06
2.23566e-06
2.17023e-06
2.12871e-06
2.15639e-06
2.27454e-06
2.47461e-06
2.68713e-06
6.38955e-06
5.33104e-06
4.26568e-06
3.51139e-06
3.10069e-06
2.89167e-06
2.76839e-06
2.68089e-06
2.6054e-06
2.53362e-06
2.46201e-06
2.38944e-06
2.31724e-06
2.24534e-06
2.17655e-06
2.13269e-06
2.16084e-06
2.282e-06
2.48553e-06
2.70301e-06
6.4392e-06
5.37544e-06
4.30199e-06
3.5403e-06
3.12543e-06
2.91446e-06
2.79036e-06
2.70216e-06
2.62568e-06
2.55263e-06
2.47945e-06
2.40507e-06
2.33062e-06
2.25581e-06
2.18412e-06
2.13831e-06
2.16664e-06
2.28964e-06
2.49568e-06
2.71761e-06
6.4907e-06
5.42012e-06
4.33772e-06
3.569e-06
3.15056e-06
2.93783e-06
2.81303e-06
2.72409e-06
2.64656e-06
2.57224e-06
2.49754e-06
2.42138e-06
2.34481e-06
2.26737e-06
2.19326e-06
2.1459e-06
2.17404e-06
2.29757e-06
2.50507e-06
2.73086e-06
6.54439e-06
5.46531e-06
4.37297e-06
3.59766e-06
3.17603e-06
2.96174e-06
2.83626e-06
2.74654e-06
2.66795e-06
2.59248e-06
2.51634e-06
2.43852e-06
2.36001e-06
2.28026e-06
2.20423e-06
2.15573e-06
2.18322e-06
2.30594e-06
2.51378e-06
2.74281e-06
6.60088e-06
5.5116e-06
4.40778e-06
3.62627e-06
3.20181e-06
2.98612e-06
2.85999e-06
2.76953e-06
2.68999e-06
2.61345e-06
2.53598e-06
2.45661e-06
2.37636e-06
2.29463e-06
2.21723e-06
2.16798e-06
2.19434e-06
2.31494e-06
2.52204e-06
2.7536e-06
6.66033e-06
5.55887e-06
4.44214e-06
3.6547e-06
3.22776e-06
3.01086e-06
2.88416e-06
2.79313e-06
2.71282e-06
2.6353e-06
2.55657e-06
2.47576e-06
2.39394e-06
2.31062e-06
2.23243e-06
2.18284e-06
2.20758e-06
2.32488e-06
2.53018e-06
2.76344e-06
6.72351e-06
5.60704e-06
4.47599e-06
3.68288e-06
3.25378e-06
3.0359e-06
2.90883e-06
2.81743e-06
2.7365e-06
2.65805e-06
2.57812e-06
2.49603e-06
2.41284e-06
2.32838e-06
2.24998e-06
2.20041e-06
2.22311e-06
2.33611e-06
2.53857e-06
2.77253e-06
6.79069e-06
5.65598e-06
4.50916e-06
3.7107e-06
3.27979e-06
3.06125e-06
2.93407e-06
2.84242e-06
2.76094e-06
2.68162e-06
2.6006e-06
2.51741e-06
2.43314e-06
2.34803e-06
2.26997e-06
2.22074e-06
2.24105e-06
2.34894e-06
2.54754e-06
2.78107e-06
6.8621e-06
5.70553e-06
4.54144e-06
3.73803e-06
3.30565e-06
3.08683e-06
2.95978e-06
2.86792e-06
2.78595e-06
2.70588e-06
2.62393e-06
2.53991e-06
2.45491e-06
2.36963e-06
2.29239e-06
2.24377e-06
2.26144e-06
2.36357e-06
2.55738e-06
2.78928e-06
6.93801e-06
5.75559e-06
4.57271e-06
3.76477e-06
3.33116e-06
3.11246e-06
2.98569e-06
2.8937e-06
2.81137e-06
2.73073e-06
2.64808e-06
2.56355e-06
2.47817e-06
2.39316e-06
2.31713e-06
2.2693e-06
2.28416e-06
2.38014e-06
2.56832e-06
2.79739e-06
7.01872e-06
5.80611e-06
4.60311e-06
3.79054e-06
3.35613e-06
3.13791e-06
3.01158e-06
2.91962e-06
2.83711e-06
2.75615e-06
2.67307e-06
2.58835e-06
2.50287e-06
2.41849e-06
2.34397e-06
2.29706e-06
2.30907e-06
2.39872e-06
2.58062e-06
2.80573e-06
7.1047e-06
5.85712e-06
4.63257e-06
3.81509e-06
3.38041e-06
3.16305e-06
3.03738e-06
2.94569e-06
2.86323e-06
2.78219e-06
2.69894e-06
2.61427e-06
2.52892e-06
2.44545e-06
2.37263e-06
2.32676e-06
2.33603e-06
2.41945e-06
2.59462e-06
2.81469e-06
7.19662e-06
5.90871e-06
4.66099e-06
3.83826e-06
3.4039e-06
3.18788e-06
3.06318e-06
2.97202e-06
2.88984e-06
2.80893e-06
2.72572e-06
2.64123e-06
2.55617e-06
2.47382e-06
2.40285e-06
2.35816e-06
2.365e-06
2.44256e-06
2.61071e-06
2.82467e-06
7.29518e-06
5.96094e-06
4.68799e-06
3.86001e-06
3.42667e-06
3.21254e-06
3.08913e-06