/*--------------------------------*- C++ -*----------------------------------*\
  =========                 |
  \\      /  F ield         | OpenFOAM: The Open Source CFD Toolbox
   \\    /   O peration     | Website:  https://openfoam.org
    \\  /    A nd           | Version:  8
     \\/     M anipulation  |
\*---------------------------------------------------------------------------*/
FoamFile
{
    version     2.0;
    format      ascii;
    class       volScalarField;
    location    "1000";
    object      nut;
}
// * * * * * * * * * * * * * * * * * * * * * * * * * * * * * * * * * * * * * //

dimensions      [0 2 -1 0 0 0 0];

internalField   nonuniform List<scalar> 
8400
(
9.60589e-05
9.23961e-05
8.89904e-05
8.57525e-05
8.26365e-05
7.96423e-05
7.67761e-05
7.40409e-05
7.14264e-05
6.90145e-05
6.80871e-05
6.81891e-05
6.88943e-05
7.00417e-05
7.17057e-05
7.40563e-05
7.73388e-05
8.1876e-05
8.79989e-05
9.56614e-05
0.000103668
0.000109623
0.000109013
0.000106254
0.000104957
0.00010443
0.000103993
0.000103544
0.000103074
0.000102579
0.000102046
0.000101489
0.000100899
0.000100269
9.96202e-05
9.89676e-05
9.83095e-05
9.76444e-05
9.69742e-05
9.63007e-05
9.56302e-05
9.49655e-05
9.43046e-05
9.36483e-05
9.2863e-05
9.21248e-05
9.15307e-05
9.10777e-05
9.07634e-05
9.05909e-05
7.38373e-05
7.22941e-05
6.98513e-05
6.70636e-05
6.41435e-05
6.12868e-05
5.88449e-05
5.74059e-05
5.78337e-05
6.03487e-05
6.09452e-05
6.08869e-05
6.07335e-05
6.06191e-05
6.05721e-05
6.06322e-05
6.09179e-05
6.17667e-05
6.40042e-05
6.90887e-05
7.7767e-05
8.71785e-05
8.78661e-05
8.71936e-05
8.59839e-05
8.36327e-05
8.11376e-05
7.88179e-05
7.65664e-05
7.4177e-05
7.15685e-05
6.87697e-05
6.58541e-05
6.28997e-05
5.99764e-05
5.71476e-05
5.44645e-05
5.19654e-05
4.96866e-05
4.76621e-05
4.59134e-05
4.44572e-05
4.33166e-05
4.25069e-05
4.23283e-05
4.23848e-05
4.24535e-05
4.25369e-05
4.26386e-05
4.27638e-05
6.3242e-05
6.48937e-05
6.53044e-05
6.4866e-05
6.39532e-05
6.30439e-05
6.26243e-05
6.29257e-05
6.30312e-05
6.21997e-05
6.13268e-05
6.08107e-05
6.05761e-05
6.02914e-05
6.00559e-05
5.98552e-05
5.96677e-05
5.94936e-05
5.93893e-05
5.93297e-05
6.10207e-05
6.63637e-05
7.06265e-05
7.24347e-05
7.13519e-05
6.89509e-05
6.61631e-05
6.36104e-05
6.11682e-05
5.85577e-05
5.57911e-05
5.30278e-05
5.04438e-05
4.81626e-05
4.62447e-05
4.47044e-05
4.35188e-05
4.26436e-05
4.20265e-05
4.16102e-05
4.13384e-05
4.11644e-05
4.10521e-05
4.09733e-05
4.09348e-05
4.09073e-05
4.08349e-05
4.07196e-05
4.05656e-05
4.03785e-05
6.14238e-05
6.10709e-05
6.09162e-05
6.09017e-05
6.10024e-05
6.11701e-05
6.13508e-05
6.15784e-05
6.17695e-05
6.18665e-05
6.1837e-05
6.16838e-05
6.14416e-05
6.11599e-05
6.08754e-05
6.06031e-05
6.03345e-05
6.00402e-05
5.98764e-05
5.97252e-05
5.92999e-05
5.79971e-05
6.32289e-05
6.77947e-05
6.08631e-05
5.84042e-05
5.60685e-05
5.42035e-05
5.23929e-05
5.03764e-05
4.84024e-05
4.671e-05
4.54201e-05
4.45428e-05
4.40201e-05
4.37735e-05
4.37218e-05
4.379e-05
4.39196e-05
4.40687e-05
4.4209e-05
4.4322e-05
4.43962e-05
4.44288e-05
4.44073e-05
4.43493e-05
4.42255e-05
4.40347e-05
4.37759e-05
4.34483e-05
6.14768e-05
6.14531e-05
6.14302e-05
6.14067e-05
6.13827e-05
6.13582e-05
6.13339e-05
6.13101e-05
6.12904e-05
6.1272e-05
6.12544e-05
6.12321e-05
6.12051e-05
6.11689e-05
6.11247e-05
6.1072e-05
6.10107e-05
6.09464e-05
6.07691e-05
6.05662e-05
6.02985e-05
5.988e-05
6.02216e-05
5.9419e-05
5.69709e-05
5.55138e-05
5.72982e-05
4.92598e-05
4.81665e-05
4.686e-05
4.57928e-05
4.51233e-05
4.48435e-05
4.48693e-05
4.50928e-05
4.54254e-05
4.58047e-05
4.61868e-05
4.65438e-05
4.68582e-05
4.71233e-05
4.73383e-05
4.75004e-05
4.76091e-05
4.76524e-05
4.76389e-05
4.75762e-05
4.7461e-05
4.72892e-05
4.70534e-05
6.14709e-05
6.14405e-05
6.14088e-05
6.1377e-05
6.13437e-05
6.13101e-05
6.12755e-05
6.12397e-05
6.12011e-05
6.1164e-05
6.11249e-05
6.10853e-05
6.1046e-05
6.10055e-05
6.09672e-05
6.09293e-05
6.0884e-05
6.08271e-05
6.07554e-05
6.06557e-05
6.05143e-05
6.02976e-05
6.0089e-05
5.93777e-05
5.82417e-05
5.73493e-05
5.70229e-05
5.43976e-05
4.64279e-05
4.55667e-05
4.51713e-05
4.51797e-05
4.54696e-05
4.59204e-05
4.64357e-05
4.6949e-05
4.74258e-05
4.78516e-05
4.82216e-05
4.85341e-05
4.87918e-05
4.90005e-05
4.91665e-05
4.92939e-05
4.93805e-05
4.94114e-05
4.94258e-05
4.94241e-05
4.94009e-05
4.9347e-05
6.14663e-05
6.14313e-05
6.1395e-05
6.13582e-05
6.13203e-05
6.1279e-05
6.12374e-05
6.11939e-05
6.11492e-05
6.11025e-05
6.10532e-05
6.10054e-05
6.09563e-05
6.09102e-05
6.08677e-05
6.08191e-05
6.07805e-05
6.07445e-05
6.07042e-05
6.06493e-05
6.05672e-05
6.04367e-05
6.02347e-05
5.97633e-05
5.90592e-05
5.8445e-05
5.78579e-05
5.5861e-05
4.89366e-05
4.50909e-05
4.5171e-05
4.55913e-05
4.6164e-05
4.67728e-05
4.7352e-05
4.78645e-05
4.82962e-05
4.86489e-05
4.89305e-05
4.91516e-05
4.93227e-05
4.94542e-05
4.95598e-05
4.96486e-05
4.97231e-05
4.97499e-05
4.9802e-05
4.9883e-05
4.99875e-05
5.01015e-05
6.14616e-05
6.14194e-05
6.13776e-05
6.13325e-05
6.1289e-05
6.12411e-05
6.11932e-05
6.11409e-05
6.1088e-05
6.10309e-05
6.09738e-05
6.09173e-05
6.08607e-05
6.08074e-05
6.07499e-05
6.07029e-05
6.06653e-05
6.06344e-05
6.06074e-05
6.0576e-05
6.0528e-05
6.04487e-05
6.03042e-05
5.99894e-05
5.95035e-05
5.9008e-05
5.83376e-05
5.6431e-05
5.06556e-05
4.54437e-05
4.52843e-05
4.59427e-05
4.66414e-05
4.72824e-05
4.78247e-05
4.82587e-05
4.85836e-05
4.88092e-05
4.89518e-05
4.90282e-05
4.90567e-05
4.90521e-05
4.90348e-05
4.90252e-05
4.90389e-05
4.89982e-05
4.90416e-05
4.91802e-05
4.94002e-05
4.96769e-05
6.14522e-05
6.14013e-05
6.13496e-05
6.12967e-05
6.12398e-05
6.11831e-05
6.11234e-05
6.10597e-05
6.09939e-05
6.09256e-05
6.08566e-05
6.07895e-05
6.07244e-05
6.06552e-05
6.05929e-05
6.05469e-05
6.05141e-05
6.04913e-05
6.04795e-05
6.04702e-05
6.04487e-05
6.04031e-05
6.03025e-05
6.00779e-05
5.97084e-05
5.92515e-05
5.84849e-05
5.65118e-05
5.14448e-05
4.61426e-05
4.53599e-05
4.61528e-05
4.68917e-05
4.75106e-05
4.79848e-05
4.83188e-05
4.85207e-05
4.86014e-05
4.85776e-05
4.8465e-05
4.82834e-05
4.80536e-05
4.78064e-05
4.75828e-05
4.74237e-05
4.73008e-05
4.72905e-05
4.74878e-05
4.78439e-05
4.83189e-05
6.14362e-05
6.13722e-05
6.13033e-05
6.12326e-05
6.11607e-05
6.10835e-05
6.10047e-05
6.09259e-05
6.08417e-05
6.07551e-05
6.06612e-05
6.05593e-05
6.04642e-05
6.03865e-05
6.03354e-05
6.03113e-05
6.03045e-05
6.03107e-05
6.03259e-05
6.03404e-05
6.03432e-05
6.03252e-05
6.02585e-05
6.0084e-05
5.97651e-05
5.92874e-05
5.83817e-05
5.62621e-05
5.16378e-05
4.67205e-05
4.54945e-05
4.62012e-05
4.69691e-05
4.75481e-05
4.79579e-05
4.82065e-05
4.83047e-05
4.82666e-05
4.81017e-05
4.78089e-05
4.73922e-05
4.68539e-05
4.62192e-05
4.5558e-05
4.49695e-05
4.46657e-05
4.46997e-05
4.50139e-05
4.55397e-05
4.62544e-05
6.14089e-05
6.1311e-05
6.12109e-05
6.11104e-05
6.09994e-05
6.08764e-05
6.07482e-05
6.06016e-05
6.04461e-05
6.0291e-05
6.01484e-05
6.00413e-05
5.99723e-05
5.99488e-05
5.99715e-05
6.00137e-05
6.00618e-05
6.01196e-05
6.01721e-05
6.02084e-05
6.02325e-05
6.02338e-05
6.01875e-05
6.00359e-05
5.97227e-05
5.91753e-05
5.80835e-05
5.5766e-05
5.14499e-05
4.70787e-05
4.56882e-05
4.61759e-05
4.68918e-05
4.74497e-05
4.78269e-05
4.80299e-05
4.80681e-05
4.79721e-05
4.77442e-05
4.73736e-05
4.68926e-05
4.63119e-05
4.56845e-05
4.50348e-05
4.35065e-05
4.03498e-05
4.21244e-05
4.25929e-05
4.31905e-05
4.4105e-05
6.13243e-05
6.1117e-05
6.09183e-05
6.07226e-05
6.05063e-05
6.02674e-05
5.99688e-05
5.96302e-05
5.92568e-05
5.89208e-05
5.88282e-05
5.89976e-05
5.93362e-05
5.95935e-05
5.97134e-05
5.98042e-05
5.98984e-05
5.9981e-05
6.00443e-05
6.00896e-05
6.01277e-05
6.01405e-05
6.00988e-05
5.99422e-05
5.9595e-05
5.89341e-05
5.76153e-05
5.50778e-05
5.10186e-05
4.72369e-05
4.58789e-05
4.61494e-05
4.67504e-05
4.72601e-05
4.76102e-05
4.77973e-05
4.78324e-05
4.77418e-05
4.75286e-05
4.71857e-05
4.67358e-05
4.62183e-05
4.56934e-05
4.51598e-05
4.43695e-05
4.35527e-05
4.28512e-05
4.23873e-05
4.2446e-05
4.31308e-05
6.05593e-05
6.02078e-05
5.98363e-05
5.94921e-05
5.92182e-05
5.90514e-05
5.89318e-05
5.88817e-05
5.88671e-05
5.88959e-05
5.89861e-05
5.9135e-05
5.93255e-05
5.94827e-05
5.9592e-05
5.9694e-05
5.97915e-05
5.98695e-05
5.99302e-05
5.99794e-05
6.00165e-05
6.00173e-05
5.99526e-05
5.97619e-05
5.93665e-05
5.86345e-05
5.69776e-05
5.42319e-05
5.04418e-05
4.72443e-05
4.60148e-05
4.61084e-05
4.6566e-05
4.69991e-05
4.73129e-05
4.74959e-05
4.75529e-05
4.74963e-05
4.73339e-05
4.70713e-05
4.67251e-05
4.63252e-05
4.59086e-05
4.54819e-05
4.50275e-05
4.45237e-05
4.38684e-05
4.32718e-05
4.30764e-05
4.34692e-05
5.95757e-05
5.93407e-05
5.91216e-05
5.89723e-05
5.88773e-05
5.88451e-05
5.8858e-05
5.89015e-05
5.89686e-05
5.90435e-05
5.91314e-05
5.92347e-05
5.9344e-05
5.9448e-05
5.9541e-05
5.96247e-05
5.96993e-05
5.97641e-05
5.98176e-05
5.98549e-05
5.98685e-05
5.98341e-05
5.97155e-05
5.94476e-05
5.89399e-05
5.80393e-05
5.64408e-05
5.32549e-05
4.97905e-05
4.71491e-05
4.60774e-05
4.6028e-05
4.63267e-05
4.66578e-05
4.69194e-05
4.70859e-05
4.71526e-05
4.71255e-05
4.70134e-05
4.68255e-05
4.65749e-05
4.62794e-05
4.59562e-05
4.56074e-05
4.52082e-05
4.46777e-05
4.40718e-05
4.36434e-05
4.36141e-05
4.40641e-05
5.89912e-05
5.89102e-05
5.88541e-05
5.8833e-05
5.88463e-05
5.88796e-05
5.8932e-05
5.89967e-05
5.90659e-05
5.91392e-05
5.92128e-05
5.92846e-05
5.93553e-05
5.94243e-05
5.94898e-05
5.95505e-05
5.96023e-05
5.96433e-05
5.96704e-05
5.96751e-05
5.96416e-05
5.95418e-05
5.93343e-05
5.89507e-05
5.82943e-05
5.72285e-05
5.55715e-05
5.25318e-05
4.91494e-05
4.70039e-05
4.60729e-05
4.59012e-05
4.60356e-05
4.62393e-05
4.64165e-05
4.65334e-05
4.65791e-05
4.65533e-05
4.6461e-05
4.63094e-05
4.61073e-05
4.58647e-05
4.55899e-05
4.52814e-05
4.49157e-05
4.4466e-05
4.41074e-05
4.40362e-05
4.43278e-05
4.4963e-05
5.88275e-05
5.88309e-05
5.88462e-05
5.88779e-05
5.89148e-05
5.89618e-05
5.90123e-05
5.9063e-05
5.91149e-05
5.91667e-05
5.92163e-05
5.92644e-05
5.931e-05
5.93523e-05
5.93908e-05
5.94218e-05
5.94408e-05
5.94448e-05
5.94274e-05
5.93755e-05
5.92702e-05
5.90805e-05
5.87621e-05
5.82497e-05
5.74575e-05
5.62824e-05
5.46222e-05
5.18686e-05
4.8572e-05
4.68685e-05
4.6058e-05
4.57854e-05
4.57623e-05
4.58255e-05
4.5896e-05
4.59389e-05
4.59405e-05
4.58977e-05
4.58134e-05
4.56934e-05
4.55453e-05
4.53781e-05
4.52009e-05
4.50195e-05
4.48178e-05
4.4684e-05
4.47386e-05
4.50549e-05
4.56188e-05
4.63777e-05
5.88381e-05
5.88603e-05
5.88857e-05
5.89149e-05
5.89436e-05
5.89748e-05
5.90059e-05
5.90356e-05
5.90635e-05
5.90898e-05
5.91151e-05
5.91365e-05
5.91529e-05
5.91643e-05
5.91674e-05
5.91581e-05
5.91322e-05
5.90847e-05
5.90069e-05
5.88817e-05
5.86893e-05
5.84009e-05
5.79753e-05
5.73548e-05
5.64718e-05
5.5261e-05
5.36579e-05
5.12949e-05
4.81365e-05
4.68228e-05
4.61349e-05
4.58141e-05
4.56848e-05
4.56444e-05
4.56363e-05
4.56328e-05
4.56227e-05
4.56035e-05
4.5578e-05
4.55522e-05
4.55337e-05
4.55319e-05
4.55571e-05
4.56195e-05
4.57132e-05
4.59523e-05
4.63473e-05
4.68922e-05
4.75566e-05
4.83022e-05
5.88009e-05
5.88138e-05
5.88226e-05
5.8832e-05
5.88397e-05
5.8845e-05
5.88496e-05
5.88507e-05
5.8848e-05
5.88433e-05
5.88357e-05
5.88219e-05
5.88009e-05
5.8771e-05
5.87282e-05
5.86687e-05
5.85884e-05
5.84786e-05
5.833e-05
5.8127e-05
5.785e-05
5.74732e-05
5.69636e-05
5.62814e-05
5.53817e-05
5.42268e-05
5.27523e-05
5.07999e-05
4.79304e-05
4.69633e-05
4.64403e-05
4.61662e-05
4.6037e-05
4.5993e-05
4.60009e-05
4.60425e-05
4.61093e-05
4.6199e-05
4.63129e-05
4.64541e-05
4.66265e-05
4.68352e-05
4.70867e-05
4.73859e-05
4.7744e-05
4.81791e-05
4.86862e-05
4.92565e-05
4.98815e-05
5.05494e-05
5.8607e-05
5.85916e-05
5.85722e-05
5.85489e-05
5.85234e-05
5.84947e-05
5.84616e-05
5.84243e-05
5.83833e-05
5.83372e-05
5.82835e-05
5.82214e-05
5.81507e-05
5.80671e-05
5.79674e-05
5.7847e-05
5.77022e-05
5.75245e-05
5.73046e-05
5.70303e-05
5.6686e-05
5.62526e-05
5.5709e-05
5.50342e-05
5.4206e-05
5.31998e-05
5.19211e-05
5.03474e-05
4.8062e-05
4.74074e-05
4.71018e-05
4.69811e-05
4.69771e-05
4.70536e-05
4.71889e-05
4.73693e-05
4.75863e-05
4.78354e-05
4.81144e-05
4.84218e-05
4.87567e-05
4.91175e-05
4.94994e-05
4.98751e-05
5.02238e-05
5.06877e-05
5.12793e-05
5.19897e-05
5.28005e-05
5.3678e-05
7.36738e-05
7.30364e-05
7.23932e-05
7.17313e-05
7.10472e-05
7.0339e-05
6.96072e-05
6.88539e-05
6.80812e-05
6.72928e-05
6.64935e-05
6.56867e-05
6.48756e-05
6.40614e-05
6.32466e-05
6.24317e-05
6.16162e-05
6.07973e-05
5.99707e-05
5.91305e-05
5.82681e-05
5.73726e-05
5.64321e-05
5.54393e-05
5.43941e-05
5.32932e-05
5.20416e-05
5.02619e-05
4.91678e-05
4.9165e-05
4.95085e-05
5.00477e-05
5.0721e-05
5.14946e-05
5.23478e-05
5.3267e-05
5.4242e-05
5.52649e-05
5.63306e-05
5.7436e-05
5.85803e-05
5.97669e-05
6.10061e-05
6.23323e-05
6.37761e-05
6.52003e-05
6.66042e-05
6.79857e-05
6.93416e-05
7.06689e-05
5.48183e-06
5.4446e-06
5.41277e-06
5.38648e-06
5.36253e-06
5.34012e-06
5.31798e-06
5.29601e-06
5.27417e-06
5.25238e-06
5.23059e-06
5.20878e-06
5.18692e-06
5.16492e-06
5.14277e-06
5.12045e-06
5.09809e-06
5.07582e-06
5.05386e-06
5.0324e-06
5.01491e-06
4.97876e-06
4.94998e-06
4.92564e-06
4.91293e-06
4.89465e-06
4.87398e-06
4.85266e-06
4.83153e-06
4.81086e-06
4.79073e-06
4.77107e-06
4.75185e-06
4.73287e-06
4.71406e-06
4.69553e-06
4.6774e-06
4.65977e-06
4.64274e-06
4.62632e-06
4.61087e-06
4.59622e-06
4.5822e-06
4.56867e-06
4.55556e-06
4.54279e-06
4.53032e-06
4.51814e-06
4.50655e-06
4.4962e-06
5.40427e-06
5.26187e-06
5.13489e-06
5.01965e-06
4.91211e-06
4.81017e-06
4.71372e-06
4.62193e-06
4.53426e-06
4.45038e-06
4.37002e-06
4.293e-06
4.21925e-06
4.14872e-06
4.08142e-06
4.01722e-06
3.95589e-06
3.89708e-06
3.84045e-06
3.78783e-06
1.62415e-05
1.61626e-05
1.61118e-05
1.60542e-05
1.59269e-05
1.58378e-05
1.57835e-05
1.5753e-05
1.57357e-05
1.57232e-05
1.57103e-05
1.56942e-05
1.56734e-05
1.56484e-05
1.56197e-05
1.55866e-05
1.55492e-05
1.55075e-05
1.54614e-05
1.54108e-05
1.53552e-05
1.52957e-05
1.52334e-05
1.51692e-05
1.51039e-05
1.50378e-05
1.49698e-05
1.48953e-05
1.4808e-05
1.47058e-05
5.4053e-06
5.26423e-06
5.13663e-06
5.0198e-06
4.9104e-06
4.8069e-06
4.70821e-06
4.61365e-06
4.52278e-06
4.43537e-06
4.35121e-06
4.27018e-06
4.19218e-06
4.11715e-06
4.045e-06
3.97571e-06
3.90913e-06
3.84509e-06
3.78356e-06
1.58388e-05
1.57085e-05
1.55891e-05
1.54718e-05
1.53543e-05
1.52349e-05
1.51167e-05
1.50003e-05
1.48862e-05
1.47746e-05
1.46655e-05
1.45592e-05
1.44556e-05
1.43547e-05
1.42562e-05
1.416e-05
1.40658e-05
1.39732e-05
1.38817e-05
1.37908e-05
1.37006e-05
1.36107e-05
1.35215e-05
1.34332e-05
1.33461e-05
1.3261e-05
1.31793e-05
1.31033e-05
1.30336e-05
1.29641e-05
1.28775e-05
5.40543e-06
5.26563e-06
5.13951e-06
5.02388e-06
4.9153e-06
4.81236e-06
4.71414e-06
4.61997e-06
4.52943e-06
4.44225e-06
4.35824e-06
4.27728e-06
4.19928e-06
4.12416e-06
4.05183e-06
3.98222e-06
3.91522e-06
3.85073e-06
3.78878e-06
1.58526e-05
1.57124e-05
1.55794e-05
1.54498e-05
1.53219e-05
1.51943e-05
1.50667e-05
1.49392e-05
1.48121e-05
1.46859e-05
1.45611e-05
1.44382e-05
1.43175e-05
1.41992e-05
1.40832e-05
1.39694e-05
1.38574e-05
1.37468e-05
1.36374e-05
1.35287e-05
1.34208e-05
1.33138e-05
1.32078e-05
1.31032e-05
1.30002e-05
1.28987e-05
1.27986e-05
1.27015e-05
1.26117e-05
1.25322e-05
1.24487e-05
5.40556e-06
5.26569e-06
5.13954e-06
5.02386e-06
4.91519e-06
4.8121e-06
4.71368e-06
4.61936e-06
4.52871e-06
4.44145e-06
4.35739e-06
4.27639e-06
4.19836e-06
4.12323e-06
4.05092e-06
3.98133e-06
3.91436e-06
3.84991e-06
3.7879e-06
1.5845e-05
1.57056e-05
1.55727e-05
1.54425e-05
1.5313e-05
1.51837e-05
1.50542e-05
1.4925e-05
1.47966e-05
1.46695e-05
1.45444e-05
1.44215e-05
1.43012e-05
1.41833e-05
1.40678e-05
1.39543e-05
1.38423e-05
1.37314e-05
1.36211e-05
1.35112e-05
1.34015e-05
1.32922e-05
1.31835e-05
1.3076e-05
1.29707e-05
1.2868e-05
1.2767e-05
1.26668e-05
1.25685e-05
1.24786e-05
1.23916e-05
5.40564e-06
5.26583e-06
5.13975e-06
5.02424e-06
4.91582e-06
4.81295e-06
4.71474e-06
4.6206e-06
4.53011e-06
4.443e-06
4.35906e-06
4.27818e-06
4.20026e-06
4.12521e-06
4.05298e-06
3.98346e-06
3.91656e-06
3.85217e-06
3.79033e-06
1.58653e-05
1.57247e-05
1.55908e-05
1.54601e-05
1.53309e-05
1.5202e-05
1.50729e-05
1.49438e-05
1.48149e-05
1.46868e-05
1.45601e-05
1.44353e-05
1.43128e-05
1.41927e-05
1.4075e-05
1.39595e-05
1.38458e-05
1.37334e-05
1.3622e-05
1.35113e-05
1.3401e-05
1.32911e-05
1.31818e-05
1.30735e-05
1.2967e-05
1.28633e-05
1.27632e-05
1.26653e-05
1.2568e-05
1.2475e-05
1.23858e-05
5.40564e-06
5.26592e-06
5.13983e-06
5.02429e-06
4.91586e-06
4.81296e-06
4.71469e-06
4.62047e-06
4.52989e-06
4.44268e-06
4.35867e-06
4.27771e-06
4.19972e-06
4.12463e-06
4.05237e-06
3.98286e-06
3.91599e-06
3.85166e-06
3.78992e-06
1.58652e-05
1.57256e-05
1.55925e-05
1.54626e-05
1.5334e-05
1.52056e-05
1.5077e-05
1.49481e-05
1.48194e-05
1.46916e-05
1.45651e-05
1.44408e-05
1.43188e-05
1.41994e-05
1.40825e-05
1.39679e-05
1.38551e-05
1.37437e-05
1.36332e-05
1.35233e-05
1.34137e-05
1.33046e-05
1.3196e-05
1.30882e-05
1.29813e-05
1.28762e-05
1.27743e-05
1.2676e-05
1.25791e-05
1.24847e-05
1.23934e-05
5.40561e-06
5.26597e-06
5.13994e-06
5.02442e-06
4.91598e-06
4.81312e-06
4.7149e-06
4.62071e-06
4.53017e-06
4.44298e-06
4.35899e-06
4.27807e-06
4.20012e-06
4.12507e-06
4.05286e-06
3.9834e-06
3.9166e-06
3.85234e-06
3.79067e-06
1.58726e-05
1.5733e-05
1.55999e-05
1.54698e-05
1.53408e-05
1.52118e-05
1.50825e-05
1.49531e-05
1.48239e-05
1.46956e-05
1.45688e-05
1.44442e-05
1.43221e-05
1.42026e-05
1.40857e-05
1.39711e-05
1.38584e-05
1.3747e-05
1.36366e-05
1.35268e-05
1.34174e-05
1.33083e-05
1.31998e-05
1.30924e-05
1.2986e-05
1.28809e-05
1.2778e-05
1.26783e-05
1.25811e-05
1.24861e-05
1.23935e-05
5.4056e-06
5.26597e-06
5.13998e-06
5.02448e-06
4.91604e-06
4.81317e-06
4.71495e-06
4.62076e-06
4.5302e-06
4.443e-06
4.35898e-06
4.27802e-06
4.20005e-06
4.12497e-06
4.05272e-06
3.98325e-06
3.91643e-06
3.85218e-06
3.79041e-06
1.58723e-05
1.57336e-05
1.56009e-05
1.54705e-05
1.53404e-05
1.52098e-05
1.50788e-05
1.49478e-05
1.48174e-05
1.46885e-05
1.45614e-05
1.44368e-05
1.43149e-05
1.41957e-05
1.40791e-05
1.39647e-05
1.38521e-05
1.37409e-05
1.36306e-05
1.35208e-05
1.34113e-05
1.33022e-05
1.31936e-05
1.3086e-05
1.29798e-05
1.28752e-05
1.27723e-05
1.26721e-05
1.25745e-05
1.24792e-05
1.23862e-05
5.40561e-06
5.26597e-06
5.14001e-06
5.02453e-06
4.91611e-06
4.81323e-06
4.715e-06
4.6208e-06
4.53023e-06
4.44303e-06
4.35901e-06
4.27805e-06
4.20007e-06
4.12501e-06
4.05279e-06
3.98334e-06
3.91656e-06
3.85234e-06
3.7906e-06
1.58741e-05
1.57354e-05
1.56026e-05
1.54719e-05
1.53413e-05
1.52102e-05
1.50786e-05
1.4947e-05
1.4816e-05
1.46866e-05
1.45591e-05
1.44342e-05
1.4312e-05
1.41927e-05
1.4076e-05
1.39616e-05
1.38492e-05
1.37382e-05
1.36281e-05
1.35187e-05
1.34097e-05
1.3301e-05
1.31927e-05
1.30852e-05
1.2979e-05
1.28745e-05
1.27717e-05
1.2671e-05
1.25727e-05
1.24766e-05
1.23825e-05
5.40563e-06
5.266e-06
5.14002e-06
5.02454e-06
4.91611e-06
4.81324e-06
4.715e-06
4.62079e-06
4.53022e-06
4.443e-06
4.35898e-06
4.27802e-06
4.20004e-06
4.12498e-06
4.05277e-06
3.98333e-06
3.91657e-06
3.85237e-06
3.79065e-06
1.58748e-05
1.5736e-05
1.56031e-05
1.54722e-05
1.53415e-05
1.52102e-05
1.50784e-05
1.49467e-05
1.48159e-05
1.46866e-05
1.45595e-05
1.4435e-05
1.43133e-05
1.41946e-05
1.40785e-05
1.39647e-05
1.38528e-05
1.37423e-05
1.36327e-05
1.35237e-05
1.34149e-05
1.33065e-05
1.31983e-05
1.30907e-05
1.29842e-05
1.28791e-05
1.27757e-05
1.26741e-05
1.25745e-05
1.2477e-05
1.23814e-05
5.40565e-06
5.26605e-06
5.14007e-06
5.02457e-06
4.91613e-06
4.81324e-06
4.71499e-06
4.62075e-06
4.53014e-06
4.4429e-06
4.35885e-06
4.27786e-06
4.19987e-06
4.1248e-06
4.05259e-06
3.98318e-06
3.91644e-06
3.85227e-06
3.79058e-06
1.58745e-05
1.57356e-05
1.56025e-05
1.54714e-05
1.53405e-05
1.52092e-05
1.50778e-05
1.4947e-05
1.48175e-05
1.469e-05
1.45649e-05
1.44426e-05
1.43232e-05
1.42065e-05
1.40923e-05
1.398e-05
1.38694e-05
1.37597e-05
1.36506e-05
1.35416e-05
1.34325e-05
1.33235e-05
1.32146e-05
1.31059e-05
1.2998e-05
1.28913e-05
1.27861e-05
1.26825e-05
1.25807e-05
1.24808e-05
1.23827e-05
5.40565e-06
5.26606e-06
5.14008e-06
5.02457e-06
4.91612e-06
4.81321e-06
4.71494e-06
4.6207e-06
4.53008e-06
4.44284e-06
4.3588e-06
4.27783e-06
4.19985e-06
4.12481e-06
4.05265e-06
3.98327e-06
3.91657e-06
3.85245e-06
3.79081e-06
1.58762e-05
1.57372e-05
1.56038e-05
1.54724e-05
1.53411e-05
1.52094e-05
1.50776e-05
1.49464e-05
1.48166e-05
1.46889e-05
1.45637e-05
1.44415e-05
1.43223e-05
1.42059e-05
1.40921e-05
1.39805e-05
1.38704e-05
1.37615e-05
1.3653e-05
1.35446e-05
1.34362e-05
1.33275e-05
1.3219e-05
1.31105e-05
1.30025e-05
1.28953e-05
1.27895e-05
1.26851e-05
1.25822e-05
1.24811e-05
1.23815e-05
5.40565e-06
5.26609e-06
5.1401e-06
5.02455e-06
4.91605e-06
4.81309e-06
4.71476e-06
4.62044e-06
4.52976e-06
4.44245e-06
4.35833e-06
4.2773e-06
4.19928e-06
4.12421e-06
4.05202e-06
3.98263e-06
3.91593e-06
3.85181e-06
3.79017e-06
1.58709e-05
1.57321e-05
1.55989e-05
1.54675e-05
1.53362e-05
1.52043e-05
1.50723e-05
1.49406e-05
1.48102e-05
1.46817e-05
1.45557e-05
1.44327e-05
1.43129e-05
1.41961e-05
1.40822e-05
1.39707e-05
1.3861e-05
1.37527e-05
1.36451e-05
1.35378e-05
1.34305e-05
1.3323e-05
1.32152e-05
1.31077e-05
1.30004e-05
1.28937e-05
1.2788e-05
1.26834e-05
1.25801e-05
1.24783e-05
1.23779e-05
5.40566e-06
5.26609e-06
5.14008e-06
5.02451e-06
4.91599e-06
4.81305e-06
4.71474e-06
4.62046e-06
4.52983e-06
4.44257e-06
4.35851e-06
4.27754e-06
4.19958e-06
4.12458e-06
4.05246e-06
3.98313e-06
3.91649e-06
3.85242e-06
3.79081e-06
1.58749e-05
1.57353e-05
1.56015e-05
1.54697e-05
1.53384e-05
1.52068e-05
1.50751e-05
1.49439e-05
1.48137e-05
1.46852e-05
1.4559e-05
1.44355e-05
1.4315e-05
1.41974e-05
1.40827e-05
1.39705e-05
1.38602e-05
1.37514e-05
1.36434e-05
1.35359e-05
1.34285e-05
1.33211e-05
1.32135e-05
1.31059e-05
1.29987e-05
1.2892e-05
1.27862e-05
1.26814e-05
1.25778e-05
1.24756e-05
1.23748e-05
5.40568e-06
5.26604e-06
5.13987e-06
5.02412e-06
4.91539e-06
4.8122e-06
4.71365e-06
4.61915e-06
4.5283e-06
4.44086e-06
4.35664e-06
4.27554e-06
4.19749e-06
4.12242e-06
4.05026e-06
3.98091e-06
3.91427e-06
3.8502e-06
3.78859e-06
1.58558e-05
1.57158e-05
1.55826e-05
1.54532e-05
1.5326e-05
1.52001e-05
1.50746e-05
1.49495e-05
1.48247e-05
1.47004e-05
1.45771e-05
1.44552e-05
1.4335e-05
1.42168e-05
1.41007e-05
1.39867e-05
1.38744e-05
1.37636e-05
1.36538e-05
1.35448e-05
1.34361e-05
1.33276e-05
1.32196e-05
1.31119e-05
1.30047e-05
1.28983e-05
1.2793e-05
1.2689e-05
1.25866e-05
1.24861e-05
1.23873e-05
5.40568e-06
5.26605e-06
5.13992e-06
5.02428e-06
4.91572e-06
4.81271e-06
4.71433e-06
4.61996e-06
4.52921e-06
4.44183e-06
4.35765e-06
4.27657e-06
4.19853e-06
4.12345e-06
4.05128e-06
3.98192e-06
3.91525e-06
3.85114e-06
3.78946e-06
1.58608e-05
1.57196e-05
1.55853e-05
1.54552e-05
1.53279e-05
1.52023e-05
1.50777e-05
1.49538e-05
1.48304e-05
1.47078e-05
1.45863e-05
1.44662e-05
1.4348e-05
1.42319e-05
1.41181e-05
1.40064e-05
1.38967e-05
1.37888e-05
1.36824e-05
1.3577e-05
1.34727e-05
1.33689e-05
1.32658e-05
1.31637e-05
1.30627e-05
1.2963e-05
1.2865e-05
1.27691e-05
1.26756e-05
1.2585e-05
1.2498e-05
5.40569e-06
5.26508e-06
5.13778e-06
5.0211e-06
4.91163e-06
4.8079e-06
4.70896e-06
4.6142e-06
4.5232e-06
4.4357e-06
4.35153e-06
4.27057e-06
4.19273e-06
4.11792e-06
4.04607e-06
3.97706e-06
3.91079e-06
3.8471e-06
3.78586e-06
1.58391e-05
1.57029e-05
1.55756e-05
1.54516e-05
1.53295e-05
1.52133e-05
1.51002e-05
1.4995e-05
1.48898e-05
1.47854e-05
1.46825e-05
1.45814e-05
1.44827e-05
1.43864e-05
1.42927e-05
1.42016e-05
1.41127e-05
1.4026e-05
1.39412e-05
1.38578e-05
1.37759e-05
1.36952e-05
1.36158e-05
1.35377e-05
1.34612e-05
1.33867e-05
1.33145e-05
1.32454e-05
1.31799e-05
1.31189e-05
1.30641e-05
5.40605e-06
5.26652e-06
5.14099e-06
5.0262e-06
4.91862e-06
4.81646e-06
4.71928e-06
4.62714e-06
4.53959e-06
4.45622e-06
4.37669e-06
4.30078e-06
4.22826e-06
4.15894e-06
4.09264e-06
4.02911e-06
3.96801e-06
3.90903e-06
3.85268e-06
3.79874e-06
3.70865e-06
1.58745e-05
1.58434e-05
3.64312e-06
3.57307e-06
3.5301e-06
1.52235e-05
1.54348e-05
1.55662e-05
1.56444e-05
1.56865e-05
1.57037e-05
1.57038e-05
1.56917e-05
1.56709e-05
1.56445e-05
1.5614e-05
1.55806e-05
1.55449e-05
1.55072e-05
1.54678e-05
1.54277e-05
1.53869e-05
1.53459e-05
1.53052e-05
1.52656e-05
1.52278e-05
1.51931e-05
1.51635e-05
1.51425e-05
5.47542e-06
5.44333e-06
5.4158e-06
5.39061e-06
5.36706e-06
5.34481e-06
5.32306e-06
5.30109e-06
5.2789e-06
5.25663e-06
5.23441e-06
5.21233e-06
5.19045e-06
5.16882e-06
5.14745e-06
5.12634e-06
5.10551e-06
5.08485e-06
5.0637e-06
5.0432e-06
5.00689e-06
5.00875e-06
4.97976e-06
4.95162e-06
4.92524e-06
4.90055e-06
4.87788e-06
4.85638e-06
4.8355e-06
4.81491e-06
4.79462e-06
4.7747e-06
4.75522e-06
4.73626e-06
4.71784e-06
4.6999e-06
4.68242e-06
4.66536e-06
4.64878e-06
4.63274e-06
4.61708e-06
4.60182e-06
4.58692e-06
4.57233e-06
4.55802e-06
4.54396e-06
4.53012e-06
4.51647e-06
4.50293e-06
4.48882e-06
8.02297e-06
6.51945e-06
5.19266e-06
4.33473e-06
3.89378e-06
3.66237e-06
3.51788e-06
3.40985e-06
3.31581e-06
3.23012e-06
3.15086e-06
3.0796e-06
3.01813e-06
2.96902e-06
2.93459e-06
2.92238e-06
2.9544e-06
3.04586e-06
3.24753e-06
3.44756e-06
8.06804e-06
6.66154e-06
5.28849e-06
4.40586e-06
3.94728e-06
3.70969e-06
3.56233e-06
3.45475e-06
3.36161e-06
3.27499e-06
3.19366e-06
3.11939e-06
3.05422e-06
3.00078e-06
2.96124e-06
2.94461e-06
2.97547e-06
3.06868e-06
3.27525e-06
3.47186e-06
8.31226e-06
6.77505e-06
5.36046e-06
4.45632e-06
3.98504e-06
3.74153e-06
3.59195e-06
3.48371e-06
3.38957e-06
3.30163e-06
3.21804e-06
3.14029e-06
3.07103e-06
3.01291e-06
2.96843e-06
2.94831e-06
2.98016e-06
3.08027e-06
3.29327e-06
3.49457e-06
8.33572e-06
6.85704e-06
5.43548e-06
4.51204e-06
4.02612e-06
3.77612e-06
3.62396e-06
3.5144e-06
3.41963e-06
3.33056e-06
3.24503e-06
3.16446e-06
3.09153e-06
3.02928e-06
2.97954e-06
2.95492e-06
2.98589e-06
3.09204e-06
3.31223e-06
3.52521e-06
8.38778e-06
6.93158e-06
5.50589e-06
4.56391e-06
4.06387e-06
3.80699e-06
3.65232e-06
3.54095e-06
3.44515e-06
3.3548e-06
3.26766e-06
3.18481e-06
3.10873e-06
3.04287e-06
2.98882e-06
2.96068e-06
2.99179e-06
3.10403e-06
3.33052e-06
3.55407e-06
8.4511e-06
6.99881e-06
5.57006e-06
4.61099e-06
4.09817e-06
3.83468e-06
3.67724e-06
3.56426e-06
3.46753e-06
3.37621e-06
3.28752e-06
3.20214e-06
3.12289e-06
3.05257e-06
2.99346e-06
2.96122e-06
2.99355e-06
3.11391e-06
3.34783e-06
3.58166e-06
8.5134e-06
7.05965e-06
5.62863e-06
4.65381e-06
4.12943e-06
3.85993e-06
3.69958e-06
3.58539e-06
3.48735e-06
3.39495e-06
3.30525e-06
3.21826e-06
3.13664e-06
3.06196e-06
2.99703e-06
2.95928e-06
2.99184e-06
3.12069e-06
3.36321e-06
3.60804e-06
8.57173e-06
7.11522e-06
5.68196e-06
4.69324e-06
4.15799e-06
3.88342e-06
3.72071e-06
3.60495e-06
3.50541e-06
3.41178e-06
3.32089e-06
3.23209e-06
3.14803e-06
3.06973e-06
2.99933e-06
2.95615e-06
2.98848e-06
3.12534e-06
3.37669e-06
3.63319e-06
8.62647e-06
7.16661e-06
5.73134e-06
4.72978e-06
4.18436e-06
3.90589e-06
3.74088e-06
3.62349e-06
3.52297e-06
3.42855e-06
3.33636e-06
3.24544e-06
3.158e-06
3.07545e-06
2.99953e-06
2.95157e-06
2.98415e-06
3.12878e-06
3.38874e-06
3.65708e-06
8.67997e-06
7.21521e-06
5.77729e-06
4.76399e-06
4.20993e-06
3.92804e-06
3.76052e-06
3.64165e-06
3.54023e-06
3.44528e-06
3.35174e-06
3.25861e-06
3.16775e-06
3.0802e-06
2.99843e-06
2.94594e-06
2.97929e-06
3.13149e-06
3.3996e-06
3.67961e-06
8.73306e-06
7.26208e-06
5.82044e-06
4.79651e-06
4.23529e-06
3.9504e-06
3.7809e-06
3.66077e-06
3.55818e-06
3.46194e-06
3.36672e-06
3.27125e-06
3.17723e-06
3.08481e-06
2.9973e-06
2.94042e-06
2.97465e-06
3.13374e-06
3.40926e-06
3.70064e-06
8.78667e-06
7.30829e-06
5.8621e-06
4.82847e-06
4.26118e-06
3.973e-06
3.80225e-06
3.68102e-06
3.5775e-06
3.47938e-06
3.38197e-06
3.28381e-06
3.18653e-06
3.08964e-06
2.99688e-06
2.936e-06
2.97099e-06
3.13575e-06
3.4177e-06
3.72007e-06
8.84141e-06
7.35449e-06
5.90285e-06
4.86035e-06
4.28771e-06
3.99651e-06
3.82476e-06
3.70241e-06
3.59766e-06
3.49778e-06
3.39818e-06
3.2971e-06
3.19635e-06
3.09518e-06
2.99768e-06
2.93338e-06
2.96893e-06
3.13785e-06
3.42501e-06
3.73792e-06
8.89886e-06
7.40221e-06
5.9435e-06
4.89269e-06
4.31507e-06
4.02141e-06
3.84836e-06
3.72518e-06
3.61883e-06
3.51734e-06
3.4156e-06
3.31168e-06
3.2075e-06
3.10215e-06
3.00043e-06
2.93325e-06
2.96898e-06
3.1404e-06
3.43146e-06
3.75427e-06
8.95968e-06
7.45167e-06
5.98365e-06
4.92503e-06
4.34304e-06
4.04762e-06
3.87342e-06
3.74944e-06
3.64156e-06
3.53831e-06
3.4343e-06
3.32775e-06
3.2204e-06
3.1112e-06
3.00593e-06
2.93638e-06
2.97174e-06
3.14386e-06
3.43743e-06
3.76923e-06
9.02452e-06
7.50327e-06
6.02416e-06
4.95786e-06
4.37229e-06
4.07499e-06
3.9002e-06
3.77539e-06
3.66609e-06
3.56097e-06
3.45458e-06
3.34559e-06
3.23535e-06
3.1228e-06
3.0148e-06
2.94345e-06
2.97782e-06
3.14876e-06
3.44322e-06
3.7828e-06
9.09392e-06
7.55703e-06
6.06531e-06
4.9913e-06
4.40297e-06
4.10395e-06
3.92868e-06
3.80296e-06
3.69228e-06
3.58534e-06
3.47681e-06
3.36558e-06
3.25278e-06
3.13746e-06
3.02755e-06
2.95497e-06
2.98772e-06
3.1555e-06
3.44909e-06
3.79503e-06
9.16859e-06
7.61371e-06
6.10725e-06
5.02596e-06
4.43503e-06
4.13467e-06
3.95873e-06
3.83201e-06
3.71994e-06
3.61145e-06
3.50111e-06
3.38791e-06
3.273e-06
3.15555e-06
3.04448e-06
2.97124e-06
3.00166e-06
3.16437e-06
3.45529e-06
3.80604e-06
9.24949e-06
7.67465e-06
6.15006e-06
5.06176e-06
4.46855e-06
4.16695e-06
3.99024e-06
3.86261e-06
3.7493e-06
3.63953e-06
3.52765e-06
3.41277e-06
3.29617e-06
3.17716e-06
3.06567e-06
2.99234e-06
3.01972e-06
3.17569e-06
3.46226e-06
3.81617e-06
9.33725e-06
7.7394e-06
6.19383e-06
5.09833e-06
4.50319e-06
4.2004e-06
4.02312e-06
3.89485e-06
3.78066e-06
3.66982e-06
3.55657e-06
3.44028e-06
3.32227e-06
3.20225e-06
3.09109e-06
3.01818e-06
3.04194e-06
3.18989e-06
3.4706e-06
3.82586e-06
9.43348e-06
7.80761e-06
6.23827e-06
5.1355e-06
4.5386e-06
4.23487e-06
4.05741e-06
3.92885e-06
3.81412e-06
3.7023e-06
3.58786e-06
3.47036e-06
3.35118e-06
3.23075e-06
3.12069e-06
3.04864e-06
3.0684e-06
3.20751e-06
3.48104e-06
3.83559e-06
9.53823e-06
7.87866e-06
6.28279e-06
5.17291e-06
4.57439e-06
4.27042e-06
4.09325e-06
3.96465e-06
3.8495e-06
3.73676e-06
3.62129e-06
3.50282e-06
3.38282e-06
3.26266e-06
3.15436e-06
3.08358e-06
3.09919e-06
3.22908e-06
3.49423e-06
3.84576e-06
9.65152e-06
7.95193e-06
6.32675e-06
5.21012e-06
4.61033e-06
4.30697e-06
4.13048e-06
4.00192e-06
3.88641e-06
3.77293e-06
3.65663e-06
3.53751e-06
3.41718e-06
3.29794e-06
3.19192e-06
3.12274e-06
3.13432e-06
3.25491e-06
3.51057e-06
3.85668e-06
9.77341e-06
8.0272e-06
6.36983e-06
5.247e-06
4.64631e-06