/*--------------------------------*- C++ -*----------------------------------*\
  =========                 |
  \\      /  F ield         | OpenFOAM: The Open Source CFD Toolbox
   \\    /   O peration     | Website:  https://openfoam.org
    \\  /    A nd           | Version:  8
     \\/     M anipulation  |
\*---------------------------------------------------------------------------*/
FoamFile
{
    version     2.0;
    format      ascii;
    class       volScalarField;
    location    "1000";
    object      p;
}
// * * * * * * * * * * * * * * * * * * * * * * * * * * * * * * * * * * * * * //

dimensions      [1 -1 -2 0 0 0 0];

internalField   nonuniform List<scalar> 
8400
(
-6700.36
-39194.9
-70988
-99901.8
-121214
-128502
-114454
-72475.1
1384.3
107914
245778
404131
558026
683623
769398
817692
838244
842613
840210
835933
830804
825304
821166
818205
816302
815443
815190
814807
813693
811529
808243
803910
798709
792861
786593
780111
773606
767253
761198
755560
750426
745875
741988
738851
736536
735082
734482
734728
735914
738109
-3159.57
-37483.6
-73490.9
-108096
-135804
-149177
-139849
-99988.3
-25467.1
84049.6
223988
381891
536895
665657
756279
810587
836995
845343
844026
838890
832485
825698
820863
817382
815163
814622
815073
815233
814328
812113
808635
804063
798626
792566
786115
779488
772876
766449
760341
754658
749485
744901
740984
737807
735437
733917
733236
733368
734337
736176
2552.99
-33858.4
-74775.9
-113684
-144477
-159122
-148762
-104267
-22740.5
87593.3
220024
368144
519822
649025
739318
794340
824268
837620
839886
836121
830656
825499
820455
815934
812470
812626
814888
816187
815552
813108
809206
804187
798357
791982
785289
778481
771738
765222
759055
753329
748123
743515
739587
736419
734070
732583
731951
732143
733142
734941
-15613.1
-48879.1
-81846.8
-119319
-149335
-160289
-143681
-94830.6
-12795.3
99312.2
234259
381331
519477
624340
693550
738397
769767
792743
806588
813714
818407
820839
820177
812995
805347
808374
815370
818371
817615
814470
809768
804029
797609
790776
783747
776701
769789
763150
756894
751103
745842
741179
737199
733988
731601
730087
729450
729660
730693
732544
-61522.9
-62622.2
-70758.8
-88151.5
-96080.8
-82383.2
-40790.2
28645.3
120854
227541
336830
434748
509000
556289
586105
611138
638867
670861
706762
742173
773145
795317
805879
800204
797421
811536
821185
822985
820596
815986
810116
803491
796429
789144
781801
774542
767489
760755
754437
748605
743311
738609
734580
731325
728910
727387
726769
727024
728123
730068
-28559.7
-29241.2
-15572
-5198.86
9210.55
35144.9
75201.8
128164
189932
254371
314379
363780
400200
426719
450371
477806
511816
551894
597287
644903
690586
729133
757121
772614
784533
803533
819150
825194
823122
816648
809551
802096
794473
786813
779221
771792
764620
757797
751406
745512
740161
735403
731321
728030
725596
724079
723498
723820
725024
727117
-10366.4
-398.887
21423.6
40768.2
59843.1
83362.5
112809
147492
185295
223610
260149
293757
324644
354167
384461
416706
451265
489444
532276
578793
626600
672515
713209
744334
766345
786903
806588
819044
820448
814916
807316
799507
791648
783849
776184
768717
761511
754640
748184
742223
736823
732040
727945
724645
722207
720690
720121
720484
721777
724022
2762.98
24347.2
50533.2
73368.1
94006.8
115479
138923
163883
189616
215583
241565
267693
294115
321204
348695
376415
406028
439582
478447
522673
571194
622178
672146
714886
746208
769664
790176
806244
812329
809676
803136
795711
788068
780411
772857
765470
758294
751391
744861
738842
733454
728745
724712
721403
718903
717324
716721
717091
718463
720865
16162.9
46612.2
75286.8
99231.6
120038
139179
157420
175171
192558
209946
227853
246932
267313
288241
310020
334004
361615
394130
432372
476524
526155
580105
635372
686075
726114
754765
776340
793094
801976
802268
797664
791242
784187
776904
769601
762387
755318
748458
741938
735954
730652
726017
721928
718395
715645
713965
713381
713814
715315
717915
25417.8
62178.2
91969
115741
135645
152840
167595
180522
192603
204670
217306
230699
245345
262057
281481
304539
332117
364920
403361
447518
497116
551316
607943
662445
708622
742893
766908
783751
793300
795313
792371
787103
780729
773902
766891
759869
752930
746147
739638
733576
728086
723158
718745
715014
712377
711041
710700
711276
712923
715709
31483
72120.3
102213
125537
144430
159928
172572
183068
192292
201090
210237
220486
232673
247742
266516
289711
317887
351382
390294
434484
483581
536857
592700
647691
696505
734635
761423
778939
788473
791024
788947
784400
778604
772134
765337
758448
751603
744886
738398
732275
726651
721624
717298
713902
711928
710740
710184
710539
712037
714792
36940.1
77857
107304
129906
147670
161727
172963
182220
190335
198093
206288
215809
227652
242816
262132
286198
315397
349882
389565
434138
483095
535595
590070
643651
692066
731292
759696
778043
787672
790309
788469
784156
778505
772086
765276
758346
751463
744738
738261
732131
726465
721410
717213
714094
712086
710741
710023
710291
711773
714536
36143.8
76808.3
106739
129317
146700
160385
171397
180600
188822
196856
205493
215619
228260
244481
265146
290790
321630
357610
398454
443758
492948
545055
598306
649925
696290
734214
762324
780798
790420
793002
791081
786624
780770
774120
767066
759890
752785
745887
739296
733098
727392
722331
718148
714988
712824
711397
710650
710829
712213
714905
33840.9
71669.7
101597
124660
142811
157604
170038
180922
190994
200997
211712
224021
238904
257310
279987
307375
339591
376489
417775
463095
511933
563264
615136
664686
708570
743944
769944
787402
796504
798719
796421
791510
785153
778004
770478
762868
755384
748178
741361
735025
729263
724209
720018
716746
714344
712670
711718
711734
713019
715677
30401.5
64084.6
93504.3
117893
138193
155386
170234
183429
195669
207711
220414
234736
251685
272195
296959
326325
360268
398497
440642
486375
535264
586308
637450
685628
727377
759948
782758
797956
805899
807259
804183
798468
791292
783364
775128
766895
758894
751294
744214
737740
731941
726887
722622
719124
716355
714274
712975
712752
713924
716583
29296.8
60153.1
88468
113128
134439
152900
169108
183689
197325
210804
225043
241067
259945
282641
309829
341756
378208
418642
462496
509404
559043
610555
661900
709775
750305
780455
799851
812065
818209
818277
814027
807163
798862
789870
780674
771619
762971
754929
747620
741100
735364
730360
726006
722204
718969
716350
714535
713920
714863
717456
28714.3
57548.8
84692.6
109062
130728
149974
167215
182977
197892
212723
228397
245994
266638
291340
320802
355228
394248
437085
482908
531211
581771
634019
686099
734484
774695
803108
819310
828395
832376
830862
825167
816900
807227
796915
786490
776365
766887
758329
750846
744441
738978
734227
729939
725936
722241
718976
716453
715214
715700
718047
28725.3
56126.6
82552.9
106824
128921
148987
167309
184325
200605
216875
234053
253228
275540
302027
333411
369882
410994
455806
503220
552490
603442
655928
708545
757683
798115
825351
838763
844948
846748
843589
836415
826737
815669
803946
792107
780656
770099
760867
753197
747051
742127
737962
734082
730180
726200
722315
719001
716952
716736
718576
28818.5
54863
80678
104801
127140
147734
166812
184745
202064
219492
237944
258490
282258
310288
343294
381461
424300
470730
519395
569274
620197
672551
725717
776223
817825
844650
855758
859404
859205
854368
845711
834709
822400
809391
796158
783284
771478
761404
753448
747574
743325
739984
736821
733335
729354
725079
721130
718334
717384
718595
29396.3
54478.4
79868.9
103818
126215
147059
166537
184998
202981
221215
240613
262246
287245
316647
351148
390918
435422
483448
533420
584079
635248
687778
741760
793773
836250
861455
868649
869497
868736
863180
853513
841508
828259
814268
799931
785869
772947
762025
753637
747775
743887
741079
738424
735260
731338
726878
722567
719295
717804
718403
778951
778951
778951
778951
778950
778950
778950
778950
778949
778949
778949
778948
778948
778947
778947
778946
778945
778945
778944
778943
778941
778940
778939
778938
778936
778935
778934
778932
778931
778930
778929
778928
778926
778925
778924
778922
778921
778919
778917
778915
778913
778911
778908
778906
778904
778902
778899
778897
778895
778893
778853
778853
778853
778853
778853
778853
778852
778852
778852
778851
778851
778851
778850
778850
778849
778848
778848
778847
778846
778845
778844
778843
778841
778840
778839
778837
778836
778835
778834
778832
778831
778830
778829
778828
778826
778825
778823
778821
778819
778817
778815
778813
778811
778809
778806
778804
778802
778800
778797
778795
778756
778756
778756
778755
778755
778755
778755
778755
778754
778754
778754
778753
778753
778752
778752
778751
778750
778749
778748
778747
778746
778745
778744
778742
778741
778740
778738
778737
778736
778735
778734
778733
778731
778730
778729
778727
778725
778724
778722
778720
778718
778715
778713
778711
778709
778707
778704
778702
778700
778697
778658
778658
778658
778658
778658
778657
778657
778657
778657
778656
778656
778655
778655
778655
778654
778653
778653
778652
778651
778650
778649
778647
778646
778645
778643
778642
778641
778640
778638
778637
778636
778635
778634
778632
778631
778629
778628
778626
778624
778622
778620
778618
778616
778613
778611
778609
778607
778604
778602
778600
778560
778560
778560
778560
778560
778560
778560
778559
778559
778559
778558
778558
778557
778557
778556
778556
778555
778554
778553
778552
778551
778550
778549
778547
778546
778545
778543
778542
778541
778540
778539
778537
778536
778535
778533
778532
778530
778528
778527
778524
778522
778520
778518
778516
778514
778511
778509
778507
778504
778502
778463
778463
778463
778463
778463
778462
778462
778462
778462
778461
778461
778460
778460
778459
778459
778458
778457
778457
778456
778455
778454
778452
778451
778450
778448
778447
778446
778445
778443
778442
778441
778440
778439
778437
778436
778434
778433
778431
778429
778427
778425
778423
778420
778418
778416
778414
778411
778409
778407
778404
778365
778365
778365
778365
778365
778365
778365
778364
778364
778364
778363
778363
778362
778362
778361
778361
778360
778359
778358
778357
778356
778355
778353
778352
778351
778350
778348
778347
778346
778345
778344
778342
778341
778340
778338
778337
778335
778333
778331
778329
778327
778325
778323
778320
778318
778316
778314
778311
778309
778307
778268
778268
778268
778267
778267
778267
778267
778267
778266
778266
778266
778265
778265
778264
778264
778263
778262
778262
778261
778260
778258
778257
778256
778255
778253
778252
778251
778250
778248
778247
778246
778245
778244
778242
778241
778239
778237
778236
778234
778232
778229
778227
778225
778223
778220
778218
778216
778214
778211
778209
778170
778170
778170
778170
778170
778170
778169
778169
778169
778168
778168
778168
778167
778167
778166
778165
778165
778164
778163
778162
778161
778160
778158
778157
778156
778155
778153
778152
778151
778150
778149
778147
778146
778145
778143
778142
778140
778138
778136
778134
778132
778129
778127
778125
778123
778120
778118
778116
778114
778111
778072
778072
778072
778072
778072
778072
778072
778072
778071
778071
778070
778070
778070
778069
778069
778068
778067
778066
778065
778064
778063
778062
778061
778060
778058
778057
778056
778055
778053
778052
778051
778050
778048
778047
778046
778044
778042
778040
778038
778036
778034
778032
778030
778027
778025
778023
778020
778018
778016
778014
777975
777975
777975
777975
777975
777974
777974
777974
777974
777973
777973
777972
777972
777971
777971
777970
777970
777969
777968
777967
777966
777965
777963
777962
777961
777959
777958
777957
777956
777955
777953
777952
777951
777949
777948
777946
777945
777943
777941
777938
777936
777934
777932
777930
777927
777925
777923
777920
777918
777916
777877
777877
777877
777877
777877
777877
777877
777876
777876
777876
777875
777875
777874
777874
777873
777873
777872
777871
777870
777869
777868
777867
777866
777865
777863
777862
777861
777860
777858
777857
777856
777855
777853
777852
777850
777849
777847
777845
777843
777841
777839
777836
777834
777832
777830
777827
777825
777823
777820
777818
777780
777780
777780
777780
777779
777779
777779
777779
777779
777778
777778
777777
777777
777776
777776
777775
777774
777774
777773
777772
777771
777769
777768
777767
777766
777764
777763
777762
777761
777760
777758
777757
777756
777754
777753
777751
777749
777747
777745
777743
777741
777739
777736
777734
777732
777730
777727
777725
777723
777720
777682
777682
777682
777682
777682
777682
777681
777681
777681
777681
777680
777680
777679
777679
777678
777678
777677
777676
777675
777674
777673
777672
777671
777669
777668
777667
777666
777664
777663
777662
777661
777660
777658
777657
777655
777653
777652
777650
777648
777645
777643
777641
777639
777636
777634
777632
777630
777627
777625
777623
777585
777584
777584
777584
777584
777584
777584
777584
777583
777583
777583
777582
777582
777581
777581
777580
777579
777578
777578
777577
777576
777574
777573
777572
777571
777569
777568
777567
777566
777564
777563
777562
777561
777559
777557
777556
777554
777552
777550
777548
777546
777543
777541
777539
777537
777534
777532
777530
777527
777525
777487
777487
777487
777487
777487
777487
777486
777486
777486
777485
777485
777485
777484
777484
777483
777482
777482
777481
777480
777479
777478
777477
777476
777474
777473
777472
777471
777469
777468
777467
777466
777464
777463
777461
777460
777458
777456
777454
777452
777450
777448
777446
777443
777441
777439
777437
777434
777432
777430
777427
777389
777389
777389
777389
777389
777389
777389
777388
777388
777388
777387
777387
777386
777386
777385
777385
777384
777383
777382
777381
777380
777379
777378
777377
777376
777374
777373
777372
777371
777369
777368
777367
777365
777364
777362
777360
777359
777357
777355
777352
777350
777348
777346
777343
777341
777339
777337
777334
777332
777330
777292
777292
777292
777292
777292
777291
777291
777291
777291
777290
777290
777289
777289
777288
777288
777287
777286
777286
777285
777284
777283
777282
777280
777279
777278
777277
777276
777274
777273
777272
777270
777269
777268
777266
777265
777263
777261
777259
777257
777255
777253
777250
777248
777246
777244
777241
777239
777237
777234
777232
777194
777194
777194
777194
777194
777194
777193
777193
777193
777193
777192
777192
777191
777191
777190
777190
777189
777188
777187
777186
777185
777184
777183
777182
777180
777179
777178
777177
777175
777174
777173
777172
777170
777169
777167
777165
777163
777161
777159
777157
777155
777153
777150
777148
777146
777144
777141
777139
777137
777134
777097
777097
777097
777096
777096
777096
777096
777096
777095
777095
777095
777094
777094
777093
777093
777092
777091
777090
777090
777089
777088
777086
777085
777084
777083
777082
777080
777079
777078
777077
777075
777074
777072
777071
777069
777068
777066
777064
777062
777059
777057
777055
777053
777051
777048
777046
777044
777041
777039
777037
788190
788190
788190
788189
788189
788189
788188
788188
788187
788187
788186
788185
788184
788184
788183
788183
788182
788182
788182
788181
788094
788093
788092
788091
788089
788088
788087
788085
788084
788082
788080
788078
788077
788075
788074
788072
788071
788070
788068
788067
787998
787996
787994
787992
787990
787987
787985
787983
787980
787978
787975
787972
787970
787968
787965
787963
787960
787958
787955
787953
787903
787900
787897
787893
787890
787887
787884
787881
787877
787874
787870
787867
787864
787861
787857
787854
787850
787847
787843
787840
787807
787803
787799
787795
787791
787787
787783
787779
787774
787770
787766
787762
787758
787754
787750
787745
787741
787737
787732
787728
787712
787707
787702
787697
787692
787687
787682
787677
787671
787666
787662
787657
787652
787648
787643
787637
787632
787627
787621
787616
787617
787611
787605
787599
787593
787587
787581
787575
787569
787563
787557
787552
787547
787541
787535
787529
787523
787517
787511
787505
787522
787515
787508
787501
787494
787488
787480
787473
787466
787460
787453
787447
787441
787434
787428
787421
787414
787407
787400
787393
787427
787419
787412
787404
787396
787388
787380
787372
787364
787357
787349
787342
787334
787327
787320
787312
787305
787297
787290
787282
787333
787324
787315
787306
787298
787289
787280
787271
787262
787253
787245
787237
787228
787220
787212
787204
787195
787187
787179
787170
787238
787229
787219
787209
787199
787189
787180
787170
787160
787150
787141
787131
787122
787113
787104
787095
787086
787077
787068
787058
787144
787133
787123
787112
787101
787090
787080
787069
787058
787047
787037
787026
787016
787005
786995
786985
786976
786966
786956
786946
787050
787038
787027
787015
787003
786992
786980
786968
786956
786944
786933
786921
786910
786898
786887
786876
786865
786855
786844
786833
786956
786943
786931
786918
786906
786893
786880
786867
786854
786842
786829
786816
786804
786791
786779
786767
786755
786743
786731
786719
786862
786849
786835
786822
786808
786794
786780
786767
786753
786739
786725
786712
786698
786684
786671
786658
786645
786632
786619
786606
786768
786754
786739
786725
786710
786696
786681
786666
786652
786637
786622
786607
786593
786578
786563
786549
786534
786520
786506
786492
786675
786659
786644
786628
786613
786597
786582
786566
786550
786535
786519
786503
786487
786472
786456
786440
786425
786409
786394
786379
786581
786565
786548
786532
786515
786499
786482
786466
786449
786433
786416
786399
786383
786366
786349
786332
786315
786299
786282
786266
786488
786470
786453
786436
786418
786401
786383
786366
786348
786331
786313
786296
786278
786260
786242
786224
786206
786189
786171
786153
786394
786376
786358
786340
786321
786303
786285
786266
786248
786229
786211
786192
786173
786155
786136
786117
786098
786079
786060
786042
786301
786282
786263
786244
786224
786205
786186
786167
786147
786128
786108
786089
786069
786050
786030
786010
785990
785970
785950
785931
786208
786188
786168
786148
786128
786108
786087
786067
786047
786027
786006
785986
785965
785945
785924
785903
785882
785862
785841
785820
786116
786095
786074
786053
786032
786011
785989
785968
785947
785926
785904
785883
785861
785840
785818
785797
785775
785753
785732
785710
786024
786002
785980
785958
785936
785914
785891
785869
785847
785825
785803
785780
785758
785735
785713
785690
785668
785645
785623
785601
785932
785909
785886
785863
785840
785817
785794
785771
785748
785724
785701
785678
785655
785631
785608
785584
785561
785538
785514
785491
785841
785817
785793
785769
785745
785721
785697
785672
785648
785624
785600
785576
785552
785527
785503
785479
785454
785430
785406
785382
785749
785724
785699
785675
785650
785625
785600
785575
785549
785524
785499
785474
785449
785424
785399
785373
785348
785323
785298
785273
785659
785633
785607
785581
785555
785529
785503
785477
785451
785425
785399
785373
785347
785321
785295
785269
785242
785217
785191
785165
785568
785541
785514
785488
785461
785434
785407
785380
785353
785326
785299
785272
785245
785218
785191
785164
785137
785110
785083
785056
785478
785450
785422
785395
785367
785339
785311
785283
785255
785227
785199
785172
785144
785116
785088
785060
785032
785004
784977
784949
785388
785359
785331
785302
785273
785244
785216
785187
785158
785129
785100
785072
785043
785014
784985
784956
784928
784899
784870
784841
785299
785269
785239
785210
785180
785150
785120
785091
785061
785031
785002
784972
784942
784913
784883
784853
784824
784794
784764
784735
785209
785179
785148
785118
785087
785056
785026
784995
784965
784934
784903
784873
784842
784812
784781
784750
784720
784689
784659
784628
785121
785089
785058
785026
784995
784963
784931
784900
784868
784837
784805
784774
784742
784711
784679
784648
784617
784585
784554
784522
785032
785000
784967
784935
784902
784870
784837
784805
784773
784740
784708
784675
784643
784611
784578
784546
784514
784481
784449
784417
784944
784911
784877
784844
784811
784777
784744
784711
784677
784644
784611
784577
784544
784511
784477
784444
784411
784378
784345
784312
784856
784822
784788
784754
784719
784685
784651
784617
784582
784548
784514
784479
784445
784411
784377
784343
784309
784275
784241
784207
784769
784734
784699
784664
784629
784593
784558
784523
784488
784452
784417
784382
784347
784312
784277
784242
784207
784172
784137
784102
784682
784646
784610
784574
784538
784502
784466
784430
784394
784358
784321
784285
784249
784213
784177
784141
784105
784070
784034
783998
784596
784559
784522
784485
784448
784411
784374
784337
784300
784263
784226
784189
784152
784115
784078
784041
784004
783968
783931
783894
784510
784472
784434
784396
784359
784321
784283
784245
784207
784169
784131
784093
784055
784017
783979
783941
783904
783866
783829
783791
784424
784386
784347
784308
784270
784231
784192
784153
784114
784075
784036
783997
783958
783920
783881
783842
783804
783765
783727
783688
784339
784300
784260
784221
784181
784141
784102
784062
784022
783982
783942
783902
783863
783823
783783
783744
783704
783665
783625
783585
784254
784214
784174
784133
784093
784052
784012
783971
783930
783889
783849
783808
783767
783727
783686
783645
783605
783564
783524
783483
784170
784129
784088
784046
784005
783964
783922
783881
783839
783797
783756
783714
783672
783631
783589
783548
783506
783465
783423
783382
784086
784044
784002
783960
783918
783875
783833
783791
783748
783706
783663
783620
783578
783536
783493
783451
783408
783366
783323
783281
784003
783960
783917
783874
783831
783788
783744
783701
783658
783614
783571
783528
783484
783441
783398
783354
783311
783267
783224
783181
783920
783876
783832
783789
783745
783701
783656
783612
783568
783524
783479
783435
783391
783347
783303
783258
783214
783170
783125
783081
783838
783793
783748
783704
783659
783614
783569
783524
783479
783434
783388
783343
783298
783253
783208
783163
783118
783072
783027
782982
783756
783710
783665
783619
783573
783527
783482
783436
783390
783344
783298
783252
783206
783160
783114
783068
783022
782976
782930
782884
783674
783628
783581
783535
783488
783442
783395
783348
783302
783255
783208
783162
783115
783068
783021
782974
782927
782881
782834
782787
783593
783546
783499
783451
783404
783356
783309
783261
783214
783166
783119
783071
783024
782976
782929
782881
782833
782786
782738
782691
783513
783465
783416
783368
783320
783272
783223
783175
783127
783078
783030
782982
782934
782885
782837
782788
782740
782692
782643
782595
783433
783383
783334
783285
783236
783187
783138
783089
783040
782991
782942
782893
782844
782795
782745
782696
782647
782598
782549
782500
783353
783303
783253
783203
783153
783104
783054
783004
782954
782904
782854
782805
782755
782705
782655
782605
782555
782505
782455
782405
783274
783223
783172
783122
783071
783020
782970
782919
782869
782818
782767
782717
782666
782615
782564
782514
782463
782412
782362
782311
783195
783144
783092
783041
782989
782938
782886
782835
782784
782732
782681
782629
782578
782526
782475
782423
782372
782320
782269
782217
783117
783065
783012
782960
782908
782856
782804
782752
782699
782647
782595
782543
782490
782438
782386
782333
782281
782229
782177
782124
783040
782987
782933
782880
782827
782775
782722
782669
782616
782563
782510
782457
782404
782350
782297
782244
782191
782138
782085
782032
782963
782909
782855
782801
782748
782694
782640
782586
782533
782479
782425
782371
782317
782263
782209
782156
782102
782048
781994
781940
782887
782832
782777
782723
782668
782614
782559
782505
782450
782396
782341
782286
782232
782177
782122
782068
782013
781958
781903
781849
782811
782756
782700
782645
782590
782534
782479
782424
782368
782313
782258
782202
782147
782091
782036
781980
781925
781869
781814
781758
782736
782680
782624
782568
782512
782455
782399
782343
782287
782231
782175
782119
782062
782006
781950
781894
781837
781781
781725
781669
782662
782605
782548
782491
782434
782377
782320
782263
782207
782150
782093
782036
781979
781922
781865
781808
781751
781694
781637
781580
782588
782531
782473
782415
782357
782300
782242
782184
782127
782069
782011
781953
781896
781838
781780
781723
781665
781607
781549
781492
782515
782457
782398
782340
782281
782223
782164
782106
782047
781989
781930
781872
781813
781755
781697
781638
781580
781521
781463
781404
782443
782384
782324
782265
782206
782146
782087
782028
781969
781909
781850
781791
781732
781672
781613
781554
781495
781436
781377
781318
782371
782311
782251
782191
782131
782071
782010
781950
781890
781830
781770
781710
781651
781591
781531
781471
781411
781351
781291
781231
782300
782239
782178
782117
782056
781995
781935
781874
781813
781752
781691
781631
781570
781509
781449
781388
781328
781267
781207
781146
782229
782167
782106
782044
781982
781921
781859
781798
781736
781675
781613
781552
781490
781429
781367
781306
781245
781184
781122
781060
782159
782096
782034
781972
781909
781847
781784
781722
781660
781598
781535
781473
781411
781349
781287
781224
781162
781100
781038
780976
782089
782026
781963
781900
781837
781774
781710
781647
781584
781521
781458
781395
781332
781269
781206
781143
781080
781017
780954
780891
782020
781956
781892
781829
781765
781701
781637
781573
781509
781445
781382
781318
781254
781190
781127
781063
780999
780935
780871
780808
781952
781887
781822
781758
781693
781629
781564
781500
781435
781370
781306
781241
781177
781112
781048
780983
780918
780854
780789
780725
781884
781818
781753
781688
781623
781557
781492
781427
781361
781296
781231
781165
781100
781035
780969
780904
780838
780773
780708
780642
781816
781750
781684
781618
781552
781486
781420
781354
781288
781222
781156
781090
781024
780958
780892
780825
780759
780693
780627
780561
781750
781683
781616
781550
781483
781416
781349
781283
781216
781149
781082
781015
780949
780882
780815
780748
780681
780614
780547
780480
781684
781616
781549
781481
781414
781347
781279
781212
781144
781077
781009
780942
780874
780806
780739
780671
780603
780536
780468
780401
781618
781550
781482
781414
781346
781278
781210
781141
781073
781005
780937
780868
780800
780732
780663
780595
780527
780458
780390
780322
781554
781485
781416
781347
781278
781209
781141
781072
781003
780934
780865
780796
780727
780658
780589
780520
780451
780382
780313
780244
781489
781420
781350
781281
781211
781142
781072
781003
780933
780863
780794
780724
780655
780585
780515
780446
780376
780306
780237
780167
781426
781356
781285
781215
781145
781075
781005
780934
780864
780794
780724
780653
780583
780513
780443
780372
780302
780232
780161
780091
781363
781292
781221
781150
781079
781008
780938
780867
780796
780725
780654
780583
780512
780441
780371
780300
780229
780158
780087
780016
781301
781229
781158
781086
781014
780943
780871
780800
780728
780657
780585
780514
780442
780371
780299
780228
780156
780085
780013
779941
781239
781167
781095
781022
780950
780878
780806
780733
780661
780589
780517
780445
780373
780301
780229
780157
780085
780012
779940
779868
781178
781105
781032
780959
780887
780814
780741
780668
780595
780522
780450
780377
780304
780232
780159
780086
780014
779941
779868
779795
781118
781044
780971
780897
780824
780750
780677
780603
780530
780456
780383
780310
780237
780163
780090
780017
779943
779870
779797
779723
781058
780984
780910
780835
780761
780687
780613
780539
780465
780391
780317
780243
780169
780096
780022
779948
779874
779800
779726
779652
780999
780924
780849
780774
780700
780625
780550
780476
780401
780327
780252
780178
780103
780029
779954
779879
779805
779730
779656
779581
780940
780865
780789
780714
780639
780564
780489
780413
780338
780263
780188
780113
780037
779962
779887
779812
779737
779662
779586
779511
780882
780806
780730
780655
780579
780503
780427
780352
780276
780200
780124
780048
779973
779897
779821
779745
779669
779594
779518
779442
780825
780749
780672
780596
780519
780443
780367
780291
780214
780138
780061
779985
779909
779832
779756
779679
779603
779526
779450
779373
780769
780692
780615
780538
780461
780384
780307
780230
780153
780076
779999
779922
779845
779768
779691
779614
779537
779460
779383
779305
780713
780636
780558
780481
780403
780326
780248
780171
780093
780016
779938
779860
779783
779705
779627
779550
779472
779394
779316
779239
780658
780580
780502
780424
780346
780268
780190
780112
780034
779956
779877
779799
779721
779643
779564
779486
779408
779329
779251
779173
780605
780526
780447
780368
780290
780211
780132
780054
779975
779896
779818
779739
779660
779581
779502
779423
779345
779266
779187
779108
780551
780472
780393
780313
780234
780155
780076
779997
779917
779838
779759
779679
779600
779520
779441
779362
779282
779203
779123
779044
780499
780419
780339
780259
780180
780100
780020
779940
779860
779780
779700
779621
779541
779461
779381
779301
779221
779141
779060
778980
780447
780367
780286
780206
780126
780045
779965
779884
779804
779724
779643
779563
779482
779402
779321
779240
779160
779079
778999
778918
780397
780316
780234
780154
780073
779992
779911
779830
779749
779667
779586
779505
779424
779343
779262
779181
779100
779019
778938
778857
780347
780265
780183
780102
780020
779939
779857
779775
779694
779612
779531
779449
779368
779286
779204
779123
779041
778960
778878
778796
780297
780215
780133
780051
779969
779887
779804
779722
779640
779558
779476
779394
779312
779229
779147
779065
778983
778901
778819
778737
780249
780166
780083
780001
779918
779835
779753
779670
779587
779505
779422
779339
779257
779174
779091
779009
778926
778843
778761
778678
780201
780118
780035
779951
779868
779785
779702
779618
779535
779452
779369
779286
779203
779119
779036
778953
778870
778787
778704
778621
780154
780070
779987
779903
779819
779735
779652
779568
779484
779400
779317
779233
779149
779066
778982
778898
778815
778731
778648
778564
780108
780024
779939
779855
779771
779687
779602
779518
779434
779350
779266
779181
779097
779013
778929
778845
778761
778677
778592
778508
780062
779978
779893
779808
779724
779639
779554
779469
779385
779300
779215
779131
779046
778961
778877
778792
778707
778623
778538
778454
780018
779933
779848
779762
779677
779592
779507
779422
779336
779251
779166
779081
778996
778911
778825
778740
778655
778570
778485
778400
779974
779888
779803
779717
779632
779546
779460
779375
779289
779203
779118