/*--------------------------------*- C++ -*----------------------------------*\
  =========                 |
  \\      /  F ield         | OpenFOAM: The Open Source CFD Toolbox
   \\    /   O peration     | Website:  https://openfoam.org
    \\  /    A nd           | Version:  8
     \\/     M anipulation  |
\*---------------------------------------------------------------------------*/
FoamFile
{
    version     2.0;
    format      ascii;
    class       volScalarField;
    location    "1000";
    object      p_rgh;
}
// * * * * * * * * * * * * * * * * * * * * * * * * * * * * * * * * * * * * * //

dimensions      [1 -1 -2 0 0 0 0];

internalField   nonuniform List<scalar> 
8400
(
-3990.47
-20017.2
-38811.2
-58784.7
-76414.6
-88022.7
-89628.5
-76957.5
-45492.5
9522.2
92615.5
203430
331012
457403
566919
652718
715715
760241
790138
807415
814187
814828
813643
812093
810505
808781
806554
803428
799206
793897
787639
780640
773140
765380
757584
749949
742644
735811
729569
724009
719207
715229
712137
709984
708797
708566
709237
710757
713195
716601
-1879.69
-17511.5
-38860.4
-62498.2
-83995.6
-99482.3
-105310
-97276.6
-70617.6
-19854.7
60231.1
170229
300431
432137
548231
640520
709022
757502
789732
808359
815573
815613
813887
812121
810563
809129
807201
804147
799793
794241
787707
780448
772730
764794
756859
749122
741750
734875
728603
723018
718195
714198
711086
708904
707679
707402
708014
709443
711684
714750
5775.26
-9965.58
-36347.2
-63700.6
-87581.3
-104589
-111801
-104891
-79110.4
-30783.1
45234
152478
284653
419992
538152
631871
702500
753694
788380
809320
818134
817827
814541
811839
810117
809463
808349
805419
800728
794655
787596
779889
771822
763635
755528
747677
740232
733319
727031
721442
716622
712637
709551
707412
706242
706034
706736
708264
710572
713628
-11409.6
-22579.7
-40704.9
-65297.1
-88315.4
-104649
-110399
-101914
-75352.9
-25172.9
54979.3
167657
300593
427368
531817
613827
678867
730499
769461
796489
810831
814842
813418
809409
807429
809292
810170
807201
801751
794788
786935
778599
770065
761550
753225
745237
737713
730755
724444
718844
714012
710013
706915
704773
703613
703436
704195
705806
708208
711369
-58760.1
-40000.7
-38182.9
-51139.8
-63676.8
-68144.9
-59296.6
-34268
8334.52
70841
154234
252704
352134
437097
504017
559020
608542
655018
698626
737798
769953
791918
800409
800801
805620
813529
814376
809570
802590
794360
785568
776576
767609
758823
750340
742271
734716
727760
721468
715889
711069
707070
703968
701833
700704
700588
701442
703180
705730
709057
-34362.7
-27402.3
-12726.7
-5114.96
1754.28
13461
32961.2
61881.8
100884
149936
207325
268421
326963
378451
423296
465175
507506
551632
597512
643898
688125
725967
753177
772698
791046
806931
812874
809886
802025
792473
782879
773404
764157
755222
746676
738593
731049
724115
717848
712289
707477
703475
700369
698246
697155
697116
698089
699993
702749
706313
-18849.4
-7308.59
12968.3
28840.8
42431.8
57768.7
76977.3
101069
130259
164134
201723
241715
282643
323345
363692
404120
444818
486696
530960
577439
624140
667544
704861
736656
763911
786344
800081
802767
797206
788122
778461
768994
759809
750973
742543
734572
727119
720251
714029
708506
703728
699751
696659
694550
693488
693506
694582
696647
699625
703457
-9461.99
9904.65
33261.5
52430.2
69073.9
86095.9
104896
125854
149057
174605
202543
232864
265319
299405
334138
368950
404627
442262
482792
526486
572465
618835
663124
702277
734584
760579
779337
788355
787491
780872
772321
763517
754801
746325
738177
730421
723114
716332
710170
704718
700029
696127
693056
690918
689822
689848
691000
693224
696444
700574
1218.35
27102.3
52581.2
73362.7
91442.3
108812
126214
143946
162328
181808
202897
226004
251087
277630
305496
335044
366918
401907
440661
483428
529845
578804
627671
672152
708914
737490
758636
771545
775185
771843
765254
757638
749711
741794
734056
726600
719505
712867
706814
701466
696861
692964
689784
687480
686269
686306
687567
689981
693475
697929
9491.03
40223.5
66619.3
87741.8
105912
122676
138428
153461
168325
183644
199979
217692
237119
258589
282388
308975
338887
372650
410663
453081
499703
549665
600660
648638
689275
720575
743149
757635
763866
763228
758692
752404
745341
738038
730735
723589
716710
710201
704185
698773
694013
689916
686603
684333
683315
683594
685018
687581
691279
695985
15608.4
49450.6
75923.6
96939.2
114817
130717
145063
158251
170844
183471
196746
211255
227572
246286
267954
293108
322216
355644
393583
436017
482653
532673
584176
633669
676729
710342
734197
749258
756396
757180
754023
748777
742499
735730
728795
721914
715229
708852
702889
697457
692669
688660
685627
683766
683080
683318
684522
686882
690482
695196
20890.1
55387.8
81183.7
101845
119187
134140
147316
159282
170631
181963
193898
207096
222255
240079
261220
286230
315533
349397
387885
430829
477777
527781
579026
628417
671994
706608
731260
746584
753877
755057
752427
747659
741736
735199
728409
721625
715017
708708
702802
697407
692654
688715
685804
684032
683299
683407
684507
686804
690361
695059
21438.3
55731.9
81664.9
102383
119477
134060
146889
158578
169714
180890
192736
205941
221255
239444
261204
287082
317441
352441
392035
435951
483596
533809
584577
632928
675415
709343
733725
748876
755981
757045
754340
749494
743468
736807
729882
722959
716230
709831
703873
698460
693715
689795
686873
685034
684229
684338
685411
687610
691030
695597
20818.8
53550.3
79635.4
100664
117999
132879
146127
158389
170261
182352
195311
209833
226650
246474
269919
297432
329280
365554
406188
450909
499055
549282
599304
646106
686548
718422
741229
755463
761963
762561
759400
754076
747568
740456
733117
725820
718762
712093
705933
700393
695587
691647
688695
686790
685911
685969
686967
689037
692289
696679
18385.2
48434.7
74495.3
96410.9
115082
131461
146270
160125
173624
187396
202124
218532
237355
259255
284755
314180
347676
385283
426956
472477
521158
571463
620831
666057
704100
733183
753389
765855
771246
770974
767001
760865
753569
745726
737729
729846
722279
715188
708707
702956
698043
694066
691095
689154
688214
688187
689057
690943
693963
698110
17419.7
45388.9
70936.1
93346.4
113060
130661
146749
161918
176789
192038
208402
226652
247541
271707
299584
331353
366996
406417
449536
496197
545757
596580
645847
690051
726009
752180
769288
779390
783226
781716
776607
769378
761045
752246
743384
734729
726489
718846
711959
705965
700961
697000
694087
692189
691235
691098
691750
693322
695966
699731
17216.9
43618.4
68457.7
90870.6
111077
129460
146495
162726
178773
195328
213164
233096
255901
282213
312423
346618
384628
426178
471044
519052
569700
621435
671247
715211
749788
773389
787324
794840
796888
793906
787436
778917
769373
759456
749558
739944
730844
722485
715084
708810
703756
699913
697199
695488
694608
694368
694734
695872
697996
701232
17784.4
42990.9
67318.8
89714.9
110314
129372
147277
164526
181713
199529
218755
240216
264697
292833
325002
361251
401314
444751
491134
540184
591556
644028
694636
738985
772894
794470
805481
810481
810764
806299
798448
788646
777935
766939
755998
745348
735243
725997
717934
711300
706195
702550
700167
698782
698084
697801
697893
698554
700066
702649
18449.4
42455.5
66321.7
88643.7
109486
129019
147580
165626
183732
202584
222956
245665
271488
301049
334716
372523
414144
458996
506454
556109
607774
660760
712531
758229
792563
812886
821414
824095
822682
816702
807439
796411
784696
772845
761069
749513
738445
728283
719493
712439
707260
703834
701842
700860
700432
700218
700159
700459
701447
703412
19516.3
42695.5
66262.7
88516.5
109491
129319
148304
166888
185650
205282
226554
250273
277210
307981
342938
382097
425080
471190
519640
569911
621945
675512
728474
775457
809782
827928
833286
834172
832267
825494
815150
803083
790517
777967
765525
753243
741378
730424
720963
713458
708090
704710
702911
702150
701880
701714
701571
701646
702262
703686
788775
788774
788774
788774
788774
788774
788774
788774
788774
788774
788774
788774
788774
788774
788774
788773
788773
788773
788773
788773
788773
788773
788772
788772
788772
788771
788771
788771
788770
788770
788770
788769
788769
788769
788769
788769
788768
788768
788768
788767
788767
788767
788766
788766
788765
788764
788764
788763
788763
788762
788774
788774
788774
788774
788774
788774
788774
788774
788774
788774
788774
788774
788774
788773
788773
788773
788773
788773
788773
788773
788773
788772
788772
788772
788771
788771
788771
788770
788770
788770
788769
788769
788769
788769
788768
788768
788768
788768
788767
788767
788767
788766
788766
788765
788765
788764
788764
788763
788762
788762
788774
788774
788774
788774
788774
788774
788774
788774
788774
788774
788774
788774
788774
788773
788773
788773
788773
788773
788773
788773
788773
788772
788772
788772
788771
788771
788771
788770
788770
788770
788769
788769
788769
788769
788768
788768
788768
788768
788767
788767
788767
788766
788766
788765
788765
788764
788763
788763
788762
788762
788774
788774
788774
788774
788774
788774
788774
788774
788774
788774
788774
788774
788774
788773
788773
788773
788773
788773
788773
788773
788773
788772
788772
788772
788771
788771
788771
788770
788770
788770
788769
788769
788769
788769
788768
788768
788768
788768
788767
788767
788767
788766
788766
788765
788765
788764
788763
788763
788762
788762
788774
788774
788774
788774
788774
788774
788774
788774
788774
788774
788774
788774
788774
788773
788773
788773
788773
788773
788773
788773
788773
788772
788772
788772
788771
788771
788771
788770
788770
788770
788769
788769
788769
788769
788768
788768
788768
788768
788767
788767
788767
788766
788766
788765
788764
788764
788763
788763
788762
788762
788774
788774
788774
788774
788774
788774
788774
788774
788774
788774
788774
788774
788774
788773
788773
788773
788773
788773
788773
788773
788773
788772
788772
788772
788771
788771
788771
788770
788770
788770
788769
788769
788769
788769
788769
788768
788768
788768
788767
788767
788767
788766
788766
788765
788764
788764
788763
788763
788762
788762
788774
788774
788774
788774
788774
788774
788774
788774
788774
788774
788774
788774
788774
788773
788773
788773
788773
788773
788773
788773
788773
788772
788772
788772
788771
788771
788771
788770
788770
788770
788769
788769
788769
788769
788769
788768
788768
788768
788767
788767
788767
788766
788766
788765
788764
788764
788763
788763
788762
788762
788774
788774
788774
788774
788774
788774
788774
788774
788774
788774
788774
788774
788774
788773
788773
788773
788773
788773
788773
788773
788772
788772
788772
788772
788771
788771
788771
788770
788770
788770
788769
788769
788769
788769
788769
788768
788768
788768
788767
788767
788767
788766
788766
788765
788764
788764
788763
788763
788762
788762
788774
788774
788774
788774
788774
788774
788774
788774
788774
788774
788774
788774
788774
788773
788773
788773
788773
788773
788773
788773
788772
788772
788772
788772
788771
788771
788771
788770
788770
788770
788769
788769
788769
788769
788769
788768
788768
788768
788767
788767
788767
788766
788766
788765
788764
788764
788763
788763
788762
788762
788774
788774
788774
788774
788774
788774
788774
788774
788774
788774
788774
788774
788774
788773
788773
788773
788773
788773
788773
788773
788772
788772
788772
788772
788771
788771
788771
788770
788770
788770
788769
788769
788769
788769
788769
788768
788768
788768
788767
788767
788767
788766
788766
788765
788764
788764
788763
788763
788762
788762
788774
788774
788774
788774
788774
788774
788774
788774
788774
788774
788774
788774
788774
788773
788773
788773
788773
788773
788773
788773
788772
788772
788772
788772
788771
788771
788771
788770
788770
788770
788770
788769
788769
788769
788769
788768
788768
788768
788767
788767
788767
788766
788766
788765
788764
788764
788763
788763
788762
788762
788774
788774
788774
788774
788774
788774
788774
788774
788774
788774
788774
788774
788774
788773
788773
788773
788773
788773
788773
788773
788772
788772
788772
788772
788771
788771
788771
788770
788770
788770
788770
788769
788769
788769
788769
788768
788768
788768
788767
788767
788767
788766
788765
788765
788764
788764
788763
788763
788762
788762
788774
788774
788774
788774
788774
788774
788774
788774
788774
788774
788774
788774
788774
788773
788773
788773
788773
788773
788773
788773
788772
788772
788772
788772
788771
788771
788771
788770
788770
788770
788770
788769
788769
788769
788769
788768
788768
788768
788767
788767
788767
788766
788765
788765
788764
788764
788763
788763
788762
788762
788774
788774
788774
788774
788774
788774
788774
788774
788774
788774
788774
788774
788774
788773
788773
788773
788773
788773
788773
788773
788772
788772
788772
788772
788771
788771
788771
788770
788770
788770
788770
788769
788769
788769
788769
788768
788768
788768
788767
788767
788766
788766
788765
788765
788764
788764
788763
788763
788762
788762
788774
788774
788774
788774
788774
788774
788774
788774
788774
788774
788774
788774
788774
788773
788773
788773
788773
788773
788773
788773
788772
788772
788772
788772
788771
788771
788771
788770
788770
788770
788770
788769
788769
788769
788769
788768
788768
788768
788767
788767
788766
788766
788765
788765
788764
788764
788763
788763
788762
788762
788774
788774
788774
788774
788774
788774
788774
788774
788774
788774
788774
788774
788774
788773
788773
788773
788773
788773
788773
788773
788772
788772
788772
788772
788771
788771
788771
788770
788770
788770
788770
788769
788769
788769
788769
788768
788768
788768
788767
788767
788766
788766
788765
788765
788764
788764
788763
788763
788762
788762
788774
788774
788774
788774
788774
788774
788774
788774
788774
788774
788774
788774
788774
788773
788773
788773
788773
788773
788773
788773
788772
788772
788772
788772
788771
788771
788771
788770
788770
788770
788770
788769
788769
788769
788769
788768
788768
788768
788767
788767
788766
788766
788765
788765
788764
788764
788763
788763
788762
788762
788774
788774
788774
788774
788774
788774
788774
788774
788774
788774
788774
788774
788774
788773
788773
788773
788773
788773
788773
788773
788772
788772
788772
788772
788771
788771
788771
788770
788770
788770
788770
788769
788769
788769
788769
788768
788768
788768
788767
788767
788766
788766
788765
788765
788764
788764
788763
788763
788762
788762
788774
788774
788774
788774
788774
788774
788774
788774
788774
788774
788774
788774
788774
788773
788773
788773
788773
788773
788773
788773
788772
788772
788772
788772
788771
788771
788771
788771
788770
788770
788770
788770
788769
788769
788769
788769
788768
788768
788767
788767
788767
788766
788766
788765
788764
788764
788763
788763
788762
788762
788775
788774
788774
788774
788774
788774
788774
788774
788774
788774
788774
788774
788774
788774
788774
788773
788773
788773
788773
788773
788773
788773
788772
788772
788772
788771
788771
788771
788771
788770
788770
788770
788770
788769
788769
788769
788769
788768
788768
788767
788767
788766
788766
788765
788765
788764
788764
788763
788763
788762
788514
788514
788514
788514
788514
788515
788515
788515
788515
788515
788515
788515
788515
788515
788515
788515
788515
788515
788515
788515
788515
788515
788515
788516
788516
788516
788516
788516
788516
788516
788516
788516
788516
788516
788516
788517
788516
788516
788516
788517
788516
788517
788517
788517
788517
788517
788517
788517
788517
788517
788518
788518
788518
788518
788518
788518
788518
788518
788518
788518
788518
788518
788518
788518
788518
788519
788519
788519
788519
788519
788519
788520
788520
788520
788520
788520
788520
788520
788520
788520
788519
788519
788519
788520
788520
788520
788520
788520
788520
788520
788521
788521
788522
788522
788522
788522
788522
788522
788522
788523
788521
788521
788521
788521
788521
788521
788522
788522
788522
788522
788522
788523
788523
788524
788524
788524
788524
788524
788524
788525
788522
788522
788522
788523
788523
788523
788523
788523
788523
788524
788524
788524
788525
788525
788526
788526
788526
788526
788527
788527
788524
788524
788524
788524
788524
788525
788525
788525
788525
788525
788525
788526
788526
788527
788527
788527
788528
788528
788529
788529
788525
788526
788526
788526
788526
788526
788526
788526
788526
788527
788527
788527
788528
788528
788528
788529
788529
788530
788530
788531
788527
788527
788527
788528
788528
788528
788528
788528
788528
788528
788528
788529
788529
788529
788530
788530
788531
788532
788532
788532
788529
788529
788529
788529
788530
788530
788530
788530
788530
788530
788530
788530
788531
788531
788531
788532
788532
788533
788533
788534
788531
788531
788531
788531
788531
788531
788531
788532
788532
788532
788532
788532
788532
788532
788533
788533
788534
788534
788535
788535
788533
788533
788533
788533
788533
788533
788533
788533
788533
788534
788534
788534
788534
788534
788534
788534
788535
788535
788536
788536
788535
788535
788535
788535
788535
788535
788535
788535
788535
788535
788535
788536
788536
788536
788536
788536
788536
788537
788537
788537
788537
788537
788537
788537
788537
788537
788537
788537
788537
788537
788537
788537
788537
788537
788537
788538
788538
788538
788538
788539
788539
788539
788539
788539
788539
788539
788539
788539
788539
788539
788539
788539
788539
788539
788539
788539
788539
788539
788539
788540
788541
788541
788541
788541
788541
788541
788541
788541
788541
788542
788542
788542
788542
788541
788541
788541
788541
788541
788541
788541
788543
788543
788543
788543
788543
788543
788543
788543
788543
788544
788544
788544
788544
788544
788543
788543
788543
788543
788543
788543
788545
788545
788545
788545
788545
788545
788545
788545
788546
788546
788546
788546
788546
788546
788546
788546
788545
788545
788545
788545
788547
788547
788547
788547
788547
788547
788547
788548
788548
788548
788548
788548
788548
788548
788548
788548
788548
788547
788547
788547
788549
788549
788549
788549
788549
788549
788549
788550
788550
788550
788550
788550
788550
788550
788550
788550
788550
788550
788550
788550
788551
788551
788551
788551
788551
788551
788552
788552
788552
788552
788552
788552
788552
788552
788552
788552
788552
788552
788552
788552
788553
788553
788553
788553
788553
788554
788554
788554
788554
788554
788554
788554
788554
788554
788554
788554
788554
788554
788554
788554
788555
788555
788555
788555
788556
788556
788556
788556
788556
788556
788556
788556
788556
788556
788556
788556
788556
788556
788557
788557
788557
788557
788557
788558
788558
788558
788558
788558
788558
788558
788558
788558
788558
788558
788558
788558
788558
788559
788559
788559
788560
788560
788560
788560
788560
788560
788560
788560
788560
788560
788560
788560
788560
788560
788560
788561
788561
788561
788561
788561
788562
788562
788562
788562
788562
788562
788562
788562
788562
788562
788562
788562
788562
788563
788563
788563
788563
788563
788563
788563
788564
788564
788564
788564
788564
788564
788564
788564
788564
788564
788565
788565
788565
788565
788565
788565
788565
788565
788565
788565
788566
788566
788566
788566
788566
788566
788566
788566
788567
788567
788567
788567
788567
788567
788567
788567
788567
788567
788567
788568
788568
788568
788568
788568
788568
788568
788568
788569
788569
788569
788569
788569
788569
788569
788569
788569
788569
788570
788570
788570
788570
788570
788570
788570
788570
788571
788571
788571
788571
788571
788571
788571
788571
788571
788571
788571
788572
788572
788572
788572
788573
788572
788572
788572
788573
788573
788573
788573
788573
788573
788573
788573
788573
788573
788573
788574
788574
788574
788574
788574
788575
788575
788574
788575
788575
788575
788575
788575
788575
788575
788575
788575
788575
788575
788575
788576
788576
788576
788576
788576
788577
788577
788577
788577
788577
788577
788577
788577
788577
788577
788577
788577
788577
788577
788577
788578
788578
788578
788578
788578
788579
788579
788579
788579
788579
788579
788579
788579
788579
788579
788579
788579
788579
788579
788579
788580
788580
788580
788580
788580
788581
788581
788581
788581
788581
788581
788581
788581
788581
788581
788581
788581
788581
788581
788581
788581
788582
788582
788582
788582
788583
788583
788583
788583
788583
788583
788583
788583
788583
788583
788583
788583
788583
788583
788583
788583
788584
788584
788584
788584
788585
788585
788585
788585
788585
788585
788585
788585
788585
788585
788585
788585
788585
788585
788585
788585
788585
788586
788586
788586
788587
788587
788587
788587
788587
788587
788587
788587
788587
788587
788587
788587
788587
788587
788587
788587
788587
788588
788588
788588
788589
788589
788589
788589
788589
788589
788589
788589
788589
788589
788589
788589
788589
788589
788589
788589
788589
788589
788590
788590
788591
788591
788591
788591
788591
788591
788591
788591
788591
788591
788591
788591
788591
788591
788591
788591
788591
788591
788591
788592
788593
788593
788593
788593
788593
788593
788593
788593
788593
788593
788593
788593
788593
788593
788593
788593
788593
788593
788593
788593
788595
788595
788595
788595
788595
788595
788595
788595
788595
788595
788595
788595
788595
788595
788595
788595
788595
788595
788595
788595
788597
788597
788597
788597
788597
788597
788597
788597
788597
788597
788597
788597
788597
788597
788597
788597
788597
788597
788597
788597
788599
788599
788599
788599
788599
788599
788599
788599
788599
788599
788599
788599
788599
788599
788599
788599
788599
788599
788599
788599
788601
788601
788601
788601
788601
788601
788601
788601
788601
788601
788601
788601
788601
788601
788601
788601
788601
788600
788600
788601
788603
788603
788603
788603
788603
788603
788603
788603
788603
788603
788603
788603
788603
788603
788603
788603
788603
788602
788602
788603
788605
788605
788605
788605
788605
788605
788605
788605
788605
788605
788605
788605
788605
788605
788605
788605
788605
788605
788605
788605
788607
788607
788607
788607
788607
788607
788607
788607
788607
788607
788607
788607
788607
788607
788607
788607
788607
788607
788607
788607
788610
788609
788609
788609
788609
788609
788609
788609
788609
788609
788609
788609
788609
788609
788609
788609
788609
788609
788609
788609
788612
788611
788611
788611
788611
788611
788611
788611
788611
788611
788611
788611
788612
788611
788611
788611
788611
788611
788611
788612
788614
788613
788613
788613
788613
788613
788613
788613
788613
788613
788614
788614
788614
788614
788614
788614
788614
788614
788614
788614
788616
788615
788615
788615
788615
788615
788615
788615
788616
788616
788616
788616
788616
788616
788616
788616
788616
788616
788616
788616
788618
788617
788617
788617
788617
788617
788617
788618
788618
788618
788618
788618
788618
788618
788618
788618
788618
788618
788619
788619
788620
788619
788619
788619
788619
788619
788620
788620
788620
788620
788620
788620
788620
788620
788620
788620
788620
788621
788621
788621
788622
788621
788621
788621
788621
788622
788622
788622
788622
788622
788622
788622
788622
788622
788622
788623
788623
788623
788623
788623
788624
788624
788623
788623
788624
788624
788624
788624
788624
788624
788624
788624
788624
788625
788625
788625
788625
788625
788625
788625
788626
788626
788626
788626
788626
788626
788626
788626
788626
788626
788626
788627
788627
788627
788627
788627
788627
788627
788627
788628
788628
788628
788628
788628
788628
788628
788628
788628
788628
788629
788629
788629
788629
788629
788629
788629
788629
788629
788629
788630
788630
788630
788630
788630
788630
788630
788630
788631
788631
788631
788631
788631
788631
788631
788631
788631
788631
788631
788632
788632
788632
788632
788632
788632
788632
788632
788633
788633
788633
788633
788633
788633
788633
788633
788633
788633
788634
788634
788634
788634
788635
788634
788634
788634
788635
788635
788635
788635
788635
788635
788635
788635
788635
788636
788636
788636
788636
788636
788636
788637
788637
788637
788637
788637
788637
788637
788637
788637
788637
788637
788637
788638
788638
788638
788638
788638
788638
788638
788639
788639
788639
788639
788639
788639
788639
788639
788639
788639
788639
788640
788640
788640
788640
788640
788640
788640
788640
788641
788641
788641
788642
788641
788641
788641
788641
788641
788641
788642
788642
788642
788642
788642
788642
788642
788642
788643
788643
788643
788643
788644
788644
788644
788643
788643
788643
788644
788644
788644
788644
788644
788644
788644
788644
788644
788645
788645
788645
788645
788646
788646
788646
788646
788646
788646
788646
788646
788646
788646
788646
788646
788646
788646
788646
788647
788647
788647
788647
788648
788648
788648
788648
788648
788648
788648
788648
788648
788648
788648
788648
788648
788648
788648
788649
788649
788649
788649
788649
788650
788650
788650
788650
788650
788650
788650
788650
788650
788650
788650
788650
788650
788650
788651
788651
788651
788651
788651
788651
788652
788652
788652
788652
788652
788652
788652
788652
788652
788652
788652
788652
788652
788653
788653
788653
788653
788653
788653
788653
788654
788654
788654
788655
788654
788654
788654
788654
788654
788654
788654
788654
788655
788655
788655
788655
788655
788655
788655
788655
788656
788656
788656
788657
788656
788656
788656
788656
788656
788656
788656
788657
788657
788657
788657
788657
788657
788657
788657
788657
788657
788657
788658
788659
788658
788658
788658
788658
788658
788658
788659
788659
788659
788659
788659
788659
788659
788659
788659
788659
788659
788659
788660
788661
788660
788660
788660
788660
788660
788660
788661
788661
788661
788661
788661
788661
788661
788661
788661
788661
788661
788661
788661
788663
788662
788662
788662
788662
788662
788662
788663
788663
788663
788663
788663
788663
788663
788663
788663
788663
788663
788663
788663
788665
788664
788664
788664
788664
788664
788664
788665
788665
788665
788665
788665
788664
788664
788664
788664
788664
788665
788665
788665
788667
788666
788666
788666
788666
788666
788666
788666
788666
788666
788666
788666
788666
788666
788666
788666
788666
788667
788667
788667
788669
788668
788668
788668
788668
788668
788668
788668
788668
788668
788668
788668
788668
788668
788668
788668
788668
788668
788669
788669
788671
788670
788670
788670
788670
788670
788670
788670
788670
788670
788670
788670
788670
788670
788670
788670
788670
788671
788671
788671
788672
788672
788672
788672
788672
788672
788672
788672
788672
788672
788672
788672
788672
788672
788672
788672
788672
788673
788673
788673
788674
788674
788674
788674
788674
788674
788674
788674
788674
788674
788674
788674
788674
788674
788674
788674
788674
788675
788675
788675
788676
788676
788676
788676
788676
788676
788676
788676
788676
788676
788676
788676
788676
788676
788676
788676
788676
788677
788677
788677
788678
788678
788677
788677
788677
788677
788677
788677
788678
788678
788678
788678
788678
788678
788678
788678
788678
788679
788679
788679
788680
788679
788679
788679
788679
788679
788679
788679
788679
788679
788680
788680
788680
788680
788680
788680
788680
788681
788681
788681
788681
788681
788681
788681
788681
788681
788681
788681
788681
788681
788681
788681
788682
788682
788682
788682
788682
788682
788683
788683
788683
788683
788683
788683
788683
788683
788683
788683
788683
788683
788683
788683
788683
788683
788684
788684
788684
788684
788685
788685
788685
788684
788684
788684
788684
788684
788684
788684
788685
788685
788685
788685
788685
788685
788685
788685
788686
788686
788686
788687
788686
788686
788686
788686
788686
788686
788686
788686
788686
788686
788687
788687
788687
788687
788687
788687
788687
788688
788688
788688
788688
788687
788687
788687
788687
788688
788688
788688
788688
788688
788688
788688
788688
788688
788689
788689
788689
788689
788689
788690
788689
788689
788689
788689
788689
788689
788689
788690
788690
788690
788690
788690
788690
788690
788690
788690
788690
788691
788691
788691
788691
788691
788690
788691
788691
788691
788691
788691
788691
788691
788691
788692
788692
788692
788692
788692
788692
788692
788692
788693
788692
788692
788692
788692
788692
788692
788693
788693
788693
788693
788693
788693
788693
788693
788693
788693
788693
788694
788694
788694
788694
788694
788694
788694
788694
788694
788694
788694
788694
788694
788695
788695
788695
788695
788695
788695
788695
788695
788695
788696
788695
788695
788695
788695
788695
788695
788696
788696
788696
788696
788696
788696
788696
788696
788696
788696
788696
788697
788697
788697
788697
788697
788697
788697
788697
788697
788697
788697
788697
788697
788698
788698
788698
788698
788698
788698
788698
788698
788698
788699
788699
788698
788698
788698
788698
788698
788699
788699
788699
788699
788699
788699
788699
788699
788699
788699
788699
788699
788700
788700
788700
788700
788700
788700
788700
788700
788700
788700
788700
788700
788700
788700
788700
788701
788701
788701
788701
788701
788701
788702
788702
788701
788701
788701
788701
788701
788701
788701
788702
788702
788702
788702
788702
788702
788702
788702
788702
788702
788703
788703
788703
788703
788703
788703
788703
788703
788703
788703
788703
788703
788703
788703
788703
788703
788703
788703
788703
788704
788704
788704
788705
788704
788704
788704
788704
788704
788704
788704
788704
788704
788704
788704
788704
788705
788705
788705
788705
788705
788705
788706
788706
788706
788706
788706
788706
788706
788706
788706
788706
788706
788706
788706
788706
788706
788706
788706
788706
788706
788707
788707
788707
788707
788707
788707
788707
788707
788707
788707
788707
788707
788707
788707
788707
788707
788707
788707
788707
788708
788708
788708
788709
788708
788708
788708
788708
788708
788708
788708
788708
788708
788708
788708
788708
788709
788709
788709
788709
788709
788709
788710
788710
788710
788710
788710
788710
788710
788710
788710
788710
788710
788710
788710
788710
788710
788710
788710
788710
788710
788711
788711
788711
788711
788711
788711
788711
788711
788711
788711
788711
788711
788711
788711
788711
788711
788711
788711
788712
788712
788712
788712
788713
788712
788712
788712
788712
788712
788712
788712
788712
788712
788712
788712
788713
788713
788713
788713
788713
788713
788713
788714
788714
788714
788713
788714
788714
788714
788714
788714
788714
788714
788714
788714
788714
788714
788714
788714
788714
788714
788715
788715
788715
788715
788715
788715
788715
788715
788715
788715
788715
788715
788715
788715
788715
788715
788715
788715
788715
788716
788716
788716
788716
788716
788716
788716