/*--------------------------------*- C++ -*----------------------------------*\
  =========                 |
  \\      /  F ield         | OpenFOAM: The Open Source CFD Toolbox
   \\    /   O peration     | Website:  https://openfoam.org
    \\  /    A nd           | Version:  8
     \\/     M anipulation  |
\*---------------------------------------------------------------------------*/
FoamFile
{
    version     2.0;
    format      ascii;
    class       surfaceScalarField;
    location    "1000";
    object      phi;
}
// * * * * * * * * * * * * * * * * * * * * * * * * * * * * * * * * * * * * * //

dimensions      [1 0 -1 0 0 0 0];

internalField   nonuniform List<scalar> 
16360
(
-3.4398
0.0272081
-3.49073
0.0509203
-3.56537
0.074658
-3.65812
0.0927291
-3.76172
0.103625
-3.86639
0.104645
-3.95721
0.0908282
-4.01249
0.0553053
-4.0063
-0.00619194
-3.91184
-0.0944263
-3.71625
-0.195603
-3.42413
-0.292139
-3.05566
-0.36847
-2.64385
-0.411842
-2.22565
-0.418215
-1.82791
-0.39769
-1.46701
-0.360863
-1.1534
-0.313618
-0.89578
-0.25762
-0.701385
-0.19438
-0.575814
-0.125502
-0.523562
-0.0522276
-0.510487
-0.0131208
-0.519016
0.00858347
-0.542215
0.0233346
-0.573926
0.031727
-0.611265
0.0373485
-0.654948
0.0436893
-0.70536
0.0504322
-0.761338
0.0559814
-0.820628
0.0593568
-0.880968
0.0603619
-0.940327
0.0592881
-0.997014
0.0566194
-1.04975
0.052782
-1.09774
0.0480863
-1.14048
0.0427988
-1.17762
0.0371323
-1.20894
0.0312589
-1.23428
0.0253037
-1.25357
0.0193035
-1.26682
0.013266
-1.27405
0.00723112
-1.27531
0.00125394
-1.27068
-0.00462139
-1.26032
-0.0103576
-1.24437
-0.0159141
-1.22308
-0.0212524
-1.19671
-0.0263628
-0.0317344
-1.16497
-2.6268
0.0109375
-2.61876
0.0428646
-2.62287
0.0787406
-2.63475
0.104569
-2.64695
0.11586
-2.6484
0.106071
-2.62137
0.0637645
-2.53585
-0.030226
-2.35637
-0.18574
-2.12033
-0.33046
-1.89915
-0.416679
-1.68713
-0.504197
-1.44721
-0.608293
-1.18542
-0.673637
-0.938749
-0.664937
-0.734126
-0.60237
-0.581269
-0.513713
-0.478278
-0.416593
-0.420954
-0.315009
-0.403318
-0.212065
-0.394673
-0.134139
-0.406705
-0.040138
-0.426535
0.00659736
-0.452615
0.0345971
-0.488957
0.0597149
-0.526786
0.0695971
-0.563798
0.0744166
-0.606246
0.0860432
-0.656763
0.100867
-0.713863
0.113041
-0.774583
0.120131
-0.836182
0.122039
-0.896448
0.119627
-0.953759
0.113956
-1.00695
0.10598
-1.05528
0.0964283
-1.0983
0.0858285
-1.13572
0.0745576
-1.16735
0.0628964
-1.1931
0.0510428
-1.21294
0.0391042
-1.22683
0.0271438
-1.23478
0.015205
-1.23686
0.00336132
-1.23323
-0.0082249
-1.22406
-0.0194876
-1.20967
-0.0302864
-1.19041
-0.0405008
-1.16663
-0.0501254
-0.0594593
-1.13888
-0.783959
-0.0615067
-0.777081
0.0360375
-0.745749
0.0474591
-0.690345
0.0491292
-0.604578
0.0301336
-0.475905
-0.0225906
-0.302444
-0.109672
-0.116756
-0.215877
0.0366429
-0.339135
0.192012
-0.485846
0.418095
-0.642704
0.664337
-0.750451
0.827025
-0.770994
0.891745
-0.738382
0.887552
-0.660671
0.835601
-0.550447
0.744847
-0.422983
0.621407
-0.293109
0.469878
-0.163483
0.284435
-0.0266388
0.037616
0.11283
-0.16173
0.159469
-0.268422
0.113208
-0.330585
0.0966767
-0.40337
0.132518
-0.455397
0.121583
-0.486654
0.105682
-0.525073
0.124475
-0.577304
0.153187
-0.638471
0.174203
-0.703283
0.184871
-0.768071
0.186741
-0.830488
0.182025
-0.889105
0.172631
-0.943056
0.160009
-0.991851
0.145235
-1.03522
0.129118
-1.07294
0.112223
-1.1049
0.0948738
-1.13109
0.0772552
-1.15148
0.0594987
-1.16601
0.041693
-1.17465
0.0238787
-1.17742
0.00613074
-1.17439
-0.0112742
-1.16573
-0.0281484
-1.15174
-0.0442691
-1.13285
-0.0593965
-1.10958
-0.0733911
-0.0863775
-1.08265
1.18293
-0.0386555
1.20961
0.00933977
1.28302
-0.0259362
1.4282
-0.0961215
1.64632
-0.187933
1.90825
-0.284542
2.17383
-0.375287
2.41605
-0.458084
2.61283
-0.535929
2.73591
-0.608894
2.76274
-0.669549
2.71077
-0.698539
2.61938
-0.679611
2.49514
-0.614125
2.34082
-0.50632
2.15555
-0.365152
1.93432
-0.20179
1.67032
-0.0291255
1.37659
0.130275
1.09175
0.258254
0.832108
0.372294
0.548593
0.442948
0.177338
0.484555
-0.147505
0.421544
-0.32858
0.313594
-0.399476
0.192403
-0.388672
0.0948387
-0.412241
0.148072
-0.470352
0.211395
-0.540782
0.244651
-0.613463
0.25757
-0.683914
0.257254
-0.750139
0.24827
-0.811248
0.233673
-0.866814
0.2155
-0.916666
0.19508
-0.960817
0.173283
-0.999293
0.1507
-1.03209
0.127684
-1.05921
0.104413
-1.08064
0.0809682
-1.09637
0.0574016
-1.10628
0.0337658
-1.11027
0.0101183
-1.10843
-0.0131205
-1.10091
-0.0356841
-1.088
-0.0572094
-1.0701
-0.0773109
-1.04779
-0.0957013
-0.112295
-1.02186
5.51026
0.0600738
5.48516
0.0344414
5.45956
-0.000317766
5.4239
-0.0604992
5.36673
-0.130765
5.28573
-0.203558
5.18309
-0.272655
5.06005
-0.334985
4.91372
-0.389595
4.73924
-0.434431
4.53398
-0.464331
4.3052
-0.469732
4.06684
-0.441314
3.82819
-0.375432
3.59526
-0.273375
3.37019
-0.140083
3.14945
0.0189508
2.92444
0.195864
2.67233
0.382382
2.37531
0.555286
2.04701
0.700545
1.69477
0.795132
1.35143
0.827914
0.999999
0.772977
0.634794
0.678853
0.228355
0.598881
-0.103808
0.42704
-0.25297
0.297202
-0.335989
0.294478
-0.424947
0.333608
-0.509754
0.342309
-0.587741
0.3352
-0.658428
0.318975
-0.722072
0.297308
-0.779062
0.272444
-0.829741
0.245744
-0.87444
0.218008
-0.913434
0.189719
-0.946895
0.161143
-0.974891
0.132393
-0.997397
0.103479
-1.01436
0.0743587
-1.02564
0.0450206
-1.03105
0.0155119
-1.03059
-0.0135969
-1.02439
-0.0418969
-1.01272
-0.0688944
-0.996018
-0.0940123
-0.974911
-0.116802
-0.137042
-0.950155
4.32555
0.114197
4.2972
0.0627763
4.27486
0.0220683
4.24462
-0.0302496
4.20393
-0.0900578
4.15129
-0.150939
4.08705
-0.208459
4.01118
-0.259173
3.92228
-0.300593
3.8183
-0.33046
3.69856
-0.344565
3.56519
-0.336347
3.42291
-0.299048
3.2768
-0.229292
3.13142
-0.128029
2.98687
0.00446408
2.83779
0.168043
2.67962
0.354021
2.51196
0.55002
2.32538
0.74186
2.11404
0.911892
1.87298
1.03621
1.60509
1.09584
1.29844
1.07961
0.967682
1.00958
0.649927
0.916644
0.301579
0.775449
0.00125786
0.597442
-0.180001
0.475647
-0.296969
0.450584
-0.395899
0.441273
-0.481023
0.420332
-0.555064
0.393046
-0.619946
0.362228
-0.677105
0.329578
-0.727532
0.296127
-0.771933
0.262411
-0.810828
0.228651
-0.844551
0.194888
-0.873241
0.161067
-0.896857
0.127068
-0.915245
0.09273
-0.928148
0.0579385
-0.935301
0.0226834
-0.93661
-0.012295
-0.932165
-0.0463622
-0.922231
-0.0788377
-0.907276
-0.108968
-0.887939
-0.136139
-0.159991
-0.864988
3.72738
0.165815
3.68081
0.109308
3.64143
0.0614422
3.601
0.0101705
3.55494
-0.0440578
3.50113
-0.0970616
3.43872
-0.146063
3.36742
-0.187867
3.28638
-0.219635
3.19452
-0.238599
3.09093
-0.240971
2.9764
-0.221857
2.85398
-0.176568
2.72782
-0.103136
2.59804
0.0017465
2.46377
0.13874
2.33186
0.299939
2.20796
0.477914
2.08975
0.668223
1.96975
0.861852
1.83786
1.04375
1.68181
1.19224
1.49337
1.28431
1.26613
1.30683
1.00742
1.2683
0.74007
1.18398
0.46509
1.05041
0.190636
0.871816
-0.0282409
0.694475
-0.1723
0.594702
-0.280146
0.549172
-0.368296
0.508432
-0.44236
0.467054
-0.505732
0.425622
-0.560723
0.384602
-0.608917
0.344315
-0.651394
0.304867
-0.688911
0.266152
-0.721955
0.227917
-0.750702
0.189797
-0.775034
0.151384
-0.794604
0.11231
-0.809018
0.0723924
-0.817964
0.0316621
-0.821283
-0.00896332
-0.819006
-0.0486329
-0.811367
-0.0864587
-0.798817
-0.121494
-0.781954
-0.153002
-0.18043
-0.76153
3.19091
0.218697
3.14192
0.158318
3.09643
0.106899
3.05055
0.0561121
3.00148
0.00495048
2.94729
-0.042836
2.88544
-0.0842584
2.81539
-0.117761
2.7364
-0.140654
2.64777
-0.14992
2.54906
-0.14226
2.44162
-0.114443
2.32711
-0.0620575
2.20248
0.0214678
2.07161
0.132645
1.94633
0.264048
1.83339
0.41289
1.73342
0.577927
1.64485
0.756832
1.56245
0.944301
1.47703
1.12925
1.37665
1.29268
1.25113
1.40988
1.09408
1.46386
0.908052
1.45433
0.704963
1.38709
0.493197
1.2622
0.278335
1.0867
0.0805366
0.89226
-0.0664184
0.741623
-0.171169
0.65392
-0.254692
0.591964
-0.323402
0.535753
-0.381215
0.483437
-0.430814
0.434235
-0.474122
0.38763
-0.512494
0.343215
-0.54688
0.300527
-0.577899
0.258935
-0.605684
0.217598
-0.629874
0.175585
-0.649794
0.132249
-0.664979
0.0876221
-0.6755
0.0422215
-0.681242
-0.00320217
-0.681736
-0.0481219
-0.67704
-0.0911227
-0.667675
-0.130826
-0.65411
-0.166576
-0.197528
-0.637037
2.60581
0.266374
2.55794
0.206195
2.51216
0.152678
2.4658
0.102459
2.4164
0.0544088
2.36363
0.00999019
2.30634
-0.0269175
2.24195
-0.0533839
2.16973
-0.0684211
2.08928
-0.0695255
1.99983
-0.0528321
1.89768
-0.0122446
1.78244
0.0531535
1.66395
0.139957
1.55238
0.244258
1.45033
0.366054
1.35921
0.503991
1.2801
0.657063
1.21285
0.824082
1.15476
1.00237
1.0996
1.1844
1.03841
1.35384
0.9618
1.4865
0.863004
1.56268
0.741543
1.57579
0.602787
1.52579
0.453061
1.41188
0.297945
1.24181
0.146426
1.04383
0.0192645
0.868783
-0.0743355
0.747484
-0.14463
0.662266
-0.20203
0.593198
-0.249707
0.531141
-0.2902
0.474748
-0.325416
0.422854
-0.356751
0.374527
-0.385212
0.328975
-0.411502
0.285226
-0.435791
0.241911
-0.457572
0.1974
-0.475999
0.150703
-0.490821
0.102472
-0.503296
0.0547248
-0.513124
0.00666059
-0.516908
-0.0443051
-0.515289
-0.0927293
-0.509833
-0.136266
-0.500654
-0.175774
-0.210018
-0.488194
1.96113
0.311445
1.91777
0.249507
1.87634
0.194116
1.83436
0.144437
1.78933
0.0993846
1.7389
0.060409
1.68278
0.0291989
1.62135
0.00800769
1.55264
0.000274177
1.47411
0.00899375
1.38489
0.0364253
1.29002
0.0826448
1.1969
0.146265
1.10904
0.227878
1.02733
0.326
0.953463
0.43992
0.888734
0.568753
0.834073
0.711762
0.789774
0.868385
0.754763
1.03738
0.725692
1.21348
0.696686
1.38283
0.66029
1.52284
0.610571
1.61238
0.545388
1.641
0.466229
1.60496
0.37606
1.50205
0.278156
1.33968
0.177496
1.14445
0.0858081
0.960474
0.0131841
0.820148
-0.0402782
0.715744
-0.0817479
0.634684
-0.115109
0.564521
-0.142716
0.502364
-0.166235
0.446391
-0.186849
0.395169
-0.205627
0.34778
-0.223707
0.303309
-0.242151
0.260372
-0.261185
0.216464
-0.279651
0.169194
-0.295588
0.118427
-0.30956
0.068727
-0.321429
0.0185768
-0.322281
-0.0434086
-0.320045
-0.0949934
-0.318494
-0.13784
-0.315437
-0.178871
-0.215719
-0.309775
1.26315
0.356631
1.22596
0.2867
1.19144
0.228665
1.15688
0.178961
1.1188
0.137461
1.07442
0.104854
1.02213
0.0814486
0.961844
0.0683215
0.894787
0.0673253
0.823056
0.0807539
0.749108
0.110367
0.675585
0.156095
0.605373
0.216458
0.542286
0.29096
0.488406
0.379826
0.444303
0.484031
0.409598
0.603529
0.383842
0.7375
0.366939
0.885245
0.358571
1.04577
0.357277
1.21479
0.359763
1.38036
0.360926
1.52165
0.355764
1.61751
0.341066
1.65568
0.316142
1.62987
0.281483
1.53674
0.237599
1.3836
0.186376
1.19568
0.134818
1.01202
0.0916734
0.863321
0.0593151
0.748154
0.0361506
0.657869
0.0190999
0.581541
0.00647406
0.514947
-0.00278921
0.45566
-0.00936214
0.401793
-0.0137234
0.352165
-0.0160376
0.305591
-0.0161024
0.260399
-0.0135938
0.213934
-0.00856739
0.164142
9.85347e-05
0.109721
0.0138811
0.0548997
0.00999305
0.0224631
-0.0172491
-0.0158735
-0.0455877
-0.0665879
-0.067917
-0.115558
-0.0824848
-0.164382
-0.207109
-0.0911565
0.499427
0.378678
0.468847
0.317229
0.446062
0.251483
0.423536
0.201502
0.393716
0.167286
0.353707
0.144775
0.303384
0.131844
0.244166
0.127496
0.179989
0.131493
0.116448
0.144301
0.0592231
0.167442
0.0121334
0.203143
-0.0245058
0.253125
-0.0518017
0.318165
-0.0704626
0.398515
-0.0806303
0.494308
-0.0823906
0.605311
-0.0759765
0.731034
-0.0615079
0.870753
-0.0388423
1.02313
-0.00806026
1.18399
0.0295426
1.34275
0.070377
1.48081
0.109437
1.57846
0.142147
1.62299
0.166788
1.60523
0.182931
1.52059
0.189097
1.37746
0.184381
1.20045
0.172621
1.02379
0.161145
0.874779
0.153697
0.755597
0.150996
0.660574
0.151411
0.58111
0.153833
0.512511
0.157547
0.45196
0.162026
0.397347
0.166977
0.34721
0.172267
0.30025
0.177779
0.254849
0.182957
0.208755
0.186791
0.160296
0.185349
0.111135
0.174239
0.0659569
0.168817
0.0276884
0.165603
-0.0126753
0.157593
-0.0585605
0.14888
-0.106873
0.138854
-0.154398
-0.196995
0.128704
-0.404735
0.324137
-0.386263
0.298821
-0.391553
0.256748
-0.410243
0.220082
-0.4357
0.192855
-0.464265
0.173315
-0.49264
0.160184
-0.518362
0.153244
-0.540294
0.153457
-0.558216
0.162156
-0.571642
0.180901
-0.579761
0.211401
-0.58194
0.255322
-0.577854
0.314037
-0.567459
0.388184
-0.550784
0.477667
-0.527505
0.581983
-0.496956
0.700424
-0.458163
0.831938
-0.409764
0.974739
-0.350478
1.12467
-0.280328
1.27259
-0.202327
1.40282
-0.12173
1.49787
-0.0433128
1.54458
0.0281738
1.53377
0.0900324
1.45876
0.141759
1.32574
0.180027
1.16218
0.206183
0.997651
0.226153
0.854821
0.244236
0.737492
0.262535
0.642249
0.280854
0.562782
0.298737
0.494626
0.315863
0.434823
0.332007
0.381189
0.347095
0.33211
0.361133
0.286192
0.374007
0.241961
0.384891
0.197862
0.391963
0.153212
0.393716
0.109385
0.391279
0.0684563
0.38849
0.0304919
0.38485
-0.009041
0.379085
-0.0528024
0.371249
-0.099062
0.361297
-0.144448
-0.185254
0.349558
-1.09125
0.277363
-1.06114
0.26867
-1.04803
0.243726
-1.04468
0.216732
-1.0451
0.193277
-1.04674
0.174946
-1.04865
0.162017
-1.05039
0.154986
-1.05171
0.154727
-1.05203
0.162459
-1.05053
0.179456
-1.04621
0.207102
-1.03776
0.246854
-1.02371
0.299961
-1.00271
0.36716
-0.97363
0.448584
-0.93547
0.543866
-0.887183
0.652218
-0.827513
0.772325
-0.754797
0.902038
-0.667373
1.03724
-0.564913
1.17014
-0.450296
1.2882
-0.329404
1.37697
-0.208935
1.42412
-0.0946976
1.41954
0.00848961
1.3556
0.101677
1.23256
0.179282
1.08456
0.240941
0.935976
0.291234
0.80452
0.334491
0.694211
0.373579
0.603145
0.409466
0.526902
0.442411
0.461681
0.472513
0.404685
0.499862
0.353808
0.524554
0.307412
0.546626
0.264124
0.565892
0.222699
0.581629
0.182123
0.59273
0.142086
0.598904
0.103171
0.601503
0.0658485
0.60263
0.0293612
0.602645
-0.00905915
0.600402
-0.0505555
0.594845
-0.0935188
0.585297
-0.134887
-0.171567
0.57163
-1.63608
0.236915
-1.59775
0.230296
-1.5686
0.214518
-1.5475
0.195674
-1.53191
0.177638
-1.51978
0.16284
-1.51005
0.152323
-1.50196
0.146915
-1.49471
0.147501
-1.48734
0.155076
-1.47865
0.170746
-1.46725
0.195684
-1.45143
0.231062
-1.42933
0.277902
-1.39906
0.336918
-1.35887
0.408382
-1.3071
0.492099
-1.2422
0.587362
-1.16256
0.692763
-1.06638
0.805912
-0.952052
0.922905
-0.819268
1.03736
-0.670802
1.13975
-0.512714
1.21888
-0.35277
1.26417
-0.199132
1.2659
-0.0580571
1.21453
0.0728367
1.10168
0.186136
0.971244
0.280534
0.841546
0.359516
0.725534
0.427093
0.626637
0.486418
0.54382
0.539266
0.474069
0.586582
0.414382
0.628926
0.362333
0.666691
0.316031
0.700155
0.273961
0.729441
0.23487
0.754463
0.197711
0.774901
0.161709
0.790489
0.126501
0.801613
0.0920246
0.809435
0.0580131
0.815326
0.0234653
0.819154
-0.0128918
0.81938
-0.0507672
0.814536
-0.088675
0.803759
-0.124099
-0.154728
0.786944
-2.09504
0.195685
-2.0559
0.191146
-2.02216
0.180848
-1.99463
0.168045
-1.9723
0.15533
-1.954
0.144513
-1.93856
0.136848
-1.9249
0.133231
-1.91192
0.134481
-1.89837
0.141489
-1.88282
0.155201
-1.86368
0.176543
-1.83907
0.206472
-1.80694
0.245835
-1.76522
0.29522
-1.71179
0.354927
-1.64458
0.424878
-1.56167
0.50444
-1.46122
0.59229
-1.34143
0.686119
-1.2009
0.782373
-1.03955
0.876006
-0.860033
0.960248
-0.668324
1.02719
-0.472797
1.06865
-0.28292
1.07599
-0.106975
1.03855
0.0571608
0.937552
0.202945
0.825474
0.327174
0.717292
0.432731
0.619958
0.523283
0.536099
0.602017
0.465106
0.671176
0.404922
0.732262
0.353303
0.786287
0.308306
0.83397
0.268344
0.875834
0.232112
0.912213
0.198512
0.943297
0.166638
0.969207
0.135794
0.990192
0.105497
1.00683
0.0753647
1.01993
0.0449085
1.02962
0.0137816
1.03486
-0.0181418
1.03439
-0.0502818
1.02701
-0.0812872
1.01221
-0.109298
-0.13273
0.990213
-2.52442
0.154035
-2.48499
0.151685
-2.44925
0.145143
-2.41796
0.136751
-2.3908
0.12815
-2.36696
0.120691
-2.3455
0.115395
-2.32535
0.113053
-2.30527
0.114402
-2.28393
0.120166
-2.25982
0.131071
-2.23113
0.147862
-2.19589
0.17126
-2.15197
0.2019
-2.09708
0.240265
-2.02885
0.286626
-1.94497
0.340963
-1.84328
0.40275
-1.72186
0.470856
-1.57906
0.543317
-1.41377
0.617116
-1.2261
0.688365
-1.01855
0.752673
-0.796757
0.805353
-0.569312
0.841207
-0.346744
0.85347
-0.138852
0.830671
0.0565931
0.742088
0.23113
0.650932
0.381845
0.566571
0.511348
0.490467
0.622976
0.424503
0.71987
0.368243
0.804526
0.32027
0.878819
0.279006
0.944119
0.243006
1.00144
0.211031
1.05155
0.182019
1.09502
0.15506
1.13226
0.129391
1.16364
0.104406
1.18947
0.0796475
1.21007
0.0547521
1.22555
0.0294367
1.23532
0.00401264
1.23835
-0.02117
1.23381
-0.0457433
1.22118
-0.06865
1.20049
-0.0886205
-0.104571
1.17233
-2.93707
0.108804
-2.89391
0.108533
-2.85354
0.104804
-2.8164
0.0996539
-2.78242
0.0941914
-2.75105
0.0893701
-2.72154
0.0858797
-2.69286
0.0843541
-2.66378
0.0853459
-2.6329
0.0893395
-2.59865
0.0968271
-2.55914
0.108344
-2.51228
0.12439
-2.45578
0.145376
-2.38719
0.171648
-2.30395
0.203396
-2.20361
0.240611
-2.08384
0.282973
-1.94268
0.329684
-1.77867
0.379293
-1.59109
0.42953
-1.38031
0.477583
-1.14848
0.520862
-0.900536
0.557397
-0.644685
0.585342
-0.392105
0.600906
-0.153523
0.592083
0.0718733
0.516655
0.270684
0.452116
0.443672
0.393585
0.593493
0.340626
0.723253
0.29473
0.836058
0.255445
0.934526
0.221814
1.02071
0.192826
1.09619
0.167526
1.16217
0.145046
1.21958
0.124605
1.2691
0.105526
1.31124
0.0872394
1.34632
0.0693115
1.37453
0.0514389
1.39584
0.0334452
1.4099
0.0153833
1.41617
-0.00225951
1.41426
-0.0192646
1.40391
-0.0354048
1.38523
-0.0499917
1.35876
-0.0621696
-0.071074
1.32526
-3.3134
0.0580606
-3.26334
0.0584589
-3.2153
0.0567132
-3.16983
0.0542
-3.12707
0.0514576
-3.0867
0.0489769
-3.048
0.0471676
-3.00997
0.0463595
-2.97143
0.0468122
-2.93092
0.0487923
-2.8867
0.0525914
-2.83682
0.058471
-2.7791
0.0666657
-2.71111
0.0773847
-2.63028
0.0908075
-2.5339
0.107049
-2.41939
0.126106
-2.28427
0.147853
-2.1265
0.171915
-1.94476
0.197535
-1.73868
0.22342
-1.50897
0.247849
-1.25744
0.269358
-0.987505
0.287503
-0.705546
0.303386
-0.423208
0.318569
-0.149621
0.31851
0.106659
0.260363
0.324226
0.234522
0.514157
0.203623
0.679038
0.175718
0.822013
0.151735
0.946295
0.131153
1.05461
0.11349
1.14912
0.0982792
1.23157
0.085051
1.30325
0.0733356
1.36515
0.0626881
1.41796
0.0527156
1.4621
0.0431034
1.49778
0.0336327
1.52504
0.0241801
1.54378
0.014726
1.55375
0.0054165
1.55495
-0.00345364
1.54751
-0.0118448
1.53171
-0.0196405
1.50815
-0.0264598
1.4777
-0.0317363
-0.034576
1.4412
-3.63222
-3.57379
-3.51708
-3.46289
-3.41143
-3.36245
-3.31529
-3.26896
-3.22218
-3.17338
-3.12077
-3.06228
-2.99562
-2.91823
-2.82741
-2.72035
-2.59424
-2.44642
-2.27453
-2.077
-1.85357
-1.60571
-1.33635
-1.04883
-0.74544
-0.42688
-0.108371
0.151964
0.386435
0.590021
0.765734
0.917479
1.04864
1.16212
1.26038
1.34542
1.41874
1.48142
1.53414
1.57724
1.61088
1.63506
1.64979
1.65521
1.65174
1.63988
1.62022
1.59375
1.56201
1.52744
0.00813473
-0.000176644
0.0082205
-6.47575e-05
0.00828849
-4.48456e-05
0.00833086
-2.16881e-05
0.0083588
-7.49657e-06
0.00837996
-4.73771e-07
0.00839805
2.77775e-06
0.00841458
4.31504e-06
0.00843016
5.23246e-06
0.00844507
5.92279e-06
0.00845961
6.36528e-06
0.00847407
6.50857e-06
0.00848866
6.39179e-06
0.0085035
6.12376e-06
0.00851871
5.75622e-06
0.00853446
5.23044e-06
0.00855108
4.36839e-06
0.0085691
2.94397e-06
0.00858889
1.17534e-06
0.00860836
1.49255e-06
0.00862563
3.62454e-06
0.00864021
6.20334e-06
0.00865117
9.53406e-06
0.00866097
1.06653e-05
0.00867125
1.01818e-05
0.00868246
9.24178e-06
0.00869483
8.10446e-06
0.00870841
6.90995e-06
0.00872324
5.66311e-06
0.00873937
4.38117e-06
0.00875677
3.09548e-06
0.00877541
1.83782e-06
0.00879521
6.32464e-07
0.00881608
-5.06397e-07
0.00883793
-1.56319e-06
0.00886067
-2.5518e-06
0.00888425
-3.5039e-06
0.00890862
-4.42552e-06
0.0089338
-5.38382e-06
0.00895995
-6.51356e-06
0.00898737
-7.94869e-06
0.0090165
-9.82339e-06
0.00904793
-1.22644e-05
0.00908237
-1.53765e-05
0.00912066
-1.92457e-05
0.00916383
-2.40536e-05
0.00921343
-3.04911e-05
0.00927199
-4.04528e-05
0.00934365
-5.71183e-05
-8.30983e-05
0.00943488
0.00789333
-9.18639e-05
0.00791046
-4.33141e-05
0.00791736
-1.2281e-05
0.00793637
-2.61375e-06
0.00796283
3.75833e-06
0.0079918
8.14817e-06
0.00802177
1.05532e-05
0.00805276
1.12285e-05
0.008085
1.09752e-05
0.00811831
1.05638e-05
0.00815234
1.02619e-05
0.00818679
9.99001e-06
0.00822152
9.62682e-06
0.00825646
9.14479e-06
0.00829156
8.53801e-06
0.00832691
7.71461e-06
0.00836277
6.29312e-06
0.0084002
3.24704e-06
0.00843996
-9.00242e-07
0.00847514
3.80232e-06
0.00850075
1.50211e-05
0.00852421
1.91716e-05
0.00855324
1.65564e-05
0.00858569
1.42257e-05
0.00861903
1.28349e-05
0.00865251
1.17177e-05
0.00868588
1.06338e-05
0.00871912
9.52655e-06
0.0087522
8.38435e-06
0.00878511
7.20338e-06
0.00881787
5.97798e-06
0.00885054
4.70214e-06
0.00888319
3.36957e-06
0.00891596
1.95028e-06
0.00894897
4.78402e-07
0.0089823
-1.02265e-06
0.00901606
-2.62923e-06
0.00905043
-4.42914e-06
0.00908565
-6.49582e-06
0.0091219
-8.88632e-06
0.00915938
-1.18011e-05
0.00919835
-1.54741e-05
0.00923919
-2.00502e-05
0.00928231
-2.57395e-05
0.00932818
-3.27592e-05
0.00937741
-4.11575e-05
0.00943096
-5.08512e-05
0.00949098
-6.25174e-05
0.00956179
-7.96635e-05
-0.000109692
0.00964931
0.00790546
-2.22708e-05
0.00791725
-2.12828e-05
0.00794868
-9.3489e-06
0.00798258
-3.06399e-06
0.00801954
1.69573e-07
0.00805791
3.02642e-06
0.00809633
5.35393e-06
0.00813441
6.40387e-06
0.00817238
6.35074e-06
0.00821036
5.9206e-06
0.00824831
5.62593e-06
0.00828602
5.53332e-06
0.00832333
5.51768e-06
0.00836017
5.48077e-06
0.00839647
5.36884e-06
0.00843211
5.11012e-06
0.00846678
4.58595e-06
0.00849924
3.66005e-06
0.00852775
3.24797e-06
0.00855615
7.33318e-06
0.00858792
1.42539e-05
0.00862057
1.70677e-05
0.00865189
1.56934e-05
0.00868222
1.43312e-05
0.00871225
1.3204e-05
0.00874219
1.21349e-05
0.00877208
1.1059e-05
0.00880198
9.8942e-06
0.00883197
8.60917e-06
0.00886214
7.19571e-06
0.00889254
5.64643e-06
0.00892325
3.95305e-06
0.00895433
2.12147e-06
0.00898578
1.72451e-07
0.00901766
-1.89564e-06
0.00905007
-4.12205e-06
0.00908311
-6.57512e-06
0.00911691
-9.38348e-06
0.00915163
-1.26394e-05
0.00918751
-1.64238e-05
0.00922472
-2.09183e-05
0.00926348
-2.63363e-05
0.0093041
-3.29004e-05
0.00934702
-4.09644e-05
0.0093928
-5.11109e-05
0.00944185
-6.4056e-05
0.009494
-8.01255e-05
0.00954851
-9.88138e-05
0.00960661
-0.000120146
-0.0001488
0.00967836
0.00796594
-1.36704e-05
0.00799495
-1.6838e-05
0.00802889
-9.83306e-06
0.00806131
-3.0655e-06
0.00809288
1.09098e-06
0.00812481
3.56855e-06
0.00815738
5.25004e-06
0.00819018
6.06541e-06
0.00822307
5.96109e-06
0.00825618
5.33852e-06
0.00828964
4.69436e-06
0.00832342
4.27257e-06
0.00835734
4.07236e-06
0.00839124
4.00777e-06
0.00842495
4.02879e-06
0.00845828
4.10153e-06
0.0084909
4.22559e-06
0.00852214
4.55007e-06
0.00855124
5.84596e-06
0.00858016
9.12719e-06
0.00861204
1.23823e-05
0.00864493
1.4121e-05
0.00867636
1.4198e-05
0.00870689
1.36926e-05
0.00873695
1.29813e-05
0.00876676
1.2126e-05
0.00879647
1.11237e-05
0.00882619
9.92708e-06
0.008856
8.51006e-06
0.00888599
6.86667e-06
0.00891625
4.98243e-06
0.00894679
2.91004e-06
0.00897761
6.8501e-07
0.00900875
-1.71369e-06
0.00904031
-4.36529e-06
0.00907243
-7.3534e-06
0.00910525
-1.07091e-05
0.00913884
-1.45154e-05
0.00917329
-1.88743e-05
0.00920872
-2.39128e-05
0.00924526
-2.98082e-05
0.00928307
-3.67677e-05
0.00932234
-4.49973e-05
0.00936333
-5.4714e-05
0.00940652
-6.63212e-05
0.00945265
-8.07107e-05
0.00950212
-9.91729e-05
0.00955352
-0.000122423
0.00960432
-0.000149597
-0.00018114
0.00966294
0.00796696
-6.46681e-06
0.00799121
-7.57595e-06
0.00801806
-3.24808e-06
0.00804612
1.11676e-06
0.00807568
3.78151e-06
0.00810681
4.79003e-06
0.00813947
4.99408e-06
0.00817311
4.81685e-06
0.00820723
4.27418e-06
0.00824158
3.4462e-06
0.00827614
2.6029e-06
0.00831089
1.98961e-06
0.00834573
1.68558e-06
0.00838052
1.65079e-06
0.00841507
1.83852e-06
0.00844925
2.23196e-06
0.00848289
2.8326e-06
0.00851585
3.71325e-06
0.00854822
5.14402e-06
0.00858021
7.80499e-06
0.0086126
1.00046e-05
0.00864537
1.13334e-05
0.00867766
1.18616e-05
0.00870938
1.18567e-05
0.00874067
1.15329e-05
0.00877162
1.09643e-05
0.00880238
1.01343e-05
0.00883304
8.99816e-06
0.00886371
7.53323e-06
0.00889446
5.74284e-06
0.00892532
3.68928e-06
0.00895626
1.42468e-06
0.00898737
-1.1015e-06
0.00901881
-3.95722e-06
0.00905066
-7.19372e-06
0.00908296
-1.08395e-05
0.00911578
-1.49293e-05
0.00914921
-1.95363e-05
0.0091833
-2.47818e-05
0.00921814
-3.08193e-05
0.00925388
-3.7844e-05
0.00929068
-4.6124e-05
0.00932866
-5.59731e-05
0.00936791
-6.76546e-05
0.00940856
-8.1341e-05
0.00945116
-9.73745e-05
0.00949679
-0.000116848
0.00954535
-0.000141374
0.00959286
-0.000171347
-0.000205696
0.00964328
0.00797162
-4.13517e-06
0.00800171
-4.25254e-06
0.00803323
-1.23993e-06
0.00806508
1.5441e-06
0.00809764
3.42121e-06
0.00813055
4.1643e-06
0.00816379
4.10294e-06
0.00819732
3.67972e-06
0.00823092
3.08045e-06
0.00826442
2.37284e-06
0.0082978
1.69152e-06
0.00833107
1.18592e-06
0.00836423
9.73795e-07
0.00839723
1.08441e-06
0.00843
1.47106e-06
0.00846246
2.11158e-06
0.00849457
3.01883e-06
0.00852623
4.23155e-06
0.00855712
5.97811e-06
0.00858724
8.41988e-06
0.00861743
9.89026e-06
0.00864801
1.07741e-05
0.00867862
1.12263e-05
0.00870909
1.12727e-05
0.00873944
1.10145e-05
0.00876971
1.04703e-05
0.00879998
9.59609e-06
0.00883033
8.34223e-06
0.0088608
6.7034e-06
0.00889138
4.75016e-06
0.00892203
2.5419e-06
0.00895285
1.06645e-09
0.00898395
-2.93772e-06
0.00901539
-6.26992e-06
0.00904719
-1.00234e-05
0.00907936
-1.4233e-05
0.00911194
-1.89392e-05
0.00914495
-2.42148e-05
0.00917845
-3.01831e-05
0.00921249
-3.69991e-05
0.00924718
-4.48519e-05
0.00928266
-5.40012e-05
0.00931912
-6.48179e-05
0.00935667
-7.7766e-05
0.00939522
-9.31772e-05
0.00943468
-0.00011117
0.00947581
-0.000132107
0.00951973
-0.000157255
0.00956354
-0.000187919
-0.000223537
0.00960805
0.00797235
-2.48353e-06
0.00800281
-1.47517e-06
0.00803363
1.41404e-06
0.00806385
3.60551e-06
0.00809458
4.85779e-06
0.0081258
5.16155e-06
0.00815752
4.67147e-06
0.00818981
3.73676e-06
0.0082226
2.67132e-06
0.00825573
1.6516e-06
0.00828905
7.91982e-07
0.00832248
2.03714e-07
0.00835595
-2.87658e-08
0.00838935
1.27073e-07
0.0084226
6.41945e-07
0.00845564
1.45001e-06
0.00848846
2.52202e-06
0.00852108
3.83065e-06
0.0085534
5.41866e-06
0.00858494
7.64764e-06
0.00861605
8.91062e-06
0.00864723
9.64537e-06
0.00867835
1.00881e-05
0.00870933
1.02132e-05
0.00874014
1.0045e-05
0.00877085
9.55225e-06
0.0088015
8.67431e-06
0.00883216
7.37057e-06
0.00886281
5.69546e-06
0.00889342
3.70312e-06
0.00892411
1.32741e-06
0.00895497
-1.49217e-06
0.00898602
-4.74332e-06
0.00901727
-8.42346e-06
0.00904873
-1.25502e-05
0.00908043
-1.71594e-05
0.00911239
-2.23075e-05
0.0091446
-2.80807e-05
0.00917711
-3.46035e-05
0.00920998
-4.20455e-05
0.00924327
-5.06103e-05
0.00927706
-6.05155e-05
0.0093115
-7.20552e-05
0.00934683
-8.56908e-05
0.0093831
-0.000101968
0.00941996
-0.000121253
0.00945736
-0.000143607
0.00949655
-0.000169554
0.00953618
-0.000200332
-0.000236161
0.00957591
0.00797287
-1.28875e-06
0.00800411
4.18299e-07
0.00803572
3.16844e-06
0.00806666
4.89307e-06
0.00809816
5.52844e-06
0.00813025
5.2715e-06
0.00816282
4.35881e-06
0.00819581
3.06342e-06
0.00822915
1.69565e-06
0.00826273
4.86369e-07
0.00829641
-4.47968e-07
0.00833008
-1.01872e-06
0.00836369
-1.17359e-06
0.00839718
-8.91416e-07
0.00843046
-1.93281e-07
0.00846347
8.40105e-07
0.00849624
2.11362e-06
0.00852873
3.57836e-06
0.00856058
5.35132e-06
0.00859141
7.61987e-06
0.00862174
8.72784e-06
0.00865214
9.326e-06
0.00868255
9.68281e-06
0.00871291
9.78141e-06
0.0087432
9.6047e-06
0.00877345
9.09011e-06
0.00880367
8.17112e-06
0.00883384
6.86438e-06
0.00886394
5.19728e-06
0.00889406
3.09172e-06
0.0089243
5.04309e-07
0.00895466
-2.54517e-06
0.00898517
-6.0463e-06
0.0090158
-9.99954e-06
0.00904655
-1.44128e-05
0.00907744
-1.93158e-05
0.00910847
-2.47787e-05
0.00913963
-3.08989e-05
0.00917095
-3.77972e-05
0.00920248
-4.56546e-05
0.00923428
-5.47077e-05
0.00926635
-6.52021e-05
0.00929871
-7.73996e-05
0.00933157
-9.15977e-05
0.00936514
-0.000108301
0.00939927
-0.000128108
0.00943347
-0.000151245
0.00946847
-0.000177841
0.00950384
-0.000208653
-0.000244213
0.00953914
0.00797309
-2.94392e-07
0.00800468
1.94666e-06
0.0080365
4.64162e-06
0.00806744
6.12181e-06
0.0080987
6.41155e-06
0.00813039
5.77296e-06
0.00816245
4.52405e-06
0.00819483
2.95998e-06
0.0082275
1.36546e-06
0.0082604
-3.33683e-08
0.00829346
-1.0813e-06
0.00832661
-1.70621e-06
0.00835977
-1.87271e-06
0.00839293
-1.56872e-06
0.00842603
-8.21879e-07
0.00845902
3.05809e-07
0.00849185
1.69111e-06
0.00852453
3.1867e-06
0.00855689
4.83624e-06
0.0085884
6.96541e-06
0.0086193
8.00788e-06
0.00865021
8.53084e-06
0.00868108
8.84567e-06
0.00871185
8.94298e-06
0.00874253
8.77631e-06
0.00877311
8.28083e-06
0.00880355
7.4298e-06
0.00883383
6.21513e-06
0.00886403
4.54861e-06
0.00889422
2.36085e-06
0.00892441
-3.27313e-07
0.00895461
-3.49046e-06
0.00898482
-7.11664e-06
0.00901505
-1.12073e-05
0.00904527
-1.57701e-05
0.00907547
-2.08321e-05
0.00910566
-2.64653e-05
0.00913584
-3.27713e-05
0.009166
-3.98719e-05
0.00919617
-4.79386e-05
0.00922643
-5.72082e-05
0.00925676
-6.79737e-05
0.00928716
-8.05183e-05
0.00931766
-9.51316e-05
0.00934841
-0.000112135
0.00937959
-0.000132067
0.00941071
-0.000155407
0.00944202
-0.00018226
0.00947341
-0.000213011
-0.000248149
0.00950462
0.00797314
6.02082e-07
0.0080049
3.29412e-06
0.00803688
5.90495e-06
0.00806795
7.14065e-06
0.00809932
7.12623e-06
0.00813108
6.1599e-06
0.00816323
4.59346e-06
0.00819569
2.77269e-06
0.0082284
9.92273e-07
0.0082613
-5.40216e-07
0.00829432
-1.67222e-06
0.00832741
-2.3284e-06
0.00836051
-2.47902e-06
0.00839359
-2.13677e-06
0.00842663
-1.34458e-06
0.0084596
-1.7351e-07
0.00849247
1.27145e-06
0.00852516
2.83779e-06
0.00855739
4.50828e-06
0.00858872
6.52834e-06
0.0086195
7.45992e-06
0.00865028
7.89464e-06
0.00868103
8.15621e-06
0.0087117
8.23472e-06
0.00874227
8.08216e-06
0.00877269
7.64014e-06
0.00880295
6.86831e-06
0.0088331
5.67876e-06
0.00886319
3.98421e-06
0.00889321
1.77125e-06
0.00892317
-9.46704e-07
0.00895307
-4.14626e-06
0.00898288
-7.80887e-06
0.00901261
-1.19328e-05
0.00904224
-1.65312e-05
0.00907173
-2.16339e-05
0.00910108
-2.73035e-05
0.00913027
-3.36468e-05
0.00915929
-4.08011e-05
0.00918813
-4.89212e-05
0.00921683
-5.8217e-05
0.00924543
-6.90032e-05
0.00927388
-8.1568e-05