/*--------------------------------*- C++ -*----------------------------------*\
  =========                 |
  \\      /  F ield         | OpenFOAM: The Open Source CFD Toolbox
   \\    /   O peration     | Website:  https://openfoam.org
    \\  /    A nd           | Version:  8
     \\/     M anipulation  |
\*---------------------------------------------------------------------------*/
FoamFile
{
    version     2.0;
    format      ascii;
    class       volScalarField;
    location    "800";
    object      alphat;
}
// * * * * * * * * * * * * * * * * * * * * * * * * * * * * * * * * * * * * * //

dimensions      [1 -1 -1 0 0 0 0];

internalField   nonuniform List<scalar> 
1200
(
0.200897
0.184965
0.171674
0.160443
0.150844
0.142558
0.135346
0.129021
0.123438
0.11848
0.114055
0.110086
0.10651
0.103276
0.100339
0.0976647
0.0952207
0.0929811
0.0909234
0.0890282
0.0872786
0.08566
0.0841596
0.0827662
0.0814698
0.0802617
0.0791342
0.0780802
0.0770938
0.0761692
0.0753016
0.0744865
0.0737198
0.0729979
0.0723174
0.0716754
0.0710691
0.070496
0.0699537
0.0694403
0.0689537
0.0684922
0.0680541
0.067638
0.0672425
0.0668662
0.066508
0.0661667
0.0658415
0.0655312
0.065235
0.0649521
0.0646818
0.0644232
0.0641758
0.0639389
0.0637119
0.0634943
0.0632856
0.0630852
0.116417
0.0999852
0.0873785
0.0774623
0.0694929
0.0629645
0.0575296
0.0529424
0.0490241
0.0456421
0.0426961
0.0401088
0.03782
0.0357823
0.0339573
0.0323143
0.0308281
0.0294778
0.0282462
0.0271187
0.026083
0.0251289
0.0242472
0.0234306
0.0226722
0.0219663
0.021308
0.0206928
0.0201169
0.0195768
0.0190696
0.0185925
0.0181431
0.0177193
0.0173191
0.0169408
0.0165828
0.0162436
0.0159221
0.0156168
0.0153268
0.0150511
0.0147888
0.0145389
0.0143009
0.0140739
0.0138574
0.0136506
0.0134531
0.0132644
0.0130839
0.0129112
0.0127459
0.0125875
0.0124359
0.0122905
0.0121509
0.0120166
0.0118861
0.0117466
0.11639
0.0998142
0.0870858
0.0770516
0.068969
0.0623382
0.056812
0.0521434
0.0481525
0.0447053
0.0417005
0.0390601
0.036723
0.0346408
0.0327749
0.0310938
0.029572
0.0281881
0.0269247
0.0257668
0.0247021
0.0237199
0.022811
0.0219678
0.0211834
0.020452
0.0197684
0.0191282
0.0185275
0.0179627
0.0174308
0.016929
0.0164548
0.0160061
0.0155809
0.0151774
0.014794
0.0144293
0.014082
0.0137508
0.0134347
0.0131328
0.012844
0.0125676
0.0123029
0.012049
0.0118054
0.0115715
0.0113467
0.0111304
0.0109223
0.0107219
0.0105288
0.0103425
0.0101628
0.00998927
0.00982166
0.00965963
0.00950283
0.00935062
0.11639
0.0998532
0.0871498
0.0771324
0.0690585
0.0624305
0.0569033
0.0522313
0.0482357
0.0447833
0.0417731
0.0391273
0.0367849
0.0346978
0.0328272
0.0311419
0.0296161
0.0282286
0.0269617
0.0258008
0.0247332
0.0237482
0.022837
0.0219915
0.021205
0.0204716
0.0197863
0.0191444
0.0185421
0.0179759
0.0174426
0.0169395
0.0164641
0.0160143
0.015588
0.0151834
0.0147991
0.0144334
0.0140852
0.0137531
0.0134361
0.0131333
0.0128436
0.0125663
0.0123006
0.0120458
0.0118012
0.0115662
0.0113404
0.0111231
0.0109139
0.0107124
0.0105182
0.0103308
0.0101499
0.0099752
0.00980639
0.00964316
0.00948525
0.00933241
0.11639
0.0998533
0.0871435
0.07712
0.0690411
0.0624098
0.0568808
0.0522084
0.0482131
0.0447617
0.0417527
0.0391083
0.0367674
0.0346818
0.0328127
0.0311286
0.0296041
0.0282177
0.026952
0.025792
0.0247252
0.0237411
0.0228306
0.0219857
0.0211998
0.020467
0.0197822
0.0191408
0.0185389
0.017973
0.01744
0.0169372
0.0164621
0.0160125
0.0155865
0.0151821
0.014798
0.0144325
0.0140844
0.0137524
0.0134356
0.0131329
0.0128433
0.0125661
0.0123005
0.0120457
0.0118012
0.0115663
0.0113405
0.0111233
0.0109142
0.0107127
0.0105185
0.0103311
0.0101503
0.00997564
0.00980685
0.00964364
0.00948575
0.00933292
0.11639
0.0998533
0.0871435
0.07712
0.0690412
0.0624098
0.0568808
0.0522084
0.0482132
0.0447617
0.0417527
0.0391083
0.0367674
0.0346818
0.0328127
0.0311287
0.0296041
0.0282177
0.026952
0.025792
0.0247253
0.0237411
0.0228306
0.0219857
0.0211998
0.020467
0.0197822
0.0191408
0.0185389
0.017973
0.01744
0.0169372
0.0164621
0.0160125
0.0155864
0.0151821
0.0147979
0.0144325
0.0140844
0.0137524
0.0134356
0.0131328
0.0128433
0.0125661
0.0123004
0.0120457
0.0118012
0.0115663
0.0113405
0.0111233
0.0109142
0.0107127
0.0105185
0.0103311
0.0101503
0.00997561
0.00980682
0.00964362
0.00948572
0.00933289
0.11639
0.0998532
0.0871497
0.0771324
0.0690585
0.0624305
0.0569032
0.0522313
0.0482357
0.0447833
0.0417731
0.0391272
0.0367849
0.0346978
0.0328272
0.0311419
0.0296161
0.0282286
0.0269617
0.0258008
0.0247332
0.0237483
0.022837
0.0219915
0.021205
0.0204716
0.0197863
0.0191444
0.0185421
0.0179759
0.0174426
0.0169395
0.0164641
0.0160143
0.015588
0.0151834
0.0147991
0.0144334
0.0140851
0.0137531
0.0134361
0.0131332
0.0128436
0.0125663
0.0123005
0.0120457
0.0118011
0.0115662
0.0113403
0.011123
0.0109139
0.0107123
0.0105181
0.0103307
0.0101498
0.0099751
0.00980628
0.00964305
0.00948513
0.00933228
0.11639
0.0998142
0.0870859
0.0770516
0.0689691
0.0623383
0.0568121
0.0521435
0.0481525
0.0447053
0.0417006
0.0390601
0.036723
0.0346408
0.0327749
0.0310938
0.029572
0.0281881
0.0269247
0.0257669
0.0247021
0.0237199
0.022811
0.0219678
0.0211834
0.020452
0.0197684
0.0191282
0.0185275
0.0179627
0.0174308
0.016929
0.0164548
0.0160061
0.0155809
0.0151774
0.014794
0.0144293
0.0140819
0.0137507
0.0134345
0.0131324
0.0128435
0.0125669
0.0123019
0.0120478
0.0118039
0.0115696
0.0113445
0.011128
0.0109195
0.0107188
0.0105253
0.0103388
0.0101587
0.00998488
0.00981693
0.00965456
0.00949741
0.00934497
0.116417
0.0999853
0.0873786
0.0774625
0.0694932
0.062965
0.0575303
0.0529432
0.0490252
0.0456435
0.0426977
0.0401106
0.037822
0.0357844
0.0339596
0.0323167
0.0308305
0.0294802
0.0282486
0.0271211
0.0260855
0.0251313
0.0242497
0.023433
0.0226746
0.0219687
0.0213103
0.0206951
0.0201192
0.019579
0.0190717
0.0185946
0.0181451
0.0177212
0.0173209
0.0169425
0.0165844
0.0162451
0.0159234
0.0156181
0.015328
0.0150523
0.0147899
0.0145401
0.0143021
0.0140752
0.0138587
0.0136521
0.0134546
0.0132659
0.0130855
0.0129129
0.0127476
0.0125894
0.0124378
0.0122925
0.012153
0.0120188
0.0118883
0.0117484
0.200897
0.184965
0.171674
0.160443
0.150844
0.142558
0.135345
0.12902
0.123437
0.11848
0.114055
0.110086
0.10651
0.103275
0.100339
0.0976643
0.0952203
0.0929807
0.0909231
0.0890279
0.0872783
0.0856597
0.0841593
0.0827659
0.0814695
0.0802614
0.0791339
0.07808
0.0770935
0.076169
0.0753014
0.0744862
0.0737196
0.0729976
0.0723172
0.0716752
0.0710689
0.0704957
0.0699535
0.06944
0.0689534
0.0684919
0.0680539
0.0676378
0.0672422
0.0668659
0.0665077
0.0661665
0.0658412
0.0655309
0.0652347
0.0649518
0.0646815
0.0644229
0.0641754
0.0639385
0.0637115
0.0634939
0.0632852
0.0630848
0.200897
0.184965
0.171673
0.160443
0.150843
0.142557
0.135345
0.12902
0.123437
0.11848
0.114055
0.110085
0.10651
0.103275
0.100339
0.0976642
0.0952202
0.0929807
0.0909231
0.0890279
0.0872783
0.0856597
0.0841594
0.0827659
0.0814695
0.0802614
0.0791339
0.07808
0.0770935
0.076169
0.0753014
0.0744862
0.0737195
0.0729976
0.0723171
0.0716751
0.0710688
0.0704956
0.0699534
0.0694399
0.0689533
0.0684918
0.0680537
0.0676376
0.067242
0.0668657
0.0665075
0.0661663
0.065841
0.0655307
0.0652345
0.0649516
0.0646812
0.0644227
0.0641752
0.0639383
0.0637113
0.0634937
0.0632851
0.0630847
0.116417
0.0999853
0.0873786
0.0774623
0.0694929
0.0629645
0.0575294
0.0529419
0.0490234
0.0456413
0.0426953
0.0401081
0.0378195
0.0357819
0.0339572
0.0323145
0.0308284
0.0294783
0.0282468
0.0271193
0.0260837
0.0251295
0.0242478
0.0234311
0.0226726
0.0219668
0.0213085
0.0206933
0.0201175
0.0195775
0.0190704
0.0185934
0.0181441
0.0177203
0.0173202
0.016942
0.016584
0.0162449
0.0159233
0.0156181
0.0153281
0.0150524
0.0147901
0.0145403
0.0143022
0.0140752
0.0138587
0.0136519
0.0134545
0.0132658
0.0130853
0.0129127
0.0127475
0.0125893
0.0124377
0.0122924
0.012153
0.0120188
0.0118884
0.0117488
0.11639
0.0998142
0.087086
0.0770518
0.0689691
0.0623383
0.056812
0.0521434
0.0481524
0.0447052
0.0417004
0.0390599
0.0367228
0.0346406
0.0327747
0.0310936
0.0295718
0.028188
0.0269245
0.0257667
0.0247019
0.0237197
0.0228108
0.0219676
0.0211832
0.0204518
0.0197682
0.0191281
0.0185274
0.0179626
0.0174307
0.0169288
0.0164547
0.016006
0.0155808
0.0151773
0.0147939
0.0144291
0.0140818
0.0137506
0.0134345
0.0131325
0.0128438
0.0125674
0.0123026
0.0120487
0.0118051
0.0115712
0.0113463
0.0111301
0.010922
0.0107215
0.0105284
0.0103421
0.0101624
0.00998887
0.00982125
0.0096592
0.00950239
0.00935016
0.11639
0.0998532
0.0871498
0.0771324
0.0690585
0.0624304
0.0569032
0.0522312
0.0482356
0.0447832
0.041773
0.0391271
0.0367848
0.0346977
0.0328271
0.0311418
0.029616
0.0282285
0.0269617
0.0258007
0.0247331
0.0237482
0.0228369
0.0219914
0.0212049
0.0204716
0.0197862
0.0191444
0.0185421
0.0179758
0.0174425
0.0169394
0.0164641
0.0160142
0.0155879
0.0151834
0.014799
0.0144334
0.0140851
0.013753
0.0134361
0.0131332
0.0128435
0.0125662
0.0123005
0.0120457
0.0118011
0.0115661
0.0113403
0.011123
0.0109138
0.0107123
0.010518
0.0103306
0.0101497
0.00997505
0.00980624
0.00964301
0.00948509
0.00933224
0.11639
0.0998533
0.0871436
0.07712
0.0690412
0.0624098
0.0568808
0.0522083
0.0482131
0.0447616
0.0417526
0.0391082
0.0367673
0.0346817
0.0328125
0.0311285
0.029604
0.0282176
0.0269519
0.0257919
0.0247251
0.023741
0.0228305
0.0219856
0.0211997
0.0204669
0.0197821
0.0191407
0.0185388
0.0179729
0.0174399
0.0169371
0.016462
0.0160124
0.0155864
0.015182
0.0147979
0.0144324
0.0140843
0.0137523
0.0134355
0.0131327
0.0128432
0.012566
0.0123003
0.0120456
0.0118011
0.0115662
0.0113404
0.0111232
0.0109141
0.0107126
0.0105183
0.010331
0.0101501
0.00997547
0.00980668
0.00964347
0.00948557
0.00933274
0.11639
0.0998533
0.0871436
0.07712
0.0690412
0.0624098
0.0568808
0.0522083
0.0482131
0.0447616
0.0417526
0.0391082
0.0367673
0.0346817
0.0328126
0.0311286
0.029604
0.0282177
0.0269519
0.0257919
0.0247252
0.0237411
0.0228305
0.0219857
0.0211998
0.020467
0.0197821
0.0191407
0.0185388
0.0179729
0.0174399
0.0169371
0.016462
0.0160124
0.0155864
0.015182
0.0147979
0.0144324
0.0140843
0.0137523
0.0134355
0.0131327
0.0128432
0.012566
0.0123003
0.0120456
0.0118011
0.0115662
0.0113404
0.0111232
0.010914
0.0107126
0.0105183
0.010331
0.0101501
0.00997546
0.00980666
0.00964345
0.00948556
0.00933272
0.11639
0.0998532
0.0871498
0.0771324
0.0690585
0.0624304
0.0569032
0.0522312
0.0482356
0.0447832
0.041773
0.0391272
0.0367848
0.0346977
0.0328272
0.0311418
0.029616
0.0282285
0.0269617
0.0258007
0.0247331
0.0237482
0.0228369
0.0219914
0.0212049
0.0204716
0.0197862
0.0191444
0.0185421
0.0179758
0.0174425
0.0169394
0.0164641
0.0160142
0.0155879
0.0151834
0.014799
0.0144334
0.0140851
0.013753
0.013436
0.0131332
0.0128435
0.0125662
0.0123005
0.0120457
0.0118011
0.0115661
0.0113403
0.011123
0.0109138
0.0107123
0.010518
0.0103306
0.0101497
0.009975
0.00980618
0.00964295
0.00948503
0.00933217
0.11639
0.0998143
0.087086
0.0770518
0.0689692
0.0623383
0.0568121
0.0521435
0.0481525
0.0447053
0.0417005
0.03906
0.0367229
0.0346407
0.0327747
0.0310937
0.0295718
0.028188
0.0269246
0.0257667
0.024702
0.0237197
0.0228109
0.0219676
0.0211832
0.0204518
0.0197683
0.0191281
0.0185274
0.0179626
0.0174307
0.0169289
0.0164547
0.016006
0.0155808
0.0151773
0.0147939
0.0144291
0.0140818
0.0137505
0.0134344
0.0131323
0.0128434
0.0125668
0.0123017
0.0120476
0.0118037
0.0115695
0.0113443
0.0111278
0.0109194
0.0107187
0.0105252
0.0103386
0.0101586
0.00998474
0.00981679
0.00965442
0.00949726
0.00934482
0.116417
0.0999854
0.0873788
0.0774627
0.0694935
0.0629654
0.0575306
0.0529434
0.0490252
0.0456433
0.0426974
0.0401103
0.0378218
0.0357842
0.0339594
0.0323166
0.0308305
0.0294802
0.0282486
0.027121
0.0260853
0.025131
0.0242492
0.0234324
0.0226739
0.0219679
0.0213095
0.0206943
0.0201184
0.0195783
0.0190711
0.018594
0.0181447
0.0177209
0.0173207
0.0169423
0.0165843
0.0162451
0.0159234
0.0156181
0.0153281
0.0150524
0.0147901
0.0145403
0.0143023
0.0140754
0.0138589
0.0136523
0.0134548
0.0132661
0.0130857
0.0129131
0.0127479
0.0125896
0.012438
0.0122927
0.0121532
0.0120189
0.0118884
0.0117484
0.200897
0.184965
0.171673
0.160443
0.150843
0.142557
0.135344
0.12902
0.123437
0.11848
0.114054
0.110085
0.106509
0.103275
0.100339
0.097664
0.09522
0.0929805
0.0909228
0.0890276
0.0872781
0.0856595
0.0841591
0.0827656
0.0814693
0.0802612
0.0791336
0.0780797
0.0770932
0.0761687
0.0753011
0.0744859
0.0737192
0.0729973
0.0723169
0.0716748
0.0710685
0.0704953
0.0699531
0.0694396
0.068953
0.0684915
0.0680534
0.0676373
0.0672417
0.0668654
0.0665071
0.0661659
0.0658406
0.0655303
0.0652341
0.0649512
0.0646808
0.0644222
0.0641747
0.0639378
0.0637108
0.0634931
0.0632844
0.063084
)
;

boundaryField
{
    wall
    {
        type            compressible::alphatJayatillekeWallFunction;
        Prt             0.85;
        value           uniform 0;
    }
    inlet
    {
        type            calculated;
        value           uniform 9.47574;
    }
    outlet
    {
        type            calculated;
        value           nonuniform List<scalar> 
20
(
0.0630852
0.0117466
0.00935062
0.00933241
0.00933292
0.00933289
0.00933228
0.00934497
0.0117484
0.0630848
0.0630847
0.0117488
0.00935016
0.00933224
0.00933274
0.00933272
0.00933217
0.00934482
0.0117484
0.063084
)
;
    }
    heatWall
    {
        type            compressible::alphatJayatillekeWallFunction;
        Prt             0.85;
        value           nonuniform List<scalar> 
240
(
0.0209458
0.0209458
0.0193322
0.0193322
0.0179825
0.0179824
0.0168393
0.0168392
0.01586
0.0158599
0.015013
0.015013
0.0142744
0.0142743
0.0136256
0.0136255
0.013052
0.0130519
0.0125419
0.0125418
0.012086
0.0120859
0.0116765
0.0116764
0.0113071
0.0113071
0.0109727
0.0109727
0.0106688
0.0106687
0.0103916
0.0103916
0.0101382
0.0101381
0.00990573
0.0099057
0.00969199
0.00969196
0.00949497
0.00949495
0.00931297
0.00931294
0.00914447
0.00914445
0.00898818
0.00898816
0.00884295
0.00884292
0.00870775
0.00870772
0.00858169
0.00858167
0.00846398
0.00846395
0.0083539
0.00835387
0.00825081
0.00825079
0.00815416
0.00815413
0.00806342
0.00806339
0.00797814
0.00797811
0.00789789
0.00789786
0.0078223
0.00782227
0.00775103
0.007751
0.00768377
0.00768373
0.00762022
0.00762018
0.00756013
0.00756009
0.00750327
0.00750323
0.00744941
0.00744937
0.00739835
0.00739831
0.00734992
0.00734987
0.00730393
0.00730388
0.00726024
0.00726019
0.0072187
0.00721865
0.00717918
0.00717912
0.00714154
0.00714148
0.00710568
0.00710562
0.0070715
0.00707143
0.00703888
0.00703881
0.00700774
0.00700767
0.00697799
0.00697792
0.00694956
0.00694949
0.00692236
0.00692229
0.00689633
0.00689625
0.0068714
0.00687132
0.00684751
0.00684743
0.00682461
0.00682453
0.00680264
0.00680256
0.00678155
0.00678146
0.0209458
0.0209458
0.0193322
0.0193322
0.0179825
0.0179824
0.0168393
0.0168392
0.01586
0.0158599
0.0150131
0.015013
0.0142744
0.0142743
0.0136256
0.0136255
0.013052
0.0130519
0.0125419
0.0125419
0.012086
0.0120859
0.0116765
0.0116764
0.0113072
0.0113071
0.0109727
0.0109727
0.0106688
0.0106687
0.0103917
0.0103916
0.0101382
0.0101382
0.00990577
0.00990573
0.00969203
0.00969199
0.00949501
0.00949497
0.009313
0.00931297
0.00914451
0.00914448
0.00898822
0.00898819
0.00884298
0.00884295
0.00870778
0.00870775
0.00858172
0.0085817
0.00846401
0.00846398
0.00835393
0.0083539
0.00825085
0.00825082
0.00815419
0.00815416
0.00806345
0.00806342
0.00797817
0.00797814
0.00789792
0.00789789
0.00782233
0.0078223
0.00775106
0.00775103
0.00768379
0.00768376
0.00762025
0.00762021
0.00756016
0.00756012
0.0075033
0.00750326
0.00744944
0.0074494
0.00739838
0.00739834
0.00734995
0.0073499
0.00730396
0.00730392
0.00726027
0.00726023
0.00721873
0.00721868
0.0071792
0.00717916
0.00714157
0.00714152
0.00710571
0.00710566
0.00707153
0.00707147
0.00703891
0.00703886
0.00700777
0.00700772
0.00697802
0.00697797
0.00694959
0.00694953
0.00692239
0.00692234
0.00689636
0.00689631
0.00687144
0.00687138
0.00684755
0.00684749
0.00682465
0.00682459
0.00680269
0.00680263
0.00678159
0.00678153
)
;
    }
}


// ************************************************************************* //
