/*--------------------------------*- C++ -*----------------------------------*\
  =========                 |
  \\      /  F ield         | OpenFOAM: The Open Source CFD Toolbox
   \\    /   O peration     | Website:  https://openfoam.org
    \\  /    A nd           | Version:  8
     \\/     M anipulation  |
\*---------------------------------------------------------------------------*/
FoamFile
{
    version     2.0;
    format      ascii;
    class       volScalarField;
    location    "800";
    object      epsilon;
}
// * * * * * * * * * * * * * * * * * * * * * * * * * * * * * * * * * * * * * //

dimensions      [0 2 -3 0 0 0 0];

internalField   nonuniform List<scalar> 
1200
(
1.13863
0.888651
0.710518
0.579997
0.481995
0.406848
0.348166
0.301599
0.264116
0.233555
0.208351
0.187346
0.169676
0.154682
0.141859
0.130814
0.121237
0.112882
0.105552
0.0990877
0.0933597
0.0882611
0.0837037
0.0796143
0.0759313
0.0726031
0.0695859
0.0668423
0.0643406
0.0620533
0.0599568
0.0580306
0.0562569
0.0546202
0.0531068
0.0517048
0.0504037
0.0491939
0.0480674
0.0470166
0.046035
0.0451168
0.0442565
0.0434496
0.0426917
0.0419789
0.0413077
0.0406751
0.0400781
0.0395141
0.0389807
0.0384757
0.0379972
0.0375432
0.0371123
0.0367027
0.0363131
0.0359422
0.035589
0.0352519
1.45211
0.919932
0.613991
0.427779
0.308865
0.22974
0.175236
0.136571
0.108437
0.0875076
0.0716328
0.0593835
0.0497867
0.0421648
0.0360368
0.031055
0.0269641
0.0235739
0.0207408
0.0183549
0.0163313
0.0146037
0.01312
0.0118384
0.0107257
0.00975476
0.00890374
0.0081546
0.0074925
0.00690512
0.00638218
0.00591504
0.00549643
0.00512017
0.00478103
0.00447452
0.00419679
0.00394452
0.00371485
0.00350527
0.00331361
0.00313798
0.00297674
0.00282841
0.00269174
0.0025656
0.00244898
0.00234099
0.00224084
0.00214784
0.00206134
0.00198079
0.00190568
0.00183555
0.00176999
0.00170863
0.00165109
0.00159694
0.00154547
0.00149168
1.45109
0.915219
0.607842
0.421011
0.301933
0.222952
0.16876
0.130481
0.102755
0.0822291
0.0667381
0.0548465
0.0455787
0.0382571
0.0324019
0.0276675
0.0238007
0.0206133
0.0179639
0.0157446
0.0138724
0.0122824
0.010924
0.00975677
0.0087485
0.00787323
0.0071099
0.00644131
0.00585329
0.00533416
0.00487418
0.00446522
0.00410043
0.00377406
0.0034812
0.00321769
0.00297995
0.00276495
0.00257002
0.00239293
0.00223168
0.00208457
0.00195007
0.00182688
0.00171384
0.00160992
0.00151424
0.00142599
0.00134448
0.00126907
0.00119921
0.0011344
0.00107419
0.00101818
0.000966021
0.000917382
0.000871973
0.000829525
0.000789782
0.000752435
1.45109
0.916294
0.609182
0.422337
0.30311
0.223943
0.169574
0.131142
0.103289
0.0826604
0.0670871
0.0551298
0.0458097
0.0384462
0.0325575
0.027796
0.0239073
0.0207021
0.0180381
0.0158069
0.0139247
0.0123266
0.0109613
0.00978837
0.00877529
0.00789596
0.00712919
0.00645767
0.00586715
0.00534588
0.00488407
0.00447352
0.00410737
0.00377981
0.00348592
0.00322151
0.002983
0.00276731
0.00257179
0.00239414
0.0022324
0.00208481
0.00194989
0.00182629
0.00171288
0.00160861
0.0015126
0.00142405
0.00134225
0.00126656
0.00119644
0.00113139
0.00107094
0.00101472
0.000962348
0.00091351
0.000867911
0.00082529
0.000785407
0.000748048
1.45109
0.916297
0.609052
0.422133
0.302881
0.223721
0.169374
0.130969
0.103144
0.0825405
0.0669888
0.0550497
0.0457444
0.0383931
0.0325142
0.0277606
0.0238783
0.0206783
0.0180186
0.0157907
0.0139114
0.0123155
0.0109521
0.00978073
0.00876892
0.00789065
0.00712476
0.00645396
0.00586406
0.0053433
0.00488191
0.00447173
0.00410588
0.00377858
0.0034849
0.00322068
0.00298232
0.00276676
0.00257135
0.0023938
0.00223213
0.00208462
0.00194975
0.0018262
0.00171283
0.0016086
0.00151262
0.00142409
0.0013423
0.00126664
0.00119653
0.00113148
0.00107105
0.00101483
0.000962466
0.00091363
0.000868034
0.000825413
0.00078553
0.000748171
1.45109
0.916297
0.609052
0.422133
0.302882
0.223721
0.169374
0.130969
0.103144
0.0825406
0.0669889
0.0550498
0.0457445
0.0383931
0.0325142
0.0277607
0.0238783
0.0206783
0.0180186
0.0157907
0.0139114
0.0123155
0.0109522
0.00978074
0.00876893
0.00789065
0.00712476
0.00645397
0.00586406
0.0053433
0.00488191
0.00447172
0.00410588
0.00377857
0.0034849
0.00322067
0.00298231
0.00276675
0.00257134
0.00239379
0.00223212
0.00208461
0.00194974
0.00182619
0.00171282
0.00160859
0.00151261
0.00142408
0.0013423
0.00126663
0.00119652
0.00113148
0.00107104
0.00101482
0.000962459
0.000913624
0.000868028
0.000825407
0.000785525
0.000748165
1.45109
0.916294
0.609182
0.422336
0.30311
0.223943
0.169574
0.131142
0.103289
0.0826603
0.067087
0.0551298
0.0458096
0.0384462
0.0325575
0.027796
0.0239073
0.0207021
0.0180381
0.0158069
0.0139247
0.0123266
0.0109613
0.00978837
0.00877528
0.00789595
0.00712918
0.00645766
0.00586715
0.00534588
0.00488406
0.00447351
0.00410736
0.0037798
0.00348591
0.0032215
0.00298299
0.00276729
0.00257177
0.00239413
0.00223238
0.0020848
0.00194987
0.00182628
0.00171286
0.00160859
0.00151258
0.00142403
0.00134223
0.00126654
0.00119642
0.00113136
0.00107092
0.00101469
0.000962323
0.000913483
0.000867884
0.000825261
0.000785378
0.000748018
1.45109
0.915219
0.607843
0.421012
0.301934
0.222953
0.168761
0.130481
0.102756
0.0822294
0.0667382
0.0548466
0.0455787
0.0382571
0.032402
0.0276676
0.0238007
0.0206133
0.0179639
0.0157446
0.0138724
0.0122825
0.010924
0.00975678
0.0087485
0.00787323
0.0071099
0.00644131
0.00585329
0.00533416
0.00487417
0.00446521
0.00410042
0.00377405
0.00348118
0.00321767
0.00297994
0.00276492
0.00257
0.00239288
0.0022316
0.00208442
0.00194985
0.00182657
0.00171343
0.00160941
0.00151364
0.0014253
0.0013437
0.00126822
0.00119829
0.00113341
0.00107314
0.00101708
0.000964862
0.000916172
0.000870715
0.00082822
0.000788431
0.000751073
1.45211
0.919933
0.613994
0.427782
0.308869
0.229745
0.175242
0.136577
0.108444
0.0875153
0.0716407
0.0593915
0.0497946
0.0421724
0.036044
0.0310618
0.0269704
0.0235798
0.0207462
0.0183599
0.016336
0.0146081
0.013124
0.0118421
0.0107291
0.00975796
0.0089067
0.00815735
0.00749505
0.00690748
0.00638435
0.00591703
0.00549824
0.00512182
0.00478252
0.00447586
0.00419799
0.0039456
0.0037158
0.00350612
0.00331439
0.00313871
0.00297744
0.00282911
0.00269245
0.00256632
0.00244972
0.00234174
0.0022416
0.00214861
0.00206212
0.00198158
0.00190648
0.00183636
0.00177082
0.00170947
0.00165195
0.00159781
0.00154632
0.00149237
1.13863
0.88865
0.710516
0.579995
0.481993
0.406846
0.348163
0.301597
0.264113
0.233553
0.208349
0.187344
0.169674
0.15468
0.141858
0.130812
0.121235
0.11288
0.10555
0.0990865
0.0933586
0.08826
0.0837028
0.0796134
0.0759304
0.0726023
0.0695851
0.0668416
0.0643399
0.0620526
0.0599561
0.0580299
0.0562563
0.0546196
0.0531063
0.0517043
0.0504031
0.0491934
0.0480668
0.0470161
0.0460345
0.0451162
0.044256
0.0434491
0.0426912
0.0419784
0.0413072
0.0406746
0.0400776
0.0395136
0.0389801
0.0384751
0.0379966
0.0375426
0.0371116
0.036702
0.0363124
0.0359415
0.0355883
0.0352512
1.13863
0.888647
0.71051
0.579988
0.481986
0.406839
0.348158
0.301593
0.26411
0.23355
0.208346
0.187342
0.169672
0.154679
0.141857
0.130812
0.121235
0.11288
0.10555
0.0990865
0.0933586
0.0882601
0.0837029
0.0796135
0.0759306
0.0726024
0.0695852
0.0668417
0.0643399
0.0620526
0.0599561
0.0580299
0.0562563
0.0546195
0.0531062
0.0517042
0.050403
0.0491932
0.0480666
0.0470158
0.0460343
0.045116
0.0442557
0.0434488
0.0426908
0.041978
0.0413069
0.0406742
0.0400772
0.0395132
0.0389797
0.0384747
0.0379962
0.0375423
0.0371113
0.0367017
0.0363121
0.0359413
0.035588
0.0352509
1.45211
0.919935
0.613993
0.427779
0.308866
0.229739
0.175233
0.136567
0.108432
0.0875029
0.0716286
0.0593803
0.0497846
0.0421637
0.0360366
0.0310555
0.0269651
0.0235752
0.0207421
0.0183562
0.0163325
0.0146048
0.0131209
0.0118392
0.0107264
0.0097554
0.00890436
0.00815524
0.00749318
0.00690585
0.00638296
0.00591587
0.0054973
0.00512108
0.00478197
0.00447547
0.00419773
0.00394545
0.00371575
0.00350614
0.00331445
0.00313879
0.00297752
0.00282917
0.00269249
0.00256632
0.00244968
0.00234168
0.00224152
0.00214852
0.00206203
0.00198149
0.0019064
0.0018363
0.00177078
0.00170945
0.00165194
0.00159782
0.00154637
0.00149253
1.45109
0.915221
0.607846
0.421014
0.301935
0.222953
0.16876
0.130481
0.102755
0.0822284
0.0667373
0.0548458
0.045578
0.0382565
0.0324014
0.027667
0.0238002
0.0206129
0.0179636
0.0157443
0.0138721
0.0122822
0.0109238
0.00975655
0.0087483
0.00787304
0.00710973
0.00644114
0.00585314
0.00533402
0.00487404
0.00446509
0.00410031
0.00377394
0.00348108
0.00321758
0.00297985
0.00276484
0.00256992
0.00239282
0.00223158
0.00208446
0.00194996
0.00182677
0.00171372
0.00160981
0.00151413
0.00142588
0.00134436
0.00126896
0.00119909
0.00113428
0.00107407
0.00101807
0.000965909
0.000917271
0.000871863
0.000829415
0.000789672
0.000752325
1.45109
0.916294
0.609182
0.422336
0.303109
0.223943
0.169573
0.131141
0.103289
0.0826597
0.0670865
0.0551293
0.0458093
0.0384459
0.0325572
0.0277958
0.0239071
0.0207019
0.018038
0.0158068
0.0139246
0.0123265
0.0109612
0.00978829
0.00877522
0.00789589
0.00712913
0.00645761
0.0058671
0.00534584
0.00488402
0.00447348
0.00410733
0.00377977
0.00348588
0.00322147
0.00298296
0.00276727
0.00257175
0.00239411
0.00223236
0.00208478
0.00194985
0.00182626
0.00171284
0.00160857
0.00151256
0.00142401
0.00134221
0.00126652
0.0011964
0.00113135
0.00107091
0.00101468
0.000962309
0.00091347
0.000867872
0.00082525
0.000785367
0.000748008
1.45109
0.916297
0.609053
0.422134
0.302882
0.223721
0.169373
0.130969
0.103144
0.08254
0.0669884
0.0550492
0.045744
0.0383927
0.0325139
0.0277603
0.023878
0.0206781
0.0180184
0.0157906
0.0139112
0.0123154
0.010952
0.00978061
0.00876881
0.00789055
0.00712466
0.00645388
0.00586398
0.00534323
0.00488184
0.00447166
0.00410581
0.00377851
0.00348484
0.00322062
0.00298226
0.0027667
0.00257129
0.00239374
0.00223208
0.00208456
0.00194969
0.00182615
0.00171277
0.00160855
0.00151257
0.00142404
0.00134225
0.00126659
0.00119648
0.00113144
0.001071
0.00101479
0.00096242
0.000913585
0.000867989
0.000825369
0.000785486
0.000748127
1.45109
0.916297
0.609053
0.422134
0.302882
0.223721
0.169373
0.130969
0.103144
0.0825402
0.0669885
0.0550494
0.0457441
0.0383928
0.0325139
0.0277604
0.0238781
0.0206781
0.0180184
0.0157906
0.0139113
0.0123154
0.010952
0.00978063
0.00876883
0.00789056
0.00712468
0.00645389
0.00586399
0.00534323
0.00488185
0.00447166
0.00410582
0.00377851
0.00348484
0.00322062
0.00298226
0.0027667
0.00257129
0.00239374
0.00223208
0.00208456
0.00194969
0.00182615
0.00171277
0.00160854
0.00151256
0.00142403
0.00134225
0.00126659
0.00119648
0.00113143
0.001071
0.00101478
0.000962416
0.000913581
0.000867986
0.000825366
0.000785483
0.000748124
1.45109
0.916294
0.609182
0.422336
0.303109
0.223943
0.169573
0.131141
0.103289
0.0826598
0.0670866
0.0551294
0.0458093
0.0384459
0.0325573
0.0277959
0.0239071
0.020702
0.018038
0.0158068
0.0139246
0.0123265
0.0109613
0.00978831
0.00877523
0.0078959
0.00712914
0.00645762
0.00586711
0.00534584
0.00488402
0.00447348
0.00410733
0.00377977
0.00348588
0.00322147
0.00298296
0.00276726
0.00257174
0.0023941
0.00223235
0.00208477
0.00194984
0.00182625
0.00171283
0.00160857
0.00151256
0.001424
0.0013422
0.00126652
0.00119639
0.00113134
0.00107089
0.00101467
0.000962296
0.000913457
0.000867857
0.000825235
0.000785352
0.000747992
1.45109
0.915222
0.607847
0.421015
0.301936
0.222953
0.168761
0.130481
0.102755
0.0822289
0.0667377
0.0548461
0.0455783
0.0382567
0.0324016
0.0276672
0.0238004
0.020613
0.0179637
0.0157444
0.0138722
0.0122823
0.0109238
0.00975661
0.00874835
0.00787309
0.00710977
0.00644118
0.00585317
0.00533404
0.00487407
0.00446511
0.00410033
0.00377395
0.00348109
0.00321758
0.00297985
0.00276484
0.00256992
0.0023928
0.00223152
0.00208434
0.00194977
0.0018265
0.00171336
0.00160935
0.00151357
0.00142524
0.00134365
0.00126817
0.00119824
0.00113336
0.0010731
0.00101704
0.000964823
0.000916135
0.000870678
0.000828184
0.000788395
0.000751037
1.45211
0.919937
0.613998
0.427786
0.308873
0.229749
0.175244
0.136579
0.108444
0.0875144
0.0716394
0.0593902
0.0497935
0.0421716
0.0360435
0.0310615
0.0269704
0.0235797
0.0207461
0.0183596
0.0163355
0.0146074
0.0131232
0.0118412
0.0107281
0.00975695
0.00890571
0.00815641
0.00749419
0.00690672
0.0063837
0.0059165
0.00549783
0.00512153
0.00478232
0.00447574
0.00419793
0.00394558
0.00371581
0.00350615
0.00331444
0.00313877
0.00297751
0.00282919
0.00269254
0.00256642
0.00244981
0.00234184
0.00224171
0.00214871
0.00206222
0.00198168
0.00190658
0.00183646
0.00177091
0.00170956
0.00165202
0.00159787
0.00154637
0.00149238
1.13864
0.888648
0.710511
0.579988
0.481986
0.406839
0.348158
0.301592
0.26411
0.23355
0.208346
0.187342
0.169672
0.154678
0.141856
0.130811
0.121234
0.112879
0.10555
0.0990857
0.0933578
0.0882593
0.0837021
0.0796127
0.0759298
0.0726016
0.0695844
0.0668409
0.0643392
0.0620519
0.0599554
0.0580292
0.0562556
0.0546189
0.0531055
0.0517035
0.0504023
0.0491926
0.048066
0.0470152
0.0460336
0.0451153
0.0442551
0.0434481
0.0426902
0.0419774
0.0413062
0.0406735
0.0400765
0.0395124
0.038979
0.038474
0.0379954
0.0375414
0.0371104
0.0367008
0.0363112
0.0359402
0.0355869
0.0352498
)
;

boundaryField
{
    wall
    {
        type            epsilonWallFunction;
        value           nonuniform List<scalar> 
1200
(
1.13863
1.45211
1.45109
1.45109
1.45109
1.45109
1.45109
1.45109
1.45211
1.13863
0.888651
0.919932
0.915219
0.916294
0.916297
0.916297
0.916294
0.915219
0.919933
0.88865
0.710518
0.613991
0.607842
0.609182
0.609052
0.609052
0.609182
0.607843
0.613994
0.710516
0.579997
0.427779
0.421011
0.422337
0.422133
0.422133
0.422336
0.421012
0.427782
0.579995
0.481995
0.308865
0.301933
0.30311
0.302881
0.302882
0.30311
0.301934
0.308869
0.481993
0.406848
0.22974
0.222952
0.223943
0.223721
0.223721
0.223943
0.222953
0.229745
0.406846
0.348166
0.175236
0.16876
0.169574
0.169374
0.169374
0.169574
0.168761
0.175242
0.348163
0.301599
0.136571
0.130481
0.131142
0.130969
0.130969
0.131142
0.130481
0.136577
0.301597
0.264116
0.108437
0.102755
0.103289
0.103144
0.103144
0.103289
0.102756
0.108444
0.264113
0.233555
0.0875076
0.0822291
0.0826604
0.0825405
0.0825406
0.0826603
0.0822294
0.0875153
0.233553
0.208351
0.0716328
0.0667381
0.0670871
0.0669888
0.0669889
0.067087
0.0667382
0.0716407
0.208349
0.187346
0.0593835
0.0548465
0.0551298
0.0550497
0.0550498
0.0551298
0.0548466
0.0593915
0.187344
0.169676
0.0497867
0.0455787
0.0458097
0.0457444
0.0457445
0.0458096
0.0455787
0.0497946
0.169674
0.154682
0.0421648
0.0382571
0.0384462
0.0383931
0.0383931
0.0384462
0.0382571
0.0421724
0.15468
0.141859
0.0360368
0.0324019
0.0325575
0.0325142
0.0325142
0.0325575
0.032402
0.036044
0.141858
0.130814
0.031055
0.0276675
0.027796
0.0277606
0.0277607
0.027796
0.0276676
0.0310618
0.130812
0.121237
0.0269641
0.0238007
0.0239073
0.0238783
0.0238783
0.0239073
0.0238007
0.0269704
0.121235
0.112882
0.0235739
0.0206133
0.0207021
0.0206783
0.0206783
0.0207021
0.0206133
0.0235798
0.11288
0.105552
0.0207408
0.0179639
0.0180381
0.0180186
0.0180186
0.0180381
0.0179639
0.0207462
0.10555
0.0990877
0.0183549
0.0157446
0.0158069
0.0157907
0.0157907
0.0158069
0.0157446
0.0183599
0.0990865
0.0933597
0.0163313
0.0138724
0.0139247
0.0139114
0.0139114
0.0139247
0.0138724
0.016336
0.0933586
0.0882611
0.0146037
0.0122824
0.0123266
0.0123155
0.0123155
0.0123266
0.0122825
0.0146081
0.08826
0.0837037
0.01312
0.010924
0.0109613
0.0109521
0.0109522
0.0109613
0.010924
0.013124
0.0837028
0.0796143
0.0118384
0.00975677
0.00978837
0.00978073
0.00978074
0.00978837
0.00975678
0.0118421
0.0796134
0.0759313
0.0107257
0.0087485
0.00877529
0.00876892
0.00876893
0.00877528
0.0087485
0.0107291
0.0759304
0.0726031
0.00975476
0.00787323
0.00789596
0.00789065
0.00789065
0.00789595
0.00787323
0.00975796
0.0726023
0.0695859
0.00890374
0.0071099
0.00712919
0.00712476
0.00712476
0.00712918
0.0071099
0.0089067
0.0695851
0.0668423
0.0081546
0.00644131
0.00645767
0.00645396
0.00645397
0.00645766
0.00644131
0.00815735
0.0668416
0.0643406
0.0074925
0.00585329
0.00586715
0.00586406
0.00586406
0.00586715
0.00585329
0.00749505
0.0643399
0.0620533
0.00690512
0.00533416
0.00534588
0.0053433
0.0053433
0.00534588
0.00533416
0.00690748
0.0620526
0.0599568
0.00638218
0.00487418
0.00488407
0.00488191
0.00488191
0.00488406
0.00487417
0.00638435
0.0599561
0.0580306
0.00591504
0.00446522
0.00447352
0.00447173
0.00447172
0.00447351
0.00446521
0.00591703
0.0580299
0.0562569
0.00549643
0.00410043
0.00410737
0.00410588
0.00410588
0.00410736
0.00410042
0.00549824
0.0562563
0.0546202
0.00512017
0.00377406
0.00377981
0.00377858
0.00377857
0.0037798
0.00377405
0.00512182
0.0546196
0.0531068
0.00478103
0.0034812
0.00348592
0.0034849
0.0034849
0.00348591
0.00348118
0.00478252
0.0531063
0.0517048
0.00447452
0.00321769
0.00322151
0.00322068
0.00322067
0.0032215
0.00321767
0.00447586
0.0517043
0.0504037
0.00419679
0.00297995
0.002983
0.00298232
0.00298231
0.00298299
0.00297994
0.00419799
0.0504031
0.0491939
0.00394452
0.00276495
0.00276731
0.00276676
0.00276675
0.00276729
0.00276492
0.0039456
0.0491934
0.0480674
0.00371485
0.00257002
0.00257179
0.00257135
0.00257134
0.00257177
0.00257
0.0037158
0.0480668
0.0470166
0.00350527
0.00239293
0.00239414
0.0023938
0.00239379
0.00239413
0.00239288
0.00350612
0.0470161
0.046035
0.00331361
0.00223168
0.0022324
0.00223213
0.00223212
0.00223238
0.0022316
0.00331439
0.0460345
0.0451168
0.00313798
0.00208457
0.00208481
0.00208462
0.00208461
0.0020848
0.00208442
0.00313871
0.0451162
0.0442565
0.00297674
0.00195007
0.00194989
0.00194975
0.00194974
0.00194987
0.00194985
0.00297744
0.044256
0.0434496
0.00282841
0.00182688
0.00182629
0.0018262
0.00182619
0.00182628
0.00182657
0.00282911
0.0434491
0.0426917
0.00269174
0.00171384
0.00171288
0.00171283
0.00171282
0.00171286
0.00171343
0.00269245
0.0426912
0.0419789
0.0025656
0.00160992
0.00160861
0.0016086
0.00160859
0.00160859
0.00160941
0.00256632
0.0419784
0.0413077
0.00244898
0.00151424
0.0015126
0.00151262
0.00151261
0.00151258
0.00151364
0.00244972
0.0413072
0.0406751
0.00234099
0.00142599
0.00142405
0.00142409
0.00142408
0.00142403
0.0014253
0.00234174
0.0406746
0.0400781
0.00224084
0.00134448
0.00134225
0.0013423
0.0013423
0.00134223
0.0013437
0.0022416
0.0400776
0.0395141
0.00214784
0.00126907
0.00126656
0.00126664
0.00126663
0.00126654
0.00126822
0.00214861
0.0395136
0.0389807
0.00206134
0.00119921
0.00119644
0.00119653
0.00119652
0.00119642
0.00119829
0.00206212
0.0389801
0.0384757
0.00198079
0.0011344
0.00113139
0.00113148
0.00113148
0.00113136
0.00113341
0.00198158
0.0384751
0.0379972
0.00190568
0.00107419
0.00107094
0.00107105
0.00107104
0.00107092
0.00107314
0.00190648
0.0379966
0.0375432
0.00183555
0.00101818
0.00101472
0.00101483
0.00101482
0.00101469
0.00101708
0.00183636
0.0375426
0.0371123
0.00176999
0.000966021
0.000962348
0.000962466
0.000962459
0.000962323
0.000964862
0.00177082
0.0371116
0.0367027
0.00170863
0.000917382
0.00091351
0.00091363
0.000913624
0.000913483
0.000916172
0.00170947
0.036702
0.0363131
0.00165109
0.000871973
0.000867911
0.000868034
0.000868028
0.000867884
0.000870715
0.00165195
0.0363124
0.0359422
0.00159694
0.000829525
0.00082529
0.000825413
0.000825407
0.000825261
0.00082822
0.00159781
0.0359415
0.035589
0.00154547
0.000789782
0.000785407
0.00078553
0.000785525
0.000785378
0.000788431
0.00154632
0.0355883
0.0352519
0.00149168
0.000752435
0.000748048
0.000748171
0.000748165
0.000748018
0.000751073
0.00149237
0.0352512
1.13863
1.45211
1.45109
1.45109
1.45109
1.45109
1.45109
1.45109
1.45211
1.13864
0.888647
0.919935
0.915221
0.916294
0.916297
0.916297
0.916294
0.915222
0.919937
0.888648
0.71051
0.613993
0.607846
0.609182
0.609053
0.609053
0.609182
0.607847
0.613998
0.710511
0.579988
0.427779
0.421014
0.422336
0.422134
0.422134
0.422336
0.421015
0.427786
0.579988
0.481986
0.308866
0.301935
0.303109
0.302882
0.302882
0.303109
0.301936
0.308873
0.481986
0.406839
0.229739
0.222953
0.223943
0.223721
0.223721
0.223943
0.222953
0.229749
0.406839
0.348158
0.175233
0.16876
0.169573
0.169373
0.169373
0.169573
0.168761
0.175244
0.348158
0.301593
0.136567
0.130481
0.131141
0.130969
0.130969
0.131141
0.130481
0.136579
0.301592
0.26411
0.108432
0.102755
0.103289
0.103144
0.103144
0.103289
0.102755
0.108444
0.26411
0.23355
0.0875029
0.0822284
0.0826597
0.08254
0.0825402
0.0826598
0.0822289
0.0875144
0.23355
0.208346
0.0716286
0.0667373
0.0670865
0.0669884
0.0669885
0.0670866
0.0667377
0.0716394
0.208346
0.187342
0.0593803
0.0548458
0.0551293
0.0550492
0.0550494
0.0551294
0.0548461
0.0593902
0.187342
0.169672
0.0497846
0.045578
0.0458093
0.045744
0.0457441
0.0458093
0.0455783
0.0497935
0.169672
0.154679
0.0421637
0.0382565
0.0384459
0.0383927
0.0383928
0.0384459
0.0382567
0.0421716
0.154678
0.141857
0.0360366
0.0324014
0.0325572
0.0325139
0.0325139
0.0325573
0.0324016
0.0360435
0.141856
0.130812
0.0310555
0.027667
0.0277958
0.0277603
0.0277604
0.0277959
0.0276672
0.0310615
0.130811
0.121235
0.0269651
0.0238002
0.0239071
0.023878
0.0238781
0.0239071
0.0238004
0.0269704
0.121234
0.11288
0.0235752
0.0206129
0.0207019
0.0206781
0.0206781
0.020702
0.020613
0.0235797
0.112879
0.10555
0.0207421
0.0179636
0.018038
0.0180184
0.0180184
0.018038
0.0179637
0.0207461
0.10555
0.0990865
0.0183562
0.0157443
0.0158068
0.0157906
0.0157906
0.0158068
0.0157444
0.0183596
0.0990857
0.0933586
0.0163325
0.0138721
0.0139246
0.0139112
0.0139113
0.0139246
0.0138722
0.0163355
0.0933578
0.0882601
0.0146048
0.0122822
0.0123265
0.0123154
0.0123154
0.0123265
0.0122823
0.0146074
0.0882593
0.0837029
0.0131209
0.0109238
0.0109612
0.010952
0.010952
0.0109613
0.0109238
0.0131232
0.0837021
0.0796135
0.0118392
0.00975655
0.00978829
0.00978061
0.00978063
0.00978831
0.00975661
0.0118412
0.0796127
0.0759306
0.0107264
0.0087483
0.00877522
0.00876881
0.00876883
0.00877523
0.00874835
0.0107281
0.0759298
0.0726024
0.0097554
0.00787304
0.00789589
0.00789055
0.00789056
0.0078959
0.00787309
0.00975695
0.0726016
0.0695852
0.00890436
0.00710973
0.00712913
0.00712466
0.00712468
0.00712914
0.00710977
0.00890571
0.0695844
0.0668417
0.00815524
0.00644114
0.00645761
0.00645388
0.00645389
0.00645762
0.00644118
0.00815641
0.0668409
0.0643399
0.00749318
0.00585314
0.0058671
0.00586398
0.00586399
0.00586711
0.00585317
0.00749419
0.0643392
0.0620526
0.00690585
0.00533402
0.00534584
0.00534323
0.00534323
0.00534584
0.00533404
0.00690672
0.0620519
0.0599561
0.00638296
0.00487404
0.00488402
0.00488184
0.00488185
0.00488402
0.00487407
0.0063837
0.0599554
0.0580299
0.00591587
0.00446509
0.00447348
0.00447166
0.00447166
0.00447348
0.00446511
0.0059165
0.0580292
0.0562563
0.0054973
0.00410031
0.00410733
0.00410581
0.00410582
0.00410733
0.00410033
0.00549783
0.0562556
0.0546195
0.00512108
0.00377394
0.00377977
0.00377851
0.00377851
0.00377977
0.00377395
0.00512153
0.0546189
0.0531062
0.00478197
0.00348108
0.00348588
0.00348484
0.00348484
0.00348588
0.00348109
0.00478232
0.0531055
0.0517042
0.00447547
0.00321758
0.00322147
0.00322062
0.00322062
0.00322147
0.00321758
0.00447574
0.0517035
0.050403
0.00419773
0.00297985
0.00298296
0.00298226
0.00298226
0.00298296
0.00297985
0.00419793
0.0504023
0.0491932
0.00394545
0.00276484
0.00276727
0.0027667
0.0027667
0.00276726
0.00276484
0.00394558
0.0491926
0.0480666
0.00371575
0.00256992
0.00257175
0.00257129
0.00257129
0.00257174
0.00256992
0.00371581
0.048066
0.0470158
0.00350614
0.00239282
0.00239411
0.00239374
0.00239374
0.0023941
0.0023928
0.00350615
0.0470152
0.0460343
0.00331445
0.00223158
0.00223236
0.00223208
0.00223208
0.00223235
0.00223152
0.00331444
0.0460336
0.045116
0.00313879
0.00208446
0.00208478
0.00208456
0.00208456
0.00208477
0.00208434
0.00313877
0.0451153
0.0442557
0.00297752
0.00194996
0.00194985
0.00194969
0.00194969
0.00194984
0.00194977
0.00297751
0.0442551
0.0434488
0.00282917
0.00182677
0.00182626
0.00182615
0.00182615
0.00182625
0.0018265
0.00282919
0.0434481
0.0426908
0.00269249
0.00171372
0.00171284
0.00171277
0.00171277
0.00171283
0.00171336
0.00269254
0.0426902
0.041978
0.00256632
0.00160981
0.00160857
0.00160855
0.00160854
0.00160857
0.00160935
0.00256642
0.0419774
0.0413069
0.00244968
0.00151413
0.00151256
0.00151257
0.00151256
0.00151256
0.00151357
0.00244981
0.0413062
0.0406742
0.00234168
0.00142588
0.00142401
0.00142404
0.00142403
0.001424
0.00142524
0.00234184
0.0406735
0.0400772
0.00224152
0.00134436
0.00134221
0.00134225
0.00134225
0.0013422
0.00134365
0.00224171
0.0400765
0.0395132
0.00214852
0.00126896
0.00126652
0.00126659
0.00126659
0.00126652
0.00126817
0.00214871
0.0395124
0.0389797
0.00206203
0.00119909
0.0011964
0.00119648
0.00119648
0.00119639
0.00119824
0.00206222
0.038979
0.0384747
0.00198149
0.00113428
0.00113135
0.00113144
0.00113143
0.00113134
0.00113336
0.00198168
0.038474
0.0379962
0.0019064
0.00107407
0.00107091
0.001071
0.001071
0.00107089
0.0010731
0.00190658
0.0379954
0.0375423
0.0018363
0.00101807
0.00101468
0.00101479
0.00101478
0.00101467
0.00101704
0.00183646
0.0375414
0.0371113
0.00177078
0.000965909
0.000962309
0.00096242
0.000962416
0.000962296
0.000964823
0.00177091
0.0371104
0.0367017
0.00170945
0.000917271
0.00091347
0.000913585
0.000913581
0.000913457
0.000916135
0.00170956
0.0367008
0.0363121
0.00165194
0.000871863
0.000867872
0.000867989
0.000867986
0.000867857
0.000870678
0.00165202
0.0363112
0.0359413
0.00159782
0.000829415
0.00082525
0.000825369
0.000825366
0.000825235
0.000828184
0.00159787
0.0359402
0.035588
0.00154637
0.000789672
0.000785367
0.000785486
0.000785483
0.000785352
0.000788395
0.00154637
0.0355869
0.0352509
0.00149253
0.000752325
0.000748008
0.000748127
0.000748124
0.000747992
0.000751037
0.00149238
0.0352498
)
;
    }
    inlet
    {
        type            turbulentMixingLengthDissipationRateInlet;
        mixingLength    0.071;
        phi             phi;
        k               k;
        value           uniform 0.0340134;
    }
    outlet
    {
        type            inletOutlet;
        inletValue      uniform 0.0001;
        value           nonuniform List<scalar> 
20
(
0.0352519
0.00149168
0.000752435
0.000748048
0.000748171
0.000748165
0.000748018
0.000751073
0.00149237
0.0352512
0.0352509
0.00149253
0.000752325
0.000748008
0.000748127
0.000748124
0.000747992
0.000751037
0.00149238
0.0352498
)
;
    }
    heatWall
    {
        type            epsilonWallFunction;
        value           nonuniform List<scalar> 
240
(
1.13863
1.13864
0.88865
0.888648
0.710516
0.710511
0.579995
0.579988
0.481993
0.481986
0.406846
0.406839
0.348163
0.348158
0.301597
0.301592
0.264113
0.26411
0.233553
0.23355
0.208349
0.208346
0.187344
0.187342
0.169674
0.169672
0.15468
0.154678
0.141858
0.141856
0.130812
0.130811
0.121235
0.121234
0.11288
0.112879
0.10555
0.10555
0.0990865
0.0990857
0.0933586
0.0933578
0.08826
0.0882593
0.0837028
0.0837021
0.0796134
0.0796127
0.0759304
0.0759298
0.0726023
0.0726016
0.0695851
0.0695844
0.0668416
0.0668409
0.0643399
0.0643392
0.0620526
0.0620519
0.0599561
0.0599554
0.0580299
0.0580292
0.0562563
0.0562556
0.0546196
0.0546189
0.0531063
0.0531055
0.0517043
0.0517035
0.0504031
0.0504023
0.0491934
0.0491926
0.0480668
0.048066
0.0470161
0.0470152
0.0460345
0.0460336
0.0451162
0.0451153
0.044256
0.0442551
0.0434491
0.0434481
0.0426912
0.0426902
0.0419784
0.0419774
0.0413072
0.0413062
0.0406746
0.0406735
0.0400776
0.0400765
0.0395136
0.0395124
0.0389801
0.038979
0.0384751
0.038474
0.0379966
0.0379954
0.0375426
0.0375414
0.0371116
0.0371104
0.036702
0.0367008
0.0363124
0.0363112
0.0359415
0.0359402
0.0355883
0.0355869
0.0352512
0.0352498
1.13863
1.13863
0.888651
0.888647
0.710518
0.71051
0.579997
0.579988
0.481995
0.481986
0.406848
0.406839
0.348166
0.348158
0.301599
0.301593
0.264116
0.26411
0.233555
0.23355
0.208351
0.208346
0.187346
0.187342
0.169676
0.169672
0.154682
0.154679
0.141859
0.141857
0.130814
0.130812
0.121237
0.121235
0.112882
0.11288
0.105552
0.10555
0.0990877
0.0990865
0.0933597
0.0933586
0.0882611
0.0882601
0.0837037
0.0837029
0.0796143
0.0796135
0.0759313
0.0759306
0.0726031
0.0726024
0.0695859
0.0695852
0.0668423
0.0668417
0.0643406
0.0643399
0.0620533
0.0620526
0.0599568
0.0599561
0.0580306
0.0580299
0.0562569
0.0562563
0.0546202
0.0546195
0.0531068
0.0531062
0.0517048
0.0517042
0.0504037
0.050403
0.0491939
0.0491932
0.0480674
0.0480666
0.0470166
0.0470158
0.046035
0.0460343
0.0451168
0.045116
0.0442565
0.0442557
0.0434496
0.0434488
0.0426917
0.0426908
0.0419789
0.041978
0.0413077
0.0413069
0.0406751
0.0406742
0.0400781
0.0400772
0.0395141
0.0395132
0.0389807
0.0389797
0.0384757
0.0384747
0.0379972
0.0379962
0.0375432
0.0375423
0.0371123
0.0371113
0.0367027
0.0367017
0.0363131
0.0363121
0.0359422
0.0359413
0.035589
0.035588
0.0352519
0.0352509
)
;
    }
}


// ************************************************************************* //
