/*--------------------------------*- C++ -*----------------------------------*\
  =========                 |
  \\      /  F ield         | OpenFOAM: The Open Source CFD Toolbox
   \\    /   O peration     | Website:  https://openfoam.org
    \\  /    A nd           | Version:  8
     \\/     M anipulation  |
\*---------------------------------------------------------------------------*/
FoamFile
{
    version     2.0;
    format      ascii;
    class       volScalarField;
    location    "800";
    object      p_rgh;
}
// * * * * * * * * * * * * * * * * * * * * * * * * * * * * * * * * * * * * * //

dimensions      [1 -1 -2 0 0 0 0];

internalField   nonuniform List<scalar> 
1200
(
561.978
354.189
266.26
235.942
215.757
198.838
185.198
173.865
164.02
155.288
147.451
140.365
133.928
128.045
122.638
117.642
113.008
108.694
104.66
100.868
97.2927
93.9121
90.6984
87.6271
84.6851
81.8587
79.1289
76.4822
73.9103
71.4014
68.9447
66.533
64.1588
61.8143
59.4945
57.195
54.9116
52.6389
50.371
48.1064
45.8443
43.5803
41.3122
39.0399
36.7612
34.472
32.1693
29.8537
27.5272
25.1881
22.8329
20.4615
18.0729
15.6679
13.2475
10.8078
8.34066
5.82471
3.22056
-0.158814
119.757
145.222
151.573
157.482
158.464
155.642
151.414
146.684
141.762
136.849
132.057
127.448
123.056
118.884
114.919
111.146
107.551
104.123
100.844
97.699
94.6767
91.7672
88.9553
86.2273
83.5775
80.9992
78.4801
76.0126
73.5926
71.2122
68.8644
66.5451
64.2487
61.9699
59.7053
57.452
55.2072
52.9665
50.7253
48.4823
46.2355
43.982
41.7213
39.4537
37.1775
34.8894
32.5864
30.2694
27.9407
25.5985
23.2396
20.864
18.471
16.0616
13.6364
11.1931
8.72586
6.224
3.67316
0.954667
191.176
248.873
255.421
242.204
227.103
212.429
198.661
186.106
174.794
164.619
155.439
147.138
139.623
132.801
126.58
120.884
115.648
110.818
106.345
102.181
98.2892
94.6374
91.1934
87.9286
84.8232
81.8578
79.011
76.2675
73.6147
71.0386
68.5276
66.0726
63.664
61.2929
58.9534
56.6397
54.3467
52.0683
49.7985
47.5348
45.2734
43.0103
40.7443
38.4749
36.1995
33.9145
31.6169
29.3074
26.9874
24.6544
22.3055
19.9401
17.5579
15.1597
12.7456
10.3149
7.86554
5.3998
2.94564
0.653961
191.665
214.009
207.372
189.68
175.825
165.536
156.924
149.468
142.964
137.171
131.895
127.024
122.494
118.253
114.261
110.484
106.897
103.482
100.222
97.0996
94.0986
91.2067
88.4112
85.7005
83.0669
80.5016
77.9941
75.5381
73.1277
70.7552
68.4155
66.1044
63.8156
61.5443
59.2876
57.0419
54.8044
52.5708
50.3373
48.1031
45.8663
43.6233
41.3737
39.1166
36.85
34.5708
32.2769
29.9695
27.6499
25.3155
22.9643
20.5954
18.2096
15.8071
13.3882
10.9537
8.50493
6.05229
3.63562
1.44811
195.263
214.69
218.204
208.751
198.64
189.27
179.77
170.455
161.714
153.626
146.159
139.28
132.95
127.124
121.753
116.781
112.166
107.868
103.852
100.083
96.5313
93.1687
89.9724
86.9214
83.9985
81.1869
78.4711
75.8394
73.2805
70.7829
68.339
65.9412
63.5806
61.2507
58.9463
56.6624
54.3941
52.1361
49.8843
47.6368
45.3898
43.1393
40.8845
38.6238
36.3545
34.0739
31.7802
29.4743
27.1567
24.8244
22.4759
20.1102
17.7283
15.3299
12.9148
10.4853
8.04423
5.6077
3.22948
1.15161
195.257
214.682
218.193
208.734
198.619
189.245
179.749
170.442
161.705
153.618
146.156
139.281
132.953
127.127
121.755
116.783
112.167
107.868
103.851
100.082
96.5287
93.1648
89.9673
86.9157
83.9922
81.1796
78.4633
75.8315
73.2719
70.7734
68.329
65.9307
63.5697
61.2396
58.9354
56.6516
54.3832
52.1248
49.873
47.6257
45.3786
43.1282
40.8739
38.614
36.3455
34.0664
31.7751
29.4722
27.1573
24.8271
22.4806
20.1173
17.7378
15.3415
12.928
10.4997
8.0596
5.62338
3.24354
1.16022
191.651
213.999
207.37
189.68
175.821
165.526
156.903
149.452
142.947
137.146
131.869
127.001
122.468
118.223
114.229
110.452
106.865
103.451
100.192
97.0719
94.0726
91.1813
88.3866
85.6779
83.0453
80.4791
77.972
75.5171
73.106
70.7321
68.3919
66.0804
63.7913
61.5207
59.2652
57.021
54.784
52.5502
50.3178
48.0854
45.8491
43.6066
41.3575
39.1003
36.8322
34.5514
32.2579
29.9524
27.6339
25.2993
22.948
20.58
18.1957
15.7942
13.375
10.9397
8.48969
6.03554
3.61586
1.42563
191.142
248.82
255.358
242.145
227.046
212.365
198.613
186.091
174.793
164.613
155.437
147.144
139.626
132.794
126.567
120.866
115.627
110.796
106.322
102.16
98.2695
94.6174
91.1736
87.9117
84.8083
81.842
78.9961
76.2549
73.6016
71.0235
68.5119
66.0569
63.6483
61.2784
58.9406
56.6287
54.3362
52.0568
49.788
47.5266
45.2675
43.0081
40.7467
38.4807
36.207
33.9224
31.6263
29.3197
27.0009
24.6668
22.3169
19.9516
17.5705
15.1722
12.7563
10.3229
7.87068
5.40252
2.94492
0.648915
119.722
145.199
151.525
157.425
158.401
155.563
151.341
146.632
141.712
136.79
132.004
127.408
123.019
118.846
114.881
111.109
107.516
104.09
100.814
97.6722
94.6523
91.742
88.9296
86.2046
83.5567
80.9763
78.4573
75.9924
73.5717
71.1888
68.8403
66.5211
64.2251
61.9478
59.6855
57.4347
55.1909
52.9498
50.7106
48.4717
46.2288
43.9808
41.7266
39.4643
37.1912
34.9045
32.6048
30.293
27.9676
25.6257
23.2672
20.8932
18.5028
16.0946
13.6683
11.2228
8.75285
6.2483
3.69132
0.961959
561.89
354.195
266.242
235.922
215.741
198.812
185.187
173.884
164.046
155.303
147.472
140.396
133.957
128.069
122.659
117.662
113.029
108.717
104.684
100.898
97.3275
93.9484
90.7365
87.6714
84.734
81.9077
79.1802
76.5386
73.9679
71.458
69.0022
66.5925
64.2204
61.879
59.5627
57.2667
54.9851
52.7124
50.4473
48.187
45.9267
43.665
41.3999
39.129
36.8494
34.5585
32.2579
29.9471
27.6236
25.2842
22.9289
20.5588
18.1724
15.7684
13.3462
10.904
8.43383
5.91487
3.30266
-0.0912222
561.319
354.094
266.179
235.894
215.759
198.833
185.208
173.927
164.114
155.38
147.547
140.466
134.011
128.099
122.665
117.653
113.009
108.686
104.648
100.862
97.2934
93.9124
90.699
87.636
84.6997
81.8713
79.1407
76.4954
73.9209
71.4082
68.9501
66.5372
64.1623
61.8198
59.5031
57.2056
54.9222
52.6501
50.3872
48.1285
45.8703
43.6112
41.3478
39.0762
36.795
34.5051
32.2066
29.8962
27.5696
25.2269
22.8701
20.4977
18.1094
15.7034
13.2774
10.8316
8.36403
5.85477
3.25478
-0.133796
119.661
145.148
151.411
157.371
158.428
155.62
151.406
146.714
141.812
136.891
132.1
127.498
123.095
118.898
114.909
111.12
107.517
104.08
100.796
97.6523
94.6323
91.72
88.9066
86.1843
83.5384
80.9578
78.4383
75.9721
73.5497
71.1663
68.8172
66.4961
64.1985
61.9208
59.6581
57.4057
55.1597
52.9184
50.6806
48.4423
46.1989
43.95
41.6938
39.4269
37.1488
34.8605
32.5623
30.2511
27.9229
25.5782
23.2187
20.8435
18.4521
16.0428
13.6138
11.1656
8.69842
6.20387
3.659
0.93951
191.046
248.541
254.98
241.831
226.852
212.266
198.561
186.067
174.793
164.629
155.463
147.18
139.667
132.831
126.595
120.888
115.645
110.808
106.327
102.159
98.2639
94.6072
91.16
87.8979
84.7939
81.8264
78.98
76.2381
73.5843
71.0075
68.4969
66.0412
63.6324
61.2633
58.926
56.6134
54.3194
52.0403
49.7732
47.5127
45.2535
42.9942
40.7318
38.4624
36.1848
33.8995
31.6062
29.3015
26.9812
24.6456
22.2962
19.9319
17.5515
15.1535
12.7369
10.3022
7.8526
5.39345
2.94533
0.653031
191.575
213.899
207.253
189.609
175.836
165.595
156.991
149.534
143.023
137.21
131.924
127.055
122.521
118.27
114.264
110.479
106.889
103.471
100.204
97.0748
94.0686
91.1722
88.3741
85.6645
83.031
80.4644
77.9587
75.5049
73.0953
70.725
68.3876
66.0769
63.7892
61.5205
59.2657
57.0206
54.7818
52.5471
50.3149
48.0811
45.8441
43.6036
41.3559
39.0983
36.83
34.5508
32.2609
29.9572
27.6366
25.3002
22.9489
20.5823
18.1987
15.7972
13.3777
10.9409
8.49238
6.04632
3.6369
1.44934
195.178
214.57
218.009
208.556
198.532
189.246
179.778
170.465
161.719
153.624
146.157
139.287
132.967
127.145
121.77
116.797
112.182
107.882
103.859
100.081
96.5194
93.1498
89.9485
86.8949
83.9693
81.1559
78.4414
75.8113
73.2541
70.7605
68.3199
65.9231
63.5643
61.2368
58.9337
56.6494
54.3793
52.1202
49.8687
47.6201
45.3723
43.1238
40.8702
38.6089
36.3388
34.0591
31.7694
29.4663
27.1473
24.8137
22.4656
20.1025
17.7225
15.325
12.9106
10.4795
8.03892
5.60843
3.23727
1.15842
195.182
214.571
218.004
208.546
198.518
189.232
179.762
170.446
161.699
153.607
146.142
139.273
132.957
127.139
121.766
116.794
112.18
107.881
103.858
100.078
96.5168
93.1469
89.9452
86.8907
83.9644
81.1509
78.4359
75.8049
73.2476
70.7541
68.3132
65.916
63.5569
61.2288
58.9248
56.6396
54.3689
52.1095
49.8573
47.6077
45.3592
43.1099
40.8556
38.5939
36.3244
34.0465
31.7589
29.4577
27.1411
24.8103
22.465
20.1043
17.7265
15.3312
12.9193
10.4905
8.05174
5.62182
3.2492
1.16564
191.585
213.909
207.265
189.619
175.842
165.603
156.99
149.515
142.991
137.178
131.886
127.01
122.478
118.234
114.234
110.454
106.868
103.452
100.187
97.0582
94.0526
91.1575
88.3602
85.6497
83.0157
80.4503
77.9444
75.4896
73.0807
70.712
68.375
66.0644
63.7768
61.5075
59.2515
57.0053
54.7663
52.5324
50.3
48.0655
45.8284
43.5869
41.3375
39.0786
36.81
34.5317
32.2416
29.9368
27.6162
25.2813
22.9313
20.5651
18.1813
15.78
13.3618
10.9262
8.47799
6.0301
3.61689
1.42723
191.059
248.518
254.949
241.795
226.819
212.241
198.531
186.022
174.748
164.594
155.427
147.14
139.632
132.805
126.575
120.873
115.634
110.8
106.321
102.153
98.259
94.604
91.1581
87.8942
84.7892
81.8232
78.9765
76.2323
73.579
71.004
68.4934
66.0372
63.6277
61.257
58.9173
56.6022
54.3073
52.0287
49.7604
47.4976
45.2388
42.9805
40.7189
38.4517
36.178
33.8967
31.604
29.2973
26.9763
24.6424
22.2943
19.9301
17.549
15.1511
12.7362
10.3032
7.85445
5.39356
2.942
0.647098
119.741
145.197
151.444
157.375
158.416
155.61
151.374
146.642
141.728
136.818
132.026
127.42
123.027
118.846
114.871
111.093
107.498
104.068
100.788
97.6463
94.6274
91.718
88.9066
86.1821
83.5349
80.9567
78.4371
75.9684
73.5468
71.1661
68.8179
66.4966
64.1987
61.9199
59.6555
57.4017
55.1561
52.9169
50.679
48.4394
46.1977
43.9508
41.6962
39.4324
37.1592
34.8758
32.5787
30.2659
27.9378
25.5958
23.2389
20.8648
18.4734
16.065
13.6389
11.1935
8.72762
6.2308
3.67925
0.950749
561.319
354.092
266.177
235.879
215.743
198.827
185.19
173.882
164.067
155.35
147.519
140.437
133.995
128.098
122.678
117.677
113.041
108.726
104.693
100.909
97.342
93.965
90.7546
87.6899
84.7528
81.9278
79.1979
76.5503
73.9771
71.468
69.0112
66.5985
64.2237
61.8805
59.5627
57.2644
54.9822
52.713
50.4506
48.191
45.9331
43.6732
41.4082
39.1365
36.8573
34.5705
32.2725
29.9606
27.6346
25.2956
22.9423
20.5719
18.1846
15.7807
13.3587
10.9168
8.45151
5.94049
3.33241
-0.0656458
)
;

boundaryField
{
    wall
    {
        type            fixedFluxPressure;
        gradient        nonuniform List<scalar> 
1200
(
131.736
19.3234
25.8756
18.0098
16.8643
15.1724
13.2288
16.666
-3.61027
114.108
19.0707
14.8132
66.4831
21.9581
23.9809
22.2553
17.8837
60.4045
0.50979
20.7631
16.2936
32.4875
88.2222
23.8497
39.092
37.7085
21.1193
81.7939
16.1682
12.9696
9.64026
22.2787
74.6461
14.1815
39.0971
37.7231
12.2776
70.0209
10.1417
8.60127
-0.319617
7.19763
50.1037
-2.14442
21.6838
20.1502
-4.24055
45.4136
-3.08672
-0.328969
1.0652
4.32071
32.6954
-11.8447
4.80535
2.7564
-15.5017
24.7931
-9.41662
-3.07749
-1.96965
1.64952
20.1201
-13.3815
-1.74801
-2.70441
-17.4896
16.2082
-6.61336
-0.586136
-12.4509
-5.93727
7.90395
-13.2762
-2.22694
-0.940598
-12.7851
13.6819
-2.09439
0.559804
-18.6641
-9.86132
0.22063
-11.781
-1.17364
1.11569
-8.92459
8.99699
-3.04355
-4.153
-18.2418
-8.26875
-1.91546
-7.78426
0.414788
2.27657
-6.49003
3.71158
-5.61831
-9.30526
-19.0591
-8.56844
-4.90704
-5.84138
0.442906
2.73312
-3.4451
1.86606
-4.43146
-9.54149
-20.1716
-10.0148
-8.58437
-6.12414
-1.48289
1.53828
-1.66963
0.817022
-2.4594
-8.29714
-16.8788
-7.76544
-8.85076
-5.45342
-3.47136
-0.78989
-1.94531
-1.15968
-1.5992
-7.53869
-10.8859
-2.8151
-6.19505
-3.26435
-4.11619
-2.25874
-2.03939
-2.13391
-0.128622
-5.89142
-5.44139
2.04844
-2.86214
-0.553168
-3.38597
-2.10784
-0.912609
-1.5568
2.0362
-3.76827
-2.22967
5.02703
-0.73822
1.01751
-3.03217
-2.17088
-0.380009
-1.38066
3.09957
-2.88875
-0.321998
6.81825
0.476922
1.53482
-3.29708
-2.74019
-0.477131
-1.41599
3.68645
-2.41229
1.67354
8.76152
2.06621
2.32597
-2.9853
-2.69112
-0.145791
-0.894994
4.4489
-1.82287
2.39881
9.74998
3.60801
3.59889
-1.57564
-1.43974
1.02732
0.134242
5.04942
-1.65982
1.16191
9.36086
4.4465
4.93034
0.52171
0.622306
2.69749
1.28484
5.20298
-2.14933
-0.107691
8.90643
5.04145
5.968
2.32327
2.34305
3.95733
2.08946
5.0066
-2.85683
-0.019862
9.46149
6.05286
6.88308
3.72597
3.54146
4.74547
2.67274
4.82993
-3.29271
-0.0947489
9.7746
6.69537
7.3964
4.74589
4.40058
5.26017
3.10507
4.62656
-3.60148
-1.75515
8.63171
6.16184
7.19174
5.27183
4.98211
5.62613
3.50049
4.51117
-3.69558
-2.93677
7.83493
5.86093
7.19006
5.83903
5.55133
5.91288
3.81289
4.34422
-3.78359
-2.51475
8.29579
6.29292
7.43487
6.20561
5.74696
5.77724
3.76413
3.90738
-4.05038
-2.37988
8.37579
6.20668
7.09775
5.95135
5.50498
5.52377
3.92194
4.01563
-3.58129
-2.67829
8.09789
5.88533
6.66944
5.66282
5.35442
5.53247
4.50664
4.77779
-2.40284
-2.14509
8.56237
6.09136
6.50689
5.31945
4.90627
5.08143
4.51148
4.94808
-1.88947
-1.38277
9.1755
6.22825
6.06677
4.51208
3.89866
4.03652
3.88727
4.48652
-2.05769
-1.10068
9.43557
6.15373
5.61078
3.86063
3.19307
3.3872
3.68164
4.4436
-1.85807
-0.842825
9.80013
6.30918
5.52633
3.65616
2.95941
3.20713
3.92881
4.85493
-1.25457
-0.708524
10.065
6.33367
5.30294
3.29496
2.56861
2.90016
4.09253
5.23776
-0.704014
-1.0987
9.84709
5.94011
4.79292
2.78798
2.15424
2.62653
4.25594
5.55806
-0.320442
-1.71168
9.45553
5.48542
4.3905
2.54244
2.10531
2.70834
4.63756
5.95232
-0.0111729
-2.10708
9.28323
5.27394
4.27038
2.60007
2.38576
3.11253
5.27797
6.58177
0.462936
-2.09539
9.52714
5.47499
4.53356
2.94329
2.82846
3.52744
5.75187
6.95569
0.594327
-2.21165
9.67101
5.6109
4.74975
3.17624
3.03717
3.52915
5.59429
6.56178
-0.118327
-3.19644
8.9813
5.06789
4.48776
3.11053
3.11765
3.53361
5.5007
6.30224
-0.651886
-4.36879
8.03589
4.42932
4.39652
3.32284
3.56579
3.9489
5.79418
6.43863
-0.785163
-5.16594
7.37407
4.00771
4.42917
3.48899
3.84801
4.09687
5.7333
6.21087
-1.26568
-6.14874
6.43964
3.21626
3.94618
3.09368
3.63941
3.89952
5.49446
5.98441
-1.62776
-7.09837
5.53121
2.5114
3.54647
2.83524
3.65114
3.98084
5.55331
6.08407
-1.65061
-7.25206
5.37075
2.50628
3.66137
2.97093
3.99809
4.31764
5.81017
6.37885
-1.48304
-6.76457
5.76221
2.93242
3.9863
3.13466
4.22589
4.41814
5.79495
6.40663
-1.57713
-6.61946
5.80209
3.01037
4.00141
2.9634
3.97242
3.95057
5.14396
5.73109
-2.39032
-7.46728
4.83344
2.13934
3.19804
2.15602
3.24636
3.24858
4.48109
5.2058
-2.9347
-8.52161
3.66865
1.18761
2.46551
1.60365
2.92035
3.12039
4.4937
5.41618
-2.70586
-8.50449
3.54974
1.24587
2.6612
1.8743
3.25261
3.53431
4.92326
5.9648
-2.19422
-7.79813
4.04768
1.7504
3.07829
2.15935
3.37911
3.59492
4.88058
5.97083
-2.26749
-7.47576
4.16963
1.8642
3.0869
2.07157
3.14998
3.33644
4.52912
5.66215
-2.66201
-7.28957
4.07294
1.6339
2.64978
1.56609
2.62173
2.99234
4.30994
5.67739
-2.62086
-7.35718
3.76033
1.27932
2.19199
1.16831
2.28771
2.8937
4.30649
5.86954
-2.43295
-7.15579
3.73193
1.22165
2.00195
0.990287
2.08877
2.8451
4.23808
5.91187
-2.44612
-6.0455
4.50077
1.72455
2.09051
0.852526
1.77709
2.63868
4.02931
5.88004
-2.48143
-4.81945
5.48002
2.53329
2.57488
1.15027
1.86182
2.71951
3.96334
5.87554
-2.54577
-4.71821
5.4737
2.57426
2.51652
1.06495
1.5933
2.34488
3.27148
5.05615
-3.50601
-6.05446
4.01054
1.25443
1.19594
-0.144313
0.332135
1.09124
1.81579
3.50925
-5.09699
-6.88683
2.81417
0.0397285
-0.262513
-1.56557
-1.11878
-0.207585
0.605702
2.42172
-5.9257
-5.03832
3.01628
0.16302
-0.256101
-1.37444
-1.07678
-0.320509
0.383143
2.25073
-5.08857
-131.736
-19.3234
-25.8756
-18.0098
-16.8643
-15.1724
-13.2288
-16.666
3.61028
-114.108
-19.07
-14.8126
-66.4829
-21.9581
-23.981
-22.2554
-17.8838
-60.4046
-0.50981
-20.7643
-16.2903
-32.4848
-88.2216
-23.8497
-39.0927
-37.7093
-21.12
-81.7945
-16.1674
-12.9709
-9.6347
-22.2735
-74.6448
-14.1813
-39.0979
-37.7243
-12.2785
-70.0218
-10.1394
-8.59977
0.324499
-7.19111
-50.1011
2.14623
-21.6826
-20.1497
4.24117
-45.414
3.08914
0.328373
-1.06333
-4.31446
-32.6919
11.848
-4.80164
-2.7534
15.5038
-24.7932
9.41805
3.07319
1.97039
-1.64354
-20.1163
13.3854
1.75293
2.70845
17.492
-16.2086
6.61365
0.579507
12.454
5.94388
-7.89971
13.2796
2.23141
0.943949
12.7869
-13.683
2.09394
-0.566571
18.6703
9.86883
-0.216161
11.7838
1.17678
-1.11392
8.92545
-8.99857
3.04307
4.14813
18.2496
8.27668
1.91977
7.78645
-0.413076
-2.2763
6.49
-3.71335
5.61831
9.30299
19.0669
8.57642
4.91105
5.84305
-0.442152
-2.7338
3.44445
-1.86788
4.43183
9.54086
20.1782
10.0225
8.58811
6.12561
1.48331
-1.53926
1.66871
-0.81887
2.4598
8.29679
16.8828
7.77259
8.85409
5.45488
3.47193
0.789186
1.94457
1.15797
1.59949
7.53777
10.8862
2.82125
6.19778
3.26584
4.11713
2.25864
2.03913
2.13245
0.128716
5.88941
5.4379
-2.04337
2.86424
0.554689
3.3873
2.10838
0.912857
1.55558
-2.03635
3.76506
2.22298
-5.02294
0.73976
-1.01596
3.0338
2.17195
0.380685
1.37966
-3.0999
2.88474
0.312985
-6.81494
-0.475824
-1.53326
3.29889
2.74163
0.478121
1.41519
-3.68685
2.40809
-1.684
-8.75879
-2.06546
-2.32446
2.98713
2.69274
0.146928
0.894344
-4.44928
1.81899
-2.40976
-9.74763
-3.60753
-3.59754
1.57727
1.44129
-1.02623
-0.134808
-5.04969
1.65683
-1.17229
-9.35868
-4.4462
-4.92925
-0.520463
-0.621045
-2.6966
-1.28536
-5.20304
2.14774
0.0985123
-8.90425
-5.04126
-5.96722
-2.32251
-2.34219
-3.95673
-2.08996
-5.00639
2.85688
0.0119655
-9.45925
-6.05273
-6.88259
-3.7257
-3.54102
-4.74518
-2.67323
-4.82945
3.29428
0.0880102
-9.77229
-6.69527
-7.39616
-4.74604
-4.4005
-5.26014
-3.10554
-4.62585
3.60425
1.74952
-8.62928
-6.16172
-7.19169
-5.27232
-4.98233
-5.62632
-3.50095
-4.51029
3.69914
2.93207
-7.83238
-5.86075
-7.19013
-5.83976
-5.55176
-5.91323
-3.81333
-4.34324
3.78747
2.51054
-8.29319
-6.29269
-7.43499
-6.20646
-5.74749
-5.77767
-3.76456
-3.90637
4.05413
2.37574
-8.37321
-6.2064
-7.09784
-5.9522
-5.50549
-5.5242
-3.92237
-4.01469
3.58444
2.67397
-8.09535
-5.88498
-6.66944
-5.66357
-5.35482
-5.53285
-4.50709
-4.77699
2.40491
2.14036
-8.5599
-6.09097
-6.50676
-5.32003
-4.90649
-5.08171
-4.51195
-4.94748
1.8902
1.37743
-9.17315
-6.22782
-6.0665
-4.51244
-3.89865
-4.03667
-3.88776
-4.48614
2.057
1.09474
-9.43333
-6.15326
-5.61033
-3.86074
-3.19282
-3.38721
-3.68217
-4.44345
1.85596
0.836386
-9.79799
-6.30866
-5.52572
-3.65604
-2.95894
-3.20704
-3.92941
-4.85503
1.25107
0.70175
-10.0629
-6.3331
-5.30218
-3.29465
-2.56796
-2.89999
-4.09321
-5.23811
0.699263
1.09181
-9.84504
-5.93947
-4.79202
-2.7875
-2.15346
-2.62633
-4.25671
-5.55866
0.314671
1.70491
-9.45346
-5.4847
-4.38948
-2.54184
-2.10446
-2.70815
-4.63844
-5.95312
0.00466504
2.10066
-9.28111
-5.27315
-4.26926
-2.5994
-2.3849
-3.11241
-5.27896
-6.58275
-0.469888
2.08948
-9.52493
-5.47413
-4.53239
-2.94262
-2.82766
-3.52742
-5.75298
-6.95681
-0.60144
2.20641
-9.6687
-5.60997
-4.74857
-3.1756
-3.03647
-3.52925
-5.59549
-6.56301
0.111346
3.19206
-8.97885
-5.0669
-4.48658
-3.10996
-3.11707
-3.53386
-5.50198
-6.30353
0.645251
4.36541
-8.03327
-4.42827
-4.39536
-3.32237
-3.56537
-3.94929
-5.79553
-6.43996
0.778956
5.16358
-7.37128
-4.00662
-4.42805
-3.48862
-3.84775
-4.09742
-5.7347
-6.21224
1.25995
6.14735
-6.43669
-3.21514
-3.9451
-3.09341
-3.6393
-3.9002
-5.49589
-5.98581
1.62252
7.09782
-5.5281
-2.51025
-3.54543
-2.83506
-3.65115
-3.98163
-5.55476
-6.08549
1.6458
7.25215
-5.36752
-2.50512
-3.66038
-2.97083
-3.9982
-4.31853
-5.81162
-6.3803
1.4786
6.76506
-5.7589
-2.93128
-3.98535
-3.13462
-4.22608
-4.4191
-5.79639
-6.40811
1.57302
6.62014
-5.79872
-3.00924
-4.00049
-2.96341
-3.97266
-3.95157
-5.14537
-5.73258
2.38652
7.46803
-4.83003
-2.13823
-3.19715
-2.15607
-3.2466
-3.24961
-4.48246
-5.20731
2.93118
8.52228
-3.66521
-1.1865
-2.46463
-1.60372
-2.92058
-3.12143
-4.49502
-5.41772
2.70252
8.50487
-3.5463
-1.24478
-2.66032
-1.87437
-3.25281
-3.53535
-4.92454
-5.96638
2.191
7.79794
-4.04428
-1.74934
-3.07741
-2.15942
-3.37926
-3.59594
-4.88181
-5.97243
2.2644
7.4748
-4.1663
-1.86318
-3.08601
-2.07163
-3.15005
-3.33744
-4.53028
-5.66378
2.6591
7.28765
-4.06971
-1.63292
-2.64885
-1.56611
-2.62172
-2.99331
-4.31104
-5.67904
2.61813
7.35416
-3.7572
-1.27839
-2.19103
-1.16829
-2.2876
-2.89463
-4.30752
-5.87121
2.43038
7.15156
-3.72893
-1.22076
-2.00094
-0.990217
-2.08856
-2.84599
-4.23904
-5.91356
2.44379
6.03997
-4.4979
-1.72371
-2.08947
-0.852412
-1.77678
-2.63953
-4.0302
-5.88172
2.4794
4.81256
-5.4773
-2.53251
-2.57382
-1.15013
-1.86142
-2.72032
-3.96416
-5.8772
2.54413
4.71008
-5.47111
-2.57356
-2.51544
-1.06479
-1.59282
-2.34568
-3.27221
-5.05778
3.50489
6.0453
-4.00806
-1.25378
-1.19486
0.14449
-0.331589
-1.092
-1.81643
-3.51082
5.09652
6.87676
-2.81178
-0.039128
0.263604
1.56576
1.11939
0.206849
-0.606254
-2.42323
5.92589
5.02734
-3.01398
-0.162479
0.25718
1.37462
1.07745
0.319792
-0.383615
-2.25219
5.08937
)
;
        value           nonuniform List<scalar> 
1200
(
562.307
119.806
191.24
191.71
195.305
195.295
191.684
191.184
119.713
562.175
354.237
145.259
249.04
214.064
214.75
214.738
214.044
248.971
145.201
354.247
266.301
151.654
255.642
207.432
218.302
218.287
207.423
255.562
151.565
266.274
235.966
157.538
242.391
189.716
208.849
208.829
189.71
242.321
157.451
235.943
215.756
158.482
227.228
175.82
198.695
198.669
175.81
227.159
158.393
215.74
198.84
155.653
212.511
165.506
189.282
189.252
165.487
212.427
155.539
198.804
185.193
151.418
198.711
156.89
179.765
179.742
156.859
198.653
151.324
185.186
173.834
146.67
186.126
149.434
170.449
170.439
149.42
186.125
146.626
173.886
163.974
141.738
174.795
142.934
161.711
161.708
142.924
174.816
141.705
164.036
155.243
136.829
164.614
137.152
153.627
153.624
137.129
164.622
136.776
155.28
147.404
132.035
155.426
131.881
146.16
146.163
131.86
155.441
131.993
147.448
140.315
127.423
147.116
127.009
139.276
139.285
126.997
147.146
127.402
140.375
133.885
123.037
139.601
122.48
132.941
132.951
122.464
139.623
123.015
133.938
128.018
118.877
132.785
118.245
127.114
127.122
118.218
132.789
118.846
128.054
122.624
114.924
126.573
114.26
121.744
121.75
114.227
126.563
114.886
122.649
117.636
111.158
120.882
110.487
116.774
116.778
110.451
120.863
111.117
117.655
113.007
107.568
115.649
106.901
112.157
112.16
106.864
115.624
107.526
113.023
108.699
104.145
110.823
103.488
107.86
107.861
103.451
110.794
104.101
108.712
104.666
100.869
106.354
100.231
103.847
103.847
100.195
106.322
100.826
104.68
100.871
97.7225
102.192
97.1118
100.085
100.083
97.0785
102.163
97.6853
100.893
97.2926
94.699
98.3018
94.1134
96.537
96.5344
94.0824
98.2747
94.6649
97.3205
93.9122
91.7909
94.6526
91.2238
93.1779
93.1735
91.1931
94.6241
91.7542
93.9402
90.6982
88.9799
91.2102
88.4296
89.9842
89.9782
88.3997
91.1813
88.9413
90.7276
87.6228
86.2489
87.9441
85.7184
86.9345
86.9281
85.6919
87.9205
86.2159
87.6621
84.6777
83.5972
84.8379
83.0849
84.0131
84.006
83.0601
84.8178
83.5675
84.7245
81.8524
81.02
81.8736
80.5202
81.2025
81.194
80.4936
81.8514
80.986
81.8975
79.1229
78.5011
79.0266
78.0118
78.486
78.4771
77.9858
79.0059
78.4673
79.1711
76.4754
76.0329
76.2822
75.5548
75.8537
75.845
75.531
76.2661
76.0043
76.5324
73.9048
73.614
73.63
73.144
73.2939
73.2843
73.1188
73.6128
73.584
73.963
71.3979
71.2351
71.0542
70.7705
70.7943
70.7833
70.7422
71.0331
71.1999
71.4527
68.9419
68.888
68.543
68.4297
68.3487
68.337
68.4004
68.521
68.8513
68.9974
66.5309
66.5696
66.0884
66.1183
65.9504
65.9382
66.0884
66.0667
66.5331
66.5892
64.157
64.2739
63.6798
63.8289
63.5889
63.5761
63.7986
63.6585
64.2381
64.2185
61.8116
61.9946
61.3078
61.5564
61.2577
61.245
61.5272
61.289
61.9616
61.8782
59.4902
59.729
58.9671
59.2986
58.9527
58.9406
59.2719
58.9522
59.7002
59.5627
57.1898
57.4753
56.6529
57.0526
56.6689
56.6575
57.0287
56.6419
57.4511
57.2679
54.9065
55.2311
54.3604
54.8157
54.4014
54.3902
54.7928
54.3505
55.2083
54.9866
52.6334
52.9908
52.0824
52.5827
52.144
52.1323
52.559
52.0707
52.9661
52.7121
50.3631
50.7479
49.8112
50.3485
49.892
49.8807
50.3266
49.8017
50.7263
50.4457
48.0956
48.5025
47.5459
48.114
47.645
47.6345
48.0952
47.5411
48.4878
48.1851
45.8315
46.2541
45.2835
45.8774
45.3985
45.3881
45.8592
45.2818
46.2443
45.9236
43.565
43.9983
43.0183
43.6332
43.147
43.1372
43.6162
43.0218
43.9957
43.661
41.2946
41.7352
40.7506
41.3825
40.8915
40.883
41.3674
40.7606
41.7418
41.3958
39.0218
39.4672
38.4812
39.1258
38.6312
38.6239
39.111
38.4952
39.4802
39.1253
36.7443
37.192
36.2068
36.8599
36.3623
36.3561
36.8432
36.2215
37.2072
36.8455
34.4555
34.904
33.9221
34.5808
34.0813
34.0763
34.5613
33.9353
34.9188
34.5526
32.1506
32.5985
31.6223
32.2849
31.7855
31.7832
32.266
31.6376
32.6178
32.2505
29.8323
30.2786
29.3104
29.9757
29.4783
29.4796
29.9602
29.331
30.3065
29.9403
27.5059
27.9495
26.9905
27.6565
27.1614
27.1654
27.6427
27.0132
27.9825
27.6181
25.1685
25.6086
24.6588
25.3233
24.8298
24.8356
25.3083
24.679
25.6406
25.2786
22.8141
23.25
22.3102
22.972
22.4811
22.4886
22.9563
22.3283
23.2814
22.9223
20.4431
20.8741
19.9441
20.6021
20.1142
20.1239
20.5875
19.9624
20.9074
20.5523
18.0544
18.4804
17.5611
18.2151
17.7312
17.7436
18.203
17.5813
18.5174
18.1664
15.6499
16.0708
15.1627
15.8122
15.3324
15.3468
15.8013
15.1829
16.1094
15.7623
13.2322
13.6476
12.7499
13.3934
12.917
12.9326
13.3816
12.7664
13.683
13.3401
10.7956
11.2067
10.3212
10.9602
10.4881
10.5044
10.9465
10.3329
11.2375
10.8977
8.32875
8.7395
7.87194
8.51125
8.0469
8.06365
8.49557
7.87894
8.76552
8.42516
5.80947
6.23398
5.40289
6.05529
5.60735
5.62428
6.03827
5.40713
6.2571
5.90221
3.20324
3.68014
2.94567
3.63495
3.22554
3.24078
3.61534
2.9465
3.6974
3.28792
-0.171491
0.962161
0.654301
1.44744
1.14814
1.15755
1.42482
0.649932
0.967611
-0.103867
560.99
119.612
190.981
191.53
195.136
195.144
191.552
191.017
119.75
561.034
354.046
145.111
248.375
213.845
214.51
214.515
213.865
248.367
145.196
354.039
266.138
151.329
254.759
207.193
217.911
217.91
207.212
254.744
151.404
266.145
235.87
157.315
241.645
189.574
208.458
208.451
189.588
241.62
157.349
235.858
215.76
158.41
226.727
175.841
198.478
198.468
175.853
226.705
158.424
215.744
198.83
155.609
212.184
165.625
189.234
189.225
165.642
212.179
155.633
198.835
185.212
151.402
198.51
157.024
179.783
179.769
157.034
198.491
151.39
185.191
173.958
146.729
186.047
149.567
170.471
170.449
149.547
185.988
146.647
173.88
164.16
141.836
174.792
143.052
161.723
161.697
143.014
174.726
141.735
164.077
155.425
136.911
164.634
137.23
153.623
153.601
137.194
164.585
136.832
155.373
147.594
132.121
155.475
131.939
146.156
146.135
131.895
155.423
132.037
147.543
140.516
127.523
147.202
127.07
139.291
139.269
127.014
147.138
127.426
140.458
134.054
123.115
139.69
122.535
132.976
132.959
122.483
139.635
123.031
134.014
128.126
118.906
132.847
118.278
127.155
127.144
118.239
132.81
118.847
128.113
122.679
114.904
126.602
114.266
121.778
121.771
114.236
126.579
114.866
122.687
117.658
111.108
120.89
110.477
116.804
116.8
110.455
120.876
111.086
117.684
113.01
107.5
115.644
106.885
112.19
112.187
106.869
115.638
107.489
113.047
108.682
104.058
110.803
103.465
107.89
107.888
103.452
110.803
104.057
108.73
104.642
100.771
106.318
100.195
103.863
103.861
100.185
106.321
100.776
104.697
100.859
97.6289
102.147
97.0625
100.079
100.077
97.0516
102.15
97.6332
100.914
97.2935
94.61
98.2514
94.0538
96.5138
96.511
94.0429
98.2538
94.6148
97.349
93.9123
91.6962
94.592
91.155
93.1407
93.1382
91.1457
94.5974
91.7059
93.9731
90.6991
88.8821
91.1432
88.3557
89.9367
89.9343
88.3471
91.1503
88.895
90.7636
87.6403
86.1626
87.8824
85.6465
86.8818
86.8783
85.6356
87.8855
86.1708
87.6991
84.7071
83.5188
84.7793
83.013
83.9547
83.9505
83.001
84.7797
83.5241
84.7624
81.8776
80.9371
81.8106
80.4458
81.1404
81.1365
80.4358
81.8138
80.947
81.938
79.1467
78.4173
78.9645
77.9409
78.4265
78.422
77.9305
78.9667
78.4271
79.207
76.5022
75.9519
76.2234
75.4881
75.797
75.7914
75.4757
76.2211
75.9565
76.5565
73.9263
73.5284
73.5691
73.0789
73.2407
73.2352
73.068
73.5677
73.5346
73.982
71.4117
71.1434
70.9919
70.7098
70.7491
70.7442
70.7018
70.9943
71.155
71.4733
68.9529
68.7937
68.4815
68.3735
68.3101
68.3051
68.3665
68.4842
68.8069
69.016
66.5393
66.4716
66.0253
66.063
65.9138
65.9085
66.0564
66.0274
66.4846
66.6018
64.1641
64.1733
63.6165
63.7758
63.556
63.5504
63.7696
63.6176
64.1857
64.2256
61.8225
61.8961
61.2484
61.5084
61.2298
61.2234
61.501
61.2465
61.9061
61.8814
59.5073
59.6344
58.9123
59.2547
58.9273
58.9196
59.2448
58.9058
59.6408
59.5627
57.2108
57.3824
56.6001
57.0099
56.6429
56.6337
56.9976
56.5891
57.3853
57.2632
54.9274
55.1358
54.3057
54.7704
54.372
54.3619
54.7575
54.293
55.1387
54.9806
52.6555
52.8941
52.0262
52.5352
52.1123
52.102
52.5237
52.0148
52.9005
52.7133
50.395
50.6581
49.7605
50.3037
49.861
49.8496
50.2913
49.7467
50.6633
50.4521
48.1393
48.4221
47.5016
48.0701
47.6118
47.5989
48.0557
47.4831
48.4234
48.1929
45.8831
46.1803
45.2434
45.8331
45.3636
45.3497
45.8183
45.2245
46.1822
45.9362
43.6265
43.9338
42.9862
43.5937
43.1161
43.1009
43.5773
42.9668
43.9359
43.6772
41.3655
41.6799
40.7255
41.3471
40.8632
40.8465
41.3276
40.705
41.681
41.4123
39.0943
39.4134
38.4561
39.0892
38.6015
38.584
39.0678
38.4371
39.4165
39.1401
36.8119
37.1344
36.1775
36.8201
36.331
36.3138
36.799
36.1635
37.1432
36.8612
34.5217
34.8459
33.8919
34.5408
34.0517
34.0366
34.5218
33.8838
34.8615
34.5764
32.2253
32.5502
31.6009
32.2529
31.764
31.7507
32.2335
31.5927
32.5657
32.2799
29.9175
30.2419
29.2985
29.951
29.4623
29.4503
29.929
29.286
30.2524
29.9673
27.5909
27.914
26.9781
27.6299
27.1426
27.1329
27.6074
26.964
27.9229
27.64
25.2466
25.5681
24.6413
25.2925
24.8082
24.8018
25.2723
24.6302
25.5809
25.3012
22.8889
23.2083
22.2915
22.9411
22.4603
22.4571
22.923
22.283
23.2248
22.9489
20.5161
20.8334
19.9278
20.5756
20.0985
20.0977
20.5576
19.9193
20.8506
20.5784
18.128
18.4428
17.5483
18.1932
17.7195
17.7207
18.174
17.5382
18.4588
18.1907
15.7215
16.0335
15.1505
15.7921
15.3225
15.3259
15.7729
15.1405
16.0503
15.7867
13.2927
13.6026
12.7327
13.3725
12.9085
12.9148
13.3552
12.7261
13.6242
13.3649
10.8438
11.152
10.2959
10.9344
10.4766
10.4858
10.9193
10.2933
11.1788
10.9231
8.37592
8.68479
7.84621
8.48607
8.03625
8.04769
8.47211
7.8462
8.71495
8.46018
5.86999
6.1939
5.39036
6.04332
5.60879
5.62093
6.02736
5.38895
6.222
5.95315
3.27208
3.65202
2.9453
3.63757
3.2412
3.25196
3.61741
2.94042
3.67317
3.34715
-0.121146
0.932022
0.652693
1.45001
1.16189
1.16831
1.42803
0.646079
0.945093