/*--------------------------------*- C++ -*----------------------------------*\
  =========                 |
  \\      /  F ield         | OpenFOAM: The Open Source CFD Toolbox
   \\    /   O peration     | Website:  https://openfoam.org
    \\  /    A nd           | Version:  8
     \\/     M anipulation  |
\*---------------------------------------------------------------------------*/
FoamFile
{
    version     2.0;
    format      ascii;
    class       volScalarField;
    location    "700";
    object      epsilon;
}
// * * * * * * * * * * * * * * * * * * * * * * * * * * * * * * * * * * * * * //

dimensions      [0 2 -3 0 0 0 0];

internalField   nonuniform List<scalar> 
1200
(
72.1327
55.7149
44.1233
35.6943
29.4093
24.6208
20.901
17.9634
15.6095
13.7007
12.1364
10.8399
9.75463
8.83823
8.05811
7.38891
6.81023
6.30556
5.86298
5.47252
5.12717
4.82181
4.55136
4.31179
4.10076
3.91217
3.74116
3.58445
3.44028
3.30763
3.18571
3.07348
2.97326
2.91517
2.94349
3.00079
2.98579
2.87299
2.6944
2.49057
2.2894
2.10576
1.94764
1.81772
1.71389
1.63163
1.5664
1.51454
1.47611
1.45376
1.44272
1.43124
1.40654
1.36353
1.30877
1.2545
1.21169
1.18434
1.17208
1.16331
92.9316
58.8488
39.2566
27.327
19.7056
14.6339
11.1339
8.65307
6.85332
5.51918
4.50878
3.73018
3.1208
2.63706
2.24373
1.91886
1.65133
1.43216
1.25109
1.10002
0.972831
0.864914
0.772747
0.693581
0.626236
0.570695
0.525303
0.487374
0.454891
0.425981
0.40207
0.389656
0.409003
0.523276
0.750395
0.958644
1.03257
0.983415
0.871374
0.743087
0.621904
0.515799
0.426268
0.353206
0.295324
0.250122
0.215148
0.189373
0.171241
0.157606
0.147047
0.138719
0.131921
0.12607
0.120844
0.116212
0.112435
0.109938
0.109666
0.111761
92.8695
58.5582
38.883
26.9274
19.3105
14.2603
10.795
8.34556
6.57114
5.25788
4.26761
3.508
2.91624
2.44888
2.07499
1.77245
1.52526
1.32163
1.15257
1.01112
0.891874
0.790645
0.704134
0.629722
0.565375
0.509657
0.461215
0.418867
0.381644
0.348749
0.319743
0.294725
0.275224
0.270626
0.29557
0.338569
0.37047
0.377596
0.363922
0.338632
0.308906
0.278664
0.249803
0.223412
0.200058
0.179894
0.162891
0.14887
0.137162
0.127267
0.118904
0.111762
0.105416
0.0994649
0.0937958
0.0885715
0.0840403
0.0802927
0.0773663
0.0751907
92.8693
58.6349
38.9806
27.0229
19.3927
14.3273
10.8488
8.38911
6.606
5.28568
4.28971
3.52564
2.93035
2.46019
2.08422
1.78016
1.53181
1.32721
1.15733
1.01523
0.895496
0.793907
0.707135
0.632544
0.568038
0.511975
0.462982
0.419955
0.382001
0.348406
0.318621
0.292206
0.268812
0.248988
0.235714
0.229831
0.226489
0.221054
0.212285
0.201074
0.188729
0.176149
0.163796
0.152155
0.141421
0.131419
0.121952
0.112874
0.104318
0.0963086
0.0889489
0.0824987
0.0772088
0.0731806
0.0702779
0.0681637
0.0664715
0.0648724
0.0632708
0.061477
92.8693
58.636
38.9704
27.0072
19.3754
14.3104
10.834
8.37681
6.59622
5.27816
4.28393
3.52111
2.92672
2.4572
2.08169
1.77798
1.52996
1.3257
1.15619
1.0145
0.895209
0.794091
0.707754
0.633461
0.569063
0.512871
0.46352
0.419936
0.381289
0.347019
0.316978
0.290318
0.266331
0.245203
0.226924
0.211613
0.19861
0.186865
0.1757
0.164919
0.1546
0.144899
0.136015
0.127856
0.120322
0.113436
0.107135
0.101367
0.0961044
0.0915679
0.087786
0.0845045
0.0815032
0.0787678
0.0763956
0.0743376
0.0724214
0.0704354
0.0683363
0.0659902
92.8692
58.6377
38.971
27.0071
19.3749
14.3094
10.8327
8.37547
6.59521
5.27756
4.28362
3.5209
2.92653
2.45699
2.08147
1.77784
1.52996
1.32589
1.15662
1.01527
0.896465
0.796047
0.710727
0.637895
0.57547
0.521897
0.476042
0.437116
0.404829
0.380211
0.360897
0.342568
0.322017
0.298621
0.27543
0.253945
0.235
0.218621
0.204445
0.192041
0.181002
0.171005
0.161725
0.152891
0.144485
0.136466
0.128846
0.121862
0.115534
0.109693
0.104356
0.0994718
0.095018
0.0910436
0.0875046
0.0842077
0.0810042
0.0777945
0.074537
0.0711939
92.8694
58.6426
38.9857
27.0271
19.396
14.3288
10.8502
8.39083
6.60803
5.28783
4.2917
3.52727
2.93162
2.46108
2.08472
1.78034
1.53183
1.32728
1.15774
1.01643
0.898316
0.800014
0.719304
0.654123
0.601997
0.560637
0.528574
0.504935
0.488708
0.477423
0.466459
0.450667
0.427636
0.397588
0.363173
0.330833
0.302496
0.278252
0.257537
0.239737
0.224289
0.210465
0.197781
0.185899
0.174747
0.164383
0.154778
0.145909
0.137771
0.130294
0.12326
0.116638
0.110403
0.104398
0.0984242
0.0925981
0.0873408
0.0826338
0.0779874
0.0732246
92.8695
58.5682
38.8902
26.9321
19.3121
14.2589
10.7926
8.34414
6.57091
5.25871
4.26883
3.50912
2.91702
2.44921
2.07506
1.77258
1.5257
1.32249
1.15401
1.01357
0.896551
0.800799
0.726177
0.672604
0.638219
0.619683
0.612069
0.607702
0.600325
0.592106
0.588515
0.580943
0.557443
0.514958
0.461212
0.409775
0.366793
0.331952
0.305532
0.284611
0.266469
0.249672
0.233266
0.21664
0.201317
0.187677
0.175573
0.164818
0.15496
0.145396
0.136016
0.126684
0.1173
0.107779
0.0985744
0.0916704
0.0883559
0.086291
0.0823441
0.0758599
92.9316
58.8387
39.2302
27.2917
19.6649
14.5932
11.1035
8.62777
6.82609
5.4872
4.47401
3.69409
3.0831
2.59648
2.20426
1.88549
1.62573
1.41216
1.23489
1.08661
0.961742
0.856109
0.766486
0.690186
0.624821
0.57428
0.540877
0.524923
0.528193
0.601565
0.757072
0.888498
0.944419
0.932591
0.879443
0.812623
0.761918
0.734375
0.714483
0.690072
0.655912
0.611935
0.559342
0.498894
0.431628
0.364749
0.30865
0.265267
0.230707
0.202643
0.179832
0.161493
0.147153
0.136838
0.131408
0.132706
0.136717
0.13196
0.115929
0.0938422
72.1337
55.7277
44.1333
35.7029
29.4157
24.6242
20.9055
17.9709
15.6209
13.7141
12.1489
10.8508
9.76397
8.84603
8.06378
7.39184
6.81004
6.30514
5.86409
5.47337
5.1249
4.81464
4.53905
4.29501
4.08289
3.89437
3.72494
3.57152
3.43708
3.4078
3.57357
3.74432
3.76454
3.64874
3.45939
3.24043
3.01241
2.78334
2.55677
2.33485
2.11837
1.90596
1.69688
1.49251
1.29684
1.11571
0.954461
0.821212
0.71819
0.643369
0.595308
0.571492
0.563737
0.555636
0.530185
0.478335
0.405076
0.326558
0.2565
0.206028
72.1368
55.7344
44.1352
35.7
29.4091
24.6146
20.8932
17.9599
15.6123
13.706
12.1399
10.8412
9.75416
8.83617
8.05498
7.38607
6.80782
6.30346
5.86091
5.4704
5.12511
4.82036
4.55192
4.31406
4.10151
3.91178
3.74037
3.5839
3.44042
3.30843
3.18703
3.07528
2.97446
2.90885
2.92506
2.98316
2.9818
2.88415
2.71567
2.51606
2.31479
2.12848
1.96652
1.83265
1.72541
1.64051
1.57342
1.52036
1.47997
1.45557
1.44309
1.43135
1.40759
1.36598
1.31216
1.25797
1.21454
1.18647
1.17378
1.16546
92.9316
58.8504
39.2395
27.299
19.6743
14.61
11.1239
8.65075
6.85081
5.51088
4.49581
3.71439
3.10348
2.61778
2.22688
1.90786
1.64586
1.4298
1.25017
1.09968
0.972712
0.864887
0.772767
0.693751
0.626368
0.570551
0.525379
0.488417
0.456396
0.426184
0.399839
0.384658
0.397558
0.495096
0.709981
0.928512
1.02315
0.989564
0.88486
0.758365
0.636296
0.528331
0.436666
0.361442
0.301546
0.254591
0.218092
0.190898
0.172002
0.157958
0.147148
0.138656
0.131752
0.125838
0.120567
0.115887
0.112043
0.10944
0.108962
0.110781
92.8695
58.5765
38.8968
26.9354
19.3134
14.2589
10.7906
8.34229
6.57044
5.25873
4.26832
3.50811
2.91582
2.44796
2.07391
1.77159
1.52478
1.32146
1.1526
1.01124
0.89202
0.790792
0.704286
0.629902
0.565553
0.509706
0.46115
0.418781
0.381616
0.348715
0.319584
0.294319
0.274117
0.266714
0.287249
0.328974
0.36371
0.374868
0.364283
0.340721
0.31171
0.281613
0.252601
0.225896
0.202125
0.18148
0.163971
0.149509
0.137483
0.127336
0.118774
0.111494
0.10508
0.0991182
0.0934582
0.0882303
0.0836751
0.0798934
0.076924
0.0747052
92.8694
58.6476
38.9901
27.029
19.3961
14.3276
10.8467
8.38758
6.60637
5.28726
4.29129
3.52662
2.93076
2.46013
2.08391
1.77983
1.53162
1.32717
1.1574
1.01536
0.895635
0.794048
0.707284
0.632692
0.56816
0.512035
0.462982
0.419934
0.381987
0.348404
0.318621
0.292199
0.268778
0.248695
0.234603
0.227951
0.224605
0.219752
0.211691
0.201048
0.189075
0.176738
0.164512
0.152893
0.142116
0.132056
0.122534
0.113403
0.104766
0.0966917
0.0892545
0.0827148
0.0773221
0.073182
0.0701745
0.0679815
0.066243
0.064626
0.0630244
0.0612385
92.8694
58.645
38.979
27.0136
19.3801
14.3128
10.8333
8.37576
6.59651
5.27937
4.28512
3.52177
2.9269
2.45703
2.08136
1.7777
1.52983
1.32571
1.15629
1.01464
0.89537
0.794259
0.707918
0.633597
0.569148
0.512879
0.463456
0.419808
0.38111
0.346797
0.316726
0.289978
0.26604
0.244969
0.226733
0.211426
0.19845
0.186776
0.175672
0.16491
0.154586
0.144892
0.136011
0.127857
0.120369
0.1135
0.107163
0.101324
0.0959739
0.0913162
0.0874679
0.084193
0.0812471
0.0785654
0.0762184
0.0741654
0.0722504
0.0702706
0.0681846
0.0658543
92.8694
58.6428
38.9768
27.0112
19.3779
14.3112
10.8321
8.37461
6.59542
5.27845
4.28445
3.52131
2.92659
2.45684
2.08125
1.77767
1.52991
1.32594
1.15675
1.01544
0.896671
0.796295
0.711033
0.638289
0.575987
0.522572
0.476916
0.438269
0.406415
0.382367
0.363216
0.344516
0.323174
0.299205
0.275761
0.254194
0.235277
0.218967
0.204863
0.192514
0.181507
0.171481
0.16214
0.15327
0.144804
0.136715
0.129002
0.121851
0.115375
0.10949
0.104161
0.0993382
0.0949457
0.0910001
0.0874652
0.0841675
0.080963
0.0777576
0.0745127
0.0711822
92.8694
58.6459
38.9917
27.0319
19.4001
14.3323
10.8509
8.39061
6.60845
5.2888
4.29262
3.5278
2.93174
2.4609
2.08443
1.78012
1.53175
1.32732
1.15787
1.01663
0.898635
0.800574
0.720292
0.655699
0.604225
0.563502
0.532074
0.50912
0.493598
0.482611
0.471078
0.453952
0.429248
0.397518
0.362292
0.329854
0.301643
0.27758
0.257029
0.239374
0.224008
0.210231
0.197555
0.185627
0.17448
0.164126
0.154532
0.145674
0.137527
0.130104
0.123199
0.116681
0.110515
0.104562
0.0986334
0.0928082
0.0875029
0.0827703
0.078144
0.0734009
92.8694
58.5656
38.8904
26.9323
19.3131
14.2606
10.7928
8.3438
6.5711
5.25927
4.2693
3.50931
2.91699
2.44907
2.07493
1.77252
1.52571
1.32257
1.15416
1.01379
0.896964
0.80173
0.72815
0.676175
0.643738
0.627157
0.621036
0.617281
0.609844
0.601539
0.596921
0.586682
0.55942
0.513311
0.457599
0.406298
0.363852
0.329734
0.303962
0.28337
0.265315
0.248448
0.231894
0.215172
0.199886
0.186366
0.174409
0.163803
0.154267
0.145316
0.136503
0.127516
0.118279
0.108813
0.0995005
0.0922327
0.0884877
0.0863009
0.0825155
0.0761725
92.9316
58.8419
39.2425
27.3074
19.6829
14.6081
11.1094
8.62754
6.82482
5.48646
4.47219
3.68921
3.07578
2.58851
2.19851
1.88284
1.62472
1.41177
1.23474
1.08655
0.961751
0.8562
0.766706
0.690584
0.625435
0.575161
0.543068
0.528766
0.534435
0.598606
0.738633
0.868643
0.93182
0.927153
0.879094
0.814622
0.763017
0.734366
0.714756
0.691694
0.65916
0.616523
0.564841
0.505055
0.437933
0.37025
0.312498
0.267988
0.232696
0.204117
0.1809
0.162218
0.147564
0.136914
0.131065
0.131763
0.136051
0.132262
0.117161
0.0953591
72.1325
55.7258
44.1376
35.7073
29.4203
24.6291
20.9077
17.9719
15.6225
13.7165
12.1513
10.8523
9.7642
8.84512
8.0606
7.38666
6.80506
6.3011
5.86054
5.46977
5.12127
4.81124
4.53587
4.29153
4.07772
3.89085
3.72314
3.5711
3.43585
3.39039
3.53992
3.72122
3.76205
3.66145
3.47981
3.26381
3.03654
2.80727
2.57995
2.35692
2.13913
1.9254
1.71508
1.5095
1.31249
1.12984
0.966849
0.831283
0.726109
0.649371
0.599637
0.574503
0.56607
0.558243
0.534001
0.483818
0.411406
0.332727
0.261658
0.209884
)
;

boundaryField
{
    wall
    {
        type            epsilonWallFunction;
        value           nonuniform List<scalar> 
1200
(
72.1327
92.9316
92.8695
92.8693
92.8693
92.8692
92.8694
92.8695
92.9316
72.1337
55.7149
58.8488
58.5582
58.6349
58.636
58.6377
58.6426
58.5682
58.8387
55.7277
44.1233
39.2566
38.883
38.9806
38.9704
38.971
38.9857
38.8902
39.2302
44.1333
35.6943
27.327
26.9274
27.0229
27.0072
27.0071
27.0271
26.9321
27.2917
35.7029
29.4093
19.7056
19.3105
19.3927
19.3754
19.3749
19.396
19.3121
19.6649
29.4157
24.6208
14.6339
14.2603
14.3273
14.3104
14.3094
14.3288
14.2589
14.5932
24.6242
20.901
11.1339
10.795
10.8488
10.834
10.8327
10.8502
10.7926
11.1035
20.9055
17.9634
8.65307
8.34556
8.38911
8.37681
8.37547
8.39083
8.34414
8.62777
17.9709
15.6095
6.85332
6.57114
6.606
6.59622
6.59521
6.60803
6.57091
6.82609
15.6209
13.7007
5.51918
5.25788
5.28568
5.27816
5.27756
5.28783
5.25871
5.4872
13.7141
12.1364
4.50878
4.26761
4.28971
4.28393
4.28362
4.2917
4.26883
4.47401
12.1489
10.8399
3.73018
3.508
3.52564
3.52111
3.5209
3.52727
3.50912
3.69409
10.8508
9.75463
3.1208
2.91624
2.93035
2.92672
2.92653
2.93162
2.91702
3.0831
9.76397
8.83823
2.63706
2.44888
2.46019
2.4572
2.45699
2.46108
2.44921
2.59648
8.84603
8.05811
2.24373
2.07499
2.08422
2.08169
2.08147
2.08472
2.07506
2.20426
8.06378
7.38891
1.91886
1.77245
1.78016
1.77798
1.77784
1.78034
1.77258
1.88549
7.39184
6.81023
1.65133
1.52526
1.53181
1.52996
1.52996
1.53183
1.5257
1.62573
6.81004
6.30556
1.43216
1.32163
1.32721
1.3257
1.32589
1.32728
1.32249
1.41216
6.30514
5.86298
1.25109
1.15257
1.15733
1.15619
1.15662
1.15774
1.15401
1.23489
5.86409
5.47252
1.10002
1.01112
1.01523
1.0145
1.01527
1.01643
1.01357
1.08661
5.47337
5.12717
0.972831
0.891874
0.895496
0.895209
0.896465
0.898316
0.896551
0.961742
5.1249
4.82181
0.864914
0.790645
0.793907
0.794091
0.796047
0.800014
0.800799
0.856109
4.81464
4.55136
0.772747
0.704134
0.707135
0.707754
0.710727
0.719304
0.726177
0.766486
4.53905
4.31179
0.693581
0.629722
0.632544
0.633461
0.637895
0.654123
0.672604
0.690186
4.29501
4.10076
0.626236
0.565375
0.568038
0.569063
0.57547
0.601997
0.638219
0.624821
4.08289
3.91217
0.570695
0.509657
0.511975
0.512871
0.521897
0.560637
0.619683
0.57428
3.89437
3.74116
0.525303
0.461215
0.462982
0.46352
0.476042
0.528574
0.612069
0.540877
3.72494
3.58445
0.487374
0.418867
0.419955
0.419936
0.437116
0.504935
0.607702
0.524923
3.57152
3.44028
0.454891
0.381644
0.382001
0.381289
0.404829
0.488708
0.600325
0.528193
3.43708
3.30763
0.425981
0.348749
0.348406
0.347019
0.380211
0.477423
0.592106
0.601565
3.4078
3.18571
0.40207
0.319743
0.318621
0.316978
0.360897
0.466459
0.588515
0.757072
3.57357
3.07348
0.389656
0.294725
0.292206
0.290318
0.342568
0.450667
0.580943
0.888498
3.74432
2.97326
0.409003
0.275224
0.268812
0.266331
0.322017
0.427636
0.557443
0.944419
3.76454
2.91517
0.523276
0.270626
0.248988
0.245203
0.298621
0.397588
0.514958
0.932591
3.64874
2.94349
0.750395
0.29557
0.235714
0.226924
0.27543
0.363173
0.461212
0.879443
3.45939
3.00079
0.958644
0.338569
0.229831
0.211613
0.253945
0.330833
0.409775
0.812623
3.24043
2.98579
1.03257
0.37047
0.226489
0.19861
0.235
0.302496
0.366793
0.761918
3.01241
2.87299
0.983415
0.377596
0.221054
0.186865
0.218621
0.278252
0.331952
0.734375
2.78334
2.6944
0.871374
0.363922
0.212285
0.1757
0.204445
0.257537
0.305532
0.714483
2.55677
2.49057
0.743087
0.338632
0.201074
0.164919
0.192041
0.239737
0.284611
0.690072
2.33485
2.2894
0.621904
0.308906
0.188729
0.1546
0.181002
0.224289
0.266469
0.655912
2.11837
2.10576
0.515799
0.278664
0.176149
0.144899
0.171005
0.210465
0.249672
0.611935
1.90596
1.94764
0.426268
0.249803
0.163796
0.136015
0.161725
0.197781
0.233266
0.559342
1.69688
1.81772
0.353206
0.223412
0.152155
0.127856
0.152891
0.185899
0.21664
0.498894
1.49251
1.71389
0.295324
0.200058
0.141421
0.120322
0.144485
0.174747
0.201317
0.431628
1.29684
1.63163
0.250122
0.179894
0.131419
0.113436
0.136466
0.164383
0.187677
0.364749
1.11571
1.5664
0.215148
0.162891
0.121952
0.107135
0.128846
0.154778
0.175573
0.30865
0.954461
1.51454
0.189373
0.14887
0.112874
0.101367
0.121862
0.145909
0.164818
0.265267
0.821212
1.47611
0.171241
0.137162
0.104318
0.0961044
0.115534
0.137771
0.15496
0.230707
0.71819
1.45376
0.157606
0.127267
0.0963086
0.0915679
0.109693
0.130294
0.145396
0.202643
0.643369
1.44272
0.147047
0.118904
0.0889489
0.087786
0.104356
0.12326
0.136016
0.179832
0.595308
1.43124
0.138719
0.111762
0.0824987
0.0845045
0.0994718
0.116638
0.126684
0.161493
0.571492
1.40654
0.131921
0.105416
0.0772088
0.0815032
0.095018
0.110403
0.1173
0.147153
0.563737
1.36353
0.12607
0.0994649
0.0731806
0.0787678
0.0910436
0.104398
0.107779
0.136838
0.555636
1.30877
0.120844
0.0937958
0.0702779
0.0763956
0.0875046
0.0984242
0.0985744
0.131408
0.530185
1.2545
0.116212
0.0885715
0.0681637
0.0743376
0.0842077
0.0925981
0.0916704
0.132706
0.478335
1.21169
0.112435
0.0840403
0.0664715
0.0724214
0.0810042
0.0873408
0.0883559
0.136717
0.405076
1.18434
0.109938
0.0802927
0.0648724
0.0704354
0.0777945
0.0826338
0.086291
0.13196
0.326558
1.17208
0.109666
0.0773663
0.0632708
0.0683363
0.074537
0.0779874
0.0823441
0.115929
0.2565
1.16331
0.111761
0.0751907
0.061477
0.0659902
0.0711939
0.0732246
0.0758599
0.0938422
0.206028
72.1368
92.9316
92.8695
92.8694
92.8694
92.8694
92.8694
92.8694
92.9316
72.1325
55.7344
58.8504
58.5765
58.6476
58.645
58.6428
58.6459
58.5656
58.8419
55.7258
44.1352
39.2395
38.8968
38.9901
38.979
38.9768
38.9917
38.8904
39.2425
44.1376
35.7
27.299
26.9354
27.029
27.0136
27.0112
27.0319
26.9323
27.3074
35.7073
29.4091
19.6743
19.3134
19.3961
19.3801
19.3779
19.4001
19.3131
19.6829
29.4203
24.6146
14.61
14.2589
14.3276
14.3128
14.3112
14.3323
14.2606
14.6081
24.6291
20.8932
11.1239
10.7906
10.8467
10.8333
10.8321
10.8509
10.7928
11.1094
20.9077
17.9599
8.65075
8.34229
8.38758
8.37576
8.37461
8.39061
8.3438
8.62754
17.9719
15.6123
6.85081
6.57044
6.60637
6.59651
6.59542
6.60845
6.5711
6.82482
15.6225
13.706
5.51088
5.25873
5.28726
5.27937
5.27845
5.2888
5.25927
5.48646
13.7165
12.1399
4.49581
4.26832
4.29129
4.28512
4.28445
4.29262
4.2693
4.47219
12.1513
10.8412
3.71439
3.50811
3.52662
3.52177
3.52131
3.5278
3.50931
3.68921
10.8523
9.75416
3.10348
2.91582
2.93076
2.9269
2.92659
2.93174
2.91699
3.07578
9.7642
8.83617
2.61778
2.44796
2.46013
2.45703
2.45684
2.4609
2.44907
2.58851
8.84512
8.05498
2.22688
2.07391
2.08391
2.08136
2.08125
2.08443
2.07493
2.19851
8.0606
7.38607
1.90786
1.77159
1.77983
1.7777
1.77767
1.78012
1.77252
1.88284
7.38666
6.80782
1.64586
1.52478
1.53162
1.52983
1.52991
1.53175
1.52571
1.62472
6.80506
6.30346
1.4298
1.32146
1.32717
1.32571
1.32594
1.32732
1.32257
1.41177
6.3011
5.86091
1.25017
1.1526
1.1574
1.15629
1.15675
1.15787
1.15416
1.23474
5.86054
5.4704
1.09968
1.01124
1.01536
1.01464
1.01544
1.01663
1.01379
1.08655
5.46977
5.12511
0.972712
0.89202
0.895635
0.89537
0.896671
0.898635
0.896964
0.961751
5.12127
4.82036
0.864887
0.790792
0.794048
0.794259
0.796295
0.800574
0.80173
0.8562
4.81124
4.55192
0.772767
0.704286
0.707284
0.707918
0.711033
0.720292
0.72815
0.766706
4.53587
4.31406
0.693751
0.629902
0.632692
0.633597
0.638289
0.655699
0.676175
0.690584
4.29153
4.10151
0.626368
0.565553
0.56816
0.569148
0.575987
0.604225
0.643738
0.625435
4.07772
3.91178
0.570551
0.509706
0.512035
0.512879
0.522572
0.563502
0.627157
0.575161
3.89085
3.74037
0.525379
0.46115
0.462982
0.463456
0.476916
0.532074
0.621036
0.543068
3.72314
3.5839
0.488417
0.418781
0.419934
0.419808
0.438269
0.50912
0.617281
0.528766
3.5711
3.44042
0.456396
0.381616
0.381987
0.38111
0.406415
0.493598
0.609844
0.534435
3.43585
3.30843
0.426184
0.348715
0.348404
0.346797
0.382367
0.482611
0.601539
0.598606
3.39039
3.18703
0.399839
0.319584
0.318621
0.316726
0.363216
0.471078
0.596921
0.738633
3.53992
3.07528
0.384658
0.294319
0.292199
0.289978
0.344516
0.453952
0.586682
0.868643
3.72122
2.97446
0.397558
0.274117
0.268778
0.26604
0.323174
0.429248
0.55942
0.93182
3.76205
2.90885
0.495096
0.266714
0.248695
0.244969
0.299205
0.397518
0.513311
0.927153
3.66145
2.92506
0.709981
0.287249
0.234603
0.226733
0.275761
0.362292
0.457599
0.879094
3.47981
2.98316
0.928512
0.328974
0.227951
0.211426
0.254194
0.329854
0.406298
0.814622
3.26381
2.9818
1.02315
0.36371
0.224605
0.19845
0.235277
0.301643
0.363852
0.763017
3.03654
2.88415
0.989564
0.374868
0.219752
0.186776
0.218967
0.27758
0.329734
0.734366
2.80727
2.71567
0.88486
0.364283
0.211691
0.175672
0.204863
0.257029
0.303962
0.714756
2.57995
2.51606
0.758365
0.340721
0.201048
0.16491
0.192514
0.239374
0.28337
0.691694
2.35692
2.31479
0.636296
0.31171
0.189075
0.154586
0.181507
0.224008
0.265315
0.65916
2.13913
2.12848
0.528331
0.281613
0.176738
0.144892
0.171481
0.210231
0.248448
0.616523
1.9254
1.96652
0.436666
0.252601
0.164512
0.136011
0.16214
0.197555
0.231894
0.564841
1.71508
1.83265
0.361442
0.225896
0.152893
0.127857
0.15327
0.185627
0.215172
0.505055
1.5095
1.72541
0.301546
0.202125
0.142116
0.120369
0.144804
0.17448
0.199886
0.437933
1.31249
1.64051
0.254591
0.18148
0.132056
0.1135
0.136715
0.164126
0.186366
0.37025
1.12984
1.57342
0.218092
0.163971
0.122534
0.107163
0.129002
0.154532
0.174409
0.312498
0.966849
1.52036
0.190898
0.149509
0.113403
0.101324
0.121851
0.145674
0.163803
0.267988
0.831283
1.47997
0.172002
0.137483
0.104766
0.0959739
0.115375
0.137527
0.154267
0.232696
0.726109
1.45557
0.157958
0.127336
0.0966917
0.0913162
0.10949
0.130104
0.145316
0.204117
0.649371
1.44309
0.147148
0.118774
0.0892545
0.0874679
0.104161
0.123199
0.136503
0.1809
0.599637
1.43135
0.138656
0.111494
0.0827148
0.084193
0.0993382
0.116681
0.127516
0.162218
0.574503
1.40759
0.131752
0.10508
0.0773221
0.0812471
0.0949457
0.110515
0.118279
0.147564
0.56607
1.36598
0.125838
0.0991182
0.073182
0.0785654
0.0910001
0.104562
0.108813
0.136914
0.558243
1.31216
0.120567
0.0934582
0.0701745
0.0762184
0.0874652
0.0986334
0.0995005
0.131065
0.534001
1.25797
0.115887
0.0882303
0.0679815
0.0741654
0.0841675
0.0928082
0.0922327
0.131763
0.483818
1.21454
0.112043
0.0836751
0.066243
0.0722504
0.080963
0.0875029
0.0884877
0.136051
0.411406
1.18647
0.10944
0.0798934
0.064626
0.0702706
0.0777576
0.0827703
0.0863009
0.132262
0.332727
1.17378
0.108962
0.076924
0.0630244
0.0681846
0.0745127
0.078144
0.0825155
0.117161
0.261658
1.16546
0.110781
0.0747052
0.0612385
0.0658543
0.0711822
0.0734009
0.0761725
0.0953591
0.209884
)
;
    }
    inlet
    {
        type            turbulentMixingLengthDissipationRateInlet;
        mixingLength    0.071;
        phi             phi;
        k               k;
        value           uniform 2.17686;
    }
    outlet
    {
        type            inletOutlet;
        inletValue      uniform 0.0001;
        value           nonuniform List<scalar> 
20
(
1.16331
0.111761
0.0751907
0.061477
0.0659902
0.0711939
0.0732246
0.0758599
0.0938422
0.206028
1.16546
0.110781
0.0747052
0.0612385
0.0658543
0.0711822
0.0734009
0.0761725
0.0953591
0.209884
)
;
    }
    heatWall
    {
        type            epsilonWallFunction;
        value           nonuniform List<scalar> 
240
(
72.1337
72.1325
55.7277
55.7258
44.1333
44.1376
35.7029
35.7073
29.4157
29.4203
24.6242
24.6291
20.9055
20.9077
17.9709
17.9719
15.6209
15.6225
13.7141
13.7165
12.1489
12.1513
10.8508
10.8523
9.76397
9.7642
8.84603
8.84512
8.06378
8.0606
7.39184
7.38666
6.81004
6.80506
6.30514
6.3011
5.86409
5.86054
5.47337
5.46977
5.1249
5.12127
4.81464
4.81124
4.53905
4.53587
4.29501
4.29153
4.08289
4.07772
3.89437
3.89085
3.72494
3.72314
3.57152
3.5711
3.43708
3.43585
3.4078
3.39039
3.57357
3.53992
3.74432
3.72122
3.76454
3.76205
3.64874
3.66145
3.45939
3.47981
3.24043
3.26381
3.01241
3.03654
2.78334
2.80727
2.55677
2.57995
2.33485
2.35692
2.11837
2.13913
1.90596
1.9254
1.69688
1.71508
1.49251
1.5095
1.29684
1.31249
1.11571
1.12984
0.954461
0.966849
0.821212
0.831283
0.71819
0.726109
0.643369
0.649371
0.595308
0.599637
0.571492
0.574503
0.563737
0.56607
0.555636
0.558243
0.530185
0.534001
0.478335
0.483818
0.405076
0.411406
0.326558
0.332727
0.2565
0.261658
0.206028
0.209884
72.1327
72.1368
55.7149
55.7344
44.1233
44.1352
35.6943
35.7
29.4093
29.4091
24.6208
24.6146
20.901
20.8932
17.9634
17.9599
15.6095
15.6123
13.7007
13.706
12.1364
12.1399
10.8399
10.8412
9.75463
9.75416
8.83823
8.83617
8.05811
8.05498
7.38891
7.38607
6.81023
6.80782
6.30556
6.30346
5.86298
5.86091
5.47252
5.4704
5.12717
5.12511
4.82181
4.82036
4.55136
4.55192
4.31179
4.31406
4.10076
4.10151
3.91217
3.91178
3.74116
3.74037
3.58445
3.5839
3.44028
3.44042
3.30763
3.30843
3.18571
3.18703
3.07348
3.07528
2.97326
2.97446
2.91517
2.90885
2.94349
2.92506
3.00079
2.98316
2.98579
2.9818
2.87299
2.88415
2.6944
2.71567
2.49057
2.51606
2.2894
2.31479
2.10576
2.12848
1.94764
1.96652
1.81772
1.83265
1.71389
1.72541
1.63163
1.64051
1.5664
1.57342
1.51454
1.52036
1.47611
1.47997
1.45376
1.45557
1.44272
1.44309
1.43124
1.43135
1.40654
1.40759
1.36353
1.36598
1.30877
1.31216
1.2545
1.25797
1.21169
1.21454
1.18434
1.18647
1.17208
1.17378
1.16331
1.16546
)
;
    }
}


// ************************************************************************* //
