/*--------------------------------*- C++ -*----------------------------------*\
  =========                 |
  \\      /  F ield         | OpenFOAM: The Open Source CFD Toolbox
   \\    /   O peration     | Website:  https://openfoam.org
    \\  /    A nd           | Version:  8
     \\/     M anipulation  |
\*---------------------------------------------------------------------------*/
FoamFile
{
    version     2.0;
    format      ascii;
    class       volScalarField;
    location    "700";
    object      p_rgh;
}
// * * * * * * * * * * * * * * * * * * * * * * * * * * * * * * * * * * * * * //

dimensions      [1 -1 -2 0 0 0 0];

internalField   nonuniform List<scalar> 
1200
(
31310
28271
26780.7
26259.3
25879
25463.7
25176.2
25118.1
25309.2
25289.8
24920.3
24508
24177.7
23816.1
23359.4
22863.9
22459.8
22241.8
22273.9
22371.2
22248.1
22028.3
21910.2
21811.6
21334.1
20384.8
19630.2
19274.1
19419.2
19663.8
19552
19013.2
18217
17867.4
17278.3
12740.9
6437.81
1071.61
-2600.42
-4730.27
-5820.84
-6380.13
-6758.43
-6918.5
-6687.65
-5927.91
-4652.42
-3064.97
-1239.64
1060.68
3768.34
6657.58
9449.18
11727.7
13502.7
14147.4
13650.2
11205
7590.25
4231.12
24202.1
24712.6
24806.2
24948.2
24995.2
24905
24697.1
24698.8
24981.5
25028
24707.4
24355.7
24071
23739.4
23281.7
22780.1
22360.4
22115.8
22130.3
22228.8
22117.4
21912.1
21824
21760.9
21344.1
20439.7
19688.4
19337.7
19511.4
19805.2
19720
19172.8
18397.1
18054.6
17498.3
13276.7
7208.76
1946.99
-1703.54
-3880.08
-5055.79
-5707.2
-6136.02
-6324.86
-6115.51
-5342.47
-4031.23
-2364.87
-429.586
1937.11
4727.86
7695.97
10523.4
12796.6
14575.5
15243.5
14792.1
12315.5
8736.33
5284.75
25392.2
26558.5
26713.8
26466.9
26148.1
25748.6
25402.7
25294.3
25408.7
25383.1
25043.6
24610.9
24258.6
23883.8
23431.4
22920.5
22455
22140.7
22095.1
22166.5
22051.7
21842.9
21749.9
21683.9
21245.2
20301
19511.2
19181.1
19394.5
19766.7
19681.4
18984
17977.4
17145.2
15687.4
11321.8
5531.07
532.677
-2913.41
-4956.8
-6051.19
-6660.47
-7046.36
-7192.59
-6936.65
-6121.54
-4740.02
-3072.5
-1212.48
1122.98
3910.83
6909.1
9801.76
12160
14001.8
14680.3
14141.1
11485
7800.01
4537.18
25386.6
25861.7
25733.5
25446.4
25248.8
25046.1
24782.3
24693.3
24910.1
24993.8
24732.2
24361.8
24056.5
23724.1
23290.1
22783.2
22294.2
21938.8
21861.7
21927
21826.6
21629.6
21543
21498.3
21105.7
20189.1
19399.6
19075.7
19289.3
19733.7
19618.9
18732.5
17574
16471.6
14846.9
11205.1
6391.91
1961.3
-1359.25
-3570.28
-4960.86
-5899.38
-6520.44
-6832.17
-6681.52
-5822.62
-4318.63
-2480.46
-408.961
1958.73
4757.96
7715.37
10507.4
12779
14647.3
15401.5
14874.2
11968.9
8221.75
3955.2
25436.9
25841.5
25935.6
25807.5
25668.1
25495.6
25196.7
25015.4
25103.8
25124
24869.9
24499.3
24166.3
23800.3
23342.6
22808
22258.8
21820
21672
21703.6
21595.2
21381.1
21264.1
21218.5
20899.8
20106.2
19394.2
19185.8
19483.4
20085.2
19945.7
18677.1
17103.9
15438.1
13403.4
10128.3
6074.76
2205.63
-841.742
-3031.01
-4566.12
-5698.14
-6543.5
-7086.66
-7215.97
-6619.68
-5230.48
-3419.72
-1356.47
1263.37
4321.45
7556.77
10605.8
13055
14984.5
15665.2
14926.8
11600.5
7739.78
2597.83
25422.6
25797.6
25915
25799.5
25676.5
25538.7
25240.1
25032.1
25073.8
25087.7
24867
24512.6
24164.1
23774.5
23285.2
22693.5
22050.1
21500.7
21273.7
21278.7
21186.6
21002.3
20917.8
20926
20724.5
20089.9
19405.7
19225.2
19442.6
20144
20155.3
18778.6
16905.6
15086
12823.2
9795.92
6346.73
2866.72
-92.2832
-2407.18
-4124.39
-5402.15
-6394.54
-7091.49
-7240.41
-6520.61
-4993.77
-2928.19
-542.611
2363.58
5529.68
8721.52
11687.4
14158
16269
16978.1
15835.5
11538.7
7183.81
538.447
25342
25707.7
25644.3
25385
25217.4
25121.1
24847.7
24659
24730.2
24804
24663.4
24364.5
24033.6
23656.9
23186.8
22605.4
21945.4
21363.9
21115.2
21113.8
21014.3
20815
20725.7
20761.9
20663.4
20235.1
19712.7
19661
19973.3
20845.2
21012.7
19150.7
16806
14672.9
12393.6
9636.4
6865.32
3867.31
1080.73
-1284.2
-3160.84
-4586.64
-5778.36
-6762.93
-7128.29
-6569.39
-5121.85
-3183.7
-787.423
2273.96
5793.35
9341.91
12628.4
15341.2
17548.8
18174.6
16946.9
12317.2
8049.67
-503.041
25343.5
26322.6
26506
26298.1
26078.2
25893.9
25550.7
25260.5
25167.1
25107.5
24911.1
24591
24222.2
23803.4
23291.5
22660.5
21934.9
21293.9
21028.8
21064.7
21024.4
20886.9
20853.3
20937.7
20933.8
20662.2
20237.3
20194.4
20241
21007.2
21454.1
19145.9
16274.2
13934.9
11463.2
8523.57
6242.11
3551.53
886.965
-1491.07
-3433.44
-4921.59
-6201.88
-7267.55
-7635.58
-7001.52
-5417.52
-3306.27
-676.964
2739.44
6612.88
10433.9
14012.3
17100.8
19926.9
20624.7
18613.1
12453.6
7568.05
-2172.54
24110.2
24475.4
24712.4
24840.4
24922.2
25011.5
24835.7
24674.4
24703.9
24757
24664.2
24424.5
24100.5
23720.1
23260.3
22696.7
22057.2
21524.8
21379.8
21531.7
21573.7
21479.2
21439.5
21466.8
21397.1
21081.1
20598.7
20513.4
20657.1
22306.8
23216.3
20179.4
16965
14791.3
12475.6
9760.8
7924.66
5515.66
2814.51
238.882
-1957.75
-3682.36
-5286.37
-6930.14
-7808.33
-7253.13
-5421.2
-3167.84
-599.192
2599.74
6280.58
10047.8
13556.4
16376.4
18608.9
19443.3
18297.3
13004.9
9076.96
-2691.79
31277.9
27893.3
26582.6
26111.4
25832
25675.8
25365.2
25111.2
25040.9
25009.6
24865.6
24595.8
24248.4
23856.7
23398.7
22848.4
22230.9
21736.2
21641.6
21849.1
21929.5
21862.2
21838.2
21872.9
21810.6
21512.9
21001.3
20865.7
20872.4
22926.2
23951.9
20007.1
16044.5
13341.5
10864.8
8261.41
6302.78
3927.42
1375.12
-1048.5
-3082.49
-4631.53
-6031.9
-7313.17
-7888.39
-7353.49
-5805.61
-3641.2
-1046.89
2215.74
6000.93
9929.68
13720.7
16902.7
19427.9
19699.1
17923.4
12134.1
8353.2
-3480.59
31422
27869.9
26561.6
26157.9
25934.6
25838.5
25741.4
25397.1
24931.2
24674
24607.5
24535
24359.6
24135.4
23883.1
23594.7
23277.5
22968.8
22595.9
22166.8
21828.8
21451.4
20977.8
20446.8
20025.8
19852.5
19781
19634
19311.7
19110.7
18849.3
18324.3
17609.8
17276.3
16623.4
12111.2
6203.51
1291.6
-2142.93
-4305.61
-5632.87
-6550.48
-7128.43
-7328.74
-7132.91
-6510.65
-5459.15
-3955.76
-2068.73
232.937
2984.87
6035.17
9097.94
11745.6
13760.4
14691.2
14238.3
12069.3
7892.55
5273.46
24236.6
24496.8
24692.4
24899.9
25049
25202
25174.7
24955.2
24643.4
24460.1
24410.1
24371.6
24229.5
24038.7
23797.8
23536.9
23274.7
23027
22691.3
22263.7
21907.9
21500.3
20982.8
20403.9
19987.8
19810.4
19717.5
19558.7
19247.4
19097.2
18865.1
18294.5
17523.4
17112.8
16381.3
12012.5
6140.51
1214.01
-2229.37
-4404.3
-5754.14
-6710.84
-7311.02
-7504.07
-7299.79
-6661.81
-5582
-4015.34
-2060.09
241.307
3013.67
6110.74
9220.44
11899.4
13945.1
14903.5
14470.9
12236
8123.07
5545.53
25459
26305.3
26490.6
26336.9
26143.7
26000.5
25944.7
25692.6
25167.7
24836.5
24741.8
24635.3
24432.2
24203.9
23982.4
23733.5
23455.2
23170.7
22789.7
22322.1
21934.8
21499.6
20964.5
20368.2
19901.5
19677.9
19578.7
19452.7
19209.5
19177
18979.5
18293.1
17372.6
16686.4
15383
11135
5568.01
772.773
-2641.15
-4829.24
-6204.21
-7196.65
-7807.75
-7971.55
-7727.59
-7049.03
-5869.56
-4247.61
-2334.73
-62.9065
2689.38
5774.95
8903.01
11632.2
13733
14713.1
14233.5
11828.9
7728.28
4994.48
25460
25742.8
25668.1
25457.4
25312.7
25229.4
25206.8
25024
24717.3
24543.3
24488.6
24416.3
24246.6
24053.9
23848.9
23630.4
23395.6
23148.1
22785.9
22315.2
21914.3
21463.5
20917.7
20305
19788
19490
19352.8
19231.7
19056.4
19189.5
19011.8
18120.2
16968.7
15945.1
14440.8
10941.1
6386.57
2187.26
-1090.42
-3442.5
-5121.56
-6475.2
-7364.65
-7714.45
-7602.1
-6932.13
-5666.54
-3880.56
-1754.65
553.442
3330.45
6394.34
9436.57
12071
14157.7
15170.4
14673.7
12023.8
7901.62
4364.67
25531.6
25811.2
25900.8
25812.1
25690.5
25581
25589.1
25425.3
25044.3
24764
24635.3
24536
24364.5
24184.5
24010.3
23829.2
23626.4
23390.5
23008.7
22493.5
22039.9
21530.7
20931.7
20277.9
19725.4
19417.4
19309.3
19298.7
19255.9
19585.4
19360.1
18053.4
16530.9
15029.3
13189.9
10101.9
6302.04
2652.78
-360.967
-2687.59
-4522.59
-6110.68
-7251.9
-7856.12
-8044.75
-7620.91
-6425.76
-4594.47
-2416.45
132.768
3125.86
6398.47
9630.27
12396.7
14513.8
15420.5
14669.9
11576.4
7345.72
3003.17
25537.7
25855.5
25944.9
25868.6
25752.3
25609.3
25615
25486.1
25128.1
24835.1
24673.4
24550.9
24383.6
24214.4
24046.3
23861.7
23651.8
23403.9
23006.8
22477.8
22021.4
21521.1
20945.2
20325.7
19781.5
19430.8
19199.3
19137.1
19051.8
19595.1
19589.4
18169.4
16273.8
14526.4
12383.2
9511.88
6288
3007.45
76.4288
-2353.21
-4331.94
-6030.35
-7252.63
-7962.49
-8144.42
-7571.67
-6209.54
-4191.53
-1761.34
1028.64
4136.51
7397.55
10576.4
13372.9
15653.9
16599.3
15475.2
11472.1
6726.98
1048.21
25470.1
25816.4
25666.7
25425
25245.5
25091.3
25094.6
25024.9
24791
24596.3
24480.1
24381.6
24255.4
24131.4
24017.6
23901.9
23772.3
23594
23230
22692.5
22200.2
21648.1
21027
20397.9
19859.7
19522.8
19334.6
19383.3
19455.5
20217.1
20412.6
18543.5
16214.7
14134.9
11939.1
9308.93
6733.06
3920.53
1162.31
-1308.07
-3445.72
-5326.23
-6761.25
-7782.84
-8180.29
-7695.27
-6316.71
-4343.88
-1883.01
1074.93
4508.71
8076.77
11524.1
14523.5
16831.8
17555.4
16133.6
11710.8
7017.05
-246.297
25502.2
26600.4
26701.9
26520.3
26266.6
25933.7
25865.2
25732.3
25360.2
25005.6
24762.6
24588.5
24427
24266.3
24099.6
23916.3
23705.2
23436.8
23003.9
22443.4
21979.4
21489.5
20944.4
20411.2
19962
19662.8
19440
19376.2
19149.2
20086.2
21057.8
19084.4
16365.3
13984.5
11233.8
8025.54
5720.36
3144.8
531.653
-1878.21
-4001.75
-5909.79
-7390.37
-8481.05
-8886.82
-8286.43
-6727.83
-4554.92
-1883.72
1376.35
5133.3
8951.36
12665.6
16018.9
18928.7
19831.2
17756.2
11959.4
6640.36
-1793.68
24199.4
24618.7
24763.9
24946.8
25017.5
24966.2
25046.3
25041.3
24847.9
24646.6
24497.4
24378.7
24265
24144.1
24021.9
23900.4
23777.6
23601.5
23230.9
22683
22202.9
21674.2
21067
20439.4
19882.1
19459.2
19110.6
19057.5
19083.9
20778.6
21892.7
18954.7
15798.7
13653.5
11302.4
8543.15
6789.06
4598.58
2055.25
-455.386
-2738.81
-4819.4
-6544.05
-8136.36
-9029.31
-8526.61
-6748.2
-4438.28
-1792.96
1357.91
5005.39
8802.38
12461.1
15521.3
17683.5
18394.2
16881.9
11894.2
7525.33
-2448.34
31473.9
28167.3
26684.5
26263.3
25951.4
25603.4
25535.2
25420.6
25114.5
24818.2
24603
24443
24303.1
24147.7
23969.7
23764.7
23525.6
23219.9
22754.5
22175.8
21717.4
21245.1
20727.6
20228.9
19836.9
19605.4
19460.3
19535.4
19526
21551.8
22480.2
18452.4
14725.7
12357.6
10111.3
7671.09
5901.41
3719.45
1234.63
-1234.59
-3461.44
-5471.44
-7088.06
-8385.23
-8963.23
-8400.88
-6812.01
-4550.63
-1894.91
1247.79
4901.44
8748
12585.9
16006.7
18652
19185.8
17291.4
11871.7
7518
-2814.2
)
;

boundaryField
{
    wall
    {
        type            fixedFluxPressure;
        gradient        nonuniform List<scalar> 
1200
(
-22746
-7005.9
-13534.4
-14808.8
-19029.7
-23099.5
-25653.3
-31761.3
-17828.7
-39120.1
80681.2
43422.2
50858.5
23887.3
6061.94
-11643.2
-21847
-55764.9
-28808.4
-55070.5
44124.6
22922.4
44847.4
13137.7
6939.96
-6047.12
-4563.67
-39341
-10330.3
-20425.8
20679.4
9910.42
26259
-2145.85
-918.347
-13925.8
-8122.78
-44703.1
-21432
-30577.5
-10719.9
-10484.3
1192.79
-12674.1
-4419.07
-15216.3
-5725.58
-37993.9
-19283.2
-24160.5
-74937.4
-59384
-50191.5
-36527.9
-16829.1
-13945.2
6131.34
-7982.75
9169.68
14552.1
-113417
-95840.6
-108536
-85078.9
-78500
-75032.2
-49394.4
-63065.9
-42153.6
-34022.2
-56196.4
-51613.3
-79981.1
-66503
-82289.3
-91201.3
-73482.7
-94768.9
-73573.5
-62030.5
75751
67761.2
48330.4
38477.3
11764.8
-11204.7
-12471.5
-39109.4
-29002.5
-14834.5
123634
114029
109713
90272.1
72077.4
50319.9
41320.6
19935.7
21963.2
38262.7
63039.3
59917.9
60659.3
48862
47009.7
38562.5
36487.6
29317.4
33369.7
52658.6
-5072.95
-2847.38
-4743.1
-10891.6
-7368.29
-7882.65
-3646.6
152.837
9271.92
30819
-36077
-31391.3
-34577.7
-37999.7
-39651.4
-44151.8
-44659.2
-41307.7
-32737.6
-10652.7
-63602.6
-59591.1
-63836.9
-65884
-76874.2
-88339.8
-95382.2
-92990.9
-84596.4
-57870
-104570
-103011
-110007
-111648
-133669
-152825
-167011
-162228
-152132
-113812
-146076
-151030
-162296
-169328
-204487
-234640
-260782
-252152
-240559
-182803
-163376
-182321
-199615
-220227
-274047
-321982
-367845
-355765
-344030
-258441
-145146
-181480
-205524
-241907
-315034
-383183
-449875
-431378
-415467
-296233
-63907.2
-111079
-138259
-184824
-268461
-349903
-428129
-398875
-370117
-221673
41677
-5415.12
-30138.4
-77355
-159007
-243465
-321968
-280523
-229425
-63681.3
84576.2
43461.9
24285.4
-17300.4
-90032.2
-170977
-244419
-196997
-124417
44466.7
115793
83701.1
69302.8
33328
-31205.7
-108027
-174326
-127622
-37240.9
125499
186676
169522
157609
125152
65129.4
-9806.82
-67419.1
-25713.3
76568
224179
273357
272829
263883
239181
187218
116143
67082.2
97962.5
207862
330750
262244
272395
269648
264596
234799
185510
156703
187208
305802
396493
106628
126174
124920
140779
138224
129496
139719
192405
327893
382542
-30541
-6002.29
-13841
10050.8
17823.4
39412.3
73269.4
151122
301565
308056
-72810.3
-44828.3
-55061.5
-30776.5
-21309.2
16258.4
53466.5
155558
295135
265248
20908.9
52382.6
36519.1
47069.7
47546.9
76598.2
102277
210223
317779
269657
110428
141547
117586
109107
102748
108036
126158
171021
308028
279185
140731
171248
140052
121235
119981
112311
122496
63204
264990
298782
138221
176315
137638
121972
127238
123805
125220
-6355.59
246636
309991
123064
176598
120035
120257
116625
131704
124008
-38063.5
235862
259810
123300
193336
90525.4
104131
82147.7
120388
115554
-26674.6
230288
193759
135664
229058
59742.5
79608.4
42266.7
96830.3
100817
36405.1
236884
149025
124702
254736
36931
51362
4889.5
64903.6
75359.8
97432.4
245475
117144
40903.6
210875
-7760.69
-225.244
-45827.3
18452.7
34981
108350
226833
79991.9
-49831.9
142162
-48508.6
-46367
-89990.4
-23180.2
-3570.44
86959.7
181208
41966
-95149.8
101167
-54850.4
-54682.3
-97093
-30328.4
-10235.9
77826.2
148895
28842
-86591.7
101777
-25744.8
-26180.4
-70359.8
-8773.77
10296.1
84368.6
135964
38255.3
-37989.7
137455
30470.2
31719.8
-11285.8
42506
62252.8
119739
153787
76988.9
34440
199310
107172
115065
79330.2
126136
153446
202521
225985
169668
74560.8
234065
152226
168926
138657
171713
202316
241252
250768
212867
82537.8
235153
155741
176281
151498
174046
209404
245208
241463
215474
89445.7
236325
158217
183433
164546
180346
215321
252402
245497
215417
116908
263430
185791
221107
199805
209715
229487
259737
255859
209653
161846
310017
226377
269071
238797
242840
242738
264749
265591
201632
178651
330320
235329
279590
234808
252525
234716
251754
253358
182114
166177
326374
224955
268288
212081
243444
220447
242379
237200
169775
165862
339672
237837
280456
226625
266679
239971
272774
246688
194008
157029
343303
245083
285201
239969
278314
256810
296052
253721
220670
124888
317157
227540
264066
232624
264500
253104
297027
248332
237637
70694.9
260311
180071
213977
195787
221879
221181
270088
219209
228383
-3190.21
178996
105424
141295
131941
156555
164259
216482
172817
179794
-51200.1
125853
53404.9
97487.4
94356.2
122025
145233
197757
189467
154184
-108614
68027.8
-7021.3
45518.7
49213.8
74043.8
126511
154974
214016
101079
-117538
64619.3
-18885.6
39210.8
51534.5
70178.4
164730
166964
284657
125033
-173447
15875.1
-69429.8
-11983.8
4467.94
12259.2
121603
95748.7
221768
52803.7
-59081.3
124170
15165.9
64092.5
78579.7
91257.3
204603
182937
307352
166185
-210409
-55653.6
-92653.8
-83511.2
-82505.4
-102027
-52153.8
-75701.1
-47586
-129717
22746
7005.87
13534.4
14808.8
19029.7
23099.5
25653.3
31761.3
17828.7
39120.1
-80691.8
-43423.9
-50861.5
-23889.4
-6063.76
11641.7
21845.9
55764.3
28808.5
55073.7
-44130.8
-22922.5
-44849.7
-13139.9
-6943.92
6040.31
4555.99
39326.3
10325.3
20416.9
-20668.8
-9905.42
-26255.9
2146.52
915.534
13913.4
8107.29
44658.3
21417.7
30545.1
10741.1
10492.5
-1186.05
12676.2
4416.32
15194.2
5701.02
37902.3
19257.1
24104.9
74971.2
59397
50202.3
36531.5
16827
13912.2
-6165.96
7825.87
-9221.41
-14651.8
113465
95859.2
108552
85094.4
78505
75004.5
49366.9
62904.6
42104.2
33931.6
56317
51695.9
80054.6
66540.5
82319.2
91175
73456.8
94593.1
73524.2
61952.4
-75668.4
-67714.8
-48228.7
-38489.2
-11765.9
11110.5
12402.1
38846.4
28917.6
14735.1
-123606
-114013
-109660
-90314.6
-72119.9
-50488.3
-41447.6
-20291.4
-22086.5
-38374.4
-63024.6
-59913.7
-60650.9
-48877.4
-47038.4
-38732.8
-36623.1
-29709.5
-33493.4
-52745.7
5096.21
2855.2
4753.17
10891.2
7358.66
7730.9
3523.3
-542.42
-9367.37
-30859.9
36109
31402.7
34589.7
38001.8
39645.3
43984.4
44518.8
40922
32677.8
10660.3
63644.6
59606.7
63851.3
65890.6
76863.4
88123.6
95176.1
92590.9
84577.2
57931.2
104628
103033
110045
111667
133649
152517
166662
161778
152169
113952
146317
151278
162534
169376
204438
234150
260140
251578
240676
183068
163854
182847
200078
220318
273907
321151
366646
354913
344229
258873
145726
182240
206157
242023
314691
381768
447698
429931
415675
296823
64477.5
112009
138964
184898
267765
347603
424437
396344
370227
222374
-41113.6
6497.73
30875
77396.7
157972
240223
316485
276557
229593
64593
-83960.2
-42196.4
-23463.2
17427.9
88876.7
167094
237392
191553
125029
-43108.4
-115180
-82340.1
-68456.8
-33132.6
30012.7
103781
166428
120887
38407.5
-123740
-186188
-168224
-156861
-124960
-66332.8
5413.82
59752.9
18310.2
-74954.8
-222229
-273100
-271752
-263284
-238964
-188289
-120495
-73511.4
-105333
-205918
-328820
-262223
-271856
-269175
-264188
-235382
-189504
-161480
-194511
-303578
-394824
-106615
-126159
-124725
-140119
-137994
-132741
-142967
-200166
-325332
-381624
30555.5
6014.83
13854.9
-9225.99
-16816
-41668.5
-75535.6
-159790
-298345
-307990
72825.9
44842.1
55076.1
31607.5
22848.3
-17727.7
-55384.1
-164578
-291488
-265217
-20896.8
-52369.7
-36465
-46280.9
-45505.2
-77991
-103973
-218343
-314422
-269705
-110423
-141540
-117578
-108450
-100242
-110164
-127023
-178618
-305999
-279629
-140731
-171249
-140048
-120780
-117142
-114254
-122020
-73104.8
-266795
-299724
-138228
-176326
-137637
-121740
-123841
-123457
-123582
-9112
-248707
-310884
-123114
-176648
-120038
-120249
-112788
-127472
-120620
17058.6
-236951
-260305
-123524
-193545
-90544.8
-104127
-79090.8
-111720
-109139
3329.67
-230671
-193895
-136115
-229573
-59795.3
-79605.9
-39898.9
-86532.4
-90254.5
-56445.9
-236891
-148952
-125163
-255419
-37008.8
-51359.1
-3199.98
-55309.4
-64036.9
-106056
-245291
-116976
-41182.7
-211433
7695.26
231.311
46758.3
-10879.4
-25272
-106490
-226585
-79792.4
49742.8
-142469
48485.1
46377.5
90205.2
28620.9
11213.5
-81497.8
-180928
-41758.3
95169.9
-101253
54871.7
54694.9
96450
33972.8
16276.3
-70154.3
-148557
-28631.6
86651.5
-101713
25799.3
26192.7
68579.5
11019.5
-5193.81
-76186.2
-135584
-38045.1
38053
-137303
-30393.5
-31707.3
8310.26
-41325.5
-57595.7
-112690
-153386
-76779.1
-34386.9
-199110
-107078
-115044
-83150.1
-125734
-148858
-197542
-225580
-169462
-74517.6
-233844
-152121
-168888
-142221
-171796
-197549
-238345
-250361
-212655
-82500
-234925
-155632
-176233
-153974
-174248
-204556
-244120
-241041
-215243
-89409.2
-236098
-158113
-183392
-165403
-180582
-210542
-251703
-245089
-215164
-116871
-263204
-185696
-221061
-199836
-209937
-225047
-257698
-255509
-209391
-161807
-309789
-226295
-269015
-238804
-243025
-238911
-262283
-265310
-201376
-178608
-330081
-235250
-279523
-234796
-252531
-231726
-249636
-253114
-181876
-166104
-326126
-224848
-268207
-212054
-243447
-218568
-241316
-236981
-169559
-165764
-339416
-237666
-280334
-226591
-266680
-239517
-272750
-246484
-193822
-156916
-343036
-244840
-285028
-239927
-278340
-256799
-296053
-253547
-220531
-124768
-316870
-227242
-263879
-232578
-264588
-253147
-297058
-248212
-237564
-70570.4
-259990
-179722
-213804
-195736
-222090
-221381
-270163
-219184
-228373
3321.38
-178636
-105013
-141129
-131887
-157002
-164773
-216612
-172950
-179801
51334.7
-125470
-52930.9
-97324.2
-94345.7
-122943
-146308
-198024
-189782
-154149
108734
-67667.3
7522.79
-45383.8
-49340.1
-75641.9
-128292
-155581
-214430
-100974
117623
-64334.7
19362
-39112.1
-51826.6
-72281.3
-166900
-167778
-284925
-124876
173502
-15694.3
69837.9
12084.4
-4808.65
-14206.2
-123412
-96338.6
-221786
-52647.3
59103.3
-124107
-14853.4
-63948.4
-78807
-92529.9
-205642
-183069
-307130
-166018
210460
55713
92866
83698.2
82462.8
101520
51803.7
75754.6
47778
129794
)
;
        value           nonuniform List<scalar> 
1200
(
31252.1
24184.3
25357.9
25349.2
25389
25364.6
25277.8
25264
24065.7
31180.3
28474.1
24821.9
26686.3
25921.8
25856.7
25768.3
25652.8
26182.6
24402.9
27754.8
26891.9
24864
26826.5
25766.5
25952.9
25899.7
25632.7
26407.2
24686.5
26531.4
26312.2
24973.7
26533.3
25441.2
25805.2
25764.4
25364.3
26185.7
24786.4
26034.5
25853.3
24969.8
26152
25217.4
25657.2
25638.3
25202.8
25982.5
24873.4
25770.9
25276.4
24756.5
25623.7
24955.2
25454.3
25504.5
25137
25874.3
25034.9
25712.7
24891.4
24456.5
25131
24569.1
25000.4
25052.5
24724.3
25393
24730.4
25280.3
24976.1
24568.5
25093.1
24525.9
24808.7
24803
24474.5
25022.9
24490
24955.9
25498.7
25151.2
25529.7
25006.1
25132.8
25045
24698.3
25068.7
24631.1
25003.8
25600.2
25314.4
25658.4
25220.1
25304.5
25213.4
24907
25157.1
24811.9
25105.5
25079.3
24858.5
25196.1
24854.8
24987.7
24963.5
24754.5
24984.4
24748
24997.9
24496.2
24349.6
24599.4
24334.6
24480.8
24492.7
24355.1
24591.5
24448.3
24673.7
24088.3
23993.4
24172.5
23961.5
24067.2
24053.4
23921.4
24119.1
24019.3
24222.6
23657.8
23591.1
23724.7
23559.6
23608
23553.2
23417.6
23570.8
23509.3
23712.8
23098.3
23024.7
23156.8
23011.2
23008.1
22902.3
22767.8
22885.4
22880.4
23115
22498.3
22402.8
22514.9
22360.1
22296.2
22105.3
21950.9
22028.8
22095.6
22392
22050.4
21904.6
21955.9
21743.6
21572.5
21242.7
21021.9
21042.9
21196.7
21585
21878
21662.2
21626.5
21333.6
21030.6
20539.3
20233.9
20211.2
20485.2
20995.5
22113.9
21853.2
21749.4
21399.5
20999.5
20395.8
20040.1
20027.3
20454.6
21088.1
22476.1
22216.7
22091.9
21734.4
21306.1
20668.6
20306.1
20360.4
20960.2
21692.2
22459.8
22227
22112.6
21783.7
21370.3
20758.6
20402.1
20529.6
21265.2
22042.8
22317.2
22121.4
22015.6
21712.7
21302.8
20732
20379.4
20566.1
21388
22177
22376
22247.8
22143.2
21855.7
21426.5
20893.3
20558.5
20788.3
21632.3
22399
22495.4
22444
22343.9
22097.2
21687
21217.5
20931.7
21182.2
21987.8
22699.9
21991.4
22026.8
21920.5
21769.1
21488.4
21190.9
21057.4
21401.7
22163.3
22802.1
20651.9
20756
20613.6
20541.9
20452.7
20416.2
20586
21143.2
21903.8
22469.6
19552.7
19672.9
19475.6
19424.3
19438.6
19505.4
19895.7
20615.3
21354.6
21770.8
19089.6
19223.7
19041.2
18997.4
19132.1
19265.8
19794.3
20585.7
21252
21526.4
19469.7
19641.1
19484.2
19405.9
19602.8
19633.1
20230.7
20764.1
21450.7
21549.6
19939.3
20158.9
20059.5
20005.2
20343.2
20415.4
21165.9
21415.5
23076.2
23639.7
19904.4
20149
20030.5
19920
20245.6
20440.2
21325.9
21591.5
23876.1
24713.1
19360.3
19615.9
19326.4
19035.2
18992.1
19094.5
19471.7
19118
20798
20779.8
18531.5
18845.7
18274.7
17872.2
17389.1
17239.8
17125.1
16181.9
17561.5
16684.2
18192.7
18554.5
17367.8
16728.3
15634.8
15387.7
14967.3
13890.6
15374.7
13818.1
17630.1
18088
15834
15041.3
13500.6
13061.4
12644.9
11587
13074.4
11232.7
13046.9
13918.7
11413.5
11329.5
10134.4
9953.93
9820.58
8789.4
10377.9
8550.88
6522.68
7728.3
5510.84
6387.77
5956.34
6390.13
6949.18
6520.59
8488.51
6501.55
931.405
2290.55
410.088
1842.15
1978.26
2806.97
3856.71
3769.62
5960.84
4033.1
-2847.65
-1461.44
-3051.72
-1498.5
-1085.64
-169.348
1055.37
1079.41
3177.15
1448.97
-4950.85
-3634.29
-5022.01
-3637.51
-3207.06
-2430.36
-1257.04
-1283.47
569.716
-950.357
-5916.64
-4718.7
-5975.78
-4882.84
-4593.65
-4019.13
-3003.25
-3136.87
-1580.88
-2887.13
-6292.88
-5213.41
-6393.16
-5612.1
-5498.27
-5086.87
-4200.19
-4415.56
-3122.16
-4203.15
-6570.45
-5554.05
-6666.36
-6097.98
-6195.4
-5964.95
-5269.85
-5596.62
-4662.23
-5495.91
-6710.84
-5739.47
-6803.69
-6391.9
-6707.84
-6656.35
-6237.97
-6650.42
-6325.93
-6772.54
-6463.04
-5526.74
-6541.32
-6224.67
-6805.83
-6790.13
-6589.79
-6999.39
-7191.9
-7349.68
-5634.78
-4685.62
-5656.58
-5272.13
-6121.11
-5997.12
-5996.24
-6349.46
-6611.43
-6829.8
-4246.46
-3256.82
-4173.49
-3647.68
-4633.84
-4387.06
-4515.39
-4754.54
-4757.92
-5301.3
-2617.03
-1539.02
-2483.5
-1783.39
-2832.61
-2297.42
-2598.04
-2676.85
-2537.54
-3186.04
-823.326
386.683
-648.83
258.705
-825.38
64.835
-238.088
-70.9062
-11.3938
-622.645
1476.09
2787.24
1719.41
2657.82
1831.87
3029.02
2873.01
3421.95
3211.18
2701.36
4161.77
5586.73
4525.77
5469.8
4924.18
6224.22
6435.27
7353.56
6910.77
6554.39
6970.91
8488.33
7479.8
8374.78
8141.26
9381.65
9975.28
11178.2
10666.3
10527.3
9627.16
11172.6
10252.5
11041.4
11097.2
12240.8
13182.7
14689.7
14105.4
14295.6
11720.8
13242.2
12422.8
13131
13385.7
14547.5
15754.4
17641.9
16815.3
17353.4
13375.6
14889.1
14134
14889.3
15221.1
16570.3
17917.6
20415.3
19097.4
19809.7
13876.1
15413.5
14661.2
15512.9
15789.1
17157.1
18498.3
21001.9
19991.6
19946.7
13356.4
14954.7
14092.6
14969.4
15055.8
16004.4
17363.4
19019.4
19013.5
18231.7
10769.6
12355.3
11309.5
11936
11610.1
11565.3
12620.7
12686.2
13557.7
12266.9
7446.27
9050.96
7840.35
8381.91
7934.85
7410.78
8554.71
8019.46
9835.93
8765.85
3699.71
5135.51
4302.36
3741.99
2387.1
282.988
-635.692
-2360.8
-2807.68
-3794.66
31479.9
24254.4
25493.4
25497.4
25579.4
25595.7
25534.3
25581.6
24243.9
31571.4
27666.8
24387.5
26177.5
25682.8
25796
25884.8
25871.3
26740.4
24691.2
28305.8
26450.4
24634.6
26377.9
25635.1
25883.5
25960.2
25678.3
26800.6
24789.8
26735.6
26105.1
24874.5
26270.5
25462.6
25814.4
25903.7
25445.6
26632.6
25000.7
26340.1
25960.3
25074.4
26139.8
25344.1
25701.4
25790.4
25260
26362
25066.2
26012.3
26026
25350.4
26125.5
25320.3
25622.3
25643.5
25075.3
25952.9
24942.7
25566.3
26026.3
25415.3
26216.6
25420.1
25785.4
25802.6
25218
26022.5
25151.5
25619.8
25539.5
25085.7
25893.8
25191.5
25632.1
25715.1
25209.3
25969.5
25225.5
25575.7
24741.8
24473.8
25047.1
24621.3
25015.3
25156.6
24822.7
25458
24920.5
25151.4
24363.7
24173.8
24561.4
24316.9
24583.3
24709
24493
24955.2
24591.3
24722
24448.6
24259
24589.3
24365.9
24517.3
24576.6
24388.7
24688.3
24413.3
24470.5
24546.8
24377.8
24646.8
24443.5
24554.4
24570.4
24390.7
24587
24354.6
24365
24449.1
24307.1
24518.3
24341.5
24463.7
24493.8
24367.2
24529.2
24346
24328.9
24293.9
24186.9
24363.1
24218.4
24376.7
24435.1
24370.2
24497.8
24354.9
24291.7
24144.3
24054.8
24257
24127.8
24344.7
24428.5
24435.8
24504.5
24401.9
24253.9
23960.9
23914.9
24139.6
24053.6
24340.9
24448.6
24554.8
24546.5
24501.9
24221.8
23688.1
23731.7
23955.5
23946.5
24312.3
24457.1
24692.8
24595.1
24638.6
24172.5
23334.1
23482.6
23686.6
23753.6
24178.9
24361.7
24718.3
24515.8
24641.7
23962.2
22757.3
22970.8
23137.3
23248.3
23679.3
23878.8
24295.7
23998.9
24156.4
23309.8
22063.3
22278.5
22398.6
22508
22888.4
23079.7
23486.2
23137.5
23254.9
22335
21618.6
21801.5
21875.9
21957.5
22261.9
22439.7
22794.6
22460.3
22513
21607.6
21164
21294.5
21329.1
21380.9
21606.1
21780.7
22063.9
21793.1
21768.4
20934.8
20513.2
20562.3
20573
20605.6
20766.3
20958.7
21175.2
20990.9
20878.2
20171.7
19763.6
19723.5
19709.6
19706.7
19806.7
20023.4
20212.4
20148.4
19923.3
19406.9
19368.6
19306.4
19227.3
19125.7
19135.5
19305.1
19454.2
19476
19121.4
18849.7
19585.5
19494.1
19365.8
19138.9
19071.7
19096.5
19164.1
19162.2
18643
18651
19858.5
19733.1
19614.4
19330.3
19267.7
19094.2
19146.1
19040
18362.7
18691.1
19818.5
19672.7
19592.7
19312
19356.5
19092.9
19245.3
18962.4
18327.9
18874.9
19261.2
19117.7
19119.9
18941.7
19141.9
18857.5
19193.9
18605.5
18298.6
18848.6
18835.2
18743.5
18884.1
18919.6
19333.8
19318.1
19894.6
19658
20013.9
20837
18496.9
18436.1
18630.5
18711.9
19067.6
19300.1
20101.1
20893.5
21228.1
21716.6
17977.2
17851.4
17950.8
17818
17746.8
17855.6
18227.3
19071.2
18331
17677.5
17295.2
17074.7
17075.3
16670.5
16254.7
15952.1
15905.4
16403.7
15199.6
14084.9
16950.3
16612.2
16463.7
15688.5
14839.6
14247.8
13858.6
13971.3
13069.3
11880.7
16270.5
15790.2
15236.2
14246.5
13098.1
12171
11715.6
11064.4
10703.7
9743.64
11804.2
11368.8
11043.1
10816.7
10099.4
9377.36
9152.94
7744.99
7926.53
7382.06
6118.01
5619.65
5588.09
6390.73
6422.24
6262.74
6672.77
5449.7
6225.84
5703.14
1431.63
869.756
895.321
2306.44
2880.16
3080.02
3949.52
2941.75
4154.12
3614.29
-1895.63
-2471.62
-2502.78
-951.143
-119.299
161.927
1202.27
359.199
1693.46
1161.3
-4084.88
-4649.9
-4763.88
-3375.24
-2516.72
-2324.98
-1322.76
-2065.35
-785.267
-1332.2
-5536.91
-6090.82
-6279.42
-5199.56
-4503.22
-4434.68
-3591.79
-4281.14
-3114.68
-3656.28
-6637.6
-7204.12
-7463.72
-6762.42
-6320.69
-6344.98
-5701.25
-6403.93
-5378.59
-5899.3
-7316.3
-7892.42
-8187.49
-7787.02
-7609.24
-7682.63
-7257.93
-7988.78
-7167.17
-7623.51
-7536.3
-8088.89
-8360.18
-8154.59
-8241.56
-8398.26
-8295.79
-9095.44
-8739.52
-8925.27
-7357.42
-7887.98
-8122.67
-8058.85
-8457.59
-8595.34
-8707.04
-9519.66
-9644.73
-9501.31
-6803.69
-7318.1
-7513.76
-7482.51
-8119.56
-8095.72
-8257.58
-8932.31
-9167.46
-8923.9
-5865.01
-6355.84
-6435.89
-6337.35
-7022.42
-6816.69
-6913.86
-7383.98
-7410.78
-7315.68
-4403.59
-4840.58
-4836.42
-4577.46
-5181.55
-4822.32
-4922.29
-5178.73
-5067.97
-5005.2
-2484.85
-2875.74
-2898.1
-2422.11
-2947.48
-2368.79
-2427.85
-2487.17
-2380.22
-2318.62
-182.222
-608.18
-658.887
-145.322
-435.649
363.193
476.805
693.897
746.974
762.622
2591.73
2155.47
2075.06
2619.03
2523.23
3441.9
3866.81
4392.61
4375.63
4348.31
5722.14
5319.09
5205
5735.37
5814.09
6737.19
7443.27
8206.99
8184.09
8150.55
8920.26
8572.1
8453.15
8902.99
9138.97
10022.3
10969.2
11988
11912.1
12011
11752.8
11454.7
11370.5
11719.5
12066.2
12982.2
14108.9
15477.5
15082.1
15556
13887.8
13632.5
13602.1
13916.1
14277.2
15350.3
16460.2
18439.6
17194.2
18270.2
14962.7
14734.4
14733.4
15059.4
15296.3
16416.2
17227.2
19452.5
17844.8
18938.5
14532.3
14308.9
14283.3
14578.8
14540.2
15301.1
15711.7
17347.8
16165
16983.5
12504.9
12196.6
12005.4
12057.1
11566
11440.8
11403
11725.4
11341.3
11739.3
8036.58
7808.59
7688.7
7741.85
7150.13
6497.06
6509.62
6188.7
6766.93
7105.77
5805
5694.91
5229.82
4578.36
3213.83
1302.55
-114.403
-1605.24
-2331.96
-2499.94
)
;
    }
    inlet
    {
        type            fixedFluxPressure;
        gradient        nonuniform List<scalar> 
20
(
-3.55518e-05
-0.000514789
0.000602954
2.36276e-05
0.000214584
0.000276097
5.1739e-05
0.00180603
-0.00264661
-0.000877772
-2.36151e-05
-0.000503077
0.000598517
1.56346e-05
0.000179527
0.000220015
-5.44564e-05
0.00167035
-0.0027515
-0.00116203
)
;
        value           nonuniform List<scalar> 
20
(
31310
24202.1