/*--------------------------------*- C++ -*----------------------------------*\
  =========                 |
  \\      /  F ield         | OpenFOAM: The Open Source CFD Toolbox
   \\    /   O peration     | Website:  https://openfoam.org
    \\  /    A nd           | Version:  8
     \\/     M anipulation  |
\*---------------------------------------------------------------------------*/
FoamFile
{
    version     2.0;
    format      ascii;
    class       surfaceScalarField;
    location    "700";
    object      phi;
}
// * * * * * * * * * * * * * * * * * * * * * * * * * * * * * * * * * * * * * //

dimensions      [1 0 -1 0 0 0 0];

internalField   nonuniform List<scalar> 
2860
(
1.60239
-0.00809932
-0.0654417
1.60411
0.00469186
0.181328
1.60475
0.00478584
0.318593
1.60414
0.00579081
0.382556
1.60305
0.00589604
0.349812
1.60103
0.0054254
0.119068
1.59822
0.00415151
-0.230938
1.59498
0.00374499
-0.404812
1.59329
0.00402348
-0.170604
1.59292
0.00414945
0.213624
1.59251
0.00382566
0.411421
1.59197
0.00352253
0.397421
1.59174
0.00321614
0.286314
1.59186
0.00287791
0.0888102
1.59169
0.00202858
-0.235513
1.59091
0.000760599
-0.687469
1.58992
-0.00024515
-1.19218
1.5891
-0.000872281
-1.63899
1.58897
-0.00137139
-1.83169
1.58963
-0.00174781
-1.69468
1.59025
-0.00193624
-1.42423
1.59027
-0.00174929
-1.05826
1.59012
-0.00137332
-0.474003
1.59186
-0.000684633
0.378693
1.5948
0.000305621
1.20088
1.59648
0.00158199
1.5418
1.59584
0.00318218
1.45464
1.59258
0.00435891
1.23293
1.58873
0.00482331
1.30007
1.5861
0.00417782
1.64705
1.58471
0.00389972
2.09277
1.58268
0.00671179
2.54258
1.58599
0.0151356
3.02077
1.61739
0.0417469
3.88918
1.67556
0.0816709
5.58009
1.71318
0.102412
7.54793
1.70346
0.101055
8.82038
1.65705
0.0884425
9.21605
1.59404
0.0728764
9.0482
1.52898
0.0588326
8.68596
1.46943
0.0478372
8.39905
1.41872
0.0394779
8.35353
1.37764
0.0320531
8.4774
1.3453
0.0250972
8.65848
1.32011
0.0188458
8.88057
1.30105
0.0130009
9.21075
1.28847
0.00680864
9.71558
1.28275
6.88187e-05
10.286
1.28334
-0.00726569
10.8011
1.29007
-0.0144097
11.302
1.30272
-0.0206688
11.7653
1.32094
-0.0256106
12.1192
1.34478
-0.0300297
12.2955
1.37502
-0.0353197
12.2277
1.41214
-0.0416419
12.0096
1.45424
-0.0468134
11.6044
1.4966
-0.0478585
11.176
1.53167
-0.0426632
10.5504
1.55836
-0.0328064
10.316
-0.0243946
9.56097
1.59247
-0.0131714
-0.0211356
1.59253
0.000386118
0.113093
1.5914
0.00104318
0.185849
1.59129
0.00177102
0.21779
1.59182
0.0019156
0.186521
1.59271
6.03151e-05
0.00366696
1.59227
-0.000450041
-0.292416
1.59123
0.000537339
-0.452088
1.59179
0.0014094
-0.241313
1.59376
0.00206942
0.1138
1.59555
0.00238752
0.302103
1.59728
0.00231229
0.295348
1.59938
0.00212
0.199351
1.60189
0.00154049
0.0154038
1.60378
0.000519461
-0.30177
1.60483
-0.000893685
-0.76605
1.60549
-0.00238505
-1.32464
1.60638
-0.00402921
-1.87715
1.60819
-0.00572427
-2.20878
1.61094
-0.00713347
-2.21173
1.61379
-0.00796592
-2.06318
1.61626
-0.00780118
-1.79286
1.6184
-0.00652717
-1.26387
1.62181
-0.00417496
-0.425361
1.62654
-0.000960405
0.414477
1.62995
0.00261818
0.814928
1.63121
0.00687028
0.812356
1.62963
0.0103658
0.689797
1.62745
0.0125406
0.862886
1.62657
0.012195
1.31299
1.62681
0.0126041
1.86358
1.6256
0.0199688
2.44852
1.62757
0.0374004
3.10553
1.65896
0.078788
4.14241
1.73303
0.138576
6.03758
1.81403
0.165491
8.47197
1.86864
0.153425
10.4557
1.89379
0.123089
11.6004
1.89885
0.0903049
12.0751
1.89233
0.0629582
12.1795
1.87933
0.0432404
12.1612
1.86269
0.0302807
12.1951
1.84368
0.0213934
12.2774
1.82258
0.0152527
12.3579
1.79942
0.0111044
12.4548
1.77466
0.00730509
12.6416
1.74975
0.00180717
12.9694
1.72718
-0.00629334
13.3529
1.71044
-0.0172644
13.7223
1.70269
-0.0306921
14.1273
1.70447
-0.0444784
14.5283
1.71368
-0.0562567
14.8221
1.72787
-0.066174
14.9103
1.74709
-0.0767095
14.737
1.77405
-0.0889648
14.4251
1.81102
-0.0993167
14.0253
1.85637
-0.101404
13.7471
1.90278
-0.0904955
13.4864
1.94533
-0.0706511
13.6528
-0.0481847
13.341
1.58299
-0.00362013
-0.039501
1.58379
0.00344
0.118463
1.58458
0.00448147
0.259305
1.58632
0.00443184
0.341656
1.58865
0.00408731
0.345561
1.59039
0.00261016
0.189052
1.59075
0.00215228
-0.149421
1.59064
0.00222454
-0.399047
1.59154
0.00328103
-0.249734
1.59377
0.00420451
0.0917819
1.59612
0.0039276
0.28264
1.59823
0.00348096
0.269838
1.60059
0.00312024
0.163335
1.60301
0.00267437
-0.0346522
1.60493
0.00128506
-0.374987
1.60613
-0.000874242
-0.876077
1.60708
-0.003514
-1.49101
1.60835
-0.00646182
-2.12274
1.61054
-0.00933781
-2.54648
1.61362
-0.0115402
-2.63678
1.61682
-0.0127474
-2.56043
1.61977
-0.0124779
-2.34832
1.6226
-0.0106408
-1.8684
1.6263
-0.0076094
-1.06543
1.63183
-0.00400549
-0.245426
1.63567
4.40249e-05
0.139714
1.63706
0.00483015
0.104677
1.63547
0.00918749
-0.0544131
1.63357
0.0121445
0.0636333
1.63405
0.0107534
0.429218
1.63713
0.00977008
0.865554
1.64072
0.0175162
1.30233
1.64471
0.0363311
1.70948
1.66006
0.0766281
2.13081
1.69896
0.13506
2.7422
1.74838
0.166611
3.58982
1.78825
0.157753
4.36296
1.81021
0.126134
4.84484
1.81601
0.0890059
5.06209
1.81052
0.0565955
5.14441
1.7976
0.0329835
5.22503
1.77904
0.01846
5.41003
1.75528
0.0106718
5.64846
1.72673
0.00820181
5.85933
1.69422
0.00978919
6.07087
1.65921
0.012627
6.37634
1.62388
0.0129655
6.8244
1.59061
0.00696788
7.32924
1.56219
-0.00726656
7.80527
1.54285
-0.0283212
8.31007
1.53543
-0.0525931
8.82246
1.53888
-0.0747509
9.25138
1.54926
-0.0927805
9.48312
1.56418
-0.11007
9.42542
1.58548
-0.130517
9.16721
1.61629
-0.150584
8.72273
1.65722
-0.161283
8.28667
1.70323
-0.153016
7.77574
1.75499
-0.133076
7.61013
-0.0868155
7.22411
1.58904
-0.00172915
-0.0428549
1.59064
0.00168924
0.0310072
1.59179
0.00267241
0.0727241
1.59278
0.00267238
0.0668449
1.59404
0.00222293
0.0281127
1.59529
0.000642271
-0.0847996
1.59539
0.000114188
-0.347601
1.59469
0.000738903
-0.553698
1.59509
0.00207025
-0.434581
1.59692
0.00304304
-0.154136
1.59889
0.00288625
-0.00156475
1.60053
0.00235458
-0.0343075
1.60238
0.00206239
-0.152075
1.60431
0.00178312
-0.356509
1.60595
0.000789678
-0.70308
1.60716
-0.00116162
-1.22852
1.60826
-0.0039562
-1.91253
1.60976
-0.00746654
-2.66654
1.61225
-0.0111172
-3.2485
1.61564
-0.0140796
-3.50166
1.61927
-0.0158064
-3.572
1.62282
-0.0157109
-3.48885
1.62635
-0.0137701
-3.12433
1.6302
-0.0106994
-2.40793
1.63437
-0.00729337
-1.60852
1.63646
-0.00386902
-1.17585
1.63623
0.00113104
-1.1312
1.63425
0.00586039
-1.20715
1.63212
0.00894468
-1.04691
1.63314
0.00448461
-0.701446
1.63834
-0.00140315
-0.322102
1.64438
0.00588264
0.0633451
1.65042
0.0272031
0.457692
1.66166
0.065874
0.840464
1.6859
0.11659
1.22244
1.71709
0.146119
1.59894
1.74522
0.139452
1.85165
1.76478
0.110362
1.93247
1.77549
0.0743321
1.91642
1.77951
0.0415778
1.90701
1.77905
0.0170108
2.00074
1.77498
0.00130526
2.27812
1.76728
-0.00647388
2.65973
1.75525
-0.00640961
3.04461
1.73768
0.000687614
3.45263
1.71414
0.0102829
3.9614
1.68427
0.0181047
4.59794
1.64668
0.0202173
5.24798
1.60119
0.013374
5.84617
1.55246
-0.0070205
6.43941
1.50916
-0.0364709
6.98903
1.47876
-0.0693376
7.43109
1.46498
-0.1025
7.67164
1.4689
-0.137483
7.63255
1.49078
-0.175951
7.43164
1.52826
-0.210542
7.09267
1.57538
-0.228779
6.81078
1.62236
-0.218528
6.46246
1.6661
-0.192876
6.42326
-0.12784
5.98959
1.58911
0.000421533
-0.0546817
1.5892
0.0018025
-0.0361354
1.58982
0.00246317
-0.0144524
1.5905
0.00270385
-0.0175406
1.59159
0.00242277
-0.0320939
1.59314
0.00111885
-0.0857724
1.59371
0.000272656
-0.329976
1.59365
0.000520309
-0.586407
1.59448
0.00160628
-0.551065
1.59639
0.00254855
-0.327814
1.59844
0.00244062
-0.18188
1.60018
0.00176736
-0.204753
1.60202
0.00141793
-0.328639
1.60378
0.00117956
-0.568234
1.60523
0.00041846
-0.984589
1.6064
-0.00123098
-1.62243
1.60765
-0.0038341
-2.48058
1.60961
-0.00732537
-3.47573
1.61279
-0.0111798
-4.34016
1.61705
-0.0144649
-4.87625
1.62172
-0.0164734
-5.20645
1.62633
-0.0164336
-5.35937
1.63039
-0.01433
-5.21346
1.63353
-0.0112373
-4.68028
1.63513
-0.00817633
-3.98037
1.63376
-0.00490969
-3.55068
1.62927
0.000619189
-3.46477
1.6225
0.0055703
-3.48078
1.61536
0.00768069
-3.27509
1.61313
-0.00282298
-2.90889
1.61761
-0.0178136
-2.52224
1.62404
-0.0174662
-2.09453
1.63195
0.00276941
-1.65801
1.64363
0.0373511
-1.28758
1.66378
0.0812304
-0.980595
1.68826
0.110437
-0.749935
1.71088
0.109353
-0.675117
1.72808
0.0887905
-0.76819
1.73971
0.0621298
-0.938887
1.74719
0.037907
-1.09161
1.7523
0.0196083
-1.12285
1.75573
0.00740686
-0.920834
1.75747
0.00150155
-0.543365
1.75612
0.00230263
-0.120367
1.74942
0.00739298
0.338103
1.73823
0.012859
0.899396
1.72424
0.0161559
1.5667
1.70806
0.015482
2.20574
1.69014
0.00706966
2.74679
1.67246
-0.0121594
3.29142
1.65686
-0.0390971
3.87322
1.64537
-0.0698024
4.44885
1.6399
-0.103903
4.92853
1.64274
-0.144738
5.2116
1.65714
-0.193527
5.37131
1.68385
-0.238944
5.41037
1.71919
-0.264554
5.50447
1.75437
-0.254763
5.51405
1.78478
-0.226564
5.76196
-0.149756
5.52196
1.58925
0.00252539
-0.0660958
1.58913
0.00183587
-0.102503
1.58972
0.00201404
-0.121327
1.59029
0.00242765
-0.164673
1.5912
0.00225568
-0.212386
1.59273
0.00129966
-0.256825
1.59341
0.000346303
-0.490176
1.59363
0.000189301
-0.774343
1.59461
0.000914002
-0.810342
1.59646
0.00166899
-0.654533
1.59845
0.00159891
-0.534933
1.60014
0.00103965
-0.559951
1.60184
0.000812604
-0.698516
1.6035
0.000676388
-0.975142
1.60503
0.000169107
-1.45403
1.60648
-0.000820467
-2.19207
1.60815
-0.00233843
-3.21334
1.61064
-0.00447204
-4.4494
1.61452
-0.00698251
-5.61726
1.61964
-0.00933149
-6.48681
1.6254
-0.0108055
-7.1555
1.63116
-0.0103483
-7.64327
1.63629
-0.0076774
-7.82936
1.64034
-0.00423091
-7.61271
1.64309
-0.0015502
-7.15202
1.64461
0.000444096
-6.82753
1.64627
0.00278176
-6.74344
1.65114
0.00366065
-6.71392
1.66447
-0.00127767
-6.51857
1.69252
-0.0254897
-6.28116
1.73189
-0.0564998
-6.01139
1.7698
-0.0634964
-5.63501
1.79767
-0.0460724
-5.12344
1.81679
-0.0100037
-4.52729
1.83265
0.0365626
-3.95707
1.84776
0.0705341
-3.49135
1.86339
0.0746409
-3.20761
1.87853
0.059824
-3.10195
1.89256
0.038776
-3.07582
1.90526
0.0193133
-3.03956
1.91651
0.00506997
-2.90142
1.92556
-0.00371166
-2.56655
1.93113
-0.00615613
-2.12199
1.93212
-0.000517371
-1.66905
1.9276
0.00934244
-1.1958
1.91848
0.0185905
-0.642225
1.90549
0.0242217
0.00128063
1.89003
0.0258272
0.669453
1.87056
0.0210418
1.30766
1.84756
0.00635088
2.00569
1.82275
-0.0188575
2.724
1.79972
-0.0509979
3.38487
1.78243
-0.0904514
3.90827
1.7738
-0.139253
4.24037
1.77658
-0.19707
4.5077
1.79063
-0.248931
4.75055
1.81172
-0.276166
5.15728
1.83135
-0.262472
5.54001
1.84381
-0.229804
6.1768
-0.146087
6.15204
1.58963
0.00408079
-0.0733639
1.59066
-0.000214031
-0.141792
1.59192
-0.000440437
-0.157003
1.59275
0.000147658
-0.183401
1.59353
0.000249961
-0.20298
1.59512
-0.000461423
-0.186616
1.59571
-0.00112425
-0.341547
1.5955
-0.00114076
-0.571623
1.59586
-0.000496914
-0.613046
1.59716
0.000102177
-0.487353
1.59888
-6.08756e-05
-0.376418
1.6005
-0.000732537
-0.390136
1.60208
-0.000950239
-0.531721
1.60349
-0.000658389
-0.831776
1.60461
-0.000136486
-1.35725
1.60556
0.00046366
-2.18245
1.60681
0.00106888
-3.36106
1.60924
0.0015992
-4.83874
1.61369
0.00203654
-6.31705
1.62014
0.00227423
-7.53885
1.62805
0.00199443
-8.57663
1.63694
0.00117392
-9.41123
1.64656
6.43818e-05
-9.87971
1.65713
-0.00163253
-9.87185
1.66914
-0.0043948
-9.52864
1.68335
-0.00761149
-9.19286
1.70107
-0.0102496
-9.03641
1.72377
-0.0150563
-8.92887
1.75322
-0.0281413
-8.65795
1.79368
-0.0658376
-8.26918
1.84421
-0.108874
-7.86072
1.8942
-0.118628
-7.43469
1.93659
-0.0997378
-6.99028
1.9681
-0.0623161
-6.51477
1.98963
-0.0111378
-6.00541
2.00536
0.0308778
-5.56707
2.02025
0.0402965
-5.2716
2.03444
0.0303247
-5.11995
2.04703
0.0137709
-5.02546
2.05746
-0.00192969
-4.91077
2.06525
-0.0130729
-4.68859
2.07015
-0.0186561
-4.25429
2.07167
-0.0177713
-3.7072
2.06869
-0.0089322
-3.14635
2.06049
0.00533476
-2.57275
2.0483
0.0184671
-1.96818
2.03418
0.0266041
-1.33598
2.01871
0.0295532
-0.72737
1.99986
0.027163
-0.160074
1.97729
0.0201793
0.451271
1.95133
0.00733869
1.1166
1.92343
-0.0135263
1.80616
1.89523
-0.044407
2.47193
1.86749
-0.0846065
3.0814
1.8427
-0.131802
3.80204
1.82365
-0.173478
4.72099
1.81098
-0.197717
6.02076
1.80127
-0.191962
7.30195
1.79016
-0.176986
8.69304
-0.110948
9.01943
1.58387
0.0133213
-0.0901754
1.58405
0.00160883
-0.26442
1.58473
0.00150409
-0.388008
1.5859
0.00121626
-0.527975
1.58732
0.000755233
-0.647338
1.58924
0.000231291
-0.673632
1.5905
-0.000451779
-0.871022
1.59149
-0.000899801
-1.16801
1.59297
-0.00077864
-1.2921
1.59491
-0.000448993
-1.23208
1.59688
-0.000472999
-1.14283
1.59864
-0.000802479
-1.14449
1.60028
-0.000862389
-1.27546
1.60189
-0.000631753
-1.5679
1.60353
-0.000180414
-2.07743
1.60529
0.000684848
-2.87131
1.60737
0.00212174
-4.00056
1.61039
0.00423466
-5.39634
1.61492
0.00700472
-6.74381
1.62085
0.0100494
-7.7875
1.62763
0.0125101
-8.63594
1.63463
0.0134423
-9.31303
1.64142
0.0126671
-9.68653
1.64845
0.0105881
-9.67957
1.65707
0.00733652
-9.41123
1.66896
0.0031122
-9.1522
1.68473
-0.00188917
-9.02471
1.70244
-0.0101011
-8.81426
1.72142
-0.026974
-8.32159
1.75109
-0.0729134
-7.76327
1.80014
-0.121023
-7.38601
1.85961
-0.125378
-7.24347
1.92204
-0.101767
-7.30017
1.98079
-0.0653543
-7.4411
2.02681
-0.023687
-7.44652
2.05625
0.00536816
-7.15377
2.07728
0.0109904
-6.75841
2.09106
0.00137231
-6.39093
2.09724
-0.01124
-5.96766
2.09751
-0.0204784
-5.49914
2.09405
-0.0245037
-4.96403
2.08918
-0.0241057
-4.27738
2.08408
-0.0185065
-3.56622
2.07756
-0.00552802
-2.93741
2.06712
0.0118456
-2.30906
2.05369
0.0264462
-1.66189
2.03932
0.034603
-1.00491
2.02282
0.0393242
-0.382306
2.00003
0.0454536
0.220577
1.97035
0.0528434
0.919467
1.93395
0.0573302
1.71779
1.89118
0.0548338
2.58719
1.84205
0.0430554
3.49172
1.78566
0.0219837
4.3934
1.72833
-0.00765693
5.50025
1.68387
-0.0476811
6.94861
1.65977
-0.0914488
8.85163
1.6503
-0.117506
10.5391
1.63999
-0.130327
12.1156
-0.0811561
12.3481
1.59307
0.00818613
-0.0513872
1.59208
-0.0031266
-0.141787
1.59128
-0.00325195
-0.175979
1.59078
-0.00395705
-0.244109
1.59047
-0.00402034
-0.306041
1.59153
-0.00405274
-0.2804
1.59195
-0.00377253
-0.413019
1.59188
-0.00326925
-0.643693
1.59228
-0.00270144
-0.735945
1.59339
-0.00225104
-0.669165
1.59494
-0.00206602
-0.566568
1.59659
-0.0020052
-0.538831
1.59818
-0.00175498
-0.641459
1.59961
-0.00132287
-0.904967
1.60081
-0.000782216
-1.37773
1.60183
-0.000118373
-2.12422
1.60301
0.000755125
-3.1912
1.60513
0.00183369
-4.4807
1.6088
0.00306997
-5.62744
1.61363
0.00428529
-6.32746
1.61872
0.00519952
-6.69073
1.62342
0.00536914
-6.7783
1.62729
0.00463262
-6.51411
1.63017
0.00303869
-5.8485
1.63215
0.000357345
-4.88325
1.63297
-0.00294253
-3.83532
1.63171
-0.00788816
-2.84389
1.62796
-0.0155109
-1.86068
1.61742
-0.0267406
-0.793885
1.61824
-0.0657605
0.386966
1.6434
-0.104854
1.81574
1.6739
-0.0949966
3.4009
1.70359
-0.0679144
4.94749
1.73191
-0.0445425
6.2835
1.75535
-0.0303723
7.2471
1.77194
-0.0247108
7.78434
1.78336
-0.026961
8.13037
1.78674
-0.0358758
8.39294
1.7803
-0.044914
8.51634
1.76501
-0.0501621
8.55027
1.74385
-0.0514851
8.58712
1.72106
-0.0504302
8.79051
1.69934
-0.0467935
9.02427
1.68028
-0.039681
9.15419
1.66455
-0.0277624
9.1475
1.65019
-0.0118132
9.08562
1.63413
0.0033278
9.0598
1.6153
0.0134544
9.02872
1.59539
0.0210903
8.95028
1.57813
0.0277109
8.9153
1.56703
0.031676
8.97683
1.56393
0.0314608
9.18541
1.56987
0.0278889
9.59855
1.58605
0.022675
10.3415
1.60638
0.0143776
11.6841
1.61263
-0.00051812
13.4037
1.58725
-0.0265829
15.1794
1.5341
-0.0484423
16.2538
1.46097
-0.0637899
17.0627
-0.0457666
16.5104
1.60388
-0.111635
1.60414
-0.2805
1.60485
-0.344209
1.60377
-0.438009
1.60183
-0.512387
1.60055
-0.468156
1.59865
-0.573012
1.59647
-0.765028
1.59471
-0.810857
1.59353
-0.691459
1.59272
-0.527198
1.59209
-0.430927
1.59147
-0.463579
1.59091
-0.643082
1.59041
-0.996309
1.59
-1.56315
1.58973
-2.36344
1.58999
-3.27874
1.59117
-3.95696
1.59308
-4.1358
1.59499
-3.97447
1.59637
-3.5637
1.59704
-2.85334
1.59718
-1.82118
1.59769
-0.591536
1.59779
0.599515
1.59489
1.57298
1.58564
2.42669
1.58164
3.40223
1.6278
5.28145
1.71411
8.82362
1.77464
12.4536
1.79007
14.7992
1.77518
15.9101
1.74425
16.2669
1.70443
16.2269
1.65659
15.9607
1.59768
15.5383
1.52853
15.0502
1.45337
14.5717
1.37635
14.2048
1.30103
14.168
1.22919
14.2861
1.16235
14.3648
1.10469
14.3742
1.0614
14.3191
1.0333
14.2211
1.0171
14.0516
1.01079
13.8713
1.01481
13.8941
1.02886
14.2025
1.05116
14.8348
1.07757
15.6682
1.10113
16.3741
1.11236
16.8742
1.10158
16.9461
1.05941
16.9347
0.995035
16.5721
0.914026
16.7135
15.6295
1.60469
-0.00790641
1.60422
0.00350238
1.60462
0.00302372
1.60334
0.0039351
1.60114
0.00446755
1.59917
0.00544133
1.59842
0.00509288
1.59779
0.00434561
1.5959
0.0035652
1.59346
0.00275706
1.59174
0.00217265
1.59077
0.00189217
1.59007
0.00175296
1.58963
0.00154889
1.58951
0.00107879
1.58962
0.000379077
1.58983
-0.000552914
1.59035
-0.00156097
1.59095
-0.00240506
1.59122
-0.0028604
1.59167
-0.00284051
1.59244
-0.002245
1.59304
-0.00111529
1.59293
-6.04967e-05
1.59321
0.00039274
1.5941
0.00174349
1.59442
0.00383945
1.59355
0.00577824
1.59068
0.00650685
1.58792
0.00507405
1.5863
0.00354296
1.58431
0.00545918
1.58587
0.0128371
1.61213
0.0359186
1.66891
0.0747908
1.711
0.0986293
1.70784
0.100604
1.66614
0.0898553
1.6051
0.0749479
1.53999
0.0608857
1.47925
0.0496011
1.42664
0.0410009
1.38352
0.0334846
1.34939
0.0263706
1.32271
0.0199151
1.30239
0.0138813
1.28863
0.00750998
1.28195
0.000572509
1.28187
-0.00689563
1.28795
-0.0140083
1.30006
-0.0203606
1.31792
-0.025535
1.34158
-0.0301645
1.37174
-0.0355286
1.40887
-0.0418903
1.45133
-0.0472528
1.4945
-0.0487068
1.53136
-0.0438502
1.5586
-0.0346771
-0.0264713
1.59369
-0.0133375
1.59266
-0.00178725
1.59139
-0.00180754
1.59068
-0.00135891
1.59
-0.000453662
1.59059
0.00036621
1.59191
0.00118149
1.59354
0.00097103
1.59435
-0.000100729
1.59454
-0.00114947
1.59504
-0.00116251
1.5962
-0.0010636
1.5975
-0.000906448
1.59911
-0.00119622
1.60084
-0.00166232
1.60267
-0.00284021
1.60462
-0.00471237
1.60705
-0.00701745
1.60979
-0.00914425
1.61236
-0.0105585
1.61516
-0.0110207
1.61835
-0.0103966
1.6216
-0.00885322
1.62374
-0.00647502
1.62515
-0.00236581
1.62709
0.00268342
1.62894
0.00796354
1.6301
0.012652
1.6292
0.0151056
1.62841
0.0132957
1.62863
0.0112981
1.62768
0.0164939
1.62836
0.0317003
1.65433
0.0680519
1.72417
0.126751
1.80541
0.158468
1.86307
0.151904
1.89114
0.125101
1.89808
0.0937571
1.89264
0.066497
1.88033
0.0462718
1.86403
0.0327975
1.84518
0.0236135
1.82423
0.0171244
1.80119
0.0126637
1.77648
0.00868305
1.7514
0.00298865
1.7283
-0.00526748
1.71063
-0.016017
1.7016
-0.029247
1.70214
-0.0431231
1.71049
-0.0552553
1.72423
-0.0655074
1.74313
-0.0761366
1.76964
-0.0884258
1.80616
-0.0991872
1.85137
-0.102304
1.89863
-0.0924771
1.94165
-0.0741433
-0.0506516
1.58459
-0.00401398
1.5845
0.000388939
1.58488
0.000520697
1.58591
0.000172602
1.58706
0.000695623
1.58784
0.00244487
1.58987
0.003314
1.59274
0.00220516
1.5943
0.000739671
1.59477
-0.000203165
1.59577
-0.000389605
1.59725
-0.000301938
1.59874
-0.000212262
1.60024
-0.000629784
1.60202
-0.00195394
1.60399
-0.00428588
1.60619
-0.00751661
1.60895
-0.0110419
1.61202
-0.0141171
1.61494
-0.016082
1.61808
-0.0166797
1.62155
-0.0157727
1.62503
-0.0136109
1.6277
-0.0103824
1.62916
-0.00542825
1.63027
0.00169683
1.63132
0.00915572
1.63256
0.0151659
1.6324
0.0175844
1.63376
0.013284
1.6374
0.00958927
1.64126
0.0160828
1.64488
0.0343742
1.65813
0.0718189
1.69514
0.12801
1.7439
0.160993
1.78525
0.155313
1.80983
0.126356
1.81809
0.0907293
1.81444
0.0587705
1.80282
0.0350518
1.78495
0.0205213
1.76156
0.0127633
1.73329
0.0100431
1.70078
0.0114534
1.6653
0.0142065
1.62899
0.0145476
1.59457
0.00883519
1.56477
-0.00513164
1.54347
-0.0255718
1.53386
-0.0497925
1.5355
-0.0725555
1.54486
-0.0912741
1.55935
-0.108748
1.58031
-0.129032
1.61078
-0.149377
1.65143
-0.161214
1.69778
-0.154344
1.74822
-0.136147
-0.0905535
1.59009
-0.00225649
1.59097
-0.00157122
1.59191
-0.00161372
1.59262
-0.00181452
1.59319
-0.0014188
1.59358
0.000164814
1.59491
0.00138274
1.59649
0.000887387
1.59735
-0.000453777
1.59771
-0.00145751
1.59833
-0.00150955
1.59948
-0.00100556
1.60068
-0.000814882
1.60208
-0.0013656
1.60365
-0.00291799
1.60542
-0.00543788
1.60749
-0.00893118
1.61026
-0.0129321
1.61352
-0.0165815
1.61679
-0.0190783
1.62034
-0.0200447
1.62423
-0.0192567
1.62807
-0.0169865
1.63107
-0.0137105
1.63275
-0.00913758
1.63342
-0.00294347
1.63373
0.00447902
1.63365
0.010699
1.63251
0.013784
1.63348
0.00822349
1.6386
0.00224146
1.64482
0.0099233
1.65056
0.0307923
1.66089
0.0678982
1.68446
0.116953
1.71504
0.146403
1.7435
0.141055
1.76446
0.113105
1.77692
0.0774504
1.78257
0.0443015
1.78342
0.0192045
1.77971
0.00337556
1.77185
-0.00437645
1.75989
-0.00408685
1.74259
0.00382995
1.71925
0.013482
1.68954
0.0205952
1.65253
0.0223259
1.60778
0.0162092
1.55884
-0.00302066
1.51434
-0.0319014
1.48221
-0.0650944
1.46672
-0.0989195
1.46916
-0.134149
1.48971
-0.172446
1.52637
-0.207462
1.57332
-0.227238
1.6211
-0.219094
1.66442
-0.195506
-0.132092
1.58985
-0.000119619
1.58968
-0.00124315
1.59014
-0.00159649
1.59073
-0.00167312
1.59134
-0.00147628
1.5915
-0.000130143
1.59291
0.000976902
1.59498
0.000583533
1.59644
-0.00071196
1.59725
-0.00160726
1.59804
-0.00149231
1.59921
-0.000854757
1.60037
-0.000732878
1.60163
-0.00134202
1.60304
-0.00278196
1.60471
-0.00513197
1.60688
-0.00844507
1.60999
-0.0123473
1.61388
-0.0160978
1.61809
-0.0188879
1.62269
-0.0201595
1.62745
-0.0193698
1.63154
-0.0167137
1.63391
-0.0132083
1.6339
-0.00914949
1.63151
-0.00372333
1.62705
0.00358263
1.62072
0.00946861
1.61369
0.0108734
1.61133
-0.00169456
1.61543
-0.0163754
1.62165
-0.0136365
1.62941
0.00916201
1.64135
0.0469618
1.66136
0.0922092
1.68544
0.119852
1.70796
0.116901
1.72565
0.0948443
1.73793
0.0669225
1.74616
0.0416861
1.75212
0.0229151
1.75587
0.0111292
1.75767
0.00587632
1.75731
0.00777138
1.75207
0.0129068
1.74144
0.0177029
1.72678
0.0204266
1.70985
0.0189394
1.69158
0.0102276
1.67343
-0.00872979
1.65736
-0.0357648
1.64544
-0.0669214
1.63967
-0.101208
1.64222
-0.141592
1.65611
-0.189888
1.68248
-0.236019
1.71793
-0.263435
1.75396
-0.255699
1.78455
-0.229029
-0.153848
1.58967
0.00212303
1.58956
-0.0006634
1.5899
-0.00119158
1.59052
-0.00119079
1.5913
-0.00120958
1.59145
-0.000123043
1.59266
0.000727204
1.59464
0.000474345
1.59621
-0.000544656
1.59725
-0.001246
1.59817
-0.00103428
1.5993
-0.000306763
1.60045
-8.97694e-05
1.60173
-0.000490121
1.60322
-0.00145542
1.60504
-0.00296571
1.60745
-0.0050556
1.61096
-0.00746939
1.61549
-0.00982142
1.62062
-0.0117464
1.62634
-0.0127056
1.63218
-0.0116887
1.63729
-0.00848292
1.6409
-0.00463369
1.64285
-0.00130478
1.64407
0.00204675
1.64636
0.00548965
1.65252
0.00669294
1.66784
0.000760613
1.69809
-0.026144
1.73855
-0.056912
1.77609
-0.0620263
1.80275
-0.042572
1.82076
-0.00369689
1.83568
0.0452342
1.85023
0.0776141
1.86565
0.0793178
1.88098
0.0630755
1.89528
0.041299
1.90829
0.0217338
1.91969
0.00783179
1.92815
5.86147e-05
1.93277
-0.00128319
1.93305
0.00569459
1.92837
0.0162056
1.91945
0.0249396
1.90635
0.0298973
1.89108
0.029828
1.87267
0.024291
1.85068
0.00969742
1.82654
-0.015379
1.8035
-0.0474912
1.78548
-0.086471
1.77567
-0.13419
1.77705
-0.190567
1.79025
-0.242692
1.81142
-0.272604
1.83187
-0.262915
1.84532
-0.233236
-0.150869
1.58992
0.00377549
1.59128
-0.00222529
1.59227
-0.00284577
1.59323
-0.0027563
1.59411
-0.00274027
1.59418
-0.00193245
1.59495
-0.000979977
1.59626
-0.000623452
1.59727
-0.00105502
1.59799
-0.0014186
1.5987
-0.0011055
1.59956
-0.000372261
1.60043
8.29571e-05
1.60135
0.000428577
1.60242
0.000824492
1.60379
0.00117103
1.6059
0.00140222
1.60946
0.00175547
1.61464
0.00233472
1.62119
0.00287767
1.62915
0.00278089
1.63821
0.00202997
1.648
0.000957263
1.65859
-0.000789192
1.67054
-0.00335776
1.68506
-0.005786
1.70378
-0.00772723
1.72786
-0.0125609
1.75904
-0.0276708
1.80139
-0.0696976
1.85277
-0.11273
1.90262
-0.120383
1.94384
-0.099656
1.97335
-0.0591679
1.99287
-0.0042876
2.00757
0.0359782
2.02187
0.0428258
2.03577
0.0311114
2.0481
0.0135313
2.05825
-0.00251029
2.06575
-0.0135345
2.06991
-0.0184894
2.0704
-0.0168202
2.06647
-0.00643602
2.05772
0.00875204
2.04519
0.0217307
2.03055
0.0290807
2.01483
0.0315179
1.99759
0.0294966
1.97764
0.0220538
1.95441
0.00872036
1.92802
-0.0117477
1.90015
-0.0416983
1.8722
-0.0812452
1.84691
-0.129001
1.82753
-0.17224
1.81495
-0.198019
1.80534
-0.193495
1.7948
-0.179248
-0.114007
1.58362
0.0134507
1.58427
0.000529798
1.58472
0.000216488
1.58621
-0.000520086
1.588
-0.00107514
1.58864
-0.000538162
1.58996
-0.000178734
1.59212
-0.000227553
1.59412
-0.000589157
1.59566
-0.000708989
1.59687
-0.00027522
1.59803
0.000456715
1.59921
0.000897712
1.60053
0.00123502
1.60209
0.00178375
1.60405
0.00274032
1.60676
0.0041889
1.61073
0.00644856
1.61589
0.0095791
1.62186
0.0131288
1.62862
0.0158694
1.6357
0.016832
1.64254
0.0159576
1.64951
0.0137831
1.65811
0.0106089
1.6704
0.00680975
1.68714
0.00224099
1.7057
-0.00641159
1.7259
-0.0249103
1.75818
-0.0698113
1.80959
-0.115541
1.87096
-0.118736
1.93423
-0.0956096
1.99172
-0.0599369
2.0342
-0.0188989
2.06076
0.0081516
2.07959
0.0119085
2.09171
0.00115477
2.09655
-0.0122633
2.0959
-0.0220145
2.0919
-0.0263211
2.0863
-0.0257888
2.08043
-0.0199747
2.07315
-0.00661512
2.06216
0.0109357
2.04843
0.02553
2.03371
0.0335968
2.01819
0.0377639
1.99916
0.0428366
1.97399
0.0496239
1.94137
0.0544646
1.90076
0.0529943
1.85277
0.0428009
1.79728
0.0239261
1.74005
-0.00243811
1.69397
-0.0404746
1.66729
-0.0848647
1.65511
-0.113737
1.64397
-0.129691
-0.0821875
1.59291
0.00843925
1.59247
-0.00361277
1.59125
-0.00397034
1.59102
-0.00487709
1.5912
-0.00499254
1.59078
-0.00444486
1.59118
-0.00356843
1.59232
-0.00280036
1.5934
-0.00242839
1.59431
-0.00214572
1.5951
-0.00168444
1.59589
-0.0010621
1.59677
-0.000544206
1.59772
-4.02137e-05
1.59879
0.000566126
1.60011
0.00128982
1.60214
0.00219903
1.60549
0.00337817
1.60996
0.0047992
1.61478
0.0062807
1.61974
0.00727684
1.62446
0.007391
1.62829
0.00656989
1.63086
0.00491347
1.63219
0.00206991
1.63227
-0.00223927
1.63082
-0.00808224
1.62684
-0.016361
1.61633
-0.028442
1.6153
-0.0642063
1.64121
-0.100114
1.67119
-0.091299
1.70046
-0.0659855
1.72901
-0.0435221
1.75375
-0.0298137
1.77087
-0.0247777
1.78308
-0.0264108
1.78764
-0.0345816
1.78243
-0.0435985
1.76812
-0.0491598
1.74754
-0.0508545
1.72451
-0.0500078
1.70226
-0.0465929
1.68263
-0.0400605
1.66618
-0.0290413
1.65155
-0.0134505
1.63564
0.00218742
1.61703
0.0127161
1.59709
0.0204188
1.57926
0.0271559
1.56712
0.0314984
1.56272
0.0318633
1.56745
0.0287395
1.58286
0.0235777
1.60369
0.0150499
1.61235
0.000735016
1.59027
-0.024611
1.53929
-0.0466787
1.46804
-0.0631343
-0.0458128
1.60354
1.60516
1.60531
1.60441
1.60293
1.60027
1.59837
1.59721
1.59596
1.59448
1.59288
1.59137
1.59014
1.58923
1.5887
1.58864
1.58927
1.59081
1.59284
1.59462
1.5963
1.59776
1.59858
1.59856
1.59775
1.59675
1.5944
1.58681
1.58032
1.62029
1.70535
1.7695
1.78921
1.7772
1.74794
1.70873
1.66176
1.60403
1.53583
1.46107
1.38394
1.30794
1.23523
1.16738
1.10827
1.06338
1.03406
1.01712
1.01017
1.01344
1.02684
1.04865
1.07494
1.099
1.11153
1.10307
1.06383
1.00112
0.921435
)
;

boundaryField
{
    wall
    {
        type            calculated;
        value           nonuniform List<scalar> 
1200
(
0.0627734
0.0253571
0.0385699
0.0435409
0.0550413
0.0663657
0.07379
0.0886859
0.0550678
0.107565
-0.187746
-0.108856
-0.122323
-0.0308521
0.0359373
0.102593
0.142822
0.262421
0.14752
0.277116
-0.324023
-0.180991
-0.263533
-0.0720765
0.0140313
0.121188
0.158203
0.385385
0.181544
0.340254
-0.387735
-0.213663
-0.346072
-0.06608
0.0168312
0.164372
0.184847
0.525747
0.249783
0.435132
-0.354619
-0.183063
-0.350059
-0.0275078
0.0307974
0.211641
0.2042
0.645405
0.31112
0.510284
-0.122479
0.000807952
-0.193335
0.0855186
0.0837437
0.255108
0.186778
0.671008
0.283612
0.465384
0.229603
0.297454
0.146446
0.349539
0.329249
0.489419
0.342437
0.869102
0.415934
0.571152
0.404312
0.456339
0.39748
0.555892
0.586701
0.774467
0.573171
1.16679
0.646139
0.763944
0.168265
0.243365
0.24696
0.4354
0.550714
0.810068
0.614108
1.29091
0.737466
0.809905
-0.217402
-0.113697
-0.0961539
0.153459
0.326398
0.653567
0.487622
1.2307
0.669856
0.690397
-0.414843
-0.302446
-0.286524
0.00063157
0.180262
0.53378
0.376347
1.14126
0.566621
0.525945
-0.400397
-0.295867
-0.273118
0.0337797
0.203582
0.558971
0.390274
1.14279
0.538384
0.429566
-0.289306
-0.200359
-0.166707
0.151258
0.327437
0.697426
0.531909
1.27375
0.640778
0.462444
-0.0918067
-0.0165707
0.0310921
0.355464
0.567084
0.973987
0.83171
1.56626
0.904232
0.642322
0.233656
0.301377
0.372298
0.70194
0.983518
1.45275
1.35643
2.07583
1.37713
0.99602
0.687482
0.766656
0.874852
1.2276
1.62133
2.19021
2.18022
2.86935
2.12401
1.56345
1.19341
1.32614
1.49119
1.91188
2.4792
3.21017
3.35641
3.99743
3.1914
2.36446
1.64069
1.87939
2.12392
2.66603
3.47365
4.44406
4.83023
5.39068
4.48098
3.28033
1.8332
2.21133
2.54789
3.2478
4.33703
5.60919
6.30357
6.73433
5.62771
3.95885
1.69577
2.21436
2.63809
3.50081
4.87238
6.47656
7.52079
7.77379
6.3284
4.13818
1.42555
2.06636
2.56202
3.57143
5.20245
7.14407
8.55591
8.61863
6.69294
3.97777
1.05998
1.79644
2.35005
3.48852
5.35549
7.63141
9.39083
9.29376
6.78168
3.56767
0.475528
1.26687
1.86968
3.12395
5.20996
7.81758
9.86234
9.66714
6.51828
2.85729
-0.379752
0.425451
1.06518
2.40716
4.67767
7.60165
9.85868
9.66033
5.85316
1.82409
-1.20412
-0.417934
0.242952
1.60762
3.97966
7.14265
9.51948
9.39087
4.88824
0.591369
-1.54506
-0.819378
-0.140993
1.17767
3.5531
6.82064
9.18669
9.12959
3.84055
-0.602554
-1.45719
-0.817289
-0.104021
1.13514
3.46977
6.73963
9.03172
9.00057
2.85112
-1.57797
-1.23402
-0.694212
0.0571982
1.21246
3.48785
6.71097
8.92488
8.79159
1.86986
-2.43297
-1.30105
-0.868406
-0.0613392
1.05226
3.28352
6.5142
8.65535
8.30145
0.804235
-3.42498
-1.64859
-1.32013
-0.428252
0.706718
2.91843
6.27578
8.26907
7.74067
-0.394942
-5.39339
-2.09528
-1.87253
-0.865809
0.328066
2.53419
6.01072
7.86257
7.3491
-1.85708
-9.01477
-2.54727
-2.46056
-1.30348
-0.0577679
2.11148
5.64311
7.43983
7.19075
-3.46177
-12.6091
-3.03921
-3.12973
-1.71242