/*--------------------------------*- C++ -*----------------------------------*\
  =========                 |
  \\      /  F ield         | OpenFOAM: The Open Source CFD Toolbox
   \\    /   O peration     | Website:  https://openfoam.org
    \\  /    A nd           | Version:  8
     \\/     M anipulation  |
\*---------------------------------------------------------------------------*/
FoamFile
{
    version     2.0;
    format      ascii;
    class       volScalarField;
    location    "900";
    object      epsilon;
}
// * * * * * * * * * * * * * * * * * * * * * * * * * * * * * * * * * * * * * //

dimensions      [0 2 -3 0 0 0 0];

internalField   nonuniform List<scalar> 
1200
(
1.13863
0.888651
0.710518
0.579997
0.481995
0.406847
0.348165
0.301598
0.264115
0.233554
0.208349
0.187344
0.169674
0.15468
0.141857
0.130811
0.121234
0.112878
0.105548
0.0990841
0.093356
0.0882572
0.0836996
0.07961
0.0759269
0.0725985
0.0695811
0.0668374
0.0643354
0.0620479
0.0599512
0.0580249
0.056251
0.0546141
0.0531005
0.0516983
0.050397
0.049187
0.0480602
0.0470093
0.0460275
0.045109
0.0442485
0.0434414
0.0426832
0.0419702
0.0412989
0.040666
0.0400688
0.0395046
0.0389709
0.0384657
0.037987
0.0375328
0.0371016
0.0366918
0.036302
0.0359309
0.0355774
0.03524
1.45211
0.919932
0.613992
0.42778
0.308867
0.229742
0.175237
0.136572
0.108438
0.0875089
0.0716341
0.059385
0.0497884
0.0421667
0.0360388
0.0310571
0.0269662
0.023576
0.0207428
0.0183568
0.0163331
0.0146054
0.0131215
0.0118398
0.010727
0.00975598
0.00890491
0.00815575
0.00749364
0.00690627
0.00638334
0.00591622
0.00549763
0.0051214
0.00478228
0.00447577
0.00419805
0.00394577
0.00371609
0.00350651
0.00331485
0.00313921
0.00297794
0.0028296
0.00269291
0.00256674
0.0024501
0.00234209
0.00224193
0.00214891
0.00206241
0.00198185
0.00190673
0.00183661
0.00177105
0.0017097
0.00165217
0.00159802
0.00154656
0.00149276
1.45109
0.915219
0.607842
0.421011
0.301933
0.222952
0.16876
0.130481
0.102755
0.0822287
0.0667376
0.054846
0.0455782
0.0382566
0.0324015
0.027667
0.0238002
0.0206128
0.0179634
0.0157442
0.0138719
0.012282
0.0109236
0.00975637
0.00874811
0.00787286
0.00710954
0.00644096
0.00585296
0.00533384
0.00487387
0.00446491
0.00410014
0.00377377
0.00348092
0.00321742
0.00297969
0.00276469
0.00256978
0.00239267
0.00223142
0.0020843
0.0019498
0.0018266
0.00171356
0.00160965
0.00151397
0.00142572
0.00134421
0.0012688
0.00119894
0.00113413
0.00107392
0.00101792
0.000965761
0.000917125
0.000871718
0.000829272
0.000789531
0.000752186
1.45109
0.916294
0.609182
0.422336
0.30311
0.223943
0.169574
0.131142
0.103289
0.0826599
0.0670866
0.0551293
0.0458092
0.0384457
0.032557
0.0277955
0.0239068
0.0207016
0.0180377
0.0158064
0.0139243
0.0123262
0.0109609
0.00978796
0.00877489
0.00789558
0.00712882
0.00645731
0.00586681
0.00534555
0.00488374
0.00447321
0.00410707
0.00377952
0.00348564
0.00322123
0.00298273
0.00276705
0.00257153
0.0023939
0.00223216
0.00208458
0.00194966
0.00182607
0.00171266
0.0016084
0.0015124
0.00142385
0.00134205
0.00126637
0.00119626
0.00113121
0.00107077
0.00101455
0.00096218
0.000913346
0.000867751
0.000825134
0.000785254
0.000747899
1.45109
0.916297
0.609052
0.422133
0.302881
0.223721
0.169373
0.130969
0.103144
0.0825401
0.0669884
0.0550492
0.0457439
0.0383926
0.0325137
0.0277601
0.0238778
0.0206778
0.0180181
0.0157903
0.0139109
0.0123151
0.0109517
0.00978032
0.00876853
0.00789027
0.00712439
0.00645361
0.00586372
0.00534297
0.00488159
0.00447141
0.00410558
0.00377828
0.00348462
0.0032204
0.00298205
0.0027665
0.00257109
0.00239355
0.00223189
0.00208438
0.00194952
0.00182598
0.00171261
0.00160839
0.00151241
0.00142389
0.00134211
0.00126645
0.00119635
0.00113131
0.00107088
0.00101466
0.000962299
0.000913468
0.000867876
0.000825259
0.00078538
0.000748023
1.45109
0.916297
0.609052
0.422133
0.302881
0.223721
0.169373
0.130969
0.103144
0.0825402
0.0669884
0.0550493
0.045744
0.0383926
0.0325137
0.0277602
0.0238778
0.0206779
0.0180181
0.0157903
0.013911
0.0123151
0.0109517
0.00978033
0.00876854
0.00789027
0.00712439
0.00645361
0.00586372
0.00534297
0.00488159
0.00447141
0.00410557
0.00377828
0.00348462
0.0032204
0.00298205
0.00276649
0.00257109
0.00239355
0.00223189
0.00208438
0.00194952
0.00182598
0.00171261
0.00160838
0.00151241
0.00142388
0.0013421
0.00126644
0.00119634
0.0011313
0.00107087
0.00101466
0.000962294
0.000913463
0.00086787
0.000825254
0.000785375
0.000748019
1.45109
0.916294
0.609182
0.422336
0.30311
0.223943
0.169574
0.131142
0.103289
0.0826599
0.0670866
0.0551294
0.0458092
0.0384458
0.032557
0.0277956
0.0239068
0.0207016
0.0180377
0.0158064
0.0139243
0.0123262
0.0109609
0.00978797
0.0087749
0.00789558
0.00712882
0.00645731
0.00586681
0.00534555
0.00488374
0.0044732
0.00410706
0.00377951
0.00348563
0.00322123
0.00298272
0.00276704
0.00257152
0.00239389
0.00223215
0.00208457
0.00194965
0.00182606
0.00171265
0.00160839
0.00151238
0.00142383
0.00134203
0.00126636
0.00119624
0.00113119
0.00107075
0.00101452
0.000962157
0.000913322
0.000867726
0.000825108
0.000785228
0.000747871
1.45109
0.915219
0.607843
0.421012
0.301934
0.222952
0.16876
0.130481
0.102755
0.0822289
0.0667378
0.0548461
0.0455783
0.0382567
0.0324015
0.0276671
0.0238002
0.0206129
0.0179635
0.0157442
0.013872
0.012282
0.0109236
0.00975638
0.00874812
0.00787287
0.00710955
0.00644096
0.00585296
0.00533383
0.00487386
0.00446491
0.00410013
0.00377377
0.00348091
0.00321741
0.00297968
0.00276468
0.00256976
0.00239265
0.00223137
0.0020842
0.00194963
0.00182636
0.00171323
0.00160922
0.00151346
0.00142513
0.00134354
0.00126806
0.00119813
0.00113326
0.00107299
0.00101694
0.000964727
0.000916042
0.000870589
0.000828099
0.000788314
0.00075095
1.45211
0.919933
0.613994
0.427782
0.30887
0.229745
0.175242
0.136577
0.108443
0.0875142
0.0716394
0.0593902
0.0497934
0.0421715
0.0360433
0.0310612
0.0269701
0.0235796
0.020746
0.0183598
0.0163358
0.0146079
0.0131238
0.011842
0.010729
0.00975785
0.00890665
0.00815737
0.00749516
0.00690769
0.00638466
0.00591744
0.00549874
0.00512241
0.0047832
0.0044766
0.00419879
0.00394643
0.00371666
0.003507
0.00331528
0.00313962
0.00297835
0.00283004
0.00269338
0.00256726
0.00245066
0.00234268
0.00224255
0.00214956
0.00206308
0.00198255
0.00190745
0.00183734
0.00177181
0.00171046
0.00165294
0.00159879
0.0015473
0.00149336
1.13863
0.88865
0.710517
0.579995
0.481993
0.406846
0.348163
0.301596
0.264113
0.233552
0.208347
0.187343
0.169672
0.154678
0.141855
0.13081
0.121232
0.112877
0.105547
0.0990831
0.093355
0.0882563
0.0836988
0.0796092
0.0759261
0.0725977
0.0695803
0.0668366
0.0643347
0.0620473
0.0599506
0.0580242
0.0562504
0.0546135
0.0531
0.0516978
0.0503964
0.0491865
0.0480598
0.0470088
0.046027
0.0451085
0.0442481
0.0434409
0.0426828
0.0419698
0.0412984
0.0406656
0.0400683
0.0395041
0.0389704
0.0384652
0.0379864
0.0375323
0.037101
0.0366912
0.0363013
0.0359302
0.0355767
0.0352394
1.13863
0.888647
0.71051
0.579987
0.481986
0.406839
0.348157
0.301592
0.264109
0.233549
0.208345
0.18734
0.16967
0.154677
0.141854
0.130809
0.121232
0.112877
0.105547
0.099083
0.0933549
0.0882562
0.0836988
0.0796092
0.0759261
0.0725977
0.0695803
0.0668366
0.0643347
0.0620472
0.0599505
0.0580242
0.0562503
0.0546134
0.0530998
0.0516976
0.0503962
0.0491863
0.0480595
0.0470085
0.0460266
0.0451082
0.0442477
0.0434405
0.0426823
0.0419693
0.041298
0.0406651
0.0400679
0.0395036
0.03897
0.0384647
0.037986
0.0375318
0.0371006
0.0366908
0.036301
0.0359299
0.0355764
0.0352391
1.45211
0.919936
0.613994
0.427781
0.308867
0.22974
0.175235
0.136569
0.108435
0.0875059
0.0716318
0.0593835
0.0497876
0.0421664
0.036039
0.0310575
0.0269668
0.0235766
0.0207433
0.0183572
0.0163335
0.0146059
0.013122
0.0118403
0.0107275
0.00975653
0.00890549
0.00815636
0.00749429
0.00690693
0.00638399
0.00591686
0.00549825
0.005122
0.00478285
0.00447634
0.00419859
0.00394631
0.00371662
0.00350704
0.0033154
0.00313978
0.00297854
0.00283023
0.00269357
0.00256743
0.00245081
0.00234282
0.00224268
0.00214968
0.00206319
0.00198265
0.00190755
0.00183744
0.00177189
0.00171054
0.00165301
0.00159887
0.0015474
0.00149355
1.45109
0.915221
0.607846
0.421014
0.301935
0.222952
0.16876
0.13048
0.102754
0.082228
0.0667369
0.0548453
0.0455775
0.038256
0.0324009
0.0276666
0.0237997
0.0206124
0.0179631
0.0157439
0.0138716
0.0122818
0.0109234
0.00975615
0.00874791
0.00787267
0.00710937
0.00644079
0.0058528
0.00533369
0.00487373
0.00446478
0.00410001
0.00377365
0.00348081
0.00321731
0.00297959
0.00276459
0.00256968
0.00239257
0.00223132
0.00208419
0.00194969
0.0018265
0.00171345
0.00160954
0.00151386
0.00142561
0.0013441
0.0012687
0.00119884
0.00113403
0.00107382
0.00101782
0.000965658
0.000917021
0.000871614
0.000829168
0.000789426
0.000752079
1.45109
0.916294
0.609182
0.422336
0.303109
0.223942
0.169573
0.131141
0.103288
0.0826593
0.067086
0.0551289
0.0458088
0.0384454
0.0325567
0.0277953
0.0239066
0.0207014
0.0180375
0.0158063
0.0139242
0.0123261
0.0109608
0.00978789
0.00877482
0.00789551
0.00712876
0.00645725
0.00586676
0.0053455
0.0048837
0.00447316
0.00410702
0.00377947
0.0034856
0.0032212
0.00298269
0.00276701
0.00257149
0.00239386
0.00223212
0.00208454
0.00194962
0.00182604
0.00171262
0.00160837
0.00151236
0.00142381
0.00134201
0.00126634
0.00119622
0.00113117
0.00107073
0.00101451
0.000962142
0.000913307
0.000867713
0.000825095
0.000785216
0.00074786
1.45109
0.916297
0.609052
0.422133
0.302882
0.22372
0.169373
0.130968
0.103143
0.0825396
0.0669879
0.0550488
0.0457435
0.0383922
0.0325134
0.0277599
0.0238776
0.0206776
0.0180179
0.0157901
0.0139108
0.012315
0.0109516
0.00978021
0.00876842
0.00789017
0.00712429
0.00645352
0.00586363
0.00534289
0.00488152
0.00447134
0.00410551
0.00377822
0.00348455
0.00322034
0.00298199
0.00276644
0.00257104
0.0023935
0.00223184
0.00208433
0.00194947
0.00182593
0.00171256
0.00160834
0.00151236
0.00142384
0.00134206
0.0012664
0.0011963
0.00113126
0.00107083
0.00101461
0.000962253
0.000913423
0.000867831
0.000825214
0.000785336
0.00074798
1.45109
0.916297
0.609053
0.422134
0.302882
0.223721
0.169373
0.130968
0.103144
0.0825398
0.0669881
0.0550489
0.0457436
0.0383923
0.0325135
0.0277599
0.0238776
0.0206777
0.0180179
0.0157901
0.0139108
0.012315
0.0109516
0.00978023
0.00876844
0.00789018
0.00712431
0.00645353
0.00586364
0.0053429
0.00488152
0.00447135
0.00410551
0.00377822
0.00348456
0.00322034
0.00298199
0.00276644
0.00257104
0.0023935
0.00223184
0.00208433
0.00194947
0.00182593
0.00171256
0.00160834
0.00151236
0.00142384
0.00134206
0.0012664
0.0011963
0.00113126
0.00107083
0.00101461
0.00096225
0.00091342
0.000867828
0.000825211
0.000785333
0.000747977
1.45109
0.916294
0.609182
0.422336
0.303109
0.223942
0.169573
0.131141
0.103288
0.0826594
0.0670861
0.055129
0.0458089
0.0384455
0.0325568
0.0277954
0.0239066
0.0207015
0.0180376
0.0158063
0.0139242
0.0123261
0.0109609
0.00978791
0.00877484
0.00789553
0.00712877
0.00645726
0.00586677
0.00534551
0.0048837
0.00447317
0.00410703
0.00377948
0.0034856
0.0032212
0.00298269
0.00276701
0.00257149
0.00239386
0.00223212
0.00208454
0.00194962
0.00182603
0.00171262
0.00160836
0.00151236
0.00142381
0.00134201
0.00126633
0.00119621
0.00113116
0.00107072
0.0010145
0.00096213
0.000913295
0.0008677
0.000825081
0.000785201
0.000747845
1.45109
0.915222
0.607847
0.421015
0.301935
0.222953
0.16876
0.130481
0.102755
0.0822285
0.0667373
0.0548456
0.0455778
0.0382562
0.0324011
0.0276667
0.0237999
0.0206126
0.0179632
0.015744
0.0138717
0.0122818
0.0109234
0.00975621
0.00874796
0.00787271
0.00710941
0.00644083
0.00585283
0.00533372
0.00487375
0.0044648
0.00410003
0.00377367
0.00348082
0.00321731
0.00297959
0.00276459
0.00256968
0.00239257
0.00223129
0.00208412
0.00194956
0.00182629
0.00171316
0.00160915
0.00151339
0.00142506
0.00134347
0.001268
0.00119807
0.0011332
0.00107294
0.00101688
0.000964677
0.000915993
0.000870541
0.000828051
0.000788267
0.000750906
1.45211
0.919938
0.613998
0.427785
0.308872
0.229747
0.175242
0.136577
0.108443
0.0875133
0.0716386
0.0593895
0.0497929
0.042171
0.0360428
0.0310607
0.0269695
0.0235789
0.0207453
0.018359
0.0163351
0.0146072
0.0131232
0.0118414
0.0107285
0.00975743
0.0089063
0.00815707
0.00749489
0.00690744
0.00638443
0.00591722
0.00549854
0.00512222
0.00478301
0.00447642
0.00419861
0.00394627
0.00371653
0.00350689
0.0033152
0.00313957
0.00297833
0.00283004
0.00269341
0.0025673
0.00245071
0.00234275
0.00224262
0.00214963
0.00206314
0.0019826
0.0019075
0.00183738
0.00177183
0.00171046
0.00165293
0.00159877
0.00154726
0.00149327
1.13863
0.888648
0.710511
0.579988
0.481986
0.406839
0.348157
0.301591
0.264108
0.233548
0.208344
0.18734
0.16967
0.154676
0.141854
0.130808
0.121231
0.112876
0.105546
0.0990822
0.0933541
0.0882555
0.083698
0.0796085
0.0759254
0.072597
0.0695796
0.0668359
0.064334
0.0620466
0.0599499
0.0580235
0.0562497
0.0546128
0.0530992
0.051697
0.0503956
0.0491857
0.0480589
0.0470079
0.0460261
0.0451076
0.0442471
0.0434399
0.0426818
0.0419687
0.0412974
0.0406645
0.0400672
0.0395029
0.0389692
0.038464
0.0379852
0.037531
0.0370997
0.0366899
0.0363
0.0359288
0.0355753
0.035238
)
;

boundaryField
{
    wall
    {
        type            epsilonWallFunction;
        value           nonuniform List<scalar> 
1200
(
1.13863
1.45211
1.45109
1.45109
1.45109
1.45109
1.45109
1.45109
1.45211
1.13863
0.888651
0.919932
0.915219
0.916294
0.916297
0.916297
0.916294
0.915219
0.919933
0.88865
0.710518
0.613992
0.607842
0.609182
0.609052
0.609052
0.609182
0.607843
0.613994
0.710517
0.579997
0.42778
0.421011
0.422336
0.422133
0.422133
0.422336
0.421012
0.427782
0.579995
0.481995
0.308867
0.301933
0.30311
0.302881
0.302881
0.30311
0.301934
0.30887
0.481993
0.406847
0.229742
0.222952
0.223943
0.223721
0.223721
0.223943
0.222952
0.229745
0.406846
0.348165
0.175237
0.16876
0.169574
0.169373
0.169373
0.169574
0.16876
0.175242
0.348163
0.301598
0.136572
0.130481
0.131142
0.130969
0.130969
0.131142
0.130481
0.136577
0.301596
0.264115
0.108438
0.102755
0.103289
0.103144
0.103144
0.103289
0.102755
0.108443
0.264113
0.233554
0.0875089
0.0822287
0.0826599
0.0825401
0.0825402
0.0826599
0.0822289
0.0875142
0.233552
0.208349
0.0716341
0.0667376
0.0670866
0.0669884
0.0669884
0.0670866
0.0667378
0.0716394
0.208347
0.187344
0.059385
0.054846
0.0551293
0.0550492
0.0550493
0.0551294
0.0548461
0.0593902
0.187343
0.169674
0.0497884
0.0455782
0.0458092
0.0457439
0.045744
0.0458092
0.0455783
0.0497934
0.169672
0.15468
0.0421667
0.0382566
0.0384457
0.0383926
0.0383926
0.0384458
0.0382567
0.0421715
0.154678
0.141857
0.0360388
0.0324015
0.032557
0.0325137
0.0325137
0.032557
0.0324015
0.0360433
0.141855
0.130811
0.0310571
0.027667
0.0277955
0.0277601
0.0277602
0.0277956
0.0276671
0.0310612
0.13081
0.121234
0.0269662
0.0238002
0.0239068
0.0238778
0.0238778
0.0239068
0.0238002
0.0269701
0.121232
0.112878
0.023576
0.0206128
0.0207016
0.0206778
0.0206779
0.0207016
0.0206129
0.0235796
0.112877
0.105548
0.0207428
0.0179634
0.0180377
0.0180181
0.0180181
0.0180377
0.0179635
0.020746
0.105547
0.0990841
0.0183568
0.0157442
0.0158064
0.0157903
0.0157903
0.0158064
0.0157442
0.0183598
0.0990831
0.093356
0.0163331
0.0138719
0.0139243
0.0139109
0.013911
0.0139243
0.013872
0.0163358
0.093355
0.0882572
0.0146054
0.012282
0.0123262
0.0123151
0.0123151
0.0123262
0.012282
0.0146079
0.0882563
0.0836996
0.0131215
0.0109236
0.0109609
0.0109517
0.0109517
0.0109609
0.0109236
0.0131238
0.0836988
0.07961
0.0118398
0.00975637
0.00978796
0.00978032
0.00978033
0.00978797
0.00975638
0.011842
0.0796092
0.0759269
0.010727
0.00874811
0.00877489
0.00876853
0.00876854
0.0087749
0.00874812
0.010729
0.0759261
0.0725985
0.00975598
0.00787286
0.00789558
0.00789027
0.00789027
0.00789558
0.00787287
0.00975785
0.0725977
0.0695811
0.00890491
0.00710954
0.00712882
0.00712439
0.00712439
0.00712882
0.00710955
0.00890665
0.0695803
0.0668374
0.00815575
0.00644096
0.00645731
0.00645361
0.00645361
0.00645731
0.00644096
0.00815737
0.0668366
0.0643354
0.00749364
0.00585296
0.00586681
0.00586372
0.00586372
0.00586681
0.00585296
0.00749516
0.0643347
0.0620479
0.00690627
0.00533384
0.00534555
0.00534297
0.00534297
0.00534555
0.00533383
0.00690769
0.0620473
0.0599512
0.00638334
0.00487387
0.00488374
0.00488159
0.00488159
0.00488374
0.00487386
0.00638466
0.0599506
0.0580249
0.00591622
0.00446491
0.00447321
0.00447141
0.00447141
0.0044732
0.00446491
0.00591744
0.0580242
0.056251
0.00549763
0.00410014
0.00410707
0.00410558
0.00410557
0.00410706
0.00410013
0.00549874
0.0562504
0.0546141
0.0051214
0.00377377
0.00377952
0.00377828
0.00377828
0.00377951
0.00377377
0.00512241
0.0546135
0.0531005
0.00478228
0.00348092
0.00348564
0.00348462
0.00348462
0.00348563
0.00348091
0.0047832
0.0531
0.0516983
0.00447577
0.00321742
0.00322123
0.0032204
0.0032204
0.00322123
0.00321741
0.0044766
0.0516978
0.050397
0.00419805
0.00297969
0.00298273
0.00298205
0.00298205
0.00298272
0.00297968
0.00419879
0.0503964
0.049187
0.00394577
0.00276469
0.00276705
0.0027665
0.00276649
0.00276704
0.00276468
0.00394643
0.0491865
0.0480602
0.00371609
0.00256978
0.00257153
0.00257109
0.00257109
0.00257152
0.00256976
0.00371666
0.0480598
0.0470093
0.00350651
0.00239267
0.0023939
0.00239355
0.00239355
0.00239389
0.00239265
0.003507
0.0470088
0.0460275
0.00331485
0.00223142
0.00223216
0.00223189
0.00223189
0.00223215
0.00223137
0.00331528
0.046027
0.045109
0.00313921
0.0020843
0.00208458
0.00208438
0.00208438
0.00208457
0.0020842
0.00313962
0.0451085
0.0442485
0.00297794
0.0019498
0.00194966
0.00194952
0.00194952
0.00194965
0.00194963
0.00297835
0.0442481
0.0434414
0.0028296
0.0018266
0.00182607
0.00182598
0.00182598
0.00182606
0.00182636
0.00283004
0.0434409
0.0426832
0.00269291
0.00171356
0.00171266
0.00171261
0.00171261
0.00171265
0.00171323
0.00269338
0.0426828
0.0419702
0.00256674
0.00160965
0.0016084
0.00160839
0.00160838
0.00160839
0.00160922
0.00256726
0.0419698
0.0412989
0.0024501
0.00151397
0.0015124
0.00151241
0.00151241
0.00151238
0.00151346
0.00245066
0.0412984
0.040666
0.00234209
0.00142572
0.00142385
0.00142389
0.00142388
0.00142383
0.00142513
0.00234268
0.0406656
0.0400688
0.00224193
0.00134421
0.00134205
0.00134211
0.0013421
0.00134203
0.00134354
0.00224255
0.0400683
0.0395046
0.00214891
0.0012688
0.00126637
0.00126645
0.00126644
0.00126636
0.00126806
0.00214956
0.0395041
0.0389709
0.00206241
0.00119894
0.00119626
0.00119635
0.00119634
0.00119624
0.00119813
0.00206308
0.0389704
0.0384657
0.00198185
0.00113413
0.00113121
0.00113131
0.0011313
0.00113119
0.00113326
0.00198255
0.0384652
0.037987
0.00190673
0.00107392
0.00107077
0.00107088
0.00107087
0.00107075
0.00107299
0.00190745
0.0379864
0.0375328
0.00183661
0.00101792
0.00101455
0.00101466
0.00101466
0.00101452
0.00101694
0.00183734
0.0375323
0.0371016
0.00177105
0.000965761
0.00096218
0.000962299
0.000962294
0.000962157
0.000964727
0.00177181
0.037101
0.0366918
0.0017097
0.000917125
0.000913346
0.000913468
0.000913463
0.000913322
0.000916042
0.00171046
0.0366912
0.036302
0.00165217
0.000871718
0.000867751
0.000867876
0.00086787
0.000867726
0.000870589
0.00165294
0.0363013
0.0359309
0.00159802
0.000829272
0.000825134
0.000825259
0.000825254
0.000825108
0.000828099
0.00159879
0.0359302
0.0355774
0.00154656
0.000789531
0.000785254
0.00078538
0.000785375
0.000785228
0.000788314
0.0015473
0.0355767
0.03524
0.00149276
0.000752186
0.000747899
0.000748023
0.000748019
0.000747871
0.00075095
0.00149336
0.0352394
1.13863
1.45211
1.45109
1.45109
1.45109
1.45109
1.45109
1.45109
1.45211
1.13863
0.888647
0.919936
0.915221
0.916294
0.916297
0.916297
0.916294
0.915222
0.919938
0.888648
0.71051
0.613994
0.607846
0.609182
0.609052
0.609053
0.609182
0.607847
0.613998
0.710511
0.579987
0.427781
0.421014
0.422336
0.422133
0.422134
0.422336
0.421015
0.427785
0.579988
0.481986
0.308867
0.301935
0.303109
0.302882
0.302882
0.303109
0.301935
0.308872
0.481986
0.406839
0.22974
0.222952
0.223942
0.22372
0.223721
0.223942
0.222953
0.229747
0.406839
0.348157
0.175235
0.16876
0.169573
0.169373
0.169373
0.169573
0.16876
0.175242
0.348157
0.301592
0.136569
0.13048
0.131141
0.130968
0.130968
0.131141
0.130481
0.136577
0.301591
0.264109
0.108435
0.102754
0.103288
0.103143
0.103144
0.103288
0.102755
0.108443
0.264108
0.233549
0.0875059
0.082228
0.0826593
0.0825396
0.0825398
0.0826594
0.0822285
0.0875133
0.233548
0.208345
0.0716318
0.0667369
0.067086
0.0669879
0.0669881
0.0670861
0.0667373
0.0716386
0.208344
0.18734
0.0593835
0.0548453
0.0551289
0.0550488
0.0550489
0.055129
0.0548456
0.0593895
0.18734
0.16967
0.0497876
0.0455775
0.0458088
0.0457435
0.0457436
0.0458089
0.0455778
0.0497929
0.16967
0.154677
0.0421664
0.038256
0.0384454
0.0383922
0.0383923
0.0384455
0.0382562
0.042171
0.154676
0.141854
0.036039
0.0324009
0.0325567
0.0325134
0.0325135
0.0325568
0.0324011
0.0360428
0.141854
0.130809
0.0310575
0.0276666
0.0277953
0.0277599
0.0277599
0.0277954
0.0276667
0.0310607
0.130808
0.121232
0.0269668
0.0237997
0.0239066
0.0238776
0.0238776
0.0239066
0.0237999
0.0269695
0.121231
0.112877
0.0235766
0.0206124
0.0207014
0.0206776
0.0206777
0.0207015
0.0206126
0.0235789
0.112876
0.105547
0.0207433
0.0179631
0.0180375
0.0180179
0.0180179
0.0180376
0.0179632
0.0207453
0.105546
0.099083
0.0183572
0.0157439
0.0158063
0.0157901
0.0157901
0.0158063
0.015744
0.018359
0.0990822
0.0933549
0.0163335
0.0138716
0.0139242
0.0139108
0.0139108
0.0139242
0.0138717
0.0163351
0.0933541
0.0882562
0.0146059
0.0122818
0.0123261
0.012315
0.012315
0.0123261
0.0122818
0.0146072
0.0882555
0.0836988
0.013122
0.0109234
0.0109608
0.0109516
0.0109516
0.0109609
0.0109234
0.0131232
0.083698
0.0796092
0.0118403
0.00975615
0.00978789
0.00978021
0.00978023
0.00978791
0.00975621
0.0118414
0.0796085
0.0759261
0.0107275
0.00874791
0.00877482
0.00876842
0.00876844
0.00877484
0.00874796
0.0107285
0.0759254
0.0725977
0.00975653
0.00787267
0.00789551
0.00789017
0.00789018
0.00789553
0.00787271
0.00975743
0.072597
0.0695803
0.00890549
0.00710937
0.00712876
0.00712429
0.00712431
0.00712877
0.00710941
0.0089063
0.0695796
0.0668366
0.00815636
0.00644079
0.00645725
0.00645352
0.00645353
0.00645726
0.00644083
0.00815707
0.0668359
0.0643347
0.00749429
0.0058528
0.00586676
0.00586363
0.00586364
0.00586677
0.00585283
0.00749489
0.064334
0.0620472
0.00690693
0.00533369
0.0053455
0.00534289
0.0053429
0.00534551
0.00533372
0.00690744
0.0620466
0.0599505
0.00638399
0.00487373
0.0048837
0.00488152
0.00488152
0.0048837
0.00487375
0.00638443
0.0599499
0.0580242
0.00591686
0.00446478
0.00447316
0.00447134
0.00447135
0.00447317
0.0044648
0.00591722
0.0580235
0.0562503
0.00549825
0.00410001
0.00410702
0.00410551
0.00410551
0.00410703
0.00410003
0.00549854
0.0562497
0.0546134
0.005122
0.00377365
0.00377947
0.00377822
0.00377822
0.00377948
0.00377367
0.00512222
0.0546128
0.0530998
0.00478285
0.00348081
0.0034856
0.00348455
0.00348456
0.0034856
0.00348082
0.00478301
0.0530992
0.0516976
0.00447634
0.00321731
0.0032212
0.00322034
0.00322034
0.0032212
0.00321731
0.00447642
0.051697
0.0503962
0.00419859
0.00297959
0.00298269
0.00298199
0.00298199
0.00298269
0.00297959
0.00419861
0.0503956
0.0491863
0.00394631
0.00276459
0.00276701
0.00276644
0.00276644
0.00276701
0.00276459
0.00394627
0.0491857
0.0480595
0.00371662
0.00256968
0.00257149
0.00257104
0.00257104
0.00257149
0.00256968
0.00371653
0.0480589
0.0470085
0.00350704
0.00239257
0.00239386
0.0023935
0.0023935
0.00239386
0.00239257
0.00350689
0.0470079
0.0460266
0.0033154
0.00223132
0.00223212
0.00223184
0.00223184
0.00223212
0.00223129
0.0033152
0.0460261
0.0451082
0.00313978
0.00208419
0.00208454
0.00208433
0.00208433
0.00208454
0.00208412
0.00313957
0.0451076
0.0442477
0.00297854
0.00194969
0.00194962
0.00194947
0.00194947
0.00194962
0.00194956
0.00297833
0.0442471
0.0434405
0.00283023
0.0018265
0.00182604
0.00182593
0.00182593
0.00182603
0.00182629
0.00283004
0.0434399
0.0426823
0.00269357
0.00171345
0.00171262
0.00171256
0.00171256
0.00171262
0.00171316
0.00269341
0.0426818
0.0419693
0.00256743
0.00160954
0.00160837
0.00160834
0.00160834
0.00160836
0.00160915
0.0025673
0.0419687
0.041298
0.00245081
0.00151386
0.00151236
0.00151236
0.00151236
0.00151236
0.00151339
0.00245071
0.0412974
0.0406651
0.00234282
0.00142561
0.00142381
0.00142384
0.00142384
0.00142381
0.00142506
0.00234275
0.0406645
0.0400679
0.00224268
0.0013441
0.00134201
0.00134206
0.00134206
0.00134201
0.00134347
0.00224262
0.0400672
0.0395036
0.00214968
0.0012687
0.00126634
0.0012664
0.0012664
0.00126633
0.001268
0.00214963
0.0395029
0.03897
0.00206319
0.00119884
0.00119622
0.0011963
0.0011963
0.00119621
0.00119807
0.00206314
0.0389692
0.0384647
0.00198265
0.00113403
0.00113117
0.00113126
0.00113126
0.00113116
0.0011332
0.0019826
0.038464
0.037986
0.00190755
0.00107382
0.00107073
0.00107083
0.00107083
0.00107072
0.00107294
0.0019075
0.0379852
0.0375318
0.00183744
0.00101782
0.00101451
0.00101461
0.00101461
0.0010145
0.00101688
0.00183738
0.037531
0.0371006
0.00177189
0.000965658
0.000962142
0.000962253
0.00096225
0.00096213
0.000964677
0.00177183
0.0370997
0.0366908
0.00171054
0.000917021
0.000913307
0.000913423
0.00091342
0.000913295
0.000915993
0.00171046
0.0366899
0.036301
0.00165301
0.000871614
0.000867713
0.000867831
0.000867828
0.0008677
0.000870541
0.00165293
0.0363
0.0359299
0.00159887
0.000829168
0.000825095
0.000825214
0.000825211
0.000825081
0.000828051
0.00159877
0.0359288
0.0355764
0.0015474
0.000789426
0.000785216
0.000785336
0.000785333
0.000785201
0.000788267
0.00154726
0.0355753
0.0352391
0.00149355
0.000752079
0.00074786
0.00074798
0.000747977
0.000747845
0.000750906
0.00149327
0.035238
)
;
    }
    inlet
    {
        type            turbulentMixingLengthDissipationRateInlet;
        mixingLength    0.071;
        phi             phi;
        k               k;
        value           uniform 0.0340134;
    }
    outlet
    {
        type            inletOutlet;
        inletValue      uniform 0.0001;
        value           nonuniform List<scalar> 
20
(
0.03524
0.00149276
0.000752186
0.000747899
0.000748023
0.000748019
0.000747871
0.00075095
0.00149336
0.0352394
0.0352391
0.00149355
0.000752079
0.00074786
0.00074798
0.000747977
0.000747845
0.000750906
0.00149327
0.035238
)
;
    }
    heatWall
    {
        type            epsilonWallFunction;
        value           nonuniform List<scalar> 
240
(
1.13863
1.13863
0.88865
0.888648
0.710517
0.710511
0.579995
0.579988
0.481993
0.481986
0.406846
0.406839
0.348163
0.348157
0.301596
0.301591
0.264113
0.264108
0.233552
0.233548
0.208347
0.208344
0.187343
0.18734
0.169672
0.16967
0.154678
0.154676
0.141855
0.141854
0.13081
0.130808
0.121232
0.121231
0.112877
0.112876
0.105547
0.105546
0.0990831
0.0990822
0.093355
0.0933541
0.0882563
0.0882555
0.0836988
0.083698
0.0796092
0.0796085
0.0759261
0.0759254
0.0725977
0.072597
0.0695803
0.0695796
0.0668366
0.0668359
0.0643347
0.064334
0.0620473
0.0620466
0.0599506
0.0599499
0.0580242
0.0580235
0.0562504
0.0562497
0.0546135
0.0546128
0.0531
0.0530992
0.0516978
0.051697
0.0503964
0.0503956
0.0491865
0.0491857
0.0480598
0.0480589
0.0470088
0.0470079
0.046027
0.0460261
0.0451085
0.0451076
0.0442481
0.0442471
0.0434409
0.0434399
0.0426828
0.0426818
0.0419698
0.0419687
0.0412984
0.0412974
0.0406656
0.0406645
0.0400683
0.0400672
0.0395041
0.0395029
0.0389704
0.0389692
0.0384652
0.038464
0.0379864
0.0379852
0.0375323
0.037531
0.037101
0.0370997
0.0366912
0.0366899
0.0363013
0.0363
0.0359302
0.0359288
0.0355767
0.0355753
0.0352394
0.035238
1.13863
1.13863
0.888651
0.888647
0.710518
0.71051
0.579997
0.579987
0.481995
0.481986
0.406847
0.406839
0.348165
0.348157
0.301598
0.301592
0.264115
0.264109
0.233554
0.233549
0.208349
0.208345
0.187344
0.18734
0.169674
0.16967
0.15468
0.154677
0.141857
0.141854
0.130811
0.130809
0.121234
0.121232
0.112878
0.112877
0.105548
0.105547
0.0990841
0.099083
0.093356
0.0933549
0.0882572
0.0882562
0.0836996
0.0836988
0.07961
0.0796092
0.0759269
0.0759261
0.0725985
0.0725977
0.0695811
0.0695803
0.0668374
0.0668366
0.0643354
0.0643347
0.0620479
0.0620472
0.0599512
0.0599505
0.0580249
0.0580242
0.056251
0.0562503
0.0546141
0.0546134
0.0531005
0.0530998
0.0516983
0.0516976
0.050397
0.0503962
0.049187
0.0491863
0.0480602
0.0480595
0.0470093
0.0470085
0.0460275
0.0460266
0.045109
0.0451082
0.0442485
0.0442477
0.0434414
0.0434405
0.0426832
0.0426823
0.0419702
0.0419693
0.0412989
0.041298
0.040666
0.0406651
0.0400688
0.0400679
0.0395046
0.0395036
0.0389709
0.03897
0.0384657
0.0384647
0.037987
0.037986
0.0375328
0.0375318
0.0371016
0.0371006
0.0366918
0.0366908
0.036302
0.036301
0.0359309
0.0359299
0.0355774
0.0355764
0.03524
0.0352391
)
;
    }
}


// ************************************************************************* //
