/*--------------------------------*- C++ -*----------------------------------*\
  =========                 |
  \\      /  F ield         | OpenFOAM: The Open Source CFD Toolbox
   \\    /   O peration     | Website:  https://openfoam.org
    \\  /    A nd           | Version:  8
     \\/     M anipulation  |
\*---------------------------------------------------------------------------*/
FoamFile
{
    version     2.0;
    format      ascii;
    class       surfaceScalarField;
    location    "900";
    object      phi;
}
// * * * * * * * * * * * * * * * * * * * * * * * * * * * * * * * * * * * * * //

dimensions      [1 0 -1 0 0 0 0];

internalField   nonuniform List<scalar> 
2860
(
0.40079
-0.00186807
0.00148678
0.400718
0.00137758
0.00168785
0.400705
0.0013956
0.00187743
0.400358
0.00169911
0.00202324
0.399814
0.00181406
0.00203835
0.399212
0.00176962
0.00202331
0.398601
0.00167531
0.00194981
0.397989
0.00157383
0.00176886
0.397382
0.00147464
0.00153907
0.396782
0.00138073
0.00132943
0.396191
0.00129372
0.00112943
0.395608
0.00121414
0.00093529
0.395034
0.00114179
0.000785884
0.394468
0.00107608
0.000701742
0.393911
0.00101636
0.000669818
0.393361
0.000961983
0.000662713
0.392819
0.000912449
0.00066486
0.392284
0.000867277
0.000674794
0.391756
0.000825976
0.000681535
0.391235
0.000788089
0.000672885
0.39072
0.000753384
0.000654148
0.390212
0.00072167
0.000639768
0.38971
0.000692671
0.000627071
0.389213
0.000666102
0.000602197
0.388723
0.000641761
0.000571845
0.388238
0.000619509
0.000550355
0.387758
0.000599148
0.000532918
0.387284
0.000580471
0.000514437
0.386814
0.000563339
0.000501308
0.38635
0.000547621
0.000493216
0.38589
0.000533151
0.000483894
0.385435
0.000519784
0.000472262
0.384985
0.00050742
0.000456275
0.384539
0.000495956
0.00043064
0.384097
0.000485294
0.0003943
0.383659
0.00047536
0.000351353
0.383225
0.000466095
0.000307017
0.382795
0.000457443
0.000260012
0.382369
0.000449339
0.000202531
0.381947
0.000441741
0.000134271
0.381528
0.000434648
6.0458e-05
0.381113
0.000427997
-2.00261e-05
0.380701
0.000421764
-0.000105348
0.380292
0.000415922
-0.000186346
0.379887
0.000410466
-0.000257504
0.379485
0.000405362
-0.00032471
0.379086
0.000400568
-0.0003994
0.378689
0.000396037
-0.000482347
0.378296
0.000391755
-0.000561186
0.377906
0.000387731
-0.000629388
0.377518
0.000383942
-0.000692113
0.377133
0.000380377
-0.000753108
0.37675
0.000376993
-0.000815111
0.37637
0.000373762
-0.000874539
0.375993
0.000370668
-0.000923208
0.375619
0.000367551
-0.000962137
0.375247
0.000363925
-0.0010051
0.374882
0.000357785
-0.00106639
0.37453
0.000343621
-0.00113872
0.000240159
-0.00119219
0.398245
-0.00315961
0.000196495
0.398234
-4.2981e-05
0.000340159
0.398035
-5.77285e-05
0.000702087
0.398041
-4.35768e-05
0.000971826
0.398112
-5.6739e-06
0.00106436
0.398211
-5.00683e-05
0.00109332
0.398325
-0.000111088
0.00107191
0.398442
-0.000157737
0.000971459
0.398555
-0.000190909
0.000840576
0.398662
-0.000214599
0.000737285
0.398762
-0.000230753
0.000645487
0.398854
-0.000240785
0.000555325
0.398938
-0.000245811
0.000501395
0.399015
-0.000246868
0.000506227
0.399085
-0.000244914
0.00056229
0.399149
-0.000240692
0.000646024
0.399208
-0.000234716
0.000743019
0.399262
-0.000227411
0.000852648
0.399311
-0.000219242
0.000966209
0.399356
-0.000210495
0.00107141
0.399397
-0.000201261
0.00117138
0.399435
-0.000191521
0.00127685
0.39947
-0.000181391
0.00138474
0.399502
-0.000171053
0.00148242
0.399532
-0.000160546
0.00157503
0.399559
-0.000149819
0.00167417
0.399585
-0.000138946
0.00177543
0.399608
-0.000128035
0.00187522
0.39963
-0.00011709
0.00197958
0.399651
-0.000106128
0.00208835
0.39967
-9.52548e-05
0.00219715
0.399688
-8.45418e-05
0.00230615
0.399705
-7.40087e-05
0.00241352
0.399722
-6.37037e-05
0.00251435
0.399737
-5.36735e-05
0.00260777
0.399751
-4.39234e-05
0.00269736
0.399765
-3.44397e-05
0.00278768
0.399778
-2.52188e-05
0.00287719
0.399791
-1.62929e-05
0.00295821
0.399804
-7.678e-06
0.00302976
0.399815
6.63203e-07
0.00309491
0.399827
8.78185e-06
0.00315203
0.399838
1.66802e-05
0.00320284
0.399849
2.43892e-05
0.00325563
0.39986
3.19526e-05
0.00331513
0.399871
3.93617e-05
0.00337591
0.399882
4.65809e-05
0.00342732
0.399892
5.35679e-05
0.00346893
0.399902
6.03492e-05
0.00351227
0.399912
6.69796e-05
0.00356301
0.399922
7.34598e-05
0.00361646
0.399932
7.97952e-05
0.00366895
0.399942
8.59454e-05
0.0037186
0.399952
9.18975e-05
0.00376905
0.399962
9.76512e-05
0.00382752
0.399972
0.000102981
0.00389419
0.399982
0.00010713
0.0039572
0.399994
0.000107438
0.00400249
0.400011
9.52899e-05
0.00403441
2.19596e-05
0.00406748
0.396066
-0.000920198
0.000283331
0.396271
0.000519983
0.00110567
0.396444
0.000778143
0.0021751
0.396751
0.000805757
0.00307586
0.397113
0.000871945
0.00368382
0.397459
0.000883908
0.00407417
0.397774
0.000863143
0.00430686
0.398059
0.00083654
0.00440193
0.398316
0.000808092
0.00441213
0.398546
0.000777702
0.00439504
0.398755
0.000746602
0.00434565
0.398943
0.000715907
0.00426173
0.399113
0.00068638
0.00417996
0.399269
0.000658283
0.00413049
0.399411
0.00063156
0.00411793
0.399541
0.00060617
0.00412784
0.399661
0.000582133
0.00415026
0.399772
0.00055942
0.00418812
0.399875
0.000537856
0.00424003
0.399971
0.000517332
0.00429965
0.400061
0.000497913
0.00436495
0.400146
0.000479727
0.00443962
0.400226
0.000462728
0.00451916
0.400302
0.000446798
0.0045925
0.400375
0.000431928
0.0046626
0.400445
0.000418189
0.0047366
0.400512
0.000405498
0.00480982
0.400577
0.000393735
0.00488027
0.40064
0.00038289
0.00495266
0.400701
0.000372922
0.00502607
0.40076
0.000363689
0.00509839
0.400819
0.000355089
0.00517136
0.400877
0.000347071
0.00524323
0.400934
0.000339554
0.00531007
0.40099
0.000332461
0.00537208
0.401045
0.000325763
0.00543286
0.401101
0.000319454
0.00549649
0.401156
0.000313511
0.00556125
0.401211
0.000307866
0.00562028
0.401266
0.00030247
0.00567303
0.401321
0.000297335
0.00572098
0.401375
0.000292532
0.00576111
0.40143
0.000288008
0.00579531
0.401485
0.000283781
0.005831
0.401541
0.000279872
0.0058717
0.401596
0.000276245
0.00591228
0.401652
0.00027285
0.00594305
0.401708
0.000269615
0.00596481
0.401764
0.000266555
0.00598858
0.401821
0.000263711
0.00601859
0.401878
0.000261067
0.00605022
0.401935
0.000258604
0.00607969
0.401993
0.000256265
0.0061065
0.402051
0.000254037
0.00613451
0.402109
0.000251917
0.0061694
0.402168
0.00024968
0.0062126
0.402227
0.000246665
0.00625409
0.402286
0.000240908
0.00628025
0.402339
0.000227952
0.00629386
0.000191773
0.00630807
0.397417
-0.000487971
0.000205082
0.397741
1.92574e-05
0.000484885
0.39807
0.000135374
0.000756182
0.398346
9.65142e-05
0.000896225
0.3986
9.42535e-05
0.000858622
0.398818
7.86471e-05
0.000728104
0.399
4.98273e-05
0.000590334
0.399159
2.21833e-05
0.000453354
0.3993
-1.58401e-06
0.000336195
0.399429
-2.14751e-05
0.00025696
0.399548
-3.77138e-05
0.00019315
0.399658
-5.05151e-05
0.000125065
0.399761
-6.00539e-05
6.65323e-05
0.399859
-6.67956e-05
3.70878e-05
0.399951
-7.13636e-05
4.25613e-05
0.400038
-7.42459e-05
7.04869e-05
0.400122
-7.57877e-05
0.000110276
0.400201
-7.62725e-05
0.000164918
0.400277
-7.60086e-05
0.000237667
0.400351
-7.52352e-05
0.000325198
0.400421
-7.40068e-05
0.000421439
0.40049
-7.23044e-05
0.000523386
0.400556
-7.02131e-05
0.000625464
0.40062
-6.78918e-05
0.000720189
0.400683
-6.53504e-05
0.000809345
0.400744
-6.25359e-05
0.000895922
0.400804
-5.95239e-05
0.000975815
0.400862
-5.63993e-05
0.0010492
0.40092
-5.31297e-05
0.00111941
0.400977
-4.97236e-05
0.00118515
0.401033
-4.62779e-05
0.00124733
0.401089
-4.28445e-05
0.00130975
0.401145
-3.94416e-05
0.00137128
0.401199
-3.61192e-05
0.00142952
0.401254
-3.29133e-05
0.00148612
0.401309
-2.98157e-05
0.00154462
0.401363
-2.67881e-05
0.00160831
0.401418
-2.38132e-05
0.00167517
0.401472
-2.09425e-05
0.00173966
0.401527
-1.82018e-05
0.00180201
0.401581
-1.55414e-05
0.00186227
0.401636
-1.29293e-05
0.00191551
0.401691
-1.03949e-05
0.00196314
0.401747
-7.90136e-06
0.00201094
0.401802
-5.40131e-06
0.00206078
0.401858
-2.90676e-06
0.00210806
0.401915
-4.85037e-07
0.0021452
0.401971
1.82167e-06
0.00217432
0.402028
4.05859e-06
0.00220529
0.402086
6.28688e-06
0.00224031
0.402143
8.4973e-06
0.00227483
0.402202
1.06684e-05
0.0023051
0.40226
1.27671e-05
0.00233199
0.40232
1.48112e-05
0.00235914
0.402379
1.68288e-05
0.0023904
0.402439
1.87031e-05
0.00242841
0.402499
2.00488e-05
0.00246516
0.402557
1.97437e-05
0.00248735
0.402612
1.48187e-05
0.0024953
-3.82307e-06
0.00250323
0.397416
5.58759e-07
0.000196419
0.397462
1.19557e-06
0.000510612
0.397661
1.84786e-06
0.000964851
0.397861
2.60919e-06
0.00138351
0.398092
3.50934e-06
0.00160634
0.398333
4.52099e-06
0.00166525
0.398564
5.3004e-06
0.00167429
0.398781
5.82696e-06
0.00168563
0.398982
6.12715e-06
0.00169913
0.399169
6.66697e-06
0.00171115
0.39934
7.14594e-06
0.00170502
0.399498
7.48697e-06
0.00166593
0.399642
7.94231e-06
0.00160234
0.399776
8.57025e-06
0.00153709
0.399899
9.27415e-06
0.00148785
0.400014
9.99165e-06
0.00145175
0.40012
1.06944e-05
0.00142369
0.40022
1.13832e-05
0.0014106
0.400313
1.20236e-05
0.00142139
0.4004
1.25843e-05
0.00145701
0.400483
1.3085e-05
0.00150976
0.400562
1.35734e-05
0.0015732
0.400637
1.40401e-05
0.00164194
0.400709
1.44247e-05
0.00170966
0.400779
1.47572e-05
0.00177568
0.400845
1.51085e-05
0.00183868
0.40091
1.54339e-05
0.00189463
0.400973
1.57045e-05
0.00194471
0.401034
1.59928e-05
0.00198994
0.401094
1.63231e-05
0.00202817
0.401152
1.66508e-05
0.00206259
0.40121
1.69613e-05
0.00209823
0.401267
1.7248e-05
0.0021342
0.401323
1.74832e-05
0.00216939
0.401379
1.76549e-05
0.00220633
0.401435
1.77766e-05
0.00224802
0.40149
1.78945e-05
0.00229621
0.401545
1.80346e-05
0.00234806
0.4016
1.81441e-05
0.0023994
0.401655
1.81985e-05
0.00245109
0.40171
1.82316e-05
0.00250124
0.401765
1.8238e-05
0.0025444
0.401821
1.81996e-05
0.00258228
0.401876
1.81503e-05
0.00261945
0.401932
1.81373e-05
0.00265628
0.401988
1.81591e-05
0.0026884
0.402045
1.81301e-05
0.00271037
0.402101
1.80287e-05
0.0027259
0.402158
1.79092e-05
0.00274353
0.402216
1.7825e-05
0.00276348
0.402274
1.77638e-05
0.00278162
0.402332
1.76886e-05
0.00279489
0.402391
1.75844e-05
0.00280521
0.40245
1.74897e-05
0.00281552
0.402509
1.74551e-05
0.0028278
0.402569
1.74971e-05
0.00284535
0.402629
1.76175e-05
0.00286181
0.402686
1.78147e-05
0.002865
0.402737
1.80992e-05
0.00285475
1.82987e-05
0.00284786
0.397416
0.000488992
0.000179386
0.397462
-1.7116e-05
0.000476931
0.397662
-0.000131954
0.000917661
0.397862
-9.15653e-05
0.00132365
0.398093
-8.75043e-05
0.00153256
0.398333
-6.987e-05
0.0015757
0.398564
-3.93666e-05
0.00158327
0.398781
-1.06393e-05
0.00161596
0.398982
1.38602e-05
0.00165895
0.399168
3.49122e-05
0.00169455
0.39934
5.2177e-05
0.00171378
0.399497
6.57098e-05
0.00170384
0.399642
7.61622e-05
0.00166336
0.399776
8.41185e-05
0.00161162
0.399899
9.00356e-05
0.00156953
0.400014
9.43002e-05
0.00153647
0.40012
9.72036e-05
0.0015087
0.40022
9.90226e-05
0.00149358
0.400313
0.000100001
0.00150112
0.400401
0.000100311
0.00153358
0.400484
0.000100046
0.00158276
0.400562
9.92856e-05
0.00164098
0.400638
9.80992e-05
0.00170331
0.400709
9.65185e-05
0.00176559
0.400779
9.46184e-05
0.00182664
0.400845
9.24851e-05
0.00188346
0.40091
9.01054e-05
0.00193378
0.400973
8.75035e-05
0.00197992
0.401034
8.47885e-05
0.00202071
0.401094
8.20228e-05
0.00205317
0.401152
7.92153e-05
0.00208196
0.40121
7.63861e-05
0.00211267
0.401267
7.35434e-05
0.00214469
0.401324
7.06882e-05
0.00217794
0.401379
6.78359e-05
0.00221554
0.401435
6.50003e-05
0.0022601
0.40149
6.22248e-05
0.0023118
0.401545
5.95418e-05
0.00236672
0.4016
5.68997e-05
0.00242233
0.401655
5.42747e-05
0.00248027
0.40171
5.16826e-05
0.00253752
0.401766
4.90941e-05
0.00258924
0.401821
4.64987e-05
0.0026376
0.401876
4.39267e-05
0.00268598
0.401932
4.14174e-05
0.00273307
0.401988
3.89658e-05
0.00277379
0.402045
3.65074e-05
0.00280425
0.402101
3.40245e-05
0.00282954
0.402158
3.1565e-05
0.00285661
0.402216
2.9176e-05
0.00288379
0.402274
2.6848e-05
0.00290736
0.402332
2.45341e-05
0.00292556
0.402391
2.22415e-05
0.00294088
0.40245
2.0021e-05
0.00295516
0.402509
1.79363e-05
0.00296889
0.402569
1.61396e-05
0.00298521
0.402629
1.50136e-05
0.00299844
0.402686
1.56681e-05
0.00299777
0.402737
2.10994e-05
0.00298338
4.01663e-05
0.00297213
0.397416
0.000921266
0.00015709
0.397741
-0.000518107
0.000397604
0.39807
-0.000774979
0.000641119
0.398346
-0.000801202
0.000761505
0.398601
-0.000865937
0.00070222
0.398818
-0.000876182
0.000534494
0.399
-0.000854107
0.00035996
0.399159
-0.000826947
0.000244991
0.399301
-0.000797671
0.000169843
0.39943
-0.000766096
0.00011372
0.399548
-0.000733901
7.85317e-05
0.399659
-0.000702329
5.13962e-05
0.399762
-0.000671825
1.81518e-05
0.399859
-0.000642541
-1.16296e-05
0.399952
-0.000614536
-2.27277e-05
0.400039
-0.000587882
-2.01492e-05
0.400122
-0.000562655
-9.83278e-06
0.400202
-0.000538824
1.28137e-05
0.400278
-0.000516264
5.45175e-05
0.400351
-0.000494901
0.000115889
0.400422
-0.000474768
0.000189315
0.40049
-0.000455902
0.000268196
0.400556
-0.000438282
0.000348823
0.400621
-0.000421885
0.000428846
0.400683
-0.000406636
0.000506561
0.400744
-0.000392479
0.000578749
0.400804
-0.00037941
0.00064575
0.400863
-0.000367371
0.000710855
0.400921
-0.000356225
0.000770633
0.400978
-0.000345873
0.000821017
0.401034
-0.00033625
0.000867148
0.40109
-0.000327291
0.000914544
0.401145
-0.000318946
0.000962741
0.4012
-0.00031116
0.00101204
0.401255
-0.000303869
0.00106539
0.40131
-0.000297032
0.00112511
0.401364
-0.000290582
0.00118999
0.401419
-0.000284465
0.00125509
0.401473
-0.0002787
0.00131964
0.401528
-0.000273289
0.00138628
0.401582
-0.000268207
0.00145168
0.401637
-0.000263478
0.00151246
0.401692
-0.000259086
0.00157137
0.401748
-0.00025499
0.00163093
0.401803
-0.000251132
0.00168869
0.401859
-0.000247514
0.0017391
0.401916
-0.000244174
0.00178081
0.401972
-0.000241109
0.00182027
0.402029
-0.000238258
0.00186295
0.402087
-0.000235566
0.0019056
0.402145
-0.000233027
0.00194489
0.402203
-0.000230678
0.00198065
0.402262
-0.000228487
0.00201536
0.402321
-0.000226392
0.00204959
0.40238
-0.000224311
0.00208274
0.40244
-0.000222003
0.00211683
0.4025
-0.00021881
0.0021457
0.402559
-0.000212759
0.00215995
0.402613
-0.000199225
0.00216077
-0.00016206
0.00216084
0.396066
0.00316026
0.000191189
0.396272
4.42762e-05
0.000955893
0.396445
6.11937e-05
0.00196766
0.396752
4.91535e-05
0.00282773
0.397114
1.33779e-05
0.00339422
0.397459
6.03685e-05
0.00372188
0.397774
0.000123678
0.00394528
0.398059
0.000171642
0.00412535
0.398315
0.000206058
0.00424169
0.398546
0.000231116
0.00429337
0.398754
0.000248335
0.00431632
0.398943
0.000259001
0.00431964
0.399113
0.000264546
0.00429799
0.399269
0.0002662
0.00426584
0.399411
0.000264946
0.00424071
0.399541
0.000261505
0.00421991
0.399661
0.000256367
0.00420164
0.399772
0.000249949
0.00419195
0.399875
0.000242642
0.00419612
0.399971
0.000234714
0.00421455
0.400061
0.000226259
0.00424317
0.400146
0.000217324
0.0042794
0.400226
0.000207993
0.00432175
0.400302
0.000198335
0.00436959
0.400375
0.000188437
0.00442169
0.400445
0.000178358
0.00447499
0.400512
0.000168098
0.0045318
0.400576
0.000157698
0.00459551
0.400639
0.000147264
0.00465992
0.400701
0.000136879
0.00471906
0.40076
0.00012659
0.00477728
0.400819
0.000116429
0.00483927
0.400877
0.000106413
0.00490414
0.400933
9.65721e-05
0.00497139
0.40099
8.69376e-05
0.00504272
0.401045
7.7509e-05
0.00511985
0.401101
6.8307e-05
0.00520016
0.401156
5.93574e-05
0.00527747
0.401211
5.06253e-05
0.00535239
0.401265
4.20896e-05
0.00542824
0.40132
3.37435e-05
0.00550168
0.401375
2.55476e-05
0.00557104
0.40143
1.74987e-05
0.00563936
0.401485
9.61007e-06
0.0057085
0.401541
1.90488e-06
0.00577532
0.401596
-5.60389e-06
0.00583378
0.401652
-1.297e-05
0.00588441
0.401708
-2.02084e-05
0.00593422
0.401765
-2.72878e-05
0.00598704
0.401821
-3.41812e-05
0.00603819
0.401879
-4.08918e-05
0.00608453
0.401936
-4.74629e-05
0.00612747
0.401994
-5.38725e-05
0.00616897
0.402052
-6.00777e-05
0.00620834
0.402111
-6.6022e-05
0.00624459
0.40217
-7.1455e-05
0.00627846
0.402229
-7.56148e-05
0.00630313
0.402288
-7.58117e-05
0.00631127
0.402341
-6.31509e-05
0.00630737
1.14703e-05
0.00630343
0.398245
0.00186759
-3.00111e-05
0.398234
-0.00137868
-4.29354e-05
0.398035
-0.00139667
0.000162158
0.398041
-0.00170023
0.000320026
0.398113
-0.0018155
0.000322458
0.398212
-0.00177126
0.000243562
0.398326
-0.00167712
0.000184142
0.398442
-0.00157578
0.00016148
0.398556
-0.00147641
0.000127758
0.398663
-0.00138207
7.54464e-05
0.398762
-0.00129461
4.32333e-05
0.398854
-0.00121461
3.67008e-05
0.398938
-0.00114183
4.13293e-05
0.399015
-0.00107571
6.00192e-05
0.399085
-0.00101559
9.7551e-05
0.39915
-0.000960866
0.000142554
0.399209
-0.000911052
0.000189353
0.399262
-0.000865652
0.000239847
0.399312
-0.000824186
0.000294185
0.399357
-0.00078625
0.000350445
0.399398
-0.000751557
0.000407246
0.399436
-0.000719858
0.000465787
0.399471
-0.000690892
0.000526626
0.399503
-0.000664416
0.000590614
0.399533
-0.000640196
0.000657061
0.39956
-0.000618029
0.000723827
0.399586
-0.000597754
0.000795492
0.39961
-0.000579196
0.000876238
0.399632
-0.000562167
0.000958535
0.399652
-0.000546506
0.00103541
0.399672
-0.000532073
0.00111076
0.39969
-0.000518749
0.00118897
0.399707
-0.000506433
0.00126927
0.399723
-0.000495019
0.00135062
0.399739
-0.000484413
0.00143398
0.399753
-0.000474546
0.00152136
0.399767
-0.000465345
0.00160981
0.399781
-0.000456743
0.00169277
0.399793
-0.000448708
0.00177226
0.399806
-0.000441203
0.00185246
0.399818
-0.000434188
0.00193054
0.399829
-0.000427648
0.00200647
0.399841
-0.000421542
0.00208353
0.399852
-0.000415832
0.00216326
0.399863
-0.000410494
0.00224207
0.399873
-0.000405466
0.00231342
0.399884
-0.000400744
0.00237907
0.399894
-0.000396313
0.00244633
0.399904
-0.000392131
0.00251792
0.399914
-0.000388168
0.00258819
0.399924
-0.000384406
0.00265403
0.399934
-0.000380851
0.00271821
0.399944
-0.000377475
0.00278216
0.399954
-0.000374241
0.00284422
0.399964
-0.000371101
0.00290335
0.399974
-0.000367895
0.00295895
0.399984
-0.00036413
0.00300292
0.399996
-0.000357776
0.00302886
0.400014
-0.000343093
0.00304313
-0.000237915
0.00305713
0.400789
0.00132766
0.400717
0.00153514
0.400704
0.00170141
0.400357
0.00184406
0.399813
0.00186488
0.399211
0.00182879
0.3986
0.00179884
0.397988
0.00176817
0.397381
0.00169007
0.396782
0.00157055
0.39619
0.00146028
0.395608
0.00137114
0.395034
0.00129178
0.394468
0.00122495
0.393911
0.00117268
0.393361
0.00112271
0.392818
0.00107081
0.392283
0.00101944
0.391755
0.000968
0.391234
0.000914955
0.390719
0.000861869
0.390211
0.000812969
0.389709
0.000770169
0.389212
0.000734902
0.388722
0.000706276
0.388237
0.000682137
0.387757
0.000667878
0.387283
0.000666894
0.386813
0.000669358
0.386349
0.00066671
0.385889
0.000662089
0.385434
0.000659388
0.384984
0.000657443
0.384538
0.000654439
0.384096
0.000650641
0.383658
0.000648052
0.383224
0.000643381
0.382795
0.000629777
0.382369
0.000610344
0.381946
0.000590024
0.381527
0.000566331
0.381112
0.00054028
0.3807
0.000515359
0.380292
0.000492865
0.379886
0.000468794
0.379484
0.000435994
0.379085
0.000397363
0.378689
0.000360866
0.378295
0.000328705
0.377905
0.000294433
0.377517
0.000254944
0.377132
0.000214111
0.37675
0.000173147
0.37637
0.000129893
0.375993
8.34634e-05
0.375618
3.26409e-05
0.375247
-3.14587e-05
0.374882
-0.000113927
0.374531
-0.000204523
-0.00028159
0.400785
-0.00186415
0.400705
0.00138354
0.400692
0.00139598
0.400347
0.00169811
0.399804
0.00181292
0.399204
0.00176753
0.398592
0.00167278
0.397982
0.00157212
0.397376
0.00147424
0.396777
0.00138145
0.396187
0.00129532
0.395605
0.00121627
0.395032
0.00114392
0.394467
0.00107776
0.393909
0.00101736
0.39336
0.000962286
0.392818
0.000912093
0.392283
0.000866356
0.391755
0.000824745
0.391234
0.000786984
0.390719
0.000752635
0.390211
0.000721253
0.389709
0.000692544
0.389213
0.000666302
0.388722
0.000642262
0.388237
0.000620143
0.387758
0.000599766
0.387283
0.000581001
0.386814
0.000563679
0.38635
0.000547656
0.38589
0.000532858
0.385435
0.000519203
0.384984
0.000506591
0.384538
0.00049495
0.384096
0.000484216
0.383659
0.000474308
0.383225
0.000465148
0.382795
0.000456666
0.382369
0.000448815
0.381947
0.000441545
0.381528
0.000434794
0.381113
0.000428462
0.380701
0.000422536
0.380292
0.00041696
0.379887
0.000411682
0.379485
0.000406681
0.379086
0.000401948
0.378689
0.000397482
0.378296
0.000393254
0.377906
0.000389221
0.377518
0.000385364
0.377133
0.000381664
0.376751
0.00037813
0.376371
0.000374745
0.375994
0.000371438
0.375619
0.000368095
0.375248
0.000364292
0.374882
0.000358016
0.374531
0.000343663
0.000239213
0.398245
-0.00315706
0.398235
-4.15301e-05
0.398034
-5.8255e-05
0.398039
-4.44786e-05
0.39811
-7.27796e-06
0.398209
-5.37406e-05
0.398322
-0.000115774
0.398439
-0.000161187
0.398552
-0.000192273
0.39866
-0.000214045
0.398759
-0.000228587
0.398852
-0.000237508
0.398936
-0.00024233
0.399014
-0.000244031
0.399084
-0.000243137
0.399149
-0.000240054
0.399208
-0.000235185
0.399261
-0.000228846
0.399311
-0.000221158
0.399356
-0.000212304
0.399397
-0.000202619
0.399435
-0.000192433
0.39947
-0.00018189
0.399502
-0.000171048
0.399531
-0.000160058
0.399559
-0.00014911
0.399584
-0.000138248
0.399608
-0.00012746
0.39963
-0.000116819
0.399651
-0.000106363
0.39967
-9.60435e-05
0.399688
-8.58329e-05
0.399705
-7.57444e-05
0.399721
-6.57678e-05
0.399736
-5.58912e-05
0.399751
-4.6132e-05
0.399765
-3.65164e-05
0.399778
-2.70594e-05
0.399791
-1.77513e-05
0.399803
-8.59346e-06
0.399815
3.44421e-07
0.399826
9.03435e-06
0.399838
1.74872e-05
0.399849
2.5675e-05
0.399859
3.35696e-05
0.39987
4.11864e-05
0.39988
4.85504e-05
0.399891
5.56987e-05
0.399901
6.26199e-05
0.399911
6.92798e-05
0.399921
7.56888e-05
0.399931
8.18479e-05
0.399941
8.78012e-05
0.39995
9.35402e-05
0.39996
9.89733e-05
0.39997
0.000103956
0.399981
0.000107838
0.399992
0.000107961
0.40001
9.55817e-05
2.18786e-05
0.396068
-0.000920649
0.396276
0.000518575
0.396447
0.000778082
0.39675
0.000806285
0.39711
0.000871227
0.397455
0.000880631
0.397769
0.000858682
0.398053
0.000833336
0.39831
0.000807104
0.398541
0.000778753
0.398749
0.000749415
0.398937
0.000720016
0.399109
0.000690765
0.399264
0.000661946
0.399407
0.000634018
0.399537
0.000607315
0.399657
0.000581988
0.399769
0.000558124
0.399872
0.00053587
0.399968
0.000515294
0.400058
0.000496217
0.400143
0.000478398
0.400224
0.000461762
0.4003
0.000446321
0.400373
0.000431943
0.400442
0.000418433
0.40051
0.000405748
0.400574
0.00039389
0.400637
0.000382752
0.400699
0.000372265
0.400758
0.000362463
0.400817
0.000353346
0.400875
0.000344873
0.400932
0.000337042
0.400988
0.000329841
0.401044
0.000323215
0.401099
0.000317092
0.401154
0.000311421
0.401209
0.000306199
0.401264
0.000301411
0.401319
0.000296953
0.401373
0.000292813
0.401428
0.000288941
0.401484
0.000285278
0.401539
0.00028176
0.401594
0.000278388
0.40165
0.000275178
0.401706
0.00027216
0.401762
0.0002693
0.401819
0.000266528
0.401876
0.000263842
0.401933
0.000261238
0.401991
0.000258748
0.402049
0.000256341
0.402108
0.000253905
0.402167
0.000251293
0.402226
0.000247961
0.402284
0.000241966
0.402337
0.000228736
0.0001925
0.397417
-0.000488553
0.397741
1.81476e-05
0.398068
0.000134788
0.398343
9.60568e-05
0.398597
9.29105e-05
0.398814
7.54917e-05
0.398997
4.56815e-05
0.399156
1.90846e-05
0.399298
-2.58908e-06
0.399427
-2.07574e-05
0.399546
-3.54903e-05
0.399656
-4.70358e-05
0.39976
-5.61614e-05
0.399858
-6.3368e-05
0.39995
-6.8831e-05
0.400038
-7.27373e-05
0.400121
-7.53144e-05
0.400201
-7.67565e-05
0.400277
-7.71517e-05
0.40035
-7.659e-05
0.400421
-7.5301e-05
0.400489
-7.3524e-05
0.400555
-7.13545e-05
0.40062
-6.88093e-05
0.400682
-6.60063e-05
0.400743
-6.31049e-05
0.400803
-6.01246e-05
0.400862
-5.7057e-05
0.40092
-5.39885e-05
0.400977
-5.09587e-05
0.401033
-4.79171e-05
0.401089
-4.48426e-05
0.401144
-4.17378e-05
0.401199
-3.85756e-05
0.401254
-3.5343e-05
0.401308
-3.20678e-05
0.401363
-2.88007e-05
0.401417
-2.55708e-05
0.401472
-2.23432e-05
0.401526
-1.91068e-05
0.401581
-1.59262e-05
0.401636
-1.27863e-05
0.401691
-9.70126e-06
0.401746
-6.7147e-06
0.401802
-3.87117e-06
0.401857
-1.17004e-06
0.401914
1.44774e-06
0.40197
4.03035e-06
0.402027
6.5364e-06
0.402085
8.90792e-06
0.402143
1.11624e-05
0.402201
1.33212e-05
0.40226
1.54167e-05
0.402319
1.74217e-05
0.402378
1.92543e-05
0.402438
2.08447e-05
0.402498
2.18997e-05
0.402556
2.13516e-05
0.402611
1.6187e-05
-2.58318e-06
0.397417
-3.02347e-07
0.397463
-3.12372e-07
0.397662
3.90835e-08
0.39786
6.07272e-07
0.39809
1.29852e-06
0.39833
1.97576e-06
0.398561
2.96634e-06
0.398778
4.49429e-06
0.39898
6.0785e-06
0.399166
7.39157e-06
0.399337
8.64551e-06
0.399495
9.89273e-06
0.39964
1.08446e-05
0.399773
1.14236e-05
0.399897
1.17682e-05
0.400012
1.19721e-05
0.400118
1.2103e-05
0.400218
1.21984e-05
0.400311
1.22896e-05
0.400399
1.24164e-05
0.400482
1.2561e-05
0.400561
1.26908e-05
0.400636
1.28287e-05
0.400708
1.3032e-05
0.400777
1.32693e-05
0.400844
1.34848e-05
0.400909
1.3721e-05
0.400971
1.40028e-05
0.401033
1.4264e-05
0.401092
1.44817e-05
0.401151
1.46992e-05
0.401209
1.49313e-05
0.401266
1.51846e-05
0.401322
1.54858e-05
0.401378
1.58415e-05
0.401434
1.62298e-05
0.401489
1.66006e-05
0.401544
1.69237e-05
0.401599
1.72477e-05
0.401654
1.75912e-05
0.401709
1.79175e-05
0.401764
1.8256e-05
0.40182
1.86097e-05
0.401875
1.89398e-05
0.401931
1.92029e-05
0.401987
1.93768e-05
0.402043
1.9551e-05
0.4021
1.97678e-05
0.402157
1.99662e-05
0.402215
2.00901e-05
0.402273
2.01592e-05
0.402331
2.02113e-05
0.40239
2.02624e-05
0.402449
2.02843e-05
0.402508
2.02399e-05
0.402568
2.01407e-05
0.402628
2.00345e-05
0.402685
2.00049e-05
0.402736
2.00789e-05
2.00377e-05
0.397417
0.000487929
0.397463
-1.88123e-05
0.397662
-0.000134796
0.39786
-9.48942e-05
0.39809
-9.03145e-05
0.398331
-7.1429e-05
0.398562
-3.96344e-05
0.398778
-9.98882e-06
0.39898
1.48132e-05
0.399166
3.55341e-05
0.399337
5.27008e-05
0.399495
6.66518e-05
0.39964
7.76307e-05
0.399773
8.59828e-05
0.399897
9.21223e-05
0.400012
9.6432e-05
0.400118
9.92723e-05
0.400218
0.000100897
0.400311
0.000101468
0.400399
0.000101159
0.400482
0.000100164
0.400561
9.86532e-05
0.400637
9.6768e-05
0.400708
9.46395e-05
0.400778
9.23269e-05
0.400844
8.98676e-05
0.400909
8.73688e-05
0.400972
8.48779e-05
0.401033
8.23501e-05
0.401093
7.97755e-05
0.401151
7.71856e-05
0.401209
7.45928e-05
0.401266
7.20107e-05
0.401322
6.94537e-05
0.401378
6.69188e-05
0.401434
6.43962e-05
0.401489
6.18435e-05
0.401544
5.92358e-05
0.401599
5.66303e-05
0.401654
5.40534e-05
0.401709
5.14947e-05
0.401765
4.90041e-05
0.40182
4.65908e-05
0.401875
4.42257e-05
0.401931
4.18777e-05
0.401987
3.95156e-05
0.402044
3.72207e-05
0.4021
3.50289e-05
0.402157
3.28847e-05
0.402215
3.07376e-05
0.402273
2.86043e-05
0.402331
2.65334e-05
0.40239
2.45257e-05
0.402449
2.25562e-05
0.402508
2.06317e-05
0.402568
1.88493e-05
0.402627
1.75865e-05
0.402685
1.80588e-05
0.402736
2.33405e-05
4.21011e-05
0.397417
0.000920262
0.397741
-0.000518982
0.398068
-0.000778036
0.398344
-0.000805225
0.398597
-0.000868921
0.398815
-0.000877299
0.398998
-0.000853507
0.399157
-0.000825364
0.399299
-0.00079634
0.399428
-0.000765773
0.399547
-0.00073427
0.399657
-0.000702667
0.399761
-0.000671621
0.399858
-0.000641577
0.399951
-0.000612874
0.400038
-0.000585721
0.400122
-0.000560155
0.400201
-0.000536213
0.400278
-0.000513941
0.400351
-0.000493297
0.400422
-0.00047412
0.40049
-0.00045624
0.400556
-0.000439535
0.40062
-0.000423892
0.400683
-0.00040924
0.400744
-0.000395499
0.400804
-0.000382543
0.400863
-0.000370309
0.40092
-0.000358815
0.400977
-0.000348054
0.401034
-0.000337986
0.40109
-0.000328573
0.401145
-0.000319768
0.4012
-0.000311543
0.401255
-0.000303878
0.401309
-0.000296739
0.401364
-0.000290122
0.401418
-0.000284021
0.401473
-0.000278354
0.401527
-0.000273068
0.401582
-0.000268132
0.401637
-0.000263467
0.401692
-0.000259047
0.401747
-0.000254871
0.401803
-0.000250928
0.401859
-0.000247255
0.401915
-0.00024377
0.401972
-0.000240434
0.402029
-0.000237279
0.402086
-0.00023433
0.402144
-0.000231567
0.402202
-0.000228929
0.402261
-0.000226415
0.40232
-0.000224033
0.40238
-0.000221726
0.40244
-0.000219333
0.402499
-0.000216239
0.402558
-0.000210357
0.402612
-0.000196913
-0.000160042
0.396069
0.0031563
0.396277
4.17363e-05
0.396448
5.95139e-05
0.396751
4.75233e-05
0.397111
1.24011e-05
0.397456
6.10331e-05
0.39777
0.000125722
0.398054
0.000174138
0.39831
0.000207815
0.398541
0.000231555
0.39875
0.000247801
0.398938
0.000258214
0.399109
0.000264155
0.399265
0.000266581
0.399407
0.000266106
0.399537
0.000263265
0.399657
0.000258558
0.399769
0.000252329
0.399872
0.0002448
0.399968
0.0002362
0.400058
0.000226837
0.400143
0.000216983
0.400224
0.000206819
0.4003
0.00019648
0.400373
0.000186058
0.400443
0.000175639
0.40051
0.000165331
0.400575
0.000155171
0.400637
0.00014513
0.400699
0.000135198
0.400758
0.00012538
0.400817
0.000115681
0.400875
0.000106112
0.400932
9.6662e-05
0.400988
8.73136e-05
0.401044
7.80766e-05
0.401099
6.8939e-05
0.401154
5.98933e-05
0.401209
5.09875e-05
0.401264
4.22466e-05
0.401319
3.36866e-05
0.401374
2.53588e-05
0.401429
1.72647e-05
0.401484
9.39096e-06
0.401539
1.73048e-06
0.401595
-5.74031e-06
0.401651
-1.29919e-05
0.401707
-2.00193e-05
0.401763
-2.68595e-05
0.40182
-3.3543e-05
0.401877
-4.00659e-05
0.401935
-4.63873e-05
0.401993
-5.25211e-05
0.402051
-5.8477e-05
0.40211
-6.41987e-05
0.402169
-6.95137e-05
0.402228
-7.37152e-05
0.402287
-7.40222e-05
0.40234
-6.13787e-05
1.33451e-05
0.398245
0.0018631
0.398236
-0.00138459
0.398036
-0.00139756
0.398041
-0.00170005
0.398113
-0.00181514
0.398212
-0.0017701
0.398325
-0.00167529
0.398442
-0.00157393
0.398555
-0.00147518
0.398662
-0.00138169
0.398762
-0.00129485
0.398854
-0.00121502
0.398938
-0.001142
0.399015
-0.00107539
0.399086
-0.00101477
0.39915
-0.000959687
0.399209
-0.000909631
0.399263
-0.000864152
0.399312
-0.000822862
0.399357
-0.000785374
0.399398
-0.00075126
0.399436
-0.000720127
0.399471
-0.000691653
0.399503
-0.00066556
0.399533
-0.000641614
0.399561
-0.000619599
0.399586
-0.000599297
0.39961
-0.00058054
0.399632
-0.000563218
0.399653
-0.000547229
0.399672
-0.000532469