/*--------------------------------*- C++ -*----------------------------------*\
  =========                 |
  \\      /  F ield         | OpenFOAM: The Open Source CFD Toolbox
   \\    /   O peration     | Website:  https://openfoam.org
    \\  /    A nd           | Version:  8
     \\/     M anipulation  |
\*---------------------------------------------------------------------------*/
FoamFile
{
    version     2.0;
    format      ascii;
    class       volVectorField;
    location    "900";
    object      U;
}
// * * * * * * * * * * * * * * * * * * * * * * * * * * * * * * * * * * * * * //

dimensions      [0 1 -1 0 0 0 0];

internalField   nonuniform List<vector> 
1200
(
(4.00458 -0.295023 0.00251723)
(4.0291 -0.228059 0.00300896)
(4.03227 -0.190853 0.00327723)
(4.02771 -0.165203 0.00339358)
(4.0221 -0.146327 0.00332529)
(4.01621 -0.131974 0.00320821)
(4.01008 -0.120656 0.00302908)
(4.00389 -0.111477 0.00274529)
(3.99774 -0.103896 0.00241932)
(3.99166 -0.0975592 0.00212178)
(3.98567 -0.092216 0.0018418)
(3.97976 -0.087683 0.00157526)
(3.97394 -0.0838204 0.00136093)
(3.96821 -0.0805186 0.00121871)
(3.96256 -0.0776899 0.0011347)
(3.95699 -0.0752623 0.00108069)
(3.9515 -0.0731762 0.00104053)
(3.94608 -0.0713815 0.00101237)
(3.94074 -0.0698358 0.000984642)
(3.93546 -0.0685029 0.000944627)
(3.93025 -0.0673521 0.000897466)
(3.92511 -0.0663568 0.000857542)
(3.92003 -0.0654946 0.000821841)
(3.915 -0.0647464 0.000776071)
(3.91004 -0.0640956 0.000726854)
(3.90513 -0.0635278 0.000688517)
(3.90028 -0.0630308 0.000655938)
(3.89548 -0.0625945 0.0006238)
(3.89074 -0.0622097 0.000598469)
(3.88604 -0.0618689 0.000579464)
(3.8814 -0.0615656 0.000560301)
(3.8768 -0.0612942 0.000539806)
(3.87224 -0.0610501 0.000515819)
(3.86773 -0.0608292 0.000482897)
(3.86327 -0.060628 0.000439894)
(3.85884 -0.0604435 0.000390875)
(3.85446 -0.0602731 0.00034105)
(3.85012 -0.0601146 0.000289068)
(3.84581 -0.0599662 0.000226974)
(3.84155 -0.0598263 0.000154446)
(3.83732 -0.0596934 7.67526e-05)
(3.83312 -0.0595657 -7.307e-06)
(3.82896 -0.0594418 -9.59279e-05)
(3.82484 -0.0593209 -0.000179874)
(3.82074 -0.0592022 -0.000253602)
(3.81668 -0.0590852 -0.000323093)
(3.81265 -0.0589693 -0.000399924)
(3.80865 -0.0588545 -0.0004849)
(3.80468 -0.0587403 -0.000565535)
(3.80074 -0.0586264 -0.000635273)
(3.79682 -0.0585125 -0.000699359)
(3.79294 -0.0583986 -0.000761553)
(3.78908 -0.0582844 -0.000824671)
(3.78524 -0.0581701 -0.000885103)
(3.78144 -0.0580554 -0.000934569)
(3.77765 -0.0579406 -0.000974126)
(3.7739 -0.0578269 -0.00101771)
(3.77019 -0.057719 -0.00107979)
(3.7666 -0.0576302 -0.00115246)
(3.76265 -0.0577574 -0.00120795)
(4.00711 0.104075 -0.000758572)
(4.00323 0.133672 -0.00109782)
(4.00185 0.134051 -0.000955648)
(4.00115 0.129224 -0.000768627)
(4.00151 0.12307 -0.000687554)
(4.00247 0.11649 -0.000630916)
(4.00362 0.110202 -0.000604189)
(4.00481 0.104515 -0.000646943)
(4.00598 0.0994771 -0.000715668)
(4.00709 0.0950514 -0.000755)
(4.00813 0.0911832 -0.000783416)
(4.0091 0.087812 -0.000811948)
(4.00998 0.0848773 -0.000806102)
(4.01079 0.0823225 -0.000743462)
(4.01153 0.0800965 -0.000631774)
(4.0122 0.0781545 -0.000494871)
(4.01282 0.076458 -0.000347236)
(4.01338 0.0749734 -0.000189369)
(4.0139 0.0736713 -3.00569e-05)
(4.01437 0.0725264 0.000118385)
(4.0148 0.0715176 0.000259284)
(4.0152 0.0706269 0.000403627)
(4.01557 0.0698385 0.000548419)
(4.0159 0.0691382 0.000680955)
(4.01621 0.0685143 0.00080659)
(4.0165 0.0679568 0.000937209)
(4.01676 0.0674569 0.00106839)
(4.01701 0.0670066 0.0011966)
(4.01724 0.0665994 0.0013281)
(4.01745 0.0662296 0.00146278)
(4.01765 0.065892 0.00159628)
(4.01784 0.0655821 0.00172888)
(4.01801 0.0652963 0.00185876)
(4.01818 0.0650312 0.00198105)
(4.01834 0.064784 0.0020949)
(4.01848 0.0645524 0.00220398)
(4.01863 0.0643344 0.00231297)
(4.01876 0.0641281 0.00242036)
(4.01889 0.0639321 0.00251842)
(4.01902 0.0637449 0.00260621)
(4.01914 0.0635655 0.0026869)
(4.01926 0.0633912 0.00275885)
(4.01937 0.0632217 0.00282384)
(4.01948 0.0630564 0.0028903)
(4.01959 0.0628949 0.00296301)
(4.0197 0.0627367 0.00303653)
(4.01981 0.0625812 0.00310012)
(4.01991 0.0624281 0.00315336)
(4.02002 0.062277 0.00320793)
(4.02012 0.0621277 0.00326956)
(4.02022 0.0619801 0.00333354)
(4.02032 0.0618338 0.00339617)
(4.02042 0.0616885 0.00345558)
(4.02052 0.0615442 0.00351546)
(4.02061 0.0614005 0.00358312)
(4.02071 0.0612567 0.00365877)
(4.02081 0.0611102 0.00373043)
(4.02092 0.0609516 0.00378391)
(4.02106 0.060752 0.00382365)
(4.02118 0.0602455 0.00386433)
(3.9898 -0.0197045 0.000687785)
(3.98181 -0.0407328 0.00188403)
(3.98276 -0.057597 0.00320034)
(3.98641 -0.0670312 0.00425411)
(3.99022 -0.0718314 0.00494946)
(3.99384 -0.0743328 0.00538201)
(3.99718 -0.0755051 0.00562583)
(4.0002 -0.0758651 0.00571089)
(4.00292 -0.0757688 0.00569731)
(4.00536 -0.0754319 0.00564785)
(4.00756 -0.0749741 0.00556045)
(4.00955 -0.0744613 0.0054352)
(4.01134 -0.0739295 0.00531076)
(4.01298 -0.0733986 0.00521845)
(4.01446 -0.0728797 0.00516354)
(4.01583 -0.072378 0.00513192)
(4.01708 -0.0718954 0.0051139)
(4.01824 -0.0714322 0.00511271)
(4.01931 -0.0709884 0.00512706)
(4.02031 -0.0705637 0.0051506)
(4.02124 -0.0701564 0.00518133)
(4.02212 -0.0697643 0.00522303)
(4.02295 -0.0693862 0.0052711)
(4.02374 -0.0690215 0.00531435)
(4.02448 -0.0686691 0.00535579)
(4.0252 -0.0683276 0.00540255)
(4.02588 -0.0679963 0.00544982)
(4.02654 -0.0676747 0.00549556)
(4.02719 -0.0673621 0.00554449)
(4.02781 -0.0670578 0.00559559)
(4.02842 -0.0667615 0.00564665)
(4.02901 -0.066473 0.00569942)
(4.02959 -0.0661919 0.00575206)
(4.03017 -0.0659179 0.00580052)
(4.03074 -0.0656509 0.005845)
(4.0313 -0.0653904 0.00588906)
(4.03186 -0.0651361 0.00593678)
(4.03241 -0.0648877 0.0059864)
(4.03296 -0.064645 0.00603093)
(4.03351 -0.0644079 0.0060698)
(4.03407 -0.0641758 0.00610449)
(4.03462 -0.0639466 0.00613187)
(4.03517 -0.0637205 0.00615384)
(4.03572 -0.0634975 0.00617786)
(4.03628 -0.0632772 0.00620744)
(4.03683 -0.0630596 0.0062374)
(4.03739 -0.0628449 0.00625789)
(4.03795 -0.0626329 0.00626974)
(4.03852 -0.0624235 0.00628405)
(4.03909 -0.0622163 0.00630504)
(4.03966 -0.0620112 0.00632802)
(4.04023 -0.0618082 0.00634916)
(4.04081 -0.0616074 0.00636795)
(4.04139 -0.0614087 0.00638824)
(4.04198 -0.0612122 0.0064158)
(4.04257 -0.0610187 0.00645201)
(4.04316 -0.0608314 0.0064868)
(4.04375 -0.0606609 0.00650637)
(4.04433 -0.0605375 0.0065136)
(4.04476 -0.0606026 0.00652182)
(3.99816 -0.00163806 0.000150404)
(3.99613 0.00887812 0.000310231)
(3.99911 0.0201438 0.00044443)
(4.00298 0.030114 0.000465586)
(4.00593 0.0384346 0.000336622)
(4.00823 0.0450471 0.000140684)
(4.01018 0.0503067 -4.04104e-05)
(4.01187 0.0545538 -0.00020355)
(4.01337 0.0580074 -0.00033364)
(4.01471 0.0608197 -0.000415602)
(4.01595 0.0631113 -0.000475033)
(4.0171 0.0649758 -0.00053388)
(4.01817 0.0664878 -0.000579656)
(4.01917 0.0677058 -0.000593795)
(4.02012 0.0686764 -0.000571229)
(4.02102 0.0694382 -0.000525161)
(4.02188 0.070024 -0.000466719)
(4.0227 0.070461 -0.000393168)
(4.02348 0.0707723 -0.000301434)
(4.02423 0.0709773 -0.000195038)
(4.02495 0.0710935 -8.02414e-05)
(4.02565 0.0711358 3.98321e-05)
(4.02633 0.0711166 0.000159492)
(4.02698 0.071046 0.000271128)
(4.02762 0.0709331 0.000376553)
(4.02824 0.0707858 0.000478759)
(4.02885 0.0706107 0.000573562)
(4.02944 0.0704128 0.000661182)
(4.03003 0.070197 0.000745019)
(4.03061 0.0699672 0.000823743)
(4.03117 0.0697264 0.000898323)
(4.03174 0.069477 0.000972646)
(4.0323 0.0692215 0.00104556)
(4.03285 0.0689615 0.00111466)
(4.0334 0.0686985 0.00118167)
(4.03395 0.068434 0.00125016)
(4.0345 0.0681692 0.00132349)
(4.03504 0.0679051 0.00139967)
(4.03559 0.0676422 0.00147308)
(4.03614 0.067381 0.00154402)
(4.03669 0.0671222 0.00161256)
(4.03724 0.0668657 0.00167368)
(4.03779 0.0666118 0.00172884)
(4.03835 0.0663606 0.00178389)
(4.0389 0.0661127 0.00184073)
(4.03947 0.0658681 0.00189475)
(4.04003 0.0656266 0.00193826)
(4.0406 0.0653878 0.00197345)
(4.04117 0.0651517 0.00201031)
(4.04174 0.0649187 0.00205103)
(4.04232 0.0646887 0.00209104)
(4.04291 0.0644616 0.00212657)
(4.04349 0.0642374 0.00215849)
(4.04409 0.0640159 0.00219052)
(4.04468 0.0637971 0.00222652)
(4.04528 0.0635805 0.00226921)
(4.04588 0.0633639 0.00231052)
(4.04648 0.0631417 0.002337)
(4.04705 0.0629016 0.00234897)
(4.04767 0.0626068 0.00236086)
(3.99793 -0.00101808 0.000197751)
(3.99505 -0.00120429 0.000540931)
(3.99581 -0.00451923 0.0010364)
(3.99828 -0.0103567 0.00149693)
(4.00074 -0.0173106 0.00175546)
(4.00311 -0.0245099 0.00184168)
(4.00548 -0.0314049 0.00187066)
(4.00775 -0.0377025 0.00189604)
(4.00986 -0.0432893 0.00191864)
(4.01181 -0.0481482 0.00193576)
(4.01361 -0.0523184 0.00193136)
(4.01526 -0.0558609 0.00189126)
(4.01678 -0.0588439 0.00182466)
(4.01817 -0.0613367 0.00175508)
(4.01946 -0.0634047 0.0017008)
(4.02065 -0.065107 0.00165916)
(4.02176 -0.0664957 0.00162524)
(4.02279 -0.0676164 0.00160622)
(4.02376 -0.0685088 0.00161123)
(4.02467 -0.0692073 0.00164135)
(4.02552 -0.0697411 0.00168879)
(4.02633 -0.070135 0.0017471)
(4.02711 -0.0704109 0.00181083)
(4.02785 -0.0705872 0.00187367)
(4.02855 -0.0706798 0.00193497)
(4.02924 -0.0707017 0.00199334)
(4.02989 -0.0706648 0.00204474)
(4.03053 -0.0705791 0.00209039)
(4.03116 -0.0704527 0.00213131)
(4.03176 -0.0702928 0.00216532)
(4.03236 -0.0701057 0.00219568)
(4.03294 -0.0698966 0.00222746)
(4.03352 -0.0696701 0.00225975)
(4.03409 -0.06943 0.00229141)
(4.03465 -0.0691794 0.00232502)
(4.03521 -0.0689211 0.00236358)
(4.03577 -0.068657 0.00240885)
(4.03632 -0.0683889 0.00245795)
(4.03688 -0.0681185 0.00250668)
(4.03743 -0.0678472 0.00255592)
(4.03798 -0.067576 0.00260373)
(4.03854 -0.0673055 0.00264458)
(4.03909 -0.0670364 0.00268021)
(4.03965 -0.0667691 0.00271522)
(4.04021 -0.0665038 0.00274998)
(4.04077 -0.0662408 0.00278008)
(4.04134 -0.0659807 0.00280002)
(4.04191 -0.0657234 0.00281353)
(4.04248 -0.0654689 0.00282926)
(4.04305 -0.0652169 0.0028474)
(4.04363 -0.0649677 0.00286377)
(4.04422 -0.0647214 0.00287527)
(4.04481 -0.0644782 0.00288387)
(4.0454 -0.064238 0.00289252)
(4.04599 -0.0640006 0.00290318)
(4.04659 -0.0637662 0.00291926)
(4.04719 -0.0635358 0.00293433)
(4.04779 -0.0633121 0.00293607)
(4.04834 -0.063103 0.00292431)
(4.04887 -0.0629326 0.00291609)
(3.99793 0.00102225 0.000180557)
(3.99505 0.00121169 0.000506943)
(3.99581 0.00452935 0.000988812)
(3.99828 0.0103708 0.00143657)
(4.00074 0.0173309 0.00168107)
(4.00312 0.0245393 0.00175134)
(4.00548 0.0314447 0.00177892)
(4.00775 0.0377488 0.00182589)
(4.00986 0.0433394 0.00187825)
(4.01181 0.0482042 0.0019191)
(4.01361 0.0523796 0.00194027)
(4.01526 0.0559258 0.00192956)
(4.01678 0.0589131 0.00188619)
(4.01817 0.0614111 0.00183017)
(4.01946 0.0634846 0.00178301)
(4.02065 0.0651922 0.00174438)
(4.02176 0.0665859 0.00171071)
(4.02279 0.0677113 0.00168961)
(4.02376 0.0686081 0.00169132)
(4.02467 0.0693104 0.00171822)
(4.02552 0.0698476 0.00176206)
(4.02634 0.0702448 0.00181508)
(4.02711 0.0705238 0.00187234)
(4.02785 0.0707028 0.00192969)
(4.02855 0.0707977 0.00198596)
(4.02924 0.0708223 0.0020381)
(4.0299 0.0707879 0.00208382)
(4.03053 0.0707043 0.0021255)
(4.03116 0.0705801 0.00216194)
(4.03176 0.0704228 0.00219013)
(4.03236 0.0702382 0.00221482)
(4.03294 0.0700315 0.00224164)
(4.03352 0.0698072 0.00226993)
(4.03409 0.0695688 0.00229965)
(4.03465 0.0693196 0.00233393)
(4.03521 0.069062 0.00237539)
(4.03577 0.0687987 0.00242419)
(4.03632 0.0685314 0.00247639)
(4.03688 0.0682617 0.00252942)
(4.03743 0.0679905 0.00258495)
(4.03798 0.0677192 0.0026399)
(4.03854 0.0674485 0.00268935)
(4.03909 0.0671791 0.00273552)
(4.03965 0.0669115 0.00278181)
(4.04021 0.0666464 0.00282689)
(4.04077 0.0663841 0.00286562)
(4.04134 0.0661244 0.00289409)
(4.04191 0.0658671 0.00291743)
(4.04248 0.0656124 0.00294267)
(4.04305 0.0653607 0.00296807)
(4.04363 0.065112 0.0029899)
(4.04422 0.0648661 0.00300637)
(4.0448 0.064623 0.00302)
(4.0454 0.0643829 0.00303266)
(4.04599 0.0641461 0.00304479)
(4.04659 0.0639129 0.00305964)
(4.04719 0.0636842 0.00307145)
(4.04779 0.0634626 0.00306932)
(4.04834 0.0632554 0.00305339)
(4.04887 0.0630846 0.00304076)
(3.99816 0.0016441 0.000102025)
(3.99613 -0.0088624 0.000222286)
(3.9991 -0.0201172 0.000328556)
(4.00298 -0.0300791 0.000329863)
(4.00593 -0.0383936 0.000178886)
(4.00823 -0.0450002 -5.47887e-05)
(4.01018 -0.0502581 -0.000273474)
(4.01188 -0.0545089 -0.00041468)
(4.01337 -0.057965 -0.000502518)
(4.01472 -0.0607772 -0.000561422)
(4.01596 -0.0630681 -0.000592051)
(4.0171 -0.0649321 -0.000609551)
(4.01817 -0.0664416 -0.000629867)
(4.01918 -0.0676545 -0.000644403)
(4.02013 -0.0686186 -0.000638561)
(4.02103 -0.0693732 -0.000618085)
(4.02189 -0.0699514 -0.00058943)
(4.02271 -0.0703812 -0.000548262)
(4.02349 -0.0706857 -0.000487972)
(4.02424 -0.0708848 -0.000408093)
(4.02496 -0.0709957 -0.000316465)
(4.02566 -0.0710331 -0.000219849)
(4.02633 -0.0710094 -0.000122041)
(4.02699 -0.0709351 -2.54297e-05)
(4.02763 -0.0708191 6.82565e-05)
(4.02825 -0.0706689 0.000155716)
(4.02886 -0.070491 0.000237305)
(4.02945 -0.0702908 0.000316388)
(4.03004 -0.0700726 0.000389488)
(4.03061 -0.0698401 0.000452516)
(4.03118 -0.0695964 0.000510721)
(4.03175 -0.0693444 0.00056969)
(4.0323 -0.0690862 0.000628957)
(4.03286 -0.0688239 0.000688874)
(4.03341 -0.068559 0.00075245)
(4.03396 -0.0682927 0.000822045)
(4.03451 -0.0680261 0.000896456)
(4.03505 -0.0677599 0.000970703)
(4.0356 -0.0674952 0.00104406)
(4.03615 -0.0672325 0.00111922)
(4.0367 -0.0669724 0.0011928)
(4.03725 -0.0667155 0.00126141)
(4.0378 -0.066462 0.00132786)
(4.03836 -0.0662122 0.00139469)
(4.03892 -0.0659658 0.00145944)
(4.03948 -0.0657227 0.00151652)
(4.04004 -0.0654829 0.00156458)
(4.04061 -0.0652463 0.00161017)
(4.04118 -0.0650129 0.00165882)
(4.04176 -0.0647824 0.00170721)
(4.04234 -0.0645547 0.00175201)
(4.04292 -0.0643301 0.00179306)
(4.04351 -0.0641084 0.00183291)
(4.0441 -0.0638894 0.0018721)
(4.0447 -0.0636727 0.00191003)
(4.0453 -0.0634576 0.00194878)
(4.0459 -0.0632418 0.00198215)
(4.0465 -0.0630196 0.00200063)
(4.04706 -0.0627774 0.00200542)
(4.04768 -0.0624763 0.00200933)
(3.9898 0.0197081 0.000594903)
(3.98182 0.0407383 0.00173344)
(3.98276 0.0576101 0.00299218)
(3.98641 0.067055 0.00400577)
(3.99022 0.0718669 0.00466017)
(3.99384 0.074381 0.00503023)
(3.99718 0.075562 0.00526564)
(4.0002 0.0759286 0.0054372)
(4.00291 0.0758383 0.00553085)
(4.00536 0.0755078 0.00555048)
(4.00755 0.0750547 0.00553576)
(4.00954 0.0745445 0.00549809)
(4.01134 0.0740144 0.00543359)
(4.01297 0.0734852 0.00535805)
(4.01446 0.0729678 0.00528992)
(4.01583 0.0724676 0.00522695)
(4.01708 0.0719864 0.00516768)
(4.01824 0.0715246 0.00511845)
(4.01931 0.0710821 0.00508468)
(4.02031 0.0706582 0.00506684)
(4.02124 0.0702513 0.0050608)
(4.02212 0.0698599 0.00506397)
(4.02295 0.0694827 0.00507483)
(4.02373 0.0691185 0.00509269)
(4.02448 0.0687664 0.0051163)
(4.0252 0.0684253 0.00514246)
(4.02588 0.0680944 0.00517349)
(4.02654 0.0677728 0.00521274)
(4.02718 0.0674601 0.00525386)
(4.02781 0.0671559 0.00529078)
(4.02841 0.0668598 0.00532788)
(4.02901 0.0665713 0.00536979)
(4.02959 0.0662899 0.00541556)
(4.03017 0.0660154 0.00546463)
(4.03073 0.0657475 0.00551867)
(4.0313 0.0654858 0.00557936)
(4.03185 0.0652302 0.00564398)
(4.03241 0.0649804 0.00570627)
(4.03296 0.064736 0.00576683)
(4.03351 0.0644966 0.00582897)
(4.03406 0.0642621 0.00588928)
(4.03461 0.064032 0.00594605)
(4.03517 0.063806 0.00600234)
(4.03572 0.0635842 0.00605998)
(4.03627 0.0633663 0.00611576)
(4.03683 0.0631511 0.00616357)
(4.03739 0.062938 0.00620393)
(4.03796 0.0627271 0.00624392)
(4.03852 0.0625183 0.00628736)
(4.03909 0.062312 0.00632948)
(4.03966 0.062108 0.0063671)
(4.04024 0.061906 0.00640165)
(4.04082 0.0617061 0.0064351)
(4.0414 0.0615084 0.00646672)
(4.04199 0.0613132 0.00649549)
(4.04258 0.0611215 0.00652217)
(4.04318 0.0609364 0.00653987)
(4.04378 0.0607684 0.0065412)
(4.04435 0.0606485 0.00653069)
(4.04478 0.0607162 0.00652047)
(4.00711 -0.104063 -0.000987425)
(4.00323 -0.13367 -0.00148478)
(4.00185 -0.134055 -0.00150259)
(4.00115 -0.129232 -0.00143019)
(4.00151 -0.123078 -0.00144215)
(4.00248 -0.116497 -0.00149704)
(4.00363 -0.110204 -0.00151102)
(4.00481 -0.104512 -0.00147692)
(4.00598 -0.0994647 -0.00144909)
(4.0071 -0.0950288 -0.00143841)
(4.00814 -0.0911507 -0.00140755)
(4.0091 -0.0877704 -0.00135214)
(4.00998 -0.0848274 -0.00128757)
(4.01079 -0.082265 -0.00121121)
(4.01153 -0.0800319 -0.00111844)
(4.01221 -0.0780836 -0.00102088)
(4.01283 -0.0763812 -0.000924211)
(4.01339 -0.0748911 -0.000826441)
(4.01391 -0.0735837 -0.000727358)
(4.01438 -0.072434 -0.00062881)
(4.01481 -0.0714207 -0.000532045)
(4.01521 -0.0705255 -0.000435685)
(4.01557 -0.0697325 -0.000339035)
(4.01591 -0.0690279 -0.000241094)
(4.01622 -0.0683998 -0.000142443)
(4.01651 -0.0678379 -4.51424e-05)
(4.01677 -0.0673334 5.55841e-05)
(4.01702 -0.0668788 0.000164081)
(4.01725 -0.066467 0.000272791)
(4.01746 -0.0660924 0.000374759)
(4.01766 -0.0657498 0.000474011)
(4.01785 -0.065435 0.000575051)
(4.01803 -0.0651443 0.000677155)
(4.0182 -0.0648744 0.000779331)
(4.01835 -0.0646225 0.00088262)
(4.0185 -0.0643863 0.000989107)
(4.01865 -0.0641638 0.00109588)
(4.01878 -0.063953 0.00119632)
(4.01892 -0.0637528 0.00129255)
(4.01904 -0.0635617 0.00138886)
(4.01916 -0.0633787 0.00148238)
(4.01928 -0.0632029 0.00157315)
(4.0194 -0.0630336 0.00166452)
(4.01951 -0.0628699 0.00175807)
(4.01962 -0.0627112 0.0018502)
(4.01972 -0.0625555 0.00193433)
(4.01983 -0.0624024 0.00201228)
(4.01993 -0.0622517 0.00209148)
(4.02004 -0.062103 0.00217465)
(4.02014 -0.061956 0.00225608)
(4.02024 -0.0618104 0.00233269)
(4.02034 -0.0616663 0.0024073)
(4.02044 -0.0615234 0.00248135)
(4.02053 -0.0613813 0.00255318)
(4.02063 -0.0612398 0.00262175)
(4.02073 -0.0610981 0.00268649)
(4.02083 -0.0609534 0.0027392)
(4.02094 -0.0607964 0.00277344)
(4.02109 -0.060597 0.00279566)
(4.02121 -0.0600839 0.0028173)
(4.00457 0.295039 0.002357)
(4.02908 0.228075 0.00285652)
(4.03226 0.190871 0.00310128)
(4.0277 0.165222 0.00321493)
(4.02209 0.146345 0.00315268)
(4.0162 0.131991 0.00301423)
(4.01007 0.120669 0.00287905)
(4.00388 0.111482 0.00274676)
(3.99773 0.103892 0.00257304)
(3.99166 0.0975458 0.00236536)
(3.98566 0.0921936 0.00217513)
(3.97976 0.0876516 0.00201381)
(3.97394 0.0837808 0.0018694)
(3.96821 0.0804722 0.00174408)
(3.96256 0.077638 0.00163919)
(3.95699 0.0752061 0.00154173)
(3.9515 0.0731164 0.00144701)
(3.94608 0.0713184 0.00135701)
(3.94073 0.0697697 0.00127067)
(3.93546 0.0684338 0.00118605)
(3.93025 0.0672799 0.00110444)
(3.9251 0.0662813 0.00102984)
(3.92002 0.0654155 0.0009639)
(3.91499 0.0646631 0.000907843)
(3.91003 0.0640077 0.000860526)
(3.90512 0.0634351 0.000819565)
(3.90027 0.062933 0.000790266)
(3.89548 0.0624912 0.000775895)
(3.89073 0.0621009 0.000766335)
(3.88603 0.0617545 0.000752819)
(3.88139 0.0614457 0.00073842)
(3.87679 0.0611689 0.000726942)
(3.87223 0.0609192 0.0007171)
(3.86772 0.0606927 0.000706972)
(3.86326 0.0604858 0.000696739)
(3.85883 0.0602956 0.000688372)
(3.85445 0.0601196 0.000678479)
(3.85011 0.0599556 0.000660069)
(3.84581 0.0598018 0.000636273)
(3.84154 0.0596565 0.000612038)
(3.83731 0.0595184 0.000584782)
(3.83311 0.0593863 0.00055553)
(3.82895 0.0592593 0.000527762)
(3.82483 0.0591365 0.00050275)
(3.82074 0.0590173 0.000476423)
(3.81667 0.0589006 0.000441517)
(3.81264 0.0587856 0.000400972)
(3.80864 0.0586716 0.000362806)
(3.80467 0.0585583 0.000329195)
(3.80073 0.0584455 0.000293592)
(3.79682 0.058333 0.000252862)
(3.79293 0.0582206 0.000210935)
(3.78907 0.0581081 0.000169)
(3.78524 0.0579956 0.00012485)
(3.78143 0.057883 7.76018e-05)
(3.77765 0.0577707 2.60225e-05)
(3.7739 0.0576597 -3.8893e-05)
(3.77018 0.0575549 -0.000122327)
(3.7666 0.0574702 -0.000213408)
(3.76267 0.0576032 -0.000292774)
(4.0045 -0.295189 0.000472857)
(4.02897 -0.228242 0.000385486)
(4.03216 -0.191033 0.000497681)
(4.02761 -0.165391 0.000673338)
(4.022 -0.146528 0.000772416)
(4.01612 -0.132189 0.000860889)
(4.01 -0.12088 0.000892719)
(4.00381 -0.111701 0.000811589)
(3.99767 -0.104114 0.000674351)
(3.9916 -0.0977665 0.000549818)
(3.98562 -0.0924104 0.000427034)
(3.97972 -0.0878631 0.000302665)
(3.97391 -0.0839864 0.000216682)
(3.96819 -0.0806717 0.000190309)
(3.96254 -0.0778316 0.000210889)
(3.95698 -0.0753941 0.00025128)
(3.95149 -0.0732995 0.000296307)
(3.94607 -0.0714973 0.000344994)
(3.94073 -0.069945 0.000386573)
(3.93545 -0.0686061 0.000409034)
(3.93024 -0.0674497 0.000418172)
(3.9251 -0.0664498 0.000428983)
(3.92002 -0.0655839 0.000439006)
(3.915 -0.0648324 0.000434431)
(3.91003 -0.0641789 0.000422323)
(3.90513 -0.0636092 0.000417421)
(3.90028 -0.0631113 0.00041497)
(3.89548 -0.0626745 0.000409972)
(3.89074 -0.0622899 0.000409092)
(3.88604 -0.0619499 0.000412109)
(3.88139 -0.0616478 0.000412777)
(3.87679 -0.0613779 0.000410129)
(3.87224 -0.0611353 0.000402198)
(3.86773 -0.0609158 0.00038371)
(3.86326 -0.0607159 0.000353674)
(3.85884 -0.0605324 0.000316298)
(3.85446 -0.0603629 0.000276922)
(3.85011 -0.0602052 0.000234314)
(3.84581 -0.0600574 0.000180624)
(3.84154 -0.0599178 0.000115625)
(3.83731 -0.059785 4.46762e-05)
(3.83312 -0.0596573 -3.33475e-05)
(3.82896 -0.0595332 -0.000116565)
(3.82484 -0.059412 -0.000195677)
(3.82074 -0.0592931 -0.000265088)
(3.81668 -0.0591759 -0.000330723)
(3.81265 -0.05906 -0.000404117)
(3.80865 -0.0589448 -0.000486032)
(3.80468 -0.0588301 -0.000563947)
(3.80074 -0.0587158 -0.00063127)
(3.79683 -0.0586017 -0.000693217)
(3.79294 -0.0584876 -0.000753519)
(3.78908 -0.0583734 -0.000814968)
(3.78525 -0.058259 -0.000873933)
(3.78144 -0.0581445 -0.000922111)
(3.77766 -0.05803 -0.000960541)
(3.77391 -0.0579167 -0.00100314)
(3.77019 -0.0578089 -0.00106425)
(3.76661 -0.0577204 -0.00113703)
(3.76266 -0.0578498 -0.00118885)
(4.00711 0.103949 0.00115493)
(4.00323 0.133628 0.00178384)
(4.00185 0.134107 0.00236935)
(4.00114 0.129352 0.00272347)
(4.00149 0.123243 0.00282814)
(4.00245 0.116683 0.00283073)
(4.00359 0.1104 0.00276141)
(4.00478 0.104717 0.00260142)
(4.00595 0.099679 0.0024061)
(4.00706 0.0952488 0.00223735)
(4.00811 0.0913726 0.00208059)
(4.00907 0.0879903 0.00192715)
(4.00996 0.0850412 0.00181268)
(4.01078 0.0824697 0.00175999)
(4.01152 0.0802267 0.00176148)
(4.0122 0.0782689 0.00179334)
(4.01282 0.0765582 0.00184107)
(4.01338 0.0750612 0.00190401)
(4.0139 0.0737497 0.00197323)
(4.01437 0.0725988 0.00203627)
(4.0148 0.0715864 0.00209624)
(4.0152 0.0706932 0.00216391)
(4.01556 0.0699028 0.00223601)
(4.0159 0.0692016 0.00229967)
(4.01621 0.0685773 0.00236003)
(4.01649 0.068019 0.00242873)
(4.01676 0.0675179 0.00250113)
(4.017 0.0670664 0.00257352)
(4.01723 0.0666577 0.00265195)
(4.01745 0.0662861 0.00273612)
(4.01764 0.0659468 0.00282152)
(4.01783 0.0656356 0.00290826)
(4.01801 0.0653489 0.00299442)
(4.01817 0.0650836 0.00307496)
(4.01833 0.0648368 0.00314898)
(4.01848 0.0646063 0.00322)
(4.01862 0.0643899 0.0032926)
(4.01876 0.0641857 0.00336517)
(4.01889 0.0639922 0.00342991)
(4.01901 0.0638081 0.0034858)
(4.01913 0.0636319 0.00353594)
(4.01925 0.0634605 0.00357861)
(4.01936 0.0632936 0.00361553)
(4.01948 0.0631304 0.00365504)
(4.01959 0.0629704 0.00370188)
(4.01969 0.0628132 0.00375053)
(4.0198 0.0626584 0.00379023)
(4.0199 0.0625058 0.0038205)
(4.02 0.062355 0.00385299)
(4.02011 0.0622056 0.00389337)
(4.02021 0.0620574 0.00393688)
(4.0203 0.0619102 0.0039798)
(4.0204 0.061764 0.00402021)
(4.0205 0.0616186 0.00406176)
(4.0206 0.0614736 0.00411175)
(4.0207 0.0613285 0.00417032)
(4.0208 0.061181 0.00422548)
(4.02091 0.0610217 0.00426304)
(4.02105 0.0608212 0.00428742)
(4.02116 0.060312 0.00431334)
(3.98982 -0.0197033 -0.000117782)
(3.98186 -0.0407168 0.000339492)
(3.98279 -0.0575927 0.00117423)
(3.98641 -0.0670416 0.00193141)
(3.9902 -0.0718552 0.00245784)
(3.9938 -0.0743718 0.00281005)
(3.99713 -0.0755531 0.00303394)
(4.00015 -0.0759122 0.00313949)
(4.00286 -0.0758096 0.0031731)
(4.0053 -0.0754661 0.00318819)
(4.0075 -0.075002 0.00317609)
(4.00949 -0.0744841 0.00313221)
(4.01129 -0.0739509 0.00309208)
(4.01293 -0.0734222 0.003085)
(4.01442 -0.0729073 0.00311487)
(4.01579 -0.07241 0.00316662)
(4.01705 -0.0719317 0.00322984)
(4.01821 -0.0714724 0.00330734)
(4.01928 -0.0710308 0.00339758)
(4.02028 -0.0706054 0.00349405)
(4.02122 -0.0701959 0.00359466)
(4.0221 -0.0698019 0.00370321)
(4.02292 -0.0694223 0.00381516)
(4.02371 -0.0690559 0.00391933)
(4.02446 -0.068702 0.00401882)
(4.02517 -0.0683603 0.00412088)
(4.02586 -0.06803 0.00422079)
(4.02652 -0.0677099 0.00431664)
(4.02716 -0.0673997 0.00441328)
(4.02779 -0.0670988 0.0045098)
(4.02839 -0.0668063 0.00460413)
(4.02899 -0.0665214 0.0046981)
(4.02957 -0.0662437 0.00479001)
(4.03015 -0.0659727 0.0048759)
(4.03072 -0.0657078 0.00495604)
(4.03128 -0.0654489 0.00503411)
(4.03184 -0.0651955 0.00511429)
(4.03239 -0.0649476 0.00519488)
(4.03294 -0.0647047 0.005269)
(4.0335 -0.0644666 0.00533613)
(4.03405 -0.0642332 0.00539782)
(4.0346 -0.0640025 0.00545102)
(4.03515 -0.0637749 0.00549768)
(4.0357 -0.0635503 0.00554535)
(4.03626 -0.0633291 0.00559758)
(4.03682 -0.0631112 0.00564925)
(4.03737 -0.0628961 0.00569055)
(4.03794 -0.0626836 0.00572234)
(4.0385 -0.0624735 0.00575577)
(4.03907 -0.0622662 0.00579511)
(4.03964 -0.0620614 0.00583572)
(4.04021 -0.0618591 0.0058738)
(4.04079 -0.061659 0.00590886)
(4.04137 -0.0614613 0.0059448)
(4.04196 -0.0612662 0.00598741)
(4.04255 -0.0610744 0.00603813)
(4.04314 -0.0608886 0.00608689)
(4.04374 -0.0607192 0.0061199)
(4.04431 -0.060597 0.00613998)
(4.04474 -0.0606634 0.00616047)
(3.99816 -0.00164655 0.000261983)
(3.99613 0.00881925 0.000664743)
(3.9991 0.0200308 0.00107735)
(4.00296 0.029968 0.0013381)
(4.0059 0.0382698 0.00139045)
(4.00819 0.0448713 0.00132299)
(4.01014 0.0501326 0.00122696)
(4.01184 0.0543959 0.00111463)
(4.01334 0.0578724 0.0010092)
(4.01469 0.0607077 0.000932345)
(4.01593 0.0630213 0.00086376)
(4.01708 0.0649059 0.000785629)
(4.01815 0.0664331 0.000713525)
(4.01916 0.067661 0.000668265)
(4.02011 0.0686384 0.000656572)
(4.02102 0.0694054 0.000666486)
(4.02188 0.0699954 0.000687821)
(4.02269 0.0704362 0.000723984)
(4.02348 0.0707521 0.000778527)
(4.02423 0.0709633 0.000848274)
(4.02495 0.0710865 0.000927211)
(4.02565 0.0711354 0.00101239)
(4.02632 0.0711222 0.00109823)
(4.02698 0.0710577 0.00117722)
(4.02761 0.0709507 0.00125121)
(4.02824 0.0708081 0.00132322)
(4.02884 0.0706365 0.00138905)
(4.02944 0.0704416 0.00144892)
(4.03002 0.0702277 0.0015062)
(4.0306 0.0699988 0.00155951)
(4.03117 0.0697584 0.00160978)
(4.03173 0.0695096 0.00166086)
(4.03229 0.0692547 0.00171154)
(4.03284 0.0689958 0.00175939)
(4.03339 0.0687346 0.00180605)
(4.03394 0.0684725 0.00185509)
(4.03449 0.0682105 0.00190978)
(4.03504 0.0679492 0.00196808)
(4.03559 0.0676896 0.00202437)
(4.03613 0.0674324 0.00207888)
(4.03668 0.0671776 0.00213165)
(4.03723 0.0669251 0.00217766)
(4.03779 0.0666749 0.0022183)
(4.03834 0.0664271 0.00225941)
(4.0389 0.0661817 0.00230284)
(4.03946 0.0659389 0.00234396)
(4.04002 0.0656987 0.00237507)
(4.04059 0.065461 0.00239833)
(4.04116 0.0652261 0.0024237)
(4.04174 0.0649936 0.00245335)
(4.04231 0.0647637 0.00248269)
(4.0429 0.0645364 0.00250791)
(4.04349 0.0643118 0.00252991)
(4.04408 0.0640899 0.00255234)
(4.04467 0.0638703 0.00257908)
(4.04527 0.0636524 0.0026128)
(4.04588 0.0634347 0.00264544)
(4.04647 0.0632119 0.00266355)
(4.04704 0.062971 0.00266747)
(4.04766 0.0626762 0.00267162)
(3.99793 -0.00102078 0.000197045)
(3.99506 -0.00120454 0.000485396)
(3.99582 -0.00450108 0.000905049)
(3.99828 -0.0103119 0.00128736)
(4.00072 -0.0172443 0.0014757)
(4.00308 -0.0244324 0.00150605)
(4.00545 -0.0313202 0.00149413)
(4.00772 -0.0376079 0.00149155)
(4.00983 -0.0431856 0.00149668)
(4.01179 -0.0480412 0.00150461)
(4.01358 -0.0522114 0.00149733)
(4.01523 -0.0557566 0.00145901)
(4.01675 -0.0587465 0.00139756)
(4.01815 -0.0612501 0.00133552)
(4.01944 -0.063331 0.00129045)
(4.02063 -0.0650467 0.00125912)
(4.02174 -0.0664487 0.00123623)
(4.02277 -0.0675821 0.00122862)
(4.02374 -0.0684859 0.00124522)
(4.02465 -0.069194 0.00128696)
(4.02551 -0.0697358 0.00134592)
(4.02632 -0.0701371 0.00141556)
(4.0271 -0.0704193 0.00149039)
(4.02784 -0.0706009 0.00156402)
(4.02854 -0.070698 0.00163576)
(4.02922 -0.0707245 0.00170424)
(4.02988 -0.0706918 0.00176536)
(4.03052 -0.0706099 0.00182035)
(4.03114 -0.0704875 0.00187025)
(4.03175 -0.0703317 0.00191285)
(4.03235 -0.0701487 0.00195144)
(4.03293 -0.0699433 0.00199111)
(4.03351 -0.0697201 0.00203094)
(4.03408 -0.0694825 0.00206983)
(4.03464 -0.0692338 0.00211036)
(4.0352 -0.0689766 0.00215555)
(4.03576 -0.0687134 0.00220718)
(4.03631 -0.0684461 0.0022624)
(4.03687 -0.0681761 0.00231699)
(4.03742 -0.0679047 0.00237186)
(4.03797 -0.0676332 0.00242509)
(4.03853 -0.0673623 0.00247114)
(4.03908 -0.0670925 0.00251176)
(4.03964 -0.0668245 0.00255157)
(4.0402 -0.0665589 0.00259095)
(4.04076 -0.0662961 0.0026255)
(4.04132 -0.0660357 0.0026497)
(4.04189 -0.0657776 0.00266732)
(4.04247 -0.0655221 0.002687)
(4.04304 -0.0652696 0.00270896)
(4.04362 -0.0650202 0.00272901)
(4.04421 -0.0647739 0.00274405)
(4.04479 -0.0645307 0.00275607)
(4.04539 -0.0642905 0.00276802)
(4.04598 -0.0640538 0.00278188)
(4.04658 -0.0638206 0.00280104)
(4.04718 -0.0635916 0.0028191)
(4.04778 -0.0633694 0.00282372)
(4.04832 -0.0631616 0.00281476)
(4.04886 -0.0629927 0.00280917)
(3.99793 0.00101824 0.000179863)
(3.99506 0.00120067 0.000451476)
(3.99582 0.00449743 0.000857611)
(3.99828 0.0103108 0.00122721)
(4.00072 0.0172476 0.00140155)
(4.00309 0.0244409 0.00141593)
(4.00545 0.0313373 0.00140254)
(4.00772 0.037639 0.00142146)
(4.00984 0.0432309 0.00145632)
(4.01179 0.0480987 0.00148796)
(4.01358 0.0522806 0.00150624)
(4.01523 0.0558371 0.00149732)
(4.01675 0.0588356 0.00145912)
(4.01815 0.0613443 0.00141068)
(4.01944 0.063428 0.00137277)
(4.02063 0.0651451 0.00134451)
(4.02174 0.0665478 0.0013219)
(4.02277 0.0676815 0.00131225)
(4.02374 0.0685856 0.00132559)
(4.02465 0.0692943 0.00136415)
(4.02551 0.0698371 0.00141955)
(4.02632 0.0702391 0.00148393)
(4.0271 0.0705223 0.00155231)
(4.02784 0.0707054 0.00162047)
(4.02854 0.0708042 0.00168721)
(4.02923 0.0708323 0.00174946)
(4.02988 0.0708014 0.00180491)
(4.03052 0.0707216 0.00185594)