/*--------------------------------*- C++ -*----------------------------------*\
  =========                 |
  \\      /  F ield         | OpenFOAM: The Open Source CFD Toolbox
   \\    /   O peration     | Website:  https://openfoam.org
    \\  /    A nd           | Version:  8
     \\/     M anipulation  |
\*---------------------------------------------------------------------------*/
FoamFile
{
    version     2.0;
    format      ascii;
    class       volScalarField;
    location    "500";
    object      p_rgh;
}
// * * * * * * * * * * * * * * * * * * * * * * * * * * * * * * * * * * * * * //

dimensions      [1 -1 -2 0 0 0 0];

internalField   nonuniform List<scalar> 
8400
(
0.288016
19.3041
35.2619
50.7043
65.9066
81.0925
96.4062
111.963
127.867
144.221
161.132
178.716
197.099
216.428
236.864
258.596
281.837
306.833
333.869
363.278
395.443
430.802
469.865
513.263
561.749
616.081
676.953
745.313
822.416
909.661
1008.65
1121.24
1249.54
1396.04
1563.58
1755.48
1975.57
2228.33
2519
2853.71
3239.64
3685.32
4201.4
4801.79
5502.91
6318.87
7264.85
8401.6
9895.74
11841.6
-9.53479
4.52145
18.3176
32.5497
46.8352
61.1864
75.6711
90.372
105.376
120.774
136.663
153.148
170.349
188.399
207.449
227.673
249.269
272.466
297.527
324.763
354.536
387.255
423.37
463.416
508.002
557.845
613.854
677.008
748.368
829.213
921.03
1025.54
1144.73
1280.9
1436.68
1615.13
1819.76
2054.62
2324.41
2634.51
2991.1
3401.28
3873.57
4418.4
5047.03
5767.82
6587.96
7538.36
8702.33
10130.7
22.1169
40.558
56.8007
72.19
87.457
102.833
118.433
134.343
150.647
167.434
184.801
202.856
221.721
241.533
262.45
284.654
308.348
333.768
361.186
390.921
423.354
458.9
497.982
541.088
588.824
641.907
701.229
767.78
842.657
927.138
1022.7
1131.06
1254.19
1394.36
1554.2
1736.73
1945.43
2184.31
2457.97
2771.68
3131.42
3543.98
4017.25
4560.24
5182.09
5889.84
6689.31
7595.43
8638.78
9814.6
-14.8754
-10.3513
-0.314538
11.8034
24.629
37.7749
51.147
64.7504
78.6279
92.8405
107.461
122.575
138.276
154.678
171.907
190.112
209.464
230.149
252.391
276.439
302.603
331.27
362.903
397.973
436.988
480.577
529.467
584.497
646.634
717
796.898
887.831
991.537
1110.02
1245.59
1400.89
1578.98
1783.36
2018.01
2287.49
2596.93
2952.11
3359.58
3826.6
4360.43
4967.21
5652.4
6425.11
7300.1
8273.76
37.6164
59.4228
76.5143
91.7076
106.561
121.497
136.664
152.135
167.971
184.236
201.004
218.359
236.396
255.225
274.975
295.795
317.855
341.337
366.441
393.405
422.478
453.975
488.296
525.902
567.3
613.079
663.913
720.573
783.946
855.051
935.063
1025.33
1127.42
1243.09
1374.4
1523.66
1693.51
1886.95
2107.32
2358.39
2644.25
2969.39
3338.58
3756.76
4228.43
4756.81
5343.41
5990.25
6703.58
7482.04
-23.1558
-22.6295
-14.4636
-3.47618
8.4603
20.8053
33.4048
46.2314
59.3034
72.6599
86.3524
100.443
115.003
130.117
145.883
162.416
179.862
198.397
218.209
239.503
262.516
287.504
314.782
344.719
377.742
414.345
455.101
500.672
551.82
609.427
674.511
748.248
831.991
927.294
1035.94
1159.96
1301.68
1463.72
1649.01
1860.83
2102.73
2378.56
2692.32
3047.99
3449.16
3898.13
4395.08
4939.03
5532.04
6174.76
44.8768
68.9769
86.3352
100.99
115.017
128.988
143.091
157.397
171.948
186.786
201.954
217.506
233.5
250.001
267.085
284.832
303.342
322.74
343.183
364.839
387.902
412.592
439.165
467.919
499.193
533.38
570.934
612.375
658.305
709.415
766.504
830.488
902.423
983.517
1075.15
1178.9
1296.55
1430.1
1581.81
1754.14
1949.78
2171.6
2422.51
2705.41
3022.87
3376.48
3766
4190.05
4650.21
5148.93
-27.7216
-29.0456
-21.7569
-11.3263
0.122777
11.9843
24.0818
36.3736
48.8624
61.5687
74.526
87.7749
101.367
115.36
129.818
144.813
160.425
176.747
193.889
211.981
231.167
251.618
273.53
297.13
322.682
350.489
380.901
414.321
451.216
492.12
537.65
588.516
645.532
709.632
781.88
863.487
955.822
1060.42
1178.99
1313.41
1465.68
1637.93
1832.29
2050.83
2295.37
2566.97
2865.27
3189.09
3539.85
3920.83
47.0654
71.5559
88.4293
102.233
115.224
128.028
140.838
153.715
166.681
179.749
192.931
206.245
219.711
233.361
247.228
261.353
275.781
290.568
305.778
321.486
337.778
354.753
372.529
391.24
411.045
432.126
454.696
479.001
505.327
534.006
565.422
600.02
638.314
680.896
728.448
781.751
841.695
909.287
985.66
1072.07
1169.89
1280.59
1405.68
1546.69
1705.06
1881.79
2076.98
2290.35
2523.72
2780.98
-28.8827
-30.9161
-24.1654
-14.2297
-3.29337
8.01532
19.5056
31.1217
42.8498
54.6899
66.6468
78.7288
90.9473
103.318
115.857
128.586
141.527
154.709
168.161
181.92
196.026
210.525
225.471
240.924
256.952
273.633
291.058
309.328
328.562
348.894
370.48
393.499
418.157
444.697
473.394
504.572
538.605
575.927
617.04
662.522
713.035
769.332
832.257
902.761
981.873
1070.56
1169.53
1279.52
1403.03
1544.65
46.0718
69.8777
85.9555
98.9205
111.009
122.831
134.565
146.251
157.893
169.481
181.003
192.445
203.795
215.037
226.16
237.146
247.98
258.643
269.116
279.376
289.398
299.155
308.616
317.747
326.508
334.858
342.749
350.127
356.933
363.104
368.568
373.248
377.061
379.92
381.734
382.413
381.87
380.031
376.844
372.295
366.427
359.376
351.415
343.015
334.906
328.118
324.012
324.568
333.252
355.336
-27.7293
-29.8896
-23.6483
-14.3911
-4.22661
6.22478
16.7602
27.3044
37.8199
48.2807
58.6634
68.9447
79.0998
89.1016
98.9199
108.52
117.863
126.904
135.589
143.858
151.642
158.856
165.407
171.183
176.056
179.877
182.472
183.642
183.154
180.743
176.1
168.874
158.661
145.005
127.388
105.231
77.8933
44.6766
4.83515
-42.4028
-97.8005
-162.053
-235.696
-318.982
-411.735
-513.154
-621.518
-733.878
-845.685
-949.695
42.6544
65.1
80.3167
92.6473
104.15
115.371
126.452
137.413
148.234
158.882
169.321
179.51
189.402
198.946
208.083
216.749
224.866
232.349
239.098
244.997
249.914
253.697
256.168
257.125
256.333
253.52
248.374
240.535
229.59
215.062
196.404
172.993
144.114
108.956
66.6026
16.0217
-43.9344
-114.529
-197.128
-293.177
-404.157
-531.501
-676.464
-839.935
-1022.22
-1222.73
-1439.44
-1668.21
-1902.49
-2133.11
-24.18
-25.8617
-20.0146
-11.5011
-2.22988
7.21244
16.6149
25.8824
34.9542
43.7788
52.3046
60.4763
68.2329
75.5058
82.2172
88.2782
93.5869
98.0263
101.461
103.737
104.674
104.066
101.673
97.2206
90.39
80.8138
68.068
51.6631
31.0346
5.53214
-25.5935
-63.2038
-108.288
-161.978
-225.569
-300.532
-388.531
-491.434
-611.316
-750.446
-911.261
-1096.3
-1308.05
-1548.72
-1819.96
-2122.51
-2455.43
-2814.89
-3193.02
-3575.65
35.9155
56.1317
70.279
82.0645
93.1673
104.008
114.679
125.17
135.444
145.45
155.134
164.431
173.271
181.571
189.239
196.166
202.229
207.285
211.166
213.681
214.607
213.685
210.615
205.05
196.586
184.757
169.021
148.751
123.219
91.5846
52.8732
5.95958
-50.4557
-117.87
-198.005
-292.835
-404.611
-535.888
-689.536
-868.742
-1076.99
-1318.02
-1595.62
-1913.34
-2274
-2679.41
-3129.69
-3621.09
-4142.41
-4673.22
-17.4164
-17.3865
-11.2648
-3.06292
5.6638
14.4116
22.9831
31.2755
39.2141
46.7285
53.7447
60.1811
65.9456
70.9332
75.0241
78.0808
79.945
80.435
79.341
76.4215
71.3975
63.9477
53.7005
40.2275
23.0337
1.54715
-24.8924
-57.0479
-95.8004
-142.168
-197.325
-262.628
-339.64
-430.165
-536.277
-660.358
-805.139
-973.737
-1169.69
-1396.98
-1660.06
-1963.84
-2313.65
-2714.81
-3172.17
-3690.1
-4273.03
-4923.1
-5631.42
-6367.02
23.4007
40.822
53.6965
64.9508
75.6599
86.0866
96.2738
106.198
115.812
125.058
133.868
142.164
149.855
156.839
162.994
168.181
172.239
174.982
176.193
175.621
172.975
167.919
160.062
148.95
134.057
114.773
90.3921
60.0923
22.9214
-22.2256
-76.6316
-141.786
-219.418
-311.536
-420.474
-548.942
-700.089
-877.573
-1085.64
-1329.18
-1613.86
-1946.23
-2333.83
-2784.91
-3307.72
-3910.67
-4604.67
-5401.42
-6294.39
-7232.98
-9.26582
-4.6475
3.28689
12.2091
21.1946
29.9699
38.4219
46.479
54.0742
61.1345
67.5765
73.3044
78.2074
82.1577
85.0081
86.5884
86.7026
85.1239
81.5907
75.8008
67.4047
55.9981
41.1136
22.2102
-1.33864
-30.2584
-65.3899
-107.708
-158.343
-218.608
-290.026
-374.369
-473.699
-590.415
-727.315
-887.663
-1075.27
-1294.61
-1550.91
-1850.28
-2199.86
-2608.06
-3084.87
-3641.8
-4290.62
-5042.74
-5913.57
-6928.38
-8100.2
-9365.01
1.43207
20.4772
32.7292
43.6331
53.8929
63.7547
73.2623
82.3978
91.1162
99.3561
107.042
114.086
120.381
125.808
130.223
133.464
135.341
135.633
134.086
130.407
124.252
115.227
102.875
86.6644
65.9811
40.1128
8.23368
-30.6137
-77.5401
-133.835
-200.995
-280.761
-375.156
-486.536
-617.65
-771.704
-952.452
-1164.3
-1412.44
-1702.97
-2043.06
-2441.31
-2908.36
-3457.27
-4102.09
-4855.58
-5737.13
-6800.61
-8132
-9706
-1.42928
8.41861
18.3304
28.232
37.8554
47.1403
56.048
64.5357
72.5493
80.0211
86.8698
92.999
98.2958
102.629
105.846
107.77
108.198
106.893
103.581
97.9463
89.6224
78.1851
63.1432
43.9275
19.8782
-9.76974
-45.904
-89.555
-141.92
-204.391
-278.587
-366.398
-470.027
-592.051
-735.494
-903.908
-1101.49
-1333.23
-1605.09
-1924.22
-2299.28
-2740.96
-3263.14
-3884.16
-4625.92
-5511.11
-6575.33
-7922.66
-9762.49
-12139.4
29236.9
21074.8
17041.8
15523.4
14688.9
14080.1
13656.5
13372.2
13172
13020.9
12901.2
12803
12719.8
12647.1
12581.8
12521.8
12465.5
12411.8
12359.8
12308.6
12257.6
12206.1
12153.5
12099.1
12042.4
11982.6
11918.9
11850.5
11776.2
11695.1
11605.7
11506.6
11395.9
11271.7
11131.5
10972.4
10791
10583.1
10344.1
10067.9
9747.48
9374.13
8937.22
8423.24
7814.7
7088.14
6210.62
5132.87
3774.49
1998.81
3701.94
8291.15
9792.87
10359.1
10793.4
11119
11343.4
11503.5
11622.4
11711.2
11777.3
11826
11861.3
11886
11901.8
11910.3
11912.6
11909.4
11901.3
11888.5
11871.5
11850.1
11824.5
11794.5
11759.8
11720.1
11674.8
11623.3
11564.8
11498.4
11422.6
11336.3
11237.6
11124.5
10994.9
10845.9
10674.4
10476.3
10247.2
9981.59
9672.79
9312.64
8891.16
8396
7811.73
7118.78
6292.22
5300.51
4106.14
2675.23
11031.4
13201.5
14384.6
14487.3
14330.6
14159
13972.7
13781.5
13603.1
13444
13303.2
13178.3
13066.8
12966.6
12875.5
12792
12714.5
12641.7
12572.5
12506
12441.4
12377.8
12314.6
12250.9
12186.1
12119.3
12049.8
11976.7
11899.1
11815.8
11725.7
11627.2
11518.6
11397.8
11262.5
11110.2
10937.5
10741
10516.1
10257.8
9959.94
9615.29
9215.19
8749.25
8205.07
7567.97
6820.91
5945.37
4924.12
3748.87
11380
11789.1
11980.6
11909
11806.7
11763.4
11751.7
11749.5
11753.8
11763.6
11776.3
11789
11800.4
11809.6
11816
11819.4
11819.6
11816.4
11810
11800.1
11786.8
11770
11749.5
11725
11696.3
11663
11624.6
11580.5
11529.9
11472.2
11406.4
11331.2
11245.3
11147
11034.4
10905
10756.1
10584.4
10386.1
10156.8
9891.28
9583.37
9226.01
8811.03
8329.22
7770.54
7124.83
6383.38
5542.32
4608.48
11919.1
12168.2
12484.8
12716.5
12856.4
12945.6
12998
13016.9
13010.5
12987.6
12953.8
12912.9
12867.3
12818.8
12768.5
12717.2
12665.4
12613.3
12560.9
12508.3
12455.3
12401.7
12347.2
12291.5
12234.3
12175.1
12113.4
12048.3
11979.2
11905.1
11825.1
11738
11642.6
11537.2
11420.1
11289.1
11141.8
10975.5
10786.7
10571.7
10326.1
10045
9722.88
9353.48
8930.32
8446.93
7897.68
7279.22
6592.93
5847.58
12122.8
12208.4
12316.5
12378.6
12381.2
12353.1
12314.7
12272.4
12229.3
12188.1
12150.1
12115.7
12084.4
12055.8
12029.2
12004.1
11979.9
11956.2
11932.5
11908.4
11883.6
11857.6
11830.1
11800.8
11769.1
11734.9
11697.5
11656.5
11611.3
11561.1
11505.1
11442.4
11371.9
11292.3
11202.2
11099.7
10982.9
10849.6
10696.9
10522
10321.5
10091.5
9828.04
9526.75
9183.42
8794.36
8357.1
7871.57
7341.82
6777.36
12235.9
12280.3
12352
12424.3
12479.6
12520.5
12552.1
12575.1
12589.2
12595
12593.8
12586.6
12574.1
12557.2
12536.4
12512.3
12485.5
12456.1
12424.6
12391.2
12355.9
12318.9
12280.1
12239.4
12196.8
12151.9
12104.5
12054.4
12001
11943.9
11882.5
11816
11743.6
11664.3
11577
11480.3
11372.6
11252.2
11117.1
10964.9
10793.3
10599.5
10380.7
10133.9
9856.69
9547.06
9204.29
8829.6
8427.15
8004.27
12294.5
12316.7
12354.4
12394.4
12422.6
12435.5
12435.6
12425.7
12407.6
12383.6
12355.4
12324.8
12292.8
12260.2
12227.5
12195.1
12163
12131.4
12100.2
12069.2
12038.4
12007.6
11976.4
11944.9
11912.6
11879.2
11844.5
11808.1
11769.7
11728.7
11684.6
11637
11585
11528.1
11465.3
11395.6
11318
11231.2
11133.8
11024.3
10901
10762.2
10606.1
10431.2
10236.1
10020.1
9783.54
9528.27
9258.23
8979.58
12325.9
12339.5
12364.5
12395.2
12422.7
12443
12456.2
12463.3
12465.2
12462.3
12455.5
12445.3
12432.1
12416.5
12398.7
12379
12357.6
12334.6
12310.3
12284.8
12258.1
12230.2
12201.3
12171.2
12140.1
12107.8
12074.3
12039.3
12002.9
11964.7
11924.6
11882.2
11837.2
11789.2
11737.7
11682.2
11622
11556.6
11485.1
11406.7
11320.5
11225.7
11121.4
11007
10882.1
10746.7
10601.6
10448.5
10290.3
10130.9
12340
12350.1
12369.3
12393.8
12416.7
12433.4
12442.7
12444.9
12440.8
12431
12416.7
12398.8
12378.1
12355.4
12331.1
12305.9
12279.9
12253.5
12226.9
12200
12173.1
12146.2
12119.2
12092.2
12065.1
12037.9
12010.6
11983
11955.2
11927
11898.3
11869.1
11839.2
11808.5
11776.8
11744.1
11710
11674.6
11637.5
11598.6
11557.8
11515.1
11470.3
11423.7
11375.5
11326.3
11277.1
11229.4
11185
11146.6
12341.2
12351.3
12370.5
12395.2
12418.2
12435
12444.5
12446.9
12443.1
12433.7
12419.8
12402.4
12382.3
12360.2
12336.8
12312.5
12287.7
12262.7
12237.6
12212.6
12187.8
12163.3
12139.2
12115.6
12092.4
12069.7
12047.7
12026.3
12005.6
11985.7
11966.7
11948.8
11932
11916.5
11902.5
11890.4
11880.3
11872.6
11867.7
11866.1
11868.4
11875.1
11887.1
11905.1
11930.1
11963
12004.9
12056.7
12119.3
12193.4
12329.4
12343.1
12368.3
12399.1
12427
12447.7
12461.4
12469.3
12472
12470.1
12464.4
12455.5
12444
12430.3
12414.7
12397.6
12379.3
12359.9
12339.8
12319.2
12298.2
12277.1
12256.1
12235.3
12215
12195.4
12176.7
12159.1
12143
12128.6
12116.3
12106.3
12099.2
12095.5
12095.7
12100.5
12110.5
12126.8
12150.2
12181.9
12223.1
12275.2
12339.7
12418
12511.6
12622.1
12750.3
12896.8
13061.6
13243.7
12300.2
12322.5
12360.5
12400.9
12429.6
12443.2
12444.3
12435.5
12418.8
12396.4
12370.2
12342
12312.7
12283.4
12254.6
12226.6
12199.9
12174.4
12150.4
12127.9
12107
12087.7
12070.1
12054.2
12040.2
12028.2
12018.5
12011.2
12006.6
12005.2
12007.4
12013.6
12024.5
12040.8
12063.4
12093.2
12131.5
12179.5
12238.7
12310.9
12398
12502
12625.1
12769.7
12937.9
13131.6
13352.1
13599.9
13873.9
14172.2
12243.8
12288.3
12360.4
12433.1
12489.2
12531.1
12564
12588.5
12604.3
12612.4
12613.8
12609.6
12600.8
12588.2
12572.5
12554.4
12534.5
12513.3
12491.4
12469.1
12446.9
12425.1
12404.1
12384.3
12366.1
12349.9
12336
12325.1
12317.5
12314
12315.2
12321.8
12334.8
12355.2
12384.3
12423.3
12473.8
12537.8
12617.1
12714.2
12831.6
12972.2
13139
13335.1
13563.5
13826.9
14127.2
14464.6
14837.4
15241.7
12132.6
12218.4
12326.9
12389.6
12393.2
12366.3
12329.5
12289.1
12248.3
12209.9
12175.3
12144.8
12118.2
12095.1
12074.9
12057.3
12042
12028.6
12017
12007.1
11998.9
11992.3
11987.5
11984.6
11984
11986
11990.8
11999.1
12011.3
12028.2
12050.5
12079.2
12115.4
12160.2
12215.2
12282.1
12362.7
12459.5
12574.8
12711.8
12873.5
13063.8
13286.5
13545.8
13845.9
14190.7
14583.2
15024.8
15513.8
16046.4
11930.5
12179.8
12496.9
12729.4
12870.4
12961.1
13015.2
13036.3
13032.6
13012.8
12982.9
12946.5
12906.3
12864.1
12821.3
12778.8
12737.2
12697.1
12658.8
12622.7
12588.9
12557.8
12529.7
12504.7
12483.3
12465.9
12452.9
12444.9
12442.5
12446.5
12457.8
12477.5
12506.7
12546.9
12599.8
12667.4
12752
12856
12982.7
13135.5
13318.2
13535.4
13792
14093.4
14445.1
14852.6
15320.8
15852.5
16446.9
17098.5
11392.9
11802.2
11994.2
11923.4
11822.4
11780.6
11771
11771.3
11778.6
11792.1
11809.1
11827
11844.4
11860.7
11875.5
11888.7
11900.3
11910.6
11919.9
11928.5
11936.7
11945.1
11954
11963.9
11975.5
11989.3
12006
12026.4
12051.4
12081.8
12118.9
12163.9
12218.4
12283.9
12362.5
12456.4
12568.3
12701.2
12858.6
13044.5
13263.5
13521.1
13823.1
14176.4
14588.4
15066.9
15619.9
16254
16972.4
17773.4
11045.3
13215.6
14399.3
14502.9
14347.6
14177.6
13993.4
13805
13630
13474.8
13338.8
13219.5
13114.6
13022.1
12940.3
12867.5
12802.5
12744.4
12692.4
12646.1
12605
12569
12537.9
12511.8
12491
12475.5
12466
12462.8
12466.8
12478.8
12499.7
12530.8
12573.7
12629.9
12701.6
12791.2
12901.3
13035.4
13197.1
13391
13622.1
13896.6
14221.5
14604.9
15056.2
15586.3
16206.9
16930.4
17766.9
18721.6
3716.54
8306.01
9808.31
10375.6
10811.2
11138.6
11365.2
11528.1
11650.4
11743.3
11814.3
11868.8
11910.9
11943.6
11968.9
11988.6
12003.9
12015.9
12025.6
12033.8
12041.2
12048.5
12056.3
12065.4
12076.4
12090
12107.2
12128.7
12155.6
12188.9
12230
12280.3
12341.5
12415.5
12504.5
12611.3
12738.7
12890.4
13070.4
13283.5
13535.3
13832.6
14183.1
14596.2
15083.3
15658.1
16337.5
17142
18095.4
19223.6
29251.8
21089.9
17057.5
15540.1
14707.1
14100.2
13679
13397.7
13201
13054.2
12939.6
12847.4
12771.3
12706.9
12651.4
12603
12560.2
12522.3
12488.8
12459.2
12433.5
12411.6
12393.5
12379.6
12370.2
12365.6
12366.4
12373.3
12387.2
12409
12439.9
12481.2
12534.7
12602.2
12685.9
12788.5
12913
13063.1
13242.8
13457.2
13712.2
14014.6
14372.9
14797.2
15300.2
15898.2
16612.8
17474.7
18531.1
19863.8
-20151.8
-15536.2
-13965.2
-10007
-8039.92
-4621.83
-2519.95
535.766
2641.14
5450.43
7481.72
10125.8
12025
14573.1
16281
18804.8
20237.3
22821.6
23822.6
26456.9
-20081.7
-15478.1
-13916.2
-9959.02
-7997.98
-4577.5
-2480.39
578.435
2680.35
5492.73
7521.48
10169.1
12066.5
14619.5
16327.2
18858.9
20295.1
22895.3
23911.1
26585
-20019.9
-15418.1
-13864.8
-9907.89
-7952.69
-4530.3
-2437.47
624.058
2722.85
5538.34
7564.91
10216.2
12112.6
14670.4
16379
18917.8
20358.6
22970.4
23997
26689.2
-19962.4
-15358.8
-13812.4
-9854.78
-7905.03
-4480.68
-2391.93
672.264
2768.05
5586.7
7611.25
10266.3
12161.9
14724.4
16433.8
18978.8
20423.5
23043.4
24076
26776.8
-19907.2
-15300.1
-13759.4
-9800.35
-7855.61
-4429.1
-2344.27
722.636
2815.5
5637.32
7659.89
10318.7
12213.4
14780.2
16490.3
19040.5
20487.8
23113.2
24148.6
26854.8
-19853
-15241.8
-13705.9
-9744.98
-7804.87
-4375.98
-2294.94
774.761
2864.74
5689.72
7710.3
10372.7
12266.3
14837.2
16547.5
19102
20550.5
23180.1
24216.5
26926.6
-19799.3
-15183.7
-13652.1
-9688.88
-7753.1
-4321.65
-2244.27
828.274
2915.39
5743.48
7762
10427.8
12320.2
14894.6
16604.7
19162.7
20611.5
23244.4
24280.6
26994.1
-19745.8
-15125.6
-13597.9
-9632.19
-7700.53
-4266.37
-2192.56
882.858
2967.12
5798.23
7814.6
10483.6
12374.5
14952.1
16661.6
19222.6
20670.9
23306.5
24342
27058.5
-19692.2
-15067.3
-13543.4
-9575.01
-7647.33
-4210.35
-2140.05
938.252
3019.63
5853.68
7867.82
10539.8
12429.1
15009.6
16717.9
19281.5
20728.9
23366.8
24401.1
27120.5
-19638.5
-15008.9
-13488.6
-9517.42
-7593.63
-4153.76
-2086.93
994.24
3072.72
5909.61
7921.41
10596.1
12483.6
15066.8
16773.8
19339.7
20785.7
23425.6
24458.6
27180.7
-19584.6
-14950.2
-13433.6
-9459.49
-7539.53
-4096.74
-2033.37
1050.65
3126.2
5965.83
7975.21
10652.5
12538.1
15123.7
16829
19397.1
20841.5
23483.2
24514.6
27239.5
-19530.5
-14891.3
-13378.3
-9401.28
-7485.14
-4039.4
-1979.49
1107.35
3179.92
6022.21
8029.09
10708.9
12592.3
15180.1
16883.7
19453.7
20896.4
23539.7
24569.5
27297
-19476.3
-14832.3
-13322.9
-9342.86
-7430.52
-3981.84
-1925.39
1164.22
3233.8
6078.64
8082.96
10765.1
12646.4
15236.2
16937.8
19509.7
20950.4
23595.4
24623.4
27353.6
-19422
-14773.1
-13267.3
-9284.29
-7375.76
-3924.13
-1871.16
1221.17
3287.72
6135.05
8136.75
10821.1
12700.1
15291.9
16991.5
19565.1
21003.8
23650.3
24676.5
27409.3
-19367.6
-14713.8
-13211.6
-9225.6
-7320.9
-3866.35
-1816.86
1278.15
3341.65
6191.36
8190.41
10876.9
12753.6
15347.2
17044.7
19619.9
21056.6
23704.5
24728.9
27464.4
-19313.1
-14654.4
-13155.9
-9166.86
-7265.99
-3808.53
-1762.56
1335.08
3395.51
6247.55
8243.92
10932.4
12806.8
15402.2
17097.4
19674.2
21108.8
23758.2
24780.7
27518.8
-19258.5
-14594.9
-13100.2
-9108.09
-7211.09
-3750.74
-1708.28
1391.94
3449.28
6303.57
8297.24
10987.7
12859.7
15456.8
17149.7
19728.1
21160.5
23811.3
24831.9
27572.7
-19204
-14535.5
-13044.5
-9049.34
-7156.22
-3693
-1654.08
1448.68
3502.93
6359.4
8350.35
11042.7
12912.2
15511
17201.7
19781.6
21211.7
23863.9
24882.6
27626.1
-19149.5
-14476.1
-12988.8
-8990.64
-7101.43
-3635.35
-1599.98
1505.28
3556.42
6415.02
8403.26
11097.4
12964.5
15564.8
17253.3
19834.6
21262.6
23916.1
24932.9
27679
-19095.1
-14416.7
-12933.2
-8932.02
-7046.73
-3577.82
-1546
1561.71
3609.75
6470.42
8455.94
11151.9
13016.5
15618.4
17304.6
19887.3
21313
23967.9
24982.8
27731.6
-19040.8
-14357.4
-12877.7
-8873.51
-6992.15
-3520.43
-1492.16
1617.95
3662.9
6525.58
8508.4
11206
13068.3
15671.6
17355.5
19939.6
21363.1
24019.4
25032.3
27783.7
-18986.6
-14298.2
-12822.4
-8815.12
-6937.71
-3463.21
-1438.49
1673.99
3715.86
6580.5
8560.63
11259.9
13119.7
15724.5
17406.1
19991.6
21412.8
24070.4
25081.4
27835.5
-18932.6
-14239.1
-12767.2
-8756.88
-6883.42
-3406.16
-1384.99
1729.82
3768.62
6635.17
8612.62
11313.5
13170.9
15777.1
17456.4
20043.2
21462.2
24121.2
25130.1
27887
-18878.7
-14180.2
-12712.2
-8698.8
-6829.32
-3349.3
-1331.68
1785.42
3821.17
6689.58
8664.38
11366.8
13221.8
15829.4
17506.5
20094.5
21511.3
24171.6
25178.6
27938.2
-18824.9
-14121.4
-12657.3
-8640.9
-6775.39
-3292.65
-1278.57
1840.8
3873.51
6743.73
8715.91
11419.8
13272.5
15881.3
17556.2
20145.6
21560.2
24221.7
25226.7
27989.1
-18771.4
-14062.8
-12602.7
-8583.19
-6721.67
-3236.21
-1225.66
1895.92
3925.62
6797.62
8767.2
11472.5
13322.9
15933
17605.7
20196.3
21608.7
24271.5
25274.5
28039.7
-18718.1
-14004.3
-12548.2
-8525.68
-6668.15
-3180
-1172.96
1950.81
3977.52
6851.24
8818.25
11525
13373.1
15984.4
17654.9
20246.7
21656.9
24321
25322.1
28090
-18665
-13946.1
-12494
-8468.39
-6614.85
-3124.03
-1120.48
2005.43
4029.19
6904.58
8869.07
11577.2
13423
16035.5
17703.8
20296.8
21704.8
24370.3
25369.3
28140
-18612.1
-13888.1
-12440
-8411.33
-6561.77
-3068.29
-1068.22
2059.8
4080.64
6957.66
8919.65
11629.1
13472.6
16086.3
17752.5
20346.7
21752.5
24419.2
25416.3
28189.7
-18559.4
-13830.3
-12386.2
-8354.49
-6508.92
-3012.8
-1016.19
2113.9
4131.85
7010.45
8969.99
11680.7
13522.1
16136.9
17800.9
20396.3
21799.9
24467.9
25463
28239.2
-18507
-13772.7
-12332.7
-8297.89
-6456.3
-2957.57
-964.396
2167.74
4182.83
7062.97
9020.1
11732
13571.2
16187.1
17849.1
20445.5
21847
24516.3
25509.4
28288.5
-18454.8
-13715.4
-12279.4
-8241.53
-6403.92
-2902.6
-912.832
2221.3
4233.58
7115.21
9069.97
11783
13620.1
16237.1
17897
20494.5
21893.9
24564.5
25555.5
28337.4
-18402.9
-13658.2
-12226.4
-8185.43
-6351.79
-2847.89
-861.505
2274.59
4284.09
7167.16
9119.6
11833.7
13668.8
16286.8
17944.6
20543.3
21940.5
24612.4
25601.4
28386.1
-18351.3
-13601.4
-12173.6
-8129.58
-6299.9
-2793.44
-810.419
2327.6
4334.36
7218.82
9168.99
11884.2
13717.3
16336.2
17992
20591.7
21986.9
24660
25647
28434.6
-18299.9
-13544.7
-12121.1
-8073.98
-6248.26
-2739.27
-759.574
2380.33
4384.4
7270.2
9218.14
11934.4
13765.5
16385.3
18039.2
20639.9
22033
24707.3
25692.3
28482.8
-18248.8
-13488.4
-12068.9
-8018.66
-6196.88
-2685.38
-708.974
2432.77
4434.2
7321.29
9267.06
11984.2
13813.4
16434.1
18086.1
20687.8
22078.8
24754.4
25737.4
28530.8
-18197.9
-13432.2
-12016.9
-7963.59
-6145.75
-2631.76
-658.619
2484.92
4483.75
7372.08
9315.73
12033.8
13861.1
16482.6
18132.7
20735.5
22124.4
24801.2
25782.2
28578.5
-18147.4
-13376.4
-11965.2
-7908.8
-6094.88
-2578.42
-608.511
2536.78
4533.07
7422.58
9364.17
12083.1
13908.6
16530.9
18179.1
20782.8
22169.8
24847.8
25826.7
28625.9
-18097.1
-13320.8
-11913.8
-7854.28
-6044.27
-2525.37
-558.651
2588.35
4582.14
7472.79
9412.37
12132.1
13955.8
16578.9
18225.3
20829.9
22214.8
24894.1
25871
28673.1
-18047.1
-13265.4
-11862.6
-7800.04
-5993.92
-2472.61
-509.041
2639.62
4630.98
7522.69
9460.33
12180.8
14002.8
16626.5
18271.2
20876.7
22259.7
24940.1
25915
28720.1
-17997.3
-13210.3
-11811.7
-7746.08
-5943.83
-2420.14
-459.682
2690.6
4679.57
7572.29
9508.04
12229.2
14049.5
16673.9
18316.9
20923.2
22304.2
24985.9
25958.7
28766.8
-17947.9
-13155.5
-11761.1
-7692.4
-5894.01
-2367.96
-410.574
2741.28
4727.91
7621.6
9555.52
12277.3
14096
16721
18362.3
20969.5
22348.5
25031.4
26002.2
28813.2
-17898.7
-13101
-11710.8
-7639
-5844.45
-2316.08
-361.718
2791.65
4776.02
7670.59
9602.76
12325.1
14142.3
16767.8
18407.5
21015.5
22392.6
25076.7
26045.4
28859.4
-17849.9
-13046.7
-11660.8
-7585.89
-5795.16
-2264.49
-313.115
2841.71
4823.87
7719.28
9649.75
12372.6
14188.3
16814.3
18452.4
21061.1
22436.4
25121.7
26088.4
28905.4
-17801.3
-12992.7
-11611.1
-7533.07
-5746.13
-2213.21
-264.765
2891.47
4871.49
7767.66
9696.51
12419.8
14234.1
16860.6
18497.1
21106.6
22479.9
25166.4
26131.1
28951.1
-17753
-12939
-11561.6
-7480.54
-5697.38
-2162.22
-216.67
2940.92
4918.86
7815.73
9743.02
12466.7
14279.6
16906.5
18541.5
21151.7
22523.2
25210.8
26173.5
28996.5
-17705.1
-12885.6
-11512.4
-7428.31
-5648.89
-2111.55
-168.829
2990.06
4965.98
7863.49
9789.29
12513.3
14324.9
16952.1
18585.7
21196.5
22566.3
25255
26215.7
29041.7
-17657.4
-12832.5
-11463.5
-7376.36
-5600.67
-2061.17
-121.243
3038.89
5012.86
7910.94
9835.32
12559.6
14369.9
16997.5
18629.6
21241.1
22609
25299
26257.5
29086.7
-17610
-12779.6
-11415
-7324.72
-5552.73
-2011.11
-73.9117
3087.4
5059.49
7958.06
9881.11
12605.5
14414.7
17042.5
18673.3
21285.4
22651.6
25342.6
26299.2
29131.3
-17562.9
-12727
-11366.6
-7273.37
-5505.05
-1961.36
-26.836
3135.59
5105.88
8004.87
9926.66
12651.2
14459.3
17087.2
18716.7
21329.4
22693.8
25386
26340.5
29175.8
-17516.1
-12674.7
-11318.6
-7222.33
-5457.64
-1911.92
19.9841
3183.46
5152.02
8051.36
9971.96
12696.5
14503.6
17131.7
18759.9
21373.1
22735.8
25429.1
26381.6
29219.9
-17469.6
-12622.7
-11270.9
-7171.58
-5410.51
-1862.8
66.5485
3231.01
5197.92
8097.53
10017
12741.5
14547.7
17175.8
18802.8
21416.5
22777.6
25472
26422.4
29263.8
-17423.4
-12571
-11223.5
-7121.15
-5363.65
-1813.99
112.857
3278.24
5243.57
8143.37
10061.8
12786.3
14591.5
17219.6
18845.5
21459.6
22819
25514.6
26462.9
29307.5
-17377.5
-12519.5
-11176.3
-7071.01
-5317.06
-1765.5
158.91
3325.13
5288.97
8188.88
10106.4
12830.6
14635.1
17263.1
18887.9
21502.5
22860.3
25556.9
26503.2
29350.9
-17331.9
-12468.4
-11129.5
-7021.19
-5270.74
-1717.33
204.707
3371.71
5334.13
8234.07
10150.8
12874.7
14678.4
17306.3
18930.1
21545
22901.2
25598.9
26543.2
29394
-17286.6
-12417.5
-11082.9
-6971.67
-5224.7
-1669.49
250.248
3417.95
5379.05
8278.93
10194.9
12918.4
14721.5
17349.2
18972
21587.3
22941.9
25640.7
26582.9
29436.9
-17241.6
-12367
-11036.7
-6922.47
-5178.93
-1621.97
295.534
3463.86
5423.72
8323.46
10238.7
12961.9
14764.3
17391.8
19013.7
21629.3
22982.4
25682.1
26622.4
29479.5
-17197
-12316.7
-10990.7
-6873.57
-5133.43
-1574.78
340.565
3509.43
5468.14
8367.65
10282.3
13005
14806.9
17434.1
19055.1
21670.9
23022.5
25723.3
26661.6
29521.9
-17152.6
-12266.7
-10945.1
-6825
-5088.2
-1527.91
385.34
3554.67
5512.32
8411.51
10325.7
13047.7
14849.3
17476
19096.3
21712.3
23062.4
25764.3
26700.5
29564
-17108.5
-12217.1
-10899.7
-6776.74
-5043.24
-1481.38
429.86
3599.57
5556.25
8455.03
10368.8
13090.2
14891.4
17517.7
19137.2
21753.4
23102.1
25804.9
26739.1
29605.8
-17064.8
-12167.7
-10854.6
-6728.79
-4998.56
-1435.18
474.126
3644.13
5599.94
8498.21
10411.7
13132.3
14933.3
17559
19177.9
21794.2
23141.5
25845.3
26777.4
29647.4
-17021.3
-12118.6
-10809.8
-6681.17
-4954.15
-1389.31
518.138
3688.35
5643.39
8541.05
10454.4
13174
14974.9
17600
19218.3
21834.7
23180.6
25885.4
26815.5
29688.7
-16978.1
-12069.8
-10765.4
-6633.87
-4910.01
-1343.79
561.896
3732.22
5686.59
8583.54
10496.8
13215.5
15016.3
17640.7
19258.4
21874.9
23219.5
25925.2
26853.3
29729.7
-16935.3
-12021.4
-10721.2
-6586.89
-4866.14
-1298.6
605.401
3775.75
5729.55
8625.7
10538.9
13256.6
15057.4
17681.1
19298.3
21914.7
23258.1
25964.8
26890.8
29770.5
-16892.8
-11973.2
-10677.3
-6540.23
-4822.54
-1253.75
648.653
3818.93
5772.27
8667.5
10580.9
13297.4
15098.3
17721.2
19338
21954.3
23296.4
26004
26928.1
29811
-16850.5
-11925.3
-10633.7
-6493.91
-4779.22
-1209.24
691.653
3861.76
5814.74
8708.96
10622.5
13337.8
15138.9
17760.9
19377.3
21993.6
23334.4
26043
26965
29851.2
-16808.6
-11877.8
-10590.4
-6447.91
-4736.16
-1165.08
734.401
3904.24
5856.98
8750.07
10664
13377.9
15179.3
17800.3
19416.5
22032.6
23372.2
26081.7
27001.7
29891.2
-16767
-11830.5
-10547.4
-6402.24
-4693.38
-1121.26
776.899
3946.36
5898.97
8790.83
10705.2
13417.6
15219.5
17839.4
19455.4
22071.3
23409.8
26120.1
27038.1
29930.9
-16725.7
-11783.6
-10504.7
-6356.9
-4650.86
-1077.8
819.146
3988.13
5940.72
8831.23
10746.2
13457
15259.4
17878.2
19494
22109.6
23447
26158.2
27074.2
29970.3
-16684.7
-11736.9
-10462.2
-6311.89
-4608.61
-1034.68
861.145
4029.54
5982.23
8871.28
10786.9
13496.1
15299
17916.6
19532.4
22147.7
23484
26196.1
27110
30009.5
-16644
-11690.6
-10420.1
-6267.22
-4566.63
-991.922
902.894
4070.59
6023.51
8910.97
10827.4
13534.8
15338.5
17954.7
19570.5
22185.4
23520.7
26233.6
27145.6
30048.4
-16603.6
-11644.6
-10378.3
-6222.89
-4524.91
-949.515
944.396
4111.27
6064.54
8950.3
10867.6
13573.2
15377.6
17992.5
19608.3
22222.9
23557.2
26270.9
27180.9
30087
-16563.5
-11598.8
-10336.8
-6178.9
-4483.46
-907.465
985.652
4151.6
6105.34
8989.27
10907.6
13611.2
15416.6
18030
19645.9
22260
23593.4
26307.9
27215.8
30125.4
-16523.7
-11553.4
-10295.5
-6135.24
-4442.28
-865.775
1026.66
4191.55
6145.9
9027.88
10947.4
13648.9
15455.2
18067.1
19683.3
22296.9
23629.3
26344.6
27250.5
30163.5
-16484.3
-11508.4
-10254.6
-6091.93
-4401.36
-824.446
1067.43
4231.14
6186.22
9066.12
10987
13686.2
15493.7
18103.9
19720.4
22333.4
23665
26381
27285
30201.3
-16445.1
-11463.6
-10213.9
-6048.96
-4360.7
-783.481
1107.95
4270.36
6226.31
9104
11026.3
13723.2
15531.9
18140.3
19757.2
22369.6
23700.3
26417.1
27319.1
30238.8
-16406.3
-11419.1
-10173.6
-6006.34
-4320.31
-742.882
1148.23
4309.2
6266.17
9141.51
11065.3
13759.8
15569.8
18176.5
19793.8
22405.5
23735.5
26453
27352.9
30276.1
-16367.7
-11375
-10133.5
-5964.07
-4280.17
-702.651
1188.27
4347.67
6305.79
9178.66
11104.2
13796.1
15607.5
18212.2
19830.1
22441.1
23770.3
26488.5
27386.5
30313
-16329.5
-11331.2
-10093.7
-5922.15
-4240.29
-662.79
1228.07
4385.77
6345.18
9215.43
11142.8
13832
15645
18247.7
19866.2
22476.3
23804.9
26523.8
27419.8
30349.8
-16291.6
-11287.7
-10054.2
-5880.58
-4200.68
-623.302
1267.63
4423.48
6384.34
9251.83
11181.1
13867.6
15682.2
18282.8
19902
22511.3
23839.2
26558.7
27452.8
30386.2
-16254
-11244.5
-10015
-5839.36
-4161.31
-584.189
1306.95
4460.82
6423.27
9287.86
11219.3
13902.8
15719.2
18317.6
19937.6
22545.9
23873.2
26593.4
27485.5
30422.4
-16216.6
-11201.6
-9976.12
-5798.5
-4122.21
-545.453
1346.04
4497.77
6461.97
9323.51
11257.2
13937.6
15756
18352
19972.9
22580.3
23907
26627.8
27517.9
30458.2
-16179.6