/*--------------------------------*- C++ -*----------------------------------*\
  =========                 |
  \\      /  F ield         | OpenFOAM: The Open Source CFD Toolbox
   \\    /   O peration     | Website:  https://openfoam.org
    \\  /    A nd           | Version:  8
     \\/     M anipulation  |
\*---------------------------------------------------------------------------*/
FoamFile
{
    version     2.0;
    format      ascii;
    class       surfaceScalarField;
    location    "500";
    object      phi;
}
// * * * * * * * * * * * * * * * * * * * * * * * * * * * * * * * * * * * * * //

dimensions      [1 0 -1 0 0 0 0];

internalField   nonuniform List<scalar> 
16360
(
-1.36739
0.00023026
-1.36766
0.000260979
-1.36793
0.000272488
-1.3682
0.000276894
-1.36848
0.000278199
-1.36876
0.000277852
-1.36904
0.000276429
-1.36931
0.000274169
-1.36958
0.000271163
-1.36985
0.000267427
-1.37011
0.00026293
-1.37037
0.00025761
-1.37062
0.000251375
-1.37087
0.000244109
-1.3711
0.000235666
-1.37133
0.000225877
-1.37154
0.000214541
-1.37174
0.000201418
-1.37193
0.000186229
-1.3721
0.000168631
-1.37225
0.000148226
-1.37237
0.000124581
-1.37247
9.72004e-05
-1.37253
6.53987e-05
-1.37256
2.82587e-05
-1.37255
-1.58936e-05
-1.37248
-6.91676e-05
-1.37234
-0.000132587
-1.37214
-0.000206657
-1.37184
-0.000292683
-1.37145
-0.000392398
-1.37094
-0.000507908
-1.3703
-0.000641705
-1.36951
-0.000796722
-1.36853
-0.000976408
-1.36734
-0.00118483
-1.36592
-0.00142683
-1.36421
-0.00170816
-1.36217
-0.00203582
-1.35976
-0.00241838
-1.35689
-0.00286656
-1.35349
-0.00339401
-1.34948
-0.00401832
-1.34471
-0.00476319
-1.33905
-0.00566355
-1.33228
-0.00677337
-1.32411
-0.0081642
-1.31421
-0.00990235
-1.30211
-0.0120972
-0.0153419
-1.28677
-1.56512
0.000501218
-1.56536
0.000501299
-1.56559
0.000501664
-1.56582
0.000503883
-1.56605
0.000504489
-1.56627
0.000503296
-1.5665
0.000500485
-1.56672
0.000496225
-1.56694
0.000490598
-1.56715
0.000483598
-1.56737
0.000475157
-1.56757
0.000465146
-1.56778
0.00045339
-1.56797
0.000439659
-1.56816
0.000423677
-1.56834
0.000405111
-1.56851
0.000383576
-1.56866
0.000358616
-1.56881
0.000329687
-1.56894
0.000296135
-1.56904
0.000257173
-1.56913
0.000211992
-1.56919
0.000159788
-1.56923
9.92527e-05
-1.56923
2.88124e-05
-1.56919
-5.33751e-05
-1.56911
-0.000149013
-1.56898
-0.000259908
-1.5688
-0.000388493
-1.56856
-0.000537461
-1.56824
-0.000709948
-1.56784
-0.00090961
-1.56734
-0.00114071
-1.56673
-0.00140822
-1.56599
-0.00171794
-1.56509
-0.00207666
-1.56403
-0.00249236
-1.56276
-0.00297447
-1.56126
-0.0035342
-1.5595
-0.00418508
-1.55742
-0.00494361
-1.55498
-0.00583019
-1.55213
-0.00687031
-1.5488
-0.00809724
-1.5449
-0.00955739
-1.54036
-0.0113164
-1.53507
-0.0134564
-1.5289
-0.0160751
-1.52163
-0.019369
-0.0237978
-1.51317
-1.60409
0.000327073
-1.60397
0.000389778
-1.60389
0.000413828
-1.6038
0.000421581
-1.60372
0.000422729
-1.60364
0.000420348
-1.60355
0.000415544
-1.60347
0.000408716
-1.60338
0.000399982
-1.60328
0.000389309
-1.60318
0.000376576
-1.60308
0.000361583
-1.60297
0.000344069
-1.60285
0.000323699
-1.60273
0.000300068
-1.6026
0.000272695
-1.60246
0.000241024
-1.6023
0.00020441
-1.60213
0.000162059
-1.60195
0.000113053
-1.60175
5.62223e-05
-1.60153
-9.69664e-06
-1.60128
-8.6573e-05
-1.60101
-0.000176135
-1.6007
-0.000280006
-1.60035
-0.000400175
-1.59996
-0.000539164
-1.59952
-0.000700027
-1.59902
-0.000886234
-1.59846
-0.00110173
-1.59782
-0.00135109
-1.59709
-0.00163961
-1.59625
-0.00197344
-1.5953
-0.00235974
-1.59421
-0.00280684
-1.59297
-0.00332447
-1.59153
-0.00392402
-1.58989
-0.00461884
-1.588
-0.00542473
-1.58582
-0.00636046
-1.58332
-0.00744855
-1.58043
-0.00871618
-1.57711
-0.0101965
-1.57327
-0.0119311
-1.56886
-0.013974
-1.56378
-0.0163945
-1.55796
-0.0192744
-1.55132
-0.0227131
-1.54381
-0.0268863
-0.0321484
-1.53545
-1.64898
0.000484173
-1.64901
0.000420246
-1.64899
0.000398671
-1.64896
0.00039232
-1.64893
0.000388558
-1.64889
0.000384001
-1.64886
0.000377682
-1.64882
0.000369318
-1.64878
0.000358768
-1.64873
0.000345884
-1.64869
0.000330462
-1.64864
0.000312229
-1.64858
0.000290838
-1.64853
0.000265862
-1.64846
0.00023678
-1.64839
0.000202972
-1.64832
0.000163728
-1.64823
0.000118283
-1.64813
6.55947e-05
-1.64802
4.52655e-06
-1.6479
-6.60911e-05
-1.64776
-0.000147753
-1.64761
-0.000242213
-1.64743
-0.000351386
-1.64724
-0.000477765
-1.64701
-0.00062403
-1.64676
-0.000793313
-1.64647
-0.000989287
-1.64614
-0.00121617
-1.64576
-0.0014788
-1.64533
-0.00178278
-1.64483
-0.00213457
-1.64427
-0.00254167
-1.64361
-0.00301278
-1.64286
-0.00355798
-1.642
-0.00418901
-1.641
-0.00491952
-1.63986
-0.00576545
-1.63853
-0.00674548
-1.63701
-0.00788157
-1.63526
-0.0091997
-1.63325
-0.0107307
-1.63093
-0.0125114
-1.62828
-0.0145866
-1.62524
-0.0170119
-1.62178
-0.0198541
-1.61786
-0.0231899
-1.61347
-0.027112
-1.60859
-0.0317586
-0.0373251
-1.60342
-1.63392
0.000156584
-1.63374
0.000239841
-1.63361
0.000269
-1.63349
0.0002759
-1.63338
0.000274859
-1.63326
0.00026985
-1.63315
0.000262048
-1.63303
0.000251735
-1.63291
0.000238887
-1.63279
0.000223339
-1.63266
0.000204837
-1.63253
0.000183045
-1.6324
0.000157547
-1.63226
0.000127827
-1.63212
9.32709e-05
-1.63197
5.31294e-05
-1.63181
6.57252e-06
-1.63165
-4.74849e-05
-1.63147
-0.000110221
-1.63128
-0.000182889
-1.63108
-0.000267023
-1.63086
-0.000364554
-1.63063
-0.000477474
-1.63037
-0.000608142
-1.63009
-0.000759355
-1.62978
-0.000934321
-1.62944
-0.00113676
-1.62906
-0.001371
-1.62863
-0.00164203
-1.62815
-0.00195558
-1.62762
-0.00231832
-1.62701
-0.0027379
-1.62633
-0.00322321
-1.62556
-0.00378452
-1.62469
-0.0044337
-1.62369
-0.0051845
-1.62256
-0.00605286
-1.62126
-0.00705724
-1.61979
-0.00821908
-1.61811
-0.00956334
-1.61619
-0.0111191
-1.614
-0.0129201
-1.61151
-0.0150062
-1.60867
-0.0174241
-1.60545
-0.0202293
-1.60182
-0.0234861
-1.59774
-0.0272672
-1.5932
-0.0316567
-1.5882
-0.0367593
-0.0427074
-1.58281
-1.64888
0.000368602
-1.64892
0.000272893
-1.64889
0.000237996
-1.64883
0.000225294
-1.64878
0.000217529
-1.64872
0.000209716
-1.64866
0.000200223
-1.64859
0.000188435
-1.64853
0.000174012
-1.64846
0.000156647
-1.64839
0.000136003
-1.64832
0.000111673
-1.64825
8.31822e-05
-1.64817
4.99195e-05
-1.64809
1.11868e-05
-1.648
-3.37864e-05
-1.64791
-8.59408e-05
-1.64781
-0.000146409
-1.6477
-0.000216417
-1.64759
-0.000297507
-1.64746
-0.000391439
-1.64733
-0.000500252
-1.64718
-0.000626257
-1.64701
-0.000772142
-1.64683
-0.000941029
-1.64663
-0.00113653
-1.6464
-0.00136281
-1.64615
-0.00162472
-1.64586
-0.00192782
-1.64554
-0.00227856
-1.64518
-0.00268438
-1.64476
-0.00315387
-1.64429
-0.00369693
-1.64375
-0.00432501
-1.64313
-0.00505134
-1.64242
-0.00589114
-1.64161
-0.006862
-1.64069
-0.00798416
-1.63962
-0.00928097
-1.63841
-0.0107793
-1.63702
-0.0125099
-1.63543
-0.0145082
-1.63362
-0.0168148
-1.63157
-0.0194759
-1.62925
-0.0225443
-1.62666
-0.0260787
-1.62378
-0.0301431
-1.62063
-0.0348068
-1.61725
-0.0401465
-0.0462447
-1.61371
-1.64022
-1.40905e-05
-1.64003
8.49487e-05
-1.63991
0.000117682
-1.63981
0.000123829
-1.63971
0.000120879
-1.63961
0.000113603
-1.63952
0.000103318
-1.63942
9.02592e-05
-1.63932
7.4306e-05
-1.63922
5.51821e-05
-1.63911
3.25331e-05
-1.63901
5.90796e-06
-1.6389
-2.52647e-05
-1.63879
-6.1638e-05
-1.63867
-0.000103954
-1.63855
-0.000153102
-1.63843
-0.000210175
-1.6383
-0.000276384
-1.63816
-0.000353114
-1.63802
-0.000442014
-1.63786
-0.000545001
-1.6377
-0.000664285
-1.63752
-0.000802409
-1.63733
-0.000962322
-1.63713
-0.00114744
-1.6369
-0.0013617
-1.63666
-0.00160969
-1.63638
-0.00189669
-1.63608
-0.00222879
-1.63575
-0.00261305
-1.63537
-0.0030576
-1.63496
-0.00357184
-1.63449
-0.00416659
-1.63396
-0.00485436
-1.63336
-0.00564953
-1.63268
-0.00656869
-1.63191
-0.00763089
-1.63104
-0.008858
-1.63004
-0.0102751
-1.62891
-0.0119108
-1.62763
-0.0137977
-1.62616
-0.0159729
-1.6245
-0.018478
-1.62261
-0.0213596
-1.62049
-0.0246694
-1.6181
-0.0284634
-1.61545
-0.0328005
-1.61251
-0.0377405
-1.60932
-0.043342
-0.0496642
-1.6059
-1.64626
0.000232958
-1.6463
0.000124635
-1.64626
8.40726e-05
-1.64621
6.81486e-05
-1.64614
5.78597e-05
-1.64608
4.76903e-05
-1.64601
3.57982e-05
-1.64594
2.14487e-05
-1.64587
4.20597e-06
-1.6458
-1.63111e-05
-1.64573
-4.0529e-05
-1.64565
-6.89592e-05
-1.64557
-0.000102196
-1.6455
-0.000140909
-1.64541
-0.000185919
-1.64533
-0.000238187
-1.64524
-0.000298836
-1.64515
-0.000369157
-1.64505
-0.000450646
-1.64495
-0.000545049
-1.64484
-0.000654393
-1.64472
-0.000781019
-1.6446
-0.000927635
-1.64446
-0.00109737
-1.64431
-0.00129385
-1.64415
-0.00152126
-1.64398
-0.00178445
-1.64379
-0.00208903
-1.64357
-0.00244145
-1.64334
-0.00284919
-1.64307
-0.00332088
-1.64278
-0.00386647
-1.64245
-0.00449742
-1.64208
-0.00522696
-1.64166
-0.00607029
-1.64118
-0.00704488
-1.64064
-0.00817078
-1.64003
-0.00947094
-1.63933
-0.0109715
-1.63854
-0.0127022
-1.63764
-0.0146967
-1.63662
-0.0169927
-1.63547
-0.0196322
-1.63416
-0.0226616
-1.6327
-0.026131
-1.63107
-0.0300936
-1.62927
-0.0346039
-1.6273
-0.0397142
-1.62517
-0.0454722
-0.0519231
-1.62291
-1.64248
-0.00016423
-1.64229
-5.97144e-05
-1.64218
-2.60517e-05
-1.64209
-2.06575e-05
-1.64201
-2.49174e-05
-1.64193
-3.37106e-05
-1.64185
-4.56269e-05
-1.64176
-6.04312e-05
-1.64168
-7.82803e-05
-1.6416
-9.94951e-05
-1.64151
-0.000124515
-1.64143
-0.000153859
-1.64134
-0.000188139
-1.64126
-0.000228075
-1.64117
-0.00027452
-1.64108
-0.000328472
-1.64099
-0.000391092
-1.64089
-0.000463723
-1.64079
-0.000547923
-1.64069
-0.000645503
-1.64059
-0.000758564
-1.64048
-0.000889535
-1.64037
-0.00104123
-1.64025
-0.00121689
-1.64012
-0.0014203
-1.63999
-0.00165579
-1.63984
-0.00192842
-1.63969
-0.00224399
-1.63952
-0.00260924
-1.63934
-0.00303193
-1.63914
-0.00352104
-1.63892
-0.00408691
-1.63867
-0.00474148
-1.6384
-0.00549849
-1.6381
-0.00637377
-1.63776
-0.00738547
-1.63737
-0.00855441
-1.63694
-0.0099044
-1.63645
-0.0114625
-1.63589
-0.0132595
-1.63526
-0.01533
-1.63454
-0.0177126
-1.63372
-0.0204503
-1.63279
-0.0235897
-1.63174
-0.027181
-1.63056
-0.0312766
-1.62923
-0.0359292
-1.62776
-0.0411881
-1.62614
-0.0470959
-0.0536915
-1.62437
-1.6437
9.08441e-05
-1.64374
-1.88329e-05
-1.64371
-6.04917e-05
-1.64365
-7.76191e-05
-1.64358
-8.91707e-05
-1.64352
-0.000100627
-1.64345
-0.000113816
-1.64338
-0.000129481
-1.64331
-0.00014808
-1.64324
-0.000170039
-1.64317
-0.000195825
-1.6431
-0.000225981
-1.64302
-0.00026114
-1.64295
-0.000302043
-1.64287
-0.000349558
-1.6428
-0.0004047
-1.64272
-0.000468648
-1.64264
-0.000542769
-1.64256
-0.000628648
-1.64248
-0.000728124
-1.64239
-0.000843327
-1.64231
-0.000976724
-1.64222
-0.00113117
-1.64212
-0.00130996
-1.64203
-0.00151691
-1.64193
-0.00175645
-1.64182
-0.00203369
-1.64171
-0.00235453
-1.64159
-0.0027258
-1.64147
-0.0031554
-1.64134
-0.00365244
-1.6412
-0.00422744
-1.64105
-0.00489255
-1.64088
-0.00566175
-1.64071
-0.00655117
-1.64051
-0.00757932
-1.6403
-0.00876745
-1.64006
-0.0101399
-1.6398
-0.0117242
-1.63951
-0.0135521
-1.63918
-0.0156588
-1.63881
-0.018084
-1.63839
-0.0208717
-1.63791
-0.0240698
-1.63736
-0.0277297
-1.63673
-0.0319049
-1.63601
-0.0366495
-1.63518
-0.0420138
-1.63424
-0.0480411
-0.0547671
-1.63316
-1.6437
-0.000294439
-1.64352
-0.000191983
-1.64342
-0.000159676
-1.64335
-0.000155275
-1.64328
-0.0001604
-1.64321
-0.000169961
-1.64314
-0.00018255
-1.64307
-0.000197935
-1.643
-0.000216284
-1.64293
-0.000237935
-1.64287
-0.000263331
-1.6428
-0.000293006
-1.64273
-0.000327592
-1.64267
-0.000367828
-1.6426
-0.000414577
-1.64254
-0.000468846
-1.64247
-0.000531801
-1.64241
-0.0006048
-1.64235
-0.000689414
-1.64229
-0.000787465
-1.64223
-0.000901064
-1.64218
-0.00103266
-1.64212
-0.00118507
-1.64207
-0.00136158
-1.64202
-0.00156598
-1.64198
-0.00180266
-1.64193
-0.00207668
-1.64189
-0.00239392
-1.64186
-0.00276117
-1.64183
-0.00318628
-1.6418
-0.00367832
-1.64178
-0.00424777
-1.64177
-0.00490673
-1.64176
-0.00566919
-1.64176
-0.00655123
-1.64177
-0.0075714
-1.64178
-0.008751
-1.64181
-0.0101145
-1.64184
-0.0116897
-1.64189
-0.0135084
-1.64194
-0.0156067
-1.642
-0.0180249
-1.64206
-0.0208079
-1.64213
-0.0240053
-1.64219
-0.0276702
-1.64223
-0.0318589
-1.64225
-0.0366283
-1.64224
-0.0420327
-1.64216
-0.048119
-0.0549283
-1.642
-1.64059
-5.15925e-05
-1.64062
-0.00015573
-1.64059
-0.000195766
-1.64053
-0.00021285
-1.64047
-0.000224716
-1.6404
-0.000236464
-1.64033
-0.00024979
-1.64027
-0.000265392
-1.6402
-0.000283719
-1.64013
-0.000305191
-1.64006
-0.000330273
-1.64
-0.000359502
-1.63993
-0.000393501
-1.63987
-0.000432999
-1.6398
-0.000478839
-1.63974
-0.000532006
-1.63968
-0.00059364
-1.63962
-0.000665064
-1.63956
-0.000747811
-1.6395
-0.000843658
-1.63945
-0.000954662
-1.6394
-0.00108321
-1.63935
-0.00123205
-1.63931
-0.00140438
-1.63927
-0.00160389
-1.63924
-0.00183486
-1.63921
-0.00210225
-1.63919
-0.00241177
-1.63919
-0.00277007
-1.63919
-0.0031848
-1.6392
-0.00366485
-1.63923
-0.00422049
-1.63927
-0.00486359
-1.63933
-0.00560787
-1.63941
-0.00646921
-1.63952
-0.00746593
-1.63965
-0.00861914
-1.63981
-0.00995318
-1.64001
-0.011496
-1.64024
-0.0132797
-1.6405
-0.0153408
-1.64081
-0.0177209
-1.64115
-0.0204668
-1.64152
-0.0236308
-1.64192
-0.0272702
-1.64233
-0.0314468
-1.64274
-0.0362254
-1.6431
-0.0416711
-1.64337
-0.0478435
-0.0547873
-1.64351
-1.64475
-0.000403273
-1.6446
-0.000309842
-1.64451
-0.000281316
-1.64445
-0.000278393
-1.64439
-0.000284128
-1.64433
-0.000293805
-1.64428
-0.000306122
-1.64422
-0.000320881
-1.64417
-0.000338252
-1.64411
-0.000358567
-1.64406
-0.000382252
-1.64401
-0.000409812
-1.64396
-0.000441841
-1.64392
-0.000479029
-1.64387
-0.000522177
-1.64383
-0.000572213
-1.6438
-0.000630214
-1.64376
-0.000697429
-1.64374
-0.000775304
-1.64371
-0.000865514
-1.6437
-0.000969998
-1.64369
-0.001091
-1.64369
-0.00123113
-1.6437
-0.00139339
-1.64373
-0.00158127
-1.64376
-0.0017988
-1.64381
-0.00205066
-1.64388
-0.00234227
-1.64397
-0.00267989
-1.64409
-0.00307078
-1.64423
-0.00352336
-1.6444
-0.00404736
-1.64461
-0.00465409
-1.64486
-0.00535663
-1.64516
-0.00617014
-1.64552
-0.00711219
-1.64593
-0.00820315
-1.64642
-0.00946659
-1.64698
-0.0109298
-1.64764
-0.0126243
-1.64839
-0.0145864
-1.64926
-0.016858
-1.65024
-0.019487
-1.65134
-0.0225278
-1.65257
-0.0260415
-1.65392
-0.0300952
-1.65538
-0.0347619
-1.65694
-0.0401185
-1.65854
-0.0462399
-0.0531925
-1.66013
-1.6356
-0.000195313
-1.63562
-0.000287675
-1.63558
-0.000323959
-1.63552
-0.00034027
-1.63545
-0.00035183
-1.63538
-0.000363054
-1.63531
-0.000375444
-1.63524
-0.000389648
-1.63518
-0.000406095
-1.63511
-0.000425187
-1.63504
-0.000447352
-1.63498
-0.000473082
-1.63492
-0.000502935
-1.63486
-0.00053756
-1.63481
-0.000577705
-1.63475
-0.000624237
-1.63471
-0.000678159
-1.63466
-0.000740634
-1.63463
-0.000813009
-1.63459
-0.000896844
-1.63457
-0.000993946
-1.63455
-0.00110641
-1.63455
-0.00123665
-1.63456
-0.00138748
-1.63457
-0.00156216
-1.63461
-0.00176444
-1.63466
-0.00199869
-1.63473
-0.00226998
-1.63483
-0.00258416
-1.63495
-0.00294803
-1.63511
-0.00336949
-1.63529
-0.00385769
-1.63553
-0.00442327
-1.6358
-0.00507858
-1.63614
-0.005838
-1.63653
-0.00671826
-1.63699
-0.00773883
-1.63754
-0.00892245
-1.63817
-0.0102956
-1.63891
-0.0118894
-1.63975
-0.0137399
-1.64072
-0.0158895
-1.64182
-0.0183878
-1.64306
-0.0212927
-1.64443
-0.0246712
-1.64592
-0.0285996
-1.64752
-0.0331645
-1.64917
-0.0384661
-1.6508
-0.0446145
-0.051699
-1.65229
-1.64628
-0.000480035
-1.64617
-0.000406045
-1.6461
-0.000385497
-1.64606
-0.00038529
-1.64602
-0.000391625
-1.64598
-0.000400764
-1.64595
-0.000411767
-1.64591
-0.000424563
-1.64588
-0.000439362
-1.64585
-0.000456483
-1.64582
-0.000476307
-1.64579
-0.000499275
-1.64577
-0.00052589
-1.64575
-0.00055673
-1.64573
-0.000592463
-1.64572
-0.000633858
-1.64572
-0.000681808
-1.64572
-0.000737341
-1.64574
-0.000801652
-1.64576
-0.00087612
-1.64579
-0.000962345
-1.64583
-0.00106218
-1.64589
-0.00117776
-1.64597
-0.00131158
-1.64606
-0.00146651
-1.64618
-0.00164588
-1.64633
-0.00185355
-1.6465
-0.00209401
-1.64671
-0.00237244
-1.64697
-0.00269486
-1.64727
-0.00306829
-1.64763
-0.00350084
-1.64805
-0.00400199
-1.64854
-0.00458277
-1.64912
-0.00525602
-1.64981
-0.0060368
-1.6506
-0.00694272
-1.65153
-0.00799446
-1.65261
-0.00921639
-1.65386
-0.0106374
-1.65531
-0.0122915
-1.65698
-0.0142196
-1.6589
-0.0164702
-1.66109
-0.0191024
-1.66357
-0.0221868
-1.66636
-0.0258064
-1.66947
-0.0300587
-1.67287
-0.0350638
-1.67652
-0.0409703
-0.0479316
-1.68028
-1.62375
-0.000337956
-1.62374
-0.000415558
-1.62368
-0.000446922
-1.6236
-0.000462166
-1.62352
-0.000472902
-1.62344
-0.000482781
-1.62336
-0.000493157
-1.62328
-0.000504666
-1.6232
-0.000517728
-1.62313
-0.000532706
-1.62305
-0.000549965
-1.62298
-0.000569902
-1.62291
-0.000592961
-1.62285
-0.000619649
-1.62279
-0.000650545
-1.62274
-0.00068632
-1.62269
-0.000727745
-1.62266
-0.000775714
-1.62263
-0.000831264
-1.62261
-0.000895592
-1.6226
-0.000970088
-1.62261
-0.00105636
-1.62263
-0.00115627
-1.62267
-0.00127198
-1.62273
-0.00140599
-1.62281
-0.00156121
-1.62292
-0.001741
-1.62307
-0.00194927
-1.62325
-0.00219056
-1.62348
-0.00247014
-1.62375
-0.00279415
-1.62408
-0.00316975
-1.62448
-0.00360529
-1.62495
-0.00411052
-1.62551
-0.00469688
-1.62617
-0.00537783
-1.62694
-0.00616925
-1.62785
-0.00708995
-1.6289
-0.00816236
-1.63012
-0.00941341
-1.63154
-0.0108756
-1.63317
-0.0125883
-1.63504
-0.0146
-1.63717
-0.0169714
-1.63958
-0.0197786
-1.64227
-0.0231145
-1.64524
-0.0270902
-1.64845
-0.0318533
-1.6518
-0.0376245
-0.0446595
-1.65507
-1.64177
-0.000479977
-1.64174
-0.000442446
-1.64175
-0.000435249
-1.64177
-0.000438599
-1.6418
-0.000444735
-1.64183
-0.000451943
-1.64187
-0.000459979
-1.6419
-0.000468997
-1.64194
-0.000479244
-1.64198
-0.000490993
-1.64203
-0.000504538
-1.64208
-0.000520198
-1.64213
-0.000538331
-1.64219
-0.000559339
-1.64226
-0.000583684
-1.64233
-0.000611896
-1.64242
-0.000644586
-1.64251
-0.000682461
-1.64261
-0.000726339
-1.64273
-0.000777165
-1.64287
-0.000836034
-1.64302
-0.000904215
-1.64319
-0.000983176
-1.64339
-0.00107462
-1.64362
-0.00118052
-1.64387
-0.00130316
-1.64417
-0.0014452
-1.64451
-0.00160972
-1.6449
-0.00180029
-1.64535
-0.00202109
-1.64587
-0.00227696
-1.64646
-0.00257357
-1.64715
-0.00291751
-1.64794
-0.00331654
-1.64886
-0.00377976
-1.64992
-0.00431791
-1.65115
-0.00494374
-1.65256
-0.00567243
-1.6542
-0.00652224
-1.6561
-0.00751528
-1.6583
-0.00867867
-1.66084
-0.0100458
-1.66378
-0.0116587
-1.66718
-0.0135713
-1.67111
-0.0158554
-1.67562
-0.0186034
-1.68078
-0.0219277
-1.68665
-0.0259813
-1.69323
-0.0310448
-0.0375818
-1.70031
-1.564
-0.000389313
-1.56398
-0.000462211
-1.56393
-0.000485406
-1.56387
-0.00049674
-1.56381
-0.000504325
-1.56375
-0.000510959
-1.5637
-0.000517639
-1.56364
-0.000524828
-1.56359
-0.000532816
-1.56354
-0.000541838
-1.56349
-0.000552118
-1.56345
-0.000563894
-1.56341
-0.000577423
-1.56337
-0.000592995
-1.56335
-0.000610941
-1.56333
-0.000631641
-1.56331
-0.000655533
-1.56331
-0.000683123
-1.56333
-0.000714997
-1.56335
-0.000751832
-1.56339
-0.000794413
-1.56345
-0.000843649
-1.56354
-0.000900594
-1.56364
-0.000966469
-1.56378
-0.00104269
-1.56395
-0.0011309
-1.56417
-0.001233
-1.56442
-0.00135122
-1.56474
-0.00148811
-1.56511
-0.00164669
-1.56556
-0.00183043
-1.56609
-0.00204343
-1.56671
-0.00229045
-1.56745
-0.0025771
-1.56832
-0.00290998
-1.56934
-0.00329692
-1.57054
-0.00374725
-1.57194
-0.00427218
-1.57358
-0.00488531
-1.57549
-0.00560339
-1.57772
-0.00644735
-1.58032
-0.00744366
-1.58336
-0.00862649
-1.58689
-0.0100418
-1.59099
-0.0117553
-1.59573
-0.0138606
-1.60118
-0.0164775
-1.6074
-0.0197621
-1.6144
-0.0240445
-0.0300725
-1.62191
-1.52334
-9.63378e-05
-1.52376
-4.68044e-05
-1.5242
-3.78233e-05
-1.52466
-3.64719e-05
-1.52513
-3.73164e-05
-1.5256
-3.87876e-05
-1.52608
-4.05817e-05
-1.52656
-4.27097e-05
-1.52705
-4.52596e-05
-1.52754
-4.83386e-05
-1.52804
-5.20607e-05
-1.52855
-5.65479e-05
-1.52907
-6.19352e-05
-1.52959
-6.83743e-05
-1.53013
-7.60373e-05
-1.53067
-8.51216e-05
-1.53123
-9.58546e-05
-1.53181
-0.000108499
-1.5324
-0.00012336
-1.53301
-0.000140786
-1.53364
-0.000161188
-1.5343
-0.000185036
-1.53499
-0.000212877
-1.53571
-0.000245346
-1.53647
-0.000283181
-1.53727
-0.000327235
-1.53813
-0.000378502
-1.53904
-0.000438137
-1.54002
-0.000507486
-1.54108
-0.000588117
-1.54223
-0.000681862
-1.54348
-0.000790865
-1.54485
-0.000917647
-1.54637
-0.00106518
-1.54804
-0.00123697
-1.5499
-0.00143724
-1.55198
-0.00167101
-1.5543
-0.00194442
-1.55692
-0.002265
-1.55988
-0.0026422
-1.56324
-0.0030881
-1.56707
-0.00361841
-1.57144
-0.00425396
-1.57646
-0.00502376
-1.58224
-0.00597166
-1.58894
-0.00716558
-1.59672
-0.00869641
-1.60582
-0.0106599
-1.61663
-0.0132407
-0.0172496
-1.62945
-1.22753
-1.22758
-1.22762
-1.22765
-1.22769
-1.22773
-1.22777
-1.22781
-1.22786
-1.2279
-1.22796
-1.22801
-1.22808
-1.22814
-1.22822
-1.2283
-1.2284
-1.22851
-1.22863
-1.22877
-1.22893
-1.22912
-1.22933
-1.22958
-1.22986
-1.23019
-1.23057
-1.231
-1.23151
-1.2321
-1.23278
-1.23357
-1.23449
-1.23556
-1.23679
-1.23823
-1.2399
-1.24185
-1.24411
-1.24675
-1.24984
-1.25346
-1.25771
-1.26274
-1.26871
-1.27587
-1.28457
-1.29523
-1.30847
-1.32572
1.62587
-0.0342497
1.638
-0.0121347
1.64684
-0.00883955
1.65127
-0.00442636
1.65284
-0.00157505
1.65294
-9.96576e-05
1.65225
0.000692141
1.65109
0.00116072
1.64964
0.00144691
1.64802
0.0016192
1.6463
0.00172046
1.64453
0.00177774
1.64272
0.00180709
1.6409
0.00181801
1.63908
0.00181633
1.63728
0.00180576
1.63549
0.00178871
1.63372
0.0017667
1.63198
0.00174072
1.63027
0.00171134
1.62859
0.00167888
1.62695
0.00164344
1.62534
0.00160493
1.62378
0.00156313
1.62226
0.00151769
1.62079
0.00146813
1.61938
0.00141382
1.61803
0.00135393
1.61674
0.00128748
1.61553
0.00121344
1.61439
0.0011306
1.61336
0.00103749
1.61242
0.000932502
1.61161
0.000812347
1.61094
0.000674579
1.61042
0.00051606
1.61009
0.000333106
1.60997
0.000121565
1.61009
-0.000124233
1.6105
-0.000412493
1.61126
-0.000753432
1.61242
-0.00115983
1.61407
-0.00164894
1.61631
-0.00224528
1.6193
-0.00298556
1.62323
-0.00392862
1.6284
-0.00517638
1.63532
-0.00692126
1.64489
-0.00956263
-0.0139726
1.65886
1.57532
-0.0179535
1.5719
-0.00871262
1.5662
-0.00314182
1.56319
-0.00141561
1.56174
-0.000121732
1.56096
0.000679402
1.56059
0.00105645
1.56052
0.00123021
1.56066
0.00131316
1.56093
0.00134686
1.5613
0.00135225
1.56173
0.0013423
1.56222
0.00132429
1.56273
0.00130188
1.56327
0.00127682
1.56383
0.00124991
1.5644
0.00122137
1.56497
0.00119114
1.56555
0.0011589
1.56614
0.0011242
1.56673
0.00108647
1.56733
0.001045
1.56794
0.000998985
1.56855
0.000947465
1.56918
0.000889357
1.56983
0.00082342
1.57049
0.00074816
1.57118
0.000661654
1.57191
0.000561577
1.57268
0.000445839
1.5735
0.000312055
1.57438
0.000156634
1.57533
-2.46158e-05
1.57638
-0.000236155
1.57754
-0.000483085
1.57883
-0.000771757
1.58027
-0.00110988
1.5819
-0.0015068
1.58375
-0.00197472
1.58587
-0.0025286
1.5883
-0.00318653
1.59111
-0.00397235
1.59438
-0.00491768
1.5982
-0.00606575
1.60269
-0.00747776
1.60801
-0.00924373
1.61433
-0.0115011
1.62188
-0.0144664
1.6308
-0.0184888
-0.0241166
1.64095
1.57763
-0.00396691
1.573
-0.00408413
1.57217
-0.00230633
1.57223
-0.00147709
1.57309
-0.000985805
1.57428
-0.000505059
1.57545
-0.000120411
1.57653
0.000155078
1.57749
0.000356697
1.57833
0.000506968
1.57906
0.000617656
1.5797
0.000697665
1.58027
0.000754153
1.58078
0.000792376
1.58124
0.000816033
1.58167
0.000827712
1.58206
0.000829195
1.58243
0.000821636
1.58278
0.000805689
1.58312
0.000781604
1.58346
0.000749291
1.5838
0.000708346
1.58414
0.000658073
1.58449
0.000597476
1.58485
0.000525353
1.58524
0.000440268
1.58564
0.000340467
1.58608
0.000223296
1.58656
8.55868e-05
1.58708
-7.5975e-05
1.58766
-0.00026537
1.5883
-0.00048733
1.58902
-0.000747497
1.58984
-0.00105143
1.59076
-0.00140729
1.59182
-0.00182441
1.59302
-0.00231399
1.5944
-0.00288965
1.596
-0.00356815
1.59784
-0.00437003
1.59997
-0.00532055
1.60245
-0.00645184
1.60534
-0.00780542
1.60871
-0.00943596
1.61265
-0.011417
1.61725
-0.0138496
1.62263
-0.0168747
1.62885
-0.0206904
1.63594
-0.0255712
-0.031875
1.64369
1.59001
-0.00235607
1.58927
-0.00334332
1.58952
-0.00256435
1.58974
-0.00169093
1.5898
-0.00104513
1.58979
-0.000497098
1.58972
-4.90454e-05
1.58959
0.000280047
1.58944
0.000508915
1.58928
0.000665434
1.58913
0.000769308
1.58899
0.000834216
1.58888
0.000870408
1.58878
0.000885392
1.58872
0.000884386
1.58867
0.000870891
1.58865
0.000847159
1.58866
0.000814527
1.58869
0.00077363
1.58875
0.00072456
1.58883
0.000666964
1.58894
0.000600086
1.58908
0.000522774
1.58924
0.000433367
1.58944
0.000330121
1.58967
0.000211106
1.58993
7.35426e-05
1.59024
-8.56319e-05
1.5906
-0.000269896
1.591
-0.000483859
1.59147
-0.000733132
1.59201
-0.00102368
1.59262
-0.00136256
1.59333
-0.00175791
1.59414
-0.00221983
1.59508
-0.00276023
1.59616
-0.00339332
1.5974
-0.00413612
1.59885
-0.0050092
1.60051
-0.00603754
1.60244
-0.00725165
1.60468
-0.00868929
1.60727
-0.0103978
1.61027
-0.012437
1.61374
-0.0148835
1.61773
-0.0178361
1.62228
-0.0214219
1.62739
-0.0258022
1.63299
-0.0311734
-0.0377525
1.63887
1.59022
-0.000962887
1.58845
-0.00156465
1.58719
-0.00131323
1.58635
-0.000847006
1.58579
-0.000487359
1.5855
-0.000208409
1.58543
2.08358e-05
1.58552
0.000197112
1.5857
0.000323567
1.58596
0.000411804
1.58625
0.000471801
1.58658
0.000510101
1.58692
0.000531331
1.58726
0.000538917
1.58761
0.000535235
1.58796
0.000521794
1.58831
0.000499426
1.58866
0.000468438
1.589
0.000428707
1.58934
0.000379745
1.58969
0.000320764
1.59004
0.000250639
1.5904
0.00016798
1.59076
7.05676e-05
1.59113
-4.38158e-05
1.59152
-0.000177939
1.59193
-0.0003351
1.59236
-0.000518782
1.59283
-0.000733113
1.59333
-0.000983529
1.59387
-0.0012763
1.59446
-0.0016186
1.59512
-0.00201886
1.59585
-0.00248698
1.59666
-0.00303473
1.59758
-0.00367606
1.59861
-0.00442749
1.59979
-0.00530871
1.60112
-0.0063432
1.60264
-0.00755913
1.60438
-0.00899035
1.60637
-0.0106778
1.60864
-0.0126715
1.61124
-0.0150321
1.61419
-0.0178342
1.61752
-0.0211686
1.62124
-0.0251447
1.62533
-0.0298907
1.62971
-0.0355493
-0.0422646
1.63422
1.59117
-0.000510671
1.59055
-0.000953409
1.59023
-0.000991486
1.59019
-0.000809882
1.5903
-0.000595085
1.59049
-0.000390918
1.5907
-0.00019858
1.59093
-2.88576e-05
1.59114
0.000109746
1.59134
0.000217119
1.59151
0.000296958
1.59167
0.000353104
1.59181
0.000388942
1.59194
0.000407435
1.59207
0.000410998
1.59219
0.000401417
1.59231
0.000379867
1.59243
0.000346962
1.59256
0.000302824
1.59269
0.000247092
1.59283
0.000179148
1.59298
9.78334e-05
1.59315
1.61253e-06
1.59333
-0.000111351
1.59353
-0.000243648
1.59375
-0.000398547
1.594
-0.000579561
1.59427
-0.000790803
1.59457
-0.00103719
1.59491
-0.00132468
1.5953
-0.00166028
1.59573
-0.00205216
1.59622
-0.00250985
1.59678
-0.00304457
1.59741
-0.00366952
1.59814
-0.00440025
1.59897
-0.00525512
1.59991
-0.00625575
1.601
-0.00742772
1.60224
-0.00880126
1.60366
-0.0104121
1.60529
-0.0123028
1.60714
-0.0145234
1.60924
-0.0171333
1.61161
-0.0202022
1.61425
-0.0238112
1.61716
-0.0280521
1.62029
-0.0330258
1.62358
-0.0388347
-0.045571
1.62688
1.59137
-0.000263432
1.59094
-0.000521093
1.59052
-0.000578435
1.5902
-0.000484949
1.58995
-0.000340952
1.58975
-0.000197338
1.58962
-6.69773e-05
1.58955
4.36693e-05
1.58953
0.000130101
1.58955
0.000192259
1.58962
0.000233018
1.58971
0.000255722
1.58984
0.000263229
1.58999
0.000257827
1.59016
0.00024123
1.59035
0.000214565
1.59055
0.000178406
1.59076
0.000132781
1.59099
7.73119e-05
1.59122
1.11887e-05
1.59147
-6.68219e-05
1.59172
-0.000158302
1.59199
-0.000265338
1.59227
-0.000390047
1.59256
-0.00053541
1.59287
-0.00070494
1.59319
-0.000902657
1.59353
-0.00113326
1.5939
-0.00140228
1.59429
-0.00171623
1.59471
-0.00208277
1.59517
-0.00251083
1.59567
-0.00301084
1.59622
-0.00359499
1.59683
-0.00427759
1.59751
-0.00507537
1.59826
-0.00600797
1.5991
-0.00709835
1.60005
-0.00837338
1.60111
-0.00986447
1.60231
-0.0116083
1.60365
-0.0136474
1.60516
-0.0160312
1.60684
-0.0188163
1.60871
-0.0220673
1.61075
-0.0258558
1.61296
-0.03026
1.6153
-0.0353608
1.6177
-0.0412366
-0.0479565
1.62008
1.59149
-0.000139573
1.59126
-0.000289978
1.59103
-0.000348127
1.59087
-0.000323321
1.59079
-0.000259327
1.59078
-0.000187449
1.59083
-0.000118843
1.59093
-5.77856e-05
1.59107
-7.54608e-06
1.59123
3.03251e-05
1.59141
5.60236e-05
1.59159
7.04222e-05
1.59178
7.43676e-05
1.59197
6.85109e-05
1.59216
5.32751e-05
1.59235
2.88142e-05
1.59253
-5.01084e-06
1.59271
-4.86319e-05
1.59289
-0.000102794
1.59307
-0.00016851
1.59325
-0.000247266
1.59343
-0.000340816
1.59362
-0.000451283
1.59381
-0.000581143
1.59401
-0.000733461
1.59422
-0.000911881
1.59443
-0.00112066
1.59467
-0.00136478
1.59491
-0.00165007
1.59518
-0.00198341
1.59547
-0.00237284
1.59579
-0.00282776
1.59614
-0.00335916
1.59652
-0.00397986
1.59695
-0.00470486
1.59742
-0.00555163
1.59796
-0.00654055
1.59855
-0.00769536
1.59922
-0.00904358
1.59998
-0.0106171
1.60082
-0.0124527
1.60177
-0.0145924
1.60282
-0.0170842
1.60398
-0.0199819
1.60526
-0.023345
1.60664
-0.0272377
1.60811
-0.0317274
1.60963
-0.0368805
1.61115
-0.0427579
-0.049408
1.6126
1.59154
-6.24912e-05
1.59138
-0.000133387
1.5912
-0.000166814
1.59104
-0.000162607
1.59092
-0.000136974
1.59084
-0.000104957
1.59079
-7.39204e-05
1.59078
-4.72177e-05
1.5908
-2.71714e-05
1.59085
-1.5153e-05
1.59091
-1.15072e-05
1.591
-1.6027e-05
1.5911
-2.84038e-05
1.59122
-4.84176e-05
1.59135
-7.60111e-05
1.59149
-0.000111344
1.59164
-0.000154829
1.5918
-0.000207111
1.59196
-0.000269143
1.59214
-0.000342177
1.59232
-0.000427814
1.59251
-0.000527984
1.5927
-0.000644989
1.5929
-0.000781554
1.59311
-0.000940912
1.59332
-0.00112688
1.59355
-0.00134394
1.59378
-0.00159728
1.59402
-0.00189302
1.59428
-0.00223828
1.59454
-0.00264139
1.59483
-0.00311206
1.59513
-0.00366161
1.59545
-0.00430325
1.5958
-0.00505233
1.59618
-0.00592672
1.59658
-0.00694714
1.59703
-0.0081376
1.59751
-0.00952583
1.59803
-0.0111437
1.59861
-0.0130276
1.59924
-0.0152187
1.59992
-0.0177636
1.60065
-0.0207133
1.60143
-0.0241237
1.60224
-0.0280535
1.60308
-0.032563
1.60391
-0.0377101
1.6047
-0.0435469
-0.0501163
1.6054
1.59156
-5.03067e-06
1.59144
-1.25246e-05
1.59129
-2.03024e-05
1.59116
-2.85735e-05