/*--------------------------------*- C++ -*----------------------------------*\
  =========                 |
  \\      /  F ield         | OpenFOAM: The Open Source CFD Toolbox
   \\    /   O peration     | Website:  https://openfoam.org
    \\  /    A nd           | Version:  8
     \\/     M anipulation  |
\*---------------------------------------------------------------------------*/
FoamFile
{
    version     2.0;
    format      ascii;
    class       volScalarField;
    location    "300";
    object      alphat;
}
// * * * * * * * * * * * * * * * * * * * * * * * * * * * * * * * * * * * * * //

dimensions      [1 -1 -1 0 0 0 0];

internalField   nonuniform List<scalar> 
1200
(
0.80079
0.73475
0.679899
0.633685
0.594586
0.561328
0.532808
0.507992
0.487227
0.470931
0.461806
0.447602
0.422548
0.392381
0.362977
0.336971
0.315266
0.298033
0.284279
0.273003
0.263676
0.255906
0.249216
0.243249
0.23869
0.236154
0.234803
0.233453
0.231602
0.228674
0.224239
0.217771
0.209208
0.199302
0.189714
0.181108
0.17416
0.169392
0.166489
0.164855
0.163957
0.163464
0.162941
0.161975
0.160375
0.158302
0.156187
0.154397
0.152416
0.147969
0.139485
0.127549
0.11465
0.103633
0.0956349
0.0902367
0.0870065
0.085325
0.0845639
0.0848125
0.465664
0.399784
0.34925
0.309514
0.277713
0.251584
0.229787
0.211575
0.196408
0.188898
0.193378
0.196595
0.192427
0.18273
0.170562
0.158367
0.147851
0.138875
0.131149
0.124382
0.118398
0.113054
0.108204
0.103699
0.0994882
0.0957174
0.0925078
0.0898354
0.0877663
0.0869307
0.0870391
0.0873492
0.0870183
0.0854664
0.0826971
0.07939
0.0762779
0.0734207
0.070818
0.0684388
0.0662379
0.0641585
0.062176
0.0602936
0.0585259
0.0568882
0.0553825
0.0540069
0.0529401
0.0533765
0.0548518
0.0552344
0.0536108
0.0505306
0.0469469
0.0438155
0.0412937
0.0392808
0.0376251
0.0361906
0.46556
0.399182
0.348262
0.308141
0.275898
0.249569
0.227791
0.209519
0.194124
0.181326
0.172794
0.16762
0.162369
0.155811
0.148433
0.141223
0.134548
0.128415
0.122772
0.117537
0.112688
0.108228
0.104155
0.10036
0.0969061
0.0936297
0.0904886
0.0875602
0.0848238
0.0822582
0.0798904
0.0777106
0.07568
0.0736821
0.0716007
0.069523
0.0676042
0.0658404
0.0642042
0.06267
0.0612235
0.0598662
0.0585988
0.0574075
0.0562763
0.0551945
0.0541601
0.0531581
0.0521801
0.0513067
0.0507416
0.0503071
0.049524
0.0482916
0.0468438
0.0453165
0.0437398
0.0421564
0.0405488
0.0389956
0.46556
0.399381
0.348578
0.308536
0.276284
0.249886
0.227989
0.20965
0.194259
0.181139
0.170132
0.161264
0.153773
0.14689
0.14033
0.134141
0.128356
0.123012
0.11805
0.113372
0.108955
0.104797
0.100881
0.0972181
0.0938164
0.0906503
0.0877098
0.0850345
0.0826214
0.0804008
0.0782995
0.076313
0.0744201
0.0725989
0.0708385
0.0691417
0.0675317
0.0660268
0.0645986
0.0632197
0.0618729
0.0605481
0.0592481
0.0579803
0.0567509
0.0555645
0.0544231
0.0533013
0.0521595
0.0509893
0.0498897
0.04893
0.047998
0.0469683
0.0458137
0.0445441
0.0431322
0.0416027
0.0398928
0.0381706
0.465563
0.399398
0.348558
0.308479
0.276196
0.249763
0.227838
0.209522
0.194278
0.181372
0.170235
0.160663
0.152385
0.145075
0.138503
0.132532
0.127046
0.121902
0.117009
0.112413
0.108106
0.104058
0.100301
0.0968795
0.0937594
0.0909066
0.0883321
0.0860557
0.0839842
0.082065
0.0802488
0.0784286
0.0765901
0.0747794
0.0730258
0.0713323
0.0696818
0.0680417
0.0664064
0.0647758
0.0631585
0.0615781
0.0600574
0.0586079
0.0572428
0.0559593
0.0547345
0.053502
0.0522456
0.0509235
0.0495334
0.0481371
0.0467673
0.0453778
0.0438785
0.0422385
0.0404633
0.0385574
0.0364139
0.0343443
0.46556
0.399406
0.34857
0.308469
0.276176
0.249734
0.227813
0.209597
0.194652
0.182078
0.171188
0.161717
0.153433
0.146111
0.139537
0.133532
0.127965
0.122744
0.117801
0.113097
0.108637
0.104417
0.100429
0.0966647
0.0931477
0.0898974
0.0869381
0.0843349
0.0820364
0.0800598
0.0784224
0.0770247
0.075633
0.0742184
0.0727835
0.0713359
0.0698951
0.0684779
0.0670656
0.0656402
0.0641923
0.0627262
0.0612681
0.059817
0.0583207
0.0567245
0.0551256
0.0536499
0.0522207
0.0506129
0.0488271
0.0469194
0.044964
0.0429982
0.0409813
0.038936
0.0368967
0.0349555
0.0330083
0.031296
0.465554
0.399416
0.348626
0.308579
0.27631
0.249837
0.227838
0.210075
0.19611
0.184161
0.173453
0.163907
0.155508
0.148058
0.141339
0.135152
0.129344
0.123803
0.118444
0.113221
0.108072
0.102978
0.0979769
0.0932098
0.088826
0.0849026
0.0814741
0.0785723
0.0761124
0.0739715
0.0721281
0.0706247
0.0694559
0.0684257
0.0673958
0.0662962
0.0651223
0.0639096
0.0626598
0.0613729
0.0600407
0.058662
0.0572759
0.0559485
0.0544551
0.0527783
0.0512245
0.0497457
0.0482669
0.0468131
0.045271
0.043575
0.0417462
0.0398769
0.0380011
0.0361617
0.03435
0.0326067
0.0308547
0.0293185
0.465557
0.399234
0.34829
0.30814
0.275799
0.249318
0.227685
0.213918
0.203946
0.192965
0.180823
0.170318
0.161026
0.152365
0.143919
0.135631
0.127555
0.119708
0.112394
0.106024
0.100619
0.0959218
0.0916539
0.0876331
0.083946
0.080794
0.0783053
0.0764927
0.0752683
0.0735501
0.0711634
0.0686408
0.0663057
0.0641344
0.0620875
0.0601445
0.0582871
0.0564648
0.0547089
0.0530829
0.0516578
0.0503587
0.0492493
0.0483103
0.0477318
0.0482952
0.0485341
0.0475835
0.0461556
0.0445634
0.042855
0.0410333
0.03912
0.0372066
0.0353379
0.0335571
0.0318439
0.0302396
0.0286976
0.0274204
0.465667
0.39991
0.349436
0.309784
0.277889
0.252475
0.234906
0.23789
0.235844
0.225479
0.211242
0.196152
0.182739
0.171405
0.161611
0.152762
0.144784
0.137657
0.130558
0.123569
0.117024
0.111116
0.105806
0.100961
0.0964983
0.0931278
0.0921772
0.0922361
0.0911028
0.0865605
0.0803241
0.0740204
0.0683954
0.063807
0.0601924
0.0573174
0.05496
0.052984
0.0512909
0.0498208
0.0485368
0.0474217
0.0465108
0.0463129
0.0509892
0.0554175
0.0542507
0.050604
0.0468814
0.0436111
0.0407837
0.0382501
0.0359228
0.0338656
0.0321049
0.0306471
0.0294066
0.0283448
0.0273835
0.0265912
0.800942
0.734964
0.67995
0.633563
0.593927
0.559592
0.529241
0.523297
0.51343
0.488727
0.457847
0.426672
0.397179
0.369613
0.34382
0.320034
0.299333
0.283056
0.27084
0.261326
0.25355
0.246839
0.240814
0.235483
0.231282
0.228554
0.224259
0.213936
0.191309
0.16348
0.14375
0.13339
0.128742
0.126919
0.126409
0.126491
0.12682
0.127238
0.127755
0.128622
0.129549
0.13113
0.134266
0.13897
0.138915
0.126507
0.104972
0.0870836
0.0777506
0.0733287
0.0709842
0.0696427
0.0687644
0.067813
0.0666622
0.0654636
0.0644887
0.0639978
0.0643058
0.0661359
0.800931
0.735224
0.680304
0.633825
0.59444
0.561093
0.53251
0.507685
0.486925
0.470344
0.461093
0.448063
0.424153
0.394483
0.365093
0.338942
0.316898
0.299339
0.285324
0.273858
0.264403
0.256536
0.249754
0.243672
0.238934
0.236193
0.234738
0.233434
0.231793
0.229183
0.225074
0.21894
0.210657
0.200879
0.191232
0.182506
0.175247
0.170134
0.16695
0.165109
0.164063
0.163484
0.162967
0.162072
0.160568
0.15858
0.156524
0.154794
0.152979
0.148937
0.140871
0.129195
0.116271
0.105
0.0966967
0.0910411
0.0875979
0.0857655
0.0849002
0.0850635
0.465664
0.399902
0.349277
0.309397
0.277444
0.251337
0.229625
0.21143
0.196133
0.187692
0.191756
0.19567
0.192335
0.183167
0.171236
0.158986
0.148365
0.139282
0.131465
0.124628
0.118596
0.113221
0.108351
0.103829
0.0995967
0.0957836
0.0925005
0.0897277
0.0874915
0.0864398
0.0864832
0.0868964
0.0867819
0.0854879
0.0829237
0.0796404
0.0765086
0.0736238
0.0709954
0.0685949
0.0663761
0.0642826
0.06229
0.0603971
0.0586159
0.056962
0.0554407
0.0540519
0.0529388
0.0532034
0.0546943
0.055272
0.0538581
0.0509078
0.0473537
0.0441735
0.0416039
0.0395526
0.0378681
0.0364143
0.465563
0.399313
0.348381
0.308231
0.275938
0.249569
0.227726
0.209418
0.194034
0.181116
0.172247
0.167054
0.162071
0.155779
0.148558
0.141374
0.1347
0.128543
0.122859
0.117586
0.112716
0.108274
0.104245
0.100469
0.0969338
0.0936267
0.0905059
0.0875893
0.0848643
0.0822985
0.0799528
0.0778042
0.0757984
0.0738192
0.0717565
0.0696624
0.0677116
0.0659124
0.0642451
0.0626853
0.0612164
0.059837
0.0585493
0.0573442
0.0562068
0.0551249
0.0540952
0.0531032
0.0521359
0.0512561
0.050674
0.0502641
0.0495477
0.0483748
0.04696
0.0454605
0.043909
0.0423484
0.0407626
0.0392263
0.46556
0.399445
0.348648
0.308576
0.276307
0.249904
0.227987
0.209689
0.194363
0.181272
0.170124
0.161082
0.153514
0.146634
0.140104
0.133918
0.128239
0.123008
0.118066
0.113358
0.108915
0.104746
0.10083
0.0971706
0.0937786
0.090625
0.0877101
0.0850693
0.0826832
0.0804759
0.0783786
0.0763936
0.074499
0.0726754
0.070914
0.0692165
0.0676085
0.0661023
0.0646651
0.0632725
0.0619122
0.0605769
0.0592686
0.0579932
0.0567565
0.0555613
0.0544124
0.0532998
0.0521853
0.0510414
0.0499379
0.048962
0.0480329
0.0470237
0.0458961
0.0446586
0.0432823
0.0417891
0.0401179
0.0384249
0.465554
0.399414
0.348576
0.308483
0.276203
0.249787
0.227874
0.209603
0.194416
0.181543
0.170412
0.160818
0.152517
0.145204
0.138642
0.132676
0.127169
0.121957
0.117013
0.112407
0.108097
0.104047
0.100303
0.0969098
0.093819
0.0909937
0.0884494
0.0862052
0.0841562
0.0822426
0.0804114
0.0785608
0.0766986
0.0748721
0.0731055
0.0713975
0.0697238
0.0680589
0.0663993
0.0647464
0.0631106
0.0615165
0.0599877
0.0585351
0.057169
0.0558872
0.0546779
0.053496
0.0522973
0.0510297
0.0496746
0.0482869
0.0469166
0.0455363
0.0440613
0.0424528
0.0407167
0.0388471
0.0367343
0.0346753
0.465558
0.39941
0.348552
0.308455
0.276167
0.249749
0.227838
0.209677
0.194768
0.182203
0.171312
0.161834
0.153546
0.146214
0.139623
0.1336
0.128014
0.12278
0.117811
0.113087
0.108615
0.104387
0.100393
0.0966262
0.0931159
0.0898869
0.086973
0.0844454
0.0822255
0.0803141
0.0787215
0.077328
0.0759108
0.074466
0.0730026
0.0715289
0.0700632
0.0686182
0.0671744
0.065717
0.0642372
0.0627441
0.0612612
0.0597884
0.0582864
0.0567185
0.0551571
0.0537253
0.0523619
0.0508194
0.0490807
0.0471968
0.0452504
0.043291
0.0412812
0.0392379
0.0371899
0.0352343
0.0332675
0.031531
0.465562
0.399432
0.348629
0.308574
0.276294
0.249834
0.227842
0.210197
0.19627
0.184304
0.17357
0.164001
0.155593
0.148132
0.141399
0.135192
0.12936
0.123786
0.118401
0.113144
0.10795
0.102807
0.0977637
0.0929804
0.0886022
0.0847227
0.0813693
0.078558
0.0761691
0.0740862
0.0723159
0.0708998
0.0697774
0.0687523
0.0677009
0.0665664
0.0653569
0.0641118
0.0628294
0.0615037
0.0601284
0.0587136
0.0573047
0.0559453
0.0544963
0.0528426
0.0512965
0.0498537
0.0484119
0.0469963
0.0454889
0.0438174
0.042001
0.0401339
0.0382529
0.0364031
0.0345781
0.0328198
0.0310494
0.0294925
0.46556
0.399218
0.348287
0.308112
0.275769
0.249294
0.227777
0.214025
0.204026
0.192957
0.18078
0.170293
0.160992
0.152279
0.143766
0.135423
0.127299
0.119436
0.112148
0.105833
0.100486
0.0958284
0.0915789
0.0875612
0.0839188
0.0807943
0.0783323
0.0764888
0.0751528
0.0734375
0.0710785
0.0685126
0.0661353
0.06391
0.0618167
0.059841
0.0579672
0.0561506
0.0544489
0.0529298
0.0516367
0.0504122
0.049265
0.0482361
0.0475213
0.0480147
0.0483843
0.047567
0.0462191
0.0446869
0.0430207
0.0412269
0.0393302
0.0374234
0.0355538
0.0337654
0.0320377
0.0304109
0.0288374
0.0275276
0.46566
0.399839
0.34928
0.309332
0.277246
0.251549
0.233567
0.235874
0.235015
0.225555
0.211723
0.196668
0.183141
0.171739
0.161891
0.153099
0.145224
0.137856
0.130429
0.123313
0.116767
0.110915
0.10566
0.100846
0.0963692
0.0933048
0.0925626
0.0927366
0.091445
0.0871801
0.0812403
0.0750698
0.0693967
0.0646464
0.0608398
0.0577883
0.0552842
0.0531961
0.0514179
0.0498825
0.0485495
0.0473943
0.0464456
0.0461328
0.050443
0.0551782
0.0543806
0.0508648
0.0471623
0.0438825
0.0410365
0.0384837
0.0361359
0.0340537
0.0322637
0.0307759
0.0295075
0.0284217
0.0274391
0.0266278
0.800804
0.734739
0.679846
0.633465
0.593844
0.559632
0.529074
0.521536
0.51322
0.489786
0.4594
0.428342
0.398856
0.371264
0.345448
0.321597
0.300797
0.284365
0.271904
0.26211
0.254122
0.247317
0.241299
0.236054
0.231879
0.229076
0.225008
0.215719
0.194564
0.166825
0.14602
0.134656
0.129379
0.127209
0.126511
0.12649
0.126761
0.127137
0.127612
0.128423
0.129305
0.130799
0.133801
0.138498
0.139125
0.127679
0.106586
0.0883445
0.0785036
0.0737835
0.0712964
0.0698792
0.0689723
0.068029
0.0668898
0.0656852
0.0646799
0.0641429
0.0644043
0.0661972
)
;

boundaryField
{
    wall
    {
        type            compressible::alphatJayatillekeWallFunction;
        Prt             0.85;
        value           uniform 0;
    }
    inlet
    {
        type            calculated;
        value           uniform 37.903;
    }
    outlet
    {
        type            calculated;
        value           nonuniform List<scalar> 
20
(
0.0848122
0.0361905
0.0389954
0.0381703
0.0343439
0.0312956
0.0293181
0.0274201
0.026591
0.0661357
0.0850633
0.0364142
0.0392262
0.0384247
0.0346748
0.0315306
0.0294922
0.0275274
0.0266276
0.0661971
)
;
    }
    heatWall
    {
        type            compressible::alphatJayatillekeWallFunction;
        Prt             0.85;
        value           nonuniform List<scalar> 
240
(
0
0
0
0
0
0
0
0
0.0602311
0.0602236
0.0568215
0.0568263
0.0539623
0.0538974
0.0537421
0.0535417
0.0529638
0.0529304
0.0505101
0.0506165
0.0473223
0.0474838
0.0440774
0.0442523
0.0409997
0.0411754
0.0381209
0.0382943
0.0354328
0.0356027
0.0329708
0.0331314
0.030845
0.0309915
0.0291872
0.0293132
0.0279582
0.0280608
0.0270131
0.0270955
0.0262428
0.0263144
0.0255748
0.0256473
0.0249707
0.0250511
0.0244385
0.024529
0.024045
0.024128
0.023766
0.0238269
0.0232576
0.0233517
0.0220228
0.0222413
0.0195653
0.0199189
0.0167896
0.0171222
0.0149241
0.0151398
0.0139773
0.0140938
0.0135667
0.0136234
0.0134145
0.0134389
0.0133808
0.0133877
0.0133993
0.0133968
0.0134392
0.0134313
0.0134866
0.0134744
0.0135446
0.0135281
0.0136414
0.013619
0.013745
0.0137182
0.0139227
0.0138868
0.0142689
0.0142185
0.0147518
0.0147053
0.0146611
0.0146912
0.0132764
0.0134067
0.011007
0.0111773
0.00918573
0.00931382
0.00825706
0.00833233
0.00782025
0.00786618
0.00758854
0.00762053
0.00745723
0.00748182
0.00736974
0.00739175
0.00726865
0.00729173
0.00714636
0.00717056
0.00702123
0.00704457
0.00692546
0.00694538
0.00688383
0.00689875
0.00693245
0.00694244
0.00713392
0.00713999
0
0
0
0
0
0
0.0641641
0.0641783
0.0603234
0.060307
0.0570543
0.0570279
0.0542469
0.0542143
0.0518183
0.0517858
0.0497818
0.0497527
0.0482427
0.0481767
0.0474478
0.0473725
0.0460449
0.0460942
0.0434596
0.0436291
0.0403276
0.040547
0.0372951
0.0375128
0.0346351
0.0348331
0.0324458
0.0326074
0.0307186
0.0308472
0.0293466
0.02945
0.028226
0.0283122
0.0272972
0.0273716
0.0265224
0.0265878
0.0258595
0.0259151
0.0252799
0.0253219
0.0248615
0.024882
0.0246379
0.0246375
0.0245031
0.0244964
0.0243401
0.0243443
0.0241083
0.0241405
0.0237697
0.0238326
0.0232766
0.0233718
0.0225769
0.0227046
0.0216738
0.0218271
0.0206554
0.0208175
0.0196885
0.0198416
0.0188342
0.0189709
0.0181682
0.018271
0.0177233
0.0177912
0.0174596
0.0175
0.017317
0.0173378
0.0172419
0.0172498
0.0172011
0.0172029
0.0171488
0.0171527
0.0170443
0.0170563
0.0168727
0.0168951
0.0166557
0.0166869
0.0164397
0.0164769
0.0162555
0.0162997
0.0160314
0.0160956
0.0155279
0.0156349
0.0146098
0.0147589
0.0133528
0.0135259
0.0120225
0.0121898
0.010905
0.0110441
0.0101015
0.0102091
0.00956555
0.00964607
0.00925019
0.00930904
0.00909027
0.00913385
0.00902273
0.00905585
0.00905891
0.00908359
)
;
    }
}


// ************************************************************************* //
