/*--------------------------------*- C++ -*----------------------------------*\
  =========                 |
  \\      /  F ield         | OpenFOAM: The Open Source CFD Toolbox
   \\    /   O peration     | Website:  https://openfoam.org
    \\  /    A nd           | Version:  8
     \\/     M anipulation  |
\*---------------------------------------------------------------------------*/
FoamFile
{
    version     2.0;
    format      ascii;
    class       volScalarField;
    location    "300";
    object      epsilon;
}
// * * * * * * * * * * * * * * * * * * * * * * * * * * * * * * * * * * * * * //

dimensions      [0 2 -3 0 0 0 0];

internalField   nonuniform List<scalar> 
1200
(
72.1143
55.7063
44.1419
35.7419
29.5296
24.8524
21.259
18.4513
16.2916
14.7651
13.8734
12.4292
10.3161
8.20702
6.48782
5.1958
4.27106
3.62229
3.1536
2.79959
2.52664
2.31326
2.14024
1.99498
1.89317
1.84117
1.81069
1.77387
1.72074
1.64542
1.54022
1.39964
1.23258
1.06217
0.916887
0.800402
0.71767
0.666077
0.63695
0.621618
0.613488
0.608539
0.601906
0.589531
0.570265
0.546847
0.524106
0.504932
0.482118
0.434694
0.358305
0.270609
0.195991
0.14579
0.115804
0.0983923
0.0890947
0.084677
0.0829002
0.0840164
92.9321
58.8029
39.2014
27.2858
19.7118
14.657
11.1736
8.72861
7.0239
6.41171
6.89206
7.09351
6.52594
5.52214
4.46564
3.58082
2.92191
2.42801
2.04972
1.75169
1.51272
1.31818
1.1566
1.01889
0.900835
0.804525
0.730243
0.674033
0.63707
0.623291
0.624215
0.625023
0.609496
0.569378
0.511187
0.452332
0.401695
0.358728
0.322311
0.291184
0.26416
0.240144
0.21863
0.199479
0.182608
0.167883
0.155031
0.143832
0.13628
0.141406
0.15234
0.152537
0.1369
0.113227
0.0905165
0.0737868
0.0619686
0.0534937
0.0471129
0.0419947
92.8698
58.5416
38.8767
26.932
19.3343
14.3154
10.8919
8.4861
6.75925
5.52913
4.81425
4.38362
3.95529
3.47296
2.99232
2.57586
2.2267
1.93562
1.69255
1.48771
1.31464
1.16824
1.04329
0.934175
0.838386
0.75177
0.675725
0.611402
0.55581
0.506801
0.464292
0.427429
0.395012
0.364407
0.334304
0.306869
0.283083
0.262283
0.243779
0.227111
0.212023
0.198454
0.186268
0.175214
0.165055
0.155628
0.146862
0.138632
0.130956
0.124564
0.120519
0.116871
0.110591
0.101877
0.0926139
0.0835226
0.0748258
0.0667536
0.0591957
0.0524925
92.8691
58.6297
38.9836
27.0362
19.4166
14.3717
10.9239
8.5073
6.77923
5.50529
4.5727
3.89845
3.37472
2.93377
2.55261
2.22842
1.95238
1.71723
1.51408
1.33853
1.18728
1.05629
0.942135
0.843284
0.758199
0.684709
0.621323
0.567388
0.521333
0.4809
0.444406
0.411481
0.381542
0.354122
0.328964
0.305947
0.28519
0.266452
0.24929
0.233386
0.218527
0.204569
0.191488
0.179295
0.167967
0.157489
0.147739
0.1384
0.129339
0.120755
0.1133
0.106957
0.100744
0.0940527
0.0869344
0.0795465
0.0718659
0.0641596
0.056251
0.049036
92.8702
58.6355
38.9747
27.0187
19.3964
14.349
10.8996
8.48873
6.77607
5.51846
4.5688
3.84591
3.28404
2.8339
2.46456
2.15628
1.89482
1.66875
1.47385
1.3068
1.16199
1.0361
0.92853
0.838019
0.760986
0.694872
0.638738
0.591763
0.550775
0.513997
0.480049
0.447316
0.415995
0.386749
0.359757
0.334788
0.311353
0.289186
0.268187
0.24834
0.229721
0.212535
0.19692
0.182847
0.170259
0.158965
0.148616
0.138507
0.128624
0.118787
0.10921
0.10026
0.0918982
0.0837458
0.0753907
0.0669037
0.0584826
0.050317
0.0421665
0.0352861
92.8698
58.6384
38.9772
27.0151
19.3891
14.3392
10.8886
8.49132
6.80695
5.57224
4.63193
3.90637
3.33705
2.88148
2.50874
2.19721
1.9323
1.70391
1.50436
1.32975
1.17744
1.04459
0.928699
0.827891
0.741249
0.667522
0.605799
0.555839
0.514424
0.480357
0.452823
0.428944
0.405418
0.382334
0.359868
0.338149
0.317396
0.297701
0.27881
0.260543
0.242846
0.225853
0.209827
0.194632
0.179808
0.165152
0.151276
0.13898
0.127452
0.11541
0.103199
0.0913543
0.0802644
0.0700435
0.0605031
0.0518088
0.0440748
0.0375072
0.0316431
0.0270405
92.8673
58.6436
38.9959
27.0415
19.4131
14.3508
10.8898
8.56134
6.9672
5.76398
4.81344
4.06221
3.46982
2.99442
2.60387
2.27487
1.99153
1.74354
1.52388
1.32762
1.15084
0.992117
0.851917
0.732459
0.634096
0.555289
0.493155
0.445091
0.406776
0.37528
0.35013
0.330861
0.315658
0.301797
0.287797
0.273125
0.258015
0.243017
0.228214
0.2136
0.19916
0.185082
0.171806
0.159335
0.146296
0.133255
0.121515
0.110688
0.100691
0.0914974
0.082454
0.0733256
0.0643457
0.0560126
0.0484501
0.0417579
0.0358182
0.0306757
0.0260451
0.0224115
92.8689
58.5634
38.8827
26.9242
19.3046
14.2608
10.9275
9.12015
7.85233
6.59861
5.42779
4.53606
3.82879
3.23462
2.71718
2.26781
1.88148
1.55263
1.28501
1.08048
0.925573
0.803188
0.70115
0.612889
0.539429
0.481118
0.437941
0.406366
0.381897
0.351093
0.315535
0.282546
0.254814
0.23115
0.210333
0.191647
0.174834
0.159715
0.1467
0.135923
0.12721
0.118903
0.111672
0.105697
0.102261
0.105693
0.105502
0.098126
0.0888153
0.079427
0.0702994
0.0614862
0.0531333
0.045625
0.0390525
0.0334485
0.0286323
0.0246054
0.021145
0.0185523
92.9339
58.8651
39.2781
27.3798
19.7903
14.862
12.5167
12.7731
12.1297
10.4579
8.54034
6.83498
5.53953
4.58145
3.8469
3.26273
2.79559
2.3892
2.02347
1.71016
1.4524
1.24547
1.07685
0.935707
0.816415
0.7484
0.734986
0.732681
0.680815
0.563317
0.44062
0.342574
0.272035
0.223877
0.190708
0.166787
0.14859
0.13423
0.12257
0.112919
0.104794
0.0980589
0.0927622
0.0931194
0.127346
0.157488
0.143338
0.115061
0.0911824
0.0733483
0.060014
0.0495528
0.041104
0.0345219
0.0295165
0.0257833
0.0228788
0.0205752
0.0186284
0.0171231
72.1572
55.7526
44.1438
35.7047
29.4037
24.5607
20.9911
20.39
18.9133
16.1129
13.1721
10.6318
8.56043
6.88746
5.53615
4.46275
3.6555
3.09729
2.71788
2.44527
2.23618
2.06454
1.91703
1.79386
1.70884
1.64874
1.53836
1.28937
0.8856
0.551432
0.3863
0.318169
0.291791
0.282684
0.280979
0.28245
0.285194
0.288392
0.292269
0.298772
0.305963
0.318323
0.343263
0.379281
0.368311
0.267508
0.149027
0.0860553
0.0627696
0.0534716
0.0488868
0.0463696
0.044696
0.0428225
0.0406466
0.0385223
0.0369257
0.036231
0.0369034
0.0402688
72.1534
55.8147
44.222
35.7627
29.5044
24.8186
21.2215
18.4165
16.2631
14.7073
13.8257
12.4886
10.4459
8.3437
6.60254
5.28568
4.33561
3.66853
3.18771
2.82604
2.54814
2.33119
2.15468
2.00528
1.89791
1.84107
1.80944
1.77543
1.72871
1.65944
1.56012
1.42449
1.25976
1.08802
0.938911
0.818225
0.729996
0.673758
0.641352
0.623849
0.614376
0.608837
0.602513
0.591039
0.572835
0.550238
0.527993
0.509406
0.488406
0.444303
0.369915
0.281647
0.204479
0.151519
0.119588
0.100915
0.0908147
0.085906
0.0838204
0.0847076
92.9316
58.8564
39.2132
27.2584
19.658
14.6175
11.1527
8.71372
6.99291
6.28664
6.73506
7.01202
6.52805
5.56704
4.5197
3.62188
2.95098
2.44828
2.06402
1.76219
1.5208
1.32461
1.16172
1.02287
0.903638
0.805678
0.729034
0.669977
0.628865
0.612512
0.613077
0.616527
0.605947
0.571034
0.515869
0.456597
0.405255
0.361609
0.324669
0.293154
0.265835
0.241585
0.219877
0.200531
0.183458
0.168538
0.15553
0.144208
0.136134
0.140018
0.151309
0.153229
0.139098
0.115946
0.0929108
0.0756179
0.0633813
0.0546196
0.0480408
0.0427858
92.8704
58.5985
38.9168
26.9558
19.3438
14.3168
10.885
8.47667
6.75276
5.51143
4.77417
4.3478
3.93979
3.47392
3.00051
2.58402
2.23415
1.94166
1.69698
1.49129
1.31787
1.1715
1.04638
0.937532
0.840763
0.754555
0.679104
0.614759
0.55911
0.510262
0.46747
0.43002
0.397065
0.366288
0.336167
0.308274
0.283921
0.262636
0.243788
0.226891
0.211647
0.197947
0.185657
0.17455
0.164395
0.155021
0.146353
0.138253
0.130675
0.124224
0.120096
0.1167
0.110893
0.102512
0.0933891
0.0843992
0.075771
0.0677395
0.0602024
0.053489
92.8692
58.6563
39.0046
27.0458
19.4208
14.3761
10.9246
8.51155
6.78773
5.51435
4.57057
3.88741
3.36251
2.92441
2.54594
2.22228
1.94944
1.71576
1.51204
1.33624
1.18525
1.05461
0.940688
0.842194
0.757616
0.684597
0.621712
0.568302
0.522595
0.482258
0.445821
0.412903
0.382854
0.355303
0.330027
0.306899
0.28603
0.267152
0.249834
0.233788
0.218805
0.204734
0.19155
0.179259
0.167843
0.157285
0.14758
0.138483
0.129688
0.121197
0.113624
0.10718
0.101021
0.0944668
0.0874913
0.0802484
0.0727025
0.0651044
0.0572829
0.0500905
92.8671
58.6433
38.9814
27.0204
19.398
14.3532
10.9039
8.49576
6.78603
5.52928
4.57846
3.85293
3.28924
2.83841
2.46866
2.15946
1.89591
1.66795
1.47298
1.30633
1.16151
1.03572
0.928786
0.839161
0.762854
0.697293
0.64169
0.595174
0.554334
0.517323
0.482758
0.449331
0.417563
0.387994
0.360705
0.335408
0.31161
0.289117
0.267845
0.24779
0.229026
0.211754
0.196105
0.182027
0.16944
0.158173
0.148059
0.13852
0.129166
0.119703
0.110252
0.101251
0.0928318
0.0846979
0.0764258
0.0680216
0.0596697
0.0515246
0.0433325
0.0363369
92.8694
58.6417
38.9734
27.0114
19.387
14.3407
10.891
8.4982
6.81599
5.58106
4.6399
3.91334
3.34323
2.88659
2.51272
2.20009
1.93424
1.70467
1.50413
1.32902
1.1765
1.04354
0.927657
0.827012
0.740842
0.667937
0.607496
0.559131
0.519028
0.485799
0.458537
0.433997
0.409707
0.385936
0.362874
0.340623
0.31937
0.299177
0.279794
0.261062
0.242928
0.225609
0.20936
0.194008
0.17919
0.1648
0.151469
0.139746
0.12877
0.117083
0.104997
0.0930993
0.0818862
0.0715464
0.0618876
0.0530495
0.0451448
0.0384111
0.0323847
0.0276428
92.8713
58.6507
38.9972
27.0396
19.41
14.3505
10.8911
8.57313
6.98055
5.77472
4.82161
4.06841
3.47504
2.99864
2.60686
2.27647
1.99162
1.74246
1.52173
1.32431
1.14627
0.986538
0.845913
0.726895
0.629611
0.552421
0.492108
0.445748
0.408608
0.378039
0.353892
0.335564
0.320437
0.306204
0.291612
0.276291
0.260596
0.245081
0.229762
0.214618
0.199671
0.18521
0.171686
0.159144
0.14632
0.133528
0.122116
0.111626
0.101799
0.0927326
0.0837606
0.074625
0.0655724
0.0571266
0.0494315
0.0426032
0.0365348
0.0312765
0.0265354
0.0228051
92.8702
58.5564
38.8808
26.9167
19.2989
14.2564
10.9326
9.12269
7.85455
6.593
5.42291
4.53364
3.82554
3.22804
2.70758
2.25676
1.8703
1.54247
1.2769
1.07496
0.922187
0.801086
0.699646
0.611583
0.53854
0.480288
0.436806
0.403999
0.378063
0.347881
0.312675
0.279557
0.251928
0.228264
0.20742
0.188791
0.172308
0.157921
0.145936
0.13619
0.128224
0.120133
0.112032
0.10507
0.100879
0.104041
0.104778
0.098212
0.0893321
0.0802013
0.0711981
0.0624162
0.0540322
0.0464539
0.0397897
0.0340823
0.0291554
0.0250153
0.0214411
0.0187573
92.9308
58.8325
39.2224
27.2538
19.6421
14.681
12.2492
12.513
12.0454
10.4815
8.60032
6.88752
5.5761
4.60797
3.8668
3.28443
2.80603
2.38093
2.00926
1.69697
1.44247
1.23903
1.07261
0.932344
0.81355
0.751834
0.741455
0.744062
0.693043
0.58054
0.459189
0.358712
0.284143
0.232173
0.196112
0.170183
0.150633
0.135404
0.123176
0.113143
0.104748
0.097788
0.0923122
0.0917807
0.123402
0.155937
0.144668
0.116983
0.0929111
0.0747766
0.0611694
0.0504842
0.0418459
0.035098
0.0299492
0.0260998
0.0231045
0.0207337
0.0187344
0.0171879
72.1186
55.7004
44.1228
35.6875
29.3919
24.5659
20.9032
20.2067
18.9191
16.2312
13.3115
10.7593
8.67055
6.98142
5.61589
4.52816
3.70793
3.13793
2.74876
2.46924
2.25688
2.08519
1.93909
1.8173
1.72888
1.66234
1.55871
1.33142
0.937238
0.585734
0.403369
0.326097
0.295367
0.284144
0.28135
0.282242
0.284647
0.287567
0.291154
0.297254
0.304117
0.315798
0.339541
0.375774
0.370997
0.27596
0.156295
0.0897497
0.0645024
0.0544201
0.0495092
0.0468314
0.0451015
0.043238
0.0410671
0.0389121
0.0372471
0.036467
0.037063
0.0403729
)
;

boundaryField
{
    wall
    {
        type            epsilonWallFunction;
        value           nonuniform List<scalar> 
1200
(
72.1143
92.9321
92.8698
92.8691
92.8702
92.8698
92.8673
92.8689
92.9339
72.1572
55.7063
58.8029
58.5416
58.6297
58.6355
58.6384
58.6436
58.5634
58.8651
55.7526
44.1419
39.2014
38.8767
38.9836
38.9747
38.9772
38.9959
38.8827
39.2781
44.1438
35.7419
27.2858
26.932
27.0362
27.0187
27.0151
27.0415
26.9242
27.3798
35.7047
29.5296
19.7118
19.3343
19.4166
19.3964
19.3891
19.4131
19.3046
19.7903
29.4037
24.8524
14.657
14.3154
14.3717
14.349
14.3392
14.3508
14.2608
14.862
24.5607
21.259
11.1736
10.8919
10.9239
10.8996
10.8886
10.8898
10.9275
12.5167
20.9911
18.4513
8.72861
8.4861
8.5073
8.48873
8.49132
8.56134
9.12015
12.7731
20.39
16.2916
7.0239
6.75925
6.77923
6.77607
6.80695
6.9672
7.85233
12.1297
18.9133
14.7651
6.41171
5.52913
5.50529
5.51846
5.57224
5.76398
6.59861
10.4579
16.1129
13.8734
6.89206
4.81425
4.5727
4.5688
4.63193
4.81344
5.42779
8.54034
13.1721
12.4292
7.09351
4.38362
3.89845
3.84591
3.90637
4.06221
4.53606
6.83498
10.6318
10.3161
6.52594
3.95529
3.37472
3.28404
3.33705
3.46982
3.82879
5.53953
8.56043
8.20702
5.52214
3.47296
2.93377
2.8339
2.88148
2.99442
3.23462
4.58145
6.88746
6.48782
4.46564
2.99232
2.55261
2.46456
2.50874
2.60387
2.71718
3.8469
5.53615
5.1958
3.58082
2.57586
2.22842
2.15628
2.19721
2.27487
2.26781
3.26273
4.46275
4.27106
2.92191
2.2267
1.95238
1.89482
1.9323
1.99153
1.88148
2.79559
3.6555
3.62229
2.42801
1.93562
1.71723
1.66875
1.70391
1.74354
1.55263
2.3892
3.09729
3.1536
2.04972
1.69255
1.51408
1.47385
1.50436
1.52388
1.28501
2.02347
2.71788
2.79959
1.75169
1.48771
1.33853
1.3068
1.32975
1.32762
1.08048
1.71016
2.44527
2.52664
1.51272
1.31464
1.18728
1.16199
1.17744
1.15084
0.925573
1.4524
2.23618
2.31326
1.31818
1.16824
1.05629
1.0361
1.04459
0.992117
0.803188
1.24547
2.06454
2.14024
1.1566
1.04329
0.942135
0.92853
0.928699
0.851917
0.70115
1.07685
1.91703
1.99498
1.01889
0.934175
0.843284
0.838019
0.827891
0.732459
0.612889
0.935707
1.79386
1.89317
0.900835
0.838386
0.758199
0.760986
0.741249
0.634096
0.539429
0.816415
1.70884
1.84117
0.804525
0.75177
0.684709
0.694872
0.667522
0.555289
0.481118
0.7484
1.64874
1.81069
0.730243
0.675725
0.621323
0.638738
0.605799
0.493155
0.437941
0.734986
1.53836
1.77387
0.674033
0.611402
0.567388
0.591763
0.555839
0.445091
0.406366
0.732681
1.28937
1.72074
0.63707
0.55581
0.521333
0.550775
0.514424
0.406776
0.381897
0.680815
0.8856
1.64542
0.623291
0.506801
0.4809
0.513997
0.480357
0.37528
0.351093
0.563317
0.551432
1.54022
0.624215
0.464292
0.444406
0.480049
0.452823
0.35013
0.315535
0.44062
0.3863
1.39964
0.625023
0.427429
0.411481
0.447316
0.428944
0.330861
0.282546
0.342574
0.318169
1.23258
0.609496
0.395012
0.381542
0.415995
0.405418
0.315658
0.254814
0.272035
0.291791
1.06217
0.569378
0.364407
0.354122
0.386749
0.382334
0.301797
0.23115
0.223877
0.282684
0.916887
0.511187
0.334304
0.328964
0.359757
0.359868
0.287797
0.210333
0.190708
0.280979
0.800402
0.452332
0.306869
0.305947
0.334788
0.338149
0.273125
0.191647
0.166787
0.28245
0.71767
0.401695
0.283083
0.28519
0.311353
0.317396
0.258015
0.174834
0.14859
0.285194
0.666077
0.358728
0.262283
0.266452
0.289186
0.297701
0.243017
0.159715
0.13423
0.288392
0.63695
0.322311
0.243779
0.24929
0.268187
0.27881
0.228214
0.1467
0.12257
0.292269
0.621618
0.291184
0.227111
0.233386
0.24834
0.260543
0.2136
0.135923
0.112919
0.298772
0.613488
0.26416
0.212023
0.218527
0.229721
0.242846
0.19916
0.12721
0.104794
0.305963
0.608539
0.240144
0.198454
0.204569
0.212535
0.225853
0.185082
0.118903
0.0980589
0.318323
0.601906
0.21863
0.186268
0.191488
0.19692
0.209827
0.171806
0.111672
0.0927622
0.343263
0.589531
0.199479
0.175214
0.179295
0.182847
0.194632
0.159335
0.105697
0.0931194
0.379281
0.570265
0.182608
0.165055
0.167967
0.170259
0.179808
0.146296
0.102261
0.127346
0.368311
0.546847
0.167883
0.155628
0.157489
0.158965
0.165152
0.133255
0.105693
0.157488
0.267508
0.524106
0.155031
0.146862
0.147739
0.148616
0.151276
0.121515
0.105502
0.143338
0.149027
0.504932
0.143832
0.138632
0.1384
0.138507
0.13898
0.110688
0.098126
0.115061
0.0860553
0.482118
0.13628
0.130956
0.129339
0.128624
0.127452
0.100691
0.0888153
0.0911824
0.0627696
0.434694
0.141406
0.124564
0.120755
0.118787
0.11541
0.0914974
0.079427
0.0733483
0.0534716
0.358305
0.15234
0.120519
0.1133
0.10921
0.103199
0.082454
0.0702994
0.060014
0.0488868
0.270609
0.152537
0.116871
0.106957
0.10026
0.0913543
0.0733256
0.0614862
0.0495528
0.0463696
0.195991
0.1369
0.110591
0.100744
0.0918982
0.0802644
0.0643457
0.0531333
0.041104
0.044696
0.14579
0.113227
0.101877
0.0940527
0.0837458
0.0700435
0.0560126
0.045625
0.0345219
0.0428225
0.115804
0.0905165
0.0926139
0.0869344
0.0753907
0.0605031
0.0484501
0.0390525
0.0295165
0.0406466
0.0983923
0.0737868
0.0835226
0.0795465
0.0669037
0.0518088
0.0417579
0.0334485
0.0257833
0.0385223
0.0890947
0.0619686
0.0748258
0.0718659
0.0584826
0.0440748
0.0358182
0.0286323
0.0228788
0.0369257
0.084677
0.0534937
0.0667536
0.0641596
0.050317
0.0375072
0.0306757
0.0246054
0.0205752
0.036231
0.0829002
0.0471129
0.0591957
0.056251
0.0421665
0.0316431
0.0260451
0.021145
0.0186284
0.0369034
0.0840164
0.0419947
0.0524925
0.049036
0.0352861
0.0270405
0.0224115
0.0185523
0.0171231
0.0402688
72.1534
92.9316
92.8704
92.8692
92.8671
92.8694
92.8713
92.8702
92.9308
72.1186
55.8147
58.8564
58.5985
58.6563
58.6433
58.6417
58.6507
58.5564
58.8325
55.7004
44.222
39.2132
38.9168
39.0046
38.9814
38.9734
38.9972
38.8808
39.2224
44.1228
35.7627
27.2584
26.9558
27.0458
27.0204
27.0114
27.0396
26.9167
27.2538
35.6875
29.5044
19.658
19.3438
19.4208
19.398
19.387
19.41
19.2989
19.6421
29.3919
24.8186
14.6175
14.3168
14.3761
14.3532
14.3407
14.3505
14.2564
14.681
24.5659
21.2215
11.1527
10.885
10.9246
10.9039
10.891
10.8911
10.9326
12.2492
20.9032
18.4165
8.71372
8.47667
8.51155
8.49576
8.4982
8.57313
9.12269
12.513
20.2067
16.2631
6.99291
6.75276
6.78773
6.78603
6.81599
6.98055
7.85455
12.0454
18.9191
14.7073
6.28664
5.51143
5.51435
5.52928
5.58106
5.77472
6.593
10.4815
16.2312
13.8257
6.73506
4.77417
4.57057
4.57846
4.6399
4.82161
5.42291
8.60032
13.3115
12.4886
7.01202
4.3478
3.88741
3.85293
3.91334
4.06841
4.53364
6.88752
10.7593
10.4459
6.52805
3.93979
3.36251
3.28924
3.34323
3.47504
3.82554
5.5761
8.67055
8.3437
5.56704
3.47392
2.92441
2.83841
2.88659
2.99864
3.22804
4.60797
6.98142
6.60254
4.5197
3.00051
2.54594
2.46866
2.51272
2.60686
2.70758
3.8668
5.61589
5.28568
3.62188
2.58402
2.22228
2.15946
2.20009
2.27647
2.25676
3.28443
4.52816
4.33561
2.95098
2.23415
1.94944
1.89591
1.93424
1.99162
1.8703
2.80603
3.70793
3.66853
2.44828
1.94166
1.71576
1.66795
1.70467
1.74246
1.54247
2.38093
3.13793
3.18771
2.06402
1.69698
1.51204
1.47298
1.50413
1.52173
1.2769
2.00926
2.74876
2.82604
1.76219
1.49129
1.33624
1.30633
1.32902
1.32431
1.07496
1.69697
2.46924
2.54814
1.5208
1.31787
1.18525
1.16151
1.1765
1.14627
0.922187
1.44247
2.25688
2.33119
1.32461
1.1715
1.05461
1.03572
1.04354
0.986538
0.801086
1.23903
2.08519
2.15468
1.16172
1.04638
0.940688
0.928786
0.927657
0.845913
0.699646
1.07261
1.93909
2.00528
1.02287
0.937532
0.842194
0.839161
0.827012
0.726895
0.611583
0.932344
1.8173
1.89791
0.903638
0.840763
0.757616
0.762854
0.740842
0.629611
0.53854
0.81355
1.72888
1.84107
0.805678
0.754555
0.684597
0.697293
0.667937
0.552421
0.480288
0.751834
1.66234
1.80944
0.729034
0.679104
0.621712
0.64169
0.607496
0.492108
0.436806
0.741455
1.55871
1.77543
0.669977
0.614759
0.568302
0.595174
0.559131
0.445748
0.403999
0.744062
1.33142
1.72871
0.628865
0.55911
0.522595
0.554334
0.519028
0.408608
0.378063
0.693043
0.937238
1.65944
0.612512
0.510262
0.482258
0.517323
0.485799
0.378039
0.347881
0.58054
0.585734
1.56012
0.613077
0.46747
0.445821
0.482758
0.458537
0.353892
0.312675
0.459189
0.403369
1.42449
0.616527
0.43002
0.412903
0.449331
0.433997
0.335564
0.279557
0.358712
0.326097
1.25976
0.605947
0.397065
0.382854
0.417563
0.409707
0.320437
0.251928
0.284143
0.295367
1.08802
0.571034
0.366288
0.355303
0.387994
0.385936
0.306204
0.228264
0.232173
0.284144
0.938911
0.515869
0.336167
0.330027
0.360705
0.362874
0.291612
0.20742
0.196112
0.28135
0.818225
0.456597
0.308274
0.306899
0.335408
0.340623
0.276291
0.188791
0.170183
0.282242
0.729996
0.405255
0.283921
0.28603
0.31161
0.31937
0.260596
0.172308
0.150633
0.284647
0.673758
0.361609
0.262636
0.267152
0.289117
0.299177
0.245081
0.157921
0.135404
0.287567
0.641352
0.324669
0.243788
0.249834
0.267845
0.279794
0.229762
0.145936
0.123176
0.291154
0.623849
0.293154
0.226891
0.233788
0.24779
0.261062
0.214618
0.13619
0.113143
0.297254
0.614376
0.265835
0.211647
0.218805
0.229026
0.242928
0.199671
0.128224
0.104748
0.304117
0.608837
0.241585
0.197947
0.204734
0.211754
0.225609
0.18521
0.120133
0.097788
0.315798
0.602513
0.219877
0.185657
0.19155
0.196105
0.20936
0.171686
0.112032
0.0923122
0.339541
0.591039
0.200531
0.17455
0.179259
0.182027
0.194008
0.159144
0.10507
0.0917807
0.375774
0.572835
0.183458
0.164395
0.167843
0.16944
0.17919
0.14632
0.100879
0.123402
0.370997
0.550238
0.168538
0.155021
0.157285
0.158173
0.1648
0.133528
0.104041
0.155937
0.27596
0.527993
0.15553
0.146353
0.14758
0.148059
0.151469
0.122116
0.104778
0.144668
0.156295
0.509406
0.144208
0.138253
0.138483
0.13852
0.139746
0.111626
0.098212
0.116983
0.0897497
0.488406
0.136134
0.130675
0.129688
0.129166
0.12877
0.101799
0.0893321
0.0929111
0.0645024
0.444303
0.140018
0.124224
0.121197
0.119703
0.117083
0.0927326
0.0802013
0.0747766
0.0544201
0.369915
0.151309
0.120096
0.113624
0.110252
0.104997
0.0837606
0.0711981
0.0611694
0.0495092
0.281647
0.153229
0.1167
0.10718
0.101251
0.0930993
0.074625
0.0624162
0.0504842
0.0468314
0.204479
0.139098
0.110893
0.101021
0.0928318
0.0818862
0.0655724
0.0540322
0.0418459
0.0451015
0.151519
0.115946
0.102512
0.0944668
0.0846979
0.0715464
0.0571266
0.0464539
0.035098
0.043238
0.119588
0.0929108
0.0933891
0.0874913
0.0764258
0.0618876
0.0494315
0.0397897
0.0299492
0.0410671
0.100915
0.0756179
0.0843992
0.0802484
0.0680216
0.0530495
0.0426032
0.0340823
0.0260998
0.0389121
0.0908147
0.0633813
0.075771
0.0727025
0.0596697
0.0451448
0.0365348
0.0291554
0.0231045
0.0372471
0.085906
0.0546196
0.0677395
0.0651044
0.0515246
0.0384111
0.0312765
0.0250153
0.0207337
0.036467
0.0838204
0.0480408
0.0602024
0.0572829
0.0433325
0.0323847
0.0265354
0.0214411
0.0187344
0.037063
0.0847076
0.0427858
0.053489
0.0500905
0.0363369
0.0276428
0.0228051
0.0187573
0.0171879
0.0403729
)
;
    }
    inlet
    {
        type            turbulentMixingLengthDissipationRateInlet;
        mixingLength    0.071;
        phi             phi;
        k               k;
        value           uniform 2.17686;
    }
    outlet
    {
        type            inletOutlet;
        inletValue      uniform 0.0001;
        value           nonuniform List<scalar> 
20
(
0.0840164
0.0419947
0.0524925
0.049036
0.0352861
0.0270405
0.0224115
0.0185523
0.0171231
0.0402688
0.0847076
0.0427858
0.053489
0.0500905
0.0363369
0.0276428
0.0228051
0.0187573
0.0171879
0.0403729
)
;
    }
    heatWall
    {
        type            epsilonWallFunction;
        value           nonuniform List<scalar> 
240
(
72.1572
72.1186
55.7526
55.7004
44.1438
44.1228
35.7047
35.6875
29.4037
29.3919
24.5607
24.5659
20.9911
20.9032
20.39
20.2067
18.9133
18.9191
16.1129
16.2312
13.1721
13.3115
10.6318
10.7593
8.56043
8.67055
6.88746
6.98142
5.53615
5.61589
4.46275
4.52816
3.6555
3.70793
3.09729
3.13793
2.71788
2.74876
2.44527
2.46924
2.23618
2.25688
2.06454
2.08519
1.91703
1.93909
1.79386
1.8173
1.70884
1.72888
1.64874
1.66234
1.53836
1.55871
1.28937
1.33142
0.8856
0.937238
0.551432
0.585734
0.3863
0.403369
0.318169
0.326097
0.291791
0.295367
0.282684
0.284144
0.280979
0.28135
0.28245
0.282242
0.285194
0.284647
0.288392
0.287567
0.292269
0.291154
0.298772
0.297254
0.305963
0.304117
0.318323
0.315798
0.343263
0.339541
0.379281
0.375774
0.368311
0.370997
0.267508
0.27596
0.149027
0.156295
0.0860553
0.0897497
0.0627696
0.0645024
0.0534716
0.0544201
0.0488868
0.0495092
0.0463696
0.0468314
0.044696
0.0451015
0.0428225
0.043238
0.0406466
0.0410671
0.0385223
0.0389121
0.0369257
0.0372471
0.036231
0.036467
0.0369034
0.037063
0.0402688
0.0403729
72.1143
72.1534
55.7063
55.8147
44.1419
44.222
35.7419
35.7627
29.5296
29.5044
24.8524
24.8186
21.259
21.2215
18.4513
18.4165
16.2916
16.2631
14.7651
14.7073
13.8734
13.8257
12.4292
12.4886
10.3161
10.4459
8.20702
8.3437
6.48782
6.60254
5.1958
5.28568
4.27106
4.33561
3.62229
3.66853
3.1536
3.18771
2.79959
2.82604
2.52664
2.54814
2.31326
2.33119
2.14024
2.15468
1.99498
2.00528
1.89317
1.89791
1.84117
1.84107
1.81069
1.80944
1.77387
1.77543
1.72074
1.72871
1.64542
1.65944
1.54022
1.56012
1.39964
1.42449
1.23258
1.25976
1.06217
1.08802
0.916887
0.938911
0.800402
0.818225
0.71767
0.729996
0.666077
0.673758
0.63695
0.641352
0.621618
0.623849
0.613488
0.614376
0.608539
0.608837
0.601906
0.602513
0.589531
0.591039
0.570265
0.572835
0.546847
0.550238
0.524106
0.527993
0.504932
0.509406
0.482118
0.488406
0.434694
0.444303
0.358305
0.369915
0.270609
0.281647
0.195991
0.204479
0.14579
0.151519
0.115804
0.119588
0.0983923
0.100915
0.0890947
0.0908147
0.084677
0.085906
0.0829002
0.0838204
0.0840164
0.0847076
)
;
    }
}


// ************************************************************************* //
