/*--------------------------------*- C++ -*----------------------------------*\
  =========                 |
  \\      /  F ield         | OpenFOAM: The Open Source CFD Toolbox
   \\    /   O peration     | Website:  https://openfoam.org
    \\  /    A nd           | Version:  8
     \\/     M anipulation  |
\*---------------------------------------------------------------------------*/
FoamFile
{
    version     2.0;
    format      ascii;
    class       volScalarField;
    location    "300";
    object      p;
}
// * * * * * * * * * * * * * * * * * * * * * * * * * * * * * * * * * * * * * //

dimensions      [1 -1 -2 0 0 0 0];

internalField   nonuniform List<scalar> 
1200
(
-47008.8
-49557.2
-51305.3
-51696.1
-52224.3
-54204.6
-56605.8
-59793.6
-63912
-67717.5
-67056.9
-82214.8
-101075
-114489
-120659
-120545
-115329
-107507
-99042.5
-91602.6
-86265.9
-82522.7
-79517.2
-76888.7
-74403.6
-73548.8
-72432.3
-71798.5
-71550.5
-72008.7
-72689.2
-73554.9
-74720.5
-75954.9
-76863.4
-75901.8
-73602.8
-70096.9
-66564.8
-63143.1
-60000.7
-56714.4
-53595.4
-50375.4
-47178.6
-44479.8
-42512.9
-41034.7
-39086.3
-35935.1
-32245.6
-30012.3
-29698.6
-29806.5
-27858.3
-23475.1
-17310.8
-11533.5
-5718.93
-1167.66
-54561.4
-53175.8
-53512.9
-53453.9
-53418.6
-54705
-56924
-59952.2
-64166
-68472.8
-69894.2
-83101.5
-100757
-113984
-120298
-119928
-115007
-107524
-99124.9
-91623.3
-86283.8
-82474.7
-79301.6
-76401.3
-73901.6
-73393.8
-72375.2
-71562.5
-70992
-71489.4
-72606.3
-73942.1
-75388.5
-76745.6
-77439.4
-76151.5
-73613.7
-70181
-66677.9
-63203.1
-59895.7
-56441.2
-53278.4
-50094.4
-46902.9
-44213.7
-42316.3
-40940.3
-38945.4
-35616
-31938.7
-29913.4
-29947.9
-30245.5
-27970.4
-23391
-17459.4
-11893.6
-6046.52
-1943.81
-53137.9
-51618
-51630.6
-51992.7
-52524.1
-53992.2
-56488.2
-59556.7
-64303.5
-69521.2
-73998.3
-86309.7
-101603
-113262
-119205
-119204
-114935
-107548
-99130.9
-91798.7
-86796.9
-83335.2
-80285.9
-77224.6
-74539
-74196.7
-73484.8
-72646.9
-71925.1
-72637.3
-73722.1
-74631.5
-75589.7
-76466.7
-76846.1
-75735.7
-73623.8
-70477.3
-67018.9
-63573.6
-60312.2
-56935.7
-53723.6
-50437
-47104.4
-44396.6
-42824.9
-42072.4
-40578.9
-37389
-33802.5
-31389.6
-30434.4
-29769.5
-27219.3
-22841.9
-17277.6
-12086
-6271.18
-3057.91
-53306.5
-52723.6
-52968.8
-53436.6
-53845.7
-54818.9
-56923.6
-59729.1
-65196.2
-71289.3
-77170.5
-87753
-100558
-110985
-116875
-117471
-113797
-107407
-99543.2
-92110.8
-86877.7
-83289.9
-80349.8
-77400.6
-74784
-74223.1
-73759.8
-72936.8
-71880.9
-72820.8
-74703.7
-75999.2
-76842.4
-77254.3
-77005.4
-75564.6
-73314.2
-70299.2
-66881.9
-63458.6
-60192.3
-56821.7
-53501
-50036.7
-46446.3
-43714.1
-42552
-42406.2
-41164.1
-37940.8
-34425.6
-31838.5
-30356.6
-29060.9
-26234.9
-22057.3
-16809.9
-11997.6
-6137.34
-3624.32
-53399.6
-52973.1
-52963.7
-53266.6
-53637.1
-54343.1
-56120
-58486.2
-65292.2
-72898.4
-80120.4
-89904.4
-100961
-110299
-116096
-117334
-114218
-108131
-100513
-93217.4
-87997.1
-84422.6
-81569.7
-78803.7
-76224.5
-75262
-74590
-73513.1
-72174.8
-73758
-76130.5
-77382.1
-77693.1
-77494
-76657.8
-74985.4
-72785.7
-69996.4
-66749.4
-63447.3
-60248.6
-56967.4
-53691
-50102.1
-46134.8
-43189.7
-42738.2
-43792.4
-43230.6
-40190.2
-36426.2
-33065.8
-30575.5
-28510.3
-25415.4
-21504.6
-16527.6
-12051.8
-6095.08
-4214.47
-53617.4
-53228.7
-53255.6
-53545.8
-53902.6
-54501
-56176.3
-57862.6
-66431.9
-75349.7
-82898.4
-91315.8
-100559
-108905
-114788
-117201
-114979
-109311
-101919
-94457.2
-88964.6
-85241.2
-82395.6
-79827.8
-77333.2
-75966.1
-74778.1
-73207.2
-71804.3
-74458.8
-77740.9
-79057.9
-79004
-78368.2
-77116.2
-75214.4
-72876.9
-70086.7
-66820.7
-63466.3
-60192.7
-56827.8
-53582.7
-49769.6
-45129.2
-41808.7
-42404.4
-44895.6
-44428.6
-41024
-36982.3
-33291.5
-30371.5
-28008
-24839.3
-21137.5
-16329.8
-12132.5
-6042.99
-4444.86
-53920.3
-53560.7
-53824.8
-54376.9
-54843.4
-55231.2
-56664.3
-56648.4
-67686.6
-78721.6
-87345.9
-94879.1
-102514
-109819
-115533
-118862
-117783
-111424
-102945
-94940.9
-89308.8
-85563.4
-82867.2
-80837.4
-78943.5
-77599.3
-75918.8
-73595.8
-71775.2
-75158.3
-79169.8
-80734
-80490.4
-79367.9
-77655.7
-75483.9
-72971.4
-70130.4
-66911
-63592.1
-60346.6
-56867.1
-53754.8
-49755.9
-44317.8
-40337
-42360.7
-47112.8
-47330.4
-43508.7
-38643.4
-34067.1
-30411.6
-27717.1
-24528.1
-21029.1
-16316.3
-12329
-6210.05
-4901.07
-54098.7
-53113
-52948.6
-53422.9
-53956.5
-54410.6
-56839
-54185.6
-68990.8
-81994.7
-90507.4
-96577.4
-103384
-110841
-117972
-126737
-131875
-122932
-109163
-97834.8
-90694.2
-86413
-83528.4
-81638.1
-79941.4
-78514.3
-76441.9
-73473.6
-71239.5
-75618.5
-80180.8
-81678.6
-81257.1
-79904.1
-78036.1
-75790.4
-73158.5
-70153.4
-66860.5
-63507
-60332.4
-56805.4
-54026.1
-50210.9
-43888.1
-39296.8
-42486.7
-48225.7
-48570.5
-44267.9
-38961.7
-34047.6
-30159.6
-27446.5
-24356.8
-21040.5
-16313.9
-12312.9
-5925.8
-5107.82
-55451.9
-55393.3
-54880.7
-55010.5
-55248.9
-55079.1
-56283.1
-48955.6
-69023.4
-86135.3
-95634.9
-99612.8
-104234
-110624
-118211
-128881
-136769
-126784
-111025
-98434
-91219.5
-87228.4
-84620.7
-82930.1
-81239.2
-79793
-76994.4
-73248.1
-70824.4
-76529.6
-81676.7
-82828.8
-82098.2
-80453.9
-78364.6
-76004.1
-73335.8
-70332.3
-67088.7
-63695.8
-60730.2
-57066
-54012
-50171.5
-43996.1
-39295.6
-43073.2
-50807.9
-51229.6
-45719.3
-39525.3
-34019.5
-29821.2
-27141.7
-24217
-21134.4
-16471.9
-12585.8
-6158.61
-3920.04
-48225.2
-52139.8
-53102.7
-53703.8
-54136.7
-54023.9
-53617.3
-40040.7
-67475.9
-87638.8
-97633.3
-101311
-105301
-110873
-118141
-128888
-137048
-127754
-111724
-98795.8
-91343.3
-87298.6
-84740.7
-83028
-80926.3
-78537.8
-75594.7
-71625
-69187.8
-75419.7
-81752.3
-83453.3
-82478.5
-80574.6
-78360.5
-75975.3
-73333.9
-70364.4
-67164.6
-63747.5
-60904.7
-57531.8
-54542.9
-50539.8
-44488.1
-39678.4
-42394.3
-49662.9
-51423
-46284.7
-39802.1
-34219.5
-30035.2
-27387.5
-24489.5
-21467.9
-16807
-12918.7
-6464
-3307.14
-45776.4
-50737.1
-51905.2
-53012.1
-54074.2
-54582.6
-55907.7
-58760.1
-64359.9
-69520.2
-69627.7
-84640.5
-102610
-115014
-120435
-119671
-113953
-105876
-97763
-91163.2
-85835
-81927
-79558.1
-78686.4
-77302.1
-74540.8
-71814.4
-70030.2
-70316
-71957.2
-73560.7
-74665.9
-75649.6
-76632.5
-76950.4
-76035.5
-73515.3
-69860.9
-66020.9
-62577
-59767.4
-57296.4
-54315.3
-50949.2
-47663.8
-45092.9
-43624.2
-42417.5
-40272.9
-37260.5
-33736.6
-31349.4
-30629
-30057.7
-27679.7
-22937
-16481.6
-10480.5
-4794.07
-367.721
-54153.6
-53938.2
-53851.1
-54201.3
-54593.9
-55101.6
-56349.7
-59154
-64794.5
-70219.7
-71763.3
-84449.5
-101669
-114466
-120344
-119451
-113982
-106120
-97993.1
-91385.2
-86063.7
-82074.6
-79438
-78219.3
-76896.8
-74650
-72047.1
-70158.8
-70424.7
-72070.8
-73799.8
-75177
-76365
-77500
-77819.1
-76642.7
-73798.1
-70061.8
-66304
-62896.4
-59955.6
-57279.8
-54265.2
-50904.3
-47591.3
-45009.6
-43642.7
-42591.6
-40444.9
-37233.3
-33603.2
-31324.8
-30917.5
-30630.4
-28029.6
-23068.9
-16804.4
-11001
-5377
-1209.55
-52719.9
-52198.7
-52121.3
-52462.6
-52937.1
-54192.8
-55812
-58676.1
-64666.3
-70684.8
-74829.6
-86405.8
-101519
-113049
-118702
-118229
-113475
-105774
-97760.7
-91481.1
-86502.7
-82825.9
-80185.1
-78718.3
-77410.3
-75427.3
-72957.8
-71040.2
-71313.6
-72969.3
-74528.2
-75617.2
-76401.1
-77033.4
-77096.5
-76005.9
-73501.1
-69999.8
-66486.3
-63213.2
-60298.6
-57616.5
-54592
-51117.5
-47638.1
-45013.8
-43957.2
-43455.8
-41768.4
-38706.7
-35204
-32697.9
-31409.3
-30179.1
-27338.1
-22603.1
-16727.3
-11285.3
-5861.29
-2150.93
-53137.4
-52938.3
-53123.2
-53384
-53697.7
-54966.9
-56459.2
-59012.3
-65443.5
-72197.8
-77761.3
-87624.1
-100284
-110592
-116193
-116335
-112191
-105342
-97848.3
-91626.1
-86528.2
-82798.8
-80102.7
-78604.8
-77267.1
-75496.2
-73402.7
-71609.4
-71544.4
-73080.5
-75215.9
-76711.5
-77486.9
-77696.4
-77286.9
-75859
-73171.6
-69727.2
-66382.9
-63166.2
-60198
-57461.8
-54405.1
-50756.8
-46996.5
-44304
-43710.4
-43892.7
-42509.5
-39423.4
-35940
-33244.2
-31369.2
-29503.4
-26478
-21994.5
-16497
-11425.3
-6192.53
-2741.49
-53273.7
-52983.1
-52924.4
-53060
-53345.8
-54545.1
-55844.9
-57811.9
-65413.5
-73709.9
-80729.7
-89854
-100738
-109915
-115377
-116119
-112530
-105777
-98398.1
-92491.4
-87627.7
-84055.3
-81307.3
-79604.7
-78164
-76463.5
-74475
-72715.7
-72532.1
-74379.6
-76608
-77980.6
-78317.2
-77948.7
-77028.3
-75354.5
-72781
-69541.3
-66391.4
-63282.2
-60377.9
-57703.2
-54718.3
-50939.5
-46811.1
-43841.8
-43789
-45041.3
-44323.6
-41463.4
-37800.3
-34444.1
-31605.8
-28967.7
-25741.8
-21582.3
-16470.3
-11703.6
-6597.07
-3295.3
-53455.5
-53117.1
-52959.1
-53046.4
-53237.3
-54378.1
-55632.3
-56824.5
-65965.1
-75472.4
-83030.1
-91053.8
-100193
-108416
-114070
-116134
-113515
-107127
-99974.4
-93960.8
-88908.7
-85247.5
-82422.2
-80493.3
-78805.3
-77169.4
-75198.6
-73308.4
-72942.4
-75485.6
-78186.5
-79457.5
-79475.4
-78713.4
-77441.2
-75564.7
-72990.7
-69762.2
-66560.2
-63325.4
-60298.7
-57604.4
-54687.2
-50724.8
-45984.9
-42669
-43568.9
-46165.9
-45565
-42371.5
-38426
-34747.4
-31477.4
-28509.7
-25267.9
-21390.8
-16603.9
-12112.9
-7043.41
-3658.82
-53699.3
-53364.9
-53563.5
-53872.7
-54111.4
-55037
-55839.6
-55233.5
-66717
-78344.3
-87223.3
-94655.1
-102171
-109270
-114662
-117556
-115922
-108605
-100475
-94294.2
-89514.4
-86102.5
-83459.1
-81672.1
-80244.1
-78910.2
-76774.3
-74339.4
-73237.6
-76260.4
-79465.5
-80872.8
-80670
-79440
-77728.1
-75630.7
-73087.7
-69974
-66829.7
-63575.7
-60461.9
-57789.1
-54989
-50805.6
-45299.7
-41346
-43370.5
-47929.3
-47979.2
-44469.1
-39849
-35448.5
-31569.8
-28264.5
-25011.2
-21393.1
-16907.5
-12668.4
-7649.03
-4226.31
-53847.7
-52531.7
-52560.9
-52658
-52912.5
-54240.5
-55950.3
-52111.3
-66461.8
-79175.5
-87755
-94174.7
-101379
-109154
-116498
-125525
-130662
-121104
-107754
-97862.3
-91264.7
-87152.1
-84308.3
-82394.5
-80933.6
-79784.2
-77470.6
-74586.3
-72712.5
-76713.5
-80432.4
-81720.7
-81333.9
-79903.3
-78007.4
-75814.9
-73252.3
-70104.9
-66855.7
-63482.8
-60265.8
-57720.7
-55330.2
-51308
-44954.2
-40545.7
-43859.5
-49303.2
-49207.1
-45078
-40024.3
-35386.2
-31402.1
-28055.4
-24838.4
-21403.7
-17146
-13094.6
-7986.1
-4706.35
-55407
-54942
-54957.4
-54771.9
-54775
-55528.2
-56151.6
-48271.4
-67747.7
-84750.9
-94483.9
-98972.3
-103716
-109928
-117108
-127267
-134183
-123079
-107843
-96934.7
-90780.2
-87480.8
-85343.9
-83789.3
-82528.8
-81579.3
-78394.2
-74592.7
-72515.4
-77778.6
-82098
-82964.8
-82207.4
-80508.6
-78389.3
-76063
-73495.8
-70478.6
-67329.2
-63943.9
-60659.6
-58059.9
-55373.3
-51294.3
-45264.4
-40849.1
-44154.2
-51107.6
-51168.1
-46001.6
-40262.4
-35267.2
-31161.4
-27841.8
-24698.5
-21465.3
-17469.8
-13741.9
-8629.02
-4176.39
-48518.1
-51318.1
-53291.1
-53699.3
-53921.3
-54780.5
-54109.9
-41061.1
-68723.2
-88351.1
-98039
-101824
-105736
-111061
-117965
-128393
-135786
-125091
-109434
-97983.6
-91235.4
-87688.7
-85565
-83915.5
-82193.6
-80388.9
-76920.3
-72968.8
-71078
-76999.6
-82416.1
-83709.5
-82617.1
-80623.4
-78350
-75967.4
-73409.8
-70470
-67404.3
-64041.6
-60708.3
-58379.6
-55851.9
-51664.2
-45935.2
-41832.8
-44301.3
-50138.7
-50978.2
-46131.2
-40160.5
-35158
-31184.7
-27978.3
-24865.5
-21684.8
-17780.4
-14186.7
-9072.84
-3796.81
)
;

boundaryField
{
    wall
    {
        type            calculated;
        value           nonuniform List<scalar> 
1200
(
-47642.9
-54770.7
-53348.8
-53390
-53461.2
-53698.1
-54032.4
-54227.1
-55473.8
-48070.3
-48962.9
-52788.2
-51324.6
-52616.6
-52968.1
-53283.5
-53657.9
-53407.3
-55623.7
-52555.1
-51005.9
-53342.1
-51382.5
-52889.9
-52983.5
-53407.1
-53959.2
-53145.4
-54841.1
-53002.4
-51021.2
-53072.4
-51755.9
-53463.6
-53371.6
-53800.5
-54637.5
-53814.8
-55131.9
-53699
-51261.7
-52811.2
-52315.9
-53923.3
-53788
-54243.2
-55223.5
-54495.7
-55493.5
-54238.8
-53996.6
-54493.2
-53884.9
-54741.3
-54241.6
-54567.6
-55342.9
-54511.7
-54852.8
-53630.3
-56947.9
-57207.1
-56825.5
-57155
-56253.6
-56452.2
-57092.9
-57346
-56359.9
-53305.3
-60315.3
-60354.3
-60001
-60088.6
-58817
-58385.4
-57365.5
-55291.7
-49316.7
-39512.1
-63679.6
-63846.5
-64121.1
-65072.9
-65226.1
-66674.7
-68170.3
-70299.3
-69698.4
-66909.4
-66751.3
-67577.3
-68935.3
-70833.3
-72487.2
-75293.4
-78898.6
-83452.8
-86849
-87340.9
-65707
-68953.5
-73583.5
-76874.5
-79812.6
-82831.6
-87398.1
-91958.4
-96209.4
-97444.3
-81016.1
-82449.1
-86258.6
-87819.4
-89930.2
-91440.7
-94980.4
-97866.8
-99934.4
-101045
-100367
-100337
-101638
-100695
-101071
-100732
-102673
-104469
-104500
-105066
-114267
-113773
-113360
-111178
-110489
-109135
-110080
-111745
-110982
-110766
-120787
-120290
-119446
-117210
-116452
-115129
-115953
-118744
-118770
-118218
-120977
-120171
-119681
-118036
-117934
-117710
-119490
-127386
-129694
-129097
-116008
-115520
-115650
-114599
-115051
-115674
-118679
-132518
-138119
-137657
-108316
-108225
-108423
-108438
-109306
-110384
-112820
-123829
-128728
-129089
-99677
-99694
-99811.8
-100380
-101581
-102895
-104182
-109831
-112675
-112866
-91815.6
-91749.3
-91954.8
-92331.9
-93590.4
-94713.9
-95254.8
-97779.3
-99201.9
-99196.5
-86478.7
-86405.7
-86948.7
-87034.4
-88192.3
-89003.6
-89190
-90369.6
-91428.2
-91398
-82822.9
-82688.6
-83603.5
-83526.1
-84618.7
-85248.5
-85274.9
-86010.5
-87065.7
-87108.2
-79497.2
-79245.3
-80351.1
-80477.2
-81718.4
-82391.3
-82556.7
-83110.6
-84214.9
-84335.6
-75975.9
-75494.3
-76475
-76802.7
-78418.9
-79499.5
-80414.4
-81242.2
-82467.9
-82597.9
-72932.1
-72401.2
-73074.5
-73537.3
-75260.6
-76592.7
-78295.5
-79435.8
-80583.5
-80312.2
-73046.9
-72768.4
-73567.7
-73583.5
-74663.7
-75355.3
-76951.6
-77871.2
-78911.4
-77629
-72739.9
-72543.4
-73750.7
-73939.9
-74654.4
-74558.4
-75500.9
-75923.8
-76302
-74958.8
-72689
-72278
-73463.2
-73601.9
-73924.8
-73150.8
-73235.5
-72915.6
-72569.2
-70985.4
-72179.4
-71295.4
-72240.3
-72035.6
-71991.1
-71217.8
-71042.5
-70495.7
-69980.5
-68255.8
-72041
-71216.5
-72481
-72679.4
-73438.3
-73933.9
-74605.8
-75066.9
-75893.7
-74628.8
-72251
-72018.6
-73329.8
-74447.9
-75882.3
-77511.8
-79024
-80055
-81458.6
-81418.7
-72994.1
-73324.4
-74147.5
-75647.5
-77072.7
-78849.6
-80665.2
-81657.8
-82758.2
-83321.7
-74251.7
-74892.6
-75191.2
-76523.7
-77370
-78757.5
-80397.2
-81220.9
-82040.5
-82408.4
-75614.3
-76353.6
-76188.9
-77033.7
-77255
-78186.7
-79328.2
-79909.3
-80423.2
-80551
-76823.5
-77240.4
-76725.3
-76862
-76457.8
-76944.8
-77615.6
-78057.4
-78349.6
-78367.6
-75836.4
-75901.4
-75599.2
-75412.4
-74783.5
-75029.5
-75405.6
-75785.3
-75973.2
-75982.4
-73646.2
-73521.1
-73680.8
-73382.9
-72774
-72811.7
-72908
-73116.8
-73253.5
-73298.9
-70209.9
-70241.1
-70711.7
-70585.7
-70216.9
-70246.2
-70207.3
-70182.7
-70254.6
-70312.7
-66833.6
-66869.7
-67282.5
-67130.2
-66923.8
-66949.6
-66951
-66868.3
-66960.9
-67041.5
-63426
-63364.7
-63752.7
-63602.4
-63526
-63536.6
-63599.8
-63525.6
-63563.4
-63593.3
-60117.7
-59874.7
-60319.5
-60189.3
-60180.1
-60139
-60286.9
-60373.3
-60767.7
-61007.4
-56418.4
-56025.8
-56594.7
-56502.2
-56595.7
-56438.2
-56399.4
-56347.9
-56568.8
-57104.2
-53232.3
-52787.8
-53291.1
-53047.7
-53172.6
-53028.1
-53134
-53367.1
-53329.6
-53876.2
-50088
-49692.2
-50100.9
-49674.8
-49680.3
-49290.7
-49229.8
-49657.5
-49603.4
-49964.9
-46937
-46561.6
-46842.5
-46170.6
-45795.4
-44701.7
-43827.4
-43358.8
-43354.9
-43743.3
-44173.8
-43818.1
-44093.3
-43421.4
-42866.9
-41380.9
-39841.5
-38669.4
-38534.6
-38580.5
-41954.5
-41652.2
-42261.1
-41974.9
-42217.3
-41824.2
-41865.5
-41779.4
-42557.8
-41439.6
-40337
-40111.6
-41378.7
-41664.4
-43172.8
-44261
-46702.2
-47683.2
-50656.2
-49440.4
-38486
-38196.3
-39979.8
-40495.6
-42683.8
-43865.4
-47002.6
-48267.5
-51265
-51658
-35259.5
-34809.5
-36722.2
-37204.3
-39547.7
-40355.4
-43026.3
-43877.8
-45589.1
-46372.5
-31486.6
-31112.1
-33093.6
-33672.4
-35733.1
-36264
-38040.7
-38440.2
-39164.1
-39631
-29341
-29219.3
-30730.2
-31138.6
-32373.3
-32565.6
-33377.4
-33381.8
-33398.1
-33752
-29240.7
-29472.5
-29946.6
-29853.7
-30062.5
-29821.2
-29834.8
-29538.3
-29151.1
-29455.8
-29690.4
-30056.5
-29568.2
-28843.3
-28286.6
-27760.6
-27446.9
-27144.2
-26794.1
-27088
-27951.9
-27946.1
-27163.6
-26115.1
-25254.1
-24625
-24286.2
-24117.8
-23979.4
-24300
-23743.5
-23558.2
-22965.6
-22090.3
-21464.3
-21008.9
-20843.8
-20859.5
-20971.3
-21360.1
-17725.6
-17792
-17558.5
-16969.8
-16554.4
-16190.8
-16016.6
-15894.6
-15970.6
-16318.1
-12060.1
-12342.2
-12490.9
-12285.6
-12224.3
-12141.3
-12158.1
-11917.4
-12001.2
-12276.5
-6184.35
-6384.71
-6480.26
-6108.33
-5838.55
-5536.64
-5485.49
-4884.48
-4910.17
-5141.29
-1573.45
-2314.93
-3516.76
-4069.9
-4679.89
-4843.76
-5247.32
-5309.78
-3788.98
-3050.55
-45142.4
-53944.3
-52509.1
-53053.9
-53212.1
-53374.8
-53587.1
-53719.2
-55385.1
-48673
-51332.7
-54325.9
-52492.1
-53045.2
-52988.1
-53062.3
-53267.8
-52237.5
-54711.6
-50902.7
-52205
-54022
-52369.4
-53202.1
-52904.6
-52807.6
-53429.2
-52364.5
-54997.1
-53391.1
-53687.2
-54582.7
-52699.4
-53357
-52955
-52791.7
-53612.4
-52267
-54650.7
-53703.9
-55036.9
-55201.3
-53145.3
-53620
-53195
-52897.3
-53732.6
-52375.6
-54530.7
-53818.5
-54790.5
-55313.4
-54300.1
-55044.6
-54647
-54313.3
-54929.3
-54144.7
-55755.5
-55172.9
-55565.4
-56066.5
-55474.6
-56227.8
-55712
-55359.2
-55418.1
-55451.2
-56076.3
-54422.7
-58238.1
-58751.9
-58231.8
-58653
-57482.9
-56306.8
-54526.9
-51006.6
-47935.7
-41594
-64592
-65113.8
-64848.6
-65567.2
-65481.6
-65728.4
-66240.7
-65139.5
-67111.7
-69295.4
-70487
-71115.2
-71270.6
-72654
-74121.2
-75534.9
-78175.5
-77730.9
-84047.5
-88651
-70980.7
-72704.4
-75244.4
-78057.2
-81035.5
-83101.1
-87178.8
-86381.9
-93910.4
-98227.5
-85842.2
-85102.4
-86456.7
-87557.5
-89826.7
-90928.1
-94551.7
-93004.3
-98655.5
-102088
-103319
-102089
-101485
-100147
-100626
-100018
-102006
-100420
-103454
-105969
-115235
-114678
-112951
-110398
-109724
-108183
-109002
-108345
-109573
-111166
-120306
-120352
-118461
-115857
-115020
-113726
-114234
-115766
-116549
-117886
-119237
-119207
-117751
-115770
-115516
-115623
-116921
-124864
-126453
-128182
-113272
-113468
-112759
-111389
-111695
-112817
-115020
-129974
-132831
-135177
-105066
-105418
-104899
-104314
-104600
-106052
-107205
-120151
-121156
-123760
-97127.2
-97422.9
-97079.8
-97016.9
-97330.5
-99000.9
-99237.7
-107034
-106271
-108296
-90949.1
-91258.2
-91325
-91411.8
-92125
-93714.3
-93983.9
-97871.8
-96233
-97585.2
-85621.3
-85941.1
-86351.1
-86378.5
-87441.9
-88885.2
-89633.4
-91546.3
-90609.3
-91181.3
-81626
-81860.4
-82559
-82569.3
-83872.4
-85257.6
-86385.1
-87514.9
-87645.9
-87878.5
-79577.5
-79494.2
-80120.9
-79982.9
-81176.4
-82440.7
-83759.5
-84690.5
-85724
-85969
-79598.5
-79126.4
-79466.4
-79213
-80010.1
-80830.3
-82084.1
-82759.1
-84213.5
-84344.8
-78773
-78397.6
-78874
-78525.2
-79147.3
-79549.2
-80883.6
-81412.6
-83148.3
-82807.7
-75042.3
-75275.7
-76056
-76144.9
-77077.6
-77780.6
-79553.9
-80405.4
-82432.4
-81297.8
-71506.5
-71879
-72691.6
-73230.1
-74422.8
-75417.2
-77192.4
-77971.3
-79059.1
-77556.2
-69139.6
-69443.2
-70223.8
-70951.1
-72312.5
-73362.6
-74703.5
-75132.1
-75251.2
-73608.5
-69687.1
-70121.3
-70998.4
-71396
-72720.9
-73526.4
-73978.4
-73450.8
-73357.6
-72010.1
-71924.8
-72343.7
-73125.7
-73224.8
-74700
-76007.5
-76824.6
-77266.8
-78414.5
-77790.5
-73998.9
-74387.4
-74920.5
-75469.8
-76853.5
-78412.1
-79625.1
-80562.6
-82316
-82749.4
-75226.7
-75794.6
-76101.1
-77058.1
-78283.4
-79661.2
-80955.2
-81745.3
-83035.4
-83840.8
-76118.3
-76860.8
-76799.6
-77800.9
-78633.1
-79715.1
-80772
-81375.2
-82265.3
-82687
-76973
-77892
-77311.2
-77914.7
-78181.8
-78886.9
-79484.4
-79904.6
-80539.6
-80646.8
-76990.1
-78018
-77217.2
-77431.2
-77223.8
-77604.2
-77770.4
-77994.8
-78404.6
-78342.7
-76100.6
-76892.6
-76142.3
-76014.6
-75552
-75741
-75709.4
-75829.7
-76094.2
-75960.1
-73471.7
-73890.3
-73444.1
-73105.7
-72786.4
-73047.2
-73150
-73303.8
-73578.3
-73444.7
-69747.5
-70001.4
-69765.3
-69442.3
-69312.8
-69594
-69894.7
-70085.1
-70556.7
-70521.6
-65751.9
-66111.8
-66222.8
-66135.4
-66209.5
-66423.7
-66786.5
-66859
-67457.4
-67527.4
-62293.7
-62734.5
-63034
-63022.9
-63197.4
-63249.2
-63564.7
-63476.4
-64076.7
-64195.7
-59650.1
-59976.3
-60291.4
-60201.2
-60441.2
-60348.2
-60518.5
-60237.3
-60622.4
-60605.6
-57592
-57694.9
-57957.5
-57780.9
-58070
-57990.9
-58253.5
-58189.9
-58557.2
-58807.2
-54677.9
-54755.6
-55024.6
-54857
-55231.1
-55238.8
-55605.6
-55994.6
-56055.7
-56518.7
-51236.1
-51306.1
-51453.8
-51116.6
-51355.3
-51200
-51327.2
-51861.5
-51862.5
-52239.4
-47904.8
-47932
-47900.1
-47270.1
-47144.9
-46408.7
-45786.8
-45483.9
-45907
-46680.7
-45398.1
-45404.6
-45317.3
-44595.1
-44160
-43094.1
-41842.5
-41174.4
-41613.3
-42931.4
-44181.9
-44306.2
-44521.2
-44286.9
-44307
-44149.8
-43867.4
-44567.3
-44670.2
-45255.9
-43114.8
-43419.9
-44149.8
-44634.8
-45661.2
-46801.1
-48340.7
-49845.6
-51257.8
-50360.4
-40873.1
-41193.8
-42367.7
-43178.1
-44870.6
-46128.3
-48307.2
-49510
-51132.2
-50742.5
-37936.3
-38039.7
-39373.6
-40159.9
-42106
-43040.2
-44951.6
-45468
-46131.4
-46042.8
-34495.9
-34429.8
-35913
-36693.2
-38493.5
-39144.4
-40451.7
-40545.6
-40623.1
-40331.1
-32020.9
-32019
-33357.4
-33944.1
-35136.6
-35473.4
-36138.3
-36051.8
-35888.2
-35625.1
-31086.6
-31392.7
-31897.2
-31872.1
-32118.9
-32027.7
-32146.6
-32023.2
-31831.2
-31763.8
-30173.3
-30819.1
-30380.4
-29721
-29191.4
-28757.1
-28534.8
-28357.5
-28188.9
-28277.6
-27585.7
-28053.6
-27393.7
-26597.8
-25903.2
-25482.2
-25253.1
-25077.1
-24935.8
-25054.8
-22667.9
-22901.2
-22479.3
-21961.5
-21622.7
-21519.4
-21578.5
-21584.5
-21628.1
-21792.4
-16065.8
-16471.3
-16446.3
-16337.4
-16443.6
-16742.9
-17207.2
-17565.1
-17970.8
-18269.1
-9953.03
-10551.7
-10880.4
-11137.8
-11531.4
-12104.2
-12839.4
-13490.1
-14326.3
-14828.7
-4327.89
-5038.18
-5652.42
-6222.41
-6854.03
-7549.94
-8373.68
-9027.48
-9877.38
-10395.4
38.5964
-837.927
-1692.27
-2296.63
-2830.21
-3260.03
-3880.03
-4504.36
-4307.37
-4053.35
)
;
    }
    inlet
    {
        type            calculated;
        value           nonuniform List<scalar> 
20
(
-47008.8
-54561.4
-53137.9
-53306.5
-53399.6
-53617.4
-53920.3
-54098.7
-55451.9
-48225.2
-45776.4
-54153.6
-52719.9
-53137.4
-53273.7
-53455.5
-53699.3
-53847.7
-55407
-48518.1
)
;
    }
    outlet
    {
        type            calculated;
        value           nonuniform List<scalar> 
20
(
-97.8006
-293.495
-489.149
-684.741
-880.175
-1075.76
-1271.12
-1466.18
-1661.47
-1856.87
-97.8014
-293.498
-489.155
-684.756
-880.209
-1075.8
-1271.17
-1466.23
-1661.5
-1856.89
)
;
    }
    heatWall
    {
        type            calculated;
        value           nonuniform List<scalar> 
240
(
-48322.7
-48615.7
-52237.4
-51415.7
-53200.3
-53388.7
-53801.4
-53796.9
-54234.3
-54018.8
-54121.5
-54878.1
-53714.9
-54207.5
-40138.3
-41158.8
-67573.6
-68820.9
-87736.5
-88448.9
-97731.1
-98136.8
-101409
-101922
-105399
-105833
-110971
-111159
-118239
-118063
-128986
-128491
-137145
-135884
-127852
-125189
-111822
-109532
-98893.6
-98081.3
-91441
-91333.1
-87396.4
-87786.5
-84838.5
-85662.8
-83125.7
-84013.3
-81024.1
-82291.4
-78635.5
-80486.6
-75692.5
-77018.1
-71722.8
-73066.6
-69285.6
-71175.9
-75517.6
-77097.4
-81850.1
-82513.9
-83551.2
-83807.3
-82576.3
-82714.9
-80672.5
-80721.2
-78458.3
-78447.9
-76073.1
-76065.3
-73431.7
-73507.7
-70462.3
-70567.9
-67262.5
-67502.2
-63845.3
-64139.4
-61002.6
-60806.1
-57629.7
-58477.4
-54640.8
-55949.7
-50637.7
-51762
-44586
-46033
-39776.2
-41930.6
-42492.1
-44399.1
-49760.7
-50236.5
-51520.8
-51076
-46382.5
-46229
-39899.9
-40258.3
-34317.3
-35255.8
-30133
-31282.5
-27485.3
-28076.1
-24587.3
-24963.3
-21565.6
-21782.6
-16904.8
-17878.2
-13016.4
-14284.5
-6561.74
-9170.58
-3404.87
-3894.54
-46911.2
-45678.9
-49459.7
-50639.5
-51207.7
-51807.7
-51598.5
-52914.5
-52126.7
-53976.6
-54107
-54485
-56508.2
-55810.1
-59696
-58662.6
-63814.4
-64262.3
-67619.9
-69422.6
-66959.2
-69530
-82117.1
-84542.8
-100977
-102513
-114391
-114917
-120562
-120337
-120447
-119573
-115231
-113855
-107409
-105778
-98944.7
-97665.3
-91504.9
-91065.4
-86168.2
-85737.2
-82425
-81829.3
-79419.4
-79460.4
-76791
-78588.6
-74305.9
-77204.4
-73451.1
-74443.1
-72334.6
-71716.6
-71700.8
-69932.4
-71452.8
-70218.3
-71910.9
-71859.5
-72591.5
-73462.9
-73457.1
-74568.2
-74622.7
-75551.8
-75857.1
-76534.7
-76765.6
-76852.6
-75804
-75937.7
-73505
-73417.6
-69999.1
-69763.1
-66467.1
-65923.1
-63045.2
-62479.2
-59902.9
-59669.6
-56616.5
-57198.6
-53497.6
-54217.4
-50277.6
-50851.4
-47080.8
-47565.9
-44381.9
-44995.1
-42415.1
-43526.3
-40936.9
-42319.7
-38988.4
-40175
-35837.3
-37162.6
-32147.8
-33638.7
-29914.5
-31251.6
-29600.7
-30531.1
-29708.6
-29959.8
-27760.5
-27581.9
-23377.3
-22839.2
-17212.9
-16383.8
-11435.7
-10382.7
-5621.13
-4696.27
-1069.86
-269.919
)
;
    }
}


// ************************************************************************* //
