/*--------------------------------*- C++ -*----------------------------------*\
  =========                 |
  \\      /  F ield         | OpenFOAM: The Open Source CFD Toolbox
   \\    /   O peration     | Website:  https://openfoam.org
    \\  /    A nd           | Version:  8
     \\/     M anipulation  |
\*---------------------------------------------------------------------------*/
FoamFile
{
    version     2.0;
    format      ascii;
    class       volScalarField;
    location    "300";
    object      p_rgh;
}
// * * * * * * * * * * * * * * * * * * * * * * * * * * * * * * * * * * * * * //

dimensions      [1 -1 -2 0 0 0 0];

internalField   nonuniform List<scalar> 
1200
(
8607.3
6056.53
4288.3
3868.41
3274.55
1098.37
-1600.62
-5230.99
-9813.51
-13168.7
-13721.7
-30111.1
-48751.6
-61348.9
-66601.8
-65832.8
-60746
-53917.4
-47166.3
-41677
-37976.6
-35030.1
-31760.4
-27992.1
-23774.7
-21370.2
-19454.6
-18569.3
-18061.7
-17858.2
-17577.7
-17689.3
-18658.9
-20106.3
-21455.4
-20953.5
-19173.6
-16383.5
-13731.2
-11306.1
-9216.44
-7032.69
-5078.79
-3013.37
-971.949
587.422
1489.93
1906.71
2620.02
4148.09
5500.76
4498.15
919.569
-3314.24
-5456.7
-5188.64
-3275.09
-1643.61
80.7457
750.28
1249.8
2638.38
2282.37
2305.87
2279.8
808.998
-1705.24
-5214.97
-9903.5
-14028.9
-16397
-30722.5
-48243.2
-60681.6
-66037.7
-64950.6
-60099.3
-53542.4
-46884.7
-41439.7
-37853.8
-34970.6
-31575.5
-27491.8
-23074
-20924.1
-19148.2
-18123.5
-17365.3
-17239.6
-17313
-17800.3
-19036.7
-20622.3
-21698.9
-20875.8
-18919.5
-16211.6
-13594.8
-11135.2
-8918
-6607.54
-4618.05
-2577.12
-534.285
1015.44
1858
2183.6
2956.15
4661.96
5998.49
4783.23
863.95
-3490.25
-5238.67
-4806.17
-3135.51
-1711.08
31.7933
200.848
2878.15
4393.91
4366.27
3971.18
3378.41
1739.43
-1037.8
-4683.47
-9956.41
-15204.1
-20391.6
-33510
-48673.9
-59628.9
-64645.1
-63990.8
-59780.9
-53453
-46928.3
-41710.5
-38387.8
-35760.9
-32419.3
-28148
-23419.2
-21416.3
-20135
-19239.4
-18366.6
-18428.9
-18286.7
-18163
-18853.4
-20003.7
-20871.5
-20338.7
-18799.6
-16364.9
-13790.5
-11358.5
-9176.47
-6910.64
-4829.95
-2681.34
-524.321
1011.43
1519.55
1224.89
1515.62
3125.57
4403.79
3647.19
776.353
-2647.04
-4158.43
-3931.31
-2614.77
-1554.26
128.966
-702.099
2908.11
3484.66
3227.88
2731.38
2261.65
1132.19
-1219.14
-4734.16
-10826.3
-17066.3
-23420.2
-34550.5
-47261.7
-57092.5
-62152.9
-62082
-58424.1
-52914.9
-46805.3
-41585.1
-38106.7
-35375.6
-32183.5
-28040.3
-23447.6
-21342
-20199.3
-19174.9
-17991.7
-18345.1
-19054.1
-19350.2
-19860.6
-20486.9
-20723.3
-19849.5
-18216.3
-15922.6
-13397.4
-11011.7
-8880.51
-6675.43
-4462.62
-2090.37
321.729
1858.84
1969.34
1116.73
1161.2
2771.54
3967.02
3442.45
1162.66
-1596.24
-2840.52
-2812.89
-1782.32
-1082.08
627.062
-1030.94
3014.16
3436.95
3437.95
3113.72
2697.86
1842.86
-110.978
-3419.57
-10959.3
-18721.3
-26243.2
-36359.1
-47292.5
-56075.2
-61056.2
-61433.1
-58152.7
-53078.8
-47326.5
-42079.5
-38312.3
-35382.1
-32292.9
-28493.4
-24284.1
-21953.7
-20625.4
-19277.8
-17633.5
-18462.5
-19835.2
-20253.3
-20327.4
-20388.2
-20086.3
-19045.6
-17472.6
-15400.4
-13047.3
-10784.9
-8737.8
-6633.47
-4406.41
-1856.93
906.12
2564.37
1879.82
-219.26
-817.4
688.254
2208.02
2509.64
1262.07
-733.677
-1719.62
-1938.96
-1129.15
-738.813
1042.97
-1392.51
2994.95
3383.59
3350.88
3049.65
2683.65
1957.65
260.709
-2685.74
-12067.7
-21045.1
-28779.3
-37392.2
-46515.1
-54378.7
-59554.8
-60915
-58161.2
-53604.9
-48082.9
-42583.5
-38417.9
-35218.7
-32112.5
-28639.1
-24813.5
-22198.7
-20301.4
-18485.1
-16828.4
-18622.2
-20776.4
-21332.3
-21145.1
-20861
-20210.5
-18963
-17252.5
-15168.5
-12804.1
-10518.6
-8443.45
-6278.75
-4017.48
-1188.3
2192.17
4104.97
2282.13
-1228.69
-1890.68
-69.2325
1709.4
2395.76
1643.38
-18.8653
-908.343
-1300.77
-607.602
-466.547
1432.31
-1388.16
2890.08
3253.11
2989.58
2439.53
1999.73
1506.16
293.392
-1429.88
-13344.4
-24295.2
-33026.2
-40638.9
-48132.1
-55011.1
-60242.2
-62684.6
-60509.5
-55038.9
-48223.1
-42097.2
-37781.9
-34562.8
-31684.4
-28925
-25913.9
-23351
-20887.3
-18378.5
-16432.7
-18891.9
-21678.7
-22421.4
-22040.6
-21350.1
-20337.9
-18888.4
-17032.2
-14884
-12552.1
-10309.6
-8300.32
-6042.15
-3854.66
-794.832
3344.35
5805.67
2395.52
-3430.59
-4706.25
-2412.71
197.111
1778.78
1776.77
453.282
-393.656
-938.012
-276.107
-315.129
1596.17
-1631.33
2910.49
3902.22
4079.59
3628.21
3186.33
2706.93
900.685
945.059
-14780.1
-27262.8
-35770.2
-41987.8
-48705.4
-55719
-62327.6
-68827.9
-69111.9
-61663.4
-51677.8
-43210.5
-37780.7
-34242.1
-31407.9
-29056.9
-26394.1
-23745
-20831.1
-17829.2
-15729
-19172.1
-22423
-23051.6
-22511.4
-21606.4
-20438.3
-18902.1
-16923.1
-14608.6
-12221.1
-9971.61
-8076.93
-5762.65
-3734.17
-643.383
4338.04
7084.9
2312.18
-4456.67
-5829.2
-3112.1
-96.0932
1844.19
2119
847.68
-62.6522
-728.751
28.5195
49.58
2216.1
-1576.03
1756.66
1818.21
2353.85
2265.88
2163.32
2391.8
2655.73
5994
-15246.6
-31476.2
-40631.9
-44644.6
-49189.1
-55028.5
-61864.4
-69178.9
-69423.4
-60969.5
-50278.7
-41777.2
-36917.3
-33937.7
-31612.8
-29758.9
-27488.2
-24842
-21221.1
-17641.3
-15709.1
-20211.8
-23718.9
-23946.2
-23085.8
-21904.4
-20544.8
-18924.9
-16932
-14620.8
-12254.1
-9944.04
-8198.6
-5702.42
-3535.33
-553.176
4414.44
7441.62
1814.61
-7105.68
-8461.86
-4539.96
-628.767
1947.56
2568.18
1276.72
226.351
-624.703
135.07
79.95
2281.89
-137.521
9187.98
5269.97
4335.83
3787.03
3512.59
3631.25
6753.37
14444.8
-13911
-32891.2
-42410.8
-46038.5
-49899.8
-55061.2
-61809.6
-69571.7
-72436.7
-64443
-51979.6
-42281.1
-36885.6
-33778.4
-31427.6
-29485.4
-26675.6
-23146.9
-19524.2
-15799
-13837
-19147.4
-23883.5
-24429.6
-23318.4
-21882.9
-20378.3
-18718.5
-16759.8
-14503.6
-12195.4
-9857.25
-8212.8
-5967.56
-3839.72
-696.903
4109.64
7301.44
2841.81
-5826.17
-8618.74
-5037.71
-815.986
1889.57
2535.67
1219.9
154.818
-732.556
65.1909
24.5003
2243.43
704.277
9858.88
4870.62
3688.53
2534.03
1384.21
700.158
-909.675
-4191.78
-10269.6
-15041.3
-16367.2
-32527.1
-50223.8
-61828.3
-66358.6
-64962
-59377.9
-52292.7
-45891.8
-41244.4
-37548.3
-34431.9
-31801.1
-29804.9
-26697.1
-22368.4
-18838
-16794.1
-16814.6
-17799.7
-18451.9
-18806
-19592.5
-20785.8
-21538.2
-21085.4
-19086.3
-16152.7
-13190.6
-10740.1
-8982.81
-7620.23
-5802.3
-3587.93
-1456.24
-25.1078
375.619
517.017
1425.65
2808.42
3994.52
3157.48
-2.89633
-3554.53
-5272.73
-4650.75
-2445.13
-590.209
1009
1556.61
1663.37
1868.92
1942.26
1550.14
1083.25
397.903
-1135.24
-4413.54
-10537.4
-15799.7
-18273.9
-32048.5
-49116.7
-61131.4
-66066.8
-64468
-59073.4
-52140.6
-45750.9
-41195.1
-37621
-34554.6
-31698
-29307.1
-26072.2
-22177.1
-18815.8
-16705.5
-16777.2
-17802.1
-18496.9
-19035.3
-20021.2
-21392.5
-22088.7
-21372.2
-19104.4
-16092
-13215.9
-10819.9
-8968.24
-7441.61
-5601.37
-3383.58
-1219.17
222.35
530.732
528.966
1457.26
3046.91
4339.9
3384.03
-95.335
-3871.14
-5291.95
-4476.91
-2474.53
-815.603
705.271
939.609
3298.16
3809.94
3872.56
3499.33
2963.56
1531.3
-362.491
-3798.63
-10320.3
-16372.4
-21222.1
-33609.1
-48597.8
-59425.2
-64153.8
-63027.3
-58337.2
-51693
-45563.9
-41397.1
-38089.9
-35239.4
-32304.6
-29643.5
-26322
-22663.6
-19606.5
-17619.4
-17745.6
-18751
-19080.9
-19139
-19657.3
-20564.7
-21117.1
-20610
-18681.4
-15892.1
-13261.1
-10999.5
-9162.75
-7592.43
-5696.63
-3357.12
-1052.04
400.76
390.498
-160.358
321.445
1798.96
2992.88
2332.64
-199.383
-3052.94
-4273.14
-3687.74
-2058.05
-748.484
543.512
210.988
3076.06
3270.41
3071.69
2784.69
2413.57
980.186
-755.728
-4016.69
-11073.9
-17977.1
-24011.7
-34419.5
-46987.9
-56702.9
-61477.1
-60949.9
-56820
-50855.3
-45127.9
-41132.3
-37787.1
-34905.4
-31943.7
-29253.7
-25949.8
-22628.6
-19848.7
-17853.4
-17677.5
-18622.6
-19566.4
-20053.7
-20496.6
-20925.9
-21008.3
-20152.8
-18079.6
-15351.9
-12900.8
-10722.6
-8886.83
-7314.62
-5366.55
-2810.09
-226.687
1273.4
814.252
-368.561
-180.518
1293.29
2456.2
2039.38
153.416
-2034.96
-3081.81
-2748.34
-1465.62
-507.645
570.435
-143.422
3138.58
3426.98
3477.39
3322.19
2994.67
1639.66
158.914
-2754.61
-11089.3
-19539.5
-26854.1
-36306.4
-47069.6
-55692.2
-60339.3
-60222.9
-56475.5
-50726.4
-45202.1
-41350.5
-37941.8
-35015.2
-32030.3
-29299.3
-26237.8
-23169.2
-20516.2
-18475.6
-18001.2
-19093.6
-20320
-20856.2
-20955.9
-20849.1
-20467.9
-19429
-17476.8
-14944.8
-12686.5
-10617.5
-8865.66
-7368.09
-5432.91
-2691.24
234.525
1920.86
837.614
-1461.88
-1910.55
-592.133
826.282
1126.88
233.502
-1185.88
-2044.13
-2018.3
-1073.91
-392.594
534.528
-467.317
3156.55
3494.13
3650.84
3554.42
3356.87
2084.02
805.779
-1649.74
-11597.9
-21169.3
-28916.8
-37135.9
-46157.2
-53902.2
-58853.3
-59871.6
-56734.5
-51442.1
-46139
-42090
-38366.9
-35232.1
-32144.2
-29308.8
-26293.8
-23412
-20730.9
-18590.2
-17982.7
-19658
-21224.6
-21735.8
-21620.9
-21207.4
-20536.1
-19314.6
-17366
-14837.7
-12537
-10371.6
-8545.72
-7053.5
-5121.28
-2140.93
1340.94
3250.96
1121.54
-2497.75
-3021.88
-1411.69
269.102
941.643
540.128
-516.942
-1336.95
-1556.19
-883.797
-448.145
424.956
-595.909
3112.86
3448.1
3254.79
2952.55
2745.47
1711.44
1127.98
-15.8361
-12382.9
-23939.9
-32924
-40425.5
-47796.3
-54469.4
-59380.2
-61401.6
-58687.1
-52237.2
-45753.4
-41465.6
-38005.8
-35116.7
-32281.5
-29754.2
-27203.2
-24649.2
-21732.1
-19113.3
-17904.6
-20006.9
-21985.7
-22573.1
-22232.6
-21430.9
-20416.7
-19040.8
-17152.8
-14726.1
-12467.8
-10289.9
-8414.18
-6967.81
-5088.28
-1841.07
2366.56
4806.43
1397.54
-4248.79
-5359.13
-3376.25
-1008.94
398.05
620.836
-90.4174
-877.162
-1305.62
-871.718
-655.933
151.452
-946.85
3164.65
4487.38
4470.06
4402.3
4246.4
2888.47
1847.87
3094.19
-12180
-24399.5
-33018.2
-39615.8
-46744.7
-54068.1
-60860.5
-67558
-67808.6
-59794.6
-50255.6
-43235.8
-38348.5
-34974.9
-32180
-29799
-27367.6
-24999.3
-21843.8
-18929.2
-17202.4
-20271.9
-22679.1
-23097.6
-22590.9
-21606.9
-20410.9
-18928.8
-17021.3
-14564.4
-12221.9
-9953.04
-8015.2
-6690.68
-5052.55
-1747.25
3275.09
5833.18
917.017
-5539.06
-6449.9
-3906.26
-1148.06
509.584
876.692
241.341
-542.006
-1091.03
-806.805
-737.08
143.529
-1173.11
1800.99
2274.6
2275.67
2506.49
2645.25
1939.87
2799.49
6735.13
-13897.4
-30059.4
-39479.9
-44007.9
-48668.2
-54324.8
-60752.5
-67557.3
-66766.1
-57165.7
-47103.4
-40325.7
-36528.2
-34229.6
-32354.1
-30611.7
-28751.5
-26585.8
-22582.5
-18970.3
-17395.2
-21472.9
-24148.7
-24085.1
-23198.6
-21963
-20572.6
-18985.5
-17094.7
-14772.5
-12503.3
-10201.6
-8125.93
-6696.44
-4898.07
-1682.67
3137.93
5903.86
761.215
-7406.62
-8395.32
-4810.08
-1357.44
703.047
1228.55
579.962
-251.229
-952.596
-864.974
-1083.01
-202.808
-396.742
8886.01
6096.57
4141.26
3784.27
3722.76
2860.2
6190.33
13396.9
-15105.6
-33542.8
-42800.5
-46559.5
-50350.9
-55260.4
-61639.6
-69112.7
-71202.6
-61775.7
-49694.6
-41476.5
-36777.3
-34162.7
-32242.9
-30357
-27921.4
-24980.1
-20821
-17107.5
-15712.6
-20727.5
-24548
-24689.2
-23457.4
-21930.5
-20365.5
-18707
-16832.3
-14607.8
-12438.5
-10158.8
-8011.38
-6819.23
-5161.98
-1835.41
2639.02
5123.77
933.269
-6284.34
-8159.41
-4871.53
-1164.95
953.523
1381.52
624.987
-222.572
-948.504
-910.412
-1252.12
-385.013
202.243
)
;

boundaryField
{
    wall
    {
        type            fixedFluxPressure;
        gradient        nonuniform List<scalar> 
1200
(
-253630
-83708
-84349.9
-33389.2
-24641.4
-32272.7
-44861.6
-51385.9
-8782.08
61959.6
237753
155031
117333
42768.5
1996.22
-21922.3
-38879
-117713
-92170.7
-166127
119748
68316.6
99271.7
31545.8
-7893.12
-60566.2
-53748.9
-78747
15853.8
40139.8
269972
152582
94715.3
-10772.9
-41998.2
-101903
-104254
-156790
-48560.6
1947.12
385048
242966
83290.2
-31076.9
-60326.5
-136227
-152047
-215668
-97839.6
-40848
83189
84735.6
42925.3
31051.7
40592.9
-26626.3
-44682.5
-40470.4
90526.8
157432
-136849
-113250
-134918
-92551.5
-53460.1
-110378
-171414
-202765
-30755
124803
-208690
-160830
-177726
-143790
-132326
-209121
-286874
-442455
-144452
211431
92950
127778
72948.6
49316.5
26443.6
-97125
-193480
-523390
-269993
226590
386460
358185
234332
182397
164463
22493.3
-70811.7
-583203
-285466
119144
539961
376281
165936
118410
123124
26699.1
-20889.9
-580435
-229827
75606.8
479476
260937
20406.4
-26580.4
-10299
-49973
-40530.3
-515730
-128612
106246
283257
167825
-13725.7
-54632.3
-44026.3
-69092.6
-63597.6
-434066
-106565
93997
88562.4
84741.4
-39038.5
-77334.6
-75801.2
-92088
-104399
-361658
-142962
42895.6
-51117.7
3342.86
-96193.4
-134129
-142459
-136363
-168241
-308831
-223777
-31083.6
-172986
-97231.4
-190883
-226017
-240321
-203347
-251134
-259543
-325188
-83896.6
-271943
-205223
-286252
-320716
-333195
-278024
-358363
-257529
-540290
-243589
-323691
-280363
-350032
-412585
-470088
-429197
-558653
-358913
-777589
-534057
-253814
-227676
-272372
-334628
-427360
-390461
-494799
-267200
-660035
-456656
-85208.2
-50409.9
-62472
-88445.4
-149195
-102698
-125584
22194.1
-307165
-160277
-85104.5
-48753.6
-60722.2
-62654.9
-78090
-15628.7
47528.2
129812
-83503.9
-21886
-120072
-85564.7
-107300
-94472.6
-78431.1
-2915.83
115394
160972
65051
76164.8
8000.58
22497.1
-26103
-50957.2
-59467.6
1729.22
124205
167109
162315
162032
365108
362806
299863
239183
153906
131335
169175
158372
184875
172040
588602
600188
585769
498688
385588
296191
259184
202255
262270
245651
200766
250156
251599
255858
239307
244341
259054
257228
352661
363499
-123048
-67280.7
-106348
-72005.7
-25770.5
87888.7
167156
207260
276944
254356
-356177
-286220
-326529
-266037
-164685
22555
144138
223195
271570
255842
-251539
-121346
-126085
-61880.1
73483.9
234580
293086
297508
337554
372795
-12933.5
109158
62526.1
56560.2
127889
209954
221031
220639
254369
316371
175298
235089
156897
102306
99292.6
91640
58280.7
50332.1
87236.1
133437
224326
247065
193573
140685
123751
83347.3
27513.6
8320.93
28255.6
52646.3
187498
198347
159401
127480
129222
98596.3
37293
14488.6
23090.4
28046.9
136249
156809
111150
88220.5
95594.9
72611.2
15873.2
-2091.77
12269.8
9458.82
15929.5
79594.4
48314.7
57355.9
80010
68558.3
16073.8
-8518.55
5974.41
-2859.64
26137
100026
54581.8
60865.9
80767.4
73946.5
31335.5
2011.16
12331.9
-2857.7
-17359.9
37012.1
-22802.7
-27510.2
4659.39
26081.4
25381.9
16670.1
32889.2
13978.3
-45209.1
-24020.8
-93781.7
-114590
-88180.8
-63822.6
-30726.9
-11750.2
31103.3
20673.6
-107510
-76717
-105431
-99333
-69774.8
-51576.2
-15998.5
-3126.44
51117.2
49268.9
-113168
-64639.3
-71660.9
-57535.2
-31493.1
-28108
-3111.93
-7435.7
52956.9
61661.9
-46808.4
8388.57
-2902.6
1200.92
27381.1
21490.4
23879.2
-16370.6
-15020.3
-41073.5
118384
166165
136381
127788
148682
155828
187061
183010
198887
171066
145241
196265
172979
181311
207339
221847
248320
263587
272957
266695
114962
160861
134448
144756
168731
191554
210417
221367
227231
229966
96657.9
136510
104744
110306
135760
171034
196160
211731
256458
297943
122370
158240
121322
117087
129091
171125
198214
250945
304405
439148
223349
265639
225496
230843
208338
232076
198083
282905
206168
381854
279071
331490
277486
296722
247853
253844
164231
216979
60676.6
88973.2
240131
299619
239653
267387
218734
225243
131114
121186
-14161.2
-93980.9
270259
322581
266702
294581
256994
267450
192973
156041
52072.9
-35137.6
303618
330606
283546
301281
277241
287306
241069
208582
144494
68425.2
268511
277650
263764
279949
276975
290385
275887
266303
248577
186972
183124
190141
195131
201128
205208
220120
230732
248509
268062
231773
46420.8
75584.1
80496.5
87043.3
89473.9
98968.8
108105
120925
139010
119823
-37419.7
9741.2
22261.4
47924.5
64534.5
85685.9
96752.1
95577.7
95039.4
75805.4
-107327
-66884.9
-49490.6
-13215.4
16120.2
51422.9
74123.1
72400
65234.1
43110.5
-165947
-133014
-112377
-63972.8
-10730.1
55569.1
119863
167701
200512
195579
-210655
-179445
-161943
-115222
-69001.4
-3523.39
68359.4
158217
233849
256860
-186168
-135277
-83630.8
11602.7
102611
202539
289828
416531
499378
529086
-162315
-148448
-183541
-178232
-186170
-159560
-138501
-80783.3
52423.5
102639
253628
83705.5
84349.6
33389.1
24641.5
32272.7
44861.6
51385.8
8781.76
-61959.9
-238229
-155084
-117350
-42763
-1990.93
21923.5
38869.4
117693
92171.4
166158
-119914
-68329.4
-99275
-31541
7905.53
60577.3
53720.9
78570.5
-15908.7
-39976
-270057
-152579
-94707.2
10777.4
42009.2
101888
104151
156416
48478.8
-1804.37
-385081
-242962
-83280
31084
60318.1
136005
151534
214738
97720.3
41117.1
-83157.8
-84722
-42914.2
-31045.7
-40774
25905.1
43098.1
38340
-90925.1
-156943
136922
113274
134938
92555.6
53163.2
109210
168619
199632
30134.8
-125124
208804
160866
177750
143719
131601
207085
282637
441900
134261
-213166
-92821.8
-127735
-72919.5
-49455.8
-27246.2
94705.5
190529
528928
254389
-228887
-386725
-358199
-234317
-182476
-164537
-25006
67496.1
577847
281356
-119930
-541188
-376454
-165911
-118377
-122323
-28406.7
17824.7
549253
229381
-75398.1
-480701
-261137
-20371.5
26639
10933.9
50271.2
41334.7
468160
126698
-105624
-283565
-167839
13762.2
54688.1
44607.6
70171.2
66035.1
383746
104714
-93245.1
-88189.4
-84565.2
39076.1
77365.6
76365.2
93225.6
107263
323526
142165
-42137.2
51683
-3079.82
96220.7
134129
143085
137427
171220
292922
223884
31771.3
173570
97534.4
190934
225985
241066
204383
254027
264553
325907
84468
272586
205561
286346
320628
333755
279206
360819
275072
541007
243591
324297
280737
350095
411000
470785
429815
560132
381236
768882
532558
254338
228068
272383
332524
427020
389407
494762
288257
628993
455222
85644.8
50768.7
62449.3
85706.1
146556
98617.9
124133
-3798.76
280685
159363
85466.9
49015.2
60653
59897.2
74296.9
9396.25
-47584.5
-112639
68361.5
21624.2
120379
85677.5
106735
91804.5
73145.5
-4056.14
-113036
-145153
-66034.3
-75922.3
-7728.55
-22505.6
25679.7
47937.4
52356.7
-7387.65
-120157
-152869
-152045
-161593
-364841
-362846
-299234
-243313
-162148
-134790
-164813
-145807
-169689
-171708
-588347
-600328
-585492
-503219
-393312
-297553
-255836
-191585
-247834
-245633
-200580
-250259
-251458
-259475
-245636
-244477
-257481
-248445
-341252
-363588
123136
67245.5
106461
69041
20897
-87438.5
-167235
-200288
-265975
-254384
356217
286225
326587
263330
161286
-21661.8
-145665
-218306
-263396
-255870
251567
121358
126089
59351.6
-75507.5
-233595
-296326
-295309
-336876
-372841
12955
-109157
-62562.9
-57722.1
-128140
-208760
-225690
-221336
-254361
-316356
-175280
-235068
-156905
-101574
-98175.1
-90232.1
-63830.5
-52065.1
-87200.9
-133334
-224305
-247041
-193579
-138678
-121114
-81463.5
-32985.3
-9834.53
-28246.1
-52539.6
-187471
-198326
-159405
-125619
-126339
-95855.4
-40791.9
-16552.2
-23155.9
-27958.2
-136215
-156789
-111143
-87325.8
-93244.5
-69398.4
-17768.7
-522.931
-12395.9
-9387.43
-15884.6
-79559
-48301.2
-57730.8
-78226
-65169
-16907.9
5054.5
-6125.64
2917.46
-26071.1
-99954.1
-54564.4
-62254.9
-79009
-70498.4
-31457.6
-5935.88
-12477.1
2906.27
17470.6
-36896.9
22822.6
26370.6
-2138.69
-22603.1
-24924.2
-20590.7
-33023.4
-13936.1
45334.9
24161.5
93793.6
113952
91389.7
67260.8
31739.6
7931.36
-31255.2
-20638.5
107633
76866.1
105430
98999.1
72735.4
54581.4
17243.1
-1321.24
-51280.3
-49242.7
113286
64780.6
71649
57331.8
33903.4
30468.6
4412.08
2561.99
-53109.3
-61647.6
46929.2
-8260.9
2884.99
-1267.74
-25335.9
-19807
-22612.7
11410.4
14877.6
41083.2
-118252
-166045
-136403
-127638
-146697
-154610
-185766
-187664
-198944
-171065
-145078
-196133
-173009
-180769
-205143
-220623
-246640
-265736
-272951
-266725
-114751
-160698
-134491
-143918
-166336
-190090
-208666
-221394
-227265
-230086
-96391.3
-136306
-104811
-109456
-133517
-169528
-194852
-211886
-257033
-298220
-122068
-158001
-121412
-116417
-127245
-170026
-198605
-251451
-305695
-439461
-223076
-265400
-225606
-230628
-207204
-232367
-198751
-283116
-206409
-381865
-278908
-331314
-277590
-296859
-247962
-254102
-164527
-216938
-60108
-88666
-240104
-299544
-239720
-267463
-218814
-225323
-131187
-121162
14355.2
94294.4
-270329
-322569
-266738
-294612
-257034
-267463
-193005
-155995
-51903
35367.1
-303748
-330639
-283594
-301311
-277264
-287322
-241093
-208516
-144313
-68237.9
-268584
-277677
-263821
-279987
-277006
-290402
-275902
-266231
-248395
-186809
-183050
-190114
-195167
-201159
-205234
-220136
-230739
-248435
-267884
-231649
-46239.3
-75491
-80498.5
-87059.4
-89492
-98980.9
-108110
-120846
-138844
-119729
37619
-9600.85
-22239.9
-47932.5
-64556.1
-85699.4
-96760.5
-95493
-94890
-75720.4
107645
67081.5
49518.4
13192.6
-16157.8
-51441.3
-74139.2
-72318.2
-65106.2
-43024.4
166317
133263
112398
63869.4
10664.7
-55598.6
-119888
-167640
-200412
-195490
211001
179711
161935
115014
68897.9
3479.86
-68386.3
-158189
-233778
-256779
186476
135531
83546.6
-11954.6
-102786
-202614
-289862
-416551
-499343
-529021
162527
148651
183461
177944
186037
159517
138511
80797.4
-52391.8
-102615
)
;
        value           nonuniform List<scalar> 
1200
(
7963.33
1037.58
2666.31
2825.27
2953.27
2914.42
2777.03
2780.34
1734.93
9347.59
6653.96
3029.44
4688.89
3591.31
3441.93
3329.35
3156.33
3605.96
1585.04
4852.24
4587.42
2454.05
4616.03
3307.67
3418.18
3197.7
2853.14
3881.31
2394.27
4439.38
4552.75
2691.51
4208.88
2704.04
3007.76
2792.15
2174.18
3231.35
2143.29
3795.67
4258.23
2897.96
3587.34
2181.71
2544.05
2339.12
1612.29
2639.23
1914.94
3413.37
1316.93
1028.23
1850.48
1211.54
1944.23
1888.83
1387.25
2599.05
2620.37
4035.07
-1938.81
-1986.4
-1374.98
-1450.18
-242.389
-15.5326
-139.878
361.972
2576.01
7106.34
-5755.58
-5619.11
-5130.47
-5094.33
-3746.56
-3208.66
-2145.38
-192.196
5603.36
14983.5
-9574.55
-9580.82
-9774.13
-10703.5
-10889.4
-12312.7
-13822
-16121.6
-15954.5
-13374.6
-12165
-13122.2
-14617.7
-16609.9
-18307.2
-20987.8
-24460.6
-28741.3
-32202.8
-32620
-12340.6
-15455
-19977.5
-23124.8
-25934.4
-28709.1
-33068.5
-37221.8
-41205.9
-42226.8
-28923.9
-30083.9
-33456.6
-34618.9
-36385.7
-37513.8
-40734.7
-43261.6
-44964.1
-45768.1
-48074.4
-47844.2
-48703.6
-47398.6
-47402.3
-46683.5
-48287.7
-49765.3
-49455.9
-49656.1
-61148
-60484.9
-59721.9
-57284.6
-56263.7
-54603.5
-55269.6
-56596.3
-55389.1
-54945.4
-66737.4
-66036.2
-64881.2
-62485.8
-61411.2
-59889.6
-60662.5
-63081.1
-62427
-61874.5
-66262.9
-65197.1
-64465.5
-62646.2
-62031.7
-61415.5
-63315.5
-69469.8
-69997.5
-69760.2
-61421.9
-60615.3
-60493.3
-59225.8
-58983.9
-58849.2
-61415
-69756.2
-70780.1
-73049
-54723.3
-54247.6
-54326.6
-53944.2
-54259.1
-54680.8
-56448.2
-62568.6
-62919.9
-65771.1
-47797.4
-47459.4
-47610.3
-47638.1
-48404
-49067.7
-49466.1
-52357.4
-51895.4
-53115.7
-41885.9
-41569.9
-41866.6
-41801.8
-42455.6
-42843.6
-42406.8
-43157.8
-42511.2
-42677.9
-38187.7
-37979.2
-38541.2
-38262.7
-38508.6
-38455.7
-37656.5
-37457.5
-37091.3
-36940.5
-35331.9
-35187.7
-36032.2
-35614.9
-35578.5
-35221.1
-34268.9
-33842.9
-33742.9
-33590.9
-31741.3
-31522.4
-32488.9
-32317.7
-32442.6
-32103.4
-31372.6
-30994.8
-31187.6
-31027
-27072.5
-26583.9
-27398.5
-27445.9
-28106.8
-28306.3
-28505.7
-28668.8
-29295.4
-29062.8
-22291.6
-21570.6
-21944.7
-22195.4
-23313.1
-24067.5
-25273
-25896
-26847.9
-26071.2
-20865.2
-20299.4
-20786
-20696.3
-21348.8
-21582.3
-22710.3
-23107.6
-23982.3
-22246
-19761.4
-19319.3
-20404.5
-20376.7
-20688.2
-20077.3
-20474.5
-20317.8
-20546.5
-18900.3
-19462.7
-18847.5
-20064.1
-19840.8
-19691.5
-18426.7
-18021.4
-17275.5
-16970.2
-15172.1
-18696.7
-17679.1
-18688.2
-18143
-17442
-16232.8
-15692.5
-14983.6
-14864.3
-12909.6
-17894.6
-16975.9
-18277.8
-18205.6
-18135.5
-18089.9
-18328.2
-18617.2
-19570.6
-18353.8
-17138.8
-16729.5
-17898.6
-18805.8
-19584.6
-20542.2
-21522.5
-22294.7
-23497.2
-23546.4
-17126.2
-17181.4
-17682.1
-19005.5
-19944
-21119.7
-22342.1
-23028.9
-23873.2
-24295.9
-18188.4
-18535.7
-18457.7
-19545.5
-20003.9
-20895.8
-21938.8
-22473.2
-23026.2
-23247.6
-19765
-20222.2
-19727.6
-20266.2
-20147.1
-20678.9
-21304.9
-21609.7
-21872
-21859.4
-21417.4
-21496.7
-20751.5
-20576.5
-19881.6
-20039
-20294
-20457.1
-20528.6
-20386.3
-20888.8
-20625.5
-20199.7
-19691.5
-18838.1
-18777.7
-18806.9
-18894.3
-18893.4
-18727.2
-19216.7
-18828.1
-18853.7
-18281.3
-17458.2
-17187.6
-16965.7
-16878.3
-16848.9
-16726.2
-16493.5
-16272.9
-16597.6
-16208.4
-15622.7
-15331.4
-14960.3
-14635.3
-14541
-14452.3
-13997.8
-13790.1
-14053.7
-13645.5
-13224.2
-12936.7
-12592.2
-12225.4
-12122.8
-12070.1
-11588.6
-11301.8
-11538.2
-11155.3
-10865.1
-10592.4
-10318
-9986.14
-9807.64
-9698.81
-9333.57
-8901.58
-9184.98
-8878.2
-8670.06
-8392.03
-8240.7
-8114.09
-8237.08
-8317.42
-6734.29
-6193.15
-6569.92
-6356.2
-6262.65
-5890.8
-5573.12
-5299.42
-5203.23
-5537.56
-4714.24
-4127.79
-4397.7
-4008.52
-3888.87
-3463.75
-3234.16
-3071.83
-2849.97
-3166.48
-2725.83
-2175.91
-2345.31
-1727.92
-1437.17
-711.044
-270.431
-91.5006
19.8261
-114.647
-730.846
-194.236
-262.414
596.921
1242.36
2617.09
3831.56
4865.36
5056.63
4867.47
892.937
1410
1314.29
2148.61
2881.36
4528.89
6293.98
7717.02
8189.62
8410.47
2049.65
2522.49
2082.97
2542.35
2394.92
2858.78
2884
3030.65
2317.37
3795.9
2607.58
3013.68
1919.39
1853.69
395.91
-597.183
-3019.78
-3914.74
-6951.4
-5612.23
3224.02
3704.45
2116.33
1824.16
-272.459
-1332.24
-4378.6
-5536.36
-8500.77
-8860.55
4830.68
5467.12
3795.32
3503.59
1331.08
595.759
-1931.03
-2731.16
-4416.43
-5131.34
6266.43
6821.39
5115.72
4717.08
2901.78
2425.06
798.45
419.525
-271.814
-649.01
5169.66
5470.67
4308.37
4139.97
3202.09
3120.18
2467.29
2507.97
2567.5
2355.78
1372.57
1334.54
1263.6
1663.29
1773.18
2192.19
2352.2
2740.36
3238.32
3117.19
-3203.02
-3303.35
-2447.88
-1380.49
-512.549
226.964
721.923
1148.89
1623.09
1521.59
-5551.96
-5217.9
-4104.82
-2721.45
-1558.88
-694.032
-151.408
175.16
462.406
344.922
-5456.47
-4976.74
-4057.43
-2846.56
-1897.34
-1171.03
-750.721
-548.136
-462.731
-625.338
-3689.69
-3470.59
-2898.76
-1943.77
-1154.51
-467.49
25.9168
449.505
637.572
554.828
-2170.06
-2160.94
-1961.59
-1370.92
-910.428
-474.8
-143.649
447.541
667.808
670.552
-385.806
-308.108
-82.1903
657.014
1302.06
1941.62
2323.01
3262.96
3536.92
3575.57
341.82
-172.307
-1163.51
-1478.73
-1861.22
-1790.33
-1982.04
-1778.56
-4.70192
967.744
10502.9
1875.59
3510
3158.91
3199.46
3237.09
3225.92
3294.81
1822.71
8726.4
4271.97
1477.71
3514.92
3163.78
3422.01
3548.37
3544.86
4783.59
2507.77
6514.38
3388.96
1770.54
3622.79
2991.92
3497.2
3804.05
3391.17
4667.88
2235.1
4038.14
1849.46
1164.52
3261.65
2812.04
3428.18
3811.88
3217.65
4798.21
2628.85
3776
400.433
465.104
2754.66
2493.52
3148.48
3700.84
3131.62
4791.06
2893.3
3822.64
481.668
178.701
1420.28
900.843
1537.87
2151.04
1826.4
2990.79
1710.24
2457.6
-571.31
-854.019
-25.2595
-524.672
289.673
1079.06
1554.18
2378.17
2875.94
5835.9
-3666.92
-4009.31
-3351.57
-3656.66
-2429.14
-1131.86
689.566
4231.52
7097.77
12852.8
-10508.3
-10859.9
-10502.5
-11196.9
-11160.6
-11358.9
-11912.6
-10826.1
-13225.8
-15648
-16045.9
-16706.5
-16958.8
-18433.6
-19953.1
-21232.9
-23782.8
-22938.9
-29341.8
-33815.9
-17751.7
-19216.4
-21636.1
-24306.9
-27160.1
-28990.7
-32888.5
-31650.8
-38907.3
-42983.7
-33717.4
-32687.7
-33662.3
-34351.1
-36278.1
-37013.3
-40326.5
-38463.9
-43693.3
-46828.2
-50901.7
-49515.7
-48568
-46850.9
-46958.3
-45986
-47634.2
-45809.7
-48405.8
-50592.5
-62028.2
-61327.6
-59332.1
-56510.7
-55502.3
-53674.6
-54203.7
-53281.7
-53965.9
-55374.2
-66221.4
-66067.5
-63917.5
-61144.2
-59982.7
-58515.9
-58952.4
-60141.1
-60189.5
-61572.9
-64530.4
-64220.7
-62552.5
-60385.8
-59622.4
-59368.5
-60763.2
-66898.8
-66737.4
-68922.9
-58700.3
-58556.5
-57624.6
-56018.7
-55642.3
-56044.1
-57774.6
-67116.6
-65418.3
-70592.1
-51485.2
-51434.5
-50819.3
-49829.5
-49543.8
-50365.5
-50822.5
-58832.1
-55276.1
-60451.5
-45259.5
-45175.4
-44881.8
-44300.7
-44126.1
-45157.8
-44509.5
-49523.6
-45567.1
-48562
-41034.4
-41064.3
-41241
-40923.4
-40981.6
-41841.3
-41159.4
-43242.9
-39652.7
-41081.8
-37336.3
-37495.3
-37936.5
-37638.5
-37755.8
-38345.8
-38131.2
-38629.1
-36387.3
-36722.8
-34129.2
-34337.5
-34968.6
-34673.1
-34833.6
-35247.5
-35404.7
-35334.9
-34422.4
-34349.3
-31819.6
-31751.3
-32234.6
-31817.5
-31899.9
-32167.2
-32583.2
-32557.7
-32751.1
-32642.4
-30723.8
-30215.2
-30391.7
-29859.1
-29707
-29649.6
-30162.7
-30155.6
-31037.1
-30778.9
-28179.6
-27575.9
-27795.9
-27214.1
-27227.8
-27042.5
-27836.1
-27839.1
-29357.4
-28526
-22873
-22801.9
-23293.5
-23283.7
-23789.3
-24028.4
-25286.7
-25615.7
-27418.3
-25881.2
-18530.9
-18644.7
-19336.7
-19678.5
-20464.8
-20953.8
-22146.1
-22341.4
-23233.1
-21445
-15900.5
-15981.5
-16794.6
-17194.4
-18069.4
-18646.3
-19475.4
-19473.1
-19624.8
-17734.5
-16179.6
-16463.3
-17424
-17532.9
-18196.7
-18575.6
-18654.1
-17944.9
-18239.4
-16640.1
-17763.2
-18065.8
-18902.2
-18764.6
-19420.2
-20186.8
-20582.7
-20830.4
-22114.1
-21521
-18890.7
-19080.3
-19469
-19811.6
-20566.8
-21454.3
-22155.3
-22812.7
-24370.4
-24884.8
-19369
-19654.1
-19619.9
-20392.8
-21158.6
-21942.6
-22664.7
-23125.1
-24158.1
-24822.6
-20063
-20522.2
-20053.1
-20807
-21272.7
-21862.5
-22342.2
-22635.1
-23258.4
-23528
-21127
-21792.5
-20840.7
-21144.6
-21084.8
-21380.9
-21480.5
-21610.4
-21995.6
-21953.8
-21576.1
-22290.8
-21237.1
-21156.2
-20668.2
-20698.8
-20462.6
-20400.3
-20589.1
-20357.3
-21149.9
-21622.3
-20748.9
-20313.7
-19631.7
-19491
-19122.5
-18945.9
-19017.3
-18698.2
-19042.9
-19195.5
-18627.3
-18016.3
-17484.1
-17422.1
-17218
-17076
-17178.3
-16865.7
-16042.4
-16030.3
-15659.4
-15066.7
-14714.2
-14666.2
-14647.1
-14547.8
-14852.6
-14659.1
-12923.7
-13020.3
-12997.9
-12653
-12502.3
-12396.9
-12424.4
-12229.1
-12634.9
-12563.8
-10457.3
-10653
-10819.8
-10579.3
-10531.3
-10292.1
-10278.1
-9950.15
-10338.4
-10317.2
-8865.37
-8984.34
-9154.29
-8889.01
-8928.27
-8593.16
-8470.54
-7989.02
-8087.75
-7906.74
-7918.3
-7855.68
-7933.21
-7632.96
-7733.88
-7438.66
-7433.54
-7163.68
-7195.74
-7249.23
-6166.44
-6091.26
-6128.98
-5818.69
-5944.93
-5672.18
-5704.51
-5719.26
-5583.41
-5835.31
-3874.92
-3784.34
-3693.29
-3169.91
-3105.06
-2614.7
-2360.99
-2299.18
-2255.78
-2418.01
-1696.66
-1558.67
-1314.16
-499.351
-96.2902
919.534
1882.15
2747.3
2494.07
1880.43
-329.866
-171.59
97.6195
985.536
1608.24
2829.5
4316.95
5199.74
5152.58
4013.94
-183.432
-133.152
-173.248
241.85
325.185
544.305
907.335
198.072
258.054
-20.7854
-183.473
-300.68
-855.148
-1105.82
-2077.26
-3129.85
-4660.3
-6080.87
-7559.49
-6497.45
821.692
709.14
-279.43
-843.639
-2455.67
-3580.51
-5686.94
-6742.66
-8355.9
-7916.79
2125.63