/*--------------------------------*- C++ -*----------------------------------*\
  =========                 |
  \\      /  F ield         | OpenFOAM: The Open Source CFD Toolbox
   \\    /   O peration     | Website:  https://openfoam.org
    \\  /    A nd           | Version:  8
     \\/     M anipulation  |
\*---------------------------------------------------------------------------*/
FoamFile
{
    version     2.0;
    format      ascii;
    class       volScalarField;
    location    "300";
    object      T;
}
// * * * * * * * * * * * * * * * * * * * * * * * * * * * * * * * * * * * * * //

dimensions      [0 0 0 1 0 0 0];

internalField   nonuniform List<scalar> 
1200
(
303.15
303.15
303.15
303.145
303.141
303.137
303.132
303.127
303.096
302.519
300.475
298.466
297.39
297.013
296.998
297.15
297.348
297.538
297.719
297.892
298.053
298.197
298.32
298.4
298.344
298.14
297.885
297.673
297.52
297.403
297.299
297.204
297.125
297.055
296.977
296.869
296.686
296.407
296.079
295.747
295.434
295.129
294.879
294.718
294.637
294.581
294.465
294.266
294.116
294.201
294.499
294.845
295.107
295.268
295.369
295.451
295.545
295.651
295.759
295.881
303.15
303.15
303.15
303.149
303.149
303.149
303.149
303.148
303.145
303.027
302.381
301.501
300.934
300.774
300.878
301.062
301.218
301.343
301.443
301.527
301.599
301.66
301.714
301.769
301.819
301.819
301.74
301.603
301.412
301.163
300.895
300.656
300.509
300.489
300.573
300.677
300.743
300.758
300.73
300.671
300.59
300.483
300.356
300.217
300.069
299.888
299.596
299.067
298.191
297.028
295.931
295.172
294.733
294.481
294.353
294.34
294.4
294.508
294.657
294.827
303.15
303.15
303.15
303.15
303.15
303.149
303.149
303.149
303.148
303.138
303.018
302.777
302.575
302.502
302.53
302.579
302.624
302.66
302.688
302.713
302.734
302.75
302.761
302.768
302.777
302.788
302.796
302.799
302.8
302.799
302.77
302.705
302.623
302.562
302.542
302.537
302.533
302.526
302.515
302.499
302.476
302.444
302.395
302.316
302.19
302.005
301.755
301.463
301.138
300.545
299.48
298.173
296.959
296.004
295.309
294.844
294.601
294.552
294.667
294.886
303.15
303.15
303.15
303.15
303.15
303.149
303.149
303.148
303.148
303.147
303.133
303.092
303.045
303.02
303.017
303.019
303.024
303.033
303.043
303.049
303.045
303.027
302.992
302.947
302.906
302.866
302.827
302.795
302.78
302.781
302.793
302.802
302.801
302.798
302.797
302.794
302.758
302.672
302.54
302.376
302.193
302.008
301.818
301.596
301.307
300.958
300.573
300.185
299.836
299.439
298.887
298.111
297.198
296.314
295.561
294.999
294.678
294.619
294.826
295.205
303.15
303.15
303.15
303.15
303.15
303.149
303.149
303.148
303.147
303.146
303.145
303.14
303.134
303.13
303.129
303.131
303.132
303.13
303.116
303.069
302.965
302.797
302.594
302.417
302.294
302.215
302.17
302.147
302.116
302.063
301.973
301.842
301.666
301.437
301.147
300.806
300.424
299.981
299.477
298.933
298.389
297.911
297.534
297.243
297.024
296.87
296.747
296.503
296.184
295.876
295.677
295.495
295.212
294.848
294.499
294.289
294.322
294.634
295.248
295.962
303.15
303.15
303.15
303.15
303.15
303.149
303.148
303.142
303.134
303.129
303.13
303.132
303.133
303.135
303.136
303.136
303.126
303.081
302.94
302.65
302.218
301.722
301.28
300.98
300.831
300.785
300.805
300.867
300.923
300.982
301.049
301.084
301.04
300.924
300.746
300.522
300.257
299.926
299.526
299.06
298.553
298.083
297.703
297.402
297.161
296.935
296.564
296.114
295.612
295.097
294.675
294.371
294.134
293.941
293.808
293.796
293.981
294.416
295.162
295.993
303.15
303.15
303.15
303.15
303.15
303.15
303.145
303.115
303.069
303.037
303.026
303.034
303.042
303.044
303.034
302.982
302.822
302.454
301.799
300.955
300.095
299.362
298.843
298.573
298.484
298.493
298.535
298.578
298.591
298.624
298.701
298.783
298.817
298.765
298.616
298.382
298.089
297.744
297.37
296.983
296.6
296.293
296.089
295.978
295.885
295.63
295.233
294.835
294.503
294.242
294.035
293.872
293.748
293.668
293.657
293.77
294.098
294.698
295.628
296.597
303.15
303.15
303.15
303.15
303.15
303.15
303.135
302.998
302.81
302.699
302.487
301.846
300.878
299.885
299.074
298.447
297.906
297.417
297.013
296.703
296.444
296.223
296.063
295.98
295.985
296.028
296.071
296.098
296.081
296.056
296.068
296.108
296.216
296.36
296.504
296.623
296.71
296.773
296.804
296.792
296.727
296.673
296.591
296.424
296.029
295.357
294.796
294.426
294.184
294.019
293.899
293.814
293.769
293.78
293.882
294.135
294.644
295.468
296.636
297.725
303.15
303.15
303.15
303.15
303.15
303.15
303.103
302.517
301.874
301.545
301.484
301.517
301.502
301.43
301.325
301.193
301.115
301.003
300.691
300.038
299.117
298.144
297.28
296.589
296.1
295.837
295.719
295.649
295.42
295.242
295.212
295.291
295.426
295.559
295.663
295.73
295.762
295.762
295.73
295.665
295.589
295.45
295.208
294.829
294.469
294.439
294.534
294.515
294.42
294.335
294.278
294.266
294.312
294.423
294.629
294.968
295.52
296.296
297.282
298.137
303.15
303.15
303.151
303.151
303.147
303.142
302.773
300.741
299.117
298.037
297.26
296.674
296.226
295.905
295.741
295.759
295.947
296.235
296.517
296.723
296.846
296.896
296.884
296.828
296.75
296.569
296.091
295.339
294.712
294.478
294.426
294.401
294.364
294.315
294.259
294.203
294.149
294.098
294.047
293.985
293.927
293.85
293.758
293.779
294.146
294.75
295.262
295.536
295.603
295.589
295.609
295.695
295.834
296.004
296.228
296.503
296.873
297.325
297.852
298.266
303.15
303.151
303.151
303.146
303.141
303.137
303.132
303.127
303.104
302.633
300.703
298.635
297.473
297.043
297.002
297.142
297.34
297.534
297.717
297.89
298.05
298.193
298.319
298.407
298.369
298.182
297.934
297.719
297.557
297.433
297.323
297.223
297.139
297.065
296.988
296.884
296.721
296.463
296.152
295.83
295.52
295.21
294.949
294.776
294.687
294.628
294.515
294.315
294.145
294.195
294.47
294.814
295.085
295.255
295.361
295.441
295.531
295.632
295.736
295.854
303.15
303.15
303.15
303.15
303.149
303.149
303.149
303.148
303.146
303.053
302.463
301.579
300.969
300.769
300.852
301.037
301.198
301.328
301.433
301.519
301.591
301.653
301.707
301.762
301.816
301.825
301.762
301.644
301.469
301.226
300.951
300.696
300.524
300.478
300.547
300.656
300.731
300.759
300.743
300.693
300.621
300.521
300.4
300.267
300.126
299.957
299.685
299.189
298.356
297.209
296.082
295.271
294.793
294.518
294.372
294.345
294.395
294.494
294.634
294.797
303.15
303.15
303.15
303.15
303.15
303.149
303.149
303.149
303.149
303.141
303.037
302.802
302.588
302.497
302.515
302.563
302.608
302.646
302.676
302.701
302.723
302.742
302.756
302.764
302.773
302.783
302.791
302.794
302.795
302.792
302.768
302.715
302.639
302.575
302.548
302.541
302.536
302.53
302.52
302.504
302.483
302.453
302.408
302.336
302.22
302.048
301.813
301.534
301.221
300.678
299.663
298.37
297.139
296.154
295.427
294.929
294.651
294.568
294.652
294.847
303.15
303.15
303.15
303.15
303.15
303.149
303.149
303.148
303.148
303.148
303.136
303.098
303.05
303.022
303.016
303.018
303.025
303.035
303.046
303.05
303.045
303.024
302.985
302.938
302.894
302.855
302.818
302.793
302.784
302.79
302.803
302.807
302.806
302.802
302.799
302.792
302.746
302.647
302.505
302.336
302.152
301.963
301.766
301.533
301.236
300.885
300.542
300.226
299.932
299.573
299.049
298.294
297.388
296.495
295.717
295.12
294.752
294.642
294.798
295.137
303.15
303.15
303.15
303.15
303.15
303.149
303.149
303.147
303.147
303.146
303.145
303.141
303.135
303.131
303.13
303.132
303.133
303.131
303.114
303.06
302.946
302.766
302.558
302.386
302.274
302.206
302.173
302.157
302.124
302.059
301.95
301.796
301.594
301.338
301.02
300.658
300.262
299.803
299.285
298.733
298.186
297.711
297.341
297.057
296.844
296.699
296.624
296.501
296.278
296.006
295.796
295.598
295.312
294.945
294.58
294.339
294.325
294.583
295.149
295.838
303.15
303.15
303.15
303.15
303.15
303.149
303.148
303.142
303.134
303.129
303.13
303.132
303.134
303.135
303.137
303.136
303.123
303.072
302.914
302.599
302.142
301.636
301.208
300.933
300.812
300.793
300.836
300.915
300.979
301.038
301.09
301.094
301.017
300.871
300.666
300.419
300.131
299.777
299.353
298.865
298.339
297.86
297.479
297.182
296.956
296.783
296.556
296.229
295.791
295.275
294.815
294.468
294.203
293.991
293.84
293.803
293.956
294.351
295.059
295.87
303.15
303.15
303.15
303.15
303.15
303.15
303.144
303.112
303.066
303.035
303.026
303.036
303.044
303.045
303.031
302.969
302.789
302.392
301.701
300.836
299.973
299.256
298.766
298.531
298.473
298.507
298.568
298.626
298.649
298.685
298.753
298.812
298.812
298.722
298.537
298.274
297.961
297.604
297.223
296.832
296.448
296.143
295.945
295.843
295.808
295.665
295.338
294.954
294.605
294.323
294.095
293.914
293.776
293.685
293.662
293.756
294.055
294.62
295.519
296.477
303.15
303.15
303.15
303.15
303.15
303.15
303.132
302.994
302.807
302.694
302.446
301.753
300.758
299.772
298.981
298.369
297.84
297.365
296.973
296.667
296.41
296.19
296.037
295.967
295.985
296.037
296.085
296.118
296.109
296.089
296.105
296.16
296.282
296.432
296.573
296.683
296.761
296.812
296.821
296.778
296.682
296.615
296.574
296.465
296.132
295.471
294.878
294.48
294.221
294.046
293.919
293.827
293.776
293.779
293.87
294.103
294.584
295.375
296.524
297.619
303.15
303.15
303.15
303.15
303.15
303.15
303.114
302.578
301.917
301.552
301.467
301.498
301.488
301.42
301.318
301.202
301.13
300.982
300.632
299.928
298.971
297.985
297.127
296.453
295.987
295.75
295.651
295.607
295.444
295.274
295.222
295.279
295.401
295.533
295.643
295.72
295.763
295.775
295.755
295.7
295.631
295.499
295.265
294.896
294.513
294.449
294.537
294.524
294.429
294.342
294.281
294.264
294.305
294.41
294.607
294.932
295.465
296.224
297.207
298.073
303.15
303.15
303.151
303.151
303.147
303.142
302.885
300.912
299.215
298.094
297.299
296.704
296.25
295.925
295.756
295.771
295.958
296.246
296.531
296.737
296.856
296.902
296.891
296.842
296.773
296.618
296.197
295.477
294.797
294.505
294.432
294.405
294.371
294.326
294.272
294.217
294.164
294.115
294.065
294.004
293.947
293.871
293.777
293.781
294.117
294.712
295.236
295.523
295.599
295.583
295.598
295.682
295.82
295.989
296.21
296.479
296.843
297.292
297.821
298.242
)
;

boundaryField
{
    wall
    {
        type            zeroGradient;
    }
    inlet
    {
        type            fixedValue;
        value           uniform 303.15;
    }
    outlet
    {
        type            inletOutlet;
        inletValue      uniform 300;
        value           nonuniform List<scalar> 
20
(
295.89
294.837
294.901
295.23
296.004
296.035
296.638
297.759
298.158
298.273
295.863
294.807
294.86
295.16
295.88
295.911
296.517
297.654
298.094
298.25
)
;
    }
    heatWall
    {
        type            fixedGradient;
        gradient        uniform -500;
    }
}


// ************************************************************************* //
