/*--------------------------------*- C++ -*----------------------------------*\
  =========                 |
  \\      /  F ield         | OpenFOAM: The Open Source CFD Toolbox
   \\    /   O peration     | Website:  https://openfoam.org
    \\  /    A nd           | Version:  8
     \\/     M anipulation  |
\*---------------------------------------------------------------------------*/
FoamFile
{
    version     2.0;
    format      ascii;
    class       volScalarField;
    location    "800";
    object      p;
}
// * * * * * * * * * * * * * * * * * * * * * * * * * * * * * * * * * * * * * //

dimensions      [1 -1 -2 0 0 0 0];

internalField   nonuniform List<scalar> 
8400
(
11662.9
11681.9
11697.7
11713.1
11728.2
11743.2
11758.4
11773.9
11789.7
11806
11822.8
11840.3
11858.6
11877.9
11898.3
11920
11943.1
11968.1
11995.1
12024.5
12056.6
12091.9
12130.9
12174.3
12222.7
12277
12337.9
12406.2
12483.3
12570.5
12669.5
12782.1
12910.4
13056.8
13224.3
13416.2
13636.3
13889
14179.7
14514.3
14900.3
15345.9
15862
16462.3
17163.4
17979.4
18925.4
20062.1
21556.3
23502.2
11554.8
11568.6
11582.3
11596.4
11610.6
11624.8
11639.2
11653.8
11668.7
11684
11699.8
11716.2
11733.4
11751.3
11770.3
11790.5
11812.1
11835.2
11860.2
11887.4
11917.2
11949.8
11985.9
12025.9
12070.5
12120.3
12176.3
12239.4
12310.8
12391.6
12483.4
12587.9
12707
12843.2
12998.9
13177.3
13381.9
13616.8
13886.5
14196.6
14553.2
14963.3
15435.6
15980.4
16609
17329.8
18149.9
19100.3
20264.2
21692.5
11488.6
11506.8
11522.9
11538.1
11553.2
11568.5
11584
11599.8
11616
11632.7
11650
11667.9
11686.7
11706.5
11727.4
11749.5
11773.2
11798.5
11825.9
11855.6
11888
11923.5
11962.6
12005.6
12053.4
12106.4
12165.7
12232.3
12307.1
12391.6
12487.1
12595.5
12718.6
12858.7
13018.5
13201
13409.7
13648.6
13922.2
14235.9
14595.6
15008.2
15481.4
16024.4
16646.2
17354
18153.4
19059.5
20102.9
21278.7
11354
11358.2
11368.1
11380
11392.7
11405.7
11419
11432.5
11446.3
11460.4
11474.9
11490
11505.6
11522
11539.1
11557.3
11576.6
11597.2
11619.4
11643.5
11669.6
11698.2
11729.8
11764.8
11803.8
11847.4
11896.2
11951.2
12013.4
12083.7
12163.6
12254.5
12358.2
12476.6
12612.2
12767.4
12945.5
13149.9
13384.5
13654
13963.4
14318.5
14726
15193
15726.8
16333.5
17018.7
17791.4
18666.4
19640.1
11308.9
11330.5
11347.4
11362.4
11377.1
11391.9
11406.9
11422.3
11438
11454.2
11470.9
11488.2
11506.1
11524.9
11544.6
11565.4
11587.4
11610.8
11635.9
11662.8
11691.9
11723.3
11757.6
11795.2
11836.6
11882.3
11933.1
11989.8
12053.1
12124.2
12204.2
12294.5
12396.5
12512.2
12643.5
12792.7
12962.5
13156
13376.3
13627.4
13913.2
14238.3
14607.5
15025.6
15497.3
16025.7
16612.3
17259.1
17972.4
18750.9
11150.5
11150.8
11158.8
11169.6
11181.4
11193.6
11206.1
11218.8
11231.8
11245
11258.7
11272.7
11287.2
11302.2
11317.9
11334.4
11351.8
11370.3
11390
11411.3
11434.3
11459.2
11486.5
11516.4
11549.4
11585.9
11626.7
11672.2
11723.3
11780.9
11846
11919.7
12003.4
12098.7
12207.3
12331.3
12473
12635.1
12820.3
13032.1
13274
13549.8
13863.6
14219.2
14620.4
15069.3
15566.3
16110.2
16703.2
17345.9
11121
11144.9
11162.1
11176.6
11190.4
11204.3
11218.2
11232.4
11246.9
11261.6
11276.7
11292.2
11308.1
11324.5
11341.6
11359.3
11377.7
11397.1
11417.5
11439.1
11462.1
11486.8
11513.3
11542.1
11573.3
11607.5
11645
11686.4
11732.3
11783.4
11840.5
11904.4
11976.4
12057.4
12149
12252.8
12370.4
12503.9
12655.6
12827.9
13023.6
13245.4
13496.3
13779.1
14096.6
14450.2
14839.7
15263.7
15723.9
16222.6
10950.8
10949.2
10956.3
10966.6
10977.9
10989.6
11001.6
11013.8
11026.2
11038.8
11051.7
11064.8
11078.3
11092.3
11106.7
11121.6
11137.2
11153.4
11170.5
11188.6
11207.7
11228.2
11250
11273.6
11299.1
11326.9
11357.3
11390.7
11427.6
11468.5
11514
11564.8
11621.8
11685.9
11758.1
11839.7
11932
12036.6
12155.2
12289.6
12441.8
12614.1
12808.4
13026.9
13271.5
13543.1
13841.4
14165.2
14515.9
14896.9
10928.1
10952.3
10969
10982.7
10995.5
11008.2
11020.8
11033.6
11046.5
11059.4
11072.5
11085.8
11099.2
11112.8
11126.6
11140.6
11155
11169.8
11184.9
11200.6
11216.8
11233.8
11251.5
11270.2
11290
11311
11333.6
11357.9
11384.2
11412.8
11444.2
11478.8
11517.1
11559.6
11607.2
11660.5
11720.4
11788
11864.3
11950.7
12048.5
12159.2
12284.3
12425.3
12583.6
12760.3
12955.5
13168.9
13402.2
13659.5
10754.5
10752.2
10758.8
10768.5
10779.3
10790.5
10801.9
10813.4
10825
10836.7
10848.6
10860.6
10872.7
10885
10897.5
10910.2
10923.1
10936.2
10949.6
10963.4
10977.4
10991.9
11006.8
11022.2
11038.2
11054.9
11072.3
11090.6
11109.8
11130.1
11151.7
11174.7
11199.3
11225.8
11254.5
11285.7
11319.7
11357
11398.1
11443.6
11494.1
11550.4
11613.3
11683.8
11762.9
11851.5
11950.5
12060.5
12184
12325.6
10732
10755.6
10771.5
10784.2
10796.2
10807.9
10819.5
10831
10842.6
10854
10865.5
10876.8
10888.1
10899.3
10910.3
10921.3
10932.1
10942.7
10953.1
10963.3
10973.3
10983
10992.4
11001.5
11010.3
11018.6
11026.5
11033.8
11040.6
11046.7
11052.2
11056.9
11060.6
11063.5
11065.3
11065.9
11065.4
11063.5
11060.3
11055.8
11049.9
11042.8
11034.9
11026.4
11018.3
11011.5
11007.4
11007.9
11016.6
11038.7
10560.5
10558.1
10564.1
10573.2
10583.2
10593.5
10603.9
10614.4
10624.8
10635.1
10645.4
10655.6
10665.7
10675.7
10685.4
10695
10704.3
10713.3
10721.9
10730.1
10737.9
10745.1
10751.6
10757.3
10762.2
10766
10768.6
10769.7
10769.2
10766.8
10762.1
10754.9
10744.6
10731
10713.3
10691.2
10663.8
10630.6
10590.7
10543.5
10488.1
10423.8
10350.2
10266.9
10174.1
10072.7
9964.3
9851.92
9740.1
9636.08
10533.4
10555.6
10570.7
10582.8
10594.2
10605.2
10616.2
10627
10637.7
10648.3
10658.6
10668.7
10678.6
10688
10697.1
10705.7
10713.8
10721.2
10727.9
10733.8
10738.6
10742.4
10744.8
10745.7
10744.9
10742.1
10736.9
10729.1
10718.1
10703.5
10684.9
10661.4
10632.5
10597.4
10555
10504.4
10444.4
10373.8
10291.2
10195.2
10084.2
9956.81
9811.83
9648.35
9466.05
9265.53
9048.81
8820.03
8585.73
8355.1
10368.9
10366.9
10372.6
10380.9
10390.1
10399.4
10408.6
10417.8
10426.7
10435.5
10443.9
10452
10459.7
10466.9
10473.6
10479.6
10484.8
10489.2
10492.6
10494.8
10495.7
10495.1
10492.7
10488.2
10481.4
10471.8
10459
10442.6
10421.9
10396.4
10365.3
10327.6
10282.5
10228.8
10165.2
10090.3
10002.2
9899.33
9779.44
9640.3
9479.47
9294.43
9082.66
8841.98
8570.73
8268.17
7935.23
7575.75
7197.61
6814.96
10331.5
10351.5
10365.5
10377.1
10388
10398.7
10409.2
10419.6
10429.8
10439.7
10449.3
10458.5
10467.3
10475.5
10483.1
10490
10496
10501
10504.8
10507.3
10508.2
10507.2
10504.1
10498.5
10490
10478.1
10462.4
10442.1
10416.5
10384.9
10346.2
10299.2
10242.8
10175.4
10095.2
10000.4
9888.61
9757.33
9603.67
9424.46
9216.2
8975.16
8697.55
8379.83
8019.16
7613.73
7163.43
6672.02
6150.69
5619.86
10180.6
10180.3
10186.2
10194.2
10202.8
10211.4
10219.9
10228
10235.9
10243.3
10250.2
10256.6
10262.3
10267.2
10271.2
10274.2
10276
10276.5
10275.3
10272.4
10267.3
10259.8
10249.6
10236.1
10218.8
10197.3
10170.9
10138.7
10099.9
10053.5
9998.36
9933.05
9856.02
9765.48
9659.36
9535.26
9390.47
9221.86
9025.9
8798.6
8535.51
8231.72
7881.9
7480.73
7023.35
6505.41
5922.47
5272.37
4564.02
3828.4
10123.9
10141
10153.7
10164.8
10175.3
10185.6
10195.7
10205.5
10215
10224.1
10232.9
10241.1
10248.7
10255.6
10261.7
10266.8
10270.8
10273.5
10274.7
10274.1
10271.4
10266.3
10258.4
10247.2
10232.3
10213
10188.6
10158.3
10121.1
10075.9
10021.5
9956.36
9878.71
9786.59
9677.64
9549.17
9398.02
9220.53
9012.46
8768.91
8484.23
8151.86
7764.26
7313.17
6790.35
6187.4
5493.39
4696.62
3803.63
2865.01
9993.64
9997.96
10005.7
10014.5
10023.3
10032
10040.3
10048.3
10055.8
10062.7
10069.1
10074.7
10079.6
10083.4
10086.2
10087.7
10087.8
10086.2
10082.6
10076.8
10068.3
10056.9
10042
10023
9999.46
9970.51
9935.36
9893.02
9842.36
9782.08
9710.64
9626.28
9526.94
9410.21
9273.3
9112.94
8925.31
8705.96
8449.65
8150.27
7800.68
7392.47
6915.64
6358.69
5709.84
4957.7
4086.84
3071.99
1900.13
635.267
9907.02
9925.78
9937.89
9948.66
9958.79
9968.53
9977.92
9986.94
9995.56
10003.7
10011.3
10018.3
10024.5
10029.8
10034.2
10037.4
10039.2
10039.4
10037.8
10034.1
10027.9
10018.8
10006.4
9990.2
9969.49
9943.6
9911.7
9872.83
9825.88
9769.57
9702.4
9622.62
9528.21
9416.82
9285.7
9131.64
8950.89
8739.04
8490.9
8200.37
7860.27
7462.02
6994.97
6446.06
5801.24
5047.74
4166.19
3102.68
1771.27
197.217
9807
9816.74
9826.55
9836.34
9845.84
9855.01
9863.8
9872.18
9880.09
9887.46
9894.22
9900.27
9905.49
9909.75
9912.9
9914.76
9915.13
9913.77
9910.41
9904.73
9896.36
9884.88
9869.81
9850.56
9826.48
9796.8
9760.64
9716.97
9664.58
9602.09
9527.88
9440.05
9336.41
9214.37
9070.92
8902.49
8704.9
8473.15
8201.28
7882.14
7507.07
7065.38
6543.18
5922.14
5180.36
4295.14
3230.87
1883.47
43.5269
-2333.56
19425
11263.1
7230.24
5711.89
4877.49
4268.64
3844.93
3560.62
3360.47
3209.4
3089.71
2991.52
2908.31
2835.58
2770.27
2710.27
2654.03
2600.36
2548.32
2497.14
2446.11
2394.61
2342.01
2287.68
2230.96
2171.15
2107.46
2039.02
1964.81
1883.68
1794.29
1695.14
1584.47
1460.31
1320.15
1161.05
979.584
771.75
532.722
256.564
-63.8787
-437.219
-874.127
-1388.1
-1996.63
-2723.18
-3600.7
-4678.43
-6036.81
-7812.5
-6207.33
-1618.06
-116.28
450.028
884.334
1209.94
1434.31
1594.41
1713.28
1802.13
1868.21
1916.96
1952.29
1976.91
1992.78
2001.33
2003.62
2000.41
1992.26
1979.55
1962.49
1941.18
1915.59
1885.57
1850.89
1811.15
1765.87
1714.41
1655.95
1589.48
1513.78
1427.43
1328.75
1215.7
1086.04
937.08
765.544
567.521
338.421
72.8122
-235.975
-596.115
-1017.59
-1512.74
-2097
-2789.93
-3616.49
-4608.18
-5802.54
-7233.45
1024.62
3194.68
4377.85
4480.54
4323.92
4152.3
3966
3774.8
3596.44
3437.33
3296.55
3171.63
3060.16
2959.94
2868.94
2785.42
2707.89
2635.09
2565.94
2499.48
2434.87
2371.32
2308.08
2244.41
2179.59
2112.82
2043.31
1970.22
1892.6
1809.36
1719.26
1620.79
1512.21
1391.43
1256.15
1103.77
931.155
734.622
509.776
251.459
-46.3904
-391.026
-791.12
-1257.05
-1801.21
-2438.31
-3185.35
-4060.88
-5082.13
-6257.37
1275.7
1684.79
1876.29
1804.66
1702.45
1659.08
1647.47
1645.23
1649.51
1659.39
1672.03
1684.81
1696.21
1705.38
1711.81
1715.2
1715.38
1712.26
1705.81
1695.97
1682.69
1665.86
1645.34
1620.91
1592.25
1558.96
1520.56
1476.43
1425.87
1368.15
1302.32
1227.17
1141.27
1043.01
930.373
800.994
652.105
480.448
282.201
52.9057
-212.643
-520.544
-877.897
-1292.87
-1774.67
-2333.33
-2979.03
-3720.47
-4561.52
-5495.35
1717.17
1966.26
2282.91
2514.59
2654.5
2743.78
2796.11
2815.06
2808.7
2785.75
2752.02
2711.11
2665.5
2616.97
2566.7
2515.45
2463.65
2411.55
2359.21
2306.6
2253.59
2199.97
2145.49
2089.84
2032.65
1973.47
1911.71
1846.67
1777.56
1703.5
1623.5
1536.42
1440.96
1335.6
1218.5
1087.54
940.296
773.921
585.134
370.143
124.599
-156.457
-478.609
-848
-1271.15
-1754.53
-2303.77
-2922.21
-3608.5
-4353.84
1823.32
1908.95
2017.07
2079.12
2081.78
2053.68
2015.28
1973.01
1929.89
1888.64
1850.71
1816.31
1785.05
1756.41
1729.82
1704.71
1680.54
1656.83
1633.15
1609.09
1584.25
1558.29
1530.84
1501.48
1469.88
1435.63
1398.27
1357.28
1312.05
1261.87
1205.91
1143.23
1072.74
993.165
903.016
800.562
683.803
550.436
397.817
222.934
22.3954
-207.567
-471.044
-772.326
-1115.64
-1504.69
-1941.95
-2427.46
-2957.21
-3521.65
1838.87
1883.27
1954.99
2027.22
2082.58
2123.49
2155.1
2178.11
2192.17
2198.02
2196.83
2189.59
2177.14
2160.2
2139.43
2115.39
2088.53
2059.21
2027.73
1994.29
1959.03
1922.02
1883.24
1842.59
1799.93
1755.05
1707.69
1657.56
1604.21
1547.13
1485.71
1419.23
1346.85
1267.57
1180.24
1083.52
975.85
855.467
720.354
568.251
396.652
202.847
-16.0094
-262.753
-539.964
-849.582
-1192.35
-1567.02
-1969.46
-2392.34
1799.81
1822.01
1859.8
1899.8
1927.96
1940.86
1941.02
1931.08
1913.05
1888.97
1860.84
1830.21
1798.23
1765.64
1732.98
1700.56
1668.53
1636.92
1605.69
1574.74
1543.94
1513.09
1481.99
1450.42
1418.12
1384.78
1350.11
1313.74
1275.28
1234.29
1190.25
1142.6
1090.67
1033.73
970.927
901.278
823.68
736.887
639.508
530.008
406.731
267.938
111.885
-63.0493
-258.164
-474.147
-710.682
-965.941
-1235.97
-1514.62
1733.66
1747.26
1772.33
1802.96
1830.46
1850.75
1863.96
1871.13
1872.99
1870.17
1863.33
1853.1
1839.98
1824.37
1806.57
1786.87
1765.47
1742.55
1718.26
1692.72
1666
1638.15
1609.22
1579.21
1548.09
1515.81
1482.27
1447.36
1410.92
1372.76
1332.62
1290.23
1245.23
1197.22
1145.75
1090.26
1030.14
964.703
893.194
814.785
728.611
633.8
529.535
415.143
290.228
154.854
9.77185
-143.318
-301.505
-460.931
1650.2
1660.29
1679.48
1704.03
1726.96
1743.66
1752.93
1755.14
1750.99
1741.29
1726.99
1709.07
1688.38
1665.65
1641.43
1616.19
1590.25
1563.86
1537.2
1510.38
1483.48
1456.54
1429.56
1402.55
1375.47
1348.29
1320.96
1293.42
1265.6
1237.41
1208.76
1179.55
1149.66
1118.96
1087.32
1054.56
1020.54
985.08
948.004
909.153
868.392
825.634
780.876
734.245
686.058
636.907
587.743
539.989
495.653
457.267
1553.8
1563.91
1583.14
1607.78
1630.81
1647.66
1657.12
1659.57
1655.71
1646.35
1632.47
1615.04
1594.95
1572.92
1549.53
1525.26
1500.46
1475.42
1450.32
1425.33
1400.56
1376.09
1352.01
1328.35
1305.18
1282.55
1260.5
1239.11
1218.43
1198.56
1179.58
1161.63
1144.83
1129.37
1115.44
1103.29
1093.2
1085.51
1080.64
1079.06
1081.32
1088.07
1100.05
1118.08
1143.08
1176.02
1217.9
1269.7
1332.28
1406.39
1444.42
1458.09
1483.3
1514.17
1542
1562.73
1576.49
1584.34
1587.02
1585.17
1579.5
1570.64
1559.14
1545.42
1529.86
1512.76
1494.42
1475.08
1454.99
1434.36
1413.39
1392.3
1371.27
1350.51
1330.23
1310.63
1291.94
1274.4
1258.28
1243.88
1231.53
1221.6
1214.53
1210.82
1211.02
1215.79
1225.88
1242.15
1265.58
1297.29
1338.51
1390.61
1455.05
1533.37
1627.05
1737.46
1865.67
2012.24
2177
2359.12
1317.66
1339.96
1377.98
1418.36
1447.07
1460.69
1461.77
1452.96
1436.31
1413.89
1387.74
1359.46
1330.24
1300.92
1272.1
1244.18
1217.42
1192
1168.01
1145.53
1124.61
1105.3
1087.67
1071.81
1057.82
1045.86
1036.12
1028.83
1024.3
1022.89
1025.04
1031.26
1042.17
1058.5
1081.11
1110.97
1149.24
1197.25
1256.5
1328.7
1415.75
1519.75
1642.89
1787.47
1955.66
2149.38
2369.94
2617.74
2891.78
3190.08
1163.65
1208.19
1280.23
1352.98
1409.09
1450.99
1483.83
1508.35
1524.24
1532.27
1533.69
1529.55
1520.75
1508.12
1492.42
1474.32
1454.43
1433.28
1411.35
1389.08
1366.87
1345.1
1324.15
1304.38
1286.18
1269.95
1256.12
1245.17
1237.63
1234.11
1235.28
1241.92
1254.94
1275.38
1304.41
1343.42
1393.99
1457.93
1537.28
1634.37
1751.8
1892.39
2059.18
2255.28
2483.73
2747.16
3047.39
3384.84
3757.66
4161.93
954.834
1040.64
1149.15
1211.86
1215.45
1188.58
1151.74
1111.4
1070.62
1032.18
997.601
967.159
940.572
917.423
897.274
879.714
864.389
851.03
839.45
829.542
821.277
814.697
809.911
807.098
806.503
808.444
813.313
821.587
833.834
850.728
873.059
901.754
937.895
982.74
1037.75
1104.62
1185.31
1282.05
1397.43
1534.36
1696.12
1886.37
2109.06
2368.38
2668.51
3013.34
3405.86
3847.42
4336.5
4869.05
655.182
904.48
1221.58
1454.04
1595.05
1685.77
1739.92
1761.04
1757.32
1737.56
1707.66
1671.3
1631.06
1588.87
1546.05
1503.54
1462.01
1421.92
1383.66
1347.52
1313.78
1282.69
1254.52
1229.58
1208.21
1190.8
1177.83
1169.83
1167.45
1171.47
1182.77
1202.42
1231.63
1271.87
1324.81
1392.4
1476.94
1581.03
1707.71
1860.46
2043.21
2260.43
2517.04
2818.4
3170.12
3577.69
4045.86
4577.57
5171.95
5823.59
19.9193
429.231
621.233
550.453
449.459
407.708
398.12
398.389
405.714
419.246
436.215
454.128
471.58
487.871
502.663
515.855
527.52
537.855
547.142
555.718
563.967
572.313
581.219
591.19
602.779
616.599
633.331
653.738
678.684
709.15
746.254
791.282
845.711
911.242
989.841
1083.78
1195.68
1328.57
1485.96
1671.88
1890.96
2148.51
2450.54
2803.82
3215.8
3694.37
4247.38
4881.47
5599.83
6400.9
-425.274
1745.04
2928.77
3032.39
2877.07
2707.14
2522.97
2334.55
2159.53
2004.4
1868.35
1749.03
1644.18
1551.73
1469.87
1397.07
1332.1
1274.01
1222.07
1175.74
1134.68
1098.65
1067.59
1041.54
1020.66
1005.24
995.699
992.576
996.564
1008.51
1029.45
1060.61
1103.46
1159.72
1231.43
1320.97
1431.14
1565.19
1726.92
1920.79
2151.97
2426.48
2751.36
3134.75
3586.09
4116.12
4736.76
5460.27
6296.77
7251.52
-7851.7
-3262.17
-1759.8
-1192.52
-756.852
-429.513
-202.868
-39.9643
82.3158
175.261
246.217
300.757
342.925
375.606
400.944
420.603
435.913
447.963
457.677
465.862
473.25
480.531
488.373
497.45
508.46
522.142
539.3
560.82
587.694
621.039
662.132
712.433
773.621
847.635
936.72
1043.48
1170.93
1322.6
1502.59
1715.7
1967.55
2264.8
2615.29
3028.42
3515.5
4090.3
4769.7
5574.25
6527.6
7655.88
17585.8
9424.11
5391.84
3874.48
3041.52
2434.62
2013.35
1731.96
1535.36
1388.56
1273.95
1181.78
1105.67
1041.29
985.803
937.316
894.564
856.696
823.154
793.602
767.876
745.951
727.928
714.019
704.547
699.947
700.774
707.71
721.582
743.378
774.269
815.639
869.112
936.598
1020.33
1122.92
1247.44
1397.47
1577.22
1791.64
2046.59
2349.02
2707.3
3131.62
3634.64
4232.59
4947.17
5809.15
6865.47
8198.27
-20202.9
-15587.3
-14017.1
-10059.1
-8092.76
-4675.06
-2573.78
481.513
2586.31
5395.16
7425.88
10069.6
11968.1
14515.8
16223.2
18746.5
20178.4
22762.4
23762.8
26396.8
-20229.1
-15626.5
-14066.2
-10110.4
-8150.94
-4731.8
-2636.26
421.184
2521.56
5332.54
7359.77
10006
11901.9
14453.4
16159.6
18689.9
20124.6
22723.5
23737.7
26410.4
-20263.5
-15663.7
-14113.1
-10158.4
-8205.75
-4785.67
-2695.36
363.824
2460.11
5273.25
7297.33
9946.3
11840.2
14395.6
16101.7
18638.2
20076.5
22686
23710
26400.1
-20302.3
-15701.6
-14158.8
-10204.4
-8258.16
-4837.08
-2751.82
309.071
2401.4
5216.73
7237.83
9889.61
11781.7
14340.9
16046.9
18588.6
20029.8
22646.4
23675.4
26373.2
-20343.3
-15740
-14203.9
-10249
-8308.79
-4886.51
-2806.13
256.518
2344.96
5162.51
7180.67
9835.2
11725.4
14288
15993.7
18539.7
19982.5
22603.7
23634.6
26336.8
-20385.3
-15778.9
-14248.5
-10292.7
-8358.05
-4934.35
-2858.71
205.764
2290.36
5110.11
7125.31
9782.46
11670.7
14236.3
15941.3
18490.5
19933.6
22558.1
23589
26294.2
-20427.7
-15817.9
-14292.7
-10335.6
-8406.23
-4980.93
-2909.91
156.451
2237.23
5059.12
7071.31
9730.88
11616.9
14185.2
15888.9
18440.8
19883.2
22509.9
23539.8
26247.4
-20470.2
-15856.8
-14336.5
-10377.8
-8453.55
-5026.49
-2960
108.274
2185.23
5009.19
7018.27
9680.07
11563.7
14134.2
15836.3
18390.2
19831.2
22459.7
23487.8
26197.4
-20512.6
-15895.4
-14379.9
-10419.5
-8500.16
-5071.24
-3009.22
60.98
2134.1
4960.04
6965.93
9629.75
11510.8
14083.2
15783.3
18338.8
19777.9
22407.7
23433.8
26145.3
-20554.8
-15933.8
-14423
-10460.7
-8546.19
-5115.34
-3057.75
14.3652
2083.63
4911.45
6914.04
9579.69
11458
14032.1
15729.8
18286.7
19723.5
22354.4
23378.1
26091.4
-20596.7
-15971.9
-14465.6
-10501.4
-8591.73
-5158.91
-3105.74
-31.7333
2033.64
4863.25
6862.46
9529.77
11405.1
13980.7
15675.9
18233.9
19668.2
22299.9
23321.1
26036.1
-20638.4
-16009.7
-14508
-10541.8
-8636.87
-5202.07
-3153.31
-77.4439
1984.01
4815.31
6811.07
9479.89
11352.2
13929
15621.4
18180.5
19612
22244.5
23263
25979.8
-20679.8
-16047.3
-14550.1
-10581.9
-8681.69
-5244.89
-3200.55
-122.867
1934.63
4767.54
6759.78
9429.99
11299.2
13877.1
15566.6
18126.6
19555.2
22188.3
23204.1
25922.6
-20721
-16084.5
-14591.9
-10621.6
-8726.23
-5287.45
-3247.53
-168.079
1885.44
4719.87
6708.54
9380.02
11246
13824.9
15511.4
18072.1
19497.8
22131.5
23144.6
25864.7
-20761.9
-16121.5
-14633.5
-10661.2
-8770.55
-5329.79
-3294.32
-213.14
1836.37
4672.24
6657.32
9329.96
11192.7
13772.5
15455.9
18017.3
19440
22074.2
23084.5
25806.3
-20802.6
-16158.3
-14674.9
-10700.5
-8814.68
-5371.96
-3340.95
-258.094
1787.39
4624.63
6606.07
9279.8
11139.2
13719.8
15400.1
17962.2
19381.7
22016.4
23023.9
25747.4
-20843.2
-16194.9
-14716.2
-10739.7
-8858.67
-5414.01
-3387.47
-302.977
1738.47
4577.01
6554.8
9229.53
11085.6
13667
15344
17906.7
19323.1
21958.3
22962.9
25688.1
-20883.6
-16231.3
-14757.3
-10778.7
-8902.53
-5455.95
-3433.89
-347.813
1689.59
4529.37
6503.5
9179.16
11031.9
13613.9
15287.8
17851
19264.3
21899.8
22901.6
25628.5
-20923.9
-16267.6
-14798.3
-10817.6
-8946.3
-5497.81
-3480.25
-392.62
1640.74
4481.7
6452.16
9128.69
10978
13560.7
15231.4
17795.1
19205.2
21841.2
22840.1
25568.7
-20964.1
-16303.8
-14839.2
-10856.5
-8989.98
-5539.61
-3526.55
-437.412
1591.9
4433.98
6400.79
9078.13
10924.1
13507.3
15174.8
17738.9
19145.9
21782.3
22778.3
25508.7
-21004.3
-16339.9
-14880
-10895.2
-9033.6
-5581.37
-3572.8
-482.197
1543.08
4386.23
6349.38
9027.48
10870
13453.9
15118.1
17682.7
19086.5
21723.3
22716.4
25448.5
-21044.3
-16375.9
-14920.8
-10933.9
-9077.16
-5623.08
-3619.01
-526.982
1494.27
4338.44
6297.96
8976.76
10816
13400.3
15061.3
17626.3
19026.9
21664.1
22654.3
25388.2
-21084.3
-16411.8
-14961.5
-10972.5
-9120.67
-5664.77
-3665.19
-571.769
1445.47
4290.61
6246.52
8925.97
10761.8
13346.6
15004.4
17569.8
18967.2
21604.8
22592.1
25327.7
-21124.2
-16447.6
-15002.2
-11011.1
-9164.15
-5706.43
-3711.33
-616.558
1396.69
4242.75
6195.07
8875.13
10707.7
13292.9
14947.5
17513.2
18907.5
21545.5
22529.9
25267.3
-21164.1
-16483.4
-15042.8
-11049.6
-9207.58
-5748.07
-3757.44
-661.35
1347.93
4194.87
6143.63
8824.24
10653.5
13239.1
14890.5
17456.6
18847.7
21486.1
22467.5
25206.7
-21204
-16519.1
-15083.4
-11088.1
-9250.98
-5789.69
-3803.52
-706.143
1299.19
4146.97
6092.2
8773.32
10599.3
13185.2
14833.5
17399.9
18787.9
21426.6
22405.2
25146.2
-21243.8
-16554.7
-15124
-11126.5
-9294.34
-5831.29
-3849.57
-750.934
1250.49
4099.05
6040.79
8722.38
10545.2
13131.4
14776.5
17343.2
18728.1
21367.2
22342.8
25085.6
-21283.6
-16590.3
-15164.5
-11164.9
-9337.66
-5872.87
-3895.57
-795.719
1201.82
4051.13
5989.41
8671.42
10491
13077.5
14719.6
17286.5
18668.3
21307.7
22280.4
25025.1
-21323.4
-16625.9
-15205.1
-11203.3
-9380.95
-5914.42
-3941.53
-840.493
1153.19
4003.21
5938.07
8620.46
10436.9
13023.6
14662.6
17229.8
18608.5
21248.3
22218
24964.6
-21363.1
-16661.4
-15245.5
-11241.6
-9424.19
-5955.95
-3987.44
-885.253
1104.62
3955.3
5886.78
8569.51
10382.8
12969.8
14605.7
17173.2
18548.7
21188.8
22155.7
24904.1
-21402.8
-16696.9
-15286
-11279.9
-9467.38
-5997.45
-4033.3
-929.992
1056.1
3907.4
5835.54
8518.57
10328.8
12915.9
14548.8
17116.5
18489
21129.5
22093.4
24843.7
-21442.5
-16732.3
-15326.4
-11318.2
-9510.53
-6038.92
-4079.09
-974.704
1007.66
3859.52
5784.38
8467.65
10274.9
12862.1
14492
17059.9
18429.3
21070.2
22031.1
24783.4
-21482.2
-16767.7
-15366.8
-11356.4
-9553.61
-6080.34
-4124.82
-1019.39
959.285
3811.67
5733.3
8416.76
10221
12808.3
14435.3
17003.3
18369.7
21010.9
21969
24723.1
-21521.8
-16803
-15407.1
-11394.5
-9596.64
-6121.73
-4170.47
-1064.03
910.996
3763.86
5682.3
8365.91
10167.2
12754.6
14378.7
16946.8
18310.2
20951.8
21906.9
24663
-21561.4
-16838.2
-15447.3
-11432.6
-9639.6
-6163.06
-4216.04
-1108.63
862.798
3716.1
5631.4
8315.12
10113.6
12700.9
14322.1
16890.4
18250.8
20892.7
21844.9
24603
-21600.9
-16873.4
-15487.6
-11470.6
-9682.49
-6204.34
-4261.52
-1153.18
814.7
3668.38
5580.61
8264.38
10060
12647.3
14265.7
16834.1
18191.5
20833.7
21783
24543
-21640.4
-16908.5
-15527.7
-11508.6
-9725.29
-6245.56
-4306.91
-1197.67
766.711
3620.73
5529.93
8213.71
10006.6
12593.8
14209.4
16777.8
18132.3
20774.9
21721.2
24483.3
-21679.8
-16943.5
-15567.8
-11546.5
-9768.01
-6286.72
-4352.19
-1242.09
718.838
3573.14
5479.38
8163.11
9953.23
12540.3
14153.2
16721.7
18073.3
20716.2
21659.6
24423.6
-21719.2
-16978.5
-15607.8
-11584.3
-9810.64
-6327.8
-4397.36
-1286.45
671.092
3525.62
5428.97
8112.6
9900.05
12487
14097.2
16665.7
18014.4
20657.6
21598.1
24364.1
-21758.5
-17013.3
-15647.8
-11622.1
-9853.16
-6368.81
-4442.41
-1330.73
623.48
3478.19
5378.69
8062.18
9847.02
12433.8
14041.3
16609.8
17955.6
20599.1
21536.7
24304.8
-21797.7
-17048.1
-15687.6
-11659.7
-9895.58
-6409.73
-4487.33
-1374.92
576.011
3430.85
5328.57
8011.85
9794.14
12380.7
13985.6
16554.1
17897
20540.8
21475.5
24245.7
-21836.9
-17082.7
-15727.4
-11697.3
-9937.87
-6450.55
-4532.11
-1419.03
528.693
3383.6
5278.62
7961.64
9741.43
12327.7
13930
16498.4
17838.5
20482.7
21414.4
24186.7
-21875.9
-17117.3
-15767
-11734.7
-9980.05
-6491.29
-4576.75
-1463.03
481.537
3336.45
5228.83
7911.54
9688.91
12274.8
13874.6
16443
17780.3
20424.8
21353.6
24127.9
-21914.9
-17151.7
-15806.6
-11772.1
-10022.1
-6531.91
-4621.24
-1506.93
434.549
3289.42
5179.22
7861.56
9636.56
12222.1
13819.4
16387.7
17722.2
20367
21292.9
24069.4
-21953.7
-17186
-15846
-11809.3
-10064
-6572.43
-4665.57
-1550.72
387.74
3242.5
5129.81
7811.71
9584.42
12169.5
13764.5
16332.6
17664.4
20309.5
21232.4
24011
-21992.5
-17220.2
-15885.3
-11846.4
-10105.7
-6612.83
-4709.72
-1594.39
341.118
3195.71
5080.59
7762
9532.47
12117.1
13709.7
16277.6
17606.7
20252.1
21172.2
23952.9
-22031.1
-17254.3
-15924.5
-11883.4
-10147.3
-6653.1
-4753.7
-1637.94
294.692
3149.06
5031.58
7712.43
9480.75
12064.8
13655.1
16222.8
17549.2
20194.9
21112.1
23895
-22069.7
-17288.2
-15963.5
-11920.2
-10188.8
-6693.24
-4797.49
-1681.35
248.47
3102.54
4982.78
7663.02
9429.24
12012.8
13600.8
16168.3
17492
20138
21052.3
23837.4
-22108.1
-17322
-16002.4
-11957
-10230
-6733.25
-4841.08
-1724.63
202.462
3056.16
4934.22
7613.77
9377.97
11960.9
13546.7
16113.9
17435
20081.3
20992.7
23780
-22146.3
-17355.6
-16041.2
-11993.5
-10271.1
-6773.11
-4884.47
-1767.75
156.676
3009.95
4885.88
7564.69
9326.94
11909.2
13492.8
16059.8
17378.3
20024.8
20933.3
23722.8
-22184.4
-17389.1
-16079.8
-12029.9
-10312
-6812.82
-4927.65
-1810.73
111.122
2963.89
4837.79
7515.78
9276.16
11857.6
13439.2
16005.8
17321.8
19968.6
20874.2
23666
-22222.4
-17422.3
-16118.2
-12066.2
-10352.7
-6852.38
-4970.61
-1853.55
65.8073
2918
4789.96
7467.06
9225.64
11806.3
13385.8
15952.1
17265.6
19912.7
20815.4
23609.4
-22260.2
-17455.5
-16156.5
-12102.3
-10393.2
-6891.77
-5013.34
-1896.2
20.7414
2872.29
4742.38
7418.53
9175.39
11755.2
13332.8
15898.7
17209.6
19857
20756.8
23553.1
-22297.8
-17488.4
-16194.5
-12138.2
-10433.5
-6930.99
-5055.83
-1938.68
-24.0669
2826.75
4695.08
7370.2
9125.42
11704.4
13280
15845.5
17154
19801.5
20698.5
23497.1
-22335.3
-17521.1
-16232.4
-12173.9
-10473.6
-6970.03
-5098.07
-1980.98
-68.6088
2781.41
4648.06
7322.07
9075.73
11653.7
13227.4
15792.5
17098.6
19746.4
20640.5
23441.4
-22372.6
-17553.7
-16270.1
-12209.4
-10513.4
-7008.89
-5140.06
-2023.09
-112.876
2736.26
4601.32
7274.15
9026.34
11603.3
13175.2
15739.8
17043.5
19691.5
20582.8
23386
-22409.7
-17586
-16307.5
-12244.8
-10553
-7047.56
-5181.79
-2065.02
-156.859
2691.31
4554.88
7226.46
8977.25
11553.2
13123.3
15687.4
16988.7
19637
20525.4
23330.9
-22446.6
-17618.2
-16344.8
-12279.9
-10592.4
-7086.04
-5223.24
-2106.74
-200.549
2646.58
4508.75
7178.99
8928.47
11503.2
13071.7
15635.2
16934.3
19582.7
20468.3
23276.2
-22483.3
-17650.1
-16381.8
-12314.8
-10631.5
-7124.31
-5264.41
-2148.26
-243.938
2602.06
4462.93
7131.76
8880.02
11453.6
13020.5
15583.4
16880.1
19528.8
20411.5
23221.8
-22519.8
-17681.8
-16418.7
-12349.6
-10670.3
-7162.38
-5305.29
-2189.57
-287.017
2557.76
4417.43
7084.77
8831.9
11404.2
12969.5
15531.8
16826.3
19475.2
20355.1
23167.7
-22556.1
-17713.3
-16455.2
-12384.1
-10708.9
-7200.23
-5345.88
-2230.66
-329.777
2513.69
4372.27
7038.02
8784.11
11355.1
12919
15480.5
16772.9
19421.9
20299
23114
-22592.2
-17744.5
-16491.6
-12418.4
-10747.1
-7237.86
-5386.16
-2271.52
-372.21
2469.85
4327.45
6991.53
8736.67
11306.2
12868.7
15429.6
16719.7
19369
20243.2
23060.7
-22628
-17775.5
-16527.6
-12452.4
-10785.1
-7275.26
-5426.12
-2312.16
-414.306
2426.26
4282.98
6945.31
8689.59
11257.7
12818.8
15378.9
16667
19316.4
20187.8
23007.8
-22663.6
-17806.3
-16563.5
-12486.2
-10822.9
-7312.43
-5465.76
-2352.56
-456.058
2382.92
4238.86
6899.35
8642.88
11209.4
12769.3
15328.6
16614.6
19264.2
20132.8
22955.2
-22699
-17836.8
-16599
-12519.8
-10860.3
-7349.36
-5505.06
-2392.71
-497.456
2339.83
4195.12
6853.67
8596.54
11161.5
12720.2
15278.6
16562.6
19212.3
20078.1
22903
-22734.1
-17867
-16634.3
-12553.1
-10897.4
-7386.05
-5544.03
-2432.62
-538.492
2297.01
4151.74
6808.28
8550.57
11113.9
12671.4
15229
16510.9
19160.9
20023.8
22851.2
-22768.9
-17897
-16669.3
-12586.2
-10934.1
-7422.49
-5582.65
-2472.28
-579.157
2254.45
4108.76
6763.17
8505
11066.5
12623.1
15179.7
16459.7
19109.7
19970
22799.9
-22803.5
-17926.7
-16704
-12619
-10970.6
-7458.67
-5620.91
-2511.67
-619.443
2212.17
4066.16
6718.36
8459.83
11019.5
12575.1
15130.8
16408.9
19059
19916.5
22748.9
-22837.8
-17956.1
-16738.4
-12651.5
-11006.7
-7494.59
-5658.8
-2550.8
-659.341
2170.16
4023.97
6673.85
8415.07
10972.9
12527.5
15082.2
16358.4
19008.7
19863.4
22698.4
-22871.8
-17985.2
-16772.5
-12683.8
-11042.5
-7530.24
-5696.32
-2589.66
-698.843
2128.45
3982.18
6629.66
8370.72
10926.6
12480.4
15034
16308.4
18958.8
19810.7
22648.3
-22905.5
-18014
-16806.3
-12715.8
-11077.9
-7565.62
-5733.45
-2628.24
-737.94
2087.02
3940.81
6585.78
8326.79
10880.6
12433.7
14986.2
16258.8
18909.3
19758.4
22598.6
-22939
-18042.6
-16839.8
-12747.5
-11112.9
-7600.72
-5770.19
-2666.53
-776.624
2045.9
3899.87
6542.22
8283.3
10835
12387.4
14938.8
16209.7
18860.2
19706.6
22549.4
-22972.1
-18070.8
-16872.9
-12778.9
-11147.6
-7635.53
-5806.53
-2704.54
-814.886
2005.08
3859.37
6498.99
8240.24
10789.7
12341.6
14891.7
16160.9
18811.6
19655.2
22500.7
-23004.9
-18098.7
-16905.7
-12810
-11181.9
-7670.06
-5842.47
-2742.25
-852.717
1964.57
3819.3
6456.1
8197.63
10744.8
12296.2
14845.1
16112.7
18763.3
19604.3
22452.4
-23037.4
-18126.3
-16938.2
-12840.8
-11215.9
-7704.3
-5877.98
-2779.66
-890.11
1924.38
3779.69
6413.55
8155.48
10700.3
12251.2
14798.9
16064.9
18715.6
19553.8
22404.6
-23069.6
-18153.6
-16970.3
-12871.3
-11249.4
-7738.23
-5913.07
-2816.77
-927.056
1884.51
3740.53
6371.36
8113.8
10656.1
12206.8
14753.1
16017.5
18668.3
19503.8
22357.2
-23101.5
-18180.6
-17002
-12901.5
-11282.5
-7771.86
-5947.73
-2853.57
-963.547
1844.97
3701.85
6329.51
8072.58
10612.4
12162.8
14707.7
15970.6
18621.4
19454.2
22310.4
-23133
-18207.2
-17033.4
-12931.4
-11315.2
-7805.18
-5981.94
-2890.05
-999.573
1805.76
3663.63
6288.03
8031.85
10569
12119.3
14662.7
15924.2
18575
19405.2
22264
-23164.2
-18233.5
-17064.4
-12961
-11347.5
-7838.19
-6015.7
-2926.21
-1035.13
1766.9
3625.9
6246.92
7991.6
10526.1
12076.2
14618.2
15878.3
18529.1
19356.6
22218.2
-23195
-18259.4
-17095.1
-12990.2
-11379.4
-7870.88
-6049
-2962.04
-1070.2
1728.38
3588.67
6206.18
7951.85
10483.5
12033.7
14574.1
15832.9
18483.6
19308.5
22172.8
-23225.4
-18285
-17125.3
-13019.1
-11410.8
-7903.25
-6081.83
-2997.54
-1104.79
1690.21
3551.93
6165.82
7912.6
10441.4
11991.7
14530.5
15788
18438.7
19260.8
22128
-23255.5
-18310.2
-17155.2
-13047.7
-11441.8
-7935.28
-6114.19
-3032.71
-1138.88
1652.4
3515.7
6125.85
7873.86
10399.7
11950.2
14487.3
15743.6