/*--------------------------------*- C++ -*----------------------------------*\
  =========                 |
  \\      /  F ield         | OpenFOAM: The Open Source CFD Toolbox
   \\    /   O peration     | Website:  https://openfoam.org
    \\  /    A nd           | Version:  8
     \\/     M anipulation  |
\*---------------------------------------------------------------------------*/
FoamFile
{
    version     2.0;
    format      ascii;
    class       volScalarField;
    location    "800";
    object      p_rgh;
}
// * * * * * * * * * * * * * * * * * * * * * * * * * * * * * * * * * * * * * //

dimensions      [1 -1 -2 0 0 0 0];

internalField   nonuniform List<scalar> 
8400
(
0.677596
19.6081
35.4862
50.8221
65.9131
80.9894
96.1983
111.656
127.468
143.737
160.569
178.079
196.396
215.662
236.042
257.721
280.912
305.863
332.856
362.224
394.351
429.675
468.703
512.061
560.505
614.813
675.675
744.018
821.101
908.325
1007.29
1119.85
1248.14
1394.61
1562.13
1754
1974.07
2226.81
2517.45
2852.13
3238.04
3683.7
4199.75
4800.12
5501.21
6317.17
7263.14
8399.89
9894.07
11840
-9.37271
4.4341
18.0916
32.1944
46.3596
60.5978
74.9767
89.5793
104.492
119.806
135.617
152.031
169.167
187.156
206.15
226.323
247.872
271.026
296.046
323.242
352.978
385.663
421.747
461.764
506.324
556.135
612.113
675.241
746.578
827.398
919.191
1023.68
1142.84
1278.98
1434.74
1613.16
1817.76
2052.6
2322.36
2632.43
2988.99
3399.15
3871.41
4416.21
5044.81
5765.58
6585.69
7536.08
8700.03
10128.4
22.1994
40.3713
56.4425
71.6807
86.8134
102.067
117.555
133.362
149.571
166.271
183.558
201.539
220.337
240.087
260.946
283.096
306.741
332.117
359.492
389.186
421.578
457.093
496.153
539.239
586.958
640.021
699.318
765.846
840.702
925.162
1020.71
1129.04
1252.15
1392.3
1552.12
1734.63
1943.31
2182.17
2455.81
2769.49
3129.21
3541.76
4015.01
4557.97
5179.81
5887.55
6687.01
7593.13
8636.48
9812.3
-14.8292
-10.5789
-0.723832
11.2359
23.9231
36.9452
50.2052
63.7066
77.4911
91.6186
106.162
121.204
136.841
153.184
170.358
188.511
207.816
228.46
250.663
274.678
300.807
329.427
361.015
396.05
435.034
478.592
527.455
582.459
644.572
714.914
794.789
885.699
989.382
1107.84
1243.38
1398.67
1576.74
1781.09
2015.72
2285.17
2594.58
2949.74
3357.19
3824.18
4358
4964.76
5649.93
6422.64
7297.63
8271.29
37.705
59.2684
76.1786
91.2052
105.909
120.711
135.756
151.117
166.852
183.025
199.709
216.987
234.954
253.72
273.41
294.174
316.182
339.62
364.689
391.623
420.675
452.152
486.446
524.026
565.398
611.151
661.961
718.598
781.949
853.032
933.024
1023.27
1125.34
1240.99
1372.28
1521.52
1691.35
1884.77
2105.13
2356.17
2642.01
2967.13
3336.3
3754.46
4226.12
4754.48
5341.07
5987.89
6701.21
7479.67
-23.077
-22.8088
-14.8244
-4.00108
7.78955
20.0036
32.4851
45.2049
58.1799
71.4477
85.0592
99.0761
113.57
128.624
144.335
160.815
178.207
196.687
216.446
237.694
260.664
285.617
312.863
342.771
375.766
412.342
453.074
498.62
549.745
607.33
672.394
746.111
829.833
925.116
1033.74
1157.75
1299.45
1461.46
1646.74
1858.53
2100.42
2376.23
2689.97
3045.63
3446.78
3895.74
4392.68
4936.62
5529.62
6172.34
45.0224
68.8786
86.0547
100.539
114.41
128.241
142.217
156.407
170.854
185.595
200.676
216.148
232.07
248.51
265.54
283.243
301.714
321.074
341.477
363.096
386.123
410.78
437.323
466.047
497.293
531.454
568.983
610.401
656.307
707.396
764.463
828.427
900.342
981.416
1073.03
1176.76
1294.39
1427.92
1579.61
1751.92
1947.55
2169.34
2420.24
2703.13
3020.57
3374.17
3763.67
4187.71
4647.86
5146.57
-27.6023
-29.1871
-22.0795
-11.8159
-0.517215
11.2083
23.1827
35.3634
47.7517
60.3667
73.2381
86.4067
99.9215
113.843
128.235
143.172
158.733
175.009
192.109
210.162
229.313
249.731
271.613
295.185
320.711
348.493
378.882
412.281
449.155
490.039
535.551
586.399
643.397
707.48
779.711
861.302
953.621
1058.2
1176.76
1311.16
1463.42
1635.65
1829.99
2048.52
2293.05
2564.64
2862.93
3186.73
3537.49
3918.46
47.2694
71.507
88.1983
101.829
114.663
127.325
140.006
152.767
165.629
178.604
191.704
204.942
218.341
231.925
245.732
259.801
274.178
288.918
304.084
319.751
336.004
352.944
370.687
389.368
409.143
430.197
452.741
477.021
503.325
531.982
563.377
597.954
636.229
678.792
726.326
779.611
839.538
907.113
983.469
1069.86
1167.67
1278.35
1403.42
1544.42
1702.78
1879.49
2074.67
2288.03
2521.39
2778.64
-28.7328
-31.0418
-24.4781
-14.7143
-3.93275
7.23543
18.598
30.0975
41.7188
53.4614
65.3308
77.334
89.4813
101.786
114.267
126.942
139.834
152.971
166.383
180.104
194.176
208.645
223.562
238.988
254.991
271.649
289.053
307.303
326.518
346.832
368.401
391.404
416.047
442.571
471.254
502.418
536.437
573.746
614.845
660.313
710.814
767.097
830.009
900.499
979.599
1068.28
1167.23
1277.21
1400.71
1542.32
46.3322
69.8892
85.7873
98.5793
110.51
122.188
133.791
145.359
156.893
168.382
179.814
191.174
202.448
213.622
224.68
235.608
246.387
257.001
267.427
277.644
287.627
297.347
306.774
315.873
324.605
332.927
340.792
348.146
354.93
361.079
366.523
371.184
374.979
377.82
379.618
380.281
379.722
377.869
374.667
370.104
364.222
357.158
349.184
340.77
332.649
325.848
321.73
322.273
330.946
353.018
-27.5577
-30.0086
-23.959
-14.8765
-4.86836
5.44181
15.8495
26.2779
36.6886
47.0544
57.3511
67.5544
77.6386
87.5759
97.3354
106.882
116.176
125.172
133.817
142.049
149.798
156.981
163.503
169.253
174.102
177.9
180.475
181.625
181.12
178.692
174.033
166.792
156.566
142.896
125.266
103.097
75.7477
42.5194
2.6665
-44.5829
-99.992
-164.256
-237.911
-321.209
-413.975
-515.406
-623.784
-736.158
-847.979
-952.004
42.9469
65.1408
80.1763
92.332
103.675
114.75
125.7
136.54
147.25
157.799
168.146
178.25
188.065
197.537
206.61
215.215
223.277
230.709
237.41
243.266
248.143
251.889
254.326
255.252
254.43
251.59
246.419
238.557
227.59
213.042
194.366
170.938
142.042
106.87
64.5014
13.907
-46.0621
-116.669
-199.28
-295.341
-406.332
-533.688
-678.663
-842.145
-1024.44
-1224.97
-1441.69
-1670.47
-1904.77
-2135.4
-23.9804
-25.9646
-20.3127
-11.9749
-2.85975
6.44243
15.7184
24.8714
33.8393
42.5695
51.0093
59.1027
66.7878
73.9954
80.6472
86.6536
91.9124
96.306
99.6994
101.937
102.839
102.198
99.7758
95.296
88.4404
78.8412
66.0742
49.6498
29.0034
3.48424
-27.6568
-65.2814
-110.379
-164.082
-227.684
-302.658
-390.667
-493.581
-613.472
-752.612
-913.437
-1098.48
-1310.25
-1550.93
-1822.18
-2124.74
-2457.67
-2817.16
-3195.3
-3577.95
36.2125
56.167
70.1296
81.7399
92.6842
103.382
113.921
124.293
134.458
144.364
153.956
163.168
171.93
180.158
187.76
194.627
200.634
205.638
209.472
211.944
212.83
211.871
208.767
203.171
194.68
182.825
167.066
146.774
121.223
89.5702
50.8428
3.91466
-52.5138
-119.94
-200.086
-294.926
-406.711
-537.996
-691.653
-870.868
-1079.13
-1320.16
-1597.77
-1915.5
-2276.17
-2681.59
-3131.89
-3623.3
-4144.64
-4675.46
-17.1927
-17.4721
-11.5455
-3.51654
5.05812
13.6697
22.1178
30.298
38.1341
45.5546
52.4848
58.8423
64.5342
69.4553
73.4851
76.4855
78.2982
78.7408
77.6032
74.6435
69.5827
62.099
51.8207
38.3191
21.0988
-0.411944
-26.8738
-59.0499
-97.8213
-144.206
-199.379
-264.697
-341.723
-432.261
-538.385
-662.477
-807.269
-975.877
-1171.84
-1399.14
-1662.23
-1966.02
-2315.84
-2717.02
-3174.39
-3692.34
-4275.28
-4925.37
-5633.72
-6369.34
23.6819
40.8228
53.5145
64.6016
75.161
85.4513
95.5135
105.322
114.83
123.977
132.696
140.907
148.521
155.432
161.52
166.646
170.648
173.339
174.502
173.886
171.2
166.108
158.217
147.075
132.154
112.846
88.4429
58.1233
20.9349
-24.2276
-78.6472
-143.813
-221.455
-313.582
-422.527
-551.001
-702.152
-879.64
-1087.71
-1331.25
-1615.94
-1948.31
-2335.91
-2787
-3309.81
-3912.77
-4606.78
-5403.55
-6296.54
-7235.15
-9.00315
-4.67957
3.08018
11.8468
20.6934
29.3413
37.6757
45.6236
53.1176
60.084
66.4391
72.0865
76.915
80.7965
83.5833
85.105
85.165
83.5364
79.9573
74.125
65.6898
54.2473
39.3298
20.396
-3.18076
-32.1262
-67.2813
-109.621
-160.276
-220.559
-291.994
-376.353
-475.697
-592.427
-729.339
-889.698
-1077.32
-1296.67
-1552.98
-1852.36
-2201.95
-2610.16
-3087
-3643.94
-4292.78
-5044.93
-5915.79
-6930.63
-8102.49
-9367.35
1.8068
20.5745
32.684
43.4513
53.582
63.3205
72.7112
81.7363
90.351
98.4939
106.09
113.049
119.266
124.62
128.969
132.148
133.967
134.207
132.612
128.888
122.693
113.631
101.245
85.0037
64.2926
38.3992
6.49761
-32.3698
-79.3141
-135.625
-202.799
-282.576
-376.981
-488.37
-619.49
-773.549
-954.302
-1166.15
-1414.29
-1704.82
-2044.92
-2443.17
-2910.22
-3459.12
-4103.95
-4857.44
-5738.99
-6802.5
-8133.91
-9707.96
-0.963276
8.77012
18.5892
28.3748
37.8784
47.045
55.8388
64.2183
72.1299
79.5063
86.2658
92.3119
97.5315
101.793
104.944
106.807
107.178
105.82
102.46
96.7807
88.4158
76.9409
61.8645
42.6171
18.5388
-11.1356
-47.2941
-90.9671
-143.352
-205.841
-280.054
-367.879
-471.521
-593.558
-737.011
-905.436
-1103.03
-1334.78
-1606.64
-1925.79
-2300.85
-2742.54
-3264.74
-3885.77
-4627.55
-5512.78
-6577.04
-7924.44
-9764.38
-12141.5
29232.4
21070.5
17037.6
15519.3
14684.9
14076
13652.3
13368
13167.9
13016.8
12897.1
12798.9
12715.7
12643
12577.7
12517.7
12461.4
12407.8
12355.8
12304.6
12253.6
12202
12149.4
12095.1
12038.4
11978.6
11914.9
11846.5
11772.3
11691.1
11601.8
11502.6
11391.9
11267.8
11127.6
10968.5
10787.1
10579.2
10340.2
10064
9743.61
9370.27
8933.36
8419.39
7810.86
7084.32
6206.81
5129.07
3770.69
1995.01
3697.65
8286.92
9788.7
10355
10789.3
11114.9
11339.3
11499.4
11618.3
11707.1
11773.2
11821.9
11857.3
11881.9
11897.8
11906.3
11908.6
11905.4
11897.2
11884.5
11867.5
11846.2
11820.6
11790.6
11755.9
11716.1
11670.9
11619.4
11560.9
11494.5
11418.8
11332.4
11233.7
11120.7
10991
10842.1
10670.5
10472.5
10243.4
9977.8
9669.02
9308.88
8887.4
8392.26
7808
7115.07
6288.51
5296.82
4102.45
2671.55
11027.2
13197.2
14380.4
14483.1
14326.5
14154.9
13968.6
13777.4
13599
13439.9
13299.1
13174.2
13062.7
12962.5
12871.5
12788
12710.5
12637.7
12568.5
12502.1
12437.4
12373.9
12310.6
12247
12182.2
12115.4
12045.9
11972.8
11895.2
11811.9
11721.8
11623.4
11514.8
11394
11258.7
11106.3
10933.7
10737.2
10512.3
10254
9956.18
9611.54
9211.45
8745.52
8201.36
7564.26
6817.22
5941.69
4920.44
3745.2
11375.9
11784.9
11976.4
11904.8
11802.6
11759.2
11747.6
11745.4
11749.7
11759.5
11772.2
11785
11796.4
11805.5
11812
11815.4
11815.5
11812.4
11806
11796.1
11782.8
11766
11745.5
11721.1
11692.4
11659.1
11620.7
11576.6
11526
11468.3
11402.5
11327.3
11241.4
11143.2
11030.5
10901.1
10752.3
10580.6
10382.4
10153.1
9887.51
9579.61
9222.26
8807.29
8325.49
7766.82
7121.12
6379.68
5538.64
4604.8
11914.9
12164
12480.6
12712.3
12852.2
12941.5
12993.9
13012.8
13006.4
12983.5
12949.8
12908.9
12863.2
12814.7
12764.4
12713.2
12661.4
12609.3
12557
12504.3
12451.3
12397.7
12343.2
12287.6
12230.4
12171.2
12109.4
12044.4
11975.3
11901.2
11821.2
11734.2
11638.7
11533.3
11416.2
11285.3
11138
10971.7
10782.9
10567.9
10322.3
10041.3
9719.13
9349.74
8926.59
8443.21
7893.97
7275.53
6589.24
5843.9
12118.6
12204.3
12312.4
12374.4
12377.1
12349
12310.6
12268.3
12225.2
12184
12146
12111.6
12080.4
12051.7
12025.1
12000
11975.9
11952.2
11928.5
11904.4
11879.6
11853.6
11826.2
11796.8
11765.2
11731
11693.6
11652.6
11607.4
11557.2
11501.2
11438.6
11368.1
11288.5
11198.3
11095.9
10979.1
10845.8
10693.1
10518.3
10317.7
10087.8
9824.28
9523
9179.69
8790.63
8353.38
7867.87
7338.12
6773.67
12231.8
12276.2
12347.9
12420.1
12475.5
12516.4
12548
12571
12585.1
12590.9
12589.7
12582.5
12570.1
12553.1
12532.3
12508.3
12481.4
12452.1
12420.6
12387.2
12351.9
12314.9
12276.2
12235.5
12192.8
12148
12100.6
12050.5
11997.1
11940
11878.6
11812.1
11739.8
11660.5
11573.2
11476.4
11368.8
11248.4
11113.3
10961.2
10789.6
10595.8
10376.9
10130.2
9852.95
9543.33
9200.57
8825.89
8423.45
8000.57
12290.3
12312.5
12350.3
12390.3
12418.5
12431.4
12431.5
12421.6
12403.5
12379.5
12351.3
12320.7
12288.7
12256.1
12223.5
12191.1
12159
12127.4
12096.2
12065.2
12034.4
12003.6
11972.5
11940.9
11908.6
11875.3
11840.6
11804.2
11765.8
11724.8
11680.8
11633.1
11581.2
11524.2
11461.4
11391.8
11314.2
11227.4
11130
11020.5
10897.2
10758.4
10602.4
10427.4
10232.3
10016.4
9779.82
9524.56
9254.53
8975.88
12321.7
12335.3
12360.4
12391
12418.5
12438.8
12452
12459.2
12461.1
12458.3
12451.4
12441.2
12428.1
12412.5
12394.7
12375
12353.6
12330.6
12306.3
12280.8
12254.1
12226.2
12197.3
12167.3
12136.2
12103.9
12070.4
12035.4
11999
11960.8
11920.7
11878.3
11833.3
11785.3
11733.8
11678.3
11618.2
11552.8
11481.3
11402.9
11316.7
11221.9
11117.6
11003.2
10878.3
10742.9
10597.9
10444.8
10286.6
10127.2
12335.9
12346
12365.1
12389.7
12412.6
12429.3
12438.6
12440.8
12436.7
12427
12412.7
12394.7
12374.1
12351.3
12327.1
12301.9
12275.9
12249.5
12222.9
12196.1
12169.2
12142.2
12115.2
12088.2
12061.1
12034
12006.6
11979.1
11951.3
11923.1
11894.4
11865.2
11835.3
11804.6
11773
11740.2
11706.2
11670.8
11633.7
11594.8
11554.1
11511.3
11466.5
11419.9
11371.7
11322.6
11273.4
11225.7
11181.3
11142.9
12337.1
12347.2
12366.4
12391
12414.1
12430.9
12440.4
12442.8
12439
12429.6
12415.7
12398.3
12378.2
12356.2
12332.8
12308.5
12283.7
12258.7
12233.6
12208.6
12183.8
12159.4
12135.3
12111.6
12088.4
12065.8
12043.8
12022.4
12001.7
11981.8
11962.8
11944.9
11928.1
11912.6
11898.7
11886.5
11876.5
11868.8
11863.9
11862.3
11864.6
11871.3
11883.3
11901.3
11926.3
11959.3
12001.2
12053
12115.5
12189.6
12325.3
12338.9
12364.1
12395
12422.8
12443.6
12457.3
12465.2
12467.9
12466
12460.3
12451.5
12440
12426.3
12410.7
12393.6
12375.3
12355.9
12335.8
12315.2
12294.2
12273.1
12252.1
12231.4
12211.1
12191.5
12172.8
12155.2
12139.1
12124.7
12112.4
12102.4
12095.4
12091.7
12091.9
12096.6
12106.7
12123
12146.4
12178.1
12219.4
12271.5
12335.9
12414.2
12507.9
12618.3
12746.5
12893.1
13057.8
13240
12296.1
12318.4
12356.4
12396.8
12425.5
12439.1
12440.2
12431.4
12414.7
12392.3
12366.2
12337.9
12308.7
12279.4
12250.5
12222.6
12195.8
12170.4
12146.4
12124
12103
12083.7
12066.1
12050.2
12036.3
12024.3
12014.5
12007.3
12002.7
12001.3
12003.5
12009.7
12020.6
12036.9
12059.5
12089.4
12127.7
12175.7
12234.9
12307.1
12394.2
12498.2
12621.3
12765.9
12934.1
13127.8
13348.4
13596.2
13870.2
14168.5
12239.7
12284.2
12356.2
12429
12485.1
12527
12559.8
12584.4
12600.3
12608.3
12609.7
12605.6
12596.8
12584.1
12568.4
12550.3
12530.4
12509.3
12487.4
12465.1
12442.9
12421.1
12400.2
12380.4
12362.2
12346
12332.1
12321.2
12313.6
12310.1
12311.3
12317.9
12331
12351.4
12380.4
12419.4
12470
12533.9
12613.3
12710.4
12827.8
12968.4
13135.2
13331.3
13559.7
13823.2
14123.4
14460.9
14833.7
15237.9
12128.4
12214.2
12322.8
12385.5
12389
12362.2
12325.3
12285
12244.2
12205.8
12171.2
12140.8
12114.2
12091
12070.9
12053.3
12038
12024.6
12013.1
12003.1
11994.9
11988.3
11983.5
11980.7
11980.1
11982
11986.9
11995.2
12007.4
12024.3
12046.7
12075.4
12111.5
12156.3
12211.4
12278.2
12358.9
12455.7
12571
12708
12869.7
13060
13282.7
13542
13842.1
14186.9
14579.5
15021
15510.1
16042.6
11926.4
12175.7
12492.8
12725.2
12866.2
12957
13011.1
13032.2
13028.5
13008.7
12978.8
12942.5
12902.3
12860.1
12817.2
12774.7
12733.2
12693.1
12654.8
12618.7
12585
12553.9
12525.7
12500.8
12479.4
12462
12449
12441
12438.6
12442.7
12454
12473.6
12502.8
12543.1
12596
12663.6
12748.1
12852.2
12978.9
13131.6
13314.4
13531.6
13788.2
14089.6
14441.3
14848.9
15317.1
15848.8
16443.1
17094.8
11388.7
11798
11990
11919.2
11818.2
11776.5
11766.9
11767.2
11774.5
11788
11805
11822.9
11840.4
11856.6
11871.4
11884.6
11896.3
11906.6
11915.9
11924.5
11932.7
11941.1
11950
11960
11971.6
11985.4
12002.1
12022.5
12047.5
12077.9
12115
12160.1
12214.5
12280
12358.6
12452.6
12564.5
12697.3
12854.7
13040.7
13259.7
13517.3
13819.3
14172.6
14584.6
15063.1
15616.1
16250.2
16968.6
17769.7
11041.1
13211.4
14395.1
14498.7
14343.4
14173.5
13989.3
13800.9
13625.9
13470.8
13334.7
13215.4
13110.5
13018.1
12936.2
12863.4
12798.5
12740.4
12688.4
12642.1
12601
12565
12534
12507.9
12487
12471.6
12462.1
12458.9
12462.9
12474.9
12495.8
12527
12569.8
12626.1
12697.8
12787.3
12897.5
13031.5
13193.3
13387.2
13618.3
13892.8
14217.7
14601.1
15052.4
15582.5
16203.1
16926.6
17763.1
18717.9
3712.25
8301.78
9804.14
10371.4
10807.1
11134.4
11361.1
11524
11646.3
11739.2
11810.2
11864.7
11906.9
11939.6
11964.9
11984.6
11999.9
12011.9
12021.6
12029.8
12037.2
12044.5
12052.3
12061.4
12072.4
12086.1
12103.3
12124.8
12151.6
12185
12226.1
12276.4
12337.6
12411.6
12500.7
12607.4
12734.9
12886.6
13066.5
13279.7
13531.5
13828.8
14179.2
14592.4
15079.5
15654.3
16333.7
17138.2
18091.6
19219.8
29247.3
21085.6
17053.4
15536
14703
14096.1
13674.9
13393.5
13196.9
13050.1
12935.5
12843.3
12767.2
12702.8
12647.4
12598.9
12556.1
12518.3
12484.7
12455.2
12429.5
12407.5
12389.5
12375.6
12366.1
12361.5
12362.4
12369.3
12383.2
12405
12435.9
12477.3
12530.7
12598.2
12682
12784.5
12909.1
13059.1
13238.9
13453.3
13708.2
14010.7
14368.9
14793.3
15296.3
15894.2
16608.8
17470.8
18527.1
19859.9
-20154.7
-15538.7
-13968
-10009.6
-8042.71
-4624.52
-2522.76
533.013
2638.29
5447.62
7478.82
10123
12022
14570.2
16278
18801.9
20234.2
22818.7
23819.5
26454.1
-20084.7
-15480.7
-13919
-9961.63
-8000.77
-4580.19
-2483.21
575.678
2677.49
5489.92
7518.58
10166.3
12063.6
14616.6
16324.2
18856
20292
22892.4
23908
26582.2
-20022.8
-15420.7
-13867.6
-9910.5
-7955.48
-4532.99
-2440.29
621.299
2719.99
5535.52
7562.01
10213.4
12109.7
14667.5
16376
18914.9
20355.6
22967.4
23993.9
26686.4
-19965.4
-15361.3
-13815.2
-9857.39
-7907.82
-4483.37
-2394.75
669.501
2765.19
5583.88
7608.34
10263.5
12158.9
14721.5
16430.8
18975.9
20420.5
23040.4
24072.8
26774
-19910.2
-15302.6
-13762.2
-9802.96
-7858.4
-4431.8
-2347.1
719.87
2812.63
5634.5
7656.99
10315.8
12210.4
14777.3
16487.3
19037.6
20484.7
23110.3
24145.5
26852
-19856
-15244.4
-13708.7
-9747.6
-7807.67
-4378.69
-2297.77
771.992
2861.87
5686.9
7707.39
10369.8
12263.4
14834.3
16544.5
19099
20547.4
23177.1
24213.4
26923.8
-19802.3
-15186.3
-13654.9
-9691.5
-7755.91
-4324.36
-2247.1
825.502
2912.52
5740.65
7759.08
10424.9
12317.2
14891.7
16601.7
19159.8
20608.4
23241.4
24277.5
26991.3
-19748.8
-15128.1
-13600.7
-9634.82
-7703.34
-4269.08
-2195.39
880.083
2964.24
5795.4
7811.68
10480.7
12371.5
14949.2
16658.6
19219.6
20667.8
23303.5
24338.9
27055.7
-19695.2
-15069.9
-13546.2
-9577.64
-7650.14
-4213.07
-2142.89
935.473
3016.75
5850.85
7864.9
10536.9
12426.1
15006.7
16714.9
19278.6
20725.9
23363.8
24398
27117.7
-19641.5
-15011.4
-13491.4
-9520.05
-7596.44
-4156.48
-2089.78
991.458
3069.84
5906.78
7918.49
10593.3
12480.6
15063.9
16770.7
19336.8
20782.7
23422.6
24455.4
27177.9
-19587.6
-14952.8
-13436.4
-9462.13
-7542.35
-4099.46
-2036.22
1047.87
3123.31
5963
7972.28
10649.7
12535.1
15120.7
16826
19394.1
20838.4
23480.2
24511.5
27236.6
-19533.6
-14893.9
-13381.1
-9403.92
-7487.96
-4042.13
-1982.34
1104.56
3177.04
6019.37
8026.16
10706
12589.4
15177.2
16880.7
19450.8
20893.3
23536.8
24566.4
27294.2
-19479.4
-14834.9
-13325.7
-9345.51
-7433.35
-3984.57
-1928.24
1161.42
3230.9
6075.8
8080.03
10762.2
12643.4
15233.3
16934.8
19506.7
20947.4
23592.4
24620.3
27350.7
-19425
-14775.7
-13270.1
-9286.94
-7378.59
-3926.87
-1874.02
1218.38
3284.83
6132.2
8133.81
10818.2
12697.2
15289
16988.4
19562.1
21000.7
23647.3
24673.4
27406.5
-19370.6
-14716.4
-13214.5
-9228.26
-7323.73
-3869.08
-1819.72
1275.35
3338.75
6188.51
8187.47
10874
12750.6
15344.3
17041.6
19616.9
21053.5
23701.5
24725.8
27461.5
-19316.1
-14657
-13158.7
-9169.51
-7268.83
-3811.27
-1765.42
1332.28
3392.61
6244.69
8240.97
10929.5
12803.8
15399.3
17094.4
19671.3
21105.7
23755.2
24777.5
27515.9
-19261.6
-14597.5
-13103
-9110.75
-7213.93
-3753.48
-1711.15
1389.13
3446.38
6300.71
8294.29
10984.8
12856.7
15453.8
17146.7
19725.1
21157.4
23808.3
24828.7
27569.8
-19207.1
-14538.1
-13047.3
-9052.01
-7159.07
-3695.74
-1656.95
1445.87
3500.02
6356.54
8347.4
11039.8
12909.2
15508
17198.7
19778.6
21208.6
23860.9
24879.5
27623.2
-19152.6
-14478.7
-12991.6
-8993.31
-7104.27
-3638.1
-1602.85
1502.46
3553.51
6412.15
8400.3
11094.5
12961.5
15561.9
17250.3
19831.6
21259.5
23913.1
24929.8
27676.1
-19098.2
-14419.3
-12936.1
-8934.7
-7049.58
-3580.57
-1548.88
1558.89
3606.84
6467.55
8452.98
11149
13013.5
15615.4
17301.5
19884.3
21309.9
23964.9
24979.6
27728.6
-19043.9
-14360
-12880.6
-8876.18
-6995
-3523.19
-1495.05
1615.13
3659.98
6522.71
8505.44
11203.1
13065.3
15668.6
17352.4
19936.6
21360
24016.4
25029.1
27780.8
-18989.7
-14300.8
-12825.2
-8817.8
-6940.56
-3465.97
-1441.38
1671.17
3712.94
6577.62
8557.66
11257
13116.7
15721.5
17403.1
19988.6
21409.7
24067.4
25078.2
27832.6
-18935.6
-14241.7
-12770
-8759.56
-6886.29
-3408.92
-1387.88
1726.99
3765.69
6632.29
8609.65
11310.6
13167.9
15774.1
17453.4
20040.2
21459.1
24118.2
25127
27884.1
-18881.8
-14182.8
-12715
-8701.49
-6832.18
-3352.07
-1334.57
1782.59
3818.24
6686.7
8661.41
11363.9
13218.8
15826.4
17503.4
20091.5
21508.2
24168.6
25175.4
27935.3
-18828
-14124
-12660.2
-8643.59
-6778.26
-3295.42
-1281.46
1837.96
3870.57
6740.84
8712.93
11416.9
13269.5
15878.4
17553.1
20142.6
21557
24218.7
25223.5
27986.1
-18774.5
-14065.4
-12605.5
-8585.89
-6724.54
-3238.99
-1228.56
1893.09
3922.69
6794.73
8764.22
11469.6
13319.9
15930.1
17602.6
20193.3
21605.5
24268.5
25271.3
28036.7
-18721.2
-14007
-12551.1
-8528.38
-6671.03
-3182.78
-1175.86
1947.96
3974.58
6848.34
8815.27
11522.1
13370.1
15981.5
17651.8
20243.7
21653.8
24318
25318.9
28087
-18668.1
-13948.8
-12496.9
-8471.1
-6617.73
-3126.81
-1123.39
2002.59
4026.25
6901.69
8866.09
11574.2
13420
16032.6
17700.7
20293.8
21701.7
24367.3
25366.1
28137
-18615.2
-13890.8
-12442.9
-8414.03
-6564.65
-3071.08
-1071.14
2056.95
4077.69
6954.76
8916.66
11626.1
13469.6
16083.4
17749.4
20343.7
21749.4
24416.2
25413.1
28186.8
-18562.5
-13833
-12389.1
-8357.2
-6511.81
-3015.6
-1019.11
2111.05
4128.9
7007.55
8967
11677.7
13519
16133.9
17797.8
20393.2
21796.8
24464.9
25459.7
28236.2
-18510.1
-13775.4
-12335.6
-8300.61
-6459.19
-2960.37
-967.316
2164.88
4179.87
7060.06
9017.1
11729
13568.2
16184.1
17846
20442.5
21843.9
24513.3
25506.1
28285.5
-18458
-13718
-12282.3
-8244.26
-6406.82
-2905.4
-915.756
2218.44
4230.62
7112.29
9066.97
11780
13617.1
16234.1
17893.9
20491.5
21890.8
24561.4
25552.3
28334.4
-18406.1
-13660.9
-12229.3
-8188.15
-6354.69
-2850.69
-864.433
2271.73
4281.12
7164.24
9116.6
11830.8
13665.8
16283.8
17941.5
20540.3
21937.4
24609.3
25598.1
28383.1
-18354.4
-13604
-12176.5
-8132.31
-6302.81
-2796.25
-813.351
2324.73
4331.4
7215.9
9165.98
11881.2
13714.2
16333.2
17988.9
20588.7
21983.7
24656.9
25643.7
28431.6
-18303
-13547.4
-12124
-8076.72
-6251.17
-2742.08
-762.51
2377.45
4381.43
7267.28
9215.13
11931.4
13762.4
16382.3
18036.1
20636.9
22029.8
24704.3
25689.1
28479.8
-18251.9
-13491
-12071.8
-8021.39
-6199.79
-2688.19
-711.914
2429.89
4431.22
7318.36
9264.05
11981.3
13810.3
16431.1
18083
20684.8
22075.7
24751.4
25734.1
28527.7
-18201.1
-13434.9
-12019.8
-7966.34
-6148.67
-2634.58
-661.563
2482.04
4480.78
7369.15
9312.72
12030.9
13858.1
16479.6
18129.6
20732.4
22121.3
24798.2
25778.9
28575.4
-18150.5
-13379.1
-11968.1
-7911.55
-6097.8
-2581.25
-611.459
2533.9
4530.09
7419.65
9361.15
12080.1
13905.5
16527.9
18176
20779.8
22166.6
24844.7
25823.5
28622.9
-18100.3
-13323.5
-11916.7
-7857.04
-6047.19
-2528.2
-561.603
2585.46
4579.16
7469.85
9409.34
12129.1
13952.7
16575.8
18222.2
20826.9
22211.7
24891
25867.7
28670.1
-18050.3
-13268.1
-11865.5
-7802.8
-5996.85
-2475.44
-511.997
2636.73
4627.99
7519.75
9457.3
12177.8
13999.7
16623.5
18268.1
20873.7
22256.5
24937.1
25911.7
28717
-18000.5
-13213.1
-11814.7
-7748.84
-5946.76
-2422.98
-462.642
2687.7
4676.57
7569.35
9505.01
12226.2
14046.5
16670.9
18313.8
20920.2
22301
24982.9
25955.5
28763.7
-17951.1
-13158.3
-11764.1
-7695.16
-5896.94
-2370.8
-413.538
2738.37
4724.92
7618.65
9552.49
12274.3
14093
16718
18359.2
20966.4
22345.4
25028.4
25999
28810.1
-17902
-13103.7
-11713.8
-7641.77
-5847.39
-2318.92
-364.686
2788.74
4773.01
7667.64
9599.72
12322.1
14139.2
16764.8
18404.4
21012.4
22389.4
25073.6
26042.2
28856.3
-17853.1
-13049.5
-11663.7
-7588.67
-5798.1
-2267.34
-316.087
2838.81
4820.87
7716.32
9646.71
12369.6
14185.2
16811.3
18449.3
21058.1
22433.2
25118.6
26085.1
28902.3
-17804.5
-12995.5
-11614
-7535.85
-5749.08
-2216.06
-267.742
2888.56
4868.48
7764.7
9693.46
12416.8
14231
16857.5
18493.9
21103.5
22476.8
25163.3
26127.8
28948
-17756.3
-12941.8
-11564.5
-7483.33
-5700.33
-2165.08
-219.651
2938.01
4915.84
7812.77
9739.97
12463.7
14276.5
16903.5
18538.4
21148.6
22520
25207.8
26170.2
28993.4
-17708.3
-12888.3
-11515.4
-7431.09
-5651.85
-2114.41
-171.814
2987.14
4962.96
7860.52
9786.24
12510.3
14321.8
16949.1
18582.5
21193.5
22563.1
25252
26212.4
29038.6
-17660.6
-12835.2
-11466.5
-7379.16
-5603.64
-2064.04
-124.232
3035.96
5009.84
7907.96
9832.26
12556.6
14366.8
16994.4
18626.5
21238
22605.8
25295.9
26254.2
29083.5
-17613.2
-12782.3
-11417.9
-7327.52
-5555.69
-2013.98
-76.9052
3084.47
5056.47
7955.08
9878.05
12602.5
14411.6
17039.4
18670.1
21282.3
22648.4
25339.5
26295.9
29128.2
-17566.1
-12729.8
-11369.6
-7276.17
-5508.02
-1964.24
-29.8338
3132.65
5102.85
8001.89
9923.59
12648.2
14456.2
17084.2
18713.6
21326.3
22690.6
25382.9
26337.2
29172.6
-17519.4
-12677.5
-11321.6
-7225.13
-5460.62
-1914.8
16.9819
3180.52
5148.99
8048.37
9968.89
12693.5
14500.5
17128.6
18756.7
21370
22732.6
25426
26378.3
29216.8
-17472.9
-12625.5
-11273.9
-7174.4
-5413.49
-1865.68
63.542
3228.07
5194.88
8094.53
10014
12738.5
14544.6
17172.7
18799.7
21413.4
22774.3
25468.9
26419.1
29260.7
-17426.7
-12573.7
-11226.5
-7123.96
-5366.64
-1816.88
109.846
3275.29
5240.53
8140.37
10058.8
12783.2
14588.4
17216.5
18842.3
21456.6
22815.8
25511.4
26459.6
29304.3
-17380.8
-12522.3
-11179.3
-7073.83
-5320.05
-1768.39
155.895
3322.18
5285.93
8185.88
10103.3
12827.6
14631.9
17260
18884.8
21499.4
22857
25553.8
26499.9
29347.7
-17335.2
-12471.2
-11132.5
-7024.01
-5273.74
-1720.23
201.688
3368.75
5331.08
8231.07
10147.7
12871.7
14675.3
17303.2
18926.9
21541.9
22898
25595.8
26539.9
29390.9
-17289.9
-12420.3
-11085.9
-6974.5
-5227.7
-1672.39
247.224
3414.99
5375.99
8275.92
10191.8
12915.4
14718.4
17346.1
18968.9
21584.2
22938.7
25637.5
26579.6
29433.7
-17244.9
-12369.8
-11039.7
-6925.3
-5181.93
-1624.88
292.506
3460.89
5420.66
8320.44
10235.6
12958.8
14761.2
17388.7
19010.5
21626.2
22979.1
25679
26619.1
29476.3
-17200.3
-12319.5
-10993.7
-6876.42
-5136.43
-1577.69
337.532
3506.46
5465.08
8364.63
10279.2
13001.9
14803.8
17431
19051.9
21667.8
23019.3
25720.2
26658.2
29518.7
-17155.9
-12269.5
-10948.1
-6827.84
-5091.21
-1530.83
382.303
3551.69
5509.25
8408.48
10322.6
13044.7
14846.2
17473
19093.1
21709.2
23059.2
25761.1
26697.1
29560.8
-17111.8
-12219.9
-10902.7
-6779.59
-5046.26
-1484.3
426.819
3596.59
5553.18
8452
10365.7
13087.1
14888.3
17514.6
19134
21750.3
23098.9
25801.8
26735.7
29602.6
-17068.1
-12170.5
-10857.6
-6731.65
-5001.58
-1438.11
471.08
3641.15
5596.87
8495.17
10408.6
13129.2
14930.1
17555.9
19174.7
21791.1
23138.2
25842.2
26774.1
29644.2
-17024.6
-12121.4
-10812.9
-6684.03
-4957.18
-1392.25
515.087
3685.36
5640.31
8538.01
10451.2
13171
14971.7
17596.9
19215.1
21831.5
23177.4
25882.3
26812.2
29685.5
-16981.5
-12072.7
-10768.4
-6636.73
-4913.04
-1346.72
558.841
3729.23
5683.51
8580.5
10493.6
13212.4
15013.1
17637.6
19255.2
21871.7
23216.2
25922.1
26849.9
29726.5
-16938.6
-12024.2
-10724.2
-6589.76
-4869.18
-1301.54
602.341
3772.75
5726.46
8622.65
10535.8
13253.5
15054.2
17678
19295.1
21911.6
23254.8
25961.6
26887.5
29767.2
-16896.1
-11976
-10680.3
-6543.11
-4825.59
-1256.7
645.588
3815.93
5769.17
8664.45
10577.7
13294.3
15095.1
17718.1
19334.7
21951.2
23293.1
26000.9
26924.7
29807.7
-16853.9
-11928.2
-10636.7
-6496.79
-4782.27
-1212.19
688.584
3858.75
5811.64
8705.91
10619.4
13334.7
15135.8
17757.8
19374.1
21990.5
23331.2
26039.9
26961.6
29848
-16811.9
-11880.6
-10593.4
-6450.79
-4739.21
-1168.04
731.327
3901.22
5853.87
8747.01
10660.8
13374.8
15176.1
17797.2
19413.3
22029.4
23369
26078.5
26998.3
29887.9
-16770.3
-11833.4
-10550.4
-6405.13
-4696.43
-1124.23
773.82
3943.34
5895.86
8787.76
10702
13414.5
15216.3
17836.3
19452.1
22068.1
23406.5
26116.9
27034.7
29927.6
-16729
-11786.4
-10507.7
-6359.8
-4653.92
-1080.77
816.063
3985.1
5937.61
8828.16
10743
13453.9
15256.2
17875.1
19490.8
22106.5
23443.7
26155.1
27070.8
29967.1
-16688
-11739.8
-10465.3
-6314.8
-4611.68
-1037.66
858.056
4026.51
5979.12
8868.2
10783.7
13493
15295.9
17913.5
19529.1
22144.5
23480.7
26192.9
27106.7
30006.2
-16647.3
-11693.4
-10423.2
-6270.13
-4569.7
-994.901
899.801
4067.55
6020.38
8907.89
10824.2
13531.7
15335.3
17951.6
19567.2
22182.3
23517.4
26230.5
27142.2
30045.1
-16607
-11647.4
-10381.4
-6225.81
-4527.99
-952.5
941.299
4108.23
6061.41
8947.21
10864.5
13570.1
15374.4
17989.4
19605.1
22219.7
23553.9
26267.7
27177.5
30083.7
-16566.9
-11601.7
-10339.9
-6181.82
-4486.55
-910.456
982.549
4148.55
6102.21
8986.18
10904.5
13608.1
15413.4
18026.8
19642.7
22256.9
23590.1
26304.7
27212.4
30122.1
-16527.1
-11556.3
-10298.6
-6138.17
-4445.37
-868.771
1023.55
4188.5
6142.76
9024.78
10944.2
13645.8
15452
18063.9
19680
22293.7
23626
26341.4
27247.1
30160.1
-16487.7
-11511.3
-10257.7
-6094.86
-4404.45
-827.448
1064.31
4228.08
6183.08
9063.02
10983.8
13683.1
15490.5
18100.7
19717.1
22330.2
23661.7
26377.8
27281.6
30197.9
-16448.5
-11466.5
-10217
-6051.9
-4363.8
-786.488
1104.83
4267.3
6223.17
9100.9
11023.1
13720.1
15528.7
18137.2
19754
22366.4
23697
26413.9
27315.7
30235.5
-16409.7
-11422
-10176.7
-6009.29
-4323.41
-745.894
1145.11
4306.13
6263.02
9138.4
11062.1
13756.7
15566.6
18173.3
19790.5
22402.3
23732.1
26449.8
27349.5
30272.7
-16371.1
-11377.9
-10136.6
-5967.02
-4283.28
-705.669
1185.14
4344.6
6302.64
9175.54
11101
13792.9
15604.3
18209.1
19826.9
22437.9
23767
26485.3
27383.1
30309.7
-16332.9
-11334.1
-10096.8
-5925.1
-4243.41
-665.814
1224.93
4382.69
6342.02
9212.31
11139.6
13828.8
15641.8
18244.5
19862.9
22473.1
23801.6
26520.6
27416.4
30346.4
-16295
-11290.6
-10057.4
-5883.54
-4203.79
-626.331
1264.49
4420.4
6381.18
9248.7
11177.9
13864.4
15679
18279.6
19898.8
22508.1
23835.9
26555.5
27449.3
30382.8
-16257.4
-11247.4
-10018.2
-5842.33
-4164.44
-587.224
1303.81
4457.73
6420.1
9284.73
11216.1
13899.6
15716
18314.4
19934.3
22542.7
23869.9
26590.2
27482
30419
-16220.1
-11204.6
-9979.25
-5801.48
-4125.33
-548.494
1342.89
4494.67
6458.8
9320.37
11254
13934.4
15752.7
18348.8
19969.6
22577
23903.7
26624.6
27514.4
30454.9