/*--------------------------------*- C++ -*----------------------------------*\
  =========                 |
  \\      /  F ield         | OpenFOAM: The Open Source CFD Toolbox
   \\    /   O peration     | Website:  https://openfoam.org
    \\  /    A nd           | Version:  8
     \\/     M anipulation  |
\*---------------------------------------------------------------------------*/
FoamFile
{
    version     2.0;
    format      ascii;
    class       volVectorField;
    location    "800";
    object      U;
}
// * * * * * * * * * * * * * * * * * * * * * * * * * * * * * * * * * * * * * //

dimensions      [0 1 -1 0 0 0 0];

internalField   nonuniform List<vector> 
8400
(
(-13.7423 -0.0755111 -1.44923e-15)
(-13.7454 -0.0762448 -1.4518e-15)
(-13.7481 -0.0771859 -1.45415e-15)
(-13.7509 -0.0782131 -1.46036e-15)
(-13.7537 -0.0792899 -1.46405e-15)
(-13.7565 -0.0804049 -1.46319e-15)
(-13.7594 -0.0815551 -1.46454e-15)
(-13.7622 -0.0827403 -1.4661e-15)
(-13.7649 -0.0839615 -1.46808e-15)
(-13.7677 -0.0852205 -1.47354e-15)
(-13.7704 -0.0865195 -1.476e-15)
(-13.773 -0.087861 -1.4745e-15)
(-13.7756 -0.0892478 -1.47544e-15)
(-13.7782 -0.0906833 -1.4767e-15)
(-13.7806 -0.0921711 -1.47995e-15)
(-13.783 -0.0937154 -1.48623e-15)
(-13.7853 -0.0953207 -1.4847e-15)
(-13.7874 -0.0969922 -1.4833e-15)
(-13.7894 -0.0987358 -1.4842e-15)
(-13.7912 -0.100558 -1.48539e-15)
(-13.7929 -0.102467 -1.48688e-15)
(-13.7943 -0.10447 -1.48845e-15)
(-13.7954 -0.106576 -1.49008e-15)
(-13.7963 -0.108798 -1.49168e-15)
(-13.7968 -0.111151 -1.4932e-15)
(-13.7969 -0.113653 -1.49505e-15)
(-13.7966 -0.11633 -1.49301e-15)
(-13.7956 -0.119203 -1.49322e-15)
(-13.794 -0.122287 -1.49802e-15)
(-13.7916 -0.125604 -1.50066e-15)
(-13.7882 -0.12918 -1.5031e-15)
(-13.7837 -0.133049 -1.50564e-15)
(-13.778 -0.137247 -1.50408e-15)
(-13.7709 -0.141818 -1.50492e-15)
(-13.7621 -0.146813 -1.51047e-15)
(-13.7513 -0.152293 -1.51398e-15)
(-13.7383 -0.158329 -1.51737e-15)
(-13.7227 -0.165006 -1.52077e-15)
(-13.7041 -0.172428 -1.52423e-15)
(-13.6818 -0.180724 -1.52666e-15)
(-13.6555 -0.190053 -1.52998e-15)
(-13.6243 -0.200618 -1.5337e-15)
(-13.5874 -0.212682 -1.53816e-15)
(-13.5436 -0.226601 -1.54516e-15)
(-13.4916 -0.242876 -1.55252e-15)
(-13.4298 -0.262225 -1.55932e-15)
(-13.3567 -0.285621 -1.56333e-15)
(-13.2685 -0.314402 -1.57202e-15)
(-13.1558 -0.351124 -1.59045e-15)
(-13.0068 -0.4017 -1.6059e-15)
(-15.7303 0.078916 -8.08271e-16)
(-15.7335 0.0799623 -8.08422e-16)
(-15.7359 0.0809933 -8.08682e-16)
(-15.7382 0.0820363 -8.1224e-16)
(-15.7405 0.0830818 -8.14622e-16)
(-15.7427 0.0841338 -8.13596e-16)
(-15.745 0.0851966 -8.12691e-16)
(-15.7473 0.0862736 -8.11472e-16)
(-15.7495 0.0873668 -8.12978e-16)
(-15.7518 0.088478 -8.17609e-16)
(-15.754 0.0896082 -8.1916e-16)
(-15.7561 0.0907582 -8.16966e-16)
(-15.7582 0.0919286 -8.14268e-16)
(-15.7602 0.0931196 -8.09737e-16)
(-15.7622 0.0943315 -8.13225e-16)
(-15.7641 0.0955641 -8.29742e-16)
(-15.7659 0.0968171 -8.31343e-16)
(-15.7676 0.0980899 -8.28168e-16)
(-15.7691 0.0993816 -8.25778e-16)
(-15.7705 0.100691 -8.23548e-16)
(-15.7718 0.102015 -8.21364e-16)
(-15.7728 0.103353 -8.19171e-16)
(-15.7736 0.104702 -8.16922e-16)
(-15.7741 0.106056 -8.14606e-16)
(-15.7744 0.107405 -8.12272e-16)
(-15.7742 0.108735 -8.10351e-16)
(-15.7737 0.110035 -8.05529e-16)
(-15.7727 0.111308 -8.01269e-16)
(-15.7712 0.112549 -7.99705e-16)
(-15.7691 0.113747 -7.97367e-16)
(-15.7663 0.11489 -7.94649e-16)
(-15.7627 0.115963 -7.9174e-16)
(-15.7583 0.116945 -7.86292e-16)
(-15.7528 0.117813 -7.81479e-16)
(-15.746 0.11854 -7.79155e-16)
(-15.7379 0.119091 -7.75944e-16)
(-15.7282 0.119425 -7.72314e-16)
(-15.7165 0.119493 -7.68478e-16)
(-15.7027 0.119233 -7.62127e-16)
(-15.6865 0.118567 -7.57315e-16)
(-15.6673 0.117392 -7.54594e-16)
(-15.6448 0.115574 -7.47349e-16)
(-15.6184 0.112931 -7.40548e-16)
(-15.5875 0.109202 -7.36182e-16)
(-15.5513 0.103976 -7.28362e-16)
(-15.5092 0.0966239 -7.2172e-16)
(-15.4605 0.0863066 -7.14257e-16)
(-15.404 0.0719005 -7.04591e-16)
(-15.3357 0.0508051 -6.974e-16)
(-15.251 0.0159644 -6.90417e-16)
(-16.1251 -0.0664193 -1.14741e-15)
(-16.1234 -0.066828 -1.14824e-15)
(-16.1225 -0.067537 -1.14902e-15)
(-16.1216 -0.0683678 -1.15155e-15)
(-16.1208 -0.069269 -1.15328e-15)
(-16.12 -0.0702198 -1.15263e-15)
(-16.1192 -0.0712118 -1.15233e-15)
(-16.1184 -0.072242 -1.15226e-15)
(-16.1175 -0.0733098 -1.15234e-15)
(-16.1166 -0.074416 -1.1541e-15)
(-16.1157 -0.0755622 -1.15499e-15)
(-16.1147 -0.0767509 -1.15344e-15)
(-16.1137 -0.0779853 -1.15197e-15)
(-16.1126 -0.0792693 -1.15022e-15)
(-16.1114 -0.0806072 -1.14845e-15)
(-16.1102 -0.0820043 -1.14944e-15)
(-16.1088 -0.0834667 -1.14975e-15)
(-16.1074 -0.0850011 -1.14845e-15)
(-16.1058 -0.0866154 -1.14718e-15)
(-16.1041 -0.0883188 -1.14599e-15)
(-16.1022 -0.0901221 -1.14484e-15)
(-16.1001 -0.0920382 -1.14366e-15)
(-16.0978 -0.0940805 -1.14241e-15)
(-16.0952 -0.0962701 -1.14113e-15)
(-16.0923 -0.0986227 -1.13983e-15)
(-16.0891 -0.101158 -1.13861e-15)
(-16.0854 -0.103903 -1.13545e-15)
(-16.0813 -0.106892 -1.13287e-15)
(-16.0766 -0.110161 -1.13272e-15)
(-16.0713 -0.113748 -1.13227e-15)
(-16.0653 -0.117696 -1.1317e-15)
(-16.0585 -0.122056 -1.13125e-15)
(-16.0507 -0.126886 -1.12895e-15)
(-16.0418 -0.132253 -1.12734e-15)
(-16.0316 -0.138236 -1.12835e-15)
(-16.0199 -0.144923 -1.12932e-15)
(-16.0066 -0.152418 -1.13047e-15)
(-15.9912 -0.160842 -1.13196e-15)
(-15.9736 -0.170336 -1.13391e-15)
(-15.9532 -0.181066 -1.13553e-15)
(-15.9299 -0.193227 -1.13855e-15)
(-15.9029 -0.207054 -1.14187e-15)
(-15.8719 -0.222826 -1.14657e-15)
(-15.8361 -0.240892 -1.15497e-15)
(-15.7948 -0.261711 -1.16454e-15)
(-15.7473 -0.285877 -1.17497e-15)
(-15.6929 -0.314072 -1.18617e-15)
(-15.6306 -0.347043 -1.20164e-15)
(-15.5587 -0.38626 -1.22457e-15)
(-15.4755 -0.435445 -1.25171e-15)
(-16.5747 0.0696525 1.69742e-16)
(-16.5759 0.0702898 1.70259e-16)
(-16.5759 0.0710373 1.70771e-16)
(-16.5757 0.0718145 1.69569e-16)
(-16.5754 0.0725885 1.68925e-16)
(-16.5751 0.073352 1.70466e-16)
(-16.5748 0.0741042 1.71668e-16)
(-16.5744 0.0748451 1.726e-16)
(-16.574 0.0755744 1.73351e-16)
(-16.5736 0.0762912 1.72567e-16)
(-16.5732 0.0769937 1.72567e-16)
(-16.5728 0.0776794 1.74794e-16)
(-16.5723 0.0783451 1.76879e-16)
(-16.5718 0.0789866 1.78484e-16)
(-16.5712 0.079599 1.79327e-16)
(-16.5706 0.0801763 1.79505e-16)
(-16.5699 0.0807116 1.80111e-16)
(-16.5691 0.0811968 1.82525e-16)
(-16.5682 0.0816222 1.84912e-16)
(-16.5672 0.0819759 1.87111e-16)
(-16.5661 0.0822434 1.89203e-16)
(-16.5648 0.0824113 1.91228e-16)
(-16.5633 0.0824599 1.9321e-16)
(-16.5617 0.0823754 1.95192e-16)
(-16.5598 0.0821372 1.97179e-16)
(-16.5578 0.0817214 1.99064e-16)
(-16.5554 0.0811011 2.02766e-16)
(-16.5527 0.0802431 2.06006e-16)
(-16.5496 0.0791078 2.07027e-16)
(-16.5461 0.0776495 2.08336e-16)
(-16.5421 0.0758154 2.09867e-16)
(-16.5374 0.0735442 2.11412e-16)
(-16.5321 0.0707642 2.14843e-16)
(-16.526 0.0673917 2.17809e-16)
(-16.519 0.0633293 2.185e-16)
(-16.511 0.0584623 2.19411e-16)
(-16.5017 0.0526565 2.20427e-16)
(-16.491 0.0457531 2.21268e-16)
(-16.4787 0.0375644 2.23754e-16)
(-16.4645 0.0278664 2.24615e-16)
(-16.4481 0.0163908 2.23229e-16)
(-16.4293 0.00281399 2.24861e-16)
(-16.4076 -0.0132562 2.2571e-16)
(-16.3828 -0.032304 2.2359e-16)
(-16.3542 -0.0549367 2.22836e-16)
(-16.3217 -0.0819022 2.19788e-16)
(-16.2848 -0.114065 2.1581e-16)
(-16.2431 -0.152423 2.1194e-16)
(-16.1959 -0.198373 2.04175e-16)
(-16.143 -0.254067 1.95318e-16)
(-16.4263 -0.0554864 5.20087e-16)
(-16.4231 -0.0559034 5.214e-16)
(-16.4217 -0.0564391 5.22686e-16)
(-16.4205 -0.0570324 5.22182e-16)
(-16.4194 -0.0576621 5.22169e-16)
(-16.4183 -0.0583209 5.24314e-16)
(-16.4172 -0.0590061 5.26076e-16)
(-16.416 -0.0597168 5.27472e-16)
(-16.4149 -0.0604528 5.28668e-16)
(-16.4137 -0.0612147 5.28005e-16)
(-16.4125 -0.062004 5.28023e-16)
(-16.4112 -0.0628225 5.30408e-16)
(-16.4099 -0.063673 5.32543e-16)
(-16.4086 -0.0645586 5.3462e-16)
(-16.4072 -0.0654835 5.36746e-16)
(-16.4058 -0.0664527 5.36768e-16)
(-16.4042 -0.067472 5.36982e-16)
(-16.4026 -0.0685482 5.39627e-16)
(-16.401 -0.0696908 5.41845e-16)
(-16.3992 -0.0709102 5.43847e-16)
(-16.3972 -0.072216 5.45735e-16)
(-16.3952 -0.0736253 5.47579e-16)
(-16.3929 -0.0751565 5.49437e-16)
(-16.3905 -0.0768314 5.51335e-16)
(-16.3878 -0.0786757 5.533e-16)
(-16.3849 -0.0807175 5.55239e-16)
(-16.3816 -0.0829891 5.59108e-16)
(-16.378 -0.0855281 5.62608e-16)
(-16.374 -0.0883778 5.63985e-16)
(-16.3695 -0.091588 5.65807e-16)
(-16.3644 -0.0952164 5.68018e-16)
(-16.3588 -0.09933 5.7044e-16)
(-16.3523 -0.104006 5.74959e-16)
(-16.3451 -0.109335 5.79296e-16)
(-16.3369 -0.115421 5.81639e-16)
(-16.3275 -0.122386 5.84533e-16)
(-16.3169 -0.13037 5.87941e-16)
(-16.3048 -0.139539 5.91813e-16)
(-16.2909 -0.150085 5.96226e-16)
(-16.2752 -0.162234 6.02138e-16)
(-16.2571 -0.176255 6.07936e-16)
(-16.2366 -0.192463 6.14991e-16)
(-16.2131 -0.211238 6.22574e-16)
(-16.1864 -0.23304 6.28644e-16)
(-16.1561 -0.258434 6.36103e-16)
(-16.1217 -0.288104 6.45783e-16)
(-16.0831 -0.32286 6.58412e-16)
(-16.0399 -0.363688 6.71439e-16)
(-15.9916 -0.411908 6.82421e-16)
(-15.9377 -0.469268 6.96121e-16)
(-16.5737 0.0536524 5.72156e-17)
(-16.5752 0.0539953 5.74733e-17)
(-16.5751 0.0544145 5.77673e-17)
(-16.5747 0.0548452 5.62704e-17)
(-16.5742 0.0552613 5.52634e-17)
(-16.5736 0.0556536 5.64827e-17)
(-16.573 0.0560176 5.73806e-17)
(-16.5724 0.0563501 5.79887e-17)
(-16.5718 0.0566478 5.85233e-17)
(-16.5711 0.0569068 5.65785e-17)
(-16.5705 0.0571228 5.54607e-17)
(-16.5698 0.05729 5.71607e-17)
(-16.5691 0.0574022 5.83156e-17)
(-16.5684 0.0574518 5.93267e-17)
(-16.5676 0.0574297 6.04942e-17)
(-16.5668 0.0573255 5.95195e-17)
(-16.5659 0.0571274 5.91172e-17)
(-16.565 0.0568228 6.07838e-17)
(-16.5639 0.0563974 6.21086e-17)
(-16.5629 0.0558358 6.3221e-17)
(-16.5617 0.0551189 6.41895e-17)
(-16.5604 0.0542259 6.50956e-17)
(-16.559 0.0531335 6.59548e-17)
(-16.5574 0.0518146 6.68089e-17)
(-16.5557 0.0502366 6.76527e-17)
(-16.5538 0.0483624 6.84082e-17)
(-16.5517 0.0461489 7.09673e-17)
(-16.5493 0.0435466 7.30339e-17)
(-16.5466 0.0404985 7.28772e-17)
(-16.5436 0.0369392 7.30681e-17)
(-16.5401 0.0327938 7.34978e-17)
(-16.5362 0.027976 7.39927e-17)
(-16.5318 0.0223867 7.64198e-17)
(-16.5267 0.0159122 7.84614e-17)
(-16.521 0.00842146 7.82763e-17)
(-16.5143 -0.000235889 7.83992e-17)
(-16.5068 -0.0102326 7.87165e-17)
(-16.4981 -0.0217673 7.90057e-17)
(-16.4882 -0.0350677 8.111e-17)
(-16.4768 -0.0503953 8.17245e-17)
(-16.4637 -0.0680496 8.02831e-17)
(-16.4488 -0.0883732 8.22101e-17)
(-16.4318 -0.111758 8.36084e-17)
(-16.4125 -0.138651 8.23505e-17)
(-16.3906 -0.169561 8.28731e-17)
(-16.3659 -0.205058 8.13776e-17)
(-16.3384 -0.245756 7.95741e-17)
(-16.3081 -0.292326 7.87834e-17)
(-16.2751 -0.345537 7.50264e-17)
(-16.2391 -0.406304 6.91049e-17)
(-16.4901 -0.0402859 1.21239e-16)
(-16.4866 -0.0405387 1.21471e-16)
(-16.4852 -0.0408436 1.2173e-16)
(-16.4841 -0.0411742 1.20162e-16)
(-16.4832 -0.0415221 1.18941e-16)
(-16.4822 -0.0418857 1.19922e-16)
(-16.4813 -0.0422648 1.20616e-16)
(-16.4803 -0.0426597 1.21064e-16)
(-16.4793 -0.0430714 1.21399e-16)
(-16.4784 -0.043501 1.19638e-16)
(-16.4773 -0.0439504 1.18149e-16)
(-16.4763 -0.0444219 1.18912e-16)
(-16.4753 -0.0449187 1.19573e-16)
(-16.4742 -0.0454444 1.20077e-16)
(-16.4731 -0.0460051 1.20449e-16)
(-16.4719 -0.0466062 1.19152e-16)
(-16.4707 -0.0472555 1.18198e-16)
(-16.4694 -0.047964 1.1942e-16)
(-16.4681 -0.0487433 1.20355e-16)
(-16.4667 -0.049608 1.21052e-16)
(-16.4653 -0.0505748 1.21628e-16)
(-16.4637 -0.0516633 1.2213e-16)
(-16.462 -0.0528962 1.22618e-16)
(-16.4602 -0.0542995 1.23109e-16)
(-16.4582 -0.0559037 1.23632e-16)
(-16.4561 -0.0577445 1.24097e-16)
(-16.4537 -0.0598633 1.26438e-16)
(-16.4511 -0.0623089 1.28341e-16)
(-16.4483 -0.0651377 1.28094e-16)
(-16.4451 -0.0684157 1.28294e-16)
(-16.4416 -0.0722194 1.28867e-16)
(-16.4376 -0.0766381 1.2965e-16)
(-16.4332 -0.0817752 1.32578e-16)
(-16.4282 -0.0877512 1.35304e-16)
(-16.4226 -0.0947056 1.3603e-16)
(-16.4162 -0.1028 1.37376e-16)
(-16.409 -0.112223 1.3929e-16)
(-16.4008 -0.12319 1.417e-16)
(-16.3914 -0.135952 1.44703e-16)
(-16.3808 -0.150798 1.48379e-16)
(-16.3687 -0.168061 1.53371e-16)
(-16.3549 -0.188121 1.60448e-16)
(-16.3393 -0.211414 1.66863e-16)
(-16.3215 -0.238434 1.72952e-16)
(-16.3014 -0.269736 1.80235e-16)
(-16.2787 -0.305934 1.87849e-16)
(-16.2534 -0.347687 1.99328e-16)
(-16.2254 -0.395676 2.1293e-16)
(-16.1945 -0.450599 2.25958e-16)
(-16.1604 -0.513188 2.41603e-16)
(-16.5473 0.0341415 -1.9552e-16)
(-16.549 0.034283 -1.95515e-16)
(-16.5489 0.0344412 -1.95407e-16)
(-16.5485 0.0345868 -1.97219e-16)
(-16.5479 0.0347074 -1.9868e-16)
(-16.5472 0.034797 -1.97878e-16)
(-16.5466 0.0348514 -1.9731e-16)
(-16.5459 0.0348666 -1.9695e-16)
(-16.5452 0.0348383 -1.96713e-16)
(-16.5445 0.0347616 -1.98527e-16)
(-16.5438 0.0346309 -2.00208e-16)
(-16.5431 0.0344399 -1.99596e-16)
(-16.5424 0.0341813 -1.99257e-16)
(-16.5416 0.0338462 -1.99528e-16)
(-16.5408 0.0334259 -1.99592e-16)
(-16.54 0.0329097 -2.01446e-16)
(-16.5391 0.032285 -2.0294e-16)
(-16.5382 0.0315382 -2.02266e-16)
(-16.5373 0.0306535 -2.02033e-16)
(-16.5363 0.0296125 -2.02118e-16)
(-16.5352 0.0283938 -2.02442e-16)
(-16.5341 0.0269729 -2.02943e-16)
(-16.5329 0.0253215 -2.03598e-16)
(-16.5316 0.0234072 -2.04383e-16)
(-16.5302 0.0211927 -2.05296e-16)
(-16.5287 0.0186355 -2.06437e-16)
(-16.527 0.0156863 -2.05897e-16)
(-16.5252 0.012289 -2.06001e-16)
(-16.5232 0.00837911 -2.08491e-16)
(-16.5209 0.00388253 -2.10821e-16)
(-16.5185 -0.00128557 -2.1308e-16)
(-16.5157 -0.00722251 -2.15492e-16)
(-16.5126 -0.0140399 -2.16184e-16)
(-16.509 -0.0218656 -2.17554e-16)
(-16.5051 -0.0308463 -2.21438e-16)
(-16.5006 -0.0411496 -2.2532e-16)
(-16.4955 -0.0529672 -2.29349e-16)
(-16.4898 -0.0665179 -2.33699e-16)
(-16.4832 -0.0820509 -2.38591e-16)
(-16.4758 -0.0998487 -2.4125e-16)
(-16.4673 -0.120231 -2.46692e-16)
(-16.4577 -0.143557 -2.54168e-16)
(-16.4468 -0.170229 -2.59292e-16)
(-16.4345 -0.200688 -2.6923e-16)
(-16.4206 -0.235421 -2.81972e-16)
(-16.4051 -0.274944 -2.93949e-16)
(-16.3879 -0.319792 -3.06428e-16)
(-16.3689 -0.370487 -3.205e-16)
(-16.3482 -0.427514 -3.40846e-16)
(-16.3256 -0.491347 -3.66264e-16)
(-16.5132 -0.0228138 2.94394e-16)
(-16.5095 -0.0229129 2.96169e-16)
(-16.5082 -0.0230283 2.98042e-16)
(-16.5073 -0.0231585 2.97878e-16)
(-16.5064 -0.0233036 2.98059e-16)
(-16.5056 -0.0234645 3.00602e-16)
(-16.5048 -0.0236425 3.02919e-16)
(-16.504 -0.0238393 3.05048e-16)
(-16.5032 -0.0240569 3.07153e-16)
(-16.5024 -0.024298 3.07352e-16)
(-16.5016 -0.0245655 3.07782e-16)
(-16.5007 -0.0248641 3.10428e-16)
(-16.4999 -0.025199 3.12664e-16)
(-16.499 -0.0255764 3.146e-16)
(-16.4981 -0.0260041 3.16698e-16)
(-16.4973 -0.0264911 3.16855e-16)
(-16.4963 -0.0270482 3.17413e-16)
(-16.4954 -0.0276881 3.20147e-16)
(-16.4945 -0.0284251 3.22497e-16)
(-16.4935 -0.0292762 3.24562e-16)
(-16.4925 -0.0302613 3.2644e-16)
(-16.4914 -0.0314034 3.28185e-16)
(-16.4903 -0.0327293 3.29846e-16)
(-16.4892 -0.0342704 3.31439e-16)
(-16.4879 -0.0360631 3.32996e-16)
(-16.4866 -0.0381497 3.34412e-16)
(-16.4852 -0.0405796 3.37643e-16)
(-16.4838 -0.0434102 3.40328e-16)
(-16.4822 -0.046708 3.40759e-16)
(-16.4804 -0.0505504 3.4155e-16)
(-16.4785 -0.055027 3.42621e-16)
(-16.4764 -0.0602417 3.43788e-16)
(-16.4741 -0.0663146 3.46984e-16)
(-16.4715 -0.0733845 3.49829e-16)
(-16.4687 -0.0816116 3.50542e-16)
(-16.4654 -0.0911803 3.51765e-16)
(-16.4618 -0.102302 3.53405e-16)
(-16.4577 -0.115221 3.55279e-16)
(-16.4531 -0.130211 3.59314e-16)
(-16.4479 -0.147588 3.62341e-16)
(-16.4419 -0.167706 3.63825e-16)
(-16.4352 -0.190961 3.69191e-16)
(-16.4275 -0.217792 3.74946e-16)
(-16.4187 -0.24868 3.79124e-16)
(-16.4088 -0.284141 3.86298e-16)
(-16.3976 -0.324718 3.92919e-16)
(-16.385 -0.37096 4.00871e-16)
(-16.371 -0.423388 4.12174e-16)
(-16.3554 -0.482468 4.23468e-16)
(-16.3381 -0.548641 4.38621e-16)
(-16.5217 0.013413 4.5074e-17)
(-16.5235 0.0134157 4.62651e-17)
(-16.5234 0.0133978 4.75626e-17)
(-16.5229 0.0133563 4.69445e-17)
(-16.5223 0.0132895 4.67612e-17)
(-16.5217 0.0131955 4.90149e-17)
(-16.521 0.0130717 5.10241e-17)
(-16.5203 0.0129153 5.28739e-17)
(-16.5196 0.0127228 5.48203e-17)
(-16.5189 0.0124901 5.48559e-17)
(-16.5182 0.0122125 5.51838e-17)
(-16.5175 0.0118844 5.76409e-17)
(-16.5168 0.0114994 5.97648e-17)
(-16.516 0.0110501 6.16607e-17)
(-16.5153 0.0105279 6.35115e-17)
(-16.5146 0.00992239 6.3315e-17)
(-16.5138 0.0092218 6.37385e-17)
(-16.513 0.00841227 6.63796e-17)
(-16.5122 0.00747779 6.84728e-17)
(-16.5114 0.00639978 7.02467e-17)
(-16.5106 0.00515671 7.17842e-17)
(-16.5097 0.00372371 7.31439e-17)
(-16.5088 0.00207202 7.43335e-17)
(-16.5079 0.000168436 7.53897e-17)
(-16.507 -0.0020254 7.62766e-17)
(-16.506 -0.00455379 7.69244e-17)
(-16.505 -0.00746788 7.92085e-17)
(-16.5039 -0.0108267 8.08149e-17)
(-16.5028 -0.0146983 7.99679e-17)
(-16.5016 -0.0191614 7.93125e-17)
(-16.5003 -0.0243064 7.8665e-17)
(-16.4989 -0.0302377 7.78577e-17)
(-16.4975 -0.0370756 7.87229e-17)
(-16.4959 -0.0449583 7.88875e-17)
(-16.4942 -0.0540447 7.64621e-17)
(-16.4923 -0.0645171 7.40553e-17)
(-16.4903 -0.0765842 7.14677e-17)
(-16.4881 -0.0904843 6.85277e-17)
(-16.4856 -0.106488 6.51907e-17)
(-16.4828 -0.124903 6.23362e-17)
(-16.4797 -0.146074 5.80514e-17)
(-16.4762 -0.170387 5.36012e-17)
(-16.4723 -0.198265 4.79861e-17)
(-16.4678 -0.230173 3.86585e-17)
(-16.4626 -0.266604 2.82506e-17)
(-16.4567 -0.30807 1.69983e-17)
(-16.45 -0.355081 4.99985e-18)
(-16.4423 -0.408107 -1.11586e-17)
(-16.4335 -0.467542 -3.53737e-17)
(-16.4231 -0.533724 -6.45434e-17)
(-16.5257 -0.00486817 3.97307e-16)
(-16.5222 -0.00484265 3.99801e-16)
(-16.521 -0.00482028 4.02321e-16)
(-16.5201 -0.00481345 4.02932e-16)
(-16.5194 -0.00482722 4.04047e-16)
(-16.5187 -0.00486437 4.07543e-16)
(-16.518 -0.00492747 4.10887e-16)
(-16.5173 -0.00501946 4.14125e-16)
(-16.5166 -0.00514389 4.17432e-16)
(-16.516 -0.00530498 4.18789e-16)
(-16.5153 -0.0055078 4.20606e-16)
(-16.5146 -0.0057583 4.2474e-16)
(-16.5139 -0.00606339 4.28573e-16)
(-16.5133 -0.00643109 4.3228e-16)
(-16.5126 -0.00687067 4.36003e-16)
(-16.512 -0.00739287 4.37886e-16)
(-16.5113 -0.00801009 4.40326e-16)
(-16.5107 -0.00873665 4.45052e-16)
(-16.5101 -0.00958906 4.49426e-16)
(-16.5095 -0.0105864 4.53604e-16)
(-16.5089 -0.0117506 4.57692e-16)
(-16.5083 -0.0131072 4.61727e-16)
(-16.5078 -0.0146854 4.65788e-16)
(-16.5073 -0.0165191 4.69855e-16)
(-16.5068 -0.0186473 4.7401e-16)
(-16.5063 -0.021115 4.78098e-16)
(-16.5058 -0.0239745 4.84158e-16)
(-16.5054 -0.0272856 4.89754e-16)
(-16.505 -0.0311178 4.93274e-16)
(-16.5047 -0.035551 4.97271e-16)
(-16.5044 -0.0406777 5.01787e-16)
(-16.5042 -0.0466043 5.06553e-16)
(-16.504 -0.0534537 5.13644e-16)
(-16.5039 -0.0613675 5.20626e-16)
(-16.5039 -0.0705086 5.25898e-16)
(-16.5039 -0.0810645 5.32053e-16)
(-16.5041 -0.0932503 5.39181e-16)
(-16.5043 -0.107313 5.47097e-16)
(-16.5046 -0.123533 5.58005e-16)
(-16.505 -0.142231 5.68675e-16)
(-16.5055 -0.163768 5.78734e-16)
(-16.506 -0.18855 5.94131e-16)
(-16.5067 -0.217028 6.11429e-16)
(-16.5073 -0.249696 6.28832e-16)
(-16.508 -0.287085 6.51677e-16)
(-16.5085 -0.329754 6.76847e-16)
(-16.5089 -0.378269 7.07149e-16)
(-16.509 -0.433165 7.45422e-16)
(-16.5086 -0.494914 7.89211e-16)
(-16.5074 -0.563925 8.41032e-16)
(-16.4908 -0.0069518 -4.73656e-16)
(-16.4925 -0.00706801 -4.74632e-16)
(-16.4923 -0.00722729 -4.75465e-16)
(-16.4918 -0.00741372 -4.78179e-16)
(-16.4912 -0.00762014 -4.80398e-16)
(-16.4905 -0.00784498 -4.80203e-16)
(-16.4898 -0.00808875 -4.80227e-16)
(-16.4892 -0.00835297 -4.80392e-16)
(-16.4885 -0.00863993 -4.80511e-16)
(-16.4878 -0.00895257 -4.825e-16)
(-16.4871 -0.00929453 -4.83938e-16)
(-16.4865 -0.00967022 -4.83097e-16)
(-16.4858 -0.0100849 -4.82558e-16)
(-16.4851 -0.0105448 -4.82216e-16)
(-16.4845 -0.0110573 -4.81861e-16)
(-16.4838 -0.0116313 -4.83434e-16)
(-16.4832 -0.012277 -4.84518e-16)
(-16.4826 -0.0130066 -4.83383e-16)
(-16.482 -0.0138343 -4.82653e-16)
(-16.4814 -0.0147769 -4.82221e-16)
(-16.4809 -0.0158537 -4.82033e-16)
(-16.4803 -0.0170878 -4.82022e-16)
(-16.4798 -0.0185057 -4.82232e-16)
(-16.4794 -0.0201386 -4.8261e-16)
(-16.479 -0.0220227 -4.83266e-16)
(-16.4786 -0.0242004 -4.84244e-16)
(-16.4783 -0.0267211 -4.83755e-16)
(-16.4781 -0.0296419 -4.84103e-16)
(-16.478 -0.0330298 -4.8723e-16)
(-16.478 -0.0369622 -4.90423e-16)
(-16.478 -0.0415293 -4.94047e-16)
(-16.4782 -0.0468357 -4.98229e-16)
(-16.4786 -0.0530026 -5.01316e-16)
(-16.4791 -0.0601705 -5.05713e-16)
(-16.4798 -0.0685019 -5.13524e-16)
(-16.4808 -0.0781842 -5.22105e-16)
(-16.482 -0.0894337 -5.31925e-16)
(-16.4834 -0.102498 -5.43224e-16)
(-16.4852 -0.117663 -5.56359e-16)
(-16.4873 -0.135251 -5.70572e-16)
(-16.4898 -0.15563 -5.88142e-16)
(-16.4927 -0.179213 -6.07352e-16)
(-16.4959 -0.206462 -6.30794e-16)
(-16.4996 -0.23788 -6.61584e-16)
(-16.5035 -0.274016 -6.96574e-16)
(-16.5076 -0.315446 -7.36721e-16)
(-16.5118 -0.362755 -7.82738e-16)
(-16.5158 -0.416506 -8.39364e-16)
(-16.5191 -0.47719 -9.11462e-16)
(-16.5214 -0.545192 -9.98072e-16)
(-16.5365 0.0122544 1.02938e-15)
(-16.5333 0.0124061 1.0325e-15)
(-16.5322 0.0125704 1.03561e-15)
(-16.5315 0.0127227 1.03688e-15)
(-16.5309 0.0128529 1.03875e-15)
(-16.5303 0.0129567 1.04303e-15)
(-16.5297 0.0130308 1.04711e-15)
(-16.5291 0.0130714 1.05107e-15)
(-16.5286 0.0130742 1.05516e-15)
(-16.528 0.0130341 1.05745e-15)
(-16.5275 0.0129454 1.06041e-15)
(-16.527 0.0128014 1.06572e-15)
(-16.5265 0.0125945 1.07083e-15)
(-16.526 0.012316 1.07588e-15)
(-16.5255 0.0119558 1.08108e-15)
(-16.5251 0.0115027 1.08455e-15)
(-16.5247 0.0109436 1.08868e-15)
(-16.5244 0.0102636 1.09529e-15)
(-16.524 0.00944563 1.10176e-15)
(-16.5238 0.00847017 1.10822e-15)
(-16.5236 0.00731485 1.1148e-15)
(-16.5235 0.005954 1.12155e-15)
(-16.5234 0.00435822 1.12856e-15)
(-16.5235 0.00249376 1.13582e-15)
(-16.5236 0.000321925 1.14342e-15)
(-16.5239 -0.00220172 1.15119e-15)
(-16.5243 -0.0051282 1.16127e-15)
(-16.5249 -0.00851614 1.17113e-15)
(-16.5257 -0.0124329 1.17923e-15)
(-16.5267 -0.016956 1.18813e-15)
(-16.528 -0.0221744 1.19791e-15)
(-16.5296 -0.0281908 1.20828e-15)
(-16.5315 -0.0351231 1.22142e-15)
(-16.5338 -0.0431072 1.23486e-15)
(-16.5365 -0.0522996 1.24707e-15)
(-16.5398 -0.0628804 1.26069e-15)
(-16.5436 -0.0750571 1.2759e-15)
(-16.5482 -0.0890685 1.29255e-15)
(-16.5534 -0.105189 1.31298e-15)
(-16.5595 -0.123735 1.33404e-15)
(-16.5666 -0.145066 1.35562e-15)
(-16.5747 -0.169595 1.38376e-15)
(-16.584 -0.197792 1.41539e-15)
(-16.5944 -0.230185 1.44903e-15)
(-16.6062 -0.267361 1.49055e-15)
(-16.6192 -0.309965 1.53703e-15)
(-16.6334 -0.358684 1.59214e-15)
(-16.6486 -0.414231 1.6597e-15)
(-16.6646 -0.477285 1.73791e-15)
(-16.681 -0.548423 1.83303e-15)
(-16.4411 -0.0256623 -6.69983e-16)
(-16.4425 -0.025929 -6.72824e-16)
(-16.4422 -0.0262681 -6.75601e-16)
(-16.4416 -0.0266421 -6.80211e-16)
(-16.441 -0.0270344 -6.84196e-16)
(-16.4403 -0.0274403 -6.85733e-16)
(-16.4395 -0.0278593 -6.87593e-16)
(-16.4388 -0.0282921 -6.89554e-16)
(-16.4381 -0.0287409 -6.91485e-16)
(-16.4374 -0.0292079 -6.95183e-16)
(-16.4368 -0.0296963 -6.98271e-16)
(-16.4361 -0.0302095 -6.99015e-16)
(-16.4355 -0.0307519 -7.00024e-16)
(-16.4349 -0.0313286 -7.01179e-16)
(-16.4343 -0.0319455 -7.02254e-16)
(-16.4337 -0.0326099 -7.05213e-16)
(-16.4332 -0.03333 -7.07572e-16)
(-16.4328 -0.0341158 -7.07615e-16)
(-16.4323 -0.0349791 -7.07975e-16)
(-16.432 -0.0359336 -7.08573e-16)
(-16.4317 -0.0369955 -7.09301e-16)
(-16.4315 -0.038184 -7.10152e-16)
(-16.4314 -0.0395213 -7.1112e-16)
(-16.4314 -0.0410337 -7.12212e-16)
(-16.4315 -0.0427518 -7.13504e-16)
(-16.4318 -0.0447117 -7.15105e-16)
(-16.4322 -0.0469554 -7.15138e-16)
(-16.4328 -0.0495321 -7.16055e-16)
(-16.4336 -0.0524993 -7.19789e-16)
(-16.4347 -0.0559245 -7.23645e-16)
(-16.4361 -0.059886 -7.2799e-16)
(-16.4378 -0.0644759 -7.33065e-16)
(-16.4399 -0.0698014 -7.37199e-16)
(-16.4425 -0.0759881 -7.42921e-16)
(-16.4455 -0.0831824 -7.52365e-16)
(-16.4491 -0.0915558 -7.63014e-16)
(-16.4534 -0.101309 -7.75431e-16)
(-16.4585 -0.112675 -7.90016e-16)
(-16.4644 -0.125928 -8.07283e-16)
(-16.4712 -0.141389 -8.26654e-16)
(-16.4791 -0.159429 -8.5068e-16)
(-16.4882 -0.180481 -8.78506e-16)
(-16.4986 -0.20505 -9.12109e-16)
(-16.5104 -0.233716 -9.54624e-16)
(-16.5235 -0.267137 -1.00464e-15)
(-16.538 -0.306051 -1.06313e-15)
(-16.5536 -0.351263 -1.13172e-15)
(-16.5702 -0.403642 -1.21591e-15)
(-16.587 -0.464064 -1.32236e-15)
(-16.6031 -0.533255 -1.45148e-15)
(-16.5519 0.0271841 1.7346e-15)
(-16.5493 0.0274837 1.73967e-15)
(-16.5486 0.0278333 1.74473e-15)
(-16.548 0.0281917 1.74788e-15)
(-16.5476 0.0285422 1.7517e-15)
(-16.5472 0.028878 1.75786e-15)
(-16.5468 0.0291947 1.76378e-15)
(-16.5464 0.0294883 1.76959e-15)
(-16.5461 0.0297543 1.77553e-15)
(-16.5457 0.0299881 1.77977e-15)
(-16.5454 0.0301843 1.78476e-15)
(-16.5451 0.0303371 1.79224e-15)
(-16.5449 0.0304397 1.79954e-15)
(-16.5446 0.0304845 1.80689e-15)
(-16.5444 0.0304628 1.81441e-15)
(-16.5443 0.0303646 1.82023e-15)
(-16.5442 0.0301786 1.82704e-15)
(-16.5442 0.0298917 1.83664e-15)
(-16.5442 0.0294889 1.84593e-15)
(-16.5444 0.0289532 1.85538e-15)
(-16.5446 0.0282647 1.86501e-15)
(-16.545 0.0274008 1.875e-15)
(-16.5455 0.0263355 1.88535e-15)
(-16.5461 0.0250389 1.89617e-15)
(-16.547 0.0234764 1.9075e-15)
(-16.548 0.0216084 1.91928e-15)
(-16.5493 0.0193891 1.93357e-15)
(-16.5509 0.0167658 1.94796e-15)
(-16.5528 0.0136777 1.96082e-15)
(-16.5551 0.0100548 1.97487e-15)
(-16.5579 0.00581584 1.99014e-15)
(-16.5611 0.000867332 2.00652e-15)
(-16.565 -0.00489906 2.02625e-15)
(-16.5696 -0.0116087 2.04701e-15)
(-16.575 -0.0194068 2.06728e-15)
(-16.5813 -0.0284619 2.09006e-15)
(-16.5886 -0.0389695 2.11558e-15)
(-16.5972 -0.0511571 2.14398e-15)
(-16.6073 -0.0652892 2.17778e-15)
(-16.6189 -0.0816744 2.21409e-15)
(-16.6324 -0.100672 2.2531e-15)
(-16.648 -0.122703 2.3012e-15)
(-16.666 -0.148257 2.35578e-15)
(-16.6866 -0.177911 2.41564e-15)
(-16.7101 -0.212333 2.48765e-15)
(-16.7366 -0.252286 2.56979e-15)
(-16.7663 -0.298637 2.66681e-15)
(-16.7992 -0.352411 2.78341e-15)
(-16.8349 -0.414795 2.91986e-15)
(-16.8726 -0.486928 3.08364e-15)
(-16.3226 -0.0409678 -1.86057e-15)
(-16.3234 -0.041463 -1.87128e-15)
(-16.3229 -0.0420503 -1.8823e-15)
(-16.3221 -0.0426803 -1.89547e-15)
(-16.3213 -0.0433291 -1.90839e-15)
(-16.3205 -0.0439924 -1.91925e-15)
(-16.3196 -0.0446709 -1.9308e-15)
(-16.3188 -0.0453668 -1.94289e-15)
(-16.318 -0.0460827 -1.95528e-15)
(-16.3172 -0.0468219 -1.96992e-15)
(-16.3164 -0.0475874 -1.98417e-15)
(-16.3157 -0.048383 -1.99642e-15)
(-16.3149 -0.0492129 -2.00913e-15)
(-16.3143 -0.0500818 -2.02229e-15)
(-16.3136 -0.0509952 -2.03544e-15)
(-16.3131 -0.0519594 -2.05066e-15)
(-16.3126 -0.0529819 -2.06519e-15)
(-16.3121 -0.0540711 -2.07736e-15)
(-16.3118 -0.0552371 -2.08974e-15)
(-16.3115 -0.0564915 -2.10228e-15)
(-16.3113 -0.0578478 -2.11474e-15)
(-16.3113 -0.0593216 -2.12716e-15)
(-16.3114 -0.0609312 -2.13942e-15)
(-16.3117 -0.0626979 -2.15157e-15)
(-16.3122 -0.0646462 -2.16354e-15)
(-16.3129 -0.0668048 -2.17548e-15)
(-16.3139 -0.0692069 -2.18536e-15)
(-16.3152 -0.0718913 -2.19578e-15)
(-16.3168 -0.074903 -2.20868e-15)
(-16.3188 -0.0782942 -2.22144e-15)
(-16.3213 -0.0821258 -2.23448e-15)
(-16.3243 -0.0864687 -2.24825e-15)
(-16.328 -0.0914057 -2.26107e-15)
(-16.3323 -0.0970335 -2.2758e-15)
(-16.3374 -0.103465 -2.29475e-15)
(-16.3435 -0.110834 -2.31548e-15)
(-16.3507 -0.119297 -2.33873e-15)
(-16.3591 -0.129039 -2.36499e-15)
(-16.3689 -0.140281 -2.39493e-15)
(-16.3803 -0.153288 -2.42826e-15)
(-16.3935 -0.168379 -2.46743e-15)
(-16.4087 -0.185941 -2.51192e-15)
(-16.4263 -0.206451 -2.56401e-15)
(-16.4463 -0.2305 -2.62738e-15)
(-16.4691 -0.258827 -2.7008e-15)
(-16.4947 -0.292338 -2.78634e-15)
(-16.5233 -0.332141 -2.88625e-15)
(-16.5547 -0.379672 -3.00734e-15)
(-16.5883 -0.436834 -3.15715e-15)
(-16.6225 -0.505677 -3.33789e-15)
(-16.5064 0.0380476 2.28771e-15)
(-16.5053 0.0384397 2.30102e-15)
(-16.5053 0.038972 2.31492e-15)
(-16.5055 0.0395622 2.32732e-15)
(-16.5057 0.0401776 2.34086e-15)
(-16.506 0.0408043 2.35732e-15)
(-16.5063 0.0414352 2.37388e-15)
(-16.5066 0.0420658 2.39082e-15)
(-16.507 0.0426926 2.40818e-15)
(-16.5073 0.0433125 2.42416e-15)
(-16.5077 0.0439222 2.44114e-15)
(-16.5082 0.0445181 2.461e-15)
(-16.5087 0.0450964 2.4808e-15)
(-16.5092 0.0456526 2.50085e-15)
(-16.5098 0.0461817 2.52124e-15)
(-16.5105 0.0466778 2.54006e-15)
(-16.5112 0.0471341 2.55985e-15)
(-16.5121 0.0475427 2.58247e-15)
(-16.513 0.0478944 2.60508e-15)
(-16.5141 0.0481785 2.62796e-15)
(-16.5153 0.0483826 2.65124e-15)
(-16.5167 0.0484921 2.675e-15)
(-16.5183 0.0484903 2.69937e-15)
(-16.5201 0.0483574 2.72438e-15)
(-16.5222 0.0480706 2.75017e-15)
(-16.5246 0.0476033 2.77667e-15)
(-16.5273 0.0469243 2.80611e-15)
(-16.5304 0.0459975 2.83606e-15)
(-16.534 0.0447806 2.86499e-15)
(-16.5382 0.0432239 2.89582e-15)
(-16.543 0.0412697 2.92858e-15)
(-16.5485 0.0388501 2.96325e-15)
(-16.5549 0.0358851 3.00196e-15)
(-16.5623 0.0322809 3.04231e-15)
(-16.5708 0.0279264 3.0823e-15)
(-16.5807 0.0226898 3.125e-15)
(-16.5921 0.0164142 3.17006e-15)
(-16.6052 0.00891158 3.21741e-15)
(-16.6205 -4.45166e-05 3.26904e-15)
(-16.6382 -0.0107291 3.32149e-15)
(-16.6586 -0.023478 3.3743e-15)
(-16.6823 -0.0387043 3.43369e-15)
(-16.7097 -0.056921 3.49609e-15)
(-16.7414 -0.0787754 3.55997e-15)
(-16.778 -0.105092 3.63163e-15)
(-16.8202 -0.136891 3.70779e-15)
(-16.8687 -0.175392 3.79299e-15)
(-16.9243 -0.222122 3.89039e-15)
(-16.9876 -0.279276 3.99888e-15)
(-17.0571 -0.349653 4.12621e-15)
(-15.7231 -0.0499754 -4.4373e-16)
(-15.7234 -0.0508581 -4.53158e-16)
(-15.723 -0.0516982 -4.6308e-16)
(-15.7224 -0.0525622 -4.75631e-16)
(-15.7218 -0.053441 -4.87894e-16)
(-15.7211 -0.0543381 -4.97911e-16)
(-15.7205 -0.0552575 -5.08943e-16)
(-15.7199 -0.056203 -5.20597e-16)
(-15.7193 -0.0571784 -5.32697e-16)
(-15.7188 -0.0581874 -5.47491e-16)
(-15.7182 -0.0592338 -5.61947e-16)
(-15.7177 -0.0603216 -5.7425e-16)
(-15.7173 -0.0614551 -5.87611e-16)
(-15.7169 -0.0626393 -6.01714e-16)
(-15.7165 -0.0638797 -6.16321e-16)
(-15.7163 -0.0651824 -6.33765e-16)
(-15.7161 -0.0665547 -6.50992e-16)
(-15.716 -0.0680043 -6.66151e-16)
(-15.716 -0.0695406 -6.82582e-16)
(-15.7161 -0.071174 -6.9993e-16)
(-15.7164 -0.0729165 -7.18154e-16)
(-15.7169 -0.0747816 -7.37202e-16)