/*--------------------------------*- C++ -*----------------------------------*\
  =========                 |
  \\      /  F ield         | OpenFOAM: The Open Source CFD Toolbox
   \\    /   O peration     | Website:  https://openfoam.org
    \\  /    A nd           | Version:  8
     \\/     M anipulation  |
\*---------------------------------------------------------------------------*/
FoamFile
{
    version     2.0;
    format      ascii;
    class       volScalarField;
    location    "700";
    object      alphat;
}
// * * * * * * * * * * * * * * * * * * * * * * * * * * * * * * * * * * * * * //

dimensions      [1 -1 -1 0 0 0 0];

internalField   nonuniform List<scalar> 
8400
(
0.314795
0.31221
0.309614
0.307006
0.304385
0.301748
0.299095
0.296426
0.293742
0.291046
0.28834
0.285625
0.282905
0.280182
0.277458
0.274734
0.272012
0.269292
0.266576
0.263865
0.26116
0.258461
0.255769
0.253086
0.250411
0.247746
0.245092
0.24245
0.239822
0.237208
0.23461
0.232028
0.229464
0.226919
0.224393
0.221888
0.219403
0.21694
0.214498
0.212079
0.209684
0.207312
0.204967
0.202651
0.200367
0.198121
0.195921
0.193782
0.191719
0.189759
0.0757522
0.0756673
0.0755832
0.0754986
0.0754125
0.0753248
0.0752352
0.075144
0.0750515
0.0749577
0.074863
0.0747675
0.0746717
0.0745757
0.0744797
0.0743838
0.074288
0.0741924
0.0740972
0.0740025
0.0739084
0.0738149
0.0737221
0.07363
0.0735389
0.0734488
0.0733598
0.073272
0.0731855
0.0731003
0.0730165
0.0729341
0.0728533
0.0727739
0.0726961
0.0726196
0.0725444
0.0724702
0.0723972
0.0723251
0.0722539
0.0721835
0.0721138
0.0720449
0.0719769
0.0719099
0.0718447
0.0717824
0.0717242
0.0716729
0.0668058
0.0668402
0.0668718
0.0669007
0.0669265
0.066949
0.0669682
0.066984
0.0669966
0.0670061
0.0670126
0.0670164
0.0670175
0.0670163
0.0670127
0.0670067
0.0669984
0.0669878
0.0669752
0.0669605
0.0669437
0.0669249
0.0669043
0.0668819
0.0668579
0.0668324
0.0668055
0.0667775
0.0667485
0.0667187
0.0666881
0.0666569
0.0666252
0.0665931
0.0665607
0.0665279
0.0664948
0.0664615
0.066428
0.0663944
0.0663606
0.066327
0.0662936
0.0662609
0.0662289
0.0661984
0.0661701
0.066145
0.0661247
0.0661112
0.0621804
0.0622247
0.0622685
0.0623106
0.0623501
0.0623866
0.06242
0.0624502
0.0624775
0.0625019
0.0625236
0.0625428
0.0625597
0.0625743
0.0625866
0.0625968
0.0626048
0.0626108
0.0626147
0.0626167
0.0626168
0.0626151
0.0626117
0.0626068
0.0626005
0.0625931
0.0625846
0.0625753
0.0625654
0.062555
0.0625443
0.0625334
0.0625223
0.062511
0.0624997
0.0624883
0.0624767
0.062465
0.062453
0.0624409
0.0624286
0.0624164
0.0624044
0.0623929
0.0623823
0.0623729
0.0623658
0.0623617
0.0623621
0.0623685
0.0584429
0.0584961
0.058548
0.0585982
0.0586463
0.0586918
0.0587347
0.0587749
0.0588128
0.0588483
0.0588817
0.0589131
0.0589425
0.0589699
0.0589955
0.0590193
0.0590412
0.0590614
0.0590799
0.0590968
0.0591122
0.0591261
0.0591388
0.0591504
0.0591611
0.0591711
0.0591807
0.0591901
0.0591994
0.0592086
0.059218
0.0592275
0.0592373
0.0592471
0.059257
0.059267
0.0592768
0.0592864
0.0592957
0.0593047
0.0593135
0.0593224
0.0593313
0.0593406
0.0593506
0.0593619
0.0593751
0.059391
0.0594107
0.0594355
0.0558371
0.0558843
0.055933
0.0559817
0.0560297
0.0560765
0.0561218
0.0561657
0.0562082
0.0562493
0.056289
0.0563273
0.0563642
0.0563997
0.0564339
0.0564667
0.0564981
0.0565282
0.0565571
0.0565847
0.0566114
0.0566371
0.0566621
0.0566865
0.0567106
0.0567346
0.0567586
0.0567827
0.0568071
0.0568319
0.0568569
0.0568822
0.0569078
0.0569335
0.0569591
0.0569845
0.0570095
0.0570341
0.0570582
0.057082
0.0571055
0.0571289
0.0571523
0.057176
0.0572005
0.0572264
0.0572541
0.0572843
0.0573178
0.057356
0.0544638
0.0544625
0.0544667
0.0544762
0.0544901
0.0545076
0.0545279
0.0545504
0.0545748
0.0546005
0.0546274
0.0546549
0.0546831
0.0547115
0.0547402
0.0547691
0.0547981
0.054827
0.0548557
0.0548843
0.0549129
0.0549415
0.0549702
0.054999
0.0550281
0.0550575
0.0550873
0.0551175
0.0551483
0.0551795
0.0552112
0.0552432
0.0552755
0.0553079
0.0553401
0.055372
0.0554036
0.0554348
0.055466
0.055497
0.055528
0.0555589
0.0555902
0.0556221
0.0556551
0.0556894
0.0557256
0.0557643
0.0558059
0.0558513
0.0549645
0.0548383
0.054726
0.0546316
0.0545533
0.0544886
0.0544356
0.0543924
0.0543578
0.0543305
0.0543093
0.0542937
0.0542829
0.0542766
0.0542742
0.054275
0.0542785
0.0542844
0.0542924
0.0543022
0.0543134
0.0543259
0.0543395
0.0543539
0.054369
0.0543849
0.0544014
0.0544185
0.0544362
0.0544545
0.0544736
0.0544934
0.0545139
0.0545349
0.0545562
0.0545781
0.0546006
0.0546239
0.0546479
0.0546724
0.0546971
0.0547222
0.0547472
0.0547728
0.0547985
0.0548236
0.0548486
0.0548724
0.0548967
0.0549198
0.0573384
0.0570605
0.0568148
0.0566026
0.0564168
0.0562527
0.056107
0.0559772
0.0558617
0.0557591
0.0556675
0.0555866
0.055515
0.0554518
0.0553963
0.0553474
0.0553044
0.0552666
0.0552334
0.0552044
0.0551788
0.0551566
0.0551373
0.0551206
0.0551064
0.0550949
0.0550861
0.0550798
0.0550759
0.0550744
0.0550752
0.0550785
0.0550839
0.0550909
0.0550994
0.0551096
0.0551218
0.0551356
0.05515
0.0551651
0.0551799
0.0551938
0.055207
0.055219
0.0552289
0.0552352
0.0552376
0.0552325
0.0552228
0.0552068
0.059954
0.0596585
0.0594133
0.0591977
0.0590015
0.058819
0.0586492
0.0584911
0.0583434
0.058205
0.0580749
0.057953
0.0578392
0.0577323
0.0576314
0.0575351
0.0574436
0.0573567
0.0572741
0.0571951
0.057119
0.0570456
0.056975
0.0569079
0.0568445
0.0567859
0.0567328
0.0566846
0.0566405
0.0566008
0.0565665
0.0565381
0.0565147
0.0564948
0.0564785
0.0564665
0.0564599
0.0564578
0.0564581
0.0564625
0.0564712
0.0564812
0.0564952
0.0565104
0.0565268
0.0565413
0.0565516
0.0565589
0.0565535
0.0565532
0.0610914
0.0609376
0.0608046
0.0606847
0.0605721
0.0604629
0.060357
0.0602566
0.0601614
0.0600654
0.0599737
0.0598853
0.0598011
0.0597197
0.0596413
0.0595651
0.0594906
0.059418
0.0593463
0.059275
0.0592036
0.0591303
0.0590545
0.0589778
0.0589022
0.0588295
0.0587595
0.0586886
0.0586142
0.0585393
0.058469
0.0584058
0.0583476
0.0582895
0.0582308
0.0581729
0.0581153
0.0580592
0.0580074
0.0579597
0.0579176
0.0578793
0.0578447
0.0578161
0.0577895
0.0577736
0.0577501
0.0577252
0.0577035
0.0576681
0.0611822
0.0611248
0.0610687
0.0610137
0.0609588
0.0609047
0.0608515
0.0607989
0.0607468
0.0606949
0.0606433
0.0605924
0.0605423
0.0604926
0.0604433
0.0603944
0.0603458
0.0602972
0.0602489
0.0602007
0.0601522
0.0601035
0.0600547
0.060006
0.059958
0.0599104
0.0598625
0.0598141
0.0597653
0.0597172
0.0596705
0.0596249
0.0595799
0.0595351
0.0594901
0.0594449
0.0594005
0.0593566
0.0593133
0.0592714
0.0592297
0.0591896
0.0591502
0.0591121
0.0590741
0.0590363
0.0590003
0.0589605
0.05892
0.0588788
0.061203
0.0611687
0.0611346
0.0611007
0.0610667
0.0610329
0.060999
0.0609656
0.060932
0.0608984
0.060865
0.0608317
0.0607983
0.060765
0.0607319
0.0606988
0.0606656
0.0606324
0.0605993
0.0605663
0.0605333
0.0605004
0.0604674
0.0604343
0.0604012
0.060368
0.0603347
0.0603012
0.0602676
0.0602342
0.0602011
0.0601683
0.0601355
0.0601029
0.0600703
0.0600375
0.060005
0.059973
0.0599412
0.0599097
0.059878
0.0598464
0.0598148
0.0597836
0.0597528
0.0597215
0.0596905
0.0596598
0.059628
0.0595949
0.0612128
0.0611888
0.0611646
0.0611403
0.0611159
0.0610915
0.0610671
0.0610426
0.0610179
0.0609931
0.0609683
0.0609436
0.0609188
0.0608941
0.0608694
0.0608446
0.0608199
0.0607951
0.0607704
0.0607456
0.060721
0.0606963
0.0606715
0.0606466
0.0606215
0.0605964
0.0605711
0.0605456
0.0605202
0.0604948
0.0604695
0.0604442
0.060419
0.0603937
0.0603685
0.0603433
0.0603182
0.0602933
0.0602685
0.0602437
0.0602189
0.0601941
0.0601693
0.0601446
0.0601201
0.0600959
0.0600709
0.0600459
0.0600212
0.0599957
0.0612168
0.0611971
0.0611773
0.0611575
0.0611379
0.0611181
0.0610983
0.0610785
0.0610587
0.0610388
0.0610189
0.0609992
0.0609795
0.0609598
0.0609401
0.0609204
0.0609008
0.0608811
0.0608614
0.0608417
0.0608221
0.0608023
0.0607825
0.0607625
0.0607425
0.0607224
0.0607023
0.0606822
0.0606621
0.0606421
0.0606222
0.0606023
0.0605824
0.0605625
0.0605425
0.0605227
0.060503
0.0604834
0.0604637
0.0604438
0.060424
0.0604042
0.0603845
0.0603649
0.060345
0.0603253
0.0603056
0.0602854
0.0602653
0.0602449
0.0612212
0.0612062
0.0611912
0.061176
0.0611607
0.0611454
0.0611299
0.0611144
0.0610988
0.0610833
0.0610677
0.061052
0.0610363
0.0610205
0.0610047
0.0609889
0.060973
0.0609571
0.0609411
0.0609252
0.0609092
0.0608932
0.060877
0.0608608
0.0608445
0.0608281
0.0608117
0.0607952
0.0607788
0.0607624
0.060746
0.0607295
0.0607129
0.0606965
0.06068
0.0606634
0.0606469
0.0606303
0.0606138
0.0605972
0.0605806
0.060564
0.0605473
0.0605307
0.060514
0.060497
0.0604801
0.0604633
0.0604464
0.0604295
0.0612212
0.061206
0.0611909
0.0611758
0.0611606
0.0611453
0.06113
0.0611148
0.0610996
0.0610845
0.0610694
0.0610543
0.0610393
0.0610244
0.0610094
0.0609945
0.0609795
0.0609646
0.0609498
0.0609349
0.06092
0.0609051
0.0608902
0.0608752
0.0608603
0.0608453
0.0608303
0.0608154
0.0608005
0.0607856
0.0607707
0.0607558
0.0607409
0.060726
0.0607112
0.0606965
0.0606818
0.0606672
0.0606525
0.060638
0.0606236
0.0606093
0.060595
0.0605806
0.0605664
0.0605522
0.060538
0.0605242
0.0605107
0.060498
0.0612255
0.0612162
0.0612071
0.0611981
0.0611891
0.0611801
0.0611711
0.0611621
0.0611534
0.0611449
0.0611368
0.061129
0.0611217
0.0611148
0.0611082
0.0611017
0.0610955
0.0610893
0.0610828
0.0610762
0.0610694
0.0610627
0.0610561
0.0610495
0.0610428
0.0610359
0.0610289
0.0610218
0.0610147
0.0610076
0.0610003
0.0609929
0.0609857
0.0609785
0.0609716
0.0609649
0.0609584
0.0609521
0.0609462
0.0609404
0.0609349
0.0609297
0.0609248
0.0609202
0.0609159
0.0609124
0.0609102
0.0609104
0.0609149
0.0609266
0.0614283
0.0616182
0.0618043
0.0619866
0.0621651
0.0623399
0.0625109
0.0626781
0.0628414
0.063001
0.0631566
0.0633084
0.063456
0.0635994
0.0637386
0.0639789
0.0644
0.0648469
0.0652155
0.0654379
0.0655051
0.0655607
0.0656472
0.0657614
0.0658683
0.0659306
0.0659436
0.0659237
0.0658875
0.0659013
0.0659625
0.0660529
0.0661467
0.0662269
0.0662977
0.0663627
0.0664251
0.0664865
0.0665482
0.0666106
0.0666738
0.0667377
0.066802
0.0668666
0.066931
0.0669938
0.0670481
0.0670252
0.0670697
0.0674024
0.371199
0.369218
0.366735
0.364368
0.36205
0.359771
0.357578
0.355494
0.353509
0.351588
0.349685
0.347751
0.345742
0.343619
0.34135
0.338913
0.336359
0.333781
0.331192
0.328609
0.326049
0.323484
0.320916
0.318348
0.315779
0.313205
0.310619
0.308017
0.305394
0.302746
0.300104
0.297483
0.294901
0.29236
0.289842
0.287333
0.284834
0.282345
0.279869
0.277407
0.274961
0.272531
0.27012
0.26773
0.265364
0.263024
0.260708
0.258423
0.256105
0.253731
0.27115
0.267817
0.26462
0.261549
0.25859
0.255729
0.252949
0.250246
0.247618
0.245061
0.242572
0.240147
0.237783
0.235477
0.233227
0.231031
0.228889
0.2268
0.224763
0.222778
0.220844
0.218959
0.21712
0.215325
0.213572
0.211861
0.210188
0.208555
0.206961
0.205403
0.203882
0.202396
0.200943
0.199521
0.198131
0.19677
0.19544
0.194141
0.192873
0.191631
0.190412
0.189213
0.188031
0.186864
0.185707
0.184558
0.183407
0.182245
0.181057
0.179813
0.269212
0.263054
0.257169
0.251532
0.246141
0.240986
0.236065
0.231363
0.226866
0.222558
0.218426
0.214457
0.210641
0.206966
0.203427
0.200018
0.196733
0.193568
0.190518
0.187577
0.184738
0.181996
0.179343
0.176775
0.174287
0.171876
0.169539
0.167274
0.165077
0.162944
0.160872
0.158855
0.156891
0.154975
0.153106
0.151281
0.149499
0.147759
0.146058
0.144399
0.142783
0.141207
0.13967
0.138171
0.136707
0.135278
0.133877
0.132488
0.131093
0.129686
0.269203
0.263023
0.257097
0.251423
0.245992
0.240793
0.235812
0.231037
0.226455
0.222052
0.217818
0.213739
0.209807
0.206013
0.202351
0.198815
0.195402
0.192105
0.188921
0.185844
0.182867
0.179986
0.177195
0.174489
0.171863
0.169316
0.166844
0.164445
0.162115
0.159852
0.157652
0.155511
0.153427
0.151395
0.149416
0.147488
0.14561
0.14378
0.141998
0.140263
0.138572
0.136923
0.135316
0.133747
0.132218
0.130731
0.129294
0.127908
0.126551
0.125166
0.269202
0.263066
0.257193
0.251572
0.246189
0.24103
0.236082
0.231332
0.226767
0.222376
0.218148
0.214071
0.210139
0.206342
0.202676
0.199135
0.195715
0.192412
0.18922
0.186133
0.183146
0.180253
0.177448
0.174728
0.172088
0.169526
0.167039
0.164625
0.162281
0.160004
0.15779
0.155636
0.153538
0.151495
0.149503
0.147563
0.145672
0.143831
0.142037
0.140289
0.138587
0.136927
0.135309
0.133729
0.132184
0.130671
0.129195
0.12777
0.126405
0.12505
0.269202
0.263065
0.25719
0.251564
0.246174
0.241006
0.236049
0.231291
0.226718
0.222321
0.218087
0.214006
0.210071
0.206274
0.20261
0.199073
0.195659
0.192361
0.189175
0.186095
0.183114
0.180226
0.177426
0.174709
0.172073
0.169514
0.167031
0.16462
0.162279
0.160006
0.157796
0.155646
0.153552
0.151513
0.149525
0.147588
0.145701
0.143862
0.142071
0.140326
0.138626
0.136968
0.135351
0.133776
0.13224
0.130739
0.129264
0.127822
0.126434
0.125078
0.269201
0.263067
0.2572
0.251584
0.246206
0.241052
0.236107
0.23136
0.226798
0.222408
0.218181
0.214106
0.210176
0.206384
0.202725
0.199194
0.195784
0.19249
0.189308
0.186229
0.183249
0.180361
0.17756
0.174842
0.172203
0.169641
0.167155
0.164741
0.162398
0.160123
0.157911
0.155759
0.153663
0.151621
0.149631
0.147691
0.145801
0.14396
0.142166
0.140418
0.138715
0.137053
0.13543
0.133846
0.132302
0.130799
0.129329
0.127885
0.126482
0.125114
0.269201
0.263067
0.257201
0.251588
0.246211
0.241056
0.23611
0.23136
0.226793
0.222398
0.218165
0.214085
0.210151
0.206357
0.202696
0.199164
0.195755
0.192462
0.18928
0.186202
0.183222
0.180334
0.177532
0.174812
0.172172
0.16961
0.167123
0.164709
0.162367
0.160092
0.157881
0.15573
0.153636
0.151595
0.149606
0.147667
0.145777
0.143937
0.142144
0.140397
0.138696
0.137036
0.135414
0.13383
0.132281
0.130772
0.129302
0.127862
0.126455
0.125082
0.2692
0.263067
0.257203
0.251592
0.246218
0.241066
0.236122
0.231374
0.226808
0.222415
0.218183
0.214106
0.210175
0.206384
0.202728
0.1992
0.195794
0.192505
0.189326
0.186251
0.183272
0.180384
0.177582
0.174862
0.172222
0.169658
0.16717
0.164756
0.162413
0.160138
0.157927
0.155775
0.15368
0.151637
0.149646
0.147706
0.145815
0.143972
0.142177
0.140429
0.138724
0.137062
0.135439
0.133853
0.132302
0.130786
0.129309
0.127865
0.126453
0.125072
0.2692
0.263067
0.257204
0.251594
0.246221
0.241069
0.236125
0.231375
0.226808
0.222413
0.21818
0.214101
0.210169
0.206378
0.202722
0.199194
0.195789
0.1925
0.189321
0.186244
0.183264
0.180375
0.177571
0.17485
0.172208
0.169643
0.167154
0.16474
0.162396
0.160121
0.15791
0.155758
0.153661
0.151618
0.149626
0.147685
0.145793
0.14395
0.142155
0.140406
0.138701
0.137037
0.135413
0.133827
0.132276
0.130758
0.129277
0.127829
0.126414
0.125029
0.2692
0.263067
0.257205
0.251595
0.246222
0.24107
0.236126
0.231375
0.226808
0.222413
0.21818
0.214103
0.210173
0.206384
0.20273
0.199204
0.1958
0.192513
0.189334
0.186258
0.183278
0.180388
0.177584
0.174862
0.172219
0.169654
0.167166
0.164751
0.162408
0.160133
0.157921
0.155768
0.153671
0.151626
0.149633
0.14769
0.145796
0.143952
0.142156
0.140406
0.1387
0.137035
0.135408
0.133819
0.132266
0.130746
0.129261
0.127808
0.126388
0.124997
0.2692
0.263068
0.257206
0.251596
0.246222
0.241069
0.236123
0.231372
0.226804
0.222409
0.218178
0.214102
0.210174
0.206386
0.202733
0.199208
0.195804
0.192516
0.189337
0.186259
0.183278
0.180388
0.177583
0.174861
0.172218
0.169653
0.167164
0.16475
0.162407
0.160131
0.157918
0.155765
0.153666
0.151621
0.149626
0.147681
0.145786
0.14394
0.142142
0.140391
0.138684
0.137019
0.135391
0.1338
0.132244
0.130722
0.129233
0.127776
0.126351
0.124955
0.2692
0.263069
0.257207
0.251596
0.24622
0.241065
0.236118
0.231365
0.226797
0.222403
0.218172
0.214098
0.21017
0.206384
0.202731
0.199205
0.1958
0.19251
0.189329
0.18625
0.183267
0.180376
0.17757
0.174847
0.172204
0.169639
0.167151
0.164736
0.162392
0.160116
0.157903
0.155749
0.15365
0.151603
0.149607
0.147661
0.145764
0.143917
0.142118
0.140366
0.138659
0.136993
0.135365
0.133773
0.132215
0.130691
0.129199
0.127738
0.126308
0.124908
0.269201
0.263072
0.257209
0.251595
0.246217
0.24106
0.236111
0.231358
0.226791
0.222399
0.218172
0.2141
0.210176
0.206392
0.20274
0.199215
0.195811
0.19252
0.189338
0.186259
0.183277
0.180386
0.177581
0.174858
0.172216
0.169652
0.167163
0.164748
0.162405
0.160128
0.157914
0.155759
0.153659
0.151611
0.149613
0.147664
0.145766
0.143916
0.142116
0.140362
0.138654
0.136986
0.135357
0.133762
0.132201
0.130672
0.129176
0.12771
0.126274
0.124868
0.269202
0.263074
0.25721
0.251593
0.24621
0.241049
0.236096
0.231341
0.226771
0.222378
0.21815
0.214077
0.210152
0.206365
0.202711
0.199182
0.195774
0.19248
0.189295
0.186213
0.183229
0.180336
0.177531
0.174808
0.172166
0.169601
0.167112
0.164698
0.162354
0.160078
0.157864
0.15571
0.153609
0.15156
0.149562
0.147612
0.145713
0.143863
0.142063
0.14031
0.138602
0.136935
0.135306
0.133711
0.132148
0.130618
0.129118
0.127649
0.126211
0.124801
0.269203
0.263076
0.25721
0.25159
0.246205
0.241043
0.236091
0.231339
0.226774
0.222386
0.218163
0.214096
0.210175
0.206391
0.202739
0.199211
0.195803
0.192509
0.189323
0.186242
0.183258
0.180365
0.17756
0.174837
0.172194
0.169628
0.167139
0.164723
0.162379
0.160101
0.157886
0.155729
0.153627
0.151575
0.149573
0.147621
0.145718
0.143865
0.142063
0.140308
0.138598
0.136928
0.135296
0.133697
0.13213
0.130594
0.129088
0.127613
0.126168
0.124752
0.269204
0.263075
0.257201
0.25157
0.246172
0.240996
0.236032
0.231269
0.226694
0.222298
0.218068
0.213995
0.210068
0.206279
0.202621
0.199088
0.195676
0.192379
0.189191
0.186109
0.183124
0.180232
0.177427
0.174705
0.172063
0.169499
0.167012
0.164598
0.162255
0.15998
0.157767
0.155612
0.15351
0.15146
0.149459
0.147507
0.145606
0.143755
0.141954
0.140201
0.138493
0.136825
0.135194
0.133595
0.132027
0.13049
0.128984
0.127507
0.126061
0.124644
0.269205
0.263076
0.257203
0.251577
0.246187
0.24102
0.236066
0.231311
0.226745
0.222355
0.21813
0.214059
0.210133
0.206342
0.202681
0.199145
0.195728
0.192426
0.189235
0.186147
0.183158
0.18026
0.17745
0.174723
0.172076
0.169508
0.167016
0.164598
0.162251
0.159971
0.157753
0.155594
0.153488
0.151432
0.149427
0.147471
0.145566
0.143712
0.141909
0.140155
0.138444
0.136774
0.13514
0.133539
0.131969
0.130431
0.128924
0.127448
0.126005
0.124593
0.269205
0.263032
0.257105
0.251426
0.245988
0.240782
0.235796
0.231019
0.226436
0.222034
0.217802
0.213727
0.209799
0.206009
0.202352
0.198821
0.195411
0.192118
0.188937
0.185861
0.182883
0.179998
0.177201
0.174488
0.171855
0.169302
0.166825
0.164424
0.162093
0.15983
0.157629
0.155487
0.153398
0.15136
0.149373
0.147437
0.145553
0.143721
0.141942
0.140212
0.138529
0.136887
0.135284
0.133717
0.132185
0.13069
0.129234
0.127819
0.126448
0.125129
0.269214
0.263062
0.257174
0.251532
0.246134
0.240976
0.236052
0.231348
0.22685
0.222542
0.218411
0.214445
0.210631
0.206962
0.203429
0.200027
0.196749
0.193591
0.190547
0.18761
0.184773
0.18203
0.179375
0.176803
0.174314
0.171903
0.16957
0.167312
0.165127
0.16301
0.160956
0.15896
0.157018
0.155126
0.153286
0.151497
0.149763
0.148085
0.146464
0.144898
0.143385
0.141921
0.140504
0.139132
0.137808
0.136535
0.135321
0.134176
0.133121
0.132188
0.271155
0.267819
0.264617
0.261543
0.258583
0.255723
0.252946
0.250247
0.247622
0.245067
0.242576
0.240148
0.23778
0.23547
0.233218
0.231023
0.228884
0.226799
0.224766
0.222782
0.220845
0.218954
0.217106
0.2153
0.213538
0.211818
0.210139
0.208501
0.206901
0.205337
0.203805
0.202304
0.200833
0.199391
0.197978
0.196597
0.195246
0.193926
0.192634
0.191367
0.190123
0.188898
0.187691
0.1865
0.185325
0.184166
0.183023
0.181892
0.180772
0.179657
0.10095
0.0544441
0.056583
0.0603689
0.0624365
0.061907
0.0587742
0.0536447
0.0475706
0.0418391
0.0375553
0.0351071
0.0341796
0.0343649
0.0354729
0.0378132
0.0406964
0.0458589
0.0637598
0.124075
0.100334
0.0543148
0.0563607
0.0602351
0.0625456
0.0623431
0.0595383
0.0546542
0.0486736
0.0428564
0.038369
0.0357209
0.0346279
0.0346541
0.0356543
0.0379002
0.0407325
0.0457396
0.0630108
0.122689
0.0997619
0.0541836
0.056113
0.0600682
0.0626291
0.0627765
0.0603336
0.0557347
0.0498828
0.0439954
0.0392882
0.0364151
0.0351838
0.0350962
0.0359914
0.0380998
0.0409179
0.0461766
0.0638533
0.122843
0.0992919
0.054054
0.0558344
0.059858
0.0626758
0.0631981
0.0611564
0.0568895
0.0512091
0.0452738
0.0403311
0.0371894
0.0357923
0.0356078
0.0363741
0.0383461
0.0411678
0.046733
0.0648451
0.123033
0.0988999
0.0539244
0.0555224
0.0595979
0.0626766
0.0635992
0.0620013
0.0581195
0.0526638
0.0467152
0.04153
0.0380718
0.0364642
0.0361547
0.0367988
0.0386449
0.0414969
0.047427
0.0660024
0.123258
0.0985977
0.0537972
0.0551756
0.0592807
0.0626192
0.0639659
0.0628571
0.0594211
0.0542559
0.0483454
0.0429239
0.0390961
0.0372243
0.0368382
0.0372727
0.0390082
0.0419257
0.0482822
0.0673354
0.123516
0.0983969
0.0536765
0.0547921
0.0588975
0.0624885
0.0642801
0.0637081
0.0607863
0.055991
0.0501906
0.0445607
0.0403096
0.0380572
0.0374588
0.0378127
0.0394574
0.0424848
0.0493289
0.0688567
0.123803
0.0983083
0.0535668
0.0543705
0.0584379
0.0622661
0.0645195
0.0645328
0.0622006
0.05787
0.0522759
0.046497
0.0417923
0.0390428
0.0381464
0.0384412
0.0400234
0.0432137
0.0506024
0.0705788
0.124111
0.0983425
0.0534738
0.0539106
0.0578921
0.0619311
0.0646557
0.0653012
0.0636397
0.059883
0.0546184
0.0487906
0.0436457
0.0403129
0.0390272
0.0391965
0.0407492
0.0441613
0.0521406
0.0725113
0.124432
0.0985083
0.0534041
0.0534151
0.0572525
0.0614618
0.0646543
0.0659725
0.0650649
0.0620038
0.0572202
0.0514944
0.0459819
0.0419928
0.0401856
0.0401456
0.0416957
0.0453881
0.0539832
0.0746615
0.12476
0.0988149
0.053367
0.052891
0.0565149
0.0608356
0.0644745
0.0664927
0.0664182
0.0641834
0.0600585
0.0546389
0.048914
0.0442506
0.0417505
0.0413864
0.0429472
0.0469689
0.0561739
0.0770364
0.125085
0.0992729
0.053375
0.0523504
0.0556795
0.0600302
0.0640693
0.066795
0.0676216
0.066344
0.0630738
0.0582134
0.0525305
0.0472939
0.043948
0.0430698
0.0446213
0.0489969
0.0587618
0.0796449
0.125398
0.0998921
0.053443
0.0518108
0.0547544
0.0590276
0.0633891
0.0668007
0.0685745
0.0683744
0.0661596
0.0621453
0.0568553
0.051322
0.0470969
0.0454202
0.0468765
0.0515833
0.0618009
0.0824985
0.125685
0.100679
0.0535852
0.0512948
0.0537588
0.0578215
0.0623888
0.0664232
0.0691537
0.0701241
0.0691517
0.06628
0.0618007
0.0564444
0.0516088
0.0488934
0.0499192
0.0548529
0.0653446
0.0856048
0.125926
0.101638
0.0538153
0.0508303
0.0527273
0.0564245
0.0610357
0.0655751
0.0692171
0.0714027
0.0718224
0.0703678
0.0671259
0.0625326
0.0577775
0.0548143
0.0540015
0.0589391
0.0694424
0.0889604
0.126097
0.102764
0.0541449
0.0504496
0.0517121
0.0548768
0.0593219
0.0641799
0.068614
0.0719876
0.0738837
0.0740651
0.0724365
0.069093
0.0646375
0.0606668
0.0593936
0.0639623
0.074125
0.0925446
0.126168
0.104052
0.0545818
0.0501846
0.0507817
0.0532535
0.0572819
0.0621952
0.0672064
0.0716398
0.0749974
0.0769438
0.0772575
0.0757986
0.0726474
0.068667
0.0663511
0.0700132
0.0793963
0.0963139
0.126098
0.105485
0.0551277
0.0500603
0.0500128
0.0516686
0.0550128
0.0596457
0.0649082
0.0701398
0.0747988
0.0784847
0.0809076
0.0818258
0.0810229
0.078433
0.075083
0.0771404
0.0852312
0.100199
0.125819
0.107043
0.0557758
0.0500866
0.0494761
0.050269
0.0526902
0.0566623
0.0617408
0.0673519
0.0729593
0.0781332
0.0825525
0.0859717
0.0882085
0.0891884
0.089173
0.0853225
0.0915511
0.104086
0.125228
0.108698
0.0565127
0.0502541
0.049216
0.0492084
0.0505638
0.0535131
0.0579005
0.063322
0.0693097
0.0754428
0.0813804
0.0868442
0.0915388
0.0949661
0.0961561
0.0944424
0.0981666
0.107752
0.124151
0.110421
0.057321
0.0505349
0.0492313
0.0486003
0.0489126
0.0505989
0.0538114
0.0583927
0.0640179
0.0703281
0.0770025
0.0837913
0.0904962
0.096896
0.102629
0.106624
0.104714
0.11081
0.122272
0.112179
0.0581814
0.0508897
0.0494695
0.0484645
0.0479508
0.0483728
0.050106
0.0532687
0.0577468
0.0633019
0.0696676
0.0766165
0.0839952
0.0916934
0.0995771
0.10702
0.110377
0.112506
0.118968
0.113942
0.0590746
0.0512775
0.0498428
0.0487067
0.0477169
0.0471625
0.047458
0.0489197
0.0516682
0.0556414
0.06067
0.066538
0.0730433
0.0800102
0.087348
0.0951562
0.104395
0.110712
0.112855
0.115684
0.0599832
0.0516669
0.0502625
0.0491601
0.0480357
0.0469756
0.0462599
0.0462192
0.0471315
0.0491347
0.0522293
0.0562978
0.0611664
0.0666159
0.0723725
0.0780227
0.0829285
0.0868949
0.101871
0.117378
0.060892
0.052042
0.0506689
0.0496662
0.0486179
0.047473
0.0463449
0.0454209
0.0449655
0.0452307
0.0464038
0.0485701
0.0517488
0.0559285
0.0611088
0.0672957
0.0743652
0.0812405
0.0820462
0.119004
0.0617886
0.0524
0.0510397
0.0501336
0.0492237
0.0482045
0.0471017
0.0459556
0.0449047
0.0441516
0.0439425
0.0445324
0.0461612
0.0490666
0.0535578
0.0600596
0.0693025
0.0824735
0.100678
0.12055
0.0626659
0.0527441
0.0513776
0.0505384
0.0497457
0.0488782
0.0479491
0.0469319
0.0458659
0.0448414
0.0440106
0.0436322
0.0440422
0.0456424
0.0489711
0.0547126
0.0639259
0.0786177
0.105701
0.122013
0.0635203
0.0530792
0.0516915
0.0508907
0.0501757
0.0494123
0.0486322
0.0477963
0.0469079
0.0459869
0.0450841
0.0443466
0.0440512
0.0446247
0.0467649
0.0514685
0.0602479
0.0757292
0.107063
0.123387
0.0643459
0.053409
0.0519897
0.0512075
0.0505411
0.049834
0.0491412
0.048426
0.0476938
0.0469261
0.0461417
0.045385
0.0448198
0.0447804
0.0459729
0.0496563
0.0578901
0.0740776
0.107894
0.124668
0.0651338
0.0537323
0.0522773
0.0515024
0.0508691
0.0501899
0.0495441
0.0488868
0.0482476
0.0475817
0.0469092
0.0462276
0.0456106
0.0452817
0.0458211
0.0485767
0.0560677
0.0725664
0.108558
0.125857
0.065878
0.0540467
0.0525565
0.0517837
0.0511761
0.0505105
0.049895
0.0492625
0.048665
0.0480565
0.0474475
0.0468366
0.0462337
0.0457925
0.0459253
0.047924
0.0545726
0.0710676
0.109148
0.126955
0.0665799
0.0543547
0.0528297
0.0520577
0.0514717
0.0508131
0.0502179
0.0496028
0.0490154
0.04844
0.0478576
0.047293
0.0467115
0.0462366
0.0461275
0.0475609
0.0533835
0.06971
0.109675
0.12796
0.0672395
0.0546599
0.0531003
0.0523276
0.0517594
0.0511071
0.0505206
0.0499238
0.0493364
0.0487779
0.048208
0.0476645
0.0470981
0.0466176
0.046361
0.0473919
0.0524688
0.068546
0.110146
0.128879
0.0678547
0.0549609
0.0533694
0.0525938
0.0520392
0.0513954
0.0508122
0.0502252
0.0496443
0.0490885
0.0485295
0.0479923
0.0474332
0.0469551
0.0466028
0.047348
0.051779
0.0675637
0.110573
0.129723
0.0684303
0.0552561
0.0536354
0.052856
0.0523126
0.0516752
0.0511024
0.0505102
0.0499415
0.049384
0.0488312
0.0482982
0.0477405
0.0472662
0.0468469
0.0473858
0.0512695
0.0667367
0.110966
0.130492
0.0689696
0.0555464
0.0538986
0.0531138
0.0525835
0.0519444
0.0513905
0.0507902
0.0502289
0.049673
0.0491186
0.0485924
0.0480326
0.0475627
0.0470933
0.0474793
0.0509031
0.0660468
0.111329
0.131188
0.0694729
0.0558322
0.0541611
0.0533695
0.0528557
0.0522115
0.0516709
0.0510699
0.0505097
0.0499587
0.0493984
0.0488807
0.0483157
0.0478502
0.0473417
0.0476128
0.0506499
0.0654815
0.111664
0.131821
0.0699441
0.0561153
0.0544247
0.0536269
0.0531282
0.0524834
0.0519439
0.0513495
0.0507868
0.0502404
0.0496754
0.0491659
0.0485932
0.0481302
0.0475895
0.0477751
0.0504864
0.0650286
0.111977
0.132399
0.0703884
0.056398
0.0546905
0.0538874
0.0533995
0.0527586
0.0522129
0.0516261
0.051062
0.0505176
0.0499499
0.0494469
0.0488657
0.0484046
0.0478357
0.0479574
0.0503952
0.064673
0.112274
0.132926
0.0708083
0.0566795
0.0549571
0.0541507
0.0536677
0.0530303
0.0524815
0.0518981
0.051334
0.0507914
0.0502226
0.0497227
0.0491323
0.0486749
0.0480824
0.0481548
0.0503644
0.0644027
0.112556
0.133409
0.0712069
0.0569594
0.0552216
0.0544156
0.0539338
0.0532953
0.0527501
0.052167
0.0516024
0.0510625
0.0504928
0.0499946
0.0493946
0.0489422
0.0483318
0.0483642
0.0503836
0.0642074
0.112825
0.133847
0.0715856
0.0572387
0.0554839
0.0546791
0.0541982
0.0535573
0.0530181
0.0524355
0.0518705
0.0513328
0.0507603
0.0502634
0.0496561
0.0492086
0.048585
0.0485844
0.0504423
0.0640728
0.113083
0.134242
0.0719444
0.0575156
0.0557469
0.0549412
0.0544625
0.0538218
0.0532864
0.0527048
0.0521409
0.051605
0.0510269
0.0505305
0.0499193
0.0494755
0.0488415
0.0488142
0.0505335
0.063987
0.113331
0.134605
0.0722896
0.0577909
0.0560132
0.0552041
0.0547298
0.0540922
0.0535571
0.0529763
0.0524125
0.0518783
0.0512946
0.0507988
0.0501852
0.0497434
0.0490998
0.049051
0.0506521
0.0639439
0.113571
0.134941
0.0726269
0.0580669
0.056283
0.0554703
0.0550013
0.0543671
0.0538312
0.0532507
0.052685
0.0521507
0.0515633
0.05107
0.050454
0.0500129
0.049359
0.049292
0.0507932
0.0639398
0.113807
0.135255
0.0729575
0.0583445
0.0565552
0.0557409
0.0552755
0.0546428
0.0541062
0.0535266
0.0529585
0.052423
0.0518334
0.0513436
0.0507249
0.0502843
0.0496203
0.0495366
0.0509532
0.0639705
0.114043
0.135548
0.0732803
0.0586231
0.0568286
0.0560151
0.0555504
0.0549178
0.05438
0.0538015
0.0532319
0.0526969
0.0521067
0.0516189
0.0509968
0.0505567
0.0498844
0.0497862
0.0511304
0.0640329
0.11428
0.13582
0.0735943
0.0589018
0.0571026
0.056291
0.0558248
0.0551923
0.0546539
0.0540764
0.0535056
0.052973
0.0523832
0.051896
0.0512692
0.0508292
0.0501513
0.0500415
0.0513237
0.0641254
0.114517
0.136073
0.073901
0.059181
0.0573772
0.0565678
0.0560997
0.0554677
0.0549296
0.0543537
0.0537822
0.0532517
0.0526616
0.0521742
0.0515426
0.051102
0.0504209
0.0503023
0.0515316
0.0642451
0.114754
0.13631
0.0742055
0.0594627
0.0576532
0.0568465
0.0563772
0.0557463
0.055208
0.0546342
0.054063
0.0535334
0.0529406
0.0524526
0.0518177
0.0513768
0.0506938
0.0505681
0.0517525
0.0643882
0.114988
0.136535
0.0745113
0.0597478
0.0579327
0.0571285
0.0566583
0.0560296
0.0554906
0.0549179
0.0543466
0.0538171
0.0532203
0.0527318
0.0520957
0.0516555
0.0509707
0.0508387
0.0519848
0.0645499
0.115221
0.136755
0.0748195
0.0600359
0.0582163
0.0574144
0.0569426
0.0563166
0.0557771
0.0552047
0.0546318
0.054102
0.0535021
0.0530133
0.0523779
0.0519389
0.0512518
0.051113
0.0522256
0.0647245
0.115451
0.13697
0.0751286
0.0603262
0.0585031
0.0577034
0.0572296
0.056606
0.0560657
0.0554941
0.0549186
0.054389
0.0537877
0.0532994
0.0526649
0.0522263
0.051536
0.0513898
0.0524723
0.0649066
0.115681
0.137176
0.0754361
0.0606181
0.0587917
0.0579944
0.0575192
0.0568977
0.056356
0.0557854
0.0552079
0.0546788
0.0540779
0.0535905
0.0529555
0.0525155
0.0518219
0.051668
0.052723
0.0650943
0.115914
0.137373
0.0757413
0.0609111
0.0590818
0.0582877