/*--------------------------------*- C++ -*----------------------------------*\
  =========                 |
  \\      /  F ield         | OpenFOAM: The Open Source CFD Toolbox
   \\    /   O peration     | Website:  https://openfoam.org
    \\  /    A nd           | Version:  8
     \\/     M anipulation  |
\*---------------------------------------------------------------------------*/
FoamFile
{
    version     2.0;
    format      ascii;
    class       volScalarField;
    location    "700";
    object      epsilon;
}
// * * * * * * * * * * * * * * * * * * * * * * * * * * * * * * * * * * * * * //

dimensions      [0 2 -3 0 0 0 0];

internalField   nonuniform List<scalar> 
8400
(
1.77209
1.73122
1.69076
1.65067
1.61091
1.57147
1.53232
1.49348
1.45497
1.41684
1.37914
1.3419
1.30517
1.26898
1.23338
1.19839
1.16404
1.13034
1.09732
1.06497
1.03332
1.00235
0.972084
0.942506
0.913616
0.885411
0.857886
0.831037
0.804858
0.779344
0.754491
0.730293
0.706744
0.68384
0.661575
0.639945
0.618946
0.598571
0.578816
0.559677
0.541148
0.523229
0.505919
0.489222
0.473148
0.457719
0.442971
0.428965
0.415779
0.403531
0.0250676
0.0250092
0.0249505
0.0248901
0.0248273
0.0247616
0.024693
0.0246216
0.0245476
0.0244713
0.0243931
0.0243133
0.0242321
0.02415
0.0240671
0.0239838
0.0239004
0.0238169
0.0237335
0.0236504
0.0235676
0.0234853
0.0234036
0.0233224
0.0232419
0.0231621
0.023083
0.0230047
0.0229274
0.0228509
0.0227755
0.0227012
0.0226279
0.0225559
0.0224851
0.0224157
0.0223478
0.0222814
0.0222166
0.0221535
0.0220921
0.0220326
0.021975
0.0219195
0.0218664
0.0218161
0.0217691
0.0217262
0.0216887
0.0216586
0.0172185
0.0172592
0.0172974
0.017333
0.0173658
0.0173955
0.0174221
0.0174455
0.0174658
0.0174831
0.0174977
0.0175096
0.0175191
0.0175262
0.0175313
0.0175343
0.0175355
0.017535
0.0175327
0.0175289
0.0175235
0.0175166
0.0175083
0.0174985
0.0174874
0.017475
0.0174612
0.0174462
0.0174301
0.0174129
0.0173946
0.0173754
0.0173554
0.0173347
0.0173133
0.0172915
0.0172692
0.0172467
0.0172241
0.0172014
0.0171789
0.0171567
0.017135
0.0171141
0.0170942
0.0170759
0.0170596
0.0170461
0.0170365
0.0170322
0.0138798
0.013917
0.0139535
0.0139886
0.0140216
0.0140522
0.0140803
0.014106
0.0141292
0.0141502
0.0141691
0.014186
0.0142011
0.0142146
0.0142265
0.0142371
0.0142463
0.0142543
0.0142611
0.0142667
0.0142713
0.0142747
0.0142771
0.0142785
0.0142789
0.0142783
0.0142768
0.0142743
0.0142711
0.014267
0.0142623
0.014257
0.0142513
0.0142451
0.0142386
0.0142319
0.014225
0.0142181
0.0142113
0.0142047
0.0141984
0.0141924
0.014187
0.0141823
0.0141786
0.0141762
0.0141755
0.0141772
0.014182
0.0141909
0.011517
0.0115515
0.0115851
0.0116174
0.0116481
0.0116771
0.0117042
0.0117295
0.0117531
0.0117752
0.0117958
0.0118151
0.0118333
0.0118504
0.0118666
0.0118818
0.0118963
0.0119099
0.0119228
0.0119349
0.0119464
0.0119571
0.0119672
0.0119765
0.0119853
0.0119934
0.0120009
0.0120078
0.0120143
0.0120204
0.0120262
0.0120317
0.0120371
0.0120424
0.0120476
0.0120529
0.0120584
0.012064
0.0120698
0.012076
0.0120824
0.0120893
0.0120967
0.0121047
0.0121135
0.0121234
0.0121346
0.0121475
0.0121628
0.012181
0.0100238
0.0100503
0.0100774
0.0101043
0.0101306
0.010156
0.0101804
0.0102038
0.0102263
0.0102479
0.0102688
0.010289
0.0103085
0.0103275
0.0103459
0.0103638
0.0103813
0.0103983
0.0104149
0.010431
0.0104467
0.0104619
0.0104767
0.0104911
0.0105052
0.0105188
0.0105322
0.0105453
0.0105581
0.0105709
0.0105836
0.0105962
0.0106089
0.0106217
0.0106346
0.0106477
0.0106611
0.0106746
0.0106884
0.0107025
0.0107168
0.0107315
0.0107465
0.0107621
0.0107783
0.0107952
0.010813
0.0108322
0.010853
0.010876
0.00927021
0.0092709
0.00927426
0.00928009
0.00928795
0.00929741
0.00930809
0.00931971
0.00933206
0.00934499
0.00935841
0.00937222
0.00938634
0.00940071
0.00941527
0.00942998
0.00944482
0.00945976
0.00947476
0.00948981
0.00950486
0.00951991
0.00953495
0.00954998
0.009565
0.00958003
0.00959508
0.00961017
0.00962533
0.0096406
0.00965599
0.00967153
0.00968725
0.00970317
0.00971933
0.00973573
0.00975236
0.00976919
0.00978621
0.00980343
0.00982093
0.00983871
0.00985681
0.00987523
0.00989411
0.00991357
0.00993376
0.009955
0.00997751
0.0100017
0.00949971
0.00943738
0.00938242
0.00933667
0.00929914
0.00926847
0.00924349
0.00922322
0.00920693
0.00919402
0.00918403
0.00917652
0.00917118
0.00916771
0.0091659
0.00916561
0.00916667
0.00916897
0.00917237
0.00917676
0.00918204
0.00918811
0.0091949
0.00920234
0.00921034
0.00921884
0.00922776
0.00923706
0.00924668
0.00925656
0.00926668
0.00927701
0.00928754
0.0092983
0.00930928
0.0093204
0.00933164
0.009343
0.00935447
0.00936613
0.00937798
0.00938995
0.00940203
0.00941409
0.00942612
0.00943814
0.00945016
0.00946218
0.00947414
0.0094861
0.0107845
0.0106324
0.0104992
0.0103854
0.0102868
0.0102001
0.0101234
0.0100552
0.00999442
0.00994006
0.00989151
0.00984802
0.00980917
0.00977448
0.00974366
0.00971637
0.00969233
0.00967129
0.00965299
0.00963722
0.00962379
0.00961248
0.00960314
0.00959563
0.00958977
0.00958537
0.00958228
0.00958042
0.00957968
0.00957994
0.00958109
0.00958302
0.0095857
0.0095891
0.00959313
0.0095976
0.00960236
0.00960743
0.00961282
0.00961837
0.00962401
0.00962946
0.00963436
0.0096385
0.00964164
0.00964356
0.00964392
0.00964252
0.00963873
0.00963209
0.0123456
0.0121657
0.0120183
0.0118897
0.0117736
0.0116669
0.0115676
0.0114748
0.0113877
0.011306
0.0112293
0.011157
0.0110886
0.011024
0.0109631
0.0109058
0.0108518
0.0108007
0.0107525
0.010707
0.0106643
0.0106243
0.0105869
0.0105519
0.0105192
0.0104888
0.0104608
0.0104354
0.0104129
0.0103932
0.0103758
0.0103606
0.0103478
0.0103378
0.0103302
0.0103249
0.0103214
0.01032
0.0103208
0.0103235
0.0103275
0.0103329
0.0103386
0.0103449
0.0103509
0.0103572
0.0103629
0.0103685
0.0103726
0.0103759
0.013075
0.0129753
0.0128898
0.0128129
0.0127411
0.0126734
0.0126085
0.0125456
0.0124841
0.012425
0.0123676
0.0123118
0.012257
0.0122037
0.0121519
0.0121016
0.0120526
0.0120049
0.0119582
0.0119123
0.011867
0.0118229
0.0117802
0.0117385
0.0116973
0.0116558
0.0116138
0.0115724
0.0115331
0.011496
0.01146
0.0114236
0.0113868
0.0113509
0.0113165
0.0112837
0.011253
0.011224
0.0111964
0.0111706
0.0111464
0.0111237
0.0111036
0.0110854
0.011069
0.0110537
0.0110404
0.011028
0.0110147
0.0109969
0.0131358
0.0130988
0.0130625
0.0130268
0.0129917
0.0129572
0.012923
0.012889
0.0128553
0.012822
0.0127891
0.0127564
0.012724
0.0126918
0.01266
0.0126285
0.0125971
0.012566
0.0125351
0.0125044
0.0124739
0.0124436
0.0124136
0.0123838
0.012354
0.0123243
0.0122947
0.0122655
0.0122369
0.0122087
0.0121805
0.0121523
0.0121243
0.0120964
0.012069
0.0120422
0.0120156
0.0119893
0.0119635
0.0119377
0.0119125
0.0118876
0.0118633
0.0118392
0.0118157
0.0117925
0.0117698
0.0117471
0.0117239
0.0116997
0.0131492
0.013127
0.013105
0.013083
0.0130612
0.0130394
0.0130177
0.012996
0.0129743
0.0129527
0.0129312
0.0129096
0.0128882
0.0128667
0.0128453
0.012824
0.0128027
0.0127815
0.0127603
0.0127392
0.0127181
0.0126971
0.012676
0.0126551
0.0126341
0.0126132
0.0125923
0.0125716
0.012551
0.0125305
0.01251
0.0124895
0.0124691
0.0124487
0.0124284
0.0124083
0.0123883
0.0123683
0.0123483
0.0123284
0.0123086
0.012289
0.0122695
0.0122502
0.012231
0.0122118
0.0121926
0.0121734
0.0121539
0.012134
0.0131557
0.0131401
0.0131245
0.0131088
0.0130931
0.0130773
0.0130615
0.0130456
0.0130297
0.0130138
0.0129979
0.012982
0.0129661
0.0129502
0.0129343
0.0129184
0.0129025
0.0128866
0.0128707
0.0128547
0.0128388
0.0128227
0.0128067
0.0127907
0.0127746
0.0127586
0.0127426
0.0127267
0.0127108
0.0126949
0.012679
0.0126631
0.0126473
0.0126315
0.0126157
0.0126
0.0125843
0.0125687
0.012553
0.0125374
0.0125218
0.0125064
0.0124909
0.0124755
0.0124602
0.0124448
0.0124294
0.012414
0.0123985
0.0123827
0.0131582
0.0131454
0.0131327
0.0131199
0.0131071
0.0130944
0.0130816
0.0130689
0.0130561
0.0130434
0.0130306
0.0130179
0.0130052
0.0129924
0.0129797
0.012967
0.0129543
0.0129416
0.0129289
0.0129162
0.0129035
0.0128907
0.012878
0.0128653
0.0128527
0.01284
0.0128274
0.0128148
0.0128022
0.0127896
0.012777
0.0127644
0.0127519
0.0127393
0.0127267
0.0127142
0.0127016
0.012689
0.0126765
0.0126639
0.0126514
0.0126389
0.0126264
0.0126139
0.0126015
0.012589
0.0125765
0.012564
0.0125514
0.0125387
0.0131613
0.0131516
0.0131419
0.0131321
0.0131222
0.0131123
0.0131024
0.0130924
0.0130824
0.0130724
0.0130623
0.0130522
0.0130421
0.013032
0.0130218
0.0130116
0.0130014
0.0129912
0.0129809
0.0129706
0.0129602
0.0129499
0.0129395
0.0129291
0.0129188
0.0129084
0.012898
0.0128876
0.0128771
0.0128667
0.0128562
0.0128458
0.0128353
0.0128248
0.0128143
0.0128038
0.0127933
0.0127827
0.0127721
0.0127616
0.012751
0.0127404
0.0127297
0.0127191
0.0127085
0.0126978
0.0126872
0.0126765
0.0126658
0.0126551
0.0131611
0.0131512
0.0131414
0.0131316
0.0131217
0.013112
0.0131022
0.0130924
0.0130827
0.0130729
0.0130632
0.0130534
0.0130437
0.013034
0.0130243
0.0130146
0.0130049
0.0129953
0.0129856
0.012976
0.0129663
0.0129567
0.0129471
0.0129376
0.012928
0.0129185
0.012909
0.0128996
0.0128901
0.0128807
0.0128712
0.0128618
0.0128524
0.012843
0.0128337
0.0128243
0.012815
0.0128058
0.0127965
0.0127873
0.0127781
0.012769
0.0127598
0.0127508
0.0127417
0.0127328
0.012724
0.0127152
0.0127067
0.0126985
0.0131642
0.0131581
0.0131522
0.0131464
0.0131407
0.0131351
0.0131296
0.013124
0.0131185
0.013113
0.0131076
0.0131022
0.0130969
0.0130917
0.0130866
0.0130815
0.0130767
0.0130719
0.0130673
0.0130628
0.0130584
0.0130541
0.01305
0.0130459
0.0130419
0.0130379
0.013034
0.0130301
0.0130262
0.0130223
0.0130184
0.0130144
0.0130105
0.0130065
0.0130026
0.0129988
0.012995
0.0129914
0.0129879
0.0129845
0.0129813
0.0129783
0.0129754
0.0129729
0.0129706
0.0129689
0.0129681
0.012969
0.0129726
0.0129809
0.0132921
0.0134132
0.0135323
0.0136495
0.0137649
0.0138785
0.0139902
0.0140999
0.0142076
0.0143132
0.0144168
0.0145184
0.014618
0.0147158
0.0148119
0.0149065
0.0149999
0.0150924
0.0151843
0.0152796
0.0153999
0.0155291
0.015656
0.0157723
0.0158777
0.0159787
0.0160787
0.0161764
0.0162691
0.0163535
0.0164277
0.0164918
0.0165508
0.0166106
0.0166715
0.0167332
0.0167954
0.0168578
0.01692
0.0169819
0.0170432
0.0171039
0.0171639
0.0172231
0.0172816
0.01734
0.0174013
0.0174969
0.0177065
0.0181101
2.86814
2.82224
2.76775
2.71763
2.67001
2.62289
2.57564
2.52827
2.48091
2.43377
2.387
2.34074
2.29503
2.24986
2.20519
2.16095
2.11706
2.07344
2.03002
1.98672
1.94356
1.90086
1.85861
1.81683
1.77554
1.73478
1.6946
1.65498
1.61593
1.57743
1.53947
1.50206
1.46517
1.42887
1.39326
1.35832
1.32402
1.29034
1.25726
1.2248
1.19295
1.16173
1.13114
1.10119
1.0719
1.04328
1.01534
0.988075
0.961509
0.93566
1.14672
1.10487
1.06575
1.02909
0.994602
0.961993
0.931002
0.901503
0.87339
0.846575
0.820979
0.796535
0.773186
0.750877
0.729558
0.709178
0.689689
0.67104
0.653183
0.636072
0.619665
0.603925
0.588817
0.574314
0.560385
0.547006
0.534148
0.521785
0.50989
0.498441
0.487416
0.476797
0.46657
0.45672
0.447235
0.438102
0.429305
0.420832
0.412668
0.404769
0.397101
0.389648
0.382392
0.375318
0.368403
0.36162
0.354929
0.348269
0.341527
0.334498
1.12226
1.04695
0.978255
0.915394
0.857851
0.805135
0.756822
0.712449
0.671611
0.633959
0.599186
0.567026
0.537244
0.509629
0.483987
0.460141
0.437932
0.417211
0.397848
0.379726
0.362745
0.346813
0.331852
0.317788
0.304554
0.292087
0.280328
0.269223
0.258723
0.248783
0.239366
0.230438
0.221969
0.213929
0.206289
0.199019
0.192093
0.185483
0.179164
0.173137
0.167395
0.161922
0.156701
0.151717
0.146954
0.142399
0.138036
0.133851
0.129831
0.12596
1.12216
1.0466
0.977469
0.914234
0.856313
0.803179
0.754352
0.709398
0.667937
0.629636
0.594202
0.561378
0.530936
0.502669
0.476388
0.451923
0.429115
0.407821
0.387915
0.369282
0.351821
0.335442
0.320065
0.305615
0.292026
0.279233
0.267177
0.255805
0.245067
0.234919
0.225321
0.216238
0.207639
0.199493
0.191774
0.184456
0.177513
0.170921
0.164658
0.158702
0.153037
0.147645
0.142512
0.137624
0.132968
0.128531
0.1243
0.12026
0.116404
0.112727
1.12216
1.04715
0.978604
0.915882
0.858375
0.805542
0.756914
0.712075
0.670664
0.632364
0.596896
0.564011
0.533488
0.505124
0.478735
0.454151
0.431219
0.409797
0.389761
0.370999
0.353411
0.336909
0.321414
0.306853
0.293157
0.280263
0.268113
0.256651
0.245828
0.2356
0.225927
0.216773
0.208108
0.199901
0.192124
0.184751
0.177755
0.171112
0.1648
0.158799
0.15309
0.147656
0.142484
0.137558
0.132867
0.128398
0.12414
0.120078
0.1162
0.112498
1.12217
1.04717
0.978603
0.915805
0.858198
0.805265
0.756547
0.711638
0.67018
0.631856
0.596384
0.563513
0.533015
0.504683
0.47833
0.453782
0.430885
0.409496
0.389491
0.370759
0.3532
0.336727
0.32126
0.306726
0.293058
0.280191
0.268067
0.25663
0.24583
0.235622
0.225968
0.216831
0.20818
0.199986
0.192221
0.184857
0.177869
0.171233
0.164926
0.158928
0.153221
0.147788
0.142614
0.137686
0.13299
0.128513
0.124245
0.120173
0.116285
0.112572
1.12217
1.04722
0.978734
0.916028
0.858519
0.805682
0.757054
0.712227
0.670841
0.63258
0.59716
0.564331
0.533863
0.50555
0.479204
0.454654
0.431744
0.410336
0.390307
0.371547
0.353959
0.337456
0.32196
0.307399
0.293705
0.280814
0.268666
0.257206
0.246383
0.236152
0.226475
0.217316
0.208643
0.200427
0.19264
0.185255
0.178247
0.171591
0.165264
0.159245
0.153517
0.148063
0.142869
0.13792
0.133204
0.128706
0.124415
0.120319
0.116406
0.112668
1.12217
1.04724
0.978765
0.916064
0.858545
0.805688
0.757034
0.712179
0.670768
0.632485
0.597049
0.564207
0.53373
0.505409
0.479055
0.454497
0.431579
0.410164
0.390128
0.371362
0.353771
0.337268
0.321775
0.307219
0.293532
0.28065
0.268511
0.257061
0.246247
0.236026
0.226357
0.217205
0.208539
0.200331
0.192551
0.185173
0.17817
0.171519
0.165196
0.159181
0.153454
0.148
0.142805
0.137855
0.133136
0.128636
0.124341
0.120239
0.11632
0.112573
1.12218
1.04725
0.978787
0.916097
0.858591
0.805748
0.757113
0.712281
0.670896
0.632642
0.597235
0.56442
0.533966
0.505663
0.479322
0.454772
0.431857
0.41044
0.390401
0.37163
0.354034
0.337525
0.322026
0.307465
0.293774
0.280886
0.268742
0.257286
0.246465
0.236235
0.226557
0.217397
0.208722
0.200504
0.192716
0.185329
0.178318
0.171657
0.165324
0.159297
0.153559
0.148093
0.142884
0.13792
0.133186
0.12867
0.124358
0.12024
0.116303
0.112538
1.12218
1.04726
0.978794
0.916105
0.8586
0.805758
0.757123
0.712292
0.670908
0.632655
0.597248
0.564431
0.533973
0.505663
0.479313
0.454752
0.431826
0.410398
0.390348
0.371569
0.353965
0.337452
0.32195
0.307388
0.293696
0.280809
0.268665
0.257209
0.246388
0.236158
0.226481
0.21732
0.208647
0.20043
0.192643
0.185258
0.178249
0.171589
0.165256
0.159229
0.153489
0.14802
0.142808
0.137839
0.133099
0.128577
0.124258
0.120131
0.116186
0.112412
1.12218
1.04726
0.978792
0.916104
0.858602
0.805765
0.757138
0.712317
0.670944
0.632702
0.597304
0.564494
0.53404
0.505733
0.479383
0.45482
0.431891
0.410461
0.39041
0.371629
0.354024
0.337511
0.322009
0.307446
0.293754
0.280866
0.26872
0.257261
0.246437
0.236204
0.226523
0.217359
0.208682
0.200462
0.192672
0.185284
0.178272
0.171609
0.165271
0.159239
0.153492
0.148016
0.142796
0.137817
0.133067
0.128533
0.124202
0.120063
0.116105
0.112318
1.12218
1.04725
0.978782
0.916094
0.858595
0.805764
0.757145
0.712332
0.670967
0.63273
0.597335
0.564524
0.534067
0.505755
0.479398
0.45483
0.431896
0.410463
0.390408
0.371627
0.354022
0.337508
0.322006
0.307443
0.29375
0.28086
0.268713
0.257251
0.246424
0.236189
0.226505
0.217338
0.208659
0.200438
0.192646
0.185257
0.178243
0.171579
0.165239
0.159203
0.153452
0.14797
0.142743
0.137756
0.132997
0.128454
0.124113
0.119963
0.115994
0.112196
1.12218
1.04724
0.978763
0.916074
0.858578
0.805754
0.757141
0.712335
0.670973
0.632736
0.597336
0.564518
0.53405
0.505726
0.479359
0.454781
0.431841
0.410403
0.390346
0.371564
0.353958
0.337444
0.321942
0.307379
0.293684
0.280794
0.268645
0.257182
0.246355
0.236118
0.226433
0.217266
0.208586
0.200365
0.192574
0.185186
0.178173
0.171509
0.16517
0.159134
0.15338
0.147895
0.142662
0.137669
0.132904
0.128353
0.124005
0.119847
0.11587
0.112062
1.12217
1.04722
0.978735
0.916045
0.858553
0.805738
0.757138
0.712344
0.670993
0.632763
0.597368
0.564551
0.534083
0.505759
0.479393
0.454817
0.431881
0.410449
0.390398
0.371621
0.35402
0.337509
0.322008
0.307445
0.293749
0.280856
0.268705
0.257238
0.246407
0.236165
0.226475
0.217303
0.208618
0.200392
0.192597
0.185205
0.178188
0.17152
0.165176
0.159133
0.153372
0.147877
0.142634
0.13763
0.132853
0.128291
0.123931
0.119761
0.115771
0.111949
1.12217
1.04719
0.978693
0.915991
0.858492
0.80567
0.757061
0.712253
0.670884
0.632632
0.597211
0.564368
0.533875
0.505528
0.479144
0.454557
0.431614
0.410178
0.390127
0.371351
0.353753
0.337245
0.321748
0.307189
0.293498
0.28061
0.268464
0.257002
0.246176
0.235939
0.226254
0.217087
0.208408
0.200188
0.192399
0.185015
0.178005
0.171344
0.165005
0.158966
0.153207
0.147712
0.142469
0.137464
0.132686
0.128122
0.123759
0.119587
0.115592
0.111766
1.12216
1.04716
0.978645
0.915941
0.858454
0.805657
0.757078
0.712302
0.670962
0.632734
0.597331
0.564501
0.534019
0.50568
0.479304
0.454724
0.431787
0.410356
0.390308
0.371532
0.353931
0.337419
0.321916
0.307349
0.29365
0.280753
0.268596
0.257125
0.246287
0.236039
0.226342
0.217164
0.208473
0.200243
0.192446
0.185053
0.178035
0.171365
0.165016
0.158966
0.153195
0.147688
0.142431
0.137414
0.132622
0.128045
0.12367
0.119484
0.115475
0.111633
1.12215
1.0471
0.978505
0.91571
0.858128
0.805236
0.756566
0.711708
0.670294
0.632003
0.596549
0.56368
0.53317
0.504817
0.478437
0.453862
0.430938
0.409525
0.389498
0.370745
0.353169
0.336682
0.321205
0.306665
0.292992
0.280121
0.267989
0.256541
0.245727
0.2355
0.225825
0.216667
0.207997
0.199787
0.192009
0.184635
0.177635
0.170981
0.164647
0.158608
0.152848
0.14735
0.142102
0.137092
0.132308
0.127738
0.123368
0.119187
0.115183
0.111343
1.12215
1.04708
0.978507
0.915791
0.858309
0.805515
0.756931
0.712136
0.670764
0.632493
0.597041
0.564161
0.533632
0.505254
0.478846
0.454239
0.431282
0.409834
0.38977
0.370982
0.353371
0.336851
0.321342
0.306772
0.293071
0.280173
0.268016
0.256543
0.245706
0.235458
0.225763
0.216588
0.207903
0.19968
0.191892
0.184508
0.1775
0.170837
0.164494
0.158448
0.15268
0.147176
0.141925
0.136913
0.132129
0.127562
0.123198
0.119025
0.115033
0.111212
1.12214
1.04653
0.97738
0.914155
0.856259
0.80316
0.75437
0.709451
0.66802
0.629742
0.594324
0.561509
0.531068
0.502795
0.476504
0.452021
0.42919
0.40787
0.387934
0.369272
0.351785
0.335387
0.319997
0.305542
0.291952
0.27916
0.267106
0.255732
0.244988
0.234832
0.225225
0.216136
0.207536
0.199397
0.19169
0.184387
0.177457
0.170872
0.164606
0.158638
0.152951
0.147532
0.142369
0.137454
0.132775
0.128323
0.124089
0.120066
0.116251
0.112651
1.12224
1.04688
0.978178
0.91533
0.85781
0.80512
0.756835
0.712491
0.671682
0.634056
0.599306
0.567165
0.537395
0.509784
0.484138
0.460281
0.438052
0.417308
0.397921
0.379778
0.362783
0.346848
0.331896
0.317852
0.304649
0.292221
0.280506
0.269449
0.259
0.249116
0.239763
0.230911
0.222536
0.214614
0.207118
0.200022
0.193297
0.186915
0.180852
0.175088
0.169609
0.164406
0.159474
0.15481
0.150412
0.146281
0.142422
0.13885
0.135603
0.132769
1.1467
1.10485
1.06575
1.02912
0.994651
0.962053
0.931056
0.90154
0.873407
0.846575
0.820972
0.796535
0.773202
0.750913
0.729608
0.709231
0.689727
0.671047
0.653148
0.635991
0.619543
0.603769
0.588638
0.574116
0.560169
0.546763
0.533868
0.521453
0.509496
0.497977
0.486882
0.476196
0.465905
0.455991
0.446433
0.437207
0.428288
0.419655
0.411289
0.403178
0.395312
0.387682
0.38028
0.373093
0.36611
0.359311
0.35268
0.346195
0.339836
0.333576
0.0632328
0.0097148
0.0110185
0.0132321
0.0142784
0.0134667
0.0111083
0.0081547
0.00554589
0.00374843
0.00273109
0.00223321
0.00203622
0.00206396
0.0023759
0.00301141
0.00378209
0.00495633
0.0108848
0.095415
0.061806
0.00965475
0.0109231
0.0131865
0.0143788
0.0137447
0.0115051
0.0085629
0.00587868
0.00398023
0.00288714
0.00235097
0.00213165
0.00212973
0.00241839
0.0030377
0.00380343
0.00498196
0.0108545
0.0945445
0.0605143
0.00959279
0.0108159
0.0131251
0.0144704
0.0140327
0.0119342
0.00901797
0.00625844
0.0042477
0.00306482
0.00248204
0.00224439
0.00222806
0.00248976
0.00307878
0.00383609
0.00508479
0.0113752
0.0958898
0.0593385
0.00952879
0.0106959
0.0130455
0.0145499
0.0143283
0.0123969
0.00952542
0.00669367
0.00455929
0.00326991
0.00262757
0.00236693
0.00233804
0.00257047
0.00312851
0.00388072
0.00521916
0.0119927
0.0973088
0.0583038
0.00946356
0.0105617
0.012944
0.0146118
0.0146275
0.0128934
0.0100914
0.00719459
0.00492561
0.00351032
0.00279162
0.00249969
0.00245683
0.00266061
0.00318816
0.00394063
0.00539235
0.0127252
0.0987995
0.0574152
0.00939754
0.0104119
0.0128166
0.0146503
0.0149249
0.0134229
0.010722
0.00777306
0.00536004
0.00379674
0.00298052
0.00264545
0.00258489
0.00276049
0.00325948
0.0040199
0.00561291
0.013586
0.100353
0.0566792
0.00933138
0.0102453
0.0126591
0.0146579
0.0152128
0.0139826
0.0114228
0.00844253
0.00587934
0.00414364
0.00320331
0.00280901
0.00273161
0.00287155
0.00334533
0.00412428
0.0058921
0.0145917
0.101959
0.0561047
0.0092663
0.0100613
0.0124675
0.0146259
0.0154807
0.014566
0.0121974
0.00921768
0.00650462
0.00457105
0.00347321
0.00299305
0.00288066
0.00299676
0.00345018
0.00426178
0.00624448
0.015763
0.103608
0.0557032
0.00920418
0.00985982
0.0122374
0.0145442
0.0157148
0.0151627
0.0130464
0.0101139
0.00726193
0.00510668
0.00381191
0.00321142
0.003047
0.00314094
0.00358079
0.00444359
0.00668898
0.0171249
0.105289
0.0554888
0.00914747
0.00964126
0.0119646
0.0144006
0.0158971
0.0157562
0.0139652
0.0111454
0.00818211
0.00578761
0.00425173
0.00348644
0.00324324
0.00331202
0.00374741
0.00468535
0.00725022
0.0187071
0.10699
0.0554767
0.00909911
0.00940684
0.0116456
0.0141827
0.0160053
0.0163226
0.0149415
0.0123222
0.00929933
0.00666193
0.00483942
0.00385374
0.00349289
0.0035242
0.00396587
0.00500918
0.00796063
0.0205453
0.108692
0.0556828
0.00906256
0.00915906
0.011279
0.0138781
0.0160135
0.0168283
0.0159496
0.0136442
0.010647
0.00778889
0.00564065
0.0043676
0.00383209
0.0038016
0.0042604
0.00544629
0.00886251
0.022681
0.110372
0.056124
0.00904219
0.00890217
0.010866
0.0134765
0.0158922
0.0172284
0.0169462
0.0150931
0.0122498
0.0092353
0.00674388
0.00511163
0.0043226
0.00418486
0.00466845
0.006041
0.0100112
0.0251619
0.112005
0.0568195
0.00904361
0.00864263
0.0104113
0.0129708
0.015611
0.017467
0.0178652
0.0166229
0.0141112
0.0110659
0.00825976
0.00620913
0.00506935
0.00474219
0.00524828
0.00685724
0.0114798
0.0280441
0.11356
0.0577892
0.00907325
0.00838889
0.00992448
0.0123606
0.0151428
0.01748
0.0186157
0.0181478
0.0161935
0.013323
0.01031
0.00782887
0.00625315
0.00565482
0.00609171
0.00798813
0.0133654
0.031394
0.114999
0.0590528
0.00913798
0.00815111
0.00942049
0.0116553
0.0144707
0.0172033
0.0190834
0.0195316
0.018393
0.0159915
0.0129949
0.0101616
0.00809472
0.00712204
0.00734537
0.00956972
0.0157953
0.0352846
0.116269
0.0606273
0.00924466
0.00794061
0.00891987
0.0108777
0.0135964
0.0165848
0.0191412
0.0205856
0.0205142
0.0189511
0.0163388
0.0133841
0.0108394
0.00932182
0.00924373
0.0117982
0.0189325
0.0397878
0.117293
0.0625249
0.00939956
0.00776897
0.00844777
0.0100649
0.0125483
0.0156024
0.0186721
0.0210818
0.0222567
0.021923
0.020207
0.0176025
0.014842
0.0127497
0.0121558
0.014948
0.0229749
0.0449603
0.117966
0.0647509
0.00960775
0.0076464
0.00803124
0.00926631
0.0113866
0.0142846
0.0176071
0.0207964
0.0232336
0.024429
0.0241805
0.0226486
0.0203427
0.0180712
0.016946
0.019391
0.0281464
0.0508163
0.118142
0.0673018
0.00987209
0.0075798
0.0076949
0.0085377
0.0102013
0.0127265
0.0159731
0.0195874
0.023054
0.0258217
0.0274587
0.0277839
0.0269474
0.0254872
0.0244382
0.0256058
0.0346732
0.0572906
0.117602
0.0701621
0.0101926
0.00757084
0.00745613
0.00793123
0.00909884
0.0110874
0.013928
0.0174948
0.0214856
0.0254655
0.0289624
0.0315867
0.0331351
0.033669
0.0336141
0.0341802
0.0427209
0.0641632
0.116009
0.0733045
0.0105666
0.00761561
0.00732098
0.00748396
0.00817872
0.00955907
0.0117516
0.014806
0.0186526
0.0230863
0.0277911
0.0324087
0.0366278
0.0402793
0.0434443
0.0466803
0.0522518
0.0709116
0.112777
0.0766906
0.0109896
0.00770549
0.00728262
0.00720853
0.00750672
0.00831142
0.00976951
0.0120105
0.0151197
0.0191068
0.0238883
0.0293
0.0351433
0.0412542
0.0475819
0.0543214
0.0620441
0.0763117
0.106801
0.080274
0.0114557
0.0078291
0.00732317
0.0070905
0.00709769
0.00743858
0.00823475
0.00961396
0.0117057
0.0146228
0.0184397
0.0231756
0.0287937
0.0352275
0.0424188
0.0504463
0.059981
0.0737066
0.0958194
0.0840066
0.0119586
0.0079748
0.00741902
0.00709515
0.00691773
0.00693854
0.00724153
0.00791758
0.00907193
0.0108183
0.0132728
0.0165405
0.0206982
0.0257919
0.0318227
0.038756
0.0466113
0.0561436
0.0742861
0.0878367
0.0124915
0.00813288
0.00754723
0.00718034
0.00690414
0.00673609
0.00672905
0.00693677
0.00742696
0.00827861
0.00958742
0.0114686
0.014056
0.0175164
0.0220592
0.0279768
0.035683
0.0457517
0.0592299
0.0917099
0.013047
0.00829664
0.00769029
0.00730898
0.00699098
0.00672873
0.00655574
0.00649909
0.00659916
0.00690431
0.00748119
0.00842376
0.00986876
0.0120302
0.0152477
0.0201017
0.0276201
0.0397487
0.0603805
0.0955743
0.0136177
0.00846228
0.00783789
0.00745587
0.0071273
0.00682677
0.00657845
0.00639248
0.00629291
0.00630755
0.00648128
0.00688293
0.00762601
0.00891081
0.0110937
0.014863
0.0216133
0.03452
0.0637684
0.0993857
0.0141971
0.00862816
0.00798536
0.00760727
0.00728211
0.00697049
0.00669424
0.00645296
0.00626207
0.00613564
0.00610312
0.0062123
0.00654941
0.00728196
0.00873349
0.0116016
0.0174748
0.0304657
0.0667797
0.103108
0.0147801
0.00879398
0.0081312
0.00775718
0.00744017
0.00712803
0.00684474
0.00658277
0.0063542
0.00616379
0.00603009
0.0059847
0.00608936
0.00647828
0.00742917
0.00960659
0.0146882
0.0275277
0.069263
0.106709
0.015361
0.00895966
0.00827512
0.00790354
0.00759537
0.00728563
0.00700304
0.00673436
0.00649175
0.00627371
0.00609164
0.00596543
0.00593658
0.00611001
0.00671593
0.00836616
0.0127444
0.0252527
0.0713099
0.110166
0.0159341
0.00912471
0.00841716
0.00804598
0.00774613
0.00743874
0.00715911
0.0068886
0.00664129
0.00641138
0.00620627
0.00603796
0.00593195
0.00596957
0.00633528
0.00758221
0.0113415
0.0233902
0.0730372
0.11346
0.0164944
0.00928875
0.00855752
0.00818498
0.00789282
0.00758698
0.00731054
0.00703959
0.00679076
0.0065553
0.00633855
0.00614818
0.00599682
0.00594907
0.00614634
0.00708602
0.0103105
0.0218395
0.0745237
0.116573
0.0170377
0.00945191
0.00869677
0.00832152
0.00803643
0.00773126
0.00745751
0.00718624
0.0069367
0.00669826
0.00647467
0.00627239
0.00609323
0.00599193
0.00606997
0.00677701
0.00954708
0.0205512
0.0758176
0.119495
0.0175615
0.00961443
0.00883561
0.00845656
0.00817779
0.0078724
0.00760078
0.0073289
0.00707853
0.00683808
0.00660969
0.00640051
0.00620324
0.00606836
0.00606085
0.00659226
0.00898031
0.0194867
0.076957
0.122225
0.0180641
0.00977653
0.00897429
0.0085907
0.00831724
0.00801093
0.00774097
0.00746814
0.0072166
0.00697446
0.006742
0.00652848
0.00631849
0.00616246
0.00609266
0.00649142
0.00856037
0.0186102
0.0779755
0.124765
0.018545
0.00993817
0.00911278
0.00872423
0.00845502
0.00814717
0.00787853
0.00760469
0.00735158
0.00710787
0.00687142
0.00665491
0.00643537
0.00626598
0.00614996
0.00644808
0.00825169
0.0178903
0.0788989
0.127117
0.0190036
0.0100991
0.00925115
0.00885723
0.0085917
0.00828191
0.00801424
0.00773911
0.0074842
0.00723899
0.00699851
0.00677976
0.00655247
0.00637476
0.0062239
0.00644494
0.00802822
0.0173017
0.0797431
0.129283
0.0194399
0.0102591
0.00938968
0.00899013
0.00872798
0.00841614
0.00814923
0.00787235
0.0076153
0.00736858
0.00712415
0.00690382
0.00666967
0.0064865
0.00630887
0.00647051
0.0078705
0.0168249
0.0805223
0.131276
0.0198553
0.0104188
0.00952914
0.0091239
0.00886472
0.00855073
0.00828415
0.00800529
0.00774572
0.0074973
0.00724888
0.00702762
0.00678722
0.00660008
0.00640099
0.00651671
0.00776371
0.0164423
0.0812503
0.13311
0.0202519
0.0105788
0.0096702
0.00925944
0.0090026
0.00868625
0.00841913
0.0081382
0.00787597
0.00762583
0.0073733
0.00715121
0.00690499
0.0067149
0.00649788
0.00657797
0.00769713
0.0161398
0.0819377
0.134798
0.0206318
0.0107396
0.00981299
0.00939703
0.00914174
0.00882274
0.00855423
0.00827108
0.008006
0.00775438
0.00749791
0.00727482
0.00702268
0.00683052
0.00659824
0.00665038
0.00766301
0.0159066
0.0825925
0.136352
0.0209964
0.0109015
0.00995753
0.00953641
0.00928182
0.00895984
0.00868948
0.00840418
0.00813601
0.00788294
0.00762275
0.00739862
0.00714039
0.00694676
0.0067015
0.00673134
0.00765521
0.0157331
0.0832213
0.13778
0.0213463
0.0110641
0.0101034
0.00967731
0.00942261
0.00909737
0.00882507
0.0085379
0.00826672
0.00801206
0.00774796
0.00752262
0.00725851
0.00706375
0.00680755
0.00681937
0.0076689
0.0156099
0.0838281
0.139092
0.0216833
0.0112275
0.0102507
0.00981975
0.00956437
0.00923603
0.00896159
0.00867267
0.00839856
0.00814239
0.00787406
0.00764709
0.0073775
0.00718166
0.00691621
0.00691351
0.0077005
0.0155288
0.0844146
0.140298
0.02201
0.0113921
0.0103997
0.00996422
0.00970773
0.00937679
0.00910015
0.00880924
0.0085318
0.00827407
0.00800137
0.00777263
0.00749792
0.00730075
0.00702717
0.00701271
0.00774712
0.0154836
0.0849835
0.141412
0.0223289
0.0115585
0.0105512
0.0101113
0.00985341
0.00952017
0.00924126
0.00894811
0.00866695
0.00840711
0.00812999
0.00789966
0.0076202
0.00742144
0.00714032
0.00711602
0.00780624
0.0154687
0.0855393
0.142451
0.0226422
0.011727
0.0107054
0.0102613
0.0100018
0.00966625
0.00938455
0.00908898
0.00880412
0.0085418
0.00826026
0.00802839
0.0077445
0.00754413
0.00725577
0.00722289
0.00787589
0.0154797
0.0860875
0.143425
0.0229508
0.0118978
0.0108623
0.0104142
0.0101529
0.0098148
0.00952972
0.00923153
0.008943
0.00867838
0.00839273
0.00815912
0.00787091
0.00766885
0.00737362
0.00733311
0.00795467
0.0155131
0.0866326
0.144337
0.0232549
0.0120707
0.0110217
0.0105698
0.0103064
0.00996538
0.0096768
0.00937603
0.00908377
0.00881702
0.0085277
0.00829214
0.00799943
0.00779546
0.00749384
0.0074466
0.00804158
0.0155669
0.0871787
0.145192
0.0235557
0.0122455
0.0111834
0.010728
0.010462
0.010118
0.00982596
0.00952287
0.00922701
0.00895807
0.0086652
0.0084275
0.00813007
0.00792386
0.00761641
0.00756332
0.00813593
0.0156394
0.0877277
0.145993