/*--------------------------------*- C++ -*----------------------------------*\
  =========                 |
  \\      /  F ield         | OpenFOAM: The Open Source CFD Toolbox
   \\    /   O peration     | Website:  https://openfoam.org
    \\  /    A nd           | Version:  8
     \\/     M anipulation  |
\*---------------------------------------------------------------------------*/
FoamFile
{
    version     2.0;
    format      ascii;
    class       surfaceScalarField;
    location    "700";
    object      phi;
}
// * * * * * * * * * * * * * * * * * * * * * * * * * * * * * * * * * * * * * //

dimensions      [1 0 -1 0 0 0 0];

internalField   nonuniform List<scalar> 
16360
(
-9.68732
-0.0296923
-9.65857
-0.0287489
-9.63078
-0.0277832
-9.60416
-0.0266129
-9.57893
-0.025217
-9.55526
-0.0236696
-9.53319
-0.0220541
-9.51274
-0.0204404
-9.49386
-0.0188763
-9.47646
-0.0173927
-9.46045
-0.0160067
-9.44571
-0.014724
-9.43216
-0.0135435
-9.41969
-0.0124612
-9.40822
-0.0114693
-9.39766
-0.01056
-9.38793
-0.00972534
-9.37898
-0.00895709
-9.37074
-0.00824826
-9.36315
-0.00759319
-9.35617
-0.00698674
-9.34975
-0.00642461
-9.34384
-0.00590477
-9.33841
-0.00542631
-9.33342
-0.00498799
-9.32882
-0.00458885
-9.32459
-0.00422897
-9.32068
-0.00390878
-9.31705
-0.00362855
-9.31367
-0.00338855
-9.31049
-0.00318987
-9.30747
-0.00303471
-9.30456
-0.00292629
-9.30171
-0.00286923
-9.29886
-0.00287044
-9.29595
-0.00294018
-9.29289
-0.0030925
-9.28957
-0.00334535
-9.28587
-0.00372272
-9.28162
-0.00425936
-9.27662
-0.00500601
-9.27057
-0.00603357
-9.26311
-0.00743894
-9.25372
-0.00936219
-9.24166
-0.0120285
-9.22583
-0.0158058
-9.20462
-0.0211922
-9.17597
-0.028646
-9.13701
-0.0389664
-0.0568679
-9.08015
-9.67882
-0.052898
-9.65368
-0.0538819
-9.62853
-0.052919
-9.60427
-0.0508584
-9.58128
-0.0481886
-9.55973
-0.0451987
-9.53968
-0.0420885
-9.52111
-0.0389991
-9.50394
-0.0360228
-9.48811
-0.0332134
-9.4735
-0.0305974
-9.46002
-0.0281843
-9.44758
-0.0259684
-9.43609
-0.0239382
-9.42548
-0.0220794
-9.41566
-0.0203761
-9.40658
-0.0188115
-9.39817
-0.0173717
-9.39038
-0.0160438
-9.38316
-0.0148162
-9.37647
-0.0136814
-9.37026
-0.0126345
-9.36448
-0.0116711
-9.35911
-0.0107872
-9.35411
-0.00998059
-9.34944
-0.0092498
-9.34507
-0.00859344
-9.34096
-0.00800969
-9.3371
-0.00749743
-9.33343
-0.00705661
-9.32995
-0.00668816
-9.32661
-0.00639413
-9.32338
-0.00617797
-9.32024
-0.00604578
-9.31714
-0.00600797
-9.31404
-0.00607998
-9.31089
-0.006283
-9.30762
-0.00664607
-9.30415
-0.0072099
-9.30037
-0.00803203
-9.29616
-0.00919196
-9.29136
-0.0107958
-9.28576
-0.0129858
-9.2791
-0.0159645
-9.27103
-0.0200425
-9.26111
-0.0256817
-9.2488
-0.0334792
-9.23326
-0.0441964
-9.21284
-0.0594193
-0.0825928
-9.18716
-9.0738
-0.0867005
-9.04347
-0.0842043
-9.01501
-0.0813671
-8.98807
-0.0777929
-8.96266
-0.0735778
-8.93884
-0.069006
-8.91659
-0.0643349
-8.89582
-0.059752
-8.87646
-0.055377
-8.85838
-0.05128
-8.84148
-0.0474871
-8.82565
-0.0440008
-8.8108
-0.0408111
-8.79683
-0.0378961
-8.78368
-0.0352306
-8.77126
-0.032791
-8.75953
-0.030554
-8.74841
-0.0284981
-8.73785
-0.0266058
-8.72781
-0.0248638
-8.71824
-0.0232613
-8.70909
-0.0217899
-8.70031
-0.020444
-8.69187
-0.0192203
-8.68373
-0.0181162
-8.67584
-0.0171289
-8.66817
-0.0162554
-8.66067
-0.0154931
-8.65332
-0.0148403
-8.64608
-0.0142955
-8.63891
-0.0138579
-8.63179
-0.0135284
-8.62468
-0.0133112
-8.61754
-0.013214
-8.61033
-0.013251
-8.60301
-0.0134431
-8.59551
-0.0138205
-8.58776
-0.0144254
-8.57967
-0.0153177
-8.57112
-0.0165786
-8.56199
-0.0183154
-8.5521
-0.0206669
-8.54123
-0.0238166
-8.52914
-0.0280158
-8.51554
-0.033616
-8.50011
-0.041091
-8.48256
-0.0510247
-8.46261
-0.064164
-8.44016
-0.0818879
-0.107367
-8.41542
-8.43855
-0.109741
-8.41189
-0.110854
-8.38506
-0.108184
-8.3594
-0.103446
-8.33531
-0.0976609
-8.31285
-0.0914492
-8.29197
-0.0852085
-8.27253
-0.079181
-8.2544
-0.0735001
-8.23744
-0.0682269
-8.22153
-0.0633805
-8.20658
-0.0589484
-8.19248
-0.0549036
-8.17915
-0.0512144
-8.16654
-0.047848
-8.15456
-0.0447702
-8.14317
-0.0419509
-8.13232
-0.0393647
-8.12194
-0.0369903
-8.112
-0.0348114
-8.10245
-0.0328155
-8.09325
-0.0309939
-8.08435
-0.0293398
-8.07572
-0.0278468
-8.06733
-0.0265085
-8.05914
-0.0253183
-8.05112
-0.0242699
-8.04325
-0.0233571
-8.03552
-0.0225734
-8.02791
-0.0219129
-8.0204
-0.0213716
-8.01299
-0.0209478
-8.00567
-0.0206446
-7.99844
-0.0204708
-7.99127
-0.0204431
-7.98416
-0.0205872
-7.97706
-0.0209403
-7.96995
-0.0215556
-7.96277
-0.0225062
-7.95546
-0.0238882
-7.94793
-0.0258246
-7.94009
-0.0284738
-7.93182
-0.0320431
-7.92299
-0.0368057
-7.91345
-0.0431174
-7.90309
-0.0514299
-7.89182
-0.0622963
-7.87956
-0.0764338
-7.86649
-0.0949981
-0.119358
-7.85451
-7.49632
-0.147927
-7.46314
-0.144026
-7.43288
-0.138435
-7.40497
-0.131348
-7.3792
-0.123418
-7.35536
-0.115273
-7.33324
-0.107327
-7.31259
-0.0998131
-7.29324
-0.092843
-7.27501
-0.0864452
-7.25777
-0.0806091
-7.24141
-0.0753024
-7.22582
-0.070479
-7.21094
-0.0660908
-7.1967
-0.0620943
-7.18302
-0.0584487
-7.16986
-0.0551199
-7.15715
-0.0520792
-7.14485
-0.0493031
-7.13289
-0.0467742
-7.12123
-0.0444785
-7.10983
-0.0424044
-7.09863
-0.040541
-7.0876
-0.0388779
-7.07671
-0.037404
-7.06592
-0.0361076
-7.05521
-0.0349762
-7.04457
-0.0339965
-7.03399
-0.0331551
-7.02347
-0.03244
-7.013
-0.0318431
-7.0026
-0.0313605
-6.99226
-0.0309945
-6.982
-0.0307555
-6.9718
-0.0306636
-6.96167
-0.0307506
-6.95157
-0.0310625
-6.94148
-0.0316624
-6.93136
-0.0326337
-6.92116
-0.0340818
-6.91083
-0.036138
-6.9003
-0.0389672
-6.88952
-0.0427783
-6.87845
-0.0478324
-6.86706
-0.0544544
-6.85542
-0.0630504
-6.84361
-0.0741122
-6.83183
-0.0882237
-6.82065
-0.1062
-0.129262
-6.81077
-6.45519
-0.174769
-6.42483
-0.174376
-6.39569
-0.167572
-6.36906
-0.157971
-6.34495
-0.147516
-6.32304
-0.137181
-6.30293
-0.127422
-6.28432
-0.118417
-6.26694
-0.11021
-6.25061
-0.102773
-6.23516
-0.0960477
-6.22049
-0.0899681
-6.20649
-0.0844678
-6.1931
-0.0794851
-6.18023
-0.0749656
-6.16783
-0.0708608
-6.15583
-0.0671308
-6.14417
-0.0637445
-6.13281
-0.0606761
-6.12169
-0.0579039
-6.11077
-0.0554084
-6.10001
-0.0531715
-6.08938
-0.0511757
-6.07886
-0.0494028
-6.06843
-0.0478339
-6.05809
-0.0464488
-6.04783
-0.0452264
-6.03767
-0.0441458
-6.02764
-0.0431882
-6.01773
-0.0423386
-6.00799
-0.0415871
-5.99842
-0.0409312
-5.98904
-0.0403776
-5.97987
-0.0399441
-5.97089
-0.0396606
-5.9621
-0.0395695
-5.95346
-0.0397277
-5.94493
-0.0402086
-5.93647
-0.0411038
-5.92803
-0.0425242
-5.91954
-0.0446033
-5.91097
-0.0475013
-5.90231
-0.0514074
-5.89356
-0.0565409
-5.88481
-0.0631653
-5.87626
-0.0715984
-5.86817
-0.0821972
-5.86101
-0.0954203
-5.85544
-0.111781
-0.131691
-5.85308
-5.26039
-0.217789
-5.22467
-0.210087
-5.19466
-0.197572
-5.16904
-0.183576
-5.14673
-0.169815
-5.12686
-0.157038
-5.10881
-0.145459
-5.09216
-0.135071
-5.07658
-0.125776
-5.06188
-0.117462
-5.0479
-0.11002
-5.03451
-0.103344
-5.02163
-0.0973453
-5.00917
-0.091945
-4.99706
-0.0870774
-4.98524
-0.0826922
-4.97363
-0.0787449
-4.96219
-0.0751962
-4.95087
-0.0720116
-4.93963
-0.06916
-4.92844
-0.0666125
-4.91728
-0.064341
-4.90615
-0.0623178
-4.89504
-0.0605142
-4.88398
-0.0589015
-4.87297
-0.0574513
-4.86205
-0.0561362
-4.85125
-0.054931
-4.84061
-0.0538155
-4.83016
-0.052777
-4.81993
-0.0518115
-4.80993
-0.0509254
-4.80017
-0.0501365
-4.79065
-0.0494745
-4.78135
-0.0489814
-4.77222
-0.0487107
-4.76324
-0.0487276
-4.75435
-0.0491107
-4.74551
-0.0499523
-4.73666
-0.0513594
-4.72778
-0.0534549
-4.71887
-0.0563772
-4.70997
-0.0602783
-4.70115
-0.0653225
-4.6926
-0.0717
-4.68457
-0.0796295
-4.6774
-0.0893531
-4.67166
-0.10119
-4.66813
-0.115336
-0.132125
-4.6677
-3.96575
-0.25236
-3.93323
-0.242604
-3.90752
-0.223276
-3.88725
-0.203828
-3.87061
-0.18645
-3.85628
-0.171354
-3.84348
-0.158247
-3.83173
-0.146811
-3.82072
-0.136776
-3.81025
-0.127925
-3.80017
-0.120087
-3.79038
-0.113123
-3.7808
-0.106922
-3.77136
-0.101392
-3.76199
-0.0964532
-3.75266
-0.0920422
-3.74332
-0.0881052
-3.73395
-0.0845908
-3.72454
-0.0814531
-3.71507
-0.0786491
-3.70557
-0.0761393
-3.69606
-0.0738856
-3.68655
-0.0718504
-3.67709
-0.0699981
-3.66771
-0.0682968
-3.65845
-0.0667177
-3.64935
-0.0652357
-3.64045
-0.063831
-3.63177
-0.062492
-3.62332
-0.0612179
-3.61511
-0.0600182
-3.60712
-0.0589127
-3.59933
-0.0579323
-3.59169
-0.0571181
-3.58417
-0.0565194
-3.5767
-0.056192
-3.56925
-0.0561973
-3.56176
-0.0566035
-3.55422
-0.0574882
-3.54663
-0.0589361
-3.53902
-0.0610372
-3.53147
-0.0638862
-3.52412
-0.0675773
-3.51719
-0.0722129
-3.51099
-0.0778958
-3.50589
-0.0847189
-3.50244
-0.092828
-3.50124
-0.102388
-3.50314
-0.113513
-0.125914
-3.50935
-2.56563
-0.307843
-2.53253
-0.275697
-2.5139
-0.24189
-2.50187
-0.215838
-2.49277
-0.195538
-2.48504
-0.179058
-2.47801
-0.165263
-2.4713
-0.153498
-2.46471
-0.143348
-2.45811
-0.134517
-2.45139
-0.126787
-2.44452
-0.119995
-2.43744
-0.114001
-2.43015
-0.108689
-2.42264
-0.103973
-2.41492
-0.0997776
-2.40702
-0.0960361
-2.39895
-0.0926854
-2.39076
-0.0896692
-2.38251
-0.0869379
-2.37423
-0.0844477
-2.36598
-0.0821618
-2.35781
-0.0800461
-2.34974
-0.0780693
-2.34182
-0.0762083
-2.33407
-0.0744477
-2.32651
-0.0727752
-2.31912
-0.0711822
-2.31191
-0.0696697
-2.30483
-0.0682513
-2.29787
-0.0669481
-2.29097
-0.0657838
-2.2841
-0.0647859
-2.27722
-0.0639904
-2.27029
-0.0634387
-2.26331
-0.0631738
-2.25627
-0.0632396
-2.24918
-0.0636795
-2.24211
-0.0645433
-2.23513
-0.0658882
-2.22837
-0.0677678
-2.222
-0.0702315
-2.21622
-0.0733224
-2.2113
-0.0770994
-2.2076
-0.0815995
-2.20549
-0.0868281
-2.20553
-0.0928504
-2.20827
-0.0996637
-2.21444
-0.107355
-0.115429
-2.22502
-1.05511
-0.379606
-1.03786
-0.292939
-1.03293
-0.246797
-1.03153
-0.217205
-1.03124
-0.195789
-1.03113
-0.179125
-1.03082
-0.165535
-1.03011
-0.154165
-1.0289
-0.144525
-1.02711
-0.136273
-1.02472
-0.12915
-1.02174
-0.122962
-1.01819
-0.117541
-1.01414
-0.112741
-1.00967
-0.108461
-1.00485
-0.104623
-0.999754
-0.101159
-0.994473
-0.0980103
-0.989072
-0.0951273
-0.983604
-0.0924736
-0.978107
-0.0900197
-0.972604
-0.0877424
-0.967103
-0.0856214
-0.961602
-0.0836347
-0.956095
-0.0817652
-0.950567
-0.0800073
-0.944996
-0.0783596
-0.939352
-0.0768217
-0.933604
-0.0753983
-0.927728
-0.0740993
-0.921709
-0.0729371
-0.915544
-0.0719194
-0.909252
-0.0710527
-0.902861
-0.0703571
-0.896417
-0.0698603
-0.889984
-0.0695856
-0.88364
-0.0695616
-0.87747
-0.0698166
-0.871589
-0.0703726
-0.866134
-0.0712755
-0.861263
-0.0725709
-0.857159
-0.0742744
-0.854038
-0.0763946
-0.852167
-0.0789439
-0.851856
-0.0818993
-0.853535
-0.085182
-0.857677
-0.0887114
-0.865069
-0.0924169
-0.876156
-0.0962381
-0.0995341
-0.892068
0.509826
-0.381004
0.5037
-0.286788
0.503714
-0.246774
0.503706
-0.21715
0.501587
-0.193621
0.498139
-0.175621
0.494275
-0.161603
0.490442
-0.150276
0.486875
-0.140911
0.48374
-0.133088
0.481124
-0.126504
0.479088
-0.120913
0.477662
-0.11611
0.476838
-0.111932
0.476586
-0.108253
0.476863
-0.10497
0.477607
-0.101996
0.47875
-0.0992683
0.48023
-0.0967361
0.481988
-0.0943634
0.483971
-0.0921285
0.486135
-0.0900189
0.488446
-0.0880248
0.490883
-0.0861369
0.493428
-0.0843464
0.496061
-0.0826439
0.498752
-0.0810262
0.50148
-0.0795029
0.504233
-0.0780922
0.507003
-0.0768101
0.509782
-0.0756636
0.512564
-0.0746546
0.515349
-0.073792
0.518131
-0.0730927
0.520893
-0.0725808
0.523627
-0.0722846
0.526327
-0.0722228
0.528966
-0.072406
0.531504
-0.0728514
0.533863
-0.0735766
0.535929
-0.0745844
0.537581
-0.0758676
0.538648
-0.0774235
0.538923
-0.079211
0.538172
-0.081135
0.535999
-0.0830788
0.53201
-0.0847592
0.525482
-0.0859348
0.515104
-0.0859744
-0.083723
0.49926
2.12507
-0.31674
2.10598
-0.267677
2.09011
-0.230875
2.07912
-0.206125
2.07119
-0.185641
2.06426
-0.168652
2.05761
-0.154916
2.05113
-0.143759
2.04483
-0.134583
2.03874
-0.126976
2.03289
-0.12064
2.0273
-0.115331
2.02201
-0.110837
2.01703
-0.106983
2.01234
-0.103626
2.00796
-0.100651
2.00386
-0.0979652
2.00002
-0.0955007
1.99642
-0.0932081
1.99305
-0.0910531
1.98989
-0.0890125
1.9869
-0.087071
1.98407
-0.0852187
1.98137
-0.0834493
1.97879
-0.08176
1.97631
-0.0801507
1.97395
-0.0786252
1.97168
-0.0771919
1.96949
-0.0758623
1.96736
-0.074648
1.96528
-0.073559
1.96326
-0.0726051
1.9613
-0.0717986
1.95938
-0.0711549
1.95751
-0.0706906
1.95566
-0.0704216
1.95381
-0.0703581
1.95193
-0.0705041
1.94997
-0.0708637
1.94787
-0.0714369
1.94554
-0.0722127
1.94286
-0.0731637
1.93968
-0.0742457
1.93583
-0.0753675
1.93107
-0.0763988
1.92512
-0.0771526
1.91756
-0.0773099
1.90805
-0.0764207
1.89604
-0.0739466
-0.0689955
1.88133
3.74399
-0.285644
3.71852
-0.242201
3.70173
-0.214074
3.68662
-0.191014
3.67301
-0.172012
3.66044
-0.156065
3.64847
-0.142927
3.63694
-0.132215
3.62583
-0.123449
3.6151
-0.116243
3.60477
-0.110304
3.59483
-0.105386
3.58526
-0.101276
3.57607
-0.097797
3.56723
-0.0947996
3.55872
-0.0921625
3.55053
-0.089792
3.54263
-0.0876196
3.53499
-0.0855967
3.52761
-0.0836891
3.52044
-0.0818735
3.51348
-0.0801348
3.5067
-0.0784638
3.50009
-0.0768561
3.49362
-0.0753117
3.4873
-0.0738338
3.4811
-0.0724284
3.47501
-0.0711041
3.46902
-0.0698712
3.46312
-0.0687413
3.45729
-0.0677262
3.45153
-0.0668384
3.44583
-0.0660916
3.44018
-0.0655002
3.43458
-0.0650773
3.42899
-0.0648305
3.42341
-0.0647633
3.41779
-0.0648755
3.41209
-0.0651607
3.40626
-0.0656024
3.40024
-0.0661784
3.39394
-0.0668525
3.38726
-0.0675602
3.38009
-0.0681962
3.37228
-0.0686101
3.36371
-0.0685659
3.35418
-0.0677835
3.34352
-0.0657878
3.33157
-0.0620013
-0.0556798
3.31829
5.48601
-0.212489
5.43893
-0.195115
5.39559
-0.170716
5.3584
-0.153815
5.32584
-0.139442
5.29672
-0.126939
5.27025
-0.116442
5.24587
-0.107828
5.22324
-0.1008
5.20209
-0.095081
5.18223
-0.0904407
5.16352
-0.086675
5.14584
-0.0836015
5.12909
-0.0810589
5.11319
-0.0789093
5.09805
-0.077041
5.08361
-0.075369
5.0698
-0.0738318
5.05656
-0.0723875
5.04386
-0.071009
5.03164
-0.0696789
5.01987
-0.0683847
5.0085
-0.0671192
4.99751
-0.0658805
4.98686
-0.0646726
4.97652
-0.0635022
4.96646
-0.0623776
4.95667
-0.0613081
4.94711
-0.0603048
4.93775
-0.0593805
4.92859
-0.0585506
4.91959
-0.0578322
4.91075
-0.0572419
4.90206
-0.0567941
4.89349
-0.0564996
4.88503
-0.056361
4.87664
-0.0563747
4.86831
-0.0565348
4.85999
-0.0568323
4.85164
-0.0572473
4.84321
-0.0577489
4.83465
-0.0582932
4.8259
-0.0588077
4.8169
-0.0591925
4.80758
-0.0593014
4.79787
-0.0588902
4.78772
-0.0576275
4.777
-0.0550546
4.76542
-0.0504387
-0.0427259
4.75247
6.68586
-0.195156
6.65524
-0.164487
6.63489
-0.150362
6.61666
-0.135573
6.6001
-0.122873
6.58518
-0.112001
6.57158
-0.102828
6.55901
-0.0952443
6.54727
-0.0890534
6.53625
-0.0840457
6.52585
-0.0800241
6.51599
-0.0768031
6.5066
-0.0742107
6.49762
-0.0720904
6.48901
-0.0703066
6.48071
-0.0687494
6.47265
-0.0673363
6.46481
-0.0660106
6.45714
-0.0647391
6.44961
-0.0635048
6.44221
-0.0622968
6.43492
-0.0611046
6.42771
-0.0599209
6.42057
-0.0587458
6.41348
-0.057586
6.40643
-0.0564514
6.39941
-0.0553507
6.3924
-0.054292
6.38539
-0.053285
6.37836
-0.0523435
6.37131
-0.0514866
6.36422
-0.0507364
6.35711
-0.0501141
6.34996
-0.0496345
6.34278
-0.0493033
6.33555
-0.0491184
6.32825
-0.0490721
6.32087
-0.0491526
6.31339
-0.049344
6.30577
-0.0496262
6.298
-0.04997
6.29004
-0.0503343
6.28188
-0.0506561
6.27353
-0.050851
6.26503
-0.0507925
6.25645
-0.0503151
6.2479
-0.0491085
6.2396
-0.04674
6.23171
-0.0425432
-0.0356046
6.22461
8.96351
-0.10754
8.90644
-0.107425
8.84841
-0.092323
8.79654
-0.0837043
8.74951
-0.0758278
8.70633
-0.0688126
8.66645
-0.0629426
8.62938
-0.0581682
8.59472
-0.0543788
8.56213
-0.0514496
8.53135
-0.0492397
8.50215
-0.0476038
8.47434
-0.0464027
8.44776
-0.0455069
8.42225
-0.0448008
8.39768
-0.0441895
8.37393
-0.0436057
8.35092
-0.0430113
8.32857
-0.0423946
8.30681
-0.0417608
8.28561
-0.0411116
8.26494
-0.0404372
8.24473
-0.0397293
8.22497
-0.03899
8.20561
-0.0382322
8.18663
-0.0374708
8.168
-0.036715
8.14968
-0.0359693
8.13164
-0.0352399
8.11385
-0.0345397
8.09626
-0.0338906
8.07885
-0.0333215
8.06161
-0.0328606
8.04451
-0.0325254
8.02753
-0.0323184
8.01066
-0.0322323
7.99385
-0.0322557
7.97708
-0.0323771
7.96032
-0.0325819
7.94355
-0.0328559
7.92675
-0.0331788
7.90994
-0.0335231
7.89314
-0.0338566
7.87641
-0.0341405
7.85991
-0.0343006
7.84387
-0.0342576
7.82861
-0.0338611
7.81459
-0.0327262
7.80199
-0.0299377
-0.0230512
7.78944
8.72992
-0.100544
8.69954
-0.0770418
8.68375
-0.0765243
8.66931
-0.0692505
8.65582
-0.0623321
8.6437
-0.0566723
8.63276
-0.0519911
8.62284
-0.048223
8.61383
-0.045359
8.60571
-0.0433155
8.59843
-0.0419538
8.59195
-0.0411212
8.58622
-0.0406688
8.58116
-0.0404549
8.5767
-0.0403477
8.57274
-0.0402379
8.56918
-0.0400507
8.56591
-0.0397511
8.56285
-0.0393445
8.55995
-0.0388694
8.55718
-0.0383452
8.55449
-0.0377523
8.55183
-0.0370784
8.54917
-0.0363362
8.54648
-0.0355559
8.54377
-0.0347614
8.54101
-0.033958
8.53819
-0.0331446
8.53528
-0.0323264
8.53227
-0.0315223
8.52916
-0.030767
8.52596
-0.0301093
8.52271
-0.0295971
8.51945
-0.0292519
8.51621
-0.0290633
8.51299
-0.0290045
8.50979
-0.0290492
8.5066
-0.0291781
8.5034
-0.0293768
8.50018
-0.0296366
8.49694
-0.0299516
8.49373
-0.0303186
8.4906
-0.0307487
8.48775
-0.0312886
8.48547
-0.0320436
8.48438
-0.0331917
8.48562
-0.0350923
8.49114
-0.0382467
8.50438
-0.0431663
-0.0509536
8.53229
13.137
-0.00700382
13.0895
-0.0294942
13.0386
-0.0256282
12.9919
-0.0226214
12.9497
-0.0200902
12.9108
-0.0177474
12.8745
-0.0157102
12.8405
-0.014185
12.8084
-0.0132689
12.778
-0.0129312
12.7492
-0.0130683
12.7216
-0.0135491
12.6952
-0.0142402
12.6697
-0.015012
12.6451
-0.015742
12.6212
-0.0163272
12.5978
-0.0167007
12.5749
-0.016841
12.5523
-0.0167877
12.5301
-0.0166564
12.5082
-0.0164974
12.4867
-0.0162416
12.4655
-0.0158535
12.4445
-0.0153541
12.4237
-0.0148037
12.4032
-0.0142444
12.3829
-0.0136716
12.3628
-0.0130666
12.343
-0.0124217
12.3232
-0.0117487
12.3035
-0.0110843
12.2839
-0.0104947
12.2644
-0.0100553
12.2449
-0.00979383
12.2256
-0.0096806
12.2063
-0.00967113
12.187
-0.00973309
12.1676
-0.00984952
12.1483
-0.0100128
12.1289
-0.010218
12.1094
-0.0104627
12.0898
-0.0107523
12.0701
-0.0111062
12.0504
-0.0115639
12.0306
-0.0122531
12.0108
-0.013416
11.9913
-0.0155761
11.9727
-0.019649
11.9559
-0.0263762
-0.0357727
11.9407
11.4605
0.0182636
11.4246
0.00635016
11.3884
0.0105719
11.3528
0.0130193
11.3191
0.0136432
11.2876
0.0137948
11.2582
0.013679
11.2309
0.0131301
11.2056
0.0120747
11.1821
0.0105727
11.1603
0.00875322
11.14
0.00675285
11.1211
0.00469637
11.1033
0.00271421
11.0866
0.000946379
11.0708
-0.000487824
11.0556
-0.00151431
11.0408
-0.0021018
11.0263
-0.00224791
11.0116
-0.00200594
10.9969
-0.00175963
10.9823
-0.00172803
10.9682
-0.00172991
10.9545
-0.0016631
10.9411
-0.001471
10.9281
-0.00117238
10.9152
-0.000820578
10.9026
-0.000449623
10.8903
-6.86298e-05
10.8782
0.000329734
10.8664
0.000752165
10.8547
0.0012037
10.843
0.001623
10.8314
0.00188094
10.8197
0.00196522
10.8081
0.00196934
10.7964
0.00194283
10.7847
0.0018954
10.7729
0.00182557
10.7609
0.00173488
10.7488
0.00163575
10.7365
0.00154257
10.7239
0.00145827
10.711
0.0013907
10.6973
0.00134844
10.6826
0.00131149
10.6658
0.00126927
10.6455
0.000641795
10.6215
-0.00243094
-0.00818084
10.5939
-5.10202
-5.09567
-5.08509
-5.07206
-5.05841
-5.04461
-5.03093
-5.01779
-5.00572
-4.99515
-4.9864
-4.97965
-4.97496
-4.97225
-4.97132
-4.97181
-4.97334
-4.97545
-4.97771
-4.97972
-4.98149
-4.98323
-4.98497
-4.98664
-4.98811
-4.98928
-4.99009
-4.99053
-4.99059
-4.99025
-4.98949
-4.98827
-4.98664
-4.98474
-4.98277
-4.98079
-4.97884
-4.97695
-4.97512
-4.9734
-4.97177
-4.97025
-4.96879
-4.96741
-4.96607
-4.96476
-4.96349
-4.96286
-4.96527
-4.97343
0.406426
-0.00852178
0.409398
-0.00297841
0.411543
-0.00215135
0.412581
-0.00104502
0.412904
-0.000329237
0.412856
4.13678e-05
0.41261
0.000240367
0.412245
0.000358262
0.411808
0.000430535
0.411327
0.000474362
0.410821
0.000500344
0.410299
0.000515146
0.40977
0.000522728
0.409238
0.000525437
0.408707
0.000524752
0.40818
0.000521655
0.407656
0.00051683
0.40714
0.000510751
0.40663
0.000503728
0.406127
0.000495937
0.405634
0.000487451
0.405149
0.000478255
0.404675
0.000468272
0.404211
0.000457393
0.40376
0.000445501
0.403321
0.000432474
0.402897
0.00041818
0.402488
0.000402468
0.402097
0.000385138
0.401725
0.000365908
0.401374
0.000344431
0.401048
0.000320343
0.400748
0.000293191
0.40048
0.000262507
0.400246
0.000227403
0.400053
0.000187019
0.399907
0.000140428
0.399814
8.64779e-05
0.399785
2.37844e-05
0.399828
-4.96285e-05
0.399959
-0.000136455
0.400193
-0.000240074
0.400551
-0.000364749
0.401061
-0.000516043
0.401758
-0.000702139
0.402694
-0.000938149
0.40395
-0.00125606
0.40566
-0.00172067
0.408056
-0.00244903
-0.0036342
0.411561
0.393844
-0.00446768
0.392995
-0.00214183
0.391576
-0.00074348
0.390828
-0.000308412
0.390469
1.8277e-05
0.390278
0.000220613
0.39019
0.000316701
0.390174
0.000362555
0.390208
0.000385487
0.390275
0.0003959
0.390365
0.000398935
0.390471
0.000397786
0.390588
0.000394294
0.390712
0.00038942
0.390842
0.000383665
0.390975
0.000377288
0.39111
0.000370405
0.391246
0.000363028
0.391384
0.000355097
0.391522
0.000346502
0.391661
0.000337089
0.391801
0.000326673
0.391943
0.00031504
0.392087
0.000301947
0.392235
0.000287117
0.392386
0.000270228
0.392542
0.000250906
0.392705
0.000228731
0.392876
0.000203187
0.393057
0.00017361
0.393252
0.000139248
0.393462
9.94882e-05
0.393691
5.33963e-05
0.393942
-2.91193e-07
0.394222
-6.29611e-05
0.394534
-0.000136165
0.394886
-0.000221822
0.395284
-0.000322307
0.395737
-0.0004405
0.396257
-0.000580276
0.396856
-0.000746356
0.397551
-0.000944838
0.39836
-0.00118409
0.399308
-0.00147537
0.400423
-0.00183278
0.40174
-0.00227349
0.403301
-0.00282265
0.405164
-0.00353216
0.407408
-0.00451542
-0.00596297
0.410066
0.394409
-0.000977771
0.393253
-0.000996179
0.393047
-0.000547491
0.393065
-0.000337519
0.393285
-0.000211895
0.393584
-8.85598e-05
0.39388
1.06946e-05
0.39415
8.26366e-05
0.394389
0.000136176
0.394598
0.000176581
0.39478
0.000206705
0.394939
0.000228731
0.395079
0.000244445
0.395203
0.000255195
0.395315
0.00026196
0.395417
0.000265449
0.395511
0.000266173
0.3956
0.000264481
0.395684
0.000260586
0.395767
0.000254587
0.395847
0.000246479
0.395928
0.00023617
0.39601
0.00022348
0.396094
0.000208147
0.396181
0.000189824
0.396274
0.000168089
0.396372
0.000142447
0.396479
0.000112374
0.396595
7.72173e-05
0.396723
3.6014e-05
0.396865
-1.22515e-05
0.397024
-6.87051e-05
0.397203
-0.000134702
0.397405
-0.000211917
0.397634
-0.00030208
0.397896
-0.000407522
0.398196
-0.000531125
0.398541
-0.000676333
0.398938
-0.000847351
0.399398
-0.00104937
0.399931
-0.00128866
0.40055
-0.00157306
0.401271
-0.00191306
0.402114
-0.0023238
0.403102
-0.00282711
0.404259
-0.00345097
0.405599
-0.00422509
0.407124
-0.00517995
0.408849
-0.0063698
-0.00791972
0.410867
0.3975
-0.000577971
0.397311
-0.000818123
0.397375
-0.000621643
0.39743
-0.000401618
0.397446
-0.000237759
0.397445
-9.75059e-05
0.397427
1.82821e-05
0.397396
0.000104257
0.397357
0.000165122
0.397316
0.000207618
0.397276
0.000236523
0.39724
0.000255193
0.397208
0.000266172
0.397182
0.00027136
0.397162
0.000272117
0.397149
0.000269396
0.397141
0.000263844
0.39714
0.000255878
0.397145
0.000245729
0.397156
0.000233472
0.397174
0.000219043
0.397199
0.000202257
0.39723
0.00018282
0.397268
0.00016033
0.397314
0.000134279
0.397368
0.000104036
0.397433
6.88926e-05
0.397507
2.81943e-05
0.397594
-1.90219e-05
0.397695
-7.37706e-05
0.39781
-0.000137228
0.397943
-0.000211036
0.398096
-0.000296998
0.398272
-0.000397162
0.398475
-0.000513944
0.398708
-0.000650313
0.398978
-0.000809859
0.399289
-0.000996882
0.399649
-0.00121661
0.400066
-0.00147543
0.400549
-0.00178109
0.401109
-0.00214273
0.401756
-0.00257108
0.402504
-0.00307971
0.40337
-0.00368843
0.404373
-0.00442764
0.405525
-0.00533718
0.406805
-0.00645356
0.408157
-0.00780044
-0.0094243
0.409644
0.397552
-0.000230939
0.397102
-0.000377743
0.396786
-0.000315799
0.396574
-0.000199128
0.396434
-0.000107787
0.396362
-3.54087e-05
0.396345
2.53818e-05
0.396366
7.33352e-05
0.396412
0.000108883
0.396475
0.000134669
0.396549
0.000152979
0.396629
0.000165345
0.396713
0.000172896
0.396798
0.000176511
0.396883
0.000176841
0.396969
0.000174344
0.397053
0.00016932
0.397138
0.000161931
0.397221
0.000152219
0.397305
0.000140111
0.397389
0.000125422
0.397474
0.00010786
0.39756
8.70369e-05
0.397648
6.24734e-05
0.397739
3.35779e-05
0.397834
-3.94691e-07
0.397934
-4.03374e-05
0.39804
-8.72119e-05
0.398154
-0.000142098
0.398277
-0.000206107
0.398411
-0.000280684
0.398558
-0.000367669
0.398721
-0.00046917
0.398902
-0.000587647
0.399105
-0.000726012
0.399333
-0.000887745
0.399591
-0.001077
0.399884
-0.00129869
0.400217
-0.00155873
0.400597
-0.00186424
0.401032
-0.00222408
0.40153
-0.00264908
0.402099
-0.0031519
0.402746
-0.00374625
0.403478
-0.00444737
0.404306
-0.0052766
0.405244
-0.0062682
0.406285
-0.00746486
0.407357
-0.00889404
-0.0105691
0.408479
0.397787
-0.000118343
0.397627
-0.000227573
0.397541
-0.000240359
0.397529
-0.000196423
0.397553
-0.000142306
0.397597
-8.91768e-05
0.397651
-3.78633e-05
0.397706
8.43364e-06
0.397758
4.70823e-05
0.397805
7.77401e-05
0.397847
0.000101111
0.397884
0.000118029
0.397918
0.000129307
0.397949
0.00013571
0.397978
0.000137908
0.398006
0.000136437
0.398034
0.000131688
0.398063
0.000123905
0.398092
0.000113191
0.398123
9.95044e-05
0.398156
8.26712e-05
0.398192
6.23896e-05
0.398231
3.82374e-05
0.398274
9.6873e-06
0.398322
-2.38688e-05
0.398376
-6.32016e-05
0.398435
-0.000109214
0.398501
-0.000163095
0.398576
-0.000226033
0.39866
-0.000299394
0.398755
-0.000384838
0.398862
-0.000484372
0.398984
-0.000600361
0.399123
-0.000735583
0.399281
-0.000893319
0.399461
-0.00107746
0.399668
-0.00129265
0.399904
-0.00154433
0.400175
-0.00183889
0.400485
-0.00218373
0.40084
-0.00258765
0.401247
-0.00306158
0.401711
-0.00361923
0.402239
-0.0042766
0.40283
-0.00504975
0.403484
-0.0059542
0.404206
-0.0070111
0.405004
-0.00825421
0.405822
-0.00971543
-0.0114029
0.406643
0.397838
-5.66929e-05
0.397721
-0.000121176
0.397612
-0.000140645
0.397526
-0.000120191
0.397458
-8.48737e-05
0.397407
-4.77406e-05
0.397372
-1.25685e-05
0.397352
1.84661e-05
0.397346
4.37511e-05
0.397351
6.28858e-05
0.397366
7.63433e-05
0.397389
8.48296e-05
0.39742
8.90171e-05
0.397456
8.95007e-05
0.397498
8.67694e-05
0.397543
8.11818e-05
0.397592
7.29588e-05
0.397644
6.21844e-05
0.397699
4.88088e-05
0.397756
3.26509e-05
0.397816
1.34153e-05
0.397878
-9.30139e-06
0.397942
-3.60401e-05
0.39801
-6.74533e-05
0.398081
-0.000104289
0.398155
-0.000147391
0.398235
-0.000197731
0.398318
-0.000256533
0.398408
-0.000325164
0.398505
-0.000405188
0.398609
-0.000498452
0.398722
-0.000607138
0.398847
-0.000733811
0.398983
-0.000881486
0.399135
-0.0010537
0.399303
-0.00125464
0.39949
-0.00148925
0.3997
-0.0017634
0.399936
-0.00208396
0.400202
-0.00245883
0.4005
-0.00289684
0.400835
-0.0034081
0.401211
-0.00400493
0.401633
-0.004703
0.402103
-0.00552022
0.402612
-0.00647306
0.403156
-0.0075759
0.403744
-0.00884965
0.404346
-0.010322
-0.0120056
0.404941
0.397869
-2.58364e-05
0.397802
-6.4576e-05
0.397737
-8.56493e-05
0.397691
-8.36184e-05
0.397666
-6.93767e-05
0.397659
-5.10755e-05
0.397669
-3.20536e-05
0.397691
-1.39962e-05
0.397724
1.77988e-06
0.397762
1.44823e-05
0.397805
2.38988e-05
0.39785
3.01106e-05
0.397896
3.32807e-05
0.397942
3.35881e-05
0.397988
3.11966e-05
0.398033
2.62183e-05
0.398078
1.86848e-05
0.398122
8.53347e-06
0.398165
-4.39922e-06
0.398209
-2.03757e-05
0.398252
-3.97479e-05
0.398296
-6.29532e-05
0.398341
-9.05472e-05
0.398387
-0.000123205
0.398435
-0.000161746
0.398485
-0.000207067
0.398538
-0.000260217
0.398595
-0.000322442
0.398655
-0.000395177
0.398721
-0.00048009
0.398792
-0.000579135
0.39887
-0.000694606
0.398957
-0.000829197
0.399052
-0.000986075
0.399158
-0.00116895
0.399276
-0.00138219
0.399409
-0.00163086
0.399557
-0.00192097
0.399725
-0.00225955
0.399913
-0.00265485
0.400124
-0.00311625
0.400359
-0.00365391
0.400621
-0.00427887
0.400911
-0.00500434
0.401233
-0.00584688
0.401581
-0.00682433
0.401943
-0.00795095
0.402322
-0.00924019
0.402704
-0.0107112
-0.0123762
0.403066
0.39788
-6.7636e-06
0.397832
-2.64541e-05
0.397779
-4.24003e-05
0.397732
-4.65426e-05
0.397696
-4.2864e-05
0.397671
-3.54604e-05
0.397656
-2.66893e-05
0.39765
-1.79708e-05
0.397652
-1.0396e-05
0.397662
-4.70558e-06
0.397677
-1.24309e-06
0.397698
-9.50012e-08
0.397722
-1.23054e-06
0.397751
-4.58103e-06
0.397782
-1.00838e-05
0.397817
-1.77228e-05
0.397853
-2.75577e-05
0.397892
-3.9735e-05
0.397932
-5.44965e-05
0.397974
-7.21655e-05
0.398018
-9.31536e-05
0.398063
-0.000117964
0.39811
-0.000147181
0.398159
-0.00018151
0.39821
-0.000221793
0.398262
-0.000268987
0.398316
-0.000324203
0.398373
-0.000388736
0.398433
-0.000464082
0.398495
-0.000551983
0.398561
-0.000654466
0.398631
-0.000773898
0.398706
-0.000913047
0.398786
-0.00107517
0.398872
-0.00126408
0.398965
-0.00148426
0.399066
-0.00174092
0.399175
-0.00204007
0.399295
-0.00238861
0.399426
-0.00279464
0.399569
-0.00326761
0.399726
-0.00381813
0.399895
-0.0044574
0.400076
-0.00519712
0.40027
-0.00605111
0.400476
-0.00703593
0.400684
-0.00816702
0.40089
-0.00945624
0.401087
-0.0109173
-0.0125616
0.401263
0.397886
7.23794e-06
0.397847
2.6703e-06
0.397802
-7.67757e-06
0.397761
-1.57968e-05
0.397731
-2.1621e-05
0.397711
-2.55563e-05
0.397703
-2.81652e-05
0.397705
-3.00369e-05
0.397717
-3.17488e-05
0.397736
-3.37626e-05
0.397761
-3.64223e-05
0.397792
-3.99788e-05
0.397825
-4.46118e-05
0.397861
-5.04637e-05
0.397899
-5.76731e-05
0.397938
-6.64147e-05
0.397978
-7.69141e-05
0.398018
-8.94559e-05
0.398058
-0.000104384
0.398099
-0.000122106
0.398139
-0.000143094
0.398179
-0.0001679
0.398219
-0.000197146
0.39826
-0.000231557
0.3983
-0.000271981
0.398341
-0.000319392
0.398382
-0.000374918
0.398424
-0.000439867
0.398466
-0.000515751
0.398509
-0.000604328
0.398553
-0.000707638
0.398598
-0.000828057
0.398644
-0.000968359
0.398692
-0.00113179
0.398741
-0.00132217
0.398791
-0.00154398
0.398844
-0.00180249
0.398899
-0.00210373
0.398955
-0.00245457
0.399014
-0.00286277
0.399074
-0.00333731
0.399137
-0.00388861
0.3992
-0.0045282
0.399261
-0.00526793
0.399319
-0.00612007
0.399374
-0.00709898
0.399419
-0.00821992