/*--------------------------------*- C++ -*----------------------------------*\
  =========                 |
  \\      /  F ield         | OpenFOAM: The Open Source CFD Toolbox
   \\    /   O peration     | Website:  https://openfoam.org
    \\  /    A nd           | Version:  8
     \\/     M anipulation  |
\*---------------------------------------------------------------------------*/
FoamFile
{
    version     2.0;
    format      ascii;
    class       volScalarField;
    location    "700";
    object      T;
}
// * * * * * * * * * * * * * * * * * * * * * * * * * * * * * * * * * * * * * //

dimensions      [0 0 0 1 0 0 0];

internalField   nonuniform List<scalar> 
8400
(
301.914
301.904
301.899
301.89
301.881
301.869
301.857
301.842
301.827
301.81
301.793
301.774
301.755
301.735
301.714
301.694
301.673
301.652
301.632
301.612
301.593
301.575
301.557
301.542
301.527
301.514
301.503
301.493
301.485
301.479
301.475
301.473
301.473
301.475
301.479
301.485
301.493
301.502
301.514
301.526
301.541
301.556
301.573
301.591
301.61
301.629
301.649
301.67
301.69
301.711
301.968
301.941
301.916
301.889
301.861
301.831
301.801
301.769
301.737
301.704
301.67
301.636
301.601
301.567
301.532
301.498
301.464
301.431
301.398
301.367
301.336
301.307
301.279
301.252
301.227
301.204
301.182
301.162
301.144
301.128
301.113
301.101
301.09
301.081
301.074
301.069
301.065
301.063
301.063
301.064
301.067
301.071
301.077
301.083
301.091
301.1
301.11
301.121
301.132
301.144
301.854
301.814
301.779
301.742
301.704
301.666
301.627
301.587
301.548
301.508
301.468
301.429
301.39
301.351
301.313
301.276
301.239
301.204
301.17
301.137
301.106
301.075
301.047
301.02
300.994
300.97
300.948
300.927
300.908
300.89
300.874
300.86
300.847
300.836
300.826
300.817
300.811
300.805
300.801
300.798
300.796
300.795
300.796
300.797
300.8
300.803
300.808
300.814
300.82
300.828
301.54
301.5
301.464
301.427
301.39
301.352
301.314
301.276
301.238
301.201
301.164
301.127
301.091
301.056
301.022
300.989
300.956
300.925
300.896
300.867
300.84
300.814
300.789
300.766
300.744
300.723
300.704
300.686
300.67
300.654
300.64
300.628
300.616
300.606
300.596
300.588
300.581
300.575
300.57
300.565
300.562
300.56
300.558
300.557
300.557
300.558
300.559
300.561
300.564
300.568
301.092
301.062
301.037
301.01
300.983
300.956
300.928
300.9
300.872
300.845
300.818
300.791
300.765
300.739
300.714
300.69
300.667
300.645
300.623
300.603
300.584
300.565
300.548
300.531
300.516
300.501
300.488
300.475
300.464
300.453
300.443
300.434
300.426
300.419
300.412
300.406
300.401
300.397
300.393
300.39
300.388
300.386
300.385
300.384
300.384
300.385
300.386
300.387
300.39
300.393
300.638
300.623
300.611
300.598
300.585
300.571
300.556
300.541
300.526
300.511
300.496
300.481
300.466
300.452
300.438
300.424
300.411
300.398
300.386
300.374
300.363
300.352
300.342
300.333
300.324
300.315
300.308
300.3
300.293
300.287
300.281
300.276
300.271
300.267
300.263
300.26
300.257
300.254
300.252
300.25
300.248
300.247
300.246
300.246
300.245
300.246
300.246
300.247
300.248
300.249
300.285
300.28
300.279
300.276
300.273
300.269
300.265
300.261
300.256
300.251
300.246
300.241
300.235
300.23
300.225
300.22
300.215
300.21
300.205
300.2
300.196
300.191
300.187
300.183
300.18
300.176
300.173
300.17
300.167
300.164
300.162
300.16
300.158
300.156
300.154
300.153
300.152
300.15
300.149
300.149
300.148
300.148
300.147
300.147
300.147
300.147
300.147
300.148
300.149
300.15
300.098
300.097
300.099
300.1
300.101
300.102
300.102
300.102
300.102
300.102
300.101
300.101
300.1
300.099
300.099
300.098
300.097
300.096
300.095
300.094
300.093
300.093
300.092
300.091
300.09
300.089
300.089
300.088
300.087
300.087
300.086
300.086
300.085
300.085
300.084
300.084
300.084
300.083
300.083
300.083
300.083
300.083
300.083
300.083
300.083
300.083
300.083
300.084
300.084
300.085
300.028
300.027
300.028
300.029
300.03
300.031
300.032
300.033
300.034
300.034
300.035
300.035
300.036
300.036
300.037
300.037
300.037
300.038
300.038
300.038
300.038
300.038
300.039
300.039
300.039
300.039
300.039
300.039
300.039
300.04
300.04
300.04
300.04
300.04
300.04
300.04
300.041
300.041
300.041
300.041
300.041
300.041
300.042
300.042
300.042
300.043
300.043
300.044
300.045
300.046
300.009
300.007
300.008
300.008
300.009
300.01
300.011
300.011
300.012
300.012
300.013
300.013
300.014
300.014
300.015
300.015
300.016
300.016
300.016
300.017
300.017
300.018
300.018
300.018
300.019
300.019
300.019
300.019
300.02
300.02
300.02
300.02
300.021
300.021
300.021
300.021
300.021
300.022
300.022
300.022
300.022
300.023
300.023
300.023
300.024
300.024
300.025
300.025
300.026
300.027
300.001
300.002
300.002
300.003
300.003
300.004
300.004
300.005
300.005
300.005
300.006
300.006
300.007
300.007
300.008
300.008
300.008
300.009
300.009
300.01
300.01
300.011
300.011
300.011
300.012
300.012
300.012
300.013
300.013
300.014
300.014
300.014
300.015
300.015
300.015
300.016
300.016
300.016
300.017
300.017
300.017
300.018
300.018
300.019
300.019
300.019
300.02
300.02
300.021
300.021
300.002
300.002
300.002
300.003
300.003
300.004
300.004
300.005
300.005
300.006
300.006
300.007
300.007
300.008
300.008
300.009
300.009
300.01
300.01
300.011
300.011
300.012
300.012
300.012
300.013
300.013
300.014
300.014
300.015
300.015
300.015
300.016
300.016
300.017
300.017
300.017
300.018
300.018
300.019
300.019
300.019
300.02
300.02
300.021
300.021
300.022
300.022
300.023
300.023
300.024
300.003
300.004
300.004
300.005
300.006
300.006
300.007
300.008
300.009
300.009
300.01
300.011
300.012
300.012
300.013
300.014
300.014
300.015
300.015
300.016
300.017
300.017
300.018
300.018
300.019
300.019
300.02
300.021
300.021
300.021
300.022
300.022
300.023
300.023
300.024
300.024
300.025
300.025
300.026
300.026
300.027
300.027
300.028
300.028
300.029
300.029
300.03
300.03
300.031
300.031
300.009
300.011
300.012
300.013
300.014
300.015
300.016
300.017
300.018
300.018
300.019
300.02
300.021
300.021
300.022
300.023
300.023
300.024
300.024
300.025
300.026
300.026
300.027
300.027
300.028
300.028
300.029
300.029
300.03
300.03
300.031
300.031
300.032
300.032
300.033
300.033
300.033
300.034
300.034
300.035
300.035
300.036
300.036
300.037
300.038
300.038
300.039
300.039
300.04
300.04
300.004
300.004
300.004
300.003
300.004
300.004
300.005
300.005
300.006
300.007
300.008
300.009
300.01
300.011
300.012
300.013
300.014
300.014
300.015
300.016
300.017
300.018
300.019
300.02
300.022
300.023
300.024
300.025
300.026
300.027
300.028
300.029
300.03
300.031
300.032
300.033
300.034
300.035
300.036
300.037
300.038
300.039
300.04
300.042
300.043
300.044
300.045
300.046
300.047
300.048
300.02
300.024
300.027
300.031
300.034
300.037
300.04
300.043
300.045
300.048
300.05
300.053
300.055
300.057
300.059
300.061
300.063
300.065
300.066
300.068
300.069
300.071
300.072
300.074
300.075
300.077
300.078
300.079
300.08
300.082
300.083
300.084
300.085
300.086
300.087
300.088
300.089
300.091
300.092
300.093
300.093
300.094
300.095
300.096
300.097
300.098
300.099
300.099
300.1
300.1
300.002
300.001
299.998
299.995
299.994
299.992
299.992
299.991
299.99
299.99
299.99
299.99
299.99
299.99
299.991
299.991
299.991
299.991
299.991
299.991
299.992
299.992
299.992
299.992
299.993
299.993
299.993
299.994
299.994
299.995
299.995
299.996
299.996
299.997
299.997
299.998
299.999
299.999
300
300.001
300.002
300.003
300.004
300.005
300.006
300.006
300.007
300.008
300.008
300.007
300.034
300.039
300.044
300.049
300.054
300.059
300.065
300.07
300.074
300.079
300.084
300.089
300.094
300.099
300.103
300.107
300.112
300.116
300.12
300.124
300.128
300.132
300.135
300.139
300.143
300.146
300.15
300.153
300.157
300.16
300.163
300.167
300.17
300.173
300.177
300.18
300.183
300.187
300.19
300.193
300.196
300.199
300.202
300.205
300.208
300.211
300.214
300.217
300.22
300.223
300.004
300.006
300.007
300.008
300.008
300.009
300.01
300.011
300.012
300.014
300.015
300.016
300.018
300.019
300.02
300.022
300.023
300.024
300.025
300.026
300.028
300.029
300.03
300.031
300.032
300.033
300.034
300.036
300.037
300.038
300.039
300.04
300.041
300.042
300.043
300.045
300.046
300.047
300.049
300.05
300.052
300.053
300.054
300.056
300.057
300.058
300.06
300.061
300.064
300.072
302.206
302.2
302.195
302.19
302.185
302.18
302.174
302.168
302.163
302.158
302.153
302.148
302.144
302.14
302.137
302.133
302.131
302.128
302.126
302.124
302.122
302.12
302.118
302.117
302.116
302.115
302.115
302.114
302.114
302.114
302.114
302.114
302.114
302.114
302.115
302.115
302.116
302.117
302.118
302.119
302.121
302.122
302.124
302.126
302.128
302.13
302.132
302.134
302.136
302.139
303.147
303.143
303.139
303.135
303.131
303.127
303.123
303.12
303.116
303.112
303.109
303.105
303.102
303.098
303.095
303.092
303.088
303.085
303.082
303.079
303.075
303.072
303.069
303.066
303.063
303.06
303.057
303.054
303.051
303.048
303.045
303.043
303.04
303.037
303.034
303.032
303.029
303.026
303.024
303.021
303.018
303.016
303.013
303.011
303.009
303.007
303.004
303.003
303.001
303
303.15
303.15
303.15
303.15
303.15
303.149
303.149
303.149
303.149
303.149
303.148
303.148
303.148
303.147
303.147
303.147
303.146
303.146
303.145
303.145
303.145
303.144
303.144
303.143
303.143
303.142
303.142
303.141
303.141
303.141
303.14
303.14
303.139
303.139
303.138
303.138
303.137
303.137
303.136
303.136
303.135
303.135
303.135
303.134
303.134
303.133
303.133
303.133
303.133
303.132
303.15
303.15
303.15
303.15
303.15
303.15
303.15
303.15
303.15
303.15
303.15
303.15
303.15
303.15
303.15
303.15
303.15
303.15
303.15
303.15
303.15
303.15
303.15
303.15
303.15
303.15
303.15
303.15
303.15
303.149
303.149
303.149
303.149
303.149
303.149
303.149
303.149
303.149
303.149
303.149
303.149
303.149
303.149
303.149
303.149
303.149
303.149
303.149
303.149
303.149
303.15
303.15
303.15
303.15
303.15
303.15
303.15
303.15
303.15
303.15
303.15
303.15
303.15
303.15
303.15
303.15
303.15
303.15
303.15
303.15
303.15
303.15
303.15
303.15
303.15
303.15
303.15
303.15
303.15
303.15
303.15
303.15
303.15
303.15
303.15
303.15
303.15
303.15
303.15
303.15
303.15
303.15
303.15
303.15
303.15
303.15
303.15
303.15
303.15
303.15
303.15
303.15
303.15
303.15
303.15
303.15
303.15
303.15
303.15
303.15
303.15
303.15
303.15
303.15
303.15
303.15
303.15
303.15
303.15
303.15
303.15
303.15
303.15
303.15
303.15
303.15
303.15
303.15
303.15
303.15
303.15
303.15
303.15
303.15
303.15
303.15
303.15
303.15
303.15
303.15
303.15
303.15
303.15
303.15
303.15
303.15
303.15
303.15
303.15
303.15
303.15
303.15
303.15
303.15
303.15
303.15
303.15
303.15
303.15
303.15
303.15
303.15
303.15
303.15
303.15
303.15
303.15
303.15
303.15
303.15
303.15
303.15
303.15
303.15
303.15
303.15
303.15
303.15
303.15
303.15
303.15
303.15
303.15
303.15
303.15
303.15
303.15
303.15
303.15
303.15
303.15
303.15
303.15
303.15
303.15
303.15
303.15
303.15
303.15
303.15
303.15
303.15
303.15
303.15
303.15
303.15
303.15
303.15
303.15
303.15
303.15
303.15
303.15
303.15
303.15
303.15
303.15
303.15
303.15
303.15
303.15
303.15
303.15
303.15
303.15
303.15
303.15
303.15
303.15
303.15
303.15
303.15
303.15
303.15
303.15
303.15
303.15
303.15
303.15
303.15
303.15
303.15
303.15
303.15
303.15
303.15
303.15
303.15
303.15
303.15
303.15
303.15
303.15
303.15
303.15
303.15
303.15
303.15
303.15
303.15
303.15
303.15
303.15
303.15
303.15
303.15
303.15
303.15
303.15
303.15
303.15
303.15
303.15
303.15
303.15
303.15
303.15
303.15
303.15
303.15
303.15
303.15
303.15
303.15
303.15
303.15
303.15
303.15
303.15
303.15
303.15
303.15
303.15
303.15
303.15
303.15
303.15
303.15
303.15
303.15
303.15
303.15
303.15
303.15
303.15
303.15
303.15
303.15
303.15
303.15
303.15
303.15
303.15
303.15
303.15
303.15
303.15
303.15
303.15
303.15
303.15
303.15
303.15
303.15
303.15
303.15
303.15
303.15
303.15
303.15
303.15
303.15
303.15
303.15
303.15
303.15
303.15
303.15
303.15
303.15
303.15
303.15
303.15
303.15
303.15
303.15
303.15
303.15
303.15
303.15
303.15
303.15
303.15
303.15
303.15
303.15
303.15
303.15
303.15
303.15
303.15
303.15
303.15
303.15
303.15
303.15
303.15
303.15
303.15
303.15
303.15
303.15
303.15
303.15
303.15
303.15
303.15
303.15
303.15
303.15
303.15
303.15
303.15
303.15
303.15
303.15
303.15
303.15
303.15
303.15
303.15
303.15
303.15
303.15
303.15
303.15
303.15
303.15
303.15
303.15
303.15
303.15
303.15
303.15
303.15
303.15
303.15
303.15
303.15
303.15
303.15
303.15
303.15
303.15
303.15
303.15
303.15
303.15
303.15
303.15
303.15
303.15
303.15
303.15
303.15
303.15
303.15
303.15
303.15
303.15
303.15
303.15
303.15
303.15
303.15
303.15
303.15
303.15
303.15
303.15
303.15
303.15
303.15
303.15
303.15
303.15
303.15
303.15
303.15
303.15
303.15
303.15
303.15
303.15
303.15
303.15
303.15
303.15
303.15
303.15
303.15
303.15
303.15
303.15
303.15
303.15
303.15
303.15
303.15
303.15
303.15
303.15
303.15
303.15
303.15
303.15
303.15
303.15
303.15
303.15
303.15
303.15
303.15
303.15
303.15
303.15
303.15
303.15
303.15
303.15
303.15
303.15
303.15
303.15
303.15
303.15
303.15
303.15
303.15
303.15
303.15
303.15
303.15
303.15
303.15
303.15
303.15
303.15
303.15
303.15
303.15
303.15
303.15
303.15
303.15
303.15
303.15
303.15
303.15
303.15
303.15
303.15
303.15
303.15
303.15
303.15
303.15
303.15
303.15
303.15
303.15
303.15
303.15
303.15
303.15
303.15
303.15
303.15
303.15
303.15
303.15
303.15
303.15
303.15
303.15
303.15
303.15
303.15
303.15
303.15
303.15
303.15
303.15
303.15
303.15
303.15
303.15
303.15
303.15
303.15
303.15
303.15
303.15
303.15
303.15
303.15
303.15
303.15
303.15
303.15
303.15
303.15
303.15
303.15
303.15
303.15
303.15
303.15
303.15
303.15
303.15
303.15
303.15
303.15
303.15
303.15
303.15
303.15
303.15
303.15
303.15
303.15
303.15
303.15
303.15
303.15
303.15
303.15
303.15
303.15
303.15
303.15
303.15
303.15
303.15
303.15
303.15
303.15
303.15
303.15
303.15
303.15
303.15
303.15
303.15
303.15
303.15
303.15
303.15
303.15
303.15
303.15
303.15
303.15
303.15
303.15
303.15
303.15
303.15
303.15
303.15
303.15
303.15
303.15
303.15
303.15
303.15
303.15
303.15
303.15
303.15
303.15
303.15
303.15
303.15
303.15
303.15
303.15
303.15
303.15
303.15
303.15
303.15
303.15
303.15
303.15
303.15
303.15
303.15
303.15
303.15
303.15
303.15
303.15
303.15
303.15
303.15
303.15
303.15
303.15
303.15
303.15
303.15
303.15
303.15
303.15
303.15
303.15
303.15
303.15
303.15
303.15
303.15
303.15
303.15
303.15
303.15
303.15
303.15
303.15
303.15
303.15
303.15
303.15
303.15
303.15
303.15
303.15
303.15
303.15
303.15
303.15
303.15
303.15
303.15
303.15
303.15
303.15
303.15
303.15
303.15
303.15
303.15
303.15
303.15
303.15
303.15
303.15
303.15
303.15
303.15
303.15
303.15
303.15
303.15
303.15
303.15
303.15
303.15
303.15
303.15
303.15
303.15
303.15
303.15
303.15
303.15
303.15
303.15
303.15
303.15
303.15
303.15
303.15
303.15
303.15
303.15
303.15
303.15
303.15
303.15
303.15
303.15
303.15
303.15
303.15
303.15
303.15
303.15
303.15
303.15
303.15
303.15
303.15
303.15
303.15
303.15
303.15
303.15
303.15
303.15
303.15
303.15
303.15
303.15
303.15
303.15
303.149
303.149
303.149
303.149
303.149
303.149
303.149
303.149
303.149
303.149
303.149
303.149
303.149
303.149
303.149
303.148
303.148
303.148
303.148
303.148
303.147
303.147
303.147
303.15
303.15
303.15
303.15
303.15
303.149
303.149
303.149
303.149
303.149
303.148
303.148
303.148
303.147
303.147
303.147
303.146
303.146
303.146
303.145
303.145
303.144
303.144
303.143
303.143
303.142
303.142
303.141
303.141
303.14
303.14
303.139
303.139
303.138
303.138
303.137
303.136
303.136
303.135
303.134
303.134
303.133
303.132
303.131
303.13
303.129
303.128
303.127
303.126
303.124
303.147
303.143
303.139
303.135
303.131
303.127
303.123
303.12
303.116
303.112
303.109
303.105
303.102
303.098
303.095
303.092
303.088
303.085
303.082
303.079
303.075
303.072
303.069
303.066
303.063
303.06
303.057
303.054
303.051
303.048
303.045
303.043
303.04
303.037
303.034
303.031
303.029
303.026
303.023
303.021
303.018
303.015
303.013
303.01
303.008
303.005
303.002
303
302.997
302.995
302.405
301.637
301.049
300.746
300.609
300.53
300.452
300.354
300.236
300.111
299.99
299.89
299.825
299.815
299.914
300.219
300.713
301.221
301.624
301.924
302.404
301.643
301.067
300.773
300.64
300.564
300.487
300.391
300.277
300.155
300.038
299.938
299.869
299.851
299.946
300.249
300.734
301.23
301.63
301.936
302.405
301.652
301.088
300.803
300.674
300.6
300.524
300.43
300.32
300.202
300.089
299.991
299.922
299.9
299.99
300.287
300.758
301.241
301.636
301.944
302.408
301.666
301.113
300.835
300.711
300.637
300.563
300.472
300.366
300.253
300.145
300.051
299.983
299.96
300.041
300.33
300.784
301.253
301.644
301.953
302.414
301.684
301.143
300.871
300.749
300.677
300.605
300.517
300.415
300.307
300.205
300.115
300.05
300.028
300.098
300.377
300.813
301.267
301.652
301.962
302.422
301.706
301.176
300.91
300.79
300.719
300.649
300.564
300.466
300.365
300.269
300.185
300.124
300.103
300.161
300.427
300.843
301.282
301.661
301.971
302.434
301.733
301.213
300.952
300.834
300.764
300.695
300.614
300.521
300.426
300.336
300.258
300.203
300.187
300.23
300.48
300.876
301.299
301.671
301.98
302.449
301.766
301.256
300.998
300.881
300.811
300.744
300.666
300.579
300.49
300.406
300.335
300.285
300.27
300.304
300.537
300.911
301.317
301.683
301.99
302.468
301.804
301.304
301.048
300.931
300.861
300.796
300.722
300.64
300.557
300.479
300.414
300.369
300.354
300.383
300.597
300.948
301.337
301.695
301.999
302.49
301.848
301.357
301.103
300.984
300.915
300.852
300.781
300.704
300.627
300.556
300.496
300.454
300.44
300.467
300.661
300.988
301.359
301.708
302.009
302.515
301.898
301.416
301.162
301.042
300.972
300.911
300.844
300.772
300.701
300.635
300.581
300.543
300.53
300.556
300.729
301.031
301.384
301.723
302.018
302.544
301.955
301.482
301.227
301.104
301.033
300.973
300.91
300.844
300.778
300.718
300.67
300.636
300.625
300.649
300.8
301.078
301.41
301.738
302.027
302.577
302.019
301.556
301.298
301.17
301.098
301.04
300.981
300.92
300.86
300.806
300.762
300.733
300.725
300.748
300.875
301.128
301.44
301.755
302.036
302.612
302.09
301.636
301.376
301.243
301.168
301.111
301.056
300.999
300.945
300.898
300.86
300.836
300.831
300.853
300.955
301.182
301.472
301.774
302.045
302.65
302.167
301.725
301.461
301.322
301.244
301.187
301.135
301.084
301.035
300.993
300.961
300.943
300.941
300.965
301.041
301.241
301.508
301.794
302.054
302.69
302.25
301.823
301.555
301.409
301.327
301.269
301.219
301.172
301.13
301.093
301.067
301.053
301.055
301.079
301.132
301.304
301.548
301.815
302.062
302.731
302.338
301.929
301.659
301.505
301.416
301.357
301.309
301.266
301.228
301.197
301.175
301.164
301.168
301.188
301.23
301.374
301.592
301.838
302.07
302.771
302.43
302.042
301.772
301.61
301.515
301.453
301.405
301.365
301.331
301.304
301.286
301.278
301.281
301.299
301.334
301.449
301.639
301.863
302.077
302.81
302.525
302.163
301.895
301.726
301.623
301.557
301.508
301.47
301.438
301.415
301.4
301.394
301.398
301.415
301.448
301.53
301.691
301.89
302.084
302.846
302.619
302.289
302.028
301.853
301.743
301.671
301.62
301.582
301.552
301.53
301.517
301.513
301.519
301.536
301.567
301.618
301.747
301.918
302.09
302.878
302.709
302.416
302.168
301.991
301.874
301.796
301.742
301.703
301.673
301.652
301.639
301.635
301.641
301.655
301.678
301.711
301.808
301.949
302.095
302.904
302.794
302.542
302.312
302.137
302.016
301.934
301.876
301.834
301.803
301.782
301.768
301.763
301.766
301.776
301.794
301.821
301.873
301.981
302.1
302.924
302.87
302.662
302.456
302.29
302.168
302.082
302.021
301.977
301.945
301.922
301.907
301.9
301.899
301.905
301.917
301.933
301.951
302.015
302.102
302.938
302.936
302.772
302.594
302.442
302.325
302.239
302.177
302.132
302.099
302.075
302.058
302.049
302.045
302.047
302.053
302.061
302.068
302.069
302.103
302.946
302.989
302.867
302.721
302.588
302.48
302.399
302.338
302.294
302.261
302.238
302.222
302.212
302.207
302.206
302.209
302.214
302.218
302.213
302.152
302.948
303.03
302.946
302.832
302.721
302.627
302.553
302.498
302.456
302.427
302.405
302.391
302.382
302.378
302.377
302.379
302.382
302.384
302.382
302.368
302.946
303.06
303.009
302.924
302.836
302.759
302.696
302.647
302.611
302.585
302.567
302.556
302.549
302.546
302.545
302.545
302.545
302.541
302.531
302.514
302.94
303.081
303.056
302.996
302.93
302.87
302.819
302.779
302.749
302.728
302.714
302.705
302.7
302.698
302.696
302.693
302.685
302.67
302.643
302.588
302.931
303.093
303.089
303.049
303.003
302.958
302.919
302.888
302.865
302.849
302.838
302.832
302.828
302.825
302.821
302.813
302.798
302.771
302.723
302.631
302.92
303.1
303.111
303.087
303.056
303.025
302.996
302.974
302.956
302.944
302.937
302.932
302.929
302.925
302.919
302.907
302.885
302.846
302.781
302.656
302.909
303.102
303.126
303.112
303.092
303.072
303.052
303.036
303.024
303.016
303.01
303.007
303.004
303
302.992
302.977
302.951
302.903
302.823
302.672
302.898
303.102
303.134
303.128
303.116
303.103
303.091
303.08
303.072
303.066
303.062
303.06
303.057
303.053
303.045
303.029
303
302.947
302.856
302.683
302.886
303.1
303.139
303.138
303.131
303.123
303.116
303.109
303.104
303.1
303.097
303.095
303.093
303.089
303.081
303.066
303.037
302.981
302.882
302.69
302.875
303.098
303.141
303.143
303.14
303.135
303.131
303.127
303.124
303.121
303.12
303.118
303.116
303.113
303.106
303.091
303.064
303.008
302.904
302.696
302.865
303.095
303.142
303.146
303.144
303.142
303.14
303.137
303.136
303.134
303.133
303.132
303.131
303.128
303.122
303.109
303.084
303.029
302.922
302.7
302.856
303.091
303.143
303.148
303.147
303.146
303.145
303.144
303.142
303.142
303.141
303.14
303.139
303.137
303.132
303.122
303.099
303.046
302.937
302.704
302.847
303.088
303.142
303.148
303.148
303.148
303.147
303.147
303.146
303.146
303.145
303.145
303.144
303.143
303.139
303.13
303.11
303.06
302.949
302.707
302.84
303.086
303.142
303.149
303.149
303.149
303.149
303.148
303.148
303.148
303.148
303.147
303.147
303.146
303.143
303.136
303.118
303.071
302.96
302.71
302.833
303.083
303.142
303.149
303.149
303.149
303.149
303.149
303.149
303.149
303.149
303.149
303.148
303.148
303.146
303.14
303.124
303.081
302.97
302.713
302.827
303.081
303.141
303.149
303.15
303.15
303.15
303.15
303.15
303.15
303.15
303.149
303.149
303.149
303.147
303.142
303.129
303.088
302.978
302.715
302.822
303.079
303.141
303.149
303.15
303.15
303.15
303.15
303.15
303.15
303.15
303.15
303.15
303.149
303.148
303.144
303.132
303.094
302.985
302.718
302.818
303.077
303.141
303.149
303.15
303.15
303.15
303.15
303.15
303.15
303.15
303.15
303.15
303.15
303.149
303.146
303.135
303.099
302.991
302.72
302.815
303.075
303.141
303.149
303.15
303.15
303.15
303.15
303.15
303.15
303.15
303.15
303.15
303.15
303.149
303.147
303.137
303.104
302.997
302.722
302.812
303.074
303.14
303.149
303.15
303.15
303.15
303.15
303.15
303.15
303.15
303.15
303.15
303.15
303.149
303.147
303.139
303.107
303.001
302.724
302.81
303.073
303.14
303.149
303.15
303.15
303.15
303.15
303.15
303.15
303.15
303.15
303.15
303.15
303.15
303.148
303.14
303.11
303.005
302.726
302.808
303.072
303.14
303.149
303.15
303.15
303.15
303.15
303.15
303.15
303.15
303.15
303.15
303.15
303.15
303.148
303.141
303.113
303.009
302.729
302.807
303.071
303.14
303.149
303.15
303.15
303.15
303.15
303.15
303.15
303.15
303.15
303.15
303.15
303.15
303.148
303.142
303.115
303.012
302.731
302.807
303.07
303.14
303.149
303.15
303.15
303.15
303.15
303.15
303.15
303.15
303.15
303.15
303.15
303.15
303.149
303.143
303.116
303.015
302.733
302.806
303.07
303.14
303.149
303.15
303.15
303.15
303.15
303.15
303.15
303.15
303.15
303.15
303.15
303.15
303.149
303.143
303.118
303.018
302.735
302.806
303.07
303.139
303.149
303.15
303.15
303.15
303.15
303.15
303.15
303.15
303.15
303.15
303.15
303.15
303.149
303.144
303.119
303.02
302.737
302.807
303.069
303.139
303.149
303.15
303.15
303.15
303.15
303.15
303.15
303.15
303.15
303.15
303.15
303.15
303.149
303.144
303.12
303.022
302.739
302.807
303.069
303.139
303.149
303.15
303.15
303.15
303.15
303.15
303.15
303.15
303.15
303.15
303.15
303.15
303.149
303.144
303.121
303.024
302.741
302.808
303.069
303.139
303.149
303.15
303.15
303.15
303.15
303.15
303.15
303.15
303.15
303.15
303.15
303.15
303.149
303.145
303.122
303.025
302.742
302.809
303.069
303.139
303.149
303.15
303.15
303.15
303.15
303.15
303.15
303.15
303.15
303.15
303.15
303.15
303.149
303.145
303.123
303.027
302.744
302.811
303.069
303.139
303.149
303.15
303.15
303.15
303.15
303.15
303.15
303.15
303.15
303.15
303.15
303.15
303.149
303.145
303.124
303.028
302.746
302.812
303.069
303.139
303.149
303.15
303.15
303.15
303.15
303.15
303.15
303.15
303.15
303.15
303.15
303.15
303.149
303.145
303.124
303.03
302.748
302.813
303.069
303.139
303.149
303.15
303.15
303.15
303.15
303.15
303.15
303.15
303.15
303.15
303.15
303.15
303.149
303.145
303.125
303.031
302.75
302.815
303.07
303.139
303.149
303.15
303.15
303.15
303.15
303.15
303.15
303.15
303.15
303.15
303.15
303.15
303.149
303.146
303.125
303.032
302.752
302.817
303.07
303.139
303.149
303.15
303.15
303.15
303.15
303.15
303.15
303.15
303.15
303.15
303.15
303.15
303.149
303.146
303.126
303.033
302.754
302.818
303.07
303.139
303.149
303.15
303.15
303.15
303.15
303.15
303.15
303.15
303.15
303.15
303.15
303.15
303.149
303.146
303.126
303.035
302.756
302.82
303.071
303.139
303.149
303.15
303.15
303.15
303.15
303.15
303.15
303.15
303.15
303.15
303.15
303.15
303.149
303.146
303.126
303.036
302.758
302.821
303.071
303.139
303.149
303.15
303.15
303.15
303.15
303.15
303.15
303.15
303.15
303.15
303.15
303.15
303.149
303.146
303.127
303.037
302.76
302.823
303.072
303.14
303.149
303.15
303.15
303.15
303.15
303.15
303.15
303.15
303.15
303.15
303.15
303.15
303.149
303.146
303.127
303.038
302.762
302.825
303.072
303.14
303.149
303.15
303.15
303.15
303.15
303.15
303.15
303.15
303.15
303.15
303.15
303.15
303.149
303.146
303.127
303.039
302.764
302.826
303.073
303.14
303.149
303.15
303.15
303.15
303.15
303.15
303.15
303.15
303.15
303.15
303.15
303.15
303.149
303.146
303.128
303.04
302.766
302.828
303.074
303.14
303.149
303.15
303.15
303.15
303.15
303.15
303.15
303.15
303.15
303.15
303.15
303.15
303.149
303.146
303.128
303.041
302.768
302.829
303.074
303.14
303.149
303.15
303.15
303.15
303.15
303.15
303.15
303.15
303.15
303.15
303.15
303.15
303.149
303.146
303.128
303.042
302.77
302.831
303.075
303.14
303.149
303.15
303.15
303.15
303.15
303.15
303.15
303.15
303.15
303.15
303.15
303.15
303.149
303.146
303.128
303.042
302.772
302.833
303.075
303.14
303.149
303.15
303.15
303.15
303.15
303.15
303.15
303.15
303.15
303.15
303.15
303.15
303.149
303.146
303.129
303.043
302.774
302.834
303.076
303.14
303.149
303.15
303.15
303.15
303.15
303.15
303.15
303.15
303.15
303.15
303.15
303.15
303.149
303.146
303.129
303.044
302.776
302.836
303.077
303.14
303.149
303.15
303.15
303.15
303.15
303.15
303.15
303.15
303.15
303.15
303.15
303.15
303.149
303.146
303.129
303.045
302.778
302.838
303.077
303.14
303.149
303.15
303.15
303.15
303.15
303.15
303.15
303.15
303.15
303.15
303.15
303.15
303.149
303.146
303.129
303.046
302.78
302.839
303.078
303.141
303.149
303.15
303.15
303.15
303.15
303.15
303.15
303.15
303.15
303.15
303.15
303.15
303.149
303.147
303.13
303.047
302.782
302.841
303.079
303.141
303.149
303.15
303.15
303.15
303.15
303.15
303.15
303.15
303.15
303.15
303.15
303.15
303.149
303.147
303.13
303.048
302.784
302.843
303.08
303.141
303.149
303.15
303.15
303.15
303.15
303.15
303.15
303.15
303.15
303.15
303.15
303.15
303.149
303.147
303.13
303.049
302.786
302.844
303.08
303.141
303.149
303.15
303.15
303.15
303.15
303.15
303.15
303.15
303.15
303.15
303.15
303.15
303.149
303.147
303.13
303.049
302.788
302.846
303.081
303.141
303.149
303.15
303.15
303.15
303.15
303.15
303.15
303.15
303.15
303.15
303.15
303.15
303.149
303.147
303.13
303.05
302.79
302.848
303.082
303.141
303.149
303.15
303.15
303.15
303.15
303.15
303.15
303.15
303.15
303.15
303.15
303.15
303.15
303.147
303.131
303.051
302.792
302.849
303.082
303.141
303.149
303.15
303.15
303.15
303.15
303.15
303.15
303.15
303.15
303.15
303.15
303.15
303.15
303.147
303.131
303.052
302.794
302.851
303.083
303.141
303.149
303.15
303.15
303.15
303.15
303.15
303.15
303.15
303.15
303.15
303.15
303.15
303.15
303.147
303.131
303.053
302.796
302.853
303.084
303.142
303.149
303.15
303.15
303.15
303.15
303.15
303.15
303.15
303.15
303.15
303.15
303.15
303.15
303.147
303.131
303.054
302.798
302.854
303.084
303.142
303.149
303.15
303.15
303.15
303.15
303.15
303.15
303.15
303.15
303.15
303.15
303.15
303.15
303.147
303.131
303.055
302.8
302.856
303.085
303.142
303.149
303.15
303.15
303.15
303.15
303.15
303.15
303.15
303.15
303.15
303.15
303.15
303.15
303.147
303.132
303.055
302.802
302.858
303.086
303.142
303.149
303.15
303.15
303.15
303.15
303.15
303.15
303.15
303.15
303.15
303.15
303.15
303.15
303.147
303.132
303.056
302.804
302.859
303.086
303.142
303.149
303.15
303.15
303.15
303.15
303.15
303.15
303.15
303.15
303.15
303.15
303.15
303.15
303.147
303.132
303.057
302.806
302.861
303.087
303.142
303.149
303.15
303.15
303.15
303.15
303.15
303.15
303.15
303.15
303.15
303.15
303.15
303.15
303.147
303.132
303.058
302.808
302.863
303.088
303.142
303.149
303.15
303.15
303.15
303.15
303.15
303.15
303.15
303.15
303.15
303.15
303.15
303.15
303.147
303.132
303.059
302.81
302.864
303.089
303.143
303.149
303.15
303.15
303.15
303.15
303.15
303.15
303.15
303.15
303.15
303.15
303.15
303.15
303.147
303.133
303.06
302.812
302.866
303.089
303.143
303.149
303.15
303.15
303.15
303.15
303.15
303.15
303.15
303.15
303.15
303.15
303.15
303.15
303.147
303.133
303.06
302.814
302.868
303.09
303.143
303.149
303.15
303.15
303.15
303.15
303.15
303.15
303.15
303.15
303.15
303.15
303.15
303.15
303.147
303.133
303.061
302.816
302.87
303.091
303.143
303.149
303.15
303.15
303.15
303.15
303.15
303.15
303.15
303.15
303.15
303.15
303.15
303.15
303.147
303.133
303.062
302.818
302.871
303.091
303.143
303.149
303.15
303.15
303.15
303.15
303.15
303.15
303.15
303.15
303.15
303.15
303.15
303.15
303.147
303.133
303.063
302.821
302.873
303.092
303.143
303.149
303.15
303.15
303.15
303.15
303.15
303.15
303.15
303.15
303.15
303.15
303.15
303.15
303.147
303.134
303.064
302.823
302.875
303.093
303.143
303.149
303.15
303.15
303.15
303.15
303.15
303.15
303.15
303.15
303.15
303.15