/*--------------------------------*- C++ -*----------------------------------*\
  =========                 |
  \\      /  F ield         | OpenFOAM: The Open Source CFD Toolbox
   \\    /   O peration     | Website:  https://openfoam.org
    \\  /    A nd           | Version:  8
     \\/     M anipulation  |
\*---------------------------------------------------------------------------*/
FoamFile
{
    version     2.0;
    format      ascii;
    class       volVectorField;
    location    "700";
    object      U;
}
// * * * * * * * * * * * * * * * * * * * * * * * * * * * * * * * * * * * * * //

dimensions      [0 1 -1 0 0 0 0];

internalField   nonuniform List<vector> 
8400
(
(-97.5738 -1.89684 1.31018e-14)
(-97.1947 -1.92854 1.29577e-14)
(-96.9163 -1.96265 1.28137e-14)
(-96.6418 -1.99628 1.26671e-14)
(-96.3808 -2.0286 1.25237e-14)
(-96.1347 -2.05975 1.23843e-14)
(-95.9047 -2.09006 1.22436e-14)
(-95.691 -2.11989 1.21045e-14)
(-95.4933 -2.14949 1.19671e-14)
(-95.311 -2.1791 1.1829e-14)
(-95.143 -2.20888 1.16943e-14)
(-94.9885 -2.23896 1.15642e-14)
(-94.8462 -2.26946 1.1434e-14)
(-94.7153 -2.30044 1.13058e-14)
(-94.5948 -2.33194 1.11795e-14)
(-94.4837 -2.36401 1.10524e-14)
(-94.3813 -2.39667 1.09295e-14)
(-94.2869 -2.42997 1.08113e-14)
(-94.1998 -2.46394 1.06927e-14)
(-94.1197 -2.49861 1.0576e-14)
(-94.0458 -2.53401 1.04614e-14)
(-93.9779 -2.57016 1.03517e-14)
(-93.9154 -2.60712 1.02476e-14)
(-93.858 -2.64494 1.01427e-14)
(-93.8054 -2.68368 1.00362e-14)
(-93.757 -2.7234 9.93601e-15)
(-93.7126 -2.76418 9.84594e-15)
(-93.6716 -2.80615 9.75719e-15)
(-93.6337 -2.84944 9.66457e-15)
(-93.5985 -2.89422 9.57862e-15)
(-93.5655 -2.94069 9.49666e-15)
(-93.5344 -2.98909 9.41614e-15)
(-93.5046 -3.03969 9.3365e-15)
(-93.4758 -3.0928 9.25775e-15)
(-93.4473 -3.14881 9.1795e-15)
(-93.4186 -3.20813 9.10295e-15)
(-93.3889 -3.27129 9.02849e-15)
(-93.3573 -3.33891 8.957e-15)
(-93.3228 -3.41171 8.88887e-15)
(-93.2838 -3.49063 8.82363e-15)
(-93.2385 -3.57679 8.76095e-15)
(-93.1845 -3.6717 8.70134e-15)
(-93.1186 -3.77732 8.64426e-15)
(-93.0361 -3.89631 8.5873e-15)
(-92.9307 -4.03249 8.52971e-15)
(-92.795 -4.19141 8.47176e-15)
(-92.6205 -4.38083 8.41229e-15)
(-92.3857 -4.61171 8.34409e-15)
(-92.0324 -4.90458 8.26592e-15)
(-91.4893 -5.30505 8.17639e-15)
(-97.4486 1.25381 2.21331e-14)
(-97.1316 1.29098 2.20934e-14)
(-96.8814 1.34038 2.20538e-14)
(-96.6313 1.39692 2.2012e-14)
(-96.3928 1.45763 2.19685e-14)
(-96.1682 1.52039 2.19231e-14)
(-95.9585 1.5836 2.18743e-14)
(-95.7639 1.64614 2.18227e-14)
(-95.5838 1.70732 2.17684e-14)
(-95.4174 1.76674 2.17107e-14)
(-95.2639 1.82422 2.16516e-14)
(-95.1223 1.87977 2.15912e-14)
(-94.9915 1.9335 2.15284e-14)
(-94.8707 1.9856 2.14641e-14)
(-94.7589 2.03631 2.13984e-14)
(-94.6555 2.08584 2.13315e-14)
(-94.5596 2.13437 2.12637e-14)
(-94.4708 2.18207 2.11949e-14)
(-94.3885 2.2291 2.11251e-14)
(-94.3121 2.27558 2.10544e-14)
(-94.2412 2.32164 2.09827e-14)
(-94.1754 2.36734 2.09101e-14)
(-94.1144 2.41274 2.08415e-14)
(-94.0577 2.45791 2.07762e-14)
(-94.005 2.50291 2.07069e-14)
(-93.9559 2.54783 2.06316e-14)
(-93.9101 2.59273 2.05656e-14)
(-93.8672 2.63768 2.05043e-14)
(-93.8268 2.68279 2.04381e-14)
(-93.7886 2.72816 2.03727e-14)
(-93.7524 2.77391 2.03092e-14)
(-93.7178 2.8202 2.02443e-14)
(-93.6845 2.86716 2.01764e-14)
(-93.6522 2.91496 2.0104e-14)
(-93.6206 2.96373 2.00265e-14)
(-93.5893 3.01361 1.99462e-14)
(-93.5578 3.06468 1.98635e-14)
(-93.5256 3.11696 1.978e-14)
(-93.4919 3.17045 1.96984e-14)
(-93.4559 3.225 1.96184e-14)
(-93.4164 3.2803 1.95406e-14)
(-93.372 3.33579 1.94676e-14)
(-93.3208 3.39059 1.93987e-14)
(-93.2603 3.44324 1.93353e-14)
(-93.1873 3.49115 1.92779e-14)
(-93.0986 3.53014 1.92242e-14)
(-92.9914 3.55435 1.91778e-14)
(-92.8581 3.55556 1.91379e-14)
(-92.6758 3.51353 1.91048e-14)
(-92.4156 3.37278 1.90828e-14)
(-91.431 -2.23262 1.45569e-14)
(-91.0165 -2.26461 1.45526e-14)
(-90.7278 -2.28664 1.45449e-14)
(-90.448 -2.29978 1.45329e-14)
(-90.1841 -2.30635 1.45173e-14)
(-89.9359 -2.30889 1.44977e-14)
(-89.7037 -2.30955 1.44725e-14)
(-89.487 -2.30992 1.44423e-14)
(-89.2848 -2.31109 1.44073e-14)
(-89.0961 -2.31374 1.4367e-14)
(-88.9199 -2.31824 1.43231e-14)
(-88.7549 -2.32476 1.42763e-14)
(-88.6001 -2.33327 1.42256e-14)
(-88.4547 -2.3437 1.41716e-14)
(-88.3177 -2.35591 1.41148e-14)
(-88.1884 -2.36977 1.40547e-14)
(-88.0661 -2.38515 1.3993e-14)
(-87.9503 -2.40192 1.39299e-14)
(-87.8404 -2.41995 1.38643e-14)
(-87.736 -2.43912 1.37969e-14)
(-87.6365 -2.45935 1.37275e-14)
(-87.5415 -2.48058 1.36565e-14)
(-87.4506 -2.50276 1.35847e-14)
(-87.3634 -2.52584 1.35193e-14)
(-87.2796 -2.54978 1.34538e-14)
(-87.1986 -2.57459 1.3376e-14)
(-87.12 -2.60029 1.33037e-14)
(-87.0435 -2.6269 1.32414e-14)
(-86.9687 -2.65451 1.31777e-14)
(-86.8951 -2.68318 1.31139e-14)
(-86.8224 -2.713 1.30523e-14)
(-86.7504 -2.74407 1.29917e-14)
(-86.6786 -2.77656 1.29291e-14)
(-86.6067 -2.81062 1.28628e-14)
(-86.5343 -2.84647 1.27908e-14)
(-86.4611 -2.88436 1.27131e-14)
(-86.3865 -2.9246 1.26304e-14)
(-86.3098 -2.96758 1.25444e-14)
(-86.2304 -3.01379 1.24577e-14)
(-86.1471 -3.06386 1.23722e-14)
(-86.0588 -3.11865 1.22901e-14)
(-85.9639 -3.17927 1.22139e-14)
(-85.8604 -3.24716 1.21442e-14)
(-85.7459 -3.32426 1.20821e-14)
(-85.6176 -3.41346 1.20305e-14)
(-85.4725 -3.51876 1.1987e-14)
(-85.3082 -3.64505 1.19532e-14)
(-85.1202 -3.79815 1.19295e-14)
(-84.9015 -3.99026 1.19152e-14)
(-84.6512 -4.25273 1.1913e-14)
(-84.9772 0.380955 6.89305e-15)
(-84.649 0.427998 6.85365e-15)
(-84.382 0.496338 6.81369e-15)
(-84.1163 0.578955 6.7722e-15)
(-83.8655 0.669924 6.73024e-15)
(-83.6311 0.76438 6.6879e-15)
(-83.413 0.858782 6.6439e-15)
(-83.2101 0.950806 6.59874e-15)
(-83.021 1.0391 6.55246e-15)
(-82.8444 1.12298 6.50444e-15)
(-82.6789 1.20227 6.45618e-15)
(-82.5235 1.2771 6.40791e-15)
(-82.377 1.34775 6.35837e-15)
(-82.2387 1.41457 6.30814e-15)
(-82.1078 1.47793 6.25728e-15)
(-81.9836 1.53815 6.20588e-15)
(-81.8654 1.59553 6.1542e-15)
(-81.7529 1.65033 6.10225e-15)
(-81.6454 1.70274 6.0499e-15)
(-81.5425 1.75292 5.99717e-15)
(-81.4438 1.80094 5.94403e-15)
(-81.3488 1.84688 5.8906e-15)
(-81.2572 1.89076 5.83694e-15)
(-81.1686 1.93264 5.78881e-15)
(-81.0826 1.97254 5.74923e-15)
(-80.9988 2.01048 5.69699e-15)
(-80.9171 2.04649 5.6432e-15)
(-80.8371 2.0806 5.60277e-15)
(-80.7585 2.11285 5.56697e-15)
(-80.6812 2.14328 5.53222e-15)
(-80.605 2.17191 5.50107e-15)
(-80.5298 2.19875 5.47322e-15)
(-80.4555 2.22373 5.44628e-15)
(-80.3822 2.24675 5.41658e-15)
(-80.3095 2.26764 5.38057e-15)
(-80.2375 2.28608 5.33817e-15)
(-80.166 2.30166 5.28832e-15)
(-80.0945 2.31377 5.2319e-15)
(-80.0227 2.32154 5.17237e-15)
(-79.9501 2.32383 5.11057e-15)
(-79.8759 2.31918 5.04974e-15)
(-79.7992 2.3057 4.99446e-15)
(-79.7188 2.28099 4.94528e-15)
(-79.6333 2.24192 4.90296e-15)
(-79.5414 2.18444 4.86985e-15)
(-79.4416 2.10347 4.84193e-15)
(-79.3328 1.9931 4.81939e-15)
(-79.2137 1.84646 4.79941e-15)
(-79.0847 1.65359 4.78035e-15)
(-78.9494 1.39922 4.76174e-15)
(-75.59 -2.45965 6.13486e-15)
(-75.13 -2.48801 6.10475e-15)
(-74.82 -2.48938 6.07347e-15)
(-74.5274 -2.47245 6.04051e-15)
(-74.258 -2.4451 6.00634e-15)
(-74.0091 -2.4133 5.97111e-15)
(-73.7785 -2.38102 5.93422e-15)
(-73.5638 -2.35067 5.8959e-15)
(-73.363 -2.32351 5.85624e-15)
(-73.1744 -2.30009 5.81496e-15)
(-72.9962 -2.28052 5.77299e-15)
(-72.8273 -2.26462 5.73054e-15)
(-72.6667 -2.2521 5.68687e-15)
(-72.5135 -2.24262 5.64228e-15)
(-72.3668 -2.23582 5.59681e-15)
(-72.2261 -2.23137 5.55016e-15)
(-72.0908 -2.22893 5.50304e-15)
(-71.9603 -2.22821 5.45569e-15)
(-71.834 -2.22895 5.40751e-15)
(-71.7115 -2.23094 5.35871e-15)
(-71.5923 -2.23401 5.3092e-15)
(-71.4759 -2.238 5.25921e-15)
(-71.3618 -2.24274 5.20875e-15)
(-71.2497 -2.24813 5.16095e-15)
(-71.1393 -2.25403 5.12749e-15)
(-71.0301 -2.26037 5.08375e-15)
(-70.922 -2.26705 5.0297e-15)
(-70.8147 -2.27397 4.98589e-15)
(-70.7081 -2.28106 4.94931e-15)
(-70.602 -2.28825 4.91485e-15)
(-70.4965 -2.29552 4.88388e-15)
(-70.3916 -2.30285 4.85813e-15)
(-70.2873 -2.31026 4.83548e-15)
(-70.1838 -2.31777 4.81238e-15)
(-70.0808 -2.32548 4.78484e-15)
(-69.9785 -2.33354 4.75078e-15)
(-69.8767 -2.34221 4.70803e-15)
(-69.7752 -2.35188 4.65589e-15)
(-69.6736 -2.36312 4.59687e-15)
(-69.5717 -2.37674 4.53421e-15)
(-69.4687 -2.3938 4.47132e-15)
(-69.3641 -2.41577 4.41124e-15)
(-69.2573 -2.44468 4.35607e-15)
(-69.1477 -2.48331 4.30646e-15)
(-69.0348 -2.53545 4.26249e-15)
(-68.9187 -2.60613 4.21754e-15)
(-68.7998 -2.70184 4.16972e-15)
(-68.6797 -2.83117 4.11436e-15)
(-68.5622 -3.00631 4.0481e-15)
(-68.4531 -3.24352 3.96991e-15)
(-65.0585 -0.648429 5.43461e-15)
(-64.6795 -0.586979 5.4259e-15)
(-64.3853 -0.486204 5.42033e-15)
(-64.1052 -0.363712 5.41652e-15)
(-63.8515 -0.232749 5.41446e-15)
(-63.6214 -0.10192 5.41381e-15)
(-63.4112 0.0239804 5.41341e-15)
(-63.2175 0.142645 5.41318e-15)
(-63.0374 0.253229 5.41299e-15)
(-62.8686 0.355726 5.41237e-15)
(-62.7093 0.450524 5.41214e-15)
(-62.5583 0.538203 5.41255e-15)
(-62.4145 0.619377 5.41284e-15)
(-62.277 0.694629 5.41329e-15)
(-62.1451 0.764493 5.41397e-15)
(-62.018 0.82941 5.4144e-15)
(-61.8952 0.889734 5.41544e-15)
(-61.776 0.945739 5.41726e-15)
(-61.66 0.997611 5.41885e-15)
(-61.5466 1.04549 5.42027e-15)
(-61.4354 1.08947 5.42115e-15)
(-61.326 1.12964 5.42162e-15)
(-61.2181 1.16609 5.42179e-15)
(-61.1114 1.19892 5.42103e-15)
(-61.0059 1.22824 5.43897e-15)
(-60.9013 1.25418 5.45199e-15)
(-60.7977 1.27691 5.44527e-15)
(-60.6952 1.29659 5.44226e-15)
(-60.5938 1.31335 5.44762e-15)
(-60.4936 1.32731 5.45418e-15)
(-60.395 1.33851 5.46174e-15)
(-60.2981 1.34696 5.47575e-15)
(-60.2031 1.35257 5.4972e-15)
(-60.11 1.35521 5.52462e-15)
(-60.0188 1.35455 5.55493e-15)
(-59.9295 1.35017 5.58655e-15)
(-59.8419 1.34143 5.61642e-15)
(-59.7557 1.32758 5.64258e-15)
(-59.6704 1.30766 5.66729e-15)
(-59.5856 1.28059 5.69325e-15)
(-59.5006 1.24508 5.72453e-15)
(-59.415 1.19958 5.76489e-15)
(-59.3284 1.1423 5.81592e-15)
(-59.2407 1.07115 5.87905e-15)
(-59.1523 0.983706 5.95258e-15)
(-59.0642 0.877245 6.03395e-15)
(-58.9785 0.748678 6.12733e-15)
(-58.8995 0.594414 6.23988e-15)
(-58.8354 0.409921 6.38465e-15)
(-58.7938 0.189572 6.57536e-15)
(-53.1415 -2.72725 4.26336e-15)
(-52.6328 -2.73468 4.09496e-15)
(-52.3164 -2.68296 3.9098e-15)
(-52.0398 -2.60602 3.71288e-15)
(-51.8017 -2.52317 3.50833e-15)
(-51.5918 -2.44372 3.29907e-15)
(-51.4029 -2.37136 3.08666e-15)
(-51.2297 -2.30713 2.8718e-15)
(-51.0688 -2.25086 2.65494e-15)
(-50.9176 -2.20191 2.43579e-15)
(-50.7742 -2.15947 2.21536e-15)
(-50.6373 -2.12275 1.994e-15)
(-50.5058 -2.09096 1.7709e-15)
(-50.3788 -2.06344 1.54646e-15)
(-50.2555 -2.03955 1.32101e-15)
(-50.1352 -2.01876 1.09454e-15)
(-50.0173 -2.00064 8.68566e-16)
(-49.9012 -1.98482 6.44027e-16)
(-49.7865 -1.97095 4.20736e-16)
(-49.6727 -1.95875 1.99519e-16)
(-49.5595 -1.94795 -1.93728e-17)
(-49.4468 -1.93828 -2.33202e-16)
(-49.3343 -1.92951 -4.44369e-16)
(-49.2222 -1.92139 -6.5594e-16)
(-49.1105 -1.91366 -8.40397e-16)
(-48.9994 -1.90606 -1.01757e-15)
(-48.8892 -1.89833 -1.21931e-15)
(-48.7802 -1.89025 -1.42864e-15)
(-48.6727 -1.88164 -1.63002e-15)
(-48.567 -1.87237 -1.83005e-15)
(-48.4634 -1.86237 -2.036e-15)
(-48.3621 -1.85162 -2.24796e-15)
(-48.2631 -1.84017 -2.46557e-15)
(-48.1665 -1.8282 -2.68417e-15)
(-48.072 -1.81602 -2.90553e-15)
(-47.9795 -1.8041 -3.12938e-15)
(-47.8886 -1.79306 -3.36049e-15)
(-47.7989 -1.78365 -3.60358e-15)
(-47.7097 -1.77683 -3.85609e-15)
(-47.6208 -1.77374 -4.11823e-15)
(-47.5316 -1.77585 -4.38896e-15)
(-47.442 -1.78496 -4.67397e-15)
(-47.3521 -1.80321 -4.97816e-15)
(-47.2626 -1.83318 -5.30785e-15)
(-47.1745 -1.87789 -5.66809e-15)
(-47.0898 -1.94091 -6.06396e-15)
(-47.0111 -2.02637 -6.48474e-15)
(-46.9436 -2.13909 -6.94475e-15)
(-46.8962 -2.28377 -7.45966e-15)
(-46.8775 -2.46518 -8.04485e-15)
(-40.0832 -1.78925 7.92992e-15)
(-39.6382 -1.67028 8.31392e-15)
(-39.363 -1.47483 8.70145e-15)
(-39.137 -1.26995 9.07215e-15)
(-38.9554 -1.07726 9.422e-15)
(-38.8022 -0.902557 9.75188e-15)
(-38.6678 -0.745747 1.00637e-14)
(-38.546 -0.605183 1.03591e-14)
(-38.4329 -0.478953 1.06396e-14)
(-38.3261 -0.365307 1.09064e-14)
(-38.2239 -0.262724 1.11609e-14)
(-38.1248 -0.169934 1.14045e-14)
(-38.0281 -0.0858346 1.16372e-14)
(-37.9329 -0.00951099 1.18593e-14)
(-37.8385 0.059776 1.20711e-14)
(-37.7444 0.122612 1.22725e-14)
(-37.6503 0.179452 1.2464e-14)
(-37.5558 0.23069 1.26461e-14)
(-37.4608 0.276679 1.28186e-14)
(-37.3653 0.317744 1.29815e-14)
(-37.2692 0.354191 1.31335e-14)
(-37.1729 0.386317 1.32842e-14)
(-37.0767 0.414426 1.34247e-14)
(-36.9808 0.43885 1.35458e-14)
(-36.8857 0.45993 1.36909e-14)
(-36.7918 0.478 1.38522e-14)
(-36.6995 0.493364 1.39807e-14)
(-36.6093 0.506272 1.4079e-14)
(-36.5213 0.516892 1.41742e-14)
(-36.4357 0.525295 1.42741e-14)
(-36.3527 0.531458 1.43739e-14)
(-36.2719 0.53527 1.44744e-14)
(-36.1931 0.536497 1.45763e-14)
(-36.116 0.534763 1.46772e-14)
(-36.0402 0.529565 1.47743e-14)
(-35.965 0.520316 1.48657e-14)
(-35.8901 0.506377 1.49625e-14)
(-35.815 0.487108 1.50679e-14)
(-35.7393 0.461814 1.51791e-14)
(-35.6627 0.429696 1.5294e-14)
(-35.5857 0.389911 1.54071e-14)
(-35.5087 0.341596 1.55045e-14)
(-35.4329 0.283871 1.55899e-14)
(-35.3601 0.215846 1.56492e-14)
(-35.2927 0.13655 1.57323e-14)
(-35.234 0.0448981 1.58431e-14)
(-35.1882 -0.0604695 1.59824e-14)
(-35.1617 -0.181228 1.61533e-14)
(-35.1654 -0.318286 1.63577e-14)
(-35.209 -0.471399 1.65989e-14)
(-26.1042 -3.16841 9.01431e-16)
(-25.5636 -3.04207 1.00049e-15)
(-25.3328 -2.82265 1.10149e-15)
(-25.1857 -2.62914 1.19986e-15)
(-25.0826 -2.46944 1.2972e-15)
(-25 -2.33738 1.39496e-15)
(-24.9276 -2.22685 1.49272e-15)
(-24.8603 -2.1334 1.59076e-15)
(-24.7952 -2.05374 1.68937e-15)
(-24.7305 -1.98546 1.78824e-15)
(-24.6649 -1.92669 1.88834e-15)
(-24.5977 -1.87595 1.99035e-15)
(-24.5283 -1.83202 2.09333e-15)
(-24.4565 -1.79384 2.19713e-15)
(-24.3822 -1.7606 2.30165e-15)
(-24.3053 -1.73161 2.40673e-15)
(-24.2262 -1.70626 2.51245e-15)
(-24.1451 -1.68401 2.61935e-15)
(-24.0625 -1.6643 2.72772e-15)
(-23.9788 -1.64663 2.83732e-15)
(-23.8946 -1.63052 2.94084e-15)
(-23.8106 -1.61553 3.06717e-15)
(-23.7271 -1.60124 3.19057e-15)
(-23.6446 -1.58722 3.28647e-15)
(-23.5637 -1.57308 3.42878e-15)
(-23.4847 -1.55851 3.6252e-15)
(-23.4077 -1.54325 3.79877e-15)
(-23.3329 -1.52714 3.92148e-15)
(-23.2601 -1.51012 4.02069e-15)
(-23.1891 -1.49224 4.12363e-15)
(-23.1194 -1.47365 4.22948e-15)
(-23.0505 -1.45461 4.34145e-15)
(-22.982 -1.43551 4.45802e-15)
(-22.9133 -1.41687 4.5812e-15)
(-22.8442 -1.39933 4.71026e-15)
(-22.7744 -1.38357 4.83562e-15)
(-22.7039 -1.37029 4.95678e-15)
(-22.6325 -1.36022 5.06894e-15)
(-22.5607 -1.35418 5.17487e-15)
(-22.4892 -1.35312 5.26717e-15)
(-22.4189 -1.35805 5.33774e-15)
(-22.3516 -1.36995 5.40764e-15)
(-22.2891 -1.38981 5.46526e-15)
(-22.2338 -1.41859 5.50464e-15)
(-22.1887 -1.45732 5.54438e-15)
(-22.1574 -1.50692 5.58513e-15)
(-22.144 -1.5686 5.62701e-15)
(-22.1545 -1.64357 5.66505e-15)
(-22.1988 -1.73227 5.69196e-15)
(-22.2881 -1.83196 5.69847e-15)
(-10.8349 -2.94475 -2.84762e-17)
(-10.5934 -2.44506 -4.42589e-17)
(-10.4212 -2.10761 -6.14082e-17)
(-10.3784 -1.83944 -8.12457e-17)
(-10.3683 -1.62759 -1.03441e-16)
(-10.3664 -1.45277 -1.2649e-16)
(-10.3656 -1.3019 -1.51089e-16)
(-10.3629 -1.16955 -1.78047e-16)
(-10.3562 -1.05293 -2.07553e-16)
(-10.3442 -0.949919 -2.40364e-16)
(-10.3261 -0.858751 -2.76027e-16)
(-10.3015 -0.777894 -3.13259e-16)
(-10.2704 -0.706019 -3.52522e-16)
(-10.2332 -0.641965 -3.94864e-16)
(-10.1905 -0.584839 -4.40594e-16)
(-10.1432 -0.53387 -4.90725e-16)
(-10.0923 -0.488331 -5.44788e-16)
(-10.0386 -0.447577 -6.01022e-16)
(-9.98319 -0.411061 -6.56278e-16)
(-9.92669 -0.378388 -7.13956e-16)
(-9.86971 -0.349277 -8.1396e-16)
(-9.81272 -0.323504 -8.37121e-16)
(-9.75595 -0.30088 -8.50259e-16)
(-9.69946 -0.281216 -9.8659e-16)
(-9.64325 -0.264323 -1.06829e-15)
(-9.58736 -0.250029 -9.68466e-16)
(-9.53175 -0.238184 -8.26571e-16)
(-9.47619 -0.228702 -7.46884e-16)
(-9.42021 -0.221564 -7.46573e-16)
(-9.36328 -0.216787 -7.63163e-16)
(-9.30495 -0.214383 -7.89615e-16)
(-9.24496 -0.214372 -8.05209e-16)
(-9.18325 -0.216829 -8.07467e-16)
(-9.11998 -0.221927 -7.91168e-16)
(-9.05557 -0.229856 -7.5241e-16)
(-8.99058 -0.240709 -6.7736e-16)
(-8.9257 -0.254542 -5.52581e-16)
(-8.86157 -0.271493 -3.55312e-16)
(-8.79918 -0.291767 -9.59895e-17)
(-8.74002 -0.315604 2.07724e-16)
(-8.68566 -0.34323 5.39523e-16)
(-8.63783 -0.374684 8.87518e-16)
(-8.5988 -0.409856 1.24836e-15)
(-8.57068 -0.448643 1.62646e-15)
(-8.55647 -0.490778 2.0318e-15)
(-8.55951 -0.535752 2.47495e-15)
(-8.5843 -0.583311 2.96042e-15)
(-8.63669 -0.633502 3.4988e-15)
(-8.72794 -0.685431 4.10346e-15)
(-8.87571 -0.732682 4.78309e-15)
(5.4204 -4.4583 1.26066e-17)
(4.94911 -3.15572 1.29508e-17)
(4.94039 -2.6011 1.36562e-17)
(5.01912 -2.2733 1.49679e-17)
(5.02895 -2.03531 1.48324e-17)
(5.00014 -1.85895 1.33885e-17)
(4.96184 -1.72217 1.2698e-17)
(4.92127 -1.60869 1.26755e-17)
(4.8805 -1.51017 1.29568e-17)
(4.84213 -1.42275 1.43479e-17)
(4.80829 -1.34435 1.47839e-17)
(4.78038 -1.27362 1.34204e-17)
(4.75925 -1.20942 1.30452e-17)
(4.74545 -1.15086 1.34474e-17)
(4.73898 -1.09733 1.39118e-17)
(4.73953 -1.04836 1.59002e-17)
(4.74627 -1.00342 1.4337e-17)
(4.75824 -0.961882 -2.26115e-19)
(4.77464 -0.923143 -1.24305e-17)
(4.7946 -0.886646 5.90395e-17)
(4.81714 -0.851968 -5.34631e-17)
(4.84146 -0.818842 -1.79834e-16)
(4.8669 -0.787096 -4.89216e-17)
(4.89299 -0.756654 8.01438e-17)
(4.91958 -0.727574 -1.35394e-16)
(4.9464 -0.699931 -4.53248e-16)
(4.9729 -0.673748 -7.02145e-16)
(4.99872 -0.649107 -7.79624e-16)
(5.02388 -0.626259 -7.94609e-16)
(5.04878 -0.605582 -7.75107e-16)
(5.07386 -0.587395 -7.79146e-16)
(5.09925 -0.571815 -7.91951e-16)
(5.12523 -0.558917 -8.61737e-16)
(5.15207 -0.548872 -9.83883e-16)
(5.17947 -0.541882 -1.19956e-15)
(5.20725 -0.538168 -1.46893e-15)
(5.23569 -0.537878 -1.74857e-15)
(5.26464 -0.540988 -1.99822e-15)
(5.29359 -0.547524 -2.19607e-15)
(5.32215 -0.557743 -2.33768e-15)
(5.34862 -0.5717 -2.42184e-15)
(5.37181 -0.58951 -2.47228e-15)
(5.38998 -0.61105 -2.51667e-15)
(5.40172 -0.636272 -2.51408e-15)
(5.40434 -0.664452 -2.46725e-15)
(5.39526 -0.694527 -2.39017e-15)
(5.37042 -0.724146 -2.29238e-15)
(5.3242 -0.750851 -2.19322e-15)
(5.25135 -0.771984 -2.0934e-15)
(5.10556 -0.775118 -2.01917e-15)
(21.7885 -3.66036 1.22613e-17)
(21.2609 -3.08544 1.23194e-17)
(20.9938 -2.71503 1.24615e-17)
(20.8935 -2.46173 1.28189e-17)
(20.8242 -2.26732 1.28914e-17)
(20.755 -2.11848 1.2563e-17)
(20.6876 -2.00762 1.23988e-17)
(20.6224 -1.92523 1.24011e-17)
(20.5587 -1.86326 1.25221e-17)
(20.4964 -1.81611 1.28715e-17)
(20.436 -1.77988 1.28705e-17)
(20.3779 -1.75165 1.24733e-17)
(20.3227 -1.72919 1.23138e-17)
(20.2707 -1.71091 1.23612e-17)
(20.222 -1.69563 1.1936e-17)
(20.1765 -1.68247 1.21589e-17)
(20.1342 -1.67076 1.12884e-17)
(20.0949 -1.65992 4.63348e-18)
(20.0583 -1.6495 -2.55348e-18)
(20.0243 -1.63914 2.27778e-17)
(19.9925 -1.62853 -1.45369e-17)
(19.9626 -1.61744 -7.40153e-17)
(19.9343 -1.60569 -5.18617e-17)
(19.9072 -1.5932 1.2583e-17)
(19.8812 -1.57996 3.22414e-18)
(19.856 -1.56607 -5.9624e-17)
(19.8315 -1.55168 -1.53697e-16)
(19.8078 -1.53705 -2.2474e-16)
(19.7846 -1.52248 -2.76232e-16)
(19.7619 -1.50832 -3.17484e-16)
(19.7397 -1.49492 -3.62491e-16)
(19.718 -1.4826 -4.04713e-16)
(19.697 -1.47164 -4.69325e-16)
(19.6767 -1.46238 -5.52004e-16)
(19.6572 -1.45507 -6.40516e-16)
(19.6382 -1.44988 -7.25801e-16)
(19.6196 -1.44695 -8.00498e-16)
(19.6012 -1.4463 -8.61867e-16)
(19.5827 -1.4479 -9.09219e-16)
(19.5634 -1.45168 -9.44269e-16)
(19.5425 -1.45745 -9.67569e-16)
(19.5188 -1.46487 -9.79069e-16)
(19.4912 -1.47352 -9.91965e-16)
(19.4578 -1.48271 -1.00577e-15)
(19.4167 -1.49142 -1.01523e-15)
(19.3653 -1.49823 -1.0184e-15)
(19.3003 -1.50088 -1.01318e-15)
(19.2174 -1.4962 -1.00578e-15)
(19.1138 -1.47954 -9.89181e-16)
(18.9661 -1.443 -9.71693e-16)
(37.8164 -2.43454 1.12942e-17)
(37.5078 -2.00667 1.13131e-17)
(37.2339 -1.6678 1.09993e-17)
(37.0668 -1.40284 1.12389e-17)
(36.9373 -1.17776 1.17476e-17)
(36.8117 -0.983427 1.16084e-17)
(36.6892 -0.817969 1.15341e-17)
(36.5722 -0.676997 1.15371e-17)
(36.4601 -0.555351 1.12795e-17)
(36.3521 -0.449021 1.15478e-17)
(36.2478 -0.355174 1.19511e-17)
(36.147 -0.271691 1.17346e-17)
(36.0499 -0.196933 1.16352e-17)
(35.9562 -0.12969 1.16447e-17)
(35.8659 -0.0690518 1.12697e-17)
(35.779 -0.014299 1.12985e-17)
(35.6952 0.0351536 1.05968e-17)
(35.6146 0.0798164 4.9637e-18)
(35.5368 0.120161 -1.47949e-18)
(35.4617 0.156646 1.78895e-17)
(35.3892 0.189747 -4.35718e-18)
(35.3189 0.21995 -5.45076e-17)
(35.2506 0.247711 -6.17256e-17)
(35.184 0.273412 -2.05897e-17)
(35.1189 0.297339 1.37288e-17)
(35.055 0.319671 2.21809e-17)
(34.9923 0.340479 -8.71197e-18)
(34.9305 0.359728 -4.38492e-17)
(34.8694 0.377282 -8.13653e-17)
(34.8091 0.392946 -1.19564e-16)
(34.7492 0.406497 -1.54566e-16)
(34.69 0.417663 -1.89219e-16)
(34.6314 0.426121 -2.27834e-16)
(34.5734 0.431522 -2.66348e-16)
(34.5159 0.433522 -2.98319e-16)
(34.4588 0.431848 -3.22314e-16)
(34.402 0.426335 -3.40849e-16)
(34.3453 0.416893 -3.55207e-16)
(34.2883 0.403518 -3.65665e-16)
(34.2305 0.386391 -3.73412e-16)
(34.1714 0.36581 -3.80867e-16)
(34.1102 0.342304 -3.87878e-16)
(34.0458 0.316652 -3.94175e-16)
(33.9773 0.290121 -4.01795e-16)
(33.9034 0.264515 -4.10077e-16)
(33.8226 0.242498 -4.2071e-16)
(33.7333 0.227753 -4.38349e-16)
(33.6335 0.225588 -4.63841e-16)
(33.5229 0.242716 -4.96084e-16)
(33.3842 0.288306 -5.33756e-16)
(55.5523 -3.62519 9.8724e-18)
(54.9287 -3.32239 9.86049e-18)
(54.3732 -3.07737 9.45441e-18)
(53.9596 -2.90081 9.64611e-18)
(53.622 -2.76705 1.02465e-17)
(53.3189 -2.66414 1.01565e-17)
(53.0415 -2.58773 1.01234e-17)
(52.788 -2.53266 1.01423e-17)
(52.5551 -2.49312 1.01076e-17)
(52.3387 -2.46422 1.02416e-17)
(52.1362 -2.44231 1.03921e-17)
(51.9455 -2.42467 1.02935e-17)
(51.7652 -2.40935 1.02573e-17)
(51.5942 -2.39496 1.02838e-17)
(51.4314 -2.38063 9.82596e-18)
(51.2762 -2.36588 9.81205e-18)
(51.1279 -2.35049 9.28595e-18)
(50.986 -2.33444 4.44735e-18)
(50.8501 -2.31781 -1.70559e-18)
(50.7198 -2.30066 1.72261e-17)
(50.5948 -2.28308 4.1392e-18)
(50.4746 -2.26509 -4.34662e-17)
(50.3589 -2.2467 -7.73969e-17)
(50.2471 -2.22791 -7.11885e-17)
(50.1389 -2.20877 -3.41473e-17)
(50.0339 -2.18933 5.13586e-18)
(49.9318 -2.16966 2.87712e-17)
(49.8322 -2.14986 3.56145e-17)
(49.7348 -2.13008 3.09788e-17)
(49.6393 -2.11049 2.1414e-17)
(49.5456 -2.09125 1.93046e-17)
(49.4534 -2.0726 1.76837e-17)
(49.3628 -2.05476 1.81987e-17)
(49.2735 -2.03799 2.18518e-17)
(49.1856 -2.02251 2.98465e-17)
(49.0988 -2.00849 4.10875e-17)
(49.013 -1.99601 5.52073e-17)
(48.9281 -1.98507 7.0329e-17)
(48.8436 -1.9756 8.5497e-17)
(48.7594 -1.96742 9.88627e-17)
(48.6749 -1.96026 1.1062e-16)
(48.5896 -1.95368 1.17699e-16)
(48.5029 -1.94702 1.20367e-16)
(48.4141 -1.93924 1.23867e-16)
(48.3228 -1.9289 1.3075e-16)
(48.2281 -1.91386 1.44585e-16)
(48.1294 -1.89117 1.60865e-16)
(48.0259 -1.85667 1.70688e-16)
(47.9169 -1.80455 1.67778e-16)
(47.7818 -1.72642 1.45482e-16)
(67.2558 -0.212657 6.47261e-18)
(67.043 0.0298673 6.47165e-18)
(66.7383 0.238106 6.19702e-18)
(66.5108 0.414421 6.40719e-18)
(66.3391 0.567884 6.89758e-18)
(66.1858 0.700366 6.84666e-18)
(66.0433 0.811013 6.84561e-18)
(65.9131 0.901067 6.89009e-18)
(65.7943 0.973569 6.58992e-18)
(65.6847 1.03183 6.79238e-18)
(65.582 1.07886 7.26954e-18)
(65.4849 1.1172 7.19565e-18)
(65.3924 1.14897 7.17504e-18)
(65.3036 1.17585 7.20455e-18)
(65.2177 1.19907 6.8098e-18)
(65.1342 1.21947 6.66975e-18)
(65.0528 1.23758 5.86952e-18)
(64.9731 1.25366 1.15588e-18)
(64.895 1.26781 -3.75813e-18)
(64.8184 1.28004 1.66287e-17)
(64.743 1.29035 1.70831e-17)
(64.6689 1.29868 -2.05438e-17)
(64.5958 1.30502 -7.9085e-17)
(64.5235 1.30931 -1.27041e-16)
(64.4518 1.31154 -1.49349e-16)
(64.3806 1.31172 -1.43198e-16)
(64.3097 1.30986 -1.24102e-16)
(64.2388 1.30603 -1.03884e-16)
(64.1679 1.30026 -8.87626e-17)
(64.0967 1.29261 -8.02948e-17)
(64.0251 1.28311 -7.40661e-17)
(63.9532 1.27173 -7.04581e-17)
(63.8808 1.25839 -6.69595e-17)
(63.8079 1.24297 -6.22823e-17)
(63.7346 1.22542 -6.17774e-17)
(63.6609 1.20574 -6.24521e-17)
(63.5866 1.18401 -6.01672e-17)
(63.5117 1.16032 -5.5408e-17)
(63.4361 1.13484 -5.01276e-17)
(63.3595 1.10777 -4.79316e-17)
(63.2816 1.07947 -4.75552e-17)
(63.2022 1.05044 -4.93406e-17)
(63.1211 1.02147 -5.10323e-17)
(63.0383 0.993693 -4.35792e-17)
(62.9538 0.968741 -2.47491e-17)
(62.8683 0.948956 2.89989e-18)
(62.7827 0.937877 3.15443e-17)
(62.6984 0.940585 5.21541e-17)
(62.6185 0.964453 6.11702e-17)
(62.5287 1.01865 5.01654e-17)
(90.556 -4.22553 3.94611e-19)
(89.8235 -4.08343 3.21306e-19)
(89.1336 -3.96006 -1.50503e-19)
(88.5647 -3.8558 1.99778e-20)
(88.0733 -3.76239 7.08431e-19)
(87.6236 -3.67879 7.0719e-19)
(87.2067 -3.6059 7.3981e-19)
(86.8215 -3.5433 8.04334e-19)
(86.465 -3.48948 3.51812e-19)
(86.1328 -3.4425 5.59425e-19)
(85.8208 -3.4004 1.25285e-18)
(85.526 -3.36128 1.20242e-18)
(85.2457 -3.32348 1.17427e-18)
(84.9777 -3.28563 1.16257e-18)
(84.7203 -3.24668 4.65719e-19)
(84.4719 -3.20594 1.72809e-19)
(84.2314 -3.16309 -5.50342e-19)
(83.9979 -3.1181 -4.92806e-18)
(83.7707 -3.07122 -8.44275e-18)
(83.5493 -3.02285 1.19896e-17)
(83.3334 -2.97348 3.17189e-17)
(83.1225 -2.92365 2.80049e-17)
(82.9165 -2.8739 -9.24308e-18)
(82.7149 -2.82479 -6.53319e-17)
(82.5173 -2.77684 -1.31819e-16)
(82.3236 -2.73049 -2.03022e-16)
(82.1335 -2.68608 -2.76156e-16)
(81.9466 -2.64386 -3.50848e-16)
(81.7626 -2.60397 -4.28526e-16)
(81.5813 -2.56648 -5.15857e-16)
(81.4022 -2.53145 -6.01845e-16)
(81.2252 -2.49891 -6.82137e-16)
(81.0498 -2.46887 -7.53032e-16)
(80.8759 -2.44131 -8.20472e-16)
(80.7033 -2.41614 -8.88114e-16)
(80.5319 -2.39314 -9.53231e-16)
(80.3614 -2.37208 -1.00537e-15)
(80.1915 -2.35267 -1.04816e-15)
(80.0221 -2.33464 -1.08444e-15)
(79.8529 -2.31769 -1.11313e-15)
(79.6837 -2.30146 -1.13511e-15)
(79.5145 -2.28554 -1.15015e-15)
(79.3453 -2.26937 -1.15446e-15)
(79.1768 -2.25229 -1.14677e-15)
(79.0098 -2.23331 -1.13218e-15)
(78.846 -2.21099 -1.12126e-15)
(78.6884 -2.18283 -1.12943e-15)
(78.5409 -2.14403 -1.16139e-15)
(78.4082 -2.08521 -1.21293e-15)
(78.277 -1.98603 -1.28488e-15)
(87.725 2.73525 -2.0696e-17)
(87.5668 2.88209 -2.06693e-17)
(87.3014 2.95382 -2.06122e-17)
(87.1041 2.9949 -2.03873e-17)
(86.9603 3.01449 -2.00493e-17)
(86.8329 3.01508 -1.98424e-17)
(86.7151 3.00032 -1.96349e-17)
(86.6099 2.97326 -1.94362e-17)
(86.5179 2.93631 -1.92465e-17)
(86.4377 2.89174 -1.90853e-17)
(86.3677 2.8418 -1.91092e-17)
(86.3066 2.78857 -1.92882e-17)
(86.2532 2.73394 -1.95133e-17)
(86.2064 2.67969 -1.98377e-17)
(86.165 2.62731 -2.10221e-17)
(86.1281 2.578 -2.20328e-17)
(86.0946 2.53254 -2.36259e-17)
(86.0636 2.4914 -2.84657e-17)
(86.0343 2.45466 -3.18951e-17)
(86.0061 2.42209 -1.41204e-17)
(85.9786 2.39333 1.97044e-17)
(85.9512 2.36798 5.29366e-17)
(85.9236 2.34553 8.22154e-17)
(85.8956 2.32531 1.08464e-16)
(85.8668 2.30654 1.38878e-16)
(85.8374 2.28846 1.7552e-16)
(85.8073 2.2705 2.21456e-16)
(85.7764 2.25222 2.76485e-16)
(85.7446 2.23326 3.42689e-16)
(85.7118 2.21327 4.23938e-16)
(85.6782 2.19185 5.15005e-16)
(85.6437 2.16864 6.21509e-16)
(85.6087 2.14327 7.47165e-16)
(85.5734 2.11556 8.88044e-16)
(85.5382 2.08542 1.03088e-15)
(85.5034 2.05298 1.17433e-15)
(85.469 2.01844 1.31738e-15)
(85.435 1.98211 1.46086e-15)
(85.4013 1.94431 1.60849e-15)
(85.3678 1.90541 1.75863e-15)
(85.3345 1.86581 1.90127e-15)
(85.3014 1.82591 2.02725e-15)
(85.2692 1.78601 2.1362e-15)
(85.2387 1.7463 2.23603e-15)
(85.2121 1.70667 2.32977e-15)
(85.1938 1.66662 2.4137e-15)
(85.1919 1.62521 2.4752e-15)
(85.221 1.58199 2.52412e-15)
(85.3088 1.53971 2.56747e-15)
(85.4687 1.50544 2.60473e-15)
(132.481 -5.45182 -5.46027e-17)
(131.802 -5.35234 -5.55386e-17)
(131.18 -5.20064 -5.57367e-17)
(130.675 -5.02958 -5.55917e-17)
(130.233 -4.86745 -5.50271e-17)
(129.825 -4.72054 -5.46611e-17)
(129.446 -4.58767 -5.39553e-17)
(129.093 -4.46763 -5.30616e-17)
(128.765 -4.35936 -5.25486e-17)
(128.457 -4.26148 -5.16372e-17)
(128.166 -4.17246 -5.0487e-17)
(127.889 -4.09091 -4.98718e-17)
(127.625 -4.01559 -4.92702e-17)
(127.371 -3.94517 -4.86363e-17)
(127.125 -3.87832 -4.84551e-17)
(126.887 -3.8139 -4.79735e-17)
(126.653 -3.75103 -4.75539e-17)
(126.425 -3.689 -5.07778e-17)
(126.199 -3.62736 -5.84103e-17)
(125.977 -3.56598 -6.65489e-17)
(125.758 -3.50483 -8.13993e-17)
(125.541 -3.44374 -1.16339e-16)
(125.327 -3.38263 -1.59164e-16)
(125.114 -3.3216 -1.96943e-16)
(124.903 -3.26102 -2.27429e-16)
(124.694 -3.20125 -2.58916e-16)
(124.487 -3.14255 -2.8956e-16)
(124.282 -3.08501 -3.19653e-16)
(124.079 -3.02878 -3.63409e-16)
(123.877 -2.97407 -4.07279e-16)
(123.676 -2.92121 -4.49739e-16)
(123.476 -2.87061 -4.95745e-16)
(123.278 -2.82265 -5.42765e-16)
(123.079 -2.7776 -5.8722e-16)
(122.882 -2.73556 -6.30411e-16)
(122.685 -2.69644 -6.73634e-16)
(122.489 -2.66014 -7.18532e-16)
(122.293 -2.62652 -7.64492e-16)
(122.097 -2.59543 -8.04087e-16)
(121.901 -2.56672 -8.37351e-16)
(121.704 -2.54033 -8.67427e-16)
(121.507 -2.51629 -9.04461e-16)
(121.31 -2.49494 -9.45439e-16)
(121.112 -2.47707 -9.72726e-16)
(120.914 -2.46437 -9.90526e-16)
(120.715 -2.46009 -1.00482e-15)
(120.517 -2.47027 -1.03017e-15)
(120.324 -2.5049 -1.0536e-15)
(120.144 -2.57478 -1.07564e-15)
(119.991 -2.69088 -1.09664e-15)
(115.297 5.73954 -6.6053e-16)
(114.956 5.2844 -6.54892e-16)
(114.557 5.02003 -6.49928e-16)
(114.169 4.83451 -6.49611e-16)
(113.806 4.67839 -6.44907e-16)
(113.471 4.53845 -6.33696e-16)
(113.163 4.41038 -6.19999e-16)
(112.881 4.29116 -6.04308e-16)
(112.622 4.17868 -5.8473e-16)
(112.386 4.07181 -5.60287e-16)
(112.167 3.97004 -5.31364e-16)
(111.965 3.87308 -4.9825e-16)
(111.776 3.78053 -4.62593e-16)
(111.599 3.69211 -4.26973e-16)
(111.432 3.60782 -3.92998e-16)
(111.273 3.52777 -3.57289e-16)
(111.121 3.452 -3.1886e-16)
(110.974 3.38048 -2.80098e-16)
(110.832 3.31312 -2.33884e-16)
(110.691 3.24971 -1.76974e-16)
(110.545 3.18958 -1.21437e-16)
(110.399 3.13275 -8.5679e-17)
(110.255 3.07938 -4.98548e-17)
(110.115 3.02946 -1.61067e-17)
(109.98 2.98269 1.81051e-17)
(109.846 2.9385 6.29646e-17)
(109.713 2.89645 1.05854e-16)
(109.581 2.85632 1.51719e-16)
(109.452 2.81794 2.15409e-16)
(109.326 2.78117 2.83616e-16)
(109.202 2.74576 3.49283e-16)
(109.082 2.71136 4.16659e-16)