/*--------------------------------*- C++ -*----------------------------------*\
  =========                 |
  \\      /  F ield         | OpenFOAM: The Open Source CFD Toolbox
   \\    /   O peration     | Website:  https://openfoam.org
    \\  /    A nd           | Version:  8
     \\/     M anipulation  |
\*---------------------------------------------------------------------------*/
FoamFile
{
    version     2.0;
    format      ascii;
    class       volScalarField;
    location    "100";
    object      nut;
}
// * * * * * * * * * * * * * * * * * * * * * * * * * * * * * * * * * * * * * //

dimensions      [0 2 -1 0 0 0 0];

internalField   nonuniform List<scalar> 
1200
(
9.45136e-06
9.37356e-06
9.89479e-06
1.09002e-05
1.08529e-05
1.11755e-05
1.21849e-05
1.32267e-05
1.41476e-05
1.49037e-05
1.53066e-05
1.51253e-05
1.45759e-05
1.44681e-05
1.47427e-05
1.5046e-05
1.5396e-05
5.99955e-06
6.02869e-06
6.12231e-06
6.27148e-06
6.43985e-06
6.62315e-06
6.91558e-06
7.19203e-06
7.34205e-06
7.25671e-06
7.43511e-06
1.29307e-05
1.42934e-05
1.57265e-05
1.64318e-05
1.65114e-05
1.70957e-05
1.77215e-05
1.83126e-05
1.88432e-05
1.92742e-05
1.95902e-05
1.98077e-05
1.99794e-05
2.01603e-05
2.07358e-05
2.16604e-05
2.27039e-05
2.37971e-05
2.48375e-05
2.56519e-05
2.64529e-05
2.72332e-05
2.81285e-05
2.91926e-05
3.04587e-05
3.19816e-05
3.3809e-05
3.59727e-05
3.84338e-05
4.11527e-05
4.40087e-05
4.68954e-05
7.3491e-06
6.42611e-06
6.30219e-06
7.25843e-06
8.2335e-06
9.68532e-06
1.27247e-05
1.37099e-05
1.38244e-05
1.39662e-05
1.39304e-05
1.3702e-05
1.34497e-05
1.3388e-05
1.34524e-05
1.36029e-05
1.39585e-05
1.45002e-05
1.47814e-05
1.47321e-05
1.49356e-05
1.5071e-05
1.51107e-05
1.54182e-05
1.60073e-05
3.77854e-06
3.80345e-06
3.82736e-06
4.16032e-06
4.11356e-06
4.37137e-06
4.91465e-06
5.42768e-06
5.91209e-06
6.56033e-06
7.31784e-06
7.6158e-06
7.50508e-06
6.90769e-06
5.8192e-06
4.6171e-06
4.18277e-06
4.29886e-06
4.63857e-06
5.14123e-06
5.84374e-06
6.55911e-06
7.05506e-06
7.25077e-06
7.65209e-06
8.43286e-06
9.77549e-06
1.17819e-05
1.37779e-05
1.56628e-05
1.77087e-05
1.9964e-05
2.2426e-05
2.51052e-05
2.81175e-05
7.33746e-06
6.33013e-06
5.7348e-06
5.83568e-06
9.09196e-06
1.1419e-05
1.20398e-05
1.22842e-05
1.23116e-05
1.22582e-05
1.20776e-05
1.18069e-05
1.1819e-05
1.21223e-05
1.23976e-05
1.27096e-05
1.30843e-05
1.34597e-05
1.38352e-05
1.41712e-05
1.44014e-05
1.44392e-05
1.44331e-05
1.44701e-05
1.45748e-05
1.46951e-05
1.48396e-05
1.49445e-05
1.49485e-05
1.47238e-05
1.49162e-05
1.57967e-05
3.88089e-06
4.18066e-06
4.97117e-06
5.78101e-06
5.7489e-06
5.20977e-06
4.66269e-06
3.99442e-06
1.52579e-05
1.47477e-05
1.47245e-05
1.47838e-05
1.49607e-05
1.55621e-05
1.62446e-05
4.04335e-06
4.29377e-06
4.49205e-06
4.72953e-06
5.13378e-06
6.03869e-06
6.90985e-06
7.4508e-06
7.92204e-06
1.09483e-05
1.56104e-05
1.97235e-05
2.57527e-05
7.33582e-06
6.3184e-06
5.51609e-06
5.16282e-06
6.54753e-06
9.3034e-06
9.98892e-06
9.71452e-06
9.44936e-06
9.56638e-06
9.37683e-06
9.35178e-06
1.01511e-05
1.09215e-05
1.10749e-05
1.14783e-05
1.2186e-05
1.24621e-05
1.26498e-05
1.28481e-05
1.30475e-05
1.32311e-05
1.33752e-05
1.34764e-05
1.35684e-05
1.36849e-05
1.38399e-05
1.39667e-05
1.39384e-05
1.38215e-05
1.37753e-05
1.38451e-05
1.41539e-05
1.4909e-05
3.93825e-06
4.71397e-06
4.91891e-06
4.83211e-06
4.65176e-06
4.26481e-06
3.80642e-06
1.53439e-05
1.5024e-05
1.49358e-05
1.52942e-05
3.9353e-06
3.84997e-06
1.57635e-05
1.54406e-05
1.54145e-05
1.55251e-05
1.60391e-05
4.0386e-06
4.27787e-06
3.97898e-06
4.33278e-06
5.71605e-06
8.19487e-06
1.06333e-05
1.67389e-05
7.33517e-06
6.32478e-06
5.48929e-06
4.97211e-06
5.46378e-06
7.23851e-06
8.20533e-06
8.18568e-06
8.80922e-06
9.20619e-06
8.25814e-06
8.40421e-06
9.85497e-06
1.14905e-05
1.23325e-05
1.26216e-05
1.27516e-05
1.29011e-05
1.29591e-05
1.29369e-05
1.29035e-05
1.289e-05
1.28778e-05
1.28758e-05
1.28958e-05
1.29806e-05
1.31452e-05
1.32934e-05
1.32997e-05
1.31576e-05
1.31102e-05
1.32305e-05
1.34891e-05
1.40264e-05
1.50307e-05
4.13016e-06
4.40437e-06
4.60047e-06
4.70034e-06
4.59116e-06
4.0986e-06
1.61685e-05
1.54071e-05
1.50614e-05
1.5409e-05
4.35557e-06
4.45842e-06
4.16024e-06
3.82699e-06
1.55392e-05
1.51306e-05
1.49222e-05
1.50188e-05
1.56321e-05
3.65139e-06
3.73646e-06
4.57722e-06
6.55796e-06
9.26637e-06
1.28615e-05
7.33716e-06
6.33202e-06
5.49113e-06
4.90128e-06
4.90946e-06
5.82667e-06
6.54984e-06
6.67505e-06
6.72537e-06
6.5135e-06
6.04181e-06
5.64332e-06
6.07966e-06
8.75875e-06
1.12984e-05
1.21426e-05
1.25362e-05
1.27329e-05
1.27738e-05
1.26927e-05
1.25373e-05
1.23315e-05
1.20944e-05
1.18732e-05
1.16789e-05
1.17409e-05
1.20327e-05
1.23209e-05
1.24445e-05
1.25201e-05
1.28798e-05
1.30711e-05
1.29954e-05
1.32235e-05
1.40619e-05
3.64296e-06
4.01584e-06
4.26714e-06
4.40844e-06
4.42038e-06
4.25284e-06
3.93086e-06
1.60966e-05
1.5178e-05
3.55868e-06
4.73463e-06
5.11133e-06
4.77525e-06
4.35719e-06
3.97615e-06
3.6706e-06
1.54463e-05
1.52226e-05
1.51459e-05
1.51577e-05
1.58625e-05
4.05355e-06
5.30771e-06
7.23446e-06
9.19077e-06
7.33812e-06
6.33701e-06
5.50069e-06
4.86273e-06
4.61472e-06
4.91441e-06
5.26473e-06
5.37879e-06
5.29058e-06
5.05215e-06
4.74934e-06
4.47553e-06
4.34388e-06
4.59536e-06
5.82345e-06
8.20062e-06
1.03606e-05
1.15294e-05
1.2032e-05
1.22064e-05
1.22824e-05
1.22447e-05
1.16788e-05
1.11192e-05
1.05313e-05
1.03199e-05
1.0541e-05
1.10719e-05
1.15192e-05
1.20962e-05
1.29806e-05
1.375e-05
1.3756e-05
1.30023e-05
1.27116e-05
1.41129e-05
3.66985e-06
3.81101e-06
3.88625e-06
3.89518e-06
3.82429e-06
3.68714e-06
1.54995e-05
1.516e-05
3.74083e-06
5.16307e-06
5.79215e-06
5.24606e-06
4.67897e-06
4.18606e-06
3.82388e-06
1.59537e-05
3.64879e-06
3.52421e-06
1.52589e-05
1.53055e-05
3.66113e-06
4.34501e-06
5.51987e-06
6.41174e-06
7.3398e-06
6.3426e-06
5.51394e-06
4.85253e-06
4.45337e-06
4.38725e-06
4.42746e-06
4.41214e-06
4.29719e-06
4.10149e-06
3.88037e-06
3.66816e-06
3.47162e-06
3.29023e-06
3.28018e-06
3.97312e-06
5.45247e-06
7.03938e-06
8.28608e-06
9.15115e-06
9.86302e-06
1.05368e-05
1.08014e-05
1.06954e-05
1.03938e-05
9.97311e-06
9.72804e-06
9.80016e-06
1.03515e-05
1.16304e-05
1.33592e-05
1.49554e-05
1.55063e-05
1.51247e-05
1.4555e-05
1.37236e-05
1.39261e-05
1.49702e-05
1.55209e-05
1.56582e-05
1.5434e-05
1.50669e-05
1.48935e-05
1.54536e-05
3.97755e-06
5.74831e-06
6.6179e-06
5.60887e-06
4.9559e-06
4.08714e-06
4.28105e-06
5.33976e-06
6.02155e-06
5.42863e-06
6.19667e-06
7.33018e-06
8.33984e-06
8.11532e-06
7.67765e-06
9.27931e-06
7.34994e-06
6.37261e-06
5.56505e-06
4.91464e-06
4.4429e-06
4.17963e-06
4.0283e-06
3.90241e-06
3.76363e-06
3.61072e-06
3.46988e-06
3.38821e-06
3.27954e-06
3.18534e-06
3.12134e-06
3.20348e-06
3.59131e-06
4.19602e-06
4.82474e-06
5.3924e-06
5.95515e-06
6.62221e-06
7.24324e-06
7.52367e-06
7.47383e-06
7.79229e-06
8.40387e-06
9.49439e-06
1.13924e-05
1.42023e-05
3.75612e-06
3.98969e-06
4.04568e-06
3.8671e-06
1.55243e-05
1.46953e-05
1.41814e-05
1.40025e-05
1.39719e-05
1.40451e-05
1.41297e-05
1.42603e-05
1.54396e-05
3.8641e-06
4.48474e-06
6.62158e-06
7.79808e-06
6.24228e-06
6.1839e-06
6.81226e-06
7.59263e-06
8.50752e-06
9.41726e-06
1.02219e-05
1.09413e-05
1.18909e-05
1.31656e-05
1.49473e-05
1.75943e-05
2.32968e-05
9.4341e-06
9.33967e-06
9.20315e-06
8.93967e-06
8.58131e-06
8.39178e-06
8.4449e-06
8.68137e-06
9.11591e-06
9.75343e-06
1.05165e-05
1.13323e-05
1.22101e-05
1.29521e-05
1.34321e-05
1.36306e-05
1.37237e-05
1.39309e-05
1.43344e-05
1.49016e-05
1.57081e-05
6.06923e-06
6.10905e-06
6.24556e-06
6.48478e-06
6.72284e-06
6.96365e-06
7.22067e-06
7.52261e-06
7.87766e-06
8.21608e-06
8.3579e-06
8.22359e-06
7.96996e-06
7.59896e-06
7.31738e-06
7.20903e-06
7.17853e-06
7.21363e-06
7.32332e-06
7.52087e-06
7.88039e-06
8.35579e-06
8.84759e-06
9.21256e-06
1.29966e-05
1.68147e-05
1.7144e-05
1.7177e-05
1.74071e-05
1.80603e-05
1.90359e-05
2.00817e-05
2.09975e-05
2.1902e-05
2.31177e-05
2.48197e-05
2.70858e-05
3.08706e-05
4.01233e-05
9.45298e-06
9.37859e-06
9.97627e-06
1.10528e-05
1.09403e-05
1.11478e-05
1.20988e-05
1.31343e-05
1.40628e-05
1.48367e-05
1.52734e-05
1.51422e-05
1.46029e-05
1.44637e-05
1.47243e-05
1.50196e-05
1.53704e-05
5.9251e-06
1.56728e-05
6.11225e-06
6.24711e-06
6.41042e-06
6.58477e-06
6.86455e-06
7.15011e-06
7.31258e-06
7.24091e-06
7.45494e-06
1.10336e-05
1.27979e-05
1.52966e-05
1.70378e-05
1.67719e-05
1.71931e-05
1.77678e-05
1.83121e-05
1.8807e-05
1.92109e-05
1.95137e-05
1.97369e-05
1.99339e-05
2.0162e-05
2.07514e-05
2.16532e-05
2.26583e-05
2.37174e-05
2.47565e-05
2.55692e-05
2.63703e-05
2.71528e-05
2.80411e-05
2.91119e-05
3.04187e-05
3.19784e-05
3.3817e-05
3.59623e-05
3.8404e-05
4.1114e-05
4.39712e-05
4.68646e-05
7.36159e-06
6.4383e-06
6.23519e-06
7.02522e-06
8.04381e-06
9.51904e-06
1.25806e-05
1.36395e-05
1.37525e-05
1.38989e-05
1.38686e-05
1.36369e-05
1.33701e-05
1.32949e-05
1.3356e-05
1.34977e-05
1.38453e-05
1.43907e-05
1.46775e-05
1.46289e-05
1.48299e-05
1.49734e-05
1.50087e-05
1.53457e-05
1.61527e-05
3.77785e-06
3.82162e-06
3.87928e-06
4.23554e-06
4.27888e-06
4.71844e-06
5.3175e-06
5.55811e-06
5.90404e-06
6.51748e-06
7.20911e-06
7.4568e-06
7.28978e-06
6.6481e-06
5.5541e-06
4.43014e-06
4.12e-06
4.26393e-06
4.60458e-06
5.10349e-06
5.80116e-06
6.52e-06
7.02378e-06
7.22559e-06
7.65823e-06
8.55345e-06
1.00631e-05
1.20503e-05
1.38069e-05
1.54335e-05
1.71442e-05
1.93701e-05
2.19304e-05
2.46883e-05
2.812e-05
7.33705e-06
6.32684e-06
5.69e-06
5.7004e-06
9.04085e-06
1.13738e-05
1.19808e-05
1.22204e-05
1.2241e-05
1.21863e-05
1.20027e-05
1.17238e-05
1.17075e-05
1.20094e-05
1.22807e-05
1.25936e-05
1.29808e-05
1.33679e-05
1.37495e-05
1.40798e-05
1.42984e-05
1.43383e-05
1.43442e-05
1.44062e-05
1.45451e-05
1.46934e-05
1.48748e-05
1.50122e-05
1.50939e-05
1.48973e-05
1.53526e-05
3.73178e-06
3.8635e-06
4.16069e-06
4.95193e-06
5.63047e-06
5.56893e-06
5.11345e-06
4.7283e-06
4.07555e-06
1.54763e-05
1.48295e-05
1.48012e-05
1.48655e-05
1.50228e-05
1.5447e-05
1.60537e-05
4.06567e-06
4.34857e-06
4.56971e-06
4.87822e-06
5.41857e-06
6.3884e-06
7.11442e-06
7.22619e-06
7.76785e-06
1.08885e-05
1.52534e-05
1.89724e-05
2.54246e-05
7.33558e-06
6.31631e-06
5.51739e-06
5.14359e-06
6.49104e-06
9.24715e-06
9.93273e-06
9.65628e-06
9.50997e-06
9.62957e-06
9.43455e-06
9.44677e-06
1.0255e-05
1.09933e-05
1.11269e-05
1.1563e-05
1.22739e-05
1.25568e-05
1.27424e-05
1.29359e-05
1.31327e-05
1.3311e-05
1.3439e-05
1.35236e-05
1.35993e-05
1.37032e-05
1.38537e-05
1.39909e-05
1.39918e-05
1.39064e-05
1.38685e-05
1.39591e-05
1.42781e-05
1.49803e-05
3.88995e-06
4.71664e-06
4.93476e-06
4.94277e-06
4.77508e-06
4.35793e-06
3.85068e-06
1.54063e-05
1.50875e-05
1.50329e-05
1.53953e-05
3.91675e-06
3.81411e-06
1.56218e-05
1.53445e-05
1.53034e-05
1.53725e-05
1.58155e-05
4.06641e-06
4.28451e-06
3.90636e-06
3.70544e-06
4.30854e-06
5.72448e-06
7.89469e-06
1.20482e-05
7.33768e-06
6.326e-06
5.49449e-06
4.99289e-06
5.4423e-06
7.18259e-06
8.15727e-06
8.23646e-06
8.89045e-06
9.27739e-06
8.33342e-06
8.52043e-06
9.99846e-06
1.16091e-05
1.24178e-05
1.26992e-05
1.28316e-05
1.29797e-05
1.30394e-05
1.3018e-05
1.29817e-05
1.29618e-05
1.29377e-05
1.29218e-05
1.29281e-05
1.30036e-05
1.31676e-05
1.33261e-05
1.33586e-05
1.3237e-05
1.32268e-05
1.33511e-05
1.3639e-05
1.42e-05
1.50817e-05
4.18882e-06
4.48978e-06
4.72956e-06
4.82106e-06
4.67131e-06
4.1346e-06
3.74116e-06
1.5425e-05
1.51592e-05
1.56432e-05
4.37639e-06
4.41102e-06
4.10083e-06
3.79241e-06
1.5485e-05
1.51215e-05
1.49423e-05
1.50463e-05
1.56924e-05
3.67625e-06
3.68011e-06
3.98521e-06
5.29968e-06
7.74742e-06
1.09249e-05
7.33992e-06
6.33449e-06
5.49427e-06
4.91841e-06
4.92685e-06
5.79346e-06
6.51512e-06
6.72305e-06
6.82459e-06
6.60713e-06
6.10245e-06
5.70405e-06
6.20706e-06
8.97441e-06
1.14376e-05
1.22149e-05
1.2607e-05
1.28058e-05
1.28501e-05
1.27718e-05
1.26172e-05
1.24054e-05
1.2153e-05
1.19086e-05
1.16914e-05
1.17536e-05
1.20474e-05
1.23379e-05
1.24832e-05
1.26525e-05
1.3006e-05
1.31384e-05
1.30593e-05
1.33621e-05
1.42418e-05
1.60965e-05
4.12731e-06
4.39699e-06
4.54064e-06
4.53082e-06
4.3217e-06
3.97228e-06
1.59435e-05
1.52516e-05
3.68555e-06
4.82732e-06
5.10225e-06
4.73627e-06
4.31593e-06
3.94481e-06
3.72596e-06
1.54906e-05
1.52807e-05
1.52258e-05
1.53002e-05
1.55478e-05
3.82936e-06
4.7409e-06
6.58874e-06
8.33188e-06
7.33994e-06
6.3404e-06
5.50194e-06
4.87145e-06
4.63342e-06
4.91745e-06
5.26313e-06
5.40186e-06
5.32886e-06
5.09588e-06
4.79666e-06
4.52489e-06
4.40619e-06
4.70634e-06
6.06683e-06
8.51605e-06
1.05728e-05
1.16522e-05
1.21212e-05
1.22901e-05
1.23637e-05
1.23146e-05
1.17359e-05
1.11411e-05
1.05447e-05
1.0381e-05
1.06265e-05
1.11825e-05
1.17443e-05
1.24e-05
1.32957e-05
1.39236e-05
1.37578e-05
1.29536e-05
1.27956e-05
1.43527e-05
3.75504e-06
3.91975e-06
4.00708e-06
4.02343e-06
3.93813e-06
3.76752e-06
1.5726e-05
1.5213e-05
3.78791e-06
5.30602e-06
5.81098e-06
5.21982e-06
4.64258e-06
4.1626e-06
3.80466e-06
1.58435e-05
3.68774e-06
3.64743e-06
1.55233e-05
1.53858e-05
1.6107e-05
4.18206e-06
5.18679e-06
5.93615e-06
7.33968e-06
6.34228e-06
5.51303e-06
4.85401e-06
4.46344e-06
4.39897e-06
4.44334e-06
4.43393e-06
4.31586e-06
4.11023e-06
3.87516e-06
3.65766e-06
3.45671e-06
3.29102e-06
3.35094e-06
4.13661e-06
5.64974e-06
7.21427e-06
8.42509e-06
9.27035e-06
9.98314e-06
1.06597e-05
1.08973e-05
1.07614e-05
1.04177e-05
1.0002e-05
9.81781e-06
1.00229e-05
1.07543e-05
1.21434e-05
1.38958e-05
1.53232e-05
1.56277e-05
1.51354e-05
1.456e-05
1.38591e-05
1.39163e-05
1.48328e-05
1.57087e-05
1.57573e-05
1.5409e-05
1.49796e-05
1.47797e-05
1.52934e-05
4.01584e-06
5.92982e-06
6.64222e-06
5.56554e-06
4.89534e-06
4.15454e-06
4.21975e-06
5.24283e-06
5.93452e-06
5.3451e-06
6.0891e-06
7.18345e-06
8.05364e-06
7.66952e-06
7.28254e-06
8.59088e-06
7.35061e-06
6.37248e-06
5.56415e-06
4.91247e-06
4.44101e-06
4.17763e-06
4.02655e-06
3.89825e-06
3.75395e-06
3.59454e-06
3.50569e-06
3.45102e-06
3.31931e-06
3.1941e-06
3.11307e-06
3.19138e-06
3.5809e-06
4.18602e-06
4.81509e-06
5.39162e-06
5.98276e-06
6.68474e-06
7.31342e-06
7.56624e-06
7.6227e-06
8.05332e-06
8.8198e-06
1.01101e-05
1.22195e-05
1.5034e-05
3.85148e-06
4.0469e-06
4.05187e-06
3.8314e-06
1.53642e-05
1.45875e-05
1.4105e-05
1.39433e-05
1.38986e-05
1.38849e-05
1.38678e-05
1.3982e-05
1.52179e-05
3.83728e-06
4.55413e-06
6.85934e-06
7.8048e-06
6.21072e-06
6.17742e-06
6.87838e-06
7.69813e-06
8.66016e-06
9.65386e-06
1.05932e-05
1.15138e-05
1.26515e-05
1.41202e-05
1.61147e-05
1.91048e-05
2.43945e-05
9.44323e-06
9.35814e-06
9.21854e-06
8.92632e-06
8.58694e-06
8.40974e-06
8.45413e-06
8.71865e-06
9.18347e-06
9.84194e-06
1.05805e-05
1.13906e-05
1.22869e-05
1.3034e-05
1.35078e-05
1.37087e-05
1.3822e-05
1.40599e-05
1.44987e-05
1.50962e-05
1.57846e-05
6.10513e-06
6.15509e-06
6.30143e-06
6.53328e-06
6.76735e-06
7.00931e-06
7.28184e-06
7.61377e-06
7.99132e-06
8.30965e-06
8.38168e-06
8.20207e-06
7.95183e-06
7.58478e-06
7.32892e-06
7.23472e-06
7.20329e-06
7.23585e-06
7.34906e-06
7.56037e-06
7.95386e-06
8.464e-06
8.96682e-06
9.30551e-06
1.35238e-05
1.70663e-05
1.74044e-05
1.74068e-05
1.75912e-05
1.82354e-05
1.92057e-05
2.02431e-05
2.11704e-05
2.21153e-05
2.3384e-05
2.5155e-05
2.75053e-05
3.13718e-05
4.06653e-05
)
;

boundaryField
{
    wall
    {
        type            nutkWallFunction;
        Cmu             0.09;
        kappa           0.41;
        E               9.8;
        value           nonuniform List<scalar> 
1200
(
0
0
0
0
0
0
0
0
0
0
0
0
0
0
0
0
0
0
0
0
0
0
0
0
0
0
0
0
0
0
0
0
0
0
0
0
0
0
0
0
0
0
0
0
0
0
0
0
0
0
0
0
0
0
0
0
0
0
0
0
0
0
0
0
0
0
0
0
0
0
0
0
0
0
0
0
0
0
0
0
0
0
0
0
0
0
0
0
0
0
0
0
0
0
0
0
0
0
0
0
0
0
0
0
0
0
0
0
0
0
0
0
0
0
0
0
0
0
0
0
0
0
0
0
0
0
0
0
0
0
0
0
0
0
0
0
0
0
0
0
0
0
0
0
0
0
0
0
0
0
0
0
0
0
0
0
0
0
0
0
0
0
0
0
0
0
0
0
0
0
0
0
0
0
0
0
0
0
0
0
0
0
0
0
0
0
0
0
0
0
1.05982e-08
0
0
0
0
0
0
0
0
0
2.70722e-08
0
0
0
0
0
0
0
0
0
4.50643e-08
0
0
0
0
0
0
0
0
3.27745e-10
6.51437e-08
0
0
0
0
0
0
0
0
7.9543e-09
9.60687e-08
0
0
0
0
0
0
0
0
2.45584e-08
1.23051e-07
5.34335e-10
0
0
0
0
0
0
0
5.00454e-08
1.36526e-07
1.37787e-09
0
0
0
0
0
0
0
7.57033e-08
1.2617e-07
2.45999e-09
0
0
0
0
0
0
0
1.02546e-07
1.03528e-07
3.25662e-09
0
0
0
0
0
0
0
1.32595e-07
3.8529e-07
2.44296e-08
0
0
0
0
0
0
0
1.67296e-07
4.9711e-07
2.11968e-08
0
0
0
0
0
0
0
2.03819e-07
6.63888e-07
4.62462e-08
0
0
0
0
0
0
1.30243e-08
2.31797e-07
8.41253e-07
1.18928e-07
0
0
0
0
0
0
4.36755e-08
2.36397e-07
9.47307e-07
2.13546e-07
8.92699e-09
0
0
0
0
0
4.27136e-08
2.19192e-07
1.01653e-06
3.06838e-07
4.93835e-08
0
0
0
0
0
8.02152e-09
1.94761e-07
1.08579e-06
4.23573e-07
1.73659e-07
1.61571e-08
0
0
0
0
0
1.58358e-07
1.15e-06
5.70821e-07
3.4217e-07
1.759e-07
7.26885e-08
0
0
0
0
1.33394e-07
1.20663e-06
6.30529e-07
3.60967e-07
2.22634e-07
1.32409e-07
6.54445e-08
0
0
0
1.23623e-07
1.25201e-06
6.26641e-07
2.9245e-07
2.11804e-07
1.67349e-07
1.10692e-07
3.05901e-08
0
0
1.19784e-07
1.28438e-06
5.478e-07
1.89451e-07
1.73191e-07
1.78333e-07
1.33089e-07
4.6437e-08
0
0
1.23053e-07
1.3055e-06
3.87879e-07
6.97073e-08
1.01893e-07
1.51541e-07
1.29129e-07
4.8753e-08
0
0
1.34788e-07
1.32046e-06
1.93642e-07
0
1.56066e-08
6.15499e-08
9.11556e-08
3.3815e-08
0
0
1.57072e-07
1.3346e-06
9.11726e-08
0
0
9.92712e-10
3.27241e-08
4.11463e-09
0
0
1.98648e-07
1.37842e-06
9.6247e-08
0
0
0
0
0
0
0
2.50364e-07
1.45721e-06
1.48258e-07
0
0
0
0
0
0
2.83909e-08
2.9922e-07
1.55012e-06
2.29302e-07
0
0
0
0
1.08552e-08
5.36106e-08
1.38266e-07
3.30508e-07
1.64728e-06
3.40763e-07
0
2.02528e-08
9.31426e-08
1.6833e-07
2.48843e-07
3.5047e-07
4.94239e-07
7.35428e-07
1.73686e-06
4.51234e-07
0
6.33859e-09
9.79965e-08
2.09249e-07
3.22938e-07
4.53532e-07
6.31559e-07
1.05587e-06
1.80665e-06
5.27557e-07
3.50082e-08
0
4.92266e-08
1.51942e-07
2.316e-07
2.88071e-07
3.84729e-07
1.08803e-06
1.87469e-06
5.58281e-07
7.2747e-08
0
3.37513e-09
8.52973e-08
1.39442e-07
1.75299e-07
3.76753e-07
1.0883e-06
1.9407e-06
6.13663e-07
9.77322e-08
0
0
2.59817e-08
6.16684e-08
4.40027e-08
4.84856e-07
1.10347e-06
2.01651e-06
7.16202e-07
1.24492e-07
0
0
0
4.08542e-09
9.67268e-08
6.08561e-07
1.15942e-06
2.10606e-06
8.83473e-07
1.7356e-07
0
0
0
0
2.71499e-07
7.53175e-07
1.24462e-06
2.20976e-06
1.13646e-06
3.0373e-07
2.13641e-08
0
0
0
3.79337e-07
9.00327e-07
1.33539e-06
2.33213e-06
1.4194e-06
4.57264e-07
7.04329e-08
0
0
0
3.10179e-07
1.03767e-06
1.41613e-06
2.47898e-06
1.68426e-06
5.81034e-07
9.22009e-08
0
0
0
4.08591e-07
1.16881e-06
1.49775e-06
2.65442e-06
1.96415e-06
6.78076e-07
1.88979e-07
3.46774e-08
0
0
5.87541e-07
1.33058e-06
1.60681e-06
2.85435e-06
2.27559e-06
1.07395e-06
4.19369e-07
1.82372e-07
5.25034e-08
0
7.61314e-07
1.5413e-06
1.75838e-06
3.07343e-06
2.61768e-06
1.72072e-06
8.65499e-07
5.11749e-07
2.49062e-07
8.47422e-08
7.66209e-07
1.81562e-06
1.95693e-06
3.30108e-06
2.98057e-06
2.26413e-06
1.30422e-06
8.99675e-07
5.15169e-07
2.36243e-07
7.04217e-07
2.20422e-06
2.28076e-06
3.52798e-06
3.37041e-06
3.05947e-06
2.08548e-06
1.3977e-06
8.14845e-07
3.92814e-07
9.84199e-07
2.89023e-06
3.04153e-06
0
0
0
0
0
0
0
0
0
0
0
0
0
0
0
0
0
0
0
0
0
0
0
0
0
0
0
0
0
0
0
0
0
0
0
0
0
0
0
0
0
0
0
0
0
0
0
0
0
0
0
0
0
0
0
0
0
0
0
0
0
0
0
0
0
0
0
0
0
0
0
0
0
0
0
0
0
0
0
0
0
0
0
0
0
0
0
0
0
0
0
0
0
0
0
0
0
0
0
0
0
0
0
0
0
0
0
0
0
0
0
0
0
0
0
0
0
0
0
0
0
0
0
0
0
0
0
0
0
0
0
0
0
0
0
0
0
0
0
0
0
0
0
0
0
0
0
0
0
0
0
0
0
0
0
0
0
0
0
0
0
0
0
0
0
0
0
0
0
0
0
0
0
0
0
0
0
0
0
0
1.40151e-09
0
0
0
0
0
0
0
0
0
8.79332e-09
0
0
0
0
0
0
0
0
0
2.42159e-08
0
0
0
0
0
0
0
0
1.11205e-09
4.17336e-08
0
0
0
0
0
0
0
0
4.16712e-09
6.07751e-08
0
0
0
0
0
0
0
0
1.2303e-08
9.06887e-08
0
0
0
0
0
0
0
0
2.99396e-08
1.18636e-07
0
0
0
0
0
0
0
0
5.49994e-08
1.33496e-07
2.7044e-10
0
0
0
0
0
0
0
8.08034e-08
1.24526e-07
4.10671e-09
0
0
0
0
0
0
0
1.08701e-07
1.00258e-07
5.44981e-09
0
0
0
0
0
0
0
1.41035e-07
2.41449e-07
2.64425e-08
0
0
0
0
0
0
0
1.78289e-07
3.47274e-07
2.86885e-08
0
0
0
0
0
0
0
2.1519e-07
5.46072e-07
7.24539e-08
0
0
0
0
0
0
2.55409e-08
2.39076e-07
8.04686e-07
1.67518e-07
0
0
0
0
0
0
5.02439e-08
2.37188e-07
9.63091e-07
2.57044e-07
1.55627e-08
0
0
0
0
0
4.17514e-08
2.17642e-07
1.03255e-06
3.30291e-07
5.66626e-08
0
0
0
0
0
3.67732e-09
1.93958e-07
1.09618e-06
4.31433e-07
1.79935e-07
1.05435e-08
0
0
0
0
0
1.5844e-07
1.15473e-06
5.58728e-07
3.22743e-07
1.7572e-07
7.86451e-08
1.00503e-09
0
0
0
1.35852e-07
1.20634e-06
6.08399e-07
3.31831e-07
2.22022e-07
1.45123e-07
8.20757e-08
1.29475e-08
0
0
1.26925e-07
1.24785e-06
5.9508e-07
2.69557e-07
2.2682e-07
1.87883e-07
1.32005e-07
4.92358e-08
0
0
1.22781e-07
1.27809e-06
5.08133e-07
1.95768e-07
1.94179e-07
1.98973e-07
1.5515e-07
6.77601e-08
0
0
1.25911e-07
1.29905e-06
3.44641e-07
8.29991e-08
1.19404e-07
1.6575e-07
1.46844e-07
7.04643e-08
0
0
1.38239e-07
1.31575e-06
1.58959e-07
0
2.47953e-08
6.82576e-08
1.00701e-07
5.23393e-08
0
0
1.6241e-07
1.33366e-06
7.65231e-08
0
0
0
3.82425e-08
1.6379e-08
0
0
2.07776e-07
1.37969e-06
8.89906e-08
0
0
0
0
0
0
0
2.6224e-07
1.45692e-06
1.41865e-07
0
0
0
0
0
0
2.75002e-08
3.11069e-07
1.54665e-06
2.22724e-07
0
0
0
0
1.84548e-08
6.0637e-08
1.49331e-07
3.38862e-07
1.64102e-06
3.3406e-07
0
1.59314e-08
9.09583e-08
1.74805e-07
2.63939e-07
3.72618e-07
5.25356e-07
7.80527e-07
1.73029e-06
4.44864e-07
0
2.81875e-09
8.78306e-08
2.031e-07
3.21263e-07
4.54423e-07
6.33022e-07
1.07784e-06
1.79977e-06
5.22162e-07
3.8924e-08
0
3.94899e-08
1.44293e-07
2.27703e-07
2.84745e-07
3.81586e-07
1.11217e-06
1.86778e-06
5.52795e-07
8.07075e-08
0
5.2621e-10
7.87309e-08
1.3533e-07
1.68064e-07
3.70771e-07
1.11035e-06
1.93414e-06
6.11415e-07
1.07749e-07
0
0
2.17168e-08
5.92614e-08
5.07164e-08
4.87223e-07
1.12103e-06
2.00949e-06
7.2684e-07
1.4345e-07
0
0
0
2.65778e-09
8.55782e-08
6.16154e-07
1.17544e-06
2.09892e-06
9.15715e-07
2.10426e-07
0
0
0
0
2.56089e-07
7.66766e-07
1.25993e-06
2.20474e-06
1.18042e-06
3.50137e-07
2.30459e-08
0
0
3.85602e-09
3.6431e-07
9.24307e-07
1.34989e-06
2.33039e-06
1.44683e-06
4.77565e-07
6.87902e-08
0
0
0
2.85103e-07
1.07794e-06
1.43121e-06
2.47926e-06
1.69042e-06
5.42719e-07
4.78707e-08
0
0
0
3.90582e-07
1.23293e-06
1.51521e-06
2.65457e-06
1.94131e-06
6.48313e-07
8.84625e-08
1.91759e-08
0
0
5.65041e-07
1.41539e-06
1.6273e-06
2.85357e-06
2.24971e-06
1.06838e-06
2.47086e-07
1.10667e-07
3.20919e-08
2.58258e-11
7.20812e-07
1.64369e-06
1.78255e-06
3.07235e-06
2.6013e-06
1.69344e-06
5.824e-07
3.84929e-07
2.01202e-07
6.74047e-08
7.01407e-07
1.93281e-06
1.98513e-06
3.29962e-06
2.96385e-06
2.23447e-06
9.76736e-07
7.76582e-07
4.7205e-07
2.12566e-07
6.42747e-07
2.33624e-06
2.3165e-06
3.52649e-06
3.37205e-06
3.05373e-06
1.79941e-06
1.29998e-06
7.83537e-07
3.75405e-07
8.86556e-07
2.9765e-06
3.08505e-06
)
;
    }
    inlet
    {
        type            calculated;
        value           uniform 0.000190513;
    }
    outlet
    {
        type            calculated;
        value           nonuniform List<scalar> 
20
(
0.0081
0.0081
0.0081
1.67389e-05
1.28615e-05
9.19077e-06
6.41174e-06
9.27931e-06
0.0081
4.01233e-05
0.0081
0.0081
0.0081
1.20482e-05
1.09249e-05
8.33188e-06
5.93615e-06
8.59088e-06
0.0081
4.06653e-05
)
;
    }
    heatWall
    {
        type            nutkWallFunction;
        Cmu             0.09;
        kappa           0.41;
        E               9.8;
        value           nonuniform List<scalar> 
240
(
1.08719e-06
1.08805e-06
1.07721e-06
1.07923e-06
1.06282e-06
1.06463e-06
1.03471e-06
1.03336e-06
9.96103e-07
9.96758e-07
9.75449e-07
9.7743e-07
9.81661e-07
9.82613e-07
1.00796e-06
1.01205e-06
1.05553e-06
1.06277e-06
1.12371e-06
1.13281e-06
1.20279e-06
1.20913e-06
1.28532e-06
1.29119e-06
1.37205e-06
1.37971e-06
1.44294e-06
1.45072e-06
1.48732e-06
1.49437e-06
1.50546e-06
1.51282e-06
1.51522e-06
1.52465e-06
1.53633e-06
1.54881e-06
1.57554e-06
1.59117e-06
1.62818e-06
1.64525e-06
1.6697e-06
1.68077e-06
1.67808e-06
1.69057e-06
1.70288e-06
1.71705e-06
1.75722e-06
1.77477e-06
1.84079e-06
1.85693e-06
1.92494e-06
1.94155e-06
2.013e-06
2.03308e-06
2.11165e-06
2.13926e-06
2.2257e-06
2.26178e-06
2.34591e-06
2.38332e-06
2.43807e-06
2.46204e-06
2.45311e-06
2.45569e-06
2.3962e-06
2.39107e-06
2.31551e-06
2.31286e-06
2.19541e-06
2.19568e-06
2.11312e-06
2.12122e-06
2.08093e-06
2.09181e-06
2.06829e-06
2.07816e-06
2.07907e-06
2.08848e-06
2.11774e-06
2.12911e-06
2.1912e-06
2.2088e-06
2.32837e-06
2.35851e-06
2.49922e-06
2.53849e-06
2.66084e-06
2.70007e-06
2.76446e-06
2.79213e-06
4.11238e-06
4.26309e-06
5.18602e-06
5.2597e-06
5.2943e-06
5.3753e-06
5.29553e-06
5.36951e-06
5.34674e-06
5.40566e-06
5.53485e-06
5.58865e-06
5.82138e-06
5.87288e-06
6.12697e-06
6.17578e-06
6.39903e-06
6.44982e-06
6.67422e-06
6.7331e-06
7.04226e-06
7.11144e-06
7.55432e-06
7.63602e-06
8.22607e-06
8.32157e-06
9.32388e-06
9.44521e-06
1.19121e-05
1.20606e-05
1.08906e-06
1.08932e-06
1.08117e-06
1.08175e-06
1.1418e-06
1.15084e-06
1.24998e-06
1.26573e-06
1.24246e-06
1.25104e-06
1.2744e-06
1.27148e-06
1.37334e-06
1.36496e-06
1.47085e-06
1.4623e-06
1.55532e-06
1.54773e-06
1.62308e-06
1.61716e-06
1.65683e-06
1.65411e-06
1.63694e-06
1.63872e-06
1.5871e-06
1.58936e-06
1.57959e-06
1.5789e-06
1.60537e-06
1.60355e-06
1.63335e-06
1.63088e-06
1.6645e-06
1.66233e-06
1.6714e-06
1.66483e-06
1.67321e-06
1.67911e-06
1.70928e-06
1.70336e-06
1.76336e-06
1.75398e-06
1.82245e-06
1.81151e-06
1.88845e-06
1.87409e-06
1.99018e-06
1.97247e-06
2.07902e-06
2.06448e-06
2.12342e-06
2.11343e-06
2.08929e-06
2.08387e-06
2.01473e-06
2.00396e-06
2.94619e-06
2.46977e-06
3.31766e-06
2.82008e-06
3.87336e-06
3.48057e-06
4.46627e-06
4.34379e-06
4.82166e-06
4.87455e-06
5.05376e-06
5.10753e-06
5.2862e-06
5.32111e-06
5.50185e-06
5.51777e-06
5.69219e-06
5.69123e-06
5.84482e-06
5.83083e-06
5.95372e-06
5.93259e-06
6.02481e-06
6.00313e-06
6.07518e-06
6.05935e-06
6.12281e-06
6.11968e-06
6.27042e-06
6.27472e-06
6.53603e-06
6.53509e-06
6.84951e-06
6.83784e-06
7.17762e-06
7.15651e-06
7.48039e-06
7.45822e-06
7.71643e-06
7.69319e-06
7.94671e-06
7.92335e-06
8.17025e-06
8.14804e-06
8.42708e-06
8.40333e-06
8.73069e-06
8.70649e-06
9.08247e-06
9.06546e-06
9.49787e-06
9.49196e-06
9.9968e-06
9.99778e-06
1.05934e-05
1.0594e-05
1.12741e-05
1.12715e-05
1.20209e-05
1.20172e-05
1.27977e-05
1.27927e-05
1.35727e-05
1.35676e-05
)
;
    }
}


// ************************************************************************* //
