/*--------------------------------*- C++ -*----------------------------------*\
  =========                 |
  \\      /  F ield         | OpenFOAM: The Open Source CFD Toolbox
   \\    /   O peration     | Website:  https://openfoam.org
    \\  /    A nd           | Version:  8
     \\/     M anipulation  |
\*---------------------------------------------------------------------------*/
FoamFile
{
    version     2.0;
    format      ascii;
    class       volScalarField;
    location    "200";
    object      alphat;
}
// * * * * * * * * * * * * * * * * * * * * * * * * * * * * * * * * * * * * * //

dimensions      [1 -1 -1 0 0 0 0];

internalField   nonuniform List<scalar> 
1200
(
0.0093901
0.00926843
0.00916869
0.00899364
0.00857955
0.00853608
0.00848288
0.00935015
0.0102144
0.0110382
0.0118566
0.0126929
0.013385
0.0138428
0.0140896
0.0143423
0.0145622
0.0149394
0.0154801
0.0155437
0.00602578
0.00603995
0.00604277
0.00605985
0.00968448
0.0141105
0.0144924
0.0144574
0.0143529
0.0142166
0.0141869
0.0140919
0.0139322
0.0137437
0.0135176
0.0132461
0.0129802
0.012792
0.0127445
0.0127681
0.0127829
0.0127969
0.0129786
0.012738
0.0131003
0.0154912
0.0184033
0.0203786
0.0199774
0.0197026
0.0282586
0.030913
0.0325706
0.0340971
0.0356108
0.0373271
0.0392745
0.0414535
0.0439509
0.0468077
0.00730805
0.00632358
0.00544532
0.00467518
0.00453608
0.00501189
0.00567608
0.00924741
0.0110829
0.0112741
0.0113058
0.0112632
0.0110018
0.0104513
0.0102427
0.0100556
0.0102185
0.0109195
0.0114136
0.0114165
0.0115127
0.0118774
0.0118138
0.0133501
0.00539223
0.00697555
0.00582746
0.00454812
0.00385863
0.00394155
0.0040539
0.0042529
0.00466956
0.00520635
0.00564028
0.00595698
0.00621561
0.00669865
0.00733388
0.00792061
0.00853021
0.00920829
0.00998267
0.0108638
0.0118583
0.0129683
0.0141629
0.0153989
0.0165504
0.0175257
0.019488
0.0207578
0.0216779
0.0225072
0.0234021
0.0245659
0.0257279
0.026893
0.0281062
0.0294144
0.00729036
0.00626913
0.00538534
0.00462085
0.00550742
0.00871287
0.00899209
0.00981962
0.00962022
0.00920179
0.00867938
0.00789422
0.0071705
0.00732049
0.00772889
0.00807358
0.00902346
0.00995751
0.0106347
0.0112065
0.0118405
0.0126284
0.013729
0.0157678
0.00487362
0.00605364
0.00439077
0.0154714
0.0140347
0.0147654
0.0151603
0.00333584
0.00365374
0.0038375
0.0038259
0.00400558
0.00496382
0.00660598
0.00774294
0.00812606
0.00872581
0.00938423
0.0101015
0.0108734
0.0117051
0.012598
0.0135572
0.014559
0.0155723
0.0163452
0.0166078
0.0151189
0.0117648
0.00882018
0.0105229
0.012835
0.0158358
0.0193357
0.0232338
0.027259
0.00728616
0.00626352
0.00538997
0.00462717
0.00449151
0.0061903
0.00812918
0.00854524
0.00721142
0.00679302
0.00674389
0.0066277
0.00705612
0.00823242
0.00901301
0.00895279
0.0095118
0.0100146
0.0106314
0.0112615
0.0119268
0.0127479
0.0139385
0.0162707
0.00444507
0.00560579
0.00404156
0.0145988
0.0138627
0.0126177
0.0136539
0.0134065
0.0130137
0.0123971
0.0116942
0.0115745
0.0128346
0.0161276
0.00454598
0.00541258
0.00665177
0.0076944
0.00858746
0.00945735
0.0103409
0.0112455
0.0122342
0.0132812
0.0142052
0.0146566
0.0139944
0.0111998
0.00662151
0.00612594
0.00575128
0.00534266
0.00589214
0.00778262
0.009712
0.0134568
0.00729152
0.00627275
0.00541006
0.00465251
0.00419362
0.00468674
0.00610146
0.00711707
0.00622928
0.00657651
0.00623476
0.00556731
0.00588306
0.00776372
0.00944614
0.0101061
0.0101712
0.0104408
0.0106403
0.0108673
0.0111273
0.0114058
0.0118002
0.0132012
0.00405487
0.00516672
0.00420513
0.0163193
0.0155133
0.0131802
0.0127596
0.0127207
0.0122562
0.011463
0.0105063
0.00981718
0.00964144
0.0107357
0.0132094
0.00397613
0.00489737
0.00590649
0.00658464
0.00743119
0.00847218
0.00951889
0.0107256
0.0120088
0.0130492
0.0134811
0.0128527
0.00814782
0.00762578
0.00688305
0.00635717
0.00596092
0.00563246
0.00524333
0.00560484
0.00726661
0.00729139
0.0062792
0.00542372
0.00467774
0.0041091
0.00402774
0.00472274
0.00547551
0.00534492
0.00491102
0.00458567
0.0042763
0.00386641
0.00407828
0.00610574
0.00899464
0.00999419
0.0102447
0.0103271
0.0102642
0.0100309
0.00958558
0.00928051
0.00988392
0.01351
0.00479728
0.00429557
0.00393793
0.00368928
0.0143785
0.0128805
0.0121967
0.0117293
0.0110861
0.0102646
0.0095586
0.00906941
0.00894538
0.00966347
0.0115496
0.0163635
0.00455723
0.0051778
0.00587406
0.00660889
0.00749569
0.00866931
0.0102937
0.0118888
0.0126438
0.0119325
0.0100074
0.00866773
0.00763174
0.00689527
0.00644709
0.0061332
0.00582927
0.00553106
0.00551602
0.00728723
0.00628177
0.00544704
0.00471347
0.00410416
0.00377237
0.00389321
0.00420705
0.00422032
0.00409236
0.0038753
0.00357396
0.00329675
0.00303237
0.0030323
0.00388088
0.00532674
0.00686745
0.00823733
0.00910031
0.00946454
0.00957899
0.00846547
0.0072509
0.00816473
0.00411227
0.00403379
0.00384385
0.0158215
0.014784
0.0133866
0.0122677
0.0114951
0.0108349
0.0101839
0.00959376
0.00912825
0.00880042
0.00866418
0.0090214
0.0107648
0.0143479
0.00401629
0.00458674
0.00517788
0.00587388
0.00686795
0.00841359
0.0102544
0.0114038
0.0110403
0.0100183
0.0089027
0.00787503
0.00707015
0.00661306
0.00633519
0.00603611
0.00571101
0.00544117
0.00729172
0.00629469
0.00545583
0.00474853
0.00414902
0.00370706
0.00351566
0.00347169
0.00332986
0.00318132
0.0030421
0.00287236
0.00272087
0.00257989
0.002463
0.00254624
0.00301218
0.00382029
0.00485335
0.00582789
0.00647974
0.00658804
0.00632108
0.00605566
0.00608032
0.0114184
0.0141887
0.0146702
0.0143196
0.0137222
0.0129828
0.0122081
0.0115127
0.0109095
0.0103909
0.00994596
0.00956785
0.00925977
0.00901512
0.00885987
0.00902228
0.00988941
0.0116265
0.0146785
0.00396676
0.00448461
0.00525686
0.00651505
0.00824411
0.00954855
0.00957942
0.0089896
0.00824384
0.00748773
0.00687919
0.00662109
0.00650691
0.00624635
0.00591909
0.00562853
0.00730307
0.00632759
0.00551653
0.00483195
0.00425336
0.00379165
0.00346
0.00323989
0.00305273
0.00289795
0.00277697
0.00266248
0.00259035
0.00251938
0.00246371
0.00241376
0.00244237
0.00260624
0.00292654
0.00330577
0.00356065
0.00353275
0.00383902
0.00399918
0.00432104
0.00636228
0.00795423
0.00868993
0.00892775
0.00916387
0.00938138
0.00954626
0.0096021
0.00953487
0.00938586
0.00925326
0.00928846
0.00950764
0.009842
0.0101729
0.010364
0.0104976
0.0107662
0.0114893
0.0127714
0.0150013
0.00401991
0.0048009
0.00607427
0.00718077
0.00737482
0.00712461
0.0068713
0.00665022
0.00654974
0.00672498
0.00690667
0.00668195
0.00613211
0.00570601
0.00938274
0.00926263
0.00913751
0.00899683
0.00869737
0.00843378
0.00825796
0.0081715
0.00822701
0.00838671
0.00866927
0.00918358
0.00983238
0.0104876
0.010972
0.0112423
0.0113529
0.0114011
0.0114779
0.0117133
0.0122611
0.0131838
0.0141026
0.0149343
0.0151881
0.0148412
0.0153521
0.0060242
0.00612009
0.00622191
0.00631656
0.00640872
0.00651746
0.00665256
0.00680756
0.00697991
0.00717594
0.00736825
0.00754959
0.00772222
0.00787748
0.0079829
0.00800161
0.00795347
0.0078956
0.00787037
0.00791795
0.00816759
0.00884118
0.00971643
0.0102745
0.0106892
0.011055
0.0113146
0.0115433
0.0121591
0.0127662
0.0138511
0.0147025
0.0184717
0.00938082
0.0092577
0.00916955
0.00899694
0.0086554
0.00857149
0.00854001
0.0092902
0.0101608
0.0109901
0.0118088
0.0126317
0.0133355
0.0138154
0.0140778
0.0143294
0.0145551
0.0149321
0.0154781
0.0156548
0.00598411
0.00602998
0.00604171
0.0060548
0.0101099
0.0140702
0.0143596
0.0142912
0.0141485
0.0140081
0.0139934
0.0139133
0.0137579
0.0135726
0.0133438
0.0130434
0.0127594
0.0125896
0.0125822
0.0126099
0.0126224
0.0126247
0.0128313
0.0127036
0.013242
0.0156338
0.0185585
0.0205621
0.0201695
0.0197586
0.02799
0.0310483
0.0327496
0.0342746
0.035771
0.0374472
0.0393606
0.0415223
0.0440114
0.0468475
0.0073047
0.00633074
0.00548256
0.004701
0.00443869
0.00496555
0.00558656
0.00910806
0.0110114
0.0112258
0.0112598
0.0112178
0.010952
0.0103941
0.0101787
0.00998933
0.0101539
0.0108578
0.0113564
0.0113661
0.0114644
0.0118284
0.0117923
0.0138492
0.00555856
0.00688461
0.00565707
0.00441211
0.00381444
0.00391596
0.00406167
0.00433091
0.00478485
0.00526679
0.00561358
0.00587142
0.0061318
0.00665727
0.00733127
0.00789784
0.00850469
0.00918987
0.00998289
0.0108876
0.0119044
0.0130386
0.0142445
0.0154805
0.0166537
0.0176012
0.0195616
0.0209385
0.0219073
0.0227528
0.023572
0.02469
0.0258083
0.0269282
0.0281131
0.0294063
0.00729088
0.00626299
0.00537386
0.00460407
0.00542178
0.00862993
0.0089073
0.00975139
0.00959428
0.00915282
0.00859082
0.00778304
0.00706504
0.00722513
0.0076384
0.0079814
0.00894952
0.00990058
0.0105904
0.0111746
0.0118236
0.012634
0.0137816
0.01607
0.00500059
0.00595475
0.0042592
0.0154076
0.0140812
0.0147865
0.0152308
0.00345334
0.0167922
0.00381806
0.00377937
0.0162279
0.00448826
0.00611828
0.00780859
0.00819695
0.00877634
0.00942952
0.0101453
0.0109214
0.0117604
0.0126609
0.0136319
0.0146507
0.0156678
0.0164708
0.016795
0.0154398
0.0123018
0.00884473
0.0104931
0.0128739
0.0159359
0.019441
0.0233132
0.0273011
0.00728785
0.00626356
0.00539902
0.00462841
0.00448604
0.00611358
0.00806412
0.00853655
0.00740087
0.00683534
0.00679574
0.00667328
0.00710719
0.00828314
0.0090545
0.00899422
0.00955014
0.0100425
0.0106516
0.0112753
0.0119257
0.0127107
0.0138264
0.00358203
0.00454811
0.00550872
0.00408938
0.0147138
0.0139617
0.0126382
0.0136884
0.0134497
0.0130062
0.0123467
0.0116648
0.0114798
0.0123657
0.0147409
0.004329
0.00529126
0.00665
0.00770865
0.00858967
0.00944398
0.0103231
0.0112149
0.012223
0.0133178
0.0142859
0.014769
0.0141201
0.0114611
0.0065108
0.00604877
0.00563407
0.00525042
0.00660502
0.00845056
0.0102376
0.0160509
0.00728601
0.00627508
0.00541455
0.00465317
0.00419358
0.00464793
0.00604624
0.00706555
0.00619244
0.00663066
0.00626754
0.00560056
0.0059381
0.00782834
0.00950065
0.0101509
0.0102137
0.0104778
0.0106705
0.010892
0.0111485
0.0114245
0.0118111
0.0131445
0.00403329
0.00512763
0.00426313
0.00374006
0.0155773
0.0131947
0.0127875
0.012765
0.0122865
0.0114855
0.0105397
0.00987129
0.00958623
0.0103525
0.0125953
0.0165706
0.00482537
0.00587521
0.00655955
0.00738924
0.00837628
0.00946481
0.0107168
0.0120241
0.0130855
0.0135459
0.012901
0.0080094
0.00749143
0.00674994
0.00624827
0.00586153
0.00551957
0.00512404
0.00561269
0.00878027
0.00728657
0.00628356
0.00542269
0.00467251
0.00410626
0.00400823
0.00467648
0.00539741
0.00523372
0.00493214
0.00465975
0.00430471
0.00387971
0.00412172
0.00619509
0.00907008
0.0100443
0.0102889
0.010369
0.0103047
0.0100749
0.00963833
0.00932159
0.00984464
0.0131933
0.00480883
0.00433652
0.00396414
0.0159872
0.0143931
0.0128553
0.0121899
0.0117329
0.0110861
0.010258
0.00956521
0.00909058
0.00889804
0.00943324
0.0113111
0.0159043
0.00453937
0.00520807
0.00591485
0.0065988
0.00746816
0.00867607
0.0103367
0.0119123
0.0126671
0.0119097
0.00983454
0.00848902
0.00745206
0.00675552
0.00634895
0.00604552
0.0057431
0.00546035
0.00566843
0.00728738
0.00629133
0.00544641
0.00469764
0.00409709
0.0037697
0.0038765
0.00414632
0.00407963
0.00393674
0.00375348
0.00354199
0.00330029
0.00303694
0.00305009
0.00390018
0.00534426
0.0069061
0.00829209
0.00915604
0.00951526
0.00962939
0.0085078
0.00727942
0.00785097
0.00410543
0.00406056
0.00386932
0.00371866
0.0147496
0.0133328
0.0122144
0.0114547
0.0107996
0.0101488
0.00956601
0.00912097
0.00881146
0.00864758
0.00897316
0.0106486
0.0143864
0.00405129
0.00464547
0.0052257
0.00590737
0.00690458
0.00847741
0.0102996
0.0114007
0.0109606
0.00986082
0.00871325
0.00766927
0.00690881
0.00651639
0.00625038
0.00594771
0.00562278
0.00537346
0.00729328
0.00629444
0.00545793
0.00476268
0.00413985
0.00369776
0.00350838
0.00345234
0.00327462
0.00307552
0.00295742
0.00283854
0.00273224
0.00259968
0.00247586
0.0025595
0.00302774
0.00383984
0.00488589
0.00587133
0.00653206
0.00664488
0.00636918
0.00608472
0.00602908
0.0113691
0.0143448
0.0147741
0.0143363
0.0136937
0.0129324
0.0121517
0.0114592
0.0108622
0.0103497
0.00991377
0.00955363
0.009273
0.00904902
0.00889645
0.0090447
0.00995017
0.0118628
0.0151181
0.00402106
0.00453938
0.0053164
0.00659228
0.00831245
0.00955002
0.00950899
0.00886987
0.00808697
0.00730714
0.00674539
0.00657097
0.00644786
0.00616185
0.00583583
0.00554854
0.00729502
0.00631316
0.00551461
0.00484381
0.00425888
0.00379307
0.00346055
0.00322945
0.00304796
0.00290804
0.00279231
0.00268355
0.00260247
0.00255242
0.00250085
0.00244762
0.00247008
0.00262839
0.00294323
0.00332069
0.00357737
0.00358316
0.00396528
0.0041797
0.00433579
0.00640502
0.00809193
0.00880056
0.0089869
0.00918653
0.00938989
0.00955273
0.00960747
0.00953399
0.00937744
0.00926589
0.00941481
0.00976888
0.0102056
0.0105723
0.0107163
0.0107976
0.0110464
0.0117994
0.0131346
0.0153999
0.00407493
0.00486745
0.00614265
0.00719446
0.00732685
0.00704899
0.00677271
0.00654149
0.00650332
0.00677046
0.00688888
0.00648875
0.00599427
0.0056038
0.00938435
0.009283
0.00915561
0.00897731
0.00869972
0.00844117
0.00822775
0.00808224
0.00811417
0.00829189
0.00865032
0.00923152
0.00991669
0.0105564
0.0110426
0.0113181
0.0114381
0.0114806
0.0115393
0.011731
0.0122207
0.0131025
0.0140177
0.0148948
0.0151377
0.0147373
0.0152559
0.0060074
0.00612516
0.00624188
0.00635074
0.00645499
0.00656409
0.00668884
0.00683752
0.00701629
0.00720285
0.00738071
0.00755353
0.0077212
0.00786703
0.00795191
0.00794278
0.00787855
0.00782027
0.0078048
0.00787102
0.00814941
0.00884966
0.00970515
0.0102307
0.0106221
0.010956
0.011165
0.0115006
0.0123229
0.0129075
0.0140179
0.0148719
0.0188253
)
;

boundaryField
{
    wall
    {
        type            compressible::alphatJayatillekeWallFunction;
        Prt             0.85;
        value           uniform 0;
    }
    inlet
    {
        type            calculated;
        value           uniform 0.189515;
    }
    outlet
    {
        type            calculated;
        value           nonuniform List<scalar> 
20
(
8.06525
8.06525
8.06525
0.0134567
0.00726661
0.00551605
0.00544122
0.0056286
0.00570606
0.0184717
8.06525
8.06525
8.06525
8.06525
0.00878021
0.00566845
0.00537351
0.00554861
0.00560385
0.0188252
)
;
    }
    heatWall
    {
        type            compressible::alphatJayatillekeWallFunction;
        Prt             0.85;
        value           nonuniform List<scalar> 
240
(
0.000413533
0.00041361
0.000409928
0.00041027
0.000405903
0.000405994
0.000400163
0.000399623
0.000388525
0.000388637
0.00037793
0.000377909
0.00037027
0.000369182
0.000366583
0.000363953
0.000369154
0.00036628
0.000376275
0.000374464
0.000389095
0.000389569
0.000409033
0.000411097
0.000431709
0.000434413
0.00045297
0.000455487
0.000468745
0.000471346
0.000477618
0.000480228
0.000481406
0.000484036
0.000482845
0.000486048
0.000485135
0.000488446
0.000493411
0.000495532
0.000511243
0.00051205
0.000539568
0.000540034
0.000566156
0.000566915
0.000590964
0.000592111
0.000600301
0.000600666
0.000586149
0.000584766
0.00060096
0.000599101
0.000610094
0.000609512
0.000623442
0.000623457
0.000634663
0.000635212
0.000644958
0.000646043
0.000654974
0.000656098
0.000666242
0.000666697
0.000680212
0.000679998
0.000697569
0.000697469
0.000718111
0.000718405
0.000739744
0.000739267
0.000760516
0.000759358
0.000780317
0.00077865
0.00079906
0.000797107
0.00081496
0.000812737
0.000823073
0.000818585
0.000821038
0.000813904
0.000813891
0.000805488
0.000808197
0.000800089
0.00080746
0.000800491
0.000816113
0.000811273
0.000848846
0.000846872
0.000927096
0.000926882
0.00101713
0.00101359
0.00107287
0.00106584
0.00111667
0.00110742
0.00115484
0.00114285
0.00118823
0.00117812
0.00124945
0.00126323
0.00133255
0.00135432
0.00138874
0.0014027
0.00151128
0.00152774
0.00161309
0.00163561
0.0020535
0.00209529
0.00041369
0.000413483
0.000409841
0.000409802
0.000406082
0.000406601
0.000399602
0.000399924
0.000386313
0.000387767
0.000384231
0.000383947
0.000383695
0.00038354
0.000412591
0.000411234
0.000441859
0.000440668
0.000469395
0.000468349
0.000496724
0.000495155
0.000523591
0.000521734
0.000544919
0.000543535
0.000558629
0.000557944
0.000565905
0.00056571
0.000573772
0.000573525
0.000580386
0.000580297
0.000591906
0.000591772
0.000608121
0.000608131
0.000608909
0.000609713
0.000608192
0.00060823
0.000609412
0.000609219
0.000609076
0.000609173
0.000611914
0.000611371
0.000955476
0.0010062
0.00151574
0.00151525
0.00157886
0.00156531
0.00158023
0.00156303
0.00157273
0.00155203
0.00156053
0.00153882
0.00155818
0.00153633
0.00154655
0.0015259
0.00152836
0.00150798
0.00150606
0.00148644
0.0014802
0.00146112
0.00145317
0.00143173
0.00142683
0.00140322
0.00140518
0.00138204
0.00139515
0.00137489
0.00139513
0.00137625
0.00139723
0.00137794
0.00140012
0.00137958
0.00141601
0.0013992
0.00138921
0.00137722
0.00144672
0.00145503
0.00169576
0.00171102
0.00198336
0.00200148
0.00217262
0.00219237
0.0021322
0.00214912
0.00218354
0.00216493
0.00308253
0.00306388
0.00333744
0.00335198
0.003512
0.00353007
0.00367572
0.00369353
0.00384216
0.00385755
0.00403161
0.00404277
0.00424405
0.0042521
0.00447903
0.0044856
0.00474666
0.00475253
0.00505353
0.00505749
)
;
    }
}


// ************************************************************************* //
