/*--------------------------------*- C++ -*----------------------------------*\
  =========                 |
  \\      /  F ield         | OpenFOAM: The Open Source CFD Toolbox
   \\    /   O peration     | Website:  https://openfoam.org
    \\  /    A nd           | Version:  8
     \\/     M anipulation  |
\*---------------------------------------------------------------------------*/
FoamFile
{
    version     2.0;
    format      ascii;
    class       volScalarField;
    location    "200";
    object      epsilon;
}
// * * * * * * * * * * * * * * * * * * * * * * * * * * * * * * * * * * * * * //

dimensions      [0 2 -3 0 0 0 0];

internalField   nonuniform List<scalar> 
1200
(
5.35521e-06
5.26229e-06
5.16205e-06
4.99427e-06
4.69208e-06
4.63321e-06
4.63825e-06
5.31827e-06
6.09631e-06
6.89801e-06
7.76974e-06
8.68132e-06
9.43702e-06
9.93465e-06
1.01987e-05
1.05016e-05
1.0757e-05
1.12271e-05
1.191e-05
1.1915e-05
3.06079e-05
3.07515e-05
3.06775e-05
3.10946e-05
9.78768e-05
0.000389053
0.00044391
0.000446488
0.000441516
0.000432477
0.000430865
0.000421355
0.000407089
0.000389856
0.000370729
0.000352381
0.000335164
0.000320727
0.000313277
0.000312786
0.000314343
0.000316572
0.000326069
0.000308706
0.000351056
0.00054994
0.00085533
0.00110666
0.00104801
0.00116719
0.00321533
0.00404426
0.00471278
0.00540964
0.00619371
0.00717785
0.00839755
0.0098972
0.0118124
0.0143044
5.37543e-06
4.65116e-06
4.01531e-06
3.46554e-06
3.38075e-06
3.65497e-06
4.22044e-06
6.84177e-06
8.12423e-06
8.25716e-06
8.28392e-06
8.25336e-06
8.06243e-06
7.66205e-06
7.5123e-06
7.37612e-06
7.49424e-06
8.0037e-06
8.36123e-06
8.35887e-06
8.42884e-06
8.69341e-06
8.63646e-06
9.53011e-06
0.000118856
0.00032197
0.000207582
9.99199e-05
5.81872e-05
5.92272e-05
6.35923e-05
6.81726e-05
8.13609e-05
0.000112996
0.000156428
0.000197863
0.000233272
0.000281242
0.000361649
0.000464555
0.000584404
0.000733343
0.000926957
0.00118294
0.00152338
0.00197231
0.00254669
0.00324866
0.00401664
0.00488894
0.00671458
0.00803989
0.00914702
0.0102497
0.0116691
0.0134812
0.0154704
0.0176824
0.0202353
0.0232761
5.36914e-06
4.62544e-06
3.98111e-06
3.41533e-06
4.09569e-06
6.41015e-06
6.59859e-06
7.20293e-06
7.05037e-06
6.75772e-06
6.39194e-06
5.83301e-06
5.30257e-06
5.41016e-06
5.70223e-06
5.95352e-06
6.63258e-06
7.30097e-06
7.78658e-06
8.19552e-06
8.64897e-06
9.21004e-06
9.98496e-06
1.13646e-05
9.14465e-05
0.000215065
9.45611e-05
1.15003e-05
1.02349e-05
1.08104e-05
1.14611e-05
5.00538e-05
5.05177e-05
4.98086e-05
4.97348e-05
5.06782e-05
7.40386e-05
0.000158325
0.00032357
0.00045983
0.00058265
0.000733618
0.00092109
0.00115228
0.0014392
0.00179481
0.00223392
0.00275987
0.00335051
0.00382213
0.00385483
0.00267291
0.00101744
0.000669159
0.00110735
0.00191758
0.00353454
0.00645609
0.0113064
0.0184758
5.3705e-06
4.62477e-06
3.98126e-06
3.41003e-06
3.3279e-06
4.5963e-06
5.97628e-06
6.25076e-06
5.19459e-06
4.9779e-06
4.95243e-06
4.86503e-06
5.18129e-06
6.03757e-06
6.59998e-06
6.55598e-06
6.96204e-06
7.32232e-06
7.7676e-06
8.22322e-06
8.6997e-06
9.27016e-06
1.00551e-05
1.14481e-05
7.1037e-05
0.000170815
7.14005e-05
1.07516e-05
1.01794e-05
9.22034e-06
9.98502e-06
9.85647e-06
9.485e-06
9.00882e-06
8.5157e-06
8.39262e-06
9.1023e-06
1.09805e-05
6.89305e-05
0.000124786
0.000247931
0.000396472
0.000551393
0.000742098
0.000974006
0.00126341
0.00164106
0.0021013
0.00253788
0.00270441
0.00218995
0.000830332
0.000241018
0.000192947
0.000157663
0.000129489
0.000197297
0.000424065
0.00082799
0.00240727
5.36841e-06
4.62627e-06
3.9869e-06
3.4247e-06
3.08423e-06
3.48587e-06
4.515e-06
5.23475e-06
4.59309e-06
4.83233e-06
4.57081e-06
4.08687e-06
4.33113e-06
5.7073e-06
6.92468e-06
7.39918e-06
7.44527e-06
7.63868e-06
7.77983e-06
7.94208e-06
8.12903e-06
8.32811e-06
8.60719e-06
9.56668e-06
5.35481e-05
0.000137229
7.57008e-05
1.16154e-05
1.13641e-05
9.62377e-06
9.32818e-06
9.31416e-06
8.96541e-06
8.38029e-06
7.68738e-06
7.19891e-06
7.00889e-06
7.61975e-06
9.29712e-06
5.11982e-05
9.747e-05
0.000183685
0.000261212
0.000374106
0.00053296
0.000768685
0.00111957
0.0015691
0.00197189
0.00209063
0.00166285
0.00045784
0.000360569
0.000265366
0.000211636
0.000173959
0.000143321
0.000115972
0.000160619
0.00034633
5.36472e-06
4.62857e-06
3.9915e-06
3.43955e-06
3.02186e-06
2.98742e-06
3.50547e-06
4.05857e-06
3.96308e-06
3.57015e-06
3.41008e-06
3.14564e-06
2.83595e-06
3.00887e-06
4.51414e-06
6.60916e-06
7.3215e-06
7.50011e-06
7.55885e-06
7.51157e-06
7.34333e-06
7.02494e-06
6.79524e-06
7.18246e-06
9.60322e-06
0.000105895
7.67818e-05
5.80647e-05
4.90632e-05
1.04995e-05
9.37996e-06
8.89444e-06
8.56094e-06
8.08931e-06
7.48565e-06
6.97991e-06
6.63377e-06
6.50542e-06
6.92828e-06
8.26888e-06
1.16084e-05
8.46718e-05
0.000131902
0.000195002
0.000268443
0.00038575
0.000604246
0.00101857
0.0015179
0.00172737
0.0013225
0.000790132
0.000506687
0.000346811
0.000264212
0.000221768
0.000191524
0.000163801
0.000142128
0.000150941
5.36787e-06
4.63702e-06
4.00868e-06
3.45581e-06
3.01488e-06
2.78437e-06
2.88573e-06
3.1361e-06
3.16397e-06
3.07204e-06
2.88981e-06
2.65845e-06
2.43031e-06
2.2258e-06
2.23268e-06
2.85571e-06
3.90861e-06
5.04226e-06
6.0473e-06
6.67482e-06
6.93565e-06
7.01736e-06
6.19949e-06
5.30507e-06
5.75431e-06
6.25414e-05
6.22065e-05
5.37168e-05
1.15897e-05
1.07635e-05
9.72976e-06
8.91405e-06
8.35961e-06
7.88164e-06
7.40768e-06
6.98339e-06
6.65843e-06
6.43378e-06
6.32242e-06
6.56459e-06
7.77321e-06
1.04508e-05
6.18755e-05
9.42458e-05
0.000134459
0.000193943
0.000309048
0.000568819
0.00099417
0.0012711
0.00108274
0.000786057
0.000537661
0.000370057
0.000281088
0.000241029
0.000212351
0.000182339
0.000153863
0.000135198
5.37326e-06
4.63693e-06
4.00834e-06
3.47157e-06
3.02461e-06
2.71357e-06
2.584e-06
2.5683e-06
2.51268e-06
2.45271e-06
2.34445e-06
2.19279e-06
2.05438e-06
1.92218e-06
1.82037e-06
1.87866e-06
2.22187e-06
2.81552e-06
3.5773e-06
4.29114e-06
4.76763e-06
4.84719e-06
4.64857e-06
4.44198e-06
4.40225e-06
8.26171e-06
1.04415e-05
1.07702e-05
1.0458e-05
9.99187e-06
9.43691e-06
8.86753e-06
8.36223e-06
7.92728e-06
7.55338e-06
7.23524e-06
6.97329e-06
6.77028e-06
6.60977e-06
6.50409e-06
6.61557e-06
7.26636e-06
8.63651e-06
1.09696e-05
6.11072e-05
8.83461e-05
0.000142037
0.000269285
0.00052607
0.000749771
0.000715879
0.000571674
0.000428411
0.000320525
0.000267417
0.00025293
0.000235925
0.000205202
0.000173519
0.000148994
5.38126e-06
4.66494e-06
4.06242e-06
3.53558e-06
3.09039e-06
2.75174e-06
2.51787e-06
2.36889e-06
2.25158e-06
2.15884e-06
2.06954e-06
1.97946e-06
1.91883e-06
1.87979e-06
1.84004e-06
1.80108e-06
1.81887e-06
1.93804e-06
2.17018e-06
2.44507e-06
2.62638e-06
2.63611e-06
2.96084e-06
3.17619e-06
3.20263e-06
4.65427e-06
5.87511e-06
6.41445e-06
6.56175e-06
6.71259e-06
6.86109e-06
6.97769e-06
7.01548e-06
6.96151e-06
6.84704e-06
6.76789e-06
6.86429e-06
7.11151e-06
7.41795e-06
7.68532e-06
7.81568e-06
7.89077e-06
8.08347e-06
8.62905e-06
9.58903e-06
1.1213e-05
6.35476e-05
0.000108588
0.000212752
0.000320041
0.000324329
0.000288835
0.000258682
0.000241756
0.000255738
0.000288746
0.000290986
0.000239447
0.000188118
0.000154024
5.35276e-06
5.26923e-06
5.17223e-06
5.0153e-06
4.71534e-06
4.44899e-06
4.25555e-06
4.16528e-06
4.22998e-06
4.41037e-06
4.75167e-06
5.2752e-06
5.88149e-06
6.46705e-06
6.93098e-06
7.20387e-06
7.3253e-06
7.3668e-06
7.43357e-06
7.71143e-06
8.31061e-06
9.29728e-06
1.02634e-05
1.12531e-05
1.16869e-05
1.09938e-05
1.15925e-05
3.11407e-05
3.30738e-05
3.46405e-05
3.61133e-05
3.75848e-05
3.92595e-05
4.1408e-05
4.42764e-05
4.79222e-05
5.18717e-05
5.58344e-05
5.98101e-05
6.37272e-05
6.7088e-05
6.85922e-05
6.77706e-05
6.60058e-05
6.47881e-05
6.47701e-05
6.69355e-05
7.49563e-05
9.59103e-05
0.000123305
0.000142464
0.000159229
0.000174846
0.000190407
0.00022627
0.000275293
0.000307576
0.00039299
0.000476782
0.000977106
5.35173e-06
5.26676e-06
5.18308e-06
5.00552e-06
4.70765e-06
4.60292e-06
4.60101e-06
5.29532e-06
6.0739e-06
6.87635e-06
7.71763e-06
8.6182e-06
9.39e-06
9.91292e-06
1.0196e-05
1.04962e-05
1.0757e-05
1.12238e-05
1.19123e-05
1.18855e-05
3.08279e-05
3.07681e-05
3.07001e-05
3.10236e-05
0.000113742
0.000389706
0.00043327
0.000432899
0.000425441
0.000415704
0.000413554
0.000405108
0.000391377
0.000375257
0.000357218
0.000337936
0.00031976
0.000305739
0.000299975
0.000300568
0.000301775
0.000303173
0.000314998
0.000299409
0.000355067
0.00056432
0.000879124
0.00113678
0.00107101
0.00112521
0.00316817
0.00409769
0.00478496
0.00548755
0.00626632
0.00723522
0.00844366
0.00993973
0.0118554
0.0143377
5.38363e-06
4.66405e-06
4.02685e-06
3.47753e-06
3.34548e-06
3.68924e-06
4.15428e-06
6.73877e-06
8.07981e-06
8.22092e-06
8.24261e-06
8.20978e-06
8.01789e-06
7.6162e-06
7.46441e-06
7.32772e-06
7.44674e-06
7.95846e-06
8.31909e-06
8.32224e-06
8.39202e-06
8.65779e-06
8.61811e-06
9.846e-06
0.000132383
0.000313932
0.000190594
9.07496e-05
5.52017e-05
5.75241e-05
6.23761e-05
6.9616e-05
8.74954e-05
0.000120461
0.000159032
0.000194104
0.000224161
0.000272184
0.000355429
0.0004586
0.000575906
0.000723672
0.000917906
0.00117543
0.00151816
0.00196994
0.00254918
0.00326393
0.00405066
0.00490272
0.00677102
0.00819927
0.0093752
0.0105449
0.0118665
0.0136451
0.0155898
0.017735
0.0202384
0.0232551
5.36965e-06
4.62339e-06
3.97209e-06
3.40256e-06
4.03156e-06
6.34872e-06
6.55129e-06
7.15576e-06
7.01952e-06
6.70693e-06
6.31849e-06
5.74778e-06
5.22683e-06
5.34213e-06
5.63687e-06
5.88729e-06
6.57837e-06
7.25891e-06
7.75334e-06
8.1715e-06
8.63545e-06
9.21266e-06
1.0019e-05
1.15623e-05
9.96025e-05
0.00020789
8.45745e-05
1.14027e-05
1.0259e-05
1.08293e-05
1.14297e-05
4.95167e-05
1.16113e-05
4.97694e-05
4.92335e-05
1.14549e-05
6.11341e-05
0.000123087
0.000288506
0.000463162
0.000586589
0.000736975
0.000923837
0.0011552
0.00144358
0.00180214
0.00224548
0.00277865
0.00338691
0.00389336
0.00399065
0.00286703
0.00122704
0.000649714
0.00109075
0.00193643
0.00359885
0.0065613
0.0114271
0.0185652
5.36624e-06
4.62214e-06
3.98334e-06
3.41142e-06
3.30228e-06
4.52378e-06
5.92515e-06
6.23781e-06
5.28827e-06
5.02246e-06
4.99264e-06
4.8996e-06
5.21898e-06
6.07457e-06
6.63021e-06
6.58701e-06
6.9908e-06
7.34305e-06
7.7828e-06
8.23409e-06
8.70161e-06
9.25383e-06
1.00554e-05
5.04868e-05
7.63786e-05
0.000165386
7.32878e-05
1.08348e-05
1.0252e-05
9.23631e-06
1.0018e-05
9.85979e-06
9.44224e-06
8.96945e-06
8.4946e-06
8.35117e-06
8.89592e-06
1.02886e-05
5.97713e-05
0.000112255
0.000240353
0.000392411
0.000543945
0.000730025
0.000956983
0.00124305
0.00162635
0.00210426
0.00256501
0.00276021
0.00225878
0.000763973
0.000229205
0.000182746
0.000148468
0.000122017
0.000263293
0.000554231
0.000976247
0.00406833
5.368e-06
4.62688e-06
3.98813e-06
3.42508e-06
3.07583e-06
3.43831e-06
4.45819e-06
5.18342e-06
4.53402e-06
4.87578e-06
4.59786e-06
4.11258e-06
4.37235e-06
5.75467e-06
6.96483e-06
7.43231e-06
7.47705e-06
7.66633e-06
7.80251e-06
7.96051e-06
8.14572e-06
8.34853e-06
8.63053e-06
9.56621e-06
5.37784e-05
0.000133078
7.88617e-05
5.04875e-05
1.1421e-05
9.63325e-06
9.3492e-06
9.34605e-06
8.98824e-06
8.39961e-06
7.71234e-06
7.24122e-06
7.01002e-06
7.44227e-06
8.91846e-06
1.15972e-05
9.18763e-05
0.000181462
0.00026147
0.000372705
0.000520779
0.000758274
0.00111205
0.00156565
0.00197949
0.00211574
0.00166259
0.000443915
0.000340009
0.000249503
0.000200124
0.000164
0.000133645
0.000109123
0.000167228
0.000758204
5.37134e-06
4.63258e-06
3.99066e-06
3.43917e-06
3.02497e-06
2.96506e-06
3.46083e-06
3.98919e-06
3.88033e-06
3.53332e-06
3.46845e-06
3.16214e-06
2.84583e-06
3.04165e-06
4.58011e-06
6.66406e-06
7.35813e-06
7.53292e-06
7.58974e-06
7.54209e-06
7.37684e-06
7.06406e-06
6.83111e-06
7.17451e-06
9.43204e-06
0.000105375
7.87156e-05
5.94342e-05
1.16177e-05
1.04973e-05
9.35925e-06
8.88748e-06
8.56201e-06
8.08806e-06
7.47997e-06
6.98541e-06
6.65551e-06
6.50211e-06
6.78682e-06
8.0906e-06
1.12751e-05
8.48364e-05
0.000135666
0.000201166
0.000272579
0.000388416
0.000608484
0.00102383
0.00151642
0.00172066
0.00128884
0.00074525
0.000471558
0.000321793
0.00024919
0.000211324
0.000182293
0.000155156
0.000136322
0.000176925
5.37273e-06
4.64094e-06
4.00392e-06
3.44793e-06
3.01644e-06
2.78381e-06
2.86391e-06
3.07876e-06
3.07732e-06
3.00216e-06
2.84472e-06
2.65157e-06
2.42628e-06
2.22745e-06
2.24603e-06
2.86703e-06
3.91924e-06
5.06992e-06
6.08844e-06
6.71667e-06
6.97414e-06
7.05656e-06
6.2417e-06
5.33864e-06
5.59578e-06
6.17907e-05
6.35845e-05
5.48111e-05
4.90397e-05
1.075e-05
9.68896e-06
8.8739e-06
8.32923e-06
7.85457e-06
7.38033e-06
6.96218e-06
6.65416e-06
6.44913e-06
6.32676e-06
6.53768e-06
7.70719e-06
1.0544e-05
6.43315e-05
9.87206e-05
0.00013988
0.000199703
0.000315928
0.000578338
0.000998835
0.00125451
0.00104215
0.000739624
0.000497241
0.000340805
0.00026538
0.000231466
0.000203217
0.000173299
0.000145859
0.000131351
5.37448e-06
4.64067e-06
4.01526e-06
3.48028e-06
3.02247e-06
2.71303e-06
2.58246e-06
2.5494e-06
2.46609e-06
2.39451e-06
2.29677e-06
2.17831e-06
2.05815e-06
1.92198e-06
1.81968e-06
1.88223e-06
2.22686e-06
2.8253e-06
3.60025e-06
4.32768e-06
4.81347e-06
4.90101e-06
4.69242e-06
4.47519e-06
4.40048e-06
8.23374e-06
1.05576e-05
1.08379e-05
1.04643e-05
9.96671e-06
9.39824e-06
8.82566e-06
8.32313e-06
7.89115e-06
7.52161e-06
7.21063e-06
6.96085e-06
6.78229e-06
6.6451e-06
6.54363e-06
6.64686e-06
7.35118e-06
8.8694e-06
1.13181e-05
6.41129e-05
9.23209e-05
0.000147324
0.000277219
0.000533629
0.000739016
0.00068843
0.000539936
0.000398342
0.000298158
0.000258373
0.000249036
0.000228732
0.000196993
0.000165529
0.000142182
5.3811e-06
4.66658e-06
4.06626e-06
3.54555e-06
3.10267e-06
2.75754e-06
2.51895e-06
2.36913e-06
2.2573e-06
2.16969e-06
2.08145e-06
1.99443e-06
1.93984e-06
1.91085e-06
1.86947e-06
1.82337e-06
1.83255e-06
1.94414e-06
2.17395e-06
2.45463e-06
2.64974e-06
2.67691e-06
3.0014e-06
3.18718e-06
3.17766e-06
4.70437e-06
5.98056e-06
6.48329e-06
6.59397e-06
6.72547e-06
6.87044e-06
6.98737e-06
7.02223e-06
6.96152e-06
6.84181e-06
6.79267e-06
6.97011e-06
7.3029e-06
7.69541e-06
8.00872e-06
8.09066e-06
8.11937e-06
8.29726e-06
8.86158e-06
9.86624e-06
1.14472e-05
6.57109e-05
0.000112275
0.000217205
0.000316147
0.000311547
0.000274876
0.000245268
0.000233061
0.000260496
0.000295162
0.000282534
0.000225862
0.000177753
0.000146613
5.3551e-06
5.27198e-06
5.16576e-06
5.00421e-06
4.71846e-06
4.44431e-06
4.23125e-06
4.11592e-06
4.18335e-06
4.39245e-06
4.78088e-06
5.3348e-06
5.95301e-06
6.54473e-06
7.01588e-06
7.28833e-06
7.40577e-06
7.48113e-06
7.56617e-06
7.81275e-06
8.38314e-06
9.38294e-06
1.0374e-05
1.13598e-05
1.17508e-05
1.09801e-05
1.15392e-05
3.11229e-05
3.30491e-05
3.46356e-05
3.61339e-05
3.7544e-05
3.90756e-05
4.11372e-05
4.40594e-05
4.77431e-05
5.15552e-05
5.54288e-05
5.93084e-05
6.31563e-05
6.64896e-05
6.74735e-05
6.61092e-05
6.41412e-05
6.30394e-05
6.32737e-05
6.58816e-05
7.44795e-05
9.57309e-05
0.000121836
0.00013956
0.000155261
0.000169576
0.000186827
0.000236965
0.000289222
0.000316203
0.000404957
0.000497486
0.00103809
)
;

boundaryField
{
    wall
    {
        type            epsilonWallFunction;
        value           nonuniform List<scalar> 
1200
(
5.35521e-06
5.37543e-06
5.36914e-06
5.3705e-06
5.36841e-06
5.36472e-06
5.36787e-06
5.37326e-06
5.38126e-06
5.35276e-06
5.26229e-06
4.65116e-06
4.62544e-06
4.62477e-06
4.62627e-06
4.62857e-06
4.63702e-06
4.63693e-06
4.66494e-06
5.26923e-06
5.16205e-06
4.01531e-06
3.98111e-06
3.98126e-06
3.9869e-06
3.9915e-06
4.00868e-06
4.00834e-06
4.06242e-06
5.17223e-06
4.99427e-06
3.46554e-06
3.41533e-06
3.41003e-06
3.4247e-06
3.43955e-06
3.45581e-06
3.47157e-06
3.53558e-06
5.0153e-06
4.69208e-06
3.38075e-06
4.09569e-06
3.3279e-06
3.08423e-06
3.02186e-06
3.01488e-06
3.02461e-06
3.09039e-06
4.71534e-06
4.63321e-06
3.65497e-06
6.41015e-06
4.5963e-06
3.48587e-06
2.98742e-06
2.78437e-06
2.71357e-06
2.75174e-06
4.44899e-06
4.63825e-06
4.22044e-06
6.59859e-06
5.97628e-06
4.515e-06
3.50547e-06
2.88573e-06
2.584e-06
2.51787e-06
4.25555e-06
5.31827e-06
6.84177e-06
7.20293e-06
6.25076e-06
5.23475e-06
4.05857e-06
3.1361e-06
2.5683e-06
2.36889e-06
4.16528e-06
6.09631e-06
8.12423e-06
7.05037e-06
5.19459e-06
4.59309e-06
3.96308e-06
3.16397e-06
2.51268e-06
2.25158e-06
4.22998e-06
6.89801e-06
8.25716e-06
6.75772e-06
4.9779e-06
4.83233e-06
3.57015e-06
3.07204e-06
2.45271e-06
2.15884e-06
4.41037e-06
7.76974e-06
8.28392e-06
6.39194e-06
4.95243e-06
4.57081e-06
3.41008e-06
2.88981e-06
2.34445e-06
2.06954e-06
4.75167e-06
8.68132e-06
8.25336e-06
5.83301e-06
4.86503e-06
4.08687e-06
3.14564e-06
2.65845e-06
2.19279e-06
1.97946e-06
5.2752e-06
9.43702e-06
8.06243e-06
5.30257e-06
5.18129e-06
4.33113e-06
2.83595e-06
2.43031e-06
2.05438e-06
1.91883e-06
5.88149e-06
9.93465e-06
7.66205e-06
5.41016e-06
6.03757e-06
5.7073e-06
3.00887e-06
2.2258e-06
1.92218e-06
1.87979e-06
6.46705e-06
1.01987e-05
7.5123e-06
5.70223e-06
6.59998e-06
6.92468e-06
4.51414e-06
2.23268e-06
1.82037e-06
1.84004e-06
6.93098e-06
1.05016e-05
7.37612e-06
5.95352e-06
6.55598e-06
7.39918e-06
6.60916e-06
2.85571e-06
1.87866e-06
1.80108e-06
7.20387e-06
1.0757e-05
7.49424e-06
6.63258e-06
6.96204e-06
7.44527e-06
7.3215e-06
3.90861e-06
2.22187e-06
1.81887e-06
7.3253e-06
1.12271e-05
8.0037e-06
7.30097e-06
7.32232e-06
7.63868e-06
7.50011e-06
5.04226e-06
2.81552e-06
1.93804e-06
7.3668e-06
1.191e-05
8.36123e-06
7.78658e-06
7.7676e-06
7.77983e-06
7.55885e-06
6.0473e-06
3.5773e-06
2.17018e-06
7.43357e-06
1.1915e-05
8.35887e-06
8.19552e-06
8.22322e-06
7.94208e-06
7.51157e-06
6.67482e-06
4.29114e-06
2.44507e-06
7.71143e-06
3.06079e-05
8.42884e-06
8.64897e-06
8.6997e-06
8.12903e-06
7.34333e-06
6.93565e-06
4.76763e-06
2.62638e-06
8.31061e-06
3.07515e-05
8.69341e-06
9.21004e-06
9.27016e-06
8.32811e-06
7.02494e-06
7.01736e-06
4.84719e-06
2.63611e-06
9.29728e-06
3.06775e-05
8.63646e-06
9.98496e-06
1.00551e-05
8.60719e-06
6.79524e-06
6.19949e-06
4.64857e-06
2.96084e-06
1.02634e-05
3.10946e-05
9.53011e-06
1.13646e-05
1.14481e-05
9.56668e-06
7.18246e-06
5.30507e-06
4.44198e-06
3.17619e-06
1.12531e-05
9.78768e-05
0.000118856
9.14465e-05
7.1037e-05
5.35481e-05
9.60322e-06
5.75431e-06
4.40225e-06
3.20263e-06
1.16869e-05
0.000389053
0.00032197
0.000215065
0.000170815
0.000137229
0.000105895
6.25414e-05
8.26171e-06
4.65427e-06
1.09938e-05
0.00044391
0.000207582
9.45611e-05
7.14005e-05
7.57008e-05
7.67818e-05
6.22065e-05
1.04415e-05
5.87511e-06
1.15925e-05
0.000446488
9.99199e-05
1.15003e-05
1.07516e-05
1.16154e-05
5.80647e-05
5.37168e-05
1.07702e-05
6.41445e-06
3.11407e-05
0.000441516
5.81872e-05
1.02349e-05
1.01794e-05
1.13641e-05
4.90632e-05
1.15897e-05
1.0458e-05
6.56175e-06
3.30738e-05
0.000432477
5.92272e-05
1.08104e-05
9.22034e-06
9.62377e-06
1.04995e-05
1.07635e-05
9.99187e-06
6.71259e-06
3.46405e-05
0.000430865
6.35923e-05
1.14611e-05
9.98502e-06
9.32818e-06
9.37996e-06
9.72976e-06
9.43691e-06
6.86109e-06
3.61133e-05
0.000421355
6.81726e-05
5.00538e-05
9.85647e-06
9.31416e-06
8.89444e-06
8.91405e-06
8.86753e-06
6.97769e-06
3.75848e-05
0.000407089
8.13609e-05
5.05177e-05
9.485e-06
8.96541e-06
8.56094e-06
8.35961e-06
8.36223e-06
7.01548e-06
3.92595e-05
0.000389856
0.000112996
4.98086e-05
9.00882e-06
8.38029e-06
8.08931e-06
7.88164e-06
7.92728e-06
6.96151e-06
4.1408e-05
0.000370729
0.000156428
4.97348e-05
8.5157e-06
7.68738e-06
7.48565e-06
7.40768e-06
7.55338e-06
6.84704e-06
4.42764e-05
0.000352381
0.000197863
5.06782e-05
8.39262e-06
7.19891e-06
6.97991e-06
6.98339e-06
7.23524e-06
6.76789e-06
4.79222e-05
0.000335164
0.000233272
7.40386e-05
9.1023e-06
7.00889e-06
6.63377e-06
6.65843e-06
6.97329e-06
6.86429e-06
5.18717e-05
0.000320727
0.000281242
0.000158325
1.09805e-05
7.61975e-06
6.50542e-06
6.43378e-06
6.77028e-06
7.11151e-06
5.58344e-05
0.000313277
0.000361649
0.00032357
6.89305e-05
9.29712e-06
6.92828e-06
6.32242e-06
6.60977e-06
7.41795e-06
5.98101e-05
0.000312786
0.000464555
0.00045983
0.000124786
5.11982e-05
8.26888e-06
6.56459e-06
6.50409e-06
7.68532e-06
6.37272e-05
0.000314343
0.000584404
0.00058265
0.000247931
9.747e-05
1.16084e-05
7.77321e-06
6.61557e-06
7.81568e-06
6.7088e-05
0.000316572
0.000733343
0.000733618
0.000396472
0.000183685
8.46718e-05
1.04508e-05
7.26636e-06
7.89077e-06
6.85922e-05
0.000326069
0.000926957
0.00092109
0.000551393
0.000261212
0.000131902
6.18755e-05
8.63651e-06
8.08347e-06
6.77706e-05
0.000308706
0.00118294
0.00115228
0.000742098
0.000374106
0.000195002
9.42458e-05
1.09696e-05
8.62905e-06
6.60058e-05
0.000351056
0.00152338
0.0014392
0.000974006
0.00053296
0.000268443
0.000134459
6.11072e-05
9.58903e-06
6.47881e-05
0.00054994
0.00197231
0.00179481
0.00126341
0.000768685
0.00038575
0.000193943
8.83461e-05
1.1213e-05
6.47701e-05
0.00085533
0.00254669
0.00223392
0.00164106
0.00111957
0.000604246
0.000309048
0.000142037
6.35476e-05
6.69355e-05
0.00110666
0.00324866
0.00275987
0.0021013
0.0015691
0.00101857
0.000568819
0.000269285
0.000108588
7.49563e-05
0.00104801
0.00401664
0.00335051
0.00253788
0.00197189
0.0015179
0.00099417
0.00052607
0.000212752
9.59103e-05
0.00116719
0.00488894
0.00382213
0.00270441
0.00209063
0.00172737
0.0012711
0.000749771
0.000320041
0.000123305
0.00321533
0.00671458
0.00385483
0.00218995
0.00166285
0.0013225
0.00108274
0.000715879
0.000324329
0.000142464
0.00404426
0.00803989
0.00267291
0.000830332
0.00045784
0.000790132
0.000786057
0.000571674
0.000288835
0.000159229
0.00471278
0.00914702
0.00101744
0.000241018
0.000360569
0.000506687
0.000537661
0.000428411
0.000258682
0.000174846
0.00540964
0.0102497
0.000669159
0.000192947
0.000265366
0.000346811
0.000370057
0.000320525
0.000241756
0.000190407
0.00619371
0.0116691
0.00110735
0.000157663
0.000211636
0.000264212
0.000281088
0.000267417
0.000255738
0.00022627
0.00717785
0.0134812
0.00191758
0.000129489
0.000173959
0.000221768
0.000241029
0.00025293
0.000288746
0.000275293
0.00839755
0.0154704
0.00353454
0.000197297
0.000143321
0.000191524
0.000212351
0.000235925
0.000290986
0.000307576
0.0098972
0.0176824
0.00645609
0.000424065
0.000115972
0.000163801
0.000182339
0.000205202
0.000239447
0.00039299
0.0118124
0.0202353
0.0113064
0.00082799
0.000160619
0.000142128
0.000153863
0.000173519
0.000188118
0.000476782
0.0143044
0.0232761
0.0184758
0.00240727
0.00034633
0.000150941
0.000135198
0.000148994
0.000154024
0.000977106
5.35173e-06
5.38363e-06
5.36965e-06
5.36624e-06
5.368e-06
5.37134e-06
5.37273e-06
5.37448e-06
5.3811e-06
5.3551e-06
5.26676e-06
4.66405e-06
4.62339e-06
4.62214e-06
4.62688e-06
4.63258e-06
4.64094e-06
4.64067e-06
4.66658e-06
5.27198e-06
5.18308e-06
4.02685e-06
3.97209e-06
3.98334e-06
3.98813e-06
3.99066e-06
4.00392e-06
4.01526e-06
4.06626e-06
5.16576e-06
5.00552e-06
3.47753e-06
3.40256e-06
3.41142e-06
3.42508e-06
3.43917e-06
3.44793e-06
3.48028e-06
3.54555e-06
5.00421e-06
4.70765e-06
3.34548e-06
4.03156e-06
3.30228e-06
3.07583e-06
3.02497e-06
3.01644e-06
3.02247e-06
3.10267e-06
4.71846e-06
4.60292e-06
3.68924e-06
6.34872e-06
4.52378e-06
3.43831e-06
2.96506e-06
2.78381e-06
2.71303e-06
2.75754e-06
4.44431e-06
4.60101e-06
4.15428e-06
6.55129e-06
5.92515e-06
4.45819e-06
3.46083e-06
2.86391e-06
2.58246e-06
2.51895e-06
4.23125e-06
5.29532e-06
6.73877e-06
7.15576e-06
6.23781e-06
5.18342e-06
3.98919e-06
3.07876e-06
2.5494e-06
2.36913e-06
4.11592e-06
6.0739e-06
8.07981e-06
7.01952e-06
5.28827e-06
4.53402e-06
3.88033e-06
3.07732e-06
2.46609e-06
2.2573e-06
4.18335e-06
6.87635e-06
8.22092e-06
6.70693e-06
5.02246e-06
4.87578e-06
3.53332e-06
3.00216e-06
2.39451e-06
2.16969e-06
4.39245e-06
7.71763e-06
8.24261e-06
6.31849e-06
4.99264e-06
4.59786e-06
3.46845e-06
2.84472e-06
2.29677e-06
2.08145e-06
4.78088e-06
8.6182e-06
8.20978e-06
5.74778e-06
4.8996e-06
4.11258e-06
3.16214e-06
2.65157e-06
2.17831e-06
1.99443e-06
5.3348e-06
9.39e-06
8.01789e-06
5.22683e-06
5.21898e-06
4.37235e-06
2.84583e-06
2.42628e-06
2.05815e-06
1.93984e-06
5.95301e-06
9.91292e-06
7.6162e-06
5.34213e-06
6.07457e-06
5.75467e-06
3.04165e-06
2.22745e-06
1.92198e-06
1.91085e-06
6.54473e-06
1.0196e-05
7.46441e-06
5.63687e-06
6.63021e-06
6.96483e-06
4.58011e-06
2.24603e-06
1.81968e-06
1.86947e-06
7.01588e-06
1.04962e-05
7.32772e-06
5.88729e-06
6.58701e-06
7.43231e-06
6.66406e-06
2.86703e-06
1.88223e-06
1.82337e-06
7.28833e-06
1.0757e-05
7.44674e-06
6.57837e-06
6.9908e-06
7.47705e-06
7.35813e-06
3.91924e-06
2.22686e-06
1.83255e-06
7.40577e-06
1.12238e-05
7.95846e-06
7.25891e-06
7.34305e-06
7.66633e-06
7.53292e-06
5.06992e-06
2.8253e-06
1.94414e-06
7.48113e-06
1.19123e-05
8.31909e-06
7.75334e-06
7.7828e-06
7.80251e-06
7.58974e-06
6.08844e-06
3.60025e-06
2.17395e-06
7.56617e-06
1.18855e-05
8.32224e-06
8.1715e-06
8.23409e-06
7.96051e-06
7.54209e-06
6.71667e-06
4.32768e-06
2.45463e-06
7.81275e-06
3.08279e-05
8.39202e-06
8.63545e-06
8.70161e-06
8.14572e-06
7.37684e-06
6.97414e-06
4.81347e-06
2.64974e-06
8.38314e-06
3.07681e-05
8.65779e-06
9.21266e-06
9.25383e-06
8.34853e-06
7.06406e-06
7.05656e-06
4.90101e-06
2.67691e-06
9.38294e-06
3.07001e-05
8.61811e-06
1.0019e-05
1.00554e-05
8.63053e-06
6.83111e-06
6.2417e-06
4.69242e-06
3.0014e-06
1.0374e-05
3.10236e-05
9.846e-06
1.15623e-05
5.04868e-05
9.56621e-06
7.17451e-06
5.33864e-06
4.47519e-06
3.18718e-06
1.13598e-05
0.000113742
0.000132383
9.96025e-05
7.63786e-05
5.37784e-05
9.43204e-06
5.59578e-06
4.40048e-06
3.17766e-06
1.17508e-05
0.000389706
0.000313932
0.00020789
0.000165386
0.000133078
0.000105375
6.17907e-05
8.23374e-06
4.70437e-06
1.09801e-05
0.00043327
0.000190594
8.45745e-05
7.32878e-05
7.88617e-05
7.87156e-05
6.35845e-05
1.05576e-05
5.98056e-06
1.15392e-05
0.000432899
9.07496e-05
1.14027e-05
1.08348e-05
5.04875e-05
5.94342e-05
5.48111e-05
1.08379e-05
6.48329e-06
3.11229e-05
0.000425441
5.52017e-05
1.0259e-05
1.0252e-05
1.1421e-05
1.16177e-05
4.90397e-05
1.04643e-05
6.59397e-06
3.30491e-05
0.000415704
5.75241e-05
1.08293e-05
9.23631e-06
9.63325e-06
1.04973e-05
1.075e-05
9.96671e-06
6.72547e-06
3.46356e-05
0.000413554
6.23761e-05
1.14297e-05
1.0018e-05
9.3492e-06
9.35925e-06
9.68896e-06
9.39824e-06
6.87044e-06
3.61339e-05
0.000405108
6.9616e-05
4.95167e-05
9.85979e-06
9.34605e-06
8.88748e-06
8.8739e-06
8.82566e-06
6.98737e-06
3.7544e-05
0.000391377
8.74954e-05
1.16113e-05
9.44224e-06
8.98824e-06
8.56201e-06
8.32923e-06
8.32313e-06
7.02223e-06
3.90756e-05
0.000375257
0.000120461
4.97694e-05
8.96945e-06
8.39961e-06
8.08806e-06
7.85457e-06
7.89115e-06
6.96152e-06
4.11372e-05
0.000357218
0.000159032
4.92335e-05
8.4946e-06
7.71234e-06
7.47997e-06
7.38033e-06
7.52161e-06
6.84181e-06
4.40594e-05
0.000337936
0.000194104
1.14549e-05
8.35117e-06
7.24122e-06
6.98541e-06
6.96218e-06
7.21063e-06
6.79267e-06
4.77431e-05
0.00031976
0.000224161
6.11341e-05
8.89592e-06
7.01002e-06
6.65551e-06
6.65416e-06
6.96085e-06
6.97011e-06
5.15552e-05
0.000305739
0.000272184
0.000123087
1.02886e-05
7.44227e-06
6.50211e-06
6.44913e-06
6.78229e-06
7.3029e-06
5.54288e-05
0.000299975
0.000355429
0.000288506
5.97713e-05
8.91846e-06
6.78682e-06
6.32676e-06
6.6451e-06
7.69541e-06
5.93084e-05
0.000300568
0.0004586
0.000463162
0.000112255
1.15972e-05
8.0906e-06
6.53768e-06
6.54363e-06
8.00872e-06
6.31563e-05
0.000301775
0.000575906
0.000586589
0.000240353
9.18763e-05
1.12751e-05
7.70719e-06
6.64686e-06
8.09066e-06
6.64896e-05
0.000303173
0.000723672
0.000736975
0.000392411
0.000181462
8.48364e-05
1.0544e-05
7.35118e-06
8.11937e-06
6.74735e-05
0.000314998
0.000917906
0.000923837
0.000543945
0.00026147
0.000135666
6.43315e-05
8.8694e-06
8.29726e-06
6.61092e-05
0.000299409
0.00117543
0.0011552
0.000730025
0.000372705
0.000201166
9.87206e-05
1.13181e-05
8.86158e-06
6.41412e-05
0.000355067
0.00151816
0.00144358
0.000956983
0.000520779
0.000272579
0.00013988
6.41129e-05
9.86624e-06
6.30394e-05
0.00056432
0.00196994
0.00180214
0.00124305
0.000758274
0.000388416
0.000199703
9.23209e-05
1.14472e-05
6.32737e-05
0.000879124
0.00254918
0.00224548
0.00162635
0.00111205
0.000608484
0.000315928
0.000147324
6.57109e-05
6.58816e-05
0.00113678
0.00326393
0.00277865
0.00210426
0.00156565
0.00102383
0.000578338
0.000277219
0.000112275
7.44795e-05
0.00107101
0.00405066
0.00338691
0.00256501
0.00197949
0.00151642
0.000998835
0.000533629
0.000217205
9.57309e-05
0.00112521
0.00490272
0.00389336
0.00276021
0.00211574
0.00172066
0.00125451
0.000739016
0.000316147
0.000121836
0.00316817
0.00677102
0.00399065
0.00225878
0.00166259
0.00128884
0.00104215
0.00068843
0.000311547
0.00013956
0.00409769
0.00819927
0.00286703
0.000763973
0.000443915
0.00074525
0.000739624
0.000539936
0.000274876
0.000155261
0.00478496
0.0093752
0.00122704
0.000229205
0.000340009
0.000471558
0.000497241
0.000398342
0.000245268
0.000169576
0.00548755
0.0105449
0.000649714
0.000182746
0.000249503
0.000321793
0.000340805
0.000298158
0.000233061
0.000186827
0.00626632
0.0118665
0.00109075
0.000148468
0.000200124
0.00024919
0.00026538
0.000258373
0.000260496
0.000236965
0.00723522
0.0136451
0.00193643
0.000122017
0.000164
0.000211324
0.000231466
0.000249036
0.000295162
0.000289222
0.00844366
0.0155898
0.00359885
0.000263293
0.000133645
0.000182293
0.000203217
0.000228732
0.000282534
0.000316203
0.00993973
0.017735
0.0065613
0.000554231
0.000109123
0.000155156
0.000173299
0.000196993
0.000225862
0.000404957
0.0118554
0.0202384
0.0114271
0.000976247
0.000167228
0.000136322
0.000145859
0.000165529
0.000177753
0.000497486
0.0143377
0.0232551
0.0185652
0.00406833
0.000758204
0.000176925
0.000131351
0.000142182
0.000146613
0.00103809
)
;
    }
    inlet
    {
        type            turbulentMixingLengthDissipationRateInlet;
        mixingLength    0.071;
        phi             phi;
        k               k;
        value           uniform 2.72107e-07;
    }
    outlet
    {
        type            inletOutlet;
        inletValue      uniform 0.0001;
        value           nonuniform List<scalar> 
20
(
0.0001
0.0001
0.0001
0.00240727
0.00034633
0.000150941
0.000135198
0.000148994
0.000154024
0.000977106
0.0001
0.0001
0.0001
0.0001
0.000758204
0.000176925
0.000131351
0.000142182
0.000146613
0.00103809
)
;
    }
    heatWall
    {
        type            epsilonWallFunction;
        value           nonuniform List<scalar> 
240
(
5.35276e-06
5.3551e-06
5.26923e-06
5.27198e-06
5.17223e-06
5.16576e-06
5.0153e-06
5.00421e-06
4.71534e-06
4.71846e-06
4.44899e-06
4.44431e-06
4.25555e-06
4.23125e-06
4.16528e-06
4.11592e-06
4.22998e-06
4.18335e-06