/*--------------------------------*- C++ -*----------------------------------*\
  =========                 |
  \\      /  F ield         | OpenFOAM: The Open Source CFD Toolbox
   \\    /   O peration     | Website:  https://openfoam.org
    \\  /    A nd           | Version:  8
     \\/     M anipulation  |
\*---------------------------------------------------------------------------*/
FoamFile
{
    version     2.0;
    format      ascii;
    class       volScalarField;
    location    "200";
    object      nut;
}
// * * * * * * * * * * * * * * * * * * * * * * * * * * * * * * * * * * * * * //

dimensions      [0 2 -1 0 0 0 0];

internalField   nonuniform List<scalar> 
1200
(
9.43953e-06
9.3172e-06
9.21692e-06
9.04091e-06
8.62413e-06
8.57955e-06
8.52416e-06
9.39157e-06
1.02573e-05
1.10824e-05
1.19024e-05
1.27401e-05
1.34317e-05
1.38871e-05
1.41302e-05
1.43792e-05
1.45965e-05
1.49732e-05
1.55147e-05
1.55783e-05
6.03917e-06
6.05335e-06
6.05617e-06
6.07327e-06
9.70743e-06
1.41528e-05
1.45379e-05
1.45029e-05
1.43981e-05
1.42614e-05
1.42317e-05
1.41365e-05
1.39764e-05
1.37875e-05
1.3561e-05
1.32894e-05
1.30236e-05
1.28359e-05
1.27897e-05
1.28149e-05
1.28311e-05
1.28461e-05
1.30292e-05
1.27884e-05
1.31533e-05
1.55546e-05
1.84791e-05
2.04627e-05
2.00594e-05
1.97821e-05
2.83745e-05
3.10412e-05
3.27069e-05
3.42409e-05
3.57619e-05
3.74862e-05
3.94427e-05
4.16315e-05
4.414e-05
4.70093e-05
7.34654e-06
6.35689e-06
5.474e-06
4.6998e-06
4.55843e-06
5.03416e-06
5.69679e-06
9.27159e-06
1.11088e-05
1.13007e-05
1.13328e-05
1.12901e-05
1.10274e-05
1.04749e-05
1.02656e-05
1.00779e-05
1.02412e-05
1.09438e-05
1.14389e-05
1.14418e-05
1.15382e-05
1.19038e-05
1.184e-05
1.33798e-05
5.40505e-06
6.99547e-06
5.84424e-06
4.56059e-06
3.86896e-06
3.95214e-06
4.06486e-06
4.26436e-06
4.68214e-06
5.22075e-06
5.65683e-06
5.9758e-06
6.23656e-06
6.72252e-06
7.36165e-06
7.95215e-06
8.56504e-06
9.24628e-06
1.0024e-05
1.09089e-05
1.19075e-05
1.30222e-05
1.42219e-05
1.54632e-05
1.66196e-05
1.75991e-05
1.95705e-05
2.08464e-05
2.17707e-05
2.26036e-05
2.35026e-05
2.46716e-05
2.58388e-05
2.70089e-05
2.82273e-05
2.95411e-05
7.32875e-06
6.30215e-06
5.4137e-06
4.64518e-06
5.5296e-06
8.73358e-06
9.01387e-06
9.84208e-06
9.64189e-06
9.2225e-06
8.69894e-06
7.91203e-06
7.18667e-06
7.33689e-06
7.74609e-06
8.09153e-06
9.04352e-06
9.97964e-06
1.06583e-05
1.12314e-05
1.18669e-05
1.26565e-05
1.37598e-05
1.58035e-05
4.88515e-06
6.0704e-06
4.40283e-06
1.55116e-05
1.40707e-05
1.48035e-05
1.51997e-05
3.34447e-06
3.66312e-06
3.84727e-06
3.83553e-06
4.01554e-06
4.97645e-06
6.62504e-06
7.77094e-06
8.15876e-06
8.76119e-06
9.42231e-06
1.01425e-05
1.09176e-05
1.17526e-05
1.26492e-05
1.36123e-05
1.46182e-05
1.56356e-05
1.64112e-05
1.66735e-05
1.51757e-05
1.18059e-05
8.85157e-06
1.05626e-05
1.28866e-05
1.59031e-05
1.94189e-05
2.33339e-05
2.73764e-05
7.32454e-06
6.29651e-06
5.41836e-06
4.65153e-06
4.51281e-06
6.21078e-06
8.14837e-06
8.56457e-06
7.22773e-06
6.8085e-06
6.75949e-06
6.64339e-06
7.0727e-06
8.25114e-06
9.03313e-06
8.9727e-06
9.53296e-06
1.00369e-05
1.06551e-05
1.12867e-05
1.19536e-05
1.27768e-05
1.39705e-05
1.63084e-05
4.45554e-06
5.62102e-06
4.05266e-06
1.46365e-05
1.38961e-05
1.26477e-05
1.36887e-05
1.34407e-05
1.30467e-05
1.24284e-05
1.17235e-05
1.16034e-05
1.28667e-05
1.61681e-05
4.55762e-06
5.42756e-06
6.6751e-06
7.72516e-06
8.62183e-06
9.49517e-06
1.03822e-05
1.12903e-05
1.22829e-05
1.33339e-05
1.42613e-05
1.47135e-05
1.40462e-05
1.12373e-05
6.64222e-06
6.14484e-06
5.7689e-06
5.35893e-06
5.91048e-06
7.80763e-06
9.7443e-06
1.3507e-05
7.32992e-06
6.30579e-06
5.43856e-06
4.67701e-06
4.21478e-06
4.70656e-06
6.12077e-06
7.13509e-06
6.24408e-06
6.59182e-06
6.24998e-06
5.58179e-06
5.89824e-06
7.78221e-06
9.46745e-06
1.01286e-05
1.01938e-05
1.0464e-05
1.0664e-05
1.08916e-05
1.11522e-05
1.14314e-05
1.18271e-05
1.32318e-05
4.0644e-06
5.18069e-06
4.21669e-06
1.63629e-05
1.55526e-05
1.32111e-05
1.27902e-05
1.27519e-05
1.22865e-05
1.14909e-05
1.05312e-05
9.84084e-06
9.66507e-06
1.07623e-05
1.32424e-05
3.9861e-06
4.91052e-06
5.92602e-06
6.60849e-06
7.46011e-06
8.50579e-06
9.55653e-06
1.07678e-05
1.2056e-05
1.31e-05
1.35325e-05
1.28998e-05
8.17507e-06
7.65045e-06
6.90465e-06
6.37689e-06
5.97926e-06
5.64962e-06
5.25914e-06
5.62191e-06
7.28951e-06
7.3298e-06
6.31227e-06
5.45229e-06
4.70237e-06
4.13032e-06
4.04687e-06
4.74151e-06
5.49348e-06
5.3607e-06
4.92522e-06
4.59862e-06
4.28891e-06
3.87843e-06
4.09035e-06
6.1212e-06
9.0151e-06
1.00165e-05
1.02676e-05
1.03502e-05
1.02871e-05
1.00533e-05
9.60721e-06
9.30188e-06
9.90731e-06
1.35416e-05
4.8099e-06
4.30711e-06
3.94841e-06
3.69866e-06
1.44128e-05
1.29106e-05
1.22255e-05
1.17572e-05
1.11125e-05
1.02889e-05
9.58159e-06
9.09168e-06
8.96766e-06
9.6876e-06
1.15783e-05
1.64044e-05
4.56967e-06
5.19327e-06
5.89344e-06
6.63256e-06
7.52389e-06
8.70282e-06
1.03339e-05
1.1935e-05
1.2692e-05
1.19764e-05
1.0043e-05
8.69691e-06
7.6563e-06
6.91707e-06
6.46746e-06
6.1525e-06
5.84742e-06
5.54805e-06
5.53292e-06
7.32561e-06
6.31486e-06
5.47573e-06
4.7383e-06
4.12559e-06
3.79135e-06
3.9111e-06
4.22428e-06
4.23629e-06
4.10698e-06
3.88888e-06
3.58655e-06
3.30862e-06
3.04349e-06
3.04333e-06
3.89412e-06
5.34282e-06
6.88554e-06
8.25703e-06
9.1211e-06
9.48583e-06
9.60045e-06
8.48548e-06
7.26926e-06
8.18506e-06
4.12239e-06
4.04415e-06
3.85365e-06
1.58605e-05
1.48191e-05
1.34177e-05
1.22962e-05
1.1522e-05
1.08605e-05
1.02082e-05
9.61715e-06
9.15098e-06
8.82272e-06
8.68637e-06
9.0445e-06
1.07921e-05
1.43848e-05
4.02698e-06
4.59971e-06
5.19369e-06
5.89324e-06
6.8922e-06
8.44493e-06
1.02936e-05
1.14472e-05
1.10816e-05
1.00546e-05
8.93321e-06
7.90056e-06
7.09263e-06
6.63424e-06
6.35555e-06
6.0553e-06
5.72885e-06
5.45794e-06
7.33012e-06
6.32784e-06
5.48456e-06
4.77353e-06
4.17081e-06
3.72624e-06
3.53315e-06
3.48807e-06
3.34494e-06
3.19518e-06
3.0551e-06
2.88463e-06
2.73254e-06
2.59104e-06
2.47359e-06
2.55686e-06
3.02398e-06
3.83402e-06
4.86916e-06
5.84527e-06
6.49789e-06
6.60607e-06
6.3389e-06
6.07325e-06
6.09788e-06
1.14485e-05
1.42252e-05
1.47071e-05
1.43547e-05
1.3755e-05
1.30133e-05
1.22366e-05
1.15396e-05
1.09351e-05
1.04156e-05
9.96987e-06
9.59124e-06
9.28286e-06
9.03802e-06
8.88268e-06
9.04566e-06
9.9151e-06
1.16568e-05
1.47175e-05
3.97765e-06
4.49755e-06
5.27309e-06
6.53679e-06
8.27343e-06
9.58344e-06
9.61435e-06
9.02137e-06
8.27141e-06
7.51146e-06
6.90084e-06
6.64263e-06
6.52851e-06
6.267e-06
5.93832e-06
5.64653e-06
7.34154e-06
6.36092e-06
5.54558e-06
4.8574e-06
4.27574e-06
3.81151e-06
3.47788e-06
3.2563e-06
3.06791e-06
2.91213e-06
2.79046e-06
2.67544e-06
2.603e-06
2.53169e-06
2.47568e-06
2.4253e-06
2.45373e-06
2.6179e-06
2.93902e-06
3.31918e-06
3.57461e-06
3.54653e-06
3.8541e-06
4.01496e-06
4.33765e-06
6.38423e-06
7.98003e-06
8.71728e-06
8.95533e-06
9.19136e-06
9.40844e-06
9.57265e-06
9.6277e-06
9.55972e-06
9.41009e-06
9.27726e-06
9.31301e-06
9.53338e-06
9.86923e-06
1.02014e-05
1.03931e-05
1.05269e-05
1.0796e-05
1.15208e-05
1.28062e-05
1.50424e-05
4.03121e-06
4.81506e-06
6.09335e-06
7.20424e-06
7.39894e-06
7.14729e-06
6.89231e-06
6.66995e-06
6.56994e-06
6.74753e-06
6.93093e-06
6.70527e-06
6.15299e-06
5.72507e-06
9.43213e-06
9.31137e-06
9.18557e-06
9.04413e-06
8.74309e-06
8.47808e-06
8.30122e-06
8.21409e-06
8.26969e-06
8.43005e-06
8.714e-06
9.23098e-06
9.88314e-06
1.05417e-05
1.10285e-05
1.12999e-05
1.14106e-05
1.14584e-05
1.15347e-05
1.17704e-05
1.23202e-05
1.32473e-05
1.41704e-05
1.50059e-05
1.526e-05
1.49074e-05
1.54185e-05
6.04979e-06
6.14578e-06
6.24767e-06
6.34227e-06
6.43431e-06
6.54299e-06
6.67823e-06
6.83357e-06
7.00642e-06
7.203e-06
7.3957e-06
7.57715e-06
7.74939e-06
7.90348e-06
8.0072e-06
8.02424e-06
7.97481e-06
7.9161e-06
7.89047e-06
7.93814e-06
8.18875e-06
8.8648e-06
9.743e-06
1.03025e-05
1.07179e-05
1.10844e-05
1.13453e-05
1.15791e-05
1.22031e-05
1.28161e-05
1.39063e-05
1.4761e-05
1.85474e-05
9.43021e-06
9.30641e-06
9.21778e-06
9.04423e-06
8.70038e-06
8.61503e-06
8.58143e-06
9.33137e-06
1.02035e-05
1.1034e-05
1.18543e-05
1.26788e-05
1.33823e-05
1.386e-05
1.41188e-05
1.43666e-05
1.45895e-05
1.4966e-05
1.55128e-05
1.56897e-05
5.99741e-06
6.04336e-06
6.05511e-06
6.06822e-06
1.01343e-05
1.41128e-05
1.44048e-05
1.43362e-05
1.4193e-05
1.40522e-05
1.40376e-05
1.39574e-05
1.38016e-05
1.3616e-05
1.33869e-05
1.30863e-05
1.28024e-05
1.26333e-05
1.26273e-05
1.26566e-05
1.26703e-05
1.26735e-05
1.28817e-05
1.27542e-05
1.32956e-05
1.56979e-05
1.86351e-05
2.06471e-05
2.02525e-05
1.98387e-05
2.81049e-05
3.11772e-05
3.28869e-05
3.44193e-05
3.59228e-05
3.76069e-05
3.95292e-05
4.17007e-05
4.42007e-05
4.70493e-05
7.34317e-06
6.36409e-06
5.51143e-06
4.72576e-06
4.46057e-06
4.98738e-06
5.60716e-06
9.13211e-06
1.10372e-05
1.12523e-05
1.12867e-05
1.12446e-05
1.09775e-05
1.04176e-05
1.02014e-05
1.00115e-05
1.01764e-05
1.08819e-05
1.13816e-05
1.13913e-05
1.14899e-05
1.18547e-05
1.18185e-05
1.388e-05
5.57199e-06
6.90441e-06
5.67329e-06
4.42419e-06
3.82467e-06
3.9265e-06
4.07264e-06
4.3426e-06
4.79787e-06
5.28167e-06
5.6305e-06
5.89039e-06
6.15273e-06
6.68115e-06
7.35922e-06
7.92951e-06
8.53952e-06
9.22781e-06
1.00242e-05
1.09328e-05
1.19539e-05
1.30929e-05
1.43039e-05
1.55452e-05
1.67234e-05
1.7675e-05
1.96445e-05
2.1028e-05
2.20012e-05
2.28505e-05
2.36733e-05
2.47963e-05
2.59195e-05
2.70442e-05
2.82342e-05
2.9533e-05
7.32928e-06
6.29598e-06
5.40216e-06
4.62831e-06
5.44385e-06
8.65058e-06
8.92892e-06
9.77373e-06
9.6159e-06
9.17343e-06
8.61018e-06
7.80062e-06
7.08099e-06
7.24132e-06
7.65541e-06
7.99915e-06
8.96941e-06
9.92258e-06
1.06139e-05
1.11994e-05
1.18499e-05
1.26622e-05
1.38125e-05
1.61064e-05
5.01256e-06
5.97136e-06
4.27083e-06
1.54477e-05
1.41174e-05
1.48248e-05
1.52704e-05
3.46227e-06
1.68353e-05
3.82777e-06
3.78887e-06
1.6268e-05
4.49939e-06
6.13468e-06
7.83482e-06
8.2298e-06
8.81193e-06
9.4678e-06
1.01865e-05
1.09658e-05
1.18082e-05
1.27124e-05
1.36873e-05
1.47103e-05
1.57316e-05
1.65375e-05
1.68617e-05
1.54982e-05
1.23453e-05
8.87612e-06
1.05326e-05
1.29258e-05
1.60038e-05
1.95246e-05
2.34136e-05
2.74187e-05
7.32624e-06
6.29654e-06
5.42746e-06
4.65279e-06
4.50744e-06
6.13406e-06
8.08326e-06
8.55588e-06
7.41762e-06
6.85091e-06
6.81144e-06
6.68907e-06
7.12388e-06
8.30196e-06
9.07471e-06
9.01423e-06
9.57138e-06
1.00648e-05
1.06753e-05
1.13005e-05
1.19525e-05
1.27395e-05
1.38581e-05
3.59034e-06
4.55892e-06
5.52384e-06
4.10064e-06
1.47518e-05
1.39953e-05
1.26681e-05
1.37233e-05
1.3484e-05
1.30392e-05
1.23778e-05
1.16939e-05
1.15083e-05
1.23966e-05
1.47777e-05
4.33986e-06
5.30539e-06
6.67234e-06
7.73949e-06
8.62405e-06
9.48174e-06
1.03643e-05
1.12595e-05
1.22716e-05
1.33707e-05
1.43424e-05
1.48265e-05
1.41726e-05
1.14991e-05
6.53104e-06
6.06732e-06
5.65125e-06
5.26634e-06
6.62585e-06
8.4782e-06
1.02721e-05
1.6112e-05
7.32439e-06
6.30813e-06
5.44307e-06
4.67768e-06
4.21477e-06
4.66777e-06
6.06556e-06
7.08357e-06
6.20727e-06
6.64609e-06
6.28284e-06
5.61512e-06
5.9534e-06
7.84696e-06
9.52207e-06
1.01735e-05
1.02364e-05
1.05011e-05
1.06943e-05
1.09163e-05
1.11735e-05
1.14503e-05
1.1838e-05
1.31749e-05
4.04278e-06
5.14163e-06
4.27486e-06
3.75005e-06
1.56168e-05
1.32255e-05
1.28181e-05
1.27963e-05
1.23168e-05
1.15135e-05
1.05647e-05
9.89509e-06
9.60971e-06
1.03781e-05
1.26267e-05
1.66119e-05
4.83803e-06
5.8941e-06
6.58289e-06
7.41779e-06
8.40948e-06
9.50221e-06
1.0759e-05
1.20713e-05
1.31364e-05
1.35976e-05
1.29481e-05
8.03604e-06
7.51539e-06
6.77094e-06
6.26752e-06
5.87944e-06
5.53625e-06
5.1394e-06
5.62978e-06
8.80892e-06
7.32495e-06
6.31665e-06
5.45125e-06
4.69711e-06
4.12744e-06
4.02735e-06
4.6952e-06
5.41533e-06
5.24941e-06
4.94643e-06
4.67285e-06
4.31745e-06
3.8918e-06
4.13388e-06
6.21071e-06
9.09067e-06
1.00667e-05
1.03118e-05
1.03921e-05
1.03277e-05
1.00974e-05
9.66006e-06
9.34302e-06
9.86789e-06
1.32242e-05
4.82142e-06
4.34817e-06
3.97467e-06
1.60276e-05
1.44273e-05
1.28852e-05
1.22186e-05
1.17608e-05
1.11124e-05
1.02823e-05
9.58824e-06
9.11294e-06
8.92024e-06
9.4568e-06
1.13392e-05
1.59437e-05
4.55158e-06
5.22342e-06
5.93418e-06
6.62233e-06
7.49618e-06
8.70956e-06
1.03771e-05
1.19586e-05
1.27153e-05
1.19534e-05
9.86915e-06
8.51715e-06
7.47574e-06
6.77674e-06
6.36889e-06
6.06439e-06
5.76081e-06
5.47699e-06
5.68578e-06
7.32576e-06
6.32446e-06
5.4751e-06
4.72238e-06
4.11847e-06
3.78867e-06
3.89438e-06
4.16346e-06
4.09529e-06
3.95093e-06
3.76664e-06
3.55449e-06
3.31224e-06
3.04812e-06
3.0612e-06
3.91349e-06
5.36036e-06
6.92423e-06
8.31187e-06
9.17693e-06
9.53665e-06
9.65095e-06
8.52787e-06
7.29784e-06
7.87057e-06
4.11545e-06
4.07098e-06
3.87917e-06
3.72778e-06
1.47845e-05
1.33638e-05
1.22427e-05
1.14816e-05
1.08251e-05
1.01732e-05
9.58942e-06
9.14377e-06
8.83388e-06
8.66983e-06
8.99621e-06
1.06756e-05
1.44232e-05
4.06201e-06
4.65853e-06
5.24159e-06
5.92679e-06
6.92891e-06
8.50894e-06
1.03389e-05
1.1444e-05
1.10016e-05
9.89618e-06
8.74254e-06
7.69376e-06
6.93069e-06
6.53726e-06
6.27037e-06
5.96644e-06
5.64017e-06
5.38988e-06
7.33169e-06
6.32759e-06
5.48667e-06
4.78777e-06
4.16158e-06
3.71688e-06
3.52583e-06
3.46866e-06
3.28955e-06
3.08902e-06
2.97009e-06
2.85063e-06
2.74397e-06
2.61096e-06
2.48654e-06
2.57018e-06
3.03961e-06
3.85364e-06
4.90178e-06
5.88878e-06
6.55031e-06
6.66298e-06
6.38707e-06
6.10237e-06
6.04654e-06
1.13989e-05
1.43815e-05
1.4811e-05
1.43712e-05
1.37263e-05
1.29627e-05
1.218e-05
1.1486e-05
1.08878e-05
1.03743e-05
9.93768e-06
9.57711e-06
9.29629e-06
9.0722e-06
8.91954e-06
9.06829e-06
9.97611e-06
1.18938e-05
1.51582e-05
4.03208e-06
4.55245e-06
5.33278e-06
6.61423e-06
8.34196e-06
9.5848e-06
9.54342e-06
8.90076e-06
8.11347e-06
7.32998e-06
6.76674e-06
6.59256e-06
6.46931e-06
6.18212e-06
5.85463e-06
5.56612e-06
7.33344e-06
6.34641e-06
5.54366e-06
4.86932e-06
4.28129e-06
3.81294e-06
3.47842e-06
3.24579e-06
3.0631e-06
2.92226e-06
2.80589e-06
2.69663e-06
2.61521e-06
2.56491e-06
2.51302e-06
2.45935e-06
2.48159e-06
2.64018e-06
2.95579e-06
3.33416e-06
3.59136e-06
3.59709e-06
3.98081e-06
4.19614e-06
4.35247e-06
6.42701e-06
8.11807e-06
8.8282e-06
9.01461e-06
9.214e-06
9.41684e-06
9.57898e-06
9.63295e-06
9.55874e-06
9.40162e-06
9.28999e-06
9.43988e-06
9.79561e-06
1.02341e-05
1.06022e-05
1.07466e-05
1.08278e-05
1.10769e-05
1.18316e-05
1.31703e-05
1.5442e-05
4.08634e-06
4.88176e-06
6.16187e-06
7.21781e-06
7.35053e-06
7.07106e-06
6.79303e-06
6.56079e-06
6.52388e-06
6.79376e-06
6.91323e-06
6.5113e-06
6.01453e-06
5.62237e-06
9.43376e-06
9.33184e-06
9.20377e-06
9.02452e-06
8.74545e-06
8.48551e-06
8.27084e-06
8.12434e-06
8.15624e-06
8.33473e-06
8.69497e-06
9.27919e-06
9.9679e-06
1.06109e-05
1.10995e-05
1.13762e-05
1.14963e-05
1.15383e-05
1.15965e-05
1.17882e-05
1.22797e-05
1.31657e-05
1.40851e-05
1.49662e-05
1.52094e-05
1.48029e-05
1.53217e-05
6.03287e-06
6.15088e-06
6.26773e-06
6.37662e-06
6.4808e-06
6.58983e-06
6.71465e-06
6.86364e-06
7.04291e-06
7.2299e-06
7.40801e-06
7.58079e-06
7.74782e-06
7.8922e-06
7.97524e-06
7.9645e-06
7.89914e-06
7.8402e-06
7.82447e-06
7.8909e-06
8.17036e-06
8.87314e-06
9.73142e-06
1.02582e-05
1.06503e-05
1.09848e-05
1.11958e-05
1.15383e-05
1.23697e-05
1.29586e-05
1.40738e-05
1.49312e-05
1.89026e-05
)
;

boundaryField
{
    wall
    {
        type            nutkWallFunction;
        Cmu             0.09;
        kappa           0.41;
        E               9.8;
        value           nonuniform List<scalar> 
1200
(
0
0
0
0
0
0
0
0
0
0
0
0
0
0
0
0
0
0
0
0
0
0
0
0
0
0
0
0
0
0
0
0
0
0
0
0
0
0
0
0
0
0
0
0
0
0
0
0
0
0
0
0
0
0
0
0
0
0
0
0
0
0
0
0
0
0
0
0
0
0
0
0
0
0
0
0
0
0
0
0
0
0
0
0
0
0
0
0
0
0
0
0
0
0
0
0
0
0
0
0
0
0
0
0
0
0
0
0
0
0
0
0
0
0
0
0
0
0
0
0
0
0
0
0
0
0
0
0
0
0
0
0
0
0
0
0
0
0
0
0
0
0
0
0
0
0
0
0
0
0
0
0
0
0
0
0
0
0
0
0
0
0
0
0
0
0
0
0
0
0
0
0
0
0
0
0
0
0
0
0
0
0
0
0
0
0
0
0
0
0
4.23609e-10
0
0
0
0
0
0
0
0
0
0
0
0
0
0
0
0
0
0
0
8.81037e-10
0
0
0
0
0
0
0
0
0
5.75563e-10
0
0
0
0
0
0
0
0
0
3.15674e-09
0
0
1.28514e-09
0
0
0
0
0
0
3.081e-07
2.24335e-07
1.52589e-07
8.94593e-08
2.58803e-08
0
0
0
0
0
7.83452e-07
5.19237e-07
3.8121e-07
3.1024e-07
2.45167e-07
1.77699e-07
5.39519e-08
0
0
0
8.35854e-07
3.63765e-07
1.3907e-07
7.35307e-08
9.0718e-08
9.70413e-08
4.97472e-08
0
0
0
8.36987e-07
1.56142e-07
0
0
3.88706e-09
3.42203e-08
1.7625e-08
0
0
1.50073e-09
8.30791e-07
3.12103e-08
0
0
0
0
0
0
0
1.36522e-08
8.20693e-07
3.76374e-08
0
0
0
0
0
0
0
2.38461e-08
8.18753e-07
5.42422e-08
0
0
0
0
0
0
0
3.31801e-08
8.09126e-07
7.43714e-08
0
0
0
0
0
0
0
4.22445e-08
7.94049e-07
1.22628e-07
0
0
0
0
0
0
0
5.24246e-08
7.75547e-07
2.06765e-07
5.26665e-09
0
0
0
0
0
0
6.50213e-08
7.54071e-07
2.9202e-07
4.56459e-09
0
0
0
0
0
0
8.06374e-08
7.31594e-07
3.57583e-07
1.49131e-08
0
0
0
0
0
0
9.90679e-08
7.09659e-07
4.07015e-07
1.16615e-07
0
0
0
0
0
0
1.18418e-07
6.91625e-07
4.72757e-07
3.30097e-07
0
0
0
0
0
0
1.3694e-07
6.83313e-07
5.64401e-07
5.487e-07
8.80181e-08
0
0
0
0
0
1.54542e-07
6.83373e-07
6.58649e-07
6.63236e-07
2.3501e-07
1.53578e-08
0
0
0
0
1.71148e-07
6.85208e-07
7.52223e-07
7.58503e-07
4.3887e-07
1.65596e-07
4.30127e-09
0
0
0
1.85181e-07
6.87676e-07
8.52073e-07
8.58658e-07
6.03841e-07
3.38334e-07
1.25472e-07
0
0
0
1.923e-07
7.01017e-07
9.62857e-07
9.64863e-07
7.35947e-07
4.4944e-07
2.37234e-07
4.80772e-08
0
0
1.90461e-07
6.78612e-07
1.08665e-06
1.07678e-06
8.65252e-07
5.77521e-07
3.50874e-07
1.46616e-07
0
0
1.8412e-07
7.26781e-07
1.22461e-06
1.19548e-06
9.93989e-07
7.21068e-07
4.5733e-07
2.41216e-07
4.38698e-08
0
1.79069e-07
9.33059e-07
1.37638e-06
1.32126e-06
1.12626e-06
8.79608e-07
5.88638e-07
3.49603e-07
1.30287e-07
0
1.78406e-07
1.1676e-06
1.53804e-06
1.45434e-06
1.2695e-06
1.06036e-06
7.68131e-07
5.03976e-07
2.55931e-07
5.26511e-08
1.86047e-07
1.32011e-06
1.7035e-06
1.59135e-06
1.41625e-06
1.24242e-06
1.00894e-06
7.39365e-07
4.5456e-07
1.82638e-07
2.14899e-07
1.2876e-06
1.85718e-06
1.72563e-06
1.53778e-06
1.37909e-06
1.22418e-06
9.98493e-07
7.08651e-07
3.79318e-07
2.83431e-07
1.32873e-06
2.00262e-06
1.82277e-06
1.58454e-06
1.42079e-06
1.30603e-06
1.13429e-06
8.72135e-07
5.25301e-07
3.61555e-07
2.03738e-06
2.26391e-06
1.83624e-06
1.4599e-06
1.29656e-06
1.16865e-06
1.05864e-06
8.57398e-07
5.36124e-07
4.09545e-07
2.23457e-06
2.4253e-06
1.59418e-06
9.64764e-07
6.62898e-07
9.06712e-07
9.05265e-07
7.62053e-07
4.959e-07
4.47073e-07
2.3688e-06
2.54496e-06
1.05919e-06
4.30771e-07
5.74606e-07
7.12579e-07
7.39481e-07
6.46626e-07
4.57974e-07
4.7968e-07
2.49418e-06
2.65381e-06
8.07068e-07
3.58266e-07
4.64916e-07
5.63975e-07
5.90994e-07
5.37076e-07
4.32664e-07
5.08167e-07
2.62113e-06
2.77944e-06
1.04886e-06
2.98e-07
3.88969e-07
4.64245e-07
4.86756e-07
4.66746e-07
4.42912e-07
5.6033e-07
2.76501e-06
2.92889e-06
1.35901e-06
2.39896e-07
3.28077e-07
4.03667e-07
4.30439e-07
4.42808e-07
4.80664e-07
6.30793e-07
2.92561e-06
3.07734e-06
1.76309e-06
3.54376e-07
2.72628e-07
3.56791e-07
3.8891e-07
4.21069e-07
4.89592e-07
6.78181e-07
3.10239e-06
3.2268e-06
2.23366e-06
6.2677e-07
2.13357e-07
3.09464e-07
3.41678e-07
3.7731e-07
4.31291e-07
7.80507e-07
3.30272e-06
3.38315e-06
2.75015e-06
9.12675e-07
2.96413e-07
2.66916e-07
2.91057e-07
3.2584e-07
3.52477e-07
8.64846e-07
3.53116e-06
3.55179e-06
3.27628e-06
1.48618e-06
5.50059e-07
2.79309e-07
2.52781e-07
2.80826e-07
2.91014e-07
1.22424e-06
0
0
0
0
0
0
0
0
0
0
0
0
0
0
0
0
0
0
0
0
0
0
0
0
0
0
0
0
0
0
0
0
0
0
0
0
0
0
0
0
0
0
0
0
0
0
0
0
0
0
0
0
0
0
0
0
0
0
0
0
0
0
0
0
0
0
0
0
0
0
0
0
0
0
0
0
0
0
0
0
0
0
0
0
0
0
0
0
0
0
0
0
0
0
0
0
0
0
0
0
0
0
0
0
0
0
0
0
0
0
0
0
0
0
0
0
0
0
0
0
0
0
0
0
0
0
0
0
0
0
0
0
0
0
0
0
0
0
0
0
0
0
0
0
0
0
0
0
0
0
0
0
0
0
0
0
0
0
0
0
0
0
0
0
0
0
0
0
0
0
0
0
0
0
0
0
0
0
0
0
0
0
0
0
0
0
0
0
0
0
1.15537e-09
0
0
0
0
0
0
0
0
0
0
0
0
0
0
0
0
0
0
0
7.05633e-10
0
0
0
0
0
0
0
0
0
6.64126e-10
0
0
0
0
0
0
0
0
0
2.66306e-09
0
9.18181e-10
0
0
0
0
0
0
0
3.52081e-07
2.531e-07
1.73946e-07
1.06472e-07
2.57087e-08
0
0
0
0
0
7.83062e-07
5.08972e-07
3.69235e-07
2.99163e-07
2.37156e-07
1.77214e-07
5.16409e-08
0
0
0
8.24643e-07
3.37058e-07
1.12886e-07
8.01141e-08
1.00433e-07
1.0319e-07
5.45602e-08
0
0
0
8.22762e-07
1.32306e-07
0
0
3.27645e-09
3.91768e-08
2.19619e-08
0
0
9.71068e-10
8.1365e-07
2.07332e-08
0
0
0
7.30269e-10
0
0
0
1.36662e-08
8.02709e-07
3.17451e-08
0
0
0
0
0
0
0
2.43441e-08
8.00655e-07
5.13044e-08
0
0
0
0
0
0
0
3.41626e-08
7.92012e-07
8.1184e-08
0
0
0
0
0
0
0
4.32619e-08
7.77142e-07
1.40633e-07
8.4222e-09
0
0
0
0
0
0
5.28354e-08
7.59246e-07
2.22085e-07
4.33752e-09
0
0
0
0
0
0
6.48288e-08
7.38199e-07
2.94579e-07
1.02727e-09
0
0
0
0
0
0
8.05465e-08
7.13722e-07
3.49722e-07
8.91626e-10
0
0
0
0
0
0
9.93305e-08
6.89941e-07
3.94024e-07
6.49636e-08
0
0
0
0
0
0
1.17989e-07
6.72272e-07
4.62732e-07
2.579e-07
0
0
0
0
0
0
1.35905e-07
6.66351e-07
5.59481e-07
5.19917e-07
5.49543e-08
0
0
0
0
0
1.53055e-07
6.67576e-07
6.53943e-07
6.68009e-07
2.08739e-07
6.14772e-09
0
0
0
0
1.69406e-07
6.69052e-07
7.46613e-07
7.62509e-07
4.3108e-07
1.51482e-07
0
0
0
0
1.83197e-07
6.70481e-07
8.46889e-07
8.61862e-07
6.01422e-07
3.34357e-07
1.25123e-07
0
0
0
1.88317e-07
6.86958e-07
9.593e-07
9.67527e-07
7.31751e-07
4.48742e-07
2.44344e-07
5.61166e-08
0
0
1.84142e-07
6.68573e-07
1.08502e-06
1.07947e-06
8.59158e-07
5.74886e-07
3.59759e-07
1.57853e-07
0
0
1.76679e-07
7.33719e-07
1.22479e-06
1.19869e-06
9.86836e-07
7.10355e-07
4.6085e-07
2.51452e-07
5.42294e-08
0
1.71888e-07
9.45601e-07
1.37828e-06
1.32526e-06
1.11871e-06
8.72938e-07
5.89549e-07
3.57749e-07
1.40758e-07
0
1.72235e-07
1.18227e-06
1.54132e-06
1.45935e-06
1.26524e-06
1.05746e-06
7.70634e-07
5.11245e-07
2.66124e-07
6.06451e-08
1.81766e-07
1.33597e-06
1.70873e-06
1.59789e-06
1.41817e-06
1.24202e-06
1.01243e-06
7.47007e-07
4.64994e-07
1.91952e-07
2.13158e-07
1.30122e-06
1.86536e-06
1.73459e-06
1.54575e-06
1.3821e-06
1.2246e-06
1.00187e-06
7.15627e-07
3.86954e-07
2.83239e-07
1.31383e-06
2.00681e-06
1.83717e-06
1.59856e-06
1.42855e-06
1.30513e-06
1.12892e-06
8.67227e-07
5.22523e-07
3.58485e-07
2.02291e-06
2.27176e-06
1.8617e-06
1.47878e-06
1.29813e-06
1.15739e-06
1.04126e-06
8.41636e-07
5.2349e-07
4.03487e-07
2.24578e-06
2.44463e-06
1.64021e-06
9.42983e-07
6.48612e-07
8.80251e-07
8.78543e-07
7.39636e-07
4.80165e-07
4.3914e-07
2.38267e-06
2.56993e-06
1.15062e-06
4.1416e-07
5.53363e-07
6.84165e-07
7.0838e-07
6.19719e-07
4.40842e-07
4.69444e-07
2.50778e-06
2.68263e-06
7.98279e-07
3.42715e-07
4.44271e-07
5.3685e-07
5.60495e-07
5.11033e-07
4.1948e-07
4.99597e-07
2.63284e-06
2.7977e-06
1.04201e-06
2.80326e-07
3.71512e-07
4.44154e-07
4.65879e-07
4.52928e-07
4.45743e-07
5.72101e-07
2.77346e-06
2.94247e-06
1.36478e-06
2.23997e-07
3.1099e-07
3.88291e-07
4.16757e-07
4.36988e-07
4.88129e-07
6.49214e-07
2.93167e-06
3.08625e-06
1.77619e-06
4.52381e-07
2.53385e-07
3.41999e-07
3.75188e-07
4.11198e-07
4.81216e-07
6.89915e-07
3.10732e-06
3.23047e-06
2.2475e-06
7.3266e-07
1.96484e-07
2.94143e-07
3.26683e-07
3.64434e-07
4.09605e-07
7.94184e-07
3.30709e-06
3.3835e-06
2.76071e-06
9.91198e-07
3.05662e-07
2.55291e-07
2.76032e-07
3.12026e-07
3.34165e-07
8.8344e-07
3.53409e-06
3.5507e-06
3.28181e-06
1.84718e-06
8.4738e-07
3.20511e-07
2.4408e-07
2.67638e-07
2.76332e-07
1.25793e-06
)
;
    }
    inlet
    {
        type            calculated;
        value           uniform 0.000190513;
    }
    outlet
    {
        type            calculated;
        value           nonuniform List<scalar> 
20
(
0.0081
0.0081
0.0081
1.3507e-05
7.28951e-06
5.53292e-06
5.45794e-06
5.64653e-06
5.72507e-06
1.85474e-05
0.0081
0.0081
0.0081
0.0081
8.80892e-06
5.68578e-06
5.38988e-06
5.56612e-06
5.62237e-06
1.89026e-05
)
;
    }
    heatWall
    {
        type            nutkWallFunction;
        Cmu             0.09;
        kappa           0.41;
        E               9.8;
        value           nonuniform List<scalar> 
240
(
1.08746e-06
1.08769e-06
1.07632e-06
1.07737e-06
1.06387e-06
1.06415e-06
1.0461e-06
1.04443e-06
1.01002e-06
1.01037e-06
9.771e-07
9.77035e-07
9.53242e-07
9.49849e-07
9.41727e-07
9.33522e-07
9.49715e-07
9.40756e-07
9.71868e-07
9.66232e-07
1.01169e-06
1.01317e-06
1.07344e-06
1.07982e-06
1.14338e-06
1.1517e-06
1.20868e-06
1.21639e-06
1.25696e-06
1.26491e-06
1.28403e-06
1.292e-06
1.29554e-06
1.30357e-06
1.29985e-06
1.30963e-06
1.30673e-06
1.31683e-06
1.33184e-06
1.33831e-06
1.38598e-06
1.38843e-06
1.47174e-06
1.47316e-06
1.5519e-06
1.5542e-06
1.62643e-06
1.62988e-06
1.65432e-06
1.65541e-06
1.61145e-06
1.60729e-06
1.65562e-06
1.65003e-06
1.68281e-06
1.68107e-06
1.72261e-06
1.72265e-06
1.75597e-06
1.75761e-06
1.78651e-06
1.78974e-06
1.81616e-06
1.81951e-06
1.84948e-06
1.85084e-06
1.89079e-06
1.89016e-06
1.94209e-06
1.94179e-06
2.0027e-06
2.00355e-06
2.06636e-06
2.06493e-06
2.12731e-06
2.12386e-06
2.18521e-06
2.18024e-06
2.23976e-06
2.23389e-06
2.2857e-06
2.27898e-06
2.30877e-06
2.29543e-06
2.30234e-06
2.28132e-06
2.28116e-06
2.25649e-06
2.26435e-06
2.24058e-06
2.26209e-06
2.24168e-06
2.2873e-06
2.27313e-06
2.38263e-06
2.37685e-06
2.60933e-06
2.60867e-06
2.8682e-06
2.85798e-06
3.02737e-06
3.00721e-06
3.15191e-06
3.12551e-06
3.26021e-06
3.22615e-06
3.35502e-06
3.3266e-06
3.52923e-06
3.56874e-06
3.76485e-06
3.82655e-06
3.92337e-06
3.96261e-06
4.26519e-06
4.31091e-06
4.54722e-06
4.60947e-06
5.75305e-06
5.86636e-06
1.08794e-06
1.0873e-06
1.07605e-06
1.07593e-06
1.06442e-06
1.06603e-06
1.04436e-06
1.04536e-06
1.0031e-06
1.00761e-06
9.96529e-07
9.95633e-07
9.9464e-07
9.94142e-07
1.08365e-06
1.07946e-06
1.17346e-06
1.1698e-06
1.25751e-06
1.25431e-06
1.34058e-06
1.3358e-06
1.42185e-06
1.41624e-06
1.48595e-06
1.48181e-06
1.52681e-06
1.52479e-06
1.54819e-06
1.54766e-06
1.57133e-06
1.57063e-06
1.59081e-06
1.59057e-06
1.62516e-06
1.62477e-06
1.67357e-06
1.6736e-06
1.6759e-06
1.6783e-06
1.67376e-06
1.67387e-06
1.67739e-06
1.67682e-06
1.67639e-06
1.67668e-06
1.68485e-06
1.68323e-06
2.69049e-06
2.83627e-06
4.2734e-06
4.27214e-06
4.44885e-06
4.41135e-06
4.45265e-06
4.40507e-06
4.43192e-06
4.3746e-06
4.39815e-06
4.33802e-06
4.39168e-06
4.33117e-06
4.3595e-06
4.30229e-06
4.30911e-06
4.25261e-06
4.24729e-06
4.19284e-06
4.17558e-06
4.1226e-06
4.10059e-06
4.04096e-06
4.02748e-06
3.96171e-06
3.96744e-06
3.90292e-06
3.93989e-06
3.88336e-06
3.94029e-06
3.88764e-06
3.94658e-06
3.89272e-06
3.95494e-06
3.8976e-06
3.99956e-06
3.95267e-06
3.92489e-06
3.89143e-06
4.08581e-06
4.10898e-06
4.77579e-06
4.81782e-06
5.5627e-06
5.61202e-06
6.07563e-06
6.12901e-06
5.96619e-06
6.01202e-06
6.1045e-06
6.05436e-06
8.49827e-06
8.44924e-06
9.1669e-06
9.20495e-06
9.62264e-06
9.66973e-06
1.00487e-05
1.00949e-05
1.04803e-05
1.05202e-05
1.097e-05
1.09988e-05
1.1517e-05
1.15377e-05
1.21197e-05
1.21365e-05
1.28033e-05
1.28182e-05
1.35836e-05
1.35936e-05
)
;
    }
}


// ************************************************************************* //
