/*--------------------------------*- C++ -*----------------------------------*\
  =========                 |
  \\      /  F ield         | OpenFOAM: The Open Source CFD Toolbox
   \\    /   O peration     | Website:  https://openfoam.org
    \\  /    A nd           | Version:  8
     \\/     M anipulation  |
\*---------------------------------------------------------------------------*/
FoamFile
{
    version     2.0;
    format      ascii;
    class       volScalarField;
    location    "200";
    object      p_rgh;
}
// * * * * * * * * * * * * * * * * * * * * * * * * * * * * * * * * * * * * * //

dimensions      [1 -1 -2 0 0 0 0];

internalField   nonuniform List<scalar> 
1200
(
2260.42
2260.41
2260.57
2260.91
2263.66
2264.72
2265.89
2269.46
2273.38
2266.15
2255.68
2252.06
2251.79
2253.47
2254.77
2256.2
2257.49
2256.76
2255.21
2253.31
2253.14
2255.66
2261.81
2275.34
2309.61
2289.36
2229.51
2207.65
2206.73
2211.84
2206.11
2194.63
2179.47
2164.4
2156.81
2161.08
2174.46
2184.82
2171.74
2133.8
2098.64
2064.18
2009.23
1960.06
1905.38
1818.69
1588.25
1032.23
415.375
370.745
98.7559
-692.508
-695.618
-428.395
-155.968
31.9554
78.2708
63.0108
-41.9891
-18.2396
2260.22
2260.32
2260.55
2260.86
2262.91
2263.59
2266.66
2268.7
2266.29
2261.22
2254.07
2251.01
2251.73
2254.09
2255.56
2257.01
2258.04
2257.22
2255.67
2253.52
2253.45
2256.17
2260.49
2266.99
2300.99
2279.6
2223.81
2203.18
2204.79
2212.37
2207.11
2195.63
2180.14
2163.79
2154.25
2156.7
2169.2
2180.54
2169.23
2131.26
2098.16
2062.29
2010.45
1961.07
1905.75
1824.19
1619.04
1118.63
456
264.63
-130.421
-884.239
-842.162
-468.524
-123.167
81.0081
107.309
65.2867
-119.155
-813.24
2260.24
2260.33
2260.59
2260.97
2263.71
2263.83
2262.81
2257.63
2248.63
2253.9
2252.99
2251.25
2251.46
2253.66
2255.19
2256.46
2257.32
2256.57
2255.07
2253.12
2252.79
2255.26
2260.68
2260.39
2293.38
2267.06
2219.9
2201.86
2206.68
2215.37
2209.04
2195.75
2178.22
2159.96
2150.52
2156.5
2175.27
2195.08
2181.91
2133.84
2100.1
2062.88
2013.21
1957.78
1891.46
1805.33
1646.78
1312.42
800.335
234.865
-673.843
-1271.55
-1016.06
-455.475
-26.7123
174.545
171.641
144.882
108.843
-45.0969
2260.15
2260.18
2260.37
2260.33
2260.66
2260.28
2260.36
2251.19
2244.86
2247.36
2248.67
2248.27
2249.91
2252.83
2254.51
2256.35
2257.47
2256.2
2254.51
2252.52
2252.29
2255.55
2262.07
2263.26
2291.89
2262.43
2213.32
2198.41
2204.05
2216.25
2209.39
2195.85
2177.69
2159.4
2150.91
2156.63
2168.32
2176.97
2165.57
2132.33
2107.68
2065.54
2016.47
1958.85
1887.57
1798.76
1665.27
1424.36
1004.16
221.053
-953.694
-1363.86
-1036.38
-500.872
-113.386
80.4208
83.7127
42.6942
39.1224
-19.7225
2260.07
2260.06
2260.09
2259.8
2259.37
2257.79
2256.96
2251.86
2245.53
2246.65
2247.36
2247.18
2249.04
2252.06
2254.41
2256.38
2257.17
2256.32
2254.43
2251.94
2250.53
2252.37
2261.85
2269.62
2295.83
2263.7
2213.95
2201.53
2205.45
2215.83
2209.09
2195.75
2177.81
2159.22
2150.97
2155.57
2164.19
2167.69
2157.87
2133.68
2105.01
2063.96
2016.79
1959.82
1887.05
1799.56
1681
1481.51
1087.65
217.343
-991.392
-1461.14
-1012.74
-510.084
-108.123
99.8656
102.117
87.2103
74.7897
-24.5233
2259.99
2259.92
2259.75
2259.34
2258.72
2257.11
2255.75
2252.03
2246.71
2247.13
2246.6
2246.16
2247.85
2250.98
2254.39
2257.14
2257.39
2255.91
2253.91
2251.24
2249.18
2249.93
2260.13
2275.35
2296.01
2265.12
2221.67
2206.65
2207.55
2215.57
2209.38
2196.65
2179.3
2161.55
2152.19
2154.41
2161.2
2163.74
2154.24
2133.58
2106.05
2064.27
2016.79
1958.7
1885.19
1796.93
1679.4
1484.03
1097.87
220.567
-912.587
-1460.29
-1008.52
-523.657
-132.114
60.7005
63.578
38.0773
30.715
-22.7219
2259.93
2259.84
2259.57
2259.08
2258.43
2256.62
2254.74
2251.65
2247.59
2246.36
2245.77
2245.92
2247.49
2250.02
2252.67
2254.94
2256.19
2255.55
2253.61
2250.75
2247.97
2248.9
2259.09
2275.81
2289.02
2273.7
2229.19
2213.31
2210.83
2215.04
2208.92
2197.19
2180.83
2163.64
2153.66
2153.56
2157.78
2159.7
2151.94
2133.41
2106.23
2065.83
2018.69
1959.8
1884.2
1792.39
1668.45
1463.85
1078.41
247.364
-824.905
-1319.38
-961.569
-505.016
-131.476
37.4839
31.5832
7.49299
9.62072
-8.24753
2259.88
2259.79
2259.51
2259
2258.25
2256.45
2254.23
2251.11
2247.54
2245.97
2245.27
2245.32
2246.63
2249.01
2251.76
2254.12
2254.98
2254.02
2252.11
2249.61
2247.67
2249.4
2258.59
2273.33
2285
2279.96
2236.74
2218.51
2213.17
2214.48
2208.3
2197.25
2181.95
2165.8
2155.62
2153.7
2156.01
2157
2149.5
2131.72
2104.58
2065.33
2018.56
1959.84
1883.75
1788.96
1658.83
1445.82
1057.11
275.971
-701.792
-1149.11
-886.108
-458.428
-104.357
22.9456
-12.8408
-41.9053
-23.1495
-5.15268
2259.79
2259.68
2259.41
2258.9
2258.05
2256.34
2254
2250.77
2247.24
2245.36
2244.52
2244.51
2245.76
2248.08
2250.72
2252.87
2253.69
2252.8
2250.78
2248.28
2246.6
2248.37
2257
2270.41
2280.13
2278.22
2241.33
2220.45
2213.63
2212.99
2206.77
2196.07
2181.59
2166.21
2155.93
2153.21
2154.39
2154.34
2146.87
2129.62
2102.4
2063.34
2016.13
1957.42
1881.61
1785.15
1651.25
1433.69
1046.64
309.7
-581.087
-1003.93
-805.169
-390.657
-45.5052
30.6928
-50.9985
-87.1093
-47.2053
0.720599
2259.97
2259.75
2259.44
2258.91
2258.01
2256.34
2253.97
2250.71
2247.15
2245.06
2244.1
2244.1
2245.35
2247.61
2250.2
2252.31
2253.08
2252.05
2249.82
2247.18
2245.57
2247.54
2255.78
2268.22
2276.83
2274.82
2242.15
2220.01
2212.47
2210.66
2204.31
2193.57
2179.42
2164.44
2154.09
2151.04
2151.81
2151.33
2144.02
2127.3
2100.6
2061.8
2014.39
1956.06
1880.93
1784.45
1649.67
1432.68
1053.86
345.593
-500.694
-917.597
-755.319
-352.843
-11.2506
68.3995
-13.9833
-92.8924
-65.2525
-2.32211
2260.44
2260.41
2260.61
2260.96
2263.8
2264.81
2265.94
2269.34
2273.18
2266.2
2255.81
2252.01
2251.74
2253.42
2254.78
2256.19
2257.41
2256.68
2254.96
2253
2252.92
2255.45
2261.42
2275.07
2309.25
2288.06
2228
2207.38
2206.77
2211.69
2206.46
2195.07
2179.98
2164.8
2157.26
2161.43
2174.67
2184.72
2171.17
2133.09
2098.28
2064.11
2009.52
1960.55
1906.62
1819.35
1589.87
1033.62
413.51
367.795
103.253
-691.134
-701.071
-432.17
-162.05
23.1165
70.2919
51.7809
-52.9661
-60.9217
2260.21
2260.31
2260.56
2260.91
2262.99
2263.57
2266.37
2267.85
2265.61
2260.61
2253.49
2250.23
2250.71
2252.97
2254.52
2255.95
2256.98
2256.13
2254.47
2252.62
2252.7
2255.17
2259.52
2266.91
2301.9
2279.35
2223.44
2203.99
2205.48
2212.29
2207.25
2195.56
2179.87
2163.41
2153.9
2156.16
2168.64
2179.89
2168.37
2130.51
2097.64
2061.81
2010.04
1960.96
1905.93
1823.45
1618.49
1120.86
458.263
266.495
-120.069
-878.829
-840.661
-465.021
-120.666
82.1148
107.628
65.3323
-117.51
-808.118
2260.2
2260.32
2260.58
2260.92
2263.38
2263.72
2262.95
2257.27
2248.42
2253.4
2252.36
2250.66
2250.99
2253.11
2254.67
2256.05
2256.94
2256.09
2254.49
2252.61
2252.42
2254.87
2260.08
2260.48
2293.79
2267.91
2221.04
2203.18
2207.16
2214.78
2209.13
2196
2178.32
2159.76
2150.21
2156.24
2174.89
2195.02
2182.35
2134.28
2100.43
2062.77
2013.15
1958.46
1892.44
1806.44
1646.45
1309.16
800.508
245.128
-659.748
-1259.21
-1016.52
-464.329
-31.0785
170.45
166.568
143.27
103.827
-108.574
2260.14
2260.22
2260.44
2260.39
2260.59
2259.87
2260.03
2251.48
2245.12
2247.48
2248.74
2248.43
2250.11
2253.01
2254.66
2256.61
2257.89
2256.51
2254.87
2252.91
2252.85
2256.26
2262.56
2263.59
2293.23
2264.23
2214.83
2199.08
2205.25
2217.34
2210.14
2196.72
2178.37
2159.75
2151.25
2157.04
2168.62
2177.53
2166.38
2132.99
2108.34
2065.32
2016.14
1958.6
1886.8
1798.2
1666.23
1426.28
1009.05
227.862
-950.934
-1365.84
-1031.48
-504.178
-116.948
78.1317
83.6096
43.4621
42.8633
-22.298
2260.08
2260.1
2260.17
2259.91
2259.39
2257.74
2257
2251.98
2245.78
2246.97
2247.82
2247.63
2249.49
2252.58
2254.98
2256.84
2257.59
2256.99
2255.22
2252.82
2251.5
2253.23
2262.51
2270.47
2298.47
2265.8
2215.34
2202.46
2206.56
2216.94
2209.66
2196.41
2178.45
2159.44
2151.27
2155.99
2164.22
2167.64
2157.92
2134.44
2105.93
2064.31
2017.39
1960.67
1887.21
1799.45
1681.37
1483.17
1092.89
218.635
-988.719
-1457.23
-1007.26
-505.291
-103.732
103.924
101.738
86.2502
73.8527
-21.2908
2260
2259.95
2259.82
2259.42
2258.79
2257.05
2255.72
2252.11
2246.8
2247.25
2246.73
2246.38
2248.13
2251.38
2254.89
2257.71
2257.76
2256.18
2254.27
2251.64
2249.83
2250.76
2260.5
2275.76
2297.44
2267.79
2223.04
2207.33
2208.28
2216.19
2209.64
2197.18
2179.85
2162.05
2152.35
2154.48
2161.08
2163.6
2153.98
2133.31
2105.93
2064.28
2017.15
1959.12
1885.1
1796.75
1679.08
1484.55
1101.23
223.606
-913.411
-1454.16
-1003.52
-523.098
-133.611
57.6178
61.7992
37.7862
32.4077
-21.0458
2259.92
2259.84
2259.6
2259.11
2258.48
2256.62
2254.76
2251.67
2247.6
2246.4
2245.87
2246.06
2247.64
2250.16
2252.7
2254.89
2256.28
2255.72
2253.8
2250.89
2248.2
2249.24
2258.76
2275.61
2289.42
2275.74
2230.33
2213.68
2211.2
2215.3
2208.71
2197.21
2180.92
2163.48
2153.26
2153.41
2157.45
2159.24
2151.48
2133.1
2105.93
2065.61
2018.76
1959.99
1884.17
1792.4
1668.13
1463.34
1079.5
247.583
-825.064
-1313.26
-956.303
-503.356
-132.372
35.4725
30.9664
8.83486
11.2513
-8.51602
2259.86
2259.78
2259.52
2259
2258.27
2256.47
2254.26
2251.14
2247.56
2246
2245.33
2245.41
2246.73
2249.11
2251.8
2254.08
2254.83
2253.81
2251.96
2249.49
2247.69
2249.61
2258.44
2273.09
2284.94
2281.16
2237.73
2218.32
2213.15
2214.51
2208.04
2197.15
2181.89
2165.55
2154.98
2153.12
2155.6
2156.45
2148.96
2131.26
2104.08
2064.85
2018.23
1959.72
1883.99
1789.56
1659.02
1445.35
1056.95
274.452
-702.896
-1146.51
-882.422
-457.242
-106.101
19.3607
-14.4184
-40.6162
-21.5945
-7.72456
2259.78
2259.69
2259.41
2258.86
2258.06
2256.36
2254.02
2250.86
2247.31
2245.42
2244.58
2244.58
2245.85
2248.17
2250.71
2252.76
2253.52
2252.62
2250.63
2248.13
2246.54
2248.41
2256.85
2270.22
2280.05
2278.45
2241.56
2220.16
2213.57
2213.06
2206.7
2196.13
2181.74
2166.21
2155.62
2152.95
2154.25
2154.04
2146.51
2129.32
2102.09
2063.01
2015.82
1957.38
1882.08
1786.31
1651.84
1433.4
1046.48
308.605
-581.354
-1001.6
-802.206
-390.519
-48.7856
25.9811
-52.7429
-84.7767
-45.7523
-0.452578
2259.97
2259.78
2259.44
2258.86
2258.03
2256.36
2253.98
2250.82
2247.21
2245.1
2244.12
2244.12
2245.39
2247.65
2250.17
2252.21
2252.92
2251.85
2249.59
2246.93
2245.37
2247.43
2255.57
2267.99
2276.77
2274.79
2242.29
2219.74
2212.24
2210.56
2204.22
2193.62
2179.66
2164.7
2154.2
2151.14
2152.04
2151.52
2144.2
2127.63
2101
2062.19
2014.7
1956.52
1881.69
1785.5
1650.54
1433.21
1054.16
343.902
-502.241
-916.353
-750.918
-347.848
-7.99799
68.6626
-13.6249
-89.2329
-61.9204
2.95764
)
;

boundaryField
{
    wall
    {
        type            fixedFluxPressure;
        gradient        nonuniform List<scalar> 
1200
(
-4.22282
2.14989
7.18004
2.5377
-1.2126
-1.95974
0.884737
4.62103
1.99531
0.202119
-1.06203
0.357561
0.527357
-8.13645
-8.98478
-4.78734
-0.413725
1.59326
-2.10363
-5.1394
-7.67956
-1.19746
1.7216
-12.271
-16.3105
-12.938
-6.07718
-2.09827
-1.10337
0.386018
-9.98571
-10.3177
10.3283
-11.8491
-21.3405
-16.1235
-6.32314
1.08465
7.07625
10.9946
-29.0038
-14.6367
56.4474
10.8853
-7.24201
-14.3866
-10.3189
-3.58256
-0.381432
-3.60095
-17.3031
3.06024
12.0885
80.7129
3.38694
6.60357
-0.487151
-3.12592
-2.42594
-3.65835
-10.5756
43.314
-30.4583
64.5095
-14.6794
0.195939
-8.07026
-6.24941
-2.97934
0.315162
22.5447
154.549
77.4109
-43.17
-26.8569
-25.6463
-12.8497
-11.2251
-15.501
-20.7085
14.8343
125.015
69.1791
-44.377
-48.4126
-22.1697
-10.9203
-10.4901
-12.1293
-11.9883
-24.0184
123.259
128.945
-25.6204
-74.9002
-17.0364
-9.93264
-9.88585
-11.538
-7.40445
-28.5736
118.66
132.004
-8.115
-92.7964
-25.3693
-17.0971
-8.55938
-12.8409
-5.82992
8.96434
158.228
119.129
-28.4053
-88.4815
-51.6431
-29.4757
-12.3085
-16.856
-6.44852
10.5473
204.734
94.2397
-35.7688
-89.1888
-59.6629
-36.8578
-20.4988
-21.5031
-9.43157
9.18907
223.142
110.198
-35.0981
-103.304
-78.8965
-31.6645
-23.3735
-19.846
-9.70662
-2.57744
207.81
103.754
-30.4228
-114.957
-97.6535
-7.53773
-10.4622
0.37778
4.28005
3.26319
210.793
83.0805
-53.0816
-93.2696
-112.846
10.5315
7.43711
20.5049
18.9846
14.2937
211.945
76.9518
-84.3035
-84.7115
-73.8051
-16.1803
31.4342
31.8062
30.562
15.9701
217.663
96.9566
-62.4671
-132.207
-53.4235
-32.5936
42.6295
34.9293
37.9377
48.5493
238.825
117.15
-70.0777
-156.951
-70.6061
-34.6628
33.053
31.3348
42.2839
61.9751
179.492
104.016
-75.9685
-174.832
-77.2512
-25.006
26.9555
32.3433
48.2857
43.4151
146.374
75.2158
-109.351
-193.207
-125.894
-43.4219
2.04918
17.7544
38.8334
42.4709
197.025
75.8695
-138.299
-171.941
-165.609
-67.6179
-36.8399
-3.3364
18.3235
75.3002
192.857
113.234
-94.621
-122.418
-71.0793
69.8455
33.6994
32.95
38.5213
58.8621
21.519
-1.52587
-59.0759
-156.19
-74.7799
42.461
49.761
41.3566
43.1825
63.4447
-197.168
-85.8432
-267.292
-519.26
-274.329
-85.1715
15.1672
15.3964
12.1076
254.818
35.1529
-178.28
-364.059
-429.644
-559.566
-408.682
-225.926
-28.8523
8.62003
313.556
86.6794
-231.433
-317.791
-283.783
-270.459
-237.666
-199.974
-38.8641
-24.2235
56.8578
-162.348
-268.519
-132.611
-179.151
-132.901
-69.9308
46.5449
64.7305
55.2145
-5.26474
-138.271
-92.038
-233.062
-219.303
-144.711
-69.3587
11.6752
20.1257
46.8042
28.4201
9.47069
117.702
-214.714
-218.529
-117.846
-44.1817
3.51111
-4.72263
18.2832
-70.5542
-34.0475
-21.8293
-149.939
-111.562
-46.8543
46.8329
59.7699
25.3285
15.3533
-88.2639
7.56504
-51.5253
-175.1
-130.344
-102.809
2.40779
26.6493
-1.7872
-15.5458
-102.89
49.437
-21.3595
-136.739
-127.117
-107.645
-13.5062
18.9523
-20.5046
-53.2214
-81.9014
67.4837
35.3206
-70.2181
-43.4876
-99.4941
35.0953
55.0714
7.92082
-54.9901
-93.4869
57.1834
50.1714
-67.969
-60.0624
-32.9143
79.8518
134.122
66.9162
-26.556
-75.2855
93.9748
35.3162
-82.7585
-86.7095
-14.1188
29.4679
119.725
54.9406
-22.686
-51.7872
105.467
76.4554
-67.0751
-9.05137
24.2017
64.6165
82.8715
24.7589
-45.9079
10.8354
132.7
61.3859
-131.556
3.90663
28.6392
92.4519
108.152
57.3891
-34.8266
106.386
185.099
-20.968
-177.539
-12.3803
57.0192
93.9991
106.978
66.8239
-29.8205
140.916
172.618
-69.9347
-135.287
-156.721
67.1647
69.8271
93.031
55.8314
-50.6165
72.0651
110.729
-74.999
-95.0467
-203.482
33.6032
71.9752
102.676
60.4836
-57.2764
8.95075
100.709
22.9336
40.8493
-63.4186
0.303495
56.1673
102.465
66.6636
-61.1966
-55.3276
88.7226
11.2397
59.5493
-117.968
-76.6983
-5.83936
74.5994
68.3451
-51.7548
-99.3142
26.0364
-143.933
46.8723
-172.013
-94.1594
-35.5987
29.6575
16.3119
-82.9282
-238.513
-36.134
-203.733
154.787
-33.1018
9.3178
1.08217
-46.6378
-86.9028
-142.887
-123.996
151.757
-226.483
108.584
24.7454
34.1062
-9.42026
-122.029
-230.786
-201.596
-319.849
104.675
56.4213
-204.05
-70.6022
67.7121
58.9574
-39.912
-116.156
-167.078
-275.004
-440.103
615.69
-399.744
-333.288
-104.091
97.5601
96.1837
66.1881
-95.9676
386.646
-392.247
-124.058
-993.476
-1054.17
-662.265
-206.054
49.4631
50.6071
-31.4438
513.513
-478.152
-2157
-1398.91
-226.205
-640.128
-67.6351
291.398
218.479
359.764
-1067.33
-1984.01
-2772.31
-590.493
-549.478
199.219
-26.526
185.801
43.1673
312.474
-110.234
-929.318
-2291.88
511.725
-873.082
-1418.09
-1247.41
-511.204
-456.33
-241.156
965.553
-306.114
242.827
-895.497
-969.828
-945.129
-1008.25
-689.738
-538.189
-859
605.804
-743.699
1738.48
672.143
-924.186
-64.6036
-290.387
-197.36
59.0406
-1000.35
1051.33
-564.095
874.935
710.487
-771.653
368.824
235.259
382.138
724.389
-725.957
1513.26
-278.243
856.51
472.755
-679.896
667.969
431.214
701.388
810.483
-169.825
1345.57
-141.519
1015.09
50.6641
82.6158
363.509
134.026
297.661
180.273
-140.282
2028.79
-80.2137
334.751
-125.773
197.113
36.9979
-244.377
-248.773
-475.957
-818.403
2011.42
-372.842
1083.94
-755.655
280.324
-349.089
-291.683
-283.403
-224.055
-674.705
8239.04
-1079.06
12209.4
347.948
-529.781
-285.001
78.0038
564.069
320.489
-1088.24
4.22263
-2.15038
-7.18004
-2.53711
1.21246
1.95896
-0.885405
-4.62109
-1.99499
-0.202076
1.04826
-0.353875
-0.520271
8.13354
8.96524
4.77329
0.416951
-1.58543
2.10495
5.1369
7.6449
1.21179
-1.70944
12.1829
16.2296
12.9225
6.10299
2.13036
1.09534
-0.419758
9.90975
10.3614
-10.3265
11.7325
21.2043
16.0953
6.43745
-1.06445
-7.09528
-11.0387
28.8854
14.7726
-56.6314
-11.202
7.3224
14.3302
10.3548
3.62956
0.378105
3.6168
16.7356
-2.9296
-12.1257
-80.7745
-3.49418
-6.28948
0.520647
3.19982
2.43812
3.66284
10.1042
-43.4952
30.767
-64.2699
14.6567
-0.184225
8.34615
6.29948
2.98473
-0.323055
-20.2671
-154.662
-76.6172
43.5124
26.9231
25.6517
12.864
11.3329
15.5252
20.7316
-13.9958
-124.377
-68.1868
44.4308
48.1743
22.1266
10.9418
10.5858
12.3454
12.0216
24.7187
-122.256
-129.19
25.8052
74.7857
16.9323
9.15798
10.0604
12.0419
7.48855
28.971
-117.51
-133.483
8.22748
92.404
23.1567
16.2167
8.75409
13.4085
5.97646
-8.88063
-157.226
-120.586
28.469
88.7103
46.0524
29.3726
12.5051
17.3658
6.64525
-10.5077
-203.954
-95.3492
35.8719
89.4328
58.8437
36.2062
21.0214
22.1479
9.68047
-9.14594
-222.817
-110.925
35.256
103.475
78.6598
30.7148
23.5205
20.7033
9.98366
2.60049
-207.722
-104.174
30.5926
115.156
97.2773
6.8441
10.2462
0.514508
-4.03952
-3.25988
-210.775
-83.3136
53.1958
93.4822
113.321
-10.5029
-7.46727
-19.5874
-18.8419
-14.2158
-211.862
-77.1014
84.4319
85.2791
75.0462
16.9332
-31.1046
-30.8183
-30.4727
-15.7466
-217.365
-96.8976
62.5843
132.726
54.7409
33.736
-41.7858
-33.8286
-37.8527
-48.1852
-238.365
-116.793
70.1819
157.433
71.921
36.4986
-31.592
-29.9899
-42.254
-61.5108
-178.983
-103.506
76.0628
175.201
78.219
27.4468
-25.128
-30.9454
-48.3175
-43.0281
-145.978
-74.9295
109.455
193.256
126.352
45.8829
-0.309312
-17.1017
-38.9338
-42.1579
-196.624
-74.3282
138.543
171.923
165.741
69.2242
38.0708
2.811
-18.3756
-75.0814
-192.321
-111.626
95.1583
122.305
71.0203
-68.837
-33.2385
-33.7602
-38.5767
-58.7588
-21.1742
2.1069
60.3382
156.158
74.7103
-41.5716
-49.0981
-41.9177
-43.2468
-65.1236
196.393
84.2952
265.987
518.657
261.845
81.1629
-13.1393
-15.4668
-12.1224
-256.235
-36.6974
174.439
362.758
429.604
559.768
413.013
225.771
30.2634
-8.63277
-312.845
-83.9777
231.702
318.082
293.169
278.324
235.929
203.124
39.5592
24.0487
-55.6893
166.405
268.444
133.272
185.197
137.767
72.3704
-43.0827
-62.8999
-55.8251
6.19847
143.118
90.2039
233.332
222.103
146.642
72.2595
-6.78105
-15.7868
-47.3408
-28.6406
-5.90194
-118.586
214.791
221.64
120.205
47.266
1.30371
10.0635
-18.6558
69.286
33.3152
21.01
150.114
114.483
50.8012
-42.5459
-54.6329
-20.1713
-16.0792
86.264
-14.0119
51.0788
175.39
132.446
106.121
1.64947
-21.6503
6.10753
14.2035
100.235
-58.6872
20.9373
137.037
128.939
110.04
16.8337
-14.1974
24.2357
50.6638
79.0368
-77.4135
-35.7137
70.3572
45.1126
100.713
-32.3466
-50.119
-4.13898
51.1821
91.013
-70.3122
-50.4524
67.8295
61.0688
34.0592
-76.5922
-128.23
-62.6364
22.3654
72.954
-112.485
-34.6537
82.2778
87.2432
16.1752
-24.5326
-112.414
-50.304
18.756
49.9654
-109.602
-76.1784
62.2833
10.0668
-21.0474
-58.5012
-74.4383
-19.5076
41.6747
-9.69464
-116.566
-61.2342
111.101
-3.80164
-23.2369
-85.4624
-100.392
-52.0097
29.3878
-102.546
-166.31
20.4419
153.521
1.8012
-47.5048
-84.6324
-100.169
-61.7003
22.2037
-139.027
-170.107
71.6117
132.665
133.842
-57.9937
-59.1709
-86.2956
-51.511
39.835
-72.7266
-113.702
79.7144
94.7917
174.251
-35.4519
-62.1143
-95.7967
-57.0327
41.1536
-10.7031
-106.397
-16.3749
-40.066
61.488
-10.9741
-51.5972
-96.8012
-62.8508
38.7086
53.9059
-94.6697
-4.75453
-58.9836
116.756
63.9271
4.40664
-71.6219
-64.3181
28.9749
98.5028
-30.4693
149.763
-46.4391
172.07
82.0407
29.0329
-30.0097
-13.0511
66.2003
238.51
33.2835
208.718
-154.651
33.334
-17.1283
-9.45978
43.6992
89.0724
132.74
131.619
-155.985
229.939
-108.786
-24.1613
-38.2485
0.915968
117.137
231.64
195.853
320.248
-108.223
-56.8216
203.663
72.5939
-67.4756
-67.0439
33.3889
115.015
163.992
275.899
443.422
-621.616
399.439
337.36
110.31
-99.5778
-102.313
-68.8022
94.1939
-385.569
397.665
118.883
994.117
1060.69
669.613
217.424
-47.8306
-51.1976
30.6098
-515.849
540.244
2156.44
1403.65
241.501
645.721
61.7174
-298.56
-218.984
-359.103
1099.74
2051.97
2777.93
610.807
585.579
-213.825
4.64418
-201.478
-44.2462
-314.822
182.263
956.405
2294.69
-506.787
866.385
1404.75
1208.2
502.563
453.903
234.96
-900.506
309.499
-271.324
896.27
985.051
942.366
983.721
681.624
532.19
848.539
-561.707
746.556
-1742.43
-671.97
938.023
81.5331
293.874
195.315
-65.5575
980.134
-1004.94
566.167
-862.184
-710.298
790.708
-350.658
-223.512
-382.101
-739.633
651.246
-1463.66
279.062
-830.725
-463.902
699.975
-653.567
-423.635
-710.12
-851.336
23.6955
-1294.46
141.305
-968.242
-35.0167
-65.0039
-350.987
-125.519
-296.015
-201.019
92.576
-1969.46
79.4234
-235.718
129.709
-194.379
-22.4483
260.805
276.777
491.824
805.592
-1930.25
371.467
-872.383
758.071
-262.929
359.46
313.286
318.639
266.164
681.516
-8230.1
1078.99
-12190.1
-346.865
562.053
289.714
-56.5252
-536.454
-273.294
1086.11
)
;
        value           nonuniform List<scalar> 
1200
(
2260.41
2260.22
2260.25
2260.16
2260.07
2259.99
2259.93
2259.9
2259.79
2259.97
2260.4
2260.32
2260.33
2260.16
2260.04
2259.91
2259.83
2259.8
2259.67
2259.74
2260.55
2260.55
2260.59
2260.34
2260.05
2259.72
2259.56
2259.5
2259.4
2259.44
2260.89
2260.84
2261
2260.3
2259.75
2259.3
2259.07
2259
2258.92
2258.94
2263.59
2262.88
2263.83
2260.68
2259.35
2258.68
2258.4
2258.24
2258.05
2258
2264.68
2263.6
2263.85
2260.48
2257.79
2257.12
2256.62
2256.44
2256.34
2256.34
2265.86
2266.75
2262.73
2260.52
2256.91
2255.75
2254.72
2254.21
2253.99
2253.98
2269.51
2269.06
2257.83
2251.1
2251.79
2251.97
2251.62
2251.08
2250.73
2250.66
2273.4
2266.59
2248.81
2244.75
2245.41
2246.66
2247.57
2247.52
2247.21
2247.12
2266.1
2261.53
2254.22
2247.29
2246.45
2247.1
2246.34
2245.95
2245.33
2245.04
2255.62
2254.37
2253.29
2248.63
2247.13
2246.53
2245.73
2245.25
2244.49
2244.09
2252.09
2251.41
2251.53
2248.19
2246.97
2246.04
2245.85
2245.29
2244.47
2244.08
2251.82
2252.24
2251.69
2249.82
2248.82
2247.7
2247.4
2246.58
2245.71
2245.32
2253.49
2254.64
2253.94
2252.74
2251.8
2250.78
2249.94
2248.96
2248.04
2247.58
2254.77
2256.08
2255.45
2254.43
2254.12
2254.15
2252.66
2251.74
2250.72
2250.21
2256.21
2257.53
2256.67
2256.22
2256.15
2256.86
2254.97
2254.14
2252.93
2252.35
2257.52
2258.57
2257.51
2257.26
2256.96
2257.21
2256.15
2255.06
2253.77
2253.16
2256.8
2257.76
2256.82
2256.04
2256
2255.77
2255.46
2254.12
2252.89
2252.15
2255.33
2256.26
2255.37
2254.34
2254.04
2253.74
2253.53
2252.19
2250.86
2249.92
2253.46
2253.96
2253.38
2252.33
2251.5
2251.05
2250.69
2249.68
2248.36
2247.29
2253.24
2253.8
2252.98
2252.02
2250.04
2248.87
2247.87
2247.68
2246.65
2245.67
2255.77
2256.65
2255.45
2255.21
2251.94
2249.52
2248.73
2249.31
2248.37
2247.58
2261.99
2260.96
2260.96
2261.82
2261.56
2259.95
2259.27
2258.68
2257.09
2255.88
2275.5
2267.06
2260.44
2263.12
2269.22
2275.18
2275.92
2273.45
2270.52
2268.33
2309.74
2300.47
2293.16
2291.23
2294.56
2295.38
2288.8
2285.05
2280.16
2276.87
2289.98
2279.64
2266.6
2261.52
2262.61
2263.64
2272.66
2279.43
2278.17
2274.85
2230.33
2224.07
2219.31
2212.48
2213.2
2220.98
2228.57
2236.23
2241.24
2242.09
2207.8
2202.77
2201.17
2198.07
2201.08
2206.31
2213.14
2218.64
2220.62
2220.15
2206.72
2204.45
2206.46
2203.48
2204.9
2207.18
2210.66
2213.2
2213.69
2212.59
2211.9
2212.38
2215.67
2215.72
2215.29
2215.28
2214.94
2214.5
2212.98
2210.7
2205.93
2207.01
2208.98
2209.01
2208.8
2209.26
2209.04
2208.46
2206.84
2204.35
2194.41
2195.63
2195.62
2195.41
2195.42
2196.39
2197.2
2197.32
2196.07
2193.53
2179.21
2180.26
2178.16
2177.35
2177.49
2179.03
2180.8
2182.01
2181.54
2179.28
2164.19
2163.95
2160.04
2159.23
2159.11
2161.3
2163.73
2165.94
2166.23
2164.31
2156.57
2154.38
2150.62
2150.75
2150.82
2152.1
2153.85
2155.96
2156.09
2154.02
2160.88
2156.91
2156.55
2156.43
2155.35
2154.37
2153.62
2153.99
2153.35
2150.98
2174.31
2169.45
2175.43
2168.16
2164.16
2161.25
2157.93
2156.21
2154.45
2151.69
2184.83
2180.87
2195.26
2176.66
2167.68
2163.8
2159.92
2157.26
2154.49
2151.24
2171.98
2169.71
2181.95
2165.13
2157.86
2154.37
2152.16
2149.76
2147.04
2143.94
2134.14
2131.75
2133.72
2131.95
2133.35
2133.75
2133.58
2131.95
2129.76
2127.17
2098.82
2098.48
2099.91
2107.45
2104.51
2106.16
2106.42
2104.84
2102.55
2100.45
2064.2
2062.57
2062.94
2065.64
2063.76
2064.29
2065.99
2065.6
2063.5
2061.64
2009.1
2010.7
2013.23
2016.6
2016.45
2016.59
2018.69
2018.77
2016.31
2014.26
1959.8
1961.16
1957.4
1958.96
1959.36
1958.45
1959.73
1959.93
1957.47
1955.86
1904.81
1905.68
1890.92
1887.96
1886.95
1885.19
1884.21
1883.64
1881.4
1880.58
1818.38
1824.57
1804.73
1799.02
1799.61
1797.01
1792.36
1788.66
1784.56
1783.96
1587.46
1619.28
1646.86
1664.71
1680.81
1679.56
1668.59
1658.73
1650.96
1649.26
1031.56
1117.59
1313.82
1423.3
1480.65
1483.74
1464.08
1446.08
1433.87
1432.45
416.329
455.228
799.784
1001.63
1085
1096.24
1077.9
1057.27
1046.81
1053.84
371.763
263.163
229.562
217.566
216.848
218.83
247.129
276.65
310.214
346.493
95.8586
-134.976
-680.14
-955.183
-992.613
-912.067
-825.176
-701.419
-581.04
-499.948
-692.487
-886.193
-1276.39
-1362.27
-1463.78
-1464.02
-1322.42
-1150.35
-1005.06
-918.194
-693.534
-842.959
-1015.06
-1038.12
-1015.01
-1010.7
-963.921
-887.713
-806.346
-757.381
-427.269
-470.446
-451.362
-499.172
-512.254
-523.714
-505.627
-458.801
-390.181
-355.221
-153.816
-124.704
-24.5896
-111.628
-109.805
-131.075
-130.77
-103.292
-43.4899
-12.8466
35.0673
80.1891
176.745
81.567
98.433
62.4099
38.5989
24.7348
32.4861
68.1787
81.036
106.765
174.246
83.8726
102.324
64.4183
31.916
-12.1013
-50.7829
-14.3823
67.5803
64.9155
145.727
42.4507
87.7157
38.0416
6.8789
-42.5739
-88.2747
-95.0635
-37.3768
-120.174
111.689
37.2251
75.6828
29.7807
8.9003
-23.903
-47.7134
-66.9516
1.57999
-815.999
-16.3269
-19.3039
-25.5445
-23.312
-8.06195
-3.69373
1.60246
-5.12011
2260.45
2260.2
2260.18
2260.13
2260.08
2260.01
2259.92
2259.85
2259.77
2259.97
2260.41
2260.31
2260.32
2260.24
2260.13
2259.96
2259.84
2259.78
2259.69
2259.79
2260.63
2260.56
2260.57
2260.47
2260.21
2259.85
2259.62
2259.52
2259.41
2259.44
2260.98
2260.94
2260.9
2260.42
2259.96
2259.46
2259.13
2258.99
2258.85
2258.83
2263.87
2263.02
2263.26
2260.56
2259.41
2258.83
2258.51
2258.28
2258.06
2258.04
2264.85
2263.56
2263.7
2259.67
2257.74
2257.03
2256.62
2256.48
2256.36
2256.37
2265.97
2266.28
2263.03
2259.87
2257.04
2255.72
2254.78
2254.28
2254.03
2253.97
2269.29
2267.5
2257.07
2251.58
2252.05
2252.18
2251.7
2251.17
2250.9
2250.87
2273.16
2265.31
2248.24
2245.23
2245.89
2246.85
2247.62
2247.58
2247.34
2247.24
2266.26
2260.31
2253.08
2247.56
2247.16
2247.28
2246.42
2246.02
2245.45
2245.12
2255.87
2253.2
2252.05
2248.78
2248.04
2246.79
2245.91
2245.35
2244.61
2244.14
2251.99
2249.83
2250.38
2248.51
2247.85
2246.49
2246.13
2245.44
2244.62
2244.14
2251.71
2250.2
2250.76
2250.2
2249.72
2248.28
2247.73
2246.78
2245.91
2245.41
2253.4
2252.42
2252.84
2253.1
2252.84
2251.58
2250.23
2249.16
2248.22
2247.68
2254.79
2254.01
2254.42
2254.74
2255.27
2255.13
2252.72
2251.82
2250.71
2250.16
2256.18
2255.43
2255.84
2256.74
2257.08
2258
2254.86
2254.06
2252.71
2252.16
2257.38
2256.45
2256.74
2258.1
2257.81
2257.95
2256.33
2254.75
2253.44
2252.84
2256.64
2255.59
2255.85
2256.66
2257.32
2256.31
2255.81
2253.71
2252.53
2251.76
2254.84
2253.88
2254.2
2255.04
2255.61
2254.45
2253.89
2251.88
2250.55
2249.49
2252.85
2252.17
2252.35
2253.1
2253.26
2251.83
2250.96
2249.43
2248.06
2246.81
2252.81
2252.35
2252.23
2253.12
2251.98
2250.14
2248.31
2247.68
2246.5
2245.27
2255.34
2254.69
2254.68
2256.61
2253.67
2251.18
2249.41
2249.7
2248.41
2247.39
2261.25
2259.05
2259.81
2262.81
2262.8
2260.67
2258.58
2258.35
2256.76
2255.47
2274.9
2266.84
2260.42
2263.73
2270.86
2275.94
2275.51
2272.96
2270.12
2267.88
2309.11
2302.42
2294
2293.89
2299.73
2298.03
2289.63
2284.9
2280.01
2276.73
2287.43
2279.3
2268.36
2265.14
2266.89
2269.26
2276.78
2281.68
2278.51
2274.76
2227.18
2223.2
2221.63
2215.67
2216.11
2223.75
2230.94
2238.26
2241.66
2242.35
2207.23
2204.41
2203.87
2199.41
2202.92
2207.68
2213.86
2218.21
2220
2219.6
2206.78
2205.84
2207.38
2205.82
2207.12
2208.65
2211.38
2213.13
2213.53
2212.12
2211.62
2212.29
2214.48
2217.88
2217.5
2216.48
2215.41
2214.5
2213.08
2210.52
2206.64
2207.35
2209.19
2210.52
2209.95
2209.76
2208.6
2207.9
2206.64
2204.18
2195.29
2195.54
2196.13
2197.17
2196.75
2197.45
2197.21
2197.1
2196.14
2193.66
2180.24
2179.74
2178.37
2178.71
2178.78
2180.13
2180.96
2181.85
2181.8
2179.79
2165
2163.23
2159.68
2159.92
2159.56
2162.3
2163.4
2165.42
2166.2
2164.83
2157.5
2153.75
2150.11
2151.41
2151.42
2152.44
2153.08
2154.66
2155.46
2154.26
2161.62
2155.91
2156.19
2157.24
2156.22
2154.52
2153.36
2152.84
2152.82
2151.19
2174.82
2168.37
2174.73
2168.77
2164.25
2161.03
2157.32
2155.42
2154.21
2152.15
2184.72
2179.57
2194.84
2177.81
2167.65
2163.55
2159.04
2156.21
2153.91
2151.6
2170.93
2167.93
2182.31
2166.77
2157.92
2153.88
2151.28
2148.71
2146.36
2144.26
2132.75
2130.05
2134.41
2133.35
2134.72
2133.17
2132.96
2131.04
2129.19
2127.73
2098.1
2097.32
2100.63
2108.56
2106.35
2105.82
2105.77
2103.84
2101.95
2101.1
2064.09
2061.51
2062.72
2065.23
2064.5
2064.23
2065.46
2064.6
2062.86
2062.29
2009.65
2009.78
2013.14
2016
2017.72
2017.31
2018.75
2018.03
2015.65
2014.78
1960.81
1960.86
1958.86
1958.48
1961.14
1959.34
1960.05
1959.63
1957.34
1956.69
1907.19
1905.99
1892.99
1886.41
1887.3
1885.07
1884.15
1884.09
1882.3
1882.02
1819.67
1823.06
1807.06
1797.94
1799.39
1796.66
1792.4
1789.85
1786.9
1785.99
1590.66
1618.24
1646.37
1666.78
1681.57
1678.92
1667.96
1659.09
1652.13
1650.95
1034.3
1121.9
1307.75
1427.34
1484.04
1484.85
1463.1
1445.07
1433.21
1433.43
412.557
459.045
801.036
1011.58
1095.55
1102.88
1080.04
1056.8
1046.31
1054.18
366.773
268.101
250.432
231.368
219.139
225.358
247.795
273.754
308.091
342.996
106.236
-115.383
-653.451
-949.389
-987.496
-913.989
-824.857
-703.299
-581.401
-503.003
-690.985
-876.831
-1254.39
-1367.42
-1454.59
-1450.5
-1310.33
-1145.27
-1000.48
-915.784
-703.019
-839.859
-1017.59
-1029.74
-1004.94
-1001.34
-953.995
-880.83
-801.044
-748.896
-433.201
-463.094
-468.443
-505.877
-503.08
-522.994
-502.727
-456.869
-391.012
-345.543
-164.093
-119.127
-33.1584
-118.698
-101.996
-134.602
-133.048
-107.171
-50.8586
-6.65704
20.1218
82.9335
168.315
77.0153
105.408
55.9453
34.3773
17.5509
24.0847
68.5504
67.6457
108.169
164.073
83.4881
101.579
60.9922
30.6615
-15.135
-52.9821
-13.3001
47.3481
65.7005
142.656
43.7081
85.7642
37.856
9.49162
-39.868
-83.5497