/*--------------------------------*- C++ -*----------------------------------*\
  =========                 |
  \\      /  F ield         | OpenFOAM: The Open Source CFD Toolbox
   \\    /   O peration     | Website:  https://openfoam.org
    \\  /    A nd           | Version:  8
     \\/     M anipulation  |
\*---------------------------------------------------------------------------*/
FoamFile
{
    version     2.0;
    format      ascii;
    class       volScalarField;
    location    "200";
    object      T;
}
// * * * * * * * * * * * * * * * * * * * * * * * * * * * * * * * * * * * * * //

dimensions      [0 0 0 1 0 0 0];

internalField   nonuniform List<scalar> 
1200
(
303.143
303.135
303.127
303.117
302.919
302.575
301.832
300.398
299.627
298.996
298.535
298.04
297.311
296.361
295.305
294.28
293.553
293.26
293.166
293.135
293.121
293.113
293.107
293.102
293.611
295.689
296.162
296.178
296.182
296.186
296.218
296.234
296.258
296.306
296.401
296.569
296.815
297.128
297.498
297.89
298.23
298.475
298.668
298.851
299.143
299.282
299.368
299.403
299.319
299.101
299.319
299.471
299.596
299.701
299.783
299.856
299.914
299.955
299.981
299.994
303.15
303.15
303.149
303.147
302.032
300.443
297.833
294.417
293.527
293.58
293.682
293.678
293.468
293.248
293.161
293.124
293.12
293.115
293.114
293.114
293.111
293.106
293.106
293.116
293.636
295.211
295.288
294.841
294.625
294.656
294.707
294.677
294.679
294.913
295.47
296.212
296.913
297.546
298.28
298.924
299.259
299.396
299.448
299.472
299.486
299.504
299.529
299.563
299.581
299.606
299.761
299.869
299.905
299.912
299.946
299.985
299.998
300
300
300
303.15
303.15
303.15
303.143
299.076
293.635
293.785
293.337
293.222
293.216
293.225
293.234
293.23
293.18
293.134
293.126
293.124
293.122
293.121
293.122
293.131
293.154
293.196
293.25
293.595
294.927
294.848
294.36
294.237
294.309
294.363
294.325
294.264
294.194
294.097
293.992
294.187
295.307
297.723
299.067
299.164
299.176
299.18
299.185
299.189
299.191
299.198
299.205
299.207
299.121
298.837
298.185
297.307
297.532
298.225
299.055
299.822
299.977
299.989
299.997
303.15
303.15
303.15
303.146
301.43
296.709
293.579
293.256
293.254
293.308
293.421
293.603
293.545
293.293
293.155
293.129
293.129
293.132
293.142
293.165
293.207
293.272
293.357
293.441
293.562
294.76
294.856
294.294
293.737
293.636
294.2
294.21
294.161
294.102
294.044
294.001
294.032
294.074
294.241
294.923
297.361
298.979
298.993
298.98
298.96
298.933
298.909
298.886
298.819
298.594
298.005
296.838
296.113
295.969
295.903
295.841
296.06
296.395
296.765
298.107
303.15
303.15
303.15
303.147
302.425
299.737
296.23
294.144
293.63
293.471
293.842
294.371
294.304
293.651
293.233
293.134
293.134
293.137
293.143
293.154
293.177
293.222
293.309
293.43
293.544
294.709
294.86
294.603
294.165
293.522
293.716
293.887
293.932
293.845
293.631
293.745
293.875
293.962
294.029
294.066
294.651
296.695
297.739
298.625
298.874
298.834
298.793
298.743
298.637
298.381
297.857
296.824
296.463
296.146
296.027
295.943
295.841
295.736
295.843
296.189
303.15
303.15
303.15
303.148
302.806
301.448
298.898
296.622
295.53
295.329
295.109
295.52
296.051
295.554
294.144
293.293
293.156
293.144
293.143
293.152
293.175
293.234
293.388
293.596
293.508
294.47
294.66
294.572
294.179
293.659
293.495
293.569
293.647
293.628
293.607
293.726
293.894
294.01
294.03
293.979
294.03
294.793
295.65
296.678
297.607
298.199
298.54
298.682
298.621
298.365
297.918
297.526
296.9
296.409
296.226
296.212
296.172
296.064
295.928
295.899
303.15
303.15
303.15
303.149
302.999
302.379
300.943
299.297
298.276
297.574
297.351
297.417
297.674
297.889
297.788
297.045
295.752
294.486
293.682
293.328
293.211
293.182
293.591
294.147
294.007
293.904
294.262
294.202
293.916
293.629
293.468
293.455
293.514
293.578
293.68
293.836
294.005
294.149
294.24
294.241
294.171
294.272
294.574
295.123
295.869
296.667
297.438
298.078
298.399
298.351
298.141
297.768
297.096
296.486
296.278
296.36
296.396
296.279
296.096
295.96
303.15
303.15
303.15
303.15
303.1
302.847
302.189
301.341
300.72
300.158
299.885
299.876
299.941
300.048
299.973
299.542
298.716
297.652
296.541
295.629
295.037
294.819
295.092
295.374
295.32
294.473
294.264
294.074
293.863
293.678
293.549
293.493
293.502
293.552
293.626
293.722
293.857
294.018
294.172
294.288
294.34
294.363
294.411
294.554
294.845
295.312
295.98
296.797
297.525
297.846
297.821
297.449
296.826
296.248
296.177
296.52
296.747
296.699
296.51
296.344
303.15
303.15
303.149
303.149
303.137
303.061
302.829
302.483
302.187
301.923
301.803
301.837
301.897
301.899
301.803
301.554
301.123
300.541
299.848
299.176
298.725
298.663
298.748
298.806
298.472
297.171
296.492
296.174
295.983
295.689
295.308
294.911
294.589
294.392
294.311
294.348
294.511
294.725
294.919
295.036
295.056
295.006
294.916
294.829
294.79
294.842
295.064
295.528
296.155
296.573
296.584
296.294
295.879
295.583
295.967
296.852
297.379
297.305
297.027
296.808
303.143
303.135
303.127
303.121
303.117
303.102
303.055
302.97
302.89
302.824
302.796
302.802
302.806
302.794
302.758
302.68
302.546
302.347
302.094
301.851
301.694
301.665
301.623
301.588
301.389
300.499
300.051
299.797
299.64
299.442
299.217
298.964
298.717
298.521
298.396
298.322
298.229
298.08
297.836
297.397
296.681
295.835
295.122
294.642
294.357
294.216
294.204
294.339
294.608
294.811
294.776
294.654
294.551
294.743
296.004
297.745
298.698
298.938
298.912
299.298
303.143
303.135
303.127
303.116
302.922
302.536
301.781
300.408
299.632
298.966
298.5
298.079
297.383
296.453
295.408
294.37
293.6
293.276
293.171
293.136
293.122
293.113
293.107
293.102
293.764
295.774
296.164
296.176
296.178
296.183
296.221
296.247
296.282
296.348
296.466
296.652
296.911
297.231
297.605
297.987
298.31
298.537
298.729
298.915
299.145
299.31
299.398
299.435
299.368
299.163
299.33
299.488
299.61
299.713
299.792
299.862
299.917
299.956
299.981
299.994
303.15
303.15
303.149
303.147
302.04
300.291
297.96
294.503
293.536
293.583
293.682
293.676
293.473
293.252
293.162
293.125
293.12
293.115
293.114
293.114
293.112
293.106
293.107
293.127
293.758
295.28
295.255
294.824
294.634
294.666
294.705
294.695
294.773
295.113
295.734
296.451
297.054
297.623
298.366
299.016
299.298
299.41
299.454
299.478
299.494
299.512
299.538
299.577
299.598
299.622
299.768
299.889
299.934
299.95
299.96
299.991
300
300
300
300
303.15
303.15
303.15
303.143
299.219
293.684
293.798
293.352
293.227
293.218
293.227
293.238
293.236
293.183
293.135
293.126
293.124
293.122
293.121
293.123
293.132
293.157
293.2
293.263
293.688
294.996
294.803
294.366
294.266
294.324
294.365
294.324
294.257
294.182
294.079
293.946
293.972
294.637
296.876
299.01
299.166
299.179
299.184
299.189
299.194
299.197
299.205
299.214
299.224
299.151
298.885
298.267
297.438
297.498
298.219
299.082
299.831
299.977
299.989
299.997
303.15
303.15
303.15
303.146
301.521
296.846
293.621
293.261
293.255
293.305
293.415
293.595
293.536
293.287
293.154
293.129
293.129
293.132
293.141
293.162
293.201
293.263
293.349
293.451
293.631
294.849
294.875
294.311
293.734
293.609
294.19
294.207
294.161
294.103
294.046
293.999
294.028
294.03
294.069
294.6
296.874
298.985
298.993
298.981
298.958
298.929
298.909
298.896
298.839
298.626
298.04
296.75
296.048
295.909
295.848
295.794
296.196
296.582
296.907
298.338
303.15
303.15
303.15
303.147
302.446
299.865
296.336
294.202
293.69
293.464
293.842
294.368
294.288
293.636
293.229
293.134
293.134
293.137
293.142
293.153
293.174
293.216
293.298
293.417
293.553
294.798
294.875
294.603
294.149
293.505
293.697
293.871
293.919
293.831
293.621
293.743
293.871
293.956
294.015
294.016
294.447
296.403
297.528
298.537
298.864
298.826
298.787
298.744
298.645
298.394
297.842
296.764
296.347
296.056
295.957
295.87
295.766
295.683
295.838
296.558
303.15
303.15
303.15
303.148
302.794
301.517
298.997
296.747
295.68
295.349
295.068
295.554
296.075
295.526
294.108
293.282
293.155
293.143
293.143
293.151
293.174
293.229
293.374
293.58
293.507
294.427
294.656
294.562
294.146
293.628
293.476
293.556
293.636
293.617
293.605
293.734
293.906
294.022
294.032
293.968
293.976
294.666
295.518
296.572
297.554
298.169
298.523
298.672
298.614
298.36
297.893
297.398
296.724
296.272
296.156
296.152
296.09
295.965
295.846
295.893
303.15
303.15
303.15
303.149
302.989
302.377
300.994
299.422
298.452
297.681
297.358
297.433
297.734
297.934
297.809
297.05
295.73
294.454
293.659
293.317
293.207
293.179
293.573
294.136
294.028
293.838
294.261
294.183
293.884
293.601
293.451
293.448
293.514
293.584
293.697
293.864
294.037
294.186
294.279
294.268
294.169
294.236
294.52
295.066
295.827
296.634
297.414
298.062
298.384
298.333
298.107
297.624
296.88
296.324
296.242
296.355
296.344
296.184
295.993
295.874
303.15
303.15
303.15
303.15
303.096
302.834
302.185
301.382
300.827
300.265
299.914
299.841
299.952
300.103
300.01
299.556
298.721
297.648
296.522
295.6
295.007
294.782
295.06
295.361
295.346
294.441
294.243
294.045
293.832
293.652
293.532
293.485
293.503
293.561
293.642
293.748
293.9
294.08
294.242
294.356
294.393
294.391
294.414
294.541
294.826
295.291
295.958
296.78
297.503
297.803
297.736
297.28
296.602
296.103
296.235
296.63
296.769
296.647
296.418
296.243
303.15
303.15
303.149
303.149
303.136
303.056
302.817
302.464
302.163
301.911
301.818
301.868
301.924
301.927
301.832
301.585
301.158
300.574
299.864
299.166
298.69
298.621
298.711
298.768
298.482
297.114
296.449
296.152
295.965
295.656
295.259
294.856
294.541
294.359
294.298
294.372
294.577
294.819
295.023
295.123
295.108
295.025
294.909
294.805
294.756
294.803
295.026
295.494
296.116
296.5
296.457
296.118
295.688
295.528
296.224
297.141
297.448
297.255
296.939
296.723
303.143
303.135
303.127
303.121
303.117
303.102
303.052
302.963
302.882
302.823
302.805
302.812
302.814
302.802
302.767
302.693
302.564
302.376
302.127
301.872
301.706
301.681
301.643
301.602
301.39
300.472
300.014
299.776
299.635
299.449
299.234
298.981
298.725
298.52
298.393
298.305
298.178
297.993
297.696
297.165
296.348
295.47
294.814
294.415
294.199
294.106
294.124
294.275
294.544
294.724
294.662
294.537
294.47
294.9
296.62
298.302
298.862
298.957
298.949
299.345
)
;

boundaryField
{
    wall
    {
        type            zeroGradient;
    }
    inlet
    {
        type            fixedValue;
        value           uniform 303.15;
    }
    outlet
    {
        type            inletOutlet;
        inletValue      uniform 300;
        value           nonuniform List<scalar> 
20
(
300
300
300
298.124
296.187
295.879
295.925
296.305
296.778
299.314
300
300
300
300
296.581
295.882
295.844
296.203
296.695
299.362
)
;
    }
    heatWall
    {
        type            fixedGradient;
        gradient        uniform -500;
    }
}


// ************************************************************************* //
