/*--------------------------------*- C++ -*----------------------------------*\
  =========                 |
  \\      /  F ield         | OpenFOAM: The Open Source CFD Toolbox
   \\    /   O peration     | Website:  https://openfoam.org
    \\  /    A nd           | Version:  8
     \\/     M anipulation  |
\*---------------------------------------------------------------------------*/
FoamFile
{
    version     2.0;
    format      ascii;
    class       volScalarField;
    location    "400";
    object      alphat;
}
// * * * * * * * * * * * * * * * * * * * * * * * * * * * * * * * * * * * * * //

dimensions      [1 -1 -1 0 0 0 0];

internalField   nonuniform List<scalar> 
8400
(
0.138196
0.135292
0.132396
0.129507
0.126625
0.123747
0.120873
0.118019
0.115217
0.112477
0.109805
0.107202
0.104674
0.102223
0.0998526
0.0975664
0.0953671
0.0932567
0.0912371
0.0893092
0.0874733
0.0857294
0.084077
0.0825134
0.0810359
0.0796431
0.0783325
0.0771005
0.0759455
0.074866
0.0738592
0.0729221
0.072053
0.0712501
0.0705116
0.0698334
0.0692135
0.0686456
0.0681259
0.0676503
0.0672083
0.0667934
0.0664034
0.0660238
0.065656
0.0652891
0.0649383
0.0646246
0.0657767
0.0668008
0.0635859
0.0632774
0.0629616
0.0626671
0.0624127
0.0622163
0.0620952
0.0620274
0.0619522
0.0618653
0.0617693
0.0616717
0.0615757
0.0614855
0.0614039
0.061333
0.0612741
0.0612278
0.0611941
0.0611743
0.0611694
0.0611788
0.0612026
0.0612409
0.0612934
0.0613609
0.0614436
0.0615413
0.0616554
0.0617864
0.0619341
0.0621002
0.0622854
0.0624907
0.0627164
0.0629625
0.0632292
0.0635137
0.0638135
0.0641277
0.064451
0.0647701
0.0650814
0.065372
0.0656343
0.0658467
0.0660338
0.0661859
0.0659613
0.0658922
0.0604167
0.0603394
0.0602657
0.0601964
0.0601321
0.0600734
0.0600203
0.0599728
0.0599313
0.0598969
0.05987
0.0598513
0.059841
0.0598398
0.0598477
0.0598646
0.0598904
0.0599251
0.0599686
0.0600215
0.0600837
0.0601546
0.0602347
0.0603253
0.0604259
0.0605369
0.06066
0.0607957
0.0609469
0.0611169
0.0613048
0.0615137
0.0617475
0.0620091
0.0622983
0.0626185
0.0629698
0.0633506
0.0637538
0.0641721
0.0646063
0.0650379
0.065448
0.0658327
0.0661497
0.0663929
0.0666278
0.0664751
0.0665109
0.0665211
0.0590229
0.0590157
0.0590118
0.0590117
0.0590159
0.0590244
0.0590371
0.0590546
0.0590774
0.059106
0.0591401
0.0591791
0.0592235
0.0592732
0.0593277
0.0593863
0.0594491
0.0595163
0.0595874
0.0596618
0.0597408
0.0598245
0.0599125
0.0600065
0.0601079
0.060217
0.0603368
0.0604709
0.0606206
0.0607887
0.0609808
0.061201
0.0614554
0.0617469
0.0620776
0.0624529
0.0628691
0.0633305
0.0638284
0.0643382
0.0648655
0.0653872
0.0658607
0.066324
0.0666431
0.0668786
0.0669059
0.0670223
0.0671467
0.0672158
0.0584161
0.0584566
0.0584998
0.058546
0.0585952
0.0586472
0.0587024
0.0587608
0.0588233
0.0588887
0.0589562
0.0590257
0.0590975
0.0591711
0.0592456
0.0593203
0.0593951
0.0594703
0.0595454
0.0596202
0.0596956
0.0597722
0.059849
0.0599289
0.0600154
0.0601091
0.060213
0.0603301
0.0604641
0.0606209
0.0608077
0.0610289
0.0612953
0.0616105
0.0619755
0.0623997
0.0628849
0.0634281
0.0640221
0.0646084
0.0652147
0.0658182
0.0663053
0.0668389
0.067026
0.0672884
0.067546
0.0677409
0.0678639
0.0679437
0.0581922
0.0582661
0.0583422
0.0584202
0.0585006
0.0585827
0.058667
0.0587537
0.0588418
0.05893
0.0590172
0.0591043
0.0591911
0.0592765
0.0593592
0.0594382
0.0595137
0.0595867
0.0596571
0.0597237
0.0597861
0.0598461
0.0599058
0.0599693
0.0600382
0.0601113
0.0601931
0.0602907
0.0604082
0.0605536
0.0607321
0.0609547
0.0612322
0.0615723
0.0619904
0.0624722
0.0630152
0.0636362
0.064351
0.0649872
0.0656764
0.0663521
0.0667556
0.0672449
0.0676924
0.0680607
0.0683515
0.0685524
0.0686693
0.0687303
0.0582333
0.0583295
0.0584282
0.0585291
0.0586321
0.0587368
0.0588423
0.0589477
0.0590516
0.0591513
0.0592475
0.0593422
0.0594343
0.0595193
0.0595968
0.059669
0.0597366
0.0597978
0.0598517
0.0598981
0.0599408
0.0599839
0.0600256
0.0600669
0.0601127
0.0601653
0.0602309
0.0603139
0.0604171
0.0605554
0.0607294
0.0609573
0.0612593
0.0616353
0.0621146
0.062667
0.0632724
0.0639706
0.0648278
0.0654593
0.066172
0.066883
0.0675489
0.0681342
0.0686171
0.0689949
0.0692652
0.0694296
0.0694994
0.0694976
0.0586847
0.058766
0.0588567
0.0589554
0.0590568
0.0591596
0.0592627
0.0593638
0.0594594
0.0595491
0.0596355
0.0597179
0.0597921
0.0598566
0.0599143
0.0599659
0.0600088
0.0600425
0.0600701
0.0600954
0.0601201
0.060145
0.0601675
0.0601856
0.0602082
0.0602472
0.0603064
0.0603773
0.060474
0.0606124
0.0607991
0.0610425
0.0613673
0.0617919
0.0623572
0.0629982
0.0636679
0.0644568
0.0653114
0.0661996
0.0670801
0.0678986
0.0686335
0.0692458
0.0697226
0.0700519
0.0702358
0.0702926
0.0702258
0.0700954
0.0595479
0.0595449
0.0595802
0.059634
0.0596927
0.0597576
0.0598245
0.059891
0.0599519
0.0600118
0.0600704
0.0601171
0.0601528
0.0601854
0.0602148
0.0602351
0.0602459
0.0602522
0.0602624
0.0602786
0.0602892
0.06029
0.060292
0.0603006
0.0603147
0.0603368
0.0603932
0.0604598
0.0605596
0.0607206
0.0609224
0.0611971
0.0615783
0.0620757
0.0626949
0.0634541
0.064332
0.0653043
0.0663308
0.0673671
0.0683627
0.0692445
0.0699938
0.0705579
0.0709306
0.0711036
0.0710863
0.0709157
0.0706257
0.0702565
0.060424
0.0602784
0.0602333
0.0602224
0.0602242
0.0602334
0.060261
0.0602888
0.0603115
0.0603444
0.0603737
0.0603789
0.0603845
0.0603962
0.0604015
0.0604017
0.060403
0.0604056
0.0604118
0.060414
0.0604039
0.0603958
0.0603935
0.0603876
0.0604061
0.0604427
0.0604873
0.0605639
0.0606755
0.0608579
0.0611204
0.0614758
0.061964
0.0626036
0.0634013
0.0643541
0.0654397
0.0666178
0.0678201
0.068983
0.0700395
0.0708956
0.0715381
0.0719094
0.0720245
0.0718754
0.0714862
0.0709036
0.0702592
0.0694416
0.0610418
0.0608152
0.0606797
0.0606211
0.0605719
0.0605385
0.0605635
0.0605693
0.0605429
0.0605421
0.060548
0.0605252
0.0605104
0.0605068
0.0604973
0.0604971
0.0605125
0.0605157
0.0605022
0.060494
0.0604915
0.060489
0.0604961
0.0605104
0.0605284
0.0605671
0.060627
0.0607341
0.0609028
0.0611523
0.0615165
0.0620171
0.0626823
0.0635345
0.0645806
0.0657937
0.0671309
0.0685225
0.0698616
0.0710631
0.0720362
0.0726775
0.073017
0.0729666
0.0725845
0.0718706
0.0708623
0.0695748
0.0684647
0.0663776
0.061158
0.0610774
0.061005
0.0609361
0.0608773
0.0608338
0.0607935
0.0607519
0.0607182
0.0606962
0.0606786
0.0606631
0.060652
0.0606458
0.0606408
0.0606351
0.060631
0.0606243
0.060614
0.0606082
0.0606058
0.0606069
0.0606167
0.0606352
0.0606718
0.0607395
0.0608514
0.0610257
0.0612934
0.0616829
0.0622311
0.0629724
0.0639241
0.06509
0.0664632
0.0679841
0.0695716
0.0711077
0.0724247
0.0734423
0.0740672
0.0741806
0.073898
0.073108
0.0718907
0.0702839
0.0683063
0.0657229
0.0641232
0.0566516
0.0611904
0.0611426
0.0610954
0.0610514
0.0610114
0.0609733
0.0609359
0.0609006
0.0608681
0.060842
0.0608199
0.0608009
0.0607832
0.060766
0.0607515
0.0607394
0.0607292
0.0607215
0.0607148
0.0607098
0.0607101
0.0607225
0.0607526
0.0608033
0.0608897
0.0610287
0.0612441
0.0615685
0.0620399
0.0626978
0.0635772
0.0646892
0.0660436
0.0676126
0.0693545
0.0711347
0.0728206
0.0742567
0.0751898
0.0756193
0.0754366
0.07458
0.0732308
0.0713423
0.0688529
0.0660118
0.0625928
0.0576009
0.0605386
0.0623325
0.0612036
0.0611695
0.0611363
0.0611059
0.0610768
0.061047
0.0610169
0.0609888
0.0609636
0.0609406
0.0609187
0.0608978
0.0608779
0.0608592
0.0608433
0.0608309
0.0608221
0.0608158
0.0608126
0.0608192
0.0608428
0.0608896
0.0609715
0.0611084
0.0613207
0.0616384
0.0620941
0.062726
0.0635814
0.064705
0.06611
0.0677377
0.0695611
0.0714986
0.0734705
0.0752063
0.0765571
0.0773651
0.0772406
0.0764917
0.0747954
0.0725762
0.0695639
0.0664734
0.0622706
0.0587745
0.0611432
0.0625695
0.0627594
0.0628504
0.061212
0.0611872
0.0611634
0.0611388
0.0611143
0.0610909
0.0610682
0.0610456
0.0610232
0.061002
0.0609825
0.0609638
0.0609453
0.0609278
0.0609137
0.060906
0.0609051
0.0609135
0.0609404
0.0609969
0.061098
0.061267
0.0615285
0.0619114
0.0624462
0.0631671
0.064111
0.0653197
0.0668316
0.0686705
0.0707484
0.0728235
0.0749057
0.0768598
0.0785292
0.0793977
0.0795592
0.0788682
0.0766708
0.0742487
0.0698727
0.0667454
0.0611986
0.0590233
0.0614324
0.0629375
0.0634309
0.0632705
0.0632818
0.0634395
0.0612156
0.0611949
0.061175
0.0611544
0.061135
0.0611165
0.0610968
0.0610769
0.0610585
0.0610417
0.0610255
0.0610106
0.0609988
0.0609912
0.0609906
0.061006
0.061052
0.0611392
0.0612936
0.0615486
0.0619403
0.0625093
0.0632934
0.0643212
0.0656085
0.0671598
0.0689722
0.0710476
0.073397
0.0759849
0.0783897
0.0801061
0.0816442
0.0828047
0.0829601
0.081266
0.07916
0.0757326
0.0702238
0.0668735
0.0574032
0.0587863
0.0609803
0.0625782
0.0632946
0.0630335
0.0627788
0.0625529
0.0623565
0.0621704
0.0612208
0.0612051
0.0611892
0.0611736
0.0611587
0.0611432
0.0611267
0.0611108
0.0610968
0.0610851
0.0610768
0.061074
0.0610804
0.0611012
0.0611595
0.0613239
0.0616496
0.0621389
0.0628648
0.0638964
0.0652712
0.0670412
0.0691904
0.0716501
0.0743028
0.0770295
0.0797322
0.0823637
0.0849373
0.0872931
0.0879259
0.0872094
0.0870156
0.0866306
0.0824253
0.0751225
0.0711198
0.0628496
0.0539535
0.0576954
0.0602993
0.0617788
0.0619987
0.0616885
0.0612649
0.0607632
0.0602149
0.0595943
0.0589122
0.058174
0.06122
0.0612037
0.0611881
0.0611743
0.0611627
0.0611539
0.0611499
0.0611531
0.0611666
0.0611952
0.0612456
0.0613263
0.0614478
0.0616226
0.062079
0.0633652
0.0654621
0.0680458
0.0710874
0.0745556
0.0784192
0.0826769
0.0869771
0.090991
0.0943716
0.0969851
0.0988088
0.0998711
0.100251
0.0989121
0.0902678
0.0860623
0.0841944
0.0836766
0.0648533
0.0493
0.0534784
0.0570195
0.0593618
0.0602446
0.0597819
0.0595329
0.0591297
0.0585987
0.0579908
0.0573326
0.0566417
0.0559256
0.0552124
0.0545437
0.0612259
0.0612263
0.0612368
0.0612625
0.061307
0.0613747
0.0614708
0.0616034
0.0617837
0.062023
0.0623335
0.0627285
0.0632191
0.0638031
0.0674549
0.0785614
0.090811
0.101704
0.109601
0.114143
0.118007
0.12179
0.124162
0.125367
0.125198
0.123855
0.121248
0.116757
0.109986
0.0939427
0.0506679
0.0544106
0.055553
0.0585801
0.0615374
0.0631097
0.0627218
0.0630171
0.0637715
0.0644845
0.065174
0.0658917
0.0666895
0.0676015
0.0686566
0.0698809
0.0712846
0.0728774
0.0746308
0.0764709
0.0620396
0.062842
0.0636531
0.0644716
0.0652945
0.0661208
0.0669524
0.0677897
0.068628
0.06946
0.0702741
0.0710472
0.0717121
0.0720874
0.154646
0.436905
0.323616
0.234462
0.205496
0.188457
0.176954
0.168986
0.162309
0.156847
0.151857
0.147313
0.142961
0.138762
0.134611
0.131074
0.131439
0.140621
0.158396
0.170134
0.173918
0.174471
0.177058
0.181726
0.186284
0.190469
0.194925
0.199367
0.20404
0.20904
0.214296
0.219739
0.225288
0.230852
0.236264
0.241287
0.271151
0.267847
0.264672
0.261608
0.258645
0.25577
0.252971
0.250244
0.24759
0.245006
0.242493
0.240049
0.237674
0.235364
0.233118
0.230933
0.228806
0.226735
0.224717
0.222751
0.220833
0.218963
0.217139
0.215359
0.213621
0.211923
0.210262
0.208636
0.207043
0.205481
0.20395
0.202448
0.200975
0.199533
0.198122
0.196744
0.1954
0.19409
0.192816
0.19158
0.190369
0.189182
0.188015
0.186863
0.185722
0.184585
0.183445
0.182291
0.181104
0.179843
0.269232
0.26312
0.257258
0.251621
0.246212
0.241025
0.236061
0.231311
0.226764
0.222412
0.218245
0.214254
0.21043
0.206762
0.203241
0.199858
0.196604
0.19347
0.190449
0.187536
0.184723
0.182006
0.179378
0.176834
0.174368
0.171974
0.169648
0.167384
0.165177
0.163026
0.160927
0.158881
0.156886
0.154943
0.153052
0.151212
0.149423
0.147683
0.145988
0.144334
0.142732
0.141176
0.139662
0.138186
0.136743
0.135329
0.133943
0.132588
0.131263
0.129961
0.269219
0.26308
0.257174
0.2515
0.246052
0.240823
0.235804
0.230987
0.226363
0.221923
0.21766
0.213565
0.209628
0.205841
0.202195
0.198682
0.195294
0.192024
0.188865
0.185811
0.182856
0.179997
0.177226
0.17454
0.171933
0.1694
0.166937
0.164539
0.162203
0.159926
0.157706
0.155543
0.153435
0.151382
0.149383
0.14744
0.145552
0.143719
0.14194
0.140213
0.138535
0.136904
0.135316
0.133769
0.132258
0.13078
0.12933
0.127909
0.126526
0.125205
0.269219
0.26312
0.257265
0.251643
0.246243
0.241055
0.236071
0.231281
0.226679
0.222255
0.218003
0.213913
0.209978
0.20619
0.202539
0.199019
0.195621
0.192339
0.189167
0.1861
0.183131
0.180257
0.177472
0.174771
0.172149
0.169602
0.167124
0.164713
0.162364
0.160074
0.157843
0.155667
0.153547
0.151483
0.149473
0.147519
0.14562
0.143776
0.141984
0.140245
0.138554
0.13691
0.135309
0.133748
0.132225
0.130739
0.129285
0.127855
0.126449
0.125091
0.269217
0.263116
0.257258
0.251628
0.246221
0.241025
0.236034
0.231239
0.226634
0.222208
0.217956
0.213866
0.209932
0.206145
0.202495
0.198976
0.195579
0.192298
0.189127
0.18606
0.183093
0.18022
0.177437
0.174739
0.172121
0.169578
0.167105
0.1647
0.162357
0.160074
0.157848
0.155679
0.153565
0.151506
0.149501
0.147551
0.145656
0.143815
0.142027
0.140289
0.1386
0.136956
0.135354
0.133791
0.132263
0.130772
0.129316
0.127893
0.126491
0.125123
0.269216
0.263115
0.257261
0.251641
0.246246
0.241065
0.236089
0.23131
0.226719
0.222308
0.218067
0.213988
0.210062
0.20628
0.202633
0.199115
0.195718
0.192436
0.189262
0.186192
0.183221
0.180344
0.177558
0.174857
0.172236
0.169692
0.167219
0.164813
0.162471
0.160188
0.157964
0.155795
0.153681
0.151621
0.149616
0.147665
0.145768
0.143925
0.142133
0.140392
0.138698
0.13705
0.135443
0.133874
0.132339
0.130836
0.129368
0.127936
0.12653
0.125155
0.269215
0.263109
0.257255
0.251636
0.246242
0.241063
0.23609
0.231313
0.226724
0.222313
0.218072
0.213992
0.210064
0.20628
0.20263
0.199107
0.195704
0.192416
0.189236
0.18616
0.183184
0.180303
0.177513
0.17481
0.172189
0.169646
0.167175
0.164772
0.162433
0.160155
0.157934
0.155769
0.153659
0.151603
0.149601
0.147653
0.145758
0.143916
0.142126
0.140384
0.138689
0.137038
0.135429
0.133857
0.132321
0.130816
0.129342
0.127902
0.126493
0.125115
0.269213
0.263102
0.257247
0.25163
0.24624
0.241067
0.236101
0.231332
0.226751
0.222348
0.218114
0.21404
0.210116
0.206334
0.202685
0.199162
0.195757
0.192466
0.189283
0.186203
0.183223
0.180339
0.177547
0.174842
0.172221
0.169679
0.167209
0.164809
0.162473
0.160197
0.157979
0.155817
0.153709
0.151655
0.149654
0.147706
0.145812
0.143968
0.142176
0.140431
0.138733
0.137077
0.135461
0.133882
0.132339
0.130828
0.129347
0.127898
0.12648
0.125094
0.269211
0.263095
0.257236
0.25162
0.246234
0.241065
0.236104
0.231341
0.226764
0.222366
0.218135
0.214063
0.210139
0.206355
0.202703
0.199175
0.195765
0.192467
0.189277
0.18619
0.183204
0.180315
0.177519
0.174812
0.17219
0.169648
0.16718
0.164781
0.162448
0.160175
0.157961
0.155802
0.153697
0.151646
0.149647
0.147701
0.145807
0.143963
0.14217
0.140424
0.138723
0.137064
0.135444
0.13386
0.132311
0.130795
0.129309
0.127854
0.12643
0.125039
0.269208
0.263086
0.257225
0.25161
0.246226
0.241063
0.236107
0.231349
0.226779
0.222386
0.21816
0.214091
0.21017
0.206386
0.202733
0.199202
0.195787
0.192484
0.189289
0.186197
0.183207
0.180314
0.177516
0.174808
0.172185
0.169644
0.167178
0.164782
0.162452
0.160182
0.157971
0.155815
0.153713
0.151664
0.149667
0.147722
0.145827
0.143983
0.142188
0.140439
0.138735
0.137072
0.135447
0.133858
0.132302
0.130779
0.129286
0.127824
0.126393
0.124994
0.269206
0.263077
0.257213
0.251598
0.246218
0.241058
0.236108
0.231356
0.226792
0.222404
0.218182
0.214115
0.210195
0.206411
0.202755
0.19922
0.1958
0.192492
0.18929
0.186193
0.183198
0.180301
0.177501
0.174791
0.172169
0.169628
0.167163
0.16477
0.162442
0.160177
0.157969
0.155816
0.153716
0.151669
0.149673
0.147728
0.145834
0.143989
0.142192
0.140441
0.138733
0.137066
0.135437
0.133843
0.132281
0.13075
0.12925
0.127781
0.126344
0.124939
0.269203
0.263067
0.257201
0.251586
0.246208
0.241052
0.236107
0.231361
0.226801
0.222417
0.218199
0.214134
0.210214
0.206428
0.202769
0.199229
0.195804
0.192489
0.189282
0.186179
0.183179
0.180278
0.177475
0.174764
0.172141
0.169601
0.167138
0.164747
0.162422
0.160159
0.157954
0.155804
0.153707
0.151661
0.149667
0.147723
0.145829
0.143983
0.142185
0.140432
0.138722
0.137051
0.135418
0.133818
0.132251
0.130714
0.129208
0.127732
0.126289
0.124878
0.2692
0.263058
0.257188
0.251574
0.246198
0.241046
0.236106
0.231365
0.226811
0.222433
0.218218
0.214157
0.210238
0.206452
0.202792
0.19925
0.195821
0.192502
0.189291
0.186185
0.183181
0.180279
0.177474
0.174763
0.17214
0.169601
0.16714
0.164752
0.16243
0.16017
0.157967
0.155819
0.153723
0.151679
0.149685
0.14774
0.145846
0.143999
0.142199
0.140443
0.138729
0.137054
0.135415
0.133809
0.132235
0.130691
0.129177
0.127694
0.126242
0.124824
0.269197
0.263049
0.257176
0.25156
0.246185
0.241035
0.236097
0.231358
0.226806
0.222429
0.218214
0.214151
0.21023
0.20644
0.202774
0.199225
0.19579
0.192465
0.189247
0.186136
0.183128
0.180222
0.177415
0.174702
0.17208
0.169542
0.167083
0.164696
0.162377
0.160119
0.157919
0.155773
0.153679
0.151636
0.149644
0.147701
0.145807
0.14396
0.14216
0.140403
0.138688
0.13701
0.135368
0.133758
0.13218
0.130631
0.129112
0.127623
0.126167
0.124744
0.269195
0.26304
0.257164
0.251548
0.246175
0.24103
0.236098
0.231367
0.226822
0.222452
0.218243
0.214185
0.210266
0.206477
0.202811
0.199262
0.195824
0.192497
0.189276
0.186162
0.183152
0.180245
0.177436
0.174723
0.1721
0.169563
0.167104
0.164718
0.162399
0.160142
0.157942
0.155796
0.153702
0.151658
0.149665
0.14772
0.145824
0.143975
0.142172
0.140412
0.138692
0.137009
0.135361
0.133745
0.132159
0.130602
0.129075
0.127578
0.126114
0.124682
0.269192
0.26303
0.257145
0.25152
0.246139
0.240985
0.236045
0.231306
0.226753
0.222376
0.21816
0.214095
0.210169
0.206374
0.2027
0.199144
0.195701
0.192369
0.189144
0.186027
0.183016
0.180107
0.177298
0.174586
0.171965
0.16943
0.166974
0.164591
0.162276
0.160021
0.157824
0.155681
0.15359
0.151549
0.149558
0.147616
0.145722
0.143875
0.142073
0.140313
0.138594
0.13691
0.135261
0.133643
0.132054
0.130495
0.128964
0.127465
0.125997
0.124562
0.26919
0.263024
0.25714
0.251523
0.246152
0.241011
0.236084
0.231356
0.226813
0.222443
0.218231
0.214168
0.210242
0.206443
0.202766
0.199205
0.195757
0.192418
0.189187
0.186064
0.183047
0.180133
0.177319
0.174602
0.171977
0.169437
0.166977
0.164591
0.162271
0.160013
0.157812
0.155666
0.153571
0.151527
0.149533
0.147588
0.14569
0.14384
0.142035
0.140272
0.138549
0.136862
0.135208
0.133586
0.131994
0.130432
0.1289
0.1274
0.125934
0.124504
0.269189
0.262975
0.257037
0.251369
0.245954
0.240775
0.235819
0.231068
0.22651
0.222127
0.217909
0.21384
0.209912
0.206114
0.20244
0.198883
0.19544
0.192109
0.188888
0.185775
0.182769
0.179868
0.177068
0.174365
0.171754
0.16923
0.166786
0.164415
0.162112
0.159871
0.157687
0.155558
0.153482
0.151457
0.149482
0.147557
0.14568
0.143852
0.14207
0.140332
0.138635
0.136976
0.135354
0.133765
0.132211
0.130692
0.12921
0.12777
0.126376
0.125037
0.269196
0.263003
0.257106
0.251476
0.246102
0.240971
0.236076
0.2314
0.226926
0.222639
0.218523
0.214566
0.210753
0.207076
0.203526
0.200096
0.196782
0.193581
0.190491
0.18751
0.184638
0.181871
0.179209
0.176646
0.174178
0.171798
0.169501
0.167279
0.165126
0.163035
0.161002
0.159023
0.157096
0.155221
0.153397
0.151624
0.149902
0.148232
0.146611
0.14504
0.143516
0.142035
0.140598
0.139203
0.137852
0.136549
0.135302
0.134123
0.133033
0.132069
0.271137
0.267787
0.264588
0.261524
0.258578
0.255734
0.252973
0.250289
0.247676
0.245129
0.242644
0.240217
0.237846
0.235528
0.233262
0.231048
0.228886
0.226777
0.224722
0.222721
0.220774
0.21888
0.217039
0.215249
0.213505
0.211807
0.210149
0.208529
0.206943
0.20539
0.203867
0.202374
0.200911
0.199476
0.19807
0.196693
0.195344
0.19402
0.192722
0.191446
0.19019
0.188952
0.18773
0.186522
0.185329
0.18415
0.182985
0.181834
0.180697
0.17957
0.133066
0.0604021
0.0646684
0.0802845
0.0983035
0.112573
0.118467
0.114053
0.10197
0.0901008
0.0831501
0.0750046
0.0716729
0.0682262
0.0628325
0.0592032
0.0566133
0.0522867
0.0735515
0.297792
0.13192
0.0601863
0.0650228
0.0809072
0.0990878
0.113362
0.119088
0.114389
0.102072
0.090243
0.0834553
0.0747818
0.0717711
0.0673868
0.0619196
0.0586678
0.0562513
0.0513396
0.0727444
0.300656
0.130821
0.0599566
0.0653867
0.0815344
0.0998702
0.114144
0.119706
0.114739
0.10222
0.0904557
0.0838156
0.0745885
0.0765574
0.0660457
0.0609216
0.0580631
0.0557538
0.0500503
0.0733115
0.303596
0.129677
0.0597708
0.0657583
0.082165
0.100649
0.11492
0.120323
0.115108
0.102422
0.0907346
0.0842172
0.0743856
0.0791679
0.0644203
0.0598881
0.0573761
0.0550634
0.0484603
0.0755047
0.306578
0.128537
0.0596214
0.066137
0.0827973
0.101423
0.115686
0.120939
0.115502
0.102688
0.0910927
0.084678
0.0742539
0.0717628
0.0627889
0.058814
0.0565535
0.0540967
0.0475095
0.079259
0.309583
0.127398
0.0595111
0.0665196
0.0834283
0.102196
0.116447
0.121535
0.115873
0.103
0.0916069
0.08517
0.0742835
0.0601438
0.0609537
0.0576488
0.0555284
0.0527728
0.0477133
0.0845257
0.312598
0.126241
0.0594944
0.0669501
0.0841049
0.102975
0.117155
0.122042
0.116226
0.103425
0.0922814
0.0856715
0.0739856
0.0537965
0.0581245
0.0561967
0.0541789
0.0510619
0.0494151
0.0911933
0.315609
0.125036
0.0596315
0.0673915
0.0847716
0.103731
0.117848
0.122577
0.116643
0.10393
0.0930243
0.0862717
0.0734794
0.0503363
0.0559757
0.0544561
0.0524902
0.0491373
0.0528526
0.0991118
0.318599
0.123852
0.0597688
0.0678206
0.0854189
0.104471
0.118541
0.123142
0.117122
0.104513
0.0938404
0.0869977
0.0733837
0.0418305
0.0532565
0.0523223
0.0504076
0.0483506
0.057829
0.108086
0.321552
0.122689
0.0599043
0.0682338
0.0860423
0.105191
0.119235
0.123739
0.117666
0.105175
0.0947393
0.08794
0.0745732
0.0485061
0.0502535
0.0499315
0.0487294
0.0492392
0.0642191
0.117899
0.324452
0.121549
0.0600362
0.0686273
0.0866372
0.105888
0.119928
0.124372
0.118281
0.105911
0.0956972
0.088986
0.0757651
0.051728
0.0478017
0.0481461
0.0482746
0.0520047
0.071834
0.128318
0.327281
0.120431
0.0601628
0.0689972
0.0871991
0.10656
0.12062
0.125045
0.118975
0.106739
0.0967492
0.0902047
0.0772006
0.0540992
0.046743
0.0476781
0.0495266
0.0565855
0.0804389
0.139099
0.330025
0.119338
0.0602825
0.0693405
0.0877248
0.107202
0.121312
0.125759
0.11975
0.107658
0.0978951
0.0916252
0.0790669
0.0570159
0.0476139
0.048983
0.0526185
0.0627344
0.089773
0.150002
0.332666
0.118272
0.0603947
0.0696537
0.0882106
0.107815
0.122005
0.12652
0.120611
0.108672
0.0991326
0.0932519
0.0814189
0.0607905
0.0505058
0.0521428
0.0573998
0.0701154
0.0995693
0.160805
0.335191
0.117236
0.0604986
0.0699346
0.0886515
0.108394
0.122697
0.127329
0.121565
0.109789
0.10046
0.0950718
0.0842401
0.0654071
0.0551543
0.056947
0.0635579
0.0783665
0.109572
0.171316
0.337587
0.11623
0.060593
0.0701791
0.0890434
0.108933
0.123384
0.128185
0.122615
0.111013
0.101872
0.0970578
0.0874625
0.0706978
0.0611144
0.063029
0.0707168
0.0871395
0.11955
0.181378
0.339841
0.115258
0.0606761
0.0703826
0.0893794
0.109426
0.124062
0.129087
0.123764
0.112349
0.103364
0.099168
0.0909815
0.0764346
0.0679088
0.0699757
0.0785014
0.0961236
0.129305
0.190873
0.341941
0.114318
0.0607455
0.0705401
0.0896524
0.109866
0.124727
0.130034
0.125014
0.113805
0.104928
0.10135
0.094676
0.0823879
0.0751124
0.0773966
0.0865733
0.105058
0.138676
0.199714
0.343878
0.113413
0.060799
0.0706462
0.0898551
0.110246
0.125373
0.131024
0.126367
0.115385
0.106563
0.103553
0.0984232
0.0883488
0.0823853
0.0849598
0.09465
0.113735
0.147539
0.207848
0.345642
0.112542
0.0608348
0.0706966
0.0899805
0.11056
0.125995
0.132054
0.127825
0.117099
0.108271
0.105729
0.102109
0.094143
0.0894756
0.0924038
0.10251
0.121998
0.155806
0.215249
0.347229
0.111707
0.0608517
0.0706868
0.090022
0.1108
0.126585
0.133119
0.129388
0.118954
0.110059
0.107844
0.10564
0.0996335
0.0962022
0.0995348
0.109989
0.129735
0.16342
0.221913
0.348635
0.110912
0.0608492
0.0706126
0.0899716
0.110955
0.127135
0.134213
0.131053
0.120956
0.111944
0.109881
0.108948
0.104727
0.102449
0.106222
0.116977
0.136876
0.170352
0.227855
0.349861
0.11016
0.0608267
0.0704691
0.0898198
0.111015
0.127633
0.135325
0.132816
0.123113
0.113946
0.111841
0.111996
0.109377
0.108159
0.112388
0.123408
0.143388
0.176598
0.233106
0.350907
0.109452
0.0607832
0.0702504
0.0895552
0.110963
0.128062
0.136443
0.134671
0.125432
0.116094
0.113748
0.114776
0.113579
0.113317
0.117999
0.129255
0.149264
0.182175
0.237708
0.351774
0.108792
0.0607175
0.0699497
0.089164
0.110781
0.128403
0.13755
0.13661
0.12792
0.118422
0.115641
0.117302
0.117362
0.117945
0.123058
0.13452
0.15452
0.187113
0.241707
0.352464
0.108183
0.0606286
0.0695603
0.0886307
0.110447
0.128634
0.138628
0.138623
0.130582
0.120962
0.117576
0.119604
0.120763
0.122083
0.127587
0.139227
0.159188
0.191452
0.245154
0.352977
0.107628
0.0605164
0.0690757
0.0879387
0.109936
0.128726
0.139651
0.140694
0.133422
0.123751
0.119618
0.121721
0.123815
0.125778
0.131627
0.143413
0.163311
0.195241
0.2481
0.353315
0.107133
0.0603822
0.0684903
0.0870703
0.109221
0.128646
0.140591
0.142805
0.136439
0.126823
0.121845
0.123705
0.126554
0.129082
0.135224
0.147128
0.166942
0.198532
0.250596
0.353479
0.106703
0.0602288
0.0678002
0.0860068
0.108268
0.128355
0.141406
0.144926
0.139625
0.130209
0.124344
0.125629
0.129024
0.132052
0.138439
0.15043
0.17014
0.201386
0.252698
0.353475
0.106346
0.0600605
0.0670034
0.0847286
0.10704
0.127802
0.142048
0.147018
0.142965
0.133936
0.127213
0.1276
0.131289
0.134761
0.14134
0.153388
0.172974
0.203871
0.254469
0.35331
0.106071
0.059883
0.0661004
0.0832164
0.105492
0.126926
0.14245
0.149026
0.146432
0.138024
0.130552
0.129761
0.133442
0.137296
0.144011
0.156082
0.175525
0.206065
0.255977
0.352989
0.105885
0.059704
0.0650962
0.0814525
0.103577
0.125656
0.14253
0.150878
0.149979
0.142477
0.13446
0.132286
0.135602
0.139765
0.146548
0.158603
0.177882
0.208055
0.2573
0.352518
0.105798
0.0595329
0.0640016
0.0794249
0.101243
0.123906
0.142186
0.152472
0.153533
0.147276
0.13902
0.135374
0.137915
0.142287
0.149061
0.161055
0.180144
0.20994
0.258521
0.351896
0.105815
0.0593814
0.0628359
0.0771319
0.0984422
0.12158
0.141288
0.153673
0.156982
0.152367
0.144287
0.139237
0.140567
0.144982
0.151663
0.163549
0.182423
0.211831
0.259729
0.351119
0.105947
0.0592636
0.0616292
0.0745877
0.0951332
0.118573
0.139682
0.154303
0.160163
0.157639
0.150265
0.144083
0.143802
0.147971
0.154479
0.166207
0.184843
0.213852
0.261012
0.350174
0.1062
0.0591958
0.0604227
0.0718303
0.0912919
0.11478
0.137186
0.154135
0.162842
0.162904
0.156877
0.150081
0.14796
0.15128
0.157662
0.169181
0.187554
0.216143
0.262462
0.349041
0.106582
0.0591941
0.0592679
0.0689286
0.0869259
0.110103
0.133599
0.152887
0.164706
0.167872
0.163927
0.157288
0.153582
0.15535
0.161435
0.172673
0.190742
0.218858
0.26416
0.347695
0.107099
0.0592734
0.0582228
0.065988
0.0820935
0.104478
0.128716
0.150229
0.165347
0.172127
0.171061
0.165493
0.160808
0.161141
0.166126
0.176943
0.19462
0.222145
0.266168
0.346098
0.107753
0.0594448
0.057344
0.0631508
0.0769269
0.0979084
0.122358
0.1458
0.164261
0.175101
0.177754
0.17434
0.169488
0.168171
0.172111
0.182287
0.199396
0.226117
0.268505
0.344204
0.108545
0.0597136
0.0566777
0.0605842
0.0716532
0.0905045
0.114422
0.139248
0.160864
0.17605
0.183231
0.183215
0.179495
0.177148
0.179706
0.188946
0.205211
0.230811
0.27113
0.341948
0.109471
0.0600784
0.0562486
0.0584522
0.0666003
0.0825449
0.104958
0.130306
0.154548
0.174069
0.186408
0.191048
0.190031
0.187754
0.188957
0.196989
0.212066
0.236153
0.273922
0.339243
0.110524
0.0605322
0.056054
0.0568744
0.0621611
0.0745219
0.0942679
0.118919
0.144805
0.168179
0.185924
0.196312
0.199775
0.199288
0.199554
0.206216
0.219768
0.241934
0.276678
0.335974
0.111694
0.0610638
0.0560641
0.0558868
0.0586961
0.0671379
0.0830202
0.105417
0.131432
0.157529
0.180267
0.196979
0.206582
0.21035
0.21202
0.216131
0.227915
0.2478
0.279105
0.331987
0.112967
0.0616604
0.0562304
0.0554297
0.0563965
0.0611656
0.0723042
0.0907076
0.114828
0.141761
0.168167
0.19085
0.207426
0.217183
0.221931
0.225928
0.235887
0.253256
0.280821
0.327073
0.114329
0.06231
0.0564995
0.0553729
0.0551972
0.0571342
0.0634769
0.0764194
0.0963013
0.121446
0.149134
0.176253
0.19976
0.217328
0.228289
0.234696
0.242852
0.257658
0.281348
0.320939
0.115761
0.0630028
0.0568258
0.0555655
0.0548229
0.055029
0.0575946
0.0647206
0.0783172
0.0986043
0.124108
0.152443
0.180763
0.206093
0.225893
0.239098
0.247678
0.260161
0.280062
0.313167
0.117246
0.0637307
0.057178
0.0558828
0.0549346
0.054334
0.0546957
0.0573257
0.0641934
0.0771032
0.0965243
0.121478
0.1501
0.179948
0.208143
0.231689
0.248415
0.259562
0.276078
0.303113
0.118764
0.0644868
0.0575391
0.0562464
0.0552654
0.0544001
0.0538416
0.0541049
0.0562093
0.0617644
0.0724979
0.0893683
0.112185
0.139896
0.170805
0.202522
0.231865
0.255189
0.267973
0.28966
0.120296
0.0652646
0.057902
0.0566191
0.0556658
0.0547628
0.0539451
0.0533771
0.0533974
0.0546713
0.0582803
0.0656105
0.0779318
0.0959664
0.119824
0.149118
0.182908
0.219377
0.255716
0.270411
0.121822
0.0660574
0.0582643
0.0569879
0.0560752
0.0552016
0.0543517
0.053589
0.0530182
0.0528575
0.0534875
0.055486
0.0595933
0.0666074
0.0772942
0.0924277
0.11295
0.140126
0.175888
0.228648
0.123327
0.0668585
0.0586255
0.0573496
0.0564758
0.055644
0.0548165
0.0540312
0.0533265
0.0527938
0.052602
0.0530301
0.0544604
0.0573044
0.0618536
0.0681286
0.0758459
0.0844892
0.093525
0.103111
0.124794
0.0676611
0.0589858
0.0577042
0.0568638
0.0560724
0.0552763
0.0545073
0.0537784
0.0531327
0.0526529
0.0525021
0.0529569
0.0544237
0.0573938
0.0623031
0.0693843
0.0786084
0.0898831
0.104347
0.126214
0.0684592
0.0593459
0.0580523
0.0572391
0.0564832
0.0557166
0.0549722
0.0542512
0.053577
0.0529865
0.0525661
0.0524892
0.0530708
0.0548193
0.0584208
0.0646352
0.0741419
0.0875929
0.107368
0.127577
0.0692474
0.0597062
0.0583953
0.057603
0.0568774
0.0561355
0.0554153
0.0547107
0.0540385
0.0534141
0.0528805
0.0525369
0.0525969
0.0534863
0.0559431
0.0610881
0.0703232
0.0852213
0.109473
0.128878
0.0700202
0.0600673
0.0587346
0.0579579
0.0572578
0.056536
0.0558371
0.0551497
0.0544889
0.0538606
0.053285
0.0528173
0.0525891
0.0529246
0.05449
0.0585724
0.067181
0.0829454
0.111038
0.130112
0.0707725
0.060429
0.0590718
0.0583063
0.0576286
0.0569232
0.0562428
0.0555708
0.0549233
0.0543013
0.0537134
0.0531914
0.0528092
0.0528043
0.0537208
0.0568635
0.0646602
0.0808537
0.112257
0.131277
0.0714996
0.0607907
0.0594079
0.0586505
0.0579929
0.0573016
0.0566375
0.0559793
0.0553436
0.0547302
0.0541406
0.0535967