/*--------------------------------*- C++ -*----------------------------------*\
  =========                 |
  \\      /  F ield         | OpenFOAM: The Open Source CFD Toolbox
   \\    /   O peration     | Website:  https://openfoam.org
    \\  /    A nd           | Version:  8
     \\/     M anipulation  |
\*---------------------------------------------------------------------------*/
FoamFile
{
    version     2.0;
    format      ascii;
    class       volScalarField;
    location    "400";
    object      epsilon;
}
// * * * * * * * * * * * * * * * * * * * * * * * * * * * * * * * * * * * * * //

dimensions      [0 2 -3 0 0 0 0];

internalField   nonuniform List<scalar> 
8400
(
0.185847
0.175516
0.165623
0.156153
0.147092
0.138424
0.130137
0.122215
0.114646
0.107438
0.100598
0.0941328
0.0880405
0.0823168
0.0769539
0.0719418
0.0672687
0.0629214
0.0588856
0.0551465
0.0516886
0.0484964
0.0455544
0.042847
0.0403589
0.0380749
0.0359804
0.0340612
0.0323041
0.0306967
0.0292275
0.027886
0.0266623
0.0255471
0.0245323
0.0236097
0.0227723
0.0220137
0.0213263
0.0207041
0.0201421
0.0196325
0.0191672
0.0187424
0.0183501
0.017987
0.0176461
0.0173326
0.0170424
0.0169907
0.016524
0.0163264
0.0161062
0.0158766
0.0156452
0.0154189
0.0152048
0.0150098
0.0148417
0.0146964
0.0145687
0.0144535
0.014348
0.0142501
0.0141587
0.0140735
0.0139945
0.0139218
0.0138557
0.0137964
0.0137443
0.0136998
0.0136632
0.0136349
0.0136152
0.0136042
0.0136024
0.0136101
0.0136275
0.0136552
0.0136936
0.0137433
0.0138049
0.0138788
0.0139658
0.0140667
0.0141817
0.0143118
0.0144576
0.0146178
0.0147919
0.0149805
0.0151796
0.0153886
0.0156025
0.01582
0.0160323
0.0162414
0.0164257
0.0165623
0.0132646
0.0132093
0.0131539
0.0130989
0.0130446
0.0129915
0.01294
0.0128905
0.0128434
0.0127988
0.0127572
0.0127187
0.0126835
0.012652
0.0126246
0.0126015
0.012583
0.0125694
0.0125608
0.0125574
0.0125594
0.0125668
0.01258
0.0125991
0.0126245
0.0126564
0.0126953
0.0127414
0.0127954
0.012858
0.01293
0.0130128
0.0131072
0.0132147
0.0133369
0.0134752
0.0136314
0.0138057
0.0140002
0.014216
0.0144511
0.0147061
0.014977
0.015259
0.0155466
0.0158311
0.0161096
0.0163881
0.0165872
0.0167768
0.012037
0.0120217
0.0120072
0.0119936
0.0119812
0.0119702
0.0119609
0.0119532
0.0119475
0.0119441
0.0119429
0.0119444
0.0119486
0.0119556
0.0119655
0.0119785
0.0119947
0.012014
0.0120364
0.0120619
0.0120905
0.0121222
0.0121572
0.0121958
0.0122382
0.0122847
0.0123357
0.0123919
0.0124542
0.012524
0.0126024
0.012691
0.0127918
0.0129072
0.0130398
0.0131918
0.0133665
0.0135653
0.0137898
0.0140418
0.0143184
0.0146204
0.0149458
0.01528
0.0156248
0.0159543
0.0162801
0.0165578
0.0168026
0.0170367
0.0114233
0.011436
0.0114496
0.0114642
0.01148
0.0114971
0.0115155
0.0115353
0.0115567
0.0115798
0.0116047
0.0116315
0.0116601
0.0116904
0.0117225
0.0117564
0.0117918
0.0118286
0.0118667
0.011906
0.0119464
0.0119881
0.0120312
0.0120755
0.0121213
0.012169
0.0122195
0.012274
0.0123335
0.0123993
0.0124734
0.0125578
0.0126557
0.0127707
0.0129065
0.0130659
0.0132525
0.0134699
0.0137204
0.0140056
0.0143207
0.0146636
0.0150366
0.0154067
0.0158004
0.0161547
0.0164903
0.0168132
0.017121
0.0174023
0.0111172
0.0111498
0.0111833
0.0112178
0.0112533
0.0112899
0.0113276
0.0113663
0.0114063
0.0114477
0.0114903
0.011534
0.0115785
0.0116238
0.0116698
0.0117164
0.0117631
0.0118095
0.0118556
0.0119014
0.0119471
0.0119922
0.0120364
0.01208
0.0121234
0.0121676
0.0122135
0.0122621
0.0123149
0.0123733
0.0124403
0.0125189
0.0126125
0.012725
0.0128617
0.0130291
0.0132304
0.0134678
0.0137462
0.0140682
0.0144194
0.0148008
0.0152247
0.0156242
0.0160292
0.016436
0.0168307
0.0172086
0.0175602
0.0178765
0.0109674
0.011015
0.011064
0.0111142
0.0111656
0.0112179
0.0112712
0.0113256
0.0113809
0.0114371
0.0114935
0.0115498
0.0116059
0.0116618
0.0117173
0.0117717
0.0118246
0.0118759
0.0119256
0.0119736
0.0120194
0.0120626
0.0121035
0.0121432
0.0121823
0.0122212
0.0122605
0.0123012
0.0123456
0.0123966
0.0124571
0.0125305
0.0126203
0.012733
0.0128758
0.0130563
0.0132787
0.0135407
0.0138505
0.0142188
0.0146074
0.0150256
0.0154726
0.0159397
0.0164159
0.0168868
0.0173399
0.0177607
0.0181414
0.0184734
0.0110416
0.0110846
0.0111331
0.0111856
0.0112415
0.0113
0.0113605
0.0114226
0.0114857
0.0115488
0.0116111
0.0116721
0.0117321
0.0117909
0.011848
0.0119026
0.0119548
0.0120042
0.0120507
0.0120934
0.0121323
0.0121687
0.0122034
0.0122368
0.0122687
0.0122992
0.01233
0.0123637
0.0124011
0.0124451
0.0124997
0.0125719
0.0126652
0.0127837
0.0129381
0.0131379
0.0133897
0.013684
0.0140323
0.0144348
0.0148888
0.0153855
0.0159142
0.0164609
0.0170091
0.0175394
0.018036
0.0184782
0.0188598
0.019168
0.0115517
0.011534
0.011542
0.0115624
0.0115917
0.0116279
0.0116701
0.0117164
0.0117655
0.0118154
0.0118651
0.0119143
0.0119627
0.0120095
0.012054
0.0120963
0.0121367
0.0121739
0.0122068
0.0122362
0.0122639
0.0122912
0.0123172
0.0123399
0.0123608
0.0123839
0.0124085
0.0124358
0.0124669
0.0125071
0.0125627
0.0126379
0.0127373
0.0128701
0.0130474
0.0132748
0.0135628
0.0139181
0.0143435
0.0148343
0.0153836
0.0159794
0.0166022
0.0172326
0.0178456
0.0184162
0.0189228
0.0193407
0.0196625
0.0198825
0.0123806
0.0122524
0.0122022
0.0121712
0.0121522
0.0121429
0.0121421
0.0121489
0.0121628
0.0121814
0.0122018
0.0122248
0.0122487
0.0122712
0.0122921
0.0123123
0.0123312
0.0123474
0.0123617
0.0123773
0.0123947
0.0124108
0.0124254
0.0124388
0.0124513
0.0124657
0.0124842
0.0125081
0.0125396
0.0125802
0.0126391
0.0127261
0.0128467
0.0130114
0.0132334
0.0135245
0.0138933
0.0143455
0.014882
0.0154943
0.0161665
0.0168793
0.0176015
0.0183031
0.0189485
0.0195052
0.0199487
0.0202548
0.0204108
0.0204373
0.0130074
0.0128271
0.0127314
0.0126722
0.0126258
0.0125877
0.0125529
0.0125257
0.0125116
0.0125069
0.012501
0.0124965
0.0124949
0.0124948
0.0124944
0.0124928
0.0124908
0.0124906
0.0124934
0.0124985
0.0125051
0.0125118
0.012518
0.0125248
0.0125346
0.012549
0.0125683
0.0125919
0.0126266
0.0126799
0.0127588
0.0128739
0.0130383
0.0132659
0.0135699
0.0139648
0.0144601
0.0150572
0.0157499
0.0165202
0.017339
0.0181698
0.0189634
0.0196805
0.020272
0.0207012
0.0209413
0.020982
0.0207828
0.0204885
0.0131183
0.0130621
0.0130109
0.0129635
0.0129182
0.0128753
0.0128357
0.0128009
0.0127709
0.0127441
0.0127201
0.0126993
0.0126819
0.0126674
0.0126549
0.0126439
0.0126353
0.0126295
0.0126258
0.0126235
0.0126225
0.0126229
0.0126246
0.0126283
0.012636
0.012648
0.0126669
0.0126992
0.012751
0.0128312
0.0129519
0.0131272
0.013375
0.0137135
0.0141571
0.0147195
0.0154058
0.0162083
0.0171073
0.0180598
0.0190127
0.0199091
0.0206732
0.0212626
0.0216151
0.0217065
0.0214985
0.021053
0.0201245
0.0194281
0.0131411
0.01311
0.0130797
0.01305
0.0130209
0.0129926
0.0129654
0.0129394
0.0129147
0.0128909
0.0128681
0.0128469
0.0128279
0.0128108
0.0127954
0.0127817
0.0127694
0.0127584
0.0127489
0.0127418
0.012736
0.0127312
0.0127289
0.0127311
0.0127395
0.0127586
0.0127928
0.0128502
0.0129416
0.0130818
0.0132902
0.0135876
0.0139924
0.0145238
0.0151949
0.0160153
0.0169746
0.0180393
0.0191625
0.0202574
0.0212346
0.0220163
0.0225049
0.0226723
0.0224543
0.0218908
0.0208547
0.019704
0.0172722
0.016115
0.0131498
0.0131284
0.0131073
0.0130864
0.0130656
0.013045
0.0130252
0.0130058
0.0129866
0.0129678
0.0129495
0.0129321
0.0129158
0.0129007
0.0128866
0.0128732
0.0128605
0.0128488
0.0128385
0.0128295
0.0128228
0.0128203
0.0128232
0.0128347
0.01286
0.0129062
0.0129844
0.0131092
0.0132988
0.0135757
0.0139665
0.0144977
0.0151837
0.0160386
0.0170605
0.0182413
0.0195297
0.0208403
0.0220865
0.0230986
0.0237678
0.0240018
0.0237519
0.0230254
0.0217821
0.0202706
0.0180339
0.0168871
0.0163043
0.0158484
0.0131555
0.0131398
0.013124
0.0131082
0.0130922
0.0130763
0.0130606
0.0130451
0.0130298
0.0130145
0.0129996
0.0129851
0.0129713
0.0129583
0.0129457
0.0129334
0.0129218
0.0129118
0.0129038
0.0128994
0.012901
0.0129114
0.0129366
0.0129844
0.013067
0.0131998
0.0134023
0.0136975
0.0141135
0.0146822
0.0154398
0.0164067
0.0175627
0.0189031
0.0203889
0.021966
0.0234718
0.0247393
0.0256673
0.0259458
0.0256183
0.0245047
0.0229574
0.0208674
0.018484
0.017256
0.0166368
0.0162544
0.0158979
0.0156007
0.0131575
0.0131441
0.0131306
0.0131172
0.0131037
0.0130905
0.0130776
0.013065
0.0130527
0.0130404
0.0130283
0.0130165
0.0130053
0.0129946
0.0129845
0.0129755
0.0129686
0.012966
0.0129709
0.0129875
0.0130239
0.0130906
0.0132025
0.0133789
0.013644
0.0140247
0.0145518
0.0152572
0.0161744
0.0173396
0.0187965
0.0204971
0.0222976
0.02417
0.0260129
0.0276563
0.0286396
0.0288848
0.0283896
0.0265788
0.0244682
0.0210226
0.0186044
0.0172488
0.0165268
0.0161388
0.0157757
0.0154253
0.015094
0.0147828
0.0131609
0.0131509
0.0131408
0.0131305
0.0131202
0.0131098
0.0130996
0.0130895
0.0130794
0.0130694
0.0130597
0.0130505
0.0130423
0.0130357
0.0130318
0.0130322
0.0130429
0.0130771
0.0131491
0.0132711
0.0134696
0.0137677
0.014202
0.0148094
0.0156314
0.0167026
0.0180527
0.0197019
0.021662
0.0239364
0.0265574
0.0290348
0.031039
0.0327151
0.0339937
0.0342182
0.0321863
0.0295196
0.0259789
0.0205662
0.0179394
0.0166569
0.0159444
0.0154578
0.0150294
0.0146192
0.0142049
0.0137818
0.01334
0.012875
0.0131601
0.0131495
0.0131392
0.0131291
0.0131193
0.0131103
0.0131024
0.0130958
0.0130908
0.013088
0.0130886
0.0130939
0.0131061
0.0131284
0.0131648
0.0132204
0.0133516
0.013639
0.0141312
0.0148352
0.0158091
0.017064
0.0186834
0.0207038
0.0231664
0.0260551
0.0293192
0.0328666
0.036566
0.0402097
0.0438333
0.0438268
0.0426624
0.041028
0.039459
0.0341279
0.023878
0.0191102
0.0168212
0.0156567
0.0149634
0.0143408
0.0138342
0.013389
0.012962
0.0125376
0.0121096
0.0116756
0.0112357
0.0107964
0.0131643
0.0131622
0.0131636
0.0131694
0.0131807
0.0131986
0.0132243
0.0132593
0.0133058
0.0133664
0.0134449
0.013546
0.0136756
0.0138408
0.0140488
0.0143052
0.0153249
0.0174602
0.0206396
0.0247399
0.0295866
0.0348194
0.0407331
0.0470299
0.0535817
0.0600286
0.0660208
0.0711277
0.0747424
0.0755498
0.0752455
0.0449358
0.0334553
0.0259123
0.0217245
0.0194945
0.0183007
0.0173202
0.0166091
0.0161906
0.01598
0.0159239
0.0159929
0.0161736
0.016469
0.0168879
0.0174457
0.0181635
0.019067
0.0201755
0.0136828
0.0142223
0.0147805
0.015358
0.0159558
0.0165748
0.0172158
0.0178795
0.0185663
0.0192763
0.0200092
0.0207632
0.0215338
0.0223109
0.0230677
0.0237417
0.0498364
0.0948552
0.131442
0.162267
0.186124
0.201786
0.211361
0.214798
0.21393
0.209465
0.202604
0.194011
0.184361
0.174081
0.163485
0.154903
0.153672
0.163431
0.179363
0.196137
0.210626
0.224269
0.239539
0.256198
0.273634
0.292435
0.312559
0.334326
0.358329
0.385062
0.414839
0.44786
0.484195
0.523478
1.14672
1.10487
1.06574
1.02905
0.994532
0.961895
0.930882
0.901374
0.873271
0.846484
0.820936
0.796554
0.77327
0.751022
0.729752
0.709404
0.689928
0.671277
0.653408
0.636282
0.61986
0.604109
0.588996
0.574489
0.560561
0.547182
0.534326
0.521968
0.510082
0.498645
0.487635
0.477031
0.466815
0.456969
0.447477
0.438326
0.429503
0.420997
0.412798
0.404859
0.397158
0.389679
0.382405
0.375316
0.368389
0.361592
0.354883
0.3482
0.341438
0.33441
1.12226
1.04692
0.978181
0.915261
0.85766
0.804895
0.756557
0.712188
0.671384
0.63379
0.59909
0.567004
0.537284
0.509712
0.48409
0.460247
0.438025
0.417288
0.39791
0.379781
0.3628
0.346877
0.331929
0.31788
0.304661
0.29221
0.280467
0.269381
0.258901
0.248983
0.239586
0.230673
0.22221
0.214168
0.206514
0.199224
0.192273
0.185638
0.179296
0.173255
0.167501
0.162017
0.156786
0.151793
0.147022
0.142458
0.138084
0.133873
0.1298
0.125845
1.12216
1.04658
0.977393
0.914104
0.856133
0.802964
0.754124
0.709183
0.66776
0.629515
0.594146
0.561387
0.530998
0.502766
0.476503
0.452039
0.429222
0.407915
0.387997
0.369357
0.351895
0.33552
0.320151
0.305711
0.292131
0.279348
0.267303
0.255943
0.245218
0.235084
0.225499
0.216426
0.20783
0.199682
0.191954
0.184621
0.17766
0.171047
0.164765
0.158792
0.153113
0.14771
0.142567
0.137669
0.133004
0.128562
0.124334
0.120312
0.116472
0.112767
1.12216
1.04711
0.978515
0.915741
0.85819
0.805331
0.756698
0.71188
0.670511
0.632268
0.596861
0.564033
0.533554
0.505218
0.47884
0.454254
0.431311
0.409877
0.389832
0.371067
0.353482
0.336987
0.321502
0.30695
0.293262
0.280376
0.268233
0.256779
0.245966
0.235748
0.226085
0.216939
0.208276
0.200065
0.192278
0.18489
0.177876
0.171214
0.164885
0.158869
0.153148
0.147706
0.142527
0.137595
0.132894
0.128409
0.124133
0.120064
0.116198
0.112493
1.12216
1.04712
0.9785
0.915653
0.85801
0.80506
0.756347
0.711466
0.670055
0.631787
0.596372
0.563549
0.533086
0.504774
0.478424
0.453871
0.430963
0.409565
0.389556
0.370825
0.353274
0.336812
0.321357
0.306833
0.293172
0.28031
0.268189
0.256756
0.245962
0.235761
0.226114
0.216982
0.208332
0.200134
0.192358
0.184979
0.177973
0.171319
0.164996
0.158986
0.153269
0.147829
0.142651
0.137722
0.133025
0.128546
0.124268
0.120182
0.116293
0.112578
1.12216
1.04716
0.978618
0.915869
0.858331
0.805487
0.756873
0.71208
0.670742
0.632534
0.597164
0.564374
0.533932
0.505631
0.479285
0.454727
0.431809
0.410397
0.390369
0.371617
0.354042
0.337554
0.322073
0.307521
0.293833
0.280943
0.268794
0.257334
0.246513
0.236286
0.226614
0.217458
0.208785
0.200563
0.192766
0.185366
0.17834
0.171667
0.165324
0.159295
0.153559
0.1481
0.142901
0.137949
0.13323
0.128733
0.12444
0.120336
0.116419
0.112677
1.12216
1.04717
0.978641
0.9159
0.858361
0.805504
0.756871
0.712054
0.670689
0.632455
0.597061
0.56425
0.533791
0.505475
0.479118
0.454553
0.43163
0.410215
0.390187
0.371436
0.353864
0.337379
0.321902
0.307355
0.293671
0.280787
0.268644
0.25719
0.246375
0.236154
0.226488
0.217339
0.208672
0.200457
0.192666
0.185273
0.178253
0.171585
0.165248
0.159222
0.153491
0.148035
0.142839
0.137887
0.133165
0.128663
0.124367
0.120262
0.116339
0.112589
1.12216
1.04718
0.978657
0.915932
0.858411
0.805576
0.756965
0.71217
0.670829
0.632617
0.597244
0.564453
0.534011
0.50571
0.479366
0.454811
0.431895
0.410485
0.390459
0.371709
0.354135
0.337647
0.322164
0.307611
0.29392
0.281028
0.268876
0.257412
0.246587
0.236357
0.226681
0.217522
0.208846
0.200622
0.192822
0.18542
0.178391
0.171713
0.165367
0.159331
0.153588
0.148122
0.142915
0.137952
0.133217
0.128699
0.124387
0.120267
0.116328
0.11256
1.12216
1.04718
0.978662
0.915942
0.858426
0.805592
0.756981
0.712185
0.67084
0.632622
0.597243
0.564445
0.533996
0.505688
0.479337
0.454776
0.431854
0.410438
0.390407
0.371652
0.354073
0.337582
0.322095
0.307539
0.293845
0.28095
0.268796
0.25733
0.246505
0.236274
0.226598
0.217439
0.208764
0.200541
0.192742
0.185341
0.178314
0.171637
0.165291
0.159256
0.153512
0.148044
0.142834
0.137868
0.133131
0.128608
0.124289
0.120162
0.116215
0.112439
1.12216
1.04718
0.978664
0.915946
0.858433
0.805602
0.756994
0.712202
0.670861
0.632648
0.597274
0.564481
0.534037
0.505735
0.479389
0.454831
0.431914
0.4105
0.390471
0.371717
0.354138
0.337646
0.322157
0.307599
0.293902
0.281004
0.268846
0.257377
0.246548
0.236314
0.226634
0.217472
0.208794
0.200567
0.192765
0.185361
0.17833
0.17165
0.1653
0.15926
0.153511
0.148036
0.142819
0.137845
0.133098
0.128566
0.124236
0.120097
0.116139
0.11235
1.12216
1.04718
0.978662
0.915944
0.85843
0.805599
0.756991
0.712198
0.670857
0.632645
0.597272
0.56448
0.534038
0.505737
0.479391
0.454835
0.431917
0.410504
0.390475
0.371719
0.354139
0.337645
0.322154
0.307593
0.293893
0.280992
0.268832
0.25736
0.246528
0.236292
0.22661
0.217446
0.208766
0.200539
0.192735
0.185329
0.178296
0.171614
0.165261
0.159218
0.153465
0.147986
0.142763
0.137782
0.133028
0.128488
0.124149
0.120001
0.116032
0.112232
1.12216
1.04717
0.978658
0.915936
0.858418
0.805583
0.756971
0.712175
0.67083
0.632614
0.597238
0.564443
0.533997
0.505693
0.479345
0.454786
0.431866
0.410451
0.390419
0.371661
0.354078
0.337581
0.322088
0.307525
0.293823
0.28092
0.268758
0.257285
0.246452
0.236215
0.226533
0.217369
0.20869
0.200463
0.19266
0.185254
0.178222
0.17154
0.165187
0.159142
0.153388
0.147906
0.14268
0.137694
0.132935
0.128388
0.124043
0.119887
0.11591
0.112101
1.12216
1.04717
0.978651
0.915922
0.858399
0.80556
0.756948
0.712153
0.670813
0.632604
0.597236
0.564449
0.534013
0.505718
0.479379
0.454828
0.431914
0.410504
0.390476
0.371721
0.35414
0.337644
0.32215
0.307585
0.293881
0.280975
0.26881
0.257333
0.246496
0.236255
0.226569
0.217401
0.208718
0.200486
0.192679
0.18527
0.178233
0.171545
0.165186
0.159136
0.153374
0.147884
0.142649
0.137654
0.132884
0.128327
0.12397
0.119802
0.115812
0.11199
1.12216
1.04717
0.978632
0.915886
0.858343
0.805483
0.756848
0.712031
0.670669
0.632438
0.59705
0.564247
0.533795
0.505487
0.479137
0.454577
0.431658
0.410243
0.390212
0.371455
0.353874
0.337378
0.321886
0.307324
0.293623
0.280721
0.26856
0.257089
0.246258
0.236023
0.226343
0.217182
0.208505
0.20028
0.19248
0.185077
0.178046
0.171364
0.16501
0.158963
0.153205
0.147717
0.142483
0.137488
0.132718
0.128159
0.1238
0.119628
0.115634
0.111808
1.12216
1.04716
0.978607
0.915852
0.858309
0.805461
0.756845
0.712052
0.670716
0.632513
0.59715
0.564369
0.533937
0.505645
0.479307
0.454756
0.431842
0.410429
0.390398
0.371638
0.354052
0.337549
0.322049
0.307478
0.293767
0.280855
0.268684
0.257202
0.24636
0.236114
0.226425
0.217253
0.208567
0.200333
0.192523
0.185111
0.17807
0.171379
0.165015
0.158958
0.153189
0.14769
0.142445
0.137438
0.132655
0.128083
0.12371
0.119524
0.115516
0.111674
1.12216
1.04712
0.978487
0.915633
0.857984
0.805029
0.756314
0.711434
0.670026
0.631764
0.596358
0.563546
0.533094
0.504793
0.478454
0.453908
0.431004
0.409607
0.389593
0.370854
0.35329
0.336812
0.321336
0.30679
0.293104
0.280216
0.268069
0.256611
0.245793
0.23557
0.225903
0.216753
0.208088
0.199874
0.192083
0.184689
0.177666
0.170991
0.164641
0.158598
0.152841
0.147352
0.142117
0.137118
0.132342
0.127776
0.123408
0.119226
0.115221
0.111382
1.12216
1.0471
0.978501
0.91572
0.858162
0.805298
0.756663
0.711846
0.670481
0.632244
0.596847
0.564031
0.533565
0.50524
0.478872
0.454293
0.431354
0.40992
0.389869
0.371093
0.353493
0.336979
0.32147
0.306892
0.293176
0.28026
0.268088
0.256605
0.245765
0.235523
0.225837
0.216671
0.207991
0.199764
0.191962
0.184557
0.177525
0.170842
0.164485
0.158435
0.152673
0.14718
0.141941
0.136941
0.132165
0.1276
0.123236
0.119062
0.115069
0.111247
1.12215
1.04657
0.977378
0.914082
0.856104
0.80293
0.754088
0.709148
0.66773
0.629492
0.594134
0.561387
0.53101
0.502791
0.476538
0.452082
0.429268
0.40796
0.388037
0.369386
0.351909
0.335516
0.320124
0.30566
0.292054
0.279245
0.267175
0.255791
0.245047
0.234897
0.225301
0.216222
0.207626
0.199482
0.19176
0.184435
0.177481
0.170876
0.164598
0.158628
0.152948
0.14754
0.142391
0.137486
0.132813
0.128363
0.124128
0.120103
0.116287
0.112686
1.12226
1.04692
0.978172
0.915248
0.857644
0.804878
0.756542
0.712176
0.67138
0.633795
0.599106
0.567034
0.537329
0.509771
0.484163
0.460332
0.43812
0.417389
0.398015
0.379887
0.362904
0.346976
0.332023
0.317971
0.304752
0.292304
0.280573
0.269506
0.259058
0.249184
0.239848
0.231013
0.222647
0.214722
0.20721
0.200087
0.193331
0.186922
0.180841
0.175072
0.169599
0.164411
0.159496
0.154847
0.150459
0.146331
0.142471
0.138896
0.135647
0.132815
1.14671
1.10486
1.06572
1.02904
0.994526
0.961895
0.930889
0.901389
0.873294
0.846516
0.820975
0.796598
0.773315
0.751065
0.729788
0.70943
0.689941
0.671275
0.653388
0.63624
0.619794
0.604015
0.588869
0.574324
0.560352
0.546923
0.53401
0.521589
0.509635
0.498125
0.487038
0.476353
0.466051
0.456114
0.446523
0.437261
0.428312
0.41966
0.411288
0.403183
0.395328
0.38771
0.380315
0.373129
0.366138
0.359328
0.352684
0.346189
0.339825
0.333564
0.131687
0.0115539
0.0141864
0.0268321
0.0502548
0.0779247
0.0933199
0.0837168
0.0571701
0.0359921
0.0283926
0.0222376
0.0168025
0.0124642
0.0108263
0.0104111
0.0103216
0.0102439
0.0404555
1.58523
0.128467
0.0115001
0.014377
0.0273235
0.0512002
0.0792275
0.0945369
0.0844368
0.0575041
0.0363693
0.0289252
0.0224553
0.0156509
0.011791
0.0104814
0.010244
0.0103374
0.0109274
0.0473803
1.63017
0.125248
0.0114727
0.0145733
0.0278207
0.0521459
0.0805191
0.0957468
0.0851951
0.0579404
0.0368627
0.0295257
0.0227222
0.0144447
0.0111343
0.0101619
0.0101042
0.0104279
0.012081
0.0571511
1.67577
0.12214
0.0114627
0.0147746
0.0283217
0.0530876
0.0817946
0.0969488
0.0859975
0.0584892
0.0374812
0.030195
0.0230431
0.0124958
0.0105561
0.00988846
0.0100164
0.0106419
0.0139928
0.0702564
1.7214
0.119068
0.0114764
0.0149809
0.0288256
0.0540229
0.0830503
0.0981419
0.0868519
0.0591633
0.038233
0.0309363
0.0234386
0.0107201
0.0100663
0.00967825
0.010012
0.0110603
0.0169725
0.0872156
1.76686
0.116042
0.0115153
0.0151925
0.0293316
0.0549443
0.084279
0.0993435
0.087805
0.059987
0.0390944
0.0317715
0.0239664
0.00998786
0.00968037
0.00955906
0.0101433
0.0118225
0.0213964
0.108478
1.81189
0.113081
0.0115699
0.0153985
0.029821
0.0558456
0.0855106
0.100613
0.088896
0.0609513
0.0400463
0.0327222
0.0248068
0.00973002
0.00943616
0.0095789
0.0104952
0.0131546
0.0276752
0.134357
1.85623
0.110219
0.011624
0.0155969
0.0302921
0.0567237
0.086745
0.101957
0.0901338
0.0620627
0.0410927
0.0337927
0.0260469
0.011508
0.00941889
0.00982169
0.0111979
0.0154099
0.0361681
0.164932
1.89962
0.107455
0.0116774
0.0157863
0.030742
0.0575748
0.087982
0.10338
0.0915281
0.0633298
0.0422394
0.0349826
0.0275134
0.0134728
0.00976667
0.0104263
0.012503
0.0188853
0.0472022
0.2
1.94181
0.104786
0.0117296
0.0159653
0.0311676
0.0583953
0.0892201
0.104887
0.0930896
0.0647637
0.0434936
0.0362986
0.0292337
0.0154322
0.0106509
0.011594
0.0146417
0.0238855
0.0609725
0.239056
1.98253
0.102211
0.0117801
0.0161323
0.0315653
0.0591804
0.0904578
0.106484
0.0948294
0.0663775
0.0448626
0.0377447
0.0312685
0.0178539
0.0122613
0.0135273
0.0178532
0.030653
0.0774906
0.281323
2.02154
0.0997291
0.0118285
0.0162858
0.0319318
0.0599256
0.0916921
0.108173
0.0967592
0.0681869
0.0463548
0.0393166
0.0336332
0.0208897
0.014772
0.0164182
0.0223349
0.0393129
0.0965625
0.325822
2.05864
0.0973383
0.0118744
0.0164242
0.0322634
0.0606256
0.0929195
0.109958
0.09889
0.0702078
0.0479789
0.0410024
0.0363077
0.0245859
0.0182928
0.0204022
0.0281958
0.0498346
0.117799
0.37146
2.09361
0.0950369
0.0119172
0.0165458
0.0325564
0.0612748
0.0941357
0.111839
0.101233
0.0724577
0.0497445
0.0427823
0.0392406
0.0289047
0.0228271
0.0255173
0.0354218
0.0620243
0.140654
0.417121
2.12629
0.0928238
0.0119567
0.0166491
0.0328067
0.061867
0.0953348
0.113818
0.103797
0.0749554
0.0516633
0.0446319
0.0423526
0.0337338
0.0282633
0.0316845
0.0438678
0.0755459
0.164479
0.461747
2.15654
0.0906976
0.0119923
0.0167324
0.0330103
0.0623955
0.0965096
0.11589
0.106592
0.0777208
0.0537502
0.0465263
0.0455469
0.0389105
0.0343964
0.0387162
0.0532754
0.0899651
0.188588
0.504406
2.18425
0.0886582
0.0120238
0.016794
0.0331626
0.0628528
0.0976517
0.118053
0.109625
0.0807756
0.056025
0.0484457
0.0487233
0.0442456
0.0409659
0.0463484
0.0633119
0.104801
0.212313
0.544325
2.20935
0.0867049
0.0120506
0.0168322
0.0332591
0.0632299
0.0987505
0.120301
0.112903
0.0841441
0.0585145
0.0503805
0.0517889
0.0495484
0.0476982
0.0542814
0.0736133
0.119575
0.235052
0.580913
2.23179
0.0848381
0.0120726
0.0168449
0.0332943
0.0635164
0.0997932
0.122624
0.116431
0.0878533
0.0612533
0.0523346
0.0546688
0.0546495
0.0543397
0.0622179
0.0838249
0.13385
0.256299
0.613765
2.25158
0.0830589
0.0120892
0.0168301
0.0332621
0.0637001
0.100764
0.125011
0.120217
0.0919339
0.0642852
0.0543292
0.0573134
0.0594107
0.0606757
0.0698922
0.0936323
0.14726
0.275666
0.642651
2.26873
0.0813687
0.0121003
0.0167853
0.0331556
0.0637666
0.101642
0.127448
0.124265
0.0964207
0.0676644
0.0564036
0.0597015
0.0637307
0.0665429
0.0770897
0.102782
0.159525
0.292889
0.667501
2.28329
0.0797698
0.0121053
0.0167081
0.0329665
0.0636984
0.102402
0.129915
0.12858
0.101354
0.0714563
0.0586163
0.0618419
0.0675518
0.0718344
0.0836558
0.11109
0.170455
0.307823
0.688383
2.29535
0.0782652
0.0121039
0.0165955
0.0326856
0.0634748
0.103014
0.132385
0.133164
0.106779
0.0757391
0.0610454
0.0637742
0.0708573
0.0764957
0.0894965
0.118446
0.179951
0.320436
0.705487
2.30499
0.0768589
0.0120958
0.0164444
0.0323025
0.0630712
0.10344
0.134826
0.138017
0.112747
0.0806054
0.0637902
0.0655659
0.0736644
0.0805184
0.0945743
0.124803
0.187996
0.3308
0.719107
2.31234
0.0755559
0.0120808
0.0162519
0.0318058
0.0624593
0.103633
0.13719
0.143129
0.119314
0.0861645
0.0669737
0.0673133
0.0760217
0.0839357
0.0989031
0.130181
0.194647
0.339075
0.729625
2.3175
0.0743621
0.0120587
0.016015
0.0311837
0.0616067
0.103535
0.139419
0.148482
0.126537
0.0925444
0.0707468
0.0691442
0.0780109
0.0868176
0.102541
0.134649
0.200027
0.345504
0.737504
2.32059
0.0732847
0.0120298
0.0157312
0.0304245
0.0604777
0.103079
0.141431
0.154041
0.134475
0.0998941
0.0752941
0.071223
0.0797453
0.0892651
0.105585
0.138324
0.204315
0.350401
0.743277
2.32172
0.0723321
0.0119948
0.0153989
0.0295173
0.0590341
0.102181
0.143123
0.159744
0.143177
0.108385
0.0808429
0.0737585
0.0813704
0.0914068
0.108166
0.141368
0.207748
0.354154
0.747559
2.321
0.0715142
0.0119549
0.0150178
0.0284535
0.0572369
0.100749
0.144358
0.165491
0.152677
0.118209
0.0876729
0.0770179
0.0830774
0.0934014
0.110449
0.143981
0.210615
0.357226
0.751041
2.31851
0.0708421
0.011912
0.0145895
0.0272285
0.0550492
0.0986759
0.144963
0.171131
0.162971
0.129573
0.0961284
0.0813493
0.0851237
0.0954453
0.112642
0.146416
0.213269
0.360162
0.754506
2.31427
0.0703283
0.011869
0.014118
0.0258432
0.0524404
0.0958456
0.144722
0.176436
0.173996
0.142687
0.106628
0.0872083
0.0878622
0.0977872
0.115002
0.148983
0.216142
0.363609
0.758834
2.30829
0.0699868
0.0118295
0.0136105
0.024307
0.0493924
0.0921417
0.143372
0.181087
0.185588
0.157732
0.119671
0.0951931
0.0917844
0.100756
0.117865
0.152079
0.219766
0.368336
0.765005
2.3005
0.0698327
0.0117984
0.0130777
0.0226398
0.0459067
0.0874582
0.140611
0.184637
0.197427
0.174804
0.13582
0.106085
0.0975859
0.104808
0.121681
0.156224
0.224818
0.375254
0.774088
2.29077
0.069882
0.0117817
0.0125341
0.0208742
0.0420139
0.0817188
0.136105
0.186502
0.208966
0.193822
0.155653
0.120884
0.106259
0.110612
0.127089
0.16212
0.232161
0.385439
0.787213
2.27884
0.0701512
0.0117861
0.0119977
0.0190563
0.0377827
0.0749042
0.12953
0.18595
0.219346
0.214382
0.179637
0.140802
0.119221
0.119184
0.135008
0.170736
0.242898
0.40013
0.805495
2.26437
0.0706571
0.011819
0.0114894
0.017245
0.0333266
0.0670845
0.120628
0.182137
0.227317
0.235549
0.207887
0.167128
0.138455
0.132246
0.146779
0.183396
0.258415
0.420703
0.829921
2.24687
0.0714159
0.0118877
0.0110312
0.0155088
0.0288054
0.0584533
0.109297
0.174201
0.231218
0.255623
0.239784
0.200849
0.166406
0.153795
0.164294
0.201852
0.280373
0.448572
0.861179
2.22568
0.0724421
0.0119988
0.0106439
0.0139189
0.0244162
0.0493494
0.095701
0.161453
0.229066
0.271927
0.273446
0.24185
0.203906
0.183774
0.190023
0.228264
0.310613
0.485019
0.899446
2.19994
0.0737479
0.0121575
0.0103448
0.0125412
0.0203716
0.04025
0.0803793
0.143664
0.218877
0.280793
0.305285
0.288883
0.252862
0.226302
0.22682
0.26502
0.350928
0.530933
0.944162
2.16857
0.075342
0.0123671
0.0101444
0.0114257
0.0168664
0.031718
0.0642888
0.1214
0.199263
0.277929
0.329395
0.337537
0.31245
0.283372
0.277389
0.314311
0.402679
0.586469
0.993833
2.13025
0.0772288
0.0126282
0.0100444
0.0105986
0.0140412
0.0242978
0.0487184
0.0962762
0.170306
0.259556
0.337952
0.379316
0.377912
0.354946
0.343428
0.377415
0.466252
0.650671
1.04589
2.08331
0.0794075
0.0129395
0.0100373
0.0100575
0.0119541
0.0183858
0.0350252
0.070887
0.134364
0.224317
0.323031
0.401379
0.437954
0.437585
0.429876
0.453806
0.540422
0.721081
1.0966
2.02578
0.0818712
0.0132978
0.0101076
0.00977167
0.010574
0.0141296
0.0242458
0.0482296
0.0962124
0.175378
0.280493
0.389123
0.471068
0.510276
0.520995
0.540107
0.621651
0.79339
1.1411
1.95524
0.0846069
0.0136994
0.0102354
0.00968904
0.00979578
0.0114117
0.0167646
0.0306853
0.0618343
0.121132
0.214945
0.335455
0.457259
0.549334
0.599141
0.628964
0.703427
0.861185
1.17339
1.86879
0.087595
0.0141407
0.0104009
0.00974764
0.00946941
0.00992736
0.0122627
0.0191057
0.036004
0.0725558
0.140555
0.246917
0.383802
0.524821
0.637176
0.708475
0.775687
0.915744
1.18641
1.7629
0.0908098
0.0146187
0.0105882
0.00988975
0.00943581
0.00929936
0.00998502
0.0126995
0.0201682
0.0380956
0.0764326
0.148024
0.262226
0.414605
0.580282
0.72265
0.823277
0.945536
1.1718
1.63324
0.0942198
0.0151306
0.0107869
0.0100724
0.00955991
0.00917545
0.00910121
0.00981034
0.0123775
0.0192082
0.0353959
0.0702752
0.137382
0.250188
0.412419
0.606764
0.793486
0.934416
1.11925
1.47411
0.0977886
0.0156736
0.0109915
0.0102702
0.00975108
0.00929197
0.00893916
0.00885103
0.00938225
0.0113162
0.01637
0.0282339
0.0541959
0.106629
0.202443
0.357713
0.575428
0.828699
1.01293
1.27689
0.101476
0.0162444
0.0111996
0.0104716
0.00996272
0.00949559
0.00906933
0.00873508
0.00859548
0.00887208
0.0100165
0.0129575
0.0196388
0.0340896
0.0642425
0.124502
0.238491
0.440134
0.771281
1.02195
0.105239
0.016839
0.0114103
0.0106729
0.010177
0.00972053
0.0092856
0.00889493
0.00858004
0.00841177
0.00852156
0.00914374
0.0106849
0.0138653
0.0200167
0.0317471
0.0545739
0.101412
0.20751
0.522016
0.109036
0.0174526
0.0116233
0.010873
0.010389
0.00994659
0.00951821
0.00912014
0.00876236
0.00847584
0.00831851
0.00839784
0.00889318
0.0100862
0.0123966
0.0164095
0.022858
0.0325173
0.0460603
0.0643842
0.112823
0.0180798
0.0118384
0.011072
0.0105979
0.0101692
0.00974996
0.00935635
0.00898904
0.00866309
0.00840555
0.00827471
0.00838072
0.00892005
0.0102299
0.0128779
0.0178053
0.0265229
0.0414317
0.0676186
0.116563
0.018715
0.0120555
0.0112704
0.010804
0.0103877
0.00997713
0.00959068
0.00922436
0.00888672
0.00858912
0.00836159
0.00826868
0.00844111
0.00913638
0.0108494
0.0145626
0.022258
0.03802
0.0727647
0.120219
0.0193526
0.0122745
0.0114685
0.0110077
0.0106027
0.0101993
0.00981982
0.00945713
0.00911787
0.00880567
0.00853528
0.00834332
0.00831218
0.0086313
0.00970522
0.0124554
0.0190465
0.0348159
0.0765372
0.123762
0.019987
0.0124952
0.0116669
0.0112097
0.0108146
0.010417
0.0100436
0.00968443
0.00934634
0.00902947
0.0087403
0.00849971
0.00835667
0.00844796
0.00909167
0.0111131
0.0166808
0.0320036
0.079483
0.127167
0.0206134
0.0127176
0.0118659
0.0114108
0.0110244
0.010631
0.0102625
0.00990622