/*--------------------------------*- C++ -*----------------------------------*\
  =========                 |
  \\      /  F ield         | OpenFOAM: The Open Source CFD Toolbox
   \\    /   O peration     | Website:  https://openfoam.org
    \\  /    A nd           | Version:  8
     \\/     M anipulation  |
\*---------------------------------------------------------------------------*/
FoamFile
{
    version     2.0;
    format      ascii;
    class       volScalarField;
    location    "400";
    object      k;
}
// * * * * * * * * * * * * * * * * * * * * * * * * * * * * * * * * * * * * * //

dimensions      [0 2 -2 0 0 0 0];

internalField   nonuniform List<scalar> 
8400
(
0.0169301
0.0162791
0.0156434
0.015023
0.0144175
0.0138264
0.0132495
0.0126874
0.0121415
0.011613
0.0111029
0.0106122
0.0101413
0.00969056
0.0092603
0.00885054
0.00846123
0.00809218
0.00774311
0.00741362
0.00710325
0.00681145
0.00653765
0.00628115
0.0060412
0.0058171
0.00560808
0.00541336
0.00523222
0.00506399
0.00490797
0.00476348
0.00462994
0.00450675
0.00439337
0.00428919
0.0041937
0.0041063
0.00402636
0.00395333
0.00388655
0.00382522
0.00376858
0.00371594
0.00366661
0.00362001
0.00357591
0.00353546
0.00353686
0.00355889
0.0034243
0.0033955
0.0033641
0.00333221
0.00330112
0.003272
0.00324603
0.00322339
0.00320334
0.00318538
0.00316905
0.00315399
0.00314002
0.00312699
0.00311487
0.00310369
0.00309347
0.00308425
0.00307606
0.00306897
0.00306304
0.0030583
0.0030548
0.00305258
0.00305166
0.00305211
0.00305395
0.00305723
0.00306201
0.00306836
0.00307634
0.00308605
0.00309756
0.00311095
0.00312631
0.00314373
0.00316323
0.00318485
0.00320859
0.00323425
0.00326164
0.0032905
0.00332025
0.00335049
0.00338047
0.00340946
0.00343715
0.00346348
0.00347717
0.00348977
0.00299059
0.00298243
0.00297435
0.00296641
0.00295868
0.0029512
0.00294405
0.00293725
0.00293086
0.00292493
0.00291951
0.00291464
0.00291036
0.00290671
0.00290374
0.00290149
0.00289999
0.00289925
0.00289931
0.00290019
0.00290191
0.00290448
0.00290793
0.00291232
0.00291767
0.00292404
0.00293149
0.00294009
0.00294997
0.00296129
0.00297414
0.00298872
0.00300523
0.00302392
0.00304494
0.00306854
0.00309492
0.00312405
0.00315598
0.00319063
0.00322777
0.00326699
0.00330732
0.00334811
0.00338765
0.00342479
0.0034609
0.00348669
0.00350875
0.00352902
0.00281573
0.00281377
0.00281198
0.00281039
0.00280903
0.00280795
0.00280715
0.00280667
0.00280655
0.00280682
0.0028075
0.00280859
0.00281013
0.00281213
0.0028146
0.00281752
0.00282091
0.00282477
0.00282909
0.00283385
0.00283907
0.00284478
0.00285098
0.00285774
0.00286512
0.00287316
0.00288198
0.00289174
0.00290259
0.00291474
0.00292846
0.00294403
0.00296184
0.00298221
0.00300551
0.0030321
0.00306228
0.00309626
0.00313403
0.00317514
0.00321938
0.0032662
0.00331429
0.00336291
0.00340881
0.00345066
0.00348643
0.0035191
0.0035483
0.00357477
0.00272883
0.0027313
0.00273393
0.00273676
0.00273979
0.00274305
0.00274653
0.00275027
0.00275428
0.00275857
0.00276312
0.00276794
0.00277302
0.00277836
0.00278392
0.00278969
0.00279565
0.00280179
0.00280807
0.00281447
0.00282103
0.00282777
0.00283466
0.00284177
0.0028492
0.00285703
0.00286542
0.0028746
0.00288475
0.00289619
0.0029093
0.00292443
0.00294221
0.00296314
0.00298767
0.00301632
0.00304958
0.00308774
0.00313088
0.00317771
0.00322829
0.0032818
0.00333556
0.00338991
0.00343776
0.00348289
0.00352561
0.00356509
0.00360084
0.00363244
0.00268681
0.00269246
0.00269827
0.00270424
0.00271038
0.00271669
0.00272318
0.00272985
0.00273671
0.00274372
0.00275086
0.00275812
0.00276547
0.00277288
0.0027803
0.0027877
0.00279502
0.00280225
0.00280937
0.00281637
0.00282324
0.00282998
0.00283662
0.00284325
0.00284999
0.00285692
0.00286425
0.00287227
0.00288125
0.00289155
0.00290363
0.00291813
0.00293567
0.00295692
0.00298284
0.00301383
0.00305019
0.00309256
0.00314186
0.00319413
0.00325085
0.00331047
0.00336773
0.00342411
0.00347973
0.00353318
0.00358299
0.00362831
0.00366831
0.00370284
0.00266956
0.00267757
0.00268579
0.00269421
0.00270281
0.00271156
0.00272044
0.00272944
0.00273852
0.00274758
0.0027566
0.00276556
0.00277442
0.00278308
0.00279151
0.00279969
0.00280756
0.00281509
0.00282224
0.00282901
0.00283543
0.00284154
0.00284735
0.00285299
0.00285867
0.00286449
0.00287066
0.00287739
0.00288504
0.00289431
0.00290553
0.00291954
0.00293723
0.00295936
0.00298746
0.00302167
0.00306199
0.00310906
0.00316542
0.00322282
0.0032843
0.00334883
0.00341516
0.00348131
0.00354543
0.00360581
0.00366101
0.00370956
0.00375099
0.0037851
0.00268894
0.00269604
0.00270402
0.00271268
0.00272179
0.00273124
0.00274093
0.00275076
0.00276058
0.00277024
0.00277972
0.00278895
0.00279785
0.00280636
0.0028145
0.00282221
0.00282939
0.00283604
0.00284217
0.0028478
0.00285297
0.00285783
0.00286245
0.00286679
0.00287107
0.00287557
0.00288058
0.00288621
0.00289288
0.00290132
0.00291216
0.0029264
0.00294504
0.00296901
0.00300052
0.0030391
0.00308435
0.00313732
0.003198
0.00326552
0.00333846
0.00341434
0.00349125
0.00356651
0.00363787
0.00370286
0.00375983
0.00380719
0.00384447
0.00387215
0.00277054
0.00276835
0.00277013
0.00277384
0.00277873
0.00278457
0.00279118
0.00279828
0.00280556
0.00281291
0.0028202
0.00282714
0.00283372
0.00284003
0.00284598
0.00285145
0.00285646
0.00286099
0.0028651
0.00286893
0.00287242
0.00287564
0.00287873
0.00288158
0.00288437
0.00288758
0.00289181
0.00289658
0.00290259
0.00291113
0.00292244
0.00293778
0.00295849
0.00298586
0.00302131
0.00306593
0.00312037
0.00318478
0.00325839
0.00333946
0.00342577
0.00351392
0.00360108
0.00368356
0.00375839
0.00382266
0.0038744
0.00391225
0.00393659
0.00394818
0.00288927
0.00287081
0.00286384
0.00285995
0.00285777
0.00285689
0.00285745
0.0028589
0.00286108
0.00286405
0.00286715
0.00286997
0.00287291
0.00287582
0.0028784
0.00288077
0.00288301
0.00288496
0.00288679
0.00288866
0.00289044
0.00289213
0.00289377
0.00289519
0.00289709
0.00289964
0.00290287
0.00290748
0.00291383
0.00292292
0.00293607
0.00295471
0.00298045
0.00301493
0.00305986
0.00311649
0.00318523
0.00326566
0.00335605
0.00345363
0.00355467
0.00365432
0.00374854
0.00383244
0.00390253
0.00395535
0.00398921
0.00400328
0.00400036
0.0039796
0.00297661
0.00295041
0.00293611
0.00292786
0.00292131
0.0029161
0.00291267
0.00290965
0.00290738
0.00290681
0.00290626
0.00290519
0.00290466
0.00290456
0.00290429
0.0029041
0.00290423
0.00290428
0.00290428
0.00290468
0.00290538
0.0029061
0.002907
0.00290813
0.00290971
0.0029123
0.00291598
0.00292131
0.00292939
0.00294157
0.00295948
0.00298488
0.00301995
0.00306683
0.0031272
0.00320204
0.00329128
0.00339319
0.0035041
0.0036195
0.00373342
0.00383879
0.00393087
0.00400313
0.00405219
0.00407467
0.00406938
0.00403615
0.00398476
0.00389568
0.00299211
0.00298373
0.00297611
0.002969
0.00296238
0.00295641
0.00295088
0.00294587
0.0029416
0.00293798
0.00293478
0.00293201
0.00292973
0.00292791
0.00292634
0.00292493
0.00292384
0.002923
0.00292233
0.00292192
0.00292175
0.00292183
0.00292226
0.00292314
0.0029249
0.00292793
0.00293281
0.00294076
0.00295321
0.00297188
0.00299906
0.00303723
0.00308884
0.00315608
0.00324037
0.00334171
0.0034584
0.00358629
0.00371838
0.00384723
0.00396418
0.00405966
0.00412894
0.00416494
0.00416421
0.00412611
0.0040481
0.00392945
0.00379478
0.0035046
0.00299551
0.0029908
0.00298618
0.00298171
0.00297742
0.00297324
0.00296922
0.00296538
0.00296176
0.00295839
0.00295524
0.00295235
0.00294973
0.00294735
0.00294523
0.00294335
0.0029417
0.00294024
0.00293899
0.00293804
0.00293739
0.00293713
0.00293759
0.00293907
0.00294214
0.00294769
0.00295685
0.00297132
0.00299326
0.00302535
0.00307066
0.00313187
0.00321128
0.00331032
0.00342929
0.00356554
0.00371402
0.0038663
0.0040098
0.00413453
0.00422796
0.00428056
0.00428847
0.00424853
0.00415363
0.00401567
0.00381664
0.00355885
0.00341593
0.00334804
0.00299682
0.00299355
0.00299033
0.0029872
0.00298411
0.00298104
0.00297803
0.00297513
0.00297232
0.00296961
0.00296698
0.00296447
0.00296212
0.00295994
0.00295794
0.0029561
0.00295442
0.00295293
0.00295167
0.0029508
0.0029506
0.00295145
0.00295377
0.00295841
0.00296647
0.00297947
0.00299952
0.00302919
0.00307175
0.00313087
0.00320991
0.0033104
0.00343311
0.00357724
0.00373998
0.00391267
0.00408468
0.00424173
0.00436318
0.00444035
0.00445398
0.00440895
0.00429396
0.0041328
0.00389053
0.00364625
0.00350783
0.00343383
0.00337916
0.00333399
0.00299768
0.00299528
0.0029929
0.00299049
0.00298808
0.00298568
0.00298333
0.00298101
0.00297871
0.00297645
0.00297427
0.00297216
0.00297013
0.00296821
0.00296643
0.00296483
0.00296348
0.00296253
0.00296228
0.00296315
0.00296578
0.00297109
0.00298032
0.0029951
0.00301756
0.00305031
0.0030965
0.00315978
0.00324432
0.00335425
0.00349136
0.00365142
0.0038315
0.00402655
0.00422697
0.0044116
0.00456495
0.00466618
0.00468621
0.00463654
0.00446936
0.0042722
0.00395958
0.00370736
0.00355972
0.00348133
0.00343166
0.0033877
0.00335064
0.00332331
0.00299799
0.00299596
0.00299393
0.00299189
0.00298988
0.00298792
0.00298597
0.00298405
0.00298219
0.00298037
0.00297859
0.00297689
0.00297532
0.00297391
0.00297274
0.00297209
0.00297242
0.00297424
0.00297857
0.00298667
0.00300036
0.00302182
0.00305368
0.00309888
0.00316058
0.00324203
0.00334666
0.00347798
0.00363972
0.00383441
0.00405493
0.0042805
0.00450721
0.00472588
0.00490734
0.00500804
0.00502982
0.00494075
0.0047167
0.00445361
0.00395901
0.00371365
0.00355815
0.00347066
0.00341663
0.00336931
0.00332445
0.0032814
0.00324087
0.0032025
0.00299851
0.00299699
0.00299545
0.0029939
0.00299235
0.00299079
0.00298922
0.00298768
0.00298619
0.00298476
0.00298345
0.00298233
0.00298155
0.00298131
0.00298228
0.00298633
0.00299548
0.00301129
0.00303715
0.00307615
0.00313224
0.00320936
0.00331143
0.00344109
0.00360014
0.00378912
0.0040078
0.00425538
0.00453121
0.00482874
0.00510465
0.00531565
0.00548995
0.00562375
0.00559173
0.00535587
0.00505414
0.00455013
0.00395493
0.0036389
0.00347443
0.00338874
0.00332137
0.00326209
0.00320551
0.00314848
0.00308951
0.00302743
0.00296143
0.00289108
0.00299839
0.00299677
0.00299522
0.00299373
0.00299233
0.00299109
0.00299009
0.00298941
0.00298917
0.00298955
0.00299085
0.00299343
0.00299779
0.0030046
0.00301989
0.00305745
0.00312301
0.00321814
0.00334811
0.0035132
0.00371948
0.00396781
0.00425844
0.00458505
0.00493936
0.0053103
0.00568583
0.00605224
0.00639588
0.00666201
0.00664481
0.00648771
0.00633111
0.00618954
0.00534385
0.00433306
0.00377493
0.00348712
0.00333814
0.00324437
0.00315952
0.00308664
0.00302133
0.00295894
0.00289623
0.00283222
0.00276663
0.00269939
0.00263113
0.00256354
0.00299902
0.0029988
0.00299922
0.00300052
0.00300291
0.00300661
0.00301189
0.00301913
0.00302883
0.0030416
0.00305814
0.00307933
0.0031061
0.0031392
0.00325195
0.00354137
0.00394083
0.00445159
0.00502435
0.00561367
0.00624205
0.00687927
0.00751266
0.00811155
0.00865233
0.0091088
0.00945149
0.00962676
0.00957787
0.00889941
0.0065225
0.00522337
0.00455404
0.00411564
0.00386235
0.0037052
0.00357892
0.00348993
0.00343794
0.00341326
0.00340908
0.00342178
0.00344988
0.00349297
0.00355215
0.00362898
0.00372532
0.00384346
0.00398503
0.00414953
0.00307775
0.00315805
0.00324014
0.00332399
0.0034096
0.00349702
0.00358633
0.00367757
0.00377062
0.00386524
0.00396102
0.00405707
0.00415093
0.00423615
0.00630883
0.0107576
0.0134132
0.0157509
0.0173581
0.0184694
0.0191674
0.0195033
0.0195627
0.019387
0.019038
0.0185549
0.0179773
0.017332
0.016641
0.0159567
0.015485
0.0155905
0.0164805
0.017614
0.0186565
0.0195403
0.0203988
0.0213249
0.0223136
0.0233344
0.0243959
0.0255061
0.0266766
0.0279262
0.0292729
0.0307286
0.0322953
0.0339685
0.0357319
0.0375467
0.0589323
0.0574934
0.0561303
0.0548356
0.0536018
0.0524212
0.0512862
0.050194
0.0491426
0.0481299
0.0471543
0.0462141
0.0453078
0.0444337
0.0435904
0.0427765
0.0419905
0.0412311
0.0404972
0.0397877
0.0391015
0.0384377
0.0377954
0.0371737
0.0365718
0.0359888
0.0354239
0.0348762
0.034345
0.0338294
0.0333289
0.0328429
0.032371
0.0319126
0.0314676
0.0310357
0.0306166
0.0302101
0.0298161
0.0294332
0.0290597
0.0286948
0.0283379
0.0279879
0.0276436
0.0273034
0.0269653
0.026626
0.0262802
0.0259177
0.0580938
0.0554694
0.0530168
0.0507184
0.0485659
0.0465501
0.0446635
0.0428958
0.0412375
0.0396799
0.0382153
0.0368364
0.0355365
0.0343097
0.0331504
0.0320535
0.0310145
0.0300292
0.0290939
0.0282051
0.0273598
0.0265552
0.0257885
0.0250572
0.0243591
0.0236918
0.0230534
0.0224418
0.0218555
0.0212927
0.0207522
0.0202327
0.019733
0.0192522
0.0187894
0.0183436
0.0179138
0.0174991
0.0170987
0.0167127
0.0163413
0.0159837
0.0156391
0.0153065
0.0149852
0.0146743
0.0143731
0.0140805
0.0137952
0.0135158
0.0580897
0.055456
0.0529868
0.0506741
0.0485069
0.0464747
0.0445673
0.0427752
0.0410896
0.0395024
0.0380063
0.0365944
0.0352606
0.0339991
0.0328048
0.0316728
0.0305988
0.0295789
0.0286094
0.0276871
0.026809
0.0259723
0.0251745
0.0244131
0.0236858
0.0229905
0.0223253
0.0216883
0.0210778
0.0204923
0.0199304
0.0193909
0.0188728
0.0183749
0.0178965
0.0174368
0.0169951
0.0165705
0.0161623
0.0157699
0.0153924
0.0150291
0.0146792
0.0143422
0.0140173
0.0137039
0.0134018
0.0131107
0.0128298
0.012558
0.0580897
0.0554744
0.0530266
0.0507339
0.048584
0.0465656
0.0446686
0.0428838
0.0412029
0.0396183
0.038123
0.0367105
0.035375
0.0341108
0.0329131
0.0317772
0.0306989
0.0296743
0.0287
0.0277727
0.0268896
0.0260479
0.025245
0.0244786
0.0237465
0.0230465
0.0223766
0.0217352
0.0211204
0.0205307
0.0199649
0.0194217
0.0188999
0.0183987
0.0179171
0.0174542
0.0170094
0.0165818
0.0161708
0.0157755
0.0153952
0.0150292
0.0146768
0.0143372
0.0140097
0.0136937
0.0133887
0.0130944
0.0128108
0.012537
0.0580896
0.0554743
0.0530254
0.05073
0.0485767
0.0465548
0.0446547
0.0428674
0.0411848
0.0395991
0.0381032
0.0366908
0.0353556
0.0340921
0.0328953
0.0317604
0.0306832
0.0296598
0.0286867
0.0277607
0.0268789
0.0260385
0.0252369
0.0244718
0.0237409
0.0230422
0.0223736
0.0217333
0.0211197
0.0205313
0.0199665
0.0194243
0.0189036
0.0184032
0.0179224
0.0174603
0.0170162
0.0165892
0.0161786
0.0157837
0.0154038
0.015038
0.0146856
0.0143461
0.0140186
0.0137027
0.0133975
0.0131027
0.0128182
0.0125434
0.0580894
0.0554752
0.0530289
0.0507372
0.0485882
0.046571
0.0446755
0.0428925
0.0412137
0.0396313
0.0381383
0.036728
0.0353945
0.0341322
0.0329361
0.0318015
0.0307242
0.0297005
0.0287269
0.0278002
0.0269175
0.0260761
0.0252735
0.0245074
0.0237756
0.0230759
0.0224064
0.0217653
0.0211508
0.0205615
0.0199959
0.0194528
0.0189312
0.01843
0.0179483
0.0174853
0.0170402
0.0166123
0.0162008
0.0158049
0.0154238
0.0150569
0.0147033
0.0143624
0.0140335
0.013716
0.0134095
0.0131133
0.0128271
0.0125505
0.0580892
0.0554748
0.0530289
0.0507376
0.0485887
0.0465714
0.0446755
0.042892
0.0412125
0.0396293
0.0381355
0.0367244
0.03539
0.0341269
0.03293
0.0317947
0.0307168
0.0296924
0.0287182
0.027791
0.026908
0.0260663
0.0252637
0.0244976
0.0237658
0.0230664
0.0223972
0.0217564
0.0211424
0.0205536
0.0199885
0.0194459
0.0189248
0.018424
0.0179428
0.0174802
0.0170355
0.0166079
0.0161966
0.0158009
0.0154199
0.015053
0.0146994
0.0143583
0.0140291
0.0137112
0.0134043
0.0131076
0.0128208
0.0125436
0.058089
0.0554743
0.0530285
0.0507378
0.04859
0.0465738
0.0446793
0.0428972
0.0412192
0.0396375
0.038145
0.0367351
0.0354017
0.0341394
0.0329431
0.0318081
0.0307304
0.0297061
0.0287318
0.0278044
0.0269212
0.0260793
0.0252764
0.02451
0.0237781
0.0230785
0.0224092
0.0217683
0.0211541
0.0205651
0.0199999
0.0194571
0.0189358
0.0184348
0.0179532
0.0174903
0.0170452
0.0166171
0.0162053
0.0158089
0.0154272
0.0150595
0.014705
0.014363
0.0140328
0.0137138
0.0134056
0.0131076
0.0128195
0.0125409
0.0580888
0.0554735
0.0530276
0.0507372
0.0485898
0.0465741
0.0446801
0.0428985
0.0412208
0.0396392
0.0381468
0.0367367
0.0354031
0.0341404
0.0329436
0.031808
0.0307295
0.0297045
0.0287294
0.0278014
0.0269174
0.026075
0.0252717
0.024505
0.0237729
0.0230732
0.0224038
0.021763
0.021149
0.0205601
0.019995
0.0194525
0.0189313
0.0184305
0.0179491
0.0174862
0.0170412
0.0166131
0.0162012
0.0158047
0.0154229
0.0150548
0.0146999
0.0143575
0.0140268
0.0137072
0.0133983
0.0130996
0.0128108
0.0125314
0.0580885
0.0554726
0.0530265
0.0507362
0.0485892
0.0465741
0.0446807
0.0428998
0.0412228
0.0396419
0.03815
0.0367404
0.0354071
0.0341445
0.0329477
0.031812
0.0307334
0.029708
0.0287327
0.0278043
0.0269201
0.0260774
0.0252739
0.0245071
0.0237749
0.0230751
0.0224058
0.021765
0.021151
0.0205623
0.0199973
0.0194548
0.0189336
0.0184328
0.0179513
0.0174884
0.0170432
0.0166149
0.0162027
0.0158058
0.0154235
0.0150549
0.0146993
0.0143561
0.0140246
0.0137041
0.0133943
0.0130946
0.0128047
0.0125242
0.0580882
0.0554716
0.0530252
0.050735
0.0485883
0.0465736
0.0446807
0.0429003
0.0412238
0.0396434
0.0381518
0.0367424
0.0354092
0.0341466
0.0329496
0.0318136
0.0307345
0.0297088
0.0287329
0.0278041
0.0269195
0.0260765
0.0252727
0.0245057
0.0237734
0.0230736
0.0224043
0.0217635
0.0211496
0.020561
0.0199961
0.0194537
0.0189326
0.0184318
0.0179503
0.0174873
0.017042
0.0166135
0.016201
0.0158038
0.0154211
0.015052
0.0146959
0.014352
0.0140197
0.0136984
0.0133877
0.0130871
0.0127963
0.0125149
0.0580879
0.0554705
0.0530238
0.0507336
0.048587
0.0465726
0.0446801
0.0429
0.0412238
0.0396436
0.0381522
0.0367428
0.0354095
0.0341466
0.0329491
0.0318126
0.030733
0.0297066
0.0287302
0.0278008
0.0269157
0.0260724
0.0252682
0.0245011
0.0237686
0.0230688
0.0223995
0.0217588
0.021145
0.0205565
0.0199918
0.0194495
0.0189285
0.0184278
0.0179464
0.0174835
0.0170381
0.0166096
0.016197
0.0157996
0.0154166
0.0150471
0.0146905
0.0143461
0.0140132
0.0136913
0.0133798
0.0130784
0.0127868
0.0125045
0.0580876
0.0554695
0.0530223
0.0507319
0.0485854
0.0465713
0.0446793
0.0428998
0.0412242
0.0396447
0.0381538
0.036745
0.035412
0.0341495
0.0329522
0.0318157
0.030736
0.0297096
0.028733
0.0278035
0.0269183
0.0260748
0.0252706
0.0245034
0.0237709
0.0230711
0.0224018
0.0217612
0.0211474
0.0205589
0.0199942
0.0194518
0.0189308
0.0184299
0.0179484
0.0174852
0.0170396
0.0166107
0.0161977
0.0157999
0.0154163
0.0150462
0.0146888
0.0143435
0.0140097
0.0136868
0.0133743
0.0130718
0.012779
0.0124956
0.0580873
0.0554684
0.0530205
0.0507296
0.0485826
0.046568
0.0446755
0.0428955
0.0412193
0.0396391
0.0381475
0.0367379
0.0354041
0.0341406
0.0329424
0.031805
0.0307245
0.0296972
0.02872
0.0277899
0.0269043
0.0260604
0.0252561
0.0244888
0.0237563
0.0230566
0.0223875
0.0217472
0.0211337
0.0205455
0.0199811
0.0194391
0.0189184
0.0184179
0.0179367
0.0174738
0.0170284
0.0165997
0.0161869
0.0157891
0.0154054
0.0150353
0.0146777
0.0143322
0.013998
0.0136747
0.0133617
0.0130587
0.0127654
0.0124814
0.058087
0.0554672
0.0530186
0.0507274
0.0485806
0.0465669
0.0446755
0.0428969
0.0412222
0.0396435
0.0381532
0.0367448
0.0354119
0.034149
0.0329513
0.0318142
0.0307337
0.0297064
0.0287291
0.0277988
0.0269128
0.0260687
0.025264
0.0244964
0.0237636
0.0230635
0.0223941
0.0217534
0.0211396
0.020551
0.0199862
0.0194438
0.0189226
0.0184216
0.0179399
0.0174765
0.0170306
0.0166013
0.0161878
0.0157893
0.0154049
0.0150338
0.0146754
0.0143288
0.0139936
0.0136691
0.013355
0.0130508
0.0127562
0.0124709
0.0580868
0.055465
0.0530134
0.0507185
0.0485679
0.04655
0.0446548
0.0428726
0.0411948
0.0396133
0.0381207
0.0367103
0.0353758
0.0341117
0.0329129
0.0317751
0.0306942
0.0296668
0.0286894
0.0277594
0.0268738
0.0260302
0.0252262
0.0244593
0.0237274
0.0230283
0.0223598
0.02172
0.0211072
0.0205196
0.0199557
0.0194142
0.018894
0.0183939
0.017913
0.0174505
0.0170053
0.0165767
0.0161638
0.0157659
0.0153819
0.0150112
0.0146531
0.0143067
0.0139715
0.0136471
0.0133329
0.0130287
0.012734
0.0124486
0.0580866
0.0554641
0.0530133
0.0507212
0.0485743
0.0465604
0.0446687
0.0428896
0.0412142
0.0396343
0.0381425
0.0367323
0.0353975
0.0341326
0.0329327
0.0317935
0.030711
0.0296819
0.0287028
0.027771
0.0268838
0.0260386
0.0252329
0.0244645
0.0237311
0.0230306
0.0223608
0.0217197
0.0211057
0.020517
0.019952
0.0194096
0.0188884
0.0183875
0.0179059
0.0174426
0.0169967
0.0165675
0.016154
0.0157555
0.015371
0.0149998
0.0146412
0.0142944
0.013959
0.0136344
0.0133203
0.0130164
0.0127224
0.0124381
0.0580863
0.0554448
0.0529723
0.0506603
0.0484964
0.0464691
0.0445676
0.0427817
0.041102
0.0395199
0.0380276
0.0366181
0.035285
0.0340226
0.0328259
0.0316903
0.0306119
0.0295871
0.0286127
0.0276856
0.0268032
0.0259629
0.0251622
0.0243988
0.0236704
0.0229747
0.0223099
0.0216737
0.0210645
0.0204806
0.0199204
0.0193828
0.0188664
0.0183702
0.0178934
0.0174349
0.016994
0.0165698
0.0161616
0.0157684
0.0153896
0.0150244
0.0146722
0.0143324
0.0140047
0.0136888
0.0133845
0.0130921
0.012812
0.0125451
0.0580899
0.0554569
0.0530009
0.0507034
0.0485546
0.0465443
0.0446644
0.0429037
0.0412521
0.0397003
0.0382402
0.0368641
0.0355653
0.0343378
0.0331761
0.0320755
0.0310319
0.0300415
0.0291009
0.0282071
0.0273574
0.0265492
0.02578
0.0250475
0.0243494
0.0236835
0.0230477
0.0224401
0.0218587
0.0213019
0.0207683
0.0202566
0.0197656
0.0192944
0.0188422
0.0184082
0.0179917
0.0175922
0.0172088
0.0168411
0.0164884
0.0161503
0.0158264
0.0155165
0.0152206
0.0149393
0.0146735
0.0144249
0.0141972
0.0139972
0.0589306
0.0574867
0.056121
0.0548265
0.0535947
0.0524175
0.0512866
0.0501989
0.0491518
0.0481428
0.04717
0.0462315
0.0453254
0.0444504
0.0436049
0.0427879
0.0419982
0.0412349
0.040497
0.0397837
0.0390942
0.0384274
0.0377827
0.0371589
0.0365551
0.0359705
0.0354039
0.0348546
0.0343216
0.0338043
0.0333018
0.0328137
0.0323393
0.0318782
0.0314299
0.0309939
0.0305697
0.0301567
0.0297543
0.029362
0.028979
0.0286049
0.028239
0.0278808
0.0275298
0.0271857
0.0268479
0.0265158
0.0261886
0.0258652
0.0139899
0.00279196
0.00320111
0.00490525
0.00742823
0.00989813
0.0111111
0.0103249
0.00806647
0.00601531
0.00513181
0.00431326
0.00366508
0.00307989
0.00275462
0.00262202
0.00255286
0.00244415
0.00576156
0.072577
0.0137581
0.00278048
0.00323137
0.00496912
0.00752762
0.0100154
0.0112126
0.0103845
0.00809401
0.00605149
0.0051892
0.00432787
0.00353966
0.00297706
0.00269061
0.00258908
0.00254662
0.00250142
0.00620091
0.0739518
0.013528
0.00277185
0.00326244
0.00503352
0.00762675
0.0101315
0.0113133
0.0104469
0.00813052
0.00609954
0.00525407
0.00434787
0.00351208
0.00286402
0.00262782
0.00255805
0.00254641
0.00259693
0.00683686
0.0753445
0.0133005
0.00276635
0.00329422
0.00509824
0.00772528
0.0102461
0.0114134
0.0105128
0.00817696
0.00615995
0.00532599
0.0043725
0.00332179
0.00275413
0.00257013
0.00253179
0.00255643
0.00275014
0.00769287
0.0767377
0.0130744
0.00276454
0.00332668
0.00516314
0.00782291
0.0103588
0.0115127
0.0105829
0.00823456
0.00623366
0.00540567
0.00440595
0.0029293
0.00265519
0.00251974
0.00251301
0.00258322
0.00299898
0.00878173
0.0781244
0.0128499
0.00276665
0.00335977
0.00522808
0.00791935
0.0104694
0.0116115
0.0106579
0.00830425
0.00632124
0.00549404
0.00445616
0.00258848
0.00256545
0.00247923
0.0025064
0.00263787
0.00337445
0.010114
0.0794979
0.0126271
0.00277282
0.0033934
0.00529284
0.00801439
0.0105776
0.0117098
0.0107402
0.00838794
0.00642122
0.00559201
0.0045245
0.00241627
0.00247339
0.00245033
0.00251833
0.00273704
0.00390562
0.0116915
0.0808513
0.0124067
0.0027825
0.00342643
0.00535558
0.00810676
0.0106851
0.0118135
0.010834
0.00848468
0.00653068
0.0057026
0.00462031
0.00254185
0.00242501
0.00244245
0.0025604
0.00290604
0.00461756
0.0135044
0.0821772
0.0121919
0.00279209
0.00345813
0.00541577
0.00819642
0.0107926
0.011923
0.0109399
0.00859486
0.00665013
0.00582649
0.00474551
0.00250717
0.00240863
0.0024667
0.00265127
0.00319124
0.00551787
0.0155295
0.0834687
0.0119829
0.00280149
0.00348825
0.00547299
0.00828302
0.0109
0.0120386
0.0110584
0.00871905
0.00678037
0.00596711
0.00493109
0.00288948
0.00244334
0.00254103
0.00282091
0.00362177
0.00660872
0.0177322
0.0847187
0.0117797
0.0028106
0.00351654
0.0055268
0.00836609
0.0110072
0.0121609
0.0111903
0.00885781
0.00692096
0.00612087
0.0051404
0.00320949
0.0025568
0.00269519
0.00310038
0.00421655
0.00787967
0.020068
0.0859205
0.0115822
0.00281934
0.00354274
0.0055768
0.00844524
0.011114
0.0122901
0.0113367
0.00901275
0.00707367
0.00628965
0.00538148
0.00355032
0.00277513
0.00295477
0.00351244
0.00498103
0.00930799
0.0224858
0.0870678
0.0113904
0.00282761
0.0035666
0.00562255
0.00851999
0.0112201
0.0124263
0.011498
0.00918459
0.007239
0.00647345
0.00565853
0.00395408
0.00311681
0.00333859
0.00406779
0.00590497
0.0108608
0.0249322
0.0881548
0.0112046
0.00283534
0.00358786
0.00566363
0.00858994
0.0113255
0.01257
0.0116752
0.00937442
0.00741742
0.00667088
0.00596948
0.00442696
0.00358591
0.00385226
0.00476198
0.00696445
0.0124984
0.0273549
0.0891766
0.0110247
0.00284247
0.00360629
0.00569955
0.00865447
0.0114297
0.0127211
0.0118688
0.00958345
0.00760955
0.00687971
0.00630819
0.00496077
0.00416969
0.00448599
0.0055764
0.00812586
0.0141782
0.0297067
0.090129
0.0108509
0.00284893
0.00362162
0.00572983
0.00871292
0.011532
0.0128795
0.0120793
0.00981286
0.00781609
0.00709718
0.00666569
0.0055391
0.00484206
0.00521694
0.00648217
0.00935066
0.0158579
0.0319474
0.0910084
0.0106833
0.00285461
0.00363353
0.00575386
0.00876454
0.0116319
0.0130448
0.0123072
0.0100639
0.00803798
0.0073204
0.00703151
0.00614161
0.00557026
0.00601436
0.0074452
0.0105997
0.0174988
0.0340449
0.091812
0.0105218
0.00285944
0.00364172
0.00577101
0.00880845
0.0117284
0.0132165
0.0125527
0.0103379
0.00827656
0.00754684
0.00739504
0.00674758
0.00632131
0.00684517
0.00843071
0.0118367
0.0190675
0.0359758
0.092538
0.0103666
0.0028633
0.00364584
0.00578058
0.00884365
0.0118206
0.0133942
0.0128161
0.0106364
0.00853375
0.00777494
0.00774676
0.00733827
0.00706616
0.00767823
0.00940676
0.0130302
0.020537
0.0377245
0.0931854
0.0102178
0.00286612
0.00364553
0.00578183
0.00886903
0.0119074
0.013577
0.0130977
0.0109611
0.00881217
0.00800452
0.00807907
0.00789815
0.00778141
0.00848702
0.0103464
0.014155
0.0218873
0.0392832
0.0937539
0.0100758
0.00286783
0.00364043
0.00577389
0.00888326
0.0119871
0.0137639
0.0133975
0.0113139
0.00911519
0.00823707
0.00838698
0.00841541
0.0084497
0.00925083
0.0112286
0.0151927
0.0231052
0.0406503
0.0942446
0.00994074
0.00286836
0.00363014
0.00575579
0.00888475
0.012058
0.0139534
0.0137156
0.011697
0.00944699
0.008476
0.00866862
0.0088827
0.00905978
0.00995517
0.0120387
0.0161309
0.024184
0.0418302
0.094659
0.00981308
0.00286767
0.0036142
0.00572638
0.00887152
0.0121176
0.0141437
0.0140515
0.0121126
0.0098126
0.00872667
0.00892529
0.00929717
0.00960604
0.0105914
0.0127679
0.0169638
0.0251227
0.0428318
0.0949992
0.00969324
0.00286568
0.00359213
0.00568432
0.00884119
0.012163
0.0143322
0.0144047
0.0125631
0.0102179
0.00899645
0.0091614
0.00965988
0.0100876
0.0111563
0.0134129
0.0176905
0.0259256
0.0436679
0.0952679
0.00958171
0.00286235
0.0035634
0.00562812
0.00879097
0.0121906
0.0145159
0.0147743
0.0130514
0.0106698
0.00929463
0.00938426
0.00997529
0.0105077
0.0116506
0.0139751
0.0183148
0.0266011
0.0443545
0.0954675
0.00947906
0.00285764
0.00352747
0.00555611
0.00871759
0.0121957
0.0146906
0.0151586
0.0135798
0.0111758
0.00963247
0.0096039
0.0102503
0.0108723
0.0120793
0.0144593
0.0188445
0.0271616
0.0449101
0.0956007
0.00938597
0.00285157
0.00348387
0.00546659
0.00861736
0.0121732
0.0148507
0.0155547
0.0141508
0.0117443
0.0100232
0.00983309
0.0104937
0.0111901
0.0124497
0.014874
0.0192905
0.0276227
0.0453556
0.0956698
0.00930327
0.00284426
0.00343224
0.00535782
0.00848615
0.0121164
0.0149895
0.0159584
0.0147657
0.0123842
0.0104823
0.0100878
0.0107167
0.0114712
0.012772
0.0152302
0.0196669
0.0280033
0.0457142
0.0956772
0.00923194
0.00283592
0.00337239
0.00522817
0.00831946
0.0120175
0.0150976
0.0163632
0.0154247
0.0131049
0.0110276
0.0103882
0.0109336
0.0117283
0.0130586
0.0155419
0.0199908
0.0283259
0.0460124
0.0956252
0.00917309
0.00282687
0.00330435
0.00507624
0.00811251
0.0118676
0.0151636
0.0167594
0.0161259
0.0139155
0.0116797
0.0107598
0.0111642
0.0119769
0.013325
0.015826
0.0202833
0.0286171
0.0462798
0.0955154
0.00912793
0.00281758
0.00322855
0.00490109
0.0078605
0.0116561
0.0151725
0.0171332
0.0168634
0.0148241
0.0124616
0.0112346
0.011435
0.0122364
0.0135904
0.0161037
0.0205694
0.028908
0.0465497
0.0953486
0.00909778
0.00280868
0.00314582
0.00470255
0.00755908
0.0113713
0.0151059
0.0174652
0.0176259
0.0158356
0.013398
0.0118514
0.0117816
0.0125319
0.0138792
0.0164011
0.0208801
0.0292356
0.0468593
0.0951241
0.00908398
0.00280097
0.00305759
0.00448158
0.00720492
0.0110012
0.0149417
0.0177287
0.0183938
0.0169493
0.0145137
0.0126564
0.0122515
0.0128962
0.0142225
0.0167512
0.0212527
0.0296425
0.0472486
0.0948389
0.00908794
0.00279542
0.00296599
0.00424071
0.00679669
0.0105338
0.014654
0.0178883
0.0191354
0.0181537
0.0158292
0.0137021
0.0129069
0.0133735
0.0146615
0.017196
0.0217333
0.0301773
0.0477588
0.0944872
0.00911109
0.00279317
0.00287384
0.00398446
0.00633612
0.00995965
0.0142144
0.0178986
0.0198029
0.0194202
0.0173541
0.0150434
0.0138281
0.0140245
0.0152512
0.01779
0.0223773
0.0308937
0.0484296
0.09406
0.00915481
0.00279546
0.00278464
0.00371966
0.0058294
0.00927351
0.0135943
0.0177048
0.0203279
0.020694
0.0190757
0.0167276
0.0151161
0.0149375
0.0160653
0.0186023
0.02325
0.0318476
0.049295
0.0935442
0.00922037
0.00280353
0.00270234
0.00345546
0.00528841
0.00847826
0.0127699
0.0172448
0.0206191
0.0218847
0.0209428
0.0187733
0.0168842
0.0163243
0.0171993
0.0197165
0.024423
0.0330919
0.0503774
0.0929223
0.00930884
0.00281849
0.00263097
0.00320297
0.0047316
0.00758858
0.0117291
0.0164573
0.0205634
0.0228568
0.0228467
0.0211316
0.0191253
0.0181746
0.0187644
0.021225
0.0259669
0.034668
0.0516802
0.0921711
0.009421
0.00284118
0.0025741
0.00297425
0.00418376
0.00663441
0.0104805
0.015294
0.0200353
0.023427
0.0246089
0.0237053
0.0218658
0.0206041
0.0208674
0.0232135
0.0279379
0.0365953
0.0531817
0.0912609
0.0095572
0.00287203
0.00253418
0.0027806
0.00367406
0.00566239
0.00906407
0.0137398
0.0189185
0.0233713
0.0259541
0.026269
0.0250141
0.0236643
0.023581
0.0257385
0.030361
0.0388596
0.0548292
0.090154
0.00971731
0.00291104
0.0025121
0.00263053
0.0032319
0.00473307
0.00755717
0.0118367
0.0171437
0.0224591
0.0265172
0.0284376
0.0283069
0.0272669
0.026906
0.0287989
0.0332118
0.0414031
0.0565362
0.0888021
0.00990069
0.0029578
0.00250686
0.00252768
0.00288095