/*--------------------------------*- C++ -*----------------------------------*\
  =========                 |
  \\      /  F ield         | OpenFOAM: The Open Source CFD Toolbox
   \\    /   O peration     | Website:  https://openfoam.org
    \\  /    A nd           | Version:  8
     \\/     M anipulation  |
\*---------------------------------------------------------------------------*/
FoamFile
{
    version     2.0;
    format      ascii;
    class       volScalarField;
    location    "400";
    object      nut;
}
// * * * * * * * * * * * * * * * * * * * * * * * * * * * * * * * * * * * * * //

dimensions      [0 2 -1 0 0 0 0];

internalField   nonuniform List<scalar> 
8400
(
0.000138806
0.000135889
0.00013298
0.000130079
0.000127184
0.000124293
0.000121407
0.00011854
0.000115725
0.000112973
0.000110288
0.000107674
0.000105134
0.000102672
0.000100291
9.79944e-05
9.57848e-05
9.36647e-05
9.16356e-05
8.96986e-05
8.7854e-05
8.61019e-05
8.44415e-05
8.28705e-05
8.13859e-05
7.99863e-05
7.86693e-05
7.74314e-05
7.62707e-05
7.5186e-05
7.41743e-05
7.32328e-05
7.23595e-05
7.15528e-05
7.08109e-05
7.01297e-05
6.95072e-05
6.89369e-05
6.84151e-05
6.79377e-05
6.74942e-05
6.7078e-05
6.66868e-05
6.63062e-05
6.59375e-05
6.55696e-05
6.5218e-05
6.49036e-05
6.60613e-05
6.70902e-05
6.38664e-05
6.35564e-05
6.32393e-05
6.29435e-05
6.2688e-05
6.24907e-05
6.23689e-05
6.23007e-05
6.22252e-05
6.21378e-05
6.20412e-05
6.1943e-05
6.18464e-05
6.17557e-05
6.16735e-05
6.1602e-05
6.15427e-05
6.14958e-05
6.14617e-05
6.14415e-05
6.14362e-05
6.14454e-05
6.14689e-05
6.15069e-05
6.15592e-05
6.16266e-05
6.17093e-05
6.18071e-05
6.19214e-05
6.20526e-05
6.22006e-05
6.23671e-05
6.2553e-05
6.27589e-05
6.29855e-05
6.32325e-05
6.35004e-05
6.37862e-05
6.40873e-05
6.44031e-05
6.47279e-05
6.50487e-05
6.53616e-05
6.56538e-05
6.59176e-05
6.61314e-05
6.63196e-05
6.64728e-05
6.62474e-05
6.61782e-05
6.06819e-05
6.06042e-05
6.05302e-05
6.04605e-05
6.0396e-05
6.03369e-05
6.02835e-05
6.02358e-05
6.0194e-05
6.01594e-05
6.01323e-05
6.01134e-05
6.0103e-05
6.01017e-05
6.01095e-05
6.01263e-05
6.0152e-05
6.01866e-05
6.02302e-05
6.02831e-05
6.03453e-05
6.04163e-05
6.04965e-05
6.05873e-05
6.06881e-05
6.07993e-05
6.09227e-05
6.10587e-05
6.12104e-05
6.13809e-05
6.15695e-05
6.17792e-05
6.20138e-05
6.22765e-05
6.25669e-05
6.28884e-05
6.32413e-05
6.36238e-05
6.40289e-05
6.44491e-05
6.48853e-05
6.5319e-05
6.57311e-05
6.61176e-05
6.64363e-05
6.66808e-05
6.69168e-05
6.67637e-05
6.67997e-05
6.681e-05
5.92798e-05
5.92725e-05
5.92687e-05
5.92686e-05
5.92728e-05
5.92814e-05
5.92942e-05
5.93118e-05
5.93347e-05
5.93633e-05
5.93977e-05
5.94368e-05
5.94813e-05
5.95312e-05
5.9586e-05
5.96448e-05
5.97077e-05
5.97752e-05
5.98464e-05
5.99211e-05
6.00003e-05
6.00842e-05
6.01725e-05
6.02667e-05
6.03685e-05
6.04779e-05
6.05982e-05
6.07327e-05
6.0883e-05
6.10517e-05
6.12446e-05
6.14657e-05
6.17211e-05
6.20139e-05
6.2346e-05
6.27229e-05
6.3141e-05
6.36045e-05
6.41046e-05
6.46167e-05
6.51464e-05
6.56705e-05
6.61462e-05
6.66117e-05
6.69323e-05
6.71689e-05
6.71965e-05
6.73134e-05
6.74384e-05
6.75078e-05
5.86683e-05
5.8709e-05
5.87525e-05
5.8799e-05
5.88485e-05
5.89009e-05
5.89563e-05
5.90151e-05
5.90779e-05
5.91437e-05
5.92116e-05
5.92815e-05
5.93536e-05
5.94276e-05
5.95024e-05
5.95775e-05
5.96527e-05
5.97282e-05
5.98036e-05
5.98787e-05
5.99544e-05
6.00313e-05
6.01084e-05
6.01886e-05
6.02755e-05
6.03696e-05
6.04738e-05
6.05914e-05
6.07259e-05
6.08834e-05
6.10709e-05
6.12931e-05
6.15607e-05
6.18773e-05
6.22439e-05
6.267e-05
6.31573e-05
6.37029e-05
6.42996e-05
6.48885e-05
6.54975e-05
6.61038e-05
6.65931e-05
6.71291e-05
6.73171e-05
6.75807e-05
6.78394e-05
6.80352e-05
6.81587e-05
6.82389e-05
5.84415e-05
5.85159e-05
5.85925e-05
5.8671e-05
5.8752e-05
5.88347e-05
5.89195e-05
5.90067e-05
5.90954e-05
5.91841e-05
5.92719e-05
5.93595e-05
5.94468e-05
5.95327e-05
5.96158e-05
5.96953e-05
5.97712e-05
5.98446e-05
5.99154e-05
5.99823e-05
6.0045e-05
6.01052e-05
6.01653e-05
6.0229e-05
6.02982e-05
6.03717e-05
6.04537e-05
6.05518e-05
6.06698e-05
6.08158e-05
6.09951e-05
6.12187e-05
6.14974e-05
6.18391e-05
6.2259e-05
6.2743e-05
6.32884e-05
6.39122e-05
6.46302e-05
6.52692e-05
6.59615e-05
6.66402e-05
6.70455e-05
6.75369e-05
6.79864e-05
6.83564e-05
6.86485e-05
6.88502e-05
6.89676e-05
6.90289e-05
5.84815e-05
5.85784e-05
5.86778e-05
5.87794e-05
5.88832e-05
5.89886e-05
5.90949e-05
5.9201e-05
5.93055e-05
5.94059e-05
5.95027e-05
5.95981e-05
5.96907e-05
5.97763e-05
5.98542e-05
5.99268e-05
5.99948e-05
6.00564e-05
6.01106e-05
6.01573e-05
6.02002e-05
6.02435e-05
6.02854e-05
6.03269e-05
6.03729e-05
6.04257e-05
6.04916e-05
6.0575e-05
6.06787e-05
6.08175e-05
6.09924e-05
6.12212e-05
6.15246e-05
6.19023e-05
6.23838e-05
6.29386e-05
6.35467e-05
6.42481e-05
6.51091e-05
6.57434e-05
6.64593e-05
6.71735e-05
6.78422e-05
6.84302e-05
6.89151e-05
6.92946e-05
6.95661e-05
6.97312e-05
6.98013e-05
6.97994e-05
5.8935e-05
5.90169e-05
5.91083e-05
5.92077e-05
5.93099e-05
5.94134e-05
5.95172e-05
5.9619e-05
5.97152e-05
5.98055e-05
5.98924e-05
5.99754e-05
6.00501e-05
6.0115e-05
6.01731e-05
6.02249e-05
6.02681e-05
6.0302e-05
6.03298e-05
6.03553e-05
6.03801e-05
6.04051e-05
6.04277e-05
6.04459e-05
6.04686e-05
6.05078e-05
6.05673e-05
6.06384e-05
6.07356e-05
6.08746e-05
6.10621e-05
6.13067e-05
6.16329e-05
6.20595e-05
6.26273e-05
6.32712e-05
6.39439e-05
6.47363e-05
6.55947e-05
6.64869e-05
6.73713e-05
6.81934e-05
6.89315e-05
6.95466e-05
7.00254e-05
7.03561e-05
7.05408e-05
7.05978e-05
7.05307e-05
7.03996e-05
5.98034e-05
5.98005e-05
5.98361e-05
5.98903e-05
5.99494e-05
6.00148e-05
6.00821e-05
6.0149e-05
6.02103e-05
6.02706e-05
6.03295e-05
6.03765e-05
6.04125e-05
6.04453e-05
6.04748e-05
6.04953e-05
6.05061e-05
6.05125e-05
6.05227e-05
6.05391e-05
6.05497e-05
6.05505e-05
6.05525e-05
6.05612e-05
6.05753e-05
6.05976e-05
6.06542e-05
6.07211e-05
6.08213e-05
6.09831e-05
6.11859e-05
6.14618e-05
6.18448e-05
6.23444e-05
6.29664e-05
6.3729e-05
6.46109e-05
6.55875e-05
6.66185e-05
6.76594e-05
6.86595e-05
6.95452e-05
7.02977e-05
7.08643e-05
7.12386e-05
7.14123e-05
7.13949e-05
7.12234e-05
7.09321e-05
7.05612e-05
6.06843e-05
6.05382e-05
6.04929e-05
6.0482e-05
6.04838e-05
6.04931e-05
6.05209e-05
6.05488e-05
6.05717e-05
6.06047e-05
6.06342e-05
6.06394e-05
6.06451e-05
6.06569e-05
6.06622e-05
6.06624e-05
6.06637e-05
6.06664e-05
6.06726e-05
6.06748e-05
6.06647e-05
6.06566e-05
6.06543e-05
6.06484e-05
6.0667e-05
6.07037e-05
6.07485e-05
6.08255e-05
6.09376e-05
6.11209e-05
6.13846e-05
6.17417e-05
6.22321e-05
6.28745e-05
6.36758e-05
6.46329e-05
6.57233e-05
6.69066e-05
6.81143e-05
6.92824e-05
7.03436e-05
7.12034e-05
7.18487e-05
7.22217e-05
7.23372e-05
7.21873e-05
7.17964e-05
7.1211e-05
7.05637e-05
6.97424e-05
6.13048e-05
6.10773e-05
6.09412e-05
6.08824e-05
6.0833e-05
6.07995e-05
6.08247e-05
6.08305e-05
6.0804e-05
6.08032e-05
6.08091e-05
6.07862e-05
6.07714e-05
6.07678e-05
6.07583e-05
6.0758e-05
6.07736e-05
6.07768e-05
6.07632e-05
6.0755e-05
6.07525e-05
6.075e-05
6.07571e-05
6.07715e-05
6.07896e-05
6.08286e-05
6.08887e-05
6.09963e-05
6.11659e-05
6.14165e-05
6.17824e-05
6.22852e-05
6.29534e-05
6.38095e-05
6.48602e-05
6.60788e-05
6.74219e-05
6.88197e-05
7.01647e-05
7.13714e-05
7.23489e-05
7.29929e-05
7.33339e-05
7.32832e-05
7.28994e-05
7.21823e-05
7.11695e-05
6.98762e-05
6.87612e-05
6.66649e-05
6.14216e-05
6.13406e-05
6.12679e-05
6.11987e-05
6.11397e-05
6.1096e-05
6.10555e-05
6.10137e-05
6.09799e-05
6.09578e-05
6.09401e-05
6.09246e-05
6.09134e-05
6.09073e-05
6.09023e-05
6.08966e-05
6.08924e-05
6.08857e-05
6.08754e-05
6.08696e-05
6.08672e-05
6.08684e-05
6.08783e-05
6.08969e-05
6.09336e-05
6.10017e-05
6.11141e-05
6.12893e-05
6.15582e-05
6.19494e-05
6.25001e-05
6.32447e-05
6.42007e-05
6.53718e-05
6.6751e-05
6.82787e-05
6.98732e-05
7.1416e-05
7.27388e-05
7.37609e-05
7.43885e-05
7.45024e-05
7.42185e-05
7.34249e-05
7.22022e-05
7.05884e-05
6.86021e-05
6.60074e-05
6.44008e-05
5.68968e-05
6.14541e-05
6.14061e-05
6.13587e-05
6.13145e-05
6.12744e-05
6.12361e-05
6.11986e-05
6.1163e-05
6.11305e-05
6.11042e-05
6.1082e-05
6.1063e-05
6.10452e-05
6.1028e-05
6.10134e-05
6.10013e-05
6.09911e-05
6.09834e-05
6.09767e-05
6.09717e-05
6.09721e-05
6.09846e-05
6.10149e-05
6.10657e-05
6.11526e-05
6.12922e-05
6.15085e-05
6.18345e-05
6.23079e-05
6.29687e-05
6.38521e-05
6.4969e-05
6.63294e-05
6.79053e-05
6.96549e-05
7.14429e-05
7.31362e-05
7.45786e-05
7.55157e-05
7.59471e-05
7.57636e-05
7.49032e-05
7.35481e-05
7.16513e-05
6.9151e-05
6.62976e-05
6.28638e-05
5.78504e-05
6.0801e-05
6.26026e-05
6.14673e-05
6.14331e-05
6.13998e-05
6.13692e-05
6.134e-05
6.13101e-05
6.12799e-05
6.12517e-05
6.12263e-05
6.12033e-05
6.11813e-05
6.11603e-05
6.11403e-05
6.11216e-05
6.11056e-05
6.10933e-05
6.10844e-05
6.10782e-05
6.1075e-05
6.10817e-05
6.11054e-05
6.11525e-05
6.12348e-05
6.13723e-05
6.15856e-05
6.19047e-05
6.23623e-05
6.2997e-05
6.38561e-05
6.49846e-05
6.63959e-05
6.80307e-05
6.98621e-05
7.18082e-05
7.37887e-05
7.55321e-05
7.68888e-05
7.77003e-05
7.75752e-05
7.68229e-05
7.51192e-05
7.28904e-05
6.9865e-05
6.67612e-05
6.25403e-05
5.90292e-05
6.14086e-05
6.28411e-05
6.30315e-05
6.31229e-05
6.14759e-05
6.1451e-05
6.14271e-05
6.14024e-05
6.13778e-05
6.13543e-05
6.13315e-05
6.13088e-05
6.12863e-05
6.1265e-05
6.12454e-05
6.12267e-05
6.12081e-05
6.11905e-05
6.11764e-05
6.11687e-05
6.11678e-05
6.11763e-05
6.12034e-05
6.12603e-05
6.13619e-05
6.15317e-05
6.17944e-05
6.2179e-05
6.27161e-05
6.34401e-05
6.43881e-05
6.5602e-05
6.71204e-05
6.89673e-05
7.10543e-05
7.31384e-05
7.52298e-05
7.71926e-05
7.88693e-05
7.97416e-05
7.99037e-05
7.92096e-05
7.70026e-05
7.45699e-05
7.0175e-05
6.70342e-05
6.14637e-05
5.92793e-05
6.16993e-05
6.3211e-05
6.37063e-05
6.35451e-05
6.35563e-05
6.37147e-05
6.14793e-05
6.14586e-05
6.14385e-05
6.14178e-05
6.13983e-05
6.13797e-05
6.13599e-05
6.13399e-05
6.13215e-05
6.13046e-05
6.12884e-05
6.12735e-05
6.12616e-05
6.1254e-05
6.12535e-05
6.1269e-05
6.13153e-05
6.1403e-05
6.15582e-05
6.18145e-05
6.2208e-05
6.27796e-05
6.35672e-05
6.45996e-05
6.58923e-05
6.74504e-05
6.92705e-05
7.13548e-05
7.37143e-05
7.63133e-05
7.87285e-05
8.04525e-05
8.19974e-05
8.31632e-05
8.33193e-05
8.16178e-05
7.95026e-05
7.60603e-05
7.05276e-05
6.7163e-05
5.76518e-05
5.90415e-05
6.12455e-05
6.28504e-05
6.35696e-05
6.33072e-05
6.30512e-05
6.28243e-05
6.2627e-05
6.24403e-05
6.14848e-05
6.14691e-05
6.14531e-05
6.14375e-05
6.14226e-05
6.14071e-05
6.13905e-05
6.13746e-05
6.13605e-05
6.13488e-05
6.13405e-05
6.13377e-05
6.1344e-05
6.13649e-05
6.14235e-05
6.15886e-05
6.19158e-05
6.24073e-05
6.31365e-05
6.41728e-05
6.55537e-05
6.73315e-05
6.94902e-05
7.19606e-05
7.46248e-05
7.73632e-05
8.00775e-05
8.27202e-05
8.53047e-05
8.76704e-05
8.83057e-05
8.75862e-05
8.73918e-05
8.70055e-05
8.27821e-05
7.54476e-05
7.14278e-05
6.31218e-05
5.41875e-05
5.79464e-05
6.05619e-05
6.20477e-05
6.22684e-05
6.19567e-05
6.1531e-05
6.10269e-05
6.04761e-05
5.98529e-05
5.91681e-05
5.84272e-05
6.14836e-05
6.14671e-05
6.14513e-05
6.14374e-05
6.14257e-05
6.14169e-05
6.14129e-05
6.1416e-05
6.14296e-05
6.14584e-05
6.1509e-05
6.15901e-05
6.17122e-05
6.18878e-05
6.23462e-05
6.36381e-05
6.57442e-05
6.83393e-05
7.13943e-05
7.4878e-05
7.87589e-05
8.30355e-05
8.73548e-05
9.13865e-05
9.47819e-05
9.74066e-05
9.92379e-05
0.000100304
0.000100685
9.93397e-05
9.06574e-05
8.64341e-05
8.45583e-05
8.40384e-05
6.51336e-05
4.95134e-05
5.37111e-05
5.7268e-05
5.96204e-05
6.05067e-05
6.00418e-05
5.97914e-05
5.93863e-05
5.88528e-05
5.82422e-05
5.75812e-05
5.68875e-05
5.61687e-05
5.54531e-05
5.47826e-05
6.149e-05
6.14906e-05
6.15014e-05
6.15274e-05
6.15724e-05
6.16406e-05
6.17372e-05
6.18705e-05
6.20516e-05
6.2292e-05
6.26039e-05
6.30005e-05
6.34932e-05
6.40797e-05
6.77474e-05
7.89023e-05
9.12054e-05
0.000102146
0.000110078
0.000114641
0.000118523
0.000122322
0.000124705
0.000125915
0.000125745
0.000124396
0.000121776
0.000117264
0.000110462
9.43478e-05
5.08851e-05
5.46452e-05
5.57921e-05
5.88315e-05
6.18011e-05
6.33803e-05
6.29912e-05
6.32881e-05
6.40458e-05
6.4762e-05
6.54545e-05
6.61754e-05
6.69769e-05
6.78932e-05
6.89534e-05
7.01838e-05
7.15947e-05
7.3196e-05
7.4959e-05
7.68097e-05
6.23065e-05
6.3112e-05
6.39263e-05
6.47479e-05
6.55739e-05
6.64033e-05
6.7238e-05
6.80783e-05
6.89196e-05
6.97545e-05
7.05713e-05
7.13467e-05
7.20132e-05
7.23885e-05
0.000155287
0.000438689
0.00032491
0.000235393
0.000206306
0.000189199
0.00017765
0.000169655
0.000162958
0.000157482
0.00015248
0.000147927
0.000143564
0.000139352
0.000135187
0.000131637
0.000132003
0.000141223
0.000159069
0.000170854
0.000174651
0.000175205
0.000177803
0.000182493
0.000187071
0.000191276
0.000195753
0.000200217
0.000204914
0.00020994
0.000215225
0.000220697
0.000226278
0.000231874
0.000237319
0.000242375
0.000272579
0.000269257
0.000266065
0.000262984
0.000260006
0.000257116
0.000254301
0.00025156
0.000248891
0.000246294
0.000243767
0.00024131
0.000238922
0.0002366
0.000234342
0.000232145
0.000230007
0.000227925
0.000225896
0.000223919
0.000221991
0.000220111
0.000218277
0.000216488
0.00021474
0.000213033
0.000211363
0.000209729
0.000208127
0.000206557
0.000205017
0.000203507
0.000202027
0.000200577
0.000199159
0.000197773
0.000196421
0.000195105
0.000193824
0.000192581
0.000191364
0.000190171
0.000188997
0.000187839
0.000186692
0.000185549
0.000184403
0.000183243
0.000182049
0.000180782
0.00027065
0.000264506
0.000258613
0.000252946
0.000247508
0.000242294
0.000237305
0.000232529
0.000227958
0.000223583
0.000219394
0.000215383
0.000211538
0.000207851
0.000204312
0.000200911
0.000197639
0.000194489
0.000191452
0.000188523
0.000185696
0.000182964
0.000180322
0.000177765
0.000175286
0.00017288
0.000170541
0.000168265
0.000166047
0.000163884
0.000161774
0.000159717
0.000157712
0.000155758
0.000153858
0.000152008
0.000150209
0.00014846
0.000146757
0.000145094
0.000143483
0.000141919
0.000140397
0.000138913
0.000137462
0.000136041
0.000134648
0.000133285
0.000131954
0.000130645
0.000270637
0.000264466
0.000258528
0.000252825
0.000247348
0.000242091
0.000237046
0.000232203
0.000227555
0.000223092
0.000218807
0.000214689
0.000210732
0.000206925
0.00020326
0.000199728
0.000196322
0.000193035
0.000189859
0.000186789
0.00018382
0.000180945
0.00017816
0.000175459
0.000172839
0.000170292
0.000167816
0.000165405
0.000163057
0.000160768
0.000158537
0.000156362
0.000154243
0.000152179
0.00015017
0.000148216
0.000146319
0.000144476
0.000142688
0.000140951
0.000139265
0.000137625
0.000136029
0.000134473
0.000132955
0.000131469
0.000130011
0.000128583
0.000127193
0.000125864
0.000270636
0.000264506
0.00025862
0.000252968
0.00024754
0.000242325
0.000237314
0.0002325
0.000227873
0.000223426
0.000219151
0.00021504
0.000211084
0.000207276
0.000203606
0.000200067
0.000196651
0.000193352
0.000190164
0.00018708
0.000184096
0.000181206
0.000178406
0.000175691
0.000173055
0.000170495
0.000168004
0.00016558
0.000163219
0.000160917
0.000158674
0.000156487
0.000154356
0.000152281
0.000150261
0.000148296
0.000146387
0.000144533
0.000142732
0.000140983
0.000139284
0.000137631
0.000136021
0.000134452
0.000132922
0.000131427
0.000129966
0.000128529
0.000127115
0.00012575
0.000270635
0.000264502
0.000258613
0.000252954
0.000247517
0.000242295
0.000237277
0.000232457
0.000227827
0.000223379
0.000219103
0.000214993
0.000211038
0.000207231
0.000203562
0.000200024
0.000196609
0.000193311
0.000190123
0.00018704
0.000184057
0.000181169
0.000178372
0.000175659
0.000173027
0.000170471
0.000167986
0.000165567
0.000163212
0.000160917
0.00015868
0.000156499
0.000154374
0.000152304
0.000150288
0.000148328
0.000146423
0.000144572
0.000142775
0.000141028
0.00013933
0.000137677
0.000136067
0.000134495
0.00013296
0.00013146
0.000129997
0.000128566
0.000127157
0.000125782
0.000270634
0.0002645
0.000258616
0.000252966
0.000247543
0.000242334
0.000237333
0.000232529
0.000227913
0.000223479
0.000219216
0.000215115
0.000211168
0.000207366
0.000203701
0.000200164
0.000196749
0.000193449
0.000190259
0.000187172
0.000184186
0.000181294
0.000178493
0.000175777
0.000173143
0.000170585
0.000168099
0.000165681
0.000163326
0.000161032
0.000158796
0.000156615
0.00015449
0.00015242
0.000150404
0.000148443
0.000146536
0.000144683
0.000142882
0.000141132
0.000139429
0.000137772
0.000136156
0.000134579
0.000133036
0.000131526
0.000130049
0.000128609
0.000127197
0.000125814
0.000270633
0.000264495
0.00025861
0.000252961
0.000247539
0.000242333
0.000237333
0.000232531
0.000227918
0.000223484
0.000219221
0.000215119
0.000211171
0.000207366
0.000203697
0.000200155
0.000196735
0.000193429
0.000190232
0.00018714
0.000184149
0.000181252
0.000178448
0.000175731
0.000173096
0.000170539
0.000168055
0.00016564
0.000163288
0.000160998
0.000158766
0.00015659
0.000154468
0.000152401
0.000150389
0.000148431
0.000146526
0.000144674
0.000142874
0.000141124
0.00013942
0.00013776
0.000136142
0.000134562
0.000133018
0.000131505
0.000130023
0.000128576
0.000127159
0.000125773
0.000270631
0.000264488
0.000258601
0.000252955
0.000247537
0.000242337
0.000237345
0.00023255
0.000227945
0.000223519
0.000219263
0.000215167
0.000211223
0.000207421
0.000203753
0.000200211
0.000196789
0.00019348
0.00019028
0.000187184
0.000184188
0.000181289
0.000178482
0.000175763
0.000173128
0.000170572
0.00016809
0.000165677
0.000163328
0.000161041
0.000158811
0.000156638
0.000154519
0.000152454
0.000150442
0.000148484
0.000146579
0.000144727
0.000142924
0.000141171
0.000139463
0.000137799
0.000136174
0.000134587
0.000133036
0.000131517
0.000130028
0.000128571
0.000127146
0.000125753
0.000270628
0.00026448
0.000258591
0.000252946
0.000247531
0.000242335
0.000237348
0.000232559
0.000227959
0.000223537
0.000219284
0.00021519
0.000211246
0.000207442
0.000203771
0.000200224
0.000196796
0.000193481
0.000190274
0.000187171
0.000184169
0.000181265
0.000178454
0.000175733
0.000173097
0.000170541
0.00016806
0.000165649
0.000163303
0.000161019
0.000158793
0.000156623
0.000154507
0.000152444
0.000150435
0.000148479
0.000146575
0.000144722
0.000142918
0.000141163
0.000139453
0.000137786
0.000136157
0.000134565
0.000133008
0.000131484
0.00012999
0.000128527
0.000127096
0.000125697
0.000270626
0.000264472
0.00025858
0.000252935
0.000247523
0.000242332
0.000237351
0.000232568
0.000227974
0.000223558
0.000219309
0.000215219
0.000211277
0.000207473
0.0002038
0.000200251
0.000196819
0.000193498
0.000190286
0.000187178
0.000184172
0.000181264
0.000178451
0.000175728
0.000173092
0.000170537
0.000168058
0.00016565
0.000163307
0.000161026
0.000158803
0.000156636
0.000154523
0.000152463
0.000150455
0.0001485
0.000146596
0.000144742
0.000142937
0.000141179
0.000139465
0.000137794
0.000136161
0.000134563
0.000132999
0.000131467
0.000129967
0.000128497
0.000127059
0.000125653
0.000270623
0.000264462
0.000258568
0.000252923
0.000247514
0.000242328
0.000237352
0.000232575
0.000227986
0.000223575
0.000219331
0.000215243
0.000211302
0.000207498
0.000203823
0.000200269
0.000196832
0.000193506
0.000190287
0.000187174
0.000184163
0.000181251
0.000178435
0.000175712
0.000173075
0.000170521
0.000168044
0.000165638
0.000163298
0.00016102
0.000158801
0.000156636
0.000154526
0.000152468
0.000150461
0.000148507
0.000146602
0.000144748
0.000142941
0.000141181
0.000139464
0.000137788
0.00013615
0.000134547
0.000132977
0.000131439
0.000129931
0.000128454
0.000127009
0.000125597
0.000270621
0.000264453
0.000258555
0.000252911
0.000247505
0.000242322
0.000237351
0.000232579
0.000227996
0.000223589
0.000219348
0.000215262
0.000211321
0.000207515
0.000203837
0.000200278
0.000196835
0.000193503
0.000190279
0.000187159
0.000184143
0.000181228
0.00017841
0.000175684
0.000173048
0.000170494
0.000168018
0.000165615
0.000163278
0.000161003
0.000158786
0.000156625
0.000154517
0.00015246
0.000150455
0.000148501
0.000146597
0.000144742
0.000142934
0.000141172
0.000139453
0.000137773
0.000136131
0.000134523
0.000132947
0.000131402
0.000129888
0.000128405
0.000126954
0.000125535
0.000270618
0.000264443
0.000258543
0.000252899
0.000247494
0.000242316
0.00023735
0.000232584
0.000228006
0.000223604
0.000219368
0.000215285
0.000211345
0.00020754
0.00020386
0.000200299
0.000196852
0.000193516
0.000190288
0.000187165
0.000184146
0.000181228
0.000178409
0.000175683
0.000173047
0.000170495
0.000168021
0.00016562
0.000163285
0.000161013
0.000158799
0.00015664
0.000154533
0.000152477
0.000150473
0.000148519
0.000146614
0.000144757
0.000142948
0.000141183
0.00013946
0.000137776
0.000136128
0.000134514
0.000132931
0.000131379
0.000129857
0.000128366
0.000126907
0.000125481
0.000270615
0.000264434
0.00025853
0.000252885
0.000247481
0.000242304
0.000237341
0.000232577
0.000228001
0.0002236
0.000219364
0.000215279
0.000211337
0.000207527
0.000203842
0.000200275
0.000196821
0.000193479
0.000190244
0.000187116
0.000184092
0.000181171
0.000178349
0.000175622
0.000172986
0.000170435
0.000167963
0.000165564
0.000163232
0.000160962
0.00015875
0.000156593
0.000154488
0.000152435
0.000150432
0.000148479
0.000146575
0.000144718
0.000142909
0.000141143
0.000139418
0.000137732
0.000136081
0.000134463
0.000132876
0.000131319
0.000129792
0.000128296
0.000126832
0.000125401
0.000270612
0.000264426
0.000258518
0.000252873
0.000247472
0.000242299
0.000237342
0.000232585
0.000228017
0.000223623
0.000219392
0.000215313
0.000211373
0.000207565
0.000203879
0.000200311
0.000196856
0.00019351
0.000190273
0.000187143
0.000184117
0.000181194
0.000178371
0.000175643
0.000173007
0.000170456
0.000167984
0.000165586
0.000163255
0.000160986
0.000158774
0.000156616
0.000154511
0.000152457
0.000150453
0.000148498
0.000146592
0.000144734
0.000142921
0.000141151
0.000139422
0.000137731
0.000136074
0.000134449
0.000132855
0.00013129
0.000129755
0.00012825
0.000126778
0.000125338
0.00027061
0.000264415
0.000258499
0.000252845
0.000247435
0.000242254
0.000237288
0.000232524
0.000227948
0.000223547
0.000219309
0.000215223
0.000211276
0.00020746
0.000203768
0.000200193
0.000196732
0.000193382
0.000190141
0.000187007
0.000183979
0.000181056
0.000178232
0.000175506
0.000172871
0.000170322
0.000167854
0.000165458
0.00016313
0.000160864
0.000158656
0.000156501
0.000154399
0.000152347
0.000150346
0.000148394
0.00014649
0.000144633
0.000142821
0.000141052
0.000139324
0.000137631
0.000135973
0.000134347
0.00013275
0.000131182
0.000129644
0.000128136
0.000126661
0.000125218
0.000270608
0.000264409
0.000258494
0.000252848
0.000247449
0.00024228
0.000237327
0.000232574
0.000228008
0.000223614
0.000219381
0.000215296
0.000211349
0.000207531
0.000203834
0.000200254
0.000196788
0.000193431
0.000190184
0.000187044
0.000184011
0.000181081
0.000178253
0.000175522
0.000172882
0.00017033
0.000167857
0.000165458
0.000163126
0.000160856
0.000158643
0.000156485
0.00015438
0.000152325
0.00015032
0.000148365
0.000146458
0.000144598
0.000142783
0.000141011
0.000139278
0.000137582
0.00013592
0.00013429
0.000132689
0.000131119
0.000129579
0.000128071
0.000126597
0.000125159
0.000270606
0.00026436
0.000258391
0.000252693
0.000247249
0.000242043
0.000237061
0.000232285
0.000227702
0.000223297
0.000219056
0.000214967
0.000211018
0.0002072
0.000203506
0.00019993
0.00019647
0.000193121
0.000189883
0.000186754
0.000183732
0.000180815
0.000178
0.000175283
0.000172659
0.000170121
0.000167664
0.000165281
0.000162966
0.000160713
0.000158518
0.000156378
0.00015429
0.000152254
0.000150269
0.000148334
0.000146448
0.00014461
0.000142818
0.000141071
0.000139365
0.000137697
0.000136066
0.00013447
0.000132908
0.000131381
0.000129891
0.000128443
0.000127041
0.000125695
0.000270614
0.000264388
0.00025846
0.000252801
0.000247399
0.00024224
0.000237319
0.000232618
0.000228121
0.000223811
0.000219674
0.000215696
0.000211863
0.000208167
0.000204598
0.00020115
0.000197818
0.0001946
0.000191494
0.000188497
0.00018561
0.000182829
0.000180152
0.000177576
0.000175095
0.000172703
0.000170393
0.00016816
0.000165995
0.000163893
0.000161849
0.00015986
0.000157923
0.000156038
0.000154204
0.000152422
0.000150691
0.000149012
0.000147383
0.000145803
0.000144271
0.000142783
0.000141337
0.000139935
0.000138577
0.000137267
0.000136013
0.000134828
0.000133732
0.000132763
0.000272565
0.000269197
0.00026598
0.0002629
0.000259938
0.000257079
0.000254304
0.000251605
0.000248978
0.000246417
0.000243919
0.000241479
0.000239095
0.000236764
0.000234486
0.000232261
0.000230087
0.000227967
0.000225901
0.000223889
0.000221931
0.000220028
0.000218177
0.000216377
0.000214624
0.000212916
0.00021125
0.000209621
0.000208027
0.000206465
0.000204934
0.000203434
0.000201962
0.00020052
0.000199106
0.000197722
0.000196365
0.000195035
0.00019373
0.000192447
0.000191184
0.000189939
0.000188711
0.000187497
0.000186297
0.000185111
0.00018394
0.000182784
0.00018164
0.000180507
0.00013376
6.072e-05
6.5009e-05
8.07066e-05
9.88179e-05
0.000113155
0.000119065
0.000114605
0.000102433
9.04797e-05
8.34794e-05
7.52952e-05
7.19507e-05
6.84934e-05
6.30793e-05
5.94319e-05
5.68261e-05
5.24848e-05
7.38492e-05
0.000299054
0.000132608
6.05031e-05
6.53653e-05
8.13327e-05
9.96062e-05
0.000113948
0.000119688
0.000114942
0.000102535
9.06217e-05
8.37851e-05
7.5071e-05
7.20489e-05
6.765e-05
6.21616e-05
5.88931e-05
5.64624e-05
5.15349e-05
7.30392e-05
0.000301931
0.000131504
6.02721e-05
6.5731e-05
8.19631e-05
0.000100393
0.000114734
0.00012031
0.000115293
0.000102683
9.08344e-05
8.41461e-05
7.48766e-05
7.68534e-05
6.63032e-05
6.11588e-05
5.82854e-05
5.5963e-05
5.02413e-05
7.36089e-05
0.000304883
0.000130354
6.00854e-05
6.61046e-05
8.2597e-05
0.000101176
0.000115513
0.000120928
0.000115663
0.000102885
9.11137e-05
8.45488e-05
7.46725e-05
7.94737e-05
6.46709e-05
6.01205e-05
5.75951e-05
5.52701e-05
4.86458e-05
7.58112e-05
0.000307877
0.000129208
5.99352e-05
6.64853e-05
8.32326e-05
0.000101953
0.000116284
0.000121547
0.000116058
0.00010315
9.14726e-05
8.50108e-05
7.454e-05
7.20396e-05
6.30325e-05
5.90414e-05
5.67688e-05
5.42999e-05
4.76919e-05
7.95808e-05
0.000310895
0.000128063
5.98243e-05
6.68699e-05
8.38669e-05
0.00010273
0.000117048
0.000122146
0.00011643
0.000103463
9.19882e-05
8.55044e-05
7.45694e-05
6.03753e-05
6.11895e-05
5.7871e-05
5.57394e-05
5.29712e-05
4.78969e-05
8.4869e-05
0.000313922
0.0001269
5.98075e-05
6.73026e-05
8.45471e-05
0.000103513
0.000117759
0.000122655
0.000116784
0.000103889
9.26649e-05
8.60074e-05
7.427e-05
5.40032e-05
5.83489e-05
5.64126e-05
5.43843e-05
5.12541e-05
4.96058e-05
9.15637e-05
0.000316945
0.000125688
5.99454e-05
6.77464e-05
8.52172e-05
0.000104273
0.000118456
0.000123192
0.000117202
0.000104396
9.34104e-05
8.66095e-05
7.37615e-05
5.05293e-05
5.61912e-05
5.46647e-05
5.2689e-05
4.93225e-05
5.30569e-05
9.95143e-05
0.000319947
0.000124498
6.00833e-05
6.81777e-05
8.58679e-05
0.000105017
0.000119152
0.000123759
0.000117682
0.000104981
9.42293e-05
8.7338e-05
7.36653e-05
4.19906e-05
5.34609e-05
5.25223e-05
5.05983e-05
4.85331e-05
5.80528e-05
0.000108524
0.000322912
0.000123329
6.02196e-05
6.85931e-05
8.64945e-05
0.000105741
0.000119849
0.000124358
0.000118229
0.000105645
9.51314e-05
8.82836e-05
7.4859e-05
4.86915e-05
5.04459e-05
5.01219e-05
4.89136e-05
4.94253e-05
6.44679e-05
0.000118378
0.000325824
0.000122183
6.03522e-05
6.89886e-05
8.70924e-05
0.000106441
0.000120545
0.000124994
0.000118845
0.000106383
9.60928e-05
8.93333e-05
7.60552e-05
5.19255e-05
4.79843e-05
4.83293e-05
4.8457e-05
5.22014e-05
7.21123e-05
0.000128839
0.000328665
0.00012106
6.04794e-05
6.93606e-05
8.76573e-05
0.000107116
0.000121241
0.00012567
0.000119543
0.000107215
9.71488e-05
9.05564e-05
7.74959e-05
5.43056e-05
4.69212e-05
4.78593e-05
4.97136e-05
5.67997e-05
8.07505e-05
0.000139663
0.000331419
0.000119961
6.05998e-05
6.97056e-05
8.81857e-05
0.000107762
0.000121936
0.000126387
0.00012032
0.000108138
9.82991e-05
9.19822e-05
7.9369e-05
5.72332e-05
4.77952e-05
4.91689e-05
5.28172e-05
6.2972e-05
9.01206e-05
0.000150609
0.00033407
0.000118889
6.07126e-05
7.00205e-05
8.86739e-05
0.000108378
0.000122632
0.000127151
0.000121185
0.000109156
9.95414e-05
9.3615e-05
8.17297e-05
6.1022e-05
5.0698e-05
5.23405e-05
5.76164e-05
7.03808e-05
9.99545e-05
0.000161455
0.000336606
0.000117847
6.08171e-05
7.03028e-05
8.91171e-05
0.000108959
0.000123327
0.000127963
0.000122143
0.000110277
0.000100874
9.54417e-05
8.45613e-05
6.56561e-05
5.53639e-05
5.71627e-05
6.37976e-05
7.86629e-05
0.000109995
0.000172008
0.000339011
0.000116837
6.09119e-05
7.05486e-05
8.95111e-05
0.000109501
0.000124017
0.000128823
0.000123197
0.000111506
0.000102292
9.74352e-05
8.77956e-05
7.09666e-05
6.13465e-05
6.32676e-05
7.09834e-05
8.74688e-05
0.000120011
0.00018211
0.000341273
0.000115859
6.09954e-05
7.07532e-05
8.98488e-05
0.000109996
0.000124699
0.000129729
0.000124351
0.000112848
0.00010379
9.95534e-05
9.13276e-05
7.67249e-05
6.81665e-05
7.02404e-05
7.8797e-05
9.64865e-05
0.000129802
0.000191641
0.000343382
0.000114915
6.10652e-05
7.09114e-05
9.01231e-05
0.000110438
0.000125367
0.00013068
0.000125606
0.00011431
0.000105361
0.000101744
9.50358e-05
8.27006e-05
7.53972e-05
7.76891e-05
8.6899e-05
0.000105454
0.000139209
0.000200517
0.000345326
0.000114005
6.1119e-05
7.10181e-05
9.03268e-05
0.00011082
0.000126016
0.000131675
0.000126965
0.000115897
0.000107002
0.000103955
9.87967e-05
8.86837e-05
8.26974e-05
8.52805e-05
9.50057e-05
0.000114163
0.000148105
0.000208683
0.000347097
0.000113129
6.1155e-05
7.10688e-05
9.04529e-05
0.000111136
0.00012664
0.000132709
0.00012843
0.000117619
0.000108717
0.00010614
0.000102496
9.44994e-05
8.98141e-05
9.27522e-05
0.000102895
0.000122456
0.000156402
0.000216112
0.00034869
0.00011229
6.1172e-05
7.10589e-05
9.04945e-05
0.000111377
0.000127233
0.00013378
0.00013
0.000119481
0.000110513
0.000108263
0.00010604
0.00010001
9.65658e-05
9.99097e-05
0.000110402
0.000130221
0.000164044
0.000222802
0.000350102
0.000111491
6.11695e-05
7.09842e-05
9.04438e-05
0.000111533
0.000127786
0.000134878
0.000131672
0.000121493
0.000112406
0.000110308
0.00010936
0.000105123
0.000102836
0.000106621
0.000117415
0.000137389
0.000171001
0.000228766
0.000351332
0.000110735
6.11468e-05
7.084e-05
9.02912e-05
0.000111593
0.000128286
0.000135996
0.000133444
0.000123659
0.000114417
0.000112276
0.00011242
0.000109789
0.000108566
0.00011281
0.000123869
0.000143924
0.00017727
0.000234037
0.000352381
0.000110024
6.11031e-05
7.06201e-05
9.00252e-05