/*--------------------------------*- C++ -*----------------------------------*\
  =========                 |
  \\      /  F ield         | OpenFOAM: The Open Source CFD Toolbox
   \\    /   O peration     | Website:  https://openfoam.org
    \\  /    A nd           | Version:  8
     \\/     M anipulation  |
\*---------------------------------------------------------------------------*/
FoamFile
{
    version     2.0;
    format      ascii;
    class       volScalarField;
    location    "400";
    object      p;
}
// * * * * * * * * * * * * * * * * * * * * * * * * * * * * * * * * * * * * * //

dimensions      [1 -1 -2 0 0 0 0];

internalField   nonuniform List<scalar> 
8400
(
33942.5
77770.7
121127
164960
209994
256884
306224
358595
414606
474846
539842
610043
685844
767615
855705
950449
1.05209e+06
1.1608e+06
1.27675e+06
1.39999e+06
1.53056e+06
1.66841e+06
1.81341e+06
1.96554e+06
2.12476e+06
2.29076e+06
2.46315e+06
2.64156e+06
2.82529e+06
3.01331e+06
3.2044e+06
3.397e+06
3.58908e+06
3.77825e+06
3.96172e+06
4.13664e+06
4.29989e+06
4.44847e+06
4.57958e+06
4.69082e+06
4.78039e+06
4.84729e+06
4.89129e+06
4.91318e+06
4.91515e+06
4.90128e+06
4.87691e+06
4.84823e+06
4.81914e+06
4.78009e+06
35755.2
77587.8
119925
162987
207371
253653
302417
354257
409750
469430
533805
603337
678434
759491
846875
940883
1.04172e+06
1.14956e+06
1.26456e+06
1.38674e+06
1.51604e+06
1.65243e+06
1.79586e+06
1.94625e+06
2.10349e+06
2.26735e+06
2.43747e+06
2.61348e+06
2.79469e+06
2.98014e+06
3.16868e+06
3.35872e+06
3.54826e+06
3.73499e+06
3.91629e+06
4.08928e+06
4.25101e+06
4.39852e+06
4.52905e+06
4.64028e+06
4.73053e+06
4.79886e+06
4.84522e+06
4.87046e+06
4.87672e+06
4.86767e+06
4.84819e+06
4.82391e+06
4.79576e+06
4.75296e+06
38069.6
78151
119449
161590
205100
250492
298337
349243
403799
462545
525990
594630
668906
749191
835816
929070
1.02915e+06
1.13619e+06
1.25026e+06
1.37135e+06
1.49938e+06
1.63435e+06
1.7762e+06
1.92476e+06
2.07993e+06
2.24153e+06
2.40926e+06
2.58277e+06
2.76141e+06
2.94424e+06
3.13019e+06
3.3177e+06
3.50482e+06
3.68925e+06
3.86849e+06
4.0397e+06
4.1999e+06
4.34627e+06
4.47618e+06
4.58735e+06
4.67804e+06
4.74742e+06
4.79567e+06
4.82373e+06
4.83382e+06
4.82919e+06
4.81433e+06
4.7928e+06
4.76076e+06
4.71068e+06
38125
76540.1
116655
157675
200058
244307
291010
340782
394200
451811
514161
581770
655057
734375
820044
912341
1.01142e+06
1.11733e+06
1.2301e+06
1.34975e+06
1.47617e+06
1.60925e+06
1.74894e+06
1.89509e+06
2.04753e+06
2.2062e+06
2.37088e+06
2.54118e+06
2.71658e+06
2.89631e+06
3.07923e+06
3.26385e+06
3.44826e+06
3.63022e+06
3.80728e+06
3.97668e+06
4.1355e+06
4.28089e+06
4.41031e+06
4.52174e+06
4.61342e+06
4.68452e+06
4.73553e+06
4.76732e+06
4.78219e+06
4.78306e+06
4.7721e+06
4.74806e+06
4.70793e+06
4.65331e+06
38697
76312.5
115482
155375
196545
239557
285023
333556
385737
442161
503406
569968
642255
720623
805379
896745
994832
1.09966e+06
1.21121e+06
1.32945e+06
1.45422e+06
1.58535e+06
1.72277e+06
1.86632e+06
2.01588e+06
2.17143e+06
2.33282e+06
2.49977e+06
2.67186e+06
2.84839e+06
3.0283e+06
3.21014e+06
3.39191e+06
3.57138e+06
3.74622e+06
3.91373e+06
4.07094e+06
4.21496e+06
4.3434e+06
4.45465e+06
4.54694e+06
4.61944e+06
4.67325e+06
4.70906e+06
4.72845e+06
4.73087e+06
4.71562e+06
4.68431e+06
4.63938e+06
4.58453e+06
37531.2
74374.6
112606
151406
191409
233233
277524
324906
375982
431372
491658
557318
628764
706364
790393
881015
978308
1.08225e+06
1.19277e+06
1.30974e+06
1.43297e+06
1.56227e+06
1.69749e+06
1.83849e+06
1.98517e+06
2.13756e+06
2.29561e+06
2.45912e+06
2.62781e+06
2.80116e+06
2.97828e+06
3.15764e+06
3.33719e+06
3.5146e+06
3.68743e+06
3.85328e+06
4.00918e+06
4.15191e+06
4.27911e+06
4.38995e+06
4.48269e+06
4.55643e+06
4.6127e+06
4.64962e+06
4.66583e+06
4.66276e+06
4.64201e+06
4.60635e+06
4.55984e+06
4.50756e+06
37342.1
74104.7
111448
149064
187839
228471
271619
317912
367967
422417
481836
546703
617449
694457
777967
868074
964798
1.0681e+06
1.17784e+06
1.29383e+06
1.41584e+06
1.54364e+06
1.67711e+06
1.81608e+06
1.9604e+06
2.11004e+06
2.26497e+06
2.42511e+06
2.59038e+06
2.7604e+06
2.93462e+06
3.11163e+06
3.28924e+06
3.46494e+06
3.63615e+06
3.8007e+06
3.95577e+06
4.09765e+06
4.22379e+06
4.33387e+06
4.42579e+06
4.4969e+06
4.548e+06
4.57883e+06
4.58966e+06
4.58171e+06
4.55716e+06
4.51945e+06
4.4737e+06
4.42629e+06
36812.8
73611.8
109769
146194
183929
223622
265880
311325
360591
414302
473025
537284
607548
684161
767296
857020
953332
1.05615e+06
1.1653e+06
1.28055e+06
1.4017e+06
1.52856e+06
1.66105e+06
1.79899e+06
1.94218e+06
2.0904e+06
2.2435e+06
2.40137e+06
2.56391e+06
2.73095e+06
2.90227e+06
3.07691e+06
3.25283e+06
3.42732e+06
3.59753e+06
3.76115e+06
3.91558e+06
4.05663e+06
4.18044e+06
4.28531e+06
4.37003e+06
4.43365e+06
4.4766e+06
4.49979e+06
4.50445e+06
4.4922e+06
4.46541e+06
4.42792e+06
4.38549e+06
4.34579e+06
37989.8
74543.9
108746
144076
181065
220093
261714
306559
355275
408474
466725
530596
600537
676823
759590
848884
944671
1.04685e+06
1.15525e+06
1.26969e+06
1.39e+06
1.5161e+06
1.64809e+06
1.78591e+06
1.92935e+06
2.07791e+06
2.23111e+06
2.38869e+06
2.55033e+06
2.71575e+06
2.88478e+06
3.05712e+06
3.23147e+06
3.40522e+06
3.5752e+06
3.7382e+06
3.8908e+06
4.02866e+06
4.14745e+06
4.2445e+06
4.31862e+06
4.37045e+06
4.40175e+06
4.41509e+06
4.41294e+06
4.39736e+06
4.37067e+06
4.3367e+06
4.30102e+06
4.27367e+06
39676.2
76177.9
108272
142975
179565
218169
259365
303828
352225
405178
463280
527082
596976
673185
755797
844803
940147
1.04174e+06
1.14945e+06
1.26317e+06
1.38282e+06
1.50823e+06
1.63952e+06
1.77728e+06
1.92166e+06
2.07198e+06
2.2273e+06
2.38682e+06
2.54987e+06
2.71599e+06
2.88492e+06
3.05661e+06
3.23018e+06
3.40349e+06
3.57346e+06
3.73616e+06
3.88676e+06
4.01972e+06
4.13019e+06
4.21517e+06
4.2741e+06
4.30935e+06
4.32522e+06
4.32658e+06
4.31767e+06
4.30106e+06
4.27811e+06
4.25295e+06
4.22874e+06
4.22075e+06
35446
75507.7
109592
144518
181089
219593
260651
304955
353184
406001
464077
528012
598180
674690
757504
846504
941579
1.04267e+06
1.14971e+06
1.26271e+06
1.38182e+06
1.50728e+06
1.63945e+06
1.77895e+06
1.9259e+06
2.07966e+06
2.23925e+06
2.40344e+06
2.57091e+06
2.74057e+06
2.9116e+06
3.08361e+06
3.256e+06
3.4276e+06
3.59606e+06
3.75711e+06
3.90444e+06
4.03084e+06
4.13032e+06
4.19945e+06
4.23874e+06
4.25295e+06
4.25005e+06
4.23837e+06
4.22416e+06
4.2107e+06
4.19644e+06
4.18767e+06
4.17984e+06
4.19788e+06
25877.1
71609.1
110039
146374
183686
222975
264949
310323
359815
414133
473943
539739
611727
689816
773750
863218
957972
1.05796e+06
1.16332e+06
1.27446e+06
1.39212e+06
1.51721e+06
1.65062e+06
1.79314e+06
1.94485e+06
2.1051e+06
2.27248e+06
2.44491e+06
2.61994e+06
2.7952e+06
2.96874e+06
3.13965e+06
3.30819e+06
3.47512e+06
3.63985e+06
3.79807e+06
3.94146e+06
4.06035e+06
4.14707e+06
4.19758e+06
4.21398e+06
4.20415e+06
4.18185e+06
4.15901e+06
4.14373e+06
4.1403e+06
4.14007e+06
4.15492e+06
4.16324e+06
4.19507e+06
17551.7
65984.7
111221
152303
193061
235775
281414
330658
384177
442583
506352
575700
650547
730503
814956
903292
995120
1.09051e+06
1.19018e+06
1.29548e+06
1.40833e+06
1.5308e+06
1.66473e+06
1.81147e+06
1.97123e+06
2.14299e+06
2.32443e+06
2.51183e+06
2.70052e+06
2.8854e+06
3.06206e+06
3.2286e+06
3.38699e+06
3.54237e+06
3.69838e+06
3.85132e+06
3.98949e+06
4.09977e+06
4.1727e+06
4.20288e+06
4.19655e+06
4.16383e+06
4.12799e+06
4.1025e+06
4.09435e+06
4.10867e+06
4.12297e+06
4.15405e+06
4.17829e+06
4.19227e+06
25972.3
75716.8
127527
175187
221401
269528
320945
376279
436085
500803
570620
645353
724429
806868
891382
976701
1.06203e+06
1.14761e+06
1.23511e+06
1.3276e+06
1.42916e+06
1.54415e+06
1.67633e+06
1.82803e+06
1.99983e+06
2.19006e+06
2.39472e+06
2.6075e+06
2.81978e+06
3.02143e+06
3.20262e+06
3.35797e+06
3.49285e+06
3.6224e+06
3.75999e+06
3.90271e+06
4.03147e+06
4.1296e+06
4.18731e+06
4.1964e+06
4.17411e+06
4.12741e+06
4.0939e+06
4.08207e+06
4.08669e+06
4.11406e+06
4.1368e+06
4.1529e+06
4.19161e+06
4.22964e+06
6914.27
71438.7
133542
189535
243593
299956
360345
425327
495292
570439
650600
735094
822611
911168
998206
1.08101e+06
1.15757e+06
1.22778e+06
1.2945e+06
1.36376e+06
1.44373e+06
1.54294e+06
1.66855e+06
1.82504e+06
2.01353e+06
2.23148e+06
2.47255e+06
2.72653e+06
2.97911e+06
3.21183e+06
3.40333e+06
3.53766e+06
3.62647e+06
3.70685e+06
3.81228e+06
3.93763e+06
4.0465e+06
4.12379e+06
4.16406e+06
4.15245e+06
4.13101e+06
4.09291e+06
4.07897e+06
4.09078e+06
4.10208e+06
4.11634e+06
4.15211e+06
4.18873e+06
4.22373e+06
4.25188e+06
39925.4
107491
177965
243294
306078
371731
442570
519127
601689
690332
784533
882897
983055
1.08153e+06
1.17365e+06
1.25388e+06
1.31704e+06
1.36115e+06
1.39046e+06
1.41587e+06
1.45315e+06
1.51867e+06
1.62558e+06
1.78164e+06
1.9887e+06
2.24278e+06
2.53462e+06
2.84969e+06
3.16715e+06
3.45727e+06
3.67712e+06
3.77959e+06
3.79002e+06
3.79212e+06
3.85462e+06
3.95746e+06
4.02902e+06
4.07402e+06
4.10073e+06
4.08467e+06
4.08765e+06
4.08905e+06
4.07923e+06
4.0862e+06
4.1153e+06
4.14911e+06
4.18277e+06
4.20928e+06
4.23059e+06
4.24867e+06
2578.52
102850
190751
268353
343926
424136
511372
606177
708892
819525
937215
1.05988e+06
1.18389e+06
1.30369e+06
1.41139e+06
1.49657e+06
1.54684e+06
1.55454e+06
1.5248e+06
1.47666e+06
1.44054e+06
1.44635e+06
1.51635e+06
1.66191e+06
1.88439e+06
2.17718e+06
2.5279e+06
2.91952e+06
3.32783e+06
3.71458e+06
4.00282e+06
4.06561e+06
3.96272e+06
3.86749e+06
3.89282e+06
3.97724e+06
4.00754e+06
4.02795e+06
4.06442e+06
4.06977e+06
4.04781e+06
4.06092e+06
4.08631e+06
4.1144e+06
4.14163e+06
4.16617e+06
4.18808e+06
4.20666e+06
4.22359e+06
4.24044e+06
64673.3
164851
256200
339633
423192
513877
614180
724910
846615
979334
1.12204e+06
1.27212e+06
1.42487e+06
1.5728e+06
1.70472e+06
1.80376e+06
1.84183e+06
1.79733e+06
1.67629e+06
1.51053e+06
1.35852e+06
1.27144e+06
1.28207e+06
1.40101e+06
1.62513e+06
1.9428e+06
2.33971e+06
2.80066e+06
3.30641e+06
3.82455e+06
4.24239e+06
4.28064e+06
4.05748e+06
3.89123e+06
3.90002e+06
3.9813e+06
4.02234e+06
3.99392e+06
3.99702e+06
4.03342e+06
4.05817e+06
4.0848e+06
4.10692e+06
4.12618e+06
4.14422e+06
4.16241e+06
4.18128e+06
4.19985e+06
4.21777e+06
4.23538e+06
-338.445
181083
295232
390302
490201
601174
725496
864983
1.02124e+06
1.19522e+06
1.38638e+06
1.59181e+06
1.80532e+06
2.01625e+06
2.20763e+06
2.3522e+06
2.38032e+06
2.25505e+06
1.99306e+06
1.65245e+06
1.34802e+06
1.14962e+06
1.09166e+06
1.16849e+06
1.36851e+06
1.67512e+06
2.07688e+06
2.56481e+06
3.12689e+06
3.73245e+06
4.23092e+06
4.39223e+06
4.16691e+06
3.91316e+06
3.82902e+06
3.88574e+06
3.96251e+06
4.00664e+06
4.03592e+06
4.05981e+06
4.0773e+06
4.09435e+06
4.11098e+06
4.12802e+06
4.14592e+06
4.1646e+06
4.18391e+06
4.20293e+06
4.22066e+06
4.23699e+06
138617
269088
352360
438236
537233
650795
779773
925377
1.08871e+06
1.27006e+06
1.46792e+06
1.67794e+06
1.89167e+06
2.09528e+06
2.26822e+06
2.38324e+06
2.37664e+06
2.24129e+06
1.96385e+06
1.61934e+06
1.33625e+06
1.17011e+06
1.14041e+06
1.22943e+06
1.42023e+06
1.69531e+06
2.04745e+06
2.47321e+06
2.96862e+06
3.51399e+06
4.0326e+06
4.29266e+06
4.18493e+06
4.02071e+06
3.93777e+06
3.94138e+06
3.97854e+06
4.01274e+06
4.0378e+06
4.0581e+06
4.07584e+06
4.0936e+06
4.11199e+06
4.1307e+06
4.14935e+06
4.16753e+06
4.18512e+06
4.2018e+06
4.21653e+06
4.22891e+06
4.86641e+06
4.8659e+06
4.86565e+06
4.86557e+06
4.86553e+06
4.86551e+06
4.8655e+06
4.8655e+06
4.86551e+06
4.86551e+06
4.86552e+06
4.86553e+06
4.86553e+06
4.86554e+06
4.86554e+06
4.86554e+06
4.86553e+06
4.86552e+06
4.86551e+06
4.86549e+06
4.86546e+06
4.86542e+06
4.86539e+06
4.86535e+06
4.86531e+06
4.86527e+06
4.86524e+06
4.86522e+06
4.8652e+06
4.8652e+06
4.8652e+06
4.8652e+06
4.86521e+06
4.86521e+06
4.86521e+06
4.86521e+06
4.86519e+06
4.86516e+06
4.86513e+06
4.86508e+06
4.86502e+06
4.86496e+06
4.86489e+06
4.86481e+06
4.86474e+06
4.86466e+06
4.86457e+06
4.86447e+06
4.86436e+06
4.86422e+06
4.86471e+06
4.865e+06
4.8651e+06
4.86515e+06
4.86519e+06
4.86523e+06
4.86526e+06
4.86529e+06
4.86531e+06
4.86533e+06
4.86535e+06
4.86537e+06
4.86538e+06
4.86539e+06
4.8654e+06
4.8654e+06
4.8654e+06
4.8654e+06
4.86538e+06
4.86536e+06
4.86534e+06
4.8653e+06
4.86527e+06
4.86523e+06
4.86519e+06
4.86516e+06
4.86513e+06
4.86511e+06
4.86509e+06
4.86509e+06
4.86509e+06
4.86509e+06
4.8651e+06
4.86511e+06
4.86511e+06
4.8651e+06
4.86509e+06
4.86506e+06
4.86502e+06
4.86497e+06
4.86491e+06
4.86485e+06
4.86478e+06
4.86471e+06
4.86464e+06
4.86456e+06
4.86448e+06
4.86439e+06
4.86428e+06
4.86417e+06
4.86507e+06
4.86521e+06
4.86529e+06
4.86531e+06
4.86531e+06
4.86532e+06
4.86533e+06
4.86533e+06
4.86534e+06
4.86534e+06
4.86535e+06
4.86535e+06
4.86535e+06
4.86536e+06
4.86536e+06
4.86536e+06
4.86535e+06
4.86534e+06
4.86533e+06
4.8653e+06
4.86528e+06
4.86524e+06
4.8652e+06
4.86516e+06
4.86512e+06
4.86509e+06
4.86506e+06
4.86503e+06
4.86502e+06
4.86501e+06
4.86501e+06
4.86501e+06
4.86502e+06
4.86502e+06
4.86502e+06
4.86501e+06
4.865e+06
4.86497e+06
4.86493e+06
4.86488e+06
4.86483e+06
4.86477e+06
4.8647e+06
4.86463e+06
4.86456e+06
4.86449e+06
4.86441e+06
4.86433e+06
4.86424e+06
4.86414e+06
4.865e+06
4.86502e+06
4.86504e+06
4.86505e+06
4.86506e+06
4.86507e+06
4.86509e+06
4.8651e+06
4.86512e+06
4.86513e+06
4.86515e+06
4.86516e+06
4.86517e+06
4.86518e+06
4.86519e+06
4.86519e+06
4.8652e+06
4.86519e+06
4.86518e+06
4.86516e+06
4.86514e+06
4.86511e+06
4.86507e+06
4.86504e+06
4.865e+06
4.86497e+06
4.86494e+06
4.86491e+06
4.8649e+06
4.86489e+06
4.86489e+06
4.86489e+06
4.8649e+06
4.8649e+06
4.8649e+06
4.86489e+06
4.86488e+06
4.86485e+06
4.86481e+06
4.86477e+06
4.86472e+06
4.86466e+06
4.8646e+06
4.86453e+06
4.86447e+06
4.8644e+06
4.86434e+06
4.86427e+06
4.86419e+06
4.86411e+06
4.86493e+06
4.86495e+06
4.86498e+06
4.865e+06
4.86502e+06
4.86504e+06
4.86506e+06
4.86508e+06
4.86509e+06
4.8651e+06
4.86511e+06
4.86512e+06
4.86513e+06
4.86514e+06
4.86514e+06
4.86515e+06
4.86515e+06
4.86514e+06
4.86513e+06
4.86511e+06
4.86509e+06
4.86506e+06
4.86502e+06
4.86498e+06
4.86494e+06
4.86491e+06
4.86487e+06
4.86485e+06
4.86483e+06
4.86482e+06
4.86482e+06
4.86482e+06
4.86482e+06
4.86482e+06
4.86482e+06
4.86481e+06
4.86479e+06
4.86476e+06
4.86473e+06
4.86468e+06
4.86463e+06
4.86458e+06
4.86452e+06
4.86446e+06
4.86441e+06
4.86435e+06
4.86429e+06
4.86423e+06
4.86417e+06
4.8641e+06
4.86485e+06
4.86486e+06
4.86487e+06
4.86488e+06
4.86489e+06
4.86491e+06
4.86492e+06
4.86493e+06
4.86494e+06
4.86495e+06
4.86496e+06
4.86496e+06
4.86497e+06
4.86498e+06
4.86499e+06
4.865e+06
4.865e+06
4.865e+06
4.86499e+06
4.86498e+06
4.86496e+06
4.86493e+06
4.8649e+06
4.86486e+06
4.86482e+06
4.86479e+06
4.86476e+06
4.86473e+06
4.86471e+06
4.8647e+06
4.8647e+06
4.8647e+06
4.8647e+06
4.8647e+06
4.86469e+06
4.86468e+06
4.86466e+06
4.86464e+06
4.8646e+06
4.86456e+06
4.86452e+06
4.86447e+06
4.86442e+06
4.86437e+06
4.86432e+06
4.86428e+06
4.86423e+06
4.86418e+06
4.86413e+06
4.86407e+06
4.86476e+06
4.86476e+06
4.86477e+06
4.86479e+06
4.8648e+06
4.86481e+06
4.86483e+06
4.86484e+06
4.86485e+06
4.86486e+06
4.86487e+06
4.86488e+06
4.86489e+06
4.8649e+06
4.86491e+06
4.86492e+06
4.86493e+06
4.86493e+06
4.86493e+06
4.86491e+06
4.86489e+06
4.86487e+06
4.86484e+06
4.8648e+06
4.86476e+06
4.86473e+06
4.86469e+06
4.86467e+06
4.86464e+06
4.86463e+06
4.86462e+06
4.86461e+06
4.86461e+06
4.86461e+06
4.8646e+06
4.86459e+06
4.86457e+06
4.86454e+06
4.86451e+06
4.86447e+06
4.86443e+06
4.86439e+06
4.86435e+06
4.86431e+06
4.86427e+06
4.86423e+06
4.86419e+06
4.86415e+06
4.86411e+06
4.86406e+06
4.86467e+06
4.86467e+06
4.86468e+06
4.86469e+06
4.8647e+06
4.86471e+06
4.86472e+06
4.86473e+06
4.86473e+06
4.86474e+06
4.86475e+06
4.86476e+06
4.86477e+06
4.86478e+06
4.86479e+06
4.8648e+06
4.8648e+06
4.86481e+06
4.86481e+06
4.8648e+06
4.86478e+06
4.86476e+06
4.86473e+06
4.8647e+06
4.86466e+06
4.86462e+06
4.86459e+06
4.86456e+06
4.86453e+06
4.86452e+06
4.8645e+06
4.8645e+06
4.86449e+06
4.86448e+06
4.86448e+06
4.86446e+06
4.86444e+06
4.86442e+06
4.86439e+06
4.86436e+06
4.86432e+06
4.86429e+06
4.86425e+06
4.86422e+06
4.86419e+06
4.86416e+06
4.86414e+06
4.86411e+06
4.86408e+06
4.86404e+06
4.86457e+06
4.86458e+06
4.86458e+06
4.86459e+06
4.8646e+06
4.86461e+06
4.86461e+06
4.86462e+06
4.86463e+06
4.86463e+06
4.86464e+06
4.86465e+06
4.86466e+06
4.86467e+06
4.86469e+06
4.8647e+06
4.86471e+06
4.86472e+06
4.86472e+06
4.86472e+06
4.8647e+06
4.86468e+06
4.86466e+06
4.86462e+06
4.86459e+06
4.86455e+06
4.86451e+06
4.86448e+06
4.86445e+06
4.86443e+06
4.86442e+06
4.8644e+06
4.86439e+06
4.86438e+06
4.86437e+06
4.86436e+06
4.86434e+06
4.86432e+06
4.86429e+06
4.86426e+06
4.86424e+06
4.86421e+06
4.86418e+06
4.86416e+06
4.86414e+06
4.86412e+06
4.8641e+06
4.86408e+06
4.86406e+06
4.86403e+06
4.86448e+06
4.86448e+06
4.86448e+06
4.86449e+06
4.8645e+06
4.8645e+06
4.86451e+06
4.86451e+06
4.86452e+06
4.86452e+06
4.86453e+06
4.86454e+06
4.86455e+06
4.86456e+06
4.86457e+06
4.86459e+06
4.8646e+06
4.86461e+06
4.86462e+06
4.86462e+06
4.86461e+06
4.86459e+06
4.86456e+06
4.86453e+06
4.86449e+06
4.86446e+06
4.86442e+06
4.86439e+06
4.86436e+06
4.86433e+06
4.86431e+06
4.86429e+06
4.86428e+06
4.86427e+06
4.86426e+06
4.86424e+06
4.86422e+06
4.8642e+06
4.86418e+06
4.86416e+06
4.86414e+06
4.86411e+06
4.8641e+06
4.86408e+06
4.86407e+06
4.86406e+06
4.86405e+06
4.86404e+06
4.86403e+06
4.86402e+06
4.86438e+06
4.86439e+06
4.86439e+06
4.86439e+06
4.8644e+06
4.8644e+06
4.8644e+06
4.86441e+06
4.86441e+06
4.86441e+06
4.86442e+06
4.86442e+06
4.86443e+06
4.86445e+06
4.86447e+06
4.86448e+06
4.8645e+06
4.86451e+06
4.86452e+06
4.86452e+06
4.86452e+06
4.8645e+06
4.86448e+06
4.86444e+06
4.86441e+06
4.86437e+06
4.86433e+06
4.86429e+06
4.86426e+06
4.86423e+06
4.86421e+06
4.86419e+06
4.86417e+06
4.86416e+06
4.86414e+06
4.86413e+06
4.86411e+06
4.86409e+06
4.86408e+06
4.86406e+06
4.86404e+06
4.86403e+06
4.86402e+06
4.86401e+06
4.86401e+06
4.86401e+06
4.86401e+06
4.86401e+06
4.86401e+06
4.864e+06
4.86429e+06
4.86429e+06
4.86429e+06
4.86429e+06
4.8643e+06
4.8643e+06
4.8643e+06
4.8643e+06
4.8643e+06
4.8643e+06
4.86431e+06
4.86432e+06
4.86433e+06
4.86434e+06
4.86436e+06
4.86438e+06
4.8644e+06
4.86442e+06
4.86443e+06
4.86443e+06
4.86443e+06
4.86442e+06
4.86439e+06
4.86436e+06
4.86433e+06
4.86429e+06
4.86425e+06
4.86421e+06
4.86417e+06
4.86414e+06
4.86411e+06
4.86409e+06
4.86407e+06
4.86405e+06
4.86404e+06
4.86402e+06
4.864e+06
4.86399e+06
4.86397e+06
4.86396e+06
4.86395e+06
4.86394e+06
4.86394e+06
4.86395e+06
4.86395e+06
4.86396e+06
4.86397e+06
4.86398e+06
4.86399e+06
4.86399e+06
4.86419e+06
4.86419e+06
4.86419e+06
4.8642e+06
4.8642e+06
4.8642e+06
4.8642e+06
4.86419e+06
4.86419e+06
4.86419e+06
4.86419e+06
4.8642e+06
4.86421e+06
4.86422e+06
4.86424e+06
4.86427e+06
4.86429e+06
4.86431e+06
4.86432e+06
4.86433e+06
4.86433e+06
4.86431e+06
4.86429e+06
4.86426e+06
4.86423e+06
4.86419e+06
4.86415e+06
4.8641e+06
4.86407e+06
4.86403e+06
4.864e+06
4.86397e+06
4.86395e+06
4.86393e+06
4.86392e+06
4.8639e+06
4.86389e+06
4.86387e+06
4.86386e+06
4.86385e+06
4.86385e+06
4.86385e+06
4.86386e+06
4.86387e+06
4.86389e+06
4.8639e+06
4.86392e+06
4.86394e+06
4.86395e+06
4.86396e+06
4.86409e+06
4.8641e+06
4.8641e+06
4.8641e+06
4.8641e+06
4.8641e+06
4.8641e+06
4.8641e+06
4.86409e+06
4.86409e+06
4.8641e+06
4.8641e+06
4.86412e+06
4.86414e+06
4.86416e+06
4.86418e+06
4.86421e+06
4.86423e+06
4.86424e+06
4.86425e+06
4.86425e+06
4.86424e+06
4.86422e+06
4.86419e+06
4.86416e+06
4.86411e+06
4.86407e+06
4.86403e+06
4.86399e+06
4.86395e+06
4.86391e+06
4.86388e+06
4.86386e+06
4.86384e+06
4.86382e+06
4.8638e+06
4.86379e+06
4.86378e+06
4.86377e+06
4.86377e+06
4.86377e+06
4.86378e+06
4.86379e+06
4.86381e+06
4.86383e+06
4.86386e+06
4.86388e+06
4.86391e+06
4.86393e+06
4.86395e+06
4.86399e+06
4.86399e+06
4.864e+06
4.864e+06
4.864e+06
4.86399e+06
4.86398e+06
4.86397e+06
4.86397e+06
4.86396e+06
4.86396e+06
4.86397e+06
4.86398e+06
4.864e+06
4.86402e+06
4.86405e+06
4.86407e+06
4.8641e+06
4.86412e+06
4.86413e+06
4.86413e+06
4.86412e+06
4.8641e+06
4.86408e+06
4.86404e+06
4.864e+06
4.86395e+06
4.86391e+06
4.86387e+06
4.86383e+06
4.86379e+06
4.86376e+06
4.86373e+06
4.86371e+06
4.86369e+06
4.86368e+06
4.86367e+06
4.86366e+06
4.86366e+06
4.86366e+06
4.86367e+06
4.86368e+06
4.8637e+06
4.86373e+06
4.86376e+06
4.86379e+06
4.86382e+06
4.86386e+06
4.86389e+06
4.86391e+06
4.86388e+06
4.8639e+06
4.86391e+06
4.86392e+06
4.86393e+06
4.86393e+06
4.86392e+06
4.86392e+06
4.86391e+06
4.86391e+06
4.86391e+06
4.86391e+06
4.86392e+06
4.86394e+06
4.86396e+06
4.86399e+06
4.86402e+06
4.86404e+06
4.86406e+06
4.86407e+06
4.86407e+06
4.86406e+06
4.86404e+06
4.86401e+06
4.86398e+06
4.86393e+06
4.86389e+06
4.86384e+06
4.86379e+06
4.86375e+06
4.86371e+06
4.86368e+06
4.86365e+06
4.86363e+06
4.86361e+06
4.86359e+06
4.86358e+06
4.86357e+06
4.86357e+06
4.86358e+06
4.86359e+06
4.86361e+06
4.86363e+06
4.86366e+06
4.8637e+06
4.86374e+06
4.86378e+06
4.86382e+06
4.86386e+06
4.86389e+06
4.86375e+06
4.86378e+06
4.86378e+06
4.86377e+06
4.86376e+06
4.86375e+06
4.86374e+06
4.86373e+06
4.86373e+06
4.86373e+06
4.86373e+06
4.86374e+06
4.86375e+06
4.86378e+06
4.8638e+06
4.86383e+06
4.86386e+06
4.86389e+06
4.86391e+06
4.86393e+06
4.86393e+06
4.86393e+06
4.86391e+06
4.86388e+06
4.86385e+06
4.86381e+06
4.86376e+06
4.86371e+06
4.86367e+06
4.86363e+06
4.86359e+06
4.86355e+06
4.86353e+06
4.8635e+06
4.86348e+06
4.86347e+06
4.86346e+06
4.86346e+06
4.86346e+06
4.86347e+06
4.86348e+06
4.86351e+06
4.86354e+06
4.86357e+06
4.86362e+06
4.86366e+06
4.86371e+06
4.86375e+06
4.8638e+06
4.86384e+06
4.86363e+06
4.86377e+06
4.86384e+06
4.86384e+06
4.86382e+06
4.8638e+06
4.86378e+06
4.86376e+06
4.86374e+06
4.86373e+06
4.86372e+06
4.86372e+06
4.86373e+06
4.86375e+06
4.86377e+06
4.8638e+06
4.86382e+06
4.86385e+06
4.86386e+06
4.86387e+06
4.86388e+06
4.86387e+06
4.86385e+06
4.86382e+06
4.86378e+06
4.86374e+06
4.86369e+06
4.86364e+06
4.86359e+06
4.86355e+06
4.86351e+06
4.86347e+06
4.86344e+06
4.86342e+06
4.8634e+06
4.86338e+06
4.86338e+06
4.86337e+06
4.86338e+06
4.86339e+06
4.86341e+06
4.86343e+06
4.86347e+06
4.86351e+06
4.86355e+06
4.8636e+06
4.86365e+06
4.8637e+06
4.86376e+06
4.86381e+06
4.86308e+06
4.86336e+06
4.86345e+06
4.86348e+06
4.8635e+06
4.86351e+06
4.86352e+06
4.86352e+06
4.86352e+06
4.86352e+06
4.86353e+06
4.86354e+06
4.86356e+06
4.86358e+06
4.86361e+06
4.86364e+06
4.86367e+06
4.8637e+06
4.86372e+06
4.86374e+06
4.86374e+06
4.86374e+06
4.86372e+06
4.86369e+06
4.86366e+06
4.86361e+06
4.86357e+06
4.86352e+06
4.86348e+06
4.86343e+06
4.86339e+06
4.86336e+06
4.86333e+06
4.8633e+06
4.86329e+06
4.86327e+06
4.86326e+06
4.86326e+06
4.86327e+06
4.86328e+06
4.8633e+06
4.86333e+06
4.86337e+06
4.86341e+06
4.86346e+06
4.86351e+06
4.86356e+06
4.86362e+06
4.86368e+06
4.86375e+06
4.86458e+06
4.86406e+06
4.86381e+06
4.8637e+06
4.86364e+06
4.8636e+06
4.86356e+06
4.86354e+06
4.86352e+06
4.86351e+06
4.8635e+06
4.86351e+06
4.86352e+06
4.86354e+06
4.86356e+06
4.86359e+06
4.86361e+06
4.86364e+06
4.86365e+06
4.86366e+06
4.86367e+06
4.86366e+06
4.86364e+06
4.86361e+06
4.86357e+06
4.86353e+06
4.86349e+06
4.86344e+06
4.86339e+06
4.86335e+06
4.86331e+06
4.86327e+06
4.86324e+06
4.86322e+06
4.8632e+06
4.86319e+06
4.86318e+06
4.86318e+06
4.86318e+06
4.8632e+06
4.86322e+06
4.86325e+06
4.86329e+06
4.86333e+06
4.86338e+06
4.86343e+06
4.86348e+06
4.86354e+06
4.86361e+06
4.86369e+06
4.63363e+06
4.64026e+06
4.64123e+06
4.64576e+06
4.64726e+06
4.65009e+06
4.65138e+06
4.65271e+06
4.6531e+06
4.65313e+06
4.65303e+06
4.65266e+06
4.65255e+06
4.65267e+06
4.65254e+06
4.65446e+06
4.65426e+06
4.65878e+06
4.65735e+06
4.66787e+06
4.63231e+06
4.63891e+06
4.63989e+06
4.64438e+06
4.64589e+06
4.64867e+06
4.64995e+06
4.65124e+06
4.65163e+06
4.65171e+06
4.65164e+06
4.65127e+06
4.65117e+06
4.65128e+06
4.65125e+06
4.65316e+06
4.65309e+06
4.65746e+06
4.65611e+06
4.6669e+06
4.63115e+06
4.63774e+06
4.63874e+06
4.64318e+06
4.64469e+06
4.64742e+06
4.64869e+06
4.64996e+06
4.65039e+06
4.65055e+06
4.65054e+06
4.65014e+06
4.64998e+06
4.65016e+06
4.65028e+06
4.65216e+06
4.65214e+06
4.65617e+06
4.65495e+06
4.66602e+06
4.63021e+06
4.63678e+06
4.63779e+06
4.64217e+06
4.64367e+06
4.64634e+06
4.64761e+06
4.64887e+06
4.64936e+06
4.64963e+06
4.64967e+06
4.64928e+06
4.64907e+06
4.64937e+06
4.64958e+06
4.65139e+06
4.65133e+06
4.65489e+06
4.65374e+06
4.66491e+06
4.6295e+06
4.63605e+06
4.63706e+06
4.64137e+06
4.64286e+06
4.64546e+06
4.6467e+06
4.64796e+06
4.6485e+06
4.64887e+06
4.64901e+06
4.64872e+06
4.64855e+06
4.64885e+06
4.64905e+06
4.65069e+06
4.6505e+06
4.65361e+06
4.65261e+06
4.66383e+06
4.62903e+06
4.63557e+06
4.63657e+06
4.6408e+06
4.64226e+06
4.64476e+06
4.64598e+06
4.64719e+06
4.64776e+06
4.64818e+06
4.64838e+06
4.64819e+06
4.64808e+06
4.64836e+06
4.6485e+06
4.6499e+06
4.64949e+06
4.65228e+06
4.65153e+06
4.66287e+06
4.62884e+06
4.63535e+06
4.63634e+06
4.64047e+06
4.64188e+06
4.64427e+06
4.64542e+06
4.64654e+06
4.64707e+06
4.64748e+06
4.64765e+06
4.64753e+06
4.64748e+06
4.64773e+06
4.64778e+06
4.64892e+06
4.64828e+06
4.65097e+06
4.65047e+06
4.66201e+06
4.62895e+06
4.63543e+06
4.63639e+06
4.64041e+06
4.64176e+06
4.64401e+06
4.64504e+06
4.64603e+06
4.64645e+06
4.64673e+06
4.64678e+06
4.64664e+06
4.64673e+06
4.64699e+06
4.64687e+06
4.64773e+06
4.64704e+06
4.64979e+06
4.64947e+06
4.66125e+06
4.62939e+06
4.63582e+06
4.63676e+06
4.64065e+06
4.64192e+06
4.64401e+06
4.6449e+06
4.6457e+06
4.64594e+06
4.64603e+06
4.64586e+06
4.6456e+06
4.64579e+06
4.64606e+06
4.6458e+06
4.64648e+06
4.64587e+06
4.64885e+06
4.64863e+06
4.66066e+06
4.6302e+06
4.63656e+06
4.63748e+06
4.64123e+06
4.64243e+06
4.64434e+06
4.64507e+06
4.64565e+06
4.64566e+06
4.64547e+06
4.64501e+06
4.64454e+06
4.6447e+06
4.64493e+06
4.64464e+06
4.64535e+06
4.64486e+06
4.64825e+06
4.64813e+06
4.66037e+06
4.63142e+06
4.63771e+06
4.6386e+06
4.64222e+06
4.64332e+06
4.64505e+06
4.64561e+06
4.64597e+06
4.64573e+06
4.64525e+06
4.64449e+06
4.64377e+06
4.64381e+06
4.64396e+06
4.64371e+06
4.64455e+06
4.64424e+06
4.64814e+06
4.64812e+06
4.66052e+06
4.63308e+06
4.63929e+06
4.64016e+06
4.64364e+06
4.64466e+06
4.64622e+06
4.64662e+06
4.64675e+06
4.64629e+06
4.64554e+06
4.6445e+06
4.64356e+06
4.64344e+06
4.64348e+06
4.64331e+06
4.64433e+06
4.64425e+06
4.64868e+06
4.64877e+06
4.66124e+06
4.63522e+06
4.64134e+06
4.6422e+06
4.64554e+06
4.64649e+06
4.6479e+06
4.64815e+06
4.6481e+06
4.64744e+06
4.64646e+06
4.64522e+06
4.6441e+06
4.64384e+06
4.64379e+06
4.64372e+06
4.6449e+06
4.64509e+06
4.64999e+06
4.65018e+06
4.66262e+06
4.63784e+06
4.64387e+06
4.64472e+06
4.64794e+06
4.64883e+06
4.65011e+06
4.65026e+06
4.65007e+06
4.64927e+06
4.64814e+06
4.64676e+06
4.64556e+06
4.64518e+06
4.64506e+06
4.6451e+06
4.64642e+06
4.64689e+06
4.65213e+06
4.65243e+06
4.66472e+06
4.64096e+06
4.64689e+06
4.64773e+06
4.65084e+06
4.65169e+06
4.65287e+06
4.65295e+06
4.65268e+06
4.65181e+06
4.65061e+06
4.6492e+06
4.64797e+06
4.64754e+06
4.64739e+06
4.64753e+06
4.64894e+06
4.64967e+06
4.65514e+06
4.6555e+06
4.66754e+06
4.64457e+06
4.65038e+06
4.65123e+06
4.65423e+06
4.65507e+06
4.65618e+06
4.65624e+06
4.65593e+06
4.65506e+06
4.65388e+06
4.6525e+06
4.65133e+06
4.65089e+06
4.65073e+06
4.65098e+06
4.65244e+06
4.65341e+06
4.65896e+06
4.65938e+06
4.67107e+06
4.64865e+06
4.65434e+06
4.6552e+06
4.65811e+06
4.65895e+06
4.66001e+06
4.66009e+06
4.6598e+06
4.65899e+06
4.65788e+06
4.65662e+06
4.65556e+06
4.65514e+06
4.655e+06
4.65533e+06
4.65682e+06
4.65798e+06
4.66351e+06
4.66397e+06
4.67524e+06
4.65319e+06
4.65875e+06
4.65962e+06
4.66245e+06
4.66331e+06
4.66435e+06
4.66447e+06
4.66424e+06
4.66352e+06
4.66254e+06
4.66143e+06
4.66051e+06
4.66014e+06
4.66005e+06
4.66045e+06
4.66195e+06
4.66325e+06
4.66868e+06
4.66915e+06
4.67995e+06
4.65816e+06
4.66359e+06
4.66448e+06
4.66723e+06
4.6681e+06
4.66914e+06
4.66931e+06
4.66916e+06
4.66857e+06
4.66774e+06
4.66681e+06
4.66604e+06
4.66575e+06
4.6657e+06
4.66616e+06
4.66767e+06
4.66906e+06
4.67434e+06
4.67482e+06
4.68511e+06
4.66353e+06
4.66882e+06
4.66973e+06
4.6724e+06
4.6733e+06
4.67433e+06
4.67456e+06
4.6745e+06
4.67404e+06
4.67338e+06
4.67263e+06
4.67202e+06
4.6718e+06
4.67181e+06
4.67233e+06
4.67383e+06
4.67528e+06
4.68036e+06
4.68084e+06
4.69061e+06
4.66928e+06
4.67443e+06
4.67534e+06
4.67792e+06
4.67884e+06
4.67986e+06
4.68015e+06
4.68017e+06
4.67984e+06
4.67934e+06
4.67877e+06
4.67831e+06
4.67816e+06
4.67824e+06
4.6788e+06
4.6803e+06
4.68177e+06
4.68663e+06
4.6871e+06
4.69635e+06
4.67538e+06
4.68036e+06
4.68128e+06
4.68376e+06
4.68468e+06
4.68568e+06
4.68602e+06
4.6861e+06
4.68589e+06
4.68553e+06
4.68513e+06
4.68481e+06
4.68473e+06
4.68486e+06
4.68547e+06
4.68695e+06
4.68842e+06
4.69306e+06
4.69352e+06
4.70225e+06
4.68179e+06
4.6866e+06
4.68751e+06
4.68987e+06
4.69077e+06
4.69174e+06
4.6921e+06
4.69224e+06
4.69212e+06
4.69188e+06
4.69162e+06
4.69142e+06
4.6914e+06
4.6916e+06
4.69223e+06
4.6937e+06
4.69515e+06
4.69958e+06
4.70002e+06
4.70825e+06
4.68849e+06
4.69311e+06
4.69399e+06
4.69623e+06
4.6971e+06
4.69801e+06
4.69837e+06
4.69853e+06
4.69847e+06
4.69833e+06
4.69818e+06
4.69808e+06
4.69812e+06
4.69837e+06
4.69904e+06
4.70049e+06
4.70192e+06
4.70613e+06
4.70657e+06
4.71433e+06
4.69545e+06
4.69986e+06
4.70072e+06
4.70281e+06
4.70362e+06
4.70445e+06
4.70478e+06
4.70493e+06
4.70491e+06
4.70483e+06
4.70477e+06
4.70475e+06
4.70484e+06
4.70514e+06
4.70584e+06
4.70728e+06
4.70869e+06
4.71271e+06
4.71315e+06
4.72046e+06
4.70266e+06
4.70686e+06
4.70767e+06
4.7096e+06
4.71034e+06
4.71106e+06
4.71133e+06
4.71144e+06
4.71141e+06
4.71137e+06
4.71136e+06
4.7114e+06
4.71153e+06
4.71188e+06
4.71261e+06
4.71405e+06
4.71544e+06
4.7193e+06
4.71975e+06
4.72664e+06
4.71011e+06
4.71408e+06
4.71483e+06
4.71659e+06
4.71722e+06
4.71782e+06
4.718e+06
4.71803e+06
4.71797e+06
4.71792e+06
4.71794e+06
4.71802e+06
4.71819e+06
4.71859e+06
4.71936e+06
4.72081e+06
4.7222e+06
4.72591e+06
4.72638e+06
4.7329e+06
4.71777e+06
4.72151e+06
4.72219e+06
4.72376e+06
4.72428e+06
4.72472e+06
4.72478e+06
4.72471e+06
4.72457e+06
4.72449e+06
4.72451e+06
4.72461e+06
4.72482e+06
4.72527e+06
4.72609e+06
4.72756e+06
4.72897e+06
4.73257e+06
4.73308e+06
4.73924e+06
4.72564e+06
4.72913e+06
4.72973e+06
4.73111e+06
4.73149e+06
4.73177e+06
4.73168e+06
4.73148e+06
4.73124e+06
4.73109e+06
4.73108e+06
4.73119e+06
4.73144e+06
4.73195e+06
4.73282e+06
4.73433e+06
4.73577e+06
4.73928e+06
4.73984e+06
4.74568e+06
4.73367e+06
4.73691e+06
4.73743e+06
4.73861e+06
4.73884e+06
4.73895e+06
4.73871e+06