/*--------------------------------*- C++ -*----------------------------------*\
  =========                 |
  \\      /  F ield         | OpenFOAM: The Open Source CFD Toolbox
   \\    /   O peration     | Website:  https://openfoam.org
    \\  /    A nd           | Version:  8
     \\/     M anipulation  |
\*---------------------------------------------------------------------------*/
FoamFile
{
    version     2.0;
    format      ascii;
    class       volScalarField;
    location    "400";
    object      p_rgh;
}
// * * * * * * * * * * * * * * * * * * * * * * * * * * * * * * * * * * * * * //

dimensions      [1 -1 -2 0 0 0 0];

internalField   nonuniform List<scalar> 
8400
(
18958.8
56368.1
93189.9
130026
167355
205599
245164
286474
329985
376166
425493
478414
535385
596852
663273
735095
812734
896581
986995
1.0843e+06
1.18878e+06
1.30068e+06
1.42019e+06
1.54745e+06
1.68255e+06
1.82539e+06
1.97581e+06
2.13357e+06
2.29822e+06
2.4691e+06
2.64532e+06
2.82574e+06
3.00891e+06
3.19309e+06
3.37624e+06
3.55614e+06
3.73032e+06
3.89619e+06
4.05126e+06
4.19308e+06
4.31942e+06
4.42848e+06
4.5189e+06
4.58992e+06
4.64206e+06
4.67704e+06
4.69688e+06
4.70329e+06
4.69871e+06
4.68458e+06
20522.5
56476.9
92621.1
128955
165844
203652
242773
283640
326707
372427
421255
473645
530048
590922
656721
727877
804788
887831
977366
1.0737e+06
1.17709e+06
1.28778e+06
1.40597e+06
1.53177e+06
1.66523e+06
1.8063e+06
1.95483e+06
2.11056e+06
2.27308e+06
2.44172e+06
2.61563e+06
2.79371e+06
2.97453e+06
3.1564e+06
3.33738e+06
3.51525e+06
3.68765e+06
3.85201e+06
4.00584e+06
4.14681e+06
4.2728e+06
4.382e+06
4.4732e+06
4.54569e+06
4.59985e+06
4.63713e+06
4.6596e+06
4.66939e+06
4.66815e+06
4.65535e+06
22971.5
57784.5
93295.3
129030
165308
202463
240898
281051
323380
368353
416419
468048
523695
583804
648817
719155
795214
877349
965895
1.06115e+06
1.16335e+06
1.27275e+06
1.38952e+06
1.51374e+06
1.64546e+06
1.78465e+06
1.93116e+06
2.08476e+06
2.24504e+06
2.41137e+06
2.58295e+06
2.7587e+06
2.93726e+06
3.11696e+06
3.29591e+06
3.47192e+06
3.64262e+06
3.8056e+06
3.95836e+06
4.09855e+06
4.22413e+06
4.33335e+06
4.42511e+06
4.49884e+06
4.55484e+06
4.59427e+06
4.61914e+06
4.63144e+06
4.63127e+06
4.61733e+06
23222.7
56830.1
91622.4
126674
162228
198599
236192
275467
316894
360932
408060
458746
513437
572571
636578
705875
780831
861773
949025
1.04288e+06
1.14357e+06
1.25128e+06
1.36616e+06
1.48831e+06
1.61775e+06
1.75448e+06
1.89841e+06
2.04928e+06
2.20674e+06
2.37025e+06
2.53902e+06
2.71203e+06
2.88797e+06
3.06521e+06
3.24186e+06
3.41583e+06
3.58478e+06
3.74629e+06
3.89794e+06
4.03745e+06
4.1628e+06
4.27233e+06
4.36508e+06
4.44058e+06
4.49915e+06
4.54172e+06
4.56961e+06
4.5833e+06
4.58221e+06
4.56666e+06
24519.3
57929.5
92289.5
126659
161381
196826
233442
271705
312105
355123
401242
450923
504608
562735
625722
693957
767793
847549
933527
1.02599e+06
1.12513e+06
1.23109e+06
1.34401e+06
1.46398e+06
1.59104e+06
1.72522e+06
1.86642e+06
2.01445e+06
2.169e+06
2.32959e+06
2.49553e+06
2.66584e+06
2.8392e+06
3.01398e+06
3.18833e+06
3.3602e+06
3.52727e+06
3.68712e+06
3.83736e+06
3.97585e+06
4.10063e+06
4.21014e+06
4.30368e+06
4.38086e+06
4.44178e+06
4.48631e+06
4.51437e+06
4.52639e+06
4.52319e+06
4.50622e+06
23620.8
56712.4
90655.6
124423
158398
193003
228728
266081
305557
347655
392862
441639
494435
551685
613789
681106
753977
832709
917569
1.00877e+06
1.10647e+06
1.2108e+06
1.32187e+06
1.43978e+06
1.56457e+06
1.69626e+06
1.83478e+06
1.97998e+06
2.13163e+06
2.28937e+06
2.45258e+06
2.62033e+06
2.79133e+06
2.96391e+06
3.1362e+06
3.30618e+06
3.4716e+06
3.62993e+06
3.77877e+06
3.91623e+06
4.0404e+06
4.14983e+06
4.24399e+06
4.32191e+06
4.38246e+06
4.42536e+06
4.45105e+06
4.4604e+06
4.45507e+06
4.43746e+06
24174.3
57722.8
91349
124431
157564
191268
226072
262498
301059
342264
386605
434547
486539
543011
604340
670865
742904
820746
904624
994723
1.09118e+06
1.19413e+06
1.30366e+06
1.41984e+06
1.5427e+06
1.67222e+06
1.80837e+06
1.95102e+06
2.09999e+06
2.25499e+06
2.41553e+06
2.5808e+06
2.74956e+06
2.92013e+06
3.09055e+06
3.25886e+06
3.42287e+06
3.57999e+06
3.72771e+06
3.86421e+06
3.9875e+06
4.09559e+06
4.18745e+06
4.26219e+06
4.31917e+06
4.35841e+06
4.38064e+06
4.38721e+06
4.38041e+06
4.36345e+06
23777.7
57669.8
90752.7
123170
155618
188618
222702
258410
296275
336815
380520
427861
479287
535207
595974
661907
733307
810443
893534
982759
1.07827e+06
1.18017e+06
1.28858e+06
1.40356e+06
1.52516e+06
1.65332e+06
1.78801e+06
1.92901e+06
2.07612e+06
2.22905e+06
2.38744e+06
2.55057e+06
2.71741e+06
2.88631e+06
3.05529e+06
3.22235e+06
3.38533e+06
3.54152e+06
3.68795e+06
3.82209e+06
3.94181e+06
4.04545e+06
4.13199e+06
4.20094e+06
4.25228e+06
4.28659e+06
4.30496e+06
4.3092e+06
4.30203e+06
4.28744e+06
24944.8
59077.8
91156.8
122924
154809
187234
220733
255876
293215
333271
376527
423458
474498
530028
590381
655851
726706
803207
885574
973988
1.06861e+06
1.16957e+06
1.27707e+06
1.39125e+06
1.51222e+06
1.63987e+06
1.7741e+06
1.91464e+06
2.06115e+06
2.21325e+06
2.37047e+06
2.53225e+06
2.69774e+06
2.86555e+06
3.03372e+06
3.20003e+06
3.36194e+06
3.51646e+06
3.66028e+06
3.79043e+06
3.9045e+06
4.00098e+06
4.07935e+06
4.13993e+06
4.18368e+06
4.21192e+06
4.22631e+06
4.22908e+06
4.22318e+06
4.21345e+06
26149.4
60661.7
91535.5
122871
154371
186375
219459
254227
291240
331016
374044
420793
471691
527102
587330
652625
723221
799378
881307
969194
1.06321e+06
1.16351e+06
1.27032e+06
1.38398e+06
1.50472e+06
1.63253e+06
1.76721e+06
1.90845e+06
2.05573e+06
2.20853e+06
2.36621e+06
2.52818e+06
2.69363e+06
2.86133e+06
3.02942e+06
3.19551e+06
3.3566e+06
3.50907e+06
3.64908e+06
3.77319e+06
3.87887e+06
3.96497e+06
4.03187e+06
4.08121e+06
4.11531e+06
4.13661e+06
4.14739e+06
4.15032e+06
4.14819e+06
4.14687e+06
22680.3
60453.5
92706.5
124233
155720
187652
220658
255347
292279
331978
374943
421672
472639
528203
588609
654042
724688
800788
882570
970207
1.06392e+06
1.16401e+06
1.27085e+06
1.38488e+06
1.50642e+06
1.63559e+06
1.77223e+06
1.916e+06
2.06616e+06
2.22184e+06
2.38211e+06
2.54601e+06
2.71252e+06
2.88049e+06
3.04829e+06
3.21356e+06
3.37293e+06
3.52215e+06
3.65671e+06
3.77253e+06
3.86699e+06
3.93949e+06
3.99175e+06
4.02726e+06
4.05025e+06
4.06461e+06
4.07305e+06
4.07891e+06
4.0838e+06
4.09462e+06
15224.5
57055.7
92454.7
125033
157081
189562
223163
258513
296204
336794
380808
428747
481044
537971
599666
666212
737697
814283
896178
983607
1.07696e+06
1.17681e+06
1.28383e+06
1.39874e+06
1.52208e+06
1.65413e+06
1.79475e+06
1.94333e+06
2.09877e+06
2.25957e+06
2.42403e+06
2.59055e+06
2.75781e+06
2.92492e+06
3.09092e+06
3.25383e+06
3.41004e+06
3.55455e+06
3.68198e+06
3.78758e+06
3.86856e+06
3.92504e+06
3.96084e+06
3.98165e+06
3.99402e+06
4.00335e+06
4.01231e+06
4.02464e+06
4.03918e+06
4.0601e+06
4389.98
48433
89669.1
125975
160575
195532
231739
269819
310378
353988
401146
452243
507558
567209
631166
699318
771567
847931
928622
1.01411e+06
1.10524e+06
1.20311e+06
1.30897e+06
1.42409e+06
1.54951e+06
1.68576e+06
1.83273e+06
1.98942e+06
2.15391e+06
2.32341e+06
2.49461e+06
2.66454e+06
2.83138e+06
2.99498e+06
3.15587e+06
3.31322e+06
3.46342e+06
3.60075e+06
3.71895e+06
3.81231e+06
3.87848e+06
3.91828e+06
3.93887e+06
3.94807e+06
3.95422e+06
3.96338e+06
3.97659e+06
3.99572e+06
4.01973e+06
4.04316e+06
10837.7
53563.8
99713.4
140981
179452
218210
258522
300990
346187
394657
446807
502870
562890
626708
693948
764096
836659
911397
988558
1.06901e+06
1.15428e+06
1.24648e+06
1.34803e+06
1.46125e+06
1.58804e+06
1.72952e+06
1.88561e+06
2.05475e+06
2.23367e+06
2.4173e+06
2.59932e+06
2.77362e+06
2.93719e+06
3.09153e+06
3.24078e+06
3.38656e+06
3.52512e+06
3.65e+06
3.75472e+06
3.83285e+06
3.88399e+06
3.9091e+06
3.92048e+06
3.92667e+06
3.93435e+06
3.94758e+06
3.96552e+06
3.98515e+06
4.01213e+06
4.04594e+06
-12303.7
40942.1
94825.6
141992
185750
230040
276457
325580
377951
434076
494265
558565
626731
698176
771937
846752
921314
994730
1.06703e+06
1.13953e+06
1.21494e+06
1.29703e+06
1.39012e+06
1.49842e+06
1.62536e+06
1.77309e+06
1.9419e+06
2.12965e+06
2.33128e+06
2.53831e+06
2.73891e+06
2.92031e+06
3.07669e+06
3.21325e+06
3.34147e+06
3.4671e+06
3.58502e+06
3.68871e+06
3.77308e+06
3.83157e+06
3.86913e+06
3.88629e+06
3.89782e+06
3.91075e+06
3.9249e+06
3.94015e+06
3.96187e+06
3.9906e+06
4.02322e+06
4.05722e+06
16936.3
67972.4
127302
181209
230919
281391
334771
391667
452620
518158
588519
663526
742547
824398
907211
988466
1.06528e+06
1.13531e+06
1.19783e+06
1.25459e+06
1.31014e+06
1.37103e+06
1.44486e+06
1.53886e+06
1.65912e+06
1.8095e+06
1.99116e+06
2.20184e+06
2.43485e+06
2.67767e+06
2.90968e+06
3.10367e+06
3.24831e+06
3.35731e+06
3.45573e+06
3.55355e+06
3.64099e+06
3.7141e+06
3.77236e+06
3.81216e+06
3.84305e+06
3.86523e+06
3.88036e+06
3.89676e+06
3.91863e+06
3.94447e+06
3.97319e+06
4.0038e+06
4.03438e+06
4.06407e+06
-27627.5
48894
120838
182400
239880
299333
363008
431574
505693
586004
672776
765708
863774
965003
1.06625e+06
1.16298e+06
1.24927e+06
1.31955e+06
1.37102e+06
1.40556e+06
1.43074e+06
1.45753e+06
1.49864e+06
1.56566e+06
1.66825e+06
1.8126e+06
2.00146e+06
2.23356e+06
2.50238e+06
2.79338e+06
3.07481e+06
3.29031e+06
3.42009e+06
3.49606e+06
3.56413e+06
3.6349e+06
3.69206e+06
3.73892e+06
3.78017e+06
3.81341e+06
3.83345e+06
3.85154e+06
3.87304e+06
3.89946e+06
3.9284e+06
3.95843e+06
3.98638e+06
4.01338e+06
4.03986e+06
4.06562e+06
31493.1
102091
174397
238936
300896
366457
437842
515842
601261
694857
796980
907279
1.02442e+06
1.14578e+06
1.26704e+06
1.38147e+06
1.4778e+06
1.54477e+06
1.57582e+06
1.57259e+06
1.54847e+06
1.52086e+06
1.51001e+06
1.53165e+06
1.59939e+06
1.72051e+06
1.89998e+06
2.13849e+06
2.43295e+06
2.77319e+06
3.11914e+06
3.36819e+06
3.48878e+06
3.54371e+06
3.5965e+06
3.65746e+06
3.70956e+06
3.74081e+06
3.76423e+06
3.7911e+06
3.8216e+06
3.85101e+06
3.87917e+06
3.90753e+06
3.93526e+06
3.96285e+06
3.98967e+06
4.01487e+06
4.03921e+06
4.06304e+06
-44145.9
95505.4
183895
253757
324802
402109
487385
582114
687896
806248
938216
1.08388e+06
1.24183e+06
1.40863e+06
1.57796e+06
1.73917e+06
1.86702e+06
1.94269e+06
1.95226e+06
1.89994e+06
1.81178e+06
1.71334e+06
1.63531e+06
1.5934e+06
1.60675e+06
1.67983e+06
1.82221e+06
2.03578e+06
2.32238e+06
2.67647e+06
3.04838e+06
3.34869e+06
3.49904e+06
3.55174e+06
3.58e+06
3.62185e+06
3.66992e+06
3.71518e+06
3.75798e+06
3.79466e+06
3.82838e+06
3.85885e+06
3.88671e+06
3.91426e+06
3.94113e+06
3.96739e+06
3.99342e+06
4.0186e+06
4.04241e+06
4.06483e+06
93299.3
178996
234115
292538
360342
437781
525217
623526
733841
857299
994598
1.14537e+06
1.30748e+06
1.47615e+06
1.64328e+06
1.79702e+06
1.91249e+06
1.9793e+06
1.97559e+06
1.91564e+06
1.82424e+06
1.72977e+06
1.65812e+06
1.62202e+06
1.63744e+06
1.7037e+06
1.83122e+06
2.01827e+06
2.26949e+06
2.58282e+06
2.93231e+06
3.23841e+06
3.42374e+06
3.52365e+06
3.58509e+06
3.63778e+06
3.6877e+06
3.73126e+06
3.76986e+06
3.80313e+06
3.83362e+06
3.8627e+06
3.89033e+06
3.91739e+06
3.94375e+06
3.96927e+06
3.9941e+06
4.0179e+06
4.03938e+06
4.05791e+06
4.6634e+06
4.66289e+06
4.66264e+06
4.66254e+06
4.6625e+06
4.66246e+06
4.66244e+06
4.66243e+06
4.66243e+06
4.66242e+06
4.66242e+06
4.66242e+06
4.66242e+06
4.66243e+06
4.66243e+06
4.66243e+06
4.66244e+06
4.66245e+06
4.66245e+06
4.66245e+06
4.66246e+06
4.66246e+06
4.66246e+06
4.66245e+06
4.66245e+06
4.66245e+06
4.66244e+06
4.66244e+06
4.66244e+06
4.66244e+06
4.66244e+06
4.66245e+06
4.66245e+06
4.66246e+06
4.66247e+06
4.66247e+06
4.66248e+06
4.66248e+06
4.66247e+06
4.66246e+06
4.66244e+06
4.66242e+06
4.66239e+06
4.66236e+06
4.66232e+06
4.66228e+06
4.66222e+06
4.66216e+06
4.66208e+06
4.66197e+06
4.6618e+06
4.66209e+06
4.66218e+06
4.66222e+06
4.66225e+06
4.66228e+06
4.6623e+06
4.66232e+06
4.66233e+06
4.66234e+06
4.66235e+06
4.66236e+06
4.66237e+06
4.66238e+06
4.66239e+06
4.6624e+06
4.6624e+06
4.66241e+06
4.66242e+06
4.66243e+06
4.66243e+06
4.66244e+06
4.66244e+06
4.66244e+06
4.66243e+06
4.66243e+06
4.66243e+06
4.66242e+06
4.66242e+06
4.66242e+06
4.66243e+06
4.66243e+06
4.66244e+06
4.66245e+06
4.66246e+06
4.66247e+06
4.66247e+06
4.66247e+06
4.66246e+06
4.66245e+06
4.66244e+06
4.66241e+06
4.66239e+06
4.66236e+06
4.66232e+06
4.66228e+06
4.66223e+06
4.66217e+06
4.6621e+06
4.66201e+06
4.66226e+06
4.66239e+06
4.66247e+06
4.66248e+06
4.66247e+06
4.66247e+06
4.66246e+06
4.66246e+06
4.66245e+06
4.66245e+06
4.66245e+06
4.66244e+06
4.66244e+06
4.66244e+06
4.66245e+06
4.66245e+06
4.66245e+06
4.66246e+06
4.66246e+06
4.66247e+06
4.66247e+06
4.66247e+06
4.66247e+06
4.66246e+06
4.66246e+06
4.66245e+06
4.66245e+06
4.66245e+06
4.66244e+06
4.66244e+06
4.66245e+06
4.66245e+06
4.66246e+06
4.66247e+06
4.66247e+06
4.66248e+06
4.66248e+06
4.66248e+06
4.66248e+06
4.66247e+06
4.66245e+06
4.66243e+06
4.66241e+06
4.66238e+06
4.66234e+06
4.6623e+06
4.66226e+06
4.66221e+06
4.66215e+06
4.66208e+06
4.66228e+06
4.6623e+06
4.66232e+06
4.66232e+06
4.66231e+06
4.66232e+06
4.66232e+06
4.66233e+06
4.66234e+06
4.66234e+06
4.66235e+06
4.66236e+06
4.66236e+06
4.66237e+06
4.66238e+06
4.66239e+06
4.6624e+06
4.66241e+06
4.66242e+06
4.66242e+06
4.66243e+06
4.66243e+06
4.66243e+06
4.66243e+06
4.66243e+06
4.66243e+06
4.66242e+06
4.66242e+06
4.66242e+06
4.66242e+06
4.66243e+06
4.66243e+06
4.66244e+06
4.66245e+06
4.66246e+06
4.66247e+06
4.66247e+06
4.66247e+06
4.66247e+06
4.66246e+06
4.66244e+06
4.66243e+06
4.6624e+06
4.66238e+06
4.66235e+06
4.66232e+06
4.66228e+06
4.66224e+06
4.66219e+06
4.66214e+06
4.66231e+06
4.66233e+06
4.66235e+06
4.66237e+06
4.66238e+06
4.66239e+06
4.6624e+06
4.66241e+06
4.66241e+06
4.66242e+06
4.66242e+06
4.66242e+06
4.66243e+06
4.66243e+06
4.66244e+06
4.66244e+06
4.66245e+06
4.66246e+06
4.66246e+06
4.66247e+06
4.66247e+06
4.66247e+06
4.66247e+06
4.66247e+06
4.66247e+06
4.66246e+06
4.66246e+06
4.66245e+06
4.66245e+06
4.66245e+06
4.66245e+06
4.66246e+06
4.66247e+06
4.66247e+06
4.66248e+06
4.66249e+06
4.66249e+06
4.66249e+06
4.66249e+06
4.66248e+06
4.66247e+06
4.66245e+06
4.66243e+06
4.66241e+06
4.66238e+06
4.66236e+06
4.66233e+06
4.66229e+06
4.66226e+06
4.66222e+06
4.66232e+06
4.66233e+06
4.66234e+06
4.66234e+06
4.66235e+06
4.66235e+06
4.66236e+06
4.66236e+06
4.66236e+06
4.66236e+06
4.66237e+06
4.66237e+06
4.66237e+06
4.66238e+06
4.66239e+06
4.66239e+06
4.6624e+06
4.66241e+06
4.66242e+06
4.66243e+06
4.66244e+06
4.66244e+06
4.66244e+06
4.66244e+06
4.66244e+06
4.66244e+06
4.66243e+06
4.66243e+06
4.66243e+06
4.66243e+06
4.66244e+06
4.66244e+06
4.66245e+06
4.66246e+06
4.66246e+06
4.66247e+06
4.66248e+06
4.66248e+06
4.66248e+06
4.66247e+06
4.66246e+06
4.66245e+06
4.66243e+06
4.66242e+06
4.6624e+06
4.66238e+06
4.66236e+06
4.66233e+06
4.66231e+06
4.66228e+06
4.66233e+06
4.66233e+06
4.66234e+06
4.66235e+06
4.66235e+06
4.66236e+06
4.66237e+06
4.66237e+06
4.66238e+06
4.66239e+06
4.66239e+06
4.6624e+06
4.6624e+06
4.66241e+06
4.66241e+06
4.66242e+06
4.66243e+06
4.66244e+06
4.66245e+06
4.66246e+06
4.66247e+06
4.66247e+06
4.66247e+06
4.66247e+06
4.66247e+06
4.66247e+06
4.66246e+06
4.66246e+06
4.66246e+06
4.66246e+06
4.66246e+06
4.66246e+06
4.66247e+06
4.66248e+06
4.66248e+06
4.66249e+06
4.66249e+06
4.6625e+06
4.6625e+06
4.66249e+06
4.66248e+06
4.66247e+06
4.66246e+06
4.66245e+06
4.66244e+06
4.66242e+06
4.66241e+06
4.66239e+06
4.66238e+06
4.66236e+06
4.66234e+06
4.66234e+06
4.66234e+06
4.66234e+06
4.66235e+06
4.66235e+06
4.66236e+06
4.66236e+06
4.66237e+06
4.66237e+06
4.66237e+06
4.66237e+06
4.66238e+06
4.66238e+06
4.66239e+06
4.6624e+06
4.66241e+06
4.66242e+06
4.66243e+06
4.66244e+06
4.66245e+06
4.66245e+06
4.66246e+06
4.66246e+06
4.66245e+06
4.66245e+06
4.66245e+06
4.66245e+06
4.66244e+06
4.66244e+06
4.66245e+06
4.66245e+06
4.66246e+06
4.66247e+06
4.66247e+06
4.66248e+06
4.66249e+06
4.66249e+06
4.66249e+06
4.66249e+06
4.66248e+06
4.66248e+06
4.66247e+06
4.66247e+06
4.66246e+06
4.66245e+06
4.66245e+06
4.66244e+06
4.66243e+06
4.66242e+06
4.66234e+06
4.66234e+06
4.66234e+06
4.66234e+06
4.66235e+06
4.66235e+06
4.66236e+06
4.66236e+06
4.66237e+06
4.66237e+06
4.66237e+06
4.66238e+06
4.66238e+06
4.66239e+06
4.6624e+06
4.66241e+06
4.66242e+06
4.66243e+06
4.66244e+06
4.66245e+06
4.66246e+06
4.66247e+06
4.66247e+06
4.66247e+06
4.66247e+06
4.66247e+06
4.66247e+06
4.66246e+06
4.66246e+06
4.66246e+06
4.66246e+06
4.66247e+06
4.66247e+06
4.66248e+06
4.66249e+06
4.66249e+06
4.6625e+06
4.6625e+06
4.6625e+06
4.6625e+06
4.6625e+06
4.6625e+06
4.6625e+06
4.6625e+06
4.6625e+06
4.6625e+06
4.6625e+06
4.6625e+06
4.6625e+06
4.6625e+06
4.66234e+06
4.66234e+06
4.66234e+06
4.66234e+06
4.66235e+06
4.66235e+06
4.66235e+06
4.66236e+06
4.66236e+06
4.66236e+06
4.66237e+06
4.66237e+06
4.66238e+06
4.66238e+06
4.66239e+06
4.6624e+06
4.66241e+06
4.66243e+06
4.66244e+06
4.66245e+06
4.66246e+06
4.66247e+06
4.66247e+06
4.66247e+06
4.66247e+06
4.66247e+06
4.66246e+06
4.66246e+06
4.66246e+06
4.66246e+06
4.66246e+06
4.66246e+06
4.66247e+06
4.66248e+06
4.66248e+06
4.66249e+06
4.6625e+06
4.6625e+06
4.66251e+06
4.66251e+06
4.66251e+06
4.66251e+06
4.66252e+06
4.66252e+06
4.66253e+06
4.66254e+06
4.66254e+06
4.66255e+06
4.66256e+06
4.66257e+06
4.66234e+06
4.66234e+06
4.66234e+06
4.66234e+06
4.66235e+06
4.66235e+06
4.66235e+06
4.66236e+06
4.66236e+06
4.66236e+06
4.66236e+06
4.66237e+06
4.66237e+06
4.66238e+06
4.66239e+06
4.6624e+06
4.66241e+06
4.66243e+06
4.66244e+06
4.66245e+06
4.66246e+06
4.66247e+06
4.66247e+06
4.66247e+06
4.66247e+06
4.66247e+06
4.66247e+06
4.66247e+06
4.66246e+06
4.66246e+06
4.66246e+06
4.66247e+06
4.66247e+06
4.66248e+06
4.66248e+06
4.66249e+06
4.6625e+06
4.66251e+06
4.66251e+06
4.66252e+06
4.66252e+06
4.66253e+06
4.66254e+06
4.66255e+06
4.66256e+06
4.66258e+06
4.66259e+06
4.66261e+06
4.66262e+06
4.66264e+06
4.66234e+06
4.66234e+06
4.66234e+06
4.66234e+06
4.66235e+06
4.66235e+06
4.66235e+06
4.66235e+06
4.66236e+06
4.66236e+06
4.66236e+06
4.66237e+06
4.66237e+06
4.66238e+06
4.66239e+06
4.6624e+06
4.66242e+06
4.66243e+06
4.66244e+06
4.66246e+06
4.66247e+06
4.66248e+06
4.66248e+06
4.66248e+06
4.66249e+06
4.66248e+06
4.66248e+06
4.66248e+06
4.66247e+06
4.66247e+06
4.66247e+06
4.66248e+06
4.66248e+06
4.66248e+06
4.66249e+06
4.6625e+06
4.66251e+06
4.66251e+06
4.66252e+06
4.66253e+06
4.66254e+06
4.66255e+06
4.66257e+06
4.66258e+06
4.6626e+06
4.66262e+06
4.66264e+06
4.66266e+06
4.66269e+06
4.66271e+06
4.66234e+06
4.66234e+06
4.66234e+06
4.66234e+06
4.66235e+06
4.66235e+06
4.66235e+06
4.66235e+06
4.66235e+06
4.66235e+06
4.66235e+06
4.66235e+06
4.66236e+06
4.66237e+06
4.66238e+06
4.66239e+06
4.6624e+06
4.66242e+06
4.66243e+06
4.66245e+06
4.66246e+06
4.66247e+06
4.66247e+06
4.66248e+06
4.66248e+06
4.66248e+06
4.66247e+06
4.66247e+06
4.66247e+06
4.66247e+06
4.66247e+06
4.66247e+06
4.66247e+06
4.66248e+06
4.66248e+06
4.66249e+06
4.6625e+06
4.66251e+06
4.66252e+06
4.66253e+06
4.66255e+06
4.66256e+06
4.66258e+06
4.6626e+06
4.66263e+06
4.66265e+06
4.66268e+06
4.66271e+06
4.66274e+06
4.66277e+06
4.66234e+06
4.66234e+06
4.66234e+06
4.66235e+06
4.66235e+06
4.66235e+06
4.66235e+06
4.66236e+06
4.66236e+06
4.66236e+06
4.66236e+06
4.66237e+06
4.66237e+06
4.66238e+06
4.6624e+06
4.66241e+06
4.66242e+06
4.66244e+06
4.66245e+06
4.66247e+06
4.66248e+06
4.66249e+06
4.6625e+06
4.6625e+06
4.6625e+06
4.6625e+06
4.66249e+06
4.66249e+06
4.66249e+06
4.66248e+06
4.66248e+06
4.66249e+06
4.66249e+06
4.66249e+06
4.6625e+06
4.66251e+06
4.66252e+06
4.66253e+06
4.66254e+06
4.66255e+06
4.66257e+06
4.66259e+06
4.66261e+06
4.66264e+06
4.66267e+06
4.6627e+06
4.66273e+06
4.66277e+06
4.6628e+06
4.66284e+06
4.66233e+06
4.66233e+06
4.66234e+06
4.66234e+06
4.66234e+06
4.66234e+06
4.66234e+06
4.66234e+06
4.66233e+06
4.66233e+06
4.66233e+06
4.66234e+06
4.66234e+06
4.66235e+06
4.66236e+06
4.66238e+06
4.66239e+06
4.66241e+06
4.66242e+06
4.66244e+06
4.66245e+06
4.66246e+06
4.66247e+06
4.66248e+06
4.66248e+06
4.66248e+06
4.66247e+06
4.66247e+06
4.66247e+06
4.66247e+06
4.66247e+06
4.66247e+06
4.66247e+06
4.66248e+06
4.66248e+06
4.66249e+06
4.6625e+06
4.66252e+06
4.66253e+06
4.66255e+06
4.66257e+06
4.66259e+06
4.66262e+06
4.66265e+06
4.66269e+06
4.66272e+06
4.66276e+06
4.66281e+06
4.66285e+06
4.6629e+06
4.66232e+06
4.66233e+06
4.66235e+06
4.66236e+06
4.66237e+06
4.66238e+06
4.66238e+06
4.66238e+06
4.66238e+06
4.66238e+06
4.66238e+06
4.66238e+06
4.66239e+06
4.6624e+06
4.66241e+06
4.66242e+06
4.66243e+06
4.66245e+06
4.66246e+06
4.66248e+06
4.66249e+06
4.6625e+06
4.66251e+06
4.66251e+06
4.66251e+06
4.66251e+06
4.6625e+06
4.6625e+06
4.6625e+06
4.66249e+06
4.66249e+06
4.66249e+06
4.66249e+06
4.6625e+06
4.6625e+06
4.66251e+06
4.66252e+06
4.66254e+06
4.66255e+06
4.66257e+06
4.66259e+06
4.66262e+06
4.66265e+06
4.66268e+06
4.66272e+06
4.66277e+06
4.66281e+06
4.66286e+06
4.66291e+06
4.66296e+06
4.66229e+06
4.66231e+06
4.66232e+06
4.66231e+06
4.66231e+06
4.6623e+06
4.6623e+06
4.6623e+06
4.6623e+06
4.6623e+06
4.66231e+06
4.66231e+06
4.66232e+06
4.66233e+06
4.66235e+06
4.66236e+06
4.66238e+06
4.6624e+06
4.66242e+06
4.66243e+06
4.66245e+06
4.66246e+06
4.66247e+06
4.66248e+06
4.66248e+06
4.66248e+06
4.66248e+06
4.66247e+06
4.66247e+06
4.66247e+06
4.66247e+06
4.66247e+06
4.66247e+06
4.66248e+06
4.66249e+06
4.6625e+06
4.66251e+06
4.66252e+06
4.66254e+06
4.66256e+06
4.66259e+06
4.66262e+06
4.66265e+06
4.66269e+06
4.66273e+06
4.66278e+06
4.66283e+06
4.66289e+06
4.66295e+06
4.66301e+06
4.66226e+06
4.6624e+06
4.66247e+06
4.66248e+06
4.66246e+06
4.66245e+06
4.66244e+06
4.66243e+06
4.66241e+06
4.66241e+06
4.6624e+06
4.6624e+06
4.6624e+06
4.66241e+06
4.66241e+06
4.66242e+06
4.66244e+06
4.66245e+06
4.66247e+06
4.66248e+06
4.66249e+06
4.6625e+06
4.66251e+06
4.66251e+06
4.66251e+06
4.66251e+06
4.6625e+06
4.6625e+06
4.6625e+06
4.66249e+06
4.66249e+06
4.66249e+06
4.66249e+06
4.6625e+06
4.66251e+06
4.66251e+06
4.66253e+06
4.66254e+06
4.66256e+06
4.66258e+06
4.66261e+06
4.66264e+06
4.66268e+06
4.66272e+06
4.66276e+06
4.66282e+06
4.66287e+06
4.66293e+06
4.663e+06
4.66307e+06
4.66181e+06
4.66209e+06
4.66218e+06
4.66222e+06
4.66224e+06
4.66226e+06
4.66227e+06
4.66228e+06
4.66229e+06
4.6623e+06
4.66231e+06
4.66231e+06
4.66233e+06
4.66234e+06
4.66235e+06
4.66237e+06
4.66239e+06
4.66241e+06
4.66243e+06
4.66244e+06
4.66246e+06
4.66247e+06
4.66248e+06
4.66248e+06
4.66248e+06
4.66248e+06
4.66248e+06
4.66248e+06
4.66248e+06
4.66248e+06
4.66248e+06
4.66248e+06
4.66248e+06
4.66248e+06
4.66249e+06
4.6625e+06
4.66252e+06
4.66253e+06
4.66255e+06
4.66258e+06
4.6626e+06
4.66264e+06
4.66268e+06
4.66272e+06
4.66277e+06
4.66282e+06
4.66288e+06
4.66295e+06
4.66302e+06
4.6631e+06
4.66341e+06
4.66289e+06
4.66264e+06
4.66254e+06
4.66249e+06
4.66245e+06
4.66242e+06
4.6624e+06
4.66239e+06
4.66238e+06
4.66238e+06
4.66238e+06
4.66238e+06
4.66239e+06
4.6624e+06
4.66241e+06
4.66242e+06
4.66244e+06
4.66245e+06
4.66247e+06
4.66248e+06
4.66249e+06
4.6625e+06
4.6625e+06
4.6625e+06
4.6625e+06
4.6625e+06
4.6625e+06
4.66249e+06
4.66249e+06
4.66249e+06
4.66249e+06
4.66249e+06
4.6625e+06
4.6625e+06
4.66251e+06
4.66253e+06
4.66254e+06
4.66256e+06
4.66259e+06
4.66262e+06
4.66265e+06
4.66269e+06
4.66273e+06
4.66278e+06
4.66284e+06
4.6629e+06
4.66297e+06
4.66305e+06
4.66314e+06
4.43143e+06
4.43792e+06
4.43891e+06
4.44327e+06
4.44472e+06
4.4474e+06
4.44861e+06
4.44986e+06
4.45029e+06
4.45045e+06
4.4504e+06
4.45002e+06
4.4499e+06
4.45007e+06
4.45004e+06
4.45163e+06
4.45136e+06
4.45531e+06
4.45401e+06
4.46474e+06
4.43077e+06
4.43724e+06
4.43824e+06
4.44255e+06
4.44398e+06
4.44659e+06
4.44777e+06
4.44898e+06
4.44941e+06
4.44959e+06
4.44956e+06
4.44918e+06
4.44907e+06
4.44923e+06
4.44922e+06
4.45074e+06
4.45047e+06
4.45429e+06
4.45318e+06
4.46419e+06
4.43038e+06
4.43681e+06
4.4378e+06
4.44204e+06
4.44345e+06
4.44598e+06
4.44714e+06
4.4483e+06
4.44872e+06
4.44893e+06
4.44889e+06
4.4485e+06
4.44838e+06
4.44855e+06
4.44857e+06
4.45e+06
4.4497e+06
4.4533e+06
4.45247e+06
4.46383e+06
4.43021e+06
4.43662e+06
4.4376e+06
4.44177e+06
4.44316e+06
4.44561e+06
4.44672e+06
4.44783e+06
4.44824e+06
4.44844e+06
4.44838e+06
4.44799e+06
4.44787e+06
4.44808e+06
4.4481e+06
4.44942e+06
4.44905e+06
4.45242e+06
4.45177e+06
4.46333e+06
4.43032e+06
4.4367e+06
4.43767e+06
4.44175e+06
4.44312e+06
4.44547e+06
4.44654e+06
4.44757e+06
4.44794e+06
4.44813e+06
4.44804e+06
4.44767e+06
4.44758e+06
4.44777e+06
4.44775e+06
4.44894e+06
4.44853e+06
4.45179e+06
4.45126e+06
4.46289e+06
4.43071e+06
4.43706e+06
4.43803e+06
4.44202e+06
4.44335e+06
4.44561e+06
4.4466e+06
4.44754e+06
4.44785e+06
4.44797e+06
4.44781e+06
4.44744e+06
4.44738e+06
4.44755e+06
4.44747e+06
4.44853e+06
4.44812e+06
4.45141e+06
4.45102e+06
4.46273e+06
4.43143e+06
4.43774e+06
4.4387e+06
4.4426e+06
4.44389e+06
4.44603e+06
4.44695e+06
4.44777e+06
4.44799e+06
4.44799e+06
4.44771e+06
4.4473e+06
4.44725e+06
4.4474e+06
4.44728e+06
4.44825e+06
4.44788e+06
4.45133e+06
4.45109e+06
4.46289e+06
4.43248e+06
4.43874e+06
4.43969e+06
4.4435e+06
4.44474e+06
4.44677e+06
4.44759e+06
4.44829e+06
4.44838e+06
4.44824e+06
4.44781e+06
4.44731e+06
4.44728e+06
4.44741e+06
4.44726e+06
4.44818e+06
4.44791e+06
4.45161e+06
4.45149e+06
4.46337e+06
4.4339e+06
4.4401e+06
4.44104e+06
4.44475e+06
4.44595e+06
4.44786e+06
4.44859e+06
4.44916e+06
4.44911e+06
4.44881e+06
4.44822e+06
4.44761e+06
4.44756e+06
4.44765e+06
4.4475e+06
4.44843e+06
4.44832e+06
4.45232e+06
4.4523e+06
4.46421e+06
4.43569e+06
4.44183e+06
4.44277e+06
4.44637e+06
4.44753e+06
4.44933e+06
4.44998e+06
4.45042e+06
4.45025e+06
4.44979e+06
4.44904e+06
4.44831e+06
4.4482e+06
4.44825e+06
4.44814e+06
4.44915e+06
4.44921e+06
4.45352e+06
4.45358e+06
4.46547e+06
4.43788e+06
4.44394e+06
4.44488e+06
4.44839e+06
4.44952e+06
4.45122e+06
4.45179e+06
4.45212e+06
4.45185e+06
4.45126e+06
4.45038e+06
4.44955e+06
4.44937e+06
4.44937e+06
4.44933e+06
4.45044e+06
4.45068e+06
4.4553e+06
4.45543e+06
4.46722e+06
4.44046e+06
4.44644e+06
4.44739e+06
4.45081e+06
4.45192e+06
4.45353e+06
4.45405e+06
4.45431e+06
4.45396e+06
4.45328e+06
4.45233e+06
4.45144e+06
4.4512e+06
4.45115e+06
4.45118e+06
4.45239e+06
4.45282e+06
4.45768e+06
4.45788e+06
4.46948e+06
4.44344e+06
4.44934e+06
4.45029e+06
4.45363e+06
4.45473e+06
4.45629e+06
4.45678e+06
4.45699e+06
4.45661e+06
4.45589e+06
4.45492e+06
4.45402e+06
4.45373e+06
4.45364e+06
4.45376e+06
4.45504e+06
4.45565e+06
4.46068e+06
4.46092e+06
4.47227e+06
4.44681e+06
4.45263e+06
4.45359e+06
4.45685e+06
4.45796e+06
4.45947e+06
4.45996e+06
4.46016e+06
4.45979e+06
4.45909e+06
4.45814e+06
4.45728e+06
4.45697e+06
4.45688e+06
4.45706e+06
4.45839e+06
4.45916e+06
4.46426e+06
4.46454e+06
4.47557e+06
4.45057e+06
4.45628e+06
4.45727e+06
4.46046e+06
4.46157e+06
4.46306e+06
4.46357e+06
4.4638e+06
4.46348e+06
4.46283e+06
4.46197e+06
4.46118e+06
4.46088e+06
4.46079e+06
4.46104e+06
4.46239e+06
4.46329e+06
4.46838e+06
4.46868e+06
4.47932e+06
4.45469e+06
4.4603e+06
4.4613e+06
4.46442e+06
4.46556e+06
4.46703e+06
4.46759e+06
4.46786e+06
4.46762e+06
4.46707e+06
4.46632e+06
4.46564e+06
4.46537e+06
4.4653e+06
4.46561e+06
4.46696e+06
4.46795e+06
4.47296e+06
4.47327e+06
4.48349e+06
4.45914e+06
4.46464e+06
4.46566e+06
4.46871e+06
4.46988e+06
4.47135e+06
4.47196e+06
4.4723e+06
4.47216e+06
4.47173e+06
4.47112e+06
4.47055e+06
4.47033e+06
4.4703e+06
4.47064e+06
4.47199e+06
4.47304e+06
4.47792e+06
4.47822e+06
4.48799e+06
4.46391e+06
4.46929e+06
4.47033e+06
4.47331e+06
4.4745e+06
4.47597e+06
4.47664e+06
4.47705e+06
4.47702e+06
4.47673e+06
4.47625e+06
4.47581e+06
4.47565e+06
4.47565e+06
4.47604e+06
4.47737e+06
4.47846e+06
4.48318e+06
4.48347e+06
4.49277e+06
4.46898e+06
4.47423e+06
4.47528e+06
4.47819e+06
4.4794e+06
4.48086e+06
4.48158e+06
4.48206e+06
4.48214e+06
4.48197e+06
4.48164e+06
4.48132e+06
4.48121e+06
4.48126e+06
4.48168e+06
4.48299e+06
4.4841e+06
4.48864e+06
4.48892e+06
4.49776e+06
4.47431e+06
4.47943e+06
4.48049e+06
4.48331e+06
4.48453e+06
4.48597e+06
4.48674e+06
4.48728e+06
4.48745e+06
4.48739e+06
4.48719e+06
4.48698e+06
4.48692e+06
4.48702e+06
4.48747e+06
4.48877e+06
4.48988e+06
4.49423e+06
4.4945e+06
4.50289e+06
4.4799e+06
4.48487e+06
4.48593e+06
4.48865e+06
4.48987e+06
4.49128e+06
4.49206e+06
4.49264e+06
4.49288e+06
4.49293e+06
4.49284e+06
4.49272e+06
4.49271e+06
4.49285e+06
4.49333e+06
4.49462e+06
4.49572e+06
4.49989e+06
4.50016e+06
4.50811e+06
4.48572e+06
4.49053e+06
4.49158e+06
4.49419e+06
4.49538e+06
4.49674e+06
4.49753e+06
4.49811e+06
4.4984e+06
4.49852e+06
4.49852e+06
4.49849e+06
4.49852e+06
4.4987e+06
4.49921e+06
4.50049e+06
4.50157e+06
4.50557e+06
4.50584e+06
4.51337e+06
4.49177e+06
4.49641e+06
4.49743e+06
4.49991e+06
4.50106e+06
4.50234e+06
4.50309e+06
4.50366e+06
4.50398e+06
4.50414e+06
4.50421e+06
4.50423e+06
4.50431e+06
4.50453e+06
4.50506e+06
4.50634e+06
4.50741e+06
4.51124e+06
4.51151e+06
4.51865e+06
4.49802e+06
4.50248e+06
4.50346e+06
4.5058e+06
4.50688e+06
4.50805e+06
4.50875e+06
4.50927e+06
4.50958e+06
4.50976e+06
4.50987e+06
4.50994e+06
4.51005e+06
4.51031e+06
4.51087e+06
4.51214e+06
4.5132e+06
4.51688e+06
4.51717e+06
4.52394e+06
4.50447e+06
4.50873e+06
4.50967e+06
4.51184e+06
4.51283e+06
4.51388e+06
4.51449e+06
4.51494e+06
4.5152e+06
4.51538e+06
4.51551e+06
4.51561e+06
4.51574e+06
4.51603e+06
4.51662e+06
4.5179e+06
4.51894e+06
4.5225e+06
4.5228e+06
4.52924e+06
4.51111e+06
4.51517e+06
4.51605e+06
4.51804e+06
4.51891e+06
4.51982e+06
4.52031e+06
4.52065e+06
4.52085e+06
4.52099e+06
4.52111e+06
4.52122e+06
4.52138e+06
4.5217e+06
4.52232e+06
4.52361e+06
4.52466e+06
4.52811e+06
4.52843e+06
4.53456e+06
4.51794e+06
4.52178e+06
4.52259e+06
4.52439e+06
4.52514e+06
4.52587e+06
4.52622e+06
4.52643e+06
4.52652e+06
4.52659e+06
4.52668e+06
4.5268e+06
4.52698e+06
4.52734e+06
4.528e+06
4.5293e+06
4.53036e+06
4.53372e+06
4.53408e+06
4.53993e+06
4.52495e+06
4.52857e+06
4.5293e+06
4.53089e+06
4.53149e+06
4.53204e+06
4.53223e+06
4.53228e+06
4.53224e+06
4.53222e+06
4.53225e+06
4.53236e+06
4.53256e+06
4.53296e+06
4.53366e+06
4.53499e+06
4.53608e+06
4.53938e+06
4.53978e+06
4.54537e+06
4.53213e+06
4.53551e+06
4.53616e+06
4.53755e+06
4.538e+06
4.53835e+06
4.53835e+06
4.53823e+06
4.53804e+06
4.53789e+06
4.53786e+06
4.53795e+06
4.53816e+06
4.5386e+06
4.53935e+06
4.54071e+06
4.54186e+06
4.5451e+06
4.54557e+06
4.55092e+06
4.53946e+06
4.5426e+06
4.54316e+06
4.54435e+06
4.54464e+06
4.5448e+06
4.54462e+06
4.5443e+06
4.54394e+06
4.54365e+06
4.54353e+06
4.54358e+06
4.54381e+06
4.54429e+06
4.5451e+06
4.54651e+06
4.54773e+06
4.55094e+06
4.55148e+06
4.55662e+06
4.54691e+06
4.54982e+06
4.55029e+06
4.55129e+06