/*--------------------------------*- C++ -*----------------------------------*\
  =========                 |
  \\      /  F ield         | OpenFOAM: The Open Source CFD Toolbox
   \\    /   O peration     | Website:  https://openfoam.org
    \\  /    A nd           | Version:  8
     \\/     M anipulation  |
\*---------------------------------------------------------------------------*/
FoamFile
{
    version     2.0;
    format      ascii;
    class       volScalarField;
    location    "400";
    object      T;
}
// * * * * * * * * * * * * * * * * * * * * * * * * * * * * * * * * * * * * * //

dimensions      [0 0 0 1 0 0 0];

internalField   nonuniform List<scalar> 
8400
(
300.349
300.353
300.354
300.355
300.354
300.352
300.349
300.344
300.338
300.331
300.322
300.312
300.3
300.287
300.272
300.255
300.237
300.216
300.194
300.171
300.145
300.118
300.09
300.061
300.032
300.002
299.972
299.943
299.914
299.888
299.863
299.84
299.821
299.805
299.793
299.785
299.782
299.784
299.791
299.803
299.82
299.842
299.868
299.897
299.93
299.964
299.999
300.032
300.062
300.077
300.335
300.335
300.335
300.335
300.333
300.331
300.328
300.325
300.32
300.314
300.308
300.3
300.291
300.281
300.27
300.258
300.244
300.229
300.213
300.196
300.177
300.158
300.138
300.117
300.096
300.076
300.055
300.035
300.016
299.998
299.982
299.968
299.956
299.947
299.94
299.936
299.935
299.937
299.942
299.95
299.961
299.975
299.991
300.009
300.028
300.047
300.066
300.084
300.097
300.103
300.267
300.264
300.264
300.262
300.261
300.259
300.256
300.253
300.25
300.246
300.241
300.236
300.23
300.223
300.215
300.207
300.197
300.187
300.176
300.164
300.152
300.139
300.126
300.112
300.099
300.086
300.073
300.061
300.05
300.039
300.031
300.023
300.017
300.013
300.01
300.01
300.011
300.014
300.019
300.026
300.034
300.043
300.054
300.065
300.077
300.088
300.098
300.106
300.11
300.114
300.148
300.146
300.148
300.149
300.15
300.151
300.152
300.153
300.153
300.153
300.152
300.151
300.149
300.147
300.144
300.141
300.137
300.132
300.127
300.121
300.115
300.109
300.102
300.095
300.088
300.082
300.075
300.069
300.064
300.059
300.056
300.053
300.051
300.051
300.051
300.052
300.055
300.058
300.063
300.068
300.074
300.081
300.088
300.095
300.102
300.108
300.112
300.115
300.116
300.117
300.03
300.031
300.038
300.043
300.048
300.054
300.059
300.064
300.068
300.072
300.076
300.08
300.083
300.086
300.088
300.089
300.09
300.091
300.091
300.09
300.089
300.087
300.085
300.083
300.08
300.078
300.076
300.074
300.072
300.071
300.07
300.07
300.07
300.071
300.073
300.075
300.078
300.082
300.086
300.091
300.096
300.101
300.105
300.11
300.113
300.115
300.117
300.117
300.117
300.118
299.92
299.928
299.94
299.952
299.963
299.974
299.984
299.995
300.005
300.014
300.023
300.031
300.038
300.045
300.051
300.057
300.061
300.065
300.068
300.071
300.072
300.073
300.074
300.074
300.074
300.073
300.073
300.073
300.073
300.073
300.073
300.075
300.076
300.078
300.081
300.084
300.088
300.092
300.096
300.1
300.105
300.109
300.112
300.114
300.116
300.117
300.117
300.117
300.116
300.116
299.849
299.863
299.881
299.898
299.915
299.931
299.946
299.961
299.974
299.987
299.999
300.009
300.019
300.028
300.036
300.042
300.048
300.053
300.057
300.06
300.062
300.063
300.065
300.065
300.066
300.066
300.066
300.066
300.067
300.068
300.069
300.071
300.074
300.077
300.08
300.084
300.089
300.093
300.098
300.103
300.107
300.11
300.113
300.115
300.116
300.116
300.116
300.115
300.113
300.111
299.858
299.872
299.889
299.906
299.922
299.938
299.953
299.967
299.98
299.991
300.002
300.011
300.02
300.027
300.033
300.038
300.043
300.046
300.049
300.051
300.052
300.053
300.054
300.054
300.054
300.055
300.055
300.056
300.057
300.059
300.061
300.064
300.068
300.072
300.076
300.081
300.086
300.092
300.097
300.102
300.107
300.11
300.113
300.115
300.115
300.115
300.113
300.11
300.107
300.104
299.945
299.949
299.958
299.966
299.975
299.983
299.991
299.998
300.005
300.011
300.017
300.022
300.026
300.03
300.033
300.035
300.037
300.039
300.04
300.041
300.041
300.042
300.042
300.042
300.042
300.043
300.044
300.045
300.047
300.05
300.053
300.057
300.061
300.066
300.072
300.078
300.084
300.09
300.096
300.102
300.107
300.111
300.113
300.114
300.113
300.111
300.107
300.103
300.098
300.093
300.003
300.003
300.005
300.007
300.009
300.011
300.014
300.016
300.018
300.019
300.021
300.023
300.024
300.025
300.026
300.027
300.028
300.028
300.029
300.029
300.03
300.03
300.031
300.032
300.033
300.034
300.035
300.037
300.04
300.043
300.047
300.052
300.057
300.063
300.07
300.077
300.084
300.09
300.097
300.103
300.107
300.11
300.112
300.111
300.108
300.103
300.098
300.091
300.085
300.079
300.002
300.004
300.006
300.007
300.009
300.01
300.011
300.012
300.013
300.013
300.014
300.015
300.015
300.015
300.016
300.016
300.017
300.018
300.019
300.02
300.021
300.022
300.023
300.024
300.026
300.028
300.03
300.033
300.036
300.04
300.045
300.051
300.057
300.064
300.071
300.078
300.085
300.091
300.097
300.102
300.105
300.107
300.106
300.103
300.098
300.091
300.084
300.078
300.072
300.067
300.002
300.002
300.003
300.003
300.004
300.004
300.004
300.004
300.005
300.005
300.005
300.006
300.006
300.007
300.008
300.009
300.011
300.012
300.014
300.016
300.018
300.02
300.022
300.023
300.025
300.028
300.03
300.033
300.036
300.041
300.046
300.052
300.059
300.066
300.073
300.08
300.085
300.09
300.094
300.097
300.098
300.098
300.095
300.09
300.084
300.077
300.072
300.069
300.069
300.065
300.004
300.004
300.004
300.004
300.005
300.005
300.005
300.005
300.005
300.005
300.006
300.006
300.007
300.008
300.009
300.011
300.013
300.015
300.017
300.019
300.022
300.024
300.026
300.028
300.03
300.031
300.033
300.036
300.039
300.043
300.048
300.055
300.062
300.069
300.076
300.081
300.084
300.086
300.087
300.087
300.086
300.083
300.079
300.074
300.071
300.07
300.074
300.077
300.085
300.077
300.003
300.003
300.003
300.004
300.004
300.005
300.005
300.006
300.006
300.007
300.007
300.008
300.009
300.01
300.012
300.014
300.016
300.019
300.022
300.025
300.028
300.031
300.034
300.035
300.037
300.038
300.038
300.04
300.042
300.045
300.05
300.057
300.064
300.072
300.077
300.079
300.08
300.078
300.076
300.072
300.069
300.067
300.065
300.067
300.075
300.087
300.106
300.102
300.092
300.085
300.007
300.008
300.009
300.009
300.01
300.01
300.01
300.01
300.01
300.01
300.01
300.01
300.011
300.012
300.013
300.015
300.018
300.022
300.026
300.031
300.036
300.04
300.043
300.045
300.046
300.046
300.045
300.044
300.044
300.045
300.049
300.056
300.064
300.071
300.075
300.075
300.072
300.067
300.062
300.06
300.059
300.065
300.074
300.093
300.12
300.122
300.111
300.102
300.095
300.093
299.999
299.998
299.997
299.996
299.995
299.995
299.995
299.995
299.996
299.997
299.998
299.999
300.001
300.004
300.007
300.011
300.016
300.022
300.03
300.038
300.046
300.053
300.058
300.061
300.061
300.059
300.055
300.051
300.047
300.044
300.044
300.05
300.059
300.067
300.07
300.068
300.065
300.061
300.06
300.069
300.077
300.107
300.132
300.133
300.123
300.113
300.105
300.099
300.098
300.107
300.01
300.013
300.016
300.019
300.022
300.024
300.025
300.026
300.027
300.027
300.027
300.026
300.026
300.026
300.027
300.028
300.031
300.036
300.044
300.054
300.065
300.074
300.081
300.085
300.084
300.081
300.073
300.064
300.053
300.043
300.036
300.04
300.05
300.06
300.064
300.062
300.07
300.075
300.091
300.142
300.155
300.147
300.137
300.125
300.112
300.103
300.099
300.102
300.116
300.146
299.992
299.985
299.98
299.977
299.974
299.972
299.971
299.971
299.972
299.973
299.976
299.978
299.981
299.984
299.988
299.994
300.002
300.014
300.031
300.053
300.076
300.097
300.114
300.124
300.127
300.124
300.113
300.097
300.075
300.05
300.027
300.038
300.044
300.052
300.046
300.068
300.141
300.164
300.156
300.143
300.13
300.116
300.103
300.093
300.087
300.089
300.1
300.126
300.168
300.232
300.017
300.026
300.039
300.053
300.066
300.076
300.084
300.09
300.093
300.093
300.092
300.09
300.089
300.09
300.093
300.102
300.113
300.129
300.147
300.166
300.186
300.204
300.212
300.21
300.199
300.18
300.154
300.12
300.075
300.013
299.93
300.01
299.984
299.946
299.922
299.928
299.953
299.972
299.977
299.979
299.984
299.991
300.003
300.021
300.049
300.087
300.138
300.206
300.293
300.402
299.978
299.96
299.943
299.925
299.904
299.882
299.858
299.832
299.804
299.773
299.737
299.693
299.638
299.564
299.452
299.255
298.986
298.888
298.789
298.766
298.772
298.85
298.975
299.146
299.335
299.523
299.69
299.824
299.914
299.955
299.951
299.903
299.818
299.733
299.681
299.667
299.679
299.701
299.728
299.762
299.805
299.858
299.921
299.994
300.077
300.172
300.278
300.396
300.526
300.666
303.147
303.143
303.139
303.135
303.131
303.127
303.123
303.12
303.116
303.112
303.109
303.105
303.102
303.098
303.095
303.092
303.088
303.085
303.082
303.079
303.075
303.072
303.069
303.066
303.063
303.06
303.057
303.054
303.051
303.048
303.045
303.043
303.04
303.037
303.034
303.032
303.029
303.026
303.023
303.021
303.018
303.016
303.013
303.011
303.009
303.006
303.004
303.003
303.001
303
303.15
303.15
303.15
303.15
303.15
303.149
303.149
303.149
303.149
303.149
303.148
303.148
303.148
303.147
303.147
303.147
303.146
303.146
303.145
303.145
303.145
303.144
303.144
303.143
303.143
303.142
303.142
303.141
303.141
303.141
303.14
303.14
303.139
303.139
303.138
303.138
303.137
303.137
303.136
303.136
303.135
303.135
303.135
303.134
303.134
303.133
303.133
303.133
303.133
303.132
303.15
303.15
303.15
303.15
303.15
303.15
303.15
303.15
303.15
303.15
303.15
303.15
303.15
303.15
303.15
303.15
303.15
303.15
303.15
303.15
303.15
303.15
303.15
303.15
303.15
303.15
303.15
303.15
303.149
303.149
303.149
303.149
303.149
303.149
303.149
303.149
303.149
303.149
303.149
303.149
303.149
303.149
303.149
303.149
303.149
303.149
303.149
303.149
303.149
303.149
303.15
303.15
303.15
303.15
303.15
303.15
303.15
303.15
303.15
303.15
303.15
303.15
303.15
303.15
303.15
303.15
303.15
303.15
303.15
303.15
303.15
303.15
303.15
303.15
303.15
303.15
303.15
303.15
303.15
303.15
303.15
303.15
303.15
303.15
303.15
303.15
303.15
303.15
303.15
303.15
303.15
303.15
303.15
303.15
303.15
303.15
303.15
303.15
303.15
303.15
303.15
303.15
303.15
303.15
303.15
303.15
303.15
303.15
303.15
303.15
303.15
303.15
303.15
303.15
303.15
303.15
303.15
303.15
303.15
303.15
303.15
303.15
303.15
303.15
303.15
303.15
303.15
303.15
303.15
303.15
303.15
303.15
303.15
303.15
303.15
303.15
303.15
303.15
303.15
303.15
303.15
303.15
303.15
303.15
303.15
303.15
303.15
303.15
303.15
303.15
303.15
303.15
303.15
303.15
303.15
303.15
303.15
303.15
303.15
303.15
303.15
303.15
303.15
303.15
303.15
303.15
303.15
303.15
303.15
303.15
303.15
303.15
303.15
303.15
303.15
303.15
303.15
303.15
303.15
303.15
303.15
303.15
303.15
303.15
303.15
303.15
303.15
303.15
303.15
303.15
303.15
303.15
303.15
303.15
303.15
303.15
303.15
303.15
303.15
303.15
303.15
303.15
303.15
303.15
303.15
303.15
303.15
303.15
303.15
303.15
303.15
303.15
303.15
303.15
303.15
303.15
303.15
303.15
303.15
303.15
303.15
303.15
303.15
303.15
303.15
303.15
303.15
303.15
303.15
303.15
303.15
303.15
303.15
303.15
303.15
303.15
303.15
303.15
303.15
303.15
303.15
303.15
303.15
303.15
303.15
303.15
303.15
303.15
303.15
303.15
303.15
303.15
303.15
303.15
303.15
303.15
303.15
303.15
303.15
303.15
303.15
303.15
303.15
303.15
303.15
303.15
303.15
303.15
303.15
303.15
303.15
303.15
303.15
303.15
303.15
303.15
303.15
303.15
303.15
303.15
303.15
303.15
303.15
303.15
303.15
303.15
303.15
303.15
303.15
303.15
303.15
303.15
303.15
303.15
303.15
303.15
303.15
303.15
303.15
303.15
303.15
303.15
303.15
303.15
303.15
303.15
303.15
303.15
303.15
303.15
303.15
303.15
303.15
303.15
303.15
303.15
303.15
303.15
303.15
303.15
303.15
303.15
303.15
303.15
303.15
303.15
303.15
303.15
303.15
303.15
303.15
303.15
303.15
303.15
303.15
303.15
303.15
303.15
303.15
303.15
303.15
303.15
303.15
303.15
303.15
303.15
303.15
303.15
303.15
303.15
303.15
303.15
303.15
303.15
303.15
303.15
303.15
303.15
303.15
303.15
303.15
303.15
303.15
303.15
303.15
303.15
303.15
303.15
303.15
303.15
303.15
303.15
303.15
303.15
303.15
303.15
303.15
303.15
303.15
303.15
303.15
303.15
303.15
303.15
303.15
303.15
303.15
303.15
303.15
303.15
303.15
303.15
303.15
303.15
303.15
303.15
303.15
303.15
303.15
303.15
303.15
303.15
303.15
303.15
303.15
303.15
303.15
303.15
303.15
303.15
303.15
303.15
303.15
303.15
303.15
303.15
303.15
303.15
303.15
303.15
303.15
303.15
303.15
303.15
303.15
303.15
303.15
303.15
303.15
303.15
303.15
303.15
303.15
303.15
303.15
303.15
303.15
303.15
303.15
303.15
303.15
303.15
303.15
303.15
303.15
303.15
303.15
303.15
303.15
303.15
303.15
303.15
303.15
303.15
303.15
303.15
303.15
303.15
303.15
303.15
303.15
303.15
303.15
303.15
303.15
303.15
303.15
303.15
303.15
303.15
303.15
303.15
303.15
303.15
303.15
303.15
303.15
303.15
303.15
303.15
303.15
303.15
303.15
303.15
303.15
303.15
303.15
303.15
303.15
303.15
303.15
303.15
303.15
303.15
303.15
303.15
303.15
303.15
303.15
303.15
303.15
303.15
303.15
303.15
303.15
303.15
303.15
303.15
303.15
303.15
303.15
303.15
303.15
303.15
303.15
303.15
303.15
303.15
303.15
303.15
303.15
303.15
303.15
303.15
303.15
303.15
303.15
303.15
303.15
303.15
303.15
303.15
303.15
303.15
303.15
303.15
303.15
303.15
303.15
303.15
303.15
303.15
303.15
303.15
303.15
303.15
303.15
303.15
303.15
303.15
303.15
303.15
303.15
303.15
303.15
303.15
303.15
303.15
303.15
303.15
303.15
303.15
303.15
303.15
303.15
303.15
303.15
303.15
303.15
303.15
303.15
303.15
303.15
303.15
303.15
303.15
303.15
303.15
303.15
303.15
303.15
303.15
303.15
303.15
303.15
303.15
303.15
303.15
303.15
303.15
303.15
303.15
303.15
303.15
303.15
303.15
303.15
303.15
303.15
303.15
303.15
303.15
303.15
303.15
303.15
303.15
303.15
303.15
303.15
303.15
303.15
303.15
303.15
303.15
303.15
303.15
303.15
303.15
303.15
303.15
303.15
303.15
303.15
303.15
303.15
303.15
303.15
303.15
303.15
303.15
303.15
303.15
303.15
303.15
303.15
303.15
303.15
303.15
303.15
303.15
303.15
303.15
303.15
303.15
303.15
303.15
303.15
303.15
303.15
303.15
303.15
303.15
303.15
303.15
303.15
303.15
303.15
303.15
303.15
303.15
303.15
303.15
303.15
303.15
303.15
303.15
303.15
303.15
303.15
303.15
303.15
303.15
303.15
303.15
303.15
303.15
303.15
303.15
303.15
303.15
303.15
303.15
303.15
303.15
303.15
303.15
303.15
303.15
303.15
303.15
303.15
303.15
303.15
303.15
303.15
303.15
303.15
303.15
303.15
303.15
303.15
303.15
303.15
303.15
303.15
303.15
303.15
303.15
303.15
303.15
303.15
303.15
303.15
303.15
303.15
303.15
303.15
303.15
303.15
303.15
303.15
303.15
303.15
303.15
303.15
303.15
303.15
303.15
303.15
303.15
303.15
303.15
303.15
303.15
303.15
303.15
303.15
303.15
303.15
303.15
303.15
303.15
303.15
303.15
303.15
303.15
303.15
303.15
303.15
303.15
303.15
303.15
303.15
303.15
303.15
303.15
303.15
303.15
303.15
303.15
303.15
303.15
303.15
303.15
303.15
303.15
303.15
303.15
303.15
303.15
303.15
303.15
303.15
303.15
303.15
303.15
303.15
303.149
303.149
303.149
303.149
303.149
303.149
303.149
303.149
303.149
303.149
303.149
303.149
303.149
303.149
303.148
303.148
303.148
303.148
303.148
303.148
303.147
303.147
303.147
303.15
303.15
303.15
303.15
303.15
303.149
303.149
303.149
303.149
303.149
303.148
303.148
303.148
303.147
303.147
303.147
303.146
303.146
303.145
303.145
303.145
303.144
303.144
303.143
303.143
303.142
303.142
303.141
303.141
303.14
303.14
303.139
303.139
303.138
303.137
303.137
303.136
303.136
303.135
303.134
303.134
303.133
303.132
303.131
303.13
303.129
303.128
303.127
303.126
303.124
303.147
303.143
303.139
303.135
303.131
303.127
303.123
303.12
303.116
303.112
303.109
303.105
303.102
303.098
303.095
303.092
303.088
303.085
303.082
303.079
303.075
303.072
303.069
303.066
303.063
303.06
303.057
303.054
303.051
303.048
303.045
303.042
303.04
303.037
303.034
303.031
303.029
303.026
303.023
303.021
303.018
303.015
303.013
303.01
303.007
303.005
303.002
303
302.997
302.995
302.977
303.135
303.149
303.123
303.039
302.834
302.427
301.741
300.762
299.662
298.855
298.57
298.578
298.709
298.748
298.532
298.189
298.289
299.137
299.776
302.978
303.136
303.149
303.122
303.036
302.829
302.416
301.721
300.735
299.63
298.826
298.548
298.559
298.679
298.682
298.459
298.171
298.34
299.161
299.775
302.979
303.136
303.149
303.121
303.034
302.822
302.404
301.701
300.707
299.6
298.8
298.529
298.543
298.65
298.635
298.418
298.171
298.377
299.172
299.773
302.98
303.136
303.149
303.12
303.031
302.815
302.39
301.679
300.679
299.571
298.777
298.512
298.53
298.619
298.589
298.382
298.174
298.416
299.179
299.769
302.981
303.137
303.149
303.119
303.027
302.808
302.376
301.657
300.651
299.545
298.758
298.498
298.513
298.587
298.545
298.351
298.181
298.454
299.184
299.765
302.982
303.137
303.148
303.118
303.024
302.799
302.36
301.635
300.624
299.521
298.741
298.485
298.486
298.554
298.504
298.325
298.192
298.489
299.187
299.76
302.983
303.137
303.148
303.117
303.02
302.791
302.345
301.612
300.599
299.499
298.724
298.472
298.466
298.521
298.466
298.302
298.206
298.519
299.187
299.755
302.984
303.137
303.148
303.115
303.016
302.782
302.33
301.591
300.574
299.478
298.709
298.459
298.437
298.488
298.431
298.284
298.224
298.542
299.184
299.749
302.985
303.138
303.147
303.114
303.011
302.773
302.314
301.569
300.551
299.459
298.694
298.446
298.419
298.453
298.398
298.27
298.243
298.559
299.18
299.743
302.986
303.138
303.147
303.112
303.007
302.764
302.299
301.548
300.53
299.441
298.68
298.433
298.403
298.42
298.367
298.261
298.259
298.569
299.173
299.736
302.987
303.138
303.146
303.11
303.002
302.754
302.283
301.528
300.51
299.426
298.667
298.42
298.389
298.392
298.343
298.255
298.272
298.573
299.164
299.729
302.988
303.138
303.146
303.108
302.998
302.745
302.268
301.509
300.491
299.412
298.655
298.408
298.377
298.37
298.323
298.251
298.279
298.57
299.153
299.721
302.989
303.138
303.145
303.107
302.993
302.736
302.253
301.49
300.475
299.4
298.644
298.395
298.365
298.353
298.309
298.247
298.281
298.563
299.14
299.714
302.99
303.138
303.145
303.105
302.988
302.726
302.238
301.473
300.46
299.391
298.634
298.382
298.355
298.34
298.297
298.241
298.277
298.55
299.125
299.706
302.991
303.138
303.144
303.103
302.984
302.717
302.224
301.457
300.447
299.384
298.625
298.369
298.345
298.329
298.286
298.234
298.269
298.534
299.11
299.699
302.991
303.138
303.143
303.101
302.979
302.708
302.21
301.442
300.437
299.38
298.618
298.355
298.334
298.319
298.277
298.225
298.257
298.514
299.093
299.691
302.992
303.138
303.143
303.099
302.974
302.699
302.197
301.428
300.428
299.378
298.612
298.341
298.322
298.309
298.266
298.215
298.242
298.491
299.075
299.684
302.993
303.138
303.142
303.097
302.969
302.69
302.185
301.415
300.422
299.378
298.607
298.326
298.309
298.298
298.255
298.202
298.224
298.466
299.057
299.678
302.993
303.137
303.141
303.095
302.965
302.682
302.173
301.404
300.418
299.382
298.605
298.311
298.294
298.286
298.243
298.189
298.205
298.44
299.039
299.671
302.994
303.137
303.141
303.093
302.961
302.674
302.163
301.395
300.416
299.388
298.606
298.296
298.278
298.273
298.23
298.174
298.184
298.413
299.022
299.665
302.995
303.137
303.14
303.091
302.957
302.667
302.153
301.387
300.416
299.397
298.609
298.281
298.26
298.258
298.216
298.158
298.163
298.386
299.004
299.66
302.995
303.137
303.139
303.089
302.953
302.661
302.146
301.382
300.42
299.41
298.615
298.266
298.239
298.241
298.2
298.142
298.142
298.36
298.988
299.655
302.995
303.136
303.138
303.088
302.95
302.655
302.14
301.379
300.426
299.426
298.625
298.254
298.218
298.222
298.183
298.125
298.121
298.335
298.973
299.651
302.996
303.136
303.138
303.087
302.947
302.652
302.136
301.38
300.437
299.447
298.64
298.243
298.194
298.201
298.165
298.107
298.102
298.312
298.959
299.648
302.996
303.136
303.137
303.086
302.946
302.65
302.135
301.384
300.451
299.472
298.661
298.236
298.17
298.178
298.146
298.09
298.084
298.291
298.948
299.645
302.996
303.136
303.137
303.085
302.945
302.65
302.137
301.392
300.471
299.504
298.688
298.234
298.146
298.155
298.125
298.073
298.068
298.275
298.939
299.642
302.996
303.135
303.137
303.086
302.946
302.652
302.144
301.406
300.497
299.541
298.722
298.238
298.123
298.13
298.105
298.057
298.055
298.262
298.932
299.641
302.995
303.135
303.137
303.086
302.949
302.658
302.155
301.426
300.529
299.587
298.766
298.252
298.102
298.105
298.084
298.042
298.045
298.256
298.929
299.639
302.995
303.135
303.137
303.088
302.953
302.667
302.172
301.454
300.571
299.641
298.821
298.276
298.087
298.081
298.065
298.03
298.04
298.256
298.929
299.639
302.994
303.134
303.137
303.09
302.959
302.68
302.195
301.49
300.621
299.706
298.887
298.315
298.081
298.061
298.048
298.022
298.042
298.264
298.934
299.639
302.993
303.134
303.138
303.093
302.967
302.698
302.226
301.536
300.684
299.782
298.967
298.37
298.088
298.046
298.036
298.019
298.051
298.282
298.944
299.639
302.992
303.134
303.138
303.096
302.978
302.72
302.265
301.593
300.758
299.872
299.063
298.446
298.114
298.041
298.032
298.024
298.07
298.31
298.958
299.64
302.99
303.133
303.139
303.101
302.991
302.748
302.312
301.663
300.848
299.977
299.175
298.543
298.165
298.05
298.04
298.041
298.102
298.351
298.979
299.642
302.988
303.133
303.141
303.107
303.006
302.78
302.369
301.746
300.953
300.098
299.305
298.666
298.246
298.082
298.066
298.075
298.15
298.407
299.006
299.644
302.986
303.132
303.142
303.113
303.023
302.818
302.435
301.843
301.076
300.238
299.453
298.812
298.363
298.145
298.118
298.13
298.217
298.476
299.04
299.646
302.983
303.132
303.143
303.119
303.042
302.859
302.509
301.955
301.219
300.397
299.62
298.981
298.516
298.25
298.201
298.212
298.305
298.561
299.081
299.649
302.98
303.131
303.145
303.125
303.061
302.903
302.592
302.081
301.382
300.58
299.807
299.169
298.702
298.412
298.32
298.324
298.416
298.659
299.129
299.653
302.976
303.13
303.146
303.131
303.08
302.949
302.679
302.219
301.566
300.789
300.017
299.373
298.903
298.602
298.474
298.465
298.548
298.769
299.182
299.657
302.972
303.129
303.147
303.137
303.098
302.994
302.769
302.368
301.77
301.025
300.255
299.594
299.114
298.806
298.653
298.629
298.695
298.886
299.24
299.661
302.967
303.128
303.148
303.141
303.114
303.035
302.857
302.52
301.99
301.292
300.528
299.841
299.333
299.014
298.845
298.806
298.85
299.007
299.3
299.665
302.962
303.127
303.148
303.145
303.127
303.072
302.938
302.671
302.221
301.586
300.842
300.125
299.57
299.221
299.036
298.985
299.007
299.126
299.362
299.669
302.956
303.125
303.148
303.147
303.136
303.101
303.009
302.811
302.451
301.902
301.2
300.463
299.842
299.436
299.229
299.154
299.156
299.24
299.422
299.673
302.95
303.123
303.148
303.149
303.143
303.122
303.065
302.93
302.665
302.222
301.599
300.869
300.178
299.674
299.406
299.306
299.293
299.345
299.479
299.678
302.943
303.121
303.148
303.15
303.147
303.136
303.105
303.023
302.848
302.524
302.016
301.345
300.614
299.987
299.595
299.438
299.413
299.44
299.532
299.681
302.936
303.119
303.148
303.15
303.149
303.144
303.129
303.087
302.986
302.779
302.414
301.864
301.167
300.447
299.879
299.581
299.515
299.522
299.58
299.685
302.929
303.117
303.147
303.15
303.15
303.148
303.142
303.123
303.075
302.964
302.743
302.362
301.795
301.085
300.365
299.83
299.605
299.591
299.621
299.687
302.922
303.114
303.147
303.15
303.15
303.15
303.147
303.141
303.122
303.074
302.968
302.758
302.394
301.841
301.129
300.385
299.825
299.653
299.655
299.688
302.914
303.112
303.147
303.15
303.15
303.15
303.149
303.147
303.141
303.125
303.086
303
302.828
302.52
302.027
301.338
300.537
299.851
299.691
299.688
302.906
303.109
303.146
303.15
303.15
303.15
303.15
303.149
303.147
303.143
303.131
303.104
303.047
302.935
302.727
302.366
301.792
300.973
300.006
299.718
302.899
303.106
303.146
303.15
303.15
303.15
303.15
303.15
303.149
303.147
303.143
303.134
303.117
303.084
303.026
302.927
302.756
302.45
301.876
300.668
302.892
303.104
303.145
303.15
303.15
303.15
303.15
303.15
303.15
303.149
303.147
303.143
303.135
303.118
303.091
303.048
302.987
302.907
302.808
302.687
302.885
303.101
303.145
303.15
303.15
303.15
303.15
303.15
303.15
303.15
303.149
303.147
303.142
303.133
303.115
303.084
303.035
302.962
302.862
302.728
302.878
303.098
303.145
303.15
303.15
303.15
303.15
303.15
303.15
303.15
303.15
303.149
303.146
303.141
303.129
303.107
303.066
302.999
302.894
302.733
302.872
303.096
303.144
303.15
303.15
303.15
303.15
303.15
303.15
303.15
303.15
303.149
303.148
303.145
303.137
303.121
303.088
303.026
302.919
302.737
302.866
303.094
303.144
303.149
303.15
303.15
303.15
303.15
303.15
303.15
303.15
303.15
303.149
303.147
303.142
303.13
303.103
303.047
302.939
302.741
302.861
303.092
303.143
303.149
303.15
303.15
303.15
303.15
303.15
303.15
303.15
303.15
303.149
303.148
303.145
303.136
303.114
303.063
302.956
302.744
302.856
303.09
303.143
303.149
303.15
303.15
303.15
303.15
303.15
303.15
303.15
303.15
303.15
303.149
303.147
303.14
303.122
303.076
302.969
302.747
302.852
303.088
303.143
303.149
303.15
303.15
303.15
303.15
303.15
303.15
303.15
303.15
303.15
303.149
303.148
303.143
303.128
303.086
302.981
302.749
302.849
303.086
303.142
303.149
303.15
303.15
303.15
303.15
303.15
303.15
303.15
303.15
303.15
303.15
303.149
303.145
303.132
303.093
302.991
302.752
302.846
303.085
303.142
303.149
303.15
303.15
303.15
303.15
303.15
303.15
303.15
303.15
303.15
303.15
303.149
303.146
303.135
303.1
302.999
302.754
302.843
303.084
303.142
303.149
303.15
303.15
303.15
303.15
303.15
303.15
303.15
303.15
303.15
303.15
303.149
303.147
303.138
303.105
303.006
302.756
302.841
303.083
303.142
303.149
303.15
303.15
303.15
303.15
303.15
303.15
303.15
303.15
303.15
303.15
303.149
303.147
303.139
303.109
303.012
302.758
302.839
303.082
303.142
303.149
303.15
303.15
303.15
303.15
303.15
303.15
303.15
303.15
303.15
303.15
303.15
303.148
303.141
303.112
303.017
302.761
302.838
303.082
303.141
303.149
303.15
303.15
303.15
303.15
303.15
303.15
303.15
303.15
303.15
303.15
303.15
303.148
303.142
303.115
303.021
302.763
302.837
303.081
303.141
303.149
303.15
303.15
303.15
303.15
303.15
303.15
303.15
303.15
303.15
303.15
303.15
303.148
303.143
303.118
303.025
302.765
302.837
303.081
303.141
303.149
303.15
303.15
303.15
303.15
303.15
303.15
303.15
303.15
303.15
303.15
303.15
303.149
303.143
303.12
303.028
302.767
302.837
303.081
303.141
303.149
303.15
303.15
303.15
303.15
303.15
303.15
303.15
303.15
303.15
303.15
303.15
303.149
303.144
303.121
303.031
302.769
302.837
303.08
303.141
303.149
303.15
303.15
303.15
303.15
303.15
303.15
303.15
303.15
303.15
303.15
303.15
303.149
303.144
303.123
303.033
302.771
302.837
303.08
303.141
303.149
303.15
303.15
303.15
303.15
303.15
303.15
303.15
303.15
303.15
303.15
303.15
303.149
303.145
303.124
303.036
302.773
302.838
303.08
303.141
303.149
303.15
303.15
303.15
303.15
303.15
303.15
303.15
303.15
303.15
303.15
303.15
303.149
303.145
303.125
303.038
302.775
302.839
303.081
303.141
303.149
303.15
303.15
303.15
303.15
303.15
303.15
303.15
303.15
303.15
303.15
303.15
303.149
303.145
303.126
303.04
302.777
302.84
303.081
303.141
303.149
303.15
303.15
303.15
303.15
303.15
303.15
303.15
303.15
303.15
303.15
303.15
303.149
303.146
303.127
303.041
302.779
302.841
303.081
303.141
303.149
303.15
303.15
303.15
303.15
303.15
303.15
303.15
303.15
303.15
303.15
303.15
303.149
303.146
303.127
303.043
302.781
302.842
303.081
303.141
303.149
303.15
303.15
303.15
303.15
303.15
303.15
303.15
303.15
303.15
303.15
303.15
303.149
303.146
303.128
303.044
302.783
302.843
303.082
303.141
303.149
303.15
303.15
303.15
303.15
303.15
303.15
303.15
303.15
303.15
303.15
303.15
303.149
303.146
303.128
303.046
302.785
302.845
303.082
303.141
303.149
303.15
303.15
303.15
303.15
303.15
303.15
303.15
303.15
303.15
303.15
303.15
303.149
303.146
303.129
303.047
302.787
302.846
303.083
303.142
303.149
303.15
303.15
303.15
303.15
303.15
303.15
303.15
303.15
303.15
303.15
303.15
303.149
303.146
303.129
303.048
302.789
302.848
303.083
303.142
303.149
303.15
303.15
303.15
303.15
303.15
303.15
303.15
303.15
303.15
303.15
303.15
303.149
303.146
303.13
303.049
302.791
302.849
303.083
303.142
303.149
303.15
303.15
303.15
303.15
303.15
303.15
303.15
303.15
303.15
303.15
303.15
303.149
303.146
303.13
303.051
302.793
302.851
303.084
303.142
303.149
303.15
303.15
303.15
303.15
303.15
303.15
303.15
303.15
303.15
303.15
303.15
303.149
303.147
303.13
303.052
302.795
302.853
303.084
303.142
303.149
303.15
303.15
303.15
303.15
303.15
303.15
303.15
303.15
303.15
303.15
303.15
303.149
303.147
303.131
303.053
302.797
302.854
303.085
303.142
303.149
303.15
303.15
303.15
303.15
303.15
303.15
303.15
303.15
303.15
303.15
303.15
303.149
303.147
303.131
303.054
302.8
302.856
303.085
303.142
303.149
303.15
303.15
303.15
303.15
303.15
303.15
303.15
303.15
303.15
303.15
303.15
303.149
303.147
303.131
303.055
302.802
302.858
303.086
303.142
303.149
303.15
303.15
303.15
303.15
303.15
303.15
303.15
303.15
303.15
303.15
303.15
303.149
303.147
303.132
303.056
302.804
302.859
303.087
303.142
303.149
303.15
303.15
303.15
303.15
303.15
303.15
303.15
303.15
303.15
303.15
303.15
303.149
303.147
303.132
303.057
302.806
302.861
303.087
303.142
303.149
303.15
303.15
303.15
303.15
303.15
303.15
303.15
303.15
303.15
303.15
303.15
303.15
303.147
303.132
303.057
302.808
302.863
303.088
303.142
303.149
303.15
303.15
303.15
303.15
303.15
303.15
303.15
303.15
303.15
303.15
303.15
303.15
303.147
303.132
303.058
302.81
302.864
303.089
303.143
303.149
303.15
303.15
303.15
303.15
303.15
303.15
303.15
303.15
303.15
303.15
303.15
303.15
303.147
303.133
303.059
302.812
302.866
303.089
303.143
303.149
303.15
303.15
303.15
303.15
303.15
303.15
303.15
303.15
303.15
303.15
303.15
303.15
303.147
303.133
303.06
302.814
302.868
303.09
303.143
303.149
303.15
303.15
303.15
303.15
303.15
303.15
303.15
303.15
303.15
303.15
303.15
303.15
303.147
303.133
303.061
302.816
302.87
303.091
303.143
303.149
303.15
303.15
303.15
303.15
303.15
303.15
303.15
303.15
303.15
303.15
303.15
303.15
303.147
303.133
303.062
302.818
302.871
303.091
303.143
303.149
303.15
303.15
303.15
303.15
303.15
303.15
303.15
303.15
303.15
303.15
303.15
303.15
303.147
303.133
303.063
302.82
302.873
303.092
303.143
303.149
303.15
303.15
303.15
303.15