/*--------------------------------*- C++ -*----------------------------------*\
  =========                 |
  \\      /  F ield         | OpenFOAM: The Open Source CFD Toolbox
   \\    /   O peration     | Website:  https://openfoam.org
    \\  /    A nd           | Version:  8
     \\/     M anipulation  |
\*---------------------------------------------------------------------------*/
FoamFile
{
    version     2.0;
    format      ascii;
    class       volVectorField;
    location    "400";
    object      U;
}
// * * * * * * * * * * * * * * * * * * * * * * * * * * * * * * * * * * * * * //

dimensions      [0 1 -1 0 0 0 0];

internalField   nonuniform List<vector> 
8400
(
(-108.524 -0.128806 2.55646e-16)
(-108.551 -0.110519 2.40534e-16)
(-108.581 -0.0992165 2.26903e-16)
(-108.61 -0.091713 2.13653e-16)
(-108.634 -0.0876187 2.0297e-16)
(-108.646 -0.0870272 1.95027e-16)
(-108.639 -0.0902855 1.87645e-16)
(-108.608 -0.097811 1.81735e-16)
(-108.545 -0.10993 1.7726e-16)
(-108.443 -0.126879 1.73155e-16)
(-108.293 -0.148886 1.71108e-16)
(-108.089 -0.176245 1.71264e-16)
(-107.823 -0.209223 1.71695e-16)
(-107.484 -0.248125 1.73004e-16)
(-107.063 -0.293197 1.751e-16)
(-106.55 -0.344629 1.77011e-16)
(-105.936 -0.402591 1.80214e-16)
(-105.209 -0.467259 1.8476e-16)
(-104.36 -0.538812 1.88891e-16)
(-103.379 -0.617279 1.93225e-16)
(-102.255 -0.70253 1.97739e-16)
(-100.978 -0.794449 2.02346e-16)
(-99.5389 -0.892955 2.06923e-16)
(-97.9286 -0.997877 2.11332e-16)
(-96.1381 -1.1091 2.15609e-16)
(-94.159 -1.22657 2.19686e-16)
(-91.9835 -1.35017 2.2441e-16)
(-89.6037 -1.47969 2.28339e-16)
(-87.0118 -1.61488 2.31114e-16)
(-84.2009 -1.75554 2.34281e-16)
(-81.1649 -1.90136 2.37267e-16)
(-77.8986 -2.05174 2.39964e-16)
(-74.3986 -2.20573 2.43253e-16)
(-70.6633 -2.36204 2.45879e-16)
(-66.694 -2.51903 2.47287e-16)
(-62.4949 -2.67432 2.48993e-16)
(-58.0743 -2.82536 2.50515e-16)
(-53.4458 -2.96899 2.51866e-16)
(-48.6275 -3.10146 2.53059e-16)
(-43.6428 -3.21948 2.54281e-16)
(-38.5221 -3.31911 2.55173e-16)
(-33.3031 -3.39566 2.56503e-16)
(-28.0302 -3.44541 2.57586e-16)
(-22.7555 -3.46432 2.57523e-16)
(-17.531 -3.44914 2.58169e-16)
(-12.3948 -3.4025 2.59977e-16)
(-7.37715 -3.34225 2.62646e-16)
(-2.49839 -3.3082 2.67574e-16)
(2.42536 -3.25654 2.75436e-16)
(5.76087 -2.74709 3.051e-16)
(-101.398 0.155981 5.41806e-16)
(-101.275 0.160309 5.2829e-16)
(-101.164 0.152084 5.14499e-16)
(-101.042 0.136386 5.003e-16)
(-100.906 0.113308 4.85736e-16)
(-100.753 0.0823354 4.7092e-16)
(-100.578 0.0426503 4.5558e-16)
(-100.376 -0.00655084 4.39787e-16)
(-100.143 -0.0659397 4.23488e-16)
(-99.8716 -0.13607 4.06786e-16)
(-99.5545 -0.217451 3.90091e-16)
(-99.1839 -0.310757 3.73471e-16)
(-98.7518 -0.416607 3.56747e-16)
(-98.25 -0.535595 3.40111e-16)
(-97.6698 -0.668232 3.23633e-16)
(-97.0024 -0.814942 3.06786e-16)
(-96.2392 -0.976083 2.90755e-16)
(-95.3716 -1.15188 2.75736e-16)
(-94.3913 -1.34239 2.60669e-16)
(-93.29 -1.54744 2.46062e-16)
(-92.0596 -1.7666 2.31976e-16)
(-90.6923 -1.99943 2.18464e-16)
(-89.1806 -2.24554 2.06096e-16)
(-87.5175 -2.50441 1.94352e-16)
(-85.6963 -2.77562 1.85371e-16)
(-83.7104 -3.05897 1.7636e-16)
(-81.5536 -3.35412 1.68322e-16)
(-79.2195 -3.66075 1.61326e-16)
(-76.7017 -3.97852 1.5454e-16)
(-73.9942 -4.30698 1.48854e-16)
(-71.0919 -4.64537 1.44341e-16)
(-67.9902 -4.99219 1.39652e-16)
(-64.686 -5.3451 1.34855e-16)
(-61.1785 -5.70057 1.29775e-16)
(-57.4692 -6.05434 1.24305e-16)
(-53.5625 -6.40071 1.19358e-16)
(-49.4674 -6.73294 1.14884e-16)
(-45.1972 -7.04334 1.10903e-16)
(-40.7708 -7.3223 1.08051e-16)
(-36.212 -7.56028 1.05295e-16)
(-31.5502 -7.74751 1.02419e-16)
(-26.8222 -7.87331 1.01266e-16)
(-22.0721 -7.92825 1.00719e-16)
(-17.3512 -7.90255 1.00008e-16)
(-12.7141 -7.78422 1.0085e-16)
(-8.2144 -7.56744 1.03799e-16)
(-3.87839 -7.25772 1.08033e-16)
(0.278692 -6.87326 1.17767e-16)
(4.1186 -6.22701 1.32272e-16)
(6.67703 -5.24407 1.48366e-16)
(-91.6454 -0.321468 1.76398e-16)
(-91.363 -0.31063 1.6876e-16)
(-91.1257 -0.313944 1.60959e-16)
(-90.8737 -0.327333 1.52442e-16)
(-90.6082 -0.351628 1.44426e-16)
(-90.3257 -0.388234 1.37123e-16)
(-90.0221 -0.43878 1.29299e-16)
(-89.6923 -0.504826 1.21498e-16)
(-89.3306 -0.587762 1.13797e-16)
(-88.9308 -0.688918 1.05611e-16)
(-88.4863 -0.809573 9.81882e-17)
(-87.9905 -0.950884 9.1721e-17)
(-87.4365 -1.11385 8.49579e-17)
(-86.817 -1.29926 7.83004e-17)
(-86.1247 -1.50774 7.17068e-17)
(-85.3524 -1.73983 6.51567e-17)
(-84.4927 -1.9958 5.88394e-17)
(-83.5389 -2.27563 5.28273e-17)
(-82.4842 -2.57898 4.6973e-17)
(-81.3222 -2.90528 4.12426e-17)
(-80.0468 -3.25366 3.56448e-17)
(-78.6522 -3.62316 3.02516e-17)
(-77.133 -4.013 2.51508e-17)
(-75.4838 -4.42243 2.04652e-17)
(-73.6996 -4.85074 1.63203e-17)
(-71.7754 -5.29762 1.26872e-17)
(-69.706 -5.76279 9.8201e-18)
(-67.4861 -6.24591 6.96084e-18)
(-65.1097 -6.74682 3.73077e-18)
(-62.5712 -7.26504 1.22229e-18)
(-59.8653 -7.79916 -6.05265e-19)
(-56.9874 -8.3467 -1.94243e-18)
(-53.9341 -8.90346 -2.66098e-18)
(-50.7047 -9.46334 -3.54484e-18)
(-47.3013 -10.0189 -5.00867e-18)
(-43.7285 -10.5609 -6.17743e-18)
(-39.996 -11.0778 -7.20032e-18)
(-36.1179 -11.556 -8.05763e-18)
(-32.1134 -11.9799 -8.7834e-18)
(-28.0081 -12.3327 -9.32333e-18)
(-23.8332 -12.5973 -9.83779e-18)
(-19.6252 -12.757 -9.88314e-18)
(-15.4285 -12.7956 -9.49632e-18)
(-11.2974 -12.7 -1.00923e-17)
(-7.27257 -12.4511 -1.07918e-17)
(-3.44475 -12.0461 -1.02534e-17)
(0.218231 -11.4417 -8.92916e-18)
(3.56474 -10.5468 -4.20519e-18)
(6.1068 -9.45178 4.19091e-18)
(8.45369 -8.1262 1.13553e-17)
(-80.3016 -0.31279 1.47383e-16)
(-79.9161 -0.333681 1.4181e-16)
(-79.5929 -0.364527 1.36311e-16)
(-79.2522 -0.405165 1.30848e-16)
(-78.8984 -0.458396 1.25559e-16)
(-78.5283 -0.526934 1.2049e-16)
(-78.1379 -0.613309 1.15479e-16)
(-77.7222 -0.719722 1.10458e-16)
(-77.2758 -0.848037 1.05408e-16)
(-76.7931 -0.999909 9.99698e-17)
(-76.2683 -1.17693 9.50374e-17)
(-75.6954 -1.38035 9.07407e-17)
(-75.0685 -1.61128 8.62724e-17)
(-74.3813 -1.87061 8.18806e-17)
(-73.6279 -2.15903 7.75599e-17)
(-72.8022 -2.47695 7.29624e-17)
(-71.8983 -2.82452 6.86806e-17)
(-70.9111 -3.20153 6.48948e-17)
(-69.8354 -3.60733 6.09784e-17)
(-68.6667 -4.04092 5.70975e-17)
(-67.4004 -4.50103 5.32973e-17)
(-66.0329 -4.98631 4.95923e-17)
(-64.5603 -5.49585 4.60537e-17)
(-62.9788 -6.02901 4.2689e-17)
(-61.2846 -6.58526 3.95245e-17)
(-59.4738 -7.16453 3.65793e-17)
(-57.5418 -7.76705 3.42671e-17)
(-55.4832 -8.39305 3.18376e-17)
(-53.2923 -9.04312 2.89894e-17)
(-50.9629 -9.7174 2.65614e-17)
(-48.489 -10.4143 2.45042e-17)
(-45.8653 -11.1306 2.28115e-17)
(-43.0882 -11.86 2.14216e-17)
(-40.1576 -12.594 2.03098e-17)
(-37.0762 -13.3219 1.90959e-17)
(-33.8501 -14.0309 1.78554e-17)
(-30.4894 -14.7049 1.68476e-17)
(-27.0096 -15.3236 1.60416e-17)
(-23.432 -15.865 1.55723e-17)
(-19.7839 -16.3056 1.529e-17)
(-16.1029 -16.62 1.48256e-17)
(-12.4231 -16.7846 1.46715e-17)
(-8.7837 -16.7748 1.53261e-17)
(-5.26743 -16.5782 1.54083e-17)
(-1.85412 -16.1569 1.48397e-17)
(1.2693 -15.5183 1.44843e-17)
(4.15561 -14.5216 1.33238e-17)
(6.44436 -13.3298 1.3117e-17)
(8.63699 -11.9093 1.44156e-17)
(10.7279 -10.3209 1.56256e-17)
(-68.3729 -0.900256 1.31279e-16)
(-67.8842 -0.920375 1.27379e-16)
(-67.4937 -0.946426 1.23546e-16)
(-67.0884 -0.98266 1.19384e-16)
(-66.6734 -1.03434 1.15617e-16)
(-66.2446 -1.10578 1.12427e-16)
(-65.7976 -1.20041 1.09046e-16)
(-65.3273 -1.3209 1.05658e-16)
(-64.8286 -1.46941 1.02262e-16)
(-64.2962 -1.64793 9.84429e-17)
(-63.7249 -1.85814 9.49735e-17)
(-63.1094 -2.10146 9.20729e-17)
(-62.4446 -2.37906 8.89319e-17)
(-61.7253 -2.69184 8.57454e-17)
(-60.9465 -3.04031 8.24926e-17)
(-60.1034 -3.42466 7.87492e-17)
(-59.1916 -3.84476 7.52407e-17)
(-58.2071 -4.3 7.22e-17)
(-57.1468 -4.789 6.8898e-17)
(-56.0074 -5.31001 6.55474e-17)
(-54.7864 -5.86139 6.22024e-17)
(-53.4817 -6.44166 5.89062e-17)
(-52.0912 -7.04965 5.57369e-17)
(-50.6119 -7.68467 5.27158e-17)
(-49.0409 -8.3465 4.98523e-17)
(-47.3741 -9.03542 4.71752e-17)
(-45.6065 -9.75239 4.52116e-17)
(-43.7325 -10.4986 4.30632e-17)
(-41.7459 -11.2755 4.04059e-17)
(-39.6398 -12.0835 3.81489e-17)
(-37.4072 -12.9213 3.6179e-17)
(-35.0426 -13.7842 3.45479e-17)
(-32.542 -14.6642 3.36656e-17)
(-29.9069 -15.5495 3.28347e-17)
(-27.1414 -16.4262 3.13934e-17)
(-24.2538 -17.2773 3.01054e-17)
(-21.2569 -18.0816 2.90448e-17)
(-18.1688 -18.8127 2.81674e-17)
(-15.0114 -19.4414 2.73448e-17)
(-11.8083 -19.9382 2.74272e-17)
(-8.61917 -20.2655 2.763e-17)
(-5.46894 -20.3953 2.71476e-17)
(-2.36894 -20.2861 2.81022e-17)
(0.514772 -19.9267 2.91932e-17)
(3.27653 -19.2249 2.91222e-17)
(5.55062 -18.2686 2.92896e-17)
(7.63995 -17.0404 2.96927e-17)
(9.61157 -15.5556 2.94577e-17)
(11.4829 -13.8712 3.09975e-17)
(13.1954 -12.0578 3.19171e-17)
(-56.2746 -1.10464 8.91394e-17)
(-55.723 -1.14857 8.85112e-17)
(-55.2832 -1.19324 8.76745e-17)
(-54.8312 -1.24861 8.61379e-17)
(-54.3736 -1.32228 8.47434e-17)
(-53.9059 -1.41953 8.372e-17)
(-53.4232 -1.54409 8.21882e-17)
(-52.9202 -1.69872 8.03575e-17)
(-52.3918 -1.88572 7.8241e-17)
(-51.8331 -2.10717 7.53789e-17)
(-51.2394 -2.36481 7.26913e-17)
(-50.6059 -2.66005 7.04869e-17)
(-49.9281 -2.99399 6.78358e-17)
(-49.2016 -3.36742 6.49887e-17)
(-48.4222 -3.78067 6.20062e-17)
(-47.5864 -4.23366 5.88398e-17)
(-46.6913 -4.7258 5.57233e-17)
(-45.7343 -5.25587 5.29015e-17)
(-44.7138 -5.82196 5.01298e-17)
(-43.6285 -6.42187 4.73285e-17)
(-42.4782 -7.05373 4.45572e-17)
(-41.2623 -7.71603 4.1861e-17)
(-39.9798 -8.40781 3.92886e-17)
(-38.628 -9.129 3.68696e-17)
(-37.2033 -9.88063 3.4627e-17)
(-35.7003 -10.6645 3.26257e-17)
(-34.1126 -11.483 3.12065e-17)
(-32.4334 -12.3384 2.97304e-17)
(-30.6552 -13.2323 2.76257e-17)
(-28.7711 -14.1647 2.57035e-17)
(-26.7744 -15.1333 2.40087e-17)
(-24.6605 -16.1312 2.26214e-17)
(-22.4273 -17.1474 2.21241e-17)
(-20.0791 -18.1661 2.19108e-17)
(-17.6193 -19.1714 2.09637e-17)
(-15.0577 -20.1441 1.98699e-17)
(-12.415 -21.0549 1.89626e-17)
(-9.71584 -21.8696 1.81742e-17)
(-6.98123 -22.5542 1.75497e-17)
(-4.20877 -23.0745 1.68883e-17)
(-1.51674 -23.369 1.74052e-17)
(1.09541 -23.4083 1.67865e-17)
(3.62491 -23.1225 1.71835e-17)
(5.77362 -22.5343 1.83418e-17)
(7.77572 -21.6331 1.8746e-17)
(9.64381 -20.4296 1.90886e-17)
(11.3628 -18.9458 1.86308e-17)
(12.9242 -17.2167 1.79298e-17)
(14.3269 -15.2955 1.92493e-17)
(15.5245 -13.2526 2.00435e-17)
(-44.204 -1.73586 4.29227e-17)
(-43.5686 -1.77225 4.36862e-17)
(-43.093 -1.8011 4.43792e-17)
(-42.6149 -1.84399 4.441e-17)
(-42.1389 -1.91033 4.46495e-17)
(-41.6577 -2.00576 4.5523e-17)
(-41.1653 -2.13408 4.60657e-17)
(-40.656 -2.29827 4.63509e-17)
(-40.1248 -2.50076 4.6353e-17)
(-39.5667 -2.74346 4.54025e-17)
(-38.977 -3.02783 4.44908e-17)
(-38.3512 -3.35515 4.41654e-17)
(-37.685 -3.72635 4.33903e-17)
(-36.9744 -4.14188 4.23407e-17)
(-36.2162 -4.60166 4.10613e-17)
(-35.408 -5.10496 3.89349e-17)
(-34.5486 -5.65035 3.71203e-17)
(-33.6372 -6.23567 3.62261e-17)
(-32.674 -6.8581 3.50506e-17)
(-31.6606 -7.51455 3.37461e-17)
(-30.5988 -8.20229 3.24073e-17)
(-29.4903 -8.91957 3.10564e-17)
(-28.3349 -9.66638 2.9709e-17)
(-27.1295 -10.4448 2.84067e-17)
(-25.8683 -11.2595 2.71418e-17)
(-24.5439 -12.1151 2.60683e-17)
(-23.1455 -13.0171 2.56844e-17)
(-21.6646 -13.9683 2.53473e-17)
(-20.0902 -14.971 2.41344e-17)
(-18.4158 -16.0234 2.27113e-17)
(-16.637 -17.1207 2.13516e-17)
(-14.7569 -18.2484 2.01148e-17)
(-12.7768 -19.3888 1.94437e-17)
(-10.7062 -20.5213 1.96241e-17)
(-8.54274 -21.6315 1.95191e-17)
(-6.29336 -22.7007 1.87486e-17)
(-3.99571 -23.6841 1.80995e-17)
(-1.68951 -24.5347 1.76598e-17)
(0.613413 -25.2189 1.68507e-17)
(2.944 -25.6979 1.57195e-17)
(5.06217 -25.8868 1.69393e-17)
(7.06604 -25.7836 1.67874e-17)
(8.96147 -25.3574 1.63018e-17)
(10.7356 -24.5894 1.70264e-17)
(12.3559 -23.4803 1.71147e-17)
(13.7911 -22.0465 1.709e-17)
(15.0188 -20.3142 1.59045e-17)
(16.0268 -18.3234 1.45834e-17)
(16.813 -16.1323 1.45646e-17)
(17.3503 -13.8148 1.42101e-17)
(-32.2203 -2.13128 4.20226e-17)
(-31.5503 -2.15076 4.13313e-17)
(-31.0754 -2.16229 4.0577e-17)
(-30.6056 -2.20296 3.93456e-17)
(-30.1431 -2.27542 3.83547e-17)
(-29.6796 -2.38313 3.81595e-17)
(-29.2086 -2.5296 3.79605e-17)
(-28.7239 -2.71773 3.77403e-17)
(-28.2197 -2.94966 3.74512e-17)
(-27.6906 -3.2268 3.65431e-17)
(-27.1313 -3.55033 3.57451e-17)
(-26.5366 -3.9216 3.5615e-17)
(-25.9018 -4.34151 3.52972e-17)
(-25.2232 -4.80994 3.46869e-17)
(-24.4989 -5.32585 3.38289e-17)
(-23.729 -5.88732 3.22651e-17)
(-22.9141 -6.49161 3.0824e-17)
(-22.056 -7.13509 3.03378e-17)
(-21.1575 -7.81293 2.99109e-17)
(-20.2224 -8.51978 2.93128e-17)
(-19.2546 -9.25157 2.86911e-17)
(-18.257 -10.0069 2.79958e-17)
(-17.2315 -10.7877 2.72547e-17)
(-16.1777 -11.5982 2.64353e-17)
(-15.0854 -12.4486 2.55326e-17)
(-13.945 -13.3485 2.46819e-17)
(-12.7357 -14.3096 2.43509e-17)
(-11.4488 -15.3378 2.48689e-17)
(-10.068 -16.436 2.46825e-17)
(-8.58904 -17.6002 2.37089e-17)
(-7.00609 -18.8247 2.26758e-17)
(-5.33953 -20.0793 2.17238e-17)
(-3.59916 -21.3326 2.01293e-17)
(-1.79742 -22.5606 2.02618e-17)
(0.0774496 -23.7514 2.07883e-17)
(2.02589 -24.8881 2.0328e-17)
(3.96887 -25.9006 1.99202e-17)
(5.83288 -26.7274 1.96987e-17)
(7.65794 -27.3577 1.84266e-17)
(9.44689 -27.7536 1.87893e-17)
(11.1798 -27.8696 1.94366e-17)
(12.8224 -27.6627 1.92718e-17)
(14.3299 -27.0919 1.90504e-17)
(15.6632 -26.1387 1.93107e-17)
(16.7777 -24.8026 1.87345e-17)
(17.6365 -23.1024 1.88643e-17)
(18.2152 -21.0725 1.85122e-17)
(18.5005 -18.7578 1.74239e-17)
(18.4955 -16.2273 1.70224e-17)
(18.2035 -13.5628 1.58495e-17)
(-20.5428 -2.8149 3.00719e-17)
(-19.9217 -2.75254 3.00725e-17)
(-19.4721 -2.71301 2.96199e-17)
(-19.0449 -2.72844 2.87094e-17)
(-18.6247 -2.78298 2.76179e-17)
(-18.2052 -2.8793 2.71041e-17)
(-17.7804 -3.0217 2.69206e-17)
(-17.3439 -3.21287 2.64134e-17)
(-16.8895 -3.45431 2.55953e-17)
(-16.4106 -3.74726 2.41481e-17)
(-15.9005 -4.09362 2.26066e-17)
(-15.3519 -4.49588 2.2028e-17)
(-14.7593 -4.95541 2.19321e-17)
(-14.1197 -5.47129 2.16122e-17)
(-13.4341 -6.04045 2.10371e-17)
(-12.706 -6.6586 1.96379e-17)
(-11.9395 -7.32104 1.80621e-17)
(-11.1391 -8.02226 1.73888e-17)
(-10.3097 -8.75431 1.74322e-17)
(-9.45472 -9.50792 1.7363e-17)
(-8.57614 -10.2769 1.72618e-17)
(-7.67658 -11.0601 1.71337e-17)
(-6.76106 -11.8624 1.69448e-17)
(-5.84322 -12.684 1.66817e-17)
(-4.90079 -13.5456 1.62309e-17)
(-3.92275 -14.4645 1.58143e-17)
(-2.87869 -15.4601 1.4922e-17)
(-1.76512 -16.5399 1.57864e-17)
(-0.55951 -17.7084 1.66859e-17)
(0.739985 -18.9575 1.65194e-17)
(2.152 -20.2885 1.61346e-17)
(3.63276 -21.6472 1.61458e-17)
(5.14077 -22.9797 1.48838e-17)
(6.67936 -24.2732 1.47508e-17)
(8.25663 -25.5085 1.54323e-17)
(9.84946 -26.6488 1.55548e-17)
(11.4343 -27.6549 1.55259e-17)
(12.9915 -28.4858 1.5656e-17)
(14.5006 -29.0968 1.53249e-17)
(15.9345 -29.4366 1.54507e-17)
(17.2626 -29.4533 1.59803e-17)
(18.4467 -29.099 1.61952e-17)
(19.4334 -28.331 1.60725e-17)
(20.1743 -27.131 1.65272e-17)
(20.614 -25.4991 1.64918e-17)
(20.7102 -23.4577 1.65392e-17)
(20.4363 -21.0491 1.63964e-17)
(19.7845 -18.3236 1.5951e-17)
(18.7625 -15.3609 1.75293e-17)
(17.4422 -12.2668 1.77152e-17)
(-9.15409 -3.3778 1.52017e-17)
(-9.14271 -2.9882 1.5702e-17)
(-8.61872 -2.95971 1.57637e-17)
(-8.24777 -2.98989 1.49852e-17)
(-7.8843 -3.05544 1.33062e-17)
(-7.51588 -3.16599 1.26139e-17)
(-7.13756 -3.32837 1.36522e-17)
(-6.74664 -3.54385 1.44985e-17)
(-6.33915 -3.81234 1.48577e-17)
(-5.90957 -4.1348 1.46588e-17)
(-5.45055 -4.51449 1.28309e-17)
(-4.95227 -4.95665 1.16174e-17)
(-4.40981 -5.46495 1.23918e-17)
(-3.82085 -6.03707 1.31464e-17)
(-3.18807 -6.66582 1.36932e-17)
(-2.51625 -7.3431 1.38513e-17)
(-1.81264 -8.06175 1.23814e-17)
(-1.08391 -8.8152 1.10621e-17)
(-0.332832 -9.59497 1.12849e-17)
(0.442686 -10.3894 1.14633e-17)
(1.24497 -11.1916 1.15699e-17)
(2.07276 -12.0029 1.16429e-17)
(2.94584 -12.8411 1.16085e-17)
(3.83249 -13.6878 1.155e-17)
(4.73296 -14.5661 1.12211e-17)
(5.64651 -15.5012 1.1329e-17)
(6.59755 -16.5158 1.04656e-17)
(7.59361 -17.6201 1.03014e-17)
(8.65495 -18.8215 1.10814e-17)
(9.78719 -20.1142 1.1321e-17)
(10.9918 -21.4823 1.12642e-17)
(12.2625 -22.8986 1.15497e-17)
(13.5867 -24.324 1.12135e-17)
(14.947 -25.7121 1.05009e-17)
(16.3178 -27.0153 1.08877e-17)
(17.6654 -28.188 1.10831e-17)
(18.956 -29.1878 1.10836e-17)
(20.1608 -29.9719 1.11226e-17)
(21.2546 -30.4948 1.07118e-17)
(22.2051 -30.7031 1.06258e-17)
(22.9773 -30.5414 1.14987e-17)
(23.5307 -29.9583 1.16036e-17)
(23.8021 -28.9065 1.14899e-17)
(23.7373 -27.3694 1.16551e-17)
(23.2695 -25.3491 1.11755e-17)
(22.3524 -22.8733 1.08525e-17)
(20.9536 -19.9875 1.11503e-17)
(19.0914 -16.7535 1.18882e-17)
(16.7431 -13.2373 1.54578e-17)
(14.1962 -9.62855 1.59375e-17)
(2.38785 -4.65754 1.32748e-17)
(1.14179 -3.05188 1.38571e-17)
(1.5463 -2.9256 1.46088e-17)
(1.83868 -2.97525 1.63069e-17)
(2.06021 -3.06168 1.50423e-17)
(2.32376 -3.20084 1.1323e-17)
(2.63872 -3.40313 1.14575e-17)
(3.00408 -3.66748 1.24229e-17)
(3.42311 -3.99148 1.30302e-17)
(3.89857 -4.37455 1.49654e-17)
(4.42738 -4.81679 1.39737e-17)
(4.99414 -5.31922 1.14478e-17)
(5.57441 -5.88234 1.13724e-17)
(6.16806 -6.50294 1.18872e-17)
(6.78419 -7.17529 1.21964e-17)
(7.42666 -7.8929 1.33881e-17)
(8.09215 -8.6491 1.3148e-17)
(8.77601 -9.4368 1.19579e-17)
(9.47943 -10.2483 1.15971e-17)
(10.2082 -11.0742 1.15228e-17)
(10.9644 -11.9083 1.15113e-17)
(11.7461 -12.7504 1.14912e-17)
(12.5493 -13.6059 1.14689e-17)
(13.3732 -14.4859 1.14072e-17)
(14.2193 -15.4068 1.12403e-17)
(15.0895 -16.3897 1.15412e-17)
(15.9873 -17.4539 1.10065e-17)
(16.919 -18.613 1.04477e-17)
(17.8937 -19.8744 1.0844e-17)
(18.9166 -21.234 1.0987e-17)
(19.987 -22.673 1.09122e-17)
(21.0979 -24.1572 1.10033e-17)
(22.2329 -25.6374 1.0524e-17)
(23.3658 -27.0555 1.00639e-17)
(24.4593 -28.3533 1.01874e-17)
(25.4672 -29.4785 1.01893e-17)
(26.3419 -30.3858 9.97146e-18)
(27.0446 -31.0326 9.76934e-18)
(27.5465 -31.374 9.14226e-18)
(27.8093 -31.3541 9.05602e-18)
(27.7961 -30.9122 1.06023e-17)
(27.4662 -29.9928 1.08289e-17)
(26.7465 -28.5448 1.04986e-17)
(25.5806 -26.5569 1.03315e-17)
(23.889 -24.0369 9.38127e-18)
(21.6297 -21.0208 9.11704e-18)
(18.7367 -17.5366 1.15036e-17)
(15.3409 -13.6909 1.43198e-17)
(11.2013 -9.42024 2.66549e-17)
(7.39119 -5.20492 2.54708e-17)
(13.5681 -3.4886 1.30076e-17)
(13.3765 -3.00248 1.30926e-17)
(13.3991 -2.82659 1.28518e-17)
(13.4815 -2.79123 1.34746e-17)
(13.5885 -2.83785 1.39531e-17)
(13.7257 -2.96197 1.32135e-17)
(13.8998 -3.16414 1.27951e-17)
(14.1162 -3.4434 1.26587e-17)
(14.3786 -3.79924 1.25453e-17)
(14.6894 -4.23211 1.29041e-17)
(15.0488 -4.74265 1.30035e-17)
(15.4538 -5.33009 1.24343e-17)
(15.9008 -5.99097 1.21351e-17)
(16.3894 -6.71872 1.20653e-17)
(16.9204 -7.5047 1.17908e-17)
(17.4938 -8.33903 1.21927e-17)
(18.107 -9.21044 1.25139e-17)
(18.7566 -10.1057 1.20119e-17)
(19.4414 -11.0109 1.17531e-17)
(20.1607 -11.9144 1.16143e-17)
(20.9121 -12.8097 1.15271e-17)
(21.6909 -13.6963 1.14633e-17)
(22.4902 -14.5807 1.14032e-17)
(23.3041 -15.4763 1.13342e-17)
(24.1276 -16.4036 1.11826e-17)
(24.9569 -17.3869 1.15012e-17)
(25.7917 -18.4511 1.0984e-17)
(26.6335 -19.6148 1.02168e-17)
(27.4851 -20.8886 1.0325e-17)
(28.3489 -22.2686 1.02797e-17)
(29.2223 -23.7319 1.01167e-17)
(30.0938 -25.2355 1.0345e-17)
(30.9409 -26.7187 9.78954e-18)
(31.7288 -28.1091 9.2946e-18)
(32.4051 -29.3343 9.52152e-18)
(32.9062 -30.3334 9.44591e-18)
(33.1652 -31.0577 8.87601e-18)
(33.1319 -31.4648 7.87349e-18)
(32.7768 -31.512 6.9839e-18)
(32.0522 -31.1374 8.18636e-18)
(30.9256 -30.2777 1.148e-17)
(29.3557 -28.87 1.26151e-17)
(27.2663 -26.8714 1.18696e-17)
(24.6019 -24.2801 1.02469e-17)
(21.2685 -21.1166 7.59664e-18)
(17.2643 -17.439 7.5629e-18)
(12.3726 -13.1707 1.78513e-17)
(7.1717 -8.61347 2.78017e-17)
(0.497734 -3.27649 6.99308e-17)
(-4.11615 1.37128 6.41209e-17)
(26.7191 -3.30223 1.26454e-17)
(26.3371 -3.05816 1.2658e-17)
(26.078 -2.97993 1.22513e-17)
(25.9608 -3.03089 1.26267e-17)
(25.9201 -3.16059 1.31763e-17)
(25.9265 -3.36046 1.2795e-17)
(25.9761 -3.63157 1.25493e-17)
(26.0692 -3.97377 1.24495e-17)
(26.2054 -4.38684 1.20001e-17)
(26.3843 -4.87147 1.22637e-17)
(26.6063 -5.42857 1.27428e-17)
(26.8721 -6.0578 1.23782e-17)
(27.1832 -6.75658 1.21603e-17)
(27.542 -7.52035 1.208e-17)
(27.9517 -8.34255 1.18875e-17)
(28.4155 -9.21405 1.20489e-17)
(28.9348 -10.1226 1.22201e-17)
(29.5091 -11.053 1.19516e-17)
(30.1364 -11.989 1.17825e-17)
(30.8124 -12.9164 1.1664e-17)
(31.5293 -13.8255 1.15691e-17)
(32.2774 -14.7132 1.14823e-17)
(33.0448 -15.5852 1.13956e-17)
(33.8182 -16.4557 1.13002e-17)
(34.5838 -17.3477 1.11523e-17)
(35.3289 -18.2895 1.14141e-17)
(36.0432 -19.3107 1.10001e-17)
(36.72 -20.4365 1.0334e-17)
(37.3557 -21.6809 1.03816e-17)
(37.9486 -23.0403 1.03431e-17)
(38.4932 -24.4875 1.02307e-17)
(38.9716 -25.9681 1.05379e-17)
(39.3518 -27.4037 1.02874e-17)
(39.5934 -28.704 9.80841e-18)
(39.6282 -29.7803 9.97935e-18)
(39.3667 -30.5617 9.38772e-18)
(38.7105 -30.9922 7.50814e-18)
(37.5992 -31.0288 4.68934e-18)
(36.0118 -30.6346 3.28147e-18)
(33.8777 -29.7311 8.08833e-18)
(31.1929 -28.2664 1.63257e-17)
(27.894 -26.1467 1.87468e-17)
(23.95 -23.3838 1.61188e-17)
(19.2836 -19.9709 9.87018e-18)
(13.8026 -15.9566 3.37335e-18)
(7.67475 -11.4764 6.65014e-18)
(0.172434 -6.14007 4.36167e-17)
(-6.81876 -0.885439 7.79287e-17)
(-16.9902 6.12542 2.40789e-16)
(-20.1598 7.80871 3.40413e-16)
(39.176 -2.05018 1.23305e-17)
(38.9874 -1.97169 1.23272e-17)
(38.8053 -1.99121 1.17891e-17)
(38.7162 -2.10297 1.20853e-17)
(38.6842 -2.28213 1.27288e-17)
(38.674 -2.52642 1.24589e-17)
(38.6804 -2.84168 1.22868e-17)
(38.7057 -3.23224 1.22123e-17)
(38.7514 -3.70125 1.18934e-17)
(38.8194 -4.25162 1.2047e-17)
(38.9135 -4.88551 1.23665e-17)
(39.0388 -5.60352 1.21386e-17)
(39.202 -6.40396 1.20001e-17)
(39.4115 -7.28239 1.19467e-17)
(39.6766 -8.23092 1.1398e-17)
(40.0067 -9.23735 1.16492e-17)
(40.4089 -10.2849 1.22367e-17)
(40.8863 -11.3534 1.19269e-17)
(41.437 -12.4209 1.17249e-17)
(42.0537 -13.4666 1.1578e-17)
(42.7233 -14.4731 1.14568e-17)
(43.4277 -15.4311 1.13445e-17)
(44.1444 -16.3417 1.12318e-17)
(44.8479 -17.2178 1.11099e-17)
(45.51 -18.084 1.09457e-17)
(46.1028 -18.9734 1.13047e-17)
(46.6012 -19.9222 1.08269e-17)
(46.9855 -20.9641 1.00767e-17)
(47.2422 -22.1211 1.00913e-17)
(47.3643 -23.3956 1.00095e-17)
(47.3444 -24.7588 9.86606e-18)
(47.1584 -26.1425 1.03832e-17)
(46.7678 -27.4475 1.03683e-17)
(46.1401 -28.5665 1.00957e-17)
(45.193 -29.3981 1.03972e-17)
(43.796 -29.8561 8.16079e-18)
(41.7924 -29.8621 2.20414e-18)
(39.1277 -29.3781 -5.94172e-18)
(35.8057 -28.3741 -6.57124e-18)
(31.6862 -26.7163 1.36376e-17)
(26.9005 -24.4241 3.65485e-17)
(21.2243 -21.2635 3.82527e-17)
(14.9304 -17.472 2.60738e-17)
(7.74665 -12.9281 3.05082e-18)
(-0.24589 -7.84827 -1.19647e-17)
(-8.537 -2.502 9.9868e-18)
(-18.5513 4.15029 1.373e-16)
(-22.6593 6.55912 1.95605e-16)
(-23.6008 6.97079 2.33568e-16)
(-23.7599 6.83536 2.84092e-16)
(54.8449 -3.36274 1.19325e-17)
(54.2327 -3.32702 1.19274e-17)
(53.7052 -3.35669 1.14589e-17)
(53.2987 -3.4614 1.15932e-17)
(52.9683 -3.62454 1.21151e-17)
(52.6757 -3.84455 1.19475e-17)
(52.4124 -4.12678 1.184e-17)
(52.1796 -4.47604 1.17995e-17)
(51.9784 -4.89682 1.16394e-17)
(51.8106 -5.39412 1.16691e-17)
(51.6804 -5.97293 1.17973e-17)
(51.5944 -6.63743 1.16858e-17)
(51.5615 -7.39028 1.16182e-17)
(51.5927 -8.23157 1.16006e-17)
(51.7004 -9.15715 1.11234e-17)
(51.8972 -10.1569 1.13017e-17)
(52.1926 -11.214 1.18182e-17)
(52.5893 -12.3055 1.15755e-17)
(53.0815 -13.4039 1.14016e-17)
(53.6543 -14.4791 1.12619e-17)
(54.2838 -15.503 1.11352e-17)
(54.9383 -16.4541 1.10078e-17)
(55.5795 -17.324 1.08696e-17)
(56.1621 -18.1191 1.07134e-17)
(56.6364 -18.8626 1.05121e-17)
(56.9513 -19.5892 1.07426e-17)
(57.0581 -20.341 1.03065e-17)
(56.9173 -21.161 9.59072e-18)
(56.5024 -22.0843 9.50123e-18)
(55.804 -23.1268 9.34764e-18)
(54.8185 -24.2626 9.23107e-18)
(53.5048 -25.3986 1.02664e-17)
(51.839 -26.4197 1.12598e-17)
(49.8479 -27.2212 1.20149e-17)
(47.4525 -27.7015 1.22504e-17)
(44.4213 -27.7359 3.14804e-18)
(40.46 -27.173 -1.72393e-17)
(35.6267 -26.0258 -3.95503e-17)
(29.9544 -24.2637 -3.09369e-17)
(23.0959 -21.5714 4.88328e-17)
(15.7542 -18.2815 1.12207e-16)
(6.8842 -13.5586 9.55321e-17)
(-1.68143 -8.61065 4.14002e-17)
(-11.521 -2.58196 -3.13002e-17)
(-20.8337 3.2157 -4.79346e-17)
(-25.1999 5.48232 -2.19377e-18)
(-26.7786 6.05839 4.77344e-17)
(-27.0319 6.07605 8.95792e-17)
(-26.9868 5.89828 1.23974e-16)
(-26.605 5.59769 1.61952e-16)
(63.6092 -0.0782537 1.11986e-17)
(63.4378 -0.174124 1.12022e-17)
(63.2853 -0.345621 1.08136e-17)
(63.222 -0.580436 1.09348e-17)
(63.222 -0.868982 1.13723e-17)
(63.2417 -1.21517 1.12456e-17)
(63.2692 -1.62642 1.11729e-17)
(63.3038 -2.10987 1.11521e-17)
(63.3438 -2.67289 1.077e-17)
(63.3879 -3.32342 1.08957e-17)
(63.4375 -4.06948 1.1358e-17)
(63.4967 -4.9184 1.12348e-17)
(63.5725 -5.87555 1.11631e-17)
(63.6758 -6.94229 1.11415e-17)
(63.8214 -8.11377 1.07322e-17)
(64.0259 -9.37641 1.08433e-17)
(64.3035 -10.705 1.12613e-17)
(64.6612 -12.0654 1.10855e-17)
(65.0946 -13.4161 1.09523e-17)
(65.5861 -14.7104 1.08269e-17)
(66.1041 -15.9053 1.06879e-17)
(66.6037 -16.9628 1.05212e-17)
(67.0275 -17.8628 1.03161e-17)
(67.3034 -18.6031 1.00649e-17)
(67.3506 -19.2048 9.75069e-18)
(67.0862 -19.7037 9.81586e-18)
(66.4315 -20.1483 9.49666e-18)
(65.3226 -20.5942 8.61066e-18)
(63.7195 -21.0984 8.32386e-18)
(61.6168 -21.7084 8.14304e-18)
(59.0157 -22.4108 8.45117e-18)
(55.783 -23.0478 1.34642e-17)
(52.0345 -23.5375 1.74857e-17)
(47.9955 -23.8421 1.95931e-17)
(43.6368 -23.8932 1.80564e-17)
(38.3754 -23.4366 -2.2141e-17)
(31.5775 -22.1168 -9.73634e-17)
(23.949 -20.2323 -1.57819e-16)
(15.2919 -17.641 -8.7217e-17)
(4.82819 -13.3967 2.31351e-16)
(-4.47752 -9.05557 3.87961e-16)
(-17.3992 -1.57146 2.45503e-16)
(-25.128 3.04813 5.56305e-17)
(-28.8757 4.81477 8.5273e-18)
(-30.2337 5.20872 -9.86972e-18)
(-30.3422 5.13398 -1.44106e-17)
(-30.291 5.01032 -8.85937e-18)
(-29.9562 4.89067 2.9116e-18)
(-29.3422 4.74729 1.12838e-17)
(-28.523 4.55837 8.38296e-18)
(87.1811 -3.85643 1.10557e-17)
(86.3375 -3.93237 1.10498e-17)
(85.6051 -4.02943 1.04517e-17)
(84.9606 -4.14722 1.05442e-17)
(84.356 -4.29276 1.12003e-17)
(83.7534 -4.47637 1.11029e-17)
(83.1431 -4.7071 1.10441e-17)
(82.5235 -4.99389 1.10244e-17)
(81.8928 -5.34613 1.04611e-17)
(81.2503 -5.77397 1.06078e-17)
(80.5989 -6.28868 1.12567e-17)
(79.9466 -6.90249 1.11091e-17)
(79.3071 -7.62748 1.09991e-17)
(78.7017 -8.47372 1.09451e-17)
(78.1587 -9.44705 1.04099e-17)
(77.7114 -10.5445 1.05692e-17)
(77.3847 -11.7422 1.11123e-17)
(77.1891 -13.0033 1.08418e-17)
(77.1112 -14.2758 1.05978e-17)
(77.1152 -15.4936 1.03228e-17)
(77.1362 -16.5991 9.99021e-18)
(77.094 -17.531 9.57974e-18)
(76.8875 -18.2529 9.07345e-18)
(76.3965 -18.7443 8.44509e-18)
(75.4925 -19.0172 7.70192e-18)
(74.0554 -19.0948 7.2932e-18)
(71.9813 -19.0221 6.49703e-18)
(69.1908 -18.8572 5.41672e-18)
(65.6347 -18.6754 5.30391e-18)
(61.3179 -18.5723 6.1713e-18)
(56.177 -18.5366 9.62012e-18)
(49.5624 -18.1998 3.42756e-17)
(42.5906 -17.7683 4.89743e-17)
(35.8417 -17.3997 5.27321e-17)
(29.4001 -17.0673 3.45564e-17)
(21.2453 -16.0342 -1.60472e-16)
(10.2428 -13.4457 -4.50396e-16)
(0.102439 -10.689 -5.92804e-16)
(-11.766 -6.68604 -1.84883e-16)
(-25.976 0.449814 1.03568e-15)
(-31.5473 3.34985 1.13809e-15)
(-33.5619 4.29628 9.78074e-16)
(-34.1701 4.47116 7.83918e-16)
(-34.1672 4.39452 6.00193e-16)
(-33.8605 4.23115 4.45535e-16)
(-33.3077 4.09079 3.04852e-16)
(-32.6003 4.03855 1.70963e-16)
(-31.7521 4.03637 4.8026e-17)
(-30.7732 3.99112 -7.59103e-17)
(-29.7212 3.85316 -2.12737e-16)
(79.4664 2.40725 1.14669e-17)
(79.4994 2.07817 1.1475e-17)
(79.7414 1.70606 1.08428e-17)
(80.0931 1.33259 1.09757e-17)
(80.4934 0.932413 1.16565e-17)
(80.893 0.490812 1.15288e-17)
(81.275 -0.00117307 1.14266e-17)
(81.6347 -0.555274 1.13618e-17)
(81.9697 -1.18616 1.06892e-17)
(82.2812 -1.91085 1.07799e-17)
(82.574 -2.74834 1.1397e-17)
(82.8562 -3.71827 1.12507e-17)
(83.1367 -4.83821 1.11395e-17)
(83.4213 -6.11993 1.10663e-17)
(83.7067 -7.56483 1.04083e-17)
(83.975 -9.15779 1.05044e-17)
(84.142 -10.8291 1.08793e-17)
(84.1633 -12.5036 1.01919e-17)
(83.9536 -14.0889 9.21491e-18)
(83.511 -15.4927 7.88927e-18)
(82.7839 -16.6722 6.30762e-18)
(81.7265 -17.5639 4.54641e-18)
(80.2158 -18.1348 2.57033e-18)
(78.1254 -18.3551 3.95206e-19)
(75.3202 -18.249 -1.72276e-18)
(71.709 -17.833 -3.11393e-18)
(67.2291 -17.1572 -4.15529e-18)
(61.8432 -16.2699 -4.14948e-18)
(55.5097 -15.2413 -9.17046e-19)
(48.2349 -14.1708 7.94286e-18)
(39.2888 -12.8248 3.07202e-17)
(25.4244 -10.4886 1.70799e-16)
(14.9459 -8.97941 2.20739e-16)
(6.41642 -8.01897 2.07722e-16)
(-0.407221 -7.4432 7.32244e-17)
(-13.3166 -4.63206 -9.70691e-16)
(-30.2451 1.16641 -2.01079e-15)
(-36.6055 3.52342 -2.21785e-15)
(-38.8494 4.23422 -2.04547e-15)
(-39.2903 4.23423 -1.75532e-15)
(-38.9192 3.8984 -1.45203e-15)
(-38.5008 3.56641 -1.31029e-15)
(-37.8813 3.33061 -1.20425e-15)
(-37.0664 3.19935 -1.11199e-15)
(-36.1064 3.13932 -1.04022e-15)
(-35.0457 3.11496 -9.7611e-16)
(-33.9198 3.08795 -9.05893e-16)
(-32.7682 3.03936 -8.14413e-16)
(-31.6129 2.92574 -6.93244e-16)
(-30.4695 2.71817 -5.48965e-16)
(133.346 -4.89834 1.16483e-17)
(132.193 -5.1091 1.16634e-17)
(131.257 -5.20988 1.12879e-17)
(130.303 -5.2528 1.13749e-17)
(129.269 -5.28195 1.18161e-17)
(128.142 -5.31679 1.17235e-17)
(126.915 -5.3685 1.16413e-17)
(125.569 -5.4477 1.15849e-17)
(124.082 -5.56536 1.11277e-17)
(122.419 -5.73321 1.11538e-17)
(120.543 -5.96449 1.1575e-17)
(118.403 -6.27424 1.14622e-17)
(115.942 -6.67894 1.13779e-17)
(113.086 -7.19599 1.13313e-17)
(109.738 -7.8444 1.08639e-17)
(105.74 -8.65907 1.08952e-17)
(100.551 -9.66812 7.8277e-18)
(95.1244 -10.6364 1.52164e-18)
(89.3426 -11.5309 -6.02764e-18)
(83.6664 -12.2527 -1.51297e-17)
(78.0693 -12.8061 -2.44683e-17)
(72.6385 -13.1706 -3.3116e-17)
(66.7574 -13.2978 -4.14954e-17)
(60.3985 -13.1686 -4.89845e-17)
(53.4078 -12.7892 -5.39229e-17)
(45.8541 -12.1416 -5.48782e-17)
(37.7857 -11.2329 -4.91024e-17)
(29.2538 -10.0178 -3.38058e-17)
(20.1806 -8.42811 -2.38843e-18)
(10.5885 -6.2962 6.51731e-17)
(-5.75998 -2.01376 2.22553e-16)
(-46.2916 6.57859 1.18556e-15)
(-48.9622 6.23422 1.42363e-15)
(-49.2391 5.36598 1.48716e-15)
(-48.7733 4.69645 1.40903e-15)
(-47.9111 4.25889 1.24409e-15)
(-46.5755 3.84841 1.03044e-15)