/*--------------------------------*- C++ -*----------------------------------*\
  =========                 |
  \\      /  F ield         | OpenFOAM: The Open Source CFD Toolbox
   \\    /   O peration     | Website:  https://openfoam.org
    \\  /    A nd           | Version:  8
     \\/     M anipulation  |
\*---------------------------------------------------------------------------*/
FoamFile
{
    version     2.0;
    format      ascii;
    class       volScalarField;
    location    "100";
    object      alphat;
}
// * * * * * * * * * * * * * * * * * * * * * * * * * * * * * * * * * * * * * //

dimensions      [1 -1 -1 0 0 0 0];

internalField   nonuniform List<scalar> 
8400
(
0.0517394
0.0517308
0.0517819
0.0518836
0.0520245
0.0522024
0.0524119
0.0526427
0.0525579
0.0519243
0.0508567
0.0494221
0.0475881
0.0453308
0.0427763
0.0402815
0.0384052
0.0374225
0.0372543
0.037397
0.0377994
0.0382557
0.0383915
0.0383103
0.038478
0.0390235
0.039562
0.0398004
0.039624
0.0394491
0.0392605
0.0390584
0.0388472
0.0386255
0.038393
0.0381527
0.0378998
0.0376367
0.0373703
0.0371035
0.0368343
0.0365611
0.0362833
0.0360008
0.0357167
0.0354314
0.0351425
0.0348508
0.034558
0.0342645
0.0519879
0.0533094
0.0544705
0.0557096
0.0570947
0.0585935
0.0600681
0.0605651
0.0596601
0.0585854
0.0577512
0.0568934
0.0555957
0.0535104
0.0502954
0.0456294
0.0393755
0.0328707
0.031288
0.0298355
0.0282915
0.0269092
0.0272355
0.0273844
0.027068
0.0273786
0.028199
0.0286486
0.0289384
0.028842
0.028505
0.0280139
0.0274196
0.0267733
0.0261046
0.0254381
0.0247905
0.0241654
0.0235648
0.0229899
0.0224471
0.0219422
0.0214771
0.0210517
0.0206657
0.020322
0.0200266
0.0197826
0.019592
0.0194601
0.0517022
0.0537363
0.0559916
0.0592403
0.062343
0.0650702
0.0665786
0.0619771
0.0605838
0.0600977
0.059798
0.0594975
0.0591635
0.0588473
0.0586233
0.0599525
0.0585641
0.0335016
0.0347183
0.0352185
0.0341331
0.0271139
0.0275711
0.0300857
0.0280936
0.0233
0.0237785
0.0240926
0.0242722
0.0241362
0.0238059
0.0233797
0.022926
0.0224859
0.0220837
0.0217327
0.0214409
0.021209
0.0210305
0.0208998
0.0208122
0.020761
0.0207419
0.0207504
0.0207805
0.0208275
0.0208873
0.0209555
0.0210274
0.021099
0.060947
0.0607341
0.0608007
0.0609023
0.0609723
0.0610531
0.0610959
0.0610903
0.0610262
0.0608988
0.0607019
0.0604326
0.0600912
0.05968
0.0591797
0.0587943
0.0583995
0.0575933
0.057321
0.0570382
0.0624431
0.0287831
0.0316779
0.0443579
0.0561841
0.0222946
0.02216
0.0224341
0.0225061
0.0224117
0.022245
0.0220757
0.021941
0.0218611
0.0218402
0.0218732
0.02195
0.0220626
0.0222042
0.0223644
0.0225345
0.0227102
0.0228878
0.0230638
0.0232345
0.0233972
0.0235495
0.0236898
0.0238171
0.0239285
0.061163
0.0610796
0.061006
0.0609471
0.0609057
0.0608731
0.0608306
0.0607701
0.0606923
0.0605934
0.0604711
0.0603247
0.0601575
0.0599724
0.059772
0.0593934
0.0589599
0.058435
0.057841
0.0571392
0.0561149
0.0544471
0.0560609
0.0631148
0.132585
0.0233227
0.0220938
0.022028
0.0221157
0.0221586
0.0222181
0.0223239
0.022485
0.0227019
0.0229611
0.0232492
0.023555
0.0238691
0.0241834
0.0244906
0.0247891
0.0250765
0.0253484
0.0256052
0.0258465
0.0260693
0.0262727
0.0264568
0.0266203
0.0267608
0.0611622
0.0610788
0.0609942
0.0609086
0.0608232
0.0607411
0.0606615
0.0605804
0.0604941
0.0603977
0.0602893
0.0601711
0.0600346
0.0598774
0.0596966
0.0594802
0.059222
0.0589149
0.0585624
0.0581786
0.0577528
0.057267
0.0574519
0.0594109
0.063128
0.0557116
0.0811123
0.0221707
0.0221723
0.0224346
0.0227385
0.0230924
0.0234882
0.0239181
0.024362
0.024806
0.0252467
0.0256753
0.0260852
0.0264736
0.0268416
0.027189
0.0275132
0.0278143
0.0280919
0.028346
0.0285784
0.0287881
0.0289722
0.0291305
0.0611527
0.0610575
0.0609594
0.0608588
0.0607554
0.0606488
0.0605415
0.0604333
0.0603246
0.0602128
0.0600974
0.0599773
0.0598523
0.0597194
0.0595748
0.0594138
0.0592258
0.0590039
0.0587526
0.0584713
0.0581605
0.0578363
0.0577448
0.0582448
0.0587752
0.0571799
0.0627009
0.0472728
0.0222718
0.0227826
0.0233317
0.0239036
0.0244855
0.0250624
0.0256252
0.0261668
0.0266832
0.0271683
0.0276236
0.0280491
0.0284413
0.0288032
0.0291378
0.0294441
0.0297219
0.029973
0.0302
0.0304019
0.0305769
0.0307283
0.0611374
0.0610252
0.0609092
0.0607897
0.0606653
0.0605382
0.0604077
0.0602751
0.0601439
0.0600133
0.0598855
0.0597599
0.0596345
0.0595106
0.0593818
0.0592434
0.0590924
0.0589162
0.0587108
0.0584792
0.0582173
0.057936
0.0577477
0.0577616
0.0576386
0.0570501
0.0587417
0.0515935
0.0272116
0.0230393
0.0238194
0.0245729
0.0252919
0.0259698
0.0266096
0.0272044
0.0277507
0.0282515
0.028711
0.0291285
0.0295002
0.0298334
0.0301309
0.0303884
0.0306099
0.0307998
0.0309579
0.0310851
0.0311847
0.0312629
0.0611167
0.0609773
0.0608343
0.0606867
0.0605355
0.0603793
0.0602192
0.0600606
0.0599042
0.0597542
0.0596124
0.0594782
0.0593548
0.0592401
0.0591255
0.059008
0.0588782
0.0587303
0.0585564
0.0583506
0.0581159
0.0578588
0.0576264
0.0574501
0.0571313
0.0566954
0.0568617
0.0512783
0.0318615
0.0236027
0.0241437
0.0250372
0.0258562
0.0266009
0.0272816
0.0278955
0.0284438
0.0289333
0.0293666
0.0297453
0.0300661
0.0303333
0.0305489
0.0307097
0.0308213
0.0308843
0.0308956
0.0308615
0.0307904
0.0306925
0.0610813
0.0608946
0.0607067
0.0605209
0.0603283
0.060136
0.0599373
0.0597436
0.0595593
0.0593891
0.0592389
0.0591103
0.0589953
0.0588951
0.0588027
0.0587072
0.0586036
0.0584785
0.0583286
0.0581486
0.0579292
0.0576832
0.0574354
0.0571723
0.0567649
0.0562603
0.0555092
0.0500001
0.034449
0.0248782
0.0242899
0.0252935
0.0261754
0.0269552
0.0276489
0.0282612
0.0287962
0.0292632
0.0296602
0.0299933
0.0302604
0.0304604
0.0305964
0.0306612
0.0306583
0.030584
0.0304295
0.0302007
0.0299066
0.0295564
0.0610186
0.0607418
0.0604814
0.0602278
0.0599735
0.0597211
0.0594756
0.059248
0.0590381
0.0588613
0.0587203
0.0586154
0.0585371
0.0584752
0.0584173
0.0583567
0.0582778
0.0581746
0.0580446
0.0578809
0.0576787
0.0574425
0.0571808
0.0568661
0.0563978
0.0557321
0.0542392
0.048435
0.0355425
0.0262878
0.0246466
0.0253661
0.0262475
0.027035
0.0277227
0.0283294
0.0288484
0.0292989
0.0296596
0.0299521
0.0301895
0.0303494
0.0304356
0.0304485
0.0303868
0.0302445
0.0300052
0.0296864
0.0292989
0.0288441
0.0608461
0.0603155
0.0599494
0.0596151
0.0592895
0.0589745
0.0586889
0.0584492
0.0582626
0.0581344
0.0580633
0.0580331
0.0580123
0.0580065
0.0579932
0.0579603
0.0579161
0.0578309
0.0577113
0.057559
0.0573688
0.0571379
0.0568651
0.0565086
0.0559606
0.0550582
0.0528735
0.0467235
0.035773
0.0275304
0.025229
0.0254804
0.0262175
0.0269538
0.0276072
0.0281863
0.0286844
0.029115
0.029462
0.0297371
0.0299604
0.0301183
0.0302042
0.0302213
0.0301692
0.0300429
0.0298307
0.0295407
0.0291768
0.0287323
0.0600815
0.0595047
0.0590709
0.0586781
0.0583367
0.0580562
0.057844
0.0577002
0.0576155
0.0575664
0.0575585
0.0575705
0.057578
0.0575878
0.0575848
0.0575584
0.0575176
0.057438
0.057319
0.0571733
0.0569856
0.0567449
0.0564569
0.0561509
0.0554031
0.0541801
0.0513092
0.0449086
0.0355545
0.0285394
0.025949
0.0257169
0.026204
0.026825
0.0274153
0.0279495
0.0284155
0.0288176
0.0291553
0.0294329
0.0296565
0.0298242
0.029934
0.0299873
0.0299822
0.0299143
0.0297786
0.029576
0.0293085
0.0289772
0.0589975
0.0584865
0.0580957
0.0577859
0.0575514
0.0573876
0.0572781
0.0572122
0.0571812
0.0571667
0.057169
0.0571798
0.0571822
0.0571773
0.0571582
0.0571207
0.0570632
0.0569772
0.0568557
0.0566969
0.0564925
0.0562264
0.0558767
0.0554149
0.054609
0.0533682
0.0494981
0.0430462
0.0351427
0.0293476
0.0267496
0.0261113
0.0262811
0.0267121
0.0271918
0.0276553
0.0280772
0.0284488
0.0287719
0.0290492
0.0292805
0.0294663
0.029609
0.0297094
0.0297647
0.0297708
0.0297275
0.0296357
0.0294974
0.0293158
0.0578804
0.0575422
0.0572923
0.05711
0.056983
0.0568981
0.0568433
0.0568106
0.0567921
0.0567789
0.0567666
0.0567536
0.0567349
0.0567073
0.0566658
0.0566046
0.0565239
0.0564157
0.0562738
0.0560867
0.0558434
0.055514
0.0550448
0.0543779
0.0533735
0.0521865
0.0477351
0.0412402
0.0347087
0.0300261
0.0276002
0.0266835
0.0265325
0.0267166
0.0270268
0.0273732
0.0277152
0.0280331
0.0283221
0.028582
0.0288112
0.0290089
0.029177
0.0293157
0.0294226
0.0294957
0.0295361
0.0295451
0.0295233
0.0294731
0.0569872
0.0568095
0.0566775
0.0565785
0.0565064
0.0564501
0.0564057
0.0563682
0.0563347
0.0562998
0.056262
0.0562202
0.0561708
0.0561096
0.0560368
0.0559443
0.0558296
0.0556843
0.0554982
0.0552571
0.0549387
0.0544987
0.0538764
0.0530032
0.0517337
0.0502084
0.046367
0.0395905
0.0343589
0.0306672
0.028528
0.0274765
0.0270597
0.0269834
0.0270804
0.0272593
0.0274724
0.0276945
0.0279124
0.0281198
0.028314
0.0284935
0.0286573
0.0288039
0.0289325
0.0290423
0.0291337
0.0292069
0.0292613
0.0292971
0.0562474
0.0561508
0.0560666
0.0559929
0.055924
0.0558597
0.0557979
0.0557352
0.0556724
0.0556056
0.0555343
0.0554562
0.0553684
0.0552687
0.0551541
0.0550192
0.054854
0.0546475
0.0543905
0.0540629
0.0536318
0.053053
0.0522701
0.0512128
0.0497579
0.0480039
0.0448968
0.0381492
0.0341583
0.0313613
0.0295918
0.0285545
0.0279864
0.0277094
0.0276077
0.0276049
0.0276577
0.0277433
0.0278462
0.0279557
0.0280667
0.028177
0.0282846
0.0283871
0.028484
0.028575
0.0286598
0.0287371
0.0288058
0.0288656
0.0552805
0.0551985
0.0551134
0.0550285
0.0549428
0.0548537
0.054762
0.0546684
0.0545712
0.0544673
0.0543574
0.0542399
0.0541084
0.0539608
0.0537924
0.0535964
0.0533629
0.0530779
0.0527257
0.052285
0.0517288
0.0510197
0.0501098
0.0489424
0.0474513
0.0456359
0.0433899
0.0369863
0.0341433
0.0321766
0.0308537
0.0299888
0.0294362
0.0290914
0.0288814
0.0287559
0.0286835
0.0286447
0.0286253
0.0286157
0.0286109
0.0286092
0.028609
0.0286086
0.0286081
0.0286084
0.0286093
0.0286099
0.0286099
0.0286105
0.0534235
0.05334
0.0532491
0.0531529
0.0530516
0.0529457
0.0528348
0.0527164
0.0525904
0.0524552
0.0523082
0.0521463
0.0519669
0.0517652
0.0515347
0.051268
0.0509559
0.0505873
0.0501478
0.0496166
0.0489743
0.0481961
0.0472526
0.0461119
0.0447537
0.0430241
0.0417847
0.0361508
0.0343402
0.0331542
0.0323504
0.0318091
0.0314496
0.0312094
0.0310447
0.030927
0.0308362
0.0307575
0.0306799
0.0305967
0.0305047
0.0304024
0.0302894
0.0301664
0.0300357
0.0299003
0.0297621
0.0296232
0.029487
0.0293571
0.0586663
0.0582909
0.0579127
0.0575185
0.0571056
0.056671
0.0562135
0.0557336
0.0552317
0.0547061
0.0541575
0.0535858
0.0529904
0.0523694
0.0517217
0.0510463
0.0503386
0.0495922
0.0487972
0.0479392
0.0470059
0.0459868
0.0448795
0.0436927
0.0424431
0.0408582
0.0401322
0.0355602
0.0349761
0.0348422
0.0349391
0.0351792
0.0355087
0.0358884
0.0362918
0.0367002
0.0370984
0.0374748
0.037822
0.0381373
0.0384198
0.0386708
0.0388945
0.0390977
0.0392887
0.0394768
0.0396717
0.0398829
0.0401177
0.0403777
0.00545382
0.00543274
0.00539979
0.00538663
0.00538465
0.00537745
0.00535944
0.00533337
0.00530484
0.00527704
0.00525082
0.00522621
0.00520313
0.00518153
0.00516117
0.00514167
0.00512258
0.00510341
0.00508372
0.00506307
0.00501941
0.00498622
0.00496744
0.00494341
0.00491752
0.00489211
0.00486862
0.00484778
0.00483055
0.00481652
0.00480482
0.00479439
0.00478419
0.00477331
0.00476098
0.0047465
0.00472939
0.00470953
0.00468728
0.0046633
0.00463842
0.00461356
0.00458983
0.00456816
0.00454897
0.00453305
0.00451986
0.00451138
0.00451351
0.00452317
0.00540288
0.00534029
0.00523521
0.00510449
0.00497504
0.00485744
0.00475072
0.00465227
0.00455968
0.00447246
0.00439077
0.00431449
0.0042431
0.00417581
0.00411179
0.00405026
0.00399046
0.00393182
0.0038741
0.00381537
0.00372539
0.00366498
0.015653
0.015741
0.0157831
0.0158027
0.0158111
0.0158139
0.0158091
0.0157994
0.0157895
0.0157822
0.0157768
0.0157697
0.0157562
0.0157317
0.0156931
0.0156393
0.0155715
0.0154932
0.0154097
0.0153262
0.0152476
0.0151775
0.0151192
0.0150685
0.0150201
0.0149663
0.0149111
0.014905
0.0053803
0.00528542
0.00518987
0.00508224
0.00496802
0.00485439
0.00474541
0.00464183
0.00454333
0.00444971
0.00436097
0.00427703
0.00419749
0.0041218
0.0040493
0.00397935
0.00391132
0.00384467
0.0037791
0.0158469
0.015704
0.0155527
0.0154069
0.015269
0.0151407
0.0150233
0.0149177
0.0148242
0.0147419
0.014669
0.0146029
0.0145408
0.0144793
0.0144147
0.0143434
0.0142627
0.0141717
0.0140709
0.0139616
0.0138467
0.0137299
0.0136157
0.0135078
0.0134089
0.0133211
0.013246
0.0131807
0.0131111
0.0130126
0.0128689
0.00538879
0.00528002
0.00517607
0.00507096
0.00496356
0.00485544
0.00474921
0.00464663
0.00454849
0.00445505
0.00436638
0.00428234
0.00420257
0.00412657
0.00405373
0.00398341
0.00391494
0.00384777
0.00378159
0.015862
0.0157151
0.0155631
0.0154105
0.0152612
0.0151189
0.0149864
0.0148654
0.0147565
0.0146593
0.0145719
0.0144914
0.0144139
0.0143356
0.0142526
0.0141614
0.0140595
0.0139464
0.0138229
0.013691
0.0135541
0.0134165
0.0132825
0.0131554
0.0130375
0.0129302
0.0128364
0.0127618
0.0127082
0.0126585
0.0125509
0.00539438
0.00528482
0.00517409
0.00506439
0.00495593
0.00484862
0.00474339
0.00464152
0.00454393
0.00445108
0.00436305
0.00427967
0.00420055
0.00412522
0.00405305
0.00398335
0.00391546
0.00384878
0.00378299
0.015865
0.0157189
0.0155677
0.0154155
0.0152663
0.0151236
0.0149904
0.0148684
0.0147583
0.0146596
0.0145704
0.0144878
0.0144082
0.0143273
0.0142413
0.0141469
0.0140418
0.0139251
0.0137977
0.0136618
0.0135208
0.0133794
0.0132419
0.0131122
0.0129916
0.0128797
0.0127739
0.0126746
0.0125927
0.0125379
0.0124644
0.00539356
0.005286
0.00517384
0.00506134
0.00495099
0.00484319
0.0047384
0.00463732
0.00454063
0.00444873
0.00436168
0.00427929
0.00420116
0.00412675
0.00405545
0.00398653
0.00391929
0.00385312
0.00378771
0.0158935
0.0157467
0.0155947
0.0154417
0.0152915
0.0151477
0.0150132
0.01489
0.0147787
0.0146786
0.0145878
0.0145037
0.0144228
0.0143407
0.0142534
0.0141578
0.0140516
0.013934
0.0138057
0.0136689
0.0135274
0.0133851
0.013246
0.0131149
0.0129952
0.0128877
0.0127895
0.0126925
0.0125967
0.0125201
0.0124462
0.00539091
0.00528262
0.00517055
0.0050574
0.00494605
0.00483762
0.00473275
0.00463199
0.00453584
0.00444459
0.00435827
0.00427667
0.00419937
0.00412583
0.00405537
0.00398725
0.0039207
0.00385511
0.00379015
0.0159024
0.0157565
0.0156053
0.0154528
0.0153028
0.0151589
0.0150241
0.0149003
0.0147883
0.0146875
0.0145961
0.0145113
0.0144297
0.0143473
0.0142598
0.014164
0.0140578
0.0139405
0.0138127
0.0136765
0.0135358
0.0133945
0.0132559
0.0131229
0.0129992
0.0128883
0.012791
0.0127015
0.0126099
0.0125252
0.0124455
0.0053892
0.0052779
0.00516502
0.00505182
0.00494039
0.00483193
0.00472726
0.00462697
0.00453148
0.00444103
0.00435557
0.00427489
0.00419856
0.00412601
0.00405649
0.00398922
0.00392342
0.00385847
0.00379401
0.0159215
0.015776
0.0156249
0.0154719
0.015321
0.0151758
0.0150392
0.0149134
0.0147994
0.0146967
0.0146038
0.014518
0.0144356
0.0143527
0.0142653
0.01417
0.0140645
0.0139483
0.013822
0.0136875
0.0135482
0.0134079
0.0132708
0.0131397
0.0130152
0.0129003
0.0127976
0.0127069
0.012619
0.0125337
0.0124512
0.00538838
0.00527362
0.00515896
0.00504526
0.00493384
0.00482559
0.0047213
0.00462157
0.00452679
0.00443713
0.00435252
0.00427273
0.00419734
0.00412572
0.00405709
0.00399062
0.00392554
0.00386123
0.00379729
0.015935
0.0157908
0.0156404
0.0154873
0.015335
0.0151874
0.0150478
0.0149186
0.0148012
0.0146956
0.0146006
0.0145136
0.0144309
0.0143485
0.0142625
0.0141695
0.0140668
0.0139536
0.0138304
0.013699
0.0135624
0.0134242
0.013288
0.0131579
0.0130351
0.0129197
0.0128132
0.012718
0.012629
0.0125429
0.0124587
0.00538762
0.00526978
0.00515313
0.00503859
0.00492698
0.00481896
0.00471514
0.00461607
0.00452206
0.00443326
0.00434958
0.00427077
0.00419637
0.00412571
0.00405797
0.00399232
0.003928
0.00386438
0.00380102
0.0159512
0.0158069
0.0156562
0.0155029
0.015351
0.0152044
0.0150665
0.0149395
0.0148243
0.0147208
0.0146276
0.0145418
0.0144599
0.0143777
0.0142916
0.0141985
0.0140959
0.0139828
0.0138597
0.0137283
0.0135912
0.0134521
0.0133143
0.0131817
0.0130572
0.0129407
0.0128314
0.0127316
0.012639
0.0125507
0.0124647
0.00538658
0.00526602
0.00514758
0.00503213
0.00492022
0.00481234
0.00470899
0.00461056
0.00451733
0.00442938
0.00434662
0.00426879
0.00419536
0.00412562
0.00405875
0.00399392
0.00393037
0.00386745
0.00380467
0.0159667
0.0158227
0.0156721
0.0155187
0.0153666
0.0152198
0.0150816
0.0149543
0.0148388
0.0147351
0.0146415
0.0145553
0.0144729
0.0143906
0.0143045
0.0142116
0.0141096
0.0139974
0.0138752
0.0137451
0.0136095
0.0134712
0.0133338
0.0132003
0.0130736
0.0129554
0.0128448
0.012742
0.0126465
0.0125558
0.0124683
0.0053854
0.00526222
0.00514218
0.00502592
0.00491372
0.00480595
0.004703
0.00460518
0.00451267
0.00442554
0.00434369
0.0042668
0.00419429
0.00412543
0.00405941
0.00399541
0.00393263
0.00387038
0.00380811
0.0159805
0.0158367
0.0156862
0.0155327
0.0153804
0.0152331
0.0150941
0.0149659
0.0148495
0.0147447
0.01465
0.0145628
0.0144796
0.0143967
0.0143109
0.014219
0.0141181
0.0140077
0.0138875
0.0137588
0.0136248
0.0134878
0.0133513
0.0132178
0.0130903
0.0129701
0.0128577
0.0127525
0.0126541
0.0125611
0.0124723
0.00538425
0.00525852
0.00513697
0.00501998
0.00490752
0.00479985
0.00469727
0.00460002
0.00450823
0.00442194
0.004341
0.00426503
0.00419343
0.00412546
0.00406031
0.00399714
0.00393512
0.00387348
0.00381165
0.0159955
0.0158518
0.0157013
0.0155476
0.015395
0.0152471
0.0151072
0.0149779
0.0148603
0.0147543
0.0146583
0.0145701
0.0144865
0.0144037
0.014318
0.0142269
0.014128
0.0140192
0.0139015
0.0137755
0.0136434
0.0135081
0.0133728
0.0132395
0.0131112
0.0129892
0.0128742
0.0127665
0.0126652
0.0125694
0.0124787
0.00538322
0.00525506
0.00513203
0.00501433
0.00490163
0.00479404
0.00469178
0.00459503
0.00450388
0.00441834
0.0043382
0.00426303
0.00419222
0.00412503
0.00406062
0.00399814
0.00393672
0.00387556
0.00381403
0.0160023
0.0158591
0.015709
0.0155558
0.0154032
0.0152552
0.015115
0.014985
0.0148665
0.0147595
0.0146625
0.0145732
0.0144886
0.0144056
0.0143206
0.0142299
0.0141318
0.014025
0.0139089
0.0137848
0.0136542
0.0135201
0.0133854
0.0132522
0.013123
0.0129993
0.0128819
0.0127713
0.0126676
0.0125701
0.0124782
0.00538227
0.00525188
0.00512748
0.00500914
0.00489627
0.00478886
0.00468701
0.00459085
0.00450044
0.00441572
0.00433643
0.00426209
0.00419209
0.00412567
0.00406198
0.00400012
0.00393919
0.00387839
0.00381714
0.0160164
0.0158728
0.0157226
0.0155691
0.0154161
0.0152674
0.0151264
0.0149954
0.0148756
0.0147668
0.0146684
0.0145781
0.0144926
0.0144084
0.0143228
0.0142324
0.0141346
0.0140282
0.0139134
0.0137908
0.0136616
0.0135285
0.0133938
0.0132606
0.0131302
0.0130048
0.0128856
0.0127729
0.0126671
0.0125684
0.0124763
0.0053814
0.005249
0.00512331
0.00500427
0.00489108
0.00478363
0.00468195
0.00458612
0.00449616
0.00441196
0.00433322
0.00425943
0.00418996
0.00412403
0.00406079
0.00399932
0.00393869
0.00387813
0.00381707
0.016007
0.0158646
0.0157156
0.0155632
0.0154111
0.0152631
0.0151225
0.0149917
0.014872
0.0147633
0.0146639
0.0145727
0.0144873
0.0144033
0.0143175
0.0142278
0.0141313
0.0140265
0.0139132
0.0137922
0.0136651
0.0135341
0.0134009
0.0132683
0.0131384
0.0130131
0.0128936
0.0127812
0.0126762
0.0125791
0.01249
0.00538062
0.00524658
0.00512001
0.00500071
0.00488765
0.00478059
0.00467946
0.00458427
0.004495
0.00441148
0.00433336
0.00426011
0.0041911
0.00412556
0.00406264
0.00400137
0.00394084
0.00388032
0.0038193
0.0160182
0.0158753
0.0157258
0.0155731
0.015421
0.0152733
0.015133
0.0150022
0.0148823
0.0147736
0.0146749
0.0145836
0.0144977
0.014415
0.0143311
0.0142437
0.0141503
0.0140498
0.0139417
0.0138261
0.0137046
0.0135791
0.013452
0.0133253
0.0132014
0.0130825
0.0129698
0.0128648
0.0127687
0.0126822
0.012606
0.00537996
0.00524373
0.00511536
0.00499483
0.00488096
0.00477346
0.00467222
0.00457718
0.00448824
0.00440513
0.00432747
0.00425472
0.00418622
0.00412122
0.00405882
0.00399804
0.00393799
0.00387799
0.00381755
0.0160072
0.0158668
0.0157231
0.0155746
0.0154266
0.0152881
0.0151618
0.0150471
0.0149428
0.0148479
0.0147613
0.014682
0.014608
0.0145382
0.0144712
0.014404
0.0143339
0.014259
0.0141787
0.0140925
0.014001
0.0139054
0.0138077
0.01371
0.0136147
0.013524
0.0134398
0.013364
0.0132985
0.0132449
0.0132051
0.00537982
0.00524392
0.005117
0.00499833
0.00488749
0.00478382
0.00468661
0.00459578
0.00451129
0.00443298
0.00436056
0.00429362
0.00423161
0.0041738
0.00411917
0.00406663
0.00401516
0.0039639
0.00391215
0.00385858
0.00377119
0.0160036
0.0159586
0.0158538
0.0157345
0.0157096
0.0157234
0.015748
0.0157695
0.0157781
0.015776
0.0157697
0.0157626
0.0157579
0.0157551
0.0157519
0.0157454
0.0157322
0.0157105
0.0156797
0.0156405
0.0155943
0.0155433
0.0154901
0.0154381
0.0153901
0.0153487
0.0153177
0.0153005
0.0153027
0.00544866
0.00541836
0.00539093
0.00536549
0.00534108
0.00531788
0.00529637
0.00527659
0.00525852
0.00524208
0.00522709
0.0052133
0.00520033
0.00518767
0.00517474
0.00516102
0.00514612
0.00512978
0.00511188
0.00509254
0.00508233
0.00506731
0.00504867
0.00502779
0.00498489
0.00494982
0.00492094
0.00489702
0.00487707
0.00486057
0.00484628
0.00483274
0.00481879
0.00480369
0.00478705
0.00476863
0.00474871
0.00472744
0.0047051
0.004682
0.00465857
0.00463536
0.00461268
0.00459076
0.00456985
0.00455019
0.00453185
0.00451482
0.00449907
0.0044846
0.011148
0.00973429
0.012764
0.0146268
0.0153372
0.0151869
0.0144467
0.0132582
0.0116348
0.00947296
0.00688604
0.00690253
0.00763799
0.00807206
0.0086023
0.00930091
0.0100544
0.010668
0.0118283
0.031994
0.0109631
0.00969607
0.0127587
0.014659
0.0153978
0.0152602
0.0145191
0.0133241
0.0116999
0.00955697
0.00695085
0.00672776
0.00743198
0.0079623
0.00862797
0.00942158
0.0102325
0.01081
0.0120261
0.0332658
0.0107814
0.00965778
0.0127526
0.0146907
0.0154588
0.0153352
0.0145946
0.0133951
0.0117722
0.00965236
0.00707716
0.0066153
0.00730254
0.00787951
0.00860933
0.00945098
0.0102816
0.0108225
0.0123041
0.0339923
0.0106024
0.00961881
0.012745
0.0147213
0.0155199
0.0154118
0.0146736
0.0134712
0.0118522
0.0097623
0.00727413
0.00651738
0.00718867
0.00782044
0.00860904
0.0094936
0.0103331
0.0108561
0.012701
0.0347192
0.010426
0.00957896
0.0127358
0.0147508
0.015581
0.0154902
0.0147562
0.013553
0.0119393
0.00988031
0.00746973
0.00649371
0.00712525
0.00780595
0.00864215
0.00955726
0.0103928
0.0109276
0.0132175
0.0354463
0.010252
0.00953792
0.0127248
0.0147791
0.0156423
0.0155707
0.0148432
0.0136417
0.0120366
0.0100151
0.00769837
0.00658468
0.00714349
0.00785137
0.00871538
0.00964394
0.0104662
0.0110516
0.0138456
0.0361726
0.01008
0.00949525
0.0127117
0.0148059
0.0157036
0.0156532
0.0149347
0.0137378
0.0121456
0.010171
0.0079696
0.00680147
0.00726029
0.00796405
0.00883134
0.00975493
0.0105603
0.0112413
0.0145715
0.0368963
0.00990997
0.00945039
0.0126959
0.0148308
0.015765
0.015738
0.0150312
0.0138419
0.0122672
0.010348
0.00827963
0.00712643
0.00747468
0.00814326
0.00898947
0.00989159
0.0106833
0.0115063
0.0153797
0.0376152
0.00974156
0.00940277
0.0126766
0.0148532
0.0158258
0.0158252
0.0151331
0.0139548
0.0124018
0.0105443
0.00861743
0.00752776
0.00777206
0.00838168
0.00918674
0.0100556
0.0108439
0.0118515
0.0162543
0.0383269
0.00957442
0.00935164
0.012653
0.0148725
0.0158859
0.0159146
0.0152407
0.0140772
0.0125498
0.0107575
0.00897086
0.00797003
0.00813062
0.00866838
0.00941888
0.010249
0.0110496
0.0122771
0.0171798
0.0390293
0.00940818
0.00929624
0.0126245
0.0148882
0.0159451
0.0160066
0.0153547
0.0142097
0.0127117
0.0109859
0.00933143
0.00842697
0.0085287
0.00899182
0.00968168
0.0104739
0.0113064
0.0127792
0.0181411
0.0397204
0.00924248
0.00923585
0.0125905
0.0148999
0.0160034
0.0161015
0.0154755
0.014353
0.0128879
0.0112287
0.00969549
0.00888257
0.00894861
0.00934215
0.00997197
0.0107329
0.0116179
0.0133511
0.0191249
0.0403982
0.00907716
0.00917002
0.0125504
0.0149074
0.0160607
0.0161993
0.0156033
0.0145074
0.0130783
0.0114854
0.0100618
0.00933005
0.00937784
0.00971188
0.0102878
0.011028
0.0119854
0.0139841
0.0201199
0.0410611
0.00891203
0.00909842
0.0125038
0.0149102
0.0161168
0.0163001
0.0157385
0.0146731
0.013283
0.0117554
0.0104311
0.00976994
0.00980963
0.0100963
0.0106281
0.011361
0.0124081
0.0146687
0.0211164
0.0417075
0.00874701
0.00902068
0.0124501
0.0149077
0.0161711
0.0164034
0.0158806
0.0148499
0.0135015
0.012038
0.0108036
0.0102039
0.0102415
0.0104932
0.0109929
0.0117326
0.0128832
0.0153955
0.022107
0.0423353
0.00858195
0.00893629
0.0123887
0.014899
0.0162228
0.0165085
0.0160291
0.0150371
0.0137333
0.0123325
0.0111793
0.0106326
0.0106728
0.0109018
0.0113823
0.0121425
0.0134065
0.0161554
0.0230854
0.0429427
0.00841666
0.00884467
0.0123184
0.0148831
0.0162708
0.0166146
0.0161834
0.0152343
0.0139775
0.0126382
0.0115583
0.0110582
0.011105
0.0113225
0.0117965
0.0125898
0.013973
0.0169397
0.0240465
0.0435273
0.00825091
0.0087451
0.0122382
0.0148587
0.0163142
0.0167209
0.0163428
0.0154409
0.0142338
0.0129544
0.0119406
0.0114821
0.0115397
0.0117562
0.0122354
0.0130724
0.0145771
0.017741
0.0249861
0.0440871
0.00808449
0.00863693
0.0121472
0.0148247
0.0163519
0.0168268
0.0165069
0.0156568
0.0145022
0.0132821
0.0123284
0.0119078
0.0119798
0.0122039
0.0126987
0.0135879
0.0152129
0.0185524
0.0259007
0.04462
0.00791721
0.00851971
0.0120444
0.0147803
0.016383
0.0169314
0.0166754
0.0158817
0.0147829
0.0136224
0.0127248
0.0123392
0.012428
0.0126668
0.0131859
0.0141335
0.0158749
0.0193679
0.0267878
0.0451239
0.00774893
0.00839294
0.0119291
0.0147243
0.0164067
0.0170339
0.0168474
0.0161152
0.0150759
0.0139763
0.0131329
0.01278
0.0128871
0.013146
0.0136961
0.014706
0.0165579
0.0201828
0.0276453
0.0455971
0.0075797
0.00825627
0.0118003
0.0146556
0.0164216
0.0171334
0.0170221
0.0163564
0.0153804
0.0143439
0.0135547
0.0132333
0.013359
0.0136419
0.0142282
0.0153022
0.0172571
0.0209929
0.0284719
0.0460376
0.00740953
0.00810937
0.0116571
0.0145726
0.0164261
0.0172282
0.0171983
0.0166042
0.0156953
0.0147241
0.0139896
0.0136998
0.0138447
0.0141547
0.0147808
0.0159191
0.0179682
0.0217948
0.0292667
0.0464437
0.00723841
0.00795181
0.011498
0.0144736
0.0164182
0.0173163
0.017374
0.0168571
0.0160189
0.0151148
0.0144358
0.0141786
0.0143439
0.0146837
0.015352
0.0165533
0.0186871
0.0225857
0.030029
0.0468137
0.00706637
0.00778319
0.0113221
0.0143566
0.0163958
0.0173959
0.0175476
0.0171133
0.0163496
0.0155139
0.0148905
0.0146674
0.0148557
0.0152277
0.0159397
0.0172017
0.0194103
0.0233631
0.0307579
0.0471457
0.00689341
0.00760316
0.011128
0.0142199
0.0163567
0.0174647
0.0177171
0.0173714
0.016686
0.0159201
0.0153518
0.0151644
0.015379
0.0157854
0.0165416
0.017861
0.0201343
0.0241246
0.0314528
0.0474379
0.00671962
0.00741159
0.0109145
0.0140614
0.0162986
0.0175203
0.0178803
0.0176296
0.0170272
0.016333
0.0158198
0.0156694
0.0159131
0.0163554
0.0171555
0.0185282
0.0208562
0.0248683
0.032113
0.0476885
0.00654523
0.00720855
0.0106807
0.0138791
0.016219
0.0175602
0.0180351
0.0178862
0.017372
0.0167528
0.0162961
0.0161838
0.0164576
0.0169363
0.0177792
0.0192005
0.021573
0.0255923
0.0327377
0.0478959
0.00637051
0.00699429
0.0104256
0.013671
0.016115
0.0175814
0.0181785
0.0181388
0.017719
0.0171788
0.0167814
0.0167081
0.0170117
0.0175265
0.0184103
0.0198749
0.022282
0.0262946
0.0333259
0.0480581
0.00619584
0.00676924
0.0101482
0.0134344
0.0159833
0.0175802
0.0183069
0.0183841
0.0180653
0.0176093
0.0172747
0.0172417
0.0175742
0.0181239
0.0190461
0.0205485
0.0229803
0.026973
0.0338763
0.0481732
0.00602154
0.00653401
0.00984757
0.0131669
0.01582
0.0175523
0.018416
0.0186178
0.0184069
0.0180405
0.0177727
0.0177822
0.0181427
0.0187258
0.0196834
0.0212177
0.0236647
0.027625
0.034387
0.0482389
0.00584796
0.00628944
0.00952283
0.0128655
0.015621
0.0174928
0.0185007
0.0188348
0.0187387
0.0184669
0.0182698
0.018324
0.018713
0.0193284
0.0203184
0.0218788
0.0243315
0.0282477
0.0348555
0.048253
0.00567537
0.00603677
0.00917361
0.0125277
0.015382
0.0173965
0.0185554
0.0190295
0.0190547
0.0188822
0.0187587
0.0188606
0.0192797
0.0199271
0.0209465
0.0225272
0.0249767
0.0288374
0.0352788
0.0482131
0.00550405
0.00577783
0.00880013
0.0121512
0.0150986
0.017258
0.0185741
0.0191957
0.0193489
0.0192802
0.0192328
0.0193852
0.0198373
0.0205169
0.0215627
0.0231579
0.0255958
0.0293902
0.0356534
0.0481169
0.00533432
0.00551514
0.00840344
0.0117344
0.0147669
0.0170717
0.0185509
0.0193273
0.0196153
0.0196552
0.0196867
0.0198927
0.0203807
0.0210924
0.0221619
0.0237661
0.026184
0.029902
0.035976
0.0479625
0.00516645
0.00525191
0.00798557
0.0112762
0.0143828
0.0168321
0.0184793
0.019418
0.0198483
0.0200024
0.0201156
0.0203774
0.0209056
0.0216487
0.0227389
0.0243464
0.0267364
0.0303684
0.0362431
0.0477481
0.00500067
0.00499208
0.0075496
0.0107766
0.013943
0.0165334
0.0183526
0.0194608
0.0200417
0.0203179
0.0205183
0.0208381
0.0214077
0.0221806
0.0232881
0.0248934
0.0272479
0.0307849
0.0364513
0.047472
0.00483701
0.00474016
0.00709985
0.0102364
0.0134443
0.0161698
0.0181637
0.0194482
0.0201885
0.0205963
0.0208921
0.0212724
0.0218817
0.0226822
0.0238035
0.0254014
0.0277131
0.031147
0.0365972
0.0471326
0.00467524
0.00450107
0.00664213
0.00965808
0.0128847
0.0157357
0.0179052
0.0193719
0.0202796
0.0208294
0.0212335
0.0216873
0.0223208
0.0231466
0.0242783
0.0258635
0.0281261
0.0314496
0.0366772
0.0467284
0.0045148
0.00427983
0.00618395
0.00904604
0.0122637
0.0152266
0.0175701
0.0192231
0.0203044
0.021003
0.0215214
0.022051
0.0227152
0.0235651
0.0247043
0.0262724
0.0284801
0.0316872
0.0366875
0.0462582
0.00435486
0.00408124
0.00573471
0.00840719
0.0115829
0.0146389
0.0171518
0.0189935
0.0202527
0.021105
0.0217424
0.0223503
0.0230532
0.0239275
0.0250724
0.0266201
0.0287684
0.0318543
0.0366244
0.0457208
0.00419427
0.0039092
0.00530555
0.00775133
0.0108464
0.0139711
0.0166449
0.0186756
0.0201147
0.0211229
0.0218818
0.02257
0.0233214
0.0242225
0.0253729
0.0268981
0.0289839
0.0319457
0.0364847
0.0451159
0.00403167
0.0157816
0.00490875
0.00709129
0.0100616
0.0132236
0.0160453
0.0182633
0.0198829
0.0210471
0.0219283
0.0227
0.0235076
0.0244395
0.0255966
0.0270987
0.0291205
0.0319568
0.0362659
0.0444438
0.00386564
0.0148763
0.00455775
0.00644297
0.00923922
0.0123996
0.0153508
0.0177519
0.0195518
0.0208711
0.0218739
0.0227306
0.023602
0.0245697
0.0257358
0.0272153
0.029173
0.0318842
0.0359669
0.0437053
0.00369432
0.0141922
0.00426177
0.00582506
0.00839347
0.0115052
0.0145607
0.0171386
0.0191185
0.0205921
0.0217154
0.0226581
0.023599
0.0246069
0.0257847
0.0272432
0.0291378
0.0317259