/*--------------------------------*- C++ -*----------------------------------*\
  =========                 |
  \\      /  F ield         | OpenFOAM: The Open Source CFD Toolbox
   \\    /   O peration     | Website:  https://openfoam.org
    \\  /    A nd           | Version:  8
     \\/     M anipulation  |
\*---------------------------------------------------------------------------*/
FoamFile
{
    version     2.0;
    format      ascii;
    class       volScalarField;
    location    "100";
    object      epsilon;
}
// * * * * * * * * * * * * * * * * * * * * * * * * * * * * * * * * * * * * * //

dimensions      [0 2 -3 0 0 0 0];

internalField   nonuniform List<scalar> 
8400
(
0.00623605
0.0061417
0.0060593
0.0059874
0.00592809
0.00588115
0.00584617
0.00582264
0.00580981
0.0057726
0.00565662
0.00543099
0.00508872
0.00464417
0.00414318
0.00366949
0.00331176
0.00308847
0.00295797
0.00290463
0.00294088
0.00306094
0.00322914
0.00341858
0.00358963
0.00369036
0.00369917
0.00362765
0.00355739
0.00348761
0.00341745
0.00334625
0.00327416
0.00320153
0.00312862
0.00305595
0.00298383
0.00291233
0.00284157
0.00277179
0.0027031
0.00263568
0.0025696
0.00250486
0.00244138
0.00237919
0.00231834
0.00225875
0.00220029
0.00214297
0.00529244
0.00549615
0.00576371
0.00606998
0.0064151
0.00680632
0.00724644
0.00772449
0.00816406
0.00841074
0.00844615
0.00829045
0.00793087
0.00731785
0.00640681
0.00523674
0.00409122
0.00326007
0.00261111
0.00201079
0.00149109
0.00118341
0.00107465
0.00106011
0.00111648
0.00119421
0.00124554
0.00127156
0.00125396
0.0012084
0.00114666
0.00107739
0.00100608
0.000936127
0.000869588
0.000807543
0.000750482
0.00069864
0.000651857
0.000609804
0.000572185
0.000538703
0.000509064
0.000483011
0.000460362
0.000441005
0.000424879
0.000412021
0.000402573
0.000396748
0.00614342
0.00635763
0.00672022
0.00722661
0.00790538
0.00877483
0.0097571
0.0106914
0.0110309
0.0110991
0.0110295
0.0109081
0.0107699
0.01059
0.0103025
0.00940571
0.0076428
0.00639174
0.00551521
0.00446596
0.00304704
0.00184367
0.00129852
0.000913567
0.000716886
0.000718218
0.000739156
0.000750269
0.000739844
0.000716055
0.000686049
0.000654844
0.000625551
0.000599836
0.000578263
0.000560816
0.000547249
0.000537199
0.000530204
0.000525813
0.000523618
0.000523216
0.000524256
0.000526435
0.000529482
0.000533141
0.000537161
0.000541312
0.000545377
0.000549097
0.0130427
0.0129725
0.0128887
0.0127794
0.0126532
0.0124979
0.0123261
0.0121431
0.0119563
0.0117723
0.0115973
0.0114349
0.011284
0.0111358
0.0109733
0.0107722
0.0105443
0.0102749
0.00995672
0.00950877
0.00722128
0.0041058
0.00328924
0.00201787
0.000833099
0.000620822
0.000632518
0.000638817
0.000637194
0.000631688
0.000625988
0.000622492
0.000622431
0.000626057
0.000633052
0.000642947
0.000655158
0.000669082
0.000684173
0.000699978
0.000716124
0.00073224
0.000748017
0.000763235
0.000777698
0.000791182
0.000803473
0.000814396
0.000823776
0.000831388
0.013124
0.0130708
0.0130138
0.0129503
0.0128775
0.0127945
0.0127037
0.012607
0.0125043
0.0123975
0.0122875
0.012175
0.0120601
0.0119428
0.0118227
0.0116962
0.0115396
0.0113655
0.0111934
0.0110294
0.0108564
0.0106508
0.0101516
0.0081324
0.00253338
0.000642444
0.00063872
0.000649543
0.000660947
0.000673938
0.000690242
0.000710599
0.00073486
0.000762466
0.000792688
0.000824735
0.000857777
0.000891175
0.000924475
0.000957253
0.000989163
0.0010199
0.0010492
0.00107687
0.00110271
0.0011265
0.001148
0.00116698
0.00118314
0.00119615
0.013122
0.0130669
0.0130103
0.0129519
0.012891
0.0128264
0.0127571
0.0126835
0.0126057
0.0125246
0.0124405
0.0123529
0.0122605
0.0121607
0.0120502
0.0119269
0.011788
0.0116348
0.0114702
0.011294
0.0110972
0.0108485
0.0103885
0.00915155
0.0068186
0.00469354
0.00143206
0.000691518
0.000721248
0.000755427
0.000794162
0.000837307
0.00088395
0.000933062
0.000983625
0.00103474
0.00108564
0.00113578
0.00118473
0.00123207
0.00127749
0.00132078
0.00136179
0.00140031
0.00143611
0.00146899
0.00149872
0.00152505
0.00154771
0.0015664
0.0131154
0.0130526
0.0129889
0.0129247
0.0128597
0.0127939
0.0127266
0.0126572
0.0125851
0.0125101
0.0124314
0.0123486
0.0122608
0.0121668
0.012065
0.0119529
0.0118284
0.0116896
0.0115345
0.011361
0.011162
0.0109133
0.0105093
0.00963413
0.00805885
0.00594737
0.00290782
0.000958732
0.000780201
0.000838518
0.000900052
0.00096448
0.00103094
0.00109837
0.00116564
0.00123182
0.00129631
0.00135861
0.0014184
0.00147537
0.00152931
0.0015801
0.00162763
0.0016718
0.00171241
0.00174935
0.00178254
0.00181187
0.00183722
0.00185846
0.0131061
0.0130316
0.0129566
0.0128815
0.0128069
0.0127324
0.0126585
0.0125845
0.0125096
0.0124336
0.0123557
0.0122748
0.0121905
0.0121015
0.0120063
0.0119028
0.011788
0.0116587
0.0115122
0.0113444
0.0111489
0.0109063
0.0105393
0.00983603
0.00857133
0.00658685
0.00371953
0.00143226
0.000846078
0.000905181
0.000987938
0.00107094
0.00115356
0.00123485
0.00131365
0.00138918
0.001461
0.00152874
0.00159207
0.00165072
0.00170448
0.00175325
0.00179694
0.00183557
0.00186913
0.00189769
0.0019216
0.00194122
0.00195697
0.00196931
0.0130922
0.013
0.0129083
0.0128179
0.0127287
0.012641
0.0125557
0.0124724
0.0123909
0.0123104
0.0122308
0.0121511
0.01207
0.0119862
0.0118978
0.0118024
0.0116966
0.0115765
0.0114381
0.0112769
0.0110862
0.010849
0.0105037
0.00988752
0.0087749
0.00690236
0.00418639
0.00182802
0.000968255
0.000949109
0.00104897
0.00114621
0.00124011
0.00132985
0.00141454
0.00149363
0.00156661
0.00163287
0.00169197
0.00174359
0.00178734
0.00182297
0.00185012
0.00186872
0.00187909
0.00188179
0.00187775
0.00186819
0.0018547
0.00183925
0.0130708
0.0129502
0.0128335
0.0127203
0.0126111
0.0125061
0.0124058
0.0123111
0.0122216
0.0121369
0.0120568
0.0119798
0.011904
0.011828
0.0117489
0.0116634
0.0115672
0.0114563
0.0113257
0.0111708
0.0109849
0.0107513
0.010417
0.0098432
0.00880568
0.007012
0.00443434
0.002124
0.0011134
0.000984186
0.00107891
0.00118605
0.00128627
0.00137977
0.00146587
0.00154421
0.00161428
0.00167534
0.00172679
0.00176813
0.00179866
0.0018175
0.00182383
0.00181735
0.00179822
0.00176704
0.00172492
0.00167399
0.00161738
0.00155916
0.0130336
0.0128599
0.012703
0.0125573
0.0124227
0.0122972
0.0121822
0.0120777
0.0119846
0.0119011
0.0118265
0.0117587
0.0116945
0.0116313
0.011565
0.0114914
0.0114065
0.0113046
0.0111815
0.0110318
0.0108488
0.0106167
0.0102855
0.00972714
0.00871897
0.00697509
0.00453007
0.00233267
0.00126294
0.0010334
0.00108931
0.00119172
0.00129193
0.00138429
0.00146847
0.00154475
0.00161094
0.001667
0.00171246
0.00174703
0.00176982
0.00177975
0.00177563
0.00175706
0.00172436
0.00167778
0.00161743
0.00154445
0.00146047
0.0013674
0.0129505
0.0126581
0.0124467
0.0122687
0.0121108
0.0119716
0.0118513
0.0117492
0.011666
0.011598
0.0115417
0.0114943
0.0114502
0.0114044
0.0113538
0.0112936
0.0112182
0.0111235
0.0110065
0.0108602
0.0106783
0.0104454
0.0101102
0.0095472
0.00853711
0.00682385
0.00451594
0.00247456
0.00140927
0.00110249
0.00110325
0.00118353
0.00127502
0.00136196
0.00144171
0.00151381
0.00157639
0.00162919
0.00167204
0.00170475
0.00172643
0.00173603
0.00173275
0.00171613
0.00168609
0.00164295
0.00158704
0.00151947
0.00144192
0.00135649
0.012568
0.0122451
0.0120145
0.0118275
0.0116746
0.0115512
0.0114559
0.0113847
0.0113315
0.0112933
0.0112622
0.0112344
0.0112062
0.0111734
0.011132
0.0110775
0.0110062
0.0109145
0.0107986
0.0106526
0.0104711
0.010236
0.00989461
0.00930221
0.00826774
0.00657887
0.00442369
0.00257067
0.00155352
0.00119235
0.00113332
0.00117794
0.00125087
0.0013273
0.00140001
0.00146655
0.00152534
0.00157594
0.00161816
0.00165174
0.00167616
0.00169071
0.00169485
0.00168815
0.00167044
0.00164202
0.00160366
0.00155662
0.0015025
0.0014432
0.0119762
0.0117
0.0115068
0.0113642
0.011258
0.0111813
0.0111276
0.0110895
0.0110625
0.0110421
0.0110231
0.0110029
0.0109781
0.0109447
0.0109003
0.0108416
0.010765
0.0106673
0.0105453
0.0103938
0.0102045
0.00995529
0.00959185
0.00898755
0.00795617
0.00625375
0.00427873
0.00264053
0.00170161
0.00130702
0.00118999
0.00118908
0.00123212
0.00128946
0.00134948
0.00140734
0.00146063
0.00150831
0.00154989
0.00158505
0.00161343
0.00163456
0.00164807
0.00165364
0.00165112
0.00164075
0.00162318
0.00159935
0.00157044
0.00153786
0.0113498
0.0111795
0.011064
0.010984
0.0109281
0.0108899
0.010863
0.0108429
0.0108261
0.0108094
0.0107898
0.0107649
0.0107322
0.010689
0.0106332
0.0105621
0.010473
0.0103633
0.0102287
0.0100627
0.00985359
0.00957556
0.00917537
0.00854821
0.00754267
0.00593317
0.00410635
0.00270106
0.00186115
0.00145335
0.00128576
0.00123507
0.00123883
0.00126723
0.00130612
0.00134861
0.00139109
0.00143163
0.00146921
0.00150322
0.00153317
0.00155859
0.00157914
0.00159456
0.00160468
0.00160956
0.00160947
0.00160489
0.00159647
0.00158502
0.0108461
0.0107661
0.0107109
0.0106719
0.0106433
0.0106214
0.0106023
0.0105835
0.0105627
0.0105381
0.0105077
0.0104694
0.0104213
0.010362
0.0102895
0.0102011
0.0100943
0.00996636
0.00981222
0.00962331
0.0093853
0.00907132
0.00863276
0.0079883
0.00703351
0.00562008
0.00392604
0.00276587
0.00204006
0.00163991
0.00143511
0.00133767
0.00129822
0.0012903
0.00129964
0.00131836
0.00134201
0.00136798
0.00139467
0.001421
0.00144623
0.00146977
0.00149118
0.00151009
0.00152623
0.00153943
0.00154963
0.00155693
0.00156155
0.00156386
0.0104196
0.0103806
0.0103491
0.0103221
0.0102973
0.0102726
0.0102464
0.010217
0.0101831
0.0101432
0.0100959
0.0100398
0.00997333
0.00989487
0.00980264
0.00969442
0.00956762
0.00941858
0.00924098
0.00902568
0.00875824
0.00841417
0.0079552
0.00732604
0.00646149
0.00527558
0.00378012
0.00284664
0.00224536
0.00187563
0.00165344
0.00152079
0.00144229
0.00139701
0.00137246
0.00136117
0.00135864
0.00136201
0.00136934
0.00137932
0.00139101
0.00140376
0.00141699
0.00143022
0.00144308
0.00145525
0.00146648
0.00147667
0.0014858
0.00149394
0.00984417
0.00980964
0.00977591
0.00974238
0.00970826
0.00967244
0.00963365
0.00959075
0.00954267
0.00948794
0.0094254
0.00935387
0.00927197
0.00917819
0.0090706
0.00894682
0.00880399
0.00863809
0.00844308
0.00821105
0.00793006
0.0075823
0.00714281
0.00657877
0.00585056
0.00491639
0.00365598
0.0029463
0.00247971
0.00216579
0.00195298
0.00180613
0.00170254
0.00162778
0.00157263
0.00153121
0.00149975
0.00147572
0.00145742
0.00144367
0.00143367
0.00142682
0.00142263
0.0014207
0.00142069
0.00142233
0.00142541
0.00142979
0.0014354
0.00144221
0.00877444
0.0087332
0.0086926
0.00865268
0.00861289
0.00857224
0.00852952
0.00848344
0.00843269
0.00837601
0.008312
0.00823931
0.00815665
0.00806243
0.00795492
0.00783197
0.00769082
0.007528
0.00733934
0.00711963
0.00686153
0.00655532
0.006188
0.00574246
0.00519552
0.00453491
0.00353582
0.0030556
0.0027364
0.00250651
0.0023355
0.00220428
0.00210017
0.00201482
0.00194285
0.00188075
0.00182621
0.00177773
0.00173442
0.00169577
0.00166148
0.00163143
0.00160554
0.00158382
0.00156627
0.00155295
0.00154391
0.00153917
0.00153876
0.00154266
0.0109442
0.0106829
0.0104364
0.0101982
0.00996705
0.0097414
0.00951986
0.00930078
0.00908255
0.00886389
0.00864337
0.00841959
0.00819159
0.00795854
0.00771952
0.00747303
0.0072171
0.00694949
0.00666811
0.00637154
0.0060591
0.00573063
0.00538499
0.00501755
0.00461558
0.00417516
0.00349542
0.00329958
0.0032154
0.00317586
0.00316256
0.00316591
0.00317998
0.00320107
0.00322703
0.00325675
0.00328989
0.00332679
0.00336838
0.00341603
0.00347144
0.00353659
0.00361372
0.00370523
0.00381365
0.00394155
0.00409142
0.00426539
0.00446464
0.00468808
9.32864e-06
9.21621e-06
9.12686e-06
9.02479e-06
8.90008e-06
8.7684e-06
8.6438e-06
8.52962e-06
8.42258e-06
8.31898e-06
8.21708e-06
8.11645e-06
8.01701e-06
7.91865e-06
7.82124e-06
7.72476e-06
7.62934e-06
7.5352e-06
7.44261e-06
7.35185e-06
7.26146e-06
7.16542e-06
7.04764e-06
6.93972e-06
6.83972e-06
6.74582e-06
6.65666e-06
6.5712e-06
6.48712e-06
6.40401e-06
6.32209e-06
6.24174e-06
6.16317e-06
6.08649e-06
6.01178e-06
5.93917e-06
5.86885e-06
5.80102e-06
5.73582e-06
5.67331e-06
5.61354e-06
5.5565e-06
5.50203e-06
5.45005e-06
5.40021e-06
5.35183e-06
5.30561e-06
5.25437e-06
5.17577e-06
5.05654e-06
8.96714e-06
8.32089e-06
7.75117e-06
7.26323e-06
6.83337e-06
6.44122e-06
6.07774e-06
5.74033e-06
5.42812e-06
5.13965e-06
4.87292e-06
4.62597e-06
4.39705e-06
4.18461e-06
3.98724e-06
3.80368e-06
3.6328e-06
3.47361e-06
3.32533e-06
3.18743e-06
3.14296e-06
3.09344e-06
7.31279e-07
7.30376e-07
7.29309e-07
7.27755e-07
7.25698e-07
7.23268e-07
7.21123e-07
7.19633e-07
7.18852e-07
7.18639e-07
7.18767e-07
7.19009e-07
7.19181e-07
7.19157e-07
7.18862e-07
7.18264e-07
7.17359e-07
7.16162e-07
7.14686e-07
7.12956e-07
7.10975e-07
7.08672e-07
7.05973e-07
7.03043e-07
7.00626e-07
7.01354e-07
7.09169e-07
7.23241e-07
8.98954e-06
8.37807e-06
7.80948e-06
7.29352e-06
6.8294e-06
6.40883e-06
6.02367e-06
5.66866e-06
5.34063e-06
5.03719e-06
4.75613e-06
4.49543e-06
4.25324e-06
4.02795e-06
3.81813e-06
3.62254e-06
3.44005e-06
3.26968e-06
3.11089e-06
7.29575e-07
7.237e-07
7.17976e-07
7.12599e-07
7.07439e-07
7.0245e-07
6.97588e-07
6.92818e-07
6.88121e-07
6.83515e-07
6.79024e-07
6.74653e-07
6.70388e-07
6.66205e-07
6.62083e-07
6.58007e-07
6.53975e-07
6.49987e-07
6.46041e-07
6.4214e-07
6.38293e-07
6.34527e-07
6.30864e-07
6.27337e-07
6.23934e-07
6.20461e-07
6.16282e-07
6.10357e-07
6.02491e-07
5.95977e-07
5.99403e-07
8.98038e-06
8.38215e-06
7.83093e-06
7.3232e-06
6.85871e-06
6.43464e-06
6.0463e-06
5.68913e-06
5.35956e-06
5.0548e-06
4.77251e-06
4.51059e-06
4.26716e-06
4.04058e-06
3.82942e-06
3.63242e-06
3.4485e-06
3.27668e-06
3.11645e-06
7.3017e-07
7.24061e-07
7.18141e-07
7.12406e-07
7.06839e-07
7.01418e-07
6.96115e-07
6.90904e-07
6.8576e-07
6.80659e-07
6.75581e-07
6.70503e-07
6.65408e-07
6.60284e-07
6.55133e-07
6.4997e-07
6.44816e-07
6.39696e-07
6.34635e-07
6.29657e-07
6.24781e-07
6.20007e-07
6.15319e-07
6.10746e-07
6.06455e-07
6.02746e-07
5.99811e-07
5.96976e-07
5.92002e-07
5.83415e-07
5.79251e-07
8.973e-06
8.37113e-06
7.82299e-06
7.32002e-06
6.85793e-06
6.43392e-06
6.04472e-06
5.68671e-06
5.35657e-06
5.05145e-06
4.76894e-06
4.50691e-06
4.26347e-06
4.03698e-06
3.82599e-06
3.62921e-06
3.44552e-06
3.27394e-06
3.11396e-06
7.29814e-07
7.23732e-07
7.17832e-07
7.1211e-07
7.0655e-07
7.01129e-07
6.95818e-07
6.90593e-07
6.85426e-07
6.80293e-07
6.75168e-07
6.70026e-07
6.64846e-07
6.59619e-07
6.54348e-07
6.49048e-07
6.43744e-07
6.38459e-07
6.33222e-07
6.28061e-07
6.23008e-07
6.18085e-07
6.13247e-07
6.08366e-07
6.03318e-07
5.98206e-07
5.9363e-07
5.9038e-07
5.87654e-07
5.81963e-07
5.767e-07
8.97261e-06
8.36712e-06
7.81772e-06
7.31668e-06
6.8575e-06
6.43584e-06
6.04815e-06
5.69112e-06
5.36166e-06
5.05701e-06
4.77479e-06
4.5129e-06
4.26951e-06
4.04299e-06
3.83192e-06
3.63503e-06
3.45118e-06
3.27942e-06
3.11921e-06
7.30584e-07
7.24448e-07
7.18498e-07
7.12729e-07
7.07124e-07
7.0166e-07
6.96309e-07
6.91044e-07
6.85839e-07
6.80668e-07
6.75503e-07
6.70318e-07
6.65091e-07
6.59814e-07
6.54491e-07
6.49139e-07
6.43777e-07
6.38431e-07
6.33127e-07
6.27893e-07
6.22759e-07
6.1777e-07
6.12994e-07
6.08424e-07
6.03864e-07
5.98961e-07
5.9366e-07
5.88839e-07
5.85436e-07
5.81096e-07
5.76244e-07
8.97469e-06
8.36832e-06
7.81712e-06
7.31515e-06
6.85603e-06
6.43477e-06
6.04735e-06
5.69038e-06
5.36087e-06
5.05611e-06
4.77376e-06
4.51174e-06
4.26823e-06
4.04161e-06
3.83045e-06
3.63347e-06
3.44957e-06
3.27774e-06
3.1175e-06
7.30328e-07
7.24204e-07
7.18265e-07
7.12507e-07
7.06911e-07
7.01456e-07
6.96114e-07
6.9086e-07
6.85666e-07
6.80506e-07
6.75351e-07
6.70173e-07
6.64952e-07
6.59677e-07
6.54356e-07
6.49003e-07
6.43638e-07
6.38288e-07
6.3298e-07
6.27736e-07
6.22564e-07
6.17461e-07
6.12466e-07
6.07701e-07
6.03263e-07
5.98916e-07
5.94168e-07
5.89033e-07
5.84725e-07
5.8049e-07
5.75964e-07
8.9758e-06
8.37008e-06
7.81853e-06
7.31583e-06
6.85627e-06
6.43492e-06
6.04761e-06
5.69079e-06
5.36143e-06
5.05684e-06
4.77465e-06
4.51278e-06
4.2694e-06
4.04289e-06
3.83179e-06
3.63485e-06
3.45093e-06
3.27907e-06
3.11878e-06
7.30498e-07
7.24337e-07
7.18351e-07
7.12535e-07
7.0688e-07
7.01369e-07
6.95983e-07
6.90702e-07
6.85499e-07
6.80345e-07
6.75208e-07
6.70057e-07
6.64866e-07
6.59626e-07
6.54336e-07
6.49007e-07
6.43657e-07
6.38314e-07
6.33015e-07
6.27792e-07
6.22662e-07
6.17615e-07
6.126e-07
6.07627e-07
6.02873e-07
5.98452e-07
5.94085e-07
5.89274e-07
5.84652e-07
5.80224e-07
5.75767e-07
8.97566e-06
8.37047e-06
7.81925e-06
7.31643e-06
6.85657e-06
6.43496e-06
6.04746e-06
5.69053e-06
5.36109e-06
5.05643e-06
4.77419e-06
4.51228e-06
4.26885e-06
4.04227e-06
3.8311e-06
3.63407e-06
3.45005e-06
3.27811e-06
3.11775e-06
7.303e-07
7.24053e-07
7.17931e-07
7.11947e-07
7.06121e-07
7.00465e-07
6.94983e-07
6.89667e-07
6.84491e-07
6.79419e-07
6.74406e-07
6.69403e-07
6.64376e-07
6.59298e-07
6.5416e-07
6.48965e-07
6.43722e-07
6.38451e-07
6.33187e-07
6.27967e-07
6.2283e-07
6.17806e-07
6.12868e-07
6.07941e-07
6.03038e-07
5.98348e-07
5.93927e-07
5.89339e-07
5.84716e-07
5.8017e-07
5.75667e-07
8.9752e-06
8.37004e-06
7.81904e-06
7.31638e-06
6.85651e-06
6.43482e-06
6.04726e-06
5.6903e-06
5.36086e-06
5.05622e-06
4.77402e-06
4.51213e-06
4.26873e-06
4.04215e-06
3.83097e-06
3.63391e-06
3.44988e-06
3.27791e-06
3.11754e-06
7.30283e-07
7.24106e-07
7.18117e-07
7.12318e-07
7.06701e-07
7.01256e-07
6.95962e-07
6.90793e-07
6.85719e-07
6.807e-07
6.75692e-07
6.70657e-07
6.65569e-07
6.6041e-07
6.55177e-07
6.49879e-07
6.44535e-07
6.39169e-07
6.33802e-07
6.28461e-07
6.23187e-07
6.1803e-07
6.13019e-07
6.08118e-07
6.03219e-07
5.98387e-07
5.93783e-07
5.89226e-07
5.84645e-07
5.80085e-07
5.75551e-07
8.97498e-06
8.36956e-06
7.81852e-06
7.31593e-06
6.8561e-06
6.43441e-06
6.04684e-06
5.68989e-06
5.36046e-06
5.05584e-06
4.77364e-06
4.51175e-06
4.26832e-06
4.04172e-06
3.8305e-06
3.63341e-06
3.44935e-06
3.27737e-06
3.11698e-06
7.30184e-07
7.24001e-07
7.18014e-07
7.12227e-07
7.06633e-07
7.01218e-07
6.9596e-07
6.90828e-07
6.85788e-07
6.80796e-07
6.75808e-07
6.70787e-07
6.65704e-07
6.60547e-07
6.55311e-07
6.50002e-07
6.4464e-07
6.39262e-07
6.33896e-07
6.28553e-07
6.23252e-07
6.18026e-07
6.1293e-07
6.08007e-07
6.0317e-07
5.98359e-07
5.93662e-07
5.8907e-07
5.84501e-07
5.79955e-07
5.75429e-07
8.97498e-06
8.3693e-06
7.81806e-06
7.31537e-06
6.85552e-06
6.43383e-06
6.04627e-06
5.68932e-06
5.35989e-06
5.05526e-06
4.77303e-06
4.5111e-06
4.26763e-06
4.04097e-06
3.82971e-06
3.63258e-06
3.44849e-06
3.27649e-06
3.11606e-06
7.30028e-07
7.23832e-07
7.17831e-07
7.12032e-07
7.0643e-07
7.01011e-07
6.95755e-07
6.90632e-07
6.85604e-07
6.80625e-07
6.75655e-07
6.70655e-07
6.65598e-07
6.60469e-07
6.55263e-07
6.49983e-07
6.44642e-07
6.39266e-07
6.33894e-07
6.28563e-07
6.2328e-07
6.18061e-07
6.12935e-07
6.0795e-07
6.03104e-07
5.98325e-07
5.93619e-07
5.88996e-07
5.84429e-07
5.7989e-07
5.75375e-07
8.97501e-06
8.36911e-06
7.81767e-06
7.31484e-06
6.85491e-06
6.43322e-06
6.04569e-06
5.68879e-06
5.35942e-06
5.05484e-06
4.77265e-06
4.51076e-06
4.26732e-06
4.0407e-06
3.82948e-06
3.63239e-06
3.44833e-06
3.27635e-06
3.11592e-06
7.29984e-07
7.23764e-07
7.17742e-07
7.11924e-07
7.06308e-07
7.00882e-07
6.95627e-07
6.90515e-07
6.85504e-07
6.80552e-07
6.75616e-07
6.70659e-07
6.65655e-07
6.60582e-07
6.5543e-07
6.50203e-07
6.44912e-07
6.39574e-07
6.34218e-07
6.28885e-07
6.23607e-07
6.18392e-07
6.13261e-07
6.08237e-07
6.03343e-07
5.98538e-07
5.9381e-07
5.89152e-07
5.84562e-07
5.80017e-07
5.75495e-07
8.97497e-06
8.36886e-06
7.8172e-06
7.31418e-06
6.85409e-06
6.43225e-06
6.0446e-06
5.68756e-06
5.35804e-06
5.05331e-06
4.77096e-06
4.50892e-06
4.26536e-06
4.03866e-06
3.82737e-06
3.63023e-06
3.44612e-06
3.27409e-06
3.11364e-06
7.29622e-07
7.23401e-07
7.17378e-07
7.11561e-07
7.05947e-07
7.00527e-07
6.9528e-07
6.90176e-07
6.85174e-07
6.80232e-07
6.7531e-07
6.70371e-07
6.65387e-07
6.60338e-07
6.55211e-07
6.50002e-07
6.44728e-07
6.39405e-07
6.3406e-07
6.28725e-07
6.23438e-07
6.18229e-07
6.13101e-07
6.0807e-07
6.03157e-07
5.98347e-07
5.93627e-07
5.88981e-07
5.844e-07
5.79878e-07
5.75392e-07
8.97487e-06
8.36856e-06
7.81671e-06
7.3136e-06
6.85351e-06
6.43177e-06
6.04428e-06
5.68744e-06
5.35811e-06
5.05354e-06
4.77135e-06
4.50944e-06
4.266e-06
4.03939e-06
3.82817e-06
3.63106e-06
3.44694e-06
3.27488e-06
3.11437e-06
7.297e-07
7.23442e-07
7.17385e-07
7.11536e-07
7.05894e-07
7.00448e-07
6.95177e-07
6.90048e-07
6.85022e-07
6.8006e-07
6.7512e-07
6.7017e-07
6.65176e-07
6.60115e-07
6.54973e-07
6.49756e-07
6.44472e-07
6.39142e-07
6.33785e-07
6.28444e-07
6.23144e-07
6.17929e-07
6.12813e-07
6.07788e-07
6.0287e-07
5.98061e-07
5.93355e-07
5.88746e-07
5.84216e-07
5.79748e-07
5.75326e-07
8.97479e-06
8.36805e-06
7.81554e-06
7.31166e-06
6.85078e-06
6.42825e-06
6.04002e-06
5.68255e-06
5.35269e-06
5.04771e-06
4.76521e-06
4.50313e-06
4.25961e-06
4.033e-06
3.8218e-06
3.62475e-06
3.44072e-06
3.26879e-06
3.10845e-06
7.288e-07
7.22575e-07
7.1655e-07
7.10731e-07
7.05119e-07
6.99703e-07
6.94456e-07
6.89349e-07
6.84345e-07
6.79403e-07
6.74488e-07
6.69563e-07
6.64596e-07
6.59563e-07
6.54447e-07
6.49255e-07
6.44001e-07
6.38707e-07
6.33401e-07
6.28105e-07
6.22854e-07
6.17684e-07
6.1262e-07
6.07671e-07
6.02827e-07
5.98102e-07
5.93493e-07
5.88995e-07
5.846e-07
5.80294e-07
5.76056e-07
8.97474e-06
8.36785e-06
7.81551e-06
7.31216e-06
6.85198e-06
6.43014e-06
6.04249e-06
5.68544e-06
5.35583e-06
5.05095e-06
4.76848e-06
4.50633e-06
4.26268e-06
4.03585e-06
3.8244e-06
3.62705e-06
3.44274e-06
3.27054e-06
3.10994e-06
7.28987e-07
7.22721e-07
7.16662e-07
7.10819e-07
7.0519e-07
6.99762e-07
6.94508e-07
6.894e-07
6.84402e-07
6.79481e-07
6.746e-07
6.69728e-07
6.64837e-07
6.59899e-07
6.54911e-07
6.49864e-07
6.4478e-07
6.39665e-07
6.34557e-07
6.29485e-07
6.24479e-07
6.19568e-07
6.14771e-07
6.10108e-07
6.05585e-07
6.01207e-07
5.9699e-07
5.92928e-07
5.89016e-07
5.85258e-07
5.81647e-07
8.97471e-06
8.36358e-06
7.80659e-06
7.29926e-06
6.83595e-06
6.41197e-06
6.02308e-06
5.66551e-06
5.33597e-06
5.03166e-06
4.75011e-06
4.48917e-06
4.2469e-06
4.02156e-06
3.81166e-06
3.61593e-06
3.43329e-06
3.26275e-06
3.1038e-06
7.28333e-07
7.22348e-07
7.16589e-07
7.1107e-07
7.05776e-07
7.00832e-07
6.96004e-07
6.91293e-07
6.86692e-07
6.82194e-07
6.77821e-07
6.73608e-07
6.69548e-07
6.65616e-07
6.61765e-07
6.57962e-07
6.54184e-07
6.50411e-07
6.46652e-07
6.4292e-07
6.39245e-07
6.35646e-07
6.3215e-07
6.28769e-07
6.25526e-07
6.22438e-07
6.19523e-07
6.16797e-07
6.14269e-07
6.11971e-07
6.0995e-07
8.97644e-06
8.3702e-06
7.82092e-06
7.32159e-06
6.867e-06
6.45353e-06
6.07687e-06
5.73271e-06
5.41738e-06
5.12773e-06
4.86103e-06
4.61489e-06
4.38717e-06
4.17602e-06
3.97984e-06
3.7973e-06
3.62726e-06
3.46872e-06
3.32085e-06
3.18258e-06
3.09749e-06
7.24001e-07
7.16801e-07
7.11165e-07
7.17737e-07
7.20823e-07
7.21611e-07
7.20936e-07
7.19385e-07
7.1784e-07
7.16796e-07
7.16368e-07
7.16464e-07
7.16888e-07
7.17433e-07
7.17922e-07
7.18231e-07
7.1829e-07
7.18075e-07
7.17593e-07
7.16867e-07
7.1595e-07
7.14893e-07
7.13741e-07
7.12552e-07
7.11371e-07
7.10249e-07
7.09244e-07
7.08443e-07
7.08029e-07
9.32616e-06
9.19835e-06
9.07739e-06
8.96266e-06
8.85307e-06
8.74593e-06
8.63999e-06
8.53502e-06
8.4309e-06
8.32761e-06
8.22513e-06
8.12344e-06
8.02257e-06
7.9226e-06
7.82373e-06
7.72618e-06
7.63019e-06
7.53595e-06
7.44369e-06
7.35351e-06
7.2414e-06
7.13221e-06
7.02736e-06
6.92719e-06
6.83227e-06
6.74142e-06
6.65378e-06
6.56861e-06
6.4853e-06
6.40198e-06
6.31819e-06
6.23468e-06
6.15219e-06
6.07124e-06
5.99239e-06
5.91582e-06
5.84182e-06
5.77044e-06
5.70178e-06
5.6358e-06
5.57235e-06
5.51121e-06
5.45235e-06
5.39563e-06
5.34083e-06
5.28764e-06
5.23572e-06
5.18471e-06
5.13414e-06
5.08323e-06
8.60039e-05
6.05131e-05
0.000127887
0.000183698
0.000206731
0.000201309
0.000179247
0.000147249
0.000108303
6.73136e-05
3.19852e-05
2.18645e-05
2.77566e-05
3.5289e-05
4.6553e-05
6.13519e-05
7.77644e-05
9.35397e-05
0.000157795
0.00254668
8.15019e-05
5.94005e-05
0.000127335
0.000184835
0.00020946
0.000204687
0.000182415
0.000149923
0.000110701
6.97756e-05
3.46942e-05
2.33879e-05
2.90026e-05
3.74572e-05
5.02463e-05
6.65665e-05
8.41868e-05
0.00010239
0.00019288
0.0028499
7.72458e-05
5.82861e-05
0.000126729
0.000185925
0.000212215
0.000208176
0.000185766
0.000152846
0.000113415
7.26241e-05
3.77508e-05
2.5009e-05
3.03285e-05
3.90658e-05
5.2243e-05
6.89545e-05
8.69717e-05
0.000107562
0.000219064
0.00302466
7.32245e-05
5.71657e-05
0.000126062
0.000186963
0.000214995
0.000211782
0.000189311
0.000156027
0.000116448
7.58567e-05
4.1299e-05
2.74831e-05
3.2416e-05
4.13615e-05
5.48274e-05
7.18325e-05
9.03189e-05
0.000114308
0.000250646
0.00320493
6.94219e-05
5.60339e-05
0.000125324
0.000187937
0.000217794
0.000215512
0.000193066
0.000159491
0.000119828
7.9516e-05
4.54142e-05
3.09411e-05
3.5394e-05
4.44158e-05
5.80419e-05
7.5251e-05
9.43753e-05
0.000122951
0.000288292
0.00339029
6.58233e-05
5.48862e-05
0.000124507
0.000188835
0.000220608
0.00021937
0.000197048
0.000163253
0.000123566
8.3604e-05
5.0121e-05
3.54277e-05
3.93304e-05
4.82634e-05
6.19123e-05
7.92708e-05
9.93186e-05
0.000133847
0.000332499
0.00358021
6.24146e-05
5.37181e-05
0.000123602
0.000189646
0.00022343
0.000223366
0.000201275
0.000167342
0.00012769
8.81329e-05
5.53958e-05
4.08806e-05
4.42225e-05
5.29067e-05
6.64585e-05
8.3968e-05
0.000105345
0.000147342
0.000383485
0.00377408
5.91822e-05
5.25255e-05
0.000122597
0.000190356
0.000226253
0.000227502
0.000205765
0.000171783
0.000132225
9.31175e-05
6.12028e-05
4.71627e-05
5.00096e-05
5.83237e-05
7.16996e-05
8.94347e-05
0.000112663
0.000163754
0.000441289
0.00397118
5.61136e-05
5.13042e-05
0.000121484
0.00019095
0.000229067
0.000231783
0.000210532
0.000176597
0.000137195
9.85677e-05
6.75032e-05
5.41114e-05
5.65942e-05
6.4482e-05
7.76621e-05
9.57799e-05
0.000121489
0.000183373
0.000505828
0.00417067
5.31969e-05
5.00502e-05
0.00012025
0.000191411
0.00023186
0.00023621
0.000215593
0.000181805
0.000142618
0.000104493
7.42701e-05
6.16016e-05
6.38753e-05
7.13534e-05
8.4386e-05
0.000103127
0.00013204
0.000206453
0.000576915
0.00437164
5.04213e-05
4.87596e-05
0.000118886
0.000191721
0.000234616
0.000240782
0.00022096
0.000187427
0.000148514
0.000110901
8.14812e-05
6.95479e-05
7.17718e-05
7.89241e-05
9.19277e-05
0.000111612
0.000144526
0.000233206
0.000654256
0.00457315
4.77768e-05
4.74291e-05
0.000117379
0.000191859
0.000237318
0.000245491
0.000226641
0.000193481
0.000154903
0.000117809
8.91436e-05
7.79168e-05
8.02355e-05
8.7201e-05
0.000100359
0.000121379
0.00015915
0.000263788
0.000737467
0.00477415
4.52541e-05
4.60554e-05
0.000115717
0.000191803
0.000239942
0.00025033
0.000232642
0.000199982
0.000161802
0.000125236
9.72733e-05
8.67186e-05
8.92585e-05
9.6215e-05
0.000109769
0.000132572
0.000176095
0.000298301
0.000826089
0.00497356
4.28451e-05
4.46356e-05
0.000113889
0.000191528
0.000242462
0.000255285
0.000238967
0.000206946
0.000169229
0.000133202
0.000105899
9.59816e-05
9.88644e-05
0.000106018
0.000120254
0.000145337
0.000195526
0.000336795
0.000919612
0.00517025
4.05423e-05
4.31674e-05
0.000111881
0.000191008
0.00024485
0.000260339
0.000245619
0.000214387
0.000177208
0.000141736
0.000115058
0.000105757
0.000109103
0.000116679
0.000131922
0.000159816
0.000217583
0.000379265
0.00101749
0.00536303
3.8339e-05
4.16491e-05
0.000109683
0.000190214
0.000247071
0.000265471
0.000252595
0.000222321
0.000185764
0.000150871
0.000124797
0.00011611
0.000120045
0.000128283
0.000144882
0.000176143
0.000242385
0.000425664
0.00111915
0.00555069
3.62297e-05
4.00797e-05
0.000107284
0.000189116
0.000249088
0.000270654
0.000259893
0.000230764
0.000194927
0.000160649
0.000135177
0.000127116
0.000131773
0.000140922
0.000159248
0.000194442
0.000270023
0.000475899
0.00122403
0.00573198
3.42093e-05
3.84588e-05
0.000104671
0.000187682
0.000250856
0.000275854
0.000267504
0.000239732
0.000204729
0.000171121
0.00014627
0.000138863
0.000144381
0.000154694
0.000175131
0.000214829
0.000300568
0.000529849
0.00133153
0.00590563
3.22735e-05
3.67871e-05
0.000101834
0.000185877
0.000252326
0.000281033
0.000275414
0.000249242
0.000215207
0.000182341
0.000158154
0.000151446
0.000157966
0.000169701
0.000192639
0.000237408
0.000334063
0.000587362
0.00144108
0.00607035
3.04187e-05
3.50657e-05
9.8764e-05
0.000183664
0.000253439
0.000286137
0.000283599
0.0002593
0.000226398
0.000194367
0.000170908
0.000164958
0.000172628
0.000186046
0.000211877
0.00026227
0.000370533
0.00064826
0.00155211
0.00622485
2.86419e-05
3.32968e-05
9.54514e-05
0.000181
0.000254127
0.000291102
0.000292024
0.000269911
0.000238336
0.000207256
0.000184611
0.000179489
0.000188464
0.000203827
0.000232944
0.000289496
0.000409981
0.000712345
0.00166403
0.00636784
2.69402e-05
3.14841e-05
9.18889e-05
0.000177844
0.000254314
0.000295849
0.000300639
0.000281064
0.000251046
0.00022106
0.000199337
0.000195129
0.000205566
0.00022314
0.000255933
0.000319151
0.000452386
0.000779394
0.00177625
0.00649803
2.53116e-05
2.96322e-05
8.80721e-05
0.000174152
0.000253915
0.000300283
0.000309377
0.000292738
0.000264549
0.000235826
0.000215153
0.000211959
0.000224024
0.000244077
0.000280925
0.000351286
0.000497707
0.000849163
0.00188817
0.00661417
2.37543e-05
2.77477e-05
8.40002e-05
0.000169881
0.000252835
0.000304293
0.000318151
0.000304894
0.000278851
0.000251594
0.000232116
0.000230048
0.00024392
0.000266723
0.000307995
0.000385935
0.000545878
0.000921375
0.00199915
0.00671503
2.22669e-05
2.58392e-05
7.96772e-05
0.000164991
0.000250972
0.000307746
0.00032685
0.000317471
0.000293945
0.000268397
0.000250283
0.000249469
0.000265331
0.000291153
0.000337204
0.000423115
0.000596809
0.000995727
0.00210852
0.00679943
2.08483e-05
2.3917e-05
7.51136e-05
0.000159446
0.000248219
0.000310493
0.000335336
0.000330384
0.000309805
0.000286251
0.000269699
0.000270286
0.000288329
0.000317438
0.0003686
0.00046282
0.000650377
0.00107187
0.00221559
0.00686626
1.9498e-05
2.1994e-05
7.03273e-05
0.00015322
0.000244466
0.000312364
0.000343443
0.000343517
0.000326381
0.000305161
0.000290399
0.000292558
0.000312979
0.000345635
0.000402215
0.00050502
0.000706422
0.00114943
0.00231959
0.00691445
1.82155e-05
2.00849e-05
6.53451e-05
0.000146298
0.000239603
0.000313171
0.000350968
0.000356717
0.000343594
0.000325108
0.000312409
0.000316332
0.000339334
0.000375787
0.000438057
0.000549651
0.00076474
0.00122793
0.00241972
0.00694304
1.70005e-05
1.82062e-05
6.02028e-05
0.00013868
0.000233526
0.000312706
0.000357668
0.00036978
0.000361318
0.000346046
0.00033573