/*--------------------------------*- C++ -*----------------------------------*\
  =========                 |
  \\      /  F ield         | OpenFOAM: The Open Source CFD Toolbox
   \\    /   O peration     | Website:  https://openfoam.org
    \\  /    A nd           | Version:  8
     \\/     M anipulation  |
\*---------------------------------------------------------------------------*/
FoamFile
{
    version     2.0;
    format      ascii;
    class       volScalarField;
    location    "100";
    object      k;
}
// * * * * * * * * * * * * * * * * * * * * * * * * * * * * * * * * * * * * * //

dimensions      [0 2 -2 0 0 0 0];

internalField   nonuniform List<scalar> 
8400
(
0.00189577
0.00188114
0.00186936
0.00186006
0.00185335
0.00184917
0.0018474
0.00184778
0.00184431
0.00182735
0.00179025
0.00172929
0.00164255
0.00153146
0.00140509
0.00128314
0.00119021
0.00113455
0.00110781
0.00109985
0.00111262
0.00114193
0.00117496
0.00120765
0.0012402
0.00126636
0.00127659
0.001268
0.00125287
0.00123778
0.00122233
0.00120642
0.00119012
0.00117348
0.00115655
0.00113946
0.00112219
0.00110481
0.00108744
0.00107016
0.00105298
0.0010359
0.00101894
0.0010021
0.000985406
0.00096888
0.000952502
0.000936271
0.000920186
0.000904256
0.00175097
0.00180677
0.0018702
0.00194096
0.00202008
0.00210799
0.00220242
0.00228347
0.00233014
0.00234384
0.00233208
0.00229331
0.00221728
0.00208946
0.0018953
0.00163194
0.00133982
0.00109267
0.000953993
0.000817461
0.000685441
0.000595513
0.000570911
0.000568578
0.000580118
0.000603404
0.0006254
0.000636916
0.000635685
0.000622989
0.00060331
0.000579743
0.000554253
0.0005283
0.000502779
0.000478286
0.000455171
0.000433597
0.00041359
0.000395117
0.000378191
0.000362809
0.000348928
0.0003365
0.00032549
0.000315913
0.000307821
0.000301276
0.000296363
0.000293219
0.00188168
0.00195135
0.00204781
0.0021843
0.00234374
0.00252291
0.00269137
0.00271854
0.00273035
0.00272787
0.00271255
0.0026908
0.00266619
0.00263674
0.0025957
0.00250796
0.00223412
0.0015451
0.00146096
0.00132397
0.00107646
0.000746193
0.000631448
0.000553248
0.000473578
0.000431686
0.000442408
0.000448656
0.000447185
0.000438702
0.000426464
0.000412906
0.00039963
0.000387556
0.000377104
0.000368409
0.000361474
0.000356197
0.000352378
0.000349824
0.00034836
0.000347799
0.000347984
0.000348778
0.000350039
0.000351643
0.000353473
0.000355415
0.000357358
0.000359185
0.00297831
0.00296509
0.00295711
0.00294699
0.00293406
0.00291789
0.00289874
0.00287698
0.00285323
0.0028282
0.00280255
0.00277666
0.00275047
0.00272298
0.00269169
0.0026582
0.00262107
0.00256944
0.00252333
0.00245974
0.00224234
0.00114757
0.00107743
0.000998487
0.000721979
0.000392597
0.000395079
0.00039949
0.000399622
0.000397057
0.000393788
0.00039119
0.000389975
0.000390397
0.000392384
0.000395738
0.000400179
0.000405445
0.000411306
0.000417527
0.000423919
0.00043033
0.000436639
0.000442751
0.000448577
0.00045403
0.00045903
0.000463515
0.000467427
0.000470678
0.00299289
0.00298477
0.00297646
0.00296775
0.00295839
0.00294805
0.00293653
0.00292387
0.00291006
0.00289524
0.00287944
0.00286275
0.00284526
0.00282703
0.00280805
0.00278412
0.0027553
0.00272222
0.00268775
0.00265174
0.00260713
0.00254356
0.00251949
0.00239208
0.00193429
0.000408481
0.000396419
0.000399168
0.000403458
0.000407799
0.000413256
0.000420303
0.000428957
0.000439043
0.000450209
0.000462091
0.000474346
0.000486706
0.00049897
0.000510954
0.000522557
0.000533681
0.00054422
0.000554135
0.000563379
0.000571873
0.000579555
0.000586369
0.000592236
0.000597054
0.00299263
0.00298431
0.00297577
0.002967
0.00295795
0.00294853
0.00293862
0.00292817
0.0029171
0.00290538
0.00289301
0.00287997
0.00286592
0.00285049
0.00283321
0.00281356
0.00279104
0.00276562
0.00273775
0.00270769
0.00267412
0.00263275
0.00258028
0.00246236
0.00219052
0.00170697
0.0011374
0.000413197
0.000422001
0.000434432
0.000448439
0.000464029
0.000480849
0.000498528
0.000516587
0.000534646
0.000552482
0.000569875
0.000586655
0.000602702
0.000617961
0.000632399
0.000645962
0.000658609
0.000670297
0.000680988
0.000690661
0.000699254
0.000706679
0.000712874
0.00299166
0.00298215
0.00297248
0.00296268
0.0029527
0.00294256
0.0029322
0.00292159
0.00291064
0.00289926
0.00288735
0.00287484
0.00286162
0.00284745
0.00283207
0.00281506
0.00279592
0.00277424
0.00274988
0.00272255
0.00269137
0.0026537
0.0026019
0.00250169
0.00229806
0.00194679
0.00142512
0.00071044
0.000439895
0.000461241
0.000483591
0.000506701
0.000530207
0.000553686
0.000576759
0.000599145
0.000620666
0.000641161
0.000660587
0.000678896
0.000696017
0.00071197
0.00072679
0.00074045
0.000752921
0.000764212
0.000774349
0.000783302
0.000791033
0.000797562
0.00299022
0.00297897
0.00296756
0.00295604
0.00294445
0.0029328
0.00292112
0.00290937
0.00289754
0.00288558
0.00287347
0.00286104
0.00284821
0.00283484
0.0028206
0.00280514
0.00278801
0.00276852
0.00274625
0.00272075
0.0026911
0.00265513
0.00260568
0.00251729
0.00234702
0.0020465
0.00156015
0.000907179
0.000506353
0.00048192
0.000511925
0.000541365
0.000570025
0.000597623
0.000623949
0.000648773
0.000671989
0.000693572
0.000713535
0.000731831
0.000748391
0.000763307
0.000776612
0.000788272
0.000798349
0.000806927
0.000814084
0.000819919
0.000824564
0.000828203
0.00298813
0.00297418
0.0029602
0.00294624
0.00293231
0.00291842
0.00290469
0.00289123
0.00287801
0.00286505
0.00285238
0.00283987
0.00282744
0.00281488
0.00280177
0.00278774
0.00277214
0.00275439
0.0027338
0.00270964
0.00268117
0.00264635
0.00259851
0.00251703
0.00236424
0.00208841
0.00162848
0.00102176
0.000586141
0.000499476
0.000531085
0.000565339
0.000597588
0.000627689
0.000655607
0.000681235
0.000704512
0.000725431
0.000743965
0.000760095
0.000773728
0.00078488
0.000793525
0.000799616
0.000803301
0.000804716
0.000804013
0.000801536
0.000797728
0.000793146
0.00298481
0.00296647
0.00294851
0.00293098
0.00291373
0.00289694
0.00288053
0.00286488
0.00285004
0.00283609
0.00282313
0.00281105
0.00279942
0.00278809
0.00277657
0.00276419
0.00275034
0.00273417
0.00271502
0.00269218
0.00266457
0.00263037
0.00258341
0.00250523
0.0023607
0.0020968
0.00165595
0.00108757
0.000653569
0.000522187
0.000540242
0.000578023
0.000612361
0.000643615
0.000671887
0.000697215
0.000719588
0.000739005
0.000755355
0.000768643
0.000778713
0.000785382
0.000788523
0.000787975
0.000783799
0.00077605
0.000764826
0.000750631
0.000734244
0.000716688
0.00297903
0.0029524
0.00292804
0.00290509
0.00288337
0.00286273
0.00284344
0.0028258
0.00280989
0.00279589
0.00278378
0.0027733
0.00276388
0.00275494
0.00274571
0.00273553
0.00272355
0.00270894
0.00269109
0.00266918
0.00264223
0.00260832
0.00256127
0.00248364
0.00234134
0.00208136
0.00165445
0.00112177
0.000707042
0.000550035
0.000546813
0.000580236
0.000614556
0.000645628
0.000673385
0.000698184
0.000719501
0.000737623
0.00075222
0.00076353
0.000771554
0.000775781
0.000776006
0.000772121
0.000764148
0.00075201
0.000735455
0.00071486
0.000690618
0.000663058
0.00296533
0.00291884
0.00288557
0.00285686
0.00283066
0.00280686
0.00278595
0.00276825
0.00275402
0.00274297
0.00273462
0.00272829
0.00272256
0.00271698
0.00271063
0.00270266
0.00269258
0.00267918
0.00266225
0.00264092
0.00261427
0.00258023
0.00253222
0.00245268
0.00230768
0.00204611
0.00163091
0.00113479
0.000749302
0.000581399
0.000556767
0.000579543
0.000610175
0.000639439
0.000665833
0.000689412
0.000709722
0.000726921
0.000740812
0.000751527
0.000759145
0.000763275
0.00076366
0.000760225
0.000752914
0.00074168
0.000726391
0.000707313
0.000684787
0.000659124
0.00290279
0.00285147
0.00281418
0.00278289
0.00275679
0.00273558
0.00271929
0.00270746
0.00269914
0.00269344
0.00268954
0.0026865
0.0026833
0.00267959
0.00267454
0.00266736
0.0026578
0.00264483
0.00262795
0.0026067
0.00258002
0.00254533
0.00249593
0.00241319
0.00225951
0.00199288
0.00159008
0.00113392
0.000784313
0.000615614
0.0005723
0.000580849
0.000604212
0.000629741
0.000653847
0.000675707
0.000694854
0.00071128
0.000724972
0.000735952
0.000744202
0.000749554
0.00075187
0.00075107
0.000747074
0.000739871
0.000729535
0.00071632
0.000700581
0.000682739
0.00280794
0.00276333
0.00273125
0.00270703
0.00268888
0.00267588
0.0026669
0.0026608
0.00265684
0.00265405
0.00265182
0.00264963
0.00264669
0.00264254
0.00263671
0.0026287
0.00261803
0.0026041
0.00258631
0.00256395
0.00253575
0.0024985
0.0024446
0.00235626
0.00220045
0.00192832
0.00153594
0.00112515
0.00081608
0.000653599
0.000595413
0.000588049
0.000600547
0.000619388
0.000639314
0.000658429
0.000675891
0.000691376
0.000704825
0.000716217
0.000725486
0.000732552
0.00073737
0.000739882
0.000740021
0.000737786
0.000733305
0.000726792
0.000718523
0.000708849
0.00270753
0.00267927
0.00265959
0.00264574
0.00263607
0.00262948
0.00262497
0.00262178
0.00261932
0.00261699
0.00261431
0.00261098
0.00260656
0.00260065
0.00259285
0.00258272
0.0025699
0.00255385
0.0025339
0.00250893
0.00247717
0.00243457
0.00237285
0.00227616
0.00211801
0.00185726
0.00147761
0.00111384
0.000848198
0.00069714
0.000628673
0.000605842
0.000605051
0.000614075
0.000627042
0.000641242
0.000655329
0.000668622
0.000680837
0.000691837
0.000701503
0.000709731
0.000716478
0.00072169
0.000725311
0.000727328
0.000727819
0.000726906
0.000724742
0.000721535
0.00262625
0.00261245
0.00260271
0.0025957
0.00259056
0.00258659
0.00258324
0.00258007
0.00257674
0.00257292
0.00256832
0.00256264
0.00255558
0.00254685
0.0025362
0.00252312
0.0025072
0.0024879
0.00246432
0.00243503
0.00239764
0.00234757
0.00227683
0.00217218
0.00201349
0.00177295
0.00142393
0.00110434
0.000883545
0.0007484
0.000675253
0.000639803
0.000625503
0.000622721
0.0006261
0.000632681
0.000640829
0.00064962
0.000658511
0.000667175
0.000675403
0.000683046
0.000689989
0.000696138
0.000701424
0.0007058
0.000709262
0.000711837
0.000713573
0.000714553
0.00255729
0.00255029
0.0025445
0.00253949
0.00253485
0.00253033
0.00252567
0.0025206
0.00251494
0.00250846
0.00250094
0.00249216
0.00248185
0.00246976
0.00245558
0.00243889
0.00241914
0.00239558
0.00236718
0.00233226
0.00228815
0.00223049
0.00215261
0.0020446
0.00189257
0.00167957
0.00137488
0.00109977
0.00092423
0.000809391
0.000738191
0.000695446
0.000670494
0.000656616
0.000649633
0.000646932
0.000646958
0.00064877
0.000651731
0.000655396
0.000659486
0.000663815
0.000668222
0.000672567
0.000676753
0.000680702
0.000684357
0.000687675
0.000690643
0.000693272
0.00246414
0.00245796
0.00245181
0.00244568
0.00243944
0.00243291
0.00242594
0.00241841
0.00241012
0.00240083
0.00239041
0.00237865
0.00236524
0.00234994
0.00233237
0.00231207
0.00228844
0.00226062
0.00222743
0.00218733
0.00213803
0.00207616
0.00199696
0.00189396
0.00175857
0.00158086
0.00132922
0.00110167
0.000971057
0.000880987
0.00081921
0.000776695
0.000747121
0.000726251
0.000711272
0.000700328
0.000692236
0.00068622
0.000681738
0.000678418
0.000676025
0.000674408
0.000673436
0.000672994
0.000673008
0.000673423
0.000674187
0.000675252
0.000676599
0.000678232
0.00228689
0.00227968
0.00227239
0.00226505
0.00225762
0.00224996
0.00224192
0.00223326
0.00222381
0.00221338
0.00220171
0.00218856
0.0021737
0.00215681
0.00213752
0.00211535
0.00208974
0.00205994
0.00202506
0.00198388
0.00193489
0.0018761
0.00180481
0.00171746
0.00160935
0.00147418
0.00128279
0.00110919
0.00102303
0.000962065
0.000917351
0.000883736
0.000857743
0.000836939
0.000819708
0.000804997
0.0007921
0.000780545
0.000770033
0.000760399
0.000751569
0.000743519
0.000736253
0.000729795
0.000724195
0.000719507
0.000715773
0.000713029
0.000711315
0.000710666
0.00267627
0.00263557
0.00259644
0.0025578
0.00251946
0.00248118
0.00244277
0.00240405
0.00236484
0.00232494
0.00228418
0.00224237
0.00219937
0.00215503
0.00210918
0.00206157
0.00201182
0.00195944
0.00190388
0.0018446
0.00178119
0.00171334
0.00164073
0.00156267
0.00147717
0.00137843
0.00124997
0.00114319
0.00111923
0.00111022
0.00110947
0.0011139
0.00112164
0.0011314
0.0011424
0.00115415
0.00116634
0.00117885
0.00119173
0.00120518
0.00121945
0.00123491
0.00125195
0.00127105
0.0012927
0.00131737
0.00134553
0.00137751
0.00141349
0.00145314
2.38385e-05
2.36486e-05
2.34622e-05
2.33021e-05
2.31363e-05
2.29492e-05
2.27473e-05
2.25416e-05
2.23397e-05
2.21436e-05
2.19528e-05
2.17668e-05
2.15852e-05
2.14078e-05
2.12339e-05
2.10626e-05
2.08932e-05
2.0725e-05
2.05575e-05
2.03903e-05
2.0177e-05
1.99767e-05
1.97745e-05
1.9575e-05
1.93825e-05
1.91992e-05
1.9026e-05
1.8863e-05
1.87086e-05
1.85613e-05
1.84198e-05
1.82825e-05
1.81477e-05
1.8014e-05
1.78799e-05
1.77446e-05
1.76074e-05
1.74686e-05
1.7329e-05
1.71902e-05
1.70537e-05
1.69213e-05
1.67948e-05
1.66758e-05
1.65645e-05
1.64612e-05
1.63661e-05
1.62716e-05
1.61533e-05
1.59832e-05
2.32626e-05
2.22785e-05
2.12897e-05
2.03498e-05
1.94866e-05
1.86942e-05
1.79585e-05
1.72711e-05
1.66269e-05
1.60236e-05
1.54591e-05
1.49309e-05
1.44358e-05
1.39707e-05
1.35323e-05
1.31178e-05
1.27248e-05
1.23511e-05
1.19956e-05
1.16549e-05
1.1436e-05
1.12532e-05
1.13073e-05
1.13321e-05
1.13389e-05
1.13339e-05
1.13208e-05
1.13029e-05
1.12844e-05
1.12692e-05
1.12596e-05
1.12553e-05
1.12544e-05
1.12538e-05
1.12503e-05
1.12414e-05
1.12252e-05
1.12013e-05
1.117e-05
1.11325e-05
1.10911e-05
1.10476e-05
1.10039e-05
1.09608e-05
1.09188e-05
1.08779e-05
1.08417e-05
1.08279e-05
1.08679e-05
1.0973e-05
2.3243e-05
2.22398e-05
2.12769e-05
2.03477e-05
1.94671e-05
1.86413e-05
1.78684e-05
1.71437e-05
1.64628e-05
1.58227e-05
1.52208e-05
1.46547e-05
1.41213e-05
1.36177e-05
1.31412e-05
1.26891e-05
1.22592e-05
1.18495e-05
1.14592e-05
1.13639e-05
1.12669e-05
1.11681e-05
1.10739e-05
1.09842e-05
1.08993e-05
1.08194e-05
1.07444e-05
1.06743e-05
1.06089e-05
1.05478e-05
1.04901e-05
1.04346e-05
1.038e-05
1.03247e-05
1.02674e-05
1.02071e-05
1.01434e-05
1.00765e-05
1.0007e-05
9.9358e-06
9.86458e-06
9.79506e-06
9.72887e-06
9.66687e-06
9.60828e-06
9.54884e-06
9.47941e-06
9.39323e-06
9.30714e-06
9.28218e-06
2.32494e-05
2.22339e-05
2.12778e-05
2.03664e-05
1.95001e-05
1.86808e-05
1.79091e-05
1.71835e-05
1.65013e-05
1.58598e-05
1.52565e-05
1.46885e-05
1.41529e-05
1.3647e-05
1.31678e-05
1.27129e-05
1.228e-05
1.1867e-05
1.14733e-05
1.13739e-05
1.12737e-05
1.11731e-05
1.10737e-05
1.09768e-05
1.08835e-05
1.07947e-05
1.07107e-05
1.06315e-05
1.0557e-05
1.04862e-05
1.04178e-05
1.03503e-05
1.02824e-05
1.02125e-05
1.01395e-05
1.00629e-05
9.98246e-06
9.89875e-06
9.81269e-06
9.72564e-06
9.63911e-06
9.55453e-06
9.47332e-06
9.39759e-06
9.33016e-06
9.2736e-06
9.22474e-06
9.16691e-06
9.08235e-06
9.01135e-06
2.32519e-05
2.22293e-05
2.12629e-05
2.03488e-05
1.9484e-05
1.86666e-05
1.78958e-05
1.71704e-05
1.64884e-05
1.58475e-05
1.52449e-05
1.46779e-05
1.41434e-05
1.36386e-05
1.31608e-05
1.27072e-05
1.22755e-05
1.18636e-05
1.14708e-05
1.13722e-05
1.12725e-05
1.11723e-05
1.10732e-05
1.09763e-05
1.08829e-05
1.07938e-05
1.07093e-05
1.06296e-05
1.05543e-05
1.04824e-05
1.04128e-05
1.03439e-05
1.02742e-05
1.02023e-05
1.01272e-05
1.00482e-05
9.96519e-06
9.87873e-06
9.78981e-06
9.69991e-06
9.61083e-06
9.52386e-06
9.43928e-06
9.35674e-06
9.2768e-06
9.2032e-06
9.14225e-06
9.09157e-06
9.02775e-06
8.96044e-06
2.32497e-05
2.22265e-05
2.12552e-05
2.03381e-05
1.94737e-05
1.8659e-05
1.78915e-05
1.71693e-05
1.64902e-05
1.5852e-05
1.52519e-05
1.4687e-05
1.41544e-05
1.36513e-05
1.31749e-05
1.27224e-05
1.22916e-05
1.18802e-05
1.14876e-05
1.13884e-05
1.1288e-05
1.11872e-05
1.10874e-05
1.09899e-05
1.08957e-05
1.08058e-05
1.07206e-05
1.06402e-05
1.0564e-05
1.04913e-05
1.04208e-05
1.03511e-05
1.02805e-05
1.02078e-05
1.01318e-05
1.00519e-05
9.96815e-06
9.88085e-06
9.79106e-06
9.70034e-06
9.61044e-06
9.52336e-06
9.44073e-06
9.36225e-06
9.28552e-06
9.20904e-06
9.13675e-06
9.07585e-06
9.01462e-06
8.95035e-06
2.32466e-05
2.2221e-05
2.12477e-05
2.0328e-05
1.94619e-05
1.86467e-05
1.78796e-05
1.71583e-05
1.64803e-05
1.58432e-05
1.52443e-05
1.46806e-05
1.41493e-05
1.36475e-05
1.31722e-05
1.27209e-05
1.22909e-05
1.18802e-05
1.14882e-05
1.13896e-05
1.12896e-05
1.11892e-05
1.10896e-05
1.09923e-05
1.08982e-05
1.08082e-05
1.07229e-05
1.06423e-05
1.0566e-05
1.04931e-05
1.04224e-05
1.03525e-05
1.02818e-05
1.0209e-05
1.01329e-05
1.00531e-05
9.96937e-06
9.8822e-06
9.79255e-06
9.70182e-06
9.61142e-06
9.52282e-06
9.438e-06
9.35904e-06
9.28541e-06
9.21353e-06
9.14149e-06
9.07511e-06
9.01176e-06
8.94792e-06
2.32444e-05
2.22134e-05
2.12382e-05
2.03177e-05
1.94511e-05
1.86359e-05
1.78696e-05
1.71496e-05
1.64733e-05
1.5838e-05
1.5241e-05
1.46793e-05
1.41499e-05
1.36499e-05
1.31764e-05
1.27264e-05
1.22976e-05
1.18878e-05
1.14964e-05
1.13978e-05
1.12977e-05
1.11969e-05
1.10967e-05
1.09986e-05
1.09036e-05
1.08126e-05
1.07264e-05
1.0645e-05
1.0568e-05
1.04947e-05
1.04238e-05
1.03539e-05
1.02834e-05
1.02108e-05
1.01351e-05
1.00556e-05
9.97235e-06
9.88581e-06
9.79691e-06
9.70702e-06
9.61742e-06
9.52921e-06
9.44344e-06
9.36178e-06
9.28613e-06
9.21529e-06
9.14531e-06
9.07781e-06
9.01274e-06
8.94847e-06
2.32424e-05
2.22049e-05
2.12267e-05
2.03054e-05
1.94386e-05
1.86238e-05
1.78582e-05
1.71392e-05
1.64642e-05
1.58304e-05
1.52349e-05
1.46747e-05
1.41469e-05
1.36484e-05
1.31762e-05
1.27273e-05
1.22993e-05
1.18903e-05
1.14994e-05
1.14011e-05
1.13007e-05
1.11991e-05
1.10976e-05
1.09977e-05
1.09007e-05
1.08079e-05
1.07202e-05
1.06378e-05
1.05604e-05
1.04874e-05
1.04172e-05
1.03484e-05
1.02793e-05
1.02084e-05
1.01346e-05
1.0057e-05
9.9753e-06
9.89014e-06
9.8024e-06
9.71343e-06
9.62476e-06
9.53745e-06
9.45243e-06
9.37021e-06
9.29228e-06
9.21967e-06
9.1498e-06
9.0819e-06
9.01564e-06
8.95038e-06
2.32402e-05
2.21962e-05
2.12145e-05
2.02919e-05
1.9425e-05
1.86108e-05
1.78462e-05
1.71286e-05
1.64553e-05
1.58232e-05
1.52295e-05
1.46711e-05
1.41451e-05
1.36482e-05
1.31774e-05
1.27297e-05
1.23029e-05
1.18948e-05
1.15047e-05
1.14068e-05
1.13069e-05
1.12063e-05
1.11061e-05
1.10079e-05
1.0913e-05
1.08223e-05
1.07365e-05
1.06556e-05
1.05794e-05
1.0507e-05
1.04371e-05
1.03681e-05
1.02984e-05
1.02268e-05
1.01521e-05
1.00737e-05
9.99135e-06
9.90543e-06
9.81674e-06
9.72654e-06
9.6365e-06
9.54809e-06
9.46236e-06
9.37954e-06
9.30014e-06
9.22509e-06
9.15379e-06
9.08493e-06
9.01776e-06
8.95164e-06
2.32377e-05
2.21877e-05
2.12023e-05
2.02782e-05
1.94111e-05
1.85974e-05
1.7834e-05
1.71178e-05
1.6446e-05
1.58157e-05
1.52237e-05
1.46671e-05
1.41427e-05
1.36473e-05
1.31778e-05
1.27314e-05
1.23057e-05
1.18986e-05
1.15092e-05
1.14115e-05
1.13117e-05
1.12111e-05
1.11111e-05
1.1013e-05
1.09182e-05
1.08277e-05
1.07421e-05
1.06614e-05
1.05853e-05
1.05129e-05
1.04429e-05
1.03738e-05
1.03041e-05
1.02325e-05
1.01578e-05
1.00794e-05
9.9973e-06
9.9117e-06
9.82347e-06
9.73358e-06
9.64329e-06
9.55437e-06
9.46815e-06
9.38505e-06
9.30521e-06
9.22896e-06
9.15633e-06
9.0865e-06
9.0186e-06
8.95198e-06
2.32351e-05
2.21793e-05
2.11906e-05
2.02649e-05
1.93975e-05
1.85842e-05
1.78218e-05
1.7107e-05
1.64367e-05
1.58079e-05
1.52176e-05
1.46626e-05
1.41397e-05
1.36457e-05
1.31775e-05
1.27323e-05
1.23077e-05
1.19015e-05
1.15127e-05
1.14152e-05
1.13154e-05
1.12147e-05
1.11146e-05
1.10164e-05
1.09214e-05
1.08306e-05
1.07447e-05
1.06638e-05
1.05874e-05
1.05148e-05
1.04446e-05
1.03754e-05
1.03057e-05
1.02344e-05
1.01603e-05
1.00825e-05
1.0001e-05
9.91609e-06
9.82842e-06
9.73926e-06
9.6495e-06
9.56066e-06
9.47399e-06
9.39054e-06
9.31022e-06
9.23326e-06
9.15955e-06
9.08867e-06
9.02e-06
8.95299e-06
2.32327e-05
2.21713e-05
2.11793e-05
2.02522e-05
1.93844e-05
1.85715e-05
1.78101e-05
1.70966e-05
1.64279e-05
1.58008e-05
1.52123e-05
1.4659e-05
1.41378e-05
1.36453e-05
1.31786e-05
1.27348e-05
1.23113e-05
1.1906e-05
1.15178e-05
1.14202e-05
1.13203e-05
1.12194e-05
1.11191e-05
1.10206e-05
1.09254e-05
1.08343e-05
1.07481e-05
1.06669e-05
1.05903e-05
1.05175e-05
1.04472e-05
1.03783e-05
1.03091e-05
1.02382e-05
1.01648e-05
1.00881e-05
1.00075e-05
9.92359e-06
9.83689e-06
9.74845e-06
9.65937e-06
9.57091e-06
9.48401e-06
9.39991e-06
9.31872e-06
9.24066e-06
9.16578e-06
9.0937e-06
9.02397e-06
8.9562e-06
2.32304e-05
2.21637e-05
2.11685e-05
2.02399e-05
1.93716e-05
1.85589e-05
1.7798e-05
1.70855e-05
1.64178e-05
1.5792e-05
1.52047e-05
1.46526e-05
1.41325e-05
1.36412e-05
1.31755e-05
1.27326e-05
1.23098e-05
1.19051e-05
1.15172e-05
1.14198e-05
1.13201e-05
1.12194e-05
1.11191e-05
1.10208e-05
1.09255e-05
1.08344e-05
1.0748e-05
1.06666e-05
1.05897e-05
1.05166e-05
1.04461e-05
1.03769e-05
1.03079e-05
1.02374e-05
1.01643e-05
1.0088e-05
1.00083e-05
9.925e-06
9.83896e-06
9.75099e-06
9.66238e-06
9.57416e-06
9.48726e-06
9.40265e-06
9.32088e-06
9.24202e-06
9.16617e-06
9.0933e-06
9.02312e-06
8.95523e-06
2.32282e-05
2.21565e-05
2.11584e-05
2.02286e-05
1.93602e-05
1.85481e-05
1.77885e-05
1.70775e-05
1.64117e-05
1.57877e-05
1.52022e-05
1.46518e-05
1.41334e-05
1.36435e-05
1.3179e-05
1.27372e-05
1.23152e-05
1.19109e-05
1.15232e-05
1.14255e-05
1.13253e-05
1.12242e-05
1.11237e-05
1.10249e-05
1.09292e-05
1.08376e-05
1.07507e-05
1.06686e-05
1.0591e-05
1.05172e-05
1.04463e-05
1.03767e-05
1.03071e-05
1.02363e-05
1.01633e-05
1.0087e-05
1.00073e-05
9.92445e-06
9.8389e-06
9.75135e-06
9.66305e-06
9.57494e-06
9.48804e-06
9.40302e-06
9.32062e-06
9.24122e-06
9.16492e-06
9.09168e-06
9.02149e-06
8.95405e-06
2.32263e-05
2.21498e-05
2.11482e-05
2.02161e-05
1.9346e-05
1.85329e-05
1.77726e-05
1.70614e-05
1.63956e-05
1.57718e-05
1.51868e-05
1.4637e-05
1.41192e-05
1.36299e-05
1.31662e-05
1.27248e-05
1.23033e-05
1.18994e-05
1.15122e-05
1.14151e-05
1.13156e-05
1.12152e-05
1.11153e-05
1.10171e-05
1.09219e-05
1.08306e-05
1.0744e-05
1.06621e-05
1.05846e-05
1.05107e-05
1.04396e-05
1.03703e-05
1.0301e-05
1.02304e-05
1.01577e-05
1.00822e-05
1.00034e-05
9.92139e-06
9.83678e-06
9.75034e-06
9.66312e-06
9.57596e-06
9.48987e-06
9.40563e-06
9.32388e-06
9.24516e-06
9.16983e-06
9.09795e-06
9.02959e-06
8.96464e-06
2.32245e-05
2.21444e-05
2.11414e-05
2.02096e-05
1.93409e-05
1.85298e-05
1.77715e-05
1.70623e-05
1.63983e-05
1.5776e-05
1.51922e-05
1.46434e-05
1.41262e-05
1.36373e-05
1.31736e-05
1.27321e-05
1.23102e-05
1.19059e-05
1.15183e-05
1.14205e-05
1.13205e-05
1.12198e-05
1.11195e-05
1.10212e-05
1.0926e-05
1.08348e-05
1.07481e-05
1.06662e-05
1.05889e-05
1.05155e-05
1.04448e-05
1.03759e-05
1.03078e-05
1.02388e-05
1.01682e-05
1.00951e-05
1.00191e-05
9.9406e-06
9.85965e-06
9.77712e-06
9.69393e-06
9.61101e-06
9.52932e-06
9.44969e-06
9.37296e-06
9.2997e-06
9.23044e-06
9.1655e-06
9.1052e-06
9.04978e-06
2.3223e-05
2.21328e-05
2.11197e-05
2.01799e-05
1.93051e-05
1.84898e-05
1.77293e-05
1.70192e-05
1.63555e-05
1.57346e-05
1.51526e-05
1.46062e-05
1.40918e-05
1.3606e-05
1.31455e-05
1.27073e-05
1.22889e-05
1.18882e-05
1.15043e-05
1.14115e-05
1.13146e-05
1.12182e-05
1.1122e-05
1.10278e-05
1.09396e-05
1.08568e-05
1.07789e-05
1.07057e-05
1.06367e-05
1.05716e-05
1.05103e-05
1.04521e-05
1.03965e-05
1.03425e-05
1.02887e-05
1.02341e-05
1.01779e-05
1.01198e-05
1.00598e-05
9.99844e-06
9.93618e-06
9.87393e-06
9.8126e-06
9.75316e-06
9.69662e-06
9.64371e-06
9.5953e-06
9.55213e-06
9.515e-06
9.485e-06
2.3225e-05
2.21419e-05
2.11425e-05
2.02178e-05
1.93618e-05
1.85697e-05
1.78356e-05
1.71545e-05
1.65221e-05
1.59342e-05
1.5387e-05
1.48769e-05
1.44001e-05
1.3953e-05
1.35318e-05
1.31333e-05
1.27544e-05
1.23927e-05
1.20462e-05
1.17118e-05
1.14226e-05
1.13762e-05
1.13036e-05
1.1222e-05
1.12312e-05
1.12465e-05
1.12576e-05
1.12611e-05
1.12566e-05
1.12476e-05
1.12387e-05
1.12331e-05
1.12313e-05
1.12329e-05
1.12362e-05
1.12389e-05
1.1239e-05
1.12347e-05
1.12253e-05
1.12105e-05
1.11909e-05
1.11672e-05
1.11407e-05
1.11126e-05
1.10847e-05
1.10583e-05
1.10347e-05
1.10157e-05
1.10033e-05
1.10009e-05
2.3824e-05
2.35944e-05
2.33793e-05
2.31762e-05
2.29816e-05
2.27924e-05
2.26081e-05
2.24284e-05
2.22529e-05
2.20816e-05
2.19139e-05
2.17493e-05
2.15869e-05
2.14259e-05
2.12652e-05
2.11042e-05
2.09423e-05
2.07795e-05
2.06159e-05
2.04518e-05
2.0275e-05
2.00918e-05
1.99068e-05
1.97235e-05
1.95042e-05
1.93058e-05
1.91239e-05
1.89548e-05
1.87958e-05
1.86431e-05
1.84934e-05
1.83451e-05
1.8197e-05
1.80486e-05
1.78999e-05
1.77509e-05
1.76026e-05
1.74556e-05
1.73103e-05
1.71676e-05
1.70279e-05
1.6892e-05
1.67604e-05
1.66333e-05
1.65109e-05
1.63931e-05
1.62795e-05
1.61696e-05
1.60624e-05
1.59569e-05
0.000103328
8.09913e-05
0.000134824
0.000172977
0.000187905
0.000184513
0.000169814
0.000147445
0.000118458
8.42668e-05
4.95246e-05
4.09954e-05
4.85887e-05
5.63214e-05
6.67794e-05
7.97147e-05
9.33106e-05
0.000105415
0.000144168
0.000952533
9.97497e-05
8.00856e-05
0.000134505
0.000173702
0.000189514
0.000186504
0.000171736
0.000149147
0.000120096
8.61736e-05
5.18214e-05
4.18594e-05
4.89929e-05
5.763e-05
6.94813e-05
8.35702e-05
9.79432e-05
0.00011102
0.000160719
0.00102748
9.63022e-05
7.9174e-05
0.000134152
0.000174402
0.000191134
0.000188548
0.000173757
0.000150995
0.000121935
8.83526e-05
5.4545e-05
4.29225e-05
4.9662e-05
5.85477e-05
7.07718e-05
8.51885e-05
9.97887e-05
0.000113855
0.000173249
0.00107001
9.29803e-05
7.8251e-05
0.000133759
0.000175071
0.000192761
0.000190648
0.000175881
0.000152991
0.000123973
9.08103e-05
5.78392e-05
4.46613e-05
5.09408e-05
6.00172e-05
7.25e-05
8.7144e-05
0.000101945
0.000117553
0.000188282
0.00111315
8.97778e-05
7.73119e-05
0.000133319
0.000175701
0.000194394
0.000192808
0.000178116
0.000155149
0.000126221
9.35351e-05
6.14625e-05
4.73016e-05
5.2994e-05
6.2136e-05
7.47384e-05
8.9492e-05
0.00010451
0.000122317
0.000205993
0.00115681
8.66872e-05
7.63519e-05
0.000132826
0.00017629
0.00019603
0.000195031
0.000180473
0.000157481
0.000128695
9.65616e-05
6.55498e-05
5.09684e-05
5.59347e-05
6.49596e-05
7.75163e-05
9.22668e-05
0.00010759
0.000128345
0.000226418
0.00120089
8.37018e-05
7.53659e-05
0.000132274
0.000176828
0.000197666
0.00019732
0.00018296
0.000160001
0.000131416
9.99108e-05
7.01162e-05
5.56444e-05
5.97944e-05
6.8499e-05
8.08445e-05
9.5506e-05
0.000111303
0.00013581
0.000249452
0.00124524
8.08151e-05
7.43484e-05
0.000131654
0.000177307
0.000199299
0.000199677
0.000185585
0.000162723
0.000134398
0.000103587
7.51196e-05
6.11783e-05
6.45186e-05
7.2725e-05
8.47202e-05
9.92539e-05
0.000115773
0.000144852
0.000274912
0.00128973
7.80206e-05
7.32935e-05
0.000130955
0.000177718
0.000200921
0.000202105
0.000188358
0.000165659
0.000137649
0.000107582
8.04846e-05
6.73502e-05
6.99868e-05
7.75794e-05
8.91347e-05
0.000103563
0.000121122
0.000155566
0.000302584
0.00133417
7.53113e-05
7.21951e-05
0.000130167
0.000178048
0.000202526
0.000204602
0.000191286
0.000168819
0.000141178
0.000111882
8.61362e-05
7.39414e-05
7.60484e-05
8.29923e-05
9.40798e-05
0.00010849
0.000127464
0.000168004
0.000332219
0.0013784
7.26809e-05
7.10469e-05
0.000129281
0.000178286
0.000204105
0.000207168
0.000194374
0.000172215
0.000144993
0.000116479
9.20163e-05
8.07867e-05
8.2562e-05
8.88977e-05
9.95543e-05
0.000114097
0.000134895
0.000182172
0.000363551
0.00142223
7.01235e-05
6.98429e-05
0.000128285
0.00017842
0.000205652
0.000209803
0.00019763
0.000175854
0.000149102
0.000121372
9.81052e-05
8.77904e-05
8.94176e-05
9.52458e-05
0.000105568
0.000120445
0.000143492
0.000198037
0.000396306
0.0014655
6.7634e-05
6.85783e-05
0.000127171
0.000178439
0.000207155
0.000212503
0.000201055
0.000179743
0.000153508
0.000126561
0.000104399
9.49205e-05
9.65468e-05
0.000102008
0.00011214
0.000127596
0.000153307
0.000215529
0.000430215
0.00150802
6.52078e-05
6.72488e-05
0.000125928
0.000178328
0.000208604
0.000215263
0.00020465
0.000183887
0.000158215
0.00013205
0.000110911
0.000102188
0.000103922
0.000109177
0.0001193
0.0001356
0.000164368
0.000234552
0.00046502
0.0015496
6.28412e-05
6.58505e-05
0.000124545
0.00017807
0.000209982
0.000218071
0.000208413
0.000188288
0.000163228
0.000137841
0.000117653
0.000109622
0.000111548
0.000116765
0.00012708
0.0001445
0.000176679
0.000254994
0.000500483
0.00159006
6.05305e-05
6.43788e-05
0.000123011
0.000177648
0.000211268
0.000220914
0.000212339
0.000192945
0.000168551
0.000143943
0.000124644
0.000117251
0.000119447
0.000124795
0.000135514
0.000154329
0.000190227
0.000276727
0.00053638
0.0016292
5.82724e-05
6.28296e-05
0.000121312
0.00017704
0.000212443
0.000223776
0.000216418
0.00019786
0.000174186
0.000150364
0.000131905
0.000125113
0.000127654
0.000133298
0.000144635
0.000165107
0.000204978
0.00029962
0.000572507
0.00166683
5.60639e-05
6.11986e-05
0.000119435
0.000176223
0.000213479
0.000226637
0.000220643
0.000203031
0.000180141
0.000157117
0.000139461
0.00013325
0.000136212
0.000142309
0.000154472
0.000176842
0.000220885
0.000323538
0.000608672
0.00170273
5.39026e-05
5.94825e-05
0.000117367
0.000175173
0.000214351
0.000229478
0.000225003
0.00020846
0.000186427
0.000164225
0.000147352
0.000141712
0.000145167
0.000151864
0.000165049
0.000189533
0.000237893
0.000348348
0.000644703
0.00173671
5.17866e-05
5.76786e-05
0.000115094
0.000173866
0.000215028
0.00023227
0.000229484
0.000214147
0.000193054
0.000171712
0.000155621
0.000150554
0.000154568
0.000161996
0.000176383
0.00020317
0.000255935
0.000373918
0.000680438
0.00176858
4.97144e-05
5.57853e-05
0.000112605
0.000172273
0.000215475
0.000234985
0.000234065
0.000220084
0.000200031
0.000179602
0.000164313
0.000159826
0.000164458
0.000172738
0.000188489
0.000217736
0.000274945
0.000400125
0.000715731
0.00179813
4.76856e-05
5.38021e-05
0.000109885
0.000170366
0.000215652
0.000237584
0.000238721
0.00022626
0.000207359
0.000187911
0.000173461
0.000169573
0.000174874
0.000184115
0.000201373
0.000233205
0.000294849
0.00042685
0.000750447
0.00182517
4.56999e-05
5.17293e-05
0.000106924
0.00016811
0.000215512
0.000240019
0.000243415
0.000232654
0.00021503
0.00019664
0.000183079
0.000179823
0.000185845
0.000196145
0.000215034
0.000249546
0.000315573
0.000453976
0.000784453
0.00184952
4.37576e-05
4.95688e-05
0.000103708
0.000165471
0.000215001
0.000242234
0.000248101
0.000239237
0.000223031
0.000205785
0.000193168
0.000190585
0.000197387
0.000208838
0.000229465
0.000266724
0.000337039
0.000481388
0.000817621
0.00187097
4.18589e-05
4.73238e-05
0.000100229
0.000162411
0.000214062
0.000244163
0.000252723
0.000245969
0.000231339
0.000215334
0.00020372
0.000201859
0.000209509
0.000222198
0.000244652
0.000284692
0.000359165
0.000508974
0.00084982
0.00188936
4.00049e-05
4.5e-05
9.64781e-05
0.000158897
0.000212631
0.000245735
0.000257216
0.000252806
0.000239929
0.000225273
0.000214724
0.000213642
0.000222214
0.000236221
0.000260572
0.000303403