/*--------------------------------*- C++ -*----------------------------------*\
  =========                 |
  \\      /  F ield         | OpenFOAM: The Open Source CFD Toolbox
   \\    /   O peration     | Website:  https://openfoam.org
    \\  /    A nd           | Version:  8
     \\/     M anipulation  |
\*---------------------------------------------------------------------------*/
FoamFile
{
    version     2.0;
    format      ascii;
    class       volScalarField;
    location    "100";
    object      nut;
}
// * * * * * * * * * * * * * * * * * * * * * * * * * * * * * * * * * * * * * //

dimensions      [0 2 -1 0 0 0 0];

internalField   nonuniform List<scalar> 
8400
(
5.18683e-05
5.18557e-05
5.19049e-05
5.20064e-05
5.21483e-05
5.23281e-05
5.25401e-05
5.27743e-05
5.26926e-05
5.2061e-05
5.09934e-05
4.95563e-05
4.77168e-05
4.54511e-05
4.28864e-05
4.03814e-05
3.84974e-05
3.75102e-05
3.73401e-05
3.74818e-05
3.78842e-05
3.83411e-05
3.8477e-05
3.83955e-05
3.85636e-05
3.91103e-05
3.96501e-05
3.98889e-05
3.97121e-05
3.95368e-05
3.93479e-05
3.91453e-05
3.89337e-05
3.87114e-05
3.84784e-05
3.82376e-05
3.79842e-05
3.77205e-05
3.74535e-05
3.71861e-05
3.69163e-05
3.66425e-05
3.63641e-05
3.6081e-05
3.57962e-05
3.55102e-05
3.52207e-05
3.49283e-05
3.4635e-05
3.43408e-05
5.2137e-05
5.34549e-05
5.46158e-05
5.58583e-05
5.72499e-05
5.87581e-05
6.02446e-05
6.07526e-05
5.98547e-05
5.87845e-05
5.79525e-05
5.70939e-05
5.57908e-05
5.36943e-05
5.04613e-05
4.57709e-05
3.94894e-05
3.29606e-05
3.13695e-05
2.99095e-05
2.83582e-05
2.69706e-05
2.72967e-05
2.74455e-05
2.71284e-05
2.74396e-05
2.82618e-05
2.87124e-05
2.90029e-05
2.89063e-05
2.85685e-05
2.80763e-05
2.74807e-05
2.6833e-05
2.61628e-05
2.54948e-05
2.48457e-05
2.42193e-05
2.36173e-05
2.30411e-05
2.24972e-05
2.19912e-05
2.1525e-05
2.10987e-05
2.07118e-05
2.03673e-05
2.00712e-05
1.98267e-05
1.96357e-05
1.95035e-05
5.1871e-05
5.39035e-05
5.61614e-05
5.94199e-05
6.25373e-05
6.52844e-05
6.68139e-05
6.22126e-05
6.08233e-05
6.03396e-05
6.00402e-05
5.97389e-05
5.94035e-05
5.90854e-05
5.88585e-05
6.01857e-05
5.87762e-05
3.36154e-05
3.48305e-05
3.53251e-05
3.42263e-05
2.71807e-05
2.76355e-05
3.01538e-05
2.81563e-05
2.33519e-05
2.38316e-05
2.41464e-05
2.43263e-05
2.419e-05
2.3859e-05
2.34318e-05
2.29771e-05
2.25361e-05
2.21329e-05
2.17812e-05
2.14888e-05
2.12563e-05
2.10775e-05
2.09464e-05
2.08586e-05
2.08074e-05
2.07882e-05
2.07967e-05
2.08269e-05
2.0874e-05
2.0934e-05
2.10022e-05
2.10743e-05
2.11461e-05
6.12091e-05
6.09952e-05
6.10618e-05
6.11631e-05
6.12322e-05
6.13119e-05
6.13532e-05
6.13459e-05
6.12801e-05
6.11509e-05
6.09523e-05
6.06814e-05
6.03384e-05
5.99255e-05
5.94229e-05
5.90356e-05
5.86388e-05
5.78285e-05
5.75536e-05
5.72659e-05
6.26659e-05
2.88672e-05
3.17634e-05
4.44665e-05
5.63113e-05
2.23444e-05
2.22095e-05
2.24842e-05
2.25563e-05
2.24618e-05
2.22947e-05
2.21251e-05
2.199e-05
2.191e-05
2.1889e-05
2.19221e-05
2.19991e-05
2.21119e-05
2.22539e-05
2.24144e-05
2.2585e-05
2.27611e-05
2.29391e-05
2.31155e-05
2.32866e-05
2.34496e-05
2.36022e-05
2.37429e-05
2.38704e-05
2.39821e-05
6.14265e-05
6.13428e-05
6.12689e-05
6.12096e-05
6.11678e-05
6.11348e-05
6.10916e-05
6.10305e-05
6.09519e-05
6.08522e-05
6.0729e-05
6.05817e-05
6.04136e-05
6.02274e-05
6.00259e-05
5.96453e-05
5.92094e-05
5.86815e-05
5.80843e-05
5.73787e-05
5.63485e-05
5.46697e-05
5.62776e-05
6.33249e-05
0.000132918
2.3375e-05
2.21432e-05
2.20773e-05
2.21652e-05
2.22083e-05
2.22679e-05
2.2374e-05
2.25354e-05
2.27528e-05
2.30127e-05
2.33014e-05
2.3608e-05
2.39229e-05
2.4238e-05
2.45459e-05
2.48451e-05
2.51332e-05
2.54057e-05
2.56632e-05
2.59051e-05
2.61284e-05
2.63323e-05
2.65168e-05
2.66807e-05
2.68215e-05
6.14258e-05
6.1342e-05
6.12571e-05
6.1171e-05
6.10852e-05
6.10027e-05
6.09227e-05
6.08411e-05
6.07543e-05
6.06574e-05
6.05484e-05
6.04295e-05
6.02923e-05
6.01342e-05
5.99524e-05
5.97347e-05
5.94748e-05
5.91657e-05
5.88108e-05
5.84243e-05
5.7995e-05
5.75033e-05
5.76797e-05
5.96282e-05
6.33346e-05
5.58721e-05
8.13036e-05
2.22205e-05
2.22221e-05
2.24851e-05
2.27897e-05
2.31445e-05
2.35414e-05
2.39723e-05
2.44174e-05
2.48624e-05
2.53043e-05
2.57341e-05
2.6145e-05
2.65345e-05
2.69035e-05
2.72518e-05
2.75769e-05
2.78789e-05
2.81573e-05
2.84121e-05
2.86452e-05
2.88554e-05
2.90401e-05
2.91988e-05
6.14162e-05
6.13206e-05
6.12221e-05
6.11211e-05
6.10172e-05
6.09101e-05
6.08023e-05
6.06937e-05
6.05844e-05
6.04721e-05
6.03561e-05
6.02355e-05
6.01098e-05
5.99761e-05
5.98307e-05
5.96687e-05
5.94794e-05
5.92559e-05
5.90026e-05
5.87188e-05
5.84047e-05
5.80755e-05
5.79764e-05
5.8465e-05
5.89781e-05
5.7353e-05
6.28608e-05
4.73805e-05
2.2322e-05
2.28342e-05
2.33846e-05
2.39581e-05
2.45415e-05
2.512e-05
2.56844e-05
2.62275e-05
2.67455e-05
2.72321e-05
2.76888e-05
2.81157e-05
2.85092e-05
2.88724e-05
2.92081e-05
2.95156e-05
2.97944e-05
3.00465e-05
3.02744e-05
3.04771e-05
3.06528e-05
3.08049e-05
6.14008e-05
6.12882e-05
6.11716e-05
6.10516e-05
6.09267e-05
6.0799e-05
6.0668e-05
6.05348e-05
6.0403e-05
6.02718e-05
6.01434e-05
6.00173e-05
5.98913e-05
5.97667e-05
5.96373e-05
5.9498e-05
5.93459e-05
5.91682e-05
5.8961e-05
5.87268e-05
5.84615e-05
5.81753e-05
5.79794e-05
5.79816e-05
5.78402e-05
5.72254e-05
5.88957e-05
5.17139e-05
2.72733e-05
2.30918e-05
2.3874e-05
2.46295e-05
2.53507e-05
2.60306e-05
2.66724e-05
2.72691e-05
2.78173e-05
2.832e-05
2.87813e-05
2.92005e-05
2.95738e-05
2.99087e-05
3.02077e-05
3.04666e-05
3.06894e-05
3.08806e-05
3.10398e-05
3.11681e-05
3.12685e-05
3.13474e-05
6.138e-05
6.12401e-05
6.10964e-05
6.09482e-05
6.07963e-05
6.06395e-05
6.04786e-05
6.03194e-05
6.01623e-05
6.00117e-05
5.98692e-05
5.97344e-05
5.96105e-05
5.94952e-05
5.938e-05
5.92617e-05
5.91309e-05
5.89816e-05
5.88059e-05
5.85974e-05
5.83589e-05
5.80965e-05
5.78562e-05
5.76676e-05
5.733e-05
5.68692e-05
5.70119e-05
5.13997e-05
3.19343e-05
2.36568e-05
2.41995e-05
2.50956e-05
2.5917e-05
2.66642e-05
2.73473e-05
2.79636e-05
2.85141e-05
2.90057e-05
2.94411e-05
2.98219e-05
3.01447e-05
3.04138e-05
3.06312e-05
3.07936e-05
3.09067e-05
3.09711e-05
3.09836e-05
3.09504e-05
3.088e-05
3.07827e-05
6.13445e-05
6.1157e-05
6.09682e-05
6.07817e-05
6.05883e-05
6.03951e-05
6.01955e-05
6.0001e-05
5.9816e-05
5.9645e-05
5.94941e-05
5.9365e-05
5.92494e-05
5.91487e-05
5.90559e-05
5.89596e-05
5.88551e-05
5.87287e-05
5.85767e-05
5.83938e-05
5.81702e-05
5.79182e-05
5.76616e-05
5.73855e-05
5.69589e-05
5.64304e-05
5.56554e-05
5.01192e-05
3.45282e-05
2.49354e-05
2.43464e-05
2.53529e-05
2.62377e-05
2.70202e-05
2.77165e-05
2.83314e-05
2.88689e-05
2.93383e-05
2.97376e-05
3.0073e-05
3.03422e-05
3.05443e-05
3.06822e-05
3.07488e-05
3.07474e-05
3.06745e-05
3.0521e-05
3.0293e-05
2.99993e-05
2.96492e-05
6.12815e-05
6.10035e-05
6.0742e-05
6.04873e-05
6.02319e-05
5.99784e-05
5.97318e-05
5.95033e-05
5.92925e-05
5.91149e-05
5.89733e-05
5.88679e-05
5.87892e-05
5.87271e-05
5.86687e-05
5.86076e-05
5.85278e-05
5.84231e-05
5.82908e-05
5.81237e-05
5.79166e-05
5.76735e-05
5.74021e-05
5.70735e-05
5.65858e-05
5.58969e-05
5.43808e-05
4.85508e-05
3.56247e-05
2.63485e-05
2.47041e-05
2.5426e-05
2.63103e-05
2.71006e-05
2.7791e-05
2.84003e-05
2.89219e-05
2.93749e-05
2.97379e-05
3.00328e-05
3.02724e-05
3.04343e-05
3.05225e-05
3.0537e-05
3.04769e-05
3.03357e-05
3.00974e-05
2.97791e-05
2.93918e-05
2.89368e-05
6.11083e-05
6.05754e-05
6.02077e-05
5.9872e-05
5.95449e-05
5.92286e-05
5.89418e-05
5.87011e-05
5.85137e-05
5.83849e-05
5.83134e-05
5.82832e-05
5.82622e-05
5.82563e-05
5.82428e-05
5.82093e-05
5.81642e-05
5.80772e-05
5.79549e-05
5.77985e-05
5.76025e-05
5.73637e-05
5.708e-05
5.67087e-05
5.61413e-05
5.52167e-05
5.30096e-05
4.68352e-05
3.58561e-05
2.75942e-05
2.52881e-05
2.55408e-05
2.62804e-05
2.70194e-05
2.76755e-05
2.82572e-05
2.87578e-05
2.91908e-05
2.95401e-05
2.98175e-05
3.00429e-05
3.02028e-05
3.02906e-05
3.03094e-05
3.02588e-05
3.01337e-05
2.99224e-05
2.96329e-05
2.92692e-05
2.88244e-05
6.03403e-05
5.97611e-05
5.93254e-05
5.89309e-05
5.8588e-05
5.83064e-05
5.80933e-05
5.79489e-05
5.78638e-05
5.78145e-05
5.78065e-05
5.78184e-05
5.78259e-05
5.78355e-05
5.78321e-05
5.7805e-05
5.77628e-05
5.76809e-05
5.75583e-05
5.74077e-05
5.72132e-05
5.69636e-05
5.6664e-05
5.63428e-05
5.55755e-05
5.43315e-05
5.14394e-05
4.50158e-05
3.56373e-05
2.86058e-05
2.60099e-05
2.57779e-05
2.62669e-05
2.68903e-05
2.74831e-05
2.80197e-05
2.8488e-05
2.88924e-05
2.92324e-05
2.9512e-05
2.97378e-05
2.99074e-05
3.0019e-05
3.00741e-05
3.00704e-05
3.00038e-05
2.98691e-05
2.96671e-05
2.93999e-05
2.90686e-05
5.92517e-05
5.87385e-05
5.8346e-05
5.80349e-05
5.77994e-05
5.76349e-05
5.75249e-05
5.74587e-05
5.74274e-05
5.74128e-05
5.7415e-05
5.74256e-05
5.74278e-05
5.74222e-05
5.74021e-05
5.73631e-05
5.73032e-05
5.72138e-05
5.70876e-05
5.69226e-05
5.67105e-05
5.64348e-05
5.60731e-05
5.55963e-05
5.47725e-05
5.35129e-05
4.96219e-05
4.31488e-05
3.52248e-05
2.94161e-05
2.68124e-05
2.61732e-05
2.63441e-05
2.67769e-05
2.72588e-05
2.77243e-05
2.81484e-05
2.85221e-05
2.88472e-05
2.91265e-05
2.93597e-05
2.95474e-05
2.96918e-05
2.97939e-05
2.98506e-05
2.9858e-05
2.98158e-05
2.97248e-05
2.95871e-05
2.94058e-05
5.81297e-05
5.779e-05
5.75389e-05
5.73558e-05
5.72283e-05
5.71428e-05
5.70877e-05
5.70546e-05
5.70358e-05
5.70221e-05
5.70093e-05
5.69955e-05
5.69759e-05
5.69467e-05
5.69031e-05
5.68391e-05
5.67547e-05
5.66418e-05
5.64939e-05
5.62997e-05
5.6048e-05
5.57087e-05
5.52279e-05
5.45471e-05
5.35269e-05
5.23241e-05
4.78529e-05
4.13383e-05
3.479e-05
3.00963e-05
2.76651e-05
2.67466e-05
2.65959e-05
2.67812e-05
2.70928e-05
2.7441e-05
2.77847e-05
2.81043e-05
2.83951e-05
2.86568e-05
2.88876e-05
2.9087e-05
2.92568e-05
2.9397e-05
2.95054e-05
2.95798e-05
2.96214e-05
2.96315e-05
2.96107e-05
2.95612e-05
5.72321e-05
5.70535e-05
5.69206e-05
5.68209e-05
5.67482e-05
5.66912e-05
5.66461e-05
5.66078e-05
5.65733e-05
5.65372e-05
5.64979e-05
5.64543e-05
5.64026e-05
5.63386e-05
5.62623e-05
5.61656e-05
5.60458e-05
5.58946e-05
5.57019e-05
5.54534e-05
5.51267e-05
5.46775e-05
5.40447e-05
5.31594e-05
5.18764e-05
5.03377e-05
4.64801e-05
3.96845e-05
3.44395e-05
3.0739e-05
2.8595e-05
2.75414e-05
2.71241e-05
2.70482e-05
2.7146e-05
2.73261e-05
2.75405e-05
2.77639e-05
2.79832e-05
2.81921e-05
2.83878e-05
2.85688e-05
2.8734e-05
2.88822e-05
2.90123e-05
2.91236e-05
2.92164e-05
2.92911e-05
2.93469e-05
2.93842e-05
5.64874e-05
5.63898e-05
5.63046e-05
5.62297e-05
5.61595e-05
5.60939e-05
5.60304e-05
5.59659e-05
5.59009e-05
5.58317e-05
5.57576e-05
5.56763e-05
5.55846e-05
5.54807e-05
5.53614e-05
5.52212e-05
5.50503e-05
5.48375e-05
5.45741e-05
5.42397e-05
5.38013e-05
5.32147e-05
5.24229e-05
5.13558e-05
4.989e-05
4.8125e-05
4.50054e-05
3.82397e-05
3.42386e-05
3.14349e-05
2.96614e-05
2.8622e-05
2.8053e-05
2.77758e-05
2.76745e-05
2.76724e-05
2.77261e-05
2.78128e-05
2.79169e-05
2.80276e-05
2.81399e-05
2.82517e-05
2.83608e-05
2.84649e-05
2.85635e-05
2.86563e-05
2.87429e-05
2.88221e-05
2.88928e-05
2.89546e-05
5.55129e-05
5.54292e-05
5.53423e-05
5.52555e-05
5.51674e-05
5.50757e-05
5.49811e-05
5.48843e-05
5.47835e-05
5.46756e-05
5.45614e-05
5.44392e-05
5.43027e-05
5.41499e-05
5.3976e-05
5.37745e-05
5.35354e-05
5.3245e-05
5.28873e-05
5.24411e-05
5.18792e-05
5.1164e-05
5.02474e-05
4.90725e-05
4.75732e-05
4.57491e-05
4.34943e-05
3.70741e-05
3.4224e-05
3.22526e-05
3.09268e-05
3.00604e-05
2.9507e-05
2.91622e-05
2.89526e-05
2.88278e-05
2.87563e-05
2.87187e-05
2.87007e-05
2.86925e-05
2.86893e-05
2.86892e-05
2.86908e-05
2.86921e-05
2.86935e-05
2.86958e-05
2.86987e-05
2.87012e-05
2.87033e-05
2.87058e-05
5.36429e-05
5.35571e-05
5.34634e-05
5.33641e-05
5.32593e-05
5.31496e-05
5.30344e-05
5.29114e-05
5.27805e-05
5.264e-05
5.24876e-05
5.23202e-05
5.21351e-05
5.1928e-05
5.16922e-05
5.14206e-05
5.11039e-05
5.0731e-05
5.02875e-05
4.97524e-05
4.91062e-05
4.83237e-05
4.73755e-05
4.62296e-05
4.48657e-05
4.31295e-05
4.18851e-05
3.62372e-05
3.44224e-05
3.3234e-05
3.2429e-05
3.18875e-05
3.15285e-05
3.12892e-05
3.11259e-05
3.10098e-05
3.09208e-05
3.08441e-05
3.07686e-05
3.06874e-05
3.05974e-05
3.04971e-05
3.03861e-05
3.02649e-05
3.0136e-05
3.00022e-05
2.98656e-05
2.97282e-05
2.95934e-05
2.94647e-05
5.89002e-05
5.852e-05
5.81367e-05
5.7737e-05
5.73181e-05
5.6877e-05
5.64126e-05
5.59256e-05
5.54164e-05
5.48833e-05
5.43274e-05
5.37485e-05
5.31463e-05
5.25189e-05
5.18655e-05
5.11849e-05
5.04727e-05
4.97223e-05
4.89237e-05
4.80623e-05
4.71256e-05
4.61029e-05
4.49919e-05
4.38012e-05
4.25477e-05
4.09579e-05
4.02294e-05
3.56468e-05
3.50625e-05
3.493e-05
3.50294e-05
3.52727e-05
3.5606e-05
3.59901e-05
3.63981e-05
3.68113e-05
3.72143e-05
3.75954e-05
3.79473e-05
3.82669e-05
3.85535e-05
3.88084e-05
3.90357e-05
3.92422e-05
3.94362e-05
3.96271e-05
3.98247e-05
4.00383e-05
4.02755e-05
4.05378e-05
5.48254e-06
5.46135e-06
5.42822e-06
5.41499e-06
5.413e-06
5.40576e-06
5.38765e-06
5.36144e-06
5.33276e-06
5.30481e-06
5.27845e-06
5.2537e-06
5.2305e-06
5.20878e-06
5.18832e-06
5.16872e-06
5.14952e-06
5.13025e-06
5.11046e-06
5.08969e-06
5.0458e-06
5.01243e-06
4.99355e-06
4.96939e-06
4.94336e-06
4.91782e-06
4.8942e-06
4.87325e-06
4.85593e-06
4.84183e-06
4.83006e-06
4.81958e-06
4.80932e-06
4.79838e-06
4.78599e-06
4.77143e-06
4.75423e-06
4.73427e-06
4.71189e-06
4.68779e-06
4.66278e-06
4.63778e-06
4.61393e-06
4.59214e-06
4.57285e-06
4.55685e-06
4.54358e-06
4.53506e-06
4.5372e-06
4.54691e-06
5.43133e-06
5.36842e-06
5.26278e-06
5.13137e-06
5.00124e-06
4.88302e-06
4.77574e-06
4.67677e-06
4.58369e-06
4.49601e-06
4.41389e-06
4.33722e-06
4.26545e-06
4.1978e-06
4.13345e-06
4.07159e-06
4.01148e-06
3.95253e-06
3.8945e-06
3.83546e-06
3.74501e-06
3.68428e-06
1.57355e-05
1.58239e-05
1.58662e-05
1.58859e-05
1.58944e-05
1.58972e-05
1.58923e-05
1.58826e-05
1.58727e-05
1.58653e-05
1.58598e-05
1.58528e-05
1.58392e-05
1.58145e-05
1.57757e-05
1.57217e-05
1.56535e-05
1.55747e-05
1.54908e-05
1.54069e-05
1.53278e-05
1.52573e-05
1.51988e-05
1.51478e-05
1.50991e-05
1.50451e-05
1.49895e-05
1.49834e-05
5.40864e-06
5.31325e-06
5.2172e-06
5.10901e-06
4.99418e-06
4.87996e-06
4.7704e-06
4.66628e-06
4.56726e-06
4.47315e-06
4.38394e-06
4.29955e-06
4.2196e-06
4.14351e-06
4.07063e-06
4.00031e-06
3.93192e-06
3.86492e-06
3.79901e-06
1.59304e-05
1.57868e-05
1.56346e-05
1.5488e-05
1.53494e-05
1.52204e-05
1.51024e-05
1.49963e-05
1.49023e-05
1.48196e-05
1.47462e-05
1.46798e-05
1.46174e-05
1.45556e-05
1.44906e-05
1.44189e-05
1.43378e-05
1.42464e-05
1.4145e-05
1.40352e-05
1.39197e-05
1.38023e-05
1.36874e-05
1.3579e-05
1.34796e-05
1.33912e-05
1.33157e-05
1.32502e-05
1.31802e-05
1.30811e-05
1.29367e-05
5.41718e-06
5.30782e-06
5.20333e-06
5.09767e-06
4.9897e-06
4.88101e-06
4.77422e-06
4.6711e-06
4.57244e-06
4.47851e-06
4.38938e-06
4.30489e-06
4.22471e-06
4.1483e-06
4.07508e-06
4.00439e-06
3.93556e-06
3.86803e-06
3.80151e-06
1.59456e-05
1.57978e-05
1.56451e-05
1.54916e-05
1.53416e-05
1.51986e-05
1.50654e-05
1.49436e-05
1.48342e-05
1.47365e-05
1.46487e-05
1.45677e-05
1.44898e-05
1.44111e-05
1.43277e-05
1.42359e-05
1.41336e-05
1.40199e-05
1.38957e-05
1.37631e-05
1.36255e-05
1.34871e-05
1.33524e-05
1.32247e-05
1.31062e-05
1.29983e-05
1.2904e-05
1.2829e-05
1.27751e-05
1.27251e-05
1.2617e-05
5.42279e-06
5.31265e-06
5.20134e-06
5.09106e-06
4.98204e-06
4.87415e-06
4.76837e-06
4.66597e-06
4.56786e-06
4.47453e-06
4.38603e-06
4.30221e-06
4.22268e-06
4.14694e-06
4.07439e-06
4.00433e-06
3.93609e-06
3.86905e-06
3.80291e-06
1.59485e-05
1.58016e-05
1.56497e-05
1.54967e-05
1.53467e-05
1.52033e-05
1.50693e-05
1.49467e-05
1.48361e-05
1.47368e-05
1.46471e-05
1.45641e-05
1.4484e-05
1.44028e-05
1.43163e-05
1.42214e-05
1.41158e-05
1.39985e-05
1.38704e-05
1.37337e-05
1.35921e-05
1.34498e-05
1.33117e-05
1.31812e-05
1.30601e-05
1.29476e-05
1.28412e-05
1.27414e-05
1.2659e-05
1.26039e-05
1.253e-05
5.42197e-06
5.31384e-06
5.20108e-06
5.088e-06
4.97706e-06
4.8687e-06
4.76336e-06
4.66174e-06
4.56454e-06
4.47216e-06
4.38465e-06
4.30183e-06
4.22329e-06
4.14849e-06
4.07681e-06
4.00753e-06
3.93993e-06
3.87341e-06
3.80765e-06
1.59772e-05
1.58296e-05
1.56768e-05
1.5523e-05
1.53721e-05
1.52275e-05
1.50923e-05
1.49684e-05
1.48565e-05
1.47559e-05
1.46647e-05
1.45801e-05
1.44988e-05
1.44162e-05
1.43285e-05
1.42323e-05
1.41256e-05
1.40074e-05
1.38784e-05
1.37409e-05
1.35987e-05
1.34556e-05
1.33158e-05
1.3184e-05
1.30636e-05
1.29556e-05
1.28568e-05
1.27594e-05
1.2663e-05
1.2586e-05
1.25117e-05
5.4193e-06
5.31044e-06
5.19778e-06
5.08404e-06
4.9721e-06
4.8631e-06
4.75768e-06
4.65639e-06
4.55973e-06
4.468e-06
4.38122e-06
4.29919e-06
4.22149e-06
4.14756e-06
4.07673e-06
4.00825e-06
3.94135e-06
3.87542e-06
3.81011e-06
1.59861e-05
1.58395e-05
1.56875e-05
1.55342e-05
1.53834e-05
1.52388e-05
1.51032e-05
1.49787e-05
1.48662e-05
1.47649e-05
1.46729e-05
1.45877e-05
1.45057e-05
1.44228e-05
1.43349e-05
1.42386e-05
1.41318e-05
1.4014e-05
1.38855e-05
1.37486e-05
1.36071e-05
1.3465e-05
1.33258e-05
1.31921e-05
1.30677e-05
1.29562e-05
1.28584e-05
1.27684e-05
1.26764e-05
1.25912e-05
1.2511e-05
5.41758e-06
5.3057e-06
5.19223e-06
5.07843e-06
4.96641e-06
4.85738e-06
4.75215e-06
4.65134e-06
4.55535e-06
4.46442e-06
4.37851e-06
4.2974e-06
4.22068e-06
4.14774e-06
4.07786e-06
4.01023e-06
3.94408e-06
3.87879e-06
3.81399e-06
1.60053e-05
1.58591e-05
1.57072e-05
1.55534e-05
1.54017e-05
1.52557e-05
1.51184e-05
1.4992e-05
1.48774e-05
1.47741e-05
1.46807e-05
1.45944e-05
1.45116e-05
1.44283e-05
1.43405e-05
1.42446e-05
1.41386e-05
1.40218e-05
1.38948e-05
1.37596e-05
1.36195e-05
1.34785e-05
1.33407e-05
1.32089e-05
1.30838e-05
1.29683e-05
1.28651e-05
1.27739e-05
1.26855e-05
1.25997e-05
1.25168e-05
5.41676e-06
5.30139e-06
5.18613e-06
5.07183e-06
4.95983e-06
4.85101e-06
4.74617e-06
4.64591e-06
4.55063e-06
4.4605e-06
4.37544e-06
4.29524e-06
4.21945e-06
4.14745e-06
4.07846e-06
4.01163e-06
3.94621e-06
3.88156e-06
3.81729e-06
1.6019e-05
1.58739e-05
1.57228e-05
1.55688e-05
1.54158e-05
1.52674e-05
1.5127e-05
1.49972e-05
1.48792e-05
1.4773e-05
1.46775e-05
1.45901e-05
1.45069e-05
1.44241e-05
1.43376e-05
1.42441e-05
1.41409e-05
1.40271e-05
1.39032e-05
1.37711e-05
1.36338e-05
1.34949e-05
1.3358e-05
1.32272e-05
1.31038e-05
1.29877e-05
1.28807e-05
1.2785e-05
1.26955e-05
1.2609e-05
1.25243e-05
5.416e-06
5.29754e-06
5.18027e-06
5.06512e-06
4.95293e-06
4.84434e-06
4.73997e-06
4.64038e-06
4.54588e-06
4.45661e-06
4.37249e-06
4.29326e-06
4.21847e-06
4.14744e-06
4.07934e-06
4.01334e-06
3.94869e-06
3.88473e-06
3.82104e-06
1.60352e-05
1.58902e-05
1.57387e-05
1.55846e-05
1.54318e-05
1.52845e-05
1.51459e-05
1.50182e-05
1.49023e-05
1.47983e-05
1.47046e-05
1.46184e-05
1.45361e-05
1.44535e-05
1.43669e-05
1.42733e-05
1.41702e-05
1.40564e-05
1.39327e-05
1.38006e-05
1.36628e-05
1.35229e-05
1.33845e-05
1.32511e-05
1.31259e-05
1.30089e-05
1.2899e-05
1.27986e-05
1.27056e-05
1.26168e-05
1.25304e-05
5.41495e-06
5.29376e-06
5.17469e-06
5.05863e-06
4.94614e-06
4.83769e-06
4.73379e-06
4.63484e-06
4.54112e-06
4.45271e-06
4.36952e-06
4.29127e-06
4.21745e-06
4.14735e-06
4.08012e-06
4.01495e-06
3.95107e-06
3.88782e-06
3.82471e-06
1.60508e-05
1.5906e-05
1.57546e-05
1.56004e-05
1.54475e-05
1.52999e-05
1.5161e-05
1.5033e-05
1.4917e-05
1.48127e-05
1.47186e-05
1.4632e-05
1.45492e-05
1.44664e-05
1.43798e-05
1.42864e-05
1.41839e-05
1.40711e-05
1.39483e-05
1.38175e-05
1.36812e-05
1.35421e-05
1.34041e-05
1.32698e-05
1.31424e-05
1.30237e-05
1.29124e-05
1.28091e-05
1.27131e-05
1.2622e-05
1.2534e-05
5.41376e-06
5.28993e-06
5.16926e-06
5.05239e-06
4.93959e-06
4.83126e-06
4.72777e-06
4.62943e-06
4.53644e-06
4.44885e-06
4.36657e-06
4.28927e-06
4.21638e-06
4.14715e-06
4.08079e-06
4.01645e-06
3.95335e-06
3.89076e-06
3.82816e-06
1.60646e-05
1.59201e-05
1.57688e-05
1.56145e-05
1.54614e-05
1.53134e-05
1.51736e-05
1.50447e-05
1.49277e-05
1.48223e-05
1.47272e-05
1.46395e-05
1.45558e-05
1.44725e-05
1.43863e-05
1.42939e-05
1.41924e-05
1.40815e-05
1.39607e-05
1.38312e-05
1.36965e-05
1.35588e-05
1.34216e-05
1.32874e-05
1.31593e-05
1.30384e-05
1.29254e-05
1.28197e-05
1.27207e-05
1.26273e-05
1.2538e-05
5.41261e-06
5.28622e-06
5.16402e-06
5.04642e-06
4.93336e-06
4.82513e-06
4.72201e-06
4.62425e-06
4.53197e-06
4.44523e-06
4.36386e-06
4.2875e-06
4.21552e-06
4.14719e-06
4.0817e-06
4.01819e-06
3.95584e-06
3.89389e-06
3.83172e-06
1.60797e-05
1.59353e-05
1.5784e-05
1.56295e-05
1.5476e-05
1.53274e-05
1.51868e-05
1.50568e-05
1.49386e-05
1.4832e-05
1.47355e-05
1.46469e-05
1.45628e-05
1.44796e-05
1.43934e-05
1.43019e-05
1.42024e-05
1.4093e-05
1.39747e-05
1.3848e-05
1.37152e-05
1.35793e-05
1.34432e-05
1.33092e-05
1.31803e-05
1.30576e-05
1.2942e-05
1.28338e-05
1.27319e-05
1.26356e-05
1.25444e-05
5.41157e-06
5.28274e-06
5.15906e-06
5.04074e-06
4.92745e-06
4.81929e-06
4.71649e-06
4.61923e-06
4.5276e-06
4.44161e-06
4.36105e-06
4.28548e-06
4.2143e-06
4.14675e-06
4.08201e-06
4.0192e-06
3.95746e-06
3.89597e-06
3.83412e-06
1.60866e-05
1.59426e-05
1.57918e-05
1.56377e-05
1.54844e-05
1.53356e-05
1.51946e-05
1.50639e-05
1.49448e-05
1.48372e-05
1.47398e-05
1.46499e-05
1.45649e-05
1.44815e-05
1.4396e-05
1.43048e-05
1.42062e-05
1.40989e-05
1.39821e-05
1.38574e-05
1.37261e-05
1.35913e-05
1.34559e-05
1.3322e-05
1.31921e-05
1.30678e-05
1.29498e-05
1.28386e-05
1.27343e-05
1.26363e-05
1.25439e-05
5.41062e-06
5.27954e-06
5.15449e-06
5.03552e-06
4.92206e-06
4.81408e-06
4.71169e-06
4.61503e-06
4.52414e-06
4.43897e-06
4.35926e-06
4.28454e-06
4.21417e-06
4.1474e-06
4.08337e-06
4.02118e-06
3.95994e-06
3.89882e-06
3.83724e-06
1.61007e-05
1.59564e-05
1.58054e-05
1.56511e-05
1.54973e-05
1.53478e-05
1.5206e-05
1.50744e-05
1.49539e-05
1.48446e-05
1.47457e-05
1.46549e-05
1.45689e-05
1.44843e-05
1.43982e-05
1.43074e-05
1.4209e-05
1.41021e-05
1.39866e-05
1.38634e-05
1.37336e-05
1.35998e-05
1.34644e-05
1.33304e-05
1.31994e-05
1.30733e-05
1.29535e-05
1.28402e-05
1.27338e-05
1.26345e-05
1.2542e-05
5.40974e-06
5.27664e-06
5.15029e-06
5.03063e-06
4.91684e-06
4.80882e-06
4.70661e-06
4.61027e-06
4.51984e-06
4.4352e-06
4.35604e-06
4.28187e-06
4.21202e-06
4.14575e-06
4.08218e-06
4.02038e-06
3.95943e-06
3.89855e-06
3.83718e-06
1.60914e-05
1.59482e-05
1.57983e-05
1.56451e-05
1.54923e-05
1.53435e-05
1.52021e-05
1.50706e-05
1.49504e-05
1.4841e-05
1.47411e-05
1.46495e-05
1.45636e-05
1.44791e-05
1.43929e-05
1.43028e-05
1.42057e-05
1.41004e-05
1.39865e-05
1.38649e-05
1.37371e-05
1.36054e-05
1.34715e-05
1.33381e-05
1.32076e-05
1.30816e-05
1.29615e-05
1.28485e-05
1.2743e-05
1.26453e-05
1.25558e-05
5.40896e-06
5.27421e-06
5.14697e-06
5.02705e-06
4.9134e-06
4.80576e-06
4.7041e-06
4.60842e-06
4.51867e-06
4.43471e-06
4.35618e-06
4.28255e-06
4.21317e-06
4.14729e-06
4.08403e-06
4.02244e-06
3.9616e-06
3.90076e-06
3.83941e-06
1.61026e-05
1.59589e-05
1.58086e-05
1.56552e-05
1.55023e-05
1.53538e-05
1.52127e-05
1.50812e-05
1.49607e-05
1.48514e-05
1.47522e-05
1.46604e-05
1.45741e-05
1.44909e-05
1.44065e-05
1.43188e-05
1.42249e-05
1.41238e-05
1.40151e-05
1.38989e-05
1.37768e-05
1.36507e-05
1.35228e-05
1.33955e-05
1.3271e-05
1.31514e-05
1.30381e-05
1.29326e-05
1.28359e-05
1.27489e-05
1.26724e-05
5.40829e-06
5.27135e-06
5.1423e-06
5.02114e-06
4.90666e-06
4.7986e-06
4.69683e-06
4.60129e-06
4.51187e-06
4.42833e-06
4.35026e-06
4.27712e-06
4.20826e-06
4.14292e-06
4.08019e-06
4.0191e-06
3.95873e-06
3.89842e-06
3.83766e-06
1.60915e-05
1.59504e-05
1.58059e-05
1.56566e-05
1.55079e-05
1.53686e-05
1.52416e-05
1.51263e-05
1.50215e-05
1.49261e-05
1.4839e-05
1.47593e-05
1.46849e-05
1.46148e-05
1.45474e-05
1.44798e-05
1.44094e-05
1.43341e-05
1.42533e-05
1.41667e-05
1.40747e-05
1.39787e-05
1.38804e-05
1.37822e-05
1.36864e-05
1.35952e-05
1.35106e-05
1.34344e-05
1.33685e-05
1.33146e-05
1.32746e-05
5.40815e-06
5.27154e-06
5.14395e-06
5.02465e-06
4.91323e-06
4.80902e-06
4.71129e-06
4.61999e-06
4.53505e-06
4.45632e-06
4.38352e-06
4.31623e-06
4.2539e-06
4.19578e-06
4.14087e-06
4.08805e-06
4.0363e-06
3.98478e-06
3.93275e-06
3.8789e-06
3.79105e-06
1.60879e-05
1.60427e-05
1.59372e-05
1.58173e-05
1.57923e-05
1.58062e-05
1.58309e-05
1.58525e-05
1.58612e-05
1.58591e-05
1.58527e-05
1.58456e-05
1.58409e-05
1.58381e-05
1.58348e-05
1.58283e-05
1.5815e-05
1.57932e-05
1.57622e-05
1.57228e-05
1.56764e-05
1.56251e-05
1.55717e-05
1.55193e-05
1.5471e-05
1.54295e-05
1.53983e-05
1.53811e-05
1.53832e-05
5.47735e-06
5.44689e-06
5.41932e-06
5.39373e-06
5.3692e-06
5.34587e-06
5.32425e-06
5.30436e-06
5.2862e-06
5.26966e-06
5.25459e-06
5.24073e-06
5.22769e-06
5.21496e-06
5.20195e-06
5.18816e-06
5.17318e-06
5.15675e-06
5.13876e-06
5.11932e-06
5.10905e-06
5.09395e-06
5.07521e-06
5.05422e-06
5.01109e-06
4.97584e-06
4.9468e-06
4.92275e-06
4.90269e-06
4.88611e-06
4.87174e-06
4.85813e-06
4.8441e-06
4.82892e-06
4.81219e-06
4.79368e-06
4.77365e-06
4.75227e-06
4.72981e-06
4.70659e-06
4.68303e-06
4.6597e-06
4.63689e-06
4.61486e-06
4.59384e-06
4.57408e-06
4.55564e-06
4.53852e-06
4.52268e-06
4.50814e-06
1.11728e-05
9.75596e-06
1.27924e-05
1.46594e-05
1.53714e-05
1.52207e-05
1.44789e-05
1.32878e-05
1.16607e-05
9.49407e-06
6.90138e-06
6.91791e-06
7.655e-06
8.09004e-06
8.62145e-06
9.32162e-06
1.00768e-05
1.06917e-05
1.18546e-05
3.20648e-05
1.09875e-05
9.71766e-06
1.27871e-05
1.46916e-05
1.54321e-05
1.52942e-05
1.45514e-05
1.33538e-05
1.17259e-05
9.57826e-06
6.96634e-06
6.74275e-06
7.44854e-06
7.98003e-06
8.64718e-06
9.44256e-06
1.02553e-05
1.0834e-05
1.20528e-05
3.33393e-05
1.08054e-05
9.67928e-06
1.2781e-05
1.47234e-05
1.54932e-05
1.53693e-05
1.46272e-05
1.34249e-05
1.17985e-05
9.67387e-06
7.09293e-06
6.63004e-06
7.31881e-06
7.89706e-06
8.6285e-06
9.47201e-06
1.03045e-05
1.08465e-05
1.23314e-05
3.40674e-05
1.0626e-05
9.64022e-06
1.27734e-05
1.47541e-05
1.55545e-05
1.54461e-05
1.47063e-05
1.35013e-05
1.18786e-05
9.78405e-06
7.29034e-06
6.5319e-06
7.20469e-06
7.83785e-06
8.62821e-06
9.51473e-06
1.0356e-05
1.08802e-05
1.27291e-05
3.47959e-05
1.04492e-05
9.60029e-06
1.27641e-05
1.47836e-05
1.56157e-05
1.55247e-05
1.47891e-05
1.35832e-05
1.19659e-05
9.90233e-06
7.48637e-06
6.50817e-06
7.14113e-06
7.82333e-06
8.6614e-06
9.57853e-06
1.04159e-05
1.09518e-05
1.32469e-05
3.55246e-05
1.02748e-05
9.55915e-06
1.27531e-05
1.4812e-05
1.56771e-05
1.56054e-05
1.48763e-05
1.36721e-05
1.20634e-05
1.00375e-05
7.71552e-06
6.59935e-06
7.1594e-06
7.86886e-06
8.73478e-06
9.66541e-06
1.04895e-05
1.10762e-05
1.38764e-05
3.62524e-05
1.01024e-05
9.51638e-06
1.274e-05
1.48388e-05
1.57386e-05
1.56881e-05
1.4968e-05
1.37684e-05
1.21727e-05
1.01936e-05
7.98736e-06
6.81662e-06
7.27647e-06
7.98178e-06
8.851e-06
9.77664e-06
1.05837e-05
1.12663e-05
1.46038e-05
3.69777e-05
9.932e-06
9.47142e-06
1.27241e-05
1.48638e-05
1.58e-05
1.57731e-05
1.50647e-05
1.38727e-05
1.22946e-05
1.03711e-05
8.29808e-06
7.14231e-06
7.49133e-06
8.1614e-06
9.00948e-06
9.91361e-06
1.07071e-05
1.15319e-05
1.54138e-05
3.76982e-05
9.76322e-06
9.42369e-06
1.27048e-05
1.48863e-05
1.5861e-05
1.58604e-05
1.51668e-05
1.39859e-05
1.24295e-05
1.05678e-05
8.63663e-06
7.54453e-06
7.78937e-06
8.40034e-06
9.20719e-06
1.0078e-05
1.0868e-05
1.18778e-05
1.62904e-05
3.84115e-05
9.5957e-06
9.37245e-06
1.26812e-05
1.49056e-05
1.59212e-05
1.59501e-05
1.52747e-05
1.41085e-05
1.25778e-05
1.07815e-05
8.99084e-06
7.98778e-06
8.14873e-06
8.68768e-06
9.43985e-06
1.02718e-05
1.10742e-05
1.23044e-05
1.72179e-05
3.91155e-05
9.42909e-06
9.31692e-06
1.26526e-05
1.49213e-05
1.59806e-05
1.60423e-05
1.53889e-05
1.42414e-05
1.27401e-05
1.10104e-05
9.35222e-06
8.44575e-06
8.5477e-06
9.01185e-06
9.70323e-06
1.04972e-05
1.13315e-05
1.28076e-05
1.81813e-05
3.9808e-05
9.26303e-06
9.2564e-06
1.26185e-05
1.49331e-05
1.6039e-05
1.61373e-05
1.55099e-05
1.4385e-05
1.29166e-05
1.12538e-05
9.71709e-06
8.90236e-06
8.96854e-06
9.36295e-06
9.99417e-06
1.07568e-05
1.16437e-05
1.33808e-05
1.91673e-05
4.04873e-05
9.09733e-06
9.19042e-06
1.25783e-05
1.49405e-05
1.60964e-05
1.62354e-05
1.56381e-05
1.45398e-05
1.31075e-05
1.1511e-05
1.00842e-05
9.35083e-06
9.39873e-06
9.73351e-06
1.03107e-05
1.10526e-05
1.2012e-05
1.40151e-05
2.01645e-05
4.11517e-05
8.93184e-06
9.11866e-06
1.25316e-05
1.49434e-05
1.61526e-05
1.63363e-05
1.57735e-05
1.47058e-05
1.33126e-05
1.17816e-05
1.04544e-05
9.7917e-06
9.83148e-06
1.01188e-05
1.06518e-05
1.13863e-05
1.24357e-05
1.47013e-05
2.11632e-05
4.17994e-05
8.76645e-06
9.04075e-06
1.24778e-05
1.49408e-05
1.62071e-05
1.64399e-05
1.5916e-05
1.4883e-05
1.35316e-05
1.20649e-05
1.08277e-05
1.02266e-05
1.02643e-05
1.05165e-05
1.10174e-05
1.17587e-05
1.29119e-05
1.54297e-05
2.2156e-05
4.24287e-05
8.60102e-06
8.95617e-06
1.24162e-05
1.49321e-05
1.62588e-05
1.65452e-05
1.60648e-05
1.50706e-05
1.37639e-05
1.236e-05
1.12042e-05
1.06563e-05
1.06966e-05
1.09261e-05
1.14077e-05
1.21695e-05
1.34364e-05
1.61913e-05
2.31366e-05
4.30373e-05
8.43536e-06
8.86434e-06
1.23457e-05
1.49161e-05
1.6307e-05
1.66516e-05
1.62194e-05
1.52682e-05
1.40087e-05
1.26663e-05
1.1584e-05
1.10828e-05
1.11297e-05
1.13478e-05
1.18227e-05
1.26178e-05
1.40041e-05
1.69774e-05
2.40998e-05
4.36233e-05
8.26924e-06
8.76455e-06
1.22654e-05
1.48917e-05
1.63504e-05
1.67581e-05
1.63792e-05
1.54753e-05
1.42655e-05
1.29833e-05
1.19672e-05
1.15077e-05
1.15655e-05
1.17824e-05
1.22626e-05
1.31015e-05
1.46095e-05
1.77804e-05
2.50415e-05
4.41843e-05
8.10245e-06
8.65615e-06
1.21742e-05
1.48577e-05
1.63882e-05
1.68642e-05
1.65437e-05
1.56917e-05
1.45345e-05
1.33117e-05
1.23559e-05
1.19343e-05
1.20065e-05
1.22311e-05
1.27269e-05
1.36182e-05
1.52467e-05
1.85936e-05
2.59581e-05
4.47184e-05
7.9348e-06
8.53866e-06
1.20712e-05
1.48131e-05
1.64194e-05
1.6969e-05
1.67125e-05
1.59171e-05
1.48159e-05
1.36528e-05
1.27531e-05
1.23667e-05
1.24557e-05
1.2695e-05
1.32152e-05
1.41649e-05
1.59102e-05
1.94109e-05
2.68471e-05
4.52234e-05
7.76614e-06
8.41161e-06
1.19556e-05
1.4757e-05
1.64432e-05
1.70718e-05
1.68849e-05
1.6151e-05
1.51095e-05
1.40075e-05
1.31622e-05
1.28085e-05
1.29158e-05
1.31752e-05
1.37266e-05
1.47387e-05
1.65947e-05
2.02276e-05
2.77065e-05
4.56975e-05
7.59654e-06
8.27464e-06
1.18266e-05
1.46881e-05
1.64581e-05
1.71715e-05
1.706e-05
1.63928e-05
1.54146e-05
1.43759e-05
1.35849e-05
1.32628e-05
1.33888e-05
1.36723e-05
1.42599e-05
1.53363e-05
1.72955e-05
2.10395e-05
2.8535e-05
4.6139e-05
7.42598e-06
8.12741e-06
1.1683e-05
1.46049e-05
1.64625e-05
1.72665e-05
1.72365e-05
1.66412e-05
1.57302e-05
1.47569e-05
1.40208e-05
1.37304e-05
1.38756e-05
1.41863e-05
1.48138e-05
1.59545e-05
1.80081e-05
2.18432e-05
2.93316e-05
4.65461e-05
7.25448e-06
7.9695e-06
1.15236e-05
1.45057e-05