/*--------------------------------*- C++ -*----------------------------------*\
  =========                 |
  \\      /  F ield         | OpenFOAM: The Open Source CFD Toolbox
   \\    /   O peration     | Website:  https://openfoam.org
    \\  /    A nd           | Version:  8
     \\/     M anipulation  |
\*---------------------------------------------------------------------------*/
FoamFile
{
    version     2.0;
    format      ascii;
    class       volScalarField;
    location    "100";
    object      p;
}
// * * * * * * * * * * * * * * * * * * * * * * * * * * * * * * * * * * * * * //

dimensions      [1 -1 -2 0 0 0 0];

internalField   nonuniform List<scalar> 
8400
(
8604.74
3733.21
1031.2
582.396
3031.58
9178.57
19629.5
34399.6
52941.3
73888.1
94735.2
112940
126914
136173
141209
143125
143298
142770
142071
141529
141352
141687
142498
143481
144327
144902
145223
145349
145329
145191
144958
144648
144280
143865
143419
142950
142469
141984
141498
141017
140542
140079
139629
139197
138785
138397
138038
137713
137436
137219
7389.39
1931.7
-1065.54
-2162.63
-512.745
5069.73
15492.7
30824.5
50180.5
71830.7
93157.4
111898
126466
136277
141788
143984
144132
143295
142135
141126
140580
140837
141939
143317
144403
145026
145314
145397
145337
145164
144901
144566
144177
143746
143287
142809
142321
141829
141338
140853
140376
139910
139457
139021
138603
138209
137839
137500
137195
136928
6399.51
-739.775
-4418.06
-5979.52
-4358.54
2184.28
14638
31864.2
51651.8
72675.5
93564.8
112347
126923
136562
142054
144553
144869
143713
142058
140616
139590
139683
141238
143295
144749
145370
145569
145575
145443
145205
144889
144513
144094
143642
143169
142684
142192
141699
141209
140727
140253
139792
139343
138910
138495
138102
137734
137396
137087
136805
2971.93
-2873.79
-4434.98
-4042.66
-443.457
7329.97
19688.1
36205.9
55991.9
77133.8
97587.2
114867
127414
135445
140155
142503
142844
141932
140878
139990
139134
139246
140965
143613
145347
145828
145894
145808
145579
145252
144859
144423
143959
143475
142979
142476
141973
141473
140979
140493
140017
139553
139102
138665
138244
137843
137466
137117
136795
136499
-2581.04
-2475.52
1825.21
6876.01
13965.3
23544.4
35472.6
49428.4
64794
80370.1
94776.2
106828
116077
122919
128111
132200
135040
136565
137263
137620
137846
138822
141504
144718
146030
146194
146196
146053
145712
145280
144806
144310
143803
143291
142778
142267
141759
141259
140768
140287
139817
139359
138912
138478
138058
137655
137275
136920
136590
136284
2096.47
4881.71
12003.2
19026.2
26612.3
35255
44870
55280.8
66193
77094.1
87394.9
96630.1
104630
111496
117399
122361
126202
129013
131215
133221
135249
137574
140494
143510
145260
146191
146492
146271
145767
145223
144673
144127
143587
143054
142528
142010
141501
141000
140511
140032
139564
139106
138659
138222
137798
137391
137004
136642
136305
135992
5829.8
11005.4
19224.1
26771.9
34000.5
41494.9
49335.6
57470.6
65809.1
74178.3
82343.6
90074.1
97206.3
103662
109412
114440
118765
122551
126045
129403
132634
135744
138810
141646
143742
145308
146110
146090
145606
145010
144427
143860
143310
142773
142248
141733
141229
140736
140253
139780
139318
138865
138421
137987
137564
137155
136766
136399
136057
135739
8869.63
16003.5
24670.5
32223.6
39006.2
45594.8
52157.4
58732.5
65341.9
71970.8
78549.7
84974.1
91135.2
96957.1
102413
107519
112337
116955
121426
125717
129750
133472
136858
139762
141983
143738
144978
145382
145124
144607
144056
143512
142979
142457
141945
141443
140950
140467
139992
139527
139070
138622
138180
137747
137324
136914
136520
136149
135800
135475
11582.4
20205.8
28897.6
36126.3
42375.7
48174.1
53727.8
59147.6
64532.6
69946
75402.2
80873.4
86310.9
91680.2
96978.5
102225
107446
112633
117719
122589
127135
131284
134976
138063
140408
142205
143589
144330
144386
144054
143596
143112
142621
142131
141643
141161
140684
140213
139750
139293
138843
138399
137962
137531
137109
136697
136302
135926
135572
135240
13797.3
23492.3
31880
38601.8
44320.6
49484.6
54308.1
58944.5
63532.3
68172
72919
77793.5
82797.4
87928.5
93193.2
98591.9
104096
109633
115075
120277
125114
129507
133401
136671
139172
141016
142404
143279
143576
143449
143122
142717
142280
141829
141371
140911
140451
139994
139541
139092
138648
138209
137774
137344
136922
136510
136110
135728
135366
135027
15449
25798.5
33683.1
39908.3
45206.1
49926.3
54278.3
58441.3
62568.7
66776.2
71142.6
75717.4
80530.5
85596.5
90914.2
96453.5
102146
107878
113503
118864
123830
128321
132300
135674
138303
140219
141598
142492
142897
142917
142708
142385
142004
141591
141160
140719
140274
139827
139382
138939
138499
138062
137629
137200
136777
136363
135961
135574
135209
134868
16881.1
26969.1
34317.7
40243.4
45304.5
49785.6
53908.1
57860.8
61799
65844.8
70088.7
74594.6
79402.8
84525.9
89946.6
95609.7
101419
107246
112940
118345
123330
127818
131778
135153
137829
139798
141178
142055
142486
142573
142435
142168
141825
141437
141022
140593
140155
139714
139272
138831
138392
137956
137523
137094
136671
136257
135853
135465
135097
134756
17419
27099.8
34188.7
40007.3
44973.8
49375.2
53438.9
57353.3
61274.3
65329.1
69614.9
74200.9
79125.5
84389
89953.1
95740.2
101637
107510
113216
118609
123564
128000
131876
135160
137783
139739
141103
141953
142373
142472
142358
142111
141782
141401
140990
140560
140121
139676
139231
138786
138342
137902
137466
137035
136610
136193
135788
135398
135029
134686
17067.8
26216.5
33370.6
39284
44350.9
48872.6
53078.9
57158.5
61264.8
65523.5
70026.9
74831.2
79958
85388.1
91064.3
96898.3
102781
108595
114216
119523
124396
128747
132526
135689
138178
140029
141332
142133
142520
142601
142477
142222
141883
141490
141066
140623
140170
139713
139256
138800
138347
137899
137454
137016
136585
136164
135754
135361
134988
134641
16403.3
25001.1
32256.7
38396.7
43760.4
48609.4
53155.9
57574.8
62010.2
66576.5
71354.9
76390
81689.2
87223.3
92930.3
98726.9
104517
110202
115685
120870
125648
129919
133604
136635
138959
140639
141821
142543
142874
142915
142758
142472
142102
141681
141229
140760
140284
139807
139331
138859
138391
137929
137473
137024
136585
136156
135740
135340
134962
134608
15975.8
24139.5
31422.7
37770.3
43435.9
48625.6
53523
58285.1
63040.6
67891.1
72907.6
78129.2
83560.5
89169.4
94890.7
100645
106346
111911
117266
122339
127044
131273
134911
137847
140021
141496
142505
143125
143382
143366
143158
142823
142408
141944
141454
140951
140445
139942
139443
138951
138465
137986
137514
137052
136601
136161
135736
135328
134940
134577
15790.5
23572.5
30804.2
37267.6
43151.9
48614.1
53806.6
58863
63891.4
68979.1
74189.7
79563.2
85109.5
90800.1
96569.6
102331
107993
113478
118730
123710
128366
132594
136243
139148
141208
142487
143306
143805
143976
143892
143622
143228
142755
142239
141703
141161
140624
140093
139571
139058
138552
138054
137564
137085
136618
136165
135727
135306
134906
134527
15806.5
23259
30404
36924.9
42964.6
48645.9
54088.4
59393.2
64641
69902.1
75236.4
80697.9
86323.9
92103.3
97965.9
103795
109465
114884
120020
124889
129490
133740
137448
140378
142368
143478
144116
144489
144578
144426
144092
143633
143099
142527
141943
141365
140799
140247
139709
139179
138657
138142
137634
137136
136650
136179
135724
135287
134867
134466
15816.2
23000.6
30057.4
36606.6
42761.6
48612.6
54246.6
59733
65122.1
70463.9
75828.7
81310.6
86993.4
92892.9
98915.5
104877
110584
115925
120913
125650
130210
134529
138365
141385
143354
144328
144812
145068
145080
144861
144459
143931
143331
142702
142073
141462
140877
140315
139770
139237
138709
138185
137666
137154
136653
136166
135695
135240
134799
134368
15918.6
22991.9
30004.9
36569.2
42788.2
48738.3
54485.2
60071.6
65526.7
70894.2
76258.5
81752.2
87501.8
93536.7
99725.6
105813
111547
116809
121667
126305
130858
135260
139207
142270
144152
144944
145282
145485
145482
145230
144776
144189
143530
142848
142175
141533
140926
140353
139804
139267
138736
138207
137680
137159
136648
136149
135665
135194
134730
134258
125513
125513
125513
125513
125513
125513
125513
125513
125513
125513
125514
125514
125514
125514
125515
125515
125515
125516
125516
125517
125517
125518
125518
125519
125520
125520
125521
125522
125522
125523
125524
125525
125525
125526
125527
125528
125529
125529
125530
125531
125532
125533
125533
125534
125535
125535
125536
125536
125537
125537
125415
125415
125415
125415
125415
125415
125415
125415
125416
125416
125416
125416
125416
125417
125417
125417
125418
125418
125419
125419
125420
125420
125421
125422
125422
125423
125423
125424
125425
125426
125426
125427
125428
125429
125429
125430
125431
125432
125433
125434
125434
125435
125436
125437
125437
125438
125438
125439
125439
125440
125317
125317
125317
125317
125318
125318
125318
125318
125318
125318
125318
125319
125319
125319
125319
125320
125320
125321
125321
125322
125322
125323
125323
125324
125325
125325
125326
125327
125327
125328
125329
125329
125330
125331
125332
125333
125333
125334
125335
125336
125337
125338
125338
125339
125340
125340
125341
125341
125342
125342
125220
125220
125220
125220
125220
125220
125220
125220
125220
125221
125221
125221
125221
125222
125222
125222
125223
125223
125223
125224
125224
125225
125226
125226
125227
125228
125228
125229
125230
125230
125231
125232
125232
125233
125234
125235
125236
125237
125237
125238
125239
125240
125241
125241
125242
125243
125243
125244
125244
125245
125122
125122
125122
125122
125122
125123
125123
125123
125123
125123
125123
125124
125124
125124
125124
125125
125125
125125
125126
125126
125127
125127
125128
125129
125129
125130
125131
125131
125132
125133
125133
125134
125135
125136
125136
125137
125138
125139
125140
125141
125141
125142
125143
125144
125144
125145
125145
125146
125147
125147
125025
125025
125025
125025
125025
125025
125025
125025
125025
125026
125026
125026
125026
125026
125027
125027
125027
125028
125028
125029
125029
125030
125030
125031
125032
125032
125033
125034
125034
125035
125036
125036
125037
125038
125039
125040
125040
125041
125042
125043
125044
125045
125045
125046
125047
125047
125048
125048
125049
125049
124927
124927
124927
124927
124928
124928
124928
124928
124928
124928
124928
124928
124929
124929
124929
124929
124930
124930
124930
124931
124931
124932
124933
124933
124934
124935
124935
124936
124937
124937
124938
124939
124940
124940
124941
124942
124943
124944
124944
124945
124946
124947
124948
124948
124949
124950
124950
124951
124951
124952
124830
124830
124830
124830
124830
124830
124830
124830
124830
124831
124831
124831
124831
124831
124831
124832
124832
124832
124833
124833
124834
124834
124835
124836
124836
124837
124838
124838
124839
124840
124840
124841
124842
124843
124843
124844
124845
124846
124847
124848
124848
124849
124850
124851
124851
124852
124852
124853
124854
124854
124732
124732
124733
124733
124733
124733
124733
124733
124733
124733
124733
124733
124733
124734
124734
124734
124734
124735
124735
124736
124736
124737
124737
124738
124738
124739
124740
124740
124741
124742
124743
124743
124744
124745
124746
124747
124747
124748
124749
124750
124751
124751
124752
124753
124754
124754
124755
124755
124756
124756
124635
124635
124635
124635
124635
124635
124635
124635
124635
124636
124636
124636
124636
124636
124636
124636
124637
124637
124637
124638
124638
124639
124640
124640
124641
124641
124642
124643
124643
124644
124645
124646
124646
124647
124648
124649
124650
124651
124651
124652
124653
124654
124654
124655
124656
124656
124657
124658
124658
124659
124538
124538
124538
124538
124538
124538
124538
124538
124538
124538
124538
124538
124538
124538
124539
124539
124539
124539
124540
124540
124541
124541
124542
124542
124543
124544
124544
124545
124546
124546
124547
124548
124549
124550
124550
124551
124552
124553
124554
124554
124555
124556
124557
124557
124558
124559
124559
124560
124560
124561
124440
124440
124440
124440
124440
124440
124440
124440
124440
124440
124441
124441
124441
124441
124441
124441
124441
124442
124442
124443
124443
124444
124444
124445
124445
124446
124447
124447
124448
124449
124450
124450
124451
124452
124453
124453
124454
124455
124456
124457
124458
124458
124459
124460
124460
124461
124462
124462
124463
124463
124343
124343
124343
124343
124343
124343
124343
124343
124343
124343
124343
124343
124343
124343
124343
124344
124344
124344
124345
124345
124345
124346
124346
124347
124348
124348
124349
124350
124350
124351
124352
124353
124353
124354
124355
124356
124357
124357
124358
124359
124360
124361
124361
124362
124363
124363
124364
124365
124365
124366
124245
124245
124245
124245
124245
124245
124245
124245
124245
124245
124245
124246
124246
124246
124246
124246
124246
124247
124247
124247
124248
124248
124249
124249
124250
124251
124251
124252
124253
124253
124254
124255
124256
124256
124257
124258
124259
124260
124261
124261
124262
124263
124264
124264
124265
124266
124266
124267
124267
124268
124148
124148
124148
124148
124148
124148
124148
124148
124148
124148
124148
124148
124148
124148
124148
124148
124149
124149
124149
124150
124150
124151
124151
124152
124152
124153
124154
124154
124155
124156
124156
124157
124158
124159
124160
124160
124161
124162
124163
124164
124164
124165
124166
124167
124167
124168
124169
124169
124170
124170
124050
124050
124050
124050
124050
124050
124050
124050
124050
124050
124050
124050
124050
124051
124051
124051
124051
124051
124052
124052
124052
124053
124054
124054
124055
124055
124056
124057
124057
124058
124059
124060
124060
124061
124062
124063
124064
124064
124065
124066
124067
124068
124068
124069
124070
124070
124071
124072
124072
124073
123953
123953
123953
123953
123953
123953
123953
123953
123953
123953
123953
123953
123953
123953
123953
123953
123953
123954
123954
123954
123955
123955
123956
123956
123957
123958
123958
123959
123960
123960
123961
123962
123963
123963
123964
123965
123966
123967
123968
123968
123969
123970
123971
123971
123972
123973
123973
123974
123974
123975
123855
123855
123855
123855
123855
123855
123855
123855
123855
123855
123855
123855
123855
123855
123856
123856
123856
123856
123856
123857
123857
123858
123858
123859
123859
123860
123861
123861
123862
123863
123864
123864
123865
123866
123867
123867
123868
123869
123870
123871
123872
123872
123873
123874
123874
123875
123876
123876
123877
123877
123758
123758
123758
123758
123758
123758
123758
123758
123758
123758
123758
123758
123758
123758
123758
123758
123758
123759
123759
123759
123760
123760
123761
123761
123762
123762
123763
123764
123765
123765
123766
123767
123767
123768
123769
123770
123771
123772
123772
123773
123774
123775
123775
123776
123777
123777
123778
123779
123779
123780
123661
123660
123660
123660
123660
123660
123660
123660
123660
123660
123660
123660
123660
123660
123660
123660
123661
123661
123661
123662
123662
123663
123663
123664
123664
123665
123666
123666
123667
123668
123668
123669
123670
123671
123671
123672
123673
123674
123675
123676
123676
123677
123678
123679
123679
123680
123680
123681
123682
123682
133722
133765
133772
133799
133808
133822
133829
133836
133839
133841
133842
133843
133843
133849
133852
133865
133869
133898
133902
133952
133633
133674
133680
133705
133713
133726
133731
133736
133738
133738
133738
133739
133738
133743
133745
133757
133758
133786
133790
133841
133545
133585
133589
133612
133619
133629
133633
133636
133637
133635
133634
133633
133632
133635
133636
133648
133650
133679
133683
133736
133457
133496
133499
133520
133525
133534
133536
133537
133536
133533
133530
133527
133524
133527
133526
133540
133544
133575
133581
133634
133372
133408
133411
133430
133433
133440
133440
133439
133436
133431
133426
133423
133418
133420
133418
133431
133435
133467
133474
133528
133288
133323
133324
133341
133343
133347
133346
133343
133337
133330
133324
133320
133315
133315
133312
133324
133327
133359
133364
133418
133206
133239
133239
133254
133254
133257
133253
133248
133240
133232
133225
133219
133213
133212
133209
133220
133221
133252
133256
133310
133126
133157
133156
133169
133168
133168
133163
133156
133146
133136
133128
133121
133114
133113
133109
133119
133120
133150
133152
133205
133048
133077
133075
133086
133083
133082
133075
133067
133056
133044
133034
133026
133019
133016
133012
133021
133021
133051
133051
133104
132973
133000
132996
133006
133002
132999
132990
132980
132968
132955
132944
132934
132927
132923
132918
132927
132927
132956
132955
133006
132900
132925
132921
132928
132923
132918
132909
132897
132883
132869
132857
132846
132838
132833
132828
132836
132835
132863
132861
132911
132829
132853
132847
132853
132847
132841
132830
132817
132802
132787
132773
132762
132753
132747
132742
132749
132747
132774
132771
132819
132761
132783
132776
132780
132773
132765
132753
132739
132723
132707
132693
132681
132671
132664
132658
132664
132661
132687
132683
132729
132696
132716
132708
132710
132701
132693
132680
132665
132648
132631
132616
132603
132592
132584
132577
132582
132579
132603
132597
132642
132633
132651
132642
132642
132632
132622
132608
132592
132575
132557
132541
132527
132515
132506
132499
132503
132498
132521
132514
132557
132572
132587
132577
132576
132565
132554
132539
132522
132504
132486
132469
132454
132441
132431
132424
132425
132421
132442
132433
132473
132512
132526
132515
132512
132500
132488
132472
132454
132435
132417
132399
132383
132369
132359
132350
132350
132345
132364
132354
132392
132455
132467
132454
132450
132437
132423
132406
132388
132369
132349
132331
132314
132299
132288
132278
132277
132271
132288
132277
132312
132399
132409
132396
132390
132375
132361
132343
132324
132303
132283
132264
132247
132231
132218
132208
132206
132198
132213
132202
132234
132346
132353
132339
132331
132315
132300
132281
132261
132240
132219
132199
132180
132164
132150
132140
132135
132127
132141
132128
132157
132293
132299
132283
132274
132257
132240
132220
132199
132177
132155
132135
132115
132098
132084
132072
132067
132058
132069
132055
132082
132242
132245
132229
132218
132200
132181
132160
132138
132116
132093
132071
132052
132033
132018
132006
131999
131989
131998
131983
132007
132192
132193
132176
132163
132144
132124
132102
132079
132055
132032
132009
131988
131969
131953
131940
131932
131921
131928
131913
131934
132143
132142
132123
132109
132088
132067
132044
132020
131995
131971
131948
131926
131906
131889
131875
131866
131854
131859
131843
131861
132095
132092
132071
132055
132033
132011
131987
131962
131936
131911
131887
131864
131844
131826
131811
131800
131788
131791
131773
131788
132047
132041
132020
132002
131979
131956
131930
131904
131877
131851
131827
131803
131782
131763
131747
131735
131722
131723
131704
131716
131999
131991
131969
131950
131925
131900
131874
131847
131819
131792
131767
131743
131720
131700
131683
131670
131656
131655
131635
131644
131951
131942
131918
131897
131872
131846
131818
131790
131762
131734
131707
131682
131659
131638
131620
131605
131590
131587
131566
131573
131904
131892
131867
131844
131818
131791
131762
131733
131704
131675
131648
131622
131598
131576
131557
131541
131525
131519
131497
131501
131855
131841
131815
131792
131764
131736
131706
131676
131646
131617
131589
131562
131537
131514
131494
131476
131459
131451
131428
131429
131807
131791
131764
131739
131710
131681
131650
131619
131589
131558
131529
131502
131476
131452
131430
131412
131393
131383
131359
131357
131757
131739
131711
131685
131655
131625
131594
131562
131531
131500
131470
131441
131414
131390
131367
131347
131327
131315
131290
131285
131707
131687
131658
131631
131600
131569
131537
131504
131472
131440
131410
131381
131353
131327
131303
131282
131261
131246
131220
131212
131656
131635
131605
131576
131545
131512
131480
131446
131413
131381
131349
131319
131291
131264
131239
131216
131194
131177
131150
131139
131604
131581
131550
131520
131488
131455
131421
131388
131354
131321
131288
131258
131228
131200
131174
131150
131126
131107
131079
131066
131551
131526
131494
131463
131430
131397
131362
131328
131293
131260
131227
131195
131164
131135
131108
131082
131057
131037
131007
130991
131496
131470
131437
131405
131371
131337
131302
131267
131232
131198
131164
131131
131100
131070
131041
131014
130988
130965
130934
130916
131440
131412
131378
131346
131311
131276
131241
131205
131170
131135
131100
131067
131034
131003
130973
130945
130917
130892
130860
130839
131383
131353
131318
131285
131250
131214
131178
131142
131106
131070
131035
131001
130967
130935
130904
130874
130845
130818
130785
130761
131323
131292
131257
131223
131187
131151
131114
131078
131041
131004
130968
130933
130898
130865
130833
130801
130771
130742
130708
130682
131263
131230
131194
131159
131123
131086
131049
131012
130974
130937
130900
130864
130828
130794
130760
130727
130695
130665
130629
130601
131200
131167
131130
131094
131057
131020
130982
130944
130906
130868
130831
130793
130757
130721
130686
130652
130618
130586
130549
130519
131137
131102
131064
131027
130990
130952
130914
130875
130837
130798
130759
130721
130684
130647
130610
130575
130539
130505
130468
130435
131071
131035
130997
130959
130921
130882
130844
130805
130765
130726
130687
130647
130609
130571
130533
130496
130459
130423
130384
130350
131004
130967
130928
130889
130850
130811
130772
130732
130692
130652
130612
130572
130532
130493
130454
130415
130377
130339
130299
130264
130936
130898
130857
130818
130779
130739
130699
130659
130618
130577
130536
130495
130454
130413
130373
130333
130294
130254
130213
130176
130866
130827
130785
130746
130705
130665
130624
130583
130542
130500
130458
130416
130374
130333
130291
130250
130209
130168
130126
130086
130795
130755
130713
130672
130631
130590
130548
130507
130464
130422
130379
130336
130293
130250
130207
130165
130122
130080
130037
129996
130723
130681
130639
130597
130555
130513
130471
130429
130386
130342
130298
130254
130210
130166
130122
130078
130035
129991
129947
129905
130650
130607
130564
130521
130478
130436
130393
130349
130305
130261
130216
130171
130126
130081
130036
129991
129946
129902
129856
129813
130576
130532
130488
130444
130401
130357
130313
130269
130224
130179
130133
130087
130041
129995
129949
129903
129857
129811
129764
129720
130501
130457
130411
130367
130322
130278
130233
130188
130142
130096
130049
130002
129955
129908
129861
129813
129766
129720
129672
129626
130426
130380
130334
130288
130243
130198
130152
130106
130059
130012
129964
129916
129868
129820
129772
129724
129675
129628
129579
129532
130350
130303
130256
130209
130163
130117
130070
130023
129976
129927
129879
129830
129781
129732
129682
129633
129584
129535
129486
129438
130273
130226
130177
130130
130082
130035
129988
129940
129891
129842
129793
129743
129693
129643
129593
129542
129492
129443
129392
129343
130196
130148
130098
130050
130002
129953
129905
129856
129807
129757
129706
129656
129605
129554
129503
129451
129400
129350
129299
129249
130119
130069
130019
129970
129920
129871
129822
129772
129722
129671
129620
129568
129516
129464
129412
129360
129308
129257
129205
129154
130041
129991
129940
129890
129839
129789
129739
129688
129637
129585
129533
129481
129428
129375
129322
129269
129217
129164
129111
129060
129964
129913
129861
129809
129758
129707
129655
129604
129552
129499
129446
129393
129339
129286
129232
129178
129125
129071
129018
128965
129886
129834
129781
129729
129677
129625
129572
129520
129467
129413
129359
129305
129251
129196
129142
129088
129033
128979
128925
128871
129809
129756
129702
129649
129596
129543
129489
129436
129382
129328
129273
129218
129163
129108
129052
128997
128942
128887
128832
128778
129732
129678
129624
129570
129515
129461
129407
129352
129297
129242
129187
129131
129075
129019
128963
128907
128851
128796
128740
128685
129655
129601
129545
129490
129435
129380
129324
129269
129213
129157
129101
129044
128987
128931
128874
128817
128761
128704
128648
128592
129579
129524
129467
129411
129355
129299
129242
129186
129129
129072
129015
128958
128900
128843
128786
128728
128671
128614
128557
128500
129503
129447
129389
129332
129275
129218
129161
129104
129046
128988
128930
128872
128814
128756
128698
128640
128582
128524
128466
128408
129427
129370
129312
129254
129196
129138
129080
129022
128963
128905
128846
128787
128728
128669
128610
128552
128493
128434
128375
128317
129352
129294
129235
129176
129117
129058
128999
128940
128881
128821
128762
128702
128643
128583
128524
128464
128405
128345
128286
128226
129277
129218
129158
129099
129039
128979
128919
128859
128799
128739
128679
128618
128558
128498
128437
128377
128317
128257
128197
128137
129203
129143
129082
129022
128961
128901
128840
128779
128718
128657
128596
128535
128474
128413
128352
128291
128230
128169
128108
128047
129129
129068
129007
128946
128884
128823
128761
128699
128638
128576
128514
128452
128390
128329
128267
128205
128144
128082
128020
127959
129055
128994
128932
128870
128808
128745
128683
128621
128558
128495
128433
128370
128308
128245
128183
128120
128058
127996
127933
127871
128983
128921
128858
128795
128732
128669
128606
128542
128479
128416
128352
128289
128226
128163
128099
128036
127973
127910
127847
127784
128911
128848
128784
128721
128657
128593
128529
128465
128401
128337
128273
128209
128145
128081
128017
127953
127889
127825
127761
127697
128840
128776
128711
128647
128582
128518
128453
128388
128323
128258
128194
128129
128064
128000
127935
127870
127806
127741
127676
127612
128769
128705
128639
128574
128509
128443
128378
128312
128247
128181
128115
128050
127985
127919
127854
127789
127723
127658
127593
127527
128699
128634
128568
128502
128436
128370
128303
128237
128171
128104
128038
127972
127906
127840
127773
127707
127641
127576
127509
127443
128630
128564
128497
128430
128363
128296
128229
128162
128095
128028
127961
127894
127827
127761
127694
127627
127561
127494
127427
127360
128562
128495
128427
128360
128292
128224
128156
128089
128021
127953
127885
127818
127750
127683
127615
127548
127480
127413
127346
127278
128494
128426
128358
128290
128221
128153
128084
128015
127947
127878
127810
127742
127674
127605
127537
127469
127401
127333
127265
127197
128427
128358
128289
128220
128151
128082
128012
127943
127874
127805
127736
127667
127598
127529
127460
127391
127323
127254
127185
127116
128361
128291
128221
128152
128082
128012
127942
127872
127802
127732
127662
127592
127523
127453
127384
127314
127245
127176
127106
127037
128295
128225
128154
128084
128013
127942
127872
127801
127730
127660
127589
127519
127448
127378
127308
127238
127168
127098
127028
126958
128230
128159
128088
128017
127945
127874
127802
127731
127659
127588
127517
127446
127375
127304
127233
127163
127092
127021
126950
126880
128166
128095
128023
127950
127878
127806
127734
127662
127589
127517
127446
127374
127302
127231
127159
127088
127017
126945
126874
126802
128103
128030
127958
127885
127812
127739
127666
127593
127520
127448
127375
127303
127230
127158
127086
127014
126942
126870
126798
126726
128040
127967
127893
127820
127746
127673
127599
127526
127452
127379
127305
127232
127159
127087
127014
126941
126869
126796
126723
126651
127978
127904
127830
127756
127682
127607
127533
127459
127384
127310
127236
127163
127089
127016
126943
126869
126796
126723
126650
126576
127916
127842
127767
127692
127617
127543
127468
127393
127318
127243
127169
127094
127020
126946
126872
126798
126725
126651
126577
126503
127855
127780
127705
127629
127554
127478
127403
127327
127252
127177
127101
127026
126952
126877
126803
126728
126654
126579
126505
126430
127795
127719
127643
127567
127491
127415
127339
127263
127187
127111
127035
126959
126884
126809
126734
126659
126584
126509
126433
126358
127735
127659
127582
127506
127429
127352
127276
127199
127122
127046
126970
126893
126817
126742
126666
126590
126515
126439
126363
126287
127676
127599
127522
127445
127367
127290
127213
127136
127059
126982
126905
126828
126751
126675
126599
126522
126446
126370
126293
126216
127617
127539
127462
127384
127306
127229
127151
127073
126996
126918
126841
126763
126686
126609
126532
126455
126378
126301
126224
126147
127559
127481
127402
127324
127246
127168
127090
127011
126933
126855
126777
126699
126621
126544
126466
126389
126311
126233
126155
126077
127501
127423
127344
127265
127186
127108
127029
126950
126871
126793
126714
126635
126557
126478
126400
126322
126244
126166
126087
126008
127444
127365
127286
127206
127127
127048
126969
126889
126810
126731
126652
126572
126493
126414
126335
126256
126177
126099
126019
125940
127388
127308
127228
127149
127069
126989
126909
126829
126749
126670
126590
126510
126430
126350
126270
126190
126111
126031
125952
125872
127332
127252
127172
127091
127011
126931
126850
126770
126689
126609
126529
126448
126368
126287
126207
126126
126045
125965
125885
125805
127278
127197
127116
127035
126954
126873
126792
126711
126630
126549
126468
126387
126306
126225
126144
126063
125982
125900
125819
125738
127223
127142
127061
126979
126898
126816
126735
126653
126572
126490
126409
126327
126246
126164
126083
126001
125919
125838
125756
125674
127170
127088
127006
126924
126842
126760
126678
126596
126514
126432
126350
126268
126186
126104
126022
125940
125858
125776
125693
125611
127117
127035
126952
126870
126787
126705
126622
126540
126457
126375
126292
126210
126127
126045
125962
125880
125797
125714
125632
125549
127065
126982
126899
126816
126733
126650
126567
126484
126401
126318
126235
126152
126069
125986
125903
125820
125737
125654
125571
125488
127014
126931
126847
126764
126680
126597
126513
126430
126346
126263
126179
126096
126012
125929
125845
125762
125678
125594
125511
125427
126964
126880
126796
126712
126628
126544
126460
126376
126292
126208
126124
126040
125956
125872
125788
125704
125620
125536
125452
125368
126914
126830
126745
126661
126576
126492
126407
126323
126238
126154
126069
125985
125900
125816
125731
125647
125562
125478
125393
125309
126865
126780
126695
126610
126526
126441
126356
126271
126186
126101
126016
125931
125846
125761
125676
125591
125506
125421
125336
125251
126817
126732
126646
126561
126476
126390
126305
126219
126134
126049
125963
125878