/*--------------------------------*- C++ -*----------------------------------*\
  =========                 |
  \\      /  F ield         | OpenFOAM: The Open Source CFD Toolbox
   \\    /   O peration     | Website:  https://openfoam.org
    \\  /    A nd           | Version:  8
     \\/     M anipulation  |
\*---------------------------------------------------------------------------*/
FoamFile
{
    version     2.0;
    format      ascii;
    class       volScalarField;
    location    "100";
    object      p_rgh;
}
// * * * * * * * * * * * * * * * * * * * * * * * * * * * * * * * * * * * * * //

dimensions      [1 -1 -2 0 0 0 0];

internalField   nonuniform List<scalar> 
8400
(
1020.89
24.7571
-226.298
41.6597
1244.66
3963.77
8890.87
16666.5
27715.6
41948.8
58340.8
75077.2
90234.5
102379
110901
116067
118840
120393
121543
122589
123580
124540
125420
126112
126557
126768
126791
126672
126442
126124
125735
125291
124807
124294
123763
123222
122678
122137
121603
121080
120569
120075
119601
119150
118725
118330
117970
117650
117386
117189
686.951
71.3599
-566.612
-755.136
-143.716
1933.99
6285.07
13694.2
24663.2
39079.3
55844
73128.1
88972.1
101847
111008
116551
119299
120482
121251
122086
123068
124205
125342
126223
126739
126940
126927
126772
126509
126162
125748
125285
124785
124259
123718
123171
122622
122077
121539
121012
120499
120003
119526
119070
118639
118237
117867
117531
117236
116985
247.326
-482.736
-1808.46
-2472.85
-2277.93
-407.21
4098.03
11908.1
23254.6
37909.9
54931.3
72610.1
88880.3
102166
111766
117657
120232
120709
120913
121583
122602
123945
125411
126541
127120
127262
127180
126961
126640
126242
125788
125293
124771
124232
123682
123130
122580
122036
121501
120978
120469
119976
119502
119048
118619
118218
117849
117515
117215
116947
-4977.59
-2273.22
-1338.02
-941.495
412.131
3275.87
8320.38
16328.4
27908.6
42832.9
59858.6
76871.7
91870.9
103713
112053
117007
119053
119667
120336
121534
122805
124191
125740
127026
127597
127636
127471
127174
126771
126301
125788
125248
124693
124130
123565
123002
122445
121897
121359
120834
120323
119828
119350
118892
118456
118046
117667
117321
117008
116726
-9769.98
-5602.32
-792.08
2735.26
7061.07
12722.1
19744.3
28409
38988.6
51248.9
64315.3
76942.3
88080.3
97235.7
104418
109894
113893
116710
118863
120809
122552
124348
126303
127665
128016
127951
127751
127376
126881
126332
125759
125177
124594
124013
123439
122872
122316
121771
121238
120718
120213
119722
119247
118790
118354
117942
117558
117206
116883
116589
-7681.3
-2978.24
3947.36
9572.14
15171.8
21416.4
28350.6
36077
44714.2
54138.2
63936
73549.8
82504.3
90536.3
97556.5
103519
108350
112117
115157
117871
120463
122965
125260
126954
127823
128155
128001
127512
126902
126275
125651
125036
124432
123840
123260
122693
122137
121595
121065
120548
120044
119553
119077
118617
118176
117759
117369
117010
116680
116379
-4951.1
586.068
8224.68
14628.4
20522.9
26607
33043.5
39900.5
47236.8
55007.7
63037
71062.9
78815.5
86074.1
92676.6
98508.9
103523
107809
111599
115082
118275
121105
123549
125507
126881
127685
127791
127378
126747
126089
125447
124825
124220
123631
123057
122496
121949
121415
120894
120384
119885
119399
118926
118468
118026
117607
117212
116847
116510
116202
-2544.63
3990.71
11843
18448.1
24352.6
30176.2
36111.8
42233.1
48593.3
55198.8
61989.3
68843.6
75602.7
82107.5
88226.1
93872.7
99027.9
103746
108107
112131
115760
118934
121620
123767
125377
126500
127001
126863
126363
125756
125146
124548
123964
123393
122835
122289
121755
121232
120719
120217
119725
119242
118771
118312
117868
117444
117044
116671
116327
116012
-183.769
7288.2
15071.1
21531.5
27232.4
32688.1
38090.1
43536.8
49106.5
54843.8
60745.8
66759.6
72792.7
78740.5
84513.3
90052.6
95335
100352
105078
109452
113404
116873
119797
122115
123855
125126
125889
126064
125791
125315
124781
124236
123692
123152
122619
122093
121576
121066
120565
120071
119585
119107
118638
118180
117735
117308
116903
116524
116173
115854
1914.91
10194.5
17674.5
23782
29168.8
34241.3
39176.9
44094.4
49091.3
54233.2
59542.9
65002.3
70561.5
76155.9
81726.4
87224.3
92604.5
97809.2
102756
107352
111516
115185
118293
120770
122619
123955
124832
125214
125161
124846
124416
123939
123443
122940
122436
121932
121432
120935
120444
119958
119478
119003
118535
118077
117630
117198
116786
116399
116042
115718
3645.74
12479.8
19494.6
25217.9
30310.7
35071.1
39664.2
44222.6
48852
53626
58579.5
63714.3
69006.8
74418
79902.6
85407.1
90863.6
96183
101256
105974
110248
114020
117235
119825
121767
123148
124061
124534
124622
124442
124112
123706
123261
122794
122315
121830
121344
120858
120374
119894
119417
118944
118477
118018
117570
117135
116720
116329
115970
115647
5251.85
13873.4
20389.8
25872.3
30785.6
35358.9
39763
44136.8
48587.3
53188.1
57980.8
62978.4
68171.7
73533.2
79018.3
84563.7
90083.4
95470.5
100604
105369
109674
113463
116697
119326
121319
122729
123649
124146
124292
124189
123928
123573
123164
122722
122261
121789
121311
120832
120352
119875
119399
118928
118462
118003
117554
117119
116703
116312
115952
115630
6012.24
14336.1
20632
26035.5
30872.5
35373.5
39714.4
44034.3
48438.2
53000.2
57766
62755.9
67966.5
73371.3
78919.4
84535.7
90120.4
95557.2
100721
105494
109782
113532
116714
119299
121272
122675
123582
124071
124227
124148
123914
123582
123188
122756
122300
121830
121353
120873
120392
119912
119435
118961
118494
118033
117584
117148
116732
116340
115980
115658
5957.92
13946
20351.6
25841
30745.2
35315.5
39732.6
44135.8
48628
53283.2
58147.5
63238.9
68550.2
74046.8
79668
85330.3
90933.2
96363.6
101505
106242
110480
114159
117249
119733
121614
122951
123815
124271
124409
124321
124082
123745
123345
122904
122439
121959
121472
120982
120492
120004
119520
119040
118567
118103
117649
117211
116792
116399
116036
115710
5600.33
13248.2
19810.3
25500.7
30635.4
35443
40095.5
44724.4
49428.1
54277.2
59314.3
64553.1
69978.7
75548.7
81198.1
86845.5
92397.8
97754.8
102815
107476
111639
115230
118209
120557
122297
123512
124292
124692
124789
124670
124403
124040
123614
123149
122661
122159
121653
121145
120640
120139
119643
119154
118673
118201
117742
117299
116876
116478
116110
115777
5419.44
12798.4
19464
25374
30784.4
35880.5
40815.6
45709.6
50654.1
55713.1
60924.9
66300.1
71819.5
77436.4
83083.3
88683.2
94153.5
99408.9
104367
108942
113037
116559
119442
121656
123235
124291
124952
125274
125314
125147
124837
124432
123967
123465
122943
122412
121879
121349
120824
120306
119797
119295
118803
118322
117855
117405
116975
116570
116193
115849
5445.62
12590
19306.4
25390.6
31038.8
36396.9
41594.1
46734.8
51898.3
57142.3
62503.6
67994
73595.2
79258.4
84912.3
90476.8
95873.6
101032
105892
110393
114447
117941
120772
122882
124309
125195
125719
125950
125921
125696
125332
124876
124361
123813
123250
122683
122120
121565
121019
120485
119960
119446
118942
118451
117974
117514
117075
116659
116269
115908
5665.14
12618.4
19357.6
25570.9
31409.7
36986
42402.8
47743.3
53072.3
58443.8
63900.2
69467.4
75139.5
80865
86554.4
92105.9
97433.7
102485
107237
111666
115700
119208
122036
124086
125386
126113
126502
126641
126546
126263
125844
125333
124766
124169
123561
122956
122362
121782
121219
120670
120133
119608
119094
118593
118105
117634
117183
116752
116343
115957
5848.21
12637.3
19376.4
25676.2
31652.9
37388.4
42959.9
48430.3
53852.6
59281.3
64778.7
70401.6
76162.2
81995.2
87765.5
93325.1
98577.9
103506
108148
112530
116596
120180
123071
125114
126324
126915
127182
127236
127078
126740
126266
125702
125083
124437
123787
123146
122524
121926
121350
120793
120251
119721
119202
118694
118200
117721
117258
116813
116384
115968
6111.82
12852.2
19597.7
25944.7
31996.6
37820.6
43476.9
49014.5
54480
59934.7
65460.9
71141.3
76998.6
82943.3
88790.2
94351.1
99530.6
104353
108915
113281
117391
121043
123969
125971
127065
127517
127701
127726
127547
127172
126654
126042
125376
124687
123997
123323
122675
122058
121469
120903
120356
119821
119298
118785
118285
117799
117327
116868
116416
115956
126361
126361
126361
126361
126361
126361
126361
126361
126361
126361
126361
126361
126361
126361
126361
126361
126361
126361
126362
126362
126362
126362
126362
126362
126362
126362
126362
126362
126362
126362
126363
126363
126363
126363
126363
126363
126363
126363
126364
126364
126364
126364
126364
126364
126364
126364
126365
126365
126365
126365
126361
126361
126361
126361
126361
126361
126361
126361
126361
126361
126361
126361
126361
126361
126361
126361
126361
126361
126361
126361
126362
126362
126362
126362
126362
126362
126362
126362
126362
126362
126362
126362
126363
126363
126363
126363
126363
126363
126363
126364
126364
126364
126364
126364
126364
126364
126364
126365
126365
126365
126361
126361
126361
126361
126361
126361
126361
126361
126361
126361
126361
126361
126361
126361
126361
126361
126361
126361
126361
126361
126362
126362
126362
126362
126362
126362
126362
126362
126362
126362
126362
126362
126363
126363
126363
126363
126363
126363
126363
126364
126364
126364
126364
126364
126364
126364
126364
126365
126365
126365
126361
126361
126361
126361
126361
126361
126361
126361
126361
126361
126361
126361
126361
126361
126361
126361
126361
126361
126361
126361
126362
126362
126362
126362
126362
126362
126362
126362
126362
126362
126362
126362
126363
126363
126363
126363
126363
126363
126363
126364
126364
126364
126364
126364
126364
126364
126364
126364
126365
126365
126361
126361
126361
126361
126361
126361
126361
126361
126361
126361
126361
126361
126361
126361
126361
126361
126361
126361
126361
126361
126362
126362
126362
126362
126362
126362
126362
126362
126362
126362
126362
126362
126363
126363
126363
126363
126363
126363
126363
126364
126364
126364
126364
126364
126364
126364
126364
126364
126365
126365
126361
126361
126361
126361
126361
126361
126361
126361
126361
126361
126361
126361
126361
126361
126361
126361
126361
126361
126361
126361
126362
126362
126362
126362
126362
126362
126362
126362
126362
126362
126362
126362
126363
126363
126363
126363
126363
126363
126363
126364
126364
126364
126364
126364
126364
126364
126364
126364
126365
126365
126361
126361
126361
126361
126361
126361
126361
126361
126361
126361
126361
126361
126361
126361
126361
126361
126361
126361
126361
126361
126361
126362
126362
126362
126362
126362
126362
126362
126362
126362
126362
126362
126362
126363
126363
126363
126363
126363
126363
126364
126364
126364
126364
126364
126364
126364
126364
126364
126365
126365
126361
126361
126361
126361
126361
126361
126361
126361
126361
126361
126361
126361
126361
126361
126361
126361
126361
126361
126361
126361
126361
126362
126362
126362
126362
126362
126362
126362
126362
126362
126362
126362
126362
126363
126363
126363
126363
126363
126363
126363
126364
126364
126364
126364
126364
126364
126364
126364
126365
126365
126361
126361
126361
126361
126361
126361
126361
126361
126361
126361
126361
126361
126361
126361
126361
126361
126361
126361
126361
126361
126361
126362
126362
126362
126362
126362
126362
126362
126362
126362
126362
126362
126362
126363
126363
126363
126363
126363
126363
126363
126364
126364
126364
126364
126364
126364
126364
126364
126365
126365
126361
126361
126361
126361
126361
126361
126361
126361
126361
126361
126361
126361
126361
126361
126361
126361
126361
126361
126361
126361
126361
126361
126362
126362
126362
126362
126362
126362
126362
126362
126362
126362
126362
126363
126363
126363
126363
126363
126363
126363
126364
126364
126364
126364
126364
126364
126364
126364
126365
126365
126361
126361
126361
126361
126361
126361
126361
126361
126361
126361
126361
126361
126361
126361
126361
126361
126361
126361
126361
126361
126361
126361
126362
126362
126362
126362
126362
126362
126362
126362
126362
126362
126362
126363
126363
126363
126363
126363
126363
126363
126364
126364
126364
126364
126364
126364
126364
126364
126365
126365
126361
126361
126361
126361
126361
126361
126361
126361
126361
126361
126361
126361
126361
126361
126361
126361
126361
126361
126361
126361
126361
126361
126361
126362
126362
126362
126362
126362
126362
126362
126362
126362
126362
126362
126363
126363
126363
126363
126363
126363
126364
126364
126364
126364
126364
126364
126364
126364
126364
126365
126361
126361
126361
126361
126361
126361
126361
126361
126361
126361
126361
126361
126361
126361
126361
126361
126361
126361
126361
126361
126361
126361
126361
126362
126362
126362
126362
126362
126362
126362
126362
126362
126362
126362
126363
126363
126363
126363
126363
126363
126363
126364
126364
126364
126364
126364
126364
126364
126364
126365
126361
126361
126361
126361
126361
126361
126361
126361
126361
126361
126361
126361
126361
126361
126361
126361
126361
126361
126361
126361
126361
126361
126361
126362
126362
126362
126362
126362
126362
126362
126362
126362
126362
126362
126363
126363
126363
126363
126363
126363
126363
126364
126364
126364
126364
126364
126364
126364
126364
126365
126361
126361
126361
126361
126361
126361
126361
126361
126361
126361
126361
126361
126361
126361
126361
126361
126361
126361
126361
126361
126361
126361
126361
126361
126362
126362
126362
126362
126362
126362
126362
126362
126362
126362
126363
126363
126363
126363
126363
126363
126363
126364
126364
126364
126364
126364
126364
126364
126364
126365
126361
126361
126361
126361
126361
126361
126361
126361
126361
126361
126361
126361
126361
126361
126361
126361
126361
126361
126361
126361
126361
126361
126361
126361
126362
126362
126362
126362
126362
126362
126362
126362
126362
126362
126363
126363
126363
126363
126363
126363
126363
126364
126364
126364
126364
126364
126364
126364
126364
126365
126361
126361
126361
126361
126361
126361
126361
126361
126361
126361
126361
126361
126361
126361
126361
126361
126361
126361
126361
126361
126361
126361
126361
126361
126362
126362
126362
126362
126362
126362
126362
126362
126362
126362
126362
126363
126363
126363
126363
126363
126363
126364
126364
126364
126364
126364
126364
126364
126364
126365
126361
126362
126362
126362
126362
126362
126361
126361
126361
126361
126361
126361
126361
126361
126361
126361
126361
126361
126361
126361
126361
126361
126361
126361
126362
126362
126362
126362
126362
126362
126362
126362
126362
126362
126362
126363
126363
126363
126363
126363
126363
126364
126364
126364
126364
126364
126364
126364
126364
126365
126361
126361
126361
126361
126361
126361
126361
126361
126361
126361
126361
126361
126361
126361
126361
126361
126361
126361
126361
126361
126361
126361
126361
126361
126362
126362
126362
126362
126362
126362
126362
126362
126362
126362
126363
126363
126363
126363
126363
126363
126363
126364
126364
126364
126364
126364
126364
126364
126365
126365
126362
126362
126362
126362
126362
126362
126362
126361
126361
126361
126361
126361
126361
126361
126361
126361
126361
126361
126361
126361
126361
126361
126361
126362
126362
126362
126362
126362
126362
126362
126362
126362
126362
126363
126363
126363
126363
126363
126363
126363
126364
126364
126364
126364
126364
126364
126364
126365
126365
126365
124955
124998
125006
125032
125041
125054
125060
125065
125066
125066
125066
125066
125066
125071
125073
125087
125091
125122
125127
125181
124962
125005
125012
125037
125046
125058
125064
125068
125069
125068
125067
125068
125068
125073
125075
125088
125092
125124
125129
125186
124970
125012
125020
125044
125052
125064
125068
125072
125072
125071
125070
125071
125071
125076
125078
125093
125097
125130
125137
125195
124981
125022
125029
125052
125060
125071
125075
125077
125077
125075
125074
125074
125074
125080
125083
125100
125106
125142
125150
125209
124993
125033
125040
125063
125070
125080
125083
125085
125084
125081
125080
125080
125080
125085
125089
125107
125115
125152
125161
125221
125007
125046
125053
125075
125082
125091
125093
125094
125093
125090
125088
125088
125088
125093
125097
125115
125123
125161
125170
125231
125023
125062
125068
125089
125096
125104
125106
125106
125104
125101
125099
125099
125099
125104
125108
125126
125134
125172
125181
125242
125041
125079
125085
125105
125111
125119
125121
125121
125118
125114
125112
125112
125113
125118
125122
125140
125148
125186
125194
125255
125061
125098
125104
125123
125129
125136
125138
125137
125135
125131
125129
125128
125129
125134
125139
125157
125165
125203
125210
125271
125083
125119
125126
125144
125150
125156
125157
125157
125154
125150
125148
125147
125149
125153
125159
125176
125185
125223
125230
125289
125108
125143
125149
125167
125172
125178
125179
125179
125176
125172
125170
125169
125171
125175
125181
125198
125207
125245
125251
125310
125134
125168
125174
125191
125197
125203
125203
125203
125200
125196
125194
125194
125195
125200
125206
125223
125232
125269
125275
125333
125162
125196
125201
125218
125223
125229
125230
125229
125226
125223
125221
125220
125222
125226
125233
125249
125259
125295
125301
125358
125192
125225
125231
125246
125251
125257
125258
125257
125254
125251
125249
125249
125250
125255
125262
125278
125287
125323
125329
125384
125224
125255
125261
125276
125281
125286
125287
125286
125284
125281
125279
125279
125281
125285
125292
125308
125317
125352
125358
125412
125258
125288
125293
125308
125313
125317
125318
125318
125316
125313
125311
125311
125313
125317
125324
125339
125349
125383
125389
125441
125292
125321
125327
125341
125345
125350
125351
125350
125348
125346
125344
125344
125346
125351
125358
125372
125382
125415
125421
125471
125328
125356
125362
125375
125379
125384
125385
125384
125382
125380
125379
125379
125381
125385
125392
125407
125416
125448
125454
125502
125366
125392
125398
125410
125414
125419
125419
125419
125417
125415
125414
125414
125416
125421
125428
125442
125452
125482
125488
125535
125404
125430
125435
125446
125451
125454
125455
125454
125453
125451
125450
125450
125452
125457
125464
125478
125488
125517
125522
125568
125443
125468
125473
125484
125487
125491
125491
125491
125489
125487
125486
125487
125489
125494
125501
125514
125524
125553
125558
125601
125484
125507
125511
125521
125525
125528
125529
125528
125526
125524
125524
125524
125526
125531
125539
125551
125562
125589
125594
125636
125524
125546
125550
125560
125563
125566
125566
125565
125564
125562
125561
125562
125564
125569
125577
125589
125599
125626
125631
125670
125565
125586
125590
125599
125602
125604
125604
125603
125602
125600
125599
125600
125602
125607
125615
125627
125637
125663
125668
125706
125606
125626
125630
125638
125640
125642
125642
125641
125640
125638
125637
125638
125641
125646
125653
125665
125676
125700
125705
125741
125648
125666
125670
125677
125679
125681
125681
125680
125678
125677
125676
125677
125680
125685
125692
125704
125714
125737
125742
125776
125689
125706
125709
125716
125718
125720
125719
125718
125716
125715
125715
125716
125718
125723
125731
125742
125752
125774
125780
125812
125730
125746
125749
125755
125757
125758
125758
125756
125755
125754
125753
125754
125757
125762
125769
125780
125791
125811
125817
125847
125770
125785
125788
125794
125795
125796
125796
125795
125793
125792
125792
125793
125796
125801
125808
125818
125829
125848
125853
125882
125810
125824
125827
125832
125834
125834
125834
125833
125831
125830
125830
125831
125834
125839
125846
125856
125866
125885
125890
125916
125850
125862
125865
125870
125871
125872
125871
125870
125869
125868
125868
125869
125872
125877
125884
125893
125903
125921
125926
125950
125888
125900
125902
125907
125908
125909
125908
125907
125906
125905
125905
125907
125909
125914
125921
125930
125940
125956
125961
125983
125926
125936
125939
125943
125944
125944
125944
125943
125942
125942
125942
125943
125946
125951
125958
125966
125975
125990
125995
126016
125962
125972
125974
125978
125979
125979
125979
125979
125978
125977
125978
125979
125982
125987
125993
126001
126010
126024
126028
126048
125997
126006
126008
126011
126013
126013
126013
126013
126012
126012
126013
126014
126017
126022
126028
126036
126044
126057
126061
126078
126030
126038
126040
126044
126045
126046
126046
126046
126046
126046
126047
126048
126051
126055
126061
126068
126076
126088
126092
126108
126062
126069
126072
126075
126076
126077
126078
126078
126078
126078
126079
126081
126084
126088
126093
126100
126107
126118
126121
126136
126092
126099
126101
126104
126106
126107
126108
126108
126108
126109
126110
126112
126115
126119
126124
126130
126137
126146
126149
126162
126120
126127
126129
126132
126134
126135
126136
126137
126137
126138
126139
126141
126144
126148
126152
126158
126164
126173
126176
126187
126147
126153
126155
126158
126160
126162
126163
126164
126165
126166
126167
126169
126172
126175
126179
126184
126190
126197
126200
126210
126172
126177
126179
126182
126184
126186
126188
126189
126190
126191
126193
126195
126197
126200
126204
126209
126214
126220
126223
126232
126194
126199
126201
126204
126207
126209
126211
126212
126214
126215
126217
126219
126221
126224
126227
126231
126236
126241
126244
126251
126215
126220
126222
126225
126227
126230
126232
126234
126235
126237
126239
126241
126243
126245
126248
126252
126256
126261
126262
126269
126234
126239
126241
126244
126246
126249
126251
126253
126255
126257
126259
126260
126262
126265
126267
126270
126274
126278
126279
126285
126251
126255
126258
126261
126263
126266
126269
126271
126273
126275
126277
126278
126280
126282
126284
126287
126290
126293
126294
126299
126267
126271
126273
126276
126279
126282
126284
126287
126289
126291
126293
126294
126296
126297
126299
126302
126304
126307
126308
126312
126281
126284
126286
126290
126292
126295
126298
126301
126303
126305
126307
126308
126310
126311
126313
126314
126316
126318
126319
126323
126293
126297
126299
126302
126305
126308
126311
126313
126315
126317
126319
126320
126322
126323
126324
126326
126327
126329
126329
126332
126304
126307
126309
126313
126315
126319
126321
126324
126326
126328
126330
126331
126332
126333
126334
126335
126336
126338
126338
126341
126314
126317
126319
126322
126325
126328
126331
126333
126336
126337
126339
126340
126341
126342
126343
126343
126344
126345
126346
126348
126322
126325
126327
126330
126333
126336
126339
126341
126344
126345
126347
126348
126349
126349
126350
126350
126351
126352
126352
126354
126330
126333
126334
126337
126340
126343
126346
126348
126350
126352
126353
126354
126355
126355
126356
126356
126357
126357
126357
126359
126336
126339
126341
126344
126346
126349
126352
126354
126356
126358
126359
126360
126360
126361
126361
126361
126361
126362
126362
126363
126342
126345
126346
126349
126352
126354
126357
126359
126361
126362
126364
126364
126365
126365
126365
126365
126365
126366
126366
126367
126347
126350
126351
126354
126356
126359
126361
126363
126365
126366
126367
126368
126368
126368
126368
126368
126368
126369
126369
126370
126351
126354
126355
126358
126360
126362
126364
126367
126368
126369
126370
126371
126371
126371
126371
126371
126371
126371
126371
126372
126355
126357
126358
126361
126363
126365
126367
126369
126371
126372
126373
126373
126373
126373
126373
126373
126373
126373
126373
126374
126358
126360
126361
126364
126366
126368
126370
126371
126373
126374
126375
126375
126375
126375
126375
126375
126375
126375
126375
126375
126361
126363
126364
126366
126368
126370
126372
126373
126374
126375
126376
126376
126376
126376
126376
126376
126376
126376
126376
126377
126363
126365
126366
126368
126370
126372
126373
126375
126376
126377
126377
126377
126377
126377
126377
126377
126377
126377
126377
126378
126365
126367
126368
126370
126371
126373
126374
126376
126377
126377
126378
126378
126378
126378
126378
126378
126378
126378
126378
126378
126366
126368
126369
126371
126372
126374
126375
126376
126377
126378
126378
126378
126379
126378
126378
126378
126378
126378
126378
126379
126368
126370
126371
126372
126374
126375
126376
126377
126378
126378
126379
126379
126379
126379
126379
126379
126379
126379
126379
126379
126369
126371
126372
126373
126374
126376
126377
126378
126378
126379
126379
126379
126379
126379
126379
126379
126379
126379
126379
126380
126370
126372
126373
126374
126375
126376
126377
126378
126378
126379
126379
126379
126379
126379
126379
126379
126379
126380
126380
126380
126371
126373
126373
126375
126376
126377
126377
126378
126379
126379
126379
126379
126379
126379
126379
126380
126380
126380
126380
126381
126372
126373
126374
126375
126376
126377
126378
126378
126379
126379
126379
126379
126379
126380
126380
126380
126380
126380
126380
126381
126372
126374
126375
126376
126377
126377
126378
126379
126379
126379
126379
126379
126379
126380
126380
126380
126380
126380
126381
126381
126373
126375
126375
126376
126377
126378
126378
126379
126379
126379
126379
126380
126380
126380
126380
126380
126380
126381
126381
126381
126374
126375
126376
126377
126377
126378
126379
126379
126379
126379
126380
126380
126380
126380
126380
126380
126380
126381
126381
126381
126374
126376
126376
126377
126378
126378
126379
126379
126379
126380
126380
126380
126380
126380
126380
126380
126381
126381
126381
126382
126375
126376
126377
126378
126378
126379
126379
126379
126380
126380
126380
126380
126380
126380
126380
126381
126381
126381
126381
126382
126376
126377
126377
126378
126379
126379
126380
126380
126380
126380
126380
126380
126380
126380
126381
126381
126381
126381
126382
126382
126376
126378
126378
126379
126379
126380
126380
126380
126380
126380
126380
126380
126381
126381
126381
126381
126381
126382
126382
126383
126377
126378
126379
126379
126380
126380
126380
126381
126381
126381
126381
126381
126381
126381
126381
126382
126382
126382
126382
126383
126378
126379
126379
126380
126380
126381
126381
126381
126381
126381
126381
126381
126381
126382
126382
126382
126382
126383
126383
126383
126379
126380
126380
126381
126381
126381
126382
126382
126382
126382
126382
126382
126382
126382
126382
126382
126383
126383
126383
126384
126380
126381
126381
126382
126382
126382
126382
126382
126382
126382
126382
126382
126382
126383
126383
126383
126383
126384
126384
126385
126381
126382
126382
126383
126383
126383
126383
126383
126383
126383
126383
126383
126383
126383
126383
126384
126384
126384
126385
126385
126382
126383
126383
126384
126384
126384
126384
126384
126384
126384
126384
126384
126384
126384
126384
126384
126385
126385
126385
126386
126383
126384
126384
126385
126385
126385
126384
126384
126384
126384
126384
126384
126384
126385
126385
126385
126385
126386
126386
126387
126385
126385
126385
126386
126386
126385
126385
126385
126385
126385
126385
126385
126385
126385
126386
126386
126386
126387
126387
126388
126386
126387
126387
126387
126387
126387
126386
126386
126386
126386
126386
126386
126386
126386
126387
126387
126387
126388
126388
126388
126387
126388
126388
126388
126388
126388
126387
126387
126387
126387
126387
126387
126387
126387
126388
126388
126388
126389
126389
126389
126389
126389
126389
126389
126389
126389
126388
126388
126388
126388
126388
126388
126388
126388
126389
126389
126389
126390
126390
126391
126390
126390
126390
126390
126390
126390
126389
126389
126389
126389
126389
126389
126389
126389
126390
126390
126390
126391
126391
126392
126391
126392
126392
126391
126391
126391
126391
126390
126390
126390
126390
126390
126390
126390
126391
126391
126392
126392
126392
126393
126393
126393
126393
126393
126392
126392
126392
126391
126391
126391
126391
126391
126391
126392
126392
126392
126393
126393
126394
126394
126394
126394
126394
126394
126393
126393
126393
126393
126392
126392
126392
126392
126393
126393
126393
126394
126394
126395
126395
126395
126395
126395
126395
126395
126394
126394
126394
126394
126394
126393
126393
126394
126394
126394
126395
126395
126396
126396
126396
126397
126396
126396
126396
126396
126395
126395
126395
126395
126395
126395
126395
126395
126395
126396
126396
126397
126397
126398
126398
126398
126396
126396
126396
126396
126396
126396
126396
126396
126396
126396
126396
126396
126396
126397
126397
126398
126398
126399
126399
126399
126397
126397
126397
126397
126397
126397
126397
126397
126397
126397
126397
126397
126397
126398
126399
126399
126400
126400
126400
126400
126397
126397
126397
126397
126397
126397
126397
126397
126397
126397
126398
126398
126398
126399
126400
126400
126401
126401
126401
126401
126398
126398
126398
126398
126398
126398
126398
126398
126398
126398
126398
126398
126399
126399
126400
126401
126401
126402
126402
126402
126398
126398
126398
126398
126398
126398
126398
126398
126398
126398
126399
126399
126399
126400
126400
126401
126402
126402
126402
126402
126398
126398
126398
126398
126398
126398
126398
126398
126398
126398
126399
126399
126399
126400
126400
126400
126401
126401
126402
126402
126398
126398
126398
126398
126398
126398
126398
126398
126398
126398
126399
126399
126399
126399
126400
126400
126400
126401
126401
126401
126398
126398
126398
126398
126398
126398
126398
126398
126398
126398
126399
126399
126399
126399
126399
126399
126400
126400
126400
126400
126397
126398
126398
126398
126398
126398
126398
126398
126398
126398
126398
126399
126399
126399
126399
126399
126399
126399
126399
126399
126397
126397
126397
126397
126398
126398
126398
126398
126398
126398
126398
126398
126398
126398
126398
126398
126398
126398
126398
126398
126397
126397
126397
126397
126397
126397
126397
126397
126398
126398
126398
126398
126398
126398
126398
126398
126398
126397
126397
126397
126397
126397
126397
126397
126397
126397
126397
126397
126397
126397
126397
126397
126398
126398
126397
126397
126397
126397
126396
126396
126396
126397
126397
126397
126397
126397
126397
126397
126397
126397
126397
126397
126397
126397
126397
126397
126397
126396
126396
126395
126396
126396
126396
126396
126396
126396
126397
126397
126397
126397
126397
126397
126397
126397
126396
126396
126396
126396
126395
126394
126396
126396
126396
126396
126396
126396
126396
126396
126396
126396
126396
126396
126396
126396
126396
126396
126395
126395
126394
126393
126395
126395
126395
126396
126396
126396
126396
126396
126396
126396
126396
126396
126396
126396
126395
126395
126395
126394
126393
126393
126395
126395
126395
126395
126395
126395