/*--------------------------------*- C++ -*----------------------------------*\
  =========                 |
  \\      /  F ield         | OpenFOAM: The Open Source CFD Toolbox
   \\    /   O peration     | Website:  https://openfoam.org
    \\  /    A nd           | Version:  8
     \\/     M anipulation  |
\*---------------------------------------------------------------------------*/
FoamFile
{
    version     2.0;
    format      ascii;
    class       volScalarField;
    location    "100";
    object      T;
}
// * * * * * * * * * * * * * * * * * * * * * * * * * * * * * * * * * * * * * //

dimensions      [0 0 0 1 0 0 0];

internalField   nonuniform List<scalar> 
8400
(
294.012
293.752
293.626
293.599
293.64
293.732
293.864
294.034
294.246
294.473
294.658
294.748
294.715
294.552
294.283
293.973
293.706
293.521
293.386
293.275
293.195
293.153
293.137
293.132
293.13
293.129
293.129
293.129
293.129
293.129
293.13
293.13
293.13
293.13
293.13
293.13
293.131
293.131
293.131
293.131
293.132
293.132
293.132
293.132
293.133
293.133
293.133
293.133
293.134
293.134
295.251
294.801
294.595
294.596
294.761
295.063
295.484
296.003
296.554
297.003
297.293
297.417
297.368
297.127
296.673
296.025
295.337
294.808
294.39
293.97
293.569
293.312
293.202
293.156
293.144
293.142
293.142
293.142
293.142
293.142
293.142
293.143
293.143
293.144
293.144
293.145
293.145
293.146
293.146
293.146
293.147
293.147
293.147
293.147
293.148
293.148
293.148
293.148
293.148
293.148
296.56
296.058
295.8
295.795
296.074
296.649
297.45
298.33
298.832
299.068
299.149
299.172
299.172
299.137
299.027
298.622
297.74
296.998
296.454
295.775
294.797
293.915
293.506
293.262
293.159
293.149
293.148
293.148
293.149
293.149
293.149
293.15
293.15
293.151
293.152
293.152
293.153
293.153
293.153
293.154
293.154
293.154
293.154
293.154
293.154
293.154
293.154
293.154
293.154
293.154
299.976
299.97
299.952
299.91
299.85
299.769
299.681
299.591
299.51
299.444
299.398
299.371
299.359
299.356
299.35
299.331
299.306
299.259
299.176
298.958
297.567
295.432
294.694
293.87
293.257
293.157
293.157
293.157
293.158
293.159
293.16
293.162
293.163
293.165
293.167
293.169
293.17
293.172
293.173
293.175
293.176
293.177
293.179
293.18
293.18
293.181
293.181
293.182
293.182
293.182
300.002
300.002
299.999
299.994
299.982
299.965
299.944
299.921
299.898
299.877
299.859
299.844
299.83
299.816
299.801
299.781
299.748
299.708
299.664
299.612
299.523
299.277
298.541
296.777
294.075
293.184
293.172
293.173
293.176
293.179
293.184
293.188
293.194
293.199
293.205
293.212
293.218
293.224
293.231
293.237
293.243
293.249
293.254
293.259
293.264
293.268
293.272
293.275
293.277
293.279
300.003
300.003
300.002
300.001
299.999
299.996
299.99
299.984
299.976
299.969
299.962
299.956
299.948
299.938
299.923
299.902
299.871
299.831
299.781
299.717
299.618
299.401
298.871
297.855
296.588
295.296
293.572
293.195
293.203
293.213
293.225
293.238
293.252
293.268
293.284
293.302
293.32
293.339
293.358
293.377
293.396
293.414
293.433
293.45
293.467
293.482
293.496
293.509
293.519
293.527
300.002
300.002
300.002
300.002
300.001
300
299.999
299.997
299.995
299.992
299.989
299.985
299.98
299.972
299.961
299.943
299.917
299.878
299.825
299.752
299.64
299.435
299.017
298.265
297.181
295.78
294.205
293.313
293.236
293.258
293.283
293.311
293.342
293.375
293.411
293.45
293.49
293.532
293.576
293.62
293.665
293.71
293.755
293.799
293.841
293.882
293.919
293.954
293.984
294.008
300.001
300.002
300.002
300.002
300.001
300.001
300.001
300
300
299.999
299.997
299.995
299.992
299.986
299.977
299.962
299.937
299.899
299.841
299.756
299.626
299.412
299.026
298.357
297.327
295.932
294.441
293.487
293.274
293.307
293.35
293.398
293.452
293.51
293.573
293.64
293.712
293.788
293.866
293.948
294.031
294.116
294.201
294.285
294.368
294.448
294.524
294.594
294.657
294.711
300.001
300.001
300.001
300.001
300.001
300.001
300.001
300.001
300.001
300
300
299.999
299.997
299.993
299.985
299.971
299.946
299.905
299.839
299.738
299.584
299.341
298.942
298.28
297.262
295.903
294.509
293.596
293.326
293.349
293.412
293.482
293.559
293.644
293.736
293.834
293.94
294.051
294.169
294.29
294.416
294.545
294.675
294.806
294.936
295.062
295.184
295.298
295.402
295.493
300.001
300.001
300.001
300.001
300.001
300.001
300.001
300.001
300.001
300.001
300.001
300
299.999
299.995
299.988
299.973
299.946
299.898
299.82
299.697
299.509
299.224
298.784
298.093
297.07
295.762
294.483
293.653
293.375
293.382
293.458
293.545
293.641
293.747
293.861
293.984
294.116
294.256
294.403
294.556
294.715
294.879
295.046
295.215
295.385
295.553
295.716
295.871
296.014
296.142
300
300
300.001
300.001
300.001
300.001
300.001
300.001
300.001
300.001
300.001
300
299.999
299.995
299.987
299.97
299.938
299.879
299.781
299.626
299.394
299.055
298.557
297.821
296.79
295.549
294.401
293.676
293.417
293.413
293.488
293.581
293.685
293.798
293.922
294.056
294.199
294.35
294.509
294.674
294.846
295.022
295.203
295.385
295.567
295.747
295.922
296.09
296.247
296.39
300
300
300
300.001
300.001
300.001
300.001
300.001
300.001
300.001
300.001
300
299.999
299.994
299.983
299.961
299.918
299.841
299.713
299.516
299.227
298.823
298.259
297.475
296.446
295.291
294.289
293.677
293.452
293.442
293.51
293.603
293.708
293.823
293.948
294.084
294.228
294.38
294.539
294.705
294.876
295.052
295.23
295.41
295.588
295.762
295.931
296.09
296.238
296.372
300.001
300
300.001
300.001
300.001
300.001
300.001
300.001
300.001
300
299.999
299.997
299.992
299.981
299.959
299.919
299.85
299.737
299.563
299.31
298.964
298.505
297.893
297.065
296.058
295.013
294.165
293.667
293.48
293.467
293.526
293.613
293.714
293.824
293.945
294.075
294.213
294.358
294.51
294.668
294.831
294.998
295.167
295.335
295.5
295.66
295.812
295.952
296.079
296.19
300.001
300
300
300
299.999
299.999
299.998
299.996
299.994
299.99
299.982
299.97
299.95
299.918
299.866
299.785
299.663
299.487
299.244
298.923
298.518
298.016
297.387
296.594
295.67
294.734
294.044
293.653
293.502
293.487
293.535
293.611
293.702
293.803
293.913
294.031
294.156
294.288
294.426
294.569
294.717
294.868
295.02
295.171
295.318
295.459
295.591
295.712
295.821
295.917
299.996
299.993
299.991
299.987
299.983
299.977
299.969
299.958
299.943
299.922
299.893
299.853
299.796
299.716
299.607
299.458
299.261
299.007
298.693
298.317
297.877
297.367
296.766
296.059
295.271
294.493
293.934
293.637
293.519
293.502
293.538
293.599
293.675
293.761
293.855
293.956
294.063
294.177
294.296
294.42
294.548
294.679
294.811
294.944
295.074
295.201
295.322
295.439
295.55
295.658
299.964
299.953
299.94
299.923
299.903
299.877
299.846
299.808
299.759
299.699
299.622
299.526
299.404
299.253
299.065
298.838
298.567
298.253
297.899
297.51
297.085
296.617
296.095
295.512
294.889
294.289
293.842
293.624
293.532
293.515
293.538
293.584
293.644
293.713
293.791
293.875
293.965
294.062
294.165
294.274
294.388
294.507
294.631
294.758
294.89
295.024
295.161
295.303
295.449
295.602
299.863
299.829
299.788
299.74
299.683
299.616
299.536
299.443
299.333
299.204
299.054
298.879
298.677
298.446
298.187
297.901
297.592
297.265
296.927
296.579
296.22
295.843
295.439
295.003
294.549
294.113
293.773
293.617
293.549
293.534
293.55
293.587
293.639
293.702
293.774
293.856
293.947
294.047
294.157
294.275
294.402
294.538
294.684
294.839
295.003
295.177
295.36
295.552
295.753
295.961
299.655
299.58
299.494
299.392
299.275
299.141
298.989
298.816
298.622
298.407
298.17
297.913
297.639
297.35
297.053
296.754
296.459
296.174
295.902
295.641
295.384
295.123
294.851
294.563
294.265
293.974
293.729
293.626
293.585
293.585
293.613
293.664
293.733
293.82
293.923
294.041
294.173
294.319
294.477
294.647
294.828
295.019
295.219
295.428
295.644
295.867
296.095
296.327
296.559
296.79
299.338
299.21
299.063
298.895
298.704
298.49
298.253
297.994
297.714
297.417
297.108
296.791
296.475
296.168
295.877
295.61
295.372
295.164
294.983
294.822
294.672
294.525
294.373
294.214
294.047
293.878
293.722
293.678
293.686
293.733
293.814
293.926
294.066
294.231
294.419
294.626
294.847
295.081
295.323
295.571
295.821
296.072
296.321
296.567
296.809
297.044
297.27
297.487
297.692
297.882
298.938
298.757
298.552
298.321
298.064
297.783
297.479
297.157
296.821
296.479
296.137
295.806
295.495
295.211
294.963
294.753
294.583
294.449
294.344
294.26
294.188
294.121
294.055
293.986
293.915
293.842
293.778
293.829
293.942
294.105
294.313
294.56
294.837
295.138
295.453
295.775
296.096
296.41
296.714
297.003
297.275
297.529
297.764
297.979
298.174
298.351
298.509
298.649
298.77
298.874
303.149
303.147
303.146
303.144
303.142
303.141
303.139
303.138
303.136
303.135
303.133
303.132
303.13
303.129
303.127
303.126
303.124
303.123
303.122
303.12
303.119
303.118
303.116
303.115
303.114
303.113
303.112
303.11
303.109
303.108
303.107
303.106
303.105
303.104
303.103
303.102
303.101
303.1
303.099
303.098
303.097
303.096
303.095
303.094
303.094
303.093
303.092
303.091
303.09
303.089
303.15
303.15
303.15
303.15
303.15
303.15
303.15
303.15
303.149
303.149
303.149
303.149
303.149
303.149
303.149
303.148
303.148
303.148
303.148
303.148
303.147
303.147
303.147
303.146
303.146
303.146
303.145
303.145
303.144
303.144
303.143
303.143
303.143
303.142
303.142
303.141
303.141
303.14
303.14
303.14
303.139
303.139
303.138
303.138
303.137
303.137
303.137
303.136
303.135
303.134
303.15
303.15
303.15
303.15
303.15
303.15
303.15
303.15
303.15
303.15
303.15
303.15
303.15
303.15
303.15
303.15
303.15
303.15
303.15
303.15
303.15
303.15
303.15
303.15
303.15
303.15
303.149
303.149
303.149
303.149
303.149
303.149
303.149
303.149
303.149
303.149
303.148
303.148
303.148
303.148
303.148
303.148
303.148
303.147
303.147
303.147
303.147
303.146
303.146
303.145
303.15
303.15
303.15
303.15
303.15
303.15
303.15
303.15
303.15
303.15
303.15
303.15
303.15
303.15
303.15
303.15
303.15
303.15
303.15
303.15
303.15
303.15
303.15
303.15
303.15
303.15
303.15
303.15
303.15
303.15
303.15
303.15
303.15
303.15
303.15
303.15
303.15
303.15
303.15
303.15
303.15
303.15
303.15
303.149
303.149
303.149
303.149
303.149
303.148
303.148
303.15
303.15
303.15
303.15
303.15
303.15
303.15
303.15
303.15
303.15
303.15
303.15
303.15
303.15
303.15
303.15
303.15
303.15
303.15
303.15
303.15
303.15
303.15
303.15
303.15
303.15
303.15
303.15
303.15
303.15
303.15
303.15
303.15
303.15
303.15
303.15
303.15
303.15
303.15
303.15
303.15
303.15
303.15
303.15
303.15
303.15
303.149
303.149
303.149
303.148
303.15
303.15
303.15
303.15
303.15
303.15
303.15
303.15
303.15
303.15
303.15
303.15
303.15
303.15
303.15
303.15
303.15
303.15
303.15
303.15
303.15
303.15
303.15
303.15
303.15
303.15
303.15
303.15
303.15
303.15
303.15
303.15
303.15
303.15
303.15
303.15
303.15
303.15
303.15
303.15
303.15
303.15
303.15
303.15
303.15
303.15
303.15
303.149
303.149
303.148
303.15
303.15
303.15
303.15
303.15
303.15
303.15
303.15
303.15
303.15
303.15
303.15
303.15
303.15
303.15
303.15
303.15
303.15
303.15
303.15
303.15
303.15
303.15
303.15
303.15
303.15
303.15
303.15
303.15
303.15
303.15
303.15
303.15
303.15
303.15
303.15
303.15
303.15
303.15
303.15
303.15
303.15
303.15
303.15
303.15
303.15
303.149
303.149
303.149
303.148
303.15
303.15
303.15
303.15
303.15
303.15
303.15
303.15
303.15
303.15
303.15
303.15
303.15
303.15
303.15
303.15
303.15
303.15
303.15
303.15
303.15
303.15
303.15
303.15
303.15
303.15
303.15
303.15
303.15
303.15
303.15
303.15
303.15
303.15
303.15
303.15
303.15
303.15
303.15
303.15
303.15
303.15
303.15
303.15
303.15
303.15
303.149
303.149
303.149
303.148
303.15
303.15
303.15
303.15
303.15
303.15
303.15
303.15
303.15
303.15
303.15
303.15
303.15
303.15
303.15
303.15
303.15
303.15
303.15
303.15
303.15
303.15
303.15
303.15
303.15
303.15
303.15
303.15
303.15
303.15
303.15
303.15
303.15
303.15
303.15
303.15
303.15
303.15
303.15
303.15
303.15
303.15
303.15
303.15
303.15
303.15
303.149
303.149
303.149
303.148
303.15
303.15
303.15
303.15
303.15
303.15
303.15
303.15
303.15
303.15
303.15
303.15
303.15
303.15
303.15
303.15
303.15
303.15
303.15
303.15
303.15
303.15
303.15
303.15
303.15
303.15
303.15
303.15
303.15
303.15
303.15
303.15
303.15
303.15
303.15
303.15
303.15
303.15
303.15
303.15
303.15
303.15
303.15
303.15
303.15
303.15
303.149
303.149
303.149
303.148
303.15
303.15
303.15
303.15
303.15
303.15
303.15
303.15
303.15
303.15
303.15
303.15
303.15
303.15
303.15
303.15
303.15
303.15
303.15
303.15
303.15
303.15
303.15
303.15
303.15
303.15
303.15
303.15
303.15
303.15
303.15
303.15
303.15
303.15
303.15
303.15
303.15
303.15
303.15
303.15
303.15
303.15
303.15
303.15
303.15
303.15
303.149
303.149
303.149
303.148
303.15
303.15
303.15
303.15
303.15
303.15
303.15
303.15
303.15
303.15
303.15
303.15
303.15
303.15
303.15
303.15
303.15
303.15
303.15
303.15
303.15
303.15
303.15
303.15
303.15
303.15
303.15
303.15
303.15
303.15
303.15
303.15
303.15
303.15
303.15
303.15
303.15
303.15
303.15
303.15
303.15
303.15
303.15
303.15
303.15
303.15
303.149
303.149
303.149
303.148
303.15
303.15
303.15
303.15
303.15
303.15
303.15
303.15
303.15
303.15
303.15
303.15
303.15
303.15
303.15
303.15
303.15
303.15
303.15
303.15
303.15
303.15
303.15
303.15
303.15
303.15
303.15
303.15
303.15
303.15
303.15
303.15
303.15
303.15
303.15
303.15
303.15
303.15
303.15
303.15
303.15
303.15
303.15
303.15
303.15
303.15
303.149
303.149
303.149
303.148
303.15
303.15
303.15
303.15
303.15
303.15
303.15
303.15
303.15
303.15
303.15
303.15
303.15
303.15
303.15
303.15
303.15
303.15
303.15
303.15
303.15
303.15
303.15
303.15
303.15
303.15
303.15
303.15
303.15
303.15
303.15
303.15
303.15
303.15
303.15
303.15
303.15
303.15
303.15
303.15
303.15
303.15
303.15
303.15
303.15
303.15
303.149
303.149
303.149
303.148
303.15
303.15
303.15
303.15
303.15
303.15
303.15
303.15
303.15
303.15
303.15
303.15
303.15
303.15
303.15
303.15
303.15
303.15
303.15
303.15
303.15
303.15
303.15
303.15
303.15
303.15
303.15
303.15
303.15
303.15
303.15
303.15
303.15
303.15
303.15
303.15
303.15
303.15
303.15
303.15
303.15
303.15
303.15
303.15
303.15
303.15
303.149
303.149
303.149
303.148
303.15
303.15
303.15
303.15
303.15
303.15
303.15
303.15
303.15
303.15
303.15
303.15
303.15
303.15
303.15
303.15
303.15
303.15
303.15
303.15
303.15
303.15
303.15
303.15
303.15
303.15
303.15
303.15
303.15
303.15
303.15
303.15
303.15
303.15
303.15
303.15
303.15
303.15
303.15
303.15
303.15
303.15
303.15
303.15
303.15
303.15
303.149
303.149
303.149
303.148
303.15
303.15
303.15
303.15
303.15
303.15
303.15
303.15
303.15
303.15
303.15
303.15
303.15
303.15
303.15
303.15
303.15
303.15
303.15
303.15
303.15
303.15
303.15
303.15
303.15
303.15
303.15
303.15
303.15
303.15
303.15
303.15
303.15
303.15
303.15
303.15
303.15
303.15
303.15
303.15
303.15
303.15
303.15
303.149
303.149
303.149
303.149
303.149
303.148
303.148
303.15
303.15
303.15
303.15
303.15
303.15
303.15
303.15
303.15
303.15
303.15
303.15
303.15
303.15
303.15
303.15
303.15
303.15
303.15
303.15
303.15
303.15
303.15
303.15
303.15
303.15
303.149
303.149
303.149
303.149
303.149
303.149
303.149
303.149
303.149
303.148
303.148
303.148
303.148
303.148
303.148
303.147
303.147
303.147
303.147
303.147
303.146
303.146
303.145
303.145
303.15
303.15
303.15
303.15
303.15
303.15
303.15
303.15
303.15
303.149
303.149
303.149
303.149
303.149
303.149
303.148
303.148
303.148
303.148
303.148
303.147
303.147
303.147
303.146
303.146
303.146
303.145
303.145
303.144
303.144
303.143
303.143
303.142
303.142
303.142
303.141
303.141
303.14
303.14
303.139
303.139
303.138
303.138
303.137
303.137
303.136
303.136
303.135
303.134
303.133
303.149
303.147
303.146
303.144
303.142
303.141
303.139
303.138
303.136
303.135
303.133
303.132
303.13
303.129
303.127
303.126
303.124
303.123
303.122
303.12
303.119
303.118
303.116
303.115
303.114
303.113
303.112
303.11
303.109
303.108
303.107
303.106
303.105
303.104
303.103
303.102
303.101
303.1
303.099
303.098
303.097
303.096
303.095
303.094
303.094
303.093
303.092
303.091
303.09
303.089
293.127
293.135
293.133
293.133
293.134
293.138
293.142
293.144
293.144
293.142
293.14
293.14
293.139
293.138
293.137
293.135
293.131
293.126
293.115
293.082
293.127
293.135
293.133
293.132
293.134
293.138
293.142
293.144
293.144
293.142
293.14
293.14
293.139
293.138
293.137
293.134
293.13
293.124
293.113
293.08
293.127
293.134
293.132
293.131
293.133
293.137
293.142
293.144
293.144
293.142
293.14
293.139
293.139
293.138
293.136
293.134
293.13
293.124
293.111
293.078
293.126
293.134
293.131
293.13
293.133
293.137
293.142
293.144
293.144
293.142
293.14
293.139
293.139
293.138
293.136
293.133
293.129
293.123
293.11
293.077
293.126
293.134
293.131
293.13
293.132
293.137
293.141
293.144
293.144
293.142
293.14
293.139
293.139
293.138
293.136
293.133
293.129
293.122
293.109
293.076
293.126
293.133
293.13
293.129
293.131
293.136
293.141
293.144
293.144
293.142
293.14
293.139
293.139
293.138
293.136
293.133
293.128
293.121
293.108
293.074
293.126
293.133
293.129
293.128
293.131
293.136
293.141
293.144
293.144
293.142
293.14
293.139
293.139
293.137
293.136
293.133
293.128
293.121
293.107
293.073
293.125
293.132
293.128
293.127
293.13
293.135
293.14
293.143
293.144
293.142
293.14
293.139
293.139
293.137
293.135
293.132
293.128
293.12
293.106
293.071
293.125
293.132
293.128
293.126
293.129
293.135
293.14
293.143
293.144
293.142
293.14
293.139
293.139
293.137
293.135
293.132
293.127
293.119
293.105
293.07
293.124
293.131
293.127
293.125
293.128
293.134
293.14
293.143
293.144
293.142
293.14
293.139
293.139
293.137
293.135
293.132
293.127
293.119
293.104
293.069
293.124
293.131
293.126
293.125
293.128
293.134
293.139
293.143
293.144
293.142
293.141
293.139
293.139
293.137
293.135
293.132
293.127
293.119
293.103
293.068
293.123
293.131
293.125
293.124
293.127
293.133
293.139
293.143
293.143
293.142
293.141
293.14
293.139
293.137
293.135
293.132
293.127
293.118
293.103
293.067
293.123
293.13
293.125
293.123
293.126
293.132
293.138
293.142
293.143
293.142
293.141
293.14
293.139
293.138
293.135
293.132
293.127
293.118
293.102
293.066
293.122
293.13
293.124
293.122
293.125
293.131
293.138
293.142
293.143
293.142
293.141
293.14
293.139
293.138
293.136
293.132
293.127
293.118
293.102
293.065
293.122
293.13
293.124
293.121
293.124
293.131
293.137
293.142
293.143
293.142
293.141
293.14
293.139
293.138
293.136
293.132
293.127
293.118
293.101
293.064
293.121
293.13
293.123
293.12
293.123
293.13
293.137
293.141
293.143
293.142
293.141
293.14
293.139
293.138
293.136
293.132
293.127
293.118
293.101
293.063
293.12
293.13
293.123
293.12
293.122
293.129
293.136
293.141
293.143
293.142
293.141
293.14
293.139
293.138
293.136
293.132
293.127
293.118
293.101
293.063
293.12
293.13
293.123
293.119
293.121
293.128
293.135
293.141
293.143
293.142
293.141
293.14
293.14
293.138
293.136
293.133
293.127
293.117
293.1
293.062
293.119
293.13
293.123
293.119
293.121
293.127
293.135
293.14
293.142
293.142
293.141
293.141
293.14
293.138
293.136
293.133
293.127
293.117
293.1
293.062
293.118
293.13
293.123
293.118
293.12
293.126
293.134
293.139
293.142
293.142
293.141
293.141
293.14
293.138
293.136
293.133
293.127
293.117
293.1
293.061
293.117
293.13
293.123
293.118
293.119
293.125
293.133
293.139
293.142
293.142
293.142
293.141
293.14
293.139
293.136
293.133
293.127
293.117
293.1
293.061
293.117
293.13
293.123
293.118
293.118
293.124
293.132
293.138
293.141
293.142
293.142
293.141
293.14
293.139
293.136
293.133
293.127
293.117
293.099
293.06
293.116
293.13
293.124
293.118
293.118
293.123
293.131
293.137
293.141
293.142
293.142
293.141
293.14
293.139
293.136
293.133
293.127
293.117
293.099
293.06
293.115
293.131
293.125
293.118
293.117
293.122
293.13
293.136
293.14
293.142
293.141
293.141
293.14
293.139
293.136
293.133
293.127
293.117
293.099
293.06
293.114
293.131
293.125
293.118
293.117
293.121
293.129
293.135
293.14
293.141
293.141
293.141
293.14
293.139
293.136
293.133
293.127
293.117
293.099
293.06
293.113
293.131
293.126
293.119
293.116
293.12
293.127
293.134
293.139
293.141
293.141
293.141
293.14
293.139
293.136
293.133
293.127
293.117
293.098
293.06
293.112
293.131
293.127
293.12
293.116
293.119
293.126
293.133
293.138
293.14
293.141
293.141
293.14
293.138
293.136
293.132
293.126
293.116
293.098
293.06
293.111
293.132
293.128
293.12
293.116
293.118
293.125
293.132
293.137
293.14
293.14
293.14
293.14
293.138
293.136
293.132
293.126
293.116
293.098
293.06
293.11
293.132
293.129
293.121
293.116
293.117
293.123
293.13
293.136
293.139
293.14
293.14
293.139
293.138
293.136
293.132
293.126
293.116
293.098
293.06
293.109
293.132
293.129
293.122
293.116
293.116
293.122
293.129
293.135
293.138
293.139
293.139
293.139
293.138
293.135
293.131
293.125
293.115
293.097
293.06
293.108
293.132
293.13
293.123
293.117
293.116
293.12
293.127
293.133
293.137
293.139
293.139
293.138
293.137
293.135
293.131
293.125
293.115
293.097
293.06
293.107
293.132
293.131
293.124
293.117
293.115
293.119
293.125
293.132
293.136
293.138
293.138
293.138
293.136
293.134
293.13
293.124
293.114
293.096
293.06
293.106
293.132
293.132
293.125
293.118
293.114
293.117
293.123
293.13
293.134
293.137
293.137
293.137
293.136
293.133
293.129
293.123
293.113
293.096
293.06
293.105
293.132
293.133
293.126
293.118
293.114
293.116
293.121
293.128
293.133
293.135
293.136
293.136
293.135
293.132
293.129
293.122
293.112
293.095
293.06
293.104
293.132
293.133
293.127
293.119
293.114
293.114
293.119
293.126
293.131
293.134
293.135
293.135
293.134
293.131
293.128
293.121
293.111
293.094
293.06
293.103
293.132
293.134
293.129
293.12
293.114
293.113
293.117
293.124
293.129
293.132
293.133
293.133
293.132
293.13
293.126
293.12
293.11
293.093
293.059
293.102
293.131
293.135
293.13
293.122
293.114
293.112
293.115
293.121
293.127
293.13
293.132
293.132
293.131
293.129
293.125
293.119
293.109
293.093
293.059
293.101
293.131
293.135
293.131
293.123
293.115
293.111
293.113
293.119
293.124
293.128
293.13
293.13
293.129
293.127
293.124
293.118
293.108
293.092
293.059
293.099
293.13
293.135
293.132
293.124
293.115
293.11
293.111
293.116
293.122
293.126
293.128
293.128
293.127
293.126
293.122
293.116
293.107
293.091
293.059
293.098
293.13
293.136
293.133
293.126
293.117
293.11
293.109
293.113
293.119
293.123
293.126
293.126
293.125
293.124
293.12
293.114
293.105
293.089
293.058
293.097
293.129
293.136
293.135
293.128
293.118
293.11
293.107
293.11
293.116
293.121
293.123
293.124
293.123
293.122
293.118
293.113
293.104
293.088
293.057
293.096
293.129
293.136
293.136
293.13
293.12
293.111
293.106
293.108
293.113
293.118
293.12
293.121
293.121
293.119
293.116
293.111
293.102
293.087
293.057
293.095
293.128
293.136
293.136
293.132
293.122
293.112
293.105
293.105
293.11
293.115
293.118
293.119
293.119
293.117
293.114
293.109
293.1
293.085
293.056
293.093
293.127
293.136
293.137
293.133
293.125
293.114
293.105
293.103
293.106
293.111
293.115
293.116
293.116
293.115
293.112
293.107
293.098
293.084
293.055
293.092
293.126
293.136
293.138
293.135
293.127
293.116
293.106
293.101
293.103
293.108
293.112
293.113
293.113
293.112
293.109
293.104
293.096
293.082
293.053
293.091
293.126
293.135
293.138
293.136
293.13
293.119
293.107
293.1
293.1
293.104
293.108
293.11
293.11
293.109
293.107
293.102
293.094
293.08
293.052
293.09
293.125
293.135
293.138
293.137
293.132
293.122
293.11
293.1
293.098
293.101
293.105
293.107
293.107
293.107
293.104
293.1
293.092
293.078
293.05
293.09
293.124
293.134
293.138
293.138
293.134
293.126
293.113
293.101
293.096
293.098
293.101
293.104
293.104
293.104
293.101
293.097
293.09
293.076
293.048
293.089
293.123
293.134
293.138
293.138
293.136
293.129
293.116
293.103
293.095
293.095
293.098
293.1
293.101
293.101
293.099
293.095
293.087
293.074
293.046
293.088
293.123
293.133
293.137
293.138
293.137
293.132
293.121
293.106
293.095
293.092
293.094
293.097
293.098
293.098
293.096
293.092
293.085
293.072
293.043
293.088
293.122
293.133
293.137
293.138
293.138
293.134
293.125
293.11
293.096
293.09
293.091
293.093
293.094
293.094
293.093
293.089
293.082
293.069
293.04
293.088
293.121
293.132
293.136
293.138
293.138
293.136
293.129
293.115
293.098
293.089
293.088
293.09
293.091
293.091
293.09
293.086
293.079
293.066
293.037
293.088
293.121
293.132
293.136
293.137
293.138
293.137
293.132
293.12
293.102
293.089
293.086
293.087
293.088
293.088
293.087
293.083
293.076
293.063
293.034
293.088
293.121
293.131
293.135
293.137
293.138
293.137
293.134
293.124
293.107
293.091
293.084
293.084
293.085
293.085
293.084
293.08
293.074
293.061
293.03
293.088
293.12
293.131
293.135
293.136
293.137
293.137
293.136
293.129
293.113
293.094
293.083
293.082
293.083
293.083
293.081
293.078
293.071
293.058
293.026
293.089
293.12
293.131
293.134
293.136
293.136
293.137
293.136
293.132
293.119
293.098
293.084
293.081
293.081
293.08
293.079
293.075
293.068
293.055
293.022
293.089
293.12
293.131
293.134
293.135
293.136
293.136
293.136
293.134
293.125
293.104
293.085
293.08
293.079
293.078
293.077
293.073
293.066
293.052
293.018
293.09
293.121
293.13
293.134
293.135
293.135
293.136
293.136
293.135
293.129
293.111
293.088
293.08
293.079
293.077
293.075
293.071
293.064
293.049
293.014
293.091
293.121
293.13
293.133
293.134
293.134
293.135
293.135
293.136
293.132
293.117
293.092
293.082
293.079
293.077
293.074
293.07
293.062
293.047
293.01
293.092
293.121
293.13
293.133
293.133
293.134
293.134
293.135
293.135
293.134
293.123
293.097
293.084
293.08
293.077
293.074
293.069
293.061
293.045
293.007
293.093
293.122
293.13
293.132
293.133
293.133
293.133
293.134
293.135
293.135
293.128
293.103
293.087
293.082
293.078
293.074
293.069
293.06
293.044
293.003
293.094
293.122
293.13
293.132
293.132
293.132
293.133
293.134
293.135
293.135
293.131
293.109
293.092
293.085
293.08
293.075
293.069
293.06
293.043
293
293.096
293.123
293.13
293.131
293.131
293.132
293.132
293.133
293.134
293.135
293.133
293.116
293.097
293.088
293.082
293.077
293.071
293.061
293.043
292.997
293.097
293.124
293.13
293.131
293.131
293.131
293.132
293.133
293.134
293.135
293.134
293.122
293.103
293.092
293.086
293.08
293.073
293.062
293.043
292.995
293.099
293.124
293.13
293.13
293.13
293.13
293.131
293.133
293.134
293.136
293.135
293.127
293.11
293.098
293.09
293.083
293.075
293.065
293.045
292.994
293.1
293.125
293.13
293.13
293.129
293.13
293.131
293.133
293.134
293.136
293.136
293.131
293.117
293.103
293.094
293.087
293.079
293.068
293.047
292.994
293.102
293.125
293.129
293.129
293.129
293.129
293.131
293.133
293.135
293.136
293.136
293.133
293.123
293.109
293.099
293.091
293.082
293.071
293.05
292.994
293.103
293.126
293.129
293.129
293.128
293.129
293.131
293.133
293.135
293.137
293.137
293.135
293.127
293.115
293.105
293.096
293.087
293.076
293.054
292.996
293.105
293.126
293.129
293.128
293.128
293.129
293.131
293.133
293.136
293.137
293.137
293.136
293.13
293.121
293.11
293.101
293.092
293.08
293.059
292.998
293.106
293.127
293.128
293.127
293.127
293.129
293.131
293.134
293.136
293.138
293.138
293.136
293.133
293.125
293.115
293.106
293.096
293.085
293.064
293.002
293.108
293.127
293.128
293.127
293.127
293.129
293.132
293.135
293.137
293.138
293.138
293.137
293.134
293.128
293.12
293.111
293.101
293.09
293.07
293.006
293.11
293.127
293.127
293.126
293.127
293.129
293.132
293.135
293.138
293.139
293.139
293.137
293.135
293.131
293.124
293.115
293.106
293.096
293.075
293.011
293.111
293.127
293.127
293.126
293.127
293.129
293.133
293.136
293.138
293.139
293.139
293.138
293.136
293.133
293.127
293.12
293.111
293.101
293.081
293.016
293.113
293.127
293.126
293.125
293.127
293.13
293.133
293.136
293.139
293.139
293.139
293.138
293.136
293.134
293.13
293.123
293.115
293.105
293.086
293.022
293.114
293.127
293.126
293.125
293.127
293.13
293.134
293.137
293.139
293.14
293.139
293.138
293.137
293.135
293.132
293.126
293.119
293.11
293.092
293.028
293.116
293.127
293.125
293.125
293.127
293.131
293.135
293.138
293.139
293.14
293.139
293.138
293.137
293.136
293.134
293.129
293.122
293.114
293.097
293.034
293.117
293.126
293.125
293.125
293.127
293.131
293.135
293.138
293.14
293.14
293.139
293.138
293.137
293.137
293.135
293.131
293.125
293.117
293.101
293.04
293.118
293.126
293.124
293.125
293.128
293.132
293.136
293.138
293.14
293.14
293.139
293.138
293.137
293.137
293.136
293.133
293.128
293.121
293.105
293.046
293.12
293.126
293.124
293.125
293.128
293.133
293.136
293.139
293.14
293.14
293.139
293.138
293.138
293.137
293.137
293.134
293.13
293.123
293.109
293.051
293.121
293.126
293.124
293.125
293.129
293.133
293.137
293.139
293.14
293.14
293.139
293.138
293.138
293.138
293.137
293.135
293.132
293.126
293.112
293.056
293.122
293.126
293.124
293.125
293.129
293.134
293.137
293.139
293.14
293.14
293.139
293.139
293.138
293.138
293.138
293.136
293.133
293.128
293.115
293.061
293.124
293.126
293.124
293.126
293.13
293.134
293.138
293.139
293.14
293.14
293.139
293.139
293.138
293.138
293.138
293.137
293.134
293.129
293.117
293.065
293.125
293.126
293.124
293.126
293.13
293.135
293.138
293.139
293.14
293.139
293.139
293.139
293.139
293.138
293.138
293.137
293.135
293.13
293.118
293.068
293.127
293.127
293.125
293.127
293.131
293.135
293.138
293.139
293.14
293.139
293.139
293.139
293.139
293.139
293.138
293.138
293.136
293.131
293.119
293.071
293.129
293.128
293.125
293.127
293.131
293.135
293.138
293.139
293.139
293.139
293.139
293.139
293.139
293.139
293.139
293.138
293.136
293.132
293.12
293.074
293.131
293.129
293.126
293.128
293.132
293.136
293.138
293.139
293.139
293.139
293.139
293.139
293.139
293.139
293.139
293.138
293.136
293.132
293.12
293.076
293.134
293.13
293.127
293.129
293.133
293.136
293.138
293.139
293.139
293.139
293.139
293.139
293.139
293.139
293.138
293.138
293.136
293.132
293.12
293.077
293.137
293.133
293.129
293.13
293.134
293.136
293.138
293.139
293.139
293.138
293.138
293.138
293.138
293.138
293.138
293.137
293.135
293.131
293.119
293.078
293.142
293.135
293.131
293.132
293.135
293.137
293.138
293.139
293.138
293.138
293.138
293.138
293.138
293.138
293.138
293.137
293.135
293.13
293.118
293.079
293.147
293.139
293.134
293.134
293.136
293.138
293.139
293.139
293.138
293.138
293.137
293.137
293.137
293.137
293.137
293.136
293.134
293.129
293.116
293.079
293.154
293.145
293.138