/*--------------------------------*- C++ -*----------------------------------*\
  =========                 |
  \\      /  F ield         | OpenFOAM: The Open Source CFD Toolbox
   \\    /   O peration     | Website:  https://openfoam.org
    \\  /    A nd           | Version:  8
     \\/     M anipulation  |
\*---------------------------------------------------------------------------*/
FoamFile
{
    version     2.0;
    format      ascii;
    class       volVectorField;
    location    "100";
    object      U;
}
// * * * * * * * * * * * * * * * * * * * * * * * * * * * * * * * * * * * * * //

dimensions      [0 1 -1 0 0 0 0];

internalField   nonuniform List<vector> 
8400
(
(-12.8933 -0.140426 1.19866e-18)
(-12.8821 -0.0795108 8.5651e-19)
(-13.0995 -0.0210749 5.13301e-19)
(-13.3611 0.00508924 -2.57773e-19)
(-13.6424 0.0044601 -7.40342e-19)
(-13.8847 -0.0292969 -8.17401e-19)
(-14.0109 -0.104796 -1.11848e-18)
(-13.9294 -0.226838 -1.42621e-18)
(-13.5413 -0.389599 -1.75243e-18)
(-12.8546 -0.571825 -2.52998e-18)
(-11.9313 -0.736351 -2.9465e-18)
(-10.8078 -0.849696 -2.90267e-18)
(-9.54588 -0.890165 -3.31915e-18)
(-8.24549 -0.849005 -3.85491e-18)
(-7.02459 -0.736076 -4.56888e-18)
(-5.99026 -0.582853 -5.85802e-18)
(-5.19489 -0.434493 -7.29333e-18)
(-4.59834 -0.324615 -8.41276e-18)
(-4.10009 -0.264323 -1.01731e-17)
(-3.63131 -0.239301 -1.25093e-17)
(-3.18543 -0.225894 -1.55088e-17)
(-2.78447 -0.210823 -1.91255e-17)
(-2.446 -0.185679 -2.32789e-17)
(-2.17568 -0.144605 -2.79863e-17)
(-1.98069 -0.0961733 -3.28489e-17)
(-1.8641 -0.0515528 -3.69275e-17)
(-1.82166 -0.0160108 -3.91343e-17)
(-1.84059 0.0112105 -3.97964e-17)
(-1.90808 0.0305342 -4.09454e-17)
(-2.00967 0.0427155 -4.19814e-17)
(-2.13386 0.0489627 -4.27509e-17)
(-2.27154 0.0506399 -4.34017e-17)
(-2.41582 0.0488972 -4.35107e-17)
(-2.56178 0.0447051 -4.38628e-17)
(-2.70595 0.0387973 -4.46913e-17)
(-2.84598 0.03169 -4.52125e-17)
(-2.98051 0.0238036 -4.55748e-17)
(-3.10869 0.0154455 -4.58541e-17)
(-3.23005 0.00675613 -4.61453e-17)
(-3.34436 -0.0022166 -4.63012e-17)
(-3.45147 -0.011405 -4.65409e-17)
(-3.55126 -0.0207763 -4.63706e-17)
(-3.64367 -0.0303584 -4.6757e-17)
(-3.72854 -0.0402321 -4.75086e-17)
(-3.80557 -0.0505427 -4.80538e-17)
(-3.87437 -0.0614764 -4.88286e-17)
(-3.93458 -0.0732607 -4.85895e-17)
(-3.98543 -0.0862137 -4.78291e-17)
(-4.02475 -0.101055 -4.82955e-17)
(-4.04987 -0.119735 -4.93759e-17)
(-10.0131 0.241815 1.09755e-18)
(-9.79138 0.366413 9.85032e-19)
(-9.80356 0.493261 9.22161e-19)
(-9.82319 0.528735 1.01492e-19)
(-9.7937 0.481505 -1.57788e-19)
(-9.65433 0.32784 -3.08892e-20)
(-9.30348 0.0446932 -1.5442e-19)
(-8.61466 -0.360246 -2.98977e-19)
(-7.66719 -0.824132 -6.51587e-19)
(-7.02727 -1.25623 -1.5317e-18)
(-6.59362 -1.60175 -1.79613e-18)
(-6.12361 -1.824 -1.41272e-18)
(-5.57893 -1.89533 -1.61446e-18)
(-5.01505 -1.79298 -1.83583e-18)
(-4.49346 -1.52546 -1.99287e-18)
(-4.06696 -1.14191 -2.1402e-18)
(-3.75584 -0.792953 -1.26112e-18)
(-3.5717 -0.600789 1.53094e-20)
(-3.42519 -0.543656 1.18257e-18)
(-3.21998 -0.559487 2.68373e-18)
(-2.91519 -0.560538 4.81091e-18)
(-2.53281 -0.521982 7.48244e-18)
(-2.21347 -0.460693 1.02393e-17)
(-1.9784 -0.361794 1.30952e-17)
(-1.82065 -0.233774 1.55772e-17)
(-1.73115 -0.106125 1.71841e-17)
(-1.71171 -0.00143332 1.74892e-17)
(-1.74795 0.0800903 1.6327e-17)
(-1.82944 0.140292 1.55537e-17)
(-1.94144 0.182371 1.54276e-17)
(-2.07284 0.209879 1.63111e-17)
(-2.2152 0.226325 1.80544e-17)
(-2.36234 0.234756 1.92688e-17)
(-2.50984 0.237634 1.98643e-17)
(-2.6547 0.236815 1.99829e-17)
(-2.79487 0.233581 2.03005e-17)
(-2.92912 0.228889 2.1424e-17)
(-3.05689 0.223433 2.25313e-17)
(-3.17793 0.217623 2.37981e-17)
(-3.29203 0.211693 2.47141e-17)
(-3.39904 0.205786 2.58718e-17)
(-3.49892 0.199903 2.69103e-17)
(-3.59168 0.19397 2.71691e-17)
(-3.67728 0.187868 2.7634e-17)
(-3.75551 0.181375 2.92511e-17)
(-3.82607 0.174194 3.13338e-17)
(-3.88869 0.165995 3.29276e-17)
(-3.94309 0.156429 3.40235e-17)
(-3.98874 0.144643 3.50973e-17)
(-4.025 0.12792 3.55822e-17)
(-4.92201 0.521494 1.49828e-18)
(-3.94273 -0.033269 1.47671e-18)
(-3.33308 -0.2012 8.12422e-19)
(-2.55406 -0.291268 1.44211e-19)
(-1.29056 -0.447181 8.35195e-20)
(0.523011 -0.671172 4.17439e-19)
(2.58618 -0.99134 3.28738e-19)
(4.30756 -1.40793 2.29515e-19)
(4.2959 -1.76582 -8.00602e-19)
(3.69753 -2.1104 -9.7521e-19)
(2.98998 -2.39209 -3.13132e-19)
(2.30116 -2.53921 -8.58938e-19)
(1.61726 -2.52322 -1.15437e-18)
(0.988474 -2.31421 -1.63816e-18)
(0.444279 -1.90483 -2.38524e-18)
(-0.145784 -1.18289 -3.91978e-18)
(-0.753661 -0.491349 -4.49223e-18)
(-1.33 -0.378289 -4.69597e-18)
(-1.83224 -0.533865 -4.81188e-18)
(-2.22357 -0.73403 -5.13216e-18)
(-2.39324 -0.843385 -5.39529e-18)
(-1.91661 -0.76257 -3.85217e-18)
(-1.57845 -0.632874 -1.42714e-18)
(-1.46809 -0.50865 1.32407e-18)
(-1.46477 -0.347405 5.32172e-18)
(-1.44304 -0.154937 9.38675e-18)
(-1.46273 0.00956901 1.14833e-17)
(-1.53638 0.138194 1.21801e-17)
(-1.64613 0.230647 1.18809e-17)
(-1.77914 0.292124 1.1664e-17)
(-1.92505 0.328927 1.38336e-17)
(-2.07641 0.34713 1.68025e-17)
(-2.22821 0.351939 1.81979e-17)
(-2.37724 0.347391 1.26413e-17)
(-2.52153 0.336493 1.10772e-17)
(-2.65979 0.321385 1.01701e-17)
(-2.7913 0.303519 9.50131e-18)
(-2.91583 0.283896 8.83187e-18)
(-3.03337 0.26326 8.0731e-18)
(-3.14395 0.242099 7.15752e-18)
(-3.24764 0.22064 6.94023e-18)
(-3.3445 0.198913 6.19921e-18)
(-3.43454 0.176849 5.45519e-18)
(-3.51773 0.154373 5.00733e-18)
(-3.59391 0.131369 4.89066e-18)
(-3.66279 0.107653 4.92605e-18)
(-3.72399 0.0830709 4.20946e-18)
(-3.77724 0.0576246 3.86162e-18)
(-3.82277 0.0312421 3.08271e-18)
(-3.8615 0.00313637 2.46616e-18)
(18.8725 0.0059473 -1.3065e-18)
(18.5636 0.200875 -1.2486e-18)
(18.2385 0.28476 -1.84613e-18)
(17.9114 0.297813 -1.74934e-18)
(17.5361 0.240736 -1.06937e-18)
(17.0515 0.0995422 -1.16322e-18)
(16.4517 -0.124653 -1.22662e-18)
(15.6772 -0.421323 -1.26903e-18)
(14.6696 -0.768627 -1.68904e-18)
(13.4153 -1.12632 -1.64481e-18)
(11.9651 -1.43679 -1.0177e-18)
(10.4192 -1.63661 -1.17893e-18)
(8.88083 -1.67164 -1.23066e-18)
(7.43165 -1.51238 -1.13395e-18)
(6.12678 -1.16993 -1.5762e-18)
(5.00463 -0.709577 -1.83482e-18)
(4.16941 -0.232051 -1.63757e-18)
(3.38225 0.0814935 -1.99048e-18)
(2.30111 0.145198 -2.90891e-18)
(0.784654 -0.0150445 -4.72011e-18)
(-1.45021 -0.482508 -1.01096e-17)
(-0.866698 -0.604031 -1.25679e-17)
(-0.190117 -0.47817 -1.11554e-17)
(-0.33326 -0.416712 -1.10804e-17)
(-0.857862 -0.344094 -1.14059e-17)
(-1.02557 -0.13192 -7.70433e-18)
(-1.08886 0.0833652 -1.46181e-18)
(-1.21752 0.252109 2.65896e-18)
(-1.3703 0.372592 3.94199e-18)
(-1.53608 0.449525 5.1416e-18)
(-1.70488 0.493442 6.71942e-18)
(-1.87105 0.513872 7.36187e-18)
(-2.03164 0.518168 6.51998e-18)
(-2.18528 0.511714 4.96011e-18)
(-2.33137 0.498356 3.98174e-18)
(-2.46977 0.480782 3.54659e-18)
(-2.60055 0.460784 3.35913e-18)
(-2.72392 0.439544 3.1582e-18)
(-2.84019 0.417876 2.92437e-18)
(-2.94969 0.396221 2.49948e-18)
(-3.0527 0.374727 2.17918e-18)
(-3.14946 0.353323 2.12444e-18)
(-3.24006 0.331745 1.91223e-18)
(-3.32451 0.30965 1.58192e-18)
(-3.40269 0.286646 1.68917e-18)
(-3.47431 0.262251 1.67319e-18)
(-3.53894 0.235958 1.49068e-18)
(-3.59623 0.207261 1.23746e-18)
(-3.64648 0.175561 1.12404e-18)
(-3.69061 0.140097 1.43386e-18)
(17.4997 0.941384 -1.01905e-18)
(17.1391 0.970755 -1.00588e-18)
(16.8205 0.94524 -1.42012e-18)
(16.5795 0.8444 -1.45689e-18)
(16.3114 0.677607 -1.03393e-18)
(15.9826 0.439311 -1.05658e-18)
(15.5766 0.131452 -1.06167e-18)
(15.0692 -0.224252 -1.04141e-18)
(14.4401 -0.580062 -1.49384e-18)
(13.6847 -0.871057 -1.51094e-18)
(12.8334 -1.03001 -9.69022e-19)
(11.9399 -1.01588 -1.02801e-18)
(11.0582 -0.821666 -1.01076e-18)
(10.2294 -0.47154 -9.25859e-19)
(9.48018 -0.0240154 -1.22368e-18)
(8.8137 0.421339 -1.34845e-18)
(8.12992 0.7239 -9.98417e-19)
(7.44468 0.858337 -9.62744e-19)
(6.76553 0.873228 -1.12976e-18)
(6.09015 0.838698 -1.36834e-18)
(5.43933 0.794894 -1.59315e-18)
(4.74972 0.75189 -1.77251e-18)
(3.99876 0.693805 -2.01538e-18)
(2.99501 0.549179 -2.50149e-18)
(0.713074 0.0568044 -3.48929e-18)
(-0.459884 -0.064109 -3.51572e-18)
(-0.626053 0.176653 -2.08589e-18)
(-0.819225 0.401115 9.8378e-20)
(-1.03099 0.545561 1.19959e-18)
(-1.24156 0.625558 2.21709e-18)
(-1.43977 0.664117 3.76715e-18)
(-1.6238 0.675889 4.6371e-18)
(-1.79425 0.670276 3.9656e-18)
(-1.95234 0.653487 3.13605e-18)
(-2.09935 0.629682 2.30659e-18)
(-2.23638 0.601637 1.6815e-18)
(-2.36437 0.57125 1.53145e-18)
(-2.48412 0.539732 1.50696e-18)
(-2.59638 0.507784 1.30256e-18)
(-2.70183 0.475748 8.8564e-19)
(-2.80098 0.443693 5.36829e-19)
(-2.8943 0.411539 2.77508e-19)
(-2.98201 0.379088 1.40882e-19)
(-3.06417 0.346057 1.99062e-19)
(-3.1407 0.312154 2.03233e-19)
(-3.21137 0.277125 2.07522e-19)
(-3.27579 0.240772 2.63032e-19)
(-3.33375 0.202887 -1.09659e-19)
(-3.38582 0.163213 -6.08012e-19)
(-3.43302 0.121492 -1.08295e-18)
(15.9457 1.386 -1.02282e-18)
(15.5628 1.24537 -1.01615e-18)
(15.165 1.11301 -1.44657e-18)
(14.8637 0.941197 -1.40997e-18)
(14.5811 0.747785 -9.60379e-19)
(14.2802 0.544305 -9.67486e-19)
(13.9432 0.33476 -9.48835e-19)
(13.5462 0.132071 -9.24099e-19)
(13.0681 -0.0338954 -1.4183e-18)
(12.505 -0.123247 -1.46566e-18)
(11.8736 -0.102079 -9.24606e-19)
(11.2021 0.0398761 -9.40714e-19)
(10.5176 0.285292 -8.98237e-19)
(9.84004 0.597447 -8.74523e-19)
(9.1843 0.932575 -1.18612e-18)
(8.56512 1.24899 -1.30944e-18)
(7.98285 1.50529 -9.85001e-19)
(7.41635 1.67527 -1.02941e-18)
(6.82908 1.76359 -1.05054e-18)
(6.18686 1.80002 -1.04203e-18)
(5.47976 1.80109 -9.99987e-19)
(4.7308 1.77713 -1.15244e-18)
(4.00937 1.71543 -1.40177e-18)
(3.27671 1.56181 -1.73384e-18)
(2.35815 1.26504 -2.34896e-18)
(1.64495 0.967907 -2.77995e-18)
(0.43585 0.596497 -2.13899e-18)
(-0.318392 0.656609 -8.69301e-19)
(-0.63757 0.782814 -1.67603e-19)
(-0.908274 0.842664 1.10288e-18)
(-1.13816 0.861294 3.59272e-18)
(-1.33809 0.855519 5.0632e-18)
(-1.51512 0.835036 4.62855e-18)
(-1.67409 0.805779 4.23012e-18)
(-1.8185 0.771564 1.90322e-18)
(-1.95083 0.734855 1.28662e-18)
(-2.07299 0.697259 1.05334e-18)
(-2.18653 0.659733 9.52369e-19)
(-2.29275 0.622774 8.79354e-19)
(-2.39269 0.586558 7.32919e-19)
(-2.48711 0.550962 5.11947e-19)
(-2.57659 0.515744 4.36194e-19)
(-2.6615 0.4806 3.27036e-19)
(-2.74195 0.445083 4.26993e-19)
(-2.81784 0.4087 7.44242e-19)
(-2.8888 0.370986 1.14906e-18)
(-2.95435 0.331483 9.13919e-19)
(-3.01421 0.289755 3.01662e-19)
(-3.06894 0.245461 -2.59522e-19)
(-3.11945 0.198459 -3.83141e-19)
(13.7722 1.80044 -7.17866e-19)
(13.4219 1.56993 -6.72268e-19)
(13.0357 1.37714 -1.19611e-18)
(12.7385 1.18628 -1.32361e-18)
(12.4733 1.00371 -8.32342e-19)
(12.2025 0.839615 -8.29598e-19)
(11.9109 0.697489 -7.77925e-19)
(11.5824 0.582696 -7.24636e-19)
(11.2013 0.508757 -1.29249e-18)
(10.7607 0.493957 -1.36883e-18)
(10.2656 0.553096 -7.83491e-19)
(9.73092 0.690242 -7.88422e-19)
(9.17626 0.897875 -6.901e-19)
(8.62167 1.16014 -5.71864e-19)
(8.08457 1.45555 -1.0019e-18)
(7.57621 1.75653 -1.27312e-18)
(7.09454 2.0283 -9.91355e-19)
(6.61837 2.23819 -1.06701e-18)
(6.11604 2.37212 -1.09243e-18)
(5.56549 2.44308 -1.08159e-18)
(4.96724 2.47631 -1.01744e-18)
(4.34158 2.48916 -9.44559e-19)
(3.7248 2.4631 -9.03028e-19)
(3.10152 2.34154 -1.0506e-18)
(2.43489 2.0817 -1.61893e-18)
(1.86894 1.74026 -2.26717e-18)
(1.14189 1.35341 -2.20176e-18)
(0.247166 1.10225 -4.2776e-19)
(-0.257994 1.08947 -9.19754e-19)
(-0.570113 1.09406 -4.45053e-19)
(-0.821646 1.07462 1.77161e-18)
(-1.02921 1.04048 3.12749e-18)
(-1.20595 0.998165 3.58939e-18)
(-1.36008 0.951702 3.15697e-18)
(-1.49702 0.903668 1.99235e-18)
(-1.62053 0.855656 1.43354e-18)
(-1.73333 0.808567 1.27192e-18)
(-1.83751 0.762864 1.10699e-18)
(-1.93469 0.718684 1.12206e-18)
(-2.02625 0.675937 1.1052e-18)
(-2.11317 0.634331 1.06413e-18)
(-2.1961 0.593454 1.22856e-18)
(-2.27548 0.552822 1.14841e-18)
(-2.35152 0.511885 9.67944e-19)
(-2.42414 0.470097 7.51562e-19)
(-2.49298 0.426918 8.27043e-19)
(-2.55755 0.381801 7.13581e-19)
(-2.61755 0.334293 4.3857e-19)
(-2.67344 0.284187 -1.53044e-19)
(-2.72614 0.23165 -6.04606e-19)
(11.4209 2.21957 3.88181e-19)
(11.0884 1.91809 3.60952e-19)
(10.7258 1.6683 -3.44791e-19)
(10.4455 1.44904 -5.77867e-19)
(10.2003 1.25691 -3.07781e-20)
(9.95495 1.0991 -6.56025e-20)
(9.69819 0.980979 -6.14834e-20)
(9.4205 0.9068 -6.62333e-20)
(9.11148 0.883052 -6.36152e-19)
(8.76466 0.917731 -9.38397e-19)
(8.3806 1.01679 -6.29079e-19)
(7.96723 1.18076 -6.36339e-19)
(7.53783 1.40333 -5.44962e-19)
(7.10735 1.67169 -4.09469e-19)
(6.68884 1.96708 -8.75908e-19)
(6.28921 2.26502 -1.17703e-18)
(5.90475 2.53652 -9.12892e-19)
(5.51976 2.75488 -1.18084e-18)
(5.11415 2.90747 -1.21248e-18)
(4.67657 3.00118 -1.28684e-18)
(4.20958 3.05223 -1.33716e-18)
(3.72506 3.07023 -1.34411e-18)
(3.23863 3.04553 -1.28787e-18)
(2.7367 2.94471 -1.19356e-18)
(2.21621 2.73644 -1.41099e-18)
(1.76407 2.42158 -1.79177e-18)
(1.26636 2.01634 -2.08779e-18)
(0.62702 1.64188 -6.42048e-19)
(0.0645786 1.44221 -1.07619e-18)
(-0.262804 1.36182 -1.51147e-18)
(-0.511415 1.29212 -5.06072e-19)
(-0.711569 1.22249 1.47717e-18)
(-0.87722 1.1542 1.96249e-18)
(-1.01812 1.08825 1.88339e-18)
(-1.14075 1.02535 1.40145e-18)
(-1.24963 0.965914 6.80193e-19)
(-1.34799 0.909985 3.8394e-19)
(-1.43824 0.857384 1.27983e-19)
(-1.52231 0.807756 -6.37545e-20)
(-1.6018 0.760665 1.45235e-18)
(-1.67788 0.715581 1.19468e-18)
(-1.75138 0.671827 2.22766e-19)
(-1.82287 0.628649 4.81962e-19)
(-1.89263 0.585308 2.31751e-19)
(-1.96059 0.541122 4.05505e-19)
(-2.0264 0.49541 8.81614e-19)
(-2.08949 0.447466 5.65334e-19)
(-2.14935 0.396686 1.53174e-19)
(-2.20621 0.34281 -7.96859e-19)
(-2.26079 0.286182 -1.25725e-18)
(8.95276 2.5865 5.80202e-19)
(8.63845 2.20905 6.18348e-19)
(8.31725 1.90188 1.35146e-19)
(8.07358 1.65217 2.18057e-20)
(7.86122 1.44843 3.50361e-19)
(7.6496 1.29442 2.91296e-19)
(7.43126 1.19502 2.85915e-19)
(7.20099 1.15259 2.42881e-19)
(6.95243 1.16858 -3.2374e-19)
(6.68107 1.24411 -5.69096e-19)
(6.38675 1.37899 -2.62857e-19)
(6.07473 1.57022 -3.51715e-19)
(5.75447 1.81048 -2.87076e-19)
(5.4366 2.0875 -1.87623e-19)
(5.12953 2.38386 -6.26056e-19)
(4.83628 2.67757 -1.16122e-18)
(4.55283 2.94457 -1.10166e-18)
(4.26872 3.16413 -1.17199e-18)
(3.9717 3.32613 -1.17679e-18)
(3.65491 3.43278 -1.15499e-18)
(3.32012 3.49183 -1.28522e-18)
(2.97602 3.50817 -1.50321e-18)
(2.62991 3.4779 -1.59051e-18)
(2.26432 3.38408 -1.40231e-18)
(1.87645 3.20733 -1.3963e-18)
(1.53193 2.9291 -1.53633e-18)
(1.19134 2.54144 -1.74029e-18)
(0.760994 2.12108 -5.70862e-19)
(0.322235 1.80857 -9.39335e-20)
(-0.00568491 1.61758 -2.34853e-18)
(-0.223503 1.49442 -6.85357e-19)
(-0.398399 1.38801 1.41009e-18)
(-0.540379 1.29287 1.04525e-18)
(-0.658545 1.207 8.00721e-19)
(-0.759215 1.1292 -1.51574e-19)
(-0.847016 1.05863 -8.8159e-19)
(-0.925339 0.994428 -1.65527e-18)
(-0.996696 0.935712 -1.72797e-18)
(-1.06304 0.881598 -1.86314e-18)
(-1.12604 0.831258 -1.5613e-18)
(-1.18705 0.783852 -1.87822e-18)
(-1.24709 0.738431 -1.55599e-18)
(-1.30678 0.694043 -2.41044e-18)
(-1.36634 0.649785 -1.43306e-18)
(-1.42573 0.604754 6.29947e-20)
(-1.48467 0.558027 1.12595e-18)
(-1.54261 0.508634 1.76877e-18)
(-1.59892 0.455672 1.41483e-18)
(-1.65367 0.398721 1.37099e-18)
(-1.70742 0.338475 1.75251e-18)
(6.41746 2.91232 6.30368e-19)
(6.11865 2.44459 6.75999e-19)
(5.86156 2.0842 3.96691e-19)
(5.67592 1.81004 2.54131e-19)
(5.5092 1.5996 3.52403e-19)
(5.3381 1.45205 3.62329e-19)
(5.15995 1.36935 4.39959e-19)
(4.97335 1.35092 4.87178e-19)
(4.77578 1.3948 -4.49684e-20)
(4.5659 1.49824 -3.50761e-19)
(4.34526 1.6577 -1.1867e-19)
(4.11888 1.86782 -2.32583e-19)
(3.89434 2.11994 -2.1127e-19)
(3.67901 2.40122 -1.14153e-19)
(3.47744 2.69478 -5.70158e-19)
(3.28988 2.98088 -1.17507e-18)
(3.11224 3.23968 -1.22791e-18)
(2.9373 3.4548 -1.27864e-18)
(2.75686 3.61768 -1.25005e-18)
(2.56534 3.72798 -1.03754e-18)
(2.3633 3.78943 -8.76967e-19)
(2.15791 3.80412 -1.05743e-18)
(1.95336 3.76846 -1.24311e-18)
(1.73016 3.67321 -1.3552e-18)
(1.47908 3.50952 -1.24483e-18)
(1.24793 3.25883 -9.08793e-19)
(1.03086 2.90089 -1.35687e-18)
(0.763978 2.4817 -4.24297e-20)
(0.467077 2.11417 1.01018e-18)
(0.218806 1.85341 -1.44046e-18)
(0.0371578 1.66732 -4.30891e-19)
(-0.0987405 1.52394 1.43183e-18)
(-0.20581 1.4035 7.61945e-19)
(-0.292546 1.29908 -1.6777e-19)
(-0.364123 1.20774 -1.5604e-18)
(-0.424677 1.12731 -2.33572e-18)
(-0.477409 1.05601 -2.52878e-18)
(-0.524649 0.99236 -2.49687e-18)
(-0.568132 0.93502 -2.60193e-18)
(-0.60937 0.882715 -2.82744e-18)
(-0.649754 0.834258 -2.18483e-18)
(-0.690341 0.788459 -3.76492e-18)
(-0.73182 0.744153 -3.95372e-18)
(-0.77458 0.700136 -1.5504e-18)
(-0.818822 0.655058 4.33555e-19)
(-0.864659 0.607524 3.37511e-18)
(-0.911931 0.556231 3.89103e-18)
(-0.96015 0.500119 1.55497e-18)
(-1.00912 0.438954 -1.58448e-19)
(-1.05891 0.374506 -1.15945e-18)
(3.84132 3.18126 6.66026e-19)
(3.54933 2.59827 7.28502e-19)
(3.38816 2.19822 2.89491e-19)
(3.27919 1.91072 2.49997e-19)
(3.16425 1.70105 5.80947e-19)
(3.03393 1.56432 4.3289e-19)
(2.89236 1.49843 4.54339e-19)
(2.74266 1.49969 5.51947e-19)
(2.58715 1.5639 -7.10891e-20)
(2.42877 1.68647 -3.77637e-19)
(2.27212 1.86203 -5.01491e-20)
(2.12318 2.08347 -2.38368e-19)
(1.98817 2.34056 -2.88274e-19)
(1.87151 2.61948 -1.45255e-19)
(1.77445 2.90378 -7.79865e-19)
(1.69502 3.17609 -1.08448e-18)
(1.62889 3.42031 -1.24176e-18)
(1.57039 3.62371 -1.45976e-18)
(1.51311 3.77936 -1.44141e-18)
(1.45138 3.88643 -1.25232e-18)
(1.38394 3.94718 -9.41697e-19)
(1.31607 3.96132 -7.45229e-19)
(1.25081 3.92333 -8.64426e-19)
(1.1689 3.82619 -9.84736e-19)
(1.05629 3.66691 -7.47603e-19)
(0.945331 3.43214 -5.38594e-19)
(0.841478 3.10144 -9.11971e-19)
(0.70519 2.70386 4.00268e-19)
(0.539515 2.32607 1.83162e-18)
(0.387191 2.02662 -4.19518e-19)
(0.270265 1.80151 -1.46521e-19)
(0.183797 1.62786 1.89669e-18)
(0.118751 1.48584 1.17901e-18)
(0.0694627 1.36601 6.33878e-19)
(0.0319868 1.26324 -7.0693e-19)
(0.00263186 1.17345 -1.60285e-18)
(-0.020649 1.09621 -1.68304e-18)
(-0.0400922 1.02862 -1.77202e-18)
(-0.0570514 0.968862 -2.61392e-18)
(-0.0726243 0.91524 -2.93509e-18)
(-0.0879406 0.866244 -1.92953e-18)
(-0.103957 0.820564 -3.75348e-18)
(-0.121338 0.777004 -4.17024e-18)
(-0.140564 0.734293 -2.31968e-18)
(-0.162018 0.690888 -1.73947e-19)
(-0.186079 0.645122 2.15222e-18)
(-0.213087 0.595542 3.66513e-18)
(-0.243001 0.541031 -2.09752e-19)
(-0.275723 0.481156 -6.25089e-18)
(-0.312422 0.419312 -9.25131e-18)
(1.14221 3.48263 6.61315e-19)
(0.927301 2.60296 8.44127e-19)
(0.911387 2.17761 3.6199e-19)
(0.878826 1.90024 3.2437e-19)
(0.805143 1.7121 6.33104e-19)
(0.705444 1.60228 3.95331e-19)
(0.591455 1.56404 4.37984e-19)
(0.471996 1.59129 6.26613e-19)
(0.35512 1.67846 7.01907e-20)
(0.248645 1.82016 -3.73087e-19)
(0.15951 2.00943 -1.81751e-19)
(0.0933043 2.23712 -4.53016e-19)
(0.0533912 2.4913 -4.9231e-19)
(0.0404437 2.75782 -2.57681e-19)
(0.0526902 3.02197 -1.05126e-18)
(0.0866866 3.26985 -1.55137e-18)
(0.138261 3.48959 -1.55748e-18)
(0.202893 3.67194 -1.78814e-18)
(0.274785 3.81196 -1.7112e-18)
(0.347238 3.90974 -1.48272e-18)
(0.416625 3.96697 -1.10157e-18)
(0.485975 3.98146 -7.91154e-19)
(0.556904 3.94543 -6.79287e-19)
(0.610792 3.85114 -6.14192e-19)
(0.632326 3.69665 -4.30841e-19)
(0.643148 3.47226 -8.5926e-20)
(0.64939 3.16305 -4.37369e-20)
(0.626447 2.79256 7.16686e-19)
(0.574338 2.42795 2.37473e-18)
(0.51872 2.12059 8.78016e-19)
(0.475153 1.87622 8.21959e-19)
(0.446781 1.6832 2.84182e-18)
(0.430567 1.52626 2.8269e-18)
(0.423557 1.39554 1.98119e-18)
(0.423415 1.28477 3.86863e-19)
(0.42766 1.18965 -1.02749e-18)
(0.435006 1.1082 -7.55568e-19)
(0.444223 1.03782 -1.28765e-18)
(0.454296 0.976352 -1.98307e-18)
(0.464502 0.921816 -2.46952e-18)
(0.474184 0.872405 -2.04996e-18)
(0.482724 0.826616 -4.40278e-18)
(0.489545 0.78314 -4.40547e-18)
(0.494103 0.740666 -3.84106e-18)
(0.495936 0.697737 -2.62504e-18)
(0.494616 0.652795 -2.25407e-19)
(0.4896 0.60448 2.50954e-18)
(0.48026 0.551998 2.27872e-18)
(0.466513 0.495271 -4.89369e-18)
(0.446064 0.435744 -1.28083e-17)
(-1.63306 3.08821 6.41727e-19)
(-1.58202 2.4148 7.09622e-19)
(-1.49252 2.06475 3.2624e-19)
(-1.50478 1.83553 3.23064e-19)
(-1.55302 1.69811 3.81049e-19)
(-1.62053 1.63596 2.63292e-19)
(-1.6932 1.63785 4.45529e-19)
(-1.75994 1.6953 5.22858e-19)
(-1.81163 1.80174 1.05966e-19)
(-1.84119 1.95085 -5.34785e-19)
(-1.84407 2.1351 -6.26758e-19)
(-1.81753 2.34569 -6.91973e-19)
(-1.76076 2.57237 -7.42223e-19)
(-1.67462 2.80409 -7.44068e-19)
(-1.56116 3.03017 -1.42183e-18)
(-1.42293 3.24077 -2.22594e-18)
(-1.26271 3.42728 -2.00008e-18)
(-1.08416 3.58307 -2.05593e-18)
(-0.89266 3.7045 -1.89411e-18)
(-0.695345 3.79195 -1.60128e-18)
(-0.497923 3.84648 -1.13102e-18)
(-0.300413 3.8648 -6.79272e-19)
(-0.102662 3.83787 -3.90423e-19)
(0.0823556 3.75252 -2.0058e-19)
(0.229228 3.60862 4.24825e-20)
(0.356576 3.39617 3.97312e-19)
(0.468403 3.10617 -1.28542e-19)
(0.548388 2.76362 9.15148e-19)
(0.596934 2.42276 2.68115e-18)
(0.63056 2.12496 1.50863e-18)
(0.66102 1.87943 1.11369e-18)
(0.693738 1.6805 2.54371e-18)
(0.729313 1.51754 2.6697e-18)
(0.767081 1.38202 1.8681e-18)
(0.806216 1.26778 8.44416e-19)
(0.845577 1.17053 -6.27533e-19)
(0.884699 1.08757 -1.12798e-18)
(0.923158 1.01629 -1.59868e-18)
(0.960512 0.954441 -1.99646e-18)
(0.996448 0.899991 -2.33921e-18)
(1.03072 0.851077 -2.28299e-18)
(1.06309 0.806073 -3.08194e-18)
(1.09323 0.763532 -3.56998e-18)
(1.12074 0.722073 -3.84428e-18)
(1.14514 0.680342 -4.23385e-18)
(1.16587 0.637045 -1.89821e-18)
(1.18224 0.59112 2.09662e-19)
(1.19335 0.542033 2.05035e-18)
(1.19853 0.490067 1.78578e-18)
(1.19578 0.436286 -2.3193e-18)
(-4.22168 2.65369 4.36212e-19)
(-3.93484 2.24936 3.97426e-19)
(-3.81133 1.98823 2.06869e-19)
(-3.76908 1.82423 -1.9049e-19)
(-3.75808 1.7332 -3.18036e-19)
(-3.76222 1.70073 -7.55482e-20)
(-3.76725 1.71745 -1.51537e-20)
(-3.76295 1.77675 -1.06599e-19)
(-3.7412 1.87325 -4.25156e-19)
(-3.6961 2.00148 -1.10813e-18)
(-3.62334 2.15543 -1.31991e-18)
(-3.5201 2.32848 -1.15147e-18)
(-3.38498 2.5135 -1.18414e-18)
(-3.2177 2.70294 -1.24299e-18)
(-3.01891 2.8891 -1.46844e-18)
(-2.79009 3.06433 -1.91427e-18)
(-2.53342 3.22149 -2.45254e-18)
(-2.25232 3.35481 -2.21116e-18)
(-1.95204 3.46093 -1.93816e-18)
(-1.63977 3.53965 -1.59756e-18)
(-1.32295 3.59171 -1.1334e-18)
(-1.0056 3.61414 -5.83534e-19)
(-0.691653 3.5989 -1.80903e-19)
(-0.397243 3.53507 7.55417e-20)
(-0.140665 3.41513 3.65389e-19)
(0.100013 3.2151 7.6833e-19)
(0.308691 2.94707 -1.95743e-19)
(0.482113 2.63461 9.70694e-19)
(0.620863 2.32326 2.64465e-18)
(0.736164 2.04532 1.96739e-18)
(0.837257 1.8103 1.46592e-18)
(0.930127 1.6159 2.21045e-18)
(1.01749 1.4551 2.47298e-18)
(1.10042 1.32117 2.22757e-18)
(1.17934 1.20865 1.66893e-18)
(1.25429 1.11346 4.81633e-19)
(1.32548 1.03255 -6.58994e-19)
(1.3932 0.963258 -1.47161e-18)
(1.45762 0.903357 -2.15886e-18)
(1.51888 0.850868 -2.50517e-18)
(1.57708 0.804015 -2.62236e-18)
(1.6323 0.76122 -2.53892e-18)
(1.68448 0.72106 -3.04478e-18)
(1.73338 0.68221 -3.59569e-18)
(1.77861 0.643452 -4.19678e-18)
(1.8196 0.603773 -3.70016e-18)
(1.85561 0.562457 -1.816e-18)
(1.88563 0.519268 7.39717e-19)
(1.90873 0.474654 2.15961e-18)
(1.92303 0.429758 1.54195e-18)
(-6.57373 2.28008 2.51668e-20)
(-6.1993 2.06731 -1.07404e-20)
(-6.02916 1.89628 -1.13806e-19)
(-5.90639 1.77994 -7.65406e-19)
(-5.81456 1.70936 -1.00149e-18)
(-5.73647 1.68036 -6.09555e-19)
(-5.65961 1.68881 -6.62901e-19)
(-5.57464 1.73101 -7.77157e-19)
(-5.47421 1.80312 -1.00488e-18)
(-5.35241 1.90101 -1.7967e-18)
(-5.20433 2.02018 -2.06448e-18)
(-5.02618 2.15582 -1.66417e-18)
(-4.81545 2.30295 -1.61294e-18)
(-4.57094 2.45607 -1.70331e-18)
(-4.29267 2.60906 -1.96967e-18)
(-3.98163 2.75533 -2.52618e-18)
(-3.63964 2.88857 -3.22787e-18)
(-3.26975 3.00345 -2.72068e-18)
(-2.87638 3.09653 -2.03927e-18)
(-2.46549 3.16705 -1.72657e-18)
(-2.04482 3.21615 -1.29744e-18)
(-1.62191 3.24324 -7.94967e-19)
(-1.20536 3.24312 -2.7767e-19)
(-0.812056 3.20474 -6.87986e-20)
(-0.458348 3.11538 1.24929e-19)
(-0.12448 2.94496 6.65324e-19)
(0.178743 2.69745 5.87618e-19)
(0.434883 2.41912 1.48883e-18)
(0.653825 2.14217 2.65289e-18)
(0.84312 1.89143 2.17415e-18)
(1.01014 1.67556 1.59208e-18)
(1.16063 1.49419 1.68872e-18)
(1.29833 1.34289 1.98919e-18)
(1.42552 1.21659 2.24551e-18)
(1.54366 1.1107 2.25382e-18)
(1.65373 1.02145 1.65599e-18)
(1.75661 0.94583 8.37184e-19)
(1.85317 0.881268 6.35922e-20)
(1.9441 0.825555 -1.12911e-18)
(2.02998 0.776798 -2.30554e-18)
(2.11124 0.733376 -1.85988e-18)
(2.18824 0.69387 -2.21953e-18)
(2.26113 0.656995 -2.69728e-18)
(2.32981 0.621609 -3.0012e-18)
(2.39402 0.586734 -3.62501e-18)
(2.45326 0.551614 -4.01326e-18)
(2.50681 0.515815 -2.78735e-18)
(2.5537 0.479361 -1.33882e-18)
(2.59296 0.44283 9.49277e-20)
(2.62277 0.407268 4.99964e-19)
(-8.77787 1.93517 -5.62925e-19)
(-8.36183 1.82345 -6.82293e-19)
(-8.12817 1.71435 -8.88069e-19)
(-7.92182 1.62955 -1.21818e-18)
(-7.74179 1.57226 -1.25727e-18)
(-7.57353 1.54413 -1.19385e-18)
(-7.40698 1.54445 -1.31959e-18)
(-7.23383 1.57144 -1.46094e-18)
(-7.04717 1.62257 -1.67446e-18)
(-6.84106 1.69478 -2.3623e-18)
(-6.61036 1.78465 -2.53974e-18)
(-6.35088 1.88855 -2.12968e-18)
(-6.05971 2.00277 -2.05425e-18)
(-5.73551 2.12329 -2.01008e-18)
(-5.37841 2.24546 -2.36794e-18)
(-4.9895 2.36404 -3.24267e-18)
(-4.57038 2.47353 -3.37101e-18)
(-4.12348 2.56891 -2.57633e-18)
(-3.65172 2.64652 -2.05464e-18)
(-3.15877 2.70529 -1.76264e-18)
(-2.65099 2.74709 -1.36904e-18)
(-2.13799 2.77449 -8.67276e-19)
(-1.63282 2.78633 -4.11123e-19)
(-1.15444 2.77394 -1.17577e-19)
(-0.719246 2.72007 6.82138e-20)
(-0.315984 2.59081 4.93483e-19)
(0.0856237 2.36554 9.2038e-19)
(0.411636 2.12671 2.33823e-18)
(0.700446 1.88884 3.35341e-18)
(0.955513 1.67123 2.74463e-18)
(1.18256 1.48152 1.77411e-18)
(1.38667 1.32043 1.89539e-18)
(1.5719 1.18532 1.8864e-18)
(1.74124 1.07247 1.98744e-18)
(1.89689 0.978108 2.28724e-18)
(2.0406 0.898877 2.20409e-18)
(2.17391 0.831965 1.82239e-18)
(2.29815 0.774959 1.2716e-18)
(2.41444 0.72576 5.93513e-19)
(2.52379 0.68263 -3.55526e-19)
(2.62697 0.644178 -6.65604e-19)
(2.72455 0.60923 -1.07134e-18)
(2.81683 0.57674 -1.62511e-18)
(2.90389 0.545819 -2.029e-18)
(2.98556 0.515773 -2.83944e-18)
(3.06146 0.486115 -2.31011e-18)
(3.13097 0.456668 -2.00394e-18)
(3.19329 0.427684 -1.78105e-18)
(3.24754 0.399883 -8.74835e-19)
(3.29193 0.374323 -7.29732e-19)
(-10.8062 1.56743 -1.10323e-18)
(-10.3368 1.5049 -1.26212e-18)
(-10.0323 1.43462 -1.45753e-18)
(-9.74241 1.37488 -2.02354e-18)
(-9.4732 1.33203 -2.00981e-18)
(-9.21379 1.30927 -1.75913e-18)
(-8.95622 1.30739 -1.83241e-18)
(-8.69337 1.3257 -1.90988e-18)
(-8.41906 1.36241 -2.08774e-18)
(-8.12775 1.41487 -2.74779e-18)
(-7.81438 1.48013 -2.98145e-18)
(-7.47454 1.55539 -2.63319e-18)
(-7.10521 1.63834 -2.56786e-18)
(-6.70514 1.72704 -2.65103e-18)
(-6.27479 1.81911 -2.77203e-18)
(-5.8157 1.91098 -3.6353e-18)
(-5.32974 1.99764 -3.73502e-18)
(-4.81873 2.07352 -2.80372e-18)
(-4.28367 2.13419 -2.21931e-18)
(-3.72509 2.17842 -1.8233e-18)
(-3.14639 2.20917 -1.23576e-18)
(-2.55732 2.23215 -1.02116e-18)
(-1.97482 2.25052 -8.66153e-19)
(-1.42209 2.25897 -8.96732e-19)
(-0.920051 2.23943 -1.01727e-18)
(-0.460766 2.15411 2.50549e-19)
(0.0261911 1.9626 4.77431e-19)
(0.41453 1.76472 4.24717e-18)
(0.762741 1.56877 4.00513e-18)
(1.0749 1.38805 3.29845e-18)
(1.35516 1.22925 2.3809e-18)
(1.60771 1.09366 2.4712e-18)
(1.83646 0.979784 2.39318e-18)
(2.04465 0.884897 2.30148e-18)
(2.23499 0.806026 2.54536e-18)
(2.40983 0.74032 2.63103e-18)
(2.57124 0.685183 2.67276e-18)
(2.72099 0.638324 2.77176e-18)
(2.86067 0.59782 2.33637e-18)
(2.99167 0.562163 1.40641e-18)
(3.11512 0.530209 9.19565e-19)
(3.23176 0.501063 5.25853e-19)
(3.34205 0.473993 5.83509e-20)
(3.4462 0.448409 -1.38909e-19)
(3.54417 0.423901 -1.01903e-18)
(3.63569 0.400252 -1.38077e-18)
(3.72032 0.377529 -1.50134e-18)
(3.79748 0.3562 -2.04889e-19)
(3.86651 0.337201 3.16583e-19)
(3.92567 0.321866 4.96842e-19)
(-12.5458 1.18551 -1.6368e-18)
(-12.0076 1.15052 -1.70833e-18)
(-11.6345 1.10713 -1.80751e-18)
(-11.2678 1.06837 -2.47787e-18)
(-10.9174 1.03985 -2.52577e-18)
(-10.5752 1.0246 -2.01361e-18)
(-10.2353 1.02369 -1.99247e-18)
(-9.89172 1.03661 -2.04527e-18)
(-9.5394 1.06165 -2.33324e-18)
(-9.17333 1.09629 -2.96076e-18)
(-8.78835 1.13791 -3.1268e-18)
(-8.37948 1.18482 -2.73149e-18)
(-7.94285 1.23697 -2.56713e-18)
(-7.47696 1.29544 -2.50777e-18)
(-6.98325 1.36041 -2.43302e-18)
(-6.46502 1.42905 -2.8246e-18)
(-5.9255 1.4951 -2.99178e-18)
(-5.36594 1.55096 -2.43913e-18)
(-4.78442 1.59109 -1.91962e-18)
(-4.17689 1.61504 -1.3873e-18)
(-3.54243 1.62824 -1.44849e-18)
(-2.88964 1.63992 -1.46451e-18)
(-2.23931 1.65743 -1.4416e-18)
(-1.62141 1.67915 -1.43075e-18)
(-1.06477 1.68864 -1.35168e-18)
(-0.565344 1.64736 -3.31033e-19)
(0.000346178 1.49855 2.92314e-19)
(0.441481 1.34698 5.91652e-18)
(0.838314 1.19667 4.43062e-18)
(1.19844 1.05763 3.82625e-18)
(1.5243 0.935541 3.08621e-18)
(1.81902 0.83149 2.90366e-18)
(2.08614 0.744423 3.11082e-18)
(2.32897 0.672412 3.13311e-18)
(2.55048 0.613277 3.34748e-18)
(2.75331 0.564753 3.7215e-18)
(2.93987 0.524557 4.01783e-18)
(3.11238 0.490617 4.24594e-18)
(3.27288 0.46125 4.35152e-18)
(3.42323 0.4352 4.03499e-18)
(3.56487 0.411558 3.96748e-18)
(3.6988 0.389697 3.69072e-18)
(3.82566 0.36921 3.11643e-18)
(3.94576 0.349829 2.5065e-18)
(4.0592 0.331412 1.52784e-18)
(4.16584 0.313984 1.20875e-18)
(4.26551 0.297829 9.14069e-19)
(4.35795 0.283615 5.15607e-19)
(4.4429 0.272526 5.79564e-19)
(4.51901 0.26634 9.73761e-19)
(-13.8738 0.717902 -1.73544e-18)
(-13.2779 0.697554 -1.74687e-18)
(-12.8498 0.672427 -1.79455e-18)
(-12.4229 0.649493 -2.29756e-18)
(-12.0094 0.632203 -2.37513e-18)
(-11.6036 0.622553 -1.90469e-18)
(-11.2009 0.621239 -1.94259e-18)
(-10.797 0.627731 -2.0378e-18)
(-10.3873 0.640535 -2.18855e-18)
(-9.96704 0.657714 -2.87367e-18)
(-9.53041 0.677657 -2.96601e-18)
(-9.07071 0.700196 -2.29376e-18)
(-8.58249 0.727291 -2.15807e-18)
(-8.0645 0.761793 -2.09155e-18)
(-7.52088 0.804594 -2.14748e-18)
(-6.95881 0.852107 -2.7011e-18)
(-6.38359 0.896638 -2.80549e-18)
(-5.79458 0.929971 -2.13722e-18)
(-5.18424 0.947814 -1.87585e-18)
(-4.54181 0.952637 -1.84795e-18)
(-3.86165 0.953168 -1.9334e-18)
(-3.15217 0.960768 -1.96533e-18)
(-2.43954 0.984299 -2.00764e-18)