/*--------------------------------*- C++ -*----------------------------------*\
  =========                 |
  \\      /  F ield         | OpenFOAM: The Open Source CFD Toolbox
   \\    /   O peration     | Website:  https://openfoam.org
    \\  /    A nd           | Version:  8
     \\/     M anipulation  |
\*---------------------------------------------------------------------------*/
FoamFile
{
    version     2.0;
    format      ascii;
    class       volScalarField;
    location    "700";
    object      alphat;
}
// * * * * * * * * * * * * * * * * * * * * * * * * * * * * * * * * * * * * * //

dimensions      [1 -1 -1 0 0 0 0];

internalField   nonuniform List<scalar> 
1200
(
0.200897
0.184965
0.171674
0.160444
0.150844
0.142558
0.135346
0.129021
0.123438
0.118481
0.114056
0.110087
0.106511
0.103276
0.10034
0.0976654
0.0952214
0.092982
0.0909244
0.0890292
0.0872798
0.0856613
0.084161
0.0827676
0.0814713
0.0802633
0.0791359
0.0780821
0.0770958
0.0761713
0.0753039
0.0744889
0.0737223
0.0730005
0.0723202
0.0716783
0.0710722
0.0704992
0.0699571
0.0694438
0.0689574
0.068496
0.0680581
0.0676422
0.0672468
0.0668707
0.0665126
0.0661716
0.0658465
0.0655363
0.0652404
0.0649577
0.0646875
0.0644291
0.0641818
0.0639451
0.0637183
0.0635009
0.0632924
0.0630922
0.116417
0.0999852
0.0873785
0.0774623
0.0694927
0.0629643
0.0575294
0.0529421
0.0490239
0.0456419
0.0426958
0.0401085
0.0378197
0.0357818
0.0339567
0.0323137
0.0308273
0.0294769
0.0282452
0.0271176
0.0260819
0.0251277
0.024246
0.0234293
0.0226709
0.021965
0.0213067
0.0206915
0.0201156
0.0195755
0.0190682
0.0185911
0.0181417
0.0177178
0.0173175
0.0169391
0.016581
0.0162418
0.0159201
0.0156148
0.0153247
0.0150489
0.0147865
0.0145366
0.0142985
0.0140714
0.0138548
0.013648
0.0134505
0.0132617
0.0130812
0.0129085
0.0127432
0.0125848
0.0124331
0.0122877
0.0121481
0.0120138
0.0118832
0.0117436
0.11639
0.0998142
0.0870858
0.0770516
0.068969
0.0623382
0.0568121
0.0521435
0.0481525
0.0447054
0.0417006
0.0390602
0.0367231
0.0346409
0.032775
0.031094
0.0295722
0.0281883
0.0269249
0.0257671
0.0247024
0.0237201
0.0228113
0.0219681
0.0211837
0.0204523
0.0197687
0.0191286
0.0185279
0.0179631
0.0174312
0.0169294
0.0164552
0.0160065
0.0155813
0.0151778
0.0147945
0.0144298
0.0140824
0.0137512
0.0134352
0.0131333
0.0128445
0.0125682
0.0123035
0.0120496
0.011806
0.0115721
0.0113473
0.0111311
0.010923
0.0107226
0.0105295
0.0103433
0.0101636
0.00999011
0.00982252
0.00966052
0.00950374
0.00935156
0.11639
0.0998532
0.0871498
0.0771324
0.0690585
0.0624305
0.0569033
0.0522314
0.0482358
0.0447834
0.0417732
0.0391274
0.036785
0.0346979
0.0328274
0.0311421
0.0296163
0.0282288
0.026962
0.025801
0.0247334
0.0237485
0.0228372
0.0219918
0.0212053
0.0204719
0.0197866
0.0191448
0.0185425
0.0179763
0.017443
0.0169399
0.0164645
0.0160147
0.0155884
0.0151839
0.0147995
0.0144339
0.0140856
0.0137536
0.0134366
0.0131337
0.0128441
0.0125668
0.0123011
0.0120463
0.0118017
0.0115668
0.0113409
0.0111237
0.0109145
0.010713
0.0105187
0.0103313
0.0101505
0.00997579
0.00980698
0.00964376
0.00948586
0.00933302
0.11639
0.0998533
0.0871435
0.07712
0.0690411
0.0624098
0.0568808
0.0522084
0.0482132
0.0447617
0.0417528
0.0391084
0.0367675
0.0346819
0.0328128
0.0311288
0.0296043
0.0282179
0.0269522
0.0257922
0.0247255
0.0237414
0.0228309
0.021986
0.0212001
0.0204673
0.0197825
0.0191411
0.0185392
0.0179734
0.0174404
0.0169376
0.0164625
0.0160129
0.0155869
0.0151826
0.0147984
0.0144329
0.0140848
0.0137529
0.0134361
0.0131333
0.0128438
0.0125666
0.012301
0.0120462
0.0118017
0.0115669
0.0113411
0.0111239
0.0109147
0.0107133
0.0105191
0.0103317
0.0101509
0.00997622
0.00980743
0.00964423
0.00948635
0.00933352
0.11639
0.0998533
0.0871435
0.07712
0.0690412
0.0624098
0.0568809
0.0522084
0.0482132
0.0447618
0.0417528
0.0391084
0.0367676
0.034682
0.0328128
0.0311288
0.0296043
0.028218
0.0269522
0.0257922
0.0247255
0.0237414
0.0228309
0.021986
0.0212001
0.0204673
0.0197825
0.0191411
0.0185392
0.0179733
0.0174404
0.0169376
0.0164625
0.0160129
0.0155869
0.0151825
0.0147984
0.0144329
0.0140848
0.0137529
0.013436
0.0131333
0.0128438
0.0125666
0.0123009
0.0120462
0.0118017
0.0115668
0.0113411
0.0111238
0.0109147
0.0107133
0.010519
0.0103317
0.0101509
0.00997619
0.00980741
0.00964421
0.00948632
0.0093335
0.11639
0.0998532
0.0871497
0.0771324
0.0690585
0.0624305
0.0569033
0.0522314
0.0482358
0.0447834
0.0417732
0.0391274
0.036785
0.0346979
0.0328274
0.0311421
0.0296162
0.0282288
0.0269619
0.025801
0.0247334
0.0237485
0.0228372
0.0219917
0.0212053
0.0204719
0.0197866
0.0191448
0.0185425
0.0179762
0.0174429
0.0169399
0.0164645
0.0160146
0.0155884
0.0151838
0.0147995
0.0144338
0.0140856
0.0137535
0.0134366
0.0131337
0.0128441
0.0125668
0.012301
0.0120462
0.0118016
0.0115667
0.0113409
0.0111236
0.0109144
0.0107129
0.0105186
0.0103312
0.0101504
0.00997568
0.00980687
0.00964364
0.00948573
0.00933288
0.11639
0.0998142
0.0870859
0.0770517
0.0689691
0.0623383
0.0568121
0.0521435
0.0481526
0.0447054
0.0417007
0.0390602
0.0367231
0.034641
0.032775
0.031094
0.0295722
0.0281884
0.0269249
0.0257671
0.0247024
0.0237201
0.0228113
0.0219681
0.0211837
0.0204523
0.0197687
0.0191286
0.0185279
0.0179631
0.0174312
0.0169294
0.0164552
0.0160065
0.0155813
0.0151778
0.0147944
0.0144297
0.0140823
0.0137511
0.013435
0.0131329
0.012844
0.0125674
0.0123024
0.0120482
0.0118044
0.0115701
0.011345
0.0111285
0.0109201
0.0107193
0.0105259
0.0103393
0.0101593
0.00998543
0.00981748
0.00965511
0.00949796
0.00934554
0.116417
0.0999853
0.0873787
0.0774625
0.0694932
0.062965
0.0575302
0.0529432
0.0490253
0.0456437
0.0426979
0.0401109
0.0378225
0.0357849
0.03396
0.0323171
0.0308309
0.0294805
0.0282489
0.0271213
0.0260856
0.0251314
0.0242497
0.023433
0.0226746
0.0219687
0.0213103
0.0206951
0.0201191
0.019579
0.0190716
0.0185944
0.0181448
0.0177208
0.0173204
0.0169418
0.0165836
0.0162442
0.0159223
0.0156169
0.0153267
0.0150509
0.0147884
0.0145385
0.0143004
0.0140735
0.0138569
0.0136502
0.0134527
0.0132639
0.0130834
0.0129107
0.0127455
0.0125872
0.0124355
0.0122902
0.0121507
0.0120164
0.0118858
0.0117458
0.200897
0.184965
0.171674
0.160443
0.150844
0.142558
0.135345
0.12902
0.123437
0.11848
0.114055
0.110086
0.10651
0.103276
0.10034
0.0976649
0.095221
0.0929816
0.090924
0.0890289
0.0872794
0.0856609
0.0841606
0.0827673
0.081471
0.080263
0.0791356
0.0780818
0.0770955
0.0761711
0.0753036
0.0744886
0.073722
0.0730003
0.07232
0.0716781
0.0710719
0.0704989
0.0699568
0.0694435
0.0689571
0.0684958
0.0680579
0.0676419
0.0672465
0.0668704
0.0665124
0.0661713
0.0658462
0.0655361
0.0652401
0.0649573
0.0646871
0.0644288
0.0641815
0.0639447
0.0637179
0.0635005
0.063292
0.0630918
0.200897
0.184965
0.171673
0.160443
0.150843
0.142557
0.135345
0.12902
0.123437
0.11848
0.114055
0.110086
0.10651
0.103276
0.100339
0.0976648
0.095221
0.0929815
0.090924
0.0890289
0.0872794
0.085661
0.0841607
0.0827674
0.0814711
0.0802631
0.0791357
0.0780819
0.0770955
0.0761711
0.0753036
0.0744886
0.073722
0.0730003
0.0723199
0.0716781
0.0710719
0.0704989
0.0699568
0.0694435
0.068957
0.0684956
0.0680577
0.0676418
0.0672464
0.0668702
0.0665122
0.0661711
0.065846
0.0655359
0.0652399
0.0649571
0.0646869
0.0644286
0.0641813
0.0639446
0.0637178
0.0635003
0.0632919
0.0630917
0.116417
0.0999853
0.0873785
0.0774622
0.0694928
0.0629644
0.0575292
0.0529417
0.0490232
0.0456409
0.0426947
0.0401074
0.0378187
0.0357811
0.0339563
0.0323136
0.0308276
0.0294775
0.028246
0.0271185
0.0260829
0.0251288
0.0242471
0.0234303
0.0226718
0.0219659
0.0213075
0.0206923
0.0201164
0.0195763
0.0190691
0.0185921
0.0181428
0.017719
0.0173189
0.0169406
0.0165826
0.0162435
0.0159219
0.0156166
0.0153265
0.0150508
0.0147884
0.0145385
0.0143004
0.0140734
0.0138567
0.0136499
0.0134523
0.0132635
0.0130829
0.0129102
0.0127449
0.0125866
0.012435
0.0122896
0.0121501
0.0120158
0.0118853
0.0117456
0.11639
0.0998142
0.087086
0.0770518
0.0689691
0.0623383
0.0568121
0.0521434
0.0481524
0.0447053
0.0417005
0.03906
0.0367229
0.0346407
0.0327748
0.0310938
0.029572
0.0281882
0.0269247
0.0257669
0.0247022
0.0237199
0.0228111
0.0219679
0.0211835
0.0204521
0.0197686
0.0191284
0.0185277
0.0179629
0.017431
0.0169292
0.0164551
0.0160064
0.0155812
0.0151777
0.0147943
0.0144296
0.0140822
0.013751
0.013435
0.013133
0.0128443
0.012568
0.0123032
0.0120494
0.0118058
0.0115718
0.011347
0.0111308
0.0109227
0.0107223
0.0105291
0.0103429
0.0101632
0.00998968
0.00982207
0.00966005
0.00950326
0.00935105
0.11639
0.0998532
0.0871498
0.0771324
0.0690585
0.0624304
0.0569032
0.0522313
0.0482357
0.0447833
0.0417731
0.0391273
0.0367849
0.0346978
0.0328273
0.031142
0.0296162
0.0282287
0.0269619
0.0258009
0.0247333
0.0237485
0.0228372
0.0219917
0.0212052
0.0204719
0.0197865
0.0191447
0.0185424
0.0179762
0.0174429
0.0169398
0.0164645
0.0160146
0.0155883
0.0151838
0.0147995
0.0144338
0.0140855
0.0137535
0.0134365
0.0131337
0.012844
0.0125667
0.012301
0.0120462
0.0118016
0.0115667
0.0113408
0.0111235
0.0109144
0.0107129
0.0105186
0.0103312
0.0101503
0.00997564
0.00980683
0.0096436
0.00948569
0.00933285
0.11639
0.0998533
0.0871436
0.07712
0.0690412
0.0624098
0.0568808
0.0522084
0.0482131
0.0447617
0.0417527
0.0391083
0.0367674
0.0346818
0.0328127
0.0311287
0.0296042
0.0282178
0.0269521
0.0257921
0.0247254
0.0237413
0.0228308
0.0219859
0.0212001
0.0204673
0.0197824
0.019141
0.0185391
0.0179733
0.0174403
0.0169375
0.0164624
0.0160128
0.0155868
0.0151825
0.0147983
0.0144328
0.0140847
0.0137528
0.013436
0.0131332
0.0128437
0.0125665
0.0123008
0.0120461
0.0118016
0.0115667
0.0113409
0.0111237
0.0109146
0.0107131
0.0105189
0.0103316
0.0101507
0.00997605
0.00980727
0.00964406
0.00948617
0.00933334
0.11639
0.0998533
0.0871436
0.07712
0.0690412
0.0624098
0.0568808
0.0522084
0.0482132
0.0447617
0.0417527
0.0391083
0.0367675
0.0346819
0.0328127
0.0311288
0.0296042
0.0282179
0.0269521
0.0257921
0.0247254
0.0237413
0.0228308
0.021986
0.0212001
0.0204673
0.0197824
0.019141
0.0185391
0.0179733
0.0174403
0.0169375
0.0164624
0.0160128
0.0155868
0.0151825
0.0147983
0.0144328
0.0140847
0.0137528
0.013436
0.0131332
0.0128437
0.0125665
0.0123008
0.0120461
0.0118016
0.0115667
0.0113409
0.0111237
0.0109146
0.0107131
0.0105189
0.0103315
0.0101507
0.00997604
0.00980725
0.00964405
0.00948616
0.00933333
0.11639
0.0998532
0.0871498
0.0771324
0.0690585
0.0624304
0.0569032
0.0522313
0.0482357
0.0447833
0.0417731
0.0391273
0.0367849
0.0346978
0.0328273
0.031142
0.0296162
0.0282287
0.0269619
0.0258009
0.0247333
0.0237485
0.0228372
0.0219917
0.0212052
0.0204719
0.0197865
0.0191447
0.0185424
0.0179762
0.0174429
0.0169398
0.0164644
0.0160146
0.0155883
0.0151838
0.0147994
0.0144338
0.0140855
0.0137535
0.0134365
0.0131337
0.012844
0.0125667
0.012301
0.0120462
0.0118016
0.0115666
0.0113408
0.0111235
0.0109143
0.0107128
0.0105186
0.0103312
0.0101503
0.00997559
0.00980677
0.00964354
0.00948563
0.00933278
0.11639
0.0998143
0.087086
0.0770518
0.0689692
0.0623384
0.0568121
0.0521435
0.0481525
0.0447053
0.0417006
0.0390601
0.036723
0.0346408
0.0327749
0.0310939
0.029572
0.0281882
0.0269248
0.025767
0.0247022
0.02372
0.0228112
0.0219679
0.0211835
0.0204521
0.0197686
0.0191285
0.0185277
0.017963
0.017431
0.0169292
0.0164551
0.0160064
0.0155812
0.0151777
0.0147943
0.0144296
0.0140822
0.013751
0.0134348
0.0131327
0.0128438
0.0125672
0.0123022
0.0120481
0.0118042
0.01157
0.0113449
0.0111283
0.0109199
0.0107192
0.0105258
0.0103392
0.0101592
0.00998533
0.00981738
0.009655
0.00949785
0.00934541
0.116417
0.0999854
0.0873788
0.0774627
0.0694935
0.0629655
0.0575308
0.0529437
0.0490255
0.0456437
0.0426977
0.0401106
0.037822
0.0357844
0.0339597
0.0323168
0.0308308
0.0294806
0.028249
0.0271214
0.0260857
0.0251314
0.0242496
0.0234326
0.022674
0.0219679
0.0213094
0.020694
0.0201179
0.0195777
0.0190703
0.0185931
0.0181437
0.0177198
0.0173195
0.0169412
0.0165831
0.0162439
0.0159222
0.0156168
0.0153268
0.015051
0.0147887
0.0145388
0.0143008
0.0140738
0.0138573
0.0136505
0.013453
0.0132642
0.0130837
0.012911
0.0127457
0.0125875
0.0124358
0.0122904
0.0121509
0.0120166
0.0118861
0.0117461
0.200897
0.184965
0.171673
0.160443
0.150843
0.142557
0.135345
0.12902
0.123437
0.11848
0.114055
0.110086
0.10651
0.103276
0.100339
0.0976646
0.0952207
0.0929813
0.0909237
0.0890287
0.0872792
0.0856607
0.0841604
0.0827671
0.0814708
0.0802628
0.0791354
0.0780816
0.0770952
0.0761708
0.0753033
0.0744883
0.0737217
0.073
0.0723196
0.0716777
0.0710716
0.0704986
0.0699564
0.0694431
0.0689567
0.0684953
0.0680574
0.0676414
0.067246
0.0668699
0.0665118
0.0661707
0.0658456
0.0655355
0.0652394
0.0649567
0.0646865
0.0644281
0.0641808
0.063944
0.0637172
0.0634997
0.0632912
0.063091
)
;

boundaryField
{
    wall
    {
        type            compressible::alphatJayatillekeWallFunction;
        Prt             0.85;
        value           uniform 0;
    }
    inlet
    {
        type            calculated;
        value           uniform 9.47574;
    }
    outlet
    {
        type            calculated;
        value           nonuniform List<scalar> 
20
(
0.0630922
0.0117436
0.00935156
0.00933302
0.00933352
0.0093335
0.00933288
0.00934554
0.0117458
0.0630918
0.0630917
0.0117456
0.00935105
0.00933285
0.00933334
0.00933333
0.00933278
0.00934541
0.0117461
0.063091
)
;
    }
    heatWall
    {
        type            compressible::alphatJayatillekeWallFunction;
        Prt             0.85;
        value           nonuniform List<scalar> 
240
(
0.0209458
0.0209458
0.0193322
0.0193322
0.0179825
0.0179824
0.0168393
0.0168392
0.01586
0.0158599
0.015013
0.015013
0.0142744
0.0142743
0.0136256
0.0136255
0.013052
0.0130519
0.0125419
0.0125419
0.012086
0.0120859
0.0116765
0.0116765
0.0113072
0.0113071
0.0109727
0.0109727
0.0106688
0.0106688
0.0103917
0.0103917
0.0101383
0.0101382
0.00990582
0.00990579
0.00969208
0.00969206
0.00949508
0.00949506
0.00931308
0.00931306
0.0091446
0.00914458
0.00898832
0.0089883
0.00884309
0.00884307
0.00870791
0.00870788
0.00858186
0.00858184
0.00846416
0.00846414
0.00835409
0.00835407
0.00825102
0.008251
0.00815438
0.00815435
0.00806366
0.00806363
0.00797838
0.00797835
0.00789815
0.00789812
0.00782258
0.00782255
0.00775132
0.00775129
0.00768407
0.00768403
0.00762054
0.0076205
0.00756047
0.00756043
0.00750362
0.00750358
0.00744978
0.00744973
0.00739874
0.00739869
0.00735032
0.00735027
0.00730435
0.0073043
0.00726068
0.00726063
0.00721916
0.0072191
0.00717965
0.00717959
0.00714203
0.00714197
0.00710619
0.00710613
0.00707202
0.00707196
0.00703942
0.00703936
0.0070083
0.00700824
0.00697857
0.00697851
0.00695016
0.00695009
0.00692298
0.00692291
0.00689696
0.00689689
0.00687205
0.00687198
0.00684819
0.00684811
0.0068253
0.00682522
0.00680336
0.00680328
0.00678228
0.0067822
0.0209458
0.0209458
0.0193322
0.0193322
0.0179825
0.0179824
0.0168393
0.0168392
0.01586
0.0158599
0.0150131
0.015013
0.0142744
0.0142743
0.0136256
0.0136255
0.013052
0.0130519
0.012542
0.0125419
0.012086
0.012086
0.0116766
0.0116765
0.0113072
0.0113072
0.0109728
0.0109727
0.0106689
0.0106688
0.0103917
0.0103917
0.0101383
0.0101382
0.00990586
0.00990581
0.00969212
0.00969208
0.00949512
0.00949508
0.00931312
0.00931309
0.00914464
0.00914461
0.00898835
0.00898833
0.00884313
0.0088431
0.00870794
0.00870791
0.00858189
0.00858187
0.00846419
0.00846417
0.00835412
0.0083541
0.00825105
0.00825103
0.00815441
0.00815438
0.00806368
0.00806366
0.00797841
0.00797839
0.00789818
0.00789815
0.00782261
0.00782258
0.00775135
0.00775132
0.0076841
0.00768407
0.00762057
0.00762054
0.0075605
0.00756046
0.00750365
0.00750361
0.00744981
0.00744977
0.00739877
0.00739873
0.00735035
0.00735031
0.00730438
0.00730434
0.00726071
0.00726067
0.00721918
0.00721914
0.00717968
0.00717963
0.00714206
0.00714201
0.00710622
0.00710617
0.00707205
0.007072
0.00703945
0.0070394
0.00700833
0.00700828
0.00697861
0.00697855
0.00695019
0.00695013
0.00692301
0.00692296
0.006897
0.00689694
0.00687209
0.00687204
0.00684823
0.00684817
0.00682534
0.00682529
0.0068034
0.00680334
0.00678233
0.00678227
)
;
    }
}


// ************************************************************************* //
