/*--------------------------------*- C++ -*----------------------------------*\
  =========                 |
  \\      /  F ield         | OpenFOAM: The Open Source CFD Toolbox
   \\    /   O peration     | Website:  https://openfoam.org
    \\  /    A nd           | Version:  8
     \\/     M anipulation  |
\*---------------------------------------------------------------------------*/
FoamFile
{
    version     2.0;
    format      ascii;
    class       volScalarField;
    location    "900";
    object      p_rgh;
}
// * * * * * * * * * * * * * * * * * * * * * * * * * * * * * * * * * * * * * //

dimensions      [1 -1 -2 0 0 0 0];

internalField   nonuniform List<scalar> 
1200
(
88295.4
85166.7
83705.4
83183
82831
82541
82327.9
82310.6
82413.5
82351.4
82077.7
81787.5
81569.9
81345.8
81078
80790.9
80537.7
80390.3
80418.7
80536.9
80590.8
80614.7
80647.6
80524.5
80002.5
79153.9
78382.8
77837
77522.6
77169.9
76606.9
75860.5
74974.7
73965.6
72864.5
71707.5
70457.6
69124.5
67669.7
65978.6
64002
61840
59564
57193.6
54718.2
51768.6
47818.3
43755.6
39824.2
35698.6
31021
25774.6
20224.1
14649.7
9828.47
5853.33
3370.96
865.009
729.148
-3079.24
81232.8
81662
81782.7
81920.9
81973.9
81876.5
81771
81856
82071.8
82103.4
81873.4
81631.8
81431.7
81213.6
80951.5
80666.5
80410
80254.3
80274.5
80392.3
80452.1
80483.7
80530.9
80438.7
79968
79139.6
78351.8
77815.2
77533.9
77234.6
76725.3
76017.7
75163.3
74179.2
73100.1
71960.1
70721.5
69395.4
67948.6
66261.8
64291.2
62162.1
59972.5
57783.3
55629.6
52915.4
48894.6
44364.4
40303.1
36288.2
31840.7
26764.4
21295.9
15744.2
10909.3
6896.54
4343.62
1741.65
1481.36
-2610.88
82388.1
83460
83604.5
83352.4
83051.2
82773
82565.4
82486.4
82532.5
82455.6
82190.3
81892.6
81655.5
81406.5
81106
80770.4
80452.2
80235.5
80210.6
80308.3
80369.7
80413.5
80483.6
80431
80000.5
79187.6
78386.8
77841.7
77550.9
77228.5
76696.7
75962.7
75080.1
74061.5
72957.9
71808
70581.4
69287.6
67883.8
66209.4
64200.9
61996.3
59691.3
57294.4
54875.8
52078.7
48698.2
45093.3
41125.1
36522.9
31192.9
25219.7
19099.3
13305
8620.34
5022.31
2937.02
738.804
866.114
-3675.44
82386
82810.6
82701
82425.5
82222.1
82046.9
81860.3
81859.3
82036.3
82089.7
81908.8
81656.4
81444.3
81217.9
80937.5
80616.5
80303.2
80082.2
80050.3
80145.9
80211.1
80257.1
80332.3
80306.1
79923.8
79152.7
78355.9
77800.5
77498.7
77178.5
76663.5
75966.4
75128.3
74143.4
73061.9
71929.1
70726
69469.3
68108.7
66422.7
64343.3
62076.8
59766
57404.1
54992
52132.1
48581.4
44818.2
40943.1
36516.3
31371.2
25607
19837.5
14460.1
10041.5
6444.43
4096.85
1560.74
1249.18
-3483.07
82431.5
82805.8
82897.9
82768.1
82626.3
82470.5
82263.2
82187.8
82269.2
82267.3
82074.9
81812.8
81579.8
81332.5
81028.4
80670
80300.8
80016.3
79932.1
79998.7
80055.8
80100.4
80179.7
80182
79865.1
79169.9
78405.2
77838
77495.8
77134.7
76601.4
75904.1
75069.9
74078.6
73002
71887.4
70729.4
69554.7
68305.7
66657.2
64503.6
62109.7
59641.9
57089.8
54531.1
51807.7
48719.6
45217.4
41258.7
36586.8
31005.7
24785.2
18741.8
13321.1
9041.54
5694.87
3581.21
1327.75
1047.59
-2933.04
82414.8
82779
82889.9
82773.9
82645.5
82504.7
82294.3
82192.3
82248.8
82251.8
82083.6
81830.7
81585.4
81320.1
80993.1
80597.6
80172.8
79824.6
79686.7
79721.4
79765.2
79802.2
79878.3
79903.1
79660.5
79073.7
78381.5
77836.1
77474
77078.1
76523.5
75824.3
74999.3
74022.2
72960.7
71859.5
70727.3
69592.1
68399.3
66716.6
64403.7
61840.5
59260.3
56571.6
53859.7
51017
47825.1
44281.9
40273.6
35409.7
29867.6
23758.6
18181.5
13410.9
9630.24
6482.79
4269.36
1837.72
1201.86
-2183.74
82332.6
82711.5
82649.5
82400.4
82223.8
82091
81893.1
81813.3
81919
81995.8
81902.6
81697.9
81472.9
81222.6
80912.3
80529.1
80106.2
79753.6
79616.1
79662
79724.3
79775.4
79857.7
79896.9
79708.8
79217.4
78587
78051.3
77646.5
77180.8
76564
75826.1
74961.1
73950
72887.1
71812.8
70739.1
69680.4
68635.9
67061.4
64675.5
61977.8
59304.9
56697.5
54093.2
51334.4
48191.4
44599
40469
35542.1
29751.4
23661.1
18079.2
13453.5
9951.96
7055.08
5014.94
2680.31
2013.82
-1118.78
82326.4
83314.5
83485.3
83296.7
83086
82882
82608.1
82409.9
82360.6
82317.3
82161.7
81919.4
81652.8
81358.8
80999.9
80554.8
80055.1
79627.3
79439
79471.4
79547.8
79630.8
79759.4
79867.8
79790.8
79441.9
78908.2
78432.3
78040
77546.6
76897.8
76145.5
75274.4
74208.9
73093.5
71983.4
70915.9
69922.5
69003
67340.9
64580.5
61544.9
58694.4
55371.4
52199
49255.3
46226.4
42830.6
38785.2
33627.2
27628.1
21283.6
16386
12519.1
9588.72
6923.62
4922.59
2453.43
1799.44
-1420.33
81094.6
81518.4
81726.2
81876.9
81959.2
81984.6
81860.6
81786.8
81864.5
81940.2
81883.5
81709.6
81483.2
81221
80897.8
80495.1
80045.4
79677.1
79558.2
79663.1
79806.8
79949
80127.2
80277.3
80246.1
79955.1
79404.3
78891.2
78458.7
77917.2
77227.9
76453
75563.9
74572.1
73554.7
72583.6
71749.2
71148.8
70680.6
69035.7
65823.9
62427.2
59517.7
56942.1
54344.8
51561.5
48439.7
44847.3
40582.4
35332.9
29238.4
22743.3
17270.7
13536.7
11021.7
8627.6
6789.66
4052.15
3405.06
-807.394
88251
84908.8
83580
83139
82872
82669.2
82410.5
82230.6
82202.7
82194.4
82085.9
81881.4
81632.8
81356.3
81024.5
80615.8
80162.5
79799.7
79699.9
79837
80020.3
80200.1
80412
80587.3
80568.8
80268.5
79696.2
79110.5
78581.4
77931.4
77149.2
76303.4
75347.8
74262.7
73177.1
72149.1
71294.5
70767.8
70602.8
69017.4
65384.4
61509.7
58249.7
55237.9
52405
49603
46582.7
43111.5
38953.3
33800.3
27841.8
21545.4
16334.6
12514.5
9845.16
7374.53
5557.49
2856.41
2335.2
-1511.95
88300.2
84941.9
83603.9
83210.2
82993.5
82876.4
82700.2
82405.5
82083.7
81921.4
81922.4
81903.4
81813.5
81700.5
81583.3
81441.7
81259.8
81041.1
80761.5
80460.9
80227.3
79975.6
79645.3
79243.9
78895.6
78651.8
78345.8
77844.4
77158.4
76518.9
75915.9
75225.1
74418.4
73513
72534.5
71506.7
70447.8
69265.8
67832.6
66023
63821.7
61385
58941.6
56521.5
54003.5
50958.7
46906.3
42790.7
38843.9
34683.1
30075.4
25055.3
19837.6
14657.8
10121.6
6407.3
4016.85
1593.33
1371.06
-2662.31
81232.6
81542.5
81732.7
81954.3
82102.8
82146.2
82097.8
81960.3
81782.6
81707.7
81729.3
81743
81672
81583
81510.7
81432
81321.6
81167.5
80927.6
80635.2
80387.5
80105
79729.2
79277.2
78879.7
78621
78305.2
77805.8
77144.4
76531.4
75952.1
75264.6
74448.2
73530
72539
71501.8
70434.9
69247.4
67808.9
65985.6
63760.4
61307.2
58885.6
56553.6
54183.1
51124.8
46787.5
42158.2
38113.9
34099.5
29701.1
24785.8
19586.5
14406.3
9883.54
6203.15
3832.03
1431.97
1172.47
-2903.21
82398.4
83298.8
83475
83332.5
83165
83076.8
83007.5
82714.1
82307.5
82058.4
82009.2
81978.7
81892.4
81793
81697.8
81577.2
81411.7
81202.7
80920.2
80603.3
80348.3
80074.4
79721.5
79299.4
78918.8
78654.4
78336.4
77851.2
77209
76593.8
75996.7
75286.4
74450.3
73511.4
72501.9
71457.1
70394.9
69227.2
67816
65995.6
63731.3
61211.9
58706.2
56235.8
53709.2
50684.3
47027.9
43292.9
39361.5
34843.1
29694.5
24011.7
18244.2
12833.3
8392.42
4999.02
2925.96
814.954
745.241
-3551.92
82416.9
82737.7
82668.8
82467.2
82332
82261.1
82179.4
82021.6
81826.2
81735.4
81743
81734.3
81665.7
81590
81525.8
81449.7
81340.4
81184
80936.9
80631.5
80372.2
80087.9
79724.2
79293
78895.4
78602.1
78269.2
77798.4
77189.9
76593.7
75995.4
75302
74500.7
73593
72601.9
71573.3
70531
69397.6
68021.8
66178.7
63824.1
61213.5
58679.8
56243.6
53764.3
50788.5
47121.6
43292.4
39360
34816
29619.7
23969.1
18449.7
13427.6
9287.54
5981.06
3742.47
1429.01
957.447
-3315.89
82488.1
82783
82873.3
82789.2
82700.4
82646.9
82610.3
82444.5
82160.5
81966.9
81902.6
81869.6
81803.6
81738.3
81681.5
81606.9
81493.8
81328.6
81069.9
80751.5
80483.6
80196.7
79835.1
79403.5
78991.9
78677
78335.1
77864.5
77255.4
76643.9
76023.1
75314.5
74514.2
73605.6
72623.1
71616.5
70618.1
69571.7
68316.7
66518.9
64091.3
61353.8
58678.9
56066.1
53431
50550.9
47316.2
43802.4
39888.7
35178.8
29630.3
23543.8
17725.6
12609.9
8517.29
5343.72
3202.2
1097.58
547.397
-2774.77
82497.2
82812.9
82902.2
82823.5
82733.5
82662.6
82637.7
82492.4
82216.6
82011.2
81922.5
81875.7
81810.7
81745.6
81682.3
81599.1
81478.1
81301.7
81026.7
80688.4
80404.8
80113
79760.2
79348.8
78954.1
78644.8
78313.5
77862.7
77284.2
76693.5
76082.9
75383.6
74599.8
73694.6
72704.3
71686
70687.2
69667
68464.1
66633.5
64052.3
61147.4
58355.8
55545.8
52711.9
49719.5
46434.8
42939.5
39042
34155.3
28626.2
22673.1
17261.2
12716.9
9083.11
6118.75
3902.6
1680.82
766.034
-1822.46
82435.2
82778.9
82652.8
82414.8
82251.2
82150.7
82133.8
82058.1
81894.3
81778.7
81737.3
81719.2
81686.6
81653.6
81626.2
81592.1
81533.8
81421.1
81196.1
80885.4
80615.3
80326.7
79968.7
79542.6
79116.4
78763.5
78391.5
77898.8
77293.1
76680.3
76055.3
75351
74572.9
73675
72708.1
71727.3
70782.8
69845.2
68831.6
67184.6
64608
61607.4
58702.1
55938.9
53245.9
50396.9
47169.3
43536.5
39375
34342.9
28470.1
22423.1
17031.9
12660.4
9287.88
6525.28
4408.39
2259.64
1271.84
-912.442
82465.8
83508.8
83623.3
83433.7
83207
82992.5
82923.6
82773.5
82462.5
82188.8
82030.3
81947.2
81884.4
81824
81756.3
81663.5
81527.4
81323.9
81010.9
80630.8
80316.3
80010.8
79665.2
79279.8
78907.9
78598.1
78270.5
77814.5
77252.4
76669.2
76068.1
75385.1
74652.1
73758.7
72750.7
71715.4
70740.9
69847.5
68978.8
67289.9
64374.8
61065.2
58071.5
54710.1
51499.5
48443.6
45286.1
41813.3
37701.3
32427.4
26393.6
20211.4
15487.9
11877.5
9097.28
6613.24
4550.22
2314.13
1260.82
-866.403
81178.5
81604.4
81761.5
81928.1
82001.4
82011.6
82078.9
82074
81944.5
81822
81758.6
81733.1
81715.7
81696.5
81678.3
81658
81620.7
81525.6
81304.3
80978.7
80687.2
80378.1
80003.1
79565.7
79125.9
78748.3
78366.5
77842.6
77242.3
76648.3
76054.8
75380.4
74622.1
73750.8
72801.3
71895
71162.4
70672
70249.4
68580.2
65248.9
61628.4
58567.2
55637.3
52696.8
49642.7
46344.7
42686.1
38396.4
33098.2
27087.6
20855.4
15688.4
12253
9875.19
7653.3
5719
3330.97
2258.78
-577.575
88455.8
85078.8
83654.3
83217.2
82919.7
82674.6
82605
82491
82245.8
82025.9
81895.5
81827.8
81780.2
81723.2
81647.3
81542.9
81394.2
81172.9
80837.6
80437.2
80114.9
79810.9
79481.1
79128.4
78800.9
78523.3
78238
77787.9
77240.7
76654.6
76029.5
75308.1
74515.7
73619.9
72682.8
71822.2
71176.6
70789.1
70522.6
68678.8
64813.6
60781.8
57553
54633.2
51834.8
48992.9
45881
42334.1
38108.8
32859.7
26880.7
20701.9
15713.6
12200.9
9665.26
7340.45
5335.91
2885.61
1770.45
-763.436
)
;

boundaryField
{
    wall
    {
        type            fixedFluxPressure;
        gradient        nonuniform List<scalar> 
1200
(
-1082.32
-30.342
-2114.88
-6230.19
-11388.3
-16544.1
-20571.2
-27916.6
-16797.7
-40986.1
45229
24040.2
32397.8
14647.7
4572.09
-6807.63
-13539.8
-39013.4
-17290.3
-34163.1
20492
10111
26070.5
6501.67
4952.71
-2469.38
-685.465
-27698.2
-7100.18
-14934.8
-5249.64
-6571.36
4163.24
-8276.32
-4185.05
-9925.47
-2896.08
-27552.1
-10316.3
-15775.5
-32371.4
-25716.9
-22587.8
-21894.4
-14707.5
-17565.9
-5449.06
-24306.5
-8489.16
-9657.71
-67160.1
-54018
-60682.4
-42819.6
-35175.2
-31460
-11808.8
-22033.2
-5303.09
-1000.54
-74752.7
-65591.4
-88623.2
-63996.6
-69519
-68779.7
-48193.6
-63183.8
-43679.1
-38925.8
-19185.9
-21054
-45746.4
-32703.5
-51583
-60275.6
-49173.8
-73006.8
-57629.1
-52236.6
66076.7
57934.9
45098.9
41988
21682.8
6292.33
4800.05
-20662
-16169.2
-8783.25
86304
79420.3
79746.7
71020.9
60181.5
48107.3
43386
25495.8
23536.3
33615
31271.5
29027.6
36442.4
33293.3
34591.7
32251.5
33096.4
26139.6
24955.4
38105.3
-23067.1
-22142
-17092.7
-15520.1
-11287.8
-8966.44
-4226.15
-5674.47
-4653.18
10792.3
-48672
-47973.9
-47248.7
-44186.4
-44657.9
-45027.8
-42714.6
-46413.4
-46479.6
-29399.8
-70908.9
-73758.6
-77151.7
-74317.9
-81058.8
-85092
-86213.1
-93182.6
-95103.6
-73329.1
-101040
-111720
-118200
-117597
-130567
-137925
-142915
-151526
-156196
-124551
-130135
-152966
-161184
-166645
-187445
-200572
-212929
-222203
-232822
-185492
-144359
-182135
-191701
-207504
-238828
-261620
-286211
-295264
-315558
-246582
-130074
-182394
-193215
-220539
-262937
-296371
-334663
-340570
-370509
-275042
-68350.8
-130170
-141537
-177433
-228136
-269250
-317563
-315946
-350124
-227860
15620
-47868.1
-58395.7
-97072.9
-151118
-194840
-246537
-233578
-263842
-119989
73082
13726.5
4956.32
-32148.8
-86200.6
-129667
-180450
-155585
-176589
-18563.5
128085
76520.1
68476
33886.9
-20068.8
-64294.3
-113034
-78176.4
-86136.9
78434.3
200686
161200
153174
121734
68089.1
21170.8
-25497.8
16415.6
24815.5
187042
256504
233402
227352
203032
155085
108277
67171
115025
142774
292936
221751
218838
217480
206338
174294
138703
114504
173946
225038
354942
100505
104333
107376
110615
98212.3
82990.7
86406.9
165961
242777
350344
7144.49
9363.49
10361.5
17518.1
13468.8
10483.5
34271.3
124555
209256
292417
-1933.77
1684.55
-1848.94
369.357
-6034.25
-8748.36
25249
120406
211886
264884
72577.8
77964.1
68583.6
61768.8
47376
34459.8
65224.5
154336
245852
268532
130170
140769
127209
117060
97508.6
73431.6
94540.1
172140
256474
255772
138244
154851
140171
133734
115030
84704.2
96139.8
162396
237089
224228
127146
150856
135426
133028
117339
84889.7
89444.6
148283
216681
199271
111295
143226
126177
125706
110630
76911.8
72080.5
120069
190009
166321
90507.9
130029
110234
110272
94169.7
62921.1
49559.8
85416.3
165196
128406
65949.3
112374
91426
92204.2
75407.4
49060.3
30533.3
63985.2
151623
98382.7
40105.2
91831.2
70404.4
71394.1
53861.8
32882.9
12113.9
49429.3
138804
64509.9
1799.42
57405
37462.3
39185.8
21956.4
6423.56
-13247.4
31481.7
118430
22997.3
-28561.3
29573.4
12140.6
14488.8
-3803.09
-16514.3
-36745.7
12076.4
96087.2
-2601.4
-32991.2
27827.6
13555.4
17542.9
-2638.31
-14416.4
-41893
2744.88
86282.5
20083.2
-9309.45
55133.9
42694.1
49000
27147
15180.6
-26438.4
9655.85
90776.8
70570.8
35650.6
106153
93808.2
104082
81964.1
68963.3
12095.2
41904.4
114759
113556
90719.7
171185
156796
173043
150926
137602
72722.2
97222.5
159845
143135
124268
217988
196995
217670
192492
180126
119078
125800
190400
137175
134305
247668
211973
232319
204575
204412
149958
133414
260976
119450
142850
292669
234104
245388
219783
228975
167407
140563
329571
113169
161645
361501
280415
268205
251100
259161
185076
162569
383605
121528
182621
423052
335623
292419
280427
278086
201702
187631
418823
140185
194706
441979
359738
306877
282628
268691
209491
202398
432038
155477
198196
438196
350001
318469
273738
246750
215436
215377
436851
168836
203862
437636
331777
341309
281104
251339
236887
238815
446163
188068
188058
427332
295298
350549
274257
249164
254507
246696
428616
192297
141992
394779
238070
326972
247389
217921
247561
215092
375553
169180
75681
340548
168760
276182
202555
184473
209766
179622
316453
124507
-2609.29
265838
93418.1
204631
142073
138602
159117
127926
257315
63022.2
-59085.4
203024
45785.8
148741
105215
108818
133480
97795.5
229781
36554.4
-110764
136533
5705.51
90799.2
70930.7
72051.4
106731
61679.1
195139
7608.06
-129268
99924.4
3291.23
69005.2
76380
72582.3
122133
74347.2
214135
45354.4
-144812
60598.5
-13515.1
25372.7
46830.9
30988.4
85003.9
28064.3
144020
-4701.3
-129480
58926.1
23361.3
56023.6
99604.3
86518.7
149112
108376
229262
114393
-80440
59814.9
-21979
-31719.6
-30024.1
-71867.1
-40377.1
-110969
-45001.3
-149269
1082.33
30.3379
2114.88
6230.19
11388.3
16544.1
20571.2
27916.6
16797.7
40986.1
-45231.6
-24040.9
-32398.6
-14648.5
-4573.04
6806.6
13538.8
39012.3
17289.9
34162.1
-20492.1
-10111
-26070.5
-6502.49
-4954.59
2465.52
680.321
27686.4
7096.01
14921.2
5259.84
6574.75
-4159.27
8277.67
4184.47
9920.35
2888.07
27521.3
10306.5
15744.3
32388.4
25722.5
22595
21897.2
14708.2
17559.6
5439.87
24253
8473.4
9609.55
67184
54025.8
60693
42826.8
35179.8
31454.1
11799.4
21958.3
5279.87
935.532
74802.6
65618.8
88654.5
64015.9
69537
68782
48189.4
63111.3
43657.9
38867.7
19234.3
21075.1
45823.3
32719.1
51613.7
60280.3
49174.5
72928.1
57608.5
52184.3
-66073.8
-57950.1
-45049.1
-42012.7
-21684.3
-6331.55
-4823.69
20530.5
16124.9
8709.9
-86308.6
-79435.8
-79720.6
-71056
-60207.4
-48182.1
-43436.1
-25680.2
-23611.5
-33711.3
-31267.1
-29027.7
-36424.7
-33304.8
-34605.1
-32315.4
-33140.8
-26332.6
-25035.2
-38196.5
23079.5
22145.5
17100.5
15519.8
11289.1
8924.42
4197.46
5498.66
4586.28
-10859.7
48690.4
47979.8
47270.3
44191.5
44670.3
44997.1
42692.1
46252
46424.2
29356
70947.3
73792.8
77222.3
74336.6
81088.4
85067.7
86190.7
93023.4
95054.4
73304.5
101127
111808
118347
117644
130626
137905
142887
151351
156148
124545
130266
153121
161422
166728
187531
200533
212869
221975
232757
185497
144508
182350
192007
207598
238894
261494
286040
294906
315424
246570
130219
182652
193550
220593
262892
296033
334232
339948
370203
274945
68485.7
130465
141868
177399
227881
268556
316689
314912
349543
227621
-15454.2
48249.3
58761
96984.6
150656
193754
245160
232129
263052
119703
-72831.4
-13186.3
-4478.29
32106.6
85631.5
128269
178638
153865
175832
18448.9
-127791
-75853
-67903.3
-33876.1
19409
62579.1
110770
76227.1
85553.3
-78276.6
-200428
-160493
-152575
-121716
-68872.1
-23266.5
22684.8
-18644.7
-25179.1
-186631
-256331
-232702
-226746
-202990
-155947
-110743
-70582.2
-117556
-142865
-292313
-221734
-218177
-216848
-206182
-175084
-141402
-118439
-176727
-224771
-354157
-100492
-103840
-106790
-110324
-98825
-85791.2
-90759.5
-168912
-242086
-349539
-7132.56
-9057.27
-9862.91
-17181.5
-13988.1
-13436
-39058
-127691
-208186
-291939
1944.39
-1413.58
2311.07
-77.7586
5471.86
5532.24
-30511.1
-123766
-210524
-264833
-72571.2
-77735.5
-68190.7
-61592.1
-48056.7
-37962.4
-70906
-157899
-244181
-268500
-130168
-140745
-126956
-116975
-98243.7
-77059.3
-100415
-175815
-254565
-255748
-138244
-154846
-140120
-133689
-115756
-88306.9
-101995
-166179
-235150
-224209
-127148
-150854
-135421
-132998
-118040
-88389
-95188.2
-152221
-214982
-199257
-111298
-143226
-126173
-125688
-111293
-80239.6
-77682.9
-124202
-188855
-166311
-90512
-130030
-110232
-110267
-94779.8
-65985.3
-55042.6
-89951.8
-165005
-128398
-65954.4
-112378
-91424.5
-92198.3
-75955.6
-51780.4
-35874
-68822.7
-151605
-98375.5
-40111.6
-91836.2
-70403.9
-71387.6
-54354.8
-35223.8
-17202.3
-54171
-138792
-64506.4
-1807.17
-57411.8
-37462.4
-39178.3
-22418.4
-8424.75
8696.82
-35565.1
-118433
-23009.6
28551.8
-29581.9
-12140.4
-14478.8
3301.27
14694.7
33199.3
-14808.5
-96209.1
2548.15
32979.2
-27837.8
-13554.1
-17527.9
1977.59
12607.5
39778.1
-3522.49
-86941.3
-20195.1
9294.26
-55145.7
-42692.3
-48980.4
-27988.2
-16929.1
25561
-8521.98
-92139.4
-70712.9
-35669.8
-106166
-93808.8
-104062
-82811.2
-70512.4
-12637.2
-39890.9
-116175
-113683
-90745.2
-171199
-156804
-173029
-151558
-138883
-73660.2
-95476.7
-160771
-143222
-124310
-218009
-197012
-217667
-192781
-181086
-120519
-124829
-190866
-137220
-134397
-247714
-211997
-232325
-204564
-205070
-151856
-133689
-261205
-119462
-143062
-292765
-234128
-245399
-219659
-229465
-169748
-141088
-329690
-113162
-161982
-361665
-280445
-268215
-251093
-259502
-187834
-162954
-383650
-121511
-182909
-423228
-335675
-292435
-280423
-278231
-204743
-187820
-418797
-140164
-194809
-442098
-359810
-306907
-282627
-268570
-212669
-202407
-431942
-155452
-198254
-438251
-350068
-318512
-273741
-246302
-218673
-215232
-436679
-168802
-203909
-437647
-331814
-341351
-281113
-251322
-239933
-238561
-445915
-188023
-188091
-427321
-295295
-350573
-274269
-249155
-256296
-246414
-428313
-192241
-142014
-394758
-238029
-326968
-247400
-217916
-247589
-214931
-375248
-169119
-75695.4
-340522
-168688
-276150
-202559
-184471
-209777
-179559
-316206
-124450
2602.66
-265802
-93327.9
-204578
-142067
-138601
-159121
-127893
-257144
-62977.9
59085.5
-202973
-45689.7
-148678
-105200
-108818
-133481
-97767.4
-229653
-36530.3
110768
-136466
-5615.3
-90732.7
-70909.6
-72051.3
-106731
-61655.4
-195031
-7604.68
129274
-99843
-3212.4
-68938.6
-76353.4
-72581.6
-122132
-74327
-214039
-45367.2
144815
-60511.6
13580
-25308.8
-46800.6
-30987
-85002.8
-28040.7
-143936
4684.1
129489
-58821.7
-23299.3
-55956.7
-99568.1
-86515.2
-149110
-108329
-229201
-114408
80434.9
-59735.7
22031.2
31777.3
30059.5
71870.9
40378.6
110998
45029.4
149275
)
;
        value           nonuniform List<scalar> 
1200
(
88292.3
81232.5
82382.7
82370.3
82402.8
82373.3
82281
82256.5
81052.5
88148.4
85280.6
81722.5
83541.5
82847.4
82817.3
82761.9
82677.5
83216.5
81474.9
84822.9
83757.2
81808.3
83670.2
82717.4
82910.4
82883.7
82647.7
83415.8
81708.4
83542.5
83170.4
81904.7
83363.4
82405
82757.7
82749
82393.2
83227.4
81850.9
83099.2
82750.4
81909.8
82995.2
82167.6
82589.8
82601.7
82210.3
83025.1
81937.9
82847.6
82372.8
81741.2
82621.5
81939.9
82382.9
82426.4
82061.9
82827.3
81971.7
82667.1
82140
81606.2
82343.2
81699.7
82089.1
82122.1
81772.5
82450.1
81751.4
82313.3
82261.9
81802.7
82371.2
81776.8
82058
82040.9
81689.7
82226.8
81642.2
82099.7
82579
82217
82645.4
82141.2
82323.2
82264.2
81930.6
82308.5
81823.7
82180.5
82568.1
82302.8
82655.8
82267.8
82418.1
82372.2
82104.3
82381
81999
82278.5
82156.5
81946.6
82282
81992.5
82161.8
82164.5
81985.6
82227.2
81946
82181.5
81730.1
81576.7
81850.2
81617.8
81784.8
81808.5
81687.5
81905.4
81698.3
81908.8
81448.3
81312
81537.7
81334.1
81468.4
81473
81366.3
81537
81367.2
81559.7
81168.5
81029.5
81213.9
81032.3
81130.1
81107.5
81007.1
81125.8
80983.4
81173.2
80825.2
80672.3
80810.5
80643.5
80702
80648.1
80554.7
80620.9
80507.2
80713.2
80465.3
80284
80367.2
80199.6
80201
80095.5
79996
79998.6
79912.5
80151.9
80176.5
79954.6
79972.6
79784
79702.9
79517.4
79389.1
79315.6
79255.5
79545.4
80065
79798.3
79752.1
79530.2
79357.7
79081.9
78914.7
78774
78749.3
79111.2
80248
79949.6
79856.9
79606.5
79360.8
79011.9
78820.1
78647.5
78681.9
79130
80576.7
80273.6
80163
79903.6
79620.6
79233.2
79044.2
78886.7
79003.7
79538.1
80773.9
80487.2
80382.7
80131.1
79840.1
79439.9
79271.8
79158.3
79366.1
79975.3
80934.8
80675.3
80585
80341.9
80049.8
79640.1
79491.2
79434.6
79734.5
80397.5
81149.2
80934.4
80867
80637
80349.8
79930.1
79792.4
79799.7
80190.3
80881
81166.3
81023.4
81000.6
80814.8
80570.4
80173.4
80063.9
80155.1
80635.9
81321.3
80557.9
80516.6
80545.7
80441.2
80302.2
80007.5
79994.8
80225.9
80810.9
81457.9
79405.4
79400.8
79456.5
79429.9
79416.2
79281.1
79433.1
79857.1
80564.2
81145.8
78399.9
78374.4
78412
78399.2
78438.8
78407.1
78672.3
79219.9
79929.4
80428.1
77830.8
77818
77835.9
77800.4
77822.5
77813.5
78114.3
78733.7
79423.3
79773.6
77703.2
77728.3
77721.8
77652.6
77614.2
77560.1
77810.1
78426.7
79076
79253.8
77495.2
77586.8
77546.5
77471.2
77378.7
77262.1
77418
77977.7
78560.7
78572
76952.6
77113
77047.4
76998.1
76889.3
76735.9
76805
77304.2
77822.2
77710.6
76178.5
76395.5
76301.7
76299.3
76197.8
76037.3
76050.1
76516.4
76996.1
76802.2
75253
75522
75396.1
75443.1
75346.9
75192.7
75141.4
75573.4
76040.3
75763.1
74191.8
74504.8
74337.7
74419.6
74314.6
74181
74074
74422
74987.2
74583.2
73029.2
73381.5
73187.1
73293
73191
73085
72963.7
73254.1
73936.5
73421.5
71807.6
72190.2
71984.7
72108.2
72022.6
71943.3
71843.4
72108.6
72933.8
72307.8
70461.6
70865.2
70675.5
70824.5
70784.8
70744.6
70706.2
70996.2
72048.3
71351
69052.2
69469.2
69318.1
69506
69545.6
69551.7
69588.1
69951.9
71390.9
70767.8
67586
68017.9
67917.6
68153
68299.9
68364.4
68529.6
69005.9
70895.9
70665.6
65954
66399.3
66315.8
66545.8
66726.1
66755.5
66992.9
67359.8
69260.7
69201.4
64090
64556.6
64435
64604.2
64709.7
64576.9
64703.3
64680.4
66108.9
65665.9
62066
62590.7
62387.9
62510.5
62488.2
62185.4
62158.6
61784.5
62826.5
61860.8
59874.1
60519.6
60183.7
60311.4
60123.8
59711.3
59602.4
59006.9
59994.4
58587.2
57529.1
58408.4
57825.3
57985.4
57600.8
57082.5
57072.9
55704
57594.2
55533
55075
56371.9
55463.6
55604.8
55079.5
54432
54512.8
52550.4
55168.3
52685.9
52171.6
53829
52784.4
52801.5
52434.5
51665.1
51798.4
49661.3
52519.9
49905.6
48276.8
49956.7
49541.2
49314.6
49419.5
48521
48697
46693.6
49486.4
46932.8
44248.2
45471.9
45990.5
45590.9
45922.5
44954.3
45123.6
43333.2
45927
43500.1
40325.7
41399.6
41991.2
41744.6
41941.9
40890.7
41007.5
39319.4
41673.5
39375
36209.4
37381.6
37339.8
37372.8
37287.8
36039.2
36134.9
34220.9
36445.7
34270.2
31487.3
32906.9
31918.6
32247.8
31688.9
30492.7
30388.1
28244.1
30304.7
28322.7
26124.1
27748.3
25805.1
26422.3
25401.3
24305.5
24280.2
21823.2
23676
21969.4
20409
22143.1
19515.2
20523.6
19246.6
18643.6
18604.8
16835
18061.6
16646.6
14640.7
16403.4
13536.2
14966
13676.2
13756.6
13852.9
12837.7
14181.2
12672.9
9679.69
11410.4
8735.58
10407.3
9305.82
9900.49
10287.7
9831.8
11596.9
9938.27
5576.64
7231.43
5039.57
6665.95
5874.17
6660.82
7324.16
7076.76
9115.73
7395.91
3047.62
4586.32
2948.16
4263.92
3773.57
4448.75
5322.54
5108.27
7324.42
5674.06
505.487
1889.15
709.578
1621.37
1446.74
1914.18
2895.08
2524.38
4411.01
2848.13
402.346
1620.23
921.63
1382.39
1294.92
1416.33
2388.36
2072.51
3977.93
2625.6
-3271.76
-2457.57
-3722.91
-3557.41
-3003.62
-2362.23
-1217.32
-1698.25
-917.046
-1883.87
88303.3
81232.9
82403.9
82432.6
82516.8
82538.8
82486.8
82535.7
81220.5
88558.3
84828
81482
83217.4
82700.9
82771.5
82830
82812.9
83606.8
81647.9
85164.7
83552.1
81707.1
83409.3
82652.4
82860.8
82908.4
82654.5
83692.8
81779.4
83691.8
83222.8
81970.4
83321.6
82487.7
82799.5
82848.3
82422.1
83502.8
81954
83256.9
83074.2
82166.9
83221
82386.5
82736.8
82777.3
82264.7
83267.8
82022.7
82943.9
83044.7
82281.5
83228.3
82368.1
82734.5
82740.8
82179.8
83047
82024.4
82676.5
82888.2
82262.6
83229.8
82340
82784.5
82810
82254.4
83081.4
82188
82702.1
82454.3
82013.6
82829.5
82104.2
82574.3
82643.9
82181.6
82956.4
82218.5
82621.7
81918.2
81637.4
82194.7
81721.2
82106.4
82201.1
81882.6
82514.3
81985.2
82267.8
81704.7
81508.2
81858.3
81557.2
81816
81890.5
81670.1
82124.6
81763.1
81941.6
81843.6
81656.1
81917.5
81659.3
81815.6
81841.4
81654.2
81964.3
81695.8
81799.7
81960.8
81798.1
82021.1
81772.9
81897.6
81897.8
81729.5
81960.8
81744.2
81800.2
81935.1
81791.7
82010.3
81775.9
81915
81923
81793.2
81999.9
81831.5
81853.3
81877.9
81767.2
81985.8
81775.6
81940.8
81958.2
81869.1
82056.5
81934
81906.2
81836.3
81790.1
81993.6
81819.8
82008.1
82027.3
81983.7
82134.9
82068.8
81958.6
81767.7
81814.9
81980.9
81866.8
82076.2
82101.1
82125.1
82219.2
82240.4
82006.9
81621.3
81777.5
81892
81859.9
82091.9
82133.1
82250.4
82266
82410.3
82011.3
81366.8
81624.2
81686.9
81736.1
81987.1
82043.6
82258.8
82175.6
82452.6
81861.1
80932.5
81253.3
81274.7
81380.6
81640.6
81699.7
81989.8
81799.8
82179.1
81406.9
80421.5
80754.8
80749.5
80873.6
81128.4
81173.8
81499.7
81211.9
81636.1
80735.5
80044.8
80353.8
80336.5
80452.2
80697.9
80726.5
81063.2
80701.5
81126
80159.6
79656.2
79915
79904.4
80003.1
80245.7
80270.7
80605.2
80202.1
80591.2
79613.9
79144.3
79327.6
79339.6
79419.7
79663
79703.1
80026.9
79619.2
79939.1
79013.2
78602.4
78694.3
78731.3
78784.5
79012.9
79072.3
79367
78986.1
79206.9
78396.1
78340.2
78332.8
78375.2
78378.5
78552.9
78600.3
78820.5
78465.7
78561.8
77913.8
78400.4
78361.1
78387
78325.7
78429.2
78430.3
78536.7
78175.4
78141
77648
78328.8
78283.3
78312.3
78226.7
78300.2
78280.4
78294
77950.9
77844.2
77507.3
77850.6
77803.6
77858.2
77799.2
77878.6
77877.1
77822.5
77504.5
77313.9
77124.9
76977.8
76950.6
77039.1
77036.4
77135.3
77189.3
77115.2
76856.6
76629.2
76568.4
76193.6
76179.3
76276.4
76301.2
76398
76500.4
76428.4
76228.7
76009.6
76014.1
75570.2
75564.4
75646
75661
75733.4
75861.6
75799.6
75651.9
75465.4
75468.2
74907
74886.8
74947.4
74969.2
75019
75161.9
75112.6
75004.2
74841.6
74809.4
74140.1
74089.6
74134.2
74186
74235.5
74398.2
74378.6
74342.5
74148.5
74100.4
73286.7
73204.4
73235.2
73316.7
73368.1
73528.3
73537.3
73534.1
73336.1
73299.4
72369.8
72257.7
72272.7
72370.8
72432.6
72573.4
72618.3
72577.8
72419.6
72438.4
71406.6
71271.7
71280.5
71394.1
71480.1
71596.4
71684
71578.2
71544.9
71663.6
70443.8
70291.2
70300.8
70432.5
70561.6
70665
70804.5
70650.5
70863.2
71120.1
69338.1
69173.6
69196.7
69361
69579.6
69702.9
69929
69811.6
70429.5
70788.9
67916.3
67739.6
67782.2
67977.5
68320.9
68494.6
68933
68974.5
70032.2
70459.6
66047.5
65848
65889.1
66055.6
66447.9
66590.4
67251.1
67274.2
68351.6
68494.4
63733.8
63495
63497.2
63563.3
63883.3
63875.4
64578.8
64280
64960.5
64531.9
61158.9
60878.5
60820.2
60779.8
60973.8
60799.4
61424.3
60829.7
61226.9
60430.5
58631.4
58338.4
58213.8
58134.4
58196.5
57902.5
58400.9
57761.2
58089.4
57215.4
56185.8
55928.4
55704.9
55662.3
55555.3
55033.5
55558.8
54376.8
54984.6
54338.1
53646.2
53440.5
53121.3
53151.5
52883
52138.6
52820.6
51146.8
51873
51554
50554.8
50210.8
49978.6
50119.2
49924.2
49070.7
49926.1
48036.7
48684.2
48690.4
46447.2
45725
46184.8
46388.4
46616.3
45738.7
46656.3
44818.5
45298.1
45531
42297.9
41050.4
42395.6
42519.7
43097.4
42267.9
43004.3
41310.7
41606.6
41945.5
38342.3
37017.3
38495.2
38558.4
39205.5
38426.3
38828.6
37167.5
37305.8
37687.1
34172.2
33006.1
34026.1
33959.4
34477.7
33525.8
33742.7
31834.3
31986.1
32390
29609.1
28634.9
28968.9
28743
28947.1
28001.1
27829.1
25778.3
26022.1
26400
24705.7
23801.9
23426.5
23153.9
22927.7
22126.2
21804
19672.1
19923.4
20278
19652.7
18739.3
17828.6
17763.7
17220.8
16799.1
16506.3
15039.1
14898
15401.8
14666.8
13747.2
12602.3
12921.8
12254.9
12371.1
12261
11558.9
11608.9
12042.7
10270.4
9382.56
8277.43
8921.93
8253.05
8812.86
8952.13
8854.27
9300.22
9572.2
6684
5868.42
4981.98
5759.7
5164.48
5940.72
6256.19
6460.16
7165.44
7319.07
4340.21
3589.54
2915.02
3575.56
3009.91
3723.22
4100.79
4364.59
5184.48
5219.31
1952.86
1284.69
844.339
1368.54
978.665
1604.36
2044.88
2243.23
2972.31
2893.85
1697.89
1033.88
689.879
824.407
300.164
551.576
897.313
987.861
1686.06
1480.02
-2469.8
-3056.31
-3504.33
-3241.4
-2704.11
-1643.96
-813.891
-588.409
-467.861
-391.495
)
;
    }
    inlet
    {
        type            fixedFluxPressure;
        gradient        nonuniform List<scalar> 
20
(
-3.27593e-05
-0.000517639
0.000586414
2.10612e-05
0.000201591
0.000264334
6.04621e-05
0.00179676
-0.00264109
-0.00087978
-2.44781e-05
-0.000508298
0.000589886
2.27155e-05
0.000178829
0.000221159
-2.57279e-05
0.001692
-0.00271561
-0.00107743
)
;
        value           nonuniform List<scalar> 
20
(
88295.4
81232.8
82388.1
82386
82431.5
82414.8
82332.6
82326.4
81094.6
88251
88300.2
81232.6
82398.4
82416.9
82488.1
82497.2
82435.2
82465.8
81178.5
88455.8
)
;
    }
    outlet
    {
        type            fixedValue;
        value           uniform 0;
    }
    heatWall
    {
        type            fixedFluxPressure;
        gradient        nonuniform List<scalar> 
240
(
295.606
295.606
295.606
295.606
295.606