/*--------------------------------*- C++ -*----------------------------------*\
  =========                 |
  \\      /  F ield         | OpenFOAM: The Open Source CFD Toolbox
   \\    /   O peration     | Website:  https://openfoam.org
    \\  /    A nd           | Version:  8
     \\/     M anipulation  |
\*---------------------------------------------------------------------------*/
FoamFile
{
    version     2.0;
    format      ascii;
    class       surfaceScalarField;
    location    "900";
    object      phi;
}
// * * * * * * * * * * * * * * * * * * * * * * * * * * * * * * * * * * * * * //

dimensions      [1 0 -1 0 0 0 0];

internalField   nonuniform List<scalar> 
2860
(
1.60286
-0.00760083
-0.00346759
1.60407
0.00471396
0.135038
1.60463
0.00491507
0.198774
1.60375
0.00598935
0.182562
1.60194
0.00644743
0.0824601
1.59967
0.00554402
-0.124923
1.59681
0.00469852
-0.356279
1.59401
0.00426903
-0.416
1.59222
0.00419874
-0.211141
1.59125
0.0041567
0.0572609
1.59016
0.0036486
0.155419
1.5888
0.0033037
0.0839399
1.5875
0.00290008
-0.0679268
1.58618
0.00239995
-0.289243
1.58476
0.00189711
-0.604759
1.58331
0.00146497
-1.01132
1.58198
0.00111454
-1.46228
1.58084
0.000789388
-1.86803
1.58007
0.000502773
-2.0795
1.57963
0.000255447
-2.02642
1.57917
7.69594e-05
-1.79261
1.57865
4.94385e-06
-1.3871
1.57859
-4.88142e-05
-0.755457
1.58071
-0.000425804
0.0487649
1.58379
-0.00111131
0.745057
1.5866
-0.00137926
1.06111
1.58837
-0.000973965
1.08395
1.58925
-0.000803985
1.07726
1.59061
-0.00125448
1.30133
1.59314
-0.00221524
1.7035
1.59687
-0.00330948
2.12939
1.60163
-0.00434652
2.51928
1.60727
-0.00531071
2.85835
1.61355
-0.00611842
3.13134
1.62036
-0.00688504
3.32673
1.6278
-0.00776986
3.4411
1.63604
-0.00904444
3.43684
1.64554
-0.0109582
3.33878
1.65688
-0.0135504
3.22639
1.67004
-0.0161211
3.18461
1.68432
-0.017873
3.27585
1.69908
-0.0187413
3.528
1.71434
-0.0193209
3.8779
1.73177
-0.0206967
4.26491
1.75462
-0.0242111
4.7036
1.78272
-0.0271876
5.23938
1.81192
-0.0227968
5.88588
1.83996
-0.000124365
6.69281
1.85919
0.03434
7.80937
1.85293
0.0707495
9.14746
1.8091
0.100985
10.4411
1.73114
0.119398
11.4637
1.63595
0.121516
12.118
1.54336
0.107418
12.3712
1.46729
0.0832055
12.3095
1.41299
0.0571435
11.9818
1.37782
0.0356025
11.5302
1.35786
0.0214494
11.0258
1.34358
0.0133151
10.5387
0.0199316
10.336
1.59291
-0.0129912
-0.000482576
1.59271
-1.75409e-05
0.0739851
1.59166
0.000359872
0.106353
1.59147
0.000554358
0.0866558
1.59198
0.000103954
0.00740992
1.59216
-0.000557241
-0.159467
1.59157
-5.62211e-05
-0.36267
1.59086
0.000803606
-0.427866
1.5912
0.00136309
-0.247634
1.59265
0.00131586
-0.000388827
1.59384
0.000929535
0.0908371
1.59493
0.000380969
0.0225752
1.59597
0.000140095
-0.126237
1.59678
0.00011676
-0.354915
1.59725
0.000248936
-0.701176
1.59746
0.000302721
-1.17517
1.59772
5.49124e-05
-1.73913
1.59834
-0.000583768
-2.30267
1.59955
-0.00149213
-2.70163
1.60124
-0.00240958
-2.8417
1.6031
-0.00320531
-2.78824
1.60513
-0.00377521
-2.54012
1.60767
-0.00417961
-2.03193
1.61117
-0.00472236
-1.30431
1.61567
-0.00553108
-0.625636
1.61946
-0.00633529
-0.30023
1.62206
-0.00642879
-0.266853
1.6238
-0.00621765
-0.258249
1.62617
-0.00624753
-0.0192093
1.62967
-0.00623235
0.412251
1.63427
-0.00646275
0.88843
1.63991
-0.007034
1.3545
1.64648
-0.00788845
1.7994
1.65375
-0.00872009
2.20597
1.66159
-0.0096244
2.56046
1.67012
-0.0108195
2.85397
1.67945
-0.0127826
3.04406
1.69001
-0.0160204
3.14873
1.70239
-0.0206042
3.24406
1.71655
-0.0249267
3.41609
1.73161
-0.0270226
3.73715
1.74678
-0.0261501
4.25656
1.76305
-0.0220843
4.95501
1.78742
-0.0134464
5.90727
1.83
0.000354643
7.41956
1.88645
0.0142463
9.67766
1.93597
0.0210719
12.2496
1.96339
0.0325244
14.4203
1.9674
0.0585554
15.9024
1.95198
0.0945376
16.882
1.92215
0.129473
17.5636
1.88417
0.152333
18.0572
1.84455
0.154309
18.389
1.80814
0.134329
18.5159
1.77709
0.100279
18.4466
1.75151
0.0633257
18.152
1.72946
0.0324336
17.6998
1.71072
0.0116143
17.1183
1.69085
-0.00100803
16.4651
0.00570811
15.9034
1.58348
-0.00346441
-0.00664732
1.58422
0.00287493
0.0940804
1.58507
0.00380144
0.175851
1.58658
0.00364866
0.188919
1.5881
0.00339318
0.118179
1.58904
0.00302491
-0.0716441
1.58943
0.00239794
-0.348313
1.58972
0.00249995
-0.491713
1.59079
0.00295932
-0.351884
1.59254
0.00322341
-0.10346
1.59418
0.00280837
0.0109489
1.59545
0.00208264
-0.0414423
1.59666
0.00145623
-0.188143
1.59768
0.00089637
-0.427686
1.59841
0.00031939
-0.794282
1.59898
-0.000338732
-1.29363
1.59962
-0.00120265
-1.88683
1.60057
-0.00237733
-2.48382
1.60199
-0.00375507
-2.91927
1.60379
-0.0050886
-3.09504
1.60567
-0.00622952
-3.07351
1.6077
-0.00709226
-2.85644
1.61019
-0.00774933
-2.3801
1.61355
-0.00847742
-1.67828
1.6177
-0.0094874
-1.01041
1.62114
-0.0106633
-0.682138
1.62354
-0.0112118
-0.6518
1.62546
-0.0111929
-0.659914
1.62797
-0.0110513
-0.455206
1.63167
-0.0108709
-0.0737647
1.63633
-0.0107769
0.347554
1.64198
-0.0110121
0.754943
1.64854
-0.0117137
1.13493
1.65569
-0.0123764
1.4675
1.66328
-0.0131873
1.74407
1.67137
-0.0144574
1.95781
1.68004
-0.0168819
2.07208
1.68977
-0.0213334
2.10735
1.70139
-0.0281662
2.14038
1.71505
-0.0350016
2.25199
1.73
-0.0388146
2.50744
1.74558
-0.0386861
2.94284
1.76156
-0.0346604
3.4961
1.77899
-0.0253721
4.10839
1.80155
-0.00930472
4.84497
1.83363
0.00770265
5.85577
1.87816
0.0178827
7.22663
1.93247
0.0285268
8.86076
1.98496
0.0500445
10.5093
2.02207
0.0830797
11.9491
2.03626
0.11984
13.0352
2.02667
0.148381
13.7197
1.99627
0.157345
14.0105
1.94945
0.144192
13.931
1.89149
0.116223
13.5946
1.82843
0.0840457
13.0792
1.76515
0.0561865
12.5353
1.70752
0.0351138
11.977
1.65223
0.021198
11.5214
0.0123656
11.0078
1.5893
-0.00160271
-0.0181058
1.59069
0.00116065
0.0272204
1.59186
0.00179614
0.0479887
1.59283
0.00143989
0.0227518
1.59382
0.000939607
-0.0449239
1.59466
0.000331569
-0.177455
1.59449
0.000226455
-0.375816
1.59396
0.000892225
-0.477631
1.59425
0.00162649
-0.347784
1.59549
0.00187606
-0.127422
1.59681
0.0013222
-0.0237834
1.59788
0.000528495
-0.0718241
1.59893
3.6358e-05
-0.209338
1.5998
-0.000232568
-0.440343
1.60036
-0.000486873
-0.805619
1.60069
-0.000902128
-1.32349
1.60107
-0.00169869
-1.96923
1.60181
-0.00299984
-2.65737
1.60317
-0.0046473
-3.21364
1.605
-0.00627089
-3.52112
1.607
-0.00768631
-3.62786
1.60921
-0.00880244
-3.53203
1.61188
-0.00970974
-3.16702
1.6152
-0.0107078
-2.55298
1.6189
-0.0120359
-1.93033
1.62202
-0.0135924
-1.60285
1.62454
-0.0146374
-1.56201
1.62706
-0.0149996
-1.57551
1.6303
-0.0150177
-1.40387
1.63435
-0.0148153
-1.06567
1.63903
-0.0145432
-0.678427
1.64434
-0.0144158
-0.295047
1.65054
-0.0146934
0.0642438
1.65728
-0.0154935
0.37523
1.66446
-0.0167219
0.629237
1.67208
-0.0185739
0.817207
1.68011
-0.0217957
0.903289
1.68908
-0.0275696
0.905401
1.70016
-0.0367682
0.899693
1.71356
-0.046183
0.968879
1.72825
-0.0513692
1.18759
1.74349
-0.0511257
1.60414
1.75906
-0.0459221
2.15882
1.77567
-0.0353696
2.7809
1.79566
-0.0196796
3.48288
1.82038
-0.00420958
4.3037
1.85084
0.0060416
5.25435
1.89102
0.0177561
6.36354
1.94249
0.0359098
7.64168
1.99776
0.0624747
9.02308
2.04368
0.0954458
10.3153
2.06918
0.127014
11.3273
2.06983
0.14464
11.9703
2.04728
0.142648
12.2359
2.00695
0.125287
12.2296
1.95556
0.100997
12.0108
1.89857
0.0774471
11.7054
1.84202
0.0563084
11.285
1.78404
0.0411972
10.9151
0.0150585
10.3451
1.58928
0.000507628
-0.0327359
1.58932
0.00135396
-0.0187967
1.58997
0.00165595
-0.00343581
1.59061
0.00156374
-0.016719
1.5915
0.0011449
-0.0630716
1.59247
0.000457988
-0.173106
1.59268
0.000191584
-0.389442
1.59269
0.000626707
-0.55035
1.59339
0.00131966
-0.483616
1.5948
0.00165318
-0.296766
1.59622
0.00120671
-0.189136
1.59735
0.000424389
-0.224161
1.59838
-8.79609e-05
-0.363274
1.59922
-0.000406154
-0.615466
1.5998
-0.000767611
-1.0214
1.60024
-0.00129854
-1.60449
1.60078
-0.00214838
-2.34898
1.60171
-0.00344669
-3.17241
1.60325
-0.00502454
-3.89299
1.60522
-0.00654071
-4.37842
1.60736
-0.00783647
-4.6662
1.60979
-0.00889306
-4.75377
1.61267
-0.00987006
-4.57241
1.61601
-0.0110728
-4.12302
1.61951
-0.0127026
-3.61316
1.6227
-0.014594
-3.3371
1.62586
-0.016084
-3.32315
1.62945
-0.0168915
-3.37228
1.63375
-0.0172699
-3.26093
1.63863
-0.017345
-2.99859
1.64396
-0.0173283
-2.68479
1.64977
-0.0175114
-2.36606
1.65618
-0.0181718
-2.07041
1.66288
-0.019146
-1.82732
1.66969
-0.0204471
-1.64381
1.67662
-0.0223773
-1.52905
1.68382
-0.0258739
-1.51661
1.6924
-0.0325997
-1.59527
1.70441
-0.0443613
-1.69463
1.72007
-0.0570823
-1.72889
1.7374
-0.0642689
-1.61339
1.75472
-0.0645347
-1.29743
1.77147
-0.0595194
-0.854016
1.78737
-0.0493437
-0.359653
1.8041
-0.0350095
0.198883
1.82275
-0.0197882
0.867027
1.84406
-0.00672459
1.6564
1.86968
0.00543762
2.5015
1.90271
0.0216961
3.39361
1.94445
0.0436337
4.40822
1.99093
0.0720608
5.50353
2.03367
0.102259
6.56608
2.06489
0.122401
7.45768
2.08092
0.125993
8.07596
2.08271
0.11494
8.46428
2.07352
0.0959062
8.64803
2.05668
0.0756196
8.74757
2.03549
0.0559201
8.70541
2.00984
0.04085
8.72447
0.00936579
8.38773
1.58931
0.0026008
-0.0473485
1.58921
0.00148415
-0.06873
1.5898
0.00140391
-0.0765117
1.59037
0.00155527
-0.10749
1.59118
0.00123607
-0.162487
1.59217
0.000594541
-0.260827
1.59252
0.000159524
-0.474658
1.59266
0.000324551
-0.662437
1.59342
0.000843633
-0.643333
1.59477
0.00111627
-0.493706
1.59616
0.000723831
-0.39312
1.59728
-2.3907e-06
-0.420771
1.59828
-0.000497202
-0.560782
1.59913
-0.000844525
-0.82535
1.59981
-0.00122844
-1.25437
1.60042
-0.00169953
-1.87931
1.60114
-0.00234833
-2.69753
1.60226
-0.00323641
-3.63144
1.60398
-0.00424338
-4.49186
1.60608
-0.00507041
-5.13159
1.60835
-0.00561815
-5.58003
1.61087
-0.00593409
-5.83845
1.61381
-0.00625256
-5.84363
1.61712
-0.00695073
-5.58523
1.62056
-0.00823758
-5.23377
1.62398
-0.00988073
-5.05619
1.62772
-0.0112511
-5.10815
1.63212
-0.0120486
-5.22717
1.63725
-0.0126164
-5.21749
1.64292
-0.0130852
-5.08774
1.64904
-0.0136807
-4.92068
1.65571
-0.0147306
-4.74917
1.66298
-0.016518
-4.59735
1.67059
-0.0185715
-4.48263
1.67825
-0.0208284
-4.40454
1.68584
-0.02362
-4.37142
1.69393
-0.0282689
-4.41819
1.70447
-0.037614
-4.54128
1.72011
-0.0545833
-4.66945
1.74061
-0.0728002
-4.71472
1.76283
-0.0825414
-4.59917
1.7844
-0.0829405
-4.27882
1.80502
-0.0777683
-3.83001
1.82473
-0.0674927
-3.30709
1.84431
-0.0534523
-2.71318
1.86447
-0.0390273
-2.0365
1.88519
-0.0263707
-1.31023
1.90709
-0.0137423
-0.599699
1.93363
0.00278476
0.0821487
1.96389
0.0259252
0.822278
1.99773
0.0557421
1.63072
2.03058
0.089944
2.44755
2.0591
0.113961
3.23515
2.08073
0.120426
3.903
2.09537
0.110841
4.44327
2.10432
0.0924471
4.82337
2.10991
0.0716239
5.13779
2.11309
0.0519352
5.29827
2.11476
0.0353305
5.54245
0.0113497
5.35576
1.58955
0.00423401
-0.0588725
1.59058
-0.00046834
-0.101423
1.59176
-0.000902821
-0.104409
1.59263
-0.000687956
-0.11438
1.5935
-0.000947572
-0.13272
1.59456
-0.00149567
-0.171145
1.59474
-0.00166391
-0.321871
1.5944
-0.00122057
-0.475953
1.59453
-0.000514246
-0.462893
1.59539
-9.42975e-05
-0.32987
1.59655
-0.000316907
-0.22868
1.59762
-0.000895681
-0.24349
1.59857
-0.00125311
-0.378157
1.5993
-0.00137056
-0.648218
1.59972
-0.00141874
-1.09511
1.59992
-0.00150932
-1.76146
1.60019
-0.00173849
-2.66042
1.60096
-0.00214539
-3.72001
1.60248
-0.00250609
-4.74053
1.60452
-0.00252402
-5.55448
1.60685
-0.0021014
-6.17878
1.60954
-0.0013518
-6.61287
1.61275
-0.000547139
-6.79545
1.61641
-0.000104275
-6.70628
1.62032
-0.000317125
-6.48008
1.62451
-0.00102847
-6.35039
1.62929
-0.00169083
-6.39469
1.6349
-0.00207567
-6.47986
1.64122
-0.00258035
-6.44766
1.648
-0.00332445
-6.3231
1.65518
-0.00459681
-6.18586
1.66289
-0.00661185
-6.05902
1.67118
-0.0094496
-5.97408
1.67974
-0.0122716
-5.94619
1.68826
-0.0152323
-5.96212
1.69664
-0.0192972
-6.01057
1.70542
-0.0270829
-6.0916
1.71666
-0.0430336
-6.16769
1.73339
-0.0693505
-6.16196
1.75564
-0.0943443
-6.03527
1.7797
-0.104878
-5.76936
1.80273
-0.102561
-5.33622
1.82421
-0.0941753
-4.79517
1.84484
-0.0812994
-4.20641
1.86574
-0.0659345
-3.61377
1.88785
-0.0517832
-3.01088
1.9114
-0.0404638
-2.39144
1.93681
-0.0301912
-1.77836
1.96489
-0.0168615
-1.18919
1.99513
0.00529666
-0.582642
2.02602
0.0349828
0.0912894
2.05555
0.0673798
0.764271
2.08182
0.0897749
1.36362
2.1038
0.0967056
1.84829
2.12222
0.0885348
2.26245
2.13732
0.0727391
2.59332
2.15069
0.0538018
2.93601
2.16107
0.0378636
3.17081
2.17207
0.0208497
3.53396
0.00976192
3.43958
1.58384
0.0134051
-0.0793459
1.58417
0.00143534
-0.201283
1.58476
0.00140069
-0.288255
1.58585
0.00106553
-0.374605
1.58717
0.000502912
-0.451056
1.58864
-3.71406e-06
-0.520695
1.58957
-0.000517755
-0.718122
1.59031
-0.000751876
-0.946371
1.59145
-0.000632957
-1.01148
1.59291
-0.000486392
-0.932335
1.59432
-0.000640091
-0.850947
1.59546
-0.000994614
-0.868661
1.59639
-0.0012263
-1.01342
1.59721
-0.00135134
-1.30419
1.59801
-0.00143867
-1.77754
1.59887
-0.0014659
-2.47331
1.59992
-0.0014429
-3.40215
1.60142
-0.00133711
-4.48293
1.60349
-0.00106067
-5.50096
1.60588
-0.000425155
-6.27429
1.60836
0.000596105
-6.81548
1.61102
0.00190387
-7.12773
1.61398
0.0032288
-7.15734
1.61721
0.00418653
-6.88808
1.62061
0.0044414
-6.43828
1.62425
0.00404835
-6.01413
1.62829
0.00363781
-5.72019
1.6329
0.00338007
-5.44147
1.63806
0.00281641
-5.05756
1.64357
0.00197783
-4.616
1.64934
0.000776308
-4.20226
1.6556
-0.000934322
-3.83031
1.66263
-0.0030198
-3.5463
1.67008
-0.00427919
-3.36979
1.67751
-0.00644496
-3.2493
1.6844
-0.0111426
-3.1453
1.69048
-0.0217311
-3.03748
1.69707
-0.0441234
-2.88193
1.70866
-0.0807971
-2.60081
1.72674
-0.113413
-2.16161
1.74669
-0.123359
-1.56624
1.76548
-0.115185
-0.815399
1.78661
-0.101168
-0.00777997
1.80677
-0.0879657
0.80836
1.82704
-0.0776135
1.62945
1.84818
-0.0701505
2.48489
1.87152
-0.0670304
3.37927
1.89875
-0.0670037
4.27352
1.9312
-0.0662291
5.12497
1.96765
-0.0599311
5.85643
2.00463
-0.0430156
6.28404
2.03668
-0.0143327
6.32083
2.06232
0.0157155
6.18904
2.08251
0.0310189
5.98575
2.09942
0.0297314
5.78948
2.1142
0.0197334
5.58688
2.12745
0.00614551
5.48081
2.13717
-0.00182383
5.3324
2.14488
-0.0115423
5.4587
-0.00902947
5.11432
1.59276
0.00847161
-0.0485299
1.59202
-0.0034834
-0.103194
1.59102
-0.00350837
-0.126781
1.59061
-0.00445536
-0.160211
1.59055
-0.00478476
-0.188257
1.5912
-0.00477398
-0.206729
1.59128
-0.00435647
-0.34364
1.59097
-0.00367303
-0.52401
1.59107
-0.00302274
-0.575596
1.59178
-0.00259768
-0.503383
1.5928
-0.00244474
-0.426582
1.5938
-0.00240082
-0.441877
1.59462
-0.00223872
-0.587329
1.59521
-0.00195766
-0.884251
1.59555
-0.00163206
-1.37179
1.5957
-0.00132139
-2.09913
1.59594
-0.00106234
-3.08738
1.59674
-0.000895102
-4.25315
1.59835
-0.000701339
-5.36168
1.60052
-0.000418899
-6.20148
1.60297
-5.15551e-05
-6.76441
1.60573
0.000350189
-7.03876
1.60888
0.000619823
-6.96018
1.61231
0.000531991
-6.50705
1.61583
-0.000112035
-5.79184
1.61954
-0.00113184
-5.01799
1.62333
-0.00180382
-4.34707
1.62729
-0.00213763
-3.6693
1.63153
-0.00274038
-2.88954
1.63598
-0.00310209
-2.08275
1.64063
-0.0031405
-1.34173
1.64594
-0.00287867
-0.669888
1.652
-0.00188837
-0.0859824
1.65823
-0.00158496
0.431072
1.66418
-0.00128845
0.916275
1.66905
-0.00183442
1.37874
1.67252
-0.00649391
1.81555
1.67841
-0.0227112
2.27346
1.69574
-0.0555808
2.9037
1.72514
-0.0841443
3.83379
1.75687
-0.0890418
5.04097
1.78514
-0.076554
6.45418
1.81145
-0.0598382
7.99217
1.83801
-0.0485063
9.75987
1.86287
-0.0457284
11.6481
1.88165
-0.0499508
13.4343
1.891
-0.0584623
14.9378
1.89012
-0.0678704
16.0717
1.88041
-0.0749811
16.846
1.86483
-0.077176
17.3163
1.84717
-0.0708529
17.4575
1.83081
-0.0540077
17.2408
1.81613
-0.0301521
16.7066
1.7999
-0.00948395
16.0497
1.77943
1.8044e-06
15.4935
1.75358
0.000860387
15.032
1.72203
-0.00301992
14.7898
1.68696
-0.00432385
14.4626
1.65297
-0.0069425
14.5536
-0.00504128
14.1245
1.60376
-0.116929
1.60412
-0.221881
1.60463
-0.268177
1.60353
-0.316615
1.60165
-0.346498
1.59994
-0.35015
1.59774
-0.470455
1.5953
-0.63213
1.59323
-0.659179
1.59165
-0.554348
1.59033
-0.435509
1.58902
-0.40184
1.58766
-0.493621
1.58631
-0.722799
1.58502
-1.11245
1.58385
-1.69346
1.58289
-2.46734
1.58234
-3.33312
1.58231
-4.05209
1.58253
-4.42916
1.58269
-4.48309
1.58274
-4.22975
1.5828
-3.63558
1.58301
-2.71184
1.58371
-1.59823
1.58562
-0.505206
1.58765
0.408488
1.59001
1.24273
1.59326
2.096
1.59739
2.9194
1.60226
3.65421
1.60798
4.32012
1.61428
4.88666
1.62021
5.33314
1.62478
5.67618
1.62763
5.90937
1.633
6.08937
1.65473
6.53211
1.70264
7.8295
1.75814
10.0841
1.79263
12.532
1.79857
14.502
1.7836
15.7836
1.75432
16.5035
1.71285
16.89
1.65945
17.1338
1.59411
17.3587
1.51739
17.5882
1.43086
17.7965
1.33856
17.9745
1.24903
18.0645
1.17424
17.9983
1.12371
17.7689
1.09757
17.4139
1.08755
17.1851
1.08585
17.0991
1.08651
17.42
1.08821
17.5975
1.08702
18.3108
17.5702
1.60392
-0.00776999
1.60383
0.00400252
1.60404
0.00392395
1.60274
0.00514217
1.60047
0.00604713
1.59872
0.00595392
1.59744
0.00526982
1.59611
0.00433567
1.59396
0.00371434
1.59127
0.00334645
1.58914
0.00296142
1.58741
0.00291581
1.58585
0.00279926
1.58448
0.00243192
1.58339
0.00185862
1.58258
0.00120445
1.58204
0.0005725
1.58177
1.31357e-05
1.58151
-0.00040812
1.58101
-0.000652863
1.58061
-0.000707464
1.58054
-0.000634668
1.58075
-0.000546373
1.58088
-0.000623813
1.58176
-0.000856452
1.58395
-0.00103614
1.58667
-0.000661166
1.5892
-0.000273376
1.59099
-0.000507664
1.59315
-0.00167506
1.5965
-0.00313288
1.60104
-0.00433766
1.60656
-0.00528372
1.61279
-0.00604029
1.61956
-0.00672138
1.62689
-0.00751363
1.63512
-0.00864217
1.64473
-0.0103611
1.65624
-0.0127513
1.6696
-0.0152394
1.684
-0.0170349
1.69865
-0.0180029
1.71372
-0.0187271
1.73083
-0.0202148
1.75323
-0.0236711
1.78119
-0.0265916
1.81026
-0.022953
1.83828
-0.00246688
1.85909
0.0301052
1.85667
0.0659842
1.81775
0.0969965
1.74363
0.117146
1.64985
0.121442
1.55626
0.109236
1.47775
0.086046
1.42054
0.0600353
1.38312
0.0379392
1.3609
0.0229128
1.34681
0.014195
0.01959
1.59348
-0.0132572
1.59264
-0.0013045
1.59127
-0.00116163
1.59061
-0.000709446
1.59054
-0.000341717
1.59094
0.000340039
1.59178
0.000822438
1.5927
0.000680948
1.59302
0.000156106
1.59289
-0.000503168
1.59299
-0.000475819
1.59353
-0.000399269
1.59406
-0.000182902
1.59459
-0.000119826
1.59523
-0.000266166
1.59607
-0.000702147
1.59723
-0.00148918
1.59882
-0.00254182
1.60062
-0.00366071
1.60236
-0.00458125
1.60431
-0.00522481
1.60669
-0.0056545
1.60936
-0.00600068
1.61172
-0.00640444
1.61346
-0.00662644
1.61569
-0.00621673
1.61892
-0.00541445
1.62285
-0.00500196
1.62636
-0.0055177
1.62991
-0.00641181
1.63427
-0.00713103
1.6396
-0.00768335
1.64592
-0.0083415
1.65304
-0.00903718
1.66078
-0.00977487
1.66914
-0.0108082
1.67845
-0.0125295
1.68913
-0.015459
1.7017
-0.0197506
1.71607
-0.0240291
1.7313
-0.0263322
1.74643
-0.0258032
1.7624
-0.0222476
1.78553
-0.0143772
1.82616
-0.0014813
1.88185
0.0120258
1.93264
0.0181379
1.96228
0.0273748
1.96852
0.0518225
1.95496
0.0879402
1.92642
0.124523
1.88895
0.150092
1.84914
0.155178
1.81209
0.137776
1.78032
0.105072
1.75409
0.0681336
1.73179
0.0364754
1.71257
0.0144308
1.69337
0.00107858
0.00646172
1.58431
-0.00408291
1.5845
0.000858713
1.58486
0.00145717
1.58573
0.00161293
1.58639
0.00242369
1.58722
0.003517
1.58922
0.00321737
1.5914
0.00215729
1.59271
0.00108098
1.59303
0.000517716
1.59346
0.000696037
1.59412
0.000898563
1.59478
0.000829457
1.59552
0.000282912
1.59645
-0.000687208
1.59765
-0.00197208
1.59915
-0.00352049
1.60103
-0.00521487
1.60302
-0.00685172
1.60485
-0.00818706
1.6068
-0.00917191
1.60912
-0.00992814
1.6117
-0.0106321
1.61405
-0.0113443
1.61594
-0.0116757
1.61825
-0.0112129
1.62147
-0.0104911
1.62539
-0.0102982
1.62915
-0.0109296
1.6328
-0.011682
1.63709
-0.0119264
1.64217
-0.0120467
1.64821
-0.0125918
1.65504
-0.0132274
1.66243
-0.0138893
1.6703
-0.0149773
1.67895
-0.0171073
1.68889
-0.0211883
1.70082
-0.0276175
1.71477
-0.0342091
1.72987
-0.0379449
1.74525
-0.0379437
1.76099
-0.0345394
1.7782
-0.0265426
1.80031
-0.0121155
1.83133
0.00416154
1.87413
0.014548
1.92735
0.0246944
1.98048
0.0450541
2.01969
0.0777884
2.03657
0.115556
2.02956
0.146181
2.00141
0.157662
1.95641
0.146578
1.89971
0.119689
1.83719
0.0875787
1.77402
0.0593014
1.71544
0.0374698
1.66062
0.0235497
0.0133912
1.58985
-0.00231266
1.59079
-0.00108632
1.59167
-0.000812005
1.59233
-0.000785822
1.59287
-0.000185225
1.59355
0.000983095
1.59455
0.00129865
1.59556
0.000702866
1.59597
-0.00034728
1.59595
-0.00109135
1.59616
-0.00103709
1.59666
-0.000721571
1.59715
-0.000694858
1.59768
-0.00105445
1.59834
-0.00174329
1.59921
-0.00281511
1.60043
-0.00434739
1.60212
-0.00620053
1.60406
-0.00809295
1.60594
-0.00968638
1.60799
-0.0109242
1.61043
-0.0119363
1.61316
-0.0129168
1.6157
-0.0139327
1.61789
-0.0146135
1.6204
-0.0146369
1.62367
-0.0144247
1.62757
-0.0144874
1.63149
-0.0150758
1.6355
-0.0156861
1.63995
-0.0159189
1.64493
-0.0159906
1.65057
-0.0164135
1.65681
-0.0171096
1.66355
-0.0181813
1.67072
-0.0198653
1.67864
-0.0228413
1.68796
-0.0284956
1.69968
-0.0377152
1.71381
-0.0470642
1.72888
-0.0519939
1.74378
-0.0515499
1.75883
-0.0466352
1.77506
-0.0367237
1.79474
-0.0218345
1.81912
-0.0063662
1.84871
0.00288086
1.88747
0.0128956
1.9378
0.0297114
1.99308
0.0557927
2.04049
0.0894049
2.06845
0.122868
2.07191
0.143291
2.05197
0.143987
2.01366
0.128442
1.96354
0.104867
1.90738
0.0813955
1.85065
0.0597753
1.79363
0.0447696
0.0167726
1.58975
-0.000209023
1.58962
-0.000910209
1.59004
-0.001045
1.59042
-0.000880249
1.59079
-0.000366557
1.59125
0.000729587
1.59244
0.00110643
1.59398
0.000476659
1.59498
-0.00056745
1.5954
-0.00123374
1.59575
-0.00115391
1.59626
-0.000825923
1.59673
-0.000876406
1.59723
-0.00134327
1.5979
-0.0021044
1.59882
-0.00319075
1.60011
-0.00466894
1.60191
-0.00641218
1.60398
-0.00813506
1.606
-0.00953763
1.60817
-0.0106136
1.61074
-0.0115379
1.61365
-0.0125534
1.61649
-0.0137773
1.6191
-0.0148846
1.62199
-0.0155232
1.62567
-0.0159438
1.63005
-0.0163705
1.63463
-0.0170769
1.63936
-0.0177517
1.64449
-0.0182227
1.65014
-0.0186984
1.65633
-0.0196197
1.66289
-0.0206716
1.66956
-0.0219009
1.67629
-0.0237158
1.68359
-0.0271101
1.69278
-0.0340742
1.7056
-0.046298
1.72207
-0.059105
1.74005
-0.0660348
1.75746
-0.0659695
1.77399
-0.0606217
1.78987
-0.049617
1.80631
-0.0345908
1.82398
-0.0198163
1.84397
-0.00773873
1.86841
0.00273084
1.90051
0.0169521
1.94133
0.038778
1.98747
0.067652
2.03071
0.0988242
2.06322
0.120605
2.0809
0.12591
2.08422
0.116187
2.07625
0.0978302
2.06048
0.0778959
2.03971
0.05811
2.01547
0.0435036
0.0107764
1.58966
0.00198722
1.58956
-0.000511081
1.58991
-0.000984006
1.59033
-0.000732524
1.59078
-0.000341348
1.59114
0.00061148
1.59224
0.000955328
1.59375
0.000349391
1.59484
-0.000638116
1.59541
-0.0012762
1.59583
-0.00126916
1.59633
-0.00103592
1.59682
-0.00115339
1.59737
-0.00162367
1.59809
-0.00229079
1.59907
-0.00314523
1.60046
-0.00422985
1.60239
-0.00538689
1.60461
-0.00637626
1.60677
-0.00694987
1.60904
-0.00716274
1.61166
-0.00721538
1.61462
-0.00739689
1.61759
-0.00793707
1.62046
-0.00865394
1.6237
-0.00917387
1.62779
-0.00962768
1.63269
-0.0100106
1.63796
-0.0107693
1.64352
-0.0117567
1.64955
-0.0129037
1.65614
-0.0143927
1.66334
-0.0167155
1.67092
-0.0192089
1.6785
-0.021671
1.686
-0.0245316
1.6942
-0.0292724
1.7053
-0.0391949
1.72164
-0.056917
1.74269
-0.075032
1.76516
-0.0841684
1.78662
-0.084069
1.807
-0.0784916
1.82669
-0.0671266
1.8464
-0.0525848
1.86656
-0.0388094
1.88694
-0.0276215
1.90814
-0.0165976
1.93411
-0.00216596
1.96293
0.0204411
1.99539
0.0496354
2.02752
0.0849703
2.05623
0.111029
2.07879
0.119806
2.0945
0.112117
2.1043
0.0948339
2.11044
0.0746301
2.11356
0.0548354
2.11573
0.0384957
0.0131823
1.58988
0.00368674
1.59113
-0.00215045
1.59212
-0.00295241
1.59294
-0.0028004
1.59355
-0.00255226
1.59378
-0.00172194
1.59442
-0.00102422
1.59531
-0.00105563
1.59588
-0.00159359
1.59613
-0.00197769
1.59632
-0.00188795
1.5966
-0.00159875
1.59689
-0.00156868
1.5972
-0.00173875
1.59761
-0.00197858
1.59824
-0.00232065
1.59928
-0.00280046
1.60095
-0.00326978
1.60303
-0.00343359
1.60516
-0.00304841
1.6075
-0.00217874
1.61027
-0.00102672
1.61352
0.000121657
1.61696
0.000941963
1.62049
0.00139991
1.62454
0.00174824
1.6296
0.00181683
1.63556
0.00185673
1.64196
0.00133012
1.64865
0.000235183
1.65577
-0.00150771
1.66342
-0.00387579
1.67168
-0.00711614
1.68024
-0.0104775
1.68876
-0.0137272
1.6971
-0.0180275
1.70603
-0.0262614
1.71785
-0.0432723
1.73537
-0.0705987
1.75821
-0.0954158
1.78261
-0.105248
1.80567
-0.102539
1.8271
-0.0939895
1.84775
-0.0800736
1.86884
-0.0643622
1.89116
-0.0506264
1.91488
-0.0403146
1.94057
-0.0309831
1.96904
-0.018157
1.99903
0.00351824
2.02809
0.0332961
2.05457
0.065545
2.07854
0.0879834
2.09961
0.0954418
2.11799
0.0880104
2.13356
0.0726741
2.14746
0.0543055
2.15823
0.0383751
2.16939
0.0223025
0.00999422
1.58384
0.0132444
1.58443
0.000584581
1.58493
0.000190256
1.58614
-0.000312138
1.58738
-0.00055148
1.58802
-0.000107649
1.58926
-1.89884e-05
1.59105
-0.000514947
1.59257
-0.00118118
1.59356
-0.00153599
1.59419
-0.00145452
1.5947
-0.00121971
1.5952
-0.00121754
1.59579
-0.0013781
1.59659
-0.00154131
1.59771
-0.00166206
1.59932
-0.00172912
1.60155
-0.00158158
1.6041
-0.0010545
1.60656
-5.77178e-06
1.60904
0.00147167
1.61176
0.00323158
1.61476
0.00502287
1.61782
0.00651483
1.62086
0.00751208
1.6243
0.00814117
1.62855
0.00820823
1.63346
0.00830627
1.63865
0.00793274
1.64401
0.00706676
1.6497
0.00571882
1.65585
0.00410288
1.6628
0.00273248
1.67034
0.000779836
1.67783
-0.00215587
1.68463
-0.00776326
1.69064
-0.0192835
1.6976
-0.0421605
1.70978
-0.0782864
1.72839
-0.110467
1.749
-0.120922
1.76799
-0.113537
1.78826
-0.0999078
1.80721
-0.0875186
1.82666
-0.0768552
1.84734
-0.0689455
1.87032
-0.0654856
1.89722
-0.0653717
1.92946
-0.0648807
1.96559
-0.0595875
2.00241
-0.0441683
2.03437
-0.0169366
2.06025
0.0136858
2.08077
0.0300679
2.09795
0.0297311
2.1129
0.0201764
2.12623
0.00682443
2.13587
-0.00150388
2.14349
-0.010959
-0.0086071
1.59283
0.00840696
1.59236
-0.00386504
1.59121
-0.00426307
1.5909
-0.0052996
1.5908
-0.00542291
1.59048
-0.00484805
1.59075
-0.00403744
1.59149
-0.00347021
1.59211
-0.00323859
1.59249
-0.00305816
1.5927
-0.00273977
1.59289
-0.00234
1.5931
-0.00203075
1.59334
-0.00177582
1.59365
-0.00151372
1.59416
-0.00126861
1.59512
-0.00105671
1.59679
-0.00082675
1.59897
-0.000442162
1.60126
0.00012044
1.60373
0.000770254
1.60658
0.00144559
1.60981
0.00200537
1.6131
0.00225921
1.61626
0.00202195
1.61962
0.00164078
1.62358
0.000717198
1.62785
-0.000264762
1.63201
-0.00125262
1.63608
-0.00202631
1.64039
-0.0024019
1.64505
-0.00241125
1.65056
-0.00201488
1.65678
-0.00167432
1.6629
-0.00183564
1.668
-0.00307799
1.67167
-0.00804101
1.67716
-0.022728
1.69364
-0.0527523
1.72255
-0.0804977
1.75441
-0.0865855
1.78302
-0.0754996
1.80969
-0.0594057
1.83628
-0.0482506
1.86136
-0.045288
1.88073
-0.0492906
1.89092
-0.0576252
1.89094
-0.0669819
1.8821
-0.0742543
1.86713
-0.0769031
1.84977
-0.0712993
1.83342
-0.055285
1.81877
-0.032082
1.80294
-0.0111187
1.78295
-0.000728963
1.75745
0.000827902
1.72621
-0.00260052
1.69118
-0.00384403
1.65704
-0.00616686
-0.00483009
1.6039
1.60504
1.60531
1.60422
1.60228
1.59965
1.5976
1.59607
1.59439
1.59241
1.59029
1.58823
1.58639
1.58481
1.58358
1.58277
1.58252
1.58286
1.5834
1.58368
1.5838
1.58395
1.58409
1.58405
1.58379
1.58397
1.58587
1.58869
1.59217
1.59638
1.60139
1.60714
1.6135
1.61962
1.6244
1.62737
1.63211
1.65149
1.6972
1.75336
1.79061
1.79923
1.78611
1.75802
1.71755
1.66513
1.60074
1.52491
1.43916
1.3472
1.25721
1.18089
1.12827
1.10035
1.08925
1.08703
1.08746
1.08894
1.08767
)
;

boundaryField
{
    wall
    {
        type            calculated;
        value           nonuniform List<scalar> 
1200
(
-0.000171775
0.00458513
0.00525434
0.0185598
0.0329676
0.0475637
0.0593077
0.0779475
0.0523221
0.113256
-0.140964
-0.0690643
-0.0977128
-0.0269006
0.0185564
0.0686987
0.102344
0.199051
0.108848
0.218038
-0.204251
-0.100741
-0.180141
-0.0471511
0.0029233
0.0761747
0.105543
0.285366
0.13269
0.264156
-0.187662
-0.0810298
-0.193526
-0.0215203
0.0159504
0.10693
0.115758
0.371765
0.166139
0.313261
-0.0871008
-0.0015805
-0.122998
0.0463806
0.0619794
0.161587
0.13403
0.448282
0.193597
0.343584
0.121648
0.165387
0.0671239
0.179313
0.172009
0.259689
0.172169
0.517735
0.210855
0.347088
0.354435
0.368021
0.345466
0.378162
0.389267
0.474348
0.323513
0.716047
0.347399
0.468304
0.41453
0.432042
0.489731
0.479769
0.550612
0.662597
0.477846
0.945155
0.527242
0.630897
0.208734
0.250126
0.349216
0.348827
0.48322
0.643058
0.464115
1.01046
0.577885
0.658224
-0.0604436
0.0017768
0.0998007
0.127526
0.295579
0.49289
0.330223
0.931265
0.504789
0.553332
-0.157973
-0.0893058
-0.0144644
0.0239417
0.187823
0.392207
0.228563
0.849854
0.427362
0.434387
-0.0858864
-0.0207428
0.0384685
0.0723116
0.223134
0.420071
0.243314
0.867622
0.442283
0.400746
0.0663239
0.127955
0.185609
0.209707
0.362371
0.560195
0.377961
1.01247
0.587518
0.492743
0.288169
0.356379
0.425895
0.440599
0.614802
0.824937
0.648019
1.30335
0.884268
0.722194
0.604282
0.702368
0.793477
0.805872
1.0211
1.25415
1.09488
1.77677
1.37165
1.11211
1.0113
1.17613
1.29371
1.32372
1.60445
1.87911
1.76106
2.47242
2.09883
1.69332
1.4625
1.73992
1.88745
1.96935
2.3489
2.69701
2.65955
3.4008
3.08676
2.46723
1.86837
2.30342
2.48467
2.65724
3.17192
3.6301
3.71815
4.48062
4.25191
3.33277
2.07976
2.70241
2.92011
3.21317
3.89183
4.48936
4.73727
5.49744
5.35972
4.05141
2.02661
2.84267
3.09592
3.52047
4.37672
5.12801
5.54989
6.26979
6.1993
4.42853
1.793
2.78967
3.07465
3.62731
4.6642
5.57554
6.17294
6.8103
6.76261
4.48288
1.38762
2.54187
2.85774
3.53153
4.75145
5.83297
6.6056
7.12183
7.03755
4.23005
0.755564
2.03354
2.38118
3.16632
4.56969
5.83707
6.78653
7.15061
6.95964
3.63614
-0.0504606
1.30511
1.67867
2.5519
4.12004
5.57779
6.69577
6.88056
6.50728
2.71215
-0.747022
0.625563
1.01023
1.92918
3.61034
5.22586
6.46825
6.43013
5.79289
1.59742
-1.06254
0.301391
0.683027
1.60266
3.33491
5.04805
6.33735
6.00542
5.01946
0.502181
-1.08476
0.269704
0.654186
1.56291
3.32145
5.09957
6.38035
5.71082
4.34873
-0.412325
-1.07734
0.261918
0.662967
1.5768
3.37058
5.21792
6.46428
5.43141
3.67087
-1.24723
-1.30143
0.0218276
0.457488
1.40459
3.25888
5.2077
6.4313
5.047