/*--------------------------------*- C++ -*----------------------------------*\
  =========                 |
  \\      /  F ield         | OpenFOAM: The Open Source CFD Toolbox
   \\    /   O peration     | Website:  https://openfoam.org
    \\  /    A nd           | Version:  8
     \\/     M anipulation  |
\*---------------------------------------------------------------------------*/
FoamFile
{
    version     2.0;
    format      ascii;
    class       surfaceScalarField;
    location    "200";
    object      phi;
}
// * * * * * * * * * * * * * * * * * * * * * * * * * * * * * * * * * * * * * //

dimensions      [1 0 -1 0 0 0 0];

internalField   nonuniform List<scalar> 
2860
(
0.00789234
5.29033e-05
-0.00235907
0.00773266
0.000155352
-0.003009
0.00761541
3.49272e-05
-0.0076675
0.00744681
-5.97864e-05
-0.0133244
0.00910687
-0.00168991
-0.0220564
0.0100791
-0.00105816
-0.0205726
0.0108797
-0.000900342
-0.00629459
0.0136087
-0.00212146
0.0498218
0.0142296
-0.00170569
0.0756844
0.0144469
-0.00179692
0.0783014
0.0138972
-0.000969168
0.0720778
0.0127191
0.000590013
0.0713571
0.0112971
0.00109725
0.072984
0.0103068
0.000566975
0.0723335
0.009795
0.000171384
0.0676356
0.00993016
-0.000131706
0.0734973
0.0112793
-0.00106053
0.102586
0.0136975
-0.00227627
0.136791
0.0164428
-0.00284926
0.171491
0.018808
-0.00270127
0.189393
0.0202324
-0.00186972
0.192745
0.0207189
-0.000996981
0.194167
0.018774
0.00102208
0.192528
0.00801441
0.0103848
0.194831
-0.0197368
0.0281599
0.17104
-0.0460638
0.0268103
0.136605
-0.0570963
0.0115744
0.103393
-0.0614164
0.00435073
0.0756299
-0.0613779
-0.000118359
0.0717209
-0.0600832
-0.00138623
0.0728413
-0.0595104
-0.000431454
0.0699015
-0.0593066
8.95038e-05
0.0749784
-0.0592734
0.000316387
0.0813238
-0.0592228
0.000367236
0.0884251
-0.0585266
-0.000313532
0.0935054
-0.0562671
-0.00205894
0.0996173
-0.0514047
-0.00485618
0.104934
-0.0436302
-0.00812473
0.110817
-0.0346492
-0.00974703
0.11585
-0.0262429
-0.00902787
0.11315
-0.0178375
-0.00852857
0.0996624
-0.0104338
-0.00731181
0.084418
-0.000829353
-0.00832826
0.0670377
0.00755731
-0.00644121
0.0308587
0.0129531
-0.0058023
-0.0243452
0.0247674
-0.0126568
0.00692095
0.0498047
-0.024762
0.00703803
0.0790775
-0.0297769
0.0115497
0.0776771
0.00197524
0.036508
0.0144518
0.0706225
0.131218
-0.0716849
0.0863428
0.439675
-0.111606
0.0373469
0.55977
-0.127087
0.00871227
0.617824
-0.124589
-0.00958873
0.652228
-0.114469
-0.0152889
0.743527
-0.106734
-0.0133731
0.849401
-0.102036
-0.0108223
0.948546
-0.0979715
-0.0103001
1.06989
-0.0958088
-0.00924579
1.19496
-0.0102799
1.3707
0.00784631
0.000183634
0.00117721
0.00758989
0.000429025
0.00136868
0.00728483
0.000346589
0.000648003
0.0070818
-3.89743e-05
-0.00414706
0.00857637
-0.00235257
0.0248506
0.00916572
-0.00322604
0.0536516
0.00788779
0.000752204
0.109193
0.0021709
0.00375103
0.234405
-0.00334258
0.00265925
0.250375
-0.00625831
0.000198403
0.250723
-0.00770212
-0.00038635
0.251663
-0.00780495
-0.000269963
0.260492
-0.00689598
-0.000605179
0.26471
-0.00519894
-0.00192661
0.251827
-0.00330342
-0.00249364
0.240572
-0.00107847
-0.00317248
0.230928
0.00117502
-0.00415215
0.221725
0.00256748
-0.00448091
0.24635
0.00326224
-0.00448283
0.267788
0.00313935
-0.00372958
0.243604
0.00229222
-0.00222967
0.226954
0.000584629
-0.000729062
0.253514
-0.00135976
0.00121619
0.214983
-0.00325498
0.0120482
0.171292
-0.0141596
0.0381999
0.125646
-0.0274715
0.0402313
0.117056
-0.0325973
0.0174856
0.0846295
-0.0351413
0.00578606
0.0632134
-0.0361342
-0.000528993
0.0894507
-0.0387926
-0.000200636
0.117949
-0.0440423
0.00400638
0.126876
-0.050537
0.0069172
0.135978
-0.0572391
0.0083755
0.132916
-0.0631748
0.00783809
0.120952
-0.0667741
0.00480712
0.107673
-0.0668031
-5.04313e-06
0.0958788
-0.0637953
-0.00511637
0.07976
-0.0604545
-0.0100044
0.0756617
-0.060145
-0.00997498
0.0873779
-0.0630365
-0.00583465
0.0963993
-0.0666606
-0.00442512
0.0961159
-0.0708582
-0.00231819
0.0927578
-0.0764429
-0.00168472
0.0855958
-0.0828182
0.000741018
0.0788301
-0.0903962
0.00231317
0.0752166
-0.102149
-0.000297214
0.0759161
-0.1214
-0.00528902
0.0684774
-0.151521
0.000456584
0.0642364
-0.192995
0.0444198
0.0775554
-0.253472
0.129154
0.0928388
-0.332641
0.163389
0.0899317
-0.394893
0.100686
0.0326806
-0.414723
0.0306316
-0.000694078
-0.414568
-0.00476526
-0.00966586
-0.416003
-0.0106034
-0.00248029
-0.419778
-0.00689518
-0.00528292
-0.425459
-0.00401002
-0.00962349
-0.432891
-0.00365688
-0.0127619
-0.437741
-0.0066654
-0.0177647
0.00976058
-0.0271264
0.00784843
0.00040291
0.00402609
0.0076424
0.000806607
0.00422922
0.00727369
0.000992874
0.00503344
0.00575363
0.00176157
0.012022
0.0015263
0.00279685
0.11237
-0.00192716
8.62797e-05
0.162075
-0.00375824
0.00255157
0.163581
-0.00709672
0.00655318
0.215363
-0.00986206
0.00520959
0.196543
-0.0106077
0.00118489
0.190168
-0.00998048
-0.000370536
0.164889
-0.00767399
-0.00131681
0.117297
-0.00478415
-0.00225119
0.0584803
-0.00232817
-0.00300553
0.0377382
-0.000746816
-0.00283786
0.0441155
-0.00087743
-0.0022461
0.0575701
-0.00269526
-0.00208169
0.079925
-0.00534341
-0.00201548
0.121818
-0.00850282
-0.00166993
0.15118
-0.0118082
-0.00085151
0.163382
-0.0144347
1.60013e-05
0.1615
-0.0152258
-0.000471463
0.149097
-0.0140277
-0.00143821
0.138158
-0.00944692
0.00742856
0.133473
-0.00909491
0.0375362
0.104948
-0.0144413
0.0468416
0.0769145
-0.0194495
0.0246942
0.00192612
-0.0231869
0.00956549
-0.016187
-0.023606
0.000955489
0.0211233
-0.0253313
0.00210918
0.0400665
-0.0292563
0.00748661
0.014046
-0.0324459
0.00981188
0.00122954
-0.0346693
0.0106543
-0.0198558
-0.0360081
0.00911214
-0.0536984
-0.0362671
0.00505292
-0.0970762
-0.0375218
0.00252563
-0.131942
-0.0419495
0.00570202
-0.129229
-0.0495618
0.011336
-0.091385
-0.060358
0.0123571
-0.0260491
-0.0722207
0.00657231
0.00746692
-0.0788527
0.000662659
0.0160381
-0.0850633
0.00326432
0.0213662
-0.0921083
0.00458601
0.0217401
-0.0993334
0.00699051
0.0229242
-0.107402
0.00951206
0.0311071
-0.117478
0.00913304
0.0410643
-0.131719
0.00826243
0.0518441
-0.153765
0.021005
0.0512504
-0.183877
0.0714391
0.0327477
-0.208503
0.150634
0.0229491
-0.211825
0.165093
0.0279854
-0.167619
0.0574839
0.0458193
-0.0989243
-0.037135
0.127956
-0.0621395
-0.0418937
0.314646
-0.0514901
-0.0230904
0.441448
-0.0538199
-0.00783331
0.60459
-0.065011
0.00280532
0.701069
-0.0813492
0.00624042
0.737673
-0.104487
0.00592593
0.859571
0.00687171
1.02847
0.00788498
0.000536574
0.00153048
0.00774803
0.00105242
-0.00322092
0.00755486
0.00156779
-0.0107462
0.00723307
0.00265399
-0.0157146
0.00541422
0.00548193
0.0331723
0.0023076
0.0037981
0.130951
-0.000628141
0.00464417
0.147268
-0.000938691
0.00589651
0.115206
-0.00288038
0.00261532
0.0271488
-0.00340865
0.00126144
-0.0973166
-0.00333944
-0.000687407
-0.145174
-0.00242831
-0.00241624
-0.179421
-0.00153826
-0.00352432
-0.185381
-0.000828029
-0.00432764
-0.198367
-0.000289229
-0.00410187
-0.198666
-0.00271585
-0.000410612
-0.186581
-0.00753975
0.00202085
-0.178851
-0.011569
0.00130111
-0.165408
-0.0150253
0.00123202
-0.165106
-0.0176569
0.00150974
-0.159534
-0.0190535
0.00166874
-0.147503
-0.0187606
0.000405487
-0.11805
-0.015214
-0.0036722
-0.0647177
-0.0107925
-0.00272738
0.0271215
-0.00394052
0.0304729
0.0638118
-0.00234772
0.0474819
0.0397699
-0.00420839
0.0250036
-0.0560477
-0.00466715
0.00793539
-0.081962
-0.00435883
-0.0010795
-0.175983
-0.00699844
0.00420138
-0.142047
-0.0100647
0.00992287
-0.0784099
-0.0128208
0.0120528
-0.087476
-0.0148653
0.0121263
-0.0973386
-0.0160308
0.00952946
-0.116667
-0.0160235
0.00399934
-0.144325
-0.0159687
0.00106605
-0.161255
-0.0162567
0.00469247
-0.175883
-0.015963
0.0121303
-0.206796
-0.0159145
0.0169927
-0.215049
-0.0191827
0.0162862
-0.164278
-0.0275236
0.0169541
-0.0461035
-0.0395765
0.0146171
0.016687
-0.0492754
0.0132258
0.012103
-0.0571518
0.0140636
0.00506327
-0.0645504
0.0165836
-0.00163063
-0.0741366
0.0184087
-0.018258
-0.0885701
0.0219982
-0.0321956
-0.1089
0.0400284
-0.0283659
-0.127952
0.0888941
-0.0272099
-0.131801
0.152316
-0.0231228
-0.111843
0.142726
-0.0228513
-0.0659222
0.0155127
-0.0797297
-0.0326146
-0.0727787
-0.213735
-0.0137206
-0.0628756
-0.11953
0.0147989
-0.0548087
-0.0823154
0.0389593
-0.035657
-0.0648926
0.0466792
-0.0219274
-0.014484
0.0414501
-0.00497274
0.0609083
0.0235647
0.0109233
0.083955
0.0105491
0.269372
0.00794115
0.000581302
-0.000582787
0.00792507
0.00113121
-0.00607099
0.00787888
0.00175587
-0.0161789
0.00810079
0.00250063
-0.0272192
0.00820813
0.00552637
-0.00512466
0.00695522
0.00583963
0.0477925
0.00496837
0.00663251
0.0806153
0.00453046
0.00582356
0.0770293
0.0036137
0.00289676
0.0176368
0.0037301
0.00122188
-0.139578
0.00336137
-0.00061951
-0.18569
0.00250114
-0.0020047
-0.18103
0.00105332
-0.0023632
-0.196714
-0.00138671
-0.00233113
-0.237507
-0.0040938
-0.00204052
-0.253849
-0.00613637
0.000863266
-0.237892
-0.00890927
0.00391326
-0.233023
-0.0130925
0.00446076
-0.254168
-0.017345
0.00444864
-0.263274
-0.0207492
0.00414414
-0.264785
-0.0224761
0.00305144
-0.255621
-0.0217812
-0.000256226
-0.230764
-0.0188498
-0.00589762
-0.192205
-0.0120465
-0.00751597
-0.153948
0.000863998
0.0209751
-0.0421366
0.00814957
0.0424138
-0.00423464
0.00921409
0.02233
-0.0784457
0.00849425
0.00730178
-0.109668
0.00660443
-0.000538829
-0.171167
0.00536207
0.00414344
-0.20123
0.00491905
0.00964838
-0.14151
0.00393256
0.0126337
-0.13392
0.00248014
0.01315
-0.137373
0.00183122
0.00997587
-0.137125
0.00026677
0.00509761
-0.168088
-0.00226632
0.00264149
-0.163174
-0.00253935
0.00380743
-0.119823
-0.00146633
0.00792929
-0.12486
0.000452008
0.0129449
-0.157409
0.00200294
0.014686
-0.193782
0.00233216
0.0186203
-0.153217
0.000702742
0.0190346
-0.0605613
-0.00352516
0.0190632
-0.0556794
-0.00962295
0.0210341
-0.0520001
-0.0162928
0.0229588
-0.0246289
-0.0243384
0.0263651
-0.0374827
-0.036432
0.0335956
-0.0570499
-0.0518294
0.0542865
-0.0642627
-0.0622251
0.0982389
-0.0647105
-0.0575929
0.14782
-0.0390013
-0.0113113
0.0952055
-0.0566904
0.0232132
-0.0212876
-0.225171
0.016643
-0.0670971
-0.218174
0.0297421
-0.0783058
-0.189755
0.0506135
-0.0751533
-0.163721
0.0716241
-0.0543951
-0.15071
0.0813216
-0.0314449
-0.121855
0.0831793
-0.00694566
-0.106135
0.0831941
0.0116544
-0.0654057
0.00517611
-0.0239642
0.00802734
0.000506497
-0.00105292
0.00811163
0.0010011
-0.0041426
0.00817329
0.00158565
-0.0126011
0.00844642
0.00217717
-0.0236418
0.00917149
0.00469459
-0.0207602
0.00954604
0.00589697
0.00997089
0.00955155
0.0069013
0.0410335
0.00951435
0.00577826
0.0460727
0.00947277
0.00258186
0.0284786
0.0102522
0.00179201
0.00858709
0.0107516
0.00168767
-0.0296441
0.00976312
-0.000490443
-0.0582061
0.00858213
-0.00119888
-0.083741
0.00678073
-0.000353957
-0.135917
0.00377002
0.000827676
-0.199218
0.00135487
0.00259481
-0.240036
8.42672e-05
0.00451361
-0.231037
-0.00175332
0.00560085
-0.232518
-0.00434111
0.00627263
-0.244366
-0.00713329
0.00615675
-0.25009
-0.00962589
0.00484265
-0.255733
-0.0106067
0.000333906
-0.240167
-0.0107799
-0.00546908
-0.185947
-0.0105441
-0.00705376
-0.168873
0.0022299
0.0115664
-0.172449
0.0162193
0.0279915
-0.0743188
0.019135
0.0186085
-0.106843
0.018736
0.00709662
-0.126506
0.0163035
0.0015406
-0.159913
0.014961
0.00490196
-0.182323
0.0150932
0.00883595
-0.16369
0.0156713
0.0116336
-0.16222
0.0160787
0.0123837
-0.164323
0.0159326
0.00988032
-0.169231
0.0144583
0.00613795
-0.168648
0.0120993
0.0040559
-0.151404
0.010923
0.00396336
-0.1184
0.0115261
0.00576867
-0.0939816
0.0133336
0.00811931
-0.0874356
0.0160125
0.0103429
-0.112761
0.0199591
0.0145508
-0.124952
0.0230586
0.0164369
-0.0960674
0.0243722
0.0185143
-0.092029
0.0244092
0.0217427
-0.0895171
0.0229957
0.024785
-0.0602007
0.0199172
0.0298413
-0.0465124
0.0139678
0.0398876
-0.0481311
0.00666759
0.060888
-0.0675934
0.00495015
0.098967
-0.0929082
0.0230183
0.128643
-0.0603641
0.0536931
0.0663733
-0.0524654
0.0619985
-0.0356591
-0.143932
0.0614665
-0.0673618
-0.17128
0.0653828
-0.0830964
-0.143237
0.0771359
-0.0864338
-0.10881
0.0922222
-0.0690603
-0.0737014
0.100305
-0.0410477
-0.0575796
0.102308
-0.0119275
-0.0548875
0.103585
0.00857276
-0.0703881
0.00728756
-0.0746997
0.00808817
0.000378407
0.000462877
0.00834315
0.000729666
-0.000111849
0.00853602
0.00118152
-0.00442909
0.00885579
0.00167452
-0.0107704
0.00995747
0.00357844
-0.0182168
0.011121
0.0046461
-0.00723115
0.0123135
0.00580944
0.00965413
0.0132923
0.00508188
0.0192603
0.0136625
0.00237378
0.0192285
0.0138864
0.00161516
0.0134053
0.0143564
0.00129924
0.00355559
0.0139457
2.16252e-06
-0.00741898
0.0133084
-0.000399491
-0.022047
0.0129159
0.00023016
-0.0359577
0.0125482
0.00134186
-0.050845
0.0120304
0.00303244
-0.0805433
0.011684
0.00466641
-0.124952
0.0112909
0.00571966
-0.163633
0.0106476
0.00641822
-0.189399
0.00995432
0.00622529
-0.199828
0.00962823
0.00449475
-0.208838
0.00925815
0.000249129
-0.21915
0.00710735
-0.00373632
-0.145405
0.00274699
-0.00306938
-0.0941455
0.00742914
0.00551444
-0.146779
0.0191752
0.0169156
-0.160172
0.0241933
0.0128364
-0.159008
0.0246729
0.00605385
-0.155499
0.0232474
0.00254365
-0.162338
0.022915
0.00477067
-0.16583
0.0239319
0.0073273
-0.151089
0.0257618
0.00943931
-0.149973
0.0277692
0.0100736
-0.152761
0.0290008
0.00832369
-0.148775
0.028976
0.00558376
-0.135056
0.0282217
0.00386839
-0.123832
0.0276604
0.00339737
-0.104448
0.0280761
0.00417171
-0.0818623
0.0294448
0.00539562
-0.0637566
0.0316002
0.00690147
-0.0619058
0.0355497
0.0099545
-0.0703245
0.0398853
0.0120375
-0.0717566
0.0440334
0.0147716
-0.079485
0.0479952
0.018337
-0.0872277
0.0511723
0.0219627
-0.0792519
0.0535813
0.027736
-0.0689164
0.0553498
0.0384148
-0.0577119
0.0586803
0.0575494
-0.0593171
0.0688885
0.0882892
-0.0862648
0.0962146
0.100967
-0.0722717
0.119188
0.0437943
-0.0682603
0.115195
-0.0311316
-0.113676
0.108301
-0.0597901
-0.135772
0.10328
-0.0780979
-0.126612
0.105946
-0.0881443
-0.105962
0.113136
-0.0757995
-0.0844835
0.116574
-0.0454436
-0.0772985
0.11604
-0.0125381
-0.0853843
0.115461
0.00815163
-0.0930009
0.00770288
-0.0849052
0.00806414
0.00034393
0.00253368
0.00831815
0.000572864
0.00334097
0.00874255
0.000810496
0.00160488
0.00932541
0.00114091
0.000562627
0.0105269
0.00253703
-0.00636746
0.0120143
0.00321192
-0.00761364
0.0139289
0.00384084
-0.00348837
0.0155855
0.00345988
-4.69314e-05
0.0161195
0.0021155
0.000815588
0.0164522
0.00162852
0.000815882
0.0168748
0.00132668
-0.000726602
0.0166122
0.000435119
-0.00370958
0.0161054
-5.29364e-05
-0.00921217
0.0158838
0.000329114
-0.016489
0.0160437
0.00121283
-0.0222183
0.0166964
0.00244636
-0.0297688
0.0176836
0.00364596
-0.0432421
0.0187863
0.00439594
-0.0627996
0.0200178
0.0048998
-0.0866634
0.021286
0.00464679
-0.105483
0.022527
0.00299645
-0.1194
0.0226619
-3.66776e-05
-0.125092
0.0209904
-0.00226035
-0.105947
0.0186816
-0.00107516
-0.0850202
0.0187293
0.00442045
-0.0806389
0.0241545
0.011579
-0.147012
0.0290493
0.00739943
-0.17307
0.0304678
0.00410589
-0.155732
0.0302236
0.00222422
-0.147404
0.0308801
0.00359373
-0.143099
0.0326986
0.0050081
-0.131741
0.0354137
0.00633427
-0.1288
0.0384086
0.00671821
-0.12856
0.0407227
0.00559703
-0.122562
0.041942
0.00382501
-0.105399
0.0425235
0.0024763
-0.0888971
0.0431128
0.00180588
-0.0762106
0.0443658
0.00201671
-0.0618816
0.0463137
0.00258778
-0.0489569
0.0488603
0.00353327
-0.0400583
0.0526884
0.00552258
-0.0351935
0.0570138
0.00751734
-0.0335691
0.0618782
0.0102784
-0.0382261
0.0673689
0.0134946
-0.0483674
0.0731558
0.0166993
-0.05919
0.0796432
0.0216457
-0.068566
0.0879812
0.0304537
-0.067324
0.100771
0.0451584
-0.0614035
0.123151
0.0661843
-0.0719293
0.155347
0.0686499
-0.0656283
0.172273
0.0264064
-0.0617091
0.163509
-0.0221022
-0.0773737
0.149773
-0.0451896
-0.096968
0.135757
-0.0631037
-0.101483
0.127879
-0.0779797
-0.0962691
0.125217
-0.072207
-0.0850291
0.122405
-0.0444762
-0.0827147
0.118555
-0.0116894
-0.0902819
0.116175
0.00843796
-0.0980754
0.00785608
-0.0726749
0.00813253
0.000176371
0.0011574
0.00846134
0.000231642
3.01095e-05
0.00885497
0.000373668
-0.00045783
0.00946722
0.000569825
0.00330466
0.0108505
0.00129382
0.000973412
0.0125253
0.00169705
-0.0020125
0.0145514
0.00191189
-0.00329626
0.0163335
0.0016656
-0.00685895
0.0172271
0.00102997
-0.00869395
0.0178234
0.000743182
-0.010196
0.0183349
0.000565704
-0.0125421
0.0183394
0.000125918
-0.0162667
0.0180635
-9.89429e-05
-0.0210902
0.0179927
0.00013935
-0.0250632
0.0183783
0.000618014
-0.023777
0.0194094
0.00124412
-0.0191388
0.0210333
0.00179708
-0.0158883
0.0228866
0.00224707
-0.0168699
0.0247941
0.00258242
-0.0229459
0.0266142
0.00249386
-0.0297805
0.027881
0.00157158
-0.0354002
0.0276424
0.000106445
-0.0360593
0.0260933
-0.000833027
-0.0282542
0.0253441
-0.000323162
-0.0195146
0.0272516
0.00220267
-0.022761
0.0330958
0.00699656
-0.0662868
0.0373296
0.00383528
-0.0927744
0.0391766
0.00230365
-0.0898553
0.0396049
0.00143957
-0.08766
0.0405849
0.00215165
-0.0897961
0.0424479
0.00272979
-0.089167
0.0452214
0.00326631
-0.0926448
0.0484118
0.00329109
-0.0975099
0.0511178
0.00261152
-0.0974541
0.0529043
0.00169332
-0.0899768
0.0540369
0.000904012
-0.0828045
0.0549316
0.000340617
-0.0779574
0.0561913
0.000244853
-0.0704945
0.0581249
0.000278433
-0.0627359
0.0609814
0.000420753
-0.0562127
0.0651645
0.00105479
-0.0491017
0.0700719
0.00226483
-0.0420597
0.0757428
0.00440022
-0.0367843
0.0823772
0.00679275
-0.0373483
0.0899798
0.00908416
-0.0452454
0.0993943
0.0121701
-0.0600501
0.112608
0.0173368
-0.0664642
0.132582
0.0254496
-0.063191
0.163439
0.035701
-0.064902
0.197433
0.034533
-0.0600503
0.211013
0.0123157
-0.0591194
0.200531
-0.0115969
-0.0712905
0.181109
-0.0245693
-0.0880874
0.157924
-0.0368396
-0.0975572
0.136849
-0.0508035
-0.108872
0.119117
-0.0531009
-0.115855
0.105172
-0.0353064
-0.128831
0.0960153
-0.00630565
-0.147596
0.0923827
0.00949518
-0.143159
0.00524966
-0.112225
0.00816504
0.000155246
0.00843191
-0.00291676
0.00881848
-0.00261301
0.00946151
0.00372042
0.0108286
0.00170864
0.0126193
-0.000360357
0.0146821
-0.000775893
0.0164373
-0.00786752
0.0174709
-0.0113
0.0182066
-0.0131574
0.0187348
-0.0144918
0.0187796
-0.0159589
0.01858
-0.0181771
0.0186058
-0.0205352
0.01917
-0.0194474
0.0204312
-0.0149858
0.0223235
-0.0085844
0.0246238
-0.00207495
0.0271643
0.00311681
0.0295516
0.00789273
0.0310617
0.011613
0.0310698
0.0143028
0.0299947
0.0201753
0.0293458
0.0269908
0.0313456
0.0255521
0.0389001
0.00758179
0.0431825
-0.00564621
0.0457097
-0.00458511
0.0471877
-0.00268044
0.0491586
-0.004895
0.0515265
-0.0078665
0.0544911
-0.0143774
0.0576616
-0.0239412
0.060283
-0.0320443
0.0620043
-0.0360834
0.0630022
-0.0389483
0.0636207
-0.0437757
0.0643374
-0.0482641
0.0653426
-0.0531882
0.0668865
-0.0612541
0.069578
-0.071687
0.0735545
-0.0814329
0.0792495
-0.0863931
0.0868723
-0.0894373
0.0964344
-0.0936282
0.108873
-0.0994585
0.126355
-0.10151
0.151906
-0.0981171
0.188074
-0.0927883
0.222937
-0.0796953
0.235225
-0.0718754
0.223863
-0.0776552
0.200309
-0.0987639
0.166461
-0.130881
0.123696
-0.181451
0.0771096
-0.2141
0.0449214
-0.249838
0.0378703
-0.351796
0.0471012
-0.374367
-0.502493
0.00791895
0.000143383
0.00781062
0.00020872
0.00785292
0.000166749
0.00822227
-0.000151591
0.00997084
-0.00124025
0.0105404
-0.00100495
0.0105087
-0.000704181
0.0129006
-0.000704594
0.0144112
0.00103952
0.0150017
0.00010251
0.0143106
-0.000199438
0.0128997
0.000901854
0.0112979
0.00124856
0.0102641
0.000634259
0.00972562
0.000201947
0.00983896
-0.000114535
0.0111643
-0.000989626
0.0135227
-0.00219653
0.0162118
-0.00281812
0.0185237
-0.00265741
0.0199377
-0.00185881
0.0204116
-0.000949053
0.0183002
0.00134609
0.00569619
0.0119569
-0.0217525
0.0282864
-0.0460949
0.0250902
-0.056724
0.0103208
-0.0606083
0.00362043
-0.0603453
-0.000452235
-0.0587715
-0.00162952
-0.0579899
-0.000637385
-0.0577422
0.000101912
-0.0578292
0.000542723
-0.0580484
0.000699265
-0.0575355
1.3163e-05
-0.0551535
-0.00185041
-0.0497327
-0.00483754
-0.0412303
-0.00808258
-0.0321945
-0.00923046
-0.0246675
-0.00818327
-0.0168729
-0.007985
-0.00962076
-0.00660594
-0.000963958
-0.00790195
0.0073586
-0.00660359
0.00989572
-0.00591407
0.0221038
-0.0130711
0.0472517
-0.0257041
0.0782755
-0.0315303
0.0772742
-3.3878e-05
0.0205257
0.0680689
-0.0658735
0.0907686
-0.113124
0.0420864
-0.130935
0.0133858
-0.129323
-0.00620178
-0.118867
-0.0132082
-0.109433
-0.0117921
-0.103629
-0.00893535
-0.0990902
-0.00835743
-0.0970868
-0.00712495
-0.00728352
0.00783027
0.000252864
0.0075504
0.000494395
0.00728846
0.00051448
0.00688594
0.000321838
0.00786986
-0.00119338
0.00873895
-0.00243545
0.00781652
0.00178898
0.00230176
0.00557045
-0.00321544
0.0059
-0.00606841
0.00196773
-0.00754943
0.000311416
-0.00771723
3.85684e-05
-0.00684474
-0.000466528
-0.00516315
-0.00183584
-0.00327743
-0.00243425
-0.00106865
-0.00315153
0.0011731
-0.00407984
0.00253839
-0.00437797
0.00319084
-0.00437744
0.00302849
-0.00359306
0.00217669
-0.00208703
0.000501456
-0.00060548
-0.00131467
0.00154098
-0.00464588
0.0147172
-0.015287
0.0389783
-0.0274866
0.0382715
-0.0328773
0.0154778
-0.0358171
0.00576084
-0.0371999
-0.000284573
-0.0399099
0.000224397
-0.0451373
0.0042864
-0.0515957
0.0071164
-0.0580671
0.00831945
-0.0634195
0.00767
-0.0660839
0.00451467
-0.0650972
-0.000531057
-0.061472
-0.00561694
-0.0581447
-0.00996898
-0.0586037
-0.00947822
-0.0624185
-0.00571978
-0.0661516
-0.00426998
-0.0701428
-0.00220083
-0.0758319
-0.00173902
-0.0823429
0.000448685
-0.0900502
0.00227206
-0.101957
-0.000922073
-0.120602
-0.0066461
-0.149908
-0.00221859
-0.191692
0.0399899
-0.249546
0.127887
-0.329803
0.167215
-0.396666
0.105183
-0.419819
0.0387411
-0.420002
0.00053316
-0.419355
-0.00829039
-0.421841
-0.00457591
-0.42584
-0.00113397
-0.431449
-0.00116315
-0.434898
-0.00450043
0.012657
0.00780566
0.000400835
0.00756489
0.000728279
0.00714665
0.000820934
0.00560677
0.00168375
0.00155901
0.00406266
-0.00181085
0.00127026
-0.00345726
0.00365687
-0.00671396
0.00807295
-0.00993248
0.00722943
-0.0104897
0.000824735
-0.00967961
-0.000507765
-0.00738627
-0.00132933
-0.00469747
-0.00219151
-0.00239607
-0.00300946
-0.000859603
-0.00282002
-0.000969508
-0.00228849
-0.002742
-0.00211208
-0.00538656
-0.00197042
-0.0085684
-0.00163813
-0.011912
-0.000796798
-0.0145354
0.000122331
-0.0152349
-0.000254417
-0.01354
-0.00103808
-0.0101474
0.0101949
-0.00970144
0.0382745
-0.0140757
0.0445032
-0.0194656
0.0241998
-0.023382
0.0102122
-0.0251951
0.00129855
-0.0265316
0.00213791
-0.0296938
0.00784362
-0.0321813
0.0100244
-0.0341303
0.0107862
-0.0352974
0.00941753
-0.0351421
0.00540903
-0.0354428
0.00238347
-0.0383357
0.00386952
-0.0455886
0.00798528
-0.0589786
0.0102687
-0.0734394
0.00703507
-0.0798598
0.0023447
-0.0856499
0.00293859
-0.092437
0.00468005
-0.0994303
0.00743514
-0.107389
0.0100003
-0.117414
0.00873108
-0.131335
0.00701768
-0.153376
0.0203091
-0.184114
0.0722832
-0.209823
0.153095
-0.216589
0.168633
-0.178034
0.0586456
-0.108188
-0.0375087
-0.0656643
-0.041723
-0.0535417
-0.0222229
-0.0547787
-0.00719764
-0.066323
0.00642756
-0.0832544
0.00955758
-0.106531
0.00806339
0.0165276
0.00785466
0.000487943
0.00777767
0.00084439
0.00751177
0.00099632
0.00717154
0.0019386
0.00553681
0.00572628
0.00243929
0.00455809
-0.0002938
0.00549788
-0.000793613
0.0061385
-0.00326959
0.00181056
-0.00337941
0.000459936
-0.00344945
-0.00123701
-0.0024604
-0.00275023
-0.00150021
-0.00374335
-0.000759756
-0.00449135
-0.00018028
-0.00415487
-0.00259981
-0.00036852
-0.00744896
0.0021043
-0.0114915
0.0013832
-0.014979
0.0012621
-0.0176265
0.00147446
-0.0190055
0.00155795
-0.018605
0.000208483
-0.0151437
-0.00378687
-0.0115976
-0.00135827
-0.00415749
0.0301108
-0.00219513
0.0449256
-0.00320089
0.025558
-0.00396642
0.00880175
-0.00376592
-0.000985453
-0.00655071
0.00420494
-0.00960451
0.0102166
-0.0124781
0.0124305
-0.0146412
0.0125112
-0.0157435
0.00989048
-0.0154447
0.00413491
-0.0150992
0.000606201
-0.0152043
0.00282795
-0.0149761
0.00897509
-0.0151168
0.0151595
-0.0178277
0.0169052
-0.0272037
0.0173414
-0.0393499
0.0148995
-0.0483097
0.0136672
-0.0555017
0.0143311
-0.0624092
0.0162218
-0.0719326
0.0182841
-0.0869447
0.022472
-0.107853
0.0411674
-0.127149
0.0909589
-0.130746
0.155525
-0.106442
0.142239
-0.057275
0.00567355
-0.0258536
-0.0729614
-0.00603655
-0.0641727
0.0201524
-0.0511831
0.0367856
-0.0284303
0.0408698
-0.0198964
0.0346543
-0.00440398
0.0186025
0.0113667
0.0279293
0.00792511
0.000547252
0.0079187
0.000937278
0.0078131
0.00118699
0.00794184
0.00193644
0.00815505
0.0055853
0.00703813
0.00604894
0.00528452
0.0070412
0.00539675
0.00553288
0.00367595
0.00122274
0.00373276
0.00150559
0.00329346
-0.00102374
0.00246888
-0.00234211
0.00106211
-0.00260049
-0.00136867
-0.00247623
-0.00404954
-0.0020856
-0.00606582
0.00090559
-0.00882125
0.00396721
-0.0129923
0.00448226
-0.0172757
0.00445608
-0.0207401
0.00412116
-0.022535
0.00296404
-0.0218881
-0.000438094
-0.0192593
-0.00624977
-0.0120507
-0.00778949
0.000194858
0.0196615
0.00817179
0.0402905
0.00973096
0.0235832
0.00888338
0.00804597
0.00689669
-0.000348532
0.00548396
0.00430011
0.00504659
0.00997339
0.00403171
0.0130983
0.00253587
0.0136825
0.0020109
0.0104342
0.000645753
0.00524433
-0.00166351
0.00214863
-0.00182938
0.0023273
-0.000979139
0.00559545
0.000626761
0.0109551
0.00227668
0.0146917
0.00308564
0.019212
0.00176965
0.0197226
-0.00225015
0.0200985
-0.00801604
0.0218065
-0.0147523
0.023234
-0.0233747
0.0265108
-0.0357437
0.0342425
-0.0509396
0.0556684
-0.0614486
0.100648
-0.0567291
0.148462
-0.00956698
0.0939737
0.0290753
-0.0322825
0.0215603
-0.0711549
0.0355192
-0.0809964
0.0556473
-0.0747065
0.0745142
-0.050547
0.082751
-0.0269666
0.0831613
-0.00486121
0.0759069
0.012565
0.0125733
0.00801425
0.000543581
0.00804903
0.000982033
0.00806566
0.00128599
0.00830194
0.00180853
0.00912643
0.00473717
0.00960806
0.00598485
0.00979369
0.00710229
0.0101393
0.00553003
0.00960018
0.00107106
0.0101533
0.000720398
0.0106586
0.00128353
0.00973884
-0.000626149
0.00864603
-0.0012617
0.00684067
-0.000364695
0.00379239
0.000874745
0.00138536
0.00262518
0.000151053
0.00451768
-0.00165606
0.00560061
-0.00423018
0.00624353
-0.00701952
0.00608075
-0.00953408
0.00467228
-0.010531
0.000147518
-0.0107973
-0.0058143
-0.0106557
-0.00750305
0.00191903
0.00914236
0.0162944
0.0282236
0.0192395
0.0200578
0.0188199
0.00796295
0.0163774
0.00188521
0.014865
0.0050668
0.0149869
0.00908282
0.0155898
0.0120601
0.0160282
0.0128976
0.015978
0.0103211
0.0146218
0.00624202
0.0124028
0.00347265
0.0112806
0.00251581
0.0116979
0.00388118
0.0132684
0.0064727
0.0159125
0.00981067
0.0198209
0.0145653
0.0229382
0.0170783
0.024315
0.0198575
0.0245355
0.0230431
0.0232408
0.0255423
0.0200635
0.0302751
0.0139902
0.0404492
0.00713581
0.0623308
0.00509418
0.101452
0.0252963
0.128785
0.0564597
0.0610404
0.067375
-0.0387483
0.064711
-0.0711825
0.0687384
-0.0869372
0.0796909
-0.0876062
0.0932366
-0.0659214
0.100649
-0.0353062
0.102296
-0.00616753
0.101631
0.0131811
0.0115857
0.00808441
0.000450727
0.00829127
0.000805307
0.00839171
0.00119443
0.00869187
0.00165135
0.00981727
0.00367039
0.011075
0.00481456
0.0124835
0.00593947
0.0136799
0.00503487
0.0138534
0.00178615
0.0137868
0.000723526
0.0143443
0.000850798
0.0141663
-1.63743e-05
0.0136078
-0.000263778
0.0132269
0.00033683
0.0128465
0.00148849
0.0122749
0.00322867
0.0118913
0.00482271
0.0114835
0.00578453
0.0108356
0.00639963
0.0101382
0.0061265
0.00978469
0.00437423
0.00951092
7.36752e-05
0.00753299
-0.00427672
0.00325059
-0.00389002
0.00709088
0.00400223
0.0184342
0.0181216
0.0240728
0.0141778
0.0246002
0.00679966
0.0232133
0.0028263
0.0228076
0.00487929
0.0238551
0.00741818
0.0257501
0.00967266
0.0278432
0.0103938
0.0291866
0.0085767
0.0292444
0.00558255
0.0285361
0.00337686
0.0279484
0.00220245
0.0281986
0.00268453
0.0293366
0.00403634
0.0313716
0.00608175
0.0351379
0.00959885
0.039421
0.0122577
0.0435833
0.0157154
0.047612
0.0194634
0.0508852
0.0228346
0.0533552
0.0284211
0.055066
0.039209
0.0586304
0.059023
0.0691095
0.0904592
0.0983698
0.100158
0.122302
0.039857
0.11863
-0.0338775
0.109426
-0.0632266
0.103742
-0.0823539
0.105662
-0.0905567
0.112216
-0.0733554
0.115747
-0.0396426
0.115277
-0.00680026
0.114143
0.012668
0.0117705
0.0080656
0.000351808
0.00835423
0.000571572
0.00881586
0.000869573
0.00929255
0.00134037
0.0103435
0.0026668
0.0118703
0.00333396
0.0138643
0.00403139
0.0156961
0.00356317
0.0162175
0.0021836
0.0164641
0.00157913
0.0168939
0.00118781
0.0168634
0.000323715
0.0166575
0.000118436
0.0164917
0.000584492
0.016555
0.00141112
0.0170836
0.00257486
0.0179845
0.00372403
0.0190874
0.00443665
0.0203616
0.00489092
0.0216622
0.00457509
0.0229254
0.00288832
0.0231694
-0.00023384
0.0215668
-0.00276789
0.0192624
-0.0017627
0.0185626
0.0034294
0.0234295
0.0126613
0.0289081
0.00847315
0.0303829
0.00455509
0.0302033
0.00236161
0.0308519
0.00355617
0.0327529
0.00488402
0.0355762
0.00627335
0.038691
0.00669822
0.0411316
0.00548949
0.0424194
0.00345256
0.0430049
0.00178382
0.0435147
0.000762418
0.0445317
0.00079711
0.0462655
0.00148561
0.0487021
0.00273181
0.0523269
0.00501016
0.0564899
0.00738511
0.0612667
0.0106162
0.0667738
0.0140584
0.0726946
0.0172796
0.0793744
0.0221661
0.0877934
0.0310889
0.100733
0.0461356
0.123395
0.0674121
0.156191
0.0677037
0.173401
0.0237877
0.164476
-0.024615
0.14875
-0.0481056
0.133047
-0.0669545
0.123762
-0.0808854
0.121186
-0.070492
0.119836
-0.0393099
0.117028
-0.00574923
0.11494
0.0130808
0.0106374
0.00811914
0.000136434
0.00845453
0.000176681
0.00892157
0.000373475
0.00956438
0.000696063
0.0108751
0.00133952
0.0124331
0.00174668
0.0143914
0.00204164
0.0161898
0.00176527
0.0172305
0.00119305
0.017975
0.000925397
0.0185402
0.000641308
0.0186087
0.000177907
0.0184595
-9.18889e-06
0.0185249
0.00020978
0.0189907
0.000652088
0.0200148
0.0012615
0.0215862
0.00179577
0.0234295
0.00216023
0.025408
0.00242265
0.027362
0.00230627
0.02882
0.00142757
0.0288347
5.34944e-06
0.0274134
-0.000951611
0.026523
-0.000412917
0.0277208
0.00214775
0.032682
0.00761532
0.037256
0.00415556
0.0391497
0.00230518
0.0396135
0.0013538
0.0405833
0.00198902
0.042542
0.00243247
0.0454598
0.00294444
0.0488073
0.00295519
0.0516445
0.00222201
0.0534588
0.00115227
0.0544674