/*--------------------------------*- C++ -*----------------------------------*\
  =========                 |
  \\      /  F ield         | OpenFOAM: The Open Source CFD Toolbox
   \\    /   O peration     | Website:  https://openfoam.org
    \\  /    A nd           | Version:  8
     \\/     M anipulation  |
\*---------------------------------------------------------------------------*/
FoamFile
{
    version     2.0;
    format      ascii;
    class       volVectorField;
    location    "200";
    object      U;
}
// * * * * * * * * * * * * * * * * * * * * * * * * * * * * * * * * * * * * * //

dimensions      [0 1 -1 0 0 0 0];

internalField   nonuniform List<vector> 
1200
(
(0.0796152 -0.00511761 -0.00237246)
(0.0786729 -0.00355971 -0.00301961)
(0.077539 -0.002876 -0.00775306)
(0.0724897 -0.00202594 -0.0135656)
(0.0877628 0.00409055 -0.0221411)
(0.10473 0.0112578 -0.0208224)
(0.0966359 0.0028631 -0.00650564)
(0.13724 -0.0217877 0.0506969)
(0.142709 -0.025407 0.075171)
(0.144405 -0.0236737 0.0771746)
(0.140538 -0.0164781 0.0708517)
(0.132113 -0.00259417 0.0710316)
(0.11858 0.00714351 0.0729108)
(0.106389 0.0128272 0.072141)
(0.0994932 0.0154537 0.0674886)
(0.0966549 0.0161821 0.0736905)
(0.102361 0.0121382 0.103123)
(0.123507 0.00549281 0.137247)
(0.151265 0.00134439 0.171769)
(0.178731 -0.000633746 0.189477)
(0.198981 -0.000620899 0.192727)
(0.207389 -0.00190222 0.194088)
(0.207949 0.00230991 0.192042)
(0.16721 0.0272689 0.194866)
(-0.00106456 0.0808444 0.171893)
(-0.398295 0.0737897 0.137525)
(-0.535151 0.0264392 0.104186)
(-0.609466 0.00627462 0.0758693)
(-0.621387 -0.00612147 0.0718557)
(-0.60784 -0.0131827 0.0729838)
(-0.599276 -0.0162225 0.0702677)
(-0.596029 -0.0172345 0.0755202)
(-0.594614 -0.0160602 0.0819491)
(-0.594622 -0.0125342 0.0891383)
(-0.591697 -0.00800223 0.0942061)
(-0.578521 -0.00515064 0.100175)
(-0.54541 -0.00680642 0.105345)
(-0.484055 -0.0153517 0.11091)
(-0.397305 -0.0272033 0.115534)
(-0.304103 -0.0345374 0.112938)
(-0.21914 -0.0384653 0.0999091)
(-0.132378 -0.0376433 0.084878)
(-0.0821018 -0.0464179 0.0685411)
(0.0663845 -0.03259 0.0329483)
(0.141141 -0.0301964 -0.0252614)
(0.217269 -0.0598416 0.00583244)
(0.365096 -0.129856 0.00722725)
(0.489649 -0.212309 0.011044)
(0.88055 -0.251817 0.0370719)
(0.806496 0.048812 0.139529)
(-0.504382 0.19361 0.44199)
(-0.986651 -0.0245411 0.559272)
(-1.24601 -0.147728 0.613778)
(-1.29889 -0.216014 0.648041)
(-1.1977 -0.252615 0.741673)
(-1.09651 -0.268733 0.847608)
(-1.04641 -0.290199 0.946676)
(-1.00129 -0.324664 1.06839)
(-0.969164 -0.389214 1.19312)
(-0.953614 -0.559228 1.36727)
(0.0797138 0.0025806 0.00118001)
(0.0780399 0.00334418 0.00136067)
(0.0755029 0.00246743 0.000645384)
(0.0667887 -1.30157e-05 -0.00433882)
(0.0908062 -0.0180864 0.025774)
(0.084779 -0.0201549 0.0523498)
(0.0998975 -0.0095317 0.110063)
(0.058747 0.00231787 0.23522)
(-0.0148624 0.00363462 0.249845)
(-0.0513347 0.00030021 0.250385)
(-0.0752675 0.00171857 0.251396)
(-0.0808108 0.0030639 0.260148)
(-0.0767286 -0.000369193 0.264524)
(-0.0618553 -0.00892163 0.251596)
(-0.0425277 -0.0139328 0.240342)
(-0.023691 -0.0166083 0.230627)
(0.00211347 -0.0199163 0.22138)
(0.0213447 -0.0231643 0.246085)
(0.0302542 -0.0237579 0.267449)
(0.0353525 -0.0208134 0.242997)
(0.028176 -0.0140811 0.226253)
(0.0186641 -0.00563761 0.25264)
(-0.00663306 0.00555612 0.213717)
(-0.0233305 0.0536208 0.171412)
(-0.0339843 0.143186 0.125152)
(-0.255688 0.140119 0.117579)
(-0.305406 0.0642114 0.085567)
(-0.348431 0.0253322 0.0622971)
(-0.353704 0.00294167 0.0882847)
(-0.36854 0.00229709 0.116828)
(-0.411066 0.0133654 0.126447)
(-0.473282 0.0184798 0.136711)
(-0.540675 0.0192521 0.134649)
(-0.607429 0.0155274 0.122844)
(-0.658418 0.00402971 0.109555)
(-0.677581 -0.0149963 0.0982832)
(-0.657123 -0.0373864 0.0828086)
(-0.619813 -0.056346 0.0773563)
(-0.60104 -0.0570586 0.0877)
(-0.613827 -0.0409842 0.0969274)
(-0.647442 -0.0301957 0.0969328)
(-0.687439 -0.0221169 0.0939082)
(-0.738332 -0.0207782 0.0869689)
(-0.796049 -0.0130578 0.0799335)
(-0.860008 -0.0147666 0.0760684)
(-0.939254 -0.028433 0.0768312)
(-1.08365 -0.0406101 0.0690099)
(-1.37234 0.0183529 0.0645768)
(-1.76195 0.236427 0.0785714)
(-2.06945 0.478817 0.0916175)
(-2.99753 0.529142 0.087933)
(-3.78656 0.340673 0.0333691)
(-4.13763 0.202513 0.00140236)
(-4.15893 0.11804 -0.00451794)
(-4.14372 0.11445 0.00103621)
(-4.18889 0.157832 -0.00237349)
(-4.2397 0.202048 -0.00822781)
(-4.29455 0.229989 -0.0133471)
(-4.37137 0.255637 -0.019968)
(-4.54846 0.305642 -0.0310873)
(0.0795694 0.000496634 0.00412349)
(0.0781005 0.000953542 0.00438005)
(0.0759221 0.000551573 0.00528157)
(0.0682149 -0.000191141 0.0123113)
(0.0493568 -0.00403013 0.113776)
(-0.0178589 -0.00877921 0.162353)
(-0.0204555 0.0106821 0.163967)
(-0.0553579 0.0223581 0.215301)
(-0.0895892 0.00615997 0.196657)
(-0.104684 -0.00487078 0.19071)
(-0.108789 -0.00853982 0.165877)
(-0.0934213 -0.00685987 0.118815)
(-0.062825 -0.00517893 0.059851)
(-0.0340293 -0.00697471 0.0391928)
(-0.0131385 -0.00619992 0.0454531)
(-0.00171327 -0.00924128 0.0584979)
(-0.0157335 -0.0137291 0.0803546)
(-0.0384917 -0.0127523 0.121901)
(-0.0684695 -0.0122485 0.151165)
(-0.101652 -0.00924901 0.16331)
(-0.13415 -0.00395916 0.161475)
(-0.153863 -0.000306346 0.148909)
(-0.149475 0.00526352 0.137056)
(-0.137492 0.0398741 0.133635)
(-0.0416504 0.160085 0.104889)
(-0.148138 0.180184 0.0784539)
(-0.167583 0.0811286 0.00428939)
(-0.222209 0.0265866 -0.0160787)
(-0.232285 -0.000376476 0.0221378)
(-0.234593 -0.00070506 0.0407398)
(-0.277284 0.021312 0.0137151)
(-0.315855 0.0348354 0.00102087)
(-0.339685 0.0424755 -0.0197948)
(-0.356312 0.0413771 -0.053825)
(-0.360608 0.030973 -0.0972009)
(-0.357615 0.0182407 -0.130797)
(-0.384597 0.0123472 -0.1231)
(-0.448515 0.00884177 -0.0782392)
(-0.56412 0.00101021 -0.015325)
(-0.674245 -0.00811682 0.00772142)
(-0.75418 -0.00902323 0.0146791)
(-0.821207 0.00445475 0.0207935)
(-0.889511 0.0090271 0.0210721)
(-0.958905 0.017779 0.0221213)
(-1.03144 0.0180256 0.0304272)
(-1.11453 0.00351663 0.0406141)
(-1.22721 -0.0163979 0.0514238)
(-1.41912 0.0303054 0.0501869)
(-1.69639 0.263702 0.0303093)
(-1.97461 0.618352 0.0203644)
(-2.27279 0.673987 0.0262769)
(-2.08723 0.318456 0.0461205)
(-1.24108 -0.0265227 0.128683)
(-0.706023 -0.155726 0.315493)
(-0.527552 -0.172389 0.441256)
(-0.500008 -0.190081 0.603692)
(-0.581692 -0.215243 0.699669)
(-0.722519 -0.230433 0.734358)
(-0.908937 -0.234188 0.852604)
(-1.19625 -0.0498426 1.0153)
(0.0798119 0.00171414 0.001564)
(0.0783712 0.00402679 -0.00315564)
(0.0782225 0.00553329 -0.0104875)
(0.072519 0.0107999 -0.015299)
(0.0679973 0.0192345 0.0341855)
(0.0407891 0.0045036 0.131968)
(0.00706232 0.0079008 0.146762)
(-0.0212622 0.0265569 0.11438)
(-0.0110962 0.0210588 0.022336)
(-0.0285338 0.00583069 -0.0979724)
(-0.0407802 0.000266146 -0.145823)
(-0.0293276 -0.00699769 -0.180062)
(-0.0207313 -0.0144516 -0.186229)
(-0.0105113 -0.0177057 -0.199456)
(-0.0064226 -0.0170271 -0.199843)
(0.000909595 -0.00824148 -0.18757)
(-0.0549733 -0.00174181 -0.179961)
(-0.09648 -0.00306967 -0.166489)
(-0.135215 -0.00108009 -0.166032)
(-0.165605 0.0022601 -0.160173)
(-0.186847 0.00446972 -0.147606)
(-0.191805 -0.000399939 -0.117175)
(-0.178182 -0.0122249 -0.0636107)
(-0.155277 0.0118434 0.0212234)
(-0.0368847 0.13889 0.0637034)
(-0.0532045 0.193998 0.0421268)
(-0.0153041 0.101684 -0.0574616)
(-0.063928 0.0381262 -0.0842822)
(-0.0249217 0.00048244 -0.178189)
(-0.0568614 0.0168265 -0.142954)
(-0.0874379 0.037521 -0.0792517)
(-0.118527 0.043782 -0.0882153)
(-0.14091 0.044156 -0.0981525)
(-0.157715 0.0350477 -0.117684)
(-0.159816 0.0133152 -0.145724)
(-0.153472 0.00211655 -0.163076)
(-0.160396 0.0186709 -0.177571)
(-0.163358 0.0512619 -0.206072)
(-0.163461 0.0763452 -0.210745)
(-0.162767 0.068159 -0.158155)
(-0.203228 0.0409533 -0.0386003)
(-0.345848 0.0380106 0.016131)
(-0.450024 0.0393481 0.0112447)
(-0.536456 0.0492392 0.00435885)
(-0.608509 0.0585435 -0.00201629)
(-0.681235 0.0593716 -0.0186042)
(-0.792876 0.0623265 -0.0328344)
(-0.974853 0.12306 -0.0296027)
(-1.19335 0.331243 -0.0288256)
(-1.37624 0.6338 -0.0251938)
(-1.43421 0.620882 -0.025134)
(-0.9305 0.192574 -0.0769902)
(-0.316358 -0.261041 -0.217182)
(-0.256104 -0.181395 -0.122071)
(0.049935 -0.0847511 -0.0857255)
(0.329097 0.0314032 -0.0689576)
(0.47235 0.103639 -0.0323773)
(0.462743 0.184012 0.044211)
(0.393073 0.218407 0.0713254)
(0.0629334 0.0822034 0.25658)
(0.0799689 0.00182313 -0.000573311)
(0.0794587 0.00371811 -0.00605628)
(0.0800055 0.00551747 -0.0161331)
(0.0774556 0.00893132 -0.0272827)
(0.0819723 0.0269756 -0.00496455)
(0.0783125 0.0234564 0.0487724)
(0.0625995 0.0259533 0.0808668)
(0.036664 0.022045 0.076714)
(0.0425927 0.0132708 0.0168509)
(0.0384427 -0.000968031 -0.139697)
(0.036557 -0.00884195 -0.186433)
(0.0291379 -0.0132692 -0.181949)
(0.0199798 -0.0144249 -0.197508)
(0.00077364 -0.0175488 -0.238518)
(-0.0285528 -0.0158463 -0.255064)
(-0.0531246 0.005072 -0.239186)
(-0.0696731 0.0181408 -0.234423)
(-0.109023 0.0143733 -0.255772)
(-0.153512 0.0111887 -0.264898)
(-0.194159 0.00886787 -0.266153)
(-0.221267 0.00578869 -0.256541)
(-0.228555 -0.00363639 -0.231252)
(-0.205472 -0.026188 -0.192002)
(-0.177576 -0.0282647 -0.152422)
(-0.0392911 0.10733 -0.0390509)
(0.0330566 0.185581 -0.00184345)
(0.103476 0.0978792 -0.0802044)
(0.0874627 0.0280122 -0.111411)
(0.0849454 -0.00877917 -0.172971)
(0.0512726 0.0141199 -0.203024)
(0.0540906 0.0402439 -0.142582)
(0.0422052 0.0520332 -0.134668)
(0.0352177 0.0533201 -0.138153)
(0.0138718 0.0413848 -0.137628)
(0.0268694 0.0189116 -0.168921)
(-0.0137834 0.00628754 -0.164511)
(-0.0249989 0.0161583 -0.121227)
(-0.0253029 0.041133 -0.1282)
(-0.0108725 0.0655659 -0.159913)
(0.0144364 0.0676709 -0.194258)
(0.0316595 0.0803376 -0.151312)
(0.0215602 0.0727509 -0.0577705)
(-0.00646344 0.0670304 -0.0541142)
(-0.0600863 0.072605 -0.0511923)
(-0.132333 0.0825985 -0.0249241)
(-0.194996 0.092701 -0.0377715)
(-0.285296 0.114055 -0.0578198)
(-0.426316 0.191421 -0.0656342)
(-0.571137 0.376743 -0.0659692)
(-0.692045 0.605563 -0.0392285)
(-0.699003 0.509855 -0.0580172)
(0.41398 -0.0859138 -0.22758)
(0.14687 -0.280256 -0.220442)
(0.219204 -0.309012 -0.192844)
(0.41684 -0.290747 -0.164349)
(0.639012 -0.211856 -0.149781)
(0.794889 -0.133492 -0.1221)
(0.846682 -0.0966855 -0.106569)
(0.847483 -0.0356173 -0.0658513)
(0.754275 -0.00780871 -0.0440913)
(0.0802601 0.00177653 -0.00107606)
(0.0808621 0.003869 -0.00421944)
(0.0813793 0.00616114 -0.0127548)
(0.081471 0.00873873 -0.0237919)
(0.0868107 0.0228742 -0.0209603)
(0.0948198 0.0260563 0.0104473)
(0.0973795 0.0278097 0.0414794)
(0.093574 0.0229763 0.0461562)
(0.0914156 0.012835 0.0280696)
(0.0998387 0.00232413 0.00946373)
(0.109174 0.000207409 -0.0268575)
(0.102567 -0.00493355 -0.05771)
(0.0910724 -0.00598398 -0.0839772)
(0.0802972 -0.001787 -0.136126)
(0.0559091 -0.000405348 -0.199855)
(0.0204103 0.00292665 -0.241264)
(0.00700334 0.0142967 -0.232236)
(-0.00561947 0.0214119 -0.233734)
(-0.0299135 0.0237331 -0.24569)
(-0.057634 0.0223963 -0.251433)
(-0.0854728 0.0153529 -0.25703)
(-0.107794 -0.00427548 -0.241102)
(-0.103972 -0.0312079 -0.186136)
(-0.113534 -0.0404547 -0.168618)
(-0.0878564 0.0556639 -0.169588)
(0.12322 0.14173 -0.0745373)
(0.190305 0.0836889 -0.107974)
(0.196222 0.0292921 -0.127481)
(0.180769 0.00314558 -0.160661)
(0.149417 0.017788 -0.18338)
(0.14865 0.0362562 -0.16479)
(0.152348 0.0493858 -0.163054)
(0.160897 0.052984 -0.165089)
(0.161582 0.040907 -0.169873)
(0.160861 0.0235271 -0.169472)
(0.135077 0.0136278 -0.15272)
(0.113431 0.0129685 -0.119733)
(0.107062 0.0241254 -0.0957961)
(0.117418 0.0421808 -0.0907653)
(0.143879 0.0536784 -0.114866)
(0.181024 0.0690586 -0.125453)
(0.221415 0.0739194 -0.0957348)
(0.243 0.0804728 -0.0913688)
(0.248781 0.0909247 -0.088856)
(0.242064 0.0999399 -0.0597949)
(0.221453 0.116238 -0.0461876)
(0.190967 0.148047 -0.0480172)
(0.113332 0.227774 -0.0685502)
(0.07021 0.397018 -0.0943419)
(-0.000430088 0.571001 -0.0614742)
(0.233492 0.315291 -0.0511547)
(0.738685 -0.111804 -0.149074)
(0.632044 -0.267423 -0.172922)
(0.627512 -0.327813 -0.144823)
(0.726031 -0.327747 -0.109116)
(0.868559 -0.243162 -0.0738786)
(0.983023 -0.135501 -0.0593085)
(1.02846 -0.0198633 -0.0577655)
(1.04004 0.0590017 -0.0722962)
(1.01365 0.0466133 -0.0778075)
(0.0804232 0.00141681 0.000447626)
(0.0820087 0.00304166 -0.000148633)
(0.0839982 0.005321 -0.00465109)
(0.0850233 0.00748853 -0.0109833)
(0.0918144 0.0166246 -0.0183299)
(0.105432 0.0221021 -0.00732119)
(0.117324 0.0266271 0.00981477)
(0.127784 0.0221432 0.0196138)
(0.134831 0.0113027 0.0193084)
(0.138596 0.0127782 0.0132545)
(0.141464 0.00903156 0.00332656)
(0.139233 0.00126495 -0.0073696)
(0.134542 -0.00219774 -0.0219074)
(0.130461 -0.000296606 -0.0358806)
(0.129489 0.00651167 -0.0508681)
(0.124065 0.0167746 -0.0808919)
(0.118207 0.0221938 -0.12551)
(0.115667 0.0243734 -0.164355)
(0.109657 0.0262922 -0.190355)
(0.102557 0.0250382 -0.200935)
(0.0957541 0.0190534 -0.209993)
(0.0964001 0.00100489 -0.220096)
(0.0896198 -0.0205161 -0.146182)
(0.0540691 -0.0251566 -0.0948187)
(0.00490587 0.0235429 -0.148469)
(0.140554 0.0814198 -0.159834)
(0.234526 0.0634839 -0.16009)
(0.253043 0.0278541 -0.15649)
(0.242312 0.00960796 -0.163182)
(0.226063 0.0201732 -0.166724)
(0.231713 0.0326392 -0.151985)
(0.24683 0.0428793 -0.150722)
(0.26903 0.0461835 -0.153459)
(0.288201 0.0385486 -0.149483)
(0.296435 0.0258267 -0.135983)
(0.290131 0.0168977 -0.125092)
(0.280697 0.0141674 -0.105854)
(0.275752 0.0188227 -0.0832817)
(0.283019 0.0258956 -0.0653783)
(0.301975 0.0333142 -0.0635254)
(0.333909 0.0466059 -0.0713375)
(0.379855 0.0544005 -0.0721209)
(0.422363 0.0664806 -0.0793279)
(0.463011 0.0815367 -0.0868783)
(0.500307 0.0962753 -0.0790436)
(0.528276 0.120138 -0.0687319)
(0.55616 0.163818 -0.0575217)
(0.572999 0.245319 -0.0595206)
(0.641354 0.38254 -0.087122)
(0.718558 0.461021 -0.0727316)
(1.05032 0.21753 -0.067676)
(1.25436 -0.126426 -0.113329)
(1.145 -0.259565 -0.135714)
(1.05624 -0.334551 -0.127205)
(1.05475 -0.361854 -0.105656)
(1.10941 -0.295962 -0.0844678)
(1.15974 -0.179047 -0.0785393)
(1.17386 -0.0645288 -0.0869622)
(1.16416 0.0180974 -0.0945126)
(1.14672 0.0174105 -0.0868886)
(0.0803211 0.00155461 0.00259481)
(0.0816301 0.0028497 0.00343778)
(0.084433 0.00446027 0.00166024)
(0.088537 0.00674592 0.000596257)
(0.0966993 0.0129895 -0.00626973)
(0.111252 0.0165852 -0.00760172)
(0.128618 0.0197219 -0.00350378)
(0.146436 0.0170839 -8.02467e-06)
(0.158733 0.00840623 0.000785949)
(0.163925 0.00560923 0.00065265)
(0.166532 0.00203934 -0.000866185)
(0.164739 -0.00226436 -0.00374369)
(0.160746 -0.00194402 -0.00940892)
(0.159834 0.00210252 -0.0166955)
(0.161176 0.00642591 -0.0223241)
(0.165152 0.0113784 -0.0298623)
(0.172127 0.0176476 -0.043489)
(0.181615 0.0222696 -0.0632583)
(0.192672 0.0247522 -0.0872652)
(0.205811 0.0230603 -0.106122)
(0.218465 0.0143249 -0.12002)
(0.231656 -0.00266472 -0.125595)
(0.22314 -0.0162754 -0.106454)
(0.199054 -0.0113855 -0.0855939)
(0.178129 0.0125333 -0.0819952)
(0.195918 0.0505485 -0.147418)
(0.279028 0.0372504 -0.174026)
(0.305994 0.0200371 -0.156717)
(0.305523 0.0102841 -0.148374)
(0.302146 0.0171213 -0.144017)
(0.315315 0.0244734 -0.132601)
(0.339059 0.0315221 -0.129556)
(0.370441 0.0338195 -0.129282)
(0.400475 0.0280434 -0.123341)
(0.419497 0.018706 -0.106284)
(0.426968 0.0124261 -0.0900033)
(0.430483 0.00981316 -0.0774672)
(0.436242 0.0121588 -0.063021)
(0.450454 0.0171696 -0.0500051)
(0.474238 0.0233702 -0.0410716)
(0.507284 0.0329605 -0.0360349)
(0.550154 0.0405412 -0.0339954)
(0.595868 0.0512583 -0.0380798)
(0.647086 0.0643747 -0.0479155)
(0.704136 0.0783939 -0.0588263)
(0.764751 0.101883 -0.0683389)
(0.83999 0.144123 -0.0671243)
(0.939979 0.214914 -0.0612273)
(1.11145 0.318834 -0.0719899)
(1.33821 0.340343 -0.0658969)
(1.64687 0.145959 -0.062099)
(1.73786 -0.0928361 -0.0773462)
(1.60071 -0.208386 -0.0965696)
(1.43673 -0.290973 -0.100979)
(1.33013 -0.341269 -0.0944987)
(1.27228 -0.297576 -0.0843396)
(1.23435 -0.179783 -0.0847188)
(1.20951 -0.0510746 -0.0936299)
(1.17785 0.0300681 -0.100637)
(1.15879 0.030578 -0.0742444)
(0.0806618 -0.00118004 0.0011507)
(0.0825199 -0.000586198 2.56984e-06)
(0.0858756 0.00042799 -0.000517637)
(0.089228 0.00175529 0.00334458)
(0.0991744 0.00663037 0.00109972)
(0.114854 0.00905957 -0.00189964)
(0.133915 0.010702 -0.00322259)
(0.153642 0.00956086 -0.00684128)
(0.168162 0.0055834 -0.00884116)
(0.176217 0.00374673 -0.010475)
(0.181372 0.00183422 -0.0128285)
(0.182922 -0.000131534 -0.0166583)
(0.181254 -0.00045649 -0.021514)
(0.180546 0.00157876 -0.0254721)
(0.183377 0.00527162 -0.0241399)
(0.190631 0.00991017 -0.0194514)
(0.202634 0.0134725 -0.0162297)
(0.218041 0.0152594 -0.017332)
(0.235535 0.0161967 -0.0235291)
(0.254793 0.0146248 -0.0303217)
(0.273061 0.00857338 -0.0357261)
(0.282488 -0.000527448 -0.0362644)
(0.272284 -0.00708526 -0.0284328)
(0.254412 -0.00367235 -0.0195311)
(0.254154 0.0133267 -0.0231782)
(0.291228 0.0372586 -0.0654587)
(0.360585 0.0211211 -0.0924513)
(0.390742 0.0121375 -0.0901601)
(0.396898 0.00722894 -0.0883559)
(0.399142 0.0107278 -0.0905924)
(0.412863 0.0139461 -0.0899036)
(0.436932 0.0172577 -0.0932528)
(0.469497 0.0179954 -0.0980727)
(0.5025 0.0145176 -0.0980427)
(0.526306 0.00901266 -0.0905993)
(0.539944 0.003881 -0.0835078)
(0.548034 0.000708904 -0.0787746)
(0.555785 0.000895723 -0.071263)
(0.569699 0.00279998 -0.0633666)
(0.59372 0.00581365 -0.0566982)
(0.630508 0.0115906 -0.0495873)
(0.677604 0.019281 -0.0425856)
(0.730259 0.0303962 -0.0371877)
(0.790908 0.0421582 -0.0375901)
(0.861449 0.0533203 -0.0454173)
(0.944495 0.0697755 -0.0602584)
(1.05534 0.0986887 -0.0665457)
(1.21583 0.145491 -0.0631291)
(1.46822 0.2072 -0.0648239)
(1.78725 0.203591 -0.0603411)
(2.0639 0.0761137 -0.059655)
(2.10874 -0.0652439 -0.0714566)
(1.94687 -0.143154 -0.0873415)
(1.72018 -0.208055 -0.0952264)
(1.49955 -0.264747 -0.103585)
(1.28214 -0.260018 -0.114288)
(1.09423 -0.183265 -0.133056)
(0.998594 -0.0607979 -0.15178)
(0.937182 0.0295846 -0.14662)
(0.932092 0.0319658 -0.115247)
(0.0805523 0.00551039 0.000184476)
(0.0826364 0.00421508 -0.00290532)
(0.0857244 0.00358345 -0.00260784)
(0.0892064 0.0031869 0.00380696)
(0.0989254 0.00417189 0.00175682)
(0.115091 0.00465749 -0.000298151)
(0.134836 0.00471325 -0.000635909)
(0.154649 0.00396362 -0.00780273)
(0.169848 0.00254905 -0.0113113)
(0.179439 0.00188178 -0.0132079)
(0.185598 0.0013133 -0.0146023)
(0.187461 0.000693802 -0.0161186)
(0.186214 0.000568576 -0.0183668)
(0.186242 0.00105795 -0.0207383)
(0.190385 0.00178641 -0.0196088)
(0.199918 0.00276061 -0.01505)
(0.214593 0.00381128 -0.00855349)
(0.231771 0.00493044 -0.00204815)
(0.254201 0.0063778 0.00302938)
(0.281369 0.00683862 0.00780797)
(0.304694 0.00502968 0.0116093)
(0.314987 0.00131856 0.0142962)
(0.309111 -0.00209503 0.0200666)
(0.295363 -0.00168004 0.0268343)
(0.294798 0.00479259 0.0254886)
(0.345171 0.0174416 0.00816306)
(0.415717 0.0111206 -0.00517642)
(0.454074 0.0072752 -0.00432782)
(0.469276 0.0052404 -0.00261228)
(0.481211 0.00622984 -0.00504038)
(0.501301 0.00712613 -0.00818725)
(0.529444 0.00756862 -0.0146786)
(0.563463 0.00670769 -0.0240831)
(0.596298 0.00450826 -0.0320622)
(0.61971 0.00210387 -0.0360933)
(0.632446 8.53491e-05 -0.0389268)
(0.638034 -0.00130905 -0.0435823)
(0.641728 -0.00185437 -0.0478765)
(0.648584 -0.0023332 -0.0525386)
(0.660938 -0.00311375 -0.0602057)
(0.682082 -0.00349838 -0.0700763)
(0.714736 -0.00132291 -0.0797142)
(0.762294 0.00471962 -0.0850908)
(0.828668 0.0122418 -0.0886835)
(0.913897 0.0196772 -0.0933079)
(1.02133 0.0287161 -0.0994122)
(1.16709 0.0421165 -0.101626)
(1.37693 0.062037 -0.098279)
(1.6914 0.085355 -0.0926918)
(2.05833 0.0807042 -0.0796438)
(2.31789 0.034384 -0.0720438)
(2.34312 -0.0146311 -0.0776017)
(2.16628 -0.0479569 -0.0980839)
(1.88358 -0.0888115 -0.128314)
(1.50182 -0.146571 -0.173924)
(1.01504 -0.150471 -0.208061)
(0.529985 -0.0536044 -0.247429)
(0.352921 0.0346317 -0.353572)
(0.409147 0.0423371 -0.376107)
(0.546106 0.00348357 -0.502426)
(0.079769 -0.0048443 -0.00243708)
(0.0789974 -0.00334613 -0.00308471)
(0.078762 -0.00245445 -0.00787302)
(0.0770995 -0.00171379 -0.0135694)
(0.0948088 0.00349085 -0.0226537)
(0.111325 0.00873032 -0.0202969)
(0.0990792 0.000919244 -0.00569635)
(0.127848 -0.0175329 0.0484885)
(0.142838 -0.0183653 0.0739305)
(0.149206 -0.0195672 0.0781944)
(0.143151 -0.0167244 0.0732918)
(0.13272 -0.00444575 0.0721299)
(0.117944 0.00526107 0.0735864)
(0.105603 0.0110798 0.072973)
(0.0987616 0.013942 0.0681697)
(0.0957342 0.0149737 0.0736839)
(0.101367 0.0115326 0.102499)
(0.12204 0.00498109 0.136945)
(0.149365 0.000595005 0.172002)
(0.176355 -0.00102147 0.190161)
(0.196342 -0.00116222 0.193623)
(0.204868 -0.00226083 0.19508)
(0.20426 0.00267427 0.193743)
(0.160463 0.0291941 0.195869)
(-0.0359669 0.0816728 0.170668)
(-0.407481 0.0672552 0.136298)
(-0.533113 0.0217868 0.103907)
(-0.602602 0.00266399 0.0760957)
(-0.611403 -0.009047 0.0721305)
(-0.596235 -0.0154208 0.0731374)
(-0.585173 -0.0175124 0.0699679)
(-0.580453 -0.0171264 0.0748512)
(-0.579201 -0.0143414 0.0811166)
(-0.581158 -0.00956692 0.0882169)
(-0.580391 -0.00455318 0.09329)
(-0.567454 -0.00251241 0.099441)
(-0.530847 -0.0063192 0.104774)
(-0.46365 -0.0167617 0.110902)
(-0.373558 -0.0284269 0.116571)
(-0.282949 -0.0339158 0.114243)
(-0.205804 -0.0373654 0.100214)
(-0.121069 -0.0354004 0.0841543)
(-0.0810792 -0.0451423 0.0664469)
(0.0629256 -0.031019 0.0292567)
(0.133611 -0.0299177 -0.0213344)
(0.199954 -0.058702 0.00784676)
(0.3369 -0.129891 0.0074967)
(0.440031 -0.214469 0.0120577)
(0.853617 -0.265874 0.037499)
(0.872079 0.00911585 0.120986)
(-0.435265 0.210048 0.437751)
(-0.981138 -0.0130034 0.567042)
(-1.27569 -0.139856 0.625299)
(-1.34 -0.216043 0.66002)
(-1.24716 -0.256246 0.749877)
(-1.13145 -0.273894 0.855943)
(-1.06462 -0.294256 0.956244)
(-1.01368 -0.328228 1.07873)
(-0.980597 -0.393119 1.2056)
(-0.969885 -0.566516 1.38411)
(0.0796401 0.00291819 0.00122949)
(0.0778073 0.00351926 0.00139411)
(0.0749091 0.00289703 0.000596943)
(0.068526 -5.7394e-05 -0.00420922)
(0.0843892 -0.0136472 0.0239055)
(0.0792566 -0.0173339 0.0545419)
(0.0973021 -0.00795026 0.108197)
(0.0601013 0.00626834 0.234357)
(-0.0131273 0.0116524 0.251695)
(-0.0497072 0.00375426 0.252297)
(-0.0741476 0.0018483 0.253226)
(-0.0804846 0.00287724 0.262141)
(-0.0763411 -0.000413778 0.26617)
(-0.0615583 -0.00881354 0.253194)
(-0.0422358 -0.0137505 0.241865)
(-0.0234764 -0.0163656 0.232265)
(0.00213834 -0.0194413 0.223065)
(0.0211978 -0.0226018 0.247715)
(0.0298832 -0.0233043 0.269295)
(0.0345692 -0.0204778 0.245256)
(0.027349 -0.0137571 0.228561)
(0.0179359 -0.0052707 0.255426)
(-0.0073717 0.00686918 0.217102)
(-0.0239143 0.0622564 0.172193)
(-0.0548717 0.143258 0.12602)
(-0.262258 0.132286 0.116523)
(-0.306021 0.057715 0.0849761)
(-0.352299 0.0222677 0.0642761)
(-0.362249 0.00278296 0.0909821)
(-0.380144 0.00288926 0.11924)
(-0.422757 0.0129801 0.127589)
(-0.484429 0.0180506 0.135779)
(-0.551133 0.0188326 0.131907)
(-0.613772 0.0143779 0.119607)
(-0.65618 0.00137559 0.106108)
(-0.663894 -0.0193548 0.0937896)
(-0.633072 -0.0417517 0.0771703)
(-0.59534 -0.0589864 0.0746221)
(-0.583299 -0.0558879 0.0884775)
(-0.604733 -0.0371698 0.0979355)
(-0.64153 -0.0275515 0.0964173)
(-0.681016 -0.0200221 0.0926202)
(-0.731969 -0.0199259 0.0853457)
(-0.78971 -0.0135824 0.0785361)
(-0.853187 -0.0160073 0.0750271)
(-0.932775 -0.0327022 0.0759296)
(-1.0776 -0.0475049 0.0683509)
(-1.3686 0.00986974 0.0644716)
(-1.76131 0.231175 0.0793083)
(-2.03209 0.47731 0.0919371)
(-2.95074 0.542126 0.0940794)
(-3.78594 0.356479 0.0361282)
(-4.17075 0.225596 -0.00288877)
(-4.22895 0.14766 -0.0161094)
(-4.18409 0.140307 -0.00781705)
(-4.21674 0.182963 -0.00983613)
(-4.25343 0.227104 -0.0131937)
(-4.28886 0.253784 -0.0141457)
(-4.34868 0.280388 -0.0168642)
(-4.51137 0.331622 -0.0241324)
(0.0793482 0.000702291 0.0040543)
(0.0775908 0.00132454 0.00425514)
(0.0749967 0.00142388 0.0051339)
(0.0655914 0.0023207 0.0122044)
(0.0498135 -0.00279769 0.111669)
(-0.016715 -0.00743059 0.1622)
(-0.0187905 0.013974 0.163798)
(-0.0516577 0.0283899 0.216588)
(-0.0877861 0.0141654 0.198672)
(-0.104862 0.000419405 0.192051)
(-0.107147 -0.00663512 0.165198)
(-0.0910713 -0.00577427 0.116594)
(-0.0615165 -0.00431963 0.0576031)
(-0.0346569 -0.00651063 0.036652)
(-0.0142995 -0.00572711 0.0430411)
(-0.0026168 -0.00913886 0.056929)
(-0.0165338 -0.0134404 0.0798901)
(-0.0388629 -0.0120479 0.122317)
(-0.0688612 -0.0115711 0.151941)
(-0.102263 -0.00851641 0.164281)
(-0.13478 -0.00320104 0.162275)
(-0.154073 0.000445855 0.149818)
(-0.1481 0.00747389 0.139447)
(-0.133432 0.0501899 0.134734)
(-0.0526899 0.16265 0.105448)
(-0.154254 0.170942 0.0753041)
(-0.1623 0.0753427 -0.00123186)
(-0.217796 0.030551 -0.0167022)
(-0.246173 0.00312391 0.0211926)
(-0.250194 0.00123215 0.0395594)
(-0.287424 0.0237358 0.0137523)
(-0.316113 0.0363258 0.000877286)
(-0.334307 0.0429151 -0.0203798)
(-0.350569 0.0420522 -0.0543874)
(-0.353823 0.0322968 -0.0982993)
(-0.345526 0.0196159 -0.134766)
(-0.359461 0.012545 -0.136116)
(-0.404518 0.00812767 -0.102565)
(-0.520248 -0.000182359 -0.0330145)
(-0.685616 -0.00995116 0.00889121)
(-0.765344 -0.00966702 0.0161411)
(-0.829174 0.00478085 0.0221621)
(-0.893855 0.00932287 0.0223244)
(-0.960657 0.0174636 0.0232105)
(-1.03077 0.0164562 0.031588)
(-1.11185 -0.0015167 0.0416968)
(-1.22365 -0.0245016 0.052385)
(-1.41747 0.0224946 0.0512059)
(-1.69722 0.261278 0.0318743)
(-1.97658 0.622725 0.0240354)
(-2.29967 0.684898 0.0332969)
(-2.1666 0.332612 0.0530341)
(-1.3781 -0.00389859 0.133797)
(-0.738965 -0.14965 0.315614)
(-0.552409 -0.170522 0.444954)
(-0.510751 -0.188437 0.610864)
(-0.591297 -0.212233 0.708175)
(-0.737352 -0.227411 0.74726)
(-0.928429 -0.234368 0.874261)
(-1.23044 -0.0518525 1.04701)
(0.0796214 0.00155903 0.00156976)
(0.0782564 0.00325894 -0.00325939)
(0.0787099 0.00343455 -0.010743)
(0.0716528 0.00762344 -0.0157526)
(0.0687133 0.0230901 0.0332641)
(0.0423422 0.00754388 0.131154)
(0.00956776 0.0108328 0.148504)
(-0.0181501 0.0302542 0.117697)
(-0.0169828 0.0251647 0.0347173)
(-0.0271012 0.000929712 -0.0970454)
(-0.0411306 -0.00205274 -0.144743)
(-0.0296255 -0.008402 -0.179429)
(-0.0204048 -0.0152439 -0.185235)
(-0.00988189 -0.01815 -0.198083)
(-0.00553695 -0.0171465 -0.198357)
(0.00207049 -0.00813758 -0.186496)
(-0.0539583 -0.00153252 -0.178606)
(-0.0955563 -0.00293874 -0.165092)
(-0.134661 -0.00108776 -0.164886)
(-0.165411 0.00227159 -0.159529)
(-0.1871 0.00474188 -0.1479)
(-0.19206 0.000499911 -0.119204)
(-0.177526 -0.0108242 -0.0656117)
(-0.156216 0.0232982 0.0350155)
(-0.0429174 0.141819 0.0645952)
(-0.0580134 0.184541 0.0374615)
(-0.00475242 0.10273 -0.0563852)
(-0.0562288 0.0417108 -0.0799895)
(-0.0202055 1.52945e-05 -0.174349)
(-0.0524052 0.01707 -0.141674)
(-0.0811002 0.0388532 -0.0779277)
(-0.113684 0.0449806 -0.0872176)
(-0.137898 0.0450923 -0.0971346)
(-0.156036 0.0361356 -0.116325)
(-0.157413 0.0137868 -0.143714)
(-0.147902 -1.91916e-05 -0.160224)
(-0.151501 0.0108174 -0.175157)
(-0.152117 0.0388952 -0.208529)
(-0.15174 0.0680761 -0.220356)
(-0.155168 0.0714142 -0.171833)
(-0.191889 0.0483272 -0.0520867)
(-0.347828 0.0374679 0.0170608)
(-0.443837 0.0396442 0.0122959)
(-0.522973 0.0507257 0.00549266)
(-0.589699 0.0604275 -0.000979962)
(-0.659243 0.0598507 -0.0183272)
(-0.773583 0.0610101 -0.0326255)
(-0.962081 0.121534 -0.0282498)
(-1.18503 0.335237 -0.0266032)
(-1.36642 0.646711 -0.0218378)
(-1.41338 0.637678 -0.0205321)
(-0.801177 0.18508 -0.0768382)
(-0.285444 -0.267771 -0.210618)
(-0.183191 -0.185158 -0.117311)
(0.108175 -0.076068 -0.0797553)
(0.354056 0.0468216 -0.0605099)
(0.424767 0.108234 0.00726942)
(0.392405 0.178584 0.0808939)
(0.339034 0.209848 0.0970819)
(0.00301329 0.170433 0.279537)
(0.0798953 0.00163326 -0.000586881)
(0.0793609 0.00286127 -0.00616491)
(0.0799269 0.00344476 -0.0163507)
(0.0766011 0.00685625 -0.0274838)
(0.0807782 0.026419 -0.00516556)
(0.0791287 0.0253518 0.0476103)
(0.0646181 0.0278638 0.0810724)
(0.0405925 0.0204717 0.0777199)
(0.048296 0.00697389 0.0196992)
(0.0386613 -0.000105125 -0.140929)
(0.0363416 -0.00940891 -0.185906)
(0.0288117 -0.0141302 -0.181082)
(0.0201639 -0.0151182 -0.19696)
(0.000952144 -0.0181657 -0.237651)
(-0.0283688 -0.0161349 -0.253806)
(-0.0526241 0.00516084 -0.237674)
(-0.0688717 0.0183365 -0.232653)
(-0.107974 0.0145085 -0.253653)
(-0.152508 0.0113474 -0.262778)
(-0.193777 0.00908311 -0.264555)
(-0.221684 0.0060561 -0.255806)
(-0.229661 -0.00303797 -0.231285)
(-0.207747 -0.0249712 -0.19285)
(-0.1812 -0.0270121 -0.155152)
(-0.044878 0.104053 -0.0441911)
(0.0359387 0.175161 -0.00745951)
(0.107356 0.101444 -0.0781073)
(0.0916784 0.030996 -0.108358)
(0.0877244 -0.00789295 -0.170249)
(0.052554 0.0148136 -0.200379)
(0.0561692 0.04168 -0.14115)
(0.043856 0.0538398 -0.133899)
(0.0362491 0.0551535 -0.137375)
(0.0141532 0.0428442 -0.137459)
(0.0283379 0.0192713 -0.168219)
(-0.0113639 0.00469384 -0.162781)
(-0.0186411 0.0100641 -0.119406)
(-0.0176411 0.0298701 -0.122589)
(-0.00566986 0.056147 -0.155233)
(0.0153936 0.0672782 -0.193778)
(0.0333423 0.0829427 -0.156303)
(0.0317381 0.0762819 -0.0642017)
(0.00454978 0.071126 -0.0582274)
(-0.0468722 0.0744949 -0.0538474)
(-0.112971 0.0811 -0.0249303)
(-0.183571 0.0925819 -0.0372673)
(-0.280224 0.117446 -0.0566875)
(-0.422447 0.197106 -0.063775)
(-0.563389 0.384949 -0.0640772)
(-0.67716 0.614678 -0.0368634)
(-0.654539 0.504586 -0.0554491)
(0.454091 -0.141522 -0.226285)
(0.180526 -0.291945 -0.213502)
(0.27091 -0.31762 -0.187508)
(0.466576 -0.286165 -0.161157)
(0.676256 -0.196263 -0.148411)
(0.815724 -0.115808 -0.123358)
(0.851335 -0.0827816 -0.106375)
(0.835731 -0.0219514 -0.0601353)
(0.625433 0.0332356 0.00776578)
(0.0802628 0.00176389 -0.00108039)
(0.0805886 0.00341495 -0.00420954)
(0.0806408 0.00445665 -0.0127551)
(0.0805606 0.00719768 -0.0238481)
(0.0854787 0.0224812 -0.0208123)
(0.0955171 0.0266595 0.00964406)
(0.0984539 0.0290041 0.0409671)
(0.096896 0.0209957 0.045926)
(0.0963485 0.00667628 0.0290338)
(0.0982559 -0.00161535 0.00798374)
(0.109407 -0.00124502 -0.032554)