/*--------------------------------*- C++ -*----------------------------------*\
  =========                 |
  \\      /  F ield         | OpenFOAM: The Open Source CFD Toolbox
   \\    /   O peration     | Website:  https://openfoam.org
    \\  /    A nd           | Version:  8
     \\/     M anipulation  |
\*---------------------------------------------------------------------------*/
FoamFile
{
    version     2.0;
    format      ascii;
    class       volScalarField;
    location    "400";
    object      k;
}
// * * * * * * * * * * * * * * * * * * * * * * * * * * * * * * * * * * * * * //

dimensions      [0 2 -2 0 0 0 0];

internalField   nonuniform List<scalar> 
1200
(
2.37227e-05
2.34051e-05
2.30147e-05
2.26051e-05
2.21925e-05
2.16243e-05
2.04198e-05
1.90312e-05
1.93696e-05
2.15019e-05
2.36724e-05
2.58625e-05
2.84063e-05
3.11816e-05
3.37941e-05
3.611e-05
3.86429e-05
4.13193e-05
4.4016e-05
4.52905e-05
4.53837e-05
4.54129e-05
4.55543e-05
4.7073e-05
5.06048e-05
5.20976e-05
5.22333e-05
5.19109e-05
5.19361e-05
5.24992e-05
5.48321e-05
5.9477e-05
6.23277e-05
6.30771e-05
6.40867e-05
6.71415e-05
7.46938e-05
8.81012e-05
0.000106541
0.000129132
0.000156126
0.000186688
0.000219094
0.000251091
0.000281163
0.000309537
0.000336628
0.000366322
0.00040301
0.000429139
0.000460616
0.00055635
0.000795173
0.00109716
0.00121341
0.00129808
0.00220245
0.00303275
0.00308367
0.00306169
2.10149e-05
1.82219e-05
1.57901e-05
1.3777e-05
1.22023e-05
1.10314e-05
9.43135e-06
9.17281e-06
1.33138e-05
2.19134e-05
2.35286e-05
2.20911e-05
2.01092e-05
1.87279e-05
1.79633e-05
1.74145e-05
1.79421e-05
1.93454e-05
2.20639e-05
2.42157e-05
2.54634e-05
2.66937e-05
2.95238e-05
3.42522e-05
3.65297e-05
3.73003e-05
3.94485e-05
4.27461e-05
4.1239e-05
3.90709e-05
4.0256e-05
6.93298e-05
7.74796e-05
6.45613e-05
5.74295e-05
7.76102e-05
0.000111824
0.000156427
0.00021304
0.000274091
0.000340547
0.000410571
0.000483194
0.0005581
0.000635547
0.000716605
0.00080276
0.000897375
0.0010049
0.00113123
0.00128059
0.00145086
0.0016371
0.00183554
0.002025
0.00219279
0.00251205
0.00272065
0.00279282
0.00289001
2.09751e-05
1.80742e-05
1.55079e-05
1.33176e-05
1.14511e-05
9.90892e-06
9.42974e-06
1.43652e-05
1.71904e-05
1.79791e-05
1.27195e-05
8.26989e-06
9.47562e-06
1.26412e-05
1.5749e-05
1.65451e-05
1.69008e-05
1.60059e-05
1.83027e-05
2.42578e-05
2.79133e-05
3.14345e-05
3.55945e-05
3.95706e-05
4.27667e-05
4.52567e-05
5.31681e-05
6.46297e-05
7.79262e-05
9.42766e-05
0.000114469
0.000139863
0.000169257
0.000202398
0.000237763
0.000274829
0.000317636
0.000364857
0.000416821
0.000474735
0.000538847
0.000608282
0.000682338
0.000760453
0.000842311
0.00092801
0.00101827
0.00111443
0.00121833
0.00133232
0.00145794
0.00159528
0.00174339
0.00189904
0.0020585
0.0022202
0.00238465
0.00245733
0.00252427
0.00272343
2.09698e-05
1.8069e-05
1.5519e-05
1.33415e-05
1.14635e-05
9.87624e-06
8.8803e-06
1.22157e-05
1.60153e-05
1.587e-05
1.17547e-05
1.16772e-05
1.17663e-05
1.41417e-05
1.77711e-05
1.99452e-05
2.11854e-05
2.18746e-05
2.24982e-05
2.50511e-05
2.92871e-05
3.3063e-05
3.70607e-05
4.06685e-05
4.34585e-05
4.52806e-05
5.43319e-05
6.48218e-05
7.68925e-05
9.12088e-05
0.000108385
0.000128818
0.000153144
0.000181386
0.000213858
0.000249978
0.00029037
0.000335543
0.000385383
0.00043925
0.000496473
0.000556674
0.000619558
0.000685167
0.000754124
0.000827636
0.000907369
0.000995186
0.00109291
0.0012017
0.00132284
0.00145799
0.0016086
0.00177306
0.00194073
0.00208991
0.00219319
0.00222454
0.0023449
0.00265032
2.09637e-05
1.80556e-05
1.55248e-05
1.33732e-05
1.15237e-05
9.91642e-06
8.69574e-06
9.71822e-06
1.27237e-05
1.35189e-05
1.15197e-05
1.049e-05
1.0075e-05
1.09554e-05
1.61755e-05
2.10738e-05
2.30194e-05
2.43746e-05
2.5303e-05
2.60737e-05
2.76886e-05
2.995e-05
3.32398e-05
3.69516e-05
3.99186e-05
4.25087e-05
4.52508e-05
4.58787e-05
5.57078e-05
6.81583e-05
8.09835e-05
9.51073e-05
0.000114904
0.000139631
0.000167019
0.000197051
0.000230557
0.000269145
0.000312665
0.000358837
0.000405926
0.00045356
0.000501198
0.000548841
0.000597672
0.000650176
0.000709787
0.000780412
0.00086607
0.000968108
0.00108853
0.00122958
0.00139406
0.00157774
0.0017595
0.00189881
0.00194279
0.00185676
0.00190878
0.00230764
2.0954e-05
1.80466e-05
1.55351e-05
1.34008e-05
1.1568e-05
9.97933e-06
8.67187e-06
8.44993e-06
9.94895e-06
1.08101e-05
1.02544e-05
9.39782e-06
8.52464e-06
7.56849e-06
6.90448e-06
9.20945e-06
1.49831e-05
1.97147e-05
2.20638e-05
2.24547e-05
2.19722e-05
2.16089e-05
2.40427e-05
3.2334e-05
3.56209e-05
3.81186e-05
4.07829e-05
4.29362e-05
4.55234e-05
4.59388e-05
5.30794e-05
6.28262e-05
7.71657e-05
9.84926e-05
0.000121024
0.000143667
0.000165875
0.000195063
0.000231702
0.000270776
0.000308706
0.000345799
0.000380615
0.000411782
0.000439321
0.000464744
0.000490884
0.000523894
0.000575928
0.000646585
0.000751387
0.000895282
0.00108961
0.00132255
0.00155373
0.00171646
0.00173342
0.001447
0.000934927
0.000744551
2.09442e-05
1.8035e-05
1.55389e-05
1.34268e-05
1.16128e-05
1.00451e-05
8.72703e-06
7.93835e-06
8.17792e-06
8.52405e-06
8.35715e-06
7.88075e-06
7.29879e-06
6.69183e-06
6.12417e-06
5.87893e-06
6.34132e-06
7.73331e-06
1.02237e-05
1.38067e-05
1.5919e-05
1.64549e-05
1.63796e-05
2.17496e-05
2.8234e-05
3.24152e-05
3.56351e-05
3.81951e-05
4.00415e-05
4.07967e-05
4.27685e-05
4.59785e-05
4.96775e-05
5.98605e-05
7.2704e-05
8.49298e-05
0.000100077
0.000123949
0.000159988
0.000191175
0.000218402
0.000246838
0.000273738
0.00029607
0.000313134
0.000325611
0.000334717
0.000342838
0.000354016
0.000377951
0.000417561
0.000501058
0.000670288
0.000943858
0.00126512
0.00149919
0.00152525
0.00132644
0.00110127
0.000946553
2.09321e-05
1.80141e-05
1.55218e-05
1.34211e-05
1.16372e-05
1.00951e-05
8.78994e-06
7.80969e-06
7.35028e-06
7.13263e-06
6.85576e-06
6.48827e-06
6.10473e-06
5.68677e-06
5.2682e-06
5.00034e-06
4.94443e-06
5.09255e-06
5.68012e-06
7.02776e-06
8.02951e-06
8.29357e-06
8.39816e-06
9.80997e-06
1.35442e-05
1.91111e-05
2.4979e-05
2.96331e-05
3.27389e-05
3.44108e-05
3.53107e-05
3.63206e-05
3.80642e-05
4.17186e-05
4.58724e-05
4.97066e-05
5.65364e-05
6.90505e-05
8.81096e-05
0.000108557
0.00013
0.000154613
0.00017837
0.00019673
0.000209434
0.000217684
0.00022254
0.000225495
0.000227832
0.000231163
0.00023907
0.000269454
0.000348515
0.000538385
0.00083888
0.00113808
0.00123594
0.00117461
0.00109088
0.00101274
2.09581e-05
1.81218e-05
1.56972e-05
1.36587e-05
1.19355e-05
1.04517e-05
9.16591e-06
8.1056e-06
7.33384e-06
6.804e-06
6.38064e-06
6.01149e-06
5.67987e-06
5.38022e-06
5.09959e-06
4.85322e-06
4.6623e-06
4.53283e-06
4.51693e-06
4.72032e-06
4.89691e-06
4.95794e-06
5.02955e-06
5.33632e-06
6.19434e-06
8.03416e-06
1.12041e-05
1.52466e-05
1.91723e-05
2.22635e-05
2.4396e-05
2.59832e-05
2.74681e-05
2.9181e-05
3.10791e-05
3.29775e-05
3.58533e-05
4.09261e-05
4.73682e-05
5.53826e-05
6.56996e-05
7.85902e-05
9.22325e-05
0.000104344
0.000114291
0.000121973
0.00012761
0.000132015
0.000135567
0.000137994
0.000140397
0.000149766
0.000176896
0.000255341
0.000425996
0.000656106
0.000781746
0.000794139
0.000774232
0.000749668
2.37024e-05
2.33829e-05
2.30794e-05
2.2753e-05
2.22703e-05
2.15872e-05
2.06036e-05
1.95198e-05
1.85447e-05
1.81562e-05
1.84197e-05
1.91953e-05
2.03222e-05
2.16112e-05
2.26731e-05
2.28036e-05
2.27092e-05
2.29175e-05
2.33239e-05
2.41554e-05
2.5692e-05
2.75562e-05
2.92509e-05
3.05057e-05
3.14699e-05
3.235e-05
3.3501e-05
3.50551e-05
3.68707e-05
3.89542e-05
4.13895e-05
4.39055e-05
4.57032e-05
4.71615e-05
4.94721e-05
5.23963e-05
5.56256e-05
5.90824e-05
6.31786e-05
6.79292e-05
7.34159e-05
7.99855e-05
8.77376e-05
9.64855e-05
0.000106068
0.000116344
0.000127249
0.000138786
0.000150967
0.000163819
0.000177226
0.000190875
0.000205959
0.000229924
0.000286084
0.000387217
0.000479475
0.000543911
0.000600277
0.000657421
2.37682e-05
2.34321e-05
2.29936e-05
2.25931e-05
2.22005e-05
2.16148e-05
2.06158e-05
1.90581e-05
1.93459e-05
2.14561e-05
2.3637e-05
2.58366e-05
2.83596e-05
3.11119e-05
3.37047e-05
3.60028e-05
3.8476e-05
4.13377e-05
4.40024e-05
4.51731e-05
4.53302e-05
4.54006e-05
4.55326e-05
4.70066e-05
5.04112e-05
5.19101e-05
5.21094e-05
5.1855e-05
5.17885e-05
5.22253e-05
5.40157e-05
5.88519e-05
6.31075e-05
6.43543e-05
6.53557e-05
6.76818e-05
7.35676e-05
8.53156e-05
0.000102889
0.000125182
0.000152267
0.000183112
0.0002155
0.000246159
0.000272233
0.00029439
0.000316513
0.000341476
0.000372407
0.000404719
0.000441803
0.000499787
0.000699497
0.00102881
0.00119431
0.00128569
0.00208145
0.00301365
0.00308062
0.00306098
2.10137e-05
1.82043e-05
1.57702e-05
1.38016e-05
1.22713e-05
1.11691e-05
9.48821e-06
9.13793e-06
1.31617e-05
2.17639e-05
2.34515e-05
2.20153e-05
2.0008e-05
1.86213e-05
1.78674e-05
1.73284e-05
1.78585e-05
1.92665e-05
2.19636e-05
2.41349e-05
2.53964e-05
2.66328e-05
2.94357e-05
3.40928e-05
3.63982e-05
3.72138e-05
3.95882e-05
4.3867e-05
4.06266e-05
3.85054e-05
4.10947e-05
6.17184e-05
7.99456e-05
7.16825e-05
5.97837e-05
7.42829e-05
0.00010652
0.000149869
0.000206746
0.000268511
0.000335096
0.000405098
0.00047745
0.000551679
0.000627745
0.000706291
0.000788118
0.000877669
0.000980168
0.00110196
0.00125145
0.00142882
0.00162171
0.00181765
0.00200559
0.00217004
0.00247992
0.00272012
0.00279278
0.00288968
2.09697e-05
1.80483e-05
1.5484e-05
1.33316e-05
1.14834e-05
9.93903e-06
9.34274e-06
1.41835e-05
1.70609e-05
1.79521e-05
1.279e-05
8.49928e-06
9.58702e-06
1.27166e-05
1.57964e-05
1.65687e-05
1.6925e-05
1.58866e-05
1.82022e-05
2.41437e-05
2.78512e-05
3.14073e-05
3.56002e-05
3.95686e-05
4.2957e-05
4.67172e-05
5.37008e-05
6.53742e-05
7.88206e-05
9.52043e-05
0.000114778
0.000142231
0.000171693
0.000204418
0.000239006
0.0002748
0.00031674
0.000363761
0.000415659
0.000473591
0.000537717
0.000606934
0.000680446
0.000757638
0.000838182
0.000922339
0.00101103
0.00110578
0.0012087
0.00132247
0.0014487
0.00158708
0.00173624
0.00189252
0.00205189
0.00221303
0.00238036
0.00247027
0.00253808
0.00273054
2.09615e-05
1.80428e-05
1.55045e-05
1.33569e-05
1.14956e-05
9.88162e-06
8.84301e-06
1.20648e-05
1.58961e-05
1.58469e-05
1.17847e-05
1.17345e-05
1.18268e-05
1.42136e-05
1.78444e-05
1.99928e-05
2.1237e-05
2.19352e-05
2.25748e-05
2.51072e-05
2.93836e-05
3.31415e-05
3.70733e-05
4.08345e-05
4.44643e-05
4.92439e-05
5.4439e-05
6.50863e-05
7.73156e-05
9.19548e-05
0.000109443
0.000130082
0.000154362
0.000182924
0.000215703
0.000252129
0.000292577
0.000337655
0.000387364
0.000441076
0.000498112
0.000558136
0.000620937
0.000686615
0.000755813
0.000829754
0.000910035
0.00099833
0.00109626
0.00120467
0.00132486
0.00145865
0.00160718
0.00176956
0.00193766
0.00209043
0.00220199
0.00224556
0.00236099
0.00265826
2.09523e-05
1.80299e-05
1.55198e-05
1.33869e-05
1.15426e-05
9.93022e-06
8.68339e-06
9.63373e-06
1.2624e-05
1.34808e-05
1.15157e-05
1.05368e-05
1.01188e-05
1.10181e-05
1.62644e-05
2.1152e-05
2.30857e-05
2.44429e-05
2.53652e-05
2.61315e-05
2.77182e-05
2.99434e-05
3.32288e-05
3.69768e-05
3.99429e-05
4.25909e-05
4.52781e-05
4.59665e-05
5.58754e-05
7.03099e-05
8.36154e-05
9.69848e-05
0.000115566
0.000140579
0.000169105
0.000200094
0.000233845
0.000272385
0.000315876
0.000361906
0.000408693
0.000456099
0.00050375
0.000551718
0.000601307
0.000655112
0.000716499
0.000789125
0.000876258
0.000977688
0.001096
0.00123437
0.00139467
0.00157435
0.00175716
0.00190355
0.00196162
0.00189197
0.00189464
0.00229842
2.09406e-05
1.8023e-05
1.55359e-05
1.34149e-05
1.15788e-05
9.98929e-06
8.66918e-06
8.4102e-06
9.88198e-06
1.07717e-05
1.02406e-05
9.40935e-06
8.52482e-06
7.54897e-06
6.92114e-06
9.34453e-06
1.517e-05
1.98489e-05
2.21394e-05
2.25004e-05
2.19891e-05
2.15951e-05
2.40295e-05
3.23975e-05
3.56855e-05
3.81851e-05
4.08553e-05
4.3078e-05
4.53442e-05
4.58467e-05
5.2689e-05
6.27127e-05
7.76577e-05
0.0001024
0.000124992
0.000148148
0.000170631
0.000199296
0.000235746
0.000274555
0.000311909
0.000348588
0.000383323
0.000414609
0.000442603
0.000469184
0.000497816
0.000535734
0.000593965
0.000663527
0.000765091
0.000909235
0.00109693
0.00131821
0.0015478
0.00171944
0.00175818
0.00150147
0.00100146
0.00075123
2.0931e-05
1.80135e-05
1.55462e-05
1.34504e-05
1.16235e-05
1.00471e-05
8.72564e-06
7.92417e-06
8.14249e-06
8.49864e-06
8.35748e-06
7.89834e-06
7.32792e-06
6.72858e-06
6.17888e-06
5.91193e-06
6.43942e-06
7.9116e-06
1.03456e-05
1.39169e-05
1.59979e-05
1.65091e-05
1.64188e-05
2.18886e-05
2.8399e-05
3.25575e-05
3.57607e-05
3.83116e-05
4.00715e-05
4.07709e-05
4.25425e-05
4.56298e-05
4.94048e-05
5.94813e-05
7.16964e-05
8.38373e-05
9.94845e-05
0.000123674
0.000163099
0.00019637
0.000223164
0.000250546
0.000276958
0.000299191
0.000316366
0.000329201
0.000339249
0.000349026
0.000362013
0.000391177
0.000435002
0.000514382
0.000694621
0.000936824
0.00125185
0.00149619
0.00154624
0.0013589
0.0011264
0.000961227
2.09217e-05
1.79972e-05
1.55333e-05
1.34476e-05
1.16512e-05
1.00933e-05
8.7835e-06
7.79904e-06
7.33415e-06
7.12467e-06
6.87315e-06
6.53535e-06
6.16414e-06
5.67977e-06
5.23711e-06
4.98129e-06
4.92979e-06
5.07197e-06
5.66967e-06
7.05078e-06
8.04389e-06
8.28756e-06
8.39927e-06
9.87306e-06
1.37116e-05
1.93674e-05
2.52637e-05
2.98667e-05
3.2868e-05
3.4426e-05
3.5204e-05
3.61194e-05
3.7784e-05
4.12067e-05
4.55381e-05
4.88206e-05
5.56485e-05
6.79177e-05
8.65877e-05
0.000107262
0.000129694
0.000155837
0.000180795
0.000200299
0.000213578
0.000222025
0.00022708
0.000230511
0.000233452
0.0002382
0.000247142
0.000277613
0.000366016
0.000539925
0.000819624
0.00111962
0.00124003
0.00118682
0.00110239
0.00102277
2.0951e-05
1.81179e-05
1.57085e-05
1.36605e-05
1.19427e-05
1.04533e-05
9.15902e-06
8.09561e-06
7.32707e-06
6.80426e-06
6.38763e-06
6.02332e-06
5.68842e-06
5.38611e-06
5.10338e-06
4.85854e-06
4.66422e-06
4.52916e-06
4.51069e-06
4.7156e-06
4.88707e-06
4.94264e-06
5.02343e-06
5.35986e-06
6.26945e-06
8.16628e-06
1.1416e-05
1.55034e-05
1.93664e-05
2.23427e-05
2.43714e-05
2.58698e-05
2.72641e-05
2.88354e-05
3.05763e-05
3.23693e-05
3.51482e-05
3.99154e-05
4.63668e-05
5.41807e-05
6.48291e-05
7.80907e-05
9.19343e-05
0.000104408
0.000114753
0.000122819
0.000128918
0.000133979
0.000137982
0.000140365
0.000142796
0.000152756
0.00018155
0.000255523
0.000416194
0.000637242
0.000769208
0.000786746
0.00076937
0.000746728
2.37093e-05
2.34034e-05
2.30956e-05
2.27298e-05
2.2252e-05
2.15964e-05
2.06259e-05
1.95179e-05
1.85175e-05
1.81298e-05
1.84117e-05
1.92196e-05
2.03975e-05
2.17813e-05
2.28881e-05
2.30306e-05
2.3062e-05
2.33666e-05
2.37841e-05
2.44275e-05
2.58259e-05
2.76804e-05
2.94333e-05
3.06623e-05
3.15465e-05
3.23951e-05
3.36096e-05
3.52336e-05
3.71535e-05
3.93844e-05
4.20738e-05
4.47866e-05
4.639e-05
4.86907e-05
5.15572e-05
5.47931e-05
5.81083e-05
6.13636e-05
6.4957e-05
6.89678e-05
7.37476e-05
7.98435e-05
8.73523e-05
9.60545e-05
0.000105694
0.000116077
0.000127102
0.000138755
0.000151032
0.000163943
0.000177372
0.000191035
0.000206099
0.000229951
0.000285908
0.000385339
0.000478008
0.000543879
0.000601182
0.000658569
)
;

boundaryField
{
    wall
    {
        type            kqRWallFunction;
        value           nonuniform List<scalar> 
1200
(
2.37227e-05
2.10149e-05
2.09751e-05
2.09698e-05
2.09637e-05
2.0954e-05
2.09442e-05
2.09321e-05
2.09581e-05
2.37024e-05
2.34051e-05
1.82219e-05
1.80742e-05
1.8069e-05
1.80556e-05
1.80466e-05
1.8035e-05
1.80141e-05
1.81218e-05
2.33829e-05
2.30147e-05
1.57901e-05
1.55079e-05
1.5519e-05
1.55248e-05
1.55351e-05
1.55389e-05
1.55218e-05
1.56972e-05
2.30794e-05
2.26051e-05
1.3777e-05
1.33176e-05
1.33415e-05
1.33732e-05
1.34008e-05
1.34268e-05
1.34211e-05
1.36587e-05
2.2753e-05
2.21925e-05
1.22023e-05
1.14511e-05
1.14635e-05
1.15237e-05
1.1568e-05
1.16128e-05
1.16372e-05
1.19355e-05
2.22703e-05
2.16243e-05
1.10314e-05
9.90892e-06
9.87624e-06
9.91642e-06
9.97933e-06
1.00451e-05
1.00951e-05
1.04517e-05
2.15872e-05
2.04198e-05
9.43135e-06
9.42974e-06
8.8803e-06
8.69574e-06
8.67187e-06
8.72703e-06
8.78994e-06
9.16591e-06
2.06036e-05
1.90312e-05
9.17281e-06
1.43652e-05
1.22157e-05
9.71822e-06
8.44993e-06
7.93835e-06
7.80969e-06
8.1056e-06
1.95198e-05
1.93696e-05
1.33138e-05
1.71904e-05
1.60153e-05
1.27237e-05
9.94895e-06
8.17792e-06
7.35028e-06
7.33384e-06
1.85447e-05
2.15019e-05
2.19134e-05
1.79791e-05
1.587e-05
1.35189e-05
1.08101e-05
8.52405e-06
7.13263e-06
6.804e-06
1.81562e-05
2.36724e-05
2.35286e-05
1.27195e-05
1.17547e-05
1.15197e-05
1.02544e-05
8.35715e-06
6.85576e-06
6.38064e-06
1.84197e-05
2.58625e-05
2.20911e-05
8.26989e-06
1.16772e-05
1.049e-05
9.39782e-06
7.88075e-06
6.48827e-06
6.01149e-06
1.91953e-05
2.84063e-05
2.01092e-05
9.47562e-06
1.17663e-05
1.0075e-05
8.52464e-06
7.29879e-06
6.10473e-06
5.67987e-06
2.03222e-05
3.11816e-05
1.87279e-05
1.26412e-05
1.41417e-05
1.09554e-05
7.56849e-06
6.69183e-06
5.68677e-06
5.38022e-06
2.16112e-05
3.37941e-05
1.79633e-05
1.5749e-05
1.77711e-05
1.61755e-05
6.90448e-06
6.12417e-06
5.2682e-06
5.09959e-06
2.26731e-05
3.611e-05
1.74145e-05
1.65451e-05
1.99452e-05
2.10738e-05
9.20945e-06
5.87893e-06
5.00034e-06
4.85322e-06
2.28036e-05
3.86429e-05
1.79421e-05
1.69008e-05
2.11854e-05
2.30194e-05
1.49831e-05
6.34132e-06
4.94443e-06
4.6623e-06
2.27092e-05
4.13193e-05
1.93454e-05
1.60059e-05
2.18746e-05
2.43746e-05
1.97147e-05
7.73331e-06
5.09255e-06
4.53283e-06
2.29175e-05
4.4016e-05
2.20639e-05
1.83027e-05
2.24982e-05
2.5303e-05
2.20638e-05
1.02237e-05
5.68012e-06
4.51693e-06
2.33239e-05
4.52905e-05
2.42157e-05
2.42578e-05
2.50511e-05
2.60737e-05
2.24547e-05
1.38067e-05
7.02776e-06
4.72032e-06
2.41554e-05
4.53837e-05
2.54634e-05
2.79133e-05
2.92871e-05
2.76886e-05
2.19722e-05
1.5919e-05
8.02951e-06
4.89691e-06
2.5692e-05
4.54129e-05
2.66937e-05
3.14345e-05
3.3063e-05
2.995e-05
2.16089e-05
1.64549e-05
8.29357e-06
4.95794e-06
2.75562e-05
4.55543e-05
2.95238e-05
3.55945e-05
3.70607e-05
3.32398e-05
2.40427e-05
1.63796e-05
8.39816e-06
5.02955e-06
2.92509e-05
4.7073e-05
3.42522e-05
3.95706e-05
4.06685e-05
3.69516e-05
3.2334e-05
2.17496e-05
9.80997e-06
5.33632e-06
3.05057e-05
5.06048e-05
3.65297e-05
4.27667e-05
4.34585e-05
3.99186e-05
3.56209e-05
2.8234e-05
1.35442e-05
6.19434e-06
3.14699e-05
5.20976e-05
3.73003e-05
4.52567e-05
4.52806e-05
4.25087e-05
3.81186e-05
3.24152e-05
1.91111e-05
8.03416e-06
3.235e-05
5.22333e-05
3.94485e-05
5.31681e-05
5.43319e-05
4.52508e-05
4.07829e-05
3.56351e-05
2.4979e-05
1.12041e-05
3.3501e-05
5.19109e-05
4.27461e-05
6.46297e-05
6.48218e-05
4.58787e-05
4.29362e-05
3.81951e-05
2.96331e-05
1.52466e-05
3.50551e-05
5.19361e-05
4.1239e-05
7.79262e-05
7.68925e-05
5.57078e-05
4.55234e-05
4.00415e-05
3.27389e-05
1.91723e-05
3.68707e-05
5.24992e-05
3.90709e-05
9.42766e-05
9.12088e-05
6.81583e-05
4.59388e-05
4.07967e-05
3.44108e-05
2.22635e-05
3.89542e-05
5.48321e-05
4.0256e-05
0.000114469
0.000108385
8.09835e-05
5.30794e-05
4.27685e-05
3.53107e-05
2.4396e-05
4.13895e-05
5.9477e-05
6.93298e-05
0.000139863
0.000128818
9.51073e-05
6.28262e-05
4.59785e-05
3.63206e-05
2.59832e-05
4.39055e-05
6.23277e-05
7.74796e-05
0.000169257
0.000153144
0.000114904
7.71657e-05
4.96775e-05
3.80642e-05
2.74681e-05
4.57032e-05
6.30771e-05
6.45613e-05
0.000202398
0.000181386
0.000139631
9.84926e-05
5.98605e-05
4.17186e-05
2.9181e-05
4.71615e-05
6.40867e-05
5.74295e-05
0.000237763
0.000213858
0.000167019
0.000121024
7.2704e-05
4.58724e-05
3.10791e-05
4.94721e-05
6.71415e-05
7.76102e-05
0.000274829
0.000249978
0.000197051
0.000143667
8.49298e-05
4.97066e-05
3.29775e-05
5.23963e-05
7.46938e-05
0.000111824
0.000317636
0.00029037
0.000230557
0.000165875
0.000100077
5.65364e-05
3.58533e-05
5.56256e-05
8.81012e-05
0.000156427
0.000364857
0.000335543
0.000269145
0.000195063
0.000123949
6.90505e-05
4.09261e-05
5.90824e-05
0.000106541
0.00021304
0.000416821
0.000385383
0.000312665
0.000231702
0.000159988
8.81096e-05
4.73682e-05
6.31786e-05
0.000129132
0.000274091
0.000474735
0.00043925
0.000358837
0.000270776
0.000191175
0.000108557
5.53826e-05
6.79292e-05
0.000156126
0.000340547
0.000538847
0.000496473
0.000405926
0.000308706
0.000218402
0.00013
6.56996e-05
7.34159e-05
0.000186688
0.000410571
0.000608282
0.000556674
0.00045356
0.000345799
0.000246838
0.000154613
7.85902e-05
7.99855e-05
0.000219094
0.000483194
0.000682338
0.000619558
0.000501198
0.000380615
0.000273738
0.00017837
9.22325e-05
8.77376e-05
0.000251091
0.0005581
0.000760453
0.000685167
0.000548841
0.000411782
0.00029607
0.00019673
0.000104344
9.64855e-05
0.000281163
0.000635547
0.000842311
0.000754124
0.000597672
0.000439321
0.000313134
0.000209434
0.000114291
0.000106068
0.000309537
0.000716605
0.00092801
0.000827636
0.000650176
0.000464744
0.000325611
0.000217684
0.000121973
0.000116344
0.000336628
0.00080276
0.00101827
0.000907369
0.000709787
0.000490884
0.000334717
0.00022254
0.00012761
0.000127249
0.000366322
0.000897375
0.00111443
0.000995186
0.000780412
0.000523894
0.000342838
0.000225495
0.000132015
0.000138786
0.00040301
0.0010049
0.00121833
0.00109291
0.00086607
0.000575928
0.000354016
0.000227832
0.000135567
0.000150967
0.000429139
0.00113123
0.00133232
0.0012017
0.000968108
0.000646585
0.000377951
0.000231163
0.000137994
0.000163819
0.000460616
0.00128059
0.00145794
0.00132284
0.00108853
0.000751387
0.000417561
0.00023907
0.000140397
0.000177226
0.00055635
0.00145086
0.00159528
0.00145799
0.00122958
0.000895282
0.000501058
0.000269454
0.000149766
0.000190875
0.000795173
0.0016371
0.00174339
0.0016086
0.00139406
0.00108961
0.000670288
0.000348515
0.000176896
0.000205959
0.00109716
0.00183554
0.00189904
0.00177306
0.00157774
0.00132255
0.000943858
0.000538385
0.000255341
0.000229924
0.00121341
0.002025
0.0020585
0.00194073
0.0017595
0.00155373
0.00126512
0.00083888
0.000425996
0.000286084
0.00129808
0.00219279
0.0022202
0.00208991
0.00189881
0.00171646
0.00149919
0.00113808
0.000656106
0.000387217
0.00220245
0.00251205
0.00238465
0.00219319
0.00194279
0.00173342
0.00152525
0.00123594
0.000781746
0.000479475
0.00303275
0.00272065
0.00245733
0.00222454
0.00185676
0.001447
0.00132644
0.00117461
0.000794139
0.000543911
0.00308367
0.00279282
0.00252427
0.0023449
0.00190878
0.000934927
0.00110127
0.00109088
0.000774232
0.000600277
0.00306169
0.00289001
0.00272343
0.00265032
0.00230764
0.000744551
0.000946553
0.00101274
0.000749668
0.000657421
2.37682e-05
2.10137e-05
2.09697e-05
2.09615e-05
2.09523e-05
2.09406e-05
2.0931e-05
2.09217e-05
2.0951e-05
2.37093e-05
2.34321e-05
1.82043e-05
1.80483e-05
1.80428e-05
1.80299e-05
1.8023e-05
1.80135e-05
1.79972e-05
1.81179e-05
2.34034e-05
2.29936e-05
1.57702e-05
1.5484e-05
1.55045e-05
1.55198e-05
1.55359e-05
1.55462e-05
1.55333e-05
1.57085e-05
2.30956e-05
2.25931e-05
1.38016e-05
1.33316e-05
1.33569e-05
1.33869e-05
1.34149e-05
1.34504e-05
1.34476e-05
1.36605e-05
2.27298e-05
2.22005e-05
1.22713e-05
1.14834e-05
1.14956e-05
1.15426e-05
1.15788e-05
1.16235e-05
1.16512e-05
1.19427e-05
2.2252e-05
2.16148e-05
1.11691e-05
9.93903e-06
9.88162e-06
9.93022e-06
9.98929e-06
1.00471e-05
1.00933e-05
1.04533e-05
2.15964e-05
2.06158e-05
9.48821e-06
9.34274e-06
8.84301e-06
8.68339e-06
8.66918e-06
8.72564e-06
8.7835e-06
9.15902e-06
2.06259e-05
1.90581e-05
9.13793e-06
1.41835e-05
1.20648e-05
9.63373e-06
8.4102e-06
7.92417e-06
7.79904e-06
8.09561e-06
1.95179e-05
1.93459e-05
1.31617e-05
1.70609e-05
1.58961e-05
1.2624e-05
9.88198e-06
8.14249e-06
7.33415e-06
7.32707e-06
1.85175e-05
2.14561e-05
2.17639e-05
1.79521e-05
1.58469e-05
1.34808e-05
1.07717e-05
8.49864e-06
7.12467e-06
6.80426e-06
1.81298e-05
2.3637e-05
2.34515e-05
1.279e-05
1.17847e-05
1.15157e-05
1.02406e-05
8.35748e-06
6.87315e-06
6.38763e-06
1.84117e-05
2.58366e-05
2.20153e-05
8.49928e-06
1.17345e-05
1.05368e-05
9.40935e-06
7.89834e-06
6.53535e-06
6.02332e-06
1.92196e-05
2.83596e-05
2.0008e-05
9.58702e-06
1.18268e-05
1.01188e-05
8.52482e-06
7.32792e-06
6.16414e-06
5.68842e-06
2.03975e-05
3.11119e-05
1.86213e-05
1.27166e-05
1.42136e-05
1.10181e-05
7.54897e-06
6.72858e-06
5.67977e-06
5.38611e-06
2.17813e-05
3.37047e-05
1.78674e-05
1.57964e-05
1.78444e-05
1.62644e-05
6.92114e-06
6.17888e-06
5.23711e-06
5.10338e-06
2.28881e-05
3.60028e-05
1.73284e-05
1.65687e-05
1.99928e-05
2.1152e-05
9.34453e-06
5.91193e-06
4.98129e-06
4.85854e-06
2.30306e-05
3.8476e-05
1.78585e-05
1.6925e-05
2.1237e-05
2.30857e-05
1.517e-05
6.43942e-06
4.92979e-06
4.66422e-06
2.3062e-05
4.13377e-05
1.92665e-05
1.58866e-05
2.19352e-05
2.44429e-05
1.98489e-05
7.9116e-06
5.07197e-06
4.52916e-06
2.33666e-05
4.40024e-05
2.19636e-05
1.82022e-05
2.25748e-05
2.53652e-05
2.21394e-05
1.03456e-05
5.66967e-06
4.51069e-06
2.37841e-05
4.51731e-05
2.41349e-05
2.41437e-05
2.51072e-05
2.61315e-05
2.25004e-05
1.39169e-05
7.05078e-06
4.7156e-06
2.44275e-05
4.53302e-05
2.53964e-05
2.78512e-05
2.93836e-05
2.77182e-05
2.19891e-05
1.59979e-05
8.04389e-06
4.88707e-06
2.58259e-05
4.54006e-05
2.66328e-05
3.14073e-05
3.31415e-05
2.99434e-05
2.15951e-05
1.65091e-05
8.28756e-06
4.94264e-06
2.76804e-05
4.55326e-05
2.94357e-05
3.56002e-05
3.70733e-05
3.32288e-05
2.40295e-05
1.64188e-05
8.39927e-06
5.02343e-06
2.94333e-05
4.70066e-05
3.40928e-05
3.95686e-05
4.08345e-05
3.69768e-05
3.23975e-05
2.18886e-05
9.87306e-06
5.35986e-06
3.06623e-05
5.04112e-05
3.63982e-05
4.2957e-05
4.44643e-05
3.99429e-05
3.56855e-05
2.8399e-05
1.37116e-05
6.26945e-06
3.15465e-05
5.19101e-05
3.72138e-05
4.67172e-05
4.92439e-05
4.25909e-05
3.81851e-05
3.25575e-05
1.93674e-05
8.16628e-06
3.23951e-05
5.21094e-05
3.95882e-05
5.37008e-05
5.4439e-05
4.52781e-05
4.08553e-05
3.57607e-05
2.52637e-05
1.1416e-05
3.36096e-05
5.1855e-05
4.3867e-05
6.53742e-05
6.50863e-05
4.59665e-05
4.3078e-05
3.83116e-05
2.98667e-05
1.55034e-05
3.52336e-05
5.17885e-05
4.06266e-05
7.88206e-05
7.73156e-05
5.58754e-05
4.53442e-05
4.00715e-05
3.2868e-05
1.93664e-05
3.71535e-05
5.22253e-05
3.85054e-05
9.52043e-05
9.19548e-05
7.03099e-05
4.58467e-05
4.07709e-05
3.4426e-05
2.23427e-05
3.93844e-05
5.40157e-05
4.10947e-05
0.000114778
0.000109443
8.36154e-05
5.2689e-05
4.25425e-05
3.5204e-05
2.43714e-05
4.20738e-05
5.88519e-05
6.17184e-05
0.000142231
0.000130082
9.69848e-05
6.27127e-05
4.56298e-05
3.61194e-05
2.58698e-05
4.47866e-05
6.31075e-05
7.99456e-05
0.000171693
0.000154362
0.000115566
7.76577e-05
4.94048e-05
3.7784e-05
2.72641e-05
4.639e-05
6.43543e-05
7.16825e-05
0.000204418
0.000182924
0.000140579
0.0001024
5.94813e-05
4.12067e-05
2.88354e-05
4.86907e-05
6.53557e-05
5.97837e-05
0.000239006
0.000215703
0.000169105
0.000124992
7.16964e-05
4.55381e-05
3.05763e-05
5.15572e-05
6.76818e-05
7.42829e-05
0.0002748
0.000252129
0.000200094
0.000148148
8.38373e-05
4.88206e-05
3.23693e-05
5.47931e-05
7.35676e-05
0.00010652
0.00031674
0.000292577
0.000233845
0.000170631
9.94845e-05
5.56485e-05
3.51482e-05
5.81083e-05
8.53156e-05
0.000149869
0.000363761
0.000337655
0.000272385
0.000199296
0.000123674
6.79177e-05
3.99154e-05
6.13636e-05
0.000102889
0.000206746
0.000415659
0.000387364
0.000315876
0.000235746
0.000163099
8.65877e-05
4.63668e-05
6.4957e-05
0.000125182
0.000268511
0.000473591
0.000441076
0.000361906
0.000274555
0.00019637
0.000107262
5.41807e-05
6.89678e-05
0.000152267
0.000335096
0.000537717
0.000498112
0.000408693
0.000311909
0.000223164
0.000129694
6.48291e-05
7.37476e-05
0.000183112
0.000405098
0.000606934
0.000558136
0.000456099
0.000348588
0.000250546
0.000155837
7.80907e-05
7.98435e-05
0.0002155
0.00047745
0.000680446
0.000620937
0.00050375
0.000383323
0.000276958
0.000180795
9.19343e-05
8.73523e-05
0.000246159
0.000551679
0.000757638
0.000686615
0.000551718
0.000414609
0.000299191
0.000200299
0.000104408
9.60545e-05
0.000272233
0.000627745
0.000838182
0.000755813
0.000601307
0.000442603
0.000316366
0.000213578
0.000114753
0.000105694
0.00029439
0.000706291
0.000922339
0.000829754
0.000655112
0.000469184
0.000329201
0.000222025
0.000122819
0.000116077
0.000316513
0.000788118
0.00101103
0.000910035
0.000716499
0.000497816
0.000339249
0.00022708
0.000128918
0.000127102
0.000341476
0.000877669
0.00110578
0.00099833
0.000789125
0.000535734
0.000349026
0.000230511
0.000133979
0.000138755
0.000372407
0.000980168
0.0012087
0.00109626
0.000876258
0.000593965
0.000362013
0.000233452
0.000137982
0.000151032
0.000404719
0.00110196
0.00132247
0.00120467
0.000977688
0.000663527
0.000391177
0.0002382
0.000140365
0.000163943
0.000441803
0.00125145
0.0014487
0.00132486
0.001096
0.000765091
0.000435002
0.000247142
0.000142796
0.000177372
0.000499787
0.00142882
0.00158708
0.00145865
0.00123437
0.000909235
0.000514382
0.000277613
0.000152756
0.000191035
0.000699497
0.00162171
0.00173624
0.00160718
0.00139467
0.00109693
0.000694621
0.000366016
0.00018155
0.000206099
0.00102881
0.00181765
0.00189252
0.00176956
0.00157435
0.00131821
0.000936824
0.000539925
0.000255523
0.000229951
0.00119431
0.00200559
0.00205189
0.00193766
0.00175716
0.0015478
0.00125185
0.000819624
0.000416194
0.000285908
0.00128569
0.00217004
0.00221303
0.00209043
0.00190355
0.00171944
0.00149619
0.00111962
0.000637242
0.000385339
0.00208145
0.00247992
0.00238036
0.00220199
0.00196162
0.00175818
0.00154624
0.00124003
0.000769208
0.000478008
0.00301365
0.00272012
0.00247027
0.00224556
0.00189197
0.00150147
0.0013589
0.00118682
0.000786746
0.000543879
0.00308062
0.00279278
0.00253808
0.00236099
0.00189464
0.00100146
0.0011264
0.00110239
0.00076937
0.000601182
0.00306098
0.00288968
0.00273054
0.00265826
0.00229842
0.00075123
0.000961227
0.00102277
0.000746728
0.000658569
)
;
    }
    inlet
    {
        type            turbulentIntensityKineticEnergyInlet;
        intensity       0.05;
        value           uniform 2.4e-05;
    }
    outlet
    {
        type            inletOutlet;
        inletValue      uniform 0.003;
        value           nonuniform List<scalar> 
20
(
0.003
0.003
0.003
0.003
0.003
0.000744551
0.000946553
0.00101274
0.000749668
0.000657421
0.003
0.003
0.003
0.003
0.003
0.00075123
0.000961227
0.00102277
0.000746728
0.000658569
)
;
    }
    heatWall
    {
        type            kqRWallFunction;
        value           nonuniform List<scalar> 
240
(
2.37024e-05
2.37093e-05
2.33829e-05
2.34034e-05
2.30794e-05
2.30956e-05
2.2753e-05
2.27298e-05
2.22703e-05
2.2252e-05
2.15872e-05
2.15964e-05
2.06036e-05
2.06259e-05
1.95198e-05
1.95179e-05
1.85447e-05
1.85175e-05
1.81562e-05
1.81298e-05
1.84197e-05
1.84117e-05
1.91953e-05
1.92196e-05
2.03222e-05
2.03975e-05
2.16112e-05