/*--------------------------------*- C++ -*----------------------------------*\
  =========                 |
  \\      /  F ield         | OpenFOAM: The Open Source CFD Toolbox
   \\    /   O peration     | Website:  https://openfoam.org
    \\  /    A nd           | Version:  8
     \\/     M anipulation  |
\*---------------------------------------------------------------------------*/
FoamFile
{
    version     2.0;
    format      ascii;
    class       volScalarField;
    location    "400";
    object      p;
}
// * * * * * * * * * * * * * * * * * * * * * * * * * * * * * * * * * * * * * //

dimensions      [1 -1 -2 0 0 0 0];

internalField   nonuniform List<scalar> 
1200
(
20974.4
20974.3
20974.4
20974.4
20974.5
20974.5
20974.8
20974.2
20972.5
20970.7
20967.7
20966
20969.4
20971.5
20970.8
20971.9
20976.6
20973.9
20968.2
20955.3
20944.2
20935.6
20927.5
20921
20914.5
20906.6
20888.2
20860.9
20841.8
20816.1
20820.2
20797.5
20712.3
20602.3
20523.5
20467
20399.3
20302.5
20161
19974.5
19737.3
19433.6
19060.6
18645.2
18234.1
17852.2
17513.1
17216
16950.9
16726.3
16545.5
16453.1
16172.6
14451.6
10542.6
8251.33
9393.06
6943.35
2072.94
-97.1494
20779
20779.1
20779.1
20779.2
20779.3
20779.3
20779.7
20779.1
20777.9
20775.5
20771.1
20765.8
20773.4
20775.1
20774.7
20776.8
20785.2
20783.5
20776.2
20759.1
20747.5
20738.9
20731.3
20725.1
20719.4
20712.2
20692
20664.4
20645.5
20619.9
20628.1
20608.9
20517.5
20402.2
20325.9
20273.5
20205.9
20110.8
19972.6
19790.9
19560.5
19265
18900.7
18490.6
18077.6
17693.5
17352
17055.4
16797.5
16576.7
16407.9
16351.3
16140.4
14607
10688.8
7628.99
8387.49
5149.84
699.671
-2573.11
20583.9
20583.9
20584
20584.1
20584.1
20584.1
20584.6
20583.6
20580.8
20576.1
20569.2
20567.5
20576.9
20577.4
20575.7
20577.8
20588.3
20584.9
20579.6
20559.8
20548.3
20541
20535
20529.1
20523.7
20515.9
20498.8
20472.7
20452.1
20426.3
20428.4
20399.3
20321.6
20225
20145.2
20080.4
20008.4
19910.5
19773
19595.8
19375.9
19099.2
18761.8
18382.4
17993.8
17622.4
17282.6
16976.4
16689.7
16427.7
16189.7
15984.2
15635
14481.1
11936.7
9188.9
6893.1
2549.43
-550.046
-1208.32
20388.7
20388.7
20388.8
20388.8
20388.9
20388.8
20388.6
20387.7
20385.6
20380.2
20376.5
20373
20378.6
20376.8
20375.7
20378.5
20388.2
20389.6
20379.8
20362.3
20351.1
20343.5
20338.1
20332.9
20327.7
20319.5
20304
20283.2
20262.6
20234.8
20211.5
20175.1
20116.5
20044.5
19974.3
19900.8
19822.6
19728.3
19596.3
19423.8
19214.7
18956.2
18641.8
18286.1
17917.3
17558.1
17222.8
16911.8
16592.2
16283.5
15993.9
15682.4
15215.8
14300.2
12578.4
9955.08
5488.73
177.377
-1850.07
-1930.5
20193.5
20193.6
20193.6
20193.7
20193.7
20193.5
20193.1
20191.6
20188.9
20184
20179.8
20176.8
20174.3
20173.6
20173.5
20174.4
20177.4
20177.7
20174.9
20163.6
20154.1
20147.2
20142.1
20137.2
20131.4
20122.9
20107.7
20089.6
20070.5
20041.8
20008.9
19968.4
19917.7
19855.8
19788.7
19710
19628
19534.5
19404.7
19234.6
19033.6
18790.2
18494.1
18157.8
17808.4
17466.9
17147.1
16849.5
16524.4
16208.2
15905.4
15546.9
15034.1
14268.4
12943.9
10229.1
4812.4
-512.252
-1929.16
-1587.26
19998.4
19998.4
19998.5
19998.5
19998.4
19998.1
19997.5
19996.1
19993.4
19988.4
19984.6
19980.9
19978.7
19977.7
19976.1
19973.3
19969.7
19967.4
19968.1
19963.3
19956.2
19951
19947.6
19943.4
19937.4
19927.6
19912
19894
19875.2
19847.9
19814.5
19772.9
19722.7
19661.7
19596.4
19515.3
19431.8
19339.9
19214.2
19046.8
18849.1
18613.6
18326.2
17996.4
17654.2
17319.7
17005.6
16712.4
16381.1
16074.9
15792.8
15448.7
14927.7
14177.6
12938.8
10188
4511.33
-844.192
-2248.65
-1737.65
19803.2
19803.2
19803.3
19803.3
19803.2
19802.8
19802.1
19800.4
19797.6
19793
19788.7
19785.5
19783.4
19782.1
19780.3
19777.2
19772.3
19767.9
19764.9
19762.5
19758.5
19756.3
19755.4
19752.7
19745.5
19734.7
19718.9
19700.2
19679.2
19651.6
19618.1
19577.6
19527.7
19467
19402.7
19325.7
19244.7
19151
19020
18848.8
18652.2
18426.3
18148.3
17822.8
17482.6
17148.8
16831.1
16535.5
16227.9
15910
15604
15315.3
14793.7
14038.6
12757.4
10048.6
4625.66
-802.648
-2213.85
-1816.82
19608
19608.1
19608.1
19608.1
19608
19607.6
19606.8
19605.1
19602.3
19598
19593.5
19590
19587.9
19586.7
19584.7
19581.5
19576.4
19571.5
19567.9
19565
19561.6
19560.5
19561.2
19560.5
19554.6
19542.9
19526.5
19507.4
19485.5
19456.7
19420.3
19378.2
19329.3
19271.6
19208.1
19132.5
19050.6
18956
18828.6
18663.9
18469.5
18240.4
17963
17638.1
17300.9
16968.9
16650.3
16347.8
16042.3
15727.9
15421.5
15121.5
14629.5
13871.3
12567.9
9912.77
4790.76
-357.799
-2033.25
-1772.9
19412.8
19412.8
19412.9
19412.9
19412.8
19412.3
19411.5
19409.8
19407.1
19403
19398.8
19395.4
19393.1
19391.6
19389.3
19386.3
19381.8
19376.9
19373
19369.5
19365.8
19364.5
19365.1
19364.8
19359.7
19348.7
19332.6
19313.5
19290.2
19260.2
19221.7
19176.8
19125.5
19068.8
19006.1
18933.4
18853.1
18758.9
18631.2
18466.4
18273.2
18046.5
17774.9
17459.2
17126.1
16794.3
16473.6
16164.4
15851.5
15534.1
15226.9
14907.3
14421.5
13663
12359.1
9793.27
4975.2
88.7379
-1851.84
-1779.44
19217.8
19217.8
19217.8
19217.8
19217.6
19217.1
19216.3
19214.6
19211.9
19208
19203.8
19200.4
19198
19196.2
19193.7
19191
19186.7
19182.1
19178.2
19174.9
19171.3
19169.6
19169.6
19168.5
19163.2
19152.4
19136.9
19118.2
19094.8
19064.4
19025.4
18979.3
18926.4
18869.1
18807.1
18736.8
18658.3
18565.2
18437.6
18272.6
18079.9
17853.2
17581.5
17267.5
16934.8
16602.5
16281.1
15970.8
15658.2
15341.4
15030.7
14700.7
14213.9
13456.9
12180.7
9712.36
5104.21
345.201
-1774.55
-1843.3
20974.4
20974.3
20974.4
20974.4
20974.5
20974.5
20974.8
20974.1
20972.4
20970.8
20967.8
20966
20969.4
20971.5
20970.8
20971.8
20976.7
20973.9
20968.3
20955.1
20944
20935.2
20927.5
20920.6
20913.9
20906.5
20888.1
20861.4
20842.2
20816.3
20820.5
20797.6
20712.4
20602.4
20523.7
20467.3
20399.9
20303.2
20162
19975.9
19739
19435.4
19062.7
18647.4
18236.5
17854.7
17516.4
17218.3
16951.4
16731.7
16545.9
16449.4
16173.9
14436.7
10503.1
8191.29
9372.26
6994.08
2106.33
-141.952
20779
20779.1
20779.1
20779.2
20779.3
20779.3
20779.7
20778.8
20776.9
20774.5
20770.2
20765.1
20772.8
20774.2
20773.7
20775.8
20784.1
20782.5
20774.2
20757.2
20746
20737.5
20730.7
20724.4
20718.4
20712
20692.2
20665.1
20646.1
20620.1
20628.4
20609.3
20518.2
20402.3
20325.6
20273.4
20206
20110.7
19972.6
19790.8
19560.4
19265.1
18901.1
18491
18077.6
17692.6
17351.2
17053.5
16793.4
16579.3
16407.1
16337.6
16135.6
14626.8
10744.7
7651
8405.67
5190.2
706.118
-2559.99
20583.9
20584
20584
20584.1
20584.1
20584
20584.4
20583.2
20580.4
20576
20569.1
20567.2
20576.6
20577.2
20575.3
20577.4
20587.7
20584.2
20578.4
20559.2
20547.9
20540.6
20534.7
20528.6
20523.4
20516.1
20499.1
20473.6
20452.9
20426.9
20429
20400.1
20322.1
20225.3
20145.8
20081.5
20010.1
19912.8
19775.9
19599.2
19379.4
19102.4
18764.8
18385
17995.5
17622.8
17282.3
16975.4
16688.6
16429.3
16188.4
15978.4
15627.4
14463.8
11921.6
9214.37
6958.78
2592.07
-591.272
-1322.86
20388.7
20388.8
20388.8
20388.9
20388.9
20388.7
20388.5
20387.3
20385.1
20380.5
20376.9
20373.1
20378.7
20377.2
20376.2
20379
20388.8
20389.6
20380.1
20362.9
20351.6
20344
20338.4
20333.2
20328.2
20320
20304.5
20283.8
20263.4
20236
20212.8
20176.1
20117.4
20045.3
19975.4
19902.4
19823.9
19729.5
19597.7
19425.7
19216.7
18958.3
18644.4
18289.4
17920.8
17561.7
17226.6
16915.5
16597.2
16286.7
15990.8
15680.3
15225.2
14325.5
12620.3
10011.7
5561.7
235.964
-1831.35
-1897.57
20193.5
20193.6
20193.7
20193.7
20193.7
20193.4
20193
20191.5
20188.8
20184.1
20180.1
20177
20174.5
20173.9
20173.8
20174.8
20177.9
20178.3
20175.4
20164.4
20155.1
20148.6
20143.3
20138.3
20132.2
20123.7
20108.5
20090.2
20071.2
20042.9
20010.1
19969.4
19918.7
19856.9
19790.1
19712.3
19630.2
19536.6
19407.2
19237.6
19036.5
18792.8
18497
18160.9
17811.4
17469.9
17150.1
16852.1
16530.4
16210.7
15900.8
15547.1
15048.4
14298.1
12988.7
10278.7
4841.12
-512.799
-1940.48
-1559.33
19998.4
19998.4
19998.5
19998.5
19998.4
19998.1
19997.5
19996
19993.3
19988.5
19984.7
19981
19978.8
19978
19976.3
19973.7
19970.1
19967.9
19969
19964.4
19957.3
19951.9
19948.3
19944.4
19938.4
19928.7
19913.1
19894.8
19876.1
19849.2
19815.8
19774.1
19724.1
19662.9
19597.7
19517.5
19433.9
19341.9
19216.1
19048.6
18850.8
18615.1
18327.9
17998.4
17656.1
17321.7
17007.4
16713.8
16388.5
16079.5
15789.2
15449.5
14939.4
14201.6
12978
10240.8
4553.29
-845.921
-2276
-1716.74
19803.2
19803.2
19803.3
19803.3
19803.2
19802.8
19802.1
19800.5
19797.7
19793.1
19788.8
19785.6
19783.5
19782.2
19780.4
19777.3
19772.3
19768.1
19765
19762.8
19758.7
19756.8
19755.9
19753.6
19746.2
19735.5
19719.9
19700.9
19679.9
19652.7
19619.1
19578.6
19528.8
19468.3
19404.1
19327.5
19246.6
19153.6
19022.7
18851.3
18653.9
18427.5
18149.5
17824.1
17483.8
17149.9
16832.1
16536.7
16233.2
15914.3
15602
15312.9
14809.9
14065.9
12787.5
10090.2
4663.2
-798.572
-2238.11
-1823.72
19608
19608.1
19608.1
19608.1
19608
19607.6
19606.8
19605.1
19602.4
19598.1
19593.6
19590.2
19588.1
19586.9
19584.8
19581.6
19576.4
19571.4
19567.9
19565.1
19561.6
19560.5
19561.1
19560.6
19555.1
19543.5
19527.2
19507.7
19485.7
19457.1
19420.9
19378.8
19330
19272.3
19208.8
19133.5
19051.6
18957.5
18830.7
18666
18471.7
18242.2
17964.8
17639.8
17302.1
16969.9
16651
16348.7
16046
15731.6
15420
15121
14638
13885.8
12593.4
9945.61
4826.52
-343.308
-2027.58
-1767.85
19412.8
19412.8
19412.9
19412.9
19412.8
19412.3
19411.5
19409.9
19407.2
19403.1
19398.9
19395.5
19393.3
19391.8
19389.4
19386.4
19381.7
19376.8
19372.9
19369.4
19365.7
19364.4
19365
19364.7
19359.7
19348.9
19333
19313.5
19290.1
19260.1
19221.4
19176.3
19124.9
19068.2
19005.5
18933
18852.8
18759
18631.6
18467.2
18274.3
18047.9
17776.4
17460.9
17127.8
16796
16475.1
16165.8
15854.9
15537.7
15227.2
14908.3
14427.4
13672.8
12373.2
9814.86
4999.13
106.811
-1836.3
-1768.66
19217.8
19217.8
19217.8
19217.7
19217.6
19217.2
19216.3
19214.7
19212
19208.1
19203.9
19200.5
19198
19196.2
19193.7
19190.9
19186.5
19181.9
19178
19174.7
19171.2
19169.5
19169.4
19168.4
19163.2
19152.5
19136.9
19117.8
19094.3
19064
19025.1
18979
18926.1
18868.7
18806.5
18736.1
18657.4
18564.3
18436.8
18272.2
18080
17853.7
17582.4
17268.8
16936.4
16604.2
16282.5
15972.2
15661.4
15344.9
15032
14702.2
14220
13469.1
12197.4
9731.31
5120.39
360.295
-1759.98
-1835.34
)
;

boundaryField
{
    wall
    {
        type            calculated;
        value           nonuniform List<scalar> 
1200
(
20974.4
20779
20583.9
20388.7
20193.5
19998.4
19803.2
19608
19412.8
19217.8
20974.3
20779.1
20583.9
20388.7
20193.6
19998.4
19803.2
19608.1
19412.8
19217.7
20974.3
20779.1
20584
20388.8
20193.6
19998.4
19803.3
19608.1
19412.9
19217.8
20974.4
20779.2
20584
20388.8
20193.7
19998.5
19803.3
19608.1
19412.9
19217.8
20974.5
20779.3
20584.1
20388.9
20193.7
19998.4
19803.2
19608
19412.8
19217.6
20974.5
20779.3
20584.2
20388.8
20193.5
19998.2
19802.8
19607.6
19412.3
19217.1
20974.8
20779.8
20584.7
20388.7
20193.1
19997.5
19802.1
19606.7
19411.5
19216.3
20974.3
20779.3
20583.8
20387.9
20191.7
19996.1
19800.4
19605
19409.7
19214.6
20972.5
20778.4
20581
20385.9
20188.9
19993.4
19797.6
19602.3
19407
19211.9
20970.6
20776
20576.2
20380.1
20183.9
19988.3
19793
19598
19403
19208
20967.7
20771.6
20569.3
20376.3
20179.7
19984.6
19788.7
19593.5
19398.7
19203.8
20966
20766.2
20567.7
20373
20176.6
19980.8
19785.5
19590
19395.3
19200.4
20969.4
20773.8
20577
20378.6
20174.1
19978.6
19783.4
19587.9
19393
19198
20971.5
20775.6
20577.6
20376.7
20173.4
19977.6
19782.1
19586.7
19391.5
19196.2
20970.8
20775.2
20575.9
20375.5
20173.3
19976
19780.2
19584.7
19389.2
19193.8
20971.9
20777.3
20578
20378.2
20174.1
19973.1
19777.2
19581.4
19386.3
19191.1
20976.6
20785.7
20588.6
20388
20177.2
19969.4
19772.2
19576.4
19381.9
19186.8
20974
20783.9
20585.3
20389.7
20177.3
19967.1
19767.8
19571.5
19377
19182.2
20968.2
20777.2
20580.1
20379.8
20174.7
19967.6
19764.7
19567.9
19373
19178.3
20955.3
20760
20560.1
20362
20163.2
19962.7
19762.4
19565
19369.5
19175
20944.3
20748.3
20548.5
20350.8
20153.6
19955.7
19758.4
19561.6
19365.9
19171.4
20935.9
20739.6
20541.1
20343.3
20146.4
19950.6
19756.1
19560.5
19364.5
19169.7
20927.5
20731.7
20535.1
20338
20141.4
19947.2
19755.2
19561.3
19365.3
19169.7
20921.1
20725.4
20529.4
20332.8
20136.7
19942.9
19752.2
19560.4
19364.8
19168.6
20914.8
20719.9
20523.9
20327.4
20131
19936.8
19745.2
19554.5
19359.7
19163.2
20906.6
20712.2
20515.8
20319.3
20122.5
19927.1
19734.3
19542.7
19348.6
19152.4
20888.2
20691.9
20498.6
20303.7
20107.4
19911.4
19718.4
19526.2
19332.5
19136.9
20860.6
20664
20472.3
20282.9
20089.3
19893.7
19699.8
19507.3
19313.5
19118.4
20841.6
20645.2
20451.8
20262.1
20070.2
19874.8
19678.8
19485.4
19290.3
19095
20816.1
20619.7
20426
20234.2
20041.3
19847.4
19651.1
19456.5
19260.3
19064.6
20820.1
20627.9
20428.1
20211
20008.4
19813.9
19617.6
19420.1
19221.9
19025.6
20797.5
20608.6
20399
20174.7
19967.9
19772.4
19577.2
19377.9
19177
18979.4
20712.2
20517.2
20321.4
20116.1
19917.2
19722
19527.2
19329
19125.7
18926.4
20602.2
20402.3
20224.7
20044.1
19855.3
19661
19466.4
19271.4
19069.1
18869.1
20523.3
20326.1
20144.9
19973.8
19788.1
19595.8
19402.1
19207.9
19006.4
18807.3
20466.8
20273.5
20079.9
19900
19708.8
19514.2
19324.9
19132.2
18933.6
18737
20399
20205.9
20007.6
19822
19627
19430.8
19243.8
19050.1
18853.2
18658.5
20302.1
20110.8
19909.4
19727.7
19533.5
19338.9
19149.7
18955.4
18759
18565.5
20160.5
19972.7
19771.6
19595.6
19403.5
19213.2
19018.8
18827.7
18631
18437.8
19973.8
19791
19594.2
19422.9
19233.2
19045.8
18847.6
18662.9
18466
18272.6
19736.5
19560.6
19374.2
19213.7
19032.2
18848.1
18651.4
18468.6
18272.7
18079.7
19432.7
19265.1
19097.5
18955.2
18788.8
18612.8
18425.7
18239.6
18045.9
17852.9
19059.7
18900.6
18760.2
18640.6
18492.8
18325.3
18147.6
17962.2
17774.2
17581
18644.1
18490.5
18380.9
18284.7
18156.4
17995.4
17822.1
17637.4
17458.4
17266.9
18232.8
18077.5
17992.6
17915.8
17807.1
17653.3
17482.1
17300.4
17125.3
16934
17850.9
17693.6
17621.8
17556.7
17465.6
17318.8
17148.2
16968.4
16793.4
16601.7
17511.4
17351.8
17282.1
17221.6
17146.1
17004.8
16830.6
16650
16472.9
16280.5
17214.8
17055.6
16976.1
16910.7
16848.9
16712.1
16534.9
16347.5
16163.7
15970.3
16950.5
16798.4
16689.4
16590.4
16522.1
16377.9
16225.3
16040.4
15849.8
15656.8
16723.1
16574.6
16426.2
16282.8
16207.7
16073
15908
15726.1
15532.4
15339.7
16544.6
16407.7
16190.2
15996.4
15908.7
15794.8
15605.4
15422.4
15226.8
15030.1
16453.9
16356.8
15987.7
15684.3
15547.6
15448.5
15316.3
15121.8
14906.9
14700
16170.3
16140.4
15639.9
15211.4
15027.2
14921.5
14785.2
14624.9
14418.5
14210.9
14459.1
14593.9
14490.1
14287.3
14253.2
14165.3
14024.8
13862.9
13657.6
13450.7
10564
10664.2
11941.7
12557
12921
12918.9
12742.6
12554.9
12351.4
12172
8278.63
7625.45
9170.77
9926.28
10204.9
10162
10028.9
9897.01
9782.19
9703.03
9397.66
8374.48
6859.1
5454.19
4799.87
4493.16
4609.15
4775.3
4964.2
5096.68
6915.32
5135.29
2529.41
154.457
-510.48
-840.921
-800.963
-363.251
80.1073
337.95
2057
698.973
-528.711
-1854.38
-1924.68
-2233.76
-2202.14
-2035.9
-1859.45
-1781.39
-74.9601
-2577.33
-1151.45
-1944.22
-1600.28
-1746.3
-1813.27
-1775.98
-1784.72
-1846.62
20974.4
20779
20583.9
20388.7
20193.5
19998.4
19803.2
19608
19412.8
19217.8
20974.4
20779.1
20584
20388.8
20193.6
19998.4
19803.2
19608.1
19412.9
19217.8
20974.4
20779.1
20584
20388.8
20193.7
19998.5
19803.3
19608.1
19412.9
19217.8
20974.4
20779.2
20584.1
20388.9
20193.7
19998.5
19803.3
19608.1
19412.9
19217.7
20974.5
20779.3
20584.1
20388.8
20193.6
19998.4
19803.2
19608
19412.8
19217.6
20974.5
20779.3
20584
20388.6
20193.3
19998.1
19802.8
19607.6
19412.3
19217.2
20974.8
20779.7
20584.3
20388.4
20193
19997.5
19802.1
19606.8
19411.5
19216.3
20974
20778.6
20582.9
20387
20191.5
19996
19800.5
19605.1
19409.9
19214.7
20972.3
20776.5
20580.2
20384.8
20188.8
19993.3
19797.7
19602.4
19407.2
19212
20970.8
20774
20576
20380.6
20184.2
19988.6
19793.2
19598.2
19403.2
19208.1
20967.8
20769.7
20569.1
20377.1
20180.2
19984.7
19788.8
19593.7
19399
19203.9
20966
20764.7
20567
20373.2
20177.1
19981.1
19785.6
19590.2
19395.6
19200.5
20969.3
20772.4
20576.4
20378.7
20174.7
19978.9
19783.5
19588.1
19393.4
19198
20971.5
20773.6
20577
20377.3
20174
19978.1
19782.3
19587
19391.9
19196.2
20970.8
20773.1
20575.1
20376.4
20174
19976.4
19780.4
19584.9
19389.4
19193.6
20971.8
20775.3
20577.3
20379.2
20175.1
19973.9
19777.4
19581.6
19386.4
19190.9
20976.7
20783.6
20587.4
20389
20178.1
19970.3
19772.3
19576.4
19381.7
19186.4
20973.8
20782.1
20583.9
20389.4
20178.7
19968.1
19768.2
19571.4
19376.8
19181.8
20968.3
20773.3
20577.8
20380.2
20175.7
19969.4
19765.1
19567.9
19372.8
19177.9
20955
20756.3
20558.8
20363.2
20164.8
19965
19762.9
19565.1
19369.3
19174.6
20944
20745.2
20547.7
20351.9
20155.6
19957.8
19758.7
19561.6
19365.7
19171.1
20935
20736.8
20540.5
20344.3
20149.4
19952.4
19757
19560.4
19364.4
19169.4
20927.5
20730.4
20534.5
20338.5
20144
19948.7
19756.2
19561
19364.8
19169.2
20920.4
20724
20528.4
20333.4
20138.8
19944.9
19754.1
19560.7
19364.7
19168.3
20913.7
20718
20523.3
20328.4
20132.7
19938.9
19746.6
19555.2
19359.7
19163.2
20906.4
20711.9
20516.2
20320.2
20124
19929.2
19735.9
19543.8
19349
19152.5
20888.1
20692.4
20499.3
20304.7
20108.9
19913.6
19720.4
19527.5
19333.2
19136.9
20861.6
20665.5
20474
20284.1
20090.5
19895.2
19701.2
19507.9
19313.5
19117.6
20842.5
20646.5
20453.2
20263.9
20071.5
19876.5
19680.3
19485.8
19290.1
19094.1
20816.3
20620.2
20427.3
20236.7
20043.4
19849.8
19653.2
19457.4
19260
19063.9
20820.6
20628.7
20429.4
20213.4
20010.6
19816.4
19619.5
19421.1
19221.3
19024.9
20797.6
20609.7
20400.5
20176.5
19969.9
19774.6
19579
19379.1
19176.1
18979
20712.4
20518.5
20322.5
20117.7
19919.2
19724.8
19529.2
19330.3
19124.7
18926.2
20602.4
20402.2
20225.6
20045.7
19857.4
19663.6
19468.9
19272.5
19068
18868.7
20523.8
20325.4
20146.2
19976
19790.8
19598.4
19404.7
19209
19005.1
18806.4
20467.5
20273.4
20082.1
19903.2
19713.4
19518.6
19328.4
19133.9
18932.8
18736
20400.2
20206.1
20010.9
19824.5
19631.2
19435
19247.5
19052
18852.7
18657.3
20303.7
20110.7
19913.9
19730.2
19537.7
19342.9
19154.8
18958.1
18758.9
18564.1
20162.5
19972.5
19777.3
19598.4
19408.4
19217.1
19023.9
18831.6
18631.8
18436.7
19976.5
19790.8
19601
19426.7
19239.1
19049.6
18852.4
18666.9
18467.5
18272.2
19739.8
19560.4
19381.2
19217.7
19038
18851.7
18654.7
18472.6
18274.8
18080.2
19436.3
19265
19104.1
18959.4
18794.2
18615.9
18428.1
18243
18048.5
17854
19063.7
18901.1
18766.5
18645.7
18498.4
18328.8
18150.1
17965.6
17777.1
17582.8
18648.5
18491.2
18386.6
18291
18162.4
17999.4
17824.8
17640.5
17461.7
17269.5
18237.7
18077.8
17996.8
17922.5
17812.9
17657.1
17484.3
17302.7
17128.6
16937.2
17855.9
17692.5
17623.5
17563.3
17471.2
17322.7
17150.5
16970.4
16796.8
16605
17518.1
17351.4
17282.8
17228.1
17151.2
17008.3
16832.6
16651.3
16475.7
16283.2
17219.6
17053.2
16975.7
16917
16852.9
16714.2
16537.2
16349
16166.4
15972.8
16951.8
16792.4
16688.8
16599.3
16532.8
16391.8
16235.9
16047.9
15856.6
15662.8
16734.8
16581.3
16430.8
16287.7
16211.3
16081.5
15916.3
15733.4
15539.4
15346.6
16546.9
16407.3
16188.1
15988.4
15897.7
15787.2
15600.7
15419.1
15227.2
15032.6
16448.7
16332
15975.3
15678.6
15546.5
15449.7
15311.9
15120.7
14908.7
14702.9
16176.2
16135.5
15623.1
15229.9
15055.4
14945.6
14818.5
14642.6
14430.5
14223.1
14429.2
14639.8
14455.4
14338.7
14313.4
14213.9
14079.8
13894.2
13678.2
13475.4
10481.6
10769.5
11917
12641.9
13011.8
12997.9
12802.3
12606.4
12380.9
12206.1
8164.01
7655.55
9232.4
10040.8
10303.2
10266.9
10110
9961.44
9825.96
9740.71
9367.75
8420.82
6992.39
5596.74
4854.51
4571.67
4679.71
4841.98
5010.2
5128.06
7022.36
5206.47
2611.1
260.123
-513.392
-848.726
-800.266
-337.862
115.45
367.69
2122.73
707.589
-613.09
-1825.74
-1944.86
-2291.34
-2249.83
-2024.94
-1828.71
-1753
-164.177
-2555.76
-1379.69
-1883.86
-1546.32
-1708.08
-1827.49
-1764.78
-1763.42
-1831.87
)
;
    }
    inlet
    {
        type            calculated;
        value           nonuniform List<scalar> 
20
(
20974.4
20779
20583.9
20388.7
20193.5
19998.4
19803.2
19608
19412.8
19217.8
20974.4
20779
20583.9
20388.7
20193.5
19998.4
19803.2
19608
19412.8
19217.8
)
;
    }
    outlet
    {
        type            calculated;
        value           nonuniform List<scalar> 
20
(
-97.6792
-293.037
-488.396
-683.754
-879.112
-1074.58
-1269.92
-1465.25
-1660.74
-1856.83
-97.6792
-293.037
-488.396
-683.754
-879.112
-1074.56
-1269.92
-1465.24
-1660.74
-1856.84
)
;
    }
    heatWall
    {
        type            calculated;
        value           nonuniform List<scalar> 
240
(
19120.2
19120.2
19120.2
19120.2
19120.2
19120.2
19120.2
19120.2
19120
19120
19119.5
19119.6
19118.7
19118.7
19117
19117.1
19114.3
19114.4
19110.4
19110.5
19106.3
19106.3
19102.8
19102.9
19100.4
19100.4
19098.6
19098.6
19096.1
19096.1
19093.4
19093.3
19089.1
19088.9
19084.5
19084.3
19080.6
19080.4
19077.3
19077.1
19073.7
19073.6
19072
19071.9
19072
19071.7
19070.9
19070.7
19065.6
19065.6
19054.8
19054.9
19039.3
19039.3
19020.6
19020.1
18997.1
18996.7
18966.7
18966.4
18927.7
18927.4
18881.6
18881.3
18828.7
18828.5
18771.4
18771
18709.4
18708.8
18639.1
18638.4
18560.5
18559.7
18467.5
18466.5
18339.8
18339.1
18174.8
18174.4
17982.2
17982.3
17755.5
17755.9
17483.7
17484.6
17169.7
17171.1
16837
16838.6
16504.7
16506.4
16183.4
16184.8
15873.1
15874.5
15560.5
15563.6
15243.6
15247.2
14932.9
14934.2
14602.9
14604.4
14116.2
14122.3
13359.2
13371.4
12082.9
12099.7
9614.62
9633.58
5006.48
5022.66
247.474
262.567
-1872.28
-1857.7
-1941.03
-1933.07
21072
21072
21071.9
21071.9
21071.9
21072
21072
21072
21072.1
21072.1
21072.1
21072.1
21072.4
21072.4
21071.8
21071.7
21070.1
21070
21068.3
21068.4
21065.4
21065.4
21063.7
21063.6
21067.1
21067
21069.2
21069.2
21068.5
21068.5
21069.6
21069.5
21074.3
21074.4
21071.7
21071.6
21066
21066.1
21053.1
21052.9
21042
21041.9
21033.5
21033.1
21025.4
21025.3
21018.8
21018.5
21012.4
21011.8
21004.4
21004.3
20986
20986
20958.7
20959.2
20939.6
20940
20913.9
20914.1
20918
20918.2
20895.3
20895.4
20810
20810.1
20700.1
20700.1
20621.2
20621.5
20564.7
20565.1
20497.1
20497.6
20400.2
20401
20258.7
20259.7
20072.2
20073.6
19835
19836.7
19531.3
19533.1
19158.3
19160.4
18742.9
18745.1
18331.8
18334.2
17949.9
17952.4
17610.8
17614.1
17313.7
17316
17048.6
17049.1
16824
16829.4
16643.2
16643.6
16550.8
16547.1
16270.3
16271.6
14549.3
14534.4
10640.3
10600.7
8349.02
8288.98
9490.74
9469.95
7041.03
7091.75
2170.62
2204.01
0.529843
-44.2727
)
;
    }
}


// ************************************************************************* //
