/*--------------------------------*- C++ -*----------------------------------*\
  =========                 |
  \\      /  F ield         | OpenFOAM: The Open Source CFD Toolbox
   \\    /   O peration     | Website:  https://openfoam.org
    \\  /    A nd           | Version:  8
     \\/     M anipulation  |
\*---------------------------------------------------------------------------*/
FoamFile
{
    version     2.0;
    format      ascii;
    class       volVectorField;
    location    "400";
    object      U;
}
// * * * * * * * * * * * * * * * * * * * * * * * * * * * * * * * * * * * * * //

dimensions      [0 1 -1 0 0 0 0];

internalField   nonuniform List<vector> 
1200
(
(0.0798889 -0.00540001 -0.000361631)
(0.0799237 -0.0039039 -0.00121452)
(0.0792386 -0.00295754 -0.00363322)
(0.077993 -0.00214658 -0.00610931)
(0.0763008 -0.00141851 -0.00678156)
(0.0722531 -0.000605085 -0.0038573)
(0.0708161 -0.000750026 -0.003141)
(0.0783339 -0.00122011 0.0262074)
(0.0968746 -0.00958505 0.0730655)
(0.111249 -0.0158696 0.0919261)
(0.120669 -0.0100702 0.0989007)
(0.123183 -0.001454 0.103779)
(0.121155 0.00560725 0.10587)
(0.119304 0.00632215 0.109175)
(0.120615 0.0062078 0.112177)
(0.128089 0.00578464 0.119432)
(0.138928 0.00571094 0.118541)
(0.138529 0.0173833 0.136072)
(0.140421 0.0115458 0.153125)
(0.152549 0.00769931 0.188067)
(0.164881 0.00387995 0.21497)
(0.175136 0.00103847 0.250732)
(0.186917 0.00142693 0.249815)
(0.19959 0.00646172 0.260644)
(0.210196 0.00708241 0.272533)
(0.226481 0.00181595 0.241113)
(0.248385 -0.00175863 0.203959)
(0.270418 -0.00678407 0.150359)
(0.290228 -0.00940702 0.113664)
(0.309071 -0.0128306 0.0977853)
(0.362622 -0.0139084 0.0857533)
(0.44691 -0.00974888 0.0817315)
(0.528724 0.0064285 0.0778893)
(0.568761 0.0224234 0.0729144)
(0.566225 0.0209367 0.0669835)
(0.567516 0.00859586 0.0660669)
(0.597627 -0.00274621 0.0691998)
(0.65216 -0.013666 0.0750556)
(0.72179 -0.0225662 0.080082)
(0.795986 -0.0306846 0.0820532)
(0.873223 -0.0391785 0.0832344)
(0.95524 -0.046604 0.0836351)
(1.03869 -0.0506741 0.0811881)
(1.12432 -0.0488785 0.0752573)
(1.21053 -0.0416064 0.0655123)
(1.29285 -0.0310665 0.0552524)
(1.35663 -0.0179766 0.0379772)
(1.39716 -0.0015328 0.0288179)
(1.42875 0.01883 0.0352819)
(1.43431 0.0392623 -0.000568469)
(1.43804 0.0659201 -0.00356085)
(1.57089 0.0731801 0.0433921)
(1.86464 -0.0306752 0.0859756)
(2.24356 -0.317596 0.218184)
(2.9995 -0.545963 0.415452)
(3.00276 -0.24412 0.648596)
(1.13539 0.345974 1.22558)
(-1.03139 -0.111609 1.86604)
(-1.97071 -0.60474 2.15336)
(-2.44681 -1.0278 2.42723)
(0.080073 0.00201728 0.000124823)
(0.0797127 0.00254932 -0.000717372)
(0.0791328 0.00260359 -0.00278944)
(0.0781395 0.00274104 -0.00517457)
(0.0767281 0.00307581 -0.00440114)
(0.072601 0.00371854 0.000540947)
(0.0729605 -0.0026422 0.0118596)
(0.0775319 -0.00746941 0.090722)
(0.0832681 -0.00182795 0.267661)
(0.0177795 0.0106265 0.398213)
(-0.0369723 0.00923117 0.402097)
(-0.0486658 -0.000420622 0.377922)
(-0.0448288 -0.00525303 0.333901)
(-0.0303833 -0.00981187 0.290385)
(-0.0088136 -0.0123518 0.241383)
(0.0305025 -0.0139509 0.214021)
(0.0476501 -0.0103363 0.246694)
(0.0590428 -0.0100619 0.324579)
(0.0633215 -0.0147141 0.413954)
(0.0675019 -0.0150399 0.441262)
(0.0648367 -0.0121351 0.431555)
(0.0607002 -0.0107392 0.43954)
(0.0583341 -0.013936 0.348348)
(0.0676657 -0.0181879 0.285992)
(0.0774783 -0.020637 0.254082)
(0.0769795 -0.0237377 0.16122)
(0.0636985 -0.0270946 0.0870677)
(0.0902412 -0.0259041 0.0165459)
(0.0980173 -0.0160059 -0.0397874)
(0.0576078 -0.0152767 -0.0447658)
(0.0723701 -0.00741827 0.0101846)
(0.04171 -0.040024 0.0619681)
(0.0523585 -0.0631951 0.0937847)
(0.125219 -0.052514 0.13029)
(0.182218 -0.0279702 0.162149)
(0.162809 -0.0134225 0.188413)
(0.121556 -0.0123946 0.216811)
(0.057985 -0.0150731 0.248233)
(-0.0424694 -0.0129637 0.274753)
(-0.174033 -0.00814459 0.292952)
(-0.335362 -0.00360191 0.309775)
(-0.518925 0.00295167 0.323585)
(-0.717351 0.0122617 0.334817)
(-0.919281 0.0239548 0.347047)
(-1.11118 0.0360439 0.359594)
(-1.28265 0.0467264 0.369837)
(-1.42679 0.0554231 0.372526)
(-1.5466 0.0624641 0.374568)
(-1.65117 0.0681704 0.368371)
(-1.7519 0.0653621 0.351383)
(-1.85282 0.0490473 0.371121)
(-1.94629 0.0160867 0.372441)
(-2.1111 -0.0417935 0.31785)
(-2.6168 -0.0429324 0.311456)
(-3.56753 0.294659 0.387802)
(-4.30706 0.958255 0.503607)
(-5.92952 1.44769 0.498176)
(-8.14489 1.37748 0.325246)
(-9.70351 1.11384 0.117576)
(-10.5731 0.97191 -0.00490971)
(0.0797792 -0.000467193 0.000647524)
(0.0793666 -0.000737097 -0.000826292)
(0.0789466 -0.000551742 -0.00371268)
(0.0782527 0.000207664 -0.00565184)
(0.0769694 0.00164242 -0.00096875)
(0.0724146 0.003985 0.0110296)
(0.0702879 0.00142771 0.0730994)
(0.0496663 0.000482122 0.223029)
(0.0389926 0.0190157 0.285651)
(-0.00207056 0.0283469 0.279213)
(-0.0197617 0.00816585 0.196227)
(0.000206446 0.00073972 0.0476229)
(-0.00790671 0.0016201 -0.0560264)
(-0.00457511 -0.00480588 -0.13352)
(0.00209335 -0.0136327 -0.178932)
(0.0211065 -0.0143241 -0.169089)
(0.0249398 -0.0102865 -0.115798)
(0.0275377 -0.000405038 -0.0582284)
(0.0342124 -0.00201979 0.207762)
(-0.00176645 -0.00267744 0.278573)
(-0.0358376 -0.00360473 0.251863)
(-0.0660358 -0.0033376 0.203517)
(-0.0985975 -0.00724805 0.135058)
(-0.138773 -0.00704155 0.102583)
(-0.173244 -0.00377356 0.064277)
(-0.217393 -0.00453783 0.0418177)
(-0.275229 -0.011319 0.0474663)
(-0.336271 -0.0032318 0.0597254)
(-0.391116 0.0054792 0.0844978)
(-0.438625 0.0129185 0.103453)
(-0.487425 0.0151686 0.121336)
(-0.560638 -0.00833934 0.1434)
(-0.664493 -0.0258658 0.16599)
(-0.777929 -0.0124782 0.187089)
(-0.877122 0.017038 0.205218)
(-0.960177 0.0358843 0.22364)
(-1.05468 0.0423227 0.245469)
(-1.15487 0.0472704 0.270239)
(-1.26719 0.057648 0.298911)
(-1.4014 0.0704964 0.330805)
(-1.55808 0.0805543 0.3657)
(-1.73266 0.0888979 0.401018)
(-1.92048 0.0960131 0.435797)
(-2.11297 0.101542 0.471208)
(-2.29939 0.105917 0.506357)
(-2.47042 0.109924 0.538514)
(-2.62048 0.114255 0.565174)
(-2.74874 0.119683 0.588661)
(-2.85973 0.1266 0.608558)
(-2.9615 0.128885 0.627056)
(-3.06286 0.124965 0.654264)
(-3.17593 0.109805 0.670029)
(-3.33782 0.0670947 0.671648)
(-3.63801 0.0566547 0.673511)
(-4.15035 0.337636 0.665226)
(-4.7821 1.11152 0.716469)
(-5.44753 1.69552 0.901423)
(-5.63898 1.2127 1.30681)
(-4.9076 0.290409 1.93323)
(-4.10419 -0.232987 2.38021)
(0.0799576 -4.03321e-05 0.000281181)
(0.0797704 0.000367106 -0.00172255)
(0.0795539 0.00122956 -0.00461838)
(0.0790536 0.00248017 -0.00646107)
(0.0786015 0.0045288 -0.00300218)
(0.0765739 0.00812039 0.00818252)
(0.075814 0.0144808 0.0460255)
(0.0625293 0.0125196 0.191895)
(0.0488121 0.0197171 0.25712)
(0.0248406 0.0279264 0.193621)
(0.0249648 0.00656933 -0.102658)
(0.00304472 -0.00657789 -0.223055)
(-0.000344 -0.00905917 -0.228531)
(0.000267202 -0.0159238 -0.286394)
(-0.00569353 -0.0269227 -0.321809)
(-0.0140101 -0.0270843 -0.320234)
(-0.0294887 -0.0265653 -0.295938)
(-0.0413414 -0.0251036 -0.229815)
(-0.0424462 -0.00503833 -0.190331)
(-0.0436182 0.0102338 -0.132484)
(-0.0683961 0.0119053 -0.080719)
(-0.0862204 0.0151349 -0.0372129)
(-0.116897 0.0131459 -0.0303564)
(-0.14933 0.0127514 -0.0263818)
(-0.185348 0.016397 -0.0147776)
(-0.233119 0.0164944 0.00256105)
(-0.287602 0.0127612 0.0186059)
(-0.33832 0.0146608 0.0359821)
(-0.381433 0.0231798 0.0540744)
(-0.418045 0.0331516 0.074988)
(-0.458346 0.0361119 0.100697)
(-0.511011 0.0150605 0.122526)
(-0.57809 -0.00109497 0.140158)
(-0.653947 0.00867995 0.158531)
(-0.734564 0.0329861 0.177644)
(-0.816506 0.0520402 0.200341)
(-0.903315 0.0594006 0.22865)
(-0.996648 0.0654184 0.253318)
(-1.10204 0.082391 0.277532)
(-1.22231 0.103844 0.301317)
(-1.35204 0.121756 0.325539)
(-1.4892 0.137771 0.347081)
(-1.63314 0.151061 0.364641)
(-1.77895 0.159542 0.380941)
(-1.91974 0.163121 0.396977)
(-2.04986 0.16326 0.411251)
(-2.16536 0.161642 0.424078)
(-2.26496 0.160989 0.437013)
(-2.35298 0.164337 0.450795)
(-2.43014 0.162359 0.471355)
(-2.49823 0.157277 0.484496)
(-2.57137 0.157342 0.471295)
(-2.6896 0.164123 0.462081)
(-2.92723 0.23178 0.496443)
(-3.31353 0.562243 0.572985)
(-3.69506 1.27351 0.676192)
(-3.85764 1.76236 0.812884)
(-3.45457 1.2295 0.91666)
(-2.82348 0.548788 0.750792)
(-2.77726 0.448014 0.472115)
(0.0799375 -0.000119904 -8.84968e-05)
(0.0798083 3.77563e-05 -0.00255686)
(0.0797815 0.00069406 -0.0068589)
(0.0796761 0.00176754 -0.0106652)
(0.0799084 0.00385114 -0.00990962)
(0.0800211 0.00787337 0.000927172)
(0.081764 0.0152025 0.0231467)
(0.0831047 0.0200161 0.100352)
(0.0775213 0.0286709 0.16859)
(0.0664615 0.0274981 0.144052)
(0.0661396 0.0265323 0.0149754)
(0.0641234 0.00904574 -0.110534)
(0.0496331 -0.00533814 -0.200186)
(0.032407 -0.0075231 -0.24275)
(0.00165069 -0.0135745 -0.30019)
(-0.0369777 -0.013392 -0.3544)
(-0.0679904 -0.0116334 -0.38252)
(-0.0932086 -0.0165383 -0.399605)
(-0.102377 -0.00442869 -0.372322)
(-0.0923517 0.0100362 -0.318429)
(-0.0892976 0.0193788 -0.276582)
(-0.0850384 0.0200615 -0.248169)
(-0.0760022 0.0173351 -0.197133)
(-0.082047 0.0220473 -0.159317)
(-0.0951915 0.0265985 -0.125466)
(-0.105544 0.0260454 -0.0940586)
(-0.121565 0.024281 -0.0661815)
(-0.146498 0.0237807 -0.0393407)
(-0.172991 0.0299198 -0.021425)
(-0.197805 0.0444877 -0.00260658)
(-0.22751 0.0566746 0.022065)
(-0.260643 0.0420274 0.0409484)
(-0.321255 0.0276109 0.0630013)
(-0.387543 0.0384517 0.0868458)
(-0.44676 0.0604173 0.10471)
(-0.504488 0.0806563 0.122499)
(-0.559815 0.0925667 0.154291)
(-0.616251 0.1011 0.180698)
(-0.684953 0.121349 0.204694)
(-0.767295 0.144457 0.228336)
(-0.849581 0.160811 0.253239)
(-0.93158 0.174681 0.273159)
(-1.0167 0.184815 0.286078)
(-1.10187 0.1881 0.296212)
(-1.18252 0.184972 0.305321)
(-1.25654 0.177848 0.311318)
(-1.32195 0.168997 0.316042)
(-1.37858 0.16171 0.319388)
(-1.43599 0.163229 0.320099)
(-1.48811 0.166114 0.34541)
(-1.5317 0.166876 0.350754)
(-1.57419 0.176126 0.307987)
(-1.64488 0.210053 0.287494)
(-1.79025 0.320512 0.339935)
(-2.0139 0.666911 0.448982)
(-2.18568 1.2893 0.577338)
(-2.10999 1.58399 0.674427)
(-1.51095 0.877234 0.559826)
(-1.00211 0.101136 -0.00058484)
(-0.83372 -0.136758 -0.481722)
(0.0799441 -0.00010874 -0.000112913)
(0.0799101 9.92847e-05 -0.00216291)
(0.0801004 0.00107463 -0.00627967)
(0.080302 0.00252966 -0.0101129)
(0.080942 0.00472869 -0.0125067)
(0.0824162 0.00826024 -0.00729762)
(0.0866792 0.0157847 0.00328884)
(0.0927595 0.0204648 0.0452537)
(0.0996493 0.0263471 0.0996526)
(0.103062 0.0243862 0.101017)
(0.104822 0.0171019 0.0640144)
(0.10625 0.0143531 0.0189993)
(0.113674 0.0125858 -0.0020053)
(0.108933 0.00798024 -0.0287626)
(0.0955449 0.00265393 -0.0761734)
(0.0861676 -0.00139415 -0.197427)
(0.0697434 -0.00590461 -0.286707)
(0.0426394 -0.00846631 -0.328526)
(0.00860182 -0.00583708 -0.383944)
(-0.0220976 0.00535456 -0.409484)
(-0.0324608 0.00809191 -0.384542)
(-0.0241654 0.00486223 -0.333277)
(-0.0140701 0.00357499 -0.272107)
(-0.00657824 0.0163448 -0.239353)
(0.00107074 0.0291019 -0.217863)
(0.00169772 0.0312966 -0.20805)
(-0.00906976 0.0330111 -0.19035)
(-0.0204031 0.037215 -0.142929)
(-0.0385287 0.0435589 -0.137246)
(-0.0451478 0.0530316 -0.137969)
(-0.0389115 0.0569434 -0.105887)
(-0.0379993 0.0573641 -0.0688123)
(-0.068487 0.055583 -0.0413135)
(-0.141138 0.056793 0.0030781)
(-0.199403 0.0663503 0.0230758)
(-0.243124 0.0731955 0.0312235)
(-0.232667 0.0801531 0.0648687)
(-0.22186 0.0939668 0.0988906)
(-0.229621 0.126863 0.136963)
(-0.263878 0.155535 0.167886)
(-0.287981 0.170925 0.198731)
(-0.306789 0.185745 0.222538)
(-0.330354 0.197013 0.231774)
(-0.354025 0.198819 0.236655)
(-0.372606 0.19268 0.242015)
(-0.388676 0.181163 0.23937)
(-0.401145 0.16679 0.230803)
(-0.413876 0.152049 0.206747)
(-0.45349 0.144498 0.151316)
(-0.450891 0.143038 0.221417)
(-0.465029 0.146138 0.269786)
(-0.502014 0.180725 0.166092)
(-0.545213 0.273275 0.100586)
(-0.577036 0.402417 0.159019)
(-0.624058 0.720596 0.286647)
(-0.599365 1.25671 0.431523)
(-0.325376 1.40788 0.552496)
(0.679637 0.624317 0.525774)
(0.692286 0.208456 0.592939)
(0.961187 0.102952 0.166881)
(0.0799795 -0.000142606 0.000205198)
(0.0800516 -0.000254586 -0.00105178)
(0.0804467 0.00017541 -0.00361109)
(0.0809983 0.00119034 -0.00528832)
(0.0820666 0.00314719 -0.0080301)
(0.0843903 0.00638294 -0.00789246)
(0.0902199 0.0124543 -0.00632321)
(0.0995279 0.0184203 0.00913719)
(0.112119 0.0237882 0.0398478)
(0.124427 0.0212468 0.052321)
(0.132304 0.0149341 0.0498176)
(0.135973 0.00820312 0.0395945)
(0.138046 0.00442749 0.0288331)
(0.140583 0.00328209 0.017581)
(0.141148 0.00432891 0.00836047)
(0.148396 0.0108737 -0.0161272)
(0.153582 0.0131205 -0.0493522)
(0.14305 0.00986171 -0.0987324)
(0.130055 0.014244 -0.163113)
(0.11727 0.0180565 -0.236688)
(0.115515 0.0153454 -0.264843)
(0.112814 0.0082588 -0.278232)
(0.101606 0.00467605 -0.269614)
(0.0842919 0.00817396 -0.283894)
(0.0919388 0.0170151 -0.259381)
(0.102493 0.0257084 -0.248945)
(0.105741 0.0326946 -0.249953)
(0.106433 0.0409188 -0.216536)
(0.104681 0.0504051 -0.210094)
(0.114049 0.058341 -0.232109)
(0.131564 0.0595208 -0.221867)
(0.143403 0.0608035 -0.194946)
(0.148094 0.0686897 -0.163792)
(0.140442 0.0760131 -0.12413)
(0.132927 0.0802672 -0.0945137)
(0.13104 0.075383 -0.0931805)
(0.112979 0.072685 -0.0717472)
(0.0854629 0.0858761 -0.0411248)
(0.0669287 0.113267 0.023973)
(0.125098 0.13172 0.0691348)
(0.195165 0.146347 0.110543)
(0.25871 0.170373 0.147637)
(0.304422 0.185913 0.169665)
(0.342586 0.187459 0.18148)
(0.382351 0.180059 0.191417)
(0.421646 0.16746 0.19434)
(0.460645 0.152836 0.193242)
(0.500332 0.137677 0.18158)
(0.508501 0.118841 0.105694)
(0.501664 0.11785 0.0920488)
(0.542065 0.125456 0.168641)
(0.572406 0.151901 0.17091)
(0.44993 0.25893 -0.0224623)
(0.474825 0.443328 -0.0842466)
(0.6391 0.728549 0.0815082)
(0.96353 1.13207 0.25913)
(1.57626 1.05822 0.374147)
(2.40893 0.483473 0.426252)
(2.47599 0.184866 0.507619)
(2.38062 0.138178 0.442104)
(0.0798382 0.000356221 0.0005708)
(0.0798259 0.000853428 -0.000316641)
(0.0802904 0.00151748 -0.00219877)
(0.0811643 0.00231514 -0.00240957)
(0.0827426 0.00373839 -0.00500626)
(0.0857678 0.00600015 -0.00729364)
(0.0922453 0.00996252 -0.00994856)
(0.103487 0.0141519 -0.00893489)
(0.119613 0.0176436 0.00193942)
(0.134877 0.0156692 0.00972096)
(0.146497 0.0121114 0.011671)
(0.153539 0.00871686 0.00792751)
(0.15844 0.00663845 0.00139661)
(0.163151 0.00514325 -0.00803934)
(0.165895 0.00649337 -0.0135621)
(0.171193 0.016574 -0.0198781)
(0.181953 0.0214354 -0.0271994)
(0.185251 0.0194453 -0.03844)
(0.184413 0.0179279 -0.0595707)
(0.187944 0.0160617 -0.0953503)
(0.196343 0.00936242 -0.116775)
(0.199566 0.00595119 -0.122821)
(0.198583 0.00754238 -0.120759)
(0.196129 0.0126841 -0.142601)
(0.200023 0.0151346 -0.177738)
(0.208768 0.0188897 -0.211204)
(0.219855 0.0247273 -0.236998)
(0.234346 0.0328854 -0.229359)
(0.252514 0.0424566 -0.222248)
(0.277111 0.0510616 -0.232492)
(0.304531 0.0544803 -0.238368)
(0.328304 0.0589266 -0.236179)
(0.350034 0.0675445 -0.226988)
(0.375352 0.0774837 -0.206962)
(0.404923 0.0825391 -0.18586)
(0.434347 0.0824578 -0.176107)
(0.454666 0.0874354 -0.162553)
(0.475953 0.103584 -0.142685)
(0.503012 0.109716 -0.114211)
(0.543842 0.103012 -0.081181)
(0.583721 0.102829 -0.04137)
(0.634939 0.117418 0.00853535)
(0.734661 0.134643 0.0489116)
(0.849463 0.140321 0.0761253)
(0.962087 0.13757 0.0959899)
(1.0656 0.130019 0.109057)
(1.15904 0.120857 0.118554)
(1.24268 0.114068 0.12248)
(1.30485 0.10319 0.0947143)
(1.35108 0.0904355 0.0711345)
(1.40257 0.0934021 0.0939636)
(1.46141 0.137417 0.108167)
(1.46833 0.214783 0.0273856)
(1.52597 0.380729 -0.081511)
(1.80841 0.63335 -0.0779661)
(2.34698 0.910602 0.0414037)
(3.1825 0.78202 0.124345)
(3.87971 0.36628 0.15956)
(4.05565 0.167687 0.172854)
(4.07034 0.121594 0.171001)
(0.0801594 -0.00210811 0.000253326)
(0.0802385 -0.00246975 -0.00053226)
(0.0806488 -0.00208398 -0.00106966)
(0.0815907 -0.00141161 0.000125352)
(0.0834864 -0.000165708 -0.0016283)
(0.086919 0.00172425 -0.00417754)
(0.0937262 0.00468642 -0.00789942)
(0.104942 0.00762072 -0.0141975)
(0.121134 0.0100217 -0.0173032)
(0.138389 0.00912867 -0.0188762)
(0.151541 0.00649566 -0.0224281)
(0.15925 0.00400113 -0.0288747)
(0.16358 0.00257945 -0.0374144)
(0.166478 0.00216992 -0.0457108)
(0.168358 0.00417239 -0.0481297)
(0.176978 0.0108846 -0.0449018)
(0.192342 0.0136623 -0.0376095)
(0.204108 0.0133155 -0.032585)
(0.213722 0.0145391 -0.0317052)
(0.227534 0.0154141 -0.0367723)
(0.243627 0.0115786 -0.0403552)
(0.254788 0.00688868 -0.0421331)
(0.265222 0.00449657 -0.038395)
(0.278278 0.00575136 -0.0438954)
(0.291647 0.0104984 -0.0587112)
(0.301369 0.0160182 -0.0863881)
(0.314185 0.0198488 -0.122436)
(0.33762 0.0234943 -0.143511)
(0.369881 0.028293 -0.157062)
(0.407209 0.0329063 -0.169914)
(0.444814 0.0362849 -0.177466)
(0.478838 0.041115 -0.181691)
(0.51112 0.0486573 -0.184842)
(0.547382 0.056156 -0.182548)
(0.588897 0.0605883 -0.175166)
(0.631842 0.062182 -0.169788)
(0.675271 0.0679384 -0.164612)
(0.731157 0.0812321 -0.158226)
(0.807232 0.0859733 -0.15145)
(0.893603 0.0842217 -0.142979)
(0.982987 0.0880775 -0.129363)
(1.07895 0.0908444 -0.109856)
(1.18475 0.0882414 -0.0890458)
(1.29291 0.081991 -0.0704993)
(1.39687 0.0750855 -0.0544337)
(1.49373 0.0685854 -0.0413076)
(1.58283 0.0635296 -0.0292456)
(1.66598 0.0631412 -0.0190406)
(1.7488 0.0639675 -0.0241591)
(1.8328 0.0609662 -0.0327179)
(1.91513 0.0639412 -0.02251)
(2.01455 0.0959977 -0.0101113)
(2.16378 0.146201 -0.0276035)
(2.40026 0.246576 -0.0760573)
(2.84053 0.41726 -0.115617)
(3.56557 0.575871 -0.102571)
(4.45571 0.476148 -0.0811401)
(5.09375 0.226173 -0.083512)
(5.32922 0.0974248 -0.0982236)
(5.43954 0.0574399 -0.107311)
(0.0800286 0.00536322 0.00042788)
(0.0805523 0.00395558 -0.00077755)
(0.0808788 0.00319648 -0.00102586)
(0.0815552 0.00270376 0.00079196)
(0.0832363 0.00253183 -0.000964147)
(0.0865972 0.00260176 -0.00302937)
(0.093511 0.00307994 -0.00511529)
(0.104661 0.00357829 -0.0116643)
(0.120716 0.00400397 -0.0175128)
(0.138153 0.00339665 -0.0210301)
(0.151861 0.00225221 -0.023968)
(0.160346 0.00120449 -0.0266778)
(0.165509 0.000930577 -0.0289227)
(0.169686 0.00133274 -0.0297232)
(0.173968 0.00211277 -0.0266374)
(0.185274 0.00490599 -0.0217253)
(0.203915 0.00672359 -0.0140474)
(0.221402 0.00662709 -0.00650088)
(0.236964 0.00610938 -0.000679963)
(0.25475 0.00498028 0.0046997)
(0.2737 0.00271585 0.00851533)
(0.28815 0.00131186 0.0121606)
(0.298396 0.00142706 0.0198395)
(0.313188 0.00315781 0.022252)
(0.338205 0.00496086 0.0178597)
(0.37214 0.00719926 0.0078176)
(0.411167 0.00958274 -0.00382617)
(0.449302 0.0117257 -0.00713451)
(0.488716 0.0149015 -0.0125184)
(0.527196 0.0188742 -0.0221975)
(0.560895 0.0230252 -0.0314903)
(0.587288 0.0283452 -0.0415436)
(0.608887 0.0350536 -0.0524153)
(0.6314 0.0418522 -0.0597978)
(0.658674 0.0464338 -0.0617796)
(0.68842 0.0482997 -0.0618365)
(0.723876 0.0505094 -0.0618456)
(0.784596 0.0546137 -0.0632238)
(0.880386 0.0540092 -0.0667846)
(0.999668 0.0491957 -0.0729535)
(1.13685 0.0465501 -0.0806812)
(1.28994 0.0443351 -0.0871219)
(1.44964 0.0413329 -0.0922807)
(1.60588 0.0380717 -0.0969089)
(1.75328 0.0349766 -0.100678)
(1.89006 0.0319408 -0.103307)
(2.01607 0.029072 -0.103737)
(2.13357 0.026865 -0.103458)
(2.24719 0.0249 -0.110952)
(2.35598 0.0231444 -0.120188)
(2.46118 0.0254246 -0.119683)
(2.58966 0.0377057 -0.117544)
(2.78679 0.0589695 -0.129648)
(3.10559 0.0981374 -0.159051)
(3.65472 0.165938 -0.192575)
(4.5199 0.227999 -0.211319)
(5.46522 0.192508 -0.218844)
(6.10481 0.106135 -0.233099)
(6.37333 0.0580188 -0.249979)
(6.51833 0.0405792 -0.256478)
(0.0799059 -0.00534963 -0.000432727)
(0.0799649 -0.00380214 -0.00127806)
(0.0794256 -0.00268672 -0.00366632)
(0.0783044 -0.00174033 -0.00612907)
(0.0766654 -0.000922292 -0.00683014)
(0.0725792 -0.00017449 -0.00391121)
(0.0712574 -0.000326962 -0.003488)
(0.0765859 -0.00144996 0.0260101)
(0.0933449 -0.00935023 0.0729141)
(0.108238 -0.0149005 0.0906493)
(0.120693 -0.00796381 0.097637)
(0.124985 0.0017939 0.10317)
(0.122681 0.00612477 0.105949)
(0.120509 0.00574545 0.109539)
(0.121509 0.00548379 0.112709)
(0.12793 0.00468929 0.120055)
(0.140135 0.00320949 0.119286)
(0.141444 0.015455 0.13546)
(0.143569 0.00991648 0.152831)
(0.156423 0.0071045 0.187476)
(0.167945 0.00394155 0.214605)
(0.177154 0.00104967 0.250753)
(0.18847 0.00112486 0.250421)
(0.201183 0.00573447 0.261229)
(0.212118 0.00639941 0.273347)
(0.229182 0.00123659 0.242764)
(0.251796 -0.00177389 0.205989)
(0.274101 -0.00661495 0.152818)
(0.293272 -0.00932265 0.114637)
(0.305043 -0.014004 0.0985917)
(0.347069 -0.016392 0.0824136)
(0.431529 -0.0155545 0.0796592)
(0.517242 -0.00144006 0.0784251)
(0.571052 0.0180348 0.0748144)
(0.577112 0.022853 0.068072)
(0.576927 0.0147313 0.0641424)
(0.598951 0.00487294 0.0645319)
(0.644624 -0.00676864 0.0697261)
(0.708153 -0.0175086 0.0754666)
(0.778967 -0.0273883 0.0783096)
(0.853325 -0.0375942 0.0803255)
(0.933206 -0.0467791 0.0812205)
(1.01709 -0.0525593 0.0784549)
(1.11123 -0.0520257 0.0703954)
(1.21454 -0.0449856 0.0565814)
(1.29623 -0.0329001 0.0437949)
(1.35092 -0.0170457 0.0248697)
(1.38184 0.00260112 0.0137388)
(1.39735 0.0272027 0.0179981)
(1.40111 0.0589221 -0.0181432)
(1.41228 0.0944814 -0.0211943)
(1.59282 0.117919 0.010863)
(2.01559 0.0450605 0.0456789)
(2.34477 -0.24486 0.18981)
(2.98519 -0.511395 0.394442)
(3.03385 -0.282013 0.631797)
(1.42995 0.327276 1.16001)
(-0.894909 -0.0577957 1.85379)
(-1.87203 -0.587255 2.16336)
(-2.38986 -1.02686 2.44217)
(0.0800436 0.00207436 0.000219842)
(0.0796738 0.00254125 -0.000598866)
(0.0792482 0.00261381 -0.0026915)
(0.0784485 0.00277613 -0.00511793)
(0.0771547 0.0033062 -0.00439412)
(0.0730175 0.0044011 0.000518733)
(0.0728624 -0.00102922 0.0103613)
(0.0770142 -0.00691738 0.0893501)
(0.0828459 -0.00159374 0.266209)
(0.0184831 0.011671 0.39881)
(-0.0360559 0.0116821 0.403273)
(-0.0475966 0.00156648 0.378401)
(-0.044477 -0.00388289 0.333923)
(-0.0297081 -0.00902172 0.290201)
(-0.00788612 -0.0111247 0.240342)
(0.0305705 -0.0126622 0.213133)
(0.0488589 -0.00989306 0.246467)
(0.0603451 -0.00798586 0.324806)
(0.0646561 -0.0143754 0.415713)
(0.0696745 -0.0143372 0.443624)
(0.0666735 -0.0114867 0.433995)
(0.0620615 -0.0104037 0.441282)
(0.059527 -0.013651 0.349791)
(0.0684377 -0.0178639 0.287352)
(0.0781774 -0.0204733 0.255978)
(0.0799777 -0.0235298 0.16344)
(0.0647933 -0.0279883 0.088149)
(0.0829654 -0.0259992 0.0208716)
(0.0848002 -0.0147212 -0.0416049)
(0.050742 -0.010702 -0.0414168)
(0.117251 0.00193373 -0.0122212)
(0.0885168 -0.0288351 0.0499033)
(0.0392489 -0.0632318 0.0948276)
(0.0894771 -0.0586948 0.133456)
(0.171799 -0.0318646 0.162276)
(0.168076 -0.0123715 0.186538)
(0.132245 -0.00886395 0.214854)
(0.073888 -0.012207 0.247259)
(-0.0267497 -0.0111319 0.275494)
(-0.161463 -0.00721871 0.294473)
(-0.326502 -0.00418626 0.311615)
(-0.514368 0.00150067 0.325434)
(-0.718095 0.0116203 0.336609)
(-0.924056 0.0264407 0.348605)
(-1.11379 0.0436388 0.359953)
(-1.27076 0.0605419 0.367074)
(-1.39723 0.0770103 0.366159)
(-1.50103 0.0933488 0.365189)
(-1.59217 0.109318 0.357003)
(-1.68588 0.116838 0.33932)
(-1.79075 0.109831 0.361798)
(-1.89021 0.0832391 0.367665)
(-2.03931 0.00755167 0.314716)
(-2.48796 -0.0479395 0.307129)
(-3.41156 0.246689 0.384795)
(-4.13864 0.918992 0.510016)
(-5.65299 1.44203 0.514753)
(-7.91847 1.38638 0.364544)
(-9.56356 1.12064 0.148359)
(-10.4765 0.975857 0.0171689)
(0.0797061 -0.000473446 0.000607017)
(0.07928 -0.000763135 -0.000883256)
(0.0790846 -0.000488235 -0.00374794)
(0.0786275 0.000261281 -0.00566481)
(0.0775852 0.00181592 -0.00103583)
(0.0726519 0.00468121 0.0106421)
(0.0705273 0.00225211 0.0706635)
(0.0503777 0.00058385 0.221181)
(0.039757 0.0189478 0.285746)
(-0.000570447 0.0295562 0.281207)
(-0.0186282 0.0106332 0.19927)
(-0.000185657 0.00396601 0.052501)
(-0.00674393 -0.00299386 -0.0567977)
(-0.00527474 -0.00748007 -0.133287)
(0.0010448 -0.0151685 -0.177631)
(0.0216818 -0.0155428 -0.166987)
(0.0222948 -0.0119031 -0.113349)
(0.0254425 -0.00140788 -0.0534558)
(0.0358163 -0.000881882 0.207576)
(0.00217307 -0.00177286 0.280004)
(-0.0328756 -0.00262541 0.252454)
(-0.0637278 -0.00240255 0.202669)
(-0.0961549 -0.00619303 0.134604)
(-0.13554 -0.0065019 0.102067)
(-0.170742 -0.00426074 0.0631855)
(-0.216164 -0.00663769 0.041309)
(-0.274743 -0.0136317 0.0478029)
(-0.337806 -0.00364055 0.0605274)
(-0.394505 0.00754685 0.0852653)
(-0.443363 0.0184285 0.103641)
(-0.484733 0.0269368 0.120678)
(-0.572462 0.000685703 0.14711)
(-0.677416 -0.0261018 0.169877)
(-0.794286 -0.0171069 0.190799)
(-0.894579 0.0150736 0.208701)
(-0.972028 0.0379157 0.226681)
(-1.06425 0.0455358 0.248428)
(-1.16403 0.0500754 0.273323)
(-1.27604 0.0598241 0.302118)
(-1.41086 0.0716652 0.334155)
(-1.56833 0.0805445 0.369269)
(-1.74243 0.0885281 0.404792)
(-1.92843 0.0968808 0.43961)
(-2.11745 0.105831 0.474698)
(-2.29856 0.116025 0.508986)
(-2.46305 0.127766 0.539729)
(-2.6064 0.141418 0.564577)
(-2.72894 0.157336 0.586137)
(-2.8364 0.175253 0.604322)
(-2.93743 0.187412 0.622142)
(-3.03941 0.189346 0.650867)
(-3.14947 0.174015 0.669937)
(-3.30202 0.117094 0.677093)
(-3.58836 0.0669039 0.685503)
(-4.0882 0.300277 0.678727)
(-4.70555 1.06797 0.722786)
(-5.36182 1.70362 0.898482)
(-5.65378 1.26376 1.29251)
(-5.01059 0.341171 1.90634)
(-4.22165 -0.206704 2.36195)
(0.0798977 -9.10936e-05 0.000288292)
(0.0797372 0.00040483 -0.00169955)
(0.0797219 0.0013203 -0.00460017)
(0.0793723 0.00242464 -0.00646189)
(0.0790593 0.00420753 -0.00302929)
(0.0770097 0.00827009 0.00808657)
(0.0761749 0.0148713 0.0445022)
(0.0630754 0.0127595 0.189748)
(0.0493723 0.0199157 0.258093)
(0.0255545 0.0285883 0.196042)
(0.0236665 0.00666701 -0.107725)
(0.00248406 -0.00691954 -0.223367)
(-0.000657289 -0.0104582 -0.228648)
(-0.000342302 -0.0177552 -0.285785)
(-0.00620231 -0.0277813 -0.320936)
(-0.0137756 -0.0274968 -0.318652)
(-0.0302682 -0.0280162 -0.294297)
(-0.0424419 -0.0245234 -0.228808)
(-0.0455012 -0.00747782 -0.190169)
(-0.0511026 0.00966916 -0.132926)
(-0.0777269 0.0123228 -0.082231)
(-0.0965365 0.0159677 -0.0376946)
(-0.125194 0.0143427 -0.0298071)
(-0.156772 0.0133326 -0.0267309)
(-0.188734 0.0160248 -0.0148121)
(-0.229261 0.014438 0.00249868)
(-0.282378 0.0113635 0.0187909)
(-0.333965 0.0138421 0.0364203)
(-0.378645 0.0249231 0.0547202)
(-0.418536 0.040128 0.0757788)
(-0.461734 0.0507939 0.101887)
(-0.516056 0.0260207 0.124303)
(-0.585119 0.000688337 0.1424)
(-0.666835 0.00568888 0.161428)
(-0.754987 0.0316785 0.18126)
(-0.84298 0.0544348 0.204505)
(-0.932873 0.0631363 0.232978)
(-1.02684 0.0687465 0.257851)
(-1.13279 0.0853752 0.28219)
(-1.25449 0.10589 0.306069)
(-1.38532 0.122145 0.330354)
(-1.52338 0.137244 0.35211)
(-1.66884 0.151325 0.370187)
(-1.81669 0.162751 0.387292)
(-1.95946 0.171763 0.404393)
(-2.09104 0.179835 0.419971)
(-2.20729 0.188829 0.434202)
(-2.30723 0.201124 0.448479)
(-2.39538 0.217931 0.463271)
(-2.47085 0.227284 0.484028)
(-2.53411 0.228817 0.4972)
(-2.59727 0.22739 0.48375)
(-2.69475 0.214228 0.472124)
(-2.9027 0.238853 0.502394)
(-3.27124 0.527323 0.578159)
(-3.66108 1.23651 0.68177)
(-3.86324 1.7803 0.819124)
(-3.54437 1.28559 0.935602)
(-2.9211 0.569447 0.796155)
(-2.8405 0.431203 0.51947)
(0.079895 -0.00014166 -8.79346e-05)
(0.0797914 0.000189376 -0.00255899)
(0.0799134 0.000805592 -0.0068858)
(0.0798825 0.0016127 -0.0107477)
(0.0801825 0.00336423 -0.0100568)
(0.0804988 0.00726684 0.000785289)
(0.0821127 0.0151747 0.022414)
(0.0832132 0.0198667 0.0989607)
(0.0777432 0.0287307 0.168819)
(0.0667733 0.0284804 0.145947)
(0.0672034 0.0277286 0.0150863)
(0.0629854 0.00724965 -0.114179)
(0.0487711 -0.00688661 -0.200804)
(0.0318089 -0.00884652 -0.24242)
(0.0011154 -0.0143113 -0.299991)
(-0.0375279 -0.0139041 -0.353505)
(-0.0692579 -0.0132019 -0.381617)
(-0.0949633 -0.0173428 -0.399164)
(-0.10463 -0.00571995 -0.372356)
(-0.0958047 0.0105276 -0.318665)
(-0.0927459 0.0207651 -0.276638)
(-0.0879825 0.0217633 -0.247567)
(-0.0783517 0.0193601 -0.195567)
(-0.0846362 0.024296 -0.158447)
(-0.0986988 0.0285323 -0.12598)
(-0.110151 0.027082 -0.0947976)
(-0.127751 0.0256162 -0.0663476)
(-0.154165 0.0256085 -0.0403763)
(-0.180172 0.0325734 -0.024151)
(-0.209752 0.0492676 -0.000910468)
(-0.248558 0.0636298 0.0301109)
(-0.272831 0.047011 0.045745)
(-0.324797 0.0287478 0.0643699)
(-0.398328 0.0386048 0.0886992)
(-0.471603 0.0626639 0.108302)
(-0.540614 0.0853433 0.127545)
(-0.600613 0.0972175 0.159104)
(-0.657637 0.104657 0.185333)
(-0.727691 0.124538 0.209489)
(-0.812595 0.146756 0.233241)
(-0.896182 0.160879 0.257894)
(-0.979392 0.173071 0.277742)
(-1.06738 0.182934 0.290979)
(-1.15683 0.187418 0.301629)
(-1.2424 0.187092 0.311449)
(-1.32121 0.184619 0.318511)
(-1.39069 0.182925 0.324574)
(-1.45131 0.18606 0.329582)
(-1.51277 0.199999 0.33228)
(-1.56271 0.212138 0.357575)
(-1.59896 0.217963 0.362455)
(-1.63037 0.228615 0.318745)
(-1.67663 0.252865 0.293796)
(-1.78418 0.33333 0.3409)
(-1.98507 0.642734 0.449929)
(-2.17151 1.25967 0.582679)
(-2.15414 1.61285 0.686659)
(-1.62501 0.95066 0.584671)
(-0.981984 0.0992153 -0.0121327)
(-0.835174 -0.136315 -0.464175)
(0.0799117 -8.75694e-05 -0.000111987)
(0.0798867 0.000317084 -0.00217116)
(0.080182 0.00132777 -0.00630758)
(0.0803919 0.00254227 -0.0101771)
(0.0810506 0.00436771 -0.0126291)
(0.0823101 0.00745224 -0.00750484)
(0.0869807 0.0150853 0.00289664)
(0.092961 0.0204054 0.0443075)
(0.0995967 0.0265583 0.0995586)
(0.102861 0.0255668 0.102141)
(0.104936 0.0191524 0.0647476)
(0.107449 0.016983 0.0182043)
(0.113285 0.0138208 -0.00371716)
(0.105501 0.00539282 -0.0304732)
(0.0931334 0.00106262 -0.0786126)
(0.084691 -0.00177564 -0.200009)
(0.0678829 -0.00705789 -0.287306)
(0.0411657 -0.00905913 -0.327746)
(0.00724806 -0.00643101 -0.382319)
(-0.0237717 0.00624805 -0.407591)
(-0.0342683 0.00968047 -0.383425)
(-0.0257207 0.00719255 -0.332029)
(-0.0159341 0.00691926 -0.270428)
(-0.00871937 0.020069 -0.2371)
(-0.00123022 0.0321895 -0.216299)
(-0.00147699 0.0330032 -0.20702)
(-0.0130839 0.0340676 -0.189791)
(-0.0245283 0.0379255 -0.143352)
(-0.0420523 0.0428276 -0.138951)
(-0.0496163 0.0500825 -0.141218)
(-0.0446579 0.0522143 -0.109178)