/*--------------------------------*- C++ -*----------------------------------*\
  =========                 |
  \\      /  F ield         | OpenFOAM: The Open Source CFD Toolbox
   \\    /   O peration     | Website:  https://openfoam.org
    \\  /    A nd           | Version:  8
     \\/     M anipulation  |
\*---------------------------------------------------------------------------*/
FoamFile
{
    version     2.0;
    format      ascii;
    class       volScalarField;
    location    "400";
    object      alphat;
}
// * * * * * * * * * * * * * * * * * * * * * * * * * * * * * * * * * * * * * //

dimensions      [1 -1 -1 0 0 0 0];

internalField   nonuniform List<scalar> 
8400
(
0.145663
0.142855
0.140061
0.137279
0.134509
0.13175
0.129002
0.126263
0.123534
0.120811
0.118095
0.115384
0.112716
0.110117
0.107586
0.105124
0.102732
0.100412
0.0981676
0.0960005
0.0939138
0.09191
0.089991
0.0881579
0.0864113
0.084751
0.0831755
0.0816839
0.0802748
0.0789458
0.0776951
0.0765219
0.0754244
0.0744012
0.0734506
0.0725707
0.0717596
0.0710147
0.0703348
0.0697163
0.0691541
0.0686455
0.0681851
0.067763
0.0673659
0.0669932
0.0666401
0.0662853
0.0659371
0.0655903
0.0656832
0.0653633
0.0650063
0.0646335
0.0642562
0.0638852
0.0635306
0.0632044
0.0629193
0.0626894
0.0625285
0.0624519
0.0623864
0.0622914
0.0621846
0.0620732
0.0619631
0.0618592
0.0617641
0.0616797
0.0616074
0.0615486
0.0615043
0.0614748
0.0614604
0.0614618
0.0614786
0.0615112
0.0615608
0.0616277
0.0617122
0.0618164
0.0619415
0.062087
0.0622526
0.062439
0.0626483
0.0628805
0.0631351
0.0634128
0.063713
0.064029
0.0643546
0.0646916
0.0650303
0.0653591
0.0656769
0.0659564
0.0662141
0.0664113
0.0610859
0.0609895
0.0608924
0.0607958
0.0607022
0.0606127
0.060529
0.0604516
0.06038
0.0603124
0.0602493
0.0601912
0.060139
0.0600936
0.0600556
0.0600257
0.0600046
0.0599926
0.0599899
0.0599971
0.0600147
0.0600433
0.0600831
0.0601333
0.0601936
0.0602656
0.0603498
0.060446
0.0605554
0.0606799
0.0608199
0.0609766
0.0611515
0.0613465
0.0615648
0.0618087
0.062081
0.0623857
0.0627208
0.0630832
0.0634747
0.0638934
0.0643319
0.064785
0.0652355
0.0656676
0.0660869
0.0664514
0.0667873
0.0670163
0.0592566
0.0592295
0.0592045
0.0591819
0.0591617
0.0591444
0.0591309
0.0591215
0.0591162
0.0591152
0.059119
0.0591285
0.0591436
0.0591642
0.0591903
0.0592223
0.0592601
0.0593034
0.0593526
0.0594083
0.0594703
0.0595375
0.0596099
0.0596875
0.0597702
0.0598597
0.0599581
0.0600648
0.0601807
0.0603084
0.0604489
0.0606059
0.0607834
0.0609841
0.0612145
0.0614808
0.0617825
0.0621249
0.0625082
0.0629334
0.0634041
0.0639101
0.0644296
0.0649744
0.0655264
0.0660259
0.0665079
0.0668898
0.0673087
0.0673541
0.0583565
0.0583794
0.0584043
0.0584315
0.0584609
0.058493
0.0585286
0.0585676
0.0586094
0.0586548
0.0587047
0.0587588
0.058816
0.0588759
0.0589384
0.0590035
0.059071
0.0591409
0.0592138
0.0592893
0.0593663
0.0594436
0.0595212
0.0596009
0.0596832
0.0597683
0.0598577
0.0599517
0.0600515
0.0601615
0.0602854
0.0604276
0.0605957
0.0607947
0.0610287
0.0613028
0.0616231
0.061999
0.062432
0.0629165
0.0634628
0.0640654
0.0646565
0.0652765
0.065936
0.0664528
0.0670077
0.0673383
0.0676083
0.0679172
0.0579256
0.0579843
0.0580449
0.0581077
0.0581727
0.0582401
0.0583098
0.0583815
0.0584556
0.058533
0.0586137
0.0586963
0.0587791
0.0588622
0.0589454
0.0590286
0.0591122
0.059196
0.0592792
0.0593603
0.0594395
0.0595167
0.0595917
0.0596662
0.0597406
0.0598127
0.059884
0.0599582
0.0600376
0.0601274
0.0602351
0.0603662
0.0605239
0.060713
0.0609449
0.0612281
0.0615777
0.0620047
0.062503
0.0630422
0.0636582
0.0643832
0.0650373
0.0656914
0.0664524
0.0669193
0.0674116
0.0679042
0.0683387
0.0686988
0.0577475
0.057833
0.0579215
0.0580126
0.058106
0.0582012
0.0582981
0.0583965
0.058497
0.0585993
0.0587017
0.0588027
0.0589019
0.0589996
0.0590959
0.0591901
0.0592815
0.0593692
0.0594521
0.0595301
0.0596045
0.0596759
0.0597431
0.0598062
0.0598657
0.05992
0.0599712
0.060027
0.0600923
0.0601682
0.0602579
0.0603698
0.0605166
0.0607104
0.0609577
0.061262
0.0616419
0.0621188
0.0626992
0.0632978
0.0639766
0.0648199
0.0655143
0.0661966
0.0669147
0.0676197
0.0682708
0.0688223
0.0692651
0.0696066
0.0579748
0.0580567
0.058146
0.0582417
0.0583425
0.0584482
0.0585569
0.0586666
0.0587761
0.058884
0.0589889
0.0590908
0.0591907
0.0592881
0.059382
0.059471
0.0595532
0.059628
0.059697
0.0597614
0.0598219
0.0598778
0.0599267
0.0599688
0.0600079
0.0600464
0.0600862
0.0601282
0.0601749
0.0602356
0.0603185
0.0604273
0.060576
0.0607821
0.0610364
0.0613744
0.0618086
0.0623631
0.0630421
0.0636798
0.0644548
0.0653136
0.066204
0.0670968
0.0679447
0.068716
0.0693803
0.0699138
0.0703271
0.0705972
0.0588812
0.0588934
0.0589215
0.0589665
0.059028
0.0591029
0.0591828
0.0592621
0.0593391
0.0594125
0.0594829
0.0595522
0.0596232
0.0596939
0.0597611
0.0598229
0.0598777
0.0599259
0.0599717
0.0600151
0.0600518
0.0600792
0.0601013
0.0601251
0.0601513
0.0601759
0.0602003
0.0602299
0.0602653
0.0603151
0.0603981
0.0605108
0.0606703
0.0609257
0.0612111
0.061603
0.0621062
0.0627353
0.0634996
0.0643688
0.0653328
0.0663514
0.0673857
0.0683879
0.0693009
0.0700992
0.0707383
0.0711887
0.071467
0.0715371
0.0600494
0.0599501
0.0598821
0.0598495
0.0598512
0.0598759
0.0599068
0.0599372
0.0599625
0.0599749
0.0599845
0.0600006
0.0600243
0.0600558
0.0600916
0.0601288
0.0601624
0.060186
0.0602082
0.060227
0.0602375
0.0602455
0.0602543
0.0602648
0.0602788
0.0602898
0.0602949
0.0603126
0.0603457
0.0603988
0.0604929
0.0606315
0.0608261
0.0611081
0.0614944
0.0620085
0.0626647
0.0634634
0.0644176
0.0655008
0.0666769
0.0678757
0.0690415
0.0701173
0.0710178
0.0717263
0.0721999
0.0724258
0.0724295
0.0721808
0.0609434
0.0607117
0.0605472
0.0604783
0.0604477
0.0603885
0.0603781
0.0604261
0.0604259
0.0603648
0.0603183
0.0602994
0.0602799
0.0602851
0.0603103
0.0603294
0.0603436
0.0603459
0.0603466
0.0603486
0.0603551
0.0603652
0.0603682
0.0603651
0.0603672
0.0603776
0.0603959
0.0604268
0.0604699
0.0605421
0.0606655
0.0608494
0.0611246
0.0615151
0.0620393
0.0627352
0.0636222
0.0646859
0.0659115
0.0672491
0.0686438
0.0699884
0.0712009
0.0722271
0.0729494
0.0733908
0.0735093
0.0733074
0.0727964
0.072048
0.061155
0.0610641
0.0609813
0.060911
0.0608452
0.0607849
0.0607363
0.060692
0.0606451
0.0606011
0.0605648
0.0605348
0.0605116
0.060502
0.0605043
0.0605052
0.060502
0.0604966
0.0604948
0.0604992
0.0605032
0.0605013
0.0604947
0.0604907
0.060498
0.0605136
0.0605308
0.060564
0.0606315
0.0607544
0.0609502
0.0612376
0.0616596
0.0622533
0.0630391
0.0640395
0.0652534
0.0666548
0.0681997
0.0697957
0.0713529
0.0727054
0.0737587
0.0744965
0.0747497
0.0746309
0.0740734
0.0731804
0.0717441
0.070447
0.0611905
0.0611433
0.0610976
0.0610519
0.0610064
0.060962
0.0609193
0.0608795
0.060843
0.0608085
0.0607753
0.0607463
0.0607229
0.0607044
0.0606875
0.0606687
0.0606499
0.0606354
0.0606273
0.0606211
0.0606105
0.0605993
0.0605968
0.0606024
0.0606114
0.060629
0.0606692
0.0607514
0.0608928
0.0611184
0.0614641
0.061974
0.0626918
0.0636488
0.0648449
0.0662796
0.0679187
0.0697061
0.0715281
0.0732299
0.0747311
0.0757603
0.0762554
0.0762919
0.0756231
0.0745704
0.0728747
0.071144
0.0677811
0.0665516
0.0612042
0.0611719
0.0611401
0.0611075
0.0610746
0.0610418
0.061011
0.0609822
0.0609538
0.0609258
0.0608993
0.0608756
0.0608547
0.0608342
0.0608124
0.06079
0.06077
0.0607536
0.060739
0.0607251
0.060714
0.0607094
0.060712
0.0607216
0.0607477
0.0608078
0.0609217
0.0611138
0.0614234
0.0618955
0.0625744
0.0635109
0.0647484
0.0662904
0.0680594
0.070013
0.0720576
0.0741009
0.0759171
0.0772873
0.0782512
0.0782876
0.0776043
0.076347
0.0742135
0.0718769
0.0682634
0.0661854
0.0580522
0.0611149
0.0612128
0.061189
0.0611654
0.0611406
0.0611154
0.0610912
0.0610679
0.0610448
0.061021
0.0609976
0.0609751
0.0609538
0.0609334
0.0609126
0.060891
0.0608705
0.0608524
0.0608366
0.0608223
0.0608119
0.0608091
0.0608166
0.0608392
0.0608919
0.0610003
0.061192
0.0615107
0.0620066
0.0627319
0.0637375
0.0650702
0.0667652
0.0688365
0.0711739
0.0734941
0.0757498
0.0778268
0.0796176
0.0806244
0.0807523
0.0804014
0.0783162
0.0759104
0.0724998
0.0685727
0.0649768
0.0584068
0.0615303
0.0630163
0.0637242
0.061216
0.0611957
0.061175
0.0611541
0.0611337
0.0611146
0.0610957
0.0610766
0.0610572
0.061038
0.0610193
0.0610014
0.0609836
0.0609655
0.0609483
0.0609333
0.0609199
0.0609092
0.0609051
0.0609122
0.060941
0.0610118
0.0611453
0.0613788
0.0617706
0.0623849
0.0632904
0.0645487
0.0661983
0.0682443
0.0706699
0.0734386
0.0764977
0.0793644
0.0814153
0.0830427
0.0842628
0.0847336
0.0831426
0.0808021
0.0782589
0.0720917
0.0688406
0.0614981
0.0577362
0.0607956
0.0629248
0.0638804
0.0634421
0.0631043
0.0612209
0.0612055
0.0611898
0.0611742
0.0611587
0.0611433
0.0611274
0.0611112
0.0610946
0.0610782
0.0610625
0.0610473
0.0610326
0.0610193
0.0610088
0.0610029
0.0610051
0.0610215
0.06106
0.0611449
0.0613597
0.0617809
0.0624215
0.0633676
0.0647332
0.0665686
0.068946
0.071834
0.0751077
0.078586
0.0821081
0.0855536
0.0888407
0.0901193
0.0893785
0.0887179
0.0881978
0.0855407
0.0772795
0.0727927
0.0672592
0.0534082
0.0577781
0.0598442
0.0619143
0.0627194
0.0622451
0.061741
0.061129
0.0604527
0.0612198
0.0612035
0.0611877
0.0611725
0.061158
0.0611444
0.0611317
0.0611205
0.0611119
0.061107
0.0611067
0.0611127
0.0611281
0.0611574
0.0612067
0.0612855
0.0614072
0.061588
0.0618459
0.0623855
0.0638434
0.0662152
0.0691487
0.0725742
0.0764749
0.0807788
0.0854881
0.0901843
0.0944659
0.0980261
0.100772
0.102626
0.103496
0.0950808
0.0881156
0.0847719
0.0837132
0.0731066
0.0488455
0.0532721
0.0566665
0.0589458
0.0607463
0.0603282
0.0600941
0.0597035
0.0591327
0.0584797
0.0577537
0.0569683
0.0612257
0.0612224
0.0612247
0.0612347
0.0612539
0.0612839
0.061327
0.0613862
0.0614657
0.0615703
0.0617062
0.0618811
0.0621036
0.0623845
0.0627376
0.0631799
0.0637278
0.0643941
0.0651758
0.068494
0.0796959
0.0923245
0.103094
0.111116
0.114842
0.117704
0.120699
0.12256
0.123335
0.12291
0.121174
0.117214
0.110123
0.0616331
0.0515102
0.0537174
0.0575579
0.0608464
0.0630458
0.0630524
0.0632362
0.0640008
0.0647505
0.0654621
0.0661835
0.0669842
0.0679297
0.0690415
0.0703689
0.0719373
0.0620188
0.0628219
0.0636329
0.0644508
0.0652751
0.0661072
0.0669486
0.0677999
0.0686614
0.0695329
0.0704134
0.0713
0.0721892
0.0730771
0.0739557
0.0748089
0.0756101
0.0762911
0.07665
0.136258
0.387253
0.338215
0.23
0.202056
0.181145
0.169155
0.16121
0.155016
0.150222
0.145924
0.141985
0.138215
0.134475
0.131623
0.135852
0.149746
0.163841
0.170313
0.170861
0.172739
0.177232
0.181239
0.18513
0.189381
0.193557
0.19809
0.203094
0.208462
0.214131
0.22001
0.27115
0.267829
0.264636
0.261552
0.25858
0.255711
0.252928
0.250223
0.247594
0.245036
0.242548
0.240127
0.237771
0.235477
0.233241
0.23106
0.228932
0.226855
0.224827
0.222845
0.220909
0.219018
0.217172
0.21537
0.213613
0.211899
0.210227
0.208597
0.207006
0.205454
0.203936
0.202452
0.200999
0.199576
0.198181
0.196815
0.195477
0.194168
0.192889
0.191629
0.190398
0.189193
0.188014
0.186855
0.185713
0.184582
0.183453
0.182314
0.181145
0.179906
0.269215
0.263058
0.257175
0.251534
0.246132
0.240962
0.236027
0.231313
0.226808
0.222496
0.218366
0.214406
0.210604
0.206948
0.203429
0.200038
0.196765
0.193605
0.190552
0.1876
0.184746
0.181988
0.179322
0.176746
0.174258
0.171852
0.169525
0.167272
0.165087
0.162963
0.160896
0.158879
0.156909
0.154983
0.153096
0.151251
0.149446
0.147683
0.145961
0.144299
0.142683
0.141113
0.139588
0.138106
0.136665
0.135259
0.133886
0.132539
0.131214
0.129904
0.269212
0.263038
0.257104
0.25142
0.245977
0.240764
0.23577
0.230985
0.226397
0.221993
0.217762
0.213692
0.209775
0.205999
0.202355
0.198836
0.195434
0.192142
0.188955
0.18587
0.182882
0.179989
0.177187
0.174475
0.171849
0.169306
0.166842
0.164452
0.162131
0.159876
0.15768
0.15554
0.153451
0.151413
0.149423
0.147481
0.145586
0.14374
0.141943
0.140197
0.1385
0.136852
0.135252
0.133699
0.132188
0.130719
0.129287
0.127891
0.126527
0.125194
0.269209
0.263086
0.257206
0.251571
0.246172
0.240998
0.236037
0.231276
0.226705
0.222314
0.218091
0.214026
0.21011
0.206333
0.202687
0.199162
0.195753
0.192454
0.189258
0.186162
0.183163
0.180257
0.177443
0.174717
0.172077
0.16952
0.167041
0.164636
0.162301
0.16003
0.15782
0.155666
0.153564
0.151513
0.14951
0.147555
0.145648
0.143791
0.141983
0.140224
0.138516
0.136857
0.135246
0.13368
0.132158
0.130676
0.129231
0.127822
0.126445
0.125099
0.269207
0.263087
0.257207
0.251565
0.246156
0.240971
0.235999
0.23123
0.226652
0.222256
0.21803
0.213965
0.210049
0.206274
0.20263
0.199109
0.195704
0.192409
0.189218
0.186126
0.183131
0.18023
0.17742
0.174698
0.172062
0.169508
0.167033
0.164632
0.1623
0.160033
0.157826
0.155675
0.153577
0.151528
0.149528
0.147577
0.145674
0.143819
0.142015
0.14026
0.138554
0.136897
0.135288
0.133723
0.132201
0.130719
0.129273
0.127861
0.126481
0.12513
0.269208
0.26309
0.257218
0.251586
0.246187
0.241012
0.236052
0.231294
0.226727
0.222341
0.218125
0.214068
0.21016
0.206391
0.202753
0.199237
0.195835
0.192542
0.189353
0.186262
0.183267
0.180365
0.177554
0.17483
0.172192
0.169635
0.167157
0.164753
0.162419
0.160149
0.157939
0.155785
0.153684
0.151633
0.14963
0.147677
0.145771
0.143915
0.142108
0.140351
0.138643
0.136984
0.135371
0.133802
0.132275
0.130787
0.129334
0.127915
0.126526
0.125167
0.269209
0.263092
0.257221
0.251589
0.246189
0.241013
0.23605
0.231288
0.226719
0.222329
0.218111
0.214051
0.210141
0.206371
0.202731
0.199214
0.195812
0.192518
0.189327
0.186236
0.18324
0.180337
0.177524
0.1748
0.17216
0.169603
0.167125
0.16472
0.162386
0.160116
0.157906
0.155752
0.153652
0.151602
0.149601
0.147649
0.145745
0.143891
0.142086
0.140331
0.138625
0.136967
0.135354
0.133785
0.132257
0.130767
0.129312
0.12789
0.126497
0.125134
0.26921
0.263094
0.257224
0.251592
0.246193
0.241018
0.236057
0.231298
0.226731
0.222346
0.218131
0.214075
0.21017
0.206404
0.202768
0.199255
0.195856
0.192565
0.189376
0.186286
0.183291
0.180388
0.177576
0.17485
0.17221
0.169652
0.167172
0.164766
0.16243
0.160158
0.157947
0.155792
0.15369
0.151639
0.149638
0.147685
0.145781
0.143927
0.142121
0.140365
0.138658
0.136998
0.135383
0.13381
0.132278
0.130783
0.129322
0.127893
0.126493
0.125122
0.26921
0.263096
0.257226
0.251593
0.246194
0.241018
0.236056
0.231296
0.226729
0.222343
0.218128
0.214073
0.210168
0.206402
0.202767
0.199253
0.195854
0.192562
0.189373
0.186282
0.183285
0.180381
0.177566
0.174839
0.172196
0.169636
0.167154
0.164747
0.162409
0.160136
0.157924
0.155768
0.153666
0.151615
0.149614
0.147662
0.145759
0.143905
0.142101
0.140346
0.138638
0.136978
0.135362
0.133788
0.132254
0.130755
0.12929
0.127856
0.126452
0.125076
0.269211
0.263098
0.257227
0.251594
0.246194
0.241017
0.236054
0.231295
0.226728
0.222344
0.21813
0.214077
0.210173
0.20641
0.202777
0.199265
0.195867
0.192577
0.189389
0.186298
0.183301
0.180396
0.177581
0.174852
0.172209
0.169647
0.167164
0.164755
0.162416
0.160142
0.157928
0.155772
0.153669
0.151617
0.149616
0.147665
0.145762
0.143909
0.142105
0.140349
0.138642
0.13698
0.135362
0.133786
0.132247
0.130744
0.129274
0.127834
0.126424
0.125042
0.269211
0.2631
0.257229
0.251594
0.246193
0.241015
0.236051
0.231292
0.226725
0.222341
0.218128
0.214076
0.210174
0.206411
0.202779
0.199269
0.195872
0.192582
0.189394
0.186303
0.183306
0.1804
0.177583
0.174853
0.172208
0.169645
0.16716
0.16475
0.162409
0.160133
0.157919
0.155761
0.153658
0.151606
0.149605
0.147654
0.145752
0.1439
0.142096
0.14034
0.138632
0.13697
0.13535
0.13377
0.132229
0.130721
0.129246
0.127801
0.126385
0.124997
0.269212
0.263101
0.25723
0.251594
0.246191
0.241012
0.236047
0.231286
0.226719
0.222335
0.218122
0.21407
0.210169
0.206407
0.202775
0.199265
0.195868
0.192578
0.189389
0.186298
0.183299
0.180392
0.177574
0.174842
0.172196
0.169631
0.167144
0.164732
0.162389
0.160112
0.157897
0.155739
0.153635
0.151584
0.149583
0.147633
0.145732
0.14388
0.142077
0.140322
0.138613
0.13695
0.135329
0.133747
0.132202
0.130691
0.129211
0.127761
0.12634
0.124947
0.269212
0.263102
0.25723
0.251593
0.246188
0.241008
0.236042
0.231281
0.226715
0.222331
0.21812
0.21407
0.210171
0.206412
0.202782
0.199274
0.195879
0.192591
0.189403
0.186312
0.183314
0.180406
0.177588
0.174856
0.172208
0.169642
0.167154
0.16474
0.162396
0.160118
0.157902
0.155743
0.153639
0.151587
0.149586
0.147636
0.145734
0.143882
0.142079
0.140323
0.138614
0.136949
0.135325
0.133739
0.13219
0.130673
0.129188
0.127732
0.126304
0.124904
0.269213
0.263103
0.257229
0.25159
0.246182
0.240998
0.23603
0.231266
0.226696
0.22231
0.218096
0.214044
0.210143
0.206382
0.202751
0.199241
0.195844
0.192553
0.189364
0.186271
0.183271
0.180362
0.177541
0.174808
0.172158
0.16959
0.167101
0.164686
0.162341
0.160063
0.157846
0.155687
0.153583
0.151532
0.149532
0.147583
0.145683
0.143833
0.142031
0.140276
0.138567
0.136902
0.135277
0.133691
0.132139
0.13062
0.129131
0.127671
0.126239
0.124834
0.269213
0.263103
0.257228
0.251587
0.246178
0.240995
0.236027
0.231266
0.2267
0.222317
0.218108
0.21406
0.210162
0.206405
0.202776
0.199269
0.195874
0.192585
0.189396
0.186304
0.183304
0.180394
0.177573
0.174838
0.172187
0.169618
0.167126
0.164709
0.162362
0.160081
0.157862
0.155701
0.153596
0.151543
0.149542
0.147591
0.14569
0.143839
0.142035
0.140279
0.138567
0.136899
0.13527
0.133679
0.132122
0.130597
0.129101
0.127634
0.126195
0.124783
0.269213
0.2631
0.257218
0.251566
0.246146
0.24095
0.235971
0.231198
0.226621
0.222229
0.218011
0.213957
0.210053
0.20629
0.202658
0.199147
0.195749
0.192458
0.189268
0.186174
0.183174
0.180264
0.177443
0.174708
0.172058
0.169489
0.166998
0.164582
0.162236
0.159956
0.157739
0.155579
0.153476
0.151425
0.149427
0.147478
0.14558
0.143731
0.14193
0.140176
0.138466
0.136799
0.135171
0.133579
0.132021
0.130495
0.128997
0.127528
0.126087
0.124673
0.269214
0.263099
0.257218
0.251573
0.246162
0.240976
0.236006
0.231241
0.226672
0.222286
0.218072
0.214019
0.210116
0.206352
0.202718
0.199204
0.195803
0.192508
0.189313
0.186215
0.18321
0.180295
0.177468
0.174728
0.172072
0.169498
0.167002
0.16458
0.162229
0.159944
0.157722
0.155558
0.15345
0.151396
0.149394
0.147443
0.145542
0.143691
0.141888
0.140131
0.138419
0.136749
0.135119
0.133525
0.131965
0.130436
0.128938
0.127469
0.12603
0.124621
0.269213
0.263054
0.257119
0.251422
0.245964
0.240738
0.235737
0.230949
0.226362
0.221964
0.217742
0.213686
0.209782
0.20602
0.20239
0.198882
0.195488
0.192202
0.189017
0.185929
0.182936
0.180034
0.177221
0.174494
0.171853
0.169293
0.166812
0.164405
0.16207
0.159801
0.157595
0.155448
0.153358
0.151322
0.149339
0.147408
0.145528
0.143698
0.141918
0.140186
0.138501
0.136859
0.135259
0.133699
0.132178
0.130693
0.129245
0.127837
0.12647
0.125153
0.269222
0.263082
0.257187
0.251527
0.24611
0.240933
0.235993
0.231277
0.226772
0.222466
0.218345
0.214397
0.210608
0.206968
0.203464
0.200086
0.196826
0.193676
0.19063
0.187682
0.184829
0.182067
0.179394
0.176809
0.174308
0.17189
0.169551
0.167288
0.165096
0.162971
0.160909
0.158907
0.156962
0.155071
0.153234
0.15145
0.14972
0.148043
0.146419
0.144849
0.143332
0.141866
0.140452
0.139088
0.137775
0.136515
0.135312
0.134176
0.133125
0.132194
0.271163
0.267829
0.264621
0.261539
0.258571
0.255703
0.252923
0.250224
0.247603
0.245054
0.242574
0.24016
0.237806
0.235512
0.233272
0.231085
0.22895
0.226863
0.224824
0.222833
0.220889
0.218991
0.217139
0.215333
0.21357
0.21185
0.210171
0.208531
0.206929
0.205361
0.203827
0.202326
0.200856
0.199416
0.198007
0.196628
0.195279
0.193958
0.192664
0.191397
0.190154
0.188933
0.187732
0.186549
0.185382
0.184229
0.183089
0.18196
0.18084
0.179725
0.133856
0.0597287
0.0638037
0.0790903
0.0972194
0.11196
0.118348
0.113985
0.101144
0.0883659
0.0817989
0.0742568
0.0792163
0.0667616
0.0609393
0.058404
0.0567567
0.0514449
0.0724665
0.299988
0.132755
0.0595117
0.0641107
0.0796355
0.0979199
0.112678
0.118917
0.114275
0.101179
0.0884316
0.0821057
0.0740713
0.0805148
0.0651939
0.0599897
0.0578543
0.0562293
0.0500101
0.0737115
0.303117
0.131646
0.0593245
0.0644243
0.0801824
0.0986164
0.113388
0.11948
0.114572
0.101254
0.0885711
0.0824565
0.0738444
0.0796751
0.0634857
0.0589963
0.0571809
0.0554525
0.0484367
0.0767097
0.306287
0.13054
0.0591732
0.0647454
0.0807319
0.0993096
0.114089
0.120037
0.114887
0.101389
0.0887932
0.0828633
0.0736458
0.0766955
0.0611385
0.0579043
0.0563216
0.054356
0.0477436
0.0813237
0.30945
0.129435
0.0590567
0.0650876
0.0813043
0.100008
0.114767
0.120538
0.115143
0.101574
0.0892397
0.0833123
0.0734468
0.0700424
0.0587475
0.0566254
0.0551757
0.0528388
0.0483943
0.0874166
0.312594
0.128283
0.0590948
0.065478
0.0819067
0.100703
0.115398
0.120984
0.115405
0.101866
0.0898212
0.0838381
0.0728413
0.0542971
0.0574619
0.0551529
0.0536871
0.0508937
0.0507374
0.0948354
0.315703
0.127114
0.0592078
0.065859
0.0824936
0.101382
0.116026
0.121452
0.115725
0.102237
0.0904758
0.0845182
0.0728345
0.0393452
0.0550191
0.0533146
0.0518208
0.0491024
0.0548631
0.1034
0.318761
0.125963
0.0593203
0.0662287
0.0830622
0.102045
0.116652
0.121946
0.116099
0.102674
0.0911866
0.0853388
0.0740271
0.0490834
0.0520059
0.0510287
0.0496835
0.0488029
0.0605191
0.112896
0.321753
0.124831
0.0594314
0.0665843
0.0836096
0.10269
0.117275
0.122468
0.116535
0.10318
0.0919439
0.0862046
0.0749085
0.0520672
0.0490252
0.0487312
0.0483558
0.0503603
0.0675278
0.123088
0.324665
0.123718
0.0595402
0.0669235
0.0841324
0.103312
0.117895
0.12302
0.11704
0.103771
0.0927885
0.0872358
0.0759882
0.0536581
0.046937
0.0473824
0.0485094
0.0538504
0.0756579
0.133732
0.327482
0.122627
0.059646
0.0672442
0.0846283
0.103913
0.118514
0.123604
0.117609
0.104434
0.0936991
0.0884378
0.0774714
0.0557848
0.0465309
0.0476106
0.0504889
0.0590956
0.0846441
0.144581
0.330189
0.121559
0.0597482
0.0675442
0.0850941
0.104489
0.119134
0.124229
0.118257
0.105182
0.0946778
0.0898084
0.0794055
0.0587895
0.0481895
0.0497011
0.0542828
0.0657755
0.0942081
0.155402
0.332774
0.120514
0.059846
0.0678211
0.0855261
0.105036
0.119751
0.124895
0.118988
0.106022
0.0957267
0.091343
0.0817879
0.0626984
0.0518226
0.0535763
0.0596389
0.0735151
0.104078
0.16599
0.335225
0.119495
0.0599381
0.0680718
0.0859209
0.105553
0.120364
0.125601
0.119804
0.106957
0.0968417
0.0930209
0.084573
0.067384
0.0570305
0.0589225
0.0661899
0.0819394
0.114002
0.176171
0.337529
0.118503
0.0600235
0.0682934
0.0862739
0.106035
0.120972
0.126349
0.120709
0.107992
0.0980151
0.094805
0.0876724
0.0726253
0.0633075
0.0653264
0.0735398
0.0907038
0.123762
0.185807
0.339676
0.117536
0.0601002
0.0684822
0.0865803
0.106477
0.121571
0.127136
0.121704
0.109131
0.0992397
0.0966477
0.0909726
0.0781783
0.0701706
0.0723682
0.0813165
0.0995122
0.133175
0.194796
0.341656
0.116596
0.0601672
0.0686357
0.0868354
0.106876
0.122157
0.127962
0.122793
0.11038
0.100511
0.0984985
0.0943564
0.08382
0.0772192
0.0796742
0.0891994
0.108124
0.142096
0.203072
0.343463
0.115683
0.0602233
0.0687512
0.0870356
0.107225
0.122726
0.128823
0.123974
0.111746
0.101831
0.100311
0.0977125
0.0893592
0.0841524
0.0869432
0.0969323
0.116356
0.150422
0.210597
0.345092
0.114798
0.0602682
0.0688259
0.0871777
0.107521
0.123275
0.129718
0.125247
0.113234
0.103206
0.102046
0.100943
0.0946436
0.0907607
0.0939496
0.104323
0.124075
0.158082
0.21736
0.34654
0.113943
0.0603017
0.0688575
0.0872574
0.10776
0.123799
0.130642
0.126612
0.114849
0.104646
0.103676
0.103968
0.0995715
0.0969109
0.100537
0.111238
0.131194
0.165038
0.223369
0.347806
0.113119
0.0603234
0.0688439
0.0872698
0.107936
0.124292
0.131591
0.128065
0.116597
0.106167
0.105189
0.106734
0.104078
0.102528
0.106608
0.117592
0.137664
0.171276
0.228648
0.348891
0.112328
0.0603327
0.0687819
0.0872093
0.108042
0.124749
0.13256
0.129603
0.118481
0.107793
0.106591
0.109203
0.108126
0.107577
0.112108
0.12334
0.143465
0.176801
0.233232
0.349797
0.111573
0.0603287
0.068668
0.0870686
0.108069
0.125159
0.13354
0.131222
0.120508
0.109548
0.107905
0.111363
0.111704
0.112053
0.117019
0.128469
0.1486
0.181635
0.237162
0.350528
0.110855
0.0603104
0.0684979
0.0868393
0.108006
0.125512
0.134521
0.132917
0.122681
0.111461
0.10917
0.113221
0.114824
0.115972
0.121347
0.132985
0.153088
0.185809
0.240481
0.351088
0.110176
0.0602772
0.0682668
0.0865115
0.107839
0.125793
0.135493
0.13468
0.125005
0.113563
0.110442
0.114802
0.117511
0.119364
0.125118
0.136916
0.156963
0.189364
0.24324
0.351485
0.10954
0.0602287
0.0679695
0.0860736
0.107552
0.125986
0.136439
0.136504
0.127485
0.115886
0.111785
0.116146
0.119804
0.122276
0.128369
0.140299
0.160269
0.192347
0.245488
0.351727
0.10895
0.060165
0.0676007
0.0855125
0.107126
0.126067
0.137343
0.13838
0.130125
0.118462
0.113277
0.117309
0.121753
0.124762
0.131151
0.143183
0.163057
0.194814
0.247283
0.351824
0.108411
0.0600868
0.0671554
0.084813
0.106537
0.126012
0.138181
0.140293
0.132926
0.121321
0.115
0.118358
0.12341
0.126889
0.133523
0.145628
0.165388
0.196824
0.248682
0.351788
0.10793
0.0599952
0.0666285
0.0839584
0.105758
0.125788
0.138925
0.142226
0.135887
0.12449
0.117041
0.119378
0.124831
0.128728
0.13555
0.147697
0.167328
0.198445
0.249749
0.351627
0.107511
0.059892
0.0660156
0.0829303
0.104756
0.125357
0.139537
0.144151
0.139
0.127993
0.119488
0.120475
0.126077
0.130349
0.137304
0.149461
0.168947
0.199744
0.250546
0.351348
0.107163
0.0597804
0.0653141
0.0817102
0.103496
0.124671
0.13997
0.146031
0.142247
0.131846
0.122429
0.12178
0.127205
0.131824
0.138857
0.150993
0.17032
0.200793
0.251139
0.350957
0.106892
0.0596646
0.0645247
0.0802805
0.101937
0.123672
0.140162
0.147813
0.145599
0.136055
0.125944
0.123453
0.128291
0.133224
0.140283
0.152371
0.171523
0.201671
0.251595
0.350457
0.106706
0.059551
0.0636522
0.078627
0.100034
0.122293
0.140034
0.149426
0.149006
0.140613
0.130106
0.125686
0.129453
0.134628
0.141662
0.153677
0.17264
0.202463
0.251991
0.349848
0.106614
0.0594485
0.0627078
0.076741
0.0977428
0.120454
0.139485
0.15077
0.152395
0.145492
0.134976
0.128697
0.130872
0.136133
0.143091
0.155004
0.173768
0.203274
0.252414
0.349129
0.106625
0.0593676
0.0617101
0.0746242
0.0950194
0.118064
0.138394
0.151713
0.155655
0.150633
0.140588
0.132712
0.132811
0.137862
0.144681
0.156462
0.175021
0.204232
0.252968
0.348295
0.106747
0.0593209
0.0606866
0.0722931
0.0918281
0.115025
0.136609
0.152083
0.158624
0.155924
0.146933
0.137945
0.135625
0.13993
0.146576
0.15819
0.17655
0.205496
0.25377
0.347336
0.106988
0.0593217
0.0596738
0.0697859
0.0881507
0.111238
0.133959
0.151659
0.161077
0.161179
0.153916
0.144538
0.139761
0.141967
0.148979
0.160384
0.178557
0.207257
0.254943
0.346231
0.107355
0.0593831
0.058716
0.0671697
0.0840011
0.106616
0.130252
0.150169
0.162704
0.166108
0.161325
0.152516
0.146155
0.146663
0.152218
0.163334
0.181305
0.209726
0.256598
0.344954
0.107851
0.0595166
0.0578619
0.0645446
0.079444
0.101108
0.125297
0.147294
0.163103
0.170288
0.168768
0.161485
0.154134
0.152274
0.156769
0.16742
0.185092
0.213092
0.258807
0.343461
0.108479
0.0597303
0.0571585
0.0620422
0.0746166
0.0947297
0.118934
0.142691
0.16178
0.173147
0.17571
0.171133
0.164037
0.160324
0.16315
0.173043
0.190183
0.217476
0.261571
0.3417
0.109239
0.0600284
0.0566426
0.0598125
0.0697463
0.0876087
0.111082
0.13603
0.158164
0.173937
0.181327
0.180685
0.175292
0.170691
0.171691
0.180463
0.196707
0.222876
0.264807
0.339597
0.110129
0.0604102
0.0563326
0.0579962
0.0651494
0.0800359
0.101813
0.127073
0.151675
0.171766
0.184525
0.189014
0.186953
0.182807
0.182191
0.189647
0.20458
0.22914
0.268334
0.337061
0.111142
0.0608707
0.0562234
0.0566877
0.0611875
0.0725068
0.0914533
0.115799
0.141846
0.165691
0.183947
0.194548
0.197622
0.196017
0.194692
0.200215
0.213481
0.235962
0.271881
0.33397
0.112271
0.0614019
0.0562878
0.0559046
0.0581693
0.0657022
0.0806841
0.102568
0.128526
0.154922
0.178121
0.195182
0.20473
0.207843
0.208368
0.211485
0.222863
0.24289
0.275093
0.330164
0.113506
0.0619945
0.0564841
0.0555827
0.05623
0.0603291
0.0705881
0.0883102
0.112162
0.1392
0.165954
0.189032
0.205814
0.215368
0.219416
0.22249
0.23199
0.249348
0.277544
0.325427
0.114832
0.0626394
0.0567672
0.0556019
0.0552732
0.0568119
0.0624591
0.0746484
0.0940662
0.119119
0.146993
0.174438
0.19825
0.215929
0.226659
0.232442
0.239956
0.254639
0.278721
0.319464
0.116235
0.0633283
0.0570991
0.0558298
0.055031
0.0550541
0.0572061
0.0636979
0.0767009
0.0967005
0.122224
0.150757
0.179322
0.204827
0.224636
0.237599
0.245604
0.257891
0.277989
0.311859
0.117694
0.0640535
0.0574537
0.0561601
0.0551991
0.054537
0.054722
0.0569873
0.0633347
0.0757974
0.0950567
0.120098
0.148907
0.17892
0.2072
0.230747
0.247355
0.257913
0.274483
0.301992
0.11919
0.0648072
0.0578162
0.0565267
0.0555466
0.0546687
0.0540577
0.0541826
0.0560153
0.0611841
0.0715775
0.0883377
0.111263
0.139148
0.170173
0.201928
0.231341
0.254787
0.266914
0.288851
0.120701
0.0655821
0.05818
0.0568984
0.0559473
0.0550446
0.0542175
0.0536134
0.0535455
0.0546499
0.0580038
0.0650604
0.0772129
0.0952426
0.119191
0.148582
0.182522
0.219548
0.257097
0.2707
0.122208
0.0663706
0.0585422
0.0572643
0.0563513
0.0554787
0.0546294
0.0538603
0.0532672
0.0530564
0.0535943
0.0554521
0.0593811
0.066208
0.0767421
0.0918206
0.112501
0.140386
0.178643
0.240731
0.123692
0.0671657
0.0589026
0.0576223
0.0567455
0.0559125
0.0550867
0.054302
0.0535923
0.0530442
0.0528195
0.0531935
0.0545537
0.0573278
0.0618291
0.0681034
0.075885
0.0846595
0.0937971
0.102808
0.125141
0.0679615
0.0592619
0.0579735
0.0571283
0.056334
0.0555391
0.054773
0.0540446
0.0533948
0.0529013
0.0527217
0.0531311
0.0545416
0.0574581
0.0623454
0.069474
0.0788566
0.0904212
0.104828
0.126545
0.0687529
0.0596215
0.0583204
0.0575018
0.0567431
0.0559775
0.0552372
0.0545194
0.0538455
0.0532504
0.0528162
0.0527136
0.0532561
0.0549571
0.0585208
0.0647446
0.0743586
0.0880456
0.107789
0.127895
0.0695348
0.0599826
0.0586648
0.0578687
0.0571416
0.0564014
0.0556859
0.0549858
0.054316
0.0536902
0.0531498
0.0527932
0.052828
0.0536823
0.0560981
0.0612246
0.0705122
0.0855822
0.109825
0.129185
0.0703018
0.0603456
0.0590082
0.05823
0.057531
0.056812
0.0561179
0.055435
0.0547769
0.0541481
0.0535679
0.0530931
0.0528489
0.0531597
0.0546879
0.0587364
0.0673526
0.0832266
0.111336
0.130409
0.0710482
0.0607092
0.0593506
0.0585862
0.0579113
0.0572097
0.0565341
0.0558655
0.0552196
0.0545968
0.0540045
0.0534772
0.0530847