/*--------------------------------*- C++ -*----------------------------------*\
  =========                 |
  \\      /  F ield         | OpenFOAM: The Open Source CFD Toolbox
   \\    /   O peration     | Website:  https://openfoam.org
    \\  /    A nd           | Version:  8
     \\/     M anipulation  |
\*---------------------------------------------------------------------------*/
FoamFile
{
    version     2.0;
    format      ascii;
    class       volScalarField;
    location    "400";
    object      epsilon;
}
// * * * * * * * * * * * * * * * * * * * * * * * * * * * * * * * * * * * * * //

dimensions      [0 2 -3 0 0 0 0];

internalField   nonuniform List<scalar> 
8400
(
0.211088
0.200061
0.18949
0.179362
0.169661
0.160371
0.151477
0.142965
0.134819
0.127028
0.119578
0.112457
0.105653
0.0991609
0.0930005
0.0871771
0.0816904
0.0765356
0.0717046
0.0671871
0.0629716
0.059046
0.0553979
0.0520141
0.0488811
0.0459853
0.0433132
0.0408507
0.0385841
0.0365004
0.0345869
0.0328307
0.0312206
0.0297457
0.0283958
0.0271617
0.0260346
0.0250071
0.0240718
0.0232217
0.0224511
0.0217536
0.0211232
0.0205544
0.0200416
0.0195787
0.0191599
0.0187796
0.0184325
0.0181128
0.0176135
0.0174696
0.0172951
0.0170981
0.0168833
0.0166553
0.0164188
0.0161787
0.0159405
0.0157097
0.0154927
0.0152957
0.0151254
0.0149839
0.0148596
0.0147472
0.0146429
0.0145448
0.0144519
0.0143644
0.0142824
0.0142063
0.0141365
0.0140737
0.0140183
0.0139706
0.0139312
0.0139006
0.013879
0.0138671
0.0138653
0.013874
0.0138936
0.013925
0.0139687
0.0140257
0.0140964
0.0141818
0.0142829
0.0144005
0.0145347
0.0146865
0.0148559
0.0150431
0.0152466
0.0154646
0.0156953
0.0159362
0.0161834
0.0164344
0.0137037
0.0136506
0.0135959
0.0135395
0.0134814
0.013422
0.0133618
0.0133014
0.0132418
0.0131838
0.0131277
0.0130737
0.0130221
0.0129731
0.0129269
0.0128837
0.0128438
0.0128075
0.0127752
0.0127473
0.0127242
0.012706
0.012693
0.0126857
0.0126845
0.0126894
0.0127007
0.0127192
0.0127451
0.0127784
0.0128201
0.0128708
0.0129313
0.0130025
0.0130855
0.0131816
0.013292
0.0134186
0.0135635
0.0137276
0.0139126
0.0141203
0.0143505
0.0146032
0.0148781
0.015173
0.015484
0.0158068
0.0161348
0.0164676
0.0122333
0.012214
0.0121944
0.0121748
0.0121555
0.0121365
0.012118
0.0121001
0.0120834
0.012068
0.0120542
0.0120421
0.0120319
0.0120241
0.0120186
0.0120157
0.0120155
0.0120184
0.0120245
0.0120338
0.0120465
0.0120626
0.0120823
0.0121057
0.012133
0.0121642
0.0121994
0.0122393
0.0122841
0.012334
0.0123901
0.0124533
0.0125246
0.0126056
0.0126974
0.0128027
0.012924
0.0130631
0.0132232
0.0134068
0.0136164
0.0138543
0.0141216
0.0144183
0.0147424
0.0150915
0.0154593
0.015841
0.0162248
0.0166077
0.0114522
0.0114596
0.0114672
0.0114753
0.0114839
0.0114931
0.0115029
0.0115136
0.0115256
0.0115388
0.0115534
0.0115694
0.0115872
0.0116069
0.0116284
0.0116518
0.0116772
0.0117047
0.0117342
0.0117655
0.0117986
0.0118338
0.0118707
0.0119093
0.0119495
0.0119918
0.0120358
0.012082
0.0121309
0.0121831
0.0122396
0.0123015
0.0123701
0.0124477
0.0125365
0.0126394
0.0127598
0.0129015
0.013068
0.0132632
0.0134902
0.0137521
0.0140513
0.0143854
0.0147523
0.0151514
0.0155638
0.0159925
0.0164165
0.0168082
0.0110345
0.0110613
0.0110887
0.0111166
0.0111451
0.0111743
0.0112042
0.0112351
0.0112672
0.0113002
0.0113342
0.0113697
0.0114067
0.0114451
0.0114847
0.0115256
0.0115676
0.0116107
0.0116546
0.0116994
0.0117447
0.0117903
0.0118364
0.0118822
0.0119278
0.0119737
0.0120196
0.0120656
0.0121126
0.0121615
0.012213
0.0122687
0.0123304
0.0124012
0.0124837
0.0125819
0.0127
0.0128431
0.0130163
0.0132256
0.0134711
0.0137574
0.014092
0.0144657
0.0148709
0.0153194
0.0157703
0.016222
0.0166779
0.0171274
0.0107801
0.0108225
0.0108659
0.0109102
0.0109554
0.0110015
0.0110485
0.0110964
0.0111452
0.0111948
0.0112455
0.0112973
0.0113499
0.0114033
0.0114572
0.0115115
0.011566
0.0116205
0.0116748
0.0117286
0.0117816
0.0118334
0.0118839
0.0119328
0.0119798
0.0120256
0.0120704
0.0121136
0.0121561
0.0121993
0.0122443
0.012293
0.0123474
0.0124113
0.0124895
0.012585
0.0127033
0.0128509
0.0130351
0.0132662
0.0135364
0.0138523
0.0142267
0.0146431
0.0150863
0.0155626
0.0160654
0.0165858
0.017109
0.0176197
0.0107255
0.0107655
0.0108095
0.0108579
0.0109099
0.0109648
0.011022
0.0110813
0.0111422
0.0112044
0.0112676
0.0113313
0.0113951
0.0114586
0.0115218
0.0115843
0.011646
0.0117065
0.0117654
0.0118224
0.0118773
0.0119296
0.0119795
0.0120269
0.0120717
0.0121142
0.0121539
0.0121913
0.0122284
0.0122651
0.0123026
0.0123447
0.0123931
0.0124529
0.0125304
0.0126265
0.0127511
0.0129101
0.0131128
0.0133766
0.0136768
0.0140308
0.0144417
0.014908
0.0154256
0.0159842
0.0165688
0.0171643
0.0177498
0.0183082
0.0111748
0.0111616
0.0111592
0.0111696
0.0111908
0.0112216
0.0112608
0.0113071
0.0113584
0.0114133
0.0114704
0.0115289
0.0115878
0.0116465
0.0117046
0.0117615
0.0118171
0.0118711
0.0119225
0.0119716
0.0120191
0.0120647
0.0121073
0.0121465
0.0121832
0.012219
0.0122521
0.0122812
0.0123114
0.0123423
0.0123735
0.0124103
0.012455
0.0125141
0.0125965
0.0126995
0.012838
0.0130183
0.01325
0.013543
0.0139013
0.01433
0.0148285
0.0153902
0.0160069
0.0166621
0.0173335
0.0179989
0.0186287
0.0192026
0.0121331
0.0120485
0.0119778
0.0119216
0.0118778
0.0118507
0.0118376
0.0118345
0.0118423
0.0118585
0.0118795
0.0119055
0.0119365
0.011969
0.012001
0.0120323
0.012064
0.0120964
0.0121268
0.0121568
0.0121882
0.0122187
0.0122472
0.012274
0.0122988
0.0123245
0.0123503
0.0123718
0.0123946
0.0124199
0.0124474
0.012482
0.0125274
0.0125919
0.0126819
0.0128059
0.0129753
0.0132026
0.0134974
0.0138688
0.0143232
0.0148621
0.0154808
0.0161665
0.0169034
0.0176629
0.0184129
0.0191212
0.0197488
0.0202698
0.0128525
0.0127498
0.0126739
0.012599
0.0125213
0.0124776
0.0124379
0.0123839
0.0123522
0.0123398
0.0123222
0.0123074
0.0123077
0.0123121
0.0123141
0.0123173
0.0123207
0.0123261
0.0123322
0.012341
0.0123527
0.0123652
0.0123784
0.0123926
0.0124071
0.012423
0.0124402
0.0124568
0.0124759
0.0124991
0.0125278
0.0125682
0.0126259
0.0127093
0.0128298
0.0129994
0.0132314
0.0135407
0.0139393
0.0144365
0.0150346
0.0157305
0.0165094
0.0173446
0.0182095
0.0190556
0.0198381
0.0205119
0.0210343
0.0213703
0.0131153
0.0130585
0.0130051
0.0129533
0.0129046
0.0128586
0.0128135
0.0127705
0.012731
0.0126939
0.0126588
0.0126274
0.0126007
0.0125771
0.0125561
0.0125396
0.0125273
0.0125185
0.0125125
0.0125092
0.012509
0.0125111
0.0125149
0.0125208
0.0125281
0.0125367
0.0125474
0.0125605
0.012577
0.0126006
0.0126371
0.0126924
0.0127765
0.0129022
0.0130842
0.0133393
0.013684
0.0141344
0.0147019
0.0153916
0.0161962
0.0171021
0.0180717
0.0190542
0.0200081
0.020856
0.0215441
0.0220148
0.0222423
0.0221473
0.0131408
0.0131092
0.013078
0.0130473
0.0130171
0.0129873
0.0129581
0.0129295
0.0129014
0.0128741
0.0128481
0.012823
0.012799
0.0127764
0.0127554
0.0127364
0.0127191
0.0127034
0.0126896
0.0126781
0.0126696
0.0126632
0.0126578
0.0126543
0.0126536
0.0126554
0.0126604
0.0126711
0.0126913
0.0127268
0.0127861
0.0128805
0.0130258
0.0132408
0.0135462
0.0139621
0.014506
0.0151905
0.0160212
0.0169898
0.0180627
0.019208
0.0203441
0.0213808
0.0222694
0.022893
0.0232199
0.0231535
0.0228139
0.0218192
0.0131497
0.013128
0.0131065
0.0130852
0.013064
0.0130432
0.0130225
0.0130018
0.0129814
0.0129615
0.012942
0.0129227
0.0129039
0.0128858
0.0128683
0.0128513
0.0128351
0.0128199
0.0128062
0.0127936
0.0127822
0.0127724
0.0127641
0.0127582
0.0127553
0.0127569
0.0127665
0.0127891
0.012832
0.0129077
0.0130317
0.0132238
0.0135076
0.0139103
0.0144584
0.0151682
0.0160498
0.0171013
0.0183094
0.0196278
0.0209657
0.0222736
0.0233759
0.0241538
0.0245876
0.0245123
0.024052
0.0228724
0.0217841
0.0188406
0.0131555
0.0131397
0.0131238
0.0131079
0.0130921
0.0130762
0.0130603
0.0130444
0.0130286
0.0130129
0.0129972
0.0129817
0.0129664
0.0129512
0.0129363
0.0129216
0.0129074
0.0128937
0.0128809
0.0128689
0.0128583
0.0128492
0.0128424
0.0128398
0.012844
0.0128598
0.0128959
0.0129648
0.013084
0.0132762
0.0135683
0.0139909
0.0145776
0.0153639
0.0163729
0.0175932
0.0189997
0.0205523
0.0221969
0.0237826
0.0251167
0.026198
0.0266275
0.0264446
0.0256903
0.0241685
0.0225691
0.0194335
0.0180339
0.0171766
0.0131575
0.0131441
0.0131306
0.0131173
0.0131041
0.0130908
0.0130777
0.0130646
0.0130515
0.0130385
0.0130256
0.0130129
0.0130004
0.012988
0.0129758
0.0129637
0.0129521
0.0129412
0.012931
0.0129218
0.0129146
0.0129111
0.0129149
0.0129322
0.0129717
0.0130488
0.013185
0.0134088
0.0137554
0.0142641
0.0149744
0.0159258
0.0171559
0.0186975
0.0205232
0.0225009
0.024521
0.0264959
0.0283051
0.0294541
0.0297955
0.0296388
0.0278683
0.0258151
0.0230024
0.019598
0.0178549
0.0170071
0.0165544
0.0160919
0.013161
0.013151
0.0131409
0.0131308
0.0131206
0.0131104
0.0131001
0.0130898
0.0130794
0.013069
0.0130586
0.0130482
0.0130379
0.0130277
0.0130175
0.0130077
0.0129985
0.0129907
0.0129852
0.012984
0.0129902
0.0130123
0.0130697
0.0131859
0.0133838
0.0137068
0.014199
0.0149199
0.0159282
0.0172766
0.0190015
0.0211223
0.023641
0.026527
0.029439
0.0318842
0.0337651
0.035165
0.035849
0.0338873
0.0311938
0.0284266
0.0217746
0.0190094
0.0172633
0.0163266
0.0158132
0.0153245
0.014849
0.0143657
0.0131601
0.0131494
0.0131388
0.0131285
0.0131183
0.0131083
0.0130985
0.013089
0.0130797
0.0130707
0.0130622
0.0130545
0.0130478
0.0130428
0.0130405
0.0130428
0.013052
0.0130718
0.0131073
0.0131657
0.0132559
0.0134325
0.0138123
0.0144539
0.0153977
0.016728
0.0184887
0.0207901
0.023684
0.0271737
0.0311846
0.035581
0.0401629
0.0445482
0.0464159
0.0455165
0.043444
0.0413794
0.0380789
0.0257569
0.0203482
0.0176889
0.0161215
0.0153173
0.0146471
0.0141011
0.0136179
0.0131502
0.0126879
0.012222
0.0131643
0.013161
0.0131599
0.0131617
0.0131665
0.0131742
0.013185
0.0131988
0.0132157
0.0132365
0.0132619
0.0132935
0.0133341
0.0133873
0.0134584
0.0135537
0.0136816
0.0138523
0.014078
0.0143713
0.0147431
0.0157745
0.0182276
0.0217748
0.0266274
0.0324721
0.038893
0.0461011
0.0537439
0.0614553
0.068722
0.074973
0.0793844
0.0796545
0.0599022
0.0394189
0.0285112
0.0231459
0.0204369
0.0189373
0.0178344
0.0170236
0.0165362
0.016292
0.0162246
0.0163003
0.0165054
0.0168464
0.0173341
0.017993
0.013679
0.0142188
0.0147783
0.0153577
0.0159579
0.0165796
0.0172233
0.0178898
0.0185799
0.0192943
0.0200339
0.0207991
0.0215899
0.022405
0.0232432
0.0241044
0.0249866
0.0258857
0.0267924
0.0276809
0.0284831
0.0492797
0.100966
0.137587
0.171725
0.193578
0.205309
0.209942
0.208615
0.203893
0.196775
0.188244
0.178952
0.169274
0.159457
0.153835
0.15744
0.170409
0.186672
0.200417
0.213082
0.227569
0.242891
0.259278
0.277115
0.296329
0.317425
0.341092
0.367671
0.397459
1.14672
1.10475
1.06554
1.02889
0.99444
0.961877
0.930931
0.901482
0.873428
0.846678
0.821147
0.796761
0.773452
0.751161
0.729835
0.709426
0.689891
0.671189
0.653281
0.636132
0.619703
0.60396
0.588865
0.574381
0.560473
0.547107
0.534251
0.521878
0.509962
0.498482
0.487422
0.476766
0.466504
0.456627
0.447124
0.437988
0.429205
0.420764
0.412649
0.404841
0.397272
0.389916
0.382748
0.375743
0.368874
0.362112
0.355419
0.348737
0.341962
0.3349
1.12221
1.04682
0.978039
0.915133
0.857593
0.80492
0.756674
0.712381
0.671628
0.634055
0.599348
0.567227
0.537452
0.50981
0.484112
0.460195
0.437912
0.417128
0.397723
0.379585
0.362611
0.346705
0.331776
0.317742
0.304528
0.292066
0.280295
0.269164
0.258628
0.248646
0.239188
0.230224
0.221727
0.213675
0.206041
0.198797
0.191917
0.18537
0.179129
0.173166
0.16749
0.162078
0.156909
0.151964
0.147228
0.142684
0.138321
0.134126
0.130085
0.126182
1.12207
1.0464
0.977222
0.913982
0.856084
0.803
0.754243
0.709372
0.667995
0.62977
0.594395
0.561606
0.531169
0.502878
0.476551
0.452026
0.429156
0.407811
0.387869
0.369221
0.351763
0.335401
0.320047
0.305619
0.292044
0.279254
0.267191
0.2558
0.245035
0.234856
0.225226
0.216116
0.207494
0.199336
0.191615
0.184308
0.177389
0.170833
0.164615
0.158711
0.153098
0.147756
0.142664
0.137807
0.133171
0.128742
0.124512
0.120472
0.116613
0.112928
1.1221
1.04692
0.978323
0.915607
0.858139
0.805372
0.756828
0.712083
0.670766
0.632548
0.597139
0.564285
0.53376
0.505365
0.478922
0.454272
0.431274
0.409799
0.389726
0.370949
0.353365
0.33688
0.321408
0.306866
0.293183
0.28029
0.268129
0.256646
0.245794
0.235533
0.225828
0.216646
0.207959
0.199739
0.191962
0.1846
0.177628
0.171022
0.164755
0.158804
0.153146
0.147761
0.142629
0.137733
0.133061
0.128598
0.124336
0.120266
0.116378
0.112667
1.12211
1.04694
0.978302
0.915511
0.857956
0.805104
0.756485
0.711684
0.670328
0.632089
0.596674
0.563825
0.533314
0.504939
0.478521
0.4539
0.430932
0.409487
0.389447
0.3707
0.353147
0.336692
0.321249
0.306735
0.293079
0.280212
0.268075
0.256614
0.245784
0.235543
0.225856
0.216692
0.208021
0.199817
0.192052
0.184702
0.17774
0.171141
0.164879
0.158932
0.153276
0.147891
0.142757
0.137859
0.133183
0.128715
0.124447
0.120369
0.116472
0.112749
1.12211
1.04698
0.978418
0.915722
0.858275
0.805535
0.757022
0.712314
0.671036
0.632859
0.59749
0.564673
0.534181
0.505814
0.479394
0.454763
0.431779
0.410314
0.390249
0.371476
0.353896
0.337413
0.321942
0.307401
0.293718
0.280825
0.268663
0.257178
0.246325
0.236062
0.226354
0.217169
0.208479
0.200256
0.192472
0.185103
0.178122
0.171503
0.165221
0.159253
0.153576
0.148169
0.143013
0.138093
0.133394
0.128905
0.124614
0.120513
0.116594
0.112847
1.1221
1.04698
0.978433
0.915749
0.858306
0.805561
0.757036
0.71231
0.671012
0.632812
0.597421
0.564581
0.534069
0.505683
0.479246
0.4546
0.431604
0.410129
0.390057
0.371279
0.353696
0.337214
0.321745
0.307209
0.293532
0.280647
0.268494
0.257019
0.246176
0.235924
0.226227
0.217054
0.208374
0.200161
0.192387
0.185026
0.178051
0.171437
0.165159
0.159193
0.153516
0.148109
0.142951
0.138029
0.133327
0.128834
0.124539
0.120434
0.116509
0.112755
1.12209
1.04698
0.978439
0.915776
0.858358
0.805641
0.757147
0.712452
0.671183
0.633009
0.597641
0.564821
0.534322
0.505946
0.479516
0.454873
0.431876
0.410398
0.390321
0.371538
0.353949
0.33746
0.321984
0.307441
0.293758
0.280867
0.268708
0.257228
0.24638
0.236123
0.226422
0.217244
0.20856
0.200341
0.19256
0.185191
0.178208
0.171584
0.165294
0.159315
0.153625
0.148202
0.14303
0.138092
0.133374
0.128866
0.124555
0.120434
0.116493
0.112723
1.12209
1.04697
0.978432
0.915779
0.858373
0.805668
0.757182
0.712493
0.671227
0.633052
0.597679
0.564851
0.534343
0.505955
0.47951
0.454853
0.431842
0.41035
0.390261
0.371467
0.353868
0.337372
0.321891
0.307345
0.293661
0.28077
0.268612
0.257135
0.24629
0.236038
0.226342
0.217169
0.20849
0.200276
0.192499
0.185132
0.17815
0.171525
0.165234
0.159252
0.153557
0.14813
0.142951
0.138007
0.133283
0.128768
0.124452
0.120324
0.116376
0.112599
1.12209
1.04696
0.978423
0.915776
0.85838
0.805686
0.757213
0.712536
0.67128
0.633114
0.597748
0.564924
0.534418
0.50603
0.479584
0.454924
0.431909
0.410412
0.390317
0.371518
0.353915
0.337415
0.321931
0.307383
0.293696
0.280805
0.268647
0.257171
0.246328
0.236077
0.226383
0.217212
0.208534
0.20032
0.192542
0.185172
0.178186
0.171556
0.165257
0.159267
0.153563
0.148125
0.142936
0.137981
0.133246
0.12872
0.124393
0.120254
0.116295
0.112506
1.12209
1.04695
0.978411
0.915767
0.858377
0.805691
0.757227
0.712557
0.671307
0.633146
0.597782
0.564959
0.534452
0.50606
0.479609
0.454941
0.431919
0.410415
0.390313
0.371507
0.353898
0.337393
0.321906
0.307356
0.293668
0.280776
0.26862
0.257145
0.246304
0.236057
0.226366
0.217198
0.208522
0.200309
0.192531
0.18516
0.178171
0.171537
0.165233
0.159236
0.153523
0.148077
0.142879
0.137914
0.13317
0.128635
0.124299
0.120151
0.116183
0.112385
1.12208
1.04694
0.978396
0.915753
0.858365
0.805683
0.757223
0.712557
0.671309
0.633148
0.597783
0.564956
0.534442
0.506043
0.479583
0.454906
0.431874
0.41036
0.39025
0.371437
0.353821
0.337311
0.32182
0.307268
0.29358
0.280689
0.268534
0.257062
0.246226
0.235983
0.226297
0.217133
0.208461
0.200251
0.192475
0.185105
0.178115
0.171479
0.165171
0.159169
0.153451
0.147998
0.142793
0.137821
0.13307
0.128528
0.124185
0.120031
0.116057
0.112251
1.12208
1.04692
0.978378
0.915732
0.858346
0.805668
0.757214
0.712557
0.671319
0.633168
0.597812
0.564993
0.534486
0.506091
0.479634
0.454959
0.431928
0.410413
0.390302
0.371487
0.35387
0.337358
0.321865
0.307311
0.293622
0.280731
0.268576
0.257105
0.24627
0.236028
0.226342
0.217178
0.208505
0.200293
0.192513
0.185139
0.178143
0.171499
0.165182
0.15917
0.153441
0.147976
0.142759
0.137776
0.133013
0.12846
0.124105
0.11994
0.115954
0.112137
1.12207
1.04691
0.978351
0.915692
0.858291
0.805599
0.75713
0.712456
0.6712
0.633031
0.597655
0.564817
0.534292
0.50588
0.479407
0.454718
0.431675
0.410151
0.390033
0.371213
0.353592
0.337079
0.321588
0.307037
0.293352
0.280467
0.26832
0.256858
0.246032
0.2358
0.226124
0.21697
0.208307
0.200103
0.192331
0.184963
0.177971
0.17133
0.165015
0.159004
0.153274
0.147808
0.14259
0.137604
0.13284
0.128284
0.123928
0.119761
0.115772
0.111951
1.12207
1.04689
0.978321
0.915655
0.85826
0.805585
0.75714
0.712495
0.671269
0.633129
0.597778
0.564962
0.534453
0.506053
0.479589
0.454904
0.431862
0.410337
0.390214
0.371389
0.353761
0.337241
0.32174
0.307181
0.293488
0.280594
0.26844
0.25697
0.246137
0.235898
0.226215
0.217054
0.208383
0.200171
0.19239
0.185012
0.17801
0.171357
0.165029
0.159004
0.15326
0.14778
0.142547
0.137548
0.13277
0.128201
0.123832
0.119652
0.11565
0.111815
1.12207
1.04685
0.978199
0.915438
0.857941
0.805164
0.756625
0.711896
0.670599
0.6324
0.597004
0.564154
0.533622
0.50521
0.478741
0.454059
0.431025
0.409512
0.389406
0.3706
0.352994
0.336496
0.32102
0.306485
0.292818
0.279951
0.267822
0.256379
0.245572
0.235359
0.225701
0.216564
0.207916
0.199725
0.191964
0.184604
0.177617
0.170977
0.164661
0.158646
0.152912
0.14744
0.142215
0.137222
0.132451
0.127888
0.123525
0.119349
0.115352
0.111521
1.12207
1.04684
0.978216
0.91553
0.858129
0.805445
0.756988
0.712322
0.671068
0.632892
0.597504
0.564647
0.534099
0.505661
0.479161
0.454445
0.431374
0.409824
0.38968
0.370836
0.353193
0.33666
0.32115
0.306584
0.292887
0.279993
0.26784
0.256374
0.245547
0.235316
0.225642
0.216491
0.207829
0.199627
0.191854
0.184483
0.177485
0.170836
0.16451
0.158486
0.152744
0.147265
0.142036
0.137041
0.132268
0.127708
0.123349
0.119183
0.115198
0.111387
1.12207
1.04631
0.9771
0.913903
0.856084
0.803094
0.754429
0.709641
0.66833
0.630151
0.594798
0.562007
0.531546
0.503212
0.476827
0.452232
0.429287
0.407864
0.387847
0.369128
0.351608
0.335195
0.319801
0.305348
0.29176
0.278972
0.266921
0.255554
0.244823
0.234685
0.225102
0.216038
0.207461
0.199341
0.19165
0.184357
0.177438
0.170867
0.164619
0.158675
0.153015
0.147622
0.142483
0.137584
0.132918
0.128474
0.124246
0.120231
0.116427
0.112839
1.12217
1.04666
0.977908
0.915087
0.857643
0.805055
0.756896
0.712686
0.672006
0.634489
0.599815
0.567705
0.537919
0.510246
0.4845
0.460521
0.438164
0.417302
0.397817
0.379604
0.362564
0.346605
0.331641
0.317594
0.304389
0.29196
0.280246
0.269194
0.258757
0.248893
0.239567
0.230746
0.222401
0.214504
0.207028
0.199948
0.19324
0.186879
0.180845
0.175117
0.169679
0.164517
0.159623
0.154989
0.150614
0.146499
0.142653
0.139094
0.135865
0.133053
1.14663
1.10472
1.06562
1.02901
0.994602
0.962087
0.93118
0.901751
0.873693
0.846915
0.821337
0.79689
0.773513
0.75115
0.729755
0.709283
0.689691
0.67094
0.65299
0.635804
0.619343
0.603567
0.58844
0.573925
0.559987
0.546594
0.533716
0.521328
0.509406
0.49793
0.48688
0.476236
0.465981
0.456095
0.446557
0.43735
0.428451
0.419843
0.411507
0.403427
0.395589
0.387979
0.380586
0.373399
0.366407
0.359597
0.352955
0.346464
0.340103
0.333842
0.133136
0.0113243
0.0137979
0.0259758
0.0490677
0.0771393
0.093558
0.0843817
0.0568848
0.03465
0.0272207
0.0217808
0.0142707
0.0112467
0.0101045
0.0102435
0.0106473
0.0115107
0.0514614
1.63002
0.129972
0.0113046
0.0139615
0.0263871
0.0498689
0.0782761
0.0946698
0.0850932
0.0572583
0.0350608
0.0277831
0.022122
0.0132859
0.0106555
0.00982201
0.0101135
0.0107433
0.0128719
0.0627637
1.67533
0.126859
0.0113021
0.0141292
0.0268007
0.0506639
0.079394
0.095768
0.085842
0.0577395
0.035592
0.028415
0.0225319
0.011807
0.0101592
0.00958204
0.0100376
0.0109878
0.0151408
0.0777436
1.72077
0.123794
0.0113203
0.0143001
0.0272141
0.0514478
0.0804863
0.0968494
0.0866279
0.0583331
0.0362543
0.0291181
0.0230112
0.00935626
0.00971394
0.00941051
0.0100584
0.0114748
0.0186462
0.0967926
1.76569
0.120773
0.011363
0.0144708
0.027619
0.0522123
0.0815585
0.0979548
0.0875193
0.0590616
0.036999
0.0299002
0.0236052
0.0088634
0.00937291
0.00934122
0.0102385
0.0123739
0.0237852
0.120228
1.80983
0.117842
0.0114078
0.0146349
0.0280068
0.052952
0.0826249
0.0991159
0.0885379
0.0599222
0.037822
0.0307778
0.0245914
0.0112687
0.00921811
0.00943271
0.0106827
0.0139779
0.0309305
0.148178
1.85296
0.115007
0.0114522
0.0147913
0.0283754
0.0536648
0.0836857
0.100339
0.0896916
0.0609205
0.0387274
0.0317524
0.0257756
0.012899
0.00931872
0.00978197
0.0115548
0.0166276
0.0404057
0.180545
1.89482
0.112266
0.011496
0.014939
0.0287228
0.0543483
0.0847408
0.101628
0.0909888
0.0620635
0.0397166
0.0328238
0.0271842
0.0144846
0.0098327
0.0105643
0.0131119
0.0206098
0.0524564
0.216952
1.93519
0.109617
0.0115388
0.0150773
0.0290468
0.0549996
0.0857895
0.102986
0.0924372
0.06336
0.0407935
0.0339923
0.02886
0.016439
0.0109435
0.011979
0.015584
0.0261905
0.067166
0.256738
1.97383
0.107057
0.0115805
0.0152053
0.0293458
0.055616
0.086829
0.104415
0.0940441
0.06482
0.0419622
0.0352529
0.0308214
0.018928
0.0128374
0.0142187
0.019184
0.033543
0.0844199
0.29901
2.01056
0.104584
0.0116206
0.0153219
0.0296173
0.056194
0.0878569
0.105916
0.0958162
0.0664548
0.0432275
0.0365948
0.0330604
0.0220257
0.0156562
0.0174413
0.0240569
0.0426998
0.103903
0.34272
2.04518
0.102194
0.0116589
0.0154264
0.0298593
0.05673
0.0888695
0.107488
0.0977615
0.0682773
0.0445949
0.0379998
0.0355405
0.025727
0.0194499
0.0217253
0.0302396
0.0535325
0.125127
0.386764
2.07753
0.0998855
0.0116953
0.0155181
0.0300702
0.0572215
0.0898638
0.109133
0.0998866
0.0703014
0.0460718
0.0394439
0.0381949
0.0299494
0.0241515
0.0270397
0.0376406
0.0657613
0.147481
0.430062
2.10748
0.0976562
0.0117296
0.0155965
0.0302484
0.0576653
0.0908367
0.110848
0.102198
0.0725421
0.0476674
0.0409003
0.0409347
0.034549
0.0295889
0.0332409
0.0460471
0.0789902
0.170292
0.471636
2.13492
0.0955045
0.0117617
0.0156611
0.0303924
0.0580589
0.0917852
0.112634
0.104701
0.075014
0.0493935
0.0423424
0.0436573
0.0393429
0.0355182
0.0400953
0.0551567
0.0927574
0.192887
0.510656
2.15981
0.0934304
0.0117918
0.0157111
0.0305003
0.0583986
0.0927043
0.114485
0.107398
0.0777333
0.0512669
0.0437505
0.0462617
0.0441395
0.0416697
0.0473177
0.0646194
0.106586
0.214643
0.546472
2.18212
0.091432
0.0118196
0.015746
0.0305702
0.0586799
0.0935881
0.116398
0.110291
0.0807159
0.0533102
0.0451168
0.0486605
0.0487574
0.0477851
0.0546135
0.074081
0.120028
0.235024
0.578618
2.20187
0.0895086
0.0118448
0.0157646
0.0305991
0.0588974
0.094428
0.118363
0.113382
0.0839799
0.0555524
0.0464488
0.0507905
0.0530463
0.0536381
0.0617088
0.0832163
0.132696
0.253604
0.606805
2.2191
0.0876591
0.0118672
0.0157657
0.0305835
0.0590437
0.0952134
0.120371
0.116669
0.0875461
0.0580303
0.0477708
0.0526184
0.0568988
0.0590501
0.0683735
0.0917524
0.144279
0.270074
0.630901
2.23389
0.0858831
0.0118863
0.0157477
0.0305191
0.05911
0.0959318
0.122412
0.120154
0.0914373
0.0607882
0.0491233
0.05414
0.0602428
0.0638937
0.0744319
0.0994805
0.154555
0.284237
0.650905
2.24633
0.0841815
0.0119019
0.0157091
0.0304012
0.059086
0.0965677
0.124473
0.123838
0.0956799
0.063877
0.0505609
0.0553765
0.0630433
0.0680889
0.079764
0.106258
0.163382
0.296006
0.666932
2.25653
0.0825563
0.0119137
0.0156481
0.0302238
0.0589593
0.0971031
0.126537
0.127722
0.100303
0.0673546
0.0521498
0.0563714
0.0652983
0.0716002
0.0843037
0.112006
0.170698
0.305387
0.679195
2.26463
0.0810113
0.0119216
0.0155625
0.0299807
0.0587148
0.0975156
0.128585
0.131807
0.105342
0.0712866
0.0539678
0.0571864
0.0670322
0.0744337
0.0880339
0.116705
0.176511
0.312473
0.687989
2.2708
0.0795507
0.0119255
0.0154502
0.0296638
0.0583349
0.0977776
0.130594
0.136091
0.110832
0.0757473
0.0561041
0.0578999
0.068297
0.0766314
0.0909801
0.120386
0.180893
0.31743
0.693682
2.2752
0.0781802
0.0119252
0.0153086
0.0292645
0.057798
0.0978544
0.132529
0.140569
0.116817
0.0808227
0.0586616
0.0586052
0.0691636
0.0782629
0.0932027
0.123121
0.183963
0.320485
0.696703
2.27801
0.0769058
0.0119207
0.015135
0.0287729
0.0570792
0.0977033
0.134347
0.14523
0.123341
0.0866135
0.0617623
0.0594124
0.0697139
0.0794156
0.0947885
0.125017
0.185881
0.321915
0.697528
2.27937
0.0757346
0.0119119
0.0149269
0.0281787
0.05615
0.0972719
0.135989
0.150048
0.130454
0.0932385
0.0655537
0.060455
0.0700427
0.0801898
0.0958442
0.126206
0.186842
0.322042
0.696677
2.27941
0.0746746
0.0118992
0.014682
0.0274718
0.054979
0.0964973
0.137376
0.154982
0.1382
0.100837
0.0702182
0.0618999
0.0702651
0.0806945
0.0964914
0.126839
0.187065
0.321224
0.694715
2.27824
0.0737353
0.0118832
0.014399
0.0266427
0.0535327
0.0953049
0.138407
0.159965
0.146618
0.109571
0.0759831
0.0639604
0.070525
0.081051
0.0968667
0.12709
0.186799
0.319868
0.692261
2.27592
0.0729274
0.0118651
0.0140775
0.0256843
0.0517775
0.0936088
0.138951
0.16489
0.155724
0.119622
0.0831326
0.0669144
0.0710168
0.0814019
0.0971267
0.127154
0.186329
0.318439
0.690016
2.2725
0.0722633
0.0118469
0.0137189
0.0245926
0.0496821
0.0913138
0.138843
0.169599
0.165499
0.131185
0.0920178
0.0711281
0.0720137
0.0819254
0.0974594
0.127265
0.185995
0.317483
0.688782
2.26801
0.0717566
0.0118311
0.0133266
0.0233691
0.0472219
0.088319
0.13788
0.173865
0.175857
0.144448
0.103065
0.0770835
0.0738961
0.082854
0.0981032
0.127714
0.186211
0.317656
0.689484
2.26241
0.0714219
0.0118211
0.0129068
0.0220223
0.0443845
0.0845255
0.135822
0.177366
0.186608
0.159562
0.116774
0.0854124
0.0771957
0.0845069
0.099376
0.128879
0.187508
0.31975
0.693175
2.25559
0.0712747
0.0118212
0.0124684
0.0205705
0.0411765
0.079849
0.132393
0.179666
0.197398
0.176574
0.1337
0.0969396
0.0826667
0.0873455
0.101723
0.131278
0.190577
0.324729
0.701026
2.24736
0.0713311
0.0118366
0.0120241
0.0190428
0.0376319
0.0742377
0.127305
0.180201
0.207643
0.195328
0.154382
0.112716
0.0914003
0.0920735
0.105799
0.135645
0.196336
0.333752
0.714274
2.23739
0.0716077
0.0118733
0.0115893
0.0174802
0.0338189
0.0676972
0.120288
0.178282
0.216453
0.215317
0.179205
0.133994
0.104994
0.099859
0.112608
0.143032
0.205996
0.348176
0.734131
2.22524
0.0721211
0.0119377
0.011182
0.0159345
0.0298452
0.0603187
0.111151
0.173137
0.222569
0.235483
0.20814
0.162044
0.125706
0.113448
0.123668
0.15493
0.221109
0.369505
0.761629
2.21033
0.0728875
0.0120364
0.0108209
0.0144651
0.0258568
0.0523063
0.0998672
0.16402
0.224362
0.253986
0.240336
0.197653
0.155518
0.135478
0.141175
0.173341
0.243543
0.399279
0.797409
2.19189
0.0739212
0.0121751
0.0105239
0.0131329
0.0220281
0.0439906
0.0866722
0.150403
0.21997
0.268039
0.273617
0.240636
0.196007
0.167752
0.16798
0.200733
0.275356
0.438852
0.84148
2.16898
0.0752341
0.0123585
0.010305
0.0119928
0.0185417
0.0358139
0.0721487
0.132257
0.207652
0.273968
0.303947
0.289058
0.24848
0.213945
0.207286
0.239775
0.318493
0.489082
0.892978
2.14043
0.0768341
0.0125889
0.0101719
0.0110852
0.0155585
0.0282741
0.0572411
0.110339
0.186417
0.267736
0.325109
0.337682
0.311356
0.27571
0.261893
0.292762
0.374316
0.549951
0.949982
2.10479
0.078724
0.012867
0.010125
0.0104295
0.0131882
0.0218275
0.0431407
0.0863693
0.156831
0.246188
0.329367
0.377149
0.378615
0.352344
0.333421
0.360761
0.442972
0.620148
1.0094
2.06034
0.080901
0.0131912
0.0101564
0.0100198
0.0114681
0.0167795
0.0310212
0.0628596
0.121653
0.208934
0.309644
0.394269
0.437181
0.438643
0.42771
0.442647
0.522719
0.696691
1.06699
2.00497
0.0833566
0.0135589
0.0102518
0.00982621
0.0103599
0.0132108
0.0216931
0.042484
0.0856913
0.160103
0.263527
0.375643
0.464591
0.509212
0.519772
0.534042
0.60926
0.774648
1.11737
1.93622
0.0860762
0.0139669
0.0103939
0.00980123
0.00976414
0.0109813
0.0153585
0.0271455
0.0544108
0.108361
0.197407
0.316937
0.443245
0.542842
0.597669
0.626494
0.695241
0.846996
1.15422
1.85115
0.0890398
0.0144125
0.0105662
0.00989087
0.00954613
0.00980495
0.0116308
0.0172831
0.0316827
0.0638787
0.1261
0.227468
0.363419
0.509195
0.629438
0.70612
0.769832
0.904568
1.17037
1.74633
0.0922228
0.0148934
0.0107561
0.0100467
0.00956723
0.00934588
0.00980132
0.0119577
0.0181619
0.0334966
0.0673559
0.132928
0.241595
0.39213
0.561618
0.711399
0.817302
0.935698
1.15768
1.61757
0.0955957
0.0154077
0.0109556
0.0102339
0.00971363
0.0092993
0.00913762
0.00962621
0.0116795
0.0173762
0.0312517
0.0620453
0.123308
0.229921
0.388434
0.584171
0.777197
0.924385
1.10631
1.45936
0.0991251
0.0159532
0.0111609
0.0104329
0.00991178
0.00944376
0.00906332
0.00890299
0.00926205
0.0108138
0.01505
0.0252496
0.0481443
0.0957409
0.185412
0.335034
0.55035
0.806722
1.00031
1.26285
0.102773
0.0165268
0.0113703
0.0106352
0.0101253
0.00965515
0.00922042
0.00886547
0.00867656
0.00884595
0.00976883
0.0122637
0.0180623
0.0308331
0.058025
0.113618
0.221194
0.415237
0.739177
1.0052
0.106499
0.0171244
0.011583
0.0108377
0.0103406
0.00988218
0.00944336
0.00904564
0.00871538
0.0085162
0.00856713
0.00908327
0.010438
0.0132877
0.0188346
0.0294207
0.0499992
0.0922002
0.187759
0.469067
0.110258
0.0177406
0.0117985
0.0110396
0.0105539
0.0101094
0.00967791
0.00927605
0.00891144
0.00861246
0.00843225
0.00847253
0.00890735
0.010015
0.0122166
0.0161084
0.0224535
0.0320896
0.0458256
0.0650096
0.114007
0.0183695
0.012016
0.0112405
0.0107642
0.010333
0.00991067
0.00951404
0.00914264
0.00881048
0.00854179
0.00839097
0.00846371
0.00895194
0.0101907
0.0127493
0.0175839
0.0262501
0.0412527
0.0680521
0.117703
0.0190047
0.0122351
0.0114405
0.0109714
0.0105525
0.0101385
0.00974919
0.00937962
0.00903821
0.00873462
0.00849632
0.00838463
0.00852576
0.00917311
0.0108184
0.0144471
0.0220662
0.0378497
0.0731077
0.12131
0.01964
0.0124553
0.0116398
0.011176
0.0107681
0.0103613
0.009979
0.00961331
0.00927101
0.00895492
0.00867799
0.00847474
0.00842399
0.00871079
0.00973478
0.0124148
0.0189254
0.0346743
0.0768485
0.124796
0.0202706
0.0126767
0.0118391
0.0113789
0.0109809
0.0105799
0.0102036
0.00984165
0.00950065