/*--------------------------------*- C++ -*----------------------------------*\
  =========                 |
  \\      /  F ield         | OpenFOAM: The Open Source CFD Toolbox
   \\    /   O peration     | Website:  https://openfoam.org
    \\  /    A nd           | Version:  8
     \\/     M anipulation  |
\*---------------------------------------------------------------------------*/
FoamFile
{
    version     2.0;
    format      ascii;
    class       volScalarField;
    location    "400";
    object      p;
}
// * * * * * * * * * * * * * * * * * * * * * * * * * * * * * * * * * * * * * //

dimensions      [1 -1 -2 0 0 0 0];

internalField   nonuniform List<scalar> 
8400
(
29059.6
64075.6
98443.3
132682
167171
202238
238201
275410
314272
355243
398828
445530
495897
550499
609874
674524
744959
821725
905374
996428
1.09534e+06
1.20246e+06
1.31804e+06
1.44223e+06
1.57507e+06
1.71651e+06
1.86636e+06
2.02433e+06
2.18998e+06
2.36272e+06
2.54167e+06
2.72573e+06
2.9135e+06
3.10338e+06
3.29356e+06
3.48195e+06
3.66632e+06
3.84417e+06
4.0128e+06
4.16956e+06
4.31183e+06
4.43703e+06
4.54292e+06
4.62797e+06
4.69197e+06
4.73563e+06
4.75967e+06
4.76412e+06
4.75009e+06
4.72315e+06
30487.1
64230.4
98039
131889
166051
200777
236355
273124
311498
351970
395084
441365
491327
545443
604195
668111
737740
813655
896419
986526
1.08438e+06
1.19031e+06
1.30455e+06
1.42726e+06
1.5585e+06
1.69821e+06
1.84623e+06
2.00224e+06
2.1658e+06
2.33631e+06
2.51292e+06
2.69453e+06
2.87985e+06
3.06735e+06
3.25532e+06
3.44173e+06
3.62428e+06
3.80051e+06
3.96781e+06
4.1235e+06
4.26498e+06
4.38987e+06
4.49611e+06
4.58201e+06
4.64711e+06
4.69204e+06
4.7178e+06
4.72535e+06
4.71633e+06
4.69558e+06
32918.8
65669.3
98962.3
132302
165917
200059
235050
271262
309130
349095
391618
437195
486329
539523
597299
660216
728857
803790
885529
974510
1.0711e+06
1.17561e+06
1.28831e+06
1.40939e+06
1.53892e+06
1.67683e+06
1.82291e+06
1.97683e+06
2.13814e+06
2.30626e+06
2.48039e+06
2.65956e+06
2.84255e+06
3.02794e+06
3.21397e+06
3.39862e+06
3.57965e+06
3.75454e+06
3.92069e+06
4.07559e+06
4.21662e+06
4.34132e+06
4.44777e+06
4.53444e+06
4.6007e+06
4.64686e+06
4.67401e+06
4.68382e+06
4.67868e+06
4.6627e+06
33219.8
64869
97597.3
130431
163508
197042
231355
266842
303941
343090
384748
429390
477508
529615
586260
648020
715475
789158
869524
956974
1.05188e+06
1.15457e+06
1.26535e+06
1.38438e+06
1.51171e+06
1.64725e+06
1.79076e+06
1.94195e+06
2.1004e+06
2.26559e+06
2.43682e+06
2.61314e+06
2.79341e+06
2.97628e+06
3.16004e+06
3.3426e+06
3.52179e+06
3.69519e+06
3.86028e+06
4.01446e+06
4.155e+06
4.27962e+06
4.38663e+06
4.47454e+06
4.54269e+06
4.59141e+06
4.62166e+06
4.63511e+06
4.63456e+06
4.62271e+06
34558.5
66114.2
98552.6
130862
163261
196022
229513
264153
300381
338635
379359
423015
470092
521107
576616
637193
703393
775716
854605
940469
1.0337e+06
1.13462e+06
1.24348e+06
1.36042e+06
1.48545e+06
1.61848e+06
1.75934e+06
1.90776e+06
2.06339e+06
2.22568e+06
2.39396e+06
2.56739e+06
2.7449e+06
2.9252e+06
3.10665e+06
3.28719e+06
3.46459e+06
3.63637e+06
3.80009e+06
3.95326e+06
4.09293e+06
4.21685e+06
4.32381e+06
4.41243e+06
4.48203e+06
4.53327e+06
4.56705e+06
4.58474e+06
4.58712e+06
4.57333e+06
33513
64756
96940.3
128861
160715
192821
225591
259474
294916
332359
372252
415049
461232
511304
565808
625296
690310
761360
838916
923399
1.01517e+06
1.11451e+06
1.2216e+06
1.33658e+06
1.45946e+06
1.59021e+06
1.72867e+06
1.87457e+06
2.02751e+06
2.18695e+06
2.35224e+06
2.52263e+06
2.69732e+06
2.87522e+06
3.05475e+06
3.23362e+06
3.40936e+06
3.57952e+06
3.74183e+06
3.89413e+06
4.03305e+06
4.15607e+06
4.26263e+06
4.35178e+06
4.42275e+06
4.47638e+06
4.51224e+06
4.52903e+06
4.52771e+06
4.50935e+06
33794.9
65439.1
97559.5
129067
160287
191630
223584
256641
291270
327926
367051
409082
454467
503674
557213
615640
679530
749433
825832
909120
999605
1.09753e+06
1.20308e+06
1.31638e+06
1.43751e+06
1.5664e+06
1.70291e+06
1.84676e+06
1.99741e+06
2.15432e+06
2.31689e+06
2.48446e+06
2.65632e+06
2.83156e+06
3.00891e+06
3.18606e+06
3.36038e+06
3.52927e+06
3.6904e+06
3.84212e+06
3.98075e+06
4.10319e+06
4.20931e+06
4.2982e+06
4.36771e+06
4.41748e+06
4.4483e+06
4.46067e+06
4.45575e+06
4.43512e+06
32502.1
64491.7
96611.5
127824
158541
189272
220587
253025
287085
323223
361864
403411
448258
496832
549632
607228
670245
739261
814745
897047
986437
1.08315e+06
1.18741e+06
1.29936e+06
1.41906e+06
1.54648e+06
1.68153e+06
1.82408e+06
1.97352e+06
2.12918e+06
2.29024e+06
2.45588e+06
2.62542e+06
2.79812e+06
2.97331e+06
3.14889e+06
3.32205e+06
3.49012e+06
3.65062e+06
3.80196e+06
3.94042e+06
4.06129e+06
4.16339e+06
4.24598e+06
4.3084e+06
4.35116e+06
4.37554e+06
4.38304e+06
4.37519e+06
4.35415e+06
31687.4
64607.5
96818.4
127726
157927
188080
218833
250764
284383
320139
358439
399655
444136
492265
544554
601593
664038
732458
807276
888787
977239
1.07287e+06
1.17591e+06
1.28653e+06
1.40483e+06
1.53088e+06
1.6647e+06
1.80646e+06
1.95567e+06
2.1115e+06
2.27277e+06
2.4383e+06
2.60713e+06
2.77832e+06
2.95147e+06
3.12558e+06
3.29796e+06
3.46569e+06
3.62575e+06
3.7752e+06
3.91055e+06
4.02731e+06
4.12289e+06
4.19628e+06
4.24799e+06
4.28008e+06
4.29553e+06
4.29724e+06
4.28751e+06
4.2685e+06
31336.4
65667.2
97522.7
127972
157631
187285
217622
249218
282559
318077
356161
397154
441372
489149
541091
597938
660348
728782
803545
884837
972858
1.06784e+06
1.17004e+06
1.27969e+06
1.39699e+06
1.52209e+06
1.65496e+06
1.7958e+06
1.94493e+06
2.10182e+06
2.26493e+06
2.4324e+06
2.60273e+06
2.77467e+06
2.94745e+06
3.1206e+06
3.29205e+06
3.45915e+06
3.61844e+06
3.76587e+06
3.89666e+06
4.00625e+06
4.0914e+06
4.15125e+06
4.18782e+06
4.20542e+06
4.20949e+06
4.20459e+06
4.19447e+06
4.18006e+06
31081
66888.1
98746.8
129144
158728
188307
218606
250192
283537
319072
357183
398197
442387
489933
541413
598042
660756
729802
805233
887010
975193
1.06998e+06
1.17167e+06
1.28058e+06
1.39709e+06
1.52164e+06
1.65467e+06
1.79658e+06
1.94784e+06
2.10778e+06
2.27473e+06
2.44647e+06
2.6207e+06
2.79546e+06
2.96935e+06
3.14128e+06
3.31009e+06
3.47425e+06
3.63058e+06
3.77425e+06
3.89898e+06
3.99917e+06
4.07071e+06
4.11296e+06
4.12992e+06
4.12914e+06
4.11987e+06
4.10836e+06
4.10134e+06
4.09434e+06
28727.4
64973.9
98304.4
129363
159422
189452
220197
252246
286096
322186
360896
402562
447493
496042
549042
607720
672634
743847
821166
904339
993258
1.08802e+06
1.18892e+06
1.2965e+06
1.41163e+06
1.53545e+06
1.66917e+06
1.81368e+06
1.96926e+06
2.135e+06
2.30882e+06
2.4877e+06
2.66784e+06
2.84577e+06
3.01912e+06
3.18687e+06
3.34951e+06
3.50758e+06
3.65877e+06
3.79732e+06
3.91511e+06
4.00475e+06
4.06056e+06
4.08225e+06
4.07662e+06
4.05573e+06
4.03469e+06
4.01845e+06
4.0217e+06
4.02402e+06
14087
54884.5
93812.2
128015
160193
192260
225108
259340
295518
334155
375691
420521
469045
521729
579217
642168
710829
785035
864369
948347
1.03659e+06
1.12899e+06
1.22596e+06
1.32869e+06
1.43916e+06
1.5598e+06
1.69295e+06
1.84036e+06
2.00269e+06
2.17873e+06
2.36523e+06
2.55694e+06
2.74737e+06
2.93018e+06
3.10091e+06
3.25884e+06
3.4079e+06
3.55356e+06
3.69603e+06
3.82764e+06
3.93735e+06
4.016e+06
4.05487e+06
4.05594e+06
4.0292e+06
3.99149e+06
3.96824e+06
3.95283e+06
3.97756e+06
3.99023e+06
18996.5
57915.5
101166
139519
174746
209808
245966
283825
323977
366991
413358
463511
517880
576891
640908
710091
784224
862723
944703
1.02908e+06
1.1148e+06
1.20138e+06
1.2895e+06
1.38143e+06
1.48092e+06
1.59267e+06
1.7215e+06
1.87115e+06
2.04303e+06
2.2354e+06
2.44313e+06
2.65738e+06
2.86661e+06
3.05847e+06
3.22334e+06
3.36063e+06
3.48197e+06
3.60368e+06
3.73081e+06
3.85052e+06
3.94877e+06
4.01661e+06
4.03731e+06
4.02229e+06
3.98427e+06
3.94236e+06
3.9371e+06
3.93181e+06
3.9705e+06
4.00206e+06
-6522.81
41101
90999.8
134110
173399
212737
253745
297051
343270
393043
446937
505456
569054
638060
712566
792313
876600
964178
1.05317e+06
1.14115e+06
1.22564e+06
1.30497e+06
1.37942e+06
1.45243e+06
1.53084e+06
1.62395e+06
1.74112e+06
1.88983e+06
2.07353e+06
2.29027e+06
2.53203e+06
2.78467e+06
3.02844e+06
3.23976e+06
3.39611e+06
3.49607e+06
3.5675e+06
3.64938e+06
3.75413e+06
3.85182e+06
3.92994e+06
3.98721e+06
3.98652e+06
3.96692e+06
3.94094e+06
3.91545e+06
3.9353e+06
3.95426e+06
3.96495e+06
4.0108e+06
20696.9
63532.5
117434
165919
209712
253700
300089
349592
402871
460679
523695
592489
667489
748902
836637
930185
1.02839e+06
1.1291e+06
1.22895e+06
1.32334e+06
1.40689e+06
1.47449e+06
1.52432e+06
1.5612e+06
1.59722e+06
1.64985e+06
1.73754e+06
1.8746e+06
2.06793e+06
2.31554e+06
2.60603e+06
2.91857e+06
3.22255e+06
3.47674e+06
3.62655e+06
3.66776e+06
3.66203e+06
3.69127e+06
3.77448e+06
3.83562e+06
3.87915e+06
3.93036e+06
3.9174e+06
3.91232e+06
3.92625e+06
3.92809e+06
3.92855e+06
3.96663e+06
4.00673e+06
4.05003e+06
-27592.7
37279.5
101511
155442
204636
255028
308923
367102
430428
499951
576659
661327
754441
856169
966334
1.08423e+06
1.2082e+06
1.33501e+06
1.45927e+06
1.57297e+06
1.66517e+06
1.7229e+06
1.73803e+06
1.71577e+06
1.67687e+06
1.65496e+06
1.68403e+06
1.78912e+06
1.98161e+06
2.25884e+06
2.6059e+06
2.99658e+06
3.3916e+06
3.73058e+06
3.88366e+06
3.84698e+06
3.74657e+06
3.72793e+06
3.80679e+06
3.83168e+06
3.83884e+06
3.89552e+06
3.91114e+06
3.88424e+06
3.89428e+06
3.93187e+06
3.96809e+06
4.00563e+06
4.03644e+06
4.06234e+06
29818.8
85469.2
148086
203101
254627
308718
367659
432321
503722
583086
671557
769983
878817
998151
1.12783e+06
1.26737e+06
1.41551e+06
1.56924e+06
1.72235e+06
1.8639e+06
1.97616e+06
2.02906e+06
1.99772e+06
1.88651e+06
1.72885e+06
1.58799e+06
1.52279e+06
1.57085e+06
1.74338e+06
2.03382e+06
2.42419e+06
2.88829e+06
3.38868e+06
3.86346e+06
4.04633e+06
3.93748e+06
3.76837e+06
3.73126e+06
3.81344e+06
3.86451e+06
3.83017e+06
3.82838e+06
3.87494e+06
3.89711e+06
3.92894e+06
3.95997e+06
3.98585e+06
4.00956e+06
4.03127e+06
4.05179e+06
-51239.7
68415.4
144024
201242
258175
319460
386623
461152
544915
640086
748870
873145
1.01415e+06
1.17238e+06
1.34775e+06
1.53972e+06
1.74683e+06
1.96511e+06
2.18564e+06
2.39161e+06
2.55363e+06
2.59771e+06
2.48168e+06
2.22122e+06
1.87948e+06
1.57774e+06
1.39819e+06
1.37824e+06
1.51146e+06
1.78419e+06
2.17877e+06
2.6751e+06
3.24075e+06
3.8026e+06
4.0887e+06
4.04033e+06
3.81639e+06
3.68411e+06
3.71817e+06
3.80368e+06
3.84471e+06
3.87454e+06
3.90393e+06
3.92314e+06
3.94343e+06
3.96489e+06
3.98639e+06
4.00808e+06
4.02958e+06
4.0502e+06
85957.9
149914
190895
235470
287936
348012
415830
492277
578908
677907
791780
922757
1.07219e+06
1.24019e+06
1.4257e+06
1.62669e+06
1.83977e+06
2.05864e+06
2.27145e+06
2.45789e+06
2.58833e+06
2.59485e+06
2.46895e+06
2.19419e+06
1.84687e+06
1.56373e+06
1.41363e+06
1.41393e+06
1.54344e+06
1.78469e+06
2.12362e+06
2.54962e+06
3.0449e+06
3.56059e+06
3.93848e+06
3.99981e+06
3.89219e+06
3.80156e+06
3.79354e+06
3.82708e+06
3.85621e+06
3.87899e+06
3.90043e+06
3.92018e+06
3.9414e+06
3.96407e+06
3.9872e+06
4.00953e+06
4.0296e+06
4.0465e+06
4.60621e+06
4.6057e+06
4.60545e+06
4.60535e+06
4.6053e+06
4.60527e+06
4.60524e+06
4.60523e+06
4.60522e+06
4.60521e+06
4.6052e+06
4.60519e+06
4.60519e+06
4.60518e+06
4.60518e+06
4.60518e+06
4.60519e+06
4.6052e+06
4.60522e+06
4.60525e+06
4.60528e+06
4.60532e+06
4.60536e+06
4.60541e+06
4.60545e+06
4.60549e+06
4.60553e+06
4.60557e+06
4.6056e+06
4.60563e+06
4.60566e+06
4.60569e+06
4.60571e+06
4.60574e+06
4.60577e+06
4.6058e+06
4.60583e+06
4.60587e+06
4.6059e+06
4.60593e+06
4.60596e+06
4.60599e+06
4.60601e+06
4.60601e+06
4.60601e+06
4.60599e+06
4.60596e+06
4.60591e+06
4.60584e+06
4.60574e+06
4.60452e+06
4.6048e+06
4.60489e+06
4.60493e+06
4.60496e+06
4.60498e+06
4.605e+06
4.60502e+06
4.60503e+06
4.60503e+06
4.60504e+06
4.60504e+06
4.60504e+06
4.60504e+06
4.60504e+06
4.60505e+06
4.60506e+06
4.60507e+06
4.6051e+06
4.60513e+06
4.60516e+06
4.6052e+06
4.60525e+06
4.60529e+06
4.60534e+06
4.60538e+06
4.60542e+06
4.60546e+06
4.60549e+06
4.60552e+06
4.60555e+06
4.60558e+06
4.60561e+06
4.60563e+06
4.60566e+06
4.6057e+06
4.60573e+06
4.60577e+06
4.6058e+06
4.60583e+06
4.60587e+06
4.60589e+06
4.60591e+06
4.60592e+06
4.60591e+06
4.6059e+06
4.60587e+06
4.60583e+06
4.60576e+06
4.60568e+06
4.60487e+06
4.60501e+06
4.60508e+06
4.60509e+06
4.60509e+06
4.60508e+06
4.60507e+06
4.60506e+06
4.60505e+06
4.60505e+06
4.60504e+06
4.60503e+06
4.60502e+06
4.60501e+06
4.60501e+06
4.60501e+06
4.60501e+06
4.60502e+06
4.60504e+06
4.60507e+06
4.6051e+06
4.60514e+06
4.60518e+06
4.60522e+06
4.60526e+06
4.60531e+06
4.60535e+06
4.60538e+06
4.60542e+06
4.60545e+06
4.60547e+06
4.6055e+06
4.60553e+06
4.60556e+06
4.60559e+06
4.60562e+06
4.60565e+06
4.60569e+06
4.60572e+06
4.60576e+06
4.60579e+06
4.60582e+06
4.60583e+06
4.60584e+06
4.60584e+06
4.60583e+06
4.60581e+06
4.60577e+06
4.60571e+06
4.60565e+06
4.6048e+06
4.60482e+06
4.60484e+06
4.60483e+06
4.60483e+06
4.60483e+06
4.60484e+06
4.60484e+06
4.60484e+06
4.60485e+06
4.60485e+06
4.60485e+06
4.60485e+06
4.60485e+06
4.60485e+06
4.60485e+06
4.60486e+06
4.60488e+06
4.6049e+06
4.60493e+06
4.60496e+06
4.605e+06
4.60505e+06
4.60509e+06
4.60514e+06
4.60518e+06
4.60522e+06
4.60526e+06
4.6053e+06
4.60533e+06
4.60536e+06
4.60539e+06
4.60542e+06
4.60545e+06
4.60548e+06
4.60552e+06
4.60555e+06
4.60559e+06
4.60563e+06
4.60566e+06
4.6057e+06
4.60572e+06
4.60574e+06
4.60575e+06
4.60575e+06
4.60575e+06
4.60573e+06
4.6057e+06
4.60565e+06
4.6056e+06
4.60473e+06
4.60475e+06
4.60477e+06
4.60479e+06
4.6048e+06
4.60481e+06
4.60482e+06
4.60483e+06
4.60483e+06
4.60483e+06
4.60483e+06
4.60483e+06
4.60482e+06
4.60482e+06
4.60482e+06
4.60482e+06
4.60482e+06
4.60484e+06
4.60485e+06
4.60488e+06
4.60491e+06
4.60495e+06
4.60498e+06
4.60503e+06
4.60507e+06
4.60511e+06
4.60515e+06
4.60519e+06
4.60523e+06
4.60526e+06
4.60529e+06
4.60532e+06
4.60535e+06
4.60538e+06
4.60542e+06
4.60545e+06
4.60549e+06
4.60553e+06
4.60557e+06
4.6056e+06
4.60563e+06
4.60566e+06
4.60568e+06
4.60569e+06
4.6057e+06
4.60569e+06
4.60568e+06
4.60565e+06
4.60562e+06
4.60558e+06
4.60465e+06
4.60466e+06
4.60466e+06
4.60467e+06
4.60467e+06
4.60468e+06
4.60468e+06
4.60468e+06
4.60469e+06
4.60469e+06
4.60469e+06
4.60469e+06
4.60468e+06
4.60468e+06
4.60468e+06
4.60468e+06
4.60469e+06
4.6047e+06
4.60472e+06
4.60475e+06
4.60478e+06
4.60481e+06
4.60485e+06
4.6049e+06
4.60494e+06
4.60499e+06
4.60503e+06
4.60507e+06
4.60511e+06
4.60514e+06
4.60518e+06
4.60521e+06
4.60525e+06
4.60528e+06
4.60532e+06
4.60536e+06
4.60539e+06
4.60543e+06
4.60547e+06
4.60551e+06
4.60555e+06
4.60557e+06
4.6056e+06
4.60561e+06
4.60562e+06
4.60562e+06
4.60561e+06
4.60559e+06
4.60557e+06
4.60554e+06
4.60456e+06
4.60456e+06
4.60457e+06
4.60458e+06
4.60458e+06
4.60459e+06
4.6046e+06
4.60461e+06
4.60462e+06
4.60462e+06
4.60463e+06
4.60463e+06
4.60463e+06
4.60463e+06
4.60463e+06
4.60463e+06
4.60463e+06
4.60465e+06
4.60466e+06
4.60468e+06
4.60471e+06
4.60475e+06
4.60478e+06
4.60483e+06
4.60487e+06
4.60491e+06
4.60496e+06
4.605e+06
4.60504e+06
4.60507e+06
4.60511e+06
4.60514e+06
4.60518e+06
4.60522e+06
4.60526e+06
4.6053e+06
4.60534e+06
4.60538e+06
4.60542e+06
4.60545e+06
4.60549e+06
4.60552e+06
4.60554e+06
4.60555e+06
4.60556e+06
4.60557e+06
4.60556e+06
4.60555e+06
4.60553e+06
4.60551e+06
4.60447e+06
4.60447e+06
4.60447e+06
4.60448e+06
4.60448e+06
4.60449e+06
4.6045e+06
4.60451e+06
4.60452e+06
4.60452e+06
4.60452e+06
4.60452e+06
4.60452e+06
4.60452e+06
4.60452e+06
4.60452e+06
4.60453e+06
4.60454e+06
4.60455e+06
4.60457e+06
4.6046e+06
4.60463e+06
4.60467e+06
4.60471e+06
4.60475e+06
4.6048e+06
4.60484e+06
4.60488e+06
4.60493e+06
4.60497e+06
4.60501e+06
4.60505e+06
4.60508e+06
4.60512e+06
4.60517e+06
4.60521e+06
4.60525e+06
4.60529e+06
4.60533e+06
4.60537e+06
4.60541e+06
4.60544e+06
4.60546e+06
4.60548e+06
4.60549e+06
4.6055e+06
4.6055e+06
4.60549e+06
4.60548e+06
4.60547e+06
4.60437e+06
4.60437e+06
4.60438e+06
4.60438e+06
4.60439e+06
4.6044e+06
4.60441e+06
4.60442e+06
4.60443e+06
4.60444e+06
4.60444e+06
4.60444e+06
4.60445e+06
4.60445e+06
4.60445e+06
4.60445e+06
4.60445e+06
4.60446e+06
4.60447e+06
4.60449e+06
4.60452e+06
4.60455e+06
4.60458e+06
4.60462e+06
4.60467e+06
4.60471e+06
4.60476e+06
4.6048e+06
4.60485e+06
4.60489e+06
4.60493e+06
4.60497e+06
4.60501e+06
4.60506e+06
4.6051e+06
4.60514e+06
4.60519e+06
4.60523e+06
4.60527e+06
4.60531e+06
4.60535e+06
4.60538e+06
4.6054e+06
4.60542e+06
4.60544e+06
4.60544e+06
4.60545e+06
4.60545e+06
4.60544e+06
4.60543e+06
4.60428e+06
4.60428e+06
4.60428e+06
4.60429e+06
4.60429e+06
4.6043e+06
4.60431e+06
4.60433e+06
4.60434e+06
4.60434e+06
4.60435e+06
4.60435e+06
4.60436e+06
4.60436e+06
4.60436e+06
4.60436e+06
4.60436e+06
4.60437e+06
4.60438e+06
4.60439e+06
4.60442e+06
4.60445e+06
4.60448e+06
4.60452e+06
4.60456e+06
4.60461e+06
4.60466e+06
4.6047e+06
4.60475e+06
4.6048e+06
4.60484e+06
4.60489e+06
4.60493e+06
4.60498e+06
4.60502e+06
4.60507e+06
4.60511e+06
4.60516e+06
4.6052e+06
4.60524e+06
4.60528e+06
4.60531e+06
4.60533e+06
4.60535e+06
4.60537e+06
4.60538e+06
4.60539e+06
4.60539e+06
4.60539e+06
4.60539e+06
4.60418e+06
4.60418e+06
4.60419e+06
4.60419e+06
4.6042e+06
4.60421e+06
4.60422e+06
4.60423e+06
4.60425e+06
4.60426e+06
4.60426e+06
4.60427e+06
4.60427e+06
4.60427e+06
4.60427e+06
4.60427e+06
4.60427e+06
4.60428e+06
4.60429e+06
4.6043e+06
4.60432e+06
4.60435e+06
4.60439e+06
4.60442e+06
4.60447e+06
4.60451e+06
4.60456e+06
4.60461e+06
4.60466e+06
4.60471e+06
4.60476e+06
4.6048e+06
4.60485e+06
4.6049e+06
4.60495e+06
4.605e+06
4.60504e+06
4.60509e+06
4.60513e+06
4.60517e+06
4.60521e+06
4.60524e+06
4.60527e+06
4.60529e+06
4.60531e+06
4.60532e+06
4.60533e+06
4.60534e+06
4.60535e+06
4.60535e+06
4.60409e+06
4.60409e+06
4.60409e+06
4.6041e+06
4.6041e+06
4.60412e+06
4.60413e+06
4.60414e+06
4.60416e+06
4.60417e+06
4.60418e+06
4.60418e+06
4.60419e+06
4.60419e+06
4.60419e+06
4.60419e+06
4.60419e+06
4.60419e+06
4.6042e+06
4.60422e+06
4.60424e+06
4.60426e+06
4.6043e+06
4.60433e+06
4.60438e+06
4.60442e+06
4.60447e+06
4.60452e+06
4.60457e+06
4.60463e+06
4.60468e+06
4.60473e+06
4.60478e+06
4.60483e+06
4.60488e+06
4.60493e+06
4.60498e+06
4.60502e+06
4.60507e+06
4.60511e+06
4.60515e+06
4.60518e+06
4.6052e+06
4.60523e+06
4.60525e+06
4.60526e+06
4.60528e+06
4.60529e+06
4.6053e+06
4.60531e+06
4.60399e+06
4.60399e+06
4.60399e+06
4.604e+06
4.60401e+06
4.60402e+06
4.60404e+06
4.60405e+06
4.60406e+06
4.60407e+06
4.60408e+06
4.60409e+06
4.60409e+06
4.60409e+06
4.60409e+06
4.60409e+06
4.60409e+06
4.60409e+06
4.6041e+06
4.60411e+06
4.60413e+06
4.60416e+06
4.60419e+06
4.60423e+06
4.60427e+06
4.60432e+06
4.60437e+06
4.60442e+06
4.60447e+06
4.60453e+06
4.60458e+06
4.60463e+06
4.60469e+06
4.60474e+06
4.60479e+06
4.60485e+06
4.6049e+06
4.60494e+06
4.60499e+06
4.60503e+06
4.60507e+06
4.6051e+06
4.60513e+06
4.60515e+06
4.60518e+06
4.6052e+06
4.60521e+06
4.60523e+06
4.60525e+06
4.60526e+06
4.60389e+06
4.60389e+06
4.6039e+06
4.60391e+06
4.60392e+06
4.60393e+06
4.60395e+06
4.60397e+06
4.60398e+06
4.604e+06
4.60401e+06
4.60402e+06
4.60402e+06
4.60402e+06
4.60402e+06
4.60402e+06
4.60402e+06
4.60402e+06
4.60403e+06
4.60404e+06
4.60406e+06
4.60408e+06
4.60411e+06
4.60415e+06
4.60419e+06
4.60424e+06
4.60429e+06
4.60435e+06
4.6044e+06
4.60446e+06
4.60451e+06
4.60457e+06
4.60462e+06
4.60468e+06
4.60473e+06
4.60478e+06
4.60483e+06
4.60488e+06
4.60493e+06
4.60497e+06
4.60501e+06
4.60504e+06
4.60507e+06
4.60509e+06
4.60512e+06
4.60514e+06
4.60516e+06
4.60518e+06
4.6052e+06
4.60523e+06
4.60379e+06
4.60379e+06
4.6038e+06
4.60381e+06
4.60382e+06
4.60383e+06
4.60384e+06
4.60385e+06
4.60387e+06
4.60388e+06
4.60389e+06
4.6039e+06
4.6039e+06
4.6039e+06
4.6039e+06
4.6039e+06
4.6039e+06
4.6039e+06
4.60391e+06
4.60392e+06
4.60394e+06
4.60396e+06
4.60399e+06
4.60403e+06
4.60407e+06
4.60412e+06
4.60418e+06
4.60423e+06
4.60429e+06
4.60435e+06
4.60441e+06
4.60446e+06
4.60452e+06
4.60458e+06
4.60463e+06
4.60469e+06
4.60474e+06
4.60479e+06
4.60484e+06
4.60488e+06
4.60492e+06
4.60495e+06
4.60498e+06
4.60501e+06
4.60504e+06
4.60506e+06
4.60509e+06
4.60511e+06
4.60514e+06
4.60517e+06
4.60368e+06
4.60369e+06
4.60372e+06
4.60374e+06
4.60375e+06
4.60377e+06
4.60379e+06
4.60381e+06
4.60382e+06
4.60384e+06
4.60385e+06
4.60386e+06
4.60386e+06
4.60386e+06
4.60386e+06
4.60386e+06
4.60385e+06
4.60385e+06
4.60386e+06
4.60386e+06
4.60388e+06
4.6039e+06
4.60393e+06
4.60397e+06
4.60401e+06
4.60406e+06
4.60411e+06
4.60417e+06
4.60422e+06
4.60428e+06
4.60434e+06
4.6044e+06
4.60446e+06
4.60451e+06
4.60457e+06
4.60462e+06
4.60468e+06
4.60473e+06
4.60477e+06
4.60481e+06
4.60485e+06
4.60489e+06
4.60492e+06
4.60495e+06
4.60498e+06
4.605e+06
4.60503e+06
4.60506e+06
4.6051e+06
4.60513e+06
4.60355e+06
4.60358e+06
4.60359e+06
4.60359e+06
4.60359e+06
4.6036e+06
4.60362e+06
4.60364e+06
4.60365e+06
4.60367e+06
4.60368e+06
4.60369e+06
4.6037e+06
4.60371e+06
4.60371e+06
4.60371e+06
4.60371e+06
4.60371e+06
4.60372e+06
4.60373e+06
4.60374e+06
4.60377e+06
4.6038e+06
4.60384e+06
4.60388e+06
4.60393e+06
4.60399e+06
4.60405e+06
4.60411e+06
4.60417e+06
4.60423e+06
4.60429e+06
4.60435e+06
4.60441e+06
4.60447e+06
4.60452e+06
4.60457e+06
4.60463e+06
4.60467e+06
4.60472e+06
4.60476e+06
4.60479e+06
4.60482e+06
4.60486e+06
4.60489e+06
4.60492e+06
4.60495e+06
4.60499e+06
4.60503e+06
4.60507e+06
4.60343e+06
4.60357e+06
4.60364e+06
4.60366e+06
4.60366e+06
4.60366e+06
4.60366e+06
4.60367e+06
4.60367e+06
4.60368e+06
4.60368e+06
4.60369e+06
4.60369e+06
4.60368e+06
4.60368e+06
4.60367e+06
4.60367e+06
4.60367e+06
4.60367e+06
4.60368e+06
4.60369e+06
4.60371e+06
4.60374e+06
4.60378e+06
4.60382e+06
4.60387e+06
4.60392e+06
4.60398e+06
4.60404e+06
4.6041e+06
4.60416e+06
4.60422e+06
4.60428e+06
4.60434e+06
4.60439e+06
4.60445e+06
4.6045e+06
4.60455e+06
4.6046e+06
4.60464e+06
4.60468e+06
4.60472e+06
4.60475e+06
4.60478e+06
4.60482e+06
4.60485e+06
4.60489e+06
4.60493e+06
4.60498e+06
4.60503e+06
4.60288e+06
4.60317e+06
4.60326e+06
4.6033e+06
4.60334e+06
4.60337e+06
4.6034e+06
4.60343e+06
4.60345e+06
4.60348e+06
4.60349e+06
4.60351e+06
4.60352e+06
4.60352e+06
4.60352e+06
4.60352e+06
4.60353e+06
4.60353e+06
4.60353e+06
4.60355e+06
4.60356e+06
4.60359e+06
4.60362e+06
4.60366e+06
4.6037e+06
4.60375e+06
4.60381e+06
4.60386e+06
4.60392e+06
4.60398e+06
4.60405e+06
4.60411e+06
4.60417e+06
4.60423e+06
4.60429e+06
4.60434e+06
4.6044e+06
4.60445e+06
4.60449e+06
4.60454e+06
4.60458e+06
4.60462e+06
4.60465e+06
4.60468e+06
4.60472e+06
4.60476e+06
4.6048e+06
4.60484e+06
4.6049e+06
4.60496e+06
4.60438e+06
4.60387e+06
4.60362e+06
4.60353e+06
4.60349e+06
4.60346e+06
4.60345e+06
4.60345e+06
4.60345e+06
4.60346e+06
4.60347e+06
4.60347e+06
4.60347e+06
4.60347e+06
4.60347e+06
4.60347e+06
4.60346e+06
4.60346e+06
4.60347e+06
4.60348e+06
4.60349e+06
4.60351e+06
4.60354e+06
4.60358e+06
4.60362e+06
4.60367e+06
4.60373e+06
4.60378e+06
4.60384e+06
4.6039e+06
4.60396e+06
4.60402e+06
4.60409e+06
4.60414e+06
4.6042e+06
4.60426e+06
4.60431e+06
4.60436e+06
4.60441e+06
4.60445e+06
4.60449e+06
4.60453e+06
4.60456e+06
4.6046e+06
4.60463e+06
4.60467e+06
4.60471e+06
4.60476e+06
4.60482e+06
4.6049e+06
4.38338e+06
4.38997e+06
4.39099e+06
4.39551e+06
4.39703e+06
4.39986e+06
4.40116e+06
4.4025e+06
4.40292e+06
4.40301e+06
4.40288e+06
4.40236e+06
4.40223e+06
4.40236e+06
4.40248e+06
4.40451e+06
4.40458e+06
4.40899e+06
4.40732e+06
4.41807e+06
4.38218e+06
4.38874e+06
4.38976e+06
4.39423e+06
4.39576e+06
4.39855e+06
4.39987e+06
4.40122e+06
4.40172e+06
4.40195e+06
4.40196e+06
4.40151e+06
4.40142e+06
4.40156e+06
4.40171e+06
4.40359e+06
4.40362e+06
4.40766e+06
4.40618e+06
4.41717e+06
4.38117e+06
4.38771e+06
4.38873e+06
4.39315e+06
4.39468e+06
4.39742e+06
4.39875e+06
4.40011e+06
4.40071e+06
4.4011e+06
4.40125e+06
4.4009e+06
4.40078e+06
4.40093e+06
4.40112e+06
4.40285e+06
4.40271e+06
4.4062e+06
4.40498e+06
4.41632e+06
4.38038e+06
4.38691e+06
4.38793e+06
4.39227e+06
4.39379e+06
4.39647e+06
4.39779e+06
4.39916e+06
4.39984e+06
4.40036e+06
4.40064e+06
4.40043e+06
4.40031e+06
4.40047e+06
4.40064e+06
4.40216e+06
4.40176e+06
4.40468e+06
4.40364e+06
4.41518e+06
4.37985e+06
4.38636e+06
4.38737e+06
4.39163e+06
4.39313e+06
4.39571e+06
4.397e+06
4.39832e+06
4.39903e+06
4.39962e+06
4.39997e+06
4.39994e+06
4.3999e+06
4.40002e+06
4.40005e+06
4.4013e+06
4.40062e+06
4.40321e+06
4.40236e+06
4.41401e+06
4.3796e+06
4.38609e+06
4.38708e+06
4.39124e+06
4.39269e+06
4.39515e+06
4.39636e+06
4.39759e+06
4.39824e+06
4.39878e+06
4.39909e+06
4.39912e+06
4.3992e+06
4.39936e+06
4.39919e+06
4.40012e+06
4.39927e+06
4.40182e+06
4.40117e+06
4.413e+06
4.37966e+06
4.38611e+06
4.38709e+06
4.39114e+06
4.39251e+06
4.39483e+06
4.39591e+06
4.39698e+06
4.39747e+06
4.39785e+06
4.39796e+06
4.39789e+06
4.39808e+06
4.39833e+06
4.39802e+06
4.39868e+06
4.39786e+06
4.40057e+06
4.40011e+06
4.41218e+06
4.38007e+06
4.38648e+06
4.38742e+06
4.39135e+06
4.39264e+06
4.39478e+06
4.39571e+06
4.39656e+06
4.39684e+06
4.39694e+06
4.39676e+06
4.39645e+06
4.39665e+06
4.39693e+06
4.3966e+06
4.3972e+06
4.39651e+06
4.39957e+06
4.39926e+06
4.41158e+06
4.38086e+06
4.3872e+06
4.38812e+06
4.39192e+06
4.39311e+06
4.39508e+06
4.39582e+06
4.39644e+06
4.39646e+06
4.39626e+06
4.39575e+06
4.39517e+06
4.39527e+06
4.3955e+06
4.3952e+06
4.39589e+06
4.39538e+06
4.39894e+06
4.39878e+06
4.41131e+06
4.38205e+06
4.38833e+06
4.38922e+06
4.39288e+06
4.39399e+06
4.39577e+06
4.39634e+06
4.39671e+06
4.39648e+06
4.39597e+06
4.39515e+06
4.39432e+06
4.39426e+06
4.39439e+06
4.39415e+06
4.39502e+06
4.39475e+06
4.39887e+06
4.39885e+06
4.41151e+06
4.38367e+06
4.38987e+06
4.39074e+06
4.39428e+06
4.3953e+06
4.39692e+06
4.39733e+06
4.39749e+06
4.39702e+06
4.39625e+06
4.39516e+06
4.39412e+06
4.39391e+06
4.39393e+06
4.39378e+06
4.39484e+06
4.39485e+06
4.39951e+06
4.39963e+06
4.41232e+06
4.38574e+06
4.39185e+06
4.39271e+06
4.39613e+06
4.39709e+06
4.39857e+06
4.39886e+06
4.39885e+06
4.39821e+06
4.39724e+06
4.39596e+06
4.39478e+06
4.39443e+06
4.39436e+06
4.39432e+06
4.39555e+06
4.39586e+06
4.40096e+06
4.40121e+06
4.41381e+06
4.38825e+06
4.39428e+06
4.39514e+06
4.39845e+06
4.39938e+06
4.40075e+06
4.40096e+06
4.40085e+06
4.4001e+06
4.39902e+06
4.39765e+06
4.39641e+06
4.39597e+06
4.39583e+06
4.3959e+06
4.39725e+06
4.39784e+06
4.40325e+06
4.4036e+06
4.416e+06
4.39122e+06
4.39716e+06
4.39803e+06
4.40125e+06
4.40216e+06
4.40346e+06
4.40364e+06
4.40349e+06
4.40271e+06
4.4016e+06
4.40024e+06
4.39902e+06
4.39855e+06
4.39837e+06
4.39853e+06
4.39995e+06
4.40079e+06
4.40636e+06
4.40677e+06
4.41885e+06
4.39464e+06
4.40048e+06
4.40136e+06
4.40451e+06
4.40543e+06
4.4067e+06
4.4069e+06
4.40676e+06
4.40603e+06
4.40497e+06
4.4037e+06
4.40257e+06
4.4021e+06
4.40192e+06
4.40216e+06
4.4036e+06
4.40463e+06
4.41022e+06
4.41065e+06
4.42233e+06
4.39848e+06
4.40423e+06
4.40514e+06
4.40822e+06
4.40917e+06
4.41044e+06
4.41069e+06
4.41061e+06
4.40998e+06
4.40904e+06
4.40791e+06
4.40692e+06
4.4065e+06
4.40634e+06
4.40664e+06
4.40808e+06
4.40923e+06
4.41472e+06
4.41516e+06
4.42636e+06
4.40274e+06
4.40838e+06
4.40932e+06
4.41235e+06
4.41334e+06
4.41463e+06
4.41496e+06
4.41498e+06
4.41449e+06
4.41371e+06
4.41276e+06
4.41194e+06
4.41158e+06
4.41146e+06
4.4118e+06
4.41322e+06
4.41445e+06
4.41977e+06
4.42018e+06
4.43086e+06
4.40738e+06
4.41291e+06
4.41387e+06
4.41685e+06
4.4179e+06
4.41922e+06
4.41965e+06
4.41978e+06
4.41945e+06
4.41886e+06
4.41811e+06
4.41746e+06
4.41717e+06
4.4171e+06
4.41748e+06
4.41887e+06
4.42013e+06
4.42523e+06
4.42561e+06
4.43574e+06
4.41237e+06
4.41778e+06
4.41877e+06
4.4217e+06
4.42279e+06
4.42414e+06
4.42467e+06
4.42493e+06
4.42476e+06
4.42435e+06
4.4238e+06
4.42332e+06
4.42312e+06
4.4231e+06
4.42351e+06
4.42487e+06
4.42613e+06
4.43099e+06
4.43134e+06
4.44093e+06
4.41768e+06
4.42296e+06
4.42397e+06
4.42684e+06
4.42797e+06
4.42934e+06
4.42996e+06
4.43033e+06
4.43032e+06
4.43009e+06
4.42973e+06
4.4294e+06
4.42927e+06
4.42931e+06
4.42975e+06
4.43108e+06
4.43232e+06
4.43695e+06
4.43726e+06
4.44631e+06
4.42327e+06
4.42842e+06
4.42944e+06
4.43223e+06
4.43339e+06
4.43476e+06
4.43545e+06
4.43592e+06
4.43605e+06
4.43597e+06
4.43577e+06
4.43558e+06
4.43552e+06
4.43561e+06
4.43608e+06
4.43739e+06
4.4386e+06
4.443e+06
4.44329e+06
4.45183e+06
4.42912e+06
4.43412e+06
4.43515e+06
4.43784e+06
4.43901e+06
4.44037e+06
4.4411e+06
4.44164e+06
4.44187e+06
4.44192e+06
4.44186e+06
4.44178e+06
4.44179e+06
4.44192e+06
4.44242e+06
4.44371e+06
4.4449e+06
4.44908e+06
4.44936e+06
4.45741e+06
4.4352e+06
4.44004e+06
4.44105e+06
4.44364e+06
4.44479e+06
4.44611e+06
4.44686e+06
4.44744e+06
4.44774e+06
4.44789e+06
4.44794e+06
4.44795e+06
4.448e+06
4.44819e+06
4.44871e+06
4.44999e+06
4.45114e+06
4.45513e+06
4.45541e+06
4.463e+06
4.44147e+06
4.44614e+06
4.44713e+06
4.44959e+06
4.4507e+06
4.45196e+06
4.4527e+06
4.45328e+06
4.45362e+06
4.45383e+06
4.45396e+06
4.45404e+06
4.45414e+06
4.45436e+06
4.45491e+06
4.45618e+06
4.45731e+06
4.46112e+06
4.4614e+06
4.46857e+06
4.44793e+06
4.45241e+06
4.45337e+06
4.45568e+06
4.45673e+06
4.4579e+06
4.4586e+06
4.45914e+06
4.45949e+06
4.45973e+06
4.45991e+06
4.46003e+06
4.46016e+06
4.46043e+06
4.461e+06
4.46227e+06
4.46337e+06
4.46704e+06
4.46732e+06
4.4741e+06
4.45454e+06
4.45882e+06
4.45973e+06
4.46189e+06
4.46286e+06
4.46391e+06
4.46454e+06
4.46502e+06
4.46533e+06
4.46557e+06
4.46577e+06
4.46593e+06
4.46608e+06
4.46638e+06
4.46698e+06
4.46825e+06
4.46934e+06
4.47288e+06
4.47317e+06
4.47959e+06
4.4613e+06
4.46538e+06
4.46623e+06
4.46821e+06
4.46908e+06
4.47e+06
4.47052e+06
4.4709e+06
4.47115e+06
4.47136e+06
4.47155e+06
4.47172e+06
4.47189e+06
4.47223e+06
4.47286e+06
4.47413e+06
4.47522e+06
4.47864e+06
4.47896e+06
4.48505e+06
4.46821e+06
4.47206e+06
4.47285e+06
4.47465e+06
4.4754e+06
4.47616e+06
4.47654e+06
4.4768e+06
4.47695e+06
4.4771e+06
4.47726e+06
4.47743e+06
4.47762e+06
4.47799e+06
4.47865e+06
4.47994e+06
4.48104e+06
4.48437e+06
4.48471e+06
4.4905e+06
4.47525e+06
4.47888e+06
4.47959e+06
4.4812e+06
4.48182e+06
4.4824e+06
4.48263e+06
4.48273e+06
4.48276e+06
4.48281e+06
4.48292e+06
4.48308e+06
4.48329e+06
4.48369e+06
4.48439e+06
4.4857e+06
4.48682e+06
4.49007e+06
4.49046e+06
4.49597e+06
4.48243e+06
4.48583e+06
4.48646e+06
4.48788e+06
4.48835e+06
4.48874e+06
4.48879e+06
4.48871e+06
4.48858e+06
4.48851e+06
4.48855e+06
4.4887e+06
4.48892e+06
4.48937e+06
4.4901e+06
4.49144e+06
4.4926e+06
4.4958e+06
4.49624e+06
4.50149e+06
4.48973e+06
4.4929e+06
4.49345e+06
4.49467e+06
4.49498e+06
4.49518e+06
4.49504e+06
4.49478e+06
4.49448e+06
4.49426e+06
4.49422e+06
4.49433e+06
4.49457e+06
4.49505e+06