/*--------------------------------*- C++ -*----------------------------------*\
  =========                 |
  \\      /  F ield         | OpenFOAM: The Open Source CFD Toolbox
   \\    /   O peration     | Website:  https://openfoam.org
    \\  /    A nd           | Version:  8
     \\/     M anipulation  |
\*---------------------------------------------------------------------------*/
FoamFile
{
    version     2.0;
    format      ascii;
    class       volScalarField;
    location    "400";
    object      p_rgh;
}
// * * * * * * * * * * * * * * * * * * * * * * * * * * * * * * * * * * * * * //

dimensions      [1 -1 -2 0 0 0 0];

internalField   nonuniform List<scalar> 
8400
(
16423.4
48505.8
79921.6
110884
141631
172369
203322
234759
266993
300374
335293
372180
411509
453784
499518
549219
603405
662614
727393
798291
875847
960560
1.05287e+06
1.15317e+06
1.26175e+06
1.37883e+06
1.50451e+06
1.63881e+06
1.78164e+06
1.93273e+06
2.09158e+06
2.25758e+06
2.42986e+06
2.6074e+06
2.78894e+06
2.97302e+06
3.15796e+06
3.34183e+06
3.52245e+06
3.69755e+06
3.86467e+06
4.02125e+06
4.16485e+06
4.29344e+06
4.40578e+06
4.50105e+06
4.57772e+06
4.63343e+06
4.66859e+06
4.68889e+06
17572
48735.1
79804.8
110538
141083
171595
202278
233393
265252
298220
332706
369159
408051
449855
495051
544134
597631
656092
720073
790116
866735
950424
1.04164e+06
1.14074e+06
1.24804e+06
1.36375e+06
1.48799e+06
1.62073e+06
1.7619e+06
1.91119e+06
2.06813e+06
2.2321e+06
2.40231e+06
2.57774e+06
2.75717e+06
2.93915e+06
3.12201e+06
3.30384e+06
3.48251e+06
3.65576e+06
3.82121e+06
3.97643e+06
4.11908e+06
4.24707e+06
4.35903e+06
4.45418e+06
4.53141e+06
4.58926e+06
4.62793e+06
4.6518e+06
20031.6
50708.9
81561.4
112032
142233
172308
202489
233070
264391
296818
330743
366592
404810
445848
490186
538354
590897
648367
711299
780215
855625
938032
1.02791e+06
1.12563e+06
1.23149e+06
1.34571e+06
1.46839e+06
1.59949e+06
1.73888e+06
1.88631e+06
2.04133e+06
2.20334e+06
2.37157e+06
2.54503e+06
2.72251e+06
2.90258e+06
3.0836e+06
3.26364e+06
3.44057e+06
3.61223e+06
3.77625e+06
3.93021e+06
4.0719e+06
4.19932e+06
4.31094e+06
4.40585e+06
4.48333e+06
4.54271e+06
4.58445e+06
4.61158e+06
20246
50104
80671.7
110897
140790
170468
200172
230213
260927
292665
325823
360824
398103
438113
481356
528374
579714
635900
697446
764880
838733
919508
1.00767e+06
1.10362e+06
1.20764e+06
1.31992e+06
1.44055e+06
1.56951e+06
1.70667e+06
1.85178e+06
2.00442e+06
2.164e+06
2.32979e+06
2.50083e+06
2.67598e+06
2.8538e+06
3.03263e+06
3.21062e+06
3.38569e+06
3.55565e+06
3.71813e+06
3.87085e+06
4.0117e+06
4.13874e+06
4.25048e+06
4.34592e+06
4.42448e+06
4.48592e+06
4.53094e+06
4.56146e+06
22172.3
52361
82977.6
112965
142429
171548
200602
229920
259851
290767
323064
357147
393434
432382
474499
520315
570360
625152
685219
751111
823365
902475
988892
1.08301e+06
1.18512e+06
1.2954e+06
1.41393e+06
1.54073e+06
1.67563e+06
1.81839e+06
1.96858e+06
2.12565e+06
2.28891e+06
2.45747e+06
2.6302e+06
2.80572e+06
2.98238e+06
3.15828e+06
3.33139e+06
3.49954e+06
3.66036e+06
3.81159e+06
3.95131e+06
4.07768e+06
4.18927e+06
4.28521e+06
4.36496e+06
4.42845e+06
4.4759e+06
4.50745e+06
21267.5
51445.6
82131.9
112028
141213
169899
198405
227089
256327
286511
318035
351289
386687
424684
465775
510472
559300
612799
671521
736015
806812
884396
969204
1.06163e+06
1.16199e+06
1.27043e+06
1.38707e+06
1.51187e+06
1.64467e+06
1.78517e+06
1.93297e+06
2.08755e+06
2.2483e+06
2.41445e+06
2.58491e+06
2.75828e+06
2.93287e+06
3.1068e+06
3.27807e+06
3.44462e+06
3.60402e+06
3.75392e+06
3.89254e+06
4.01825e+06
4.12972e+06
4.22621e+06
4.30683e+06
4.37073e+06
4.41775e+06
4.44774e+06
22279.8
53351.2
84340.3
114110
142887
170989
198815
226775
255275
284710
315462
347912
382461
419544
459634
503240
550906
603193
660663
723859
793298
869465
952805
1.04372e+06
1.14251e+06
1.24936e+06
1.36433e+06
1.4874e+06
1.61835e+06
1.75688e+06
1.90259e+06
2.05496e+06
2.21339e+06
2.37716e+06
2.54531e+06
2.71652e+06
2.88913e+06
3.06126e+06
3.23088e+06
3.39605e+06
3.55433e+06
3.70323e+06
3.84098e+06
3.96599e+06
4.07659e+06
4.17147e+06
4.24973e+06
4.31096e+06
4.35525e+06
4.38281e+06
21316
53075.1
84369.3
114086
142544
170181
197479
224900
252868
281778
312002
343904
377863
414287
453634
496418
543200
594557
651054
713223
781570
856580
938715
1.02838e+06
1.12587e+06
1.23137e+06
1.34499e+06
1.46673e+06
1.59638e+06
1.73365e+06
1.87805e+06
2.02896e+06
2.18575e+06
2.34766e+06
2.51393e+06
2.68336e+06
2.85435e+06
3.02506e+06
3.19347e+06
3.35763e+06
3.51513e+06
3.66302e+06
3.79898e+06
3.92111e+06
4.02783e+06
4.11815e+06
4.19164e+06
4.2484e+06
4.28894e+06
4.31405e+06
21270.7
54388.2
86040.6
115630
143696
170841
197632
224567
252084
280569
310381
341862
375364
411272
450044
492205
538336
589020
644809
706219
773734
847827
928963
1.01754e+06
1.11387e+06
1.21815e+06
1.33054e+06
1.45116e+06
1.5799e+06
1.71649e+06
1.86039e+06
2.01087e+06
2.1671e+06
2.32821e+06
2.49338e+06
2.66168e+06
2.83163e+06
3.00148e+06
3.16914e+06
3.33223e+06
3.48812e+06
3.63375e+06
3.76632e+06
3.88357e+06
3.98402e+06
4.06716e+06
4.13344e+06
4.18385e+06
4.21975e+06
4.24263e+06
21206
55910.7
87367.7
116630
144252
170953
197353
223964
251206
279449
309031
340274
373503
409079
447488
489316
535172
585625
641194
702351
769547
843228
923852
1.01182e+06
1.10745e+06
1.21099e+06
1.32258e+06
1.44236e+06
1.57046e+06
1.70678e+06
1.85087e+06
2.00192e+06
2.15889e+06
2.32065e+06
2.48617e+06
2.65448e+06
2.82422e+06
2.99368e+06
3.16073e+06
3.32276e+06
3.47658e+06
3.61878e+06
3.74608e+06
3.85599e+06
3.94728e+06
4.0202e+06
4.07643e+06
4.1183e+06
4.14855e+06
4.16932e+06
20961.7
57122.5
88565.9
117778
145337
171970
198324
224913
252148
280398
309998
341259
374491
409996
448228
489917
535789
586395
642219
703649
771042
844788
925325
1.01309e+06
1.10843e+06
1.21166e+06
1.3231e+06
1.44304e+06
1.5718e+06
1.70932e+06
1.85521e+06
2.00855e+06
2.16806e+06
2.33228e+06
2.49973e+06
2.66897e+06
2.83859e+06
3.00715e+06
3.17266e+06
3.33241e+06
3.48286e+06
3.62002e+06
3.73998e+06
3.83994e+06
3.91898e+06
3.97849e+06
4.02191e+06
4.05327e+06
4.07741e+06
4.09646e+06
18610
55053.4
87873.3
117673
145630
172626
199325
226254
253845
282478
312493
344210
377959
414114
453235
496089
543307
595393
652740
715622
784298
859075
940322
1.02846e+06
1.12392e+06
1.22723e+06
1.33903e+06
1.45996e+06
1.5905e+06
1.73075e+06
1.88022e+06
2.03781e+06
2.20168e+06
2.36961e+06
2.53934e+06
2.70893e+06
2.87702e+06
3.04268e+06
3.20451e+06
3.36003e+06
3.50535e+06
3.63581e+06
3.74663e+06
3.8345e+06
3.89897e+06
3.94294e+06
3.97232e+06
3.99255e+06
4.01207e+06
4.03062e+06
3367.84
43686.1
81605.6
114071
143664
172184
200416
228871
258032
288347
320217
354025
390166
429085
471321
517467
568029
623378
683758
749299
820075
896190
977862
1.06551e+06
1.15983e+06
1.26187e+06
1.37282e+06
1.49392e+06
1.62621e+06
1.77012e+06
1.92513e+06
2.08957e+06
2.26056e+06
2.43441e+06
2.60731e+06
2.77621e+06
2.93998e+06
3.09903e+06
3.25351e+06
3.4015e+06
3.53892e+06
3.66052e+06
3.76024e+06
3.83464e+06
3.88389e+06
3.91271e+06
3.93063e+06
3.94269e+06
3.96261e+06
3.98395e+06
7324.46
44475.8
85985.9
121933
153857
184560
215168
246165
278038
311301
346423
383843
424014
467412
514519
565767
621467
681772
746670
815960
889308
966415
1.04727e+06
1.13233e+06
1.22273e+06
1.32025e+06
1.42718e+06
1.54601e+06
1.67886e+06
1.82679e+06
1.98945e+06
2.16438e+06
2.34694e+06
2.53064e+06
2.70834e+06
2.87482e+06
3.02929e+06
3.17515e+06
3.31579e+06
3.45024e+06
3.57443e+06
3.68344e+06
3.76889e+06
3.82887e+06
3.86483e+06
3.88348e+06
3.89841e+06
3.91028e+06
3.93393e+06
3.96351e+06
-19868.9
24080.5
71085.6
110687
145414
178932
212690
247177
282913
320507
360529
403515
449995
500469
555366
614994
679488
748739
822297
899327
978717
1.05934e+06
1.14049e+06
1.22231e+06
1.30637e+06
1.39571e+06
1.49444e+06
1.60719e+06
1.73815e+06
1.88994e+06
2.06283e+06
2.25361e+06
2.45513e+06
2.65622e+06
2.84303e+06
3.00567e+06
3.14423e+06
3.26823e+06
3.38697e+06
3.49938e+06
3.60197e+06
3.69268e+06
3.75875e+06
3.80412e+06
3.83284e+06
3.8513e+06
3.87228e+06
3.89416e+06
3.91638e+06
3.95063e+06
6020.02
43078.2
92965.9
136964
175047
211779
249093
287503
327549
369955
415452
464725
518399
577010
640986
710613
785932
866581
951590
1.03923e+06
1.12704e+06
1.21213e+06
1.29207e+06
1.36611e+06
1.43612e+06
1.50699e+06
1.58599e+06
1.68156e+06
1.80146e+06
1.95131e+06
2.13302e+06
2.34323e+06
2.57209e+06
2.80198e+06
3.00573e+06
3.16455e+06
3.28077e+06
3.37533e+06
3.4671e+06
3.55025e+06
3.62215e+06
3.68998e+06
3.73621e+06
3.77166e+06
3.80401e+06
3.83176e+06
3.8554e+06
3.88422e+06
3.91855e+06
3.95958e+06
-45288.4
10895
69037.2
116384
157472
197835
239515
283085
329223
378878
433057
492698
558593
631354
711411
799006
894079
995987
1.10312e+06
1.21246e+06
1.3193e+06
1.41729e+06
1.50033e+06
1.56507e+06
1.61324e+06
1.65277e+06
1.69584e+06
1.75708e+06
1.8498e+06
1.98428e+06
2.16569e+06
2.39216e+06
2.65314e+06
2.92548e+06
3.15641e+06
3.3138e+06
3.4066e+06
3.47254e+06
3.54208e+06
3.60115e+06
3.64551e+06
3.69592e+06
3.73868e+06
3.76364e+06
3.7901e+06
3.82284e+06
3.85984e+06
3.89857e+06
3.93667e+06
3.97535e+06
11709.2
57009.4
113035
161085
203719
246337
290786
337575
387443
441496
501011
567254
641307
723958
815708
916893
1.02768e+06
1.14775e+06
1.27563e+06
1.40779e+06
1.53749e+06
1.65255e+06
1.73984e+06
1.79085e+06
1.80566e+06
1.79694e+06
1.78366e+06
1.78945e+06
1.83325e+06
1.93089e+06
2.09178e+06
2.3174e+06
2.6013e+06
2.92271e+06
3.18925e+06
3.3517e+06
3.43596e+06
3.49214e+06
3.55295e+06
3.6149e+06
3.65049e+06
3.67873e+06
3.71839e+06
3.7537e+06
3.79145e+06
3.83075e+06
3.86959e+06
3.90802e+06
3.94431e+06
3.97878e+06
-73788.5
29649.6
95778.4
143476
188661
235387
284748
337617
395126
458819
530585
612463
706306
813479
934794
1.07066e+06
1.2212e+06
1.38594e+06
1.56286e+06
1.74682e+06
1.92721e+06
2.07715e+06
2.17482e+06
2.20324e+06
2.16548e+06
2.08597e+06
1.99292e+06
1.92337e+06
1.89568e+06
1.93176e+06
2.04473e+06
2.23851e+06
2.51264e+06
2.8471e+06
3.14811e+06
3.34368e+06
3.4384e+06
3.48142e+06
3.51992e+06
3.57281e+06
3.6263e+06
3.67389e+06
3.72095e+06
3.76288e+06
3.80249e+06
3.84148e+06
3.87847e+06
3.91414e+06
3.94839e+06
3.98082e+06
62669.6
109362
139975
174207
214023
258611
307768
361776
421250
487308
561764
646856
744847
857500
985614
1.12904e+06
1.28691e+06
1.45747e+06
1.63716e+06
1.81907e+06
1.99151e+06
2.12809e+06
2.21632e+06
2.23037e+06
2.18376e+06
2.10052e+06
2.01106e+06
1.94925e+06
1.92373e+06
1.95464e+06
2.05014e+06
2.21286e+06
2.44628e+06
2.73887e+06
3.03608e+06
3.25673e+06
3.39453e+06
3.47865e+06
3.53925e+06
3.59309e+06
3.64261e+06
3.68709e+06
3.72959e+06
3.76968e+06
3.80766e+06
3.84483e+06
3.88101e+06
3.91565e+06
3.94744e+06
3.97563e+06
4.61673e+06
4.61622e+06
4.61596e+06
4.61587e+06
4.61581e+06
4.61577e+06
4.61574e+06
4.61572e+06
4.61571e+06
4.61569e+06
4.61568e+06
4.61567e+06
4.61566e+06
4.61565e+06
4.61564e+06
4.61563e+06
4.61563e+06
4.61562e+06
4.61562e+06
4.61562e+06
4.61562e+06
4.61563e+06
4.61563e+06
4.61564e+06
4.61565e+06
4.61566e+06
4.61568e+06
4.61569e+06
4.6157e+06
4.61571e+06
4.61573e+06
4.61574e+06
4.61575e+06
4.61576e+06
4.61577e+06
4.61578e+06
4.61579e+06
4.6158e+06
4.61581e+06
4.61582e+06
4.61583e+06
4.61583e+06
4.61583e+06
4.61582e+06
4.6158e+06
4.61578e+06
4.61575e+06
4.6157e+06
4.61563e+06
4.61553e+06
4.61513e+06
4.61542e+06
4.61551e+06
4.61554e+06
4.61557e+06
4.61559e+06
4.6156e+06
4.61561e+06
4.61561e+06
4.61561e+06
4.61561e+06
4.61561e+06
4.61561e+06
4.6156e+06
4.6156e+06
4.6156e+06
4.61559e+06
4.61559e+06
4.61559e+06
4.61559e+06
4.6156e+06
4.6156e+06
4.61561e+06
4.61562e+06
4.61563e+06
4.61565e+06
4.61566e+06
4.61568e+06
4.61569e+06
4.6157e+06
4.61571e+06
4.61573e+06
4.61574e+06
4.61575e+06
4.61576e+06
4.61577e+06
4.61579e+06
4.6158e+06
4.61581e+06
4.61582e+06
4.61582e+06
4.61583e+06
4.61583e+06
4.61582e+06
4.61581e+06
4.61578e+06
4.61575e+06
4.61571e+06
4.61565e+06
4.61558e+06
4.61559e+06
4.61572e+06
4.61579e+06
4.6158e+06
4.61579e+06
4.61578e+06
4.61576e+06
4.61575e+06
4.61573e+06
4.61572e+06
4.61571e+06
4.6157e+06
4.61568e+06
4.61567e+06
4.61566e+06
4.61565e+06
4.61564e+06
4.61564e+06
4.61563e+06
4.61563e+06
4.61563e+06
4.61564e+06
4.61564e+06
4.61565e+06
4.61566e+06
4.61567e+06
4.61568e+06
4.6157e+06
4.61571e+06
4.61572e+06
4.61573e+06
4.61574e+06
4.61576e+06
4.61577e+06
4.61578e+06
4.61579e+06
4.6158e+06
4.61581e+06
4.61583e+06
4.61584e+06
4.61584e+06
4.61585e+06
4.61585e+06
4.61584e+06
4.61583e+06
4.61581e+06
4.61579e+06
4.61575e+06
4.6157e+06
4.61564e+06
4.61561e+06
4.61563e+06
4.61564e+06
4.61564e+06
4.61563e+06
4.61563e+06
4.61562e+06
4.61562e+06
4.61562e+06
4.61562e+06
4.61561e+06
4.61561e+06
4.6156e+06
4.6156e+06
4.6156e+06
4.61559e+06
4.61559e+06
4.61559e+06
4.61559e+06
4.61559e+06
4.61559e+06
4.6156e+06
4.61561e+06
4.61562e+06
4.61563e+06
4.61564e+06
4.61566e+06
4.61567e+06
4.61569e+06
4.6157e+06
4.61571e+06
4.61573e+06
4.61574e+06
4.61575e+06
4.61577e+06
4.61578e+06
4.61579e+06
4.61581e+06
4.61582e+06
4.61583e+06
4.61584e+06
4.61585e+06
4.61585e+06
4.61585e+06
4.61584e+06
4.61583e+06
4.61581e+06
4.61578e+06
4.61574e+06
4.6157e+06
4.61564e+06
4.61566e+06
4.61568e+06
4.61569e+06
4.61569e+06
4.6157e+06
4.6157e+06
4.6157e+06
4.6157e+06
4.61569e+06
4.61569e+06
4.61568e+06
4.61567e+06
4.61566e+06
4.61566e+06
4.61565e+06
4.61564e+06
4.61564e+06
4.61563e+06
4.61563e+06
4.61563e+06
4.61564e+06
4.61565e+06
4.61565e+06
4.61566e+06
4.61567e+06
4.61569e+06
4.6157e+06
4.61571e+06
4.61573e+06
4.61574e+06
4.61575e+06
4.61576e+06
4.61578e+06
4.61579e+06
4.61581e+06
4.61582e+06
4.61583e+06
4.61585e+06
4.61586e+06
4.61587e+06
4.61588e+06
4.61588e+06
4.61588e+06
4.61588e+06
4.61587e+06
4.61586e+06
4.61583e+06
4.61581e+06
4.61577e+06
4.61565e+06
4.61566e+06
4.61566e+06
4.61567e+06
4.61566e+06
4.61566e+06
4.61566e+06
4.61565e+06
4.61565e+06
4.61564e+06
4.61564e+06
4.61563e+06
4.61562e+06
4.61562e+06
4.61561e+06
4.61561e+06
4.6156e+06
4.6156e+06
4.6156e+06
4.6156e+06
4.6156e+06
4.61561e+06
4.61561e+06
4.61562e+06
4.61563e+06
4.61565e+06
4.61566e+06
4.61567e+06
4.61569e+06
4.6157e+06
4.61572e+06
4.61573e+06
4.61575e+06
4.61576e+06
4.61578e+06
4.6158e+06
4.61581e+06
4.61583e+06
4.61584e+06
4.61586e+06
4.61587e+06
4.61588e+06
4.61589e+06
4.6159e+06
4.6159e+06
4.61589e+06
4.61589e+06
4.61587e+06
4.61585e+06
4.61583e+06
4.61566e+06
4.61566e+06
4.61567e+06
4.61567e+06
4.61567e+06
4.61567e+06
4.61567e+06
4.61567e+06
4.61567e+06
4.61567e+06
4.61566e+06
4.61566e+06
4.61565e+06
4.61565e+06
4.61564e+06
4.61564e+06
4.61563e+06
4.61563e+06
4.61563e+06
4.61563e+06
4.61563e+06
4.61564e+06
4.61564e+06
4.61565e+06
4.61566e+06
4.61567e+06
4.61569e+06
4.6157e+06
4.61571e+06
4.61573e+06
4.61574e+06
4.61576e+06
4.61577e+06
4.61579e+06
4.6158e+06
4.61582e+06
4.61584e+06
4.61586e+06
4.61587e+06
4.61589e+06
4.61591e+06
4.61592e+06
4.61593e+06
4.61594e+06
4.61594e+06
4.61594e+06
4.61594e+06
4.61593e+06
4.61592e+06
4.61591e+06
4.61566e+06
4.61566e+06
4.61566e+06
4.61567e+06
4.61566e+06
4.61566e+06
4.61566e+06
4.61566e+06
4.61566e+06
4.61565e+06
4.61565e+06
4.61564e+06
4.61564e+06
4.61563e+06
4.61563e+06
4.61562e+06
4.61562e+06
4.61561e+06
4.61561e+06
4.61561e+06
4.61561e+06
4.61562e+06
4.61562e+06
4.61563e+06
4.61564e+06
4.61566e+06
4.61567e+06
4.61568e+06
4.6157e+06
4.61571e+06
4.61573e+06
4.61575e+06
4.61576e+06
4.61578e+06
4.6158e+06
4.61582e+06
4.61584e+06
4.61586e+06
4.61588e+06
4.6159e+06
4.61592e+06
4.61593e+06
4.61595e+06
4.61596e+06
4.61597e+06
4.61597e+06
4.61598e+06
4.61598e+06
4.61597e+06
4.61597e+06
4.61566e+06
4.61566e+06
4.61566e+06
4.61566e+06
4.61566e+06
4.61566e+06
4.61566e+06
4.61566e+06
4.61566e+06
4.61566e+06
4.61565e+06
4.61565e+06
4.61565e+06
4.61564e+06
4.61564e+06
4.61563e+06
4.61563e+06
4.61563e+06
4.61563e+06
4.61563e+06
4.61563e+06
4.61563e+06
4.61564e+06
4.61565e+06
4.61566e+06
4.61567e+06
4.61568e+06
4.6157e+06
4.61571e+06
4.61573e+06
4.61574e+06
4.61576e+06
4.61578e+06
4.6158e+06
4.61582e+06
4.61584e+06
4.61586e+06
4.61588e+06
4.6159e+06
4.61593e+06
4.61595e+06
4.61596e+06
4.61598e+06
4.616e+06
4.61601e+06
4.61602e+06
4.61603e+06
4.61604e+06
4.61604e+06
4.61604e+06
4.61566e+06
4.61566e+06
4.61566e+06
4.61566e+06
4.61566e+06
4.61566e+06
4.61566e+06
4.61566e+06
4.61566e+06
4.61565e+06
4.61565e+06
4.61565e+06
4.61564e+06
4.61564e+06
4.61564e+06
4.61563e+06
4.61563e+06
4.61563e+06
4.61562e+06
4.61562e+06
4.61563e+06
4.61563e+06
4.61563e+06
4.61564e+06
4.61565e+06
4.61566e+06
4.61568e+06
4.61569e+06
4.61571e+06
4.61573e+06
4.61574e+06
4.61576e+06
4.61578e+06
4.6158e+06
4.61582e+06
4.61585e+06
4.61587e+06
4.61589e+06
4.61592e+06
4.61594e+06
4.61596e+06
4.61599e+06
4.61601e+06
4.61603e+06
4.61604e+06
4.61606e+06
4.61607e+06
4.61609e+06
4.6161e+06
4.61611e+06
4.61566e+06
4.61566e+06
4.61566e+06
4.61566e+06
4.61566e+06
4.61566e+06
4.61566e+06
4.61566e+06
4.61565e+06
4.61565e+06
4.61565e+06
4.61565e+06
4.61564e+06
4.61564e+06
4.61564e+06
4.61563e+06
4.61563e+06
4.61563e+06
4.61563e+06
4.61563e+06
4.61563e+06
4.61563e+06
4.61564e+06
4.61564e+06
4.61565e+06
4.61567e+06
4.61568e+06
4.61569e+06
4.61571e+06
4.61573e+06
4.61575e+06
4.61577e+06
4.61579e+06
4.61581e+06
4.61583e+06
4.61586e+06
4.61588e+06
4.61591e+06
4.61594e+06
4.61596e+06
4.61599e+06
4.61601e+06
4.61604e+06
4.61606e+06
4.61608e+06
4.6161e+06
4.61612e+06
4.61614e+06
4.61615e+06
4.61617e+06
4.61566e+06
4.61566e+06
4.61566e+06
4.61566e+06
4.61566e+06
4.61566e+06
4.61566e+06
4.61566e+06
4.61566e+06
4.61565e+06
4.61565e+06
4.61565e+06
4.61565e+06
4.61565e+06
4.61564e+06
4.61564e+06
4.61564e+06
4.61564e+06
4.61564e+06
4.61564e+06
4.61564e+06
4.61564e+06
4.61565e+06
4.61565e+06
4.61566e+06
4.61567e+06
4.61569e+06
4.6157e+06
4.61572e+06
4.61574e+06
4.61576e+06
4.61578e+06
4.6158e+06
4.61582e+06
4.61585e+06
4.61587e+06
4.6159e+06
4.61593e+06
4.61596e+06
4.61598e+06
4.61601e+06
4.61604e+06
4.61607e+06
4.61609e+06
4.61612e+06
4.61614e+06
4.61617e+06
4.61619e+06
4.61621e+06
4.61624e+06
4.61566e+06
4.61566e+06
4.61566e+06
4.61566e+06
4.61566e+06
4.61566e+06
4.61566e+06
4.61565e+06
4.61565e+06
4.61565e+06
4.61565e+06
4.61564e+06
4.61564e+06
4.61564e+06
4.61564e+06
4.61563e+06
4.61563e+06
4.61563e+06
4.61563e+06
4.61563e+06
4.61563e+06
4.61563e+06
4.61563e+06
4.61564e+06
4.61565e+06
4.61566e+06
4.61568e+06
4.61569e+06
4.61571e+06
4.61573e+06
4.61575e+06
4.61577e+06
4.6158e+06
4.61582e+06
4.61585e+06
4.61588e+06
4.61591e+06
4.61593e+06
4.61597e+06
4.616e+06
4.61603e+06
4.61606e+06
4.61609e+06
4.61612e+06
4.61615e+06
4.61618e+06
4.61621e+06
4.61624e+06
4.61627e+06
4.6163e+06
4.61566e+06
4.61566e+06
4.61566e+06
4.61566e+06
4.61566e+06
4.61566e+06
4.61566e+06
4.61566e+06
4.61566e+06
4.61566e+06
4.61566e+06
4.61566e+06
4.61566e+06
4.61566e+06
4.61566e+06
4.61565e+06
4.61565e+06
4.61565e+06
4.61565e+06
4.61565e+06
4.61565e+06
4.61565e+06
4.61566e+06
4.61566e+06
4.61567e+06
4.61568e+06
4.6157e+06
4.61571e+06
4.61573e+06
4.61575e+06
4.61577e+06
4.61579e+06
4.61582e+06
4.61584e+06
4.61587e+06
4.6159e+06
4.61593e+06
4.61596e+06
4.61599e+06
4.61602e+06
4.61606e+06
4.61609e+06
4.61612e+06
4.61616e+06
4.61619e+06
4.61622e+06
4.61626e+06
4.61629e+06
4.61633e+06
4.61636e+06
4.61565e+06
4.61565e+06
4.61566e+06
4.61566e+06
4.61566e+06
4.61565e+06
4.61565e+06
4.61564e+06
4.61564e+06
4.61564e+06
4.61563e+06
4.61563e+06
4.61563e+06
4.61563e+06
4.61563e+06
4.61562e+06
4.61562e+06
4.61562e+06
4.61562e+06
4.61562e+06
4.61562e+06
4.61563e+06
4.61563e+06
4.61564e+06
4.61565e+06
4.61566e+06
4.61568e+06
4.61569e+06
4.61571e+06
4.61573e+06
4.61576e+06
4.61578e+06
4.61581e+06
4.61583e+06
4.61586e+06
4.61589e+06
4.61593e+06
4.61596e+06
4.61599e+06
4.61603e+06
4.61606e+06
4.6161e+06
4.61613e+06
4.61617e+06
4.61621e+06
4.61625e+06
4.61629e+06
4.61633e+06
4.61637e+06
4.61641e+06
4.61564e+06
4.61565e+06
4.61567e+06
4.61568e+06
4.61569e+06
4.61569e+06
4.61569e+06
4.61569e+06
4.61569e+06
4.61569e+06
4.61568e+06
4.61568e+06
4.61568e+06
4.61568e+06
4.61567e+06
4.61567e+06
4.61567e+06
4.61566e+06
4.61566e+06
4.61566e+06
4.61566e+06
4.61566e+06
4.61567e+06
4.61567e+06
4.61568e+06
4.61569e+06
4.6157e+06
4.61572e+06
4.61574e+06
4.61576e+06
4.61578e+06
4.61581e+06
4.61583e+06
4.61586e+06
4.61589e+06
4.61592e+06
4.61595e+06
4.61598e+06
4.61602e+06
4.61605e+06
4.61609e+06
4.61613e+06
4.61617e+06
4.61621e+06
4.61625e+06
4.61629e+06
4.61633e+06
4.61638e+06
4.61643e+06
4.61648e+06
4.6156e+06
4.61563e+06
4.61564e+06
4.61563e+06
4.61562e+06
4.61561e+06
4.61561e+06
4.61561e+06
4.61561e+06
4.61561e+06
4.61561e+06
4.61561e+06
4.61561e+06
4.61562e+06
4.61562e+06
4.61562e+06
4.61562e+06
4.61562e+06
4.61562e+06
4.61562e+06
4.61562e+06
4.61562e+06
4.61563e+06
4.61564e+06
4.61565e+06
4.61566e+06
4.61568e+06
4.6157e+06
4.61572e+06
4.61574e+06
4.61576e+06
4.61579e+06
4.61582e+06
4.61585e+06
4.61588e+06
4.61591e+06
4.61594e+06
4.61598e+06
4.61601e+06
4.61605e+06
4.61609e+06
4.61613e+06
4.61617e+06
4.61621e+06
4.61626e+06
4.6163e+06
4.61635e+06
4.61641e+06
4.61646e+06
4.61652e+06
4.61558e+06
4.61572e+06
4.61579e+06
4.61579e+06
4.61578e+06
4.61576e+06
4.61575e+06
4.61574e+06
4.61573e+06
4.61572e+06
4.61571e+06
4.6157e+06
4.61569e+06
4.61569e+06
4.61568e+06
4.61568e+06
4.61567e+06
4.61567e+06
4.61567e+06
4.61566e+06
4.61566e+06
4.61566e+06
4.61567e+06
4.61567e+06
4.61568e+06
4.61569e+06
4.61571e+06
4.61572e+06
4.61574e+06
4.61576e+06
4.61579e+06
4.61581e+06
4.61584e+06
4.61587e+06
4.6159e+06
4.61593e+06
4.61596e+06
4.616e+06
4.61603e+06
4.61607e+06
4.61611e+06
4.61615e+06
4.6162e+06
4.61624e+06
4.61629e+06
4.61634e+06
4.61639e+06
4.61645e+06
4.61651e+06
4.61658e+06
4.61512e+06
4.61541e+06
4.6155e+06
4.61553e+06
4.61556e+06
4.61557e+06
4.61559e+06
4.6156e+06
4.6156e+06
4.61561e+06
4.61561e+06
4.61562e+06
4.61562e+06
4.61562e+06
4.61562e+06
4.61562e+06
4.61562e+06
4.61562e+06
4.61563e+06
4.61563e+06
4.61563e+06
4.61563e+06
4.61564e+06
4.61565e+06
4.61566e+06
4.61567e+06
4.61569e+06
4.6157e+06
4.61572e+06
4.61575e+06
4.61577e+06
4.6158e+06
4.61583e+06
4.61586e+06
4.61589e+06
4.61592e+06
4.61595e+06
4.61599e+06
4.61603e+06
4.61607e+06
4.61611e+06
4.61615e+06
4.61619e+06
4.61624e+06
4.61629e+06
4.61634e+06
4.6164e+06
4.61646e+06
4.61653e+06
4.61661e+06
4.61672e+06
4.61621e+06
4.61595e+06
4.61586e+06
4.6158e+06
4.61576e+06
4.61573e+06
4.61571e+06
4.6157e+06
4.61569e+06
4.61568e+06
4.61568e+06
4.61567e+06
4.61567e+06
4.61567e+06
4.61566e+06
4.61566e+06
4.61566e+06
4.61565e+06
4.61565e+06
4.61565e+06
4.61566e+06
4.61566e+06
4.61567e+06
4.61568e+06
4.61569e+06
4.6157e+06
4.61572e+06
4.61574e+06
4.61576e+06
4.61579e+06
4.61581e+06
4.61584e+06
4.61587e+06
4.6159e+06
4.61593e+06
4.61597e+06
4.616e+06
4.61604e+06
4.61608e+06
4.61612e+06
4.61616e+06
4.61621e+06
4.61625e+06
4.6163e+06
4.61636e+06
4.61642e+06
4.61648e+06
4.61656e+06
4.61665e+06
4.38183e+06
4.38828e+06
4.38926e+06
4.39357e+06
4.395e+06
4.39763e+06
4.39883e+06
4.40008e+06
4.40054e+06
4.40076e+06
4.40072e+06
4.40031e+06
4.40018e+06
4.40037e+06
4.4004e+06
4.40191e+06
4.40162e+06
4.40537e+06
4.40404e+06
4.41504e+06
4.38146e+06
4.38787e+06
4.38884e+06
4.39308e+06
4.3945e+06
4.39705e+06
4.39822e+06
4.39942e+06
4.39988e+06
4.40012e+06
4.40009e+06
4.3997e+06
4.39959e+06
4.39977e+06
4.39978e+06
4.40116e+06
4.40083e+06
4.40443e+06
4.40337e+06
4.41464e+06
4.38134e+06
4.38771e+06
4.38868e+06
4.39285e+06
4.39424e+06
4.39671e+06
4.39783e+06
4.39898e+06
4.39942e+06
4.39966e+06
4.39961e+06
4.39922e+06
4.39912e+06
4.39928e+06
4.39927e+06
4.40053e+06
4.40011e+06
4.40355e+06
4.40283e+06
4.41449e+06
4.38149e+06
4.38784e+06
4.3888e+06
4.39288e+06
4.39424e+06
4.39661e+06
4.39769e+06
4.39875e+06
4.39915e+06
4.39935e+06
4.39926e+06
4.39888e+06
4.3988e+06
4.39895e+06
4.3989e+06
4.40002e+06
4.39952e+06
4.40281e+06
4.40232e+06
4.41423e+06
4.38195e+06
4.38826e+06
4.38921e+06
4.39321e+06
4.39453e+06
4.3968e+06
4.3978e+06
4.39877e+06
4.39909e+06
4.39921e+06
4.39904e+06
4.39866e+06
4.39861e+06
4.39875e+06
4.39863e+06
4.39962e+06
4.3991e+06
4.40242e+06
4.40205e+06
4.41404e+06
4.38273e+06
4.389e+06
4.38994e+06
4.39385e+06
4.39512e+06
4.39729e+06
4.3982e+06
4.39905e+06
4.39927e+06
4.39927e+06
4.39897e+06
4.39853e+06
4.3985e+06
4.39863e+06
4.39845e+06
4.39935e+06
4.39891e+06
4.40242e+06
4.40215e+06
4.4142e+06
4.38385e+06
4.39007e+06
4.391e+06
4.39482e+06
4.39605e+06
4.3981e+06
4.39893e+06
4.39965e+06
4.39974e+06
4.39958e+06
4.39912e+06
4.39857e+06
4.39853e+06
4.39864e+06
4.39845e+06
4.39933e+06
4.39904e+06
4.40283e+06
4.40268e+06
4.41477e+06
4.38532e+06
4.39149e+06
4.39242e+06
4.39615e+06
4.39734e+06
4.39928e+06
4.40002e+06
4.40061e+06
4.40057e+06
4.40024e+06
4.3996e+06
4.39893e+06
4.39883e+06
4.39892e+06
4.39876e+06
4.39969e+06
4.39958e+06
4.40371e+06
4.40367e+06
4.41577e+06
4.38717e+06
4.39327e+06
4.3942e+06
4.39784e+06
4.399e+06
4.40085e+06
4.40151e+06
4.40199e+06
4.40183e+06
4.40136e+06
4.40057e+06
4.39977e+06
4.39961e+06
4.39964e+06
4.39954e+06
4.40056e+06
4.40065e+06
4.40511e+06
4.40517e+06
4.41721e+06
4.38938e+06
4.39542e+06
4.39636e+06
4.39992e+06
4.40106e+06
4.40283e+06
4.40344e+06
4.40383e+06
4.40358e+06
4.403e+06
4.4021e+06
4.40123e+06
4.401e+06
4.40097e+06
4.40094e+06
4.40206e+06
4.40234e+06
4.4071e+06
4.40724e+06
4.41914e+06
4.39197e+06
4.39794e+06
4.39889e+06
4.40238e+06
4.40352e+06
4.40523e+06
4.40581e+06
4.40615e+06
4.40585e+06
4.40521e+06
4.40426e+06
4.40336e+06
4.40307e+06
4.403e+06
4.40305e+06
4.40427e+06
4.40474e+06
4.40972e+06
4.40992e+06
4.42159e+06
4.39493e+06
4.40083e+06
4.40179e+06
4.40522e+06
4.40637e+06
4.40804e+06
4.40863e+06
4.40896e+06
4.40866e+06
4.40802e+06
4.40708e+06
4.40619e+06
4.40588e+06
4.40578e+06
4.4059e+06
4.40719e+06
4.40784e+06
4.41295e+06
4.4132e+06
4.42458e+06
4.39825e+06
4.40406e+06
4.40505e+06
4.40842e+06
4.4096e+06
4.41126e+06
4.41189e+06
4.41224e+06
4.41199e+06
4.4114e+06
4.41052e+06
4.4097e+06
4.40938e+06
4.40928e+06
4.40947e+06
4.41079e+06
4.41159e+06
4.41674e+06
4.41703e+06
4.42804e+06
4.4019e+06
4.40764e+06
4.40865e+06
4.41198e+06
4.41319e+06
4.41487e+06
4.41555e+06
4.41596e+06
4.4158e+06
4.4153e+06
4.41453e+06
4.41381e+06
4.41351e+06
4.41341e+06
4.41366e+06
4.415e+06
4.41591e+06
4.42102e+06
4.42132e+06
4.43191e+06
4.40588e+06
4.41152e+06
4.41257e+06
4.41586e+06
4.41712e+06
4.41881e+06
4.41957e+06
4.42007e+06
4.42002e+06
4.41965e+06
4.41902e+06
4.41842e+06
4.41816e+06
4.41809e+06
4.41837e+06
4.4197e+06
4.42069e+06
4.42568e+06
4.42598e+06
4.43612e+06
4.41015e+06
4.4157e+06
4.41678e+06
4.42002e+06
4.42134e+06
4.42306e+06
4.42391e+06
4.4245e+06
4.42459e+06
4.42436e+06
4.42389e+06
4.42341e+06
4.42321e+06
4.42317e+06
4.42348e+06
4.42479e+06
4.42581e+06
4.43064e+06
4.43091e+06
4.44058e+06
4.41469e+06
4.42014e+06
4.42125e+06
4.42445e+06
4.42582e+06
4.42757e+06
4.4285e+06
4.4292e+06
4.42942e+06
4.42934e+06
4.42903e+06
4.42868e+06
4.42854e+06
4.42853e+06
4.42887e+06
4.43015e+06
4.43117e+06
4.4358e+06
4.43605e+06
4.44523e+06
4.41947e+06
4.42482e+06
4.42595e+06
4.4291e+06
4.43051e+06
4.43228e+06
4.4333e+06
4.43409e+06
4.43444e+06
4.4345e+06
4.43434e+06
4.43413e+06
4.43404e+06
4.43407e+06
4.43443e+06
4.43567e+06
4.43666e+06
4.44109e+06
4.4413e+06
4.45001e+06
4.42448e+06
4.4297e+06
4.43086e+06
4.43394e+06
4.43539e+06
4.43717e+06
4.43825e+06
4.43912e+06
4.43959e+06
4.43978e+06
4.43975e+06
4.43965e+06
4.43961e+06
4.43968e+06
4.44005e+06
4.44126e+06
4.44222e+06
4.44643e+06
4.44662e+06
4.45486e+06
4.42968e+06
4.43478e+06
4.43594e+06
4.43895e+06
4.44041e+06
4.44218e+06
4.44331e+06
4.44424e+06
4.4448e+06
4.44509e+06
4.44519e+06
4.44517e+06
4.44519e+06
4.44529e+06
4.44568e+06
4.44685e+06
4.44777e+06
4.45178e+06
4.45194e+06
4.45975e+06
4.43505e+06
4.44002e+06
4.44118e+06
4.4441e+06
4.44556e+06
4.44729e+06
4.44844e+06
4.4494e+06
4.45003e+06
4.45041e+06
4.45059e+06
4.45066e+06
4.45071e+06
4.45084e+06
4.45124e+06
4.4524e+06
4.45327e+06
4.4571e+06
4.45724e+06
4.46464e+06
4.44059e+06
4.44541e+06
4.44656e+06
4.44937e+06
4.4508e+06
4.45248e+06
4.45362e+06
4.45458e+06
4.45524e+06
4.45568e+06
4.45593e+06
4.45605e+06
4.45614e+06
4.4563e+06
4.45672e+06
4.45786e+06
4.45869e+06
4.46236e+06
4.46249e+06
4.4695e+06
4.44626e+06
4.45093e+06
4.45206e+06
4.45474e+06
4.45612e+06
4.45772e+06
4.45883e+06
4.45976e+06
4.46042e+06
4.46088e+06
4.46118e+06
4.46134e+06
4.46146e+06
4.46165e+06
4.46208e+06
4.46321e+06
4.46402e+06
4.46753e+06
4.46767e+06
4.47432e+06
4.45208e+06
4.45657e+06
4.45766e+06
4.46021e+06
4.46152e+06
4.46302e+06
4.46405e+06
4.46493e+06
4.46556e+06
4.46602e+06
4.46633e+06
4.46652e+06
4.46665e+06
4.46688e+06
4.46732e+06
4.46845e+06
4.46923e+06
4.47263e+06
4.47277e+06
4.4791e+06
4.45802e+06
4.46234e+06
4.46338e+06
4.46576e+06
4.46699e+06
4.46835e+06
4.46929e+06
4.47008e+06
4.47065e+06
4.47108e+06
4.47139e+06
4.47159e+06
4.47173e+06
4.47198e+06
4.47245e+06
4.47358e+06
4.47435e+06
4.47764e+06
4.4778e+06
4.48384e+06
4.46409e+06
4.46822e+06
4.4692e+06
4.47141e+06
4.47253e+06
4.47374e+06
4.47455e+06
4.47522e+06
4.47571e+06
4.47608e+06
4.47636e+06
4.47655e+06
4.47671e+06
4.47699e+06
4.47748e+06
4.47862e+06
4.47939e+06
4.48259e+06
4.48277e+06
4.48854e+06
4.4703e+06
4.47423e+06
4.47514e+06
4.47717e+06
4.47815e+06
4.47919e+06
4.47985e+06
4.48037e+06
4.48074e+06
4.48102e+06
4.48126e+06
4.48144e+06
4.48161e+06
4.48191e+06
4.48243e+06
4.48358e+06
4.48437e+06
4.48749e+06
4.48771e+06
4.49324e+06
4.47665e+06
4.48037e+06
4.48121e+06
4.48303e+06
4.48387e+06
4.48472e+06
4.4852e+06
4.48555e+06
4.48577e+06
4.48594e+06
4.48611e+06
4.48627e+06
4.48645e+06
4.48678e+06
4.48733e+06
4.4885e+06
4.48931e+06
4.49238e+06
4.49264e+06
4.49795e+06
4.48314e+06
4.48665e+06
4.4874e+06
4.48902e+06
4.4897e+06
4.49034e+06
4.49063e+06
4.49078e+06
4.49083e+06
4.49087e+06
4.49095e+06
4.49108e+06
4.49127e+06
4.49162e+06
4.49221e+06
4.49341e+06
4.49426e+06
4.49729e+06
4.4976e+06
4.50272e+06
4.48979e+06
4.49307e+06
4.49374e+06
4.49515e+06
4.49566e+06
4.49608e+06
4.49616e+06
4.4961e+06
4.49596e+06
4.49584e+06
4.49582e+06
4.49591e+06
4.4961e+06
4.49648e+06
4.49712e+06
4.49835e+06
4.49925e+06
4.50226e+06
4.50264e+06
4.50759e+06
4.49658e+06
4.49963e+06
4.50021e+06
4.50141e+06
4.50175e+06
4.50196e+06
4.50183e+06
4.50155e+06
4.50121e+06
4.50092e+06
4.50077e+06
4.5008e+06
4.50099e+06
4.5014e+06
4.50209e+06
4.50337e+06
4.50435e+06
4.50735e+06
4.50781e+06
4.51261e+06
4.50351e+06
4.50633e+06
4.50682e+06
4.50782e+06
4.508e+06
4.50801e+06
4.50766e+06
4.50717e+06
4.50661e+06
4.50614e+06