/*--------------------------------*- C++ -*----------------------------------*\
  =========                 |
  \\      /  F ield         | OpenFOAM: The Open Source CFD Toolbox
   \\    /   O peration     | Website:  https://openfoam.org
    \\  /    A nd           | Version:  8
     \\/     M anipulation  |
\*---------------------------------------------------------------------------*/
FoamFile
{
    version     2.0;
    format      ascii;
    class       surfaceScalarField;
    location    "400";
    object      phi;
}
// * * * * * * * * * * * * * * * * * * * * * * * * * * * * * * * * * * * * * //

dimensions      [1 0 -1 0 0 0 0];

internalField   nonuniform List<scalar> 
16360
(
-10.6305
0.00207334
-10.6344
0.0039694
-10.6395
0.00509186
-10.6455
0.00588292
-10.6519
0.00638007
-10.6584
0.00656611
-10.6648
0.00638406
-10.6706
0.0057687
-10.6752
0.00464639
-10.6782
0.00293233
-10.6789
0.000549041
-10.6765
-0.00255795
-10.6702
-0.0064035
-10.6594
-0.0109674
-10.6431
-0.0162688
-10.6207
-0.0223926
-10.5912
-0.0294346
-10.5537
-0.0374847
-10.507
-0.0466114
-10.4502
-0.056855
-10.382
-0.0682331
-10.3013
-0.080754
-10.2068
-0.0944211
-10.0976
-0.109233
-9.97233
-0.125179
-9.83004
-0.142235
-9.66968
-0.160351
-9.49024
-0.179463
-9.2908
-0.199509
-9.07046
-0.220419
-8.82837
-0.242115
-8.56378
-0.264531
-8.27602
-0.28761
-7.96459
-0.311275
-7.62901
-0.335438
-7.26906
-0.359933
-6.88464
-0.384463
-6.47589
-0.408728
-6.04346
-0.432442
-5.5883
-0.455163
-5.11175
-0.476402
-4.61576
-0.495791
-4.10278
-0.512923
-3.576
-0.526981
-3.03876
-0.537154
-2.49525
-0.543166
-1.94999
-0.545266
-1.40584
-0.544161
-0.866172
-0.539685
-0.531944
-0.333936
-9.9783
-0.00390131
-9.97237
-0.00200136
-9.96649
-0.000838118
-9.96061
-2.73107e-05
-9.9546
0.000351712
-9.94818
0.000150896
-9.94099
-0.00079846
-9.93261
-0.00264832
-9.92254
-0.00552188
-9.91031
-0.00947722
-9.89546
-0.014535
-9.87749
-0.0207507
-9.85584
-0.0282039
-9.82981
-0.0370262
-9.79864
-0.0473758
-9.76153
-0.059406
-9.71763
-0.0732633
-9.66605
-0.0890618
-9.60584
-0.106878
-9.53599
-0.126763
-9.4555
-0.14875
-9.36335
-0.172873
-9.25854
-0.199153
-9.1401
-0.227589
-9.00711
-0.258135
-8.85867
-0.2907
-8.69393
-0.325157
-8.5121
-0.361366
-8.31244
-0.399208
-8.09422
-0.438578
-7.85679
-0.479385
-7.59954
-0.52154
-7.32197
-0.564959
-7.02366
-0.609502
-6.70426
-0.654856
-6.36355
-0.700645
-6.00159
-0.74645
-5.61866
-0.791606
-5.21542
-0.83548
-4.79289
-0.877452
-4.35265
-0.91661
-3.89675
-0.951812
-3.42742
-0.982021
-2.94791
-1.00622
-2.46179
-1.0232
-1.97288
-1.03187
-1.48613
-1.03202
-1.0061
-1.02395
-0.538459
-1.0073
-0.978263
-0.0920815
-9.07076
-0.0205253
-9.05393
-0.0188565
-9.03681
-0.0179875
-9.01925
-0.017599
-9.00107
-0.017819
-8.98208
-0.0188223
-8.96207
-0.0207941
-8.94083
-0.0239123
-8.9181
-0.0283235
-8.89352
-0.0341655
-8.86659
-0.0415712
-8.83676
-0.0506671
-8.80338
-0.0616063
-8.76582
-0.0745773
-8.72339
-0.0897886
-8.67539
-0.107432
-8.62104
-0.127674
-8.55953
-0.150646
-8.49
-0.176452
-8.41159
-0.205174
-8.32341
-0.23688
-8.22461
-0.271621
-8.11435
-0.309407
-7.99181
-0.350179
-7.85618
-0.393811
-7.70676
-0.44014
-7.54286
-0.488996
-7.36391
-0.540219
-7.16932
-0.593669
-6.95856
-0.649221
-6.73108
-0.706764
-6.48644
-0.766167
-6.22419
-0.827247
-5.9439
-0.889805
-5.64528
-0.953487
-5.32826
-1.01765
-4.99281
-1.08163
-4.63947
-1.1447
-4.26911
-1.20591
-3.88267
-1.26397
-3.48174
-1.31736
-3.06873
-1.36471
-2.64612
-1.40461
-2.21723
-1.43524
-1.78561
-1.45486
-1.3554
-1.46207
-0.93163
-1.45617
-0.519657
-1.43654
-0.123569
-1.40347
-1.34327
0.241216
-7.98772
-0.0443723
-7.96239
-0.0441957
-7.93642
-0.0439549
-7.91011
-0.0438934
-7.88348
-0.0444229
-7.85638
-0.0458941
-7.82855
-0.0486008
-7.79968
-0.0527836
-7.76936
-0.0586422
-7.73717
-0.0663531
-7.70265
-0.0760787
-7.6653
-0.0879922
-7.6246
-0.1023
-7.58
-0.119225
-7.5309
-0.138991
-7.47665
-0.161811
-7.41656
-0.187882
-7.34987
-0.217383
-7.27582
-0.250466
-7.19367
-0.287262
-7.10266
-0.327856
-7.00206
-0.372267
-6.89112
-0.420435
-6.76915
-0.472218
-6.63551
-0.527428
-6.48965
-0.585876
-6.33109
-0.647386
-6.15941
-0.711781
-5.97419
-0.778876
-5.77502
-0.848484
-5.56144
-0.920434
-5.33305
-0.994629
-5.08947
-1.07093
-4.83026
-1.14904
-4.55502
-1.22853
-4.26386
-1.30872
-3.95696
-1.38862
-3.63493
-1.46695
-3.29865
-1.54242
-2.94912
-1.6136
-2.58837
-1.67822
-2.21903
-1.73427
-1.84348
-1.7801
-1.46543
-1.81332
-1.08868
-1.83151
-0.717726
-1.83293
-0.356821
-1.81671
-0.0126008
-1.78111
0.301606
-1.71756
-1.60961
0.568036
-6.83369
-0.0766873
-6.8014
-0.0764827
-6.76917
-0.0761567
-6.73698
-0.0760341
-6.70474
-0.0766061
-6.67225
-0.0783386
-6.63919
-0.0816111
-6.60519
-0.0867242
-6.56986
-0.0939031
-6.53278
-0.103344
-6.49355
-0.115238
-6.45173
-0.129784
-6.40689
-0.147207
-6.35853
-0.167735
-6.3061
-0.191606
-6.249
-0.219069
-6.18658
-0.25038
-6.11815
-0.285791
-6.04304
-0.325515
-5.96057
-0.369695
-5.87007
-0.418373
-5.77089
-0.471493
-5.6624
-0.528925
-5.54404
-0.590483
-5.41536
-0.655954
-5.27598
-0.725122
-5.1256
-0.797765
-4.96388
-0.873621
-4.79049
-0.952428
-4.60508
-1.03402
-4.40731
-1.11824
-4.19678
-1.20503
-3.97309
-1.29443
-3.73583
-1.3863
-3.4846
-1.48003
-3.21949
-1.57429
-2.9408
-1.66755
-2.64945
-1.75834
-2.34662
-1.84523
-2.03313
-1.9269
-1.71159
-1.99969
-1.38505
-2.06091
-1.05563
-2.10908
-0.727506
-2.14122
-0.404749
-2.1544
-0.0921597
-2.14587
0.201903
-2.11041
0.460669
-2.03952
0.676344
-1.93338
-1.80214
0.868711
-5.6618
-0.11269
-5.62468
-0.113582
-5.58755
-0.113228
-5.5508
-0.112709
-5.5144
-0.112941
-5.47807
-0.1146
-5.44146
-0.118162
-5.40413
-0.12396
-5.3657
-0.132235
-5.32577
-0.143188
-5.28395
-0.157009
-5.23988
-0.173902
-5.19316
-0.194072
-5.14333
-0.217742
-5.08992
-0.245176
-5.03236
-0.276704
-4.97004
-0.312692
-4.90232
-0.353465
-4.82854
-0.399246
-4.74807
-0.450125
-4.66029
-0.506078
-4.56463
-0.567002
-4.46063
-0.632733
-4.34792
-0.703035
-4.22623
-0.777607
-4.09535
-0.856119
-3.95503
-0.93828
-3.80497
-1.02384
-3.64489
-1.1125
-3.47443
-1.20424
-3.29329
-1.29911
-3.10118
-1.39715
-2.89766
-1.49822
-2.68219
-1.60201
-2.45421
-1.70805
-2.21405
-1.81429
-1.96244
-1.91901
-1.7007
-2.0203
-1.4303
-2.11612
-1.15156
-2.20569
-0.867964
-2.28328
-0.583309
-2.34638
-0.299271
-2.3937
-0.0205684
-2.42022
0.244109
-2.41888
0.481157
-2.38287
0.685968
-2.31512
0.867421
-2.22085
1.03332
-2.0993
-1.95255
1.18367
-4.49081
-0.156242
-4.44806
-0.156269
-4.40669
-0.154522
-4.36663
-0.152677
-4.3276
-0.151893
-4.28916
-0.15298
-4.25082
-0.156456
-4.21209
-0.16263
-4.17257
-0.171714
-4.13189
-0.183875
-4.0897
-0.199272
-4.04565
-0.218074
-3.99939
-0.240462
-3.95053
-0.266688
-3.89863
-0.297111
-3.84317
-0.332173
-3.7835
-0.372354
-3.71892
-0.418032
-3.64872
-0.46939
-3.57226
-0.526439
-3.48902
-0.589091
-3.3986
-0.657199
-3.30071
-0.730512
-3.19514
-0.808637
-3.08182
-0.891079
-2.96071
-0.977381
-2.83169
-1.06733
-2.69439
-1.16103
-2.54862
-1.25819
-2.39393
-1.35899
-2.2298
-1.46331
-2.05573
-1.57119
-1.87132
-1.68246
-1.67634
-1.79676
-1.47032
-1.91432
-1.25409
-2.03093
-1.02845
-2.14477
-0.794816
-2.25388
-0.555198
-2.35594
-0.309851
-2.4511
-0.0630919
-2.52978
0.179144
-2.58858
0.40861
-2.62272
0.617183
-2.62843
0.805787
-2.60683
0.97952
-2.55622
1.13855
-2.4746
1.27883
-2.36187
1.3975
-2.21817
-2.04697
1.49187
-3.32507
-0.202836
-3.27885
-0.202408
-3.23506
-0.198209
-3.19365
-0.193987
-3.15413
-0.19133
-3.11584
-0.191235
-3.07813
-0.194171
-3.04045
-0.20035
-3.00237
-0.209869
-2.96355
-0.222809
-2.92365
-0.239281
-2.88236
-0.259431
-2.83939
-0.283453
-2.79442
-0.31163
-2.747
-0.344497
-2.69652
-0.382649
-2.64213
-0.426746
-2.58294
-0.47718
-2.51815
-0.534023
-2.44724
-0.597122
-2.36987
-0.666249
-2.28582
-0.741141
-2.19494
-0.8214
-2.09714
-0.906435
-1.99255
-0.995597
-1.88142
-1.0884
-1.76401
-1.18471
-1.63974
-1.28534
-1.5084
-1.38955
-1.36911
-1.4983
-1.22112
-1.61133
-1.06378
-1.72865
-0.896805
-1.84959
-0.720681
-1.97266
-0.535118
-2.09953
-0.341537
-2.22423
-0.140598
-2.3455
0.0663351
-2.46047
0.275973
-2.56526
0.480231
-2.65475
0.674583
-2.72338
0.859059
-2.77283
1.0341
-2.79755
1.19906
-2.79342
1.34994
-2.75801
1.48261
-2.68893
1.59354
-2.58509
1.67887
-2.4464
1.73465
-2.27353
-2.0699
1.75726
-2.16936
-0.253041
-2.12144
-0.250238
-2.07872
-0.2408
-2.0399
-0.23272
-2.00389
-0.22728
-1.96959
-0.225537
-1.93609
-0.227744
-1.90275
-0.233819
-1.86918
-0.243609
-1.83507
-0.257067
-1.80019
-0.274239
-1.76435
-0.295224
-1.72747
-0.320206
-1.68957
-0.349393
-1.65012
-0.383856
-1.60803
-0.424677
-1.56173
-0.472965
-1.50997
-0.528797
-1.45204
-0.591779
-1.38772
-0.661306
-1.31705
-0.736865
-1.24005
-0.818099
-1.15669
-0.904639
-1.06699
-0.99595
-0.971053
-1.09138
-0.869127
-1.19032
-0.762142
-1.29184
-0.649685
-1.39801
-0.531236
-1.50821
-0.405012
-1.62467
-0.270193
-1.7463
-0.126276
-1.87259
0.0268508
-2.0026
0.189014
-2.13507
0.357056
-2.26794
0.527761
-2.39515
0.699719
-2.51769
0.87167
-2.63267
1.04132
-2.7355
1.2075
-2.82129
1.36979
-2.88556
1.52293
-2.92573
1.66295
-2.93742
1.78636
-2.91649
1.88879
-2.86015
1.96544
-2.7658
2.01229
-2.63224
2.02496
-2.45907
1.99949
-2.24794
-2.00112
1.93109
-1.04805
-0.300703
-1.00774
-0.290413
-0.974819
-0.273544
-0.946316
-0.261079
-0.9205
-0.253007
-0.89611
-0.249922
-0.87188
-0.252074
-0.847095
-0.258781
-0.821413
-0.269503
-0.794501
-0.284109
-0.766083
-0.302638
-0.736052
-0.325084
-0.704745
-0.351233
-0.674386
-0.37947
-0.645741
-0.412273
-0.615671
-0.454559
-0.579647
-0.508838
-0.536038
-0.572313
-0.484827
-0.642962
-0.426561
-0.719559
-0.361809
-0.801551
-0.290954
-0.888822
-0.214186
-0.981283
-0.131523
-1.07858
-0.0427175
-1.18024
0.0530659
-1.28614
0.158365
-1.39708
0.274173
-1.51366
0.398118
-1.6321
0.527168
-1.75373
0.660039
-1.8794
0.796452
-2.00944
0.936485
-2.14279
1.07905
-2.27805
1.22323
-2.41285
1.3707
-2.54342
1.5196
-2.66714
1.66754
-2.78054
1.81115
-2.87898
1.94747
-2.95749
2.0731
-3.0113
2.18394
-3.03657
2.275
-3.02869
2.34136
-2.98306
2.3779
-2.89685
2.37935
-2.76731
2.34174
-2.59417
2.25929
-2.37628
2.13001
-2.11865
-1.8159
1.94459
0.0791969
-0.325963
0.065906
-0.276959
0.0535308
-0.260888
0.0419053
-0.249301
0.0323406
-0.243295
0.0254151
-0.24297
0.0209873
-0.247783
0.0194265
-0.257413
0.0214549
-0.271737
0.0278528
-0.290578
0.0393131
-0.3139
0.0566787
-0.342071
0.081872
-0.376023
0.121244
-0.418533
0.178487
-0.469341
0.247583
-0.523628
0.32124
-0.582593
0.396102
-0.647291
0.471238
-0.718144
0.547006
-0.795346
0.624115
-0.878795
0.703232
-0.968236
0.784964
-1.06332
0.86998
-1.1637
0.959069
-1.26921
1.05292
-1.37987
1.15149
-1.49572
1.25402
-1.61633
1.36242
-1.74059
1.47699
-1.86833
1.59726
-1.99969
1.72209
-2.13441
1.84993
-2.271
1.97909
-2.40754
2.1081
-2.5416
2.23528
-2.67017
2.35817
-2.79007
2.47459
-2.89704
2.5811
-2.9857
2.67391
-3.05032
2.74822
-3.08572
2.79958
-3.08781
2.82191
-3.05104
2.80927
-2.97028
2.75577
-2.84315
2.65544
-2.66695
2.50572
-2.44445
2.29775
-2.16844
2.03724
-1.85837
-1.47918
1.7003
1.29288
-0.319107
1.28914
-0.273065
1.28318
-0.254788
1.27881
-0.244852
1.27625
-0.240747
1.27552
-0.242339
1.27693
-0.249368
1.28078
-0.261468
1.28737
-0.278434
1.29709
-0.30026
1.31046
-0.327105
1.32796
-0.359359
1.34978
-0.39768
1.37427
-0.442973
1.40011
-0.495287
1.42996
-0.553695
1.46541
-0.618234
1.50713
-0.689111
1.55531
-0.76643
1.60976
-0.850098
1.67022
-0.939744
1.73645
-1.03486
1.80817
-1.13513
1.88507
-1.24059
1.96701
-1.3514
2.0541
-1.46751
2.14651
-1.5885
2.24403
-1.71388
2.34681
-1.84315
2.45426
-1.97588
2.56534
-2.11132
2.67897
-2.24815
2.79284
-2.38475
2.90413
-2.51872
3.0098
-2.64706
3.10628
-2.76657
3.19041
-2.87433
3.26007
-2.96656
3.31166
-3.0374
3.34019
-3.07929
3.34006
-3.08598
3.30647
-3.05415
3.23152
-2.97586
3.1086
-2.84726
2.93106
-2.66577
2.6921
-2.42792
2.39525
-2.14746
2.02009
-1.79305
1.59662
-1.43485
-0.943143
1.06115
2.60879
-0.266918
2.58327
-0.247554
2.56098
-0.232556
2.54429
-0.228204
2.53231
-0.228783
2.5238
-0.233807
2.51804
-0.243574
2.51465
-0.258071
2.51346
-0.277259
2.51445
-0.30125
2.51769
-0.330343
2.52333
-0.365025
2.53147
-0.405956
2.54205
-0.453818
2.55539
-0.508942
2.5728
-0.571302
2.59552
-0.640963
2.62444
-0.718002
2.6602
-0.802296
2.70319
-0.893312
2.75357
-0.990193
2.81108
-1.09218
2.87508
-1.19896
2.94493
-1.31056
3.02031
-1.42697
3.10111
-1.54819
3.18705
-1.67404
3.27745
-1.8041
3.37151
-1.93724
3.46796
-2.07226
3.56502
-2.20817
3.66044
-2.34335
3.75111
-2.4754
3.83291
-2.60069
3.90046
-2.71463
3.94773
-2.81386
3.97057
-2.89747
3.9678
-2.96382
3.93687
-3.00624
3.87064
-3.01281
3.76223
-2.97734
3.60776
-2.89961
3.39436
-2.76256
3.1179
-2.57078
2.77087
-2.3188
2.34327
-2.00043
1.85751
-1.66172
1.25955
-1.19497
0.637503
-0.812887
-0.170629
-0.133895
3.88118
-0.245002
3.85925
-0.225667
3.84543
-0.218841
3.83385
-0.216642
3.82413
-0.219028
3.8159
-0.225516
3.80867
-0.236306
3.80212
-0.251541
3.79612
-0.271305
3.79064
-0.295812
3.7857
-0.325471
3.78139
-0.360901
3.77797
-0.40286
3.77587
-0.452097
3.77589
-0.509218
3.77925
-0.574689
3.78725
-0.648911
3.80123
-0.73204
3.82256
-0.82374
3.8524
-0.92312
3.89127
-1.02892
3.93882
-1.13974
3.99413
-1.25448
4.05613
-1.37265
4.12382
-1.49452
4.19625
-1.62057
4.27233
-1.75031
4.35082
-1.88259
4.42962
-2.0159
4.50579
-2.14856
4.57642
-2.2789
4.63817
-2.40526
4.68734
-2.52477
4.71868
-2.63212
4.72273
-2.7185
4.68943
-2.78034
4.61428
-2.82243
4.5
-2.84946
4.34708
-2.85319
4.14202
-2.80754
3.8771
-2.71246
3.55445
-2.57705
3.14565
-2.35374
2.65903
-2.08425
2.08592
-1.74578
1.4103
-1.32496
0.697227
-0.948723
-0.158327
-0.339606
-1.108
0.13668
0.565327
-1.84302
5.42871
-0.179068
5.38337
-0.180383
5.34076
-0.176309
5.3038
-0.179696
5.27103
-0.186245
5.2413
-0.19581
5.2138
-0.208878
5.18788
-0.225706
5.16301
-0.246508
5.13882
-0.271657
5.11505
-0.301757
5.09161
-0.337626
5.06876
-0.380232
5.04716
-0.430617
5.02785
-0.489847
5.01225
-0.558938
5.00214
-0.638685
4.99958
-0.729395
5.00672
-0.830702
5.02519
-0.941438
5.05565
-1.05941
5.09727
-1.18146
5.14787
-1.30495
5.20449
-1.42909
5.26434
-1.55438
5.32552
-1.68152
5.3858
-1.81038
5.44243
-1.93913
5.49148
-2.0649
5.52809
-2.18512
5.54732
-2.29825
5.54511
-2.40335
5.51858
-2.49842
5.46325
-2.57692
5.36161
-2.61697
5.19692
-2.61548
4.96695
-2.59227
4.68512
-2.56759
4.3594
-2.5277
3.95547
-2.40384
3.46971
-2.22655
2.92202
-2.0294
2.24333
-1.67518
1.48333
-1.32431
0.644301
-0.906662
-0.293857
-0.386675
-1.30129
0.0589178
-2.09703
0.456695
-2.51141
0.550779
0.615467
-2.56182
6.34001
-0.165556
6.31876
-0.15917
6.30839
-0.165935
6.30055
-0.171851
6.29411
-0.179815
6.28855
-0.190344
6.28321
-0.203675
6.27748
-0.220087
6.27089
-0.239976
6.26314
-0.263927
6.25407
-0.292752
6.24382
-0.327477
6.23283
-0.369303
6.22185
-0.419577
6.21188
-0.479735
6.20419
-0.551128
6.20043
-0.634812
6.20254
-0.731373
6.21253
-0.840683
6.23233
-0.961403
6.26314
-1.09031
6.30355
-1.22183
6.3493
-1.35076
6.39528
-1.47504
6.43669
-1.59546
6.46994
-1.71481
6.49205
-1.83267
6.49877
-1.94588
6.48352
-2.0497
6.43854
-2.14008
6.35675
-2.2163
6.23399
-2.28039
6.07095
-2.33505
5.87071
-2.37646
5.59608
-2.34237
5.22111
-2.24077
4.75507
-2.12606
4.23487
-2.04725
3.67911
-1.97194
3.00066
-1.72546
2.21882
-1.44479
1.37815
-1.18839
0.382701
-0.679378
-0.671967
-0.269821
-1.71283
0.134306
-2.49554
0.396408
-2.90232
0.465316
-2.95289
0.508208
-2.93355
0.531654
0.550314
-2.8685
8.6635
-0.0867593
8.60603
-0.101731
8.54813
-0.108034
8.4943
-0.118061
8.4431
-0.128682
8.39345
-0.140779
8.3445
-0.154786
8.29543
-0.171008
8.24541
-0.189886
8.1936
-0.212038
8.1392
-0.238309
8.08158
-0.269814
8.02033
-0.307984
7.95542
-0.354559
7.88734
-0.411533
7.8174
-0.481045
7.74794
-0.56523
7.68249
-0.66593
7.6258
-0.784107
7.58345
-0.91909
7.56023
-1.06716
7.55467
-1.21643
7.55751
-1.3535
7.55662
-1.4742
7.53941
-1.57838
7.49883
-1.67429
7.42999
-1.76373
7.32645
-1.84229
7.17878
-1.90199
6.97605
-1.93725
6.70943
-1.94965
6.37575
-1.94683
5.98242
-1.94169
5.55396
-1.94799
5.00279
-1.79139
4.31036
-1.54844
3.51934
-1.33527
2.697
-1.22482
1.84595
-1.12113
0.836361
-0.715981
-0.274593
-0.334306
-1.49265
0.0296333
-2.51678
0.345265
-3.12179
0.335292
-3.36081
0.373055
-3.37517
0.410846
-3.33756
0.4274
-3.26826
0.438898
-3.17982
0.443384
0.440321
-3.06983
7.93129
-0.0828835
7.93382
-0.104278
7.95201
-0.12627
7.97035
-0.136444
7.98678
-0.145155
7.99982
-0.153828
8.00808
-0.162987
8.01088
-0.173691
8.00834
-0.187229
8.0014
-0.205018
7.99175
-0.228628
7.98175
-0.259803
7.97417
-0.300412
7.97202
-0.352384
7.97817
-0.417637
7.99516
-0.497975
8.02477
-0.594864
8.06777
-0.70899
8.12337
-0.839749
8.18889
-0.984707
8.26035
-1.13868
8.32042
-1.27643
8.33982
-1.37312
8.29854
-1.4329
8.18062
-1.46044
7.98944
-1.48315
7.73036
-1.50471
7.40402
-1.51602
7.00377
-1.50165
6.52127
-1.45459
5.95079
-1.37919
5.29186
-1.288
4.55239
-1.20229
3.75871
-1.15429
2.79785
-0.830238
1.77503
-0.525373
0.693793
-0.253983
-0.506763
-0.0244335
-1.87288
0.245567
-2.9918
0.404032
-3.64506
0.319066
-3.90641
0.290685
-3.87982
0.318758
-3.85162
0.306892
-3.78916
0.310618
-3.69484
0.316618
-3.58544
0.317832
-3.46292
0.316496
-3.3319
0.312221
0.302084
-3.19379
13.2562
0.0171882
13.1984
-0.0464961
13.1267
-0.0545401
13.0543
-0.0640871
12.982
-0.0728121
12.9092
-0.0809081
12.8357
-0.0892876
12.761
-0.0988434
12.6842
-0.110409
12.604
-0.124805
12.5182
-0.142882
12.4239
-0.165562
12.3172
-0.193827
12.1934
-0.228756
12.0473
-0.27153
11.8725
-0.323286
11.6624
-0.384831
11.4097
-0.456257
11.1058
-0.535943
10.7391
-0.617975
10.2937
-0.693309
9.76799
-0.750927
9.18615
-0.791287
8.54963
-0.796261
7.84376
-0.754479
7.09844
-0.737714
6.31105
-0.717355
5.47287
-0.677951
4.57566
-0.604621
3.614
-0.493238
2.57962
-0.345
1.45199
-0.160521
0.179432
0.0702386
-1.38207
0.406964
-2.88615
0.672906
-3.96761
0.556422
-4.58673
0.365256
-4.84144
0.230019
-4.80501
0.208779
-4.62767
0.226952
-4.51817
0.209787
-4.42025
0.192443
-4.28819
0.186545
-4.15807
0.176393
-4.01891
0.171428
-3.87178
0.169682
-3.72162
0.167767
-3.56976
0.164713
-3.41745
0.160032
0.151364
-3.26677
3.83201
3.78551
3.73098
3.66694
3.59421
3.51339
3.42417
3.32535
3.2149
3.09001
2.94699
2.78129
2.58735
2.35853
2.08696
1.76367
1.37884
0.922579
0.386803
-0.231308
-0.924815
-1.67574
-2.4668
-3.26293
-4.01736
-4.75518
-5.47265
-6.15064
-6.75533
-7.2486
-7.59353
-7.75395
-7.68346
-7.27624
-6.60312
-6.0464
-5.68103
-5.45083
-5.2419
-5.01516
-4.80542
-4.61298
-4.42651
-4.25023
-4.07855
-3.90888
-3.741
-3.57638
-3.41632
-3.26489
0.406429
-0.00852487
0.409413
-0.00298083
0.411569
-0.00215317
0.412619
-0.00104679
0.412953
-0.000331118
0.412917
3.9435e-05
0.412681
0.000238403
0.412328
0.000356119
0.411903
0.00042787
0.411436
0.000470797
0.410943
0.000495725
0.410436
0.000509593
0.409923
0.000516596
0.409406
0.000519159
0.40889
0.00051867
0.408377
0.000515976
0.407868
0.000511616
0.407364
0.000505932
0.406867
0.000499136
0.406379
0.000491369
0.405898
0.000482718
0.405428
0.00047323
0.404967
0.000462916
0.404518
0.000451757
0.404081
0.000439705
0.403656
0.000426685
0.403246
0.000412577
0.402851
0.000397202
0.402473
0.000380317
0.402114
0.000361611
0.401775
0.000340712
0.401461
0.00031719
0.401173
0.000290567
0.400915
0.000260275
0.400692
0.000225618
0.400509
0.00018553
0.400373
0.000138992
0.400291
8.48542e-05
0.400272
2.17288e-05
0.400326
-5.20781e-05
0.400468
-0.000139095
0.400713
-0.000242662
0.401082
-0.000367153
0.401602
-0.000518732
0.40231
-0.000706664
0.403257
-0.00094585
0.404519
-0.00126201
0.406222
-0.00170316
0.408589
-0.00236812
-0.00347113
0.412058
0.393854
-0.00447194
0.393024
-0.00214511
0.391621
-0.000744025
0.390887
-0.000307198
0.39054
2.12621e-05
0.390362
0.000223053
0.390288
0.000317729
0.390288
0.000361675
0.390338
0.000383343
0.390421
0.000393097
0.390527
0.000395799
0.390647
0.000394519
0.390777
0.000391133
0.390915
0.000386604
0.391057
0.00038134
0.391202
0.000375472
0.391349
0.000369003
0.391498
0.000361885
0.391648
0.000354052
0.391798
0.000345437
0.391949
0.000335946
0.392101
0.000325447
0.392254
0.000313765
0.39241
0.000300695
0.392567
0.000285987
0.392729
0.000269331
0.392895
0.000250342
0.393068
0.000228565
0.393249
0.000203462
0.39344
0.000174373
0.393645
0.000140538
0.393866
0.000101146
0.394106
5.53871e-05
0.394369
2.015e-06
0.39466
-6.04627e-05
0.394984
-0.00013366
0.395347
-0.000219457
0.395757
-0.000320176
0.396222
-0.000438682
0.396753
-0.000578594
0.397362
-0.000744913
0.398066
-0.000943496
0.398884
-0.00118226
0.39984
-0.00147203
0.400962
-0.00182811
0.40229
-0.00227298
0.403868
-0.00284087
0.405749
-0.00358574
0.407974
-0.00459466
-0.0060042
0.410505
0.394419
-0.000983999
0.393277
-0.000998984
0.393082
-0.000543486
0.39311
-0.000330587
0.393339
-0.000203108
0.393647
-7.99468e-05
0.393953
1.63137e-05
0.394234
8.53023e-05
0.394486
0.000136493
0.394708
0.000175465
0.394904
0.000204782
0.395077
0.000226293
0.395231
0.000241666
0.395369
0.000252253
0.395496
0.000259041
0.395613
0.000262699
0.395722
0.000263651
0.395826
0.000262174
0.395925
0.000258454
0.396022
0.000252593
0.396117
0.000244597
0.396212
0.000234391
0.396308
0.000221827
0.396406
0.000206677
0.396507
0.000188629
0.396613
0.000167292
0.396724
0.000142177
0.396844
0.000112708
0.396973
7.82023e-05
0.397113
3.77113e-05
0.397267
-9.8215e-06
0.397438
-6.55713e-05
0.397629
-0.00013095
0.397842
-0.000207641
0.398084
-0.000297607
0.398357
-0.000402964
0.398669
-0.000526534
0.399024
-0.000671751
0.399432
-0.000842779
0.399902
-0.00104477
0.400445
-0.0012842
0.401073
-0.00156911
0.401803
-0.00190983
0.402653
-0.00232005
0.403644
-0.00281816
0.404801
-0.00342937
0.406148
-0.00418874
0.407706
-0.00514554
0.409477
-0.00636833
-0.00794615
0.411416
0.39751
-0.000587039
0.397337
-0.00082185
0.397414
-0.000615204
0.397478
-0.00039078
0.397505
-0.000225596
0.397515
-8.53688e-05
0.397508
2.8487e-05
0.397487
0.000111283
0.397459
0.000169059
0.39743
0.000209158
0.397403
0.000236385
0.39738
0.000253874
0.397361
0.000264001
0.397349
0.000268611
0.397343
0.000269046
0.397344
0.000266222
0.397351
0.000260726
0.397364
0.000252904
0.397383
0.000242919
0.397409
0.000230806
0.397441
0.000216502
0.397479
0.000199844
0.397524
0.00018056
0.397576
0.000158268
0.397636
0.000132501
0.397704
0.000102739
0.397781
6.82936e-05
0.397869
2.8373e-05
0.397969
-1.79633e-05
0.398082
-7.17852e-05
0.398211
-0.000134337
0.398356
-0.000207159
0.398521
-0.000292215
0.398709
-0.000391624
0.398924
-0.00050787
0.399169
-0.000643876
0.399449
-0.000803192
0.399772
-0.000990089
0.400142
-0.00120973
0.400569
-0.00146838
0.401062
-0.00177371
0.401631
-0.00213514
0.402288
-0.00256446
0.403046
-0.00307662
0.40392
-0.00369078
0.404923
-0.00443156
0.406064
-0.0053306
0.407345
-0.00642806
0.408747
-0.00777259
-0.00941851
0.410216
0.397562
-0.000242969
0.397128
-0.000383247
0.396826
-0.00030891
0.396626
-0.000186315
0.396499
-9.34296e-05
0.39644
-2.192e-05
0.396436
3.69752e-05
0.396469
8.21888e-05
0.396528
0.000114705
0.396604
0.00013777
0.396691
0.000153987
0.396785
0.000164896
0.396881
0.00017148
0.39698
0.000174481
0.397078
0.000174479
0.397177
0.000171876
0.397274
0.000166899
0.397372
0.000159628
0.397469
0.000150047
0.397565
0.000138055
0.397662
0.000123473
0.39776
0.000106043
0.397859
8.53904e-05
0.397959
6.10301e-05
0.398063
3.24381e-05
0.39817
-1.0759e-06
0.398283
-4.03203e-05
0.398401
-8.62854e-05
0.398526
-0.00014012
0.398661
-0.000203029
0.398807
-0.000276496
0.398966
-0.000362368
0.399141
-0.000462837
0.399333
-0.000580432
0.399548
-0.000718104
0.399787
-0.000879322
0.400056
-0.00106822
0.400359
-0.00128974
0.400703
-0.00154975
0.401093
-0.00185533
0.401538
-0.00221491
0.402044
-0.00263873
0.402621
-0.00313922
0.403277
-0.00373155
0.404022
-0.00443428
0.40486
-0.00526999
0.405795
-0.00626601
0.40682
-0.00745435
0.407916
-0.00887021
-0.0105497
0.409044
0.397796
-0.000132386
0.397651
-0.000234427
0.39758
-0.000233276
0.39758
-0.000182437
0.397618
-0.000126294
0.397674
-7.41337e-05
0.397741
-2.51737e-05
0.397809
1.81278e-05
0.397875
5.36244e-05
0.397936
8.14183e-05
0.397992
0.000102519
0.398043
0.000117852
0.398091
0.000128151
0.398135
0.000134049
0.398178
0.000136083
0.398219
0.000134664
0.39826
0.000130076
0.398301
0.000122489
0.398343
0.000111959
0.398387
9.84101e-05
0.398432
8.16721e-05
0.398481
6.14874e-05
0.398532
3.74798e-05
0.398588
9.19755e-06
0.398648
-2.39497e-05
0.398713
-6.27307e-05
0.398784
-0.00010804
0.398862
-0.000160959
0.398949
-0.000222749
0.399044
-0.000294865
0.39915
-0.000379038
0.399269
-0.000477338
0.399402
-0.000592207
0.399552
-0.000726479
0.399721
-0.000883467
0.399913
-0.00106706
0.40013
-0.00128185
0.400377
-0.00153327
0.400659
-0.00182771
0.400979
-0.00217271
0.401345
-0.00257718
0.40176
-0.00305171
0.402232
-0.00360885
0.402765
-0.00426337
0.403364
-0.00503262
0.404031
-0.00593675
0.404763
-0.00699874
0.405551
-0.00824354
0.406376
-0.00969682
-0.0113814
0.407204
0.397847
-7.2739e-05
0.397746
-0.000129659
0.397651
-0.000133824
0.397578
-0.000105763
0.397524
-6.80691e-05
0.397486
-3.18803e-05
0.397465
7.098e-07
0.397459
2.86138e-05
0.397466
5.07915e-05
0.397484
6.71928e-05
0.397513
7.8507e-05
0.397549
8.55218e-05
0.397593
8.88567e-05
0.397642
8.89525e-05
0.397696
8.61317e-05
0.397754
8.06168e-05
0.397816
7.25334e-05
0.397881
6.19052e-05
0.397948
4.86577e-05
0.398018
3.25762e-05
0.39809
1.33513e-05
0.398165
-9.38315e-06
0.398242
-3.60589e-05
0.398322
-6.72157e-05
0.398405
-0.000103577
0.398492
-0.000146
0.398583
-0.000195492
0.398679
-0.000253242
0.39878
-0.000320646
0.398888
-0.000399343
0.399004
-0.000491253
0.399129
-0.000598636
0.399265
-0.000724125
0.399413
-0.000870792
0.399575
-0.00104222
0.399754
-0.00124261
0.399953
-0.00147688
0.400174
-0.00175076
0.400421
-0.00207098
0.400696
-0.00244534
0.401005
-0.00288299
0.40135
-0.00339456
0.401736
-0.00399235
0.402164
-0.0046905
0.402638
-0.00550505
0.403155
-0.00645392
0.403712
-0.00755652
0.4043
-0.00883283
0.404903
-0.0103026
-0.011983
0.405502
0.397878
-4.40463e-05
0.397827
-7.50866e-05
0.397777
-7.96293e-05
0.397744
-6.93536e-05
0.397732
-5.22993e-05
0.397739
-3.46084e-05
0.397762
-1.80327e-05
0.397798
-3.06988e-06
0.397844
9.66601e-06
0.397895
1.97645e-05
0.397951
2.71847e-05
0.398009
3.20311e-05
0.398067
3.43968e-05
0.398126
3.43272e-05
0.398185
3.18309e-05
0.398243
2.68853e-05
0.3983
1.94251e-05
0.398356
9.32312e-06
0.398413
-3.59475e-06
0.398469
-1.95738e-05
0.398525
-3.89651e-05
0.398582
-6.21898e-05
0.398639
-8.97236e-05
0.398698
-0.000122167
0.398758
-0.000160262
0.398821
-0.000204902
0.398886
-0.000257149
0.398954
-0.000318259
0.399027
-0.00038971
0.399104
-0.000473238
0.399188
-0.00057087
0.399277
-0.000684975
0.399375
-0.000818317
0.399482
-0.000974122
0.3996
-0.00115615
0.399729
-0.00136879
0.399873
-0.00161715
0.400033
-0.00190713
0.40021
-0.00224561
0.400409
-0.00264054
0.400629
-0.00310108
0.400875
-0.00363774
0.401147
-0.00426245
0.401446
-0.00498861
0.401773
-0.00583106
0.402125
-0.00680585
0.402497
-0.00792962
0.402882
-0.00921908
0.403266
-0.0106892
-0.0123522
0.403632
0.397889
-2.6908e-05
0.397857
-3.89216e-05
0.397818
-3.74308e-05
0.397786
-3.28383e-05
0.397763
-2.60181e-05
0.397751
-1.89136e-05
0.39775
-1.23161e-05
0.397757
-6.49439e-06
0.397773
-1.77826e-06
0.397795
1.50253e-06
0.397824
3.16577e-06
0.397857
3.11547e-06
0.397894
1.28435e-06
0.397935
-2.38813e-06
0.397979
-7.98834e-06
0.398026
-1.56358e-05
0.398075
-2.54742e-05
0.398126
-3.77028e-05
0.398179
-5.2584e-05
0.398234
-7.04041e-05
0.39829
-9.15177e-05
0.398348
-0.000116384
0.398408
-0.000145546
0.398469
-0.000179655
0.398532
-0.000219493
0.398597
-0.000265998
0.398663
-0.000320287
0.398732
-0.000383681
0.398804
-0.000457725
0.398878
-0.000544221
0.398956
-0.000645268
0.399038
-0.000763311
0.399124
-0.000901198
0.399216
-0.00106225
0.399313
-0.00125031
0.399418
-0.00146987
0.39953
-0.0017261
0.399651
-0.00202498
0.399782
-0.00237343
0.399923
-0.00277938
0.400077
-0.00325194
0.400242
-0.00380139
0.400421
-0.00443927
0.400612
-0.00517836
0.400814
-0.00603257
0.401025
-0.00701653
0.401239
-0.00814515
0.401452
-0.0094331
0.401653
-0.0108931
-0.0125359
0.401834
0.397894
-1.45409e-05
0.39787
-1.16114e-05
0.39784
-3.9601e-06
0.397814
-2.95142e-06
0.397797
-5.39679e-06
0.397791
-9.38978e-06
0.397796
-1.38687e-05
0.397812
-1.83213e-05
0.397837
-2.25911e-05
0.39787
-2.67417e-05
0.397908
-3.09633e-05
0.397951
-3.55188e-05
0.397997
-4.06993e-05
0.398046
-4.6793e-05
0.398096
-5.40898e-05
0.398148
-6.28877e-05
0.3982
-7.34663e-05
0.398252
-8.61341e-05
0.398305
-0.00010125
0.398358
-0.000119196
0.398411
-0.000140388
0.398464
-0.000165318
0.398517
-0.000194558
0.398569
-0.00022878
0.398622
-0.000268788
0.398676
-0.000315538
0.398729
-0.000370167
0.398783
-0.000434009
0.398837
-0.00050862
0.398892
-0.000595814
0.398948
-0.000697701
0.399004
-0.000816741
0.399062
-0.000955795
0.399121
-0.00111819
0.399182
-0.00130778
0.399244
-0.00152904
0.399309
-0.00178711
0.399375
-0.00208794
0.399442
-0.00243838
0.399512
-0.00284629
0.399583
-0.00332059
0.399655
-0.00387132
0.399727
-0.00450965
0.399797
-0.00524793
0.399865
-0.0060994
0.399926
-0.00707785
0.399977
-0.00819735
0.400014
-0.00947106
0.400029
-0.0109108
-0.0125257
0.400016
0.397893
-1.96301e-06
0.397869
1.58417e-05
0.397839
2.95439e-05
0.397813
2.69692e-05
0.397795
1.53546e-05
0.397789
3.9571e-07
0.397794
-1.50505e-05
0.39781
-2.96702e-05
0.397834
-4.28064e-05
0.397865
-5.42589e-05
0.397903
-6.4233e-05
0.397945
-7.31624e-05
0.39799
-8.15429e-05
0.398037
-8.98758e-05
0.398086
-9.86451e-05
0.398135
-0.000108322
0.398186
-0.000119338
0.398236
-0.00013212
0.398286
-0.0001471
0.398335
-0.000164724
0.398384
-0.00018546
0.398433
-0.000209824
0.398481
-0.000238402
0.398528
-0.000271877
0.398574
-0.000311056
0.398618
-0.000356895
0.398662
-0.000410516
0.398705
-0.000473232
0.398746
-0.000546578
0.398786
-0.000632334
0.398824
-0.000732577
0.39886
-0.000849727
0.398894
-0.000986595
0.398926
-0.00114644
0.398954
-0.00133304
0.398979
-0.00155077
0.398999
-0.00180467
0.399014
-0.00210056
0.399024
-0.00244515
0.399026
-0.00284609
0.39902
-0.00331206
0.399003
-0.00385287
0.398974
-0.00447947
0.398931
-0.00520388
0.398871
-0.00603899
0.398792
-0.00699839
0.398689
-0.00809595
0.398561
-0.00934465
0.398405
-0.0107563
-0.0123406
0.398217
0.397888
1.56491e-05
0.397855
5.22716e-05
0.397816