/*--------------------------------*- C++ -*----------------------------------*\
  =========                 |
  \\      /  F ield         | OpenFOAM: The Open Source CFD Toolbox
   \\    /   O peration     | Website:  https://openfoam.org
    \\  /    A nd           | Version:  8
     \\/     M anipulation  |
\*---------------------------------------------------------------------------*/
FoamFile
{
    version     2.0;
    format      ascii;
    class       volScalarField;
    location    "400";
    object      T;
}
// * * * * * * * * * * * * * * * * * * * * * * * * * * * * * * * * * * * * * //

dimensions      [0 0 0 1 0 0 0];

internalField   nonuniform List<scalar> 
8400
(
300.321
300.327
300.332
300.335
300.337
300.338
300.338
300.337
300.335
300.332
300.327
300.322
300.315
300.307
300.298
300.288
300.276
300.263
300.248
300.232
300.214
300.194
300.173
300.15
300.126
300.101
300.074
300.046
300.019
299.991
299.963
299.936
299.911
299.887
299.865
299.847
299.831
299.82
299.812
299.809
299.811
299.817
299.829
299.845
299.866
299.89
299.918
299.948
299.98
300.013
300.316
300.319
300.322
300.324
300.325
300.325
300.325
300.324
300.322
300.319
300.316
300.312
300.307
300.302
300.295
300.288
300.28
300.27
300.26
300.248
300.235
300.221
300.205
300.189
300.171
300.153
300.133
300.114
300.094
300.074
300.054
300.035
300.018
300.001
299.987
299.974
299.964
299.957
299.952
299.95
299.951
299.955
299.962
299.972
299.985
300
300.016
300.034
300.052
300.07
300.262
300.261
300.262
300.262
300.262
300.262
300.261
300.259
300.258
300.256
300.254
300.251
300.248
300.244
300.24
300.235
300.229
300.223
300.215
300.207
300.198
300.189
300.178
300.167
300.155
300.142
300.129
300.116
300.102
300.089
300.077
300.065
300.054
300.044
300.036
300.029
300.024
300.02
300.018
300.019
300.021
300.025
300.03
300.037
300.046
300.056
300.066
300.077
300.088
300.098
300.144
300.144
300.147
300.149
300.151
300.152
300.154
300.156
300.157
300.158
300.159
300.16
300.16
300.16
300.16
300.159
300.157
300.155
300.153
300.149
300.146
300.141
300.136
300.13
300.123
300.116
300.109
300.102
300.094
300.087
300.081
300.074
300.069
300.064
300.06
300.058
300.056
300.055
300.056
300.058
300.06
300.064
300.069
300.075
300.081
300.087
300.094
300.1
300.105
300.11
300.022
300.025
300.031
300.037
300.042
300.048
300.053
300.059
300.064
300.069
300.074
300.079
300.084
300.088
300.091
300.095
300.098
300.1
300.101
300.102
300.103
300.102
300.102
300.1
300.098
300.096
300.093
300.09
300.087
300.084
300.081
300.078
300.076
300.075
300.074
300.074
300.074
300.075
300.077
300.08
300.083
300.086
300.091
300.095
300.099
300.104
300.108
300.111
300.113
300.115
299.9
299.909
299.921
299.932
299.944
299.955
299.966
299.977
299.987
299.998
300.008
300.017
300.026
300.034
300.042
300.049
300.056
300.062
300.067
300.071
300.074
300.077
300.079
300.08
300.081
300.081
300.081
300.08
300.08
300.079
300.078
300.077
300.077
300.077
300.078
300.079
300.081
300.083
300.086
300.089
300.093
300.096
300.1
300.104
300.108
300.111
300.113
300.114
300.115
300.115
299.809
299.824
299.843
299.861
299.878
299.896
299.912
299.928
299.944
299.958
299.972
299.985
299.997
300.008
300.018
300.027
300.035
300.042
300.048
300.054
300.058
300.062
300.065
300.067
300.068
300.069
300.07
300.07
300.07
300.07
300.071
300.071
300.072
300.073
300.075
300.077
300.08
300.083
300.087
300.091
300.095
300.099
300.103
300.107
300.11
300.112
300.114
300.114
300.114
300.113
299.802
299.818
299.837
299.856
299.875
299.893
299.911
299.927
299.943
299.958
299.971
299.984
299.995
300.005
300.015
300.023
300.03
300.036
300.041
300.045
300.048
300.051
300.054
300.055
300.056
300.057
300.058
300.058
300.058
300.059
300.06
300.061
300.063
300.065
300.068
300.071
300.075
300.079
300.084
300.089
300.094
300.098
300.103
300.107
300.11
300.112
300.114
300.114
300.112
300.11
299.907
299.913
299.922
299.931
299.941
299.952
299.962
299.972
299.981
299.989
299.997
300.004
300.011
300.016
300.021
300.026
300.029
300.033
300.035
300.037
300.039
300.041
300.042
300.043
300.043
300.044
300.044
300.045
300.046
300.047
300.048
300.05
300.053
300.056
300.06
300.065
300.07
300.075
300.08
300.086
300.092
300.098
300.103
300.107
300.111
300.113
300.113
300.112
300.109
300.105
299.997
299.997
299.998
300
300.002
300.005
300.007
300.009
300.012
300.014
300.016
300.018
300.02
300.021
300.023
300.024
300.025
300.026
300.027
300.028
300.029
300.029
300.03
300.03
300.031
300.031
300.032
300.033
300.035
300.037
300.039
300.042
300.045
300.049
300.054
300.06
300.066
300.073
300.08
300.086
300.093
300.099
300.104
300.108
300.111
300.112
300.11
300.107
300.102
300.096
300.005
300.005
300.006
300.008
300.009
300.01
300.011
300.012
300.013
300.014
300.015
300.015
300.016
300.017
300.017
300.018
300.018
300.018
300.018
300.018
300.018
300.018
300.019
300.02
300.021
300.022
300.023
300.025
300.027
300.03
300.033
300.037
300.042
300.047
300.053
300.06
300.067
300.074
300.082
300.088
300.094
300.1
300.104
300.107
300.108
300.107
300.104
300.099
300.091
300.084
300.002
300.002
300.003
300.003
300.004
300.004
300.004
300.005
300.005
300.005
300.005
300.006
300.006
300.006
300.007
300.007
300.008
300.008
300.009
300.01
300.011
300.012
300.013
300.015
300.017
300.019
300.021
300.023
300.026
300.029
300.033
300.037
300.042
300.048
300.055
300.063
300.071
300.078
300.085
300.091
300.095
300.099
300.101
300.102
300.101
300.098
300.093
300.087
300.079
300.073
300.004
300.004
300.005
300.005
300.005
300.005
300.006
300.006
300.006
300.006
300.007
300.007
300.007
300.008
300.008
300.009
300.009
300.01
300.011
300.012
300.013
300.014
300.015
300.017
300.019
300.022
300.024
300.027
300.03
300.033
300.036
300.041
300.046
300.052
300.059
300.067
300.075
300.082
300.088
300.092
300.094
300.094
300.094
300.092
300.088
300.085
300.08
300.076
300.071
300.074
300.004
300.004
300.005
300.005
300.005
300.006
300.007
300.007
300.008
300.008
300.009
300.01
300.01
300.011
300.012
300.012
300.013
300.013
300.014
300.015
300.016
300.017
300.019
300.021
300.024
300.027
300.03
300.033
300.036
300.039
300.042
300.045
300.05
300.056
300.063
300.071
300.079
300.086
300.089
300.09
300.089
300.085
300.082
300.077
300.074
300.073
300.072
300.08
300.082
300.107
300.009
300.01
300.011
300.012
300.013
300.014
300.014
300.015
300.015
300.016
300.016
300.017
300.017
300.017
300.017
300.017
300.016
300.016
300.016
300.016
300.017
300.019
300.021
300.025
300.029
300.034
300.038
300.042
300.045
300.048
300.05
300.052
300.054
300.059
300.065
300.073
300.081
300.086
300.088
300.086
300.081
300.075
300.071
300.069
300.071
300.082
300.091
300.126
300.132
300.131
300.003
300.002
300.001
300.001
300
300.001
300.001
300.002
300.002
300.003
300.004
300.005
300.006
300.007
300.007
300.008
300.008
300.009
300.009
300.011
300.013
300.017
300.022
300.028
300.036
300.044
300.051
300.057
300.062
300.063
300.063
300.062
300.06
300.06
300.064
300.071
300.079
300.084
300.083
300.081
300.077
300.073
300.083
300.088
300.109
300.145
300.152
300.147
300.144
300.145
300.014
300.018
300.021
300.025
300.028
300.03
300.032
300.034
300.036
300.037
300.038
300.039
300.039
300.038
300.037
300.036
300.034
300.031
300.029
300.027
300.027
300.028
300.032
300.039
300.05
300.063
300.076
300.086
300.092
300.093
300.089
300.082
300.072
300.063
300.061
300.066
300.075
300.08
300.078
300.089
300.095
300.099
300.157
300.175
300.178
300.171
300.163
300.159
300.16
300.168
299.998
299.994
299.99
299.987
299.986
299.986
299.987
299.988
299.991
299.993
299.995
299.996
299.996
299.995
299.992
299.989
299.985
299.982
299.981
299.982
299.987
299.998
300.014
300.038
300.066
300.097
300.124
300.143
300.153
300.153
300.142
300.122
300.096
300.069
300.065
300.069
300.075
300.074
300.074
300.158
300.19
300.191
300.186
300.176
300.168
300.163
300.162
300.168
300.184
300.213
300.025
300.032
300.042
300.053
300.062
300.068
300.072
300.074
300.073
300.072
300.07
300.068
300.068
300.071
300.076
300.083
300.094
300.107
300.122
300.14
300.162
300.184
300.206
300.227
300.244
300.259
300.266
300.261
300.243
300.217
300.181
300.138
300.083
300
300.04
300.074
300.035
299.994
299.994
300.018
300.037
300.05
300.063
300.077
300.094
300.117
300.15
300.193
300.25
300.323
299.988
299.976
299.965
299.954
299.941
299.929
299.919
299.909
299.901
299.893
299.884
299.873
299.859
299.84
299.814
299.782
299.739
299.682
299.604
299.491
299.3
299.035
298.921
298.829
298.814
298.852
298.974
299.15
299.36
299.575
299.767
299.916
300.009
300.044
300.027
299.972
299.894
299.835
299.817
299.831
299.859
299.896
299.944
300.001
300.069
300.147
300.236
300.336
300.448
300.571
303.148
303.145
303.143
303.14
303.137
303.135
303.132
303.13
303.127
303.125
303.123
303.12
303.118
303.116
303.113
303.111
303.109
303.107
303.105
303.102
303.1
303.098
303.096
303.094
303.092
303.09
303.088
303.086
303.084
303.082
303.08
303.079
303.077
303.075
303.073
303.071
303.069
303.068
303.066
303.064
303.062
303.061
303.059
303.057
303.056
303.054
303.053
303.052
303.051
303.05
303.15
303.15
303.15
303.15
303.15
303.15
303.15
303.149
303.149
303.149
303.149
303.149
303.148
303.148
303.148
303.148
303.148
303.147
303.147
303.147
303.146
303.146
303.146
303.146
303.145
303.145
303.145
303.144
303.144
303.144
303.143
303.143
303.143
303.142
303.142
303.142
303.141
303.141
303.141
303.141
303.14
303.14
303.14
303.139
303.139
303.139
303.139
303.139
303.138
303.138
303.15
303.15
303.15
303.15
303.15
303.15
303.15
303.15
303.15
303.15
303.15
303.15
303.15
303.15
303.15
303.15
303.15
303.15
303.15
303.15
303.15
303.15
303.15
303.15
303.15
303.15
303.15
303.15
303.15
303.15
303.15
303.15
303.15
303.15
303.15
303.149
303.149
303.149
303.149
303.149
303.149
303.149
303.149
303.149
303.149
303.149
303.149
303.149
303.149
303.149
303.15
303.15
303.15
303.15
303.15
303.15
303.15
303.15
303.15
303.15
303.15
303.15
303.15
303.15
303.15
303.15
303.15
303.15
303.15
303.15
303.15
303.15
303.15
303.15
303.15
303.15
303.15
303.15
303.15
303.15
303.15
303.15
303.15
303.15
303.15
303.15
303.15
303.15
303.15
303.15
303.15
303.15
303.15
303.15
303.15
303.15
303.15
303.15
303.15
303.15
303.15
303.15
303.15
303.15
303.15
303.15
303.15
303.15
303.15
303.15
303.15
303.15
303.15
303.15
303.15
303.15
303.15
303.15
303.15
303.15
303.15
303.15
303.15
303.15
303.15
303.15
303.15
303.15
303.15
303.15
303.15
303.15
303.15
303.15
303.15
303.15
303.15
303.15
303.15
303.15
303.15
303.15
303.15
303.15
303.15
303.15
303.15
303.15
303.15
303.15
303.15
303.15
303.15
303.15
303.15
303.15
303.15
303.15
303.15
303.15
303.15
303.15
303.15
303.15
303.15
303.15
303.15
303.15
303.15
303.15
303.15
303.15
303.15
303.15
303.15
303.15
303.15
303.15
303.15
303.15
303.15
303.15
303.15
303.15
303.15
303.15
303.15
303.15
303.15
303.15
303.15
303.15
303.15
303.15
303.15
303.15
303.15
303.15
303.15
303.15
303.15
303.15
303.15
303.15
303.15
303.15
303.15
303.15
303.15
303.15
303.15
303.15
303.15
303.15
303.15
303.15
303.15
303.15
303.15
303.15
303.15
303.15
303.15
303.15
303.15
303.15
303.15
303.15
303.15
303.15
303.15
303.15
303.15
303.15
303.15
303.15
303.15
303.15
303.15
303.15
303.15
303.15
303.15
303.15
303.15
303.15
303.15
303.15
303.15
303.15
303.15
303.15
303.15
303.15
303.15
303.15
303.15
303.15
303.15
303.15
303.15
303.15
303.15
303.15
303.15
303.15
303.15
303.15
303.15
303.15
303.15
303.15
303.15
303.15
303.15
303.15
303.15
303.15
303.15
303.15
303.15
303.15
303.15
303.15
303.15
303.15
303.15
303.15
303.15
303.15
303.15
303.15
303.15
303.15
303.15
303.15
303.15
303.15
303.15
303.15
303.15
303.15
303.15
303.15
303.15
303.15
303.15
303.15
303.15
303.15
303.15
303.15
303.15
303.15
303.15
303.15
303.15
303.15
303.15
303.15
303.15
303.15
303.15
303.15
303.15
303.15
303.15
303.15
303.15
303.15
303.15
303.15
303.15
303.15
303.15
303.15
303.15
303.15
303.15
303.15
303.15
303.15
303.15
303.15
303.15
303.15
303.15
303.15
303.15
303.15
303.15
303.15
303.15
303.15
303.15
303.15
303.15
303.15
303.15
303.15
303.15
303.15
303.15
303.15
303.15
303.15
303.15
303.15
303.15
303.15
303.15
303.15
303.15
303.15
303.15
303.15
303.15
303.15
303.15
303.15
303.15
303.15
303.15
303.15
303.15
303.15
303.15
303.15
303.15
303.15
303.15
303.15
303.15
303.15
303.15
303.15
303.15
303.15
303.15
303.15
303.15
303.15
303.15
303.15
303.15
303.15
303.15
303.15
303.15
303.15
303.15
303.15
303.15
303.15
303.15
303.15
303.15
303.15
303.15
303.15
303.15
303.15
303.15
303.15
303.15
303.15
303.15
303.15
303.15
303.15
303.15
303.15
303.15
303.15
303.15
303.15
303.15
303.15
303.15
303.15
303.15
303.15
303.15
303.15
303.15
303.15
303.15
303.15
303.15
303.15
303.15
303.15
303.15
303.15
303.15
303.15
303.15
303.15
303.15
303.15
303.15
303.15
303.15
303.15
303.15
303.15
303.15
303.15
303.15
303.15
303.15
303.15
303.15
303.15
303.15
303.15
303.15
303.15
303.15
303.15
303.15
303.15
303.15
303.15
303.15
303.15
303.15
303.15
303.15
303.15
303.15
303.15
303.15
303.15
303.15
303.15
303.15
303.15
303.15
303.15
303.15
303.15
303.15
303.15
303.15
303.15
303.15
303.15
303.15
303.15
303.15
303.15
303.15
303.15
303.15
303.15
303.15
303.15
303.15
303.15
303.15
303.15
303.15
303.15
303.15
303.15
303.15
303.15
303.15
303.15
303.15
303.15
303.15
303.15
303.15
303.15
303.15
303.15
303.15
303.15
303.15
303.15
303.15
303.15
303.15
303.15
303.15
303.15
303.15
303.15
303.15
303.15
303.15
303.15
303.15
303.15
303.15
303.15
303.15
303.15
303.15
303.15
303.15
303.15
303.15
303.15
303.15
303.15
303.15
303.15
303.15
303.15
303.15
303.15
303.15
303.15
303.15
303.15
303.15
303.15
303.15
303.15
303.15
303.15
303.15
303.15
303.15
303.15
303.15
303.15
303.15
303.15
303.15
303.15
303.15
303.15
303.15
303.15
303.15
303.15
303.15
303.15
303.15
303.15
303.15
303.15
303.15
303.15
303.15
303.15
303.15
303.15
303.15
303.15
303.15
303.15
303.15
303.15
303.15
303.15
303.15
303.15
303.15
303.15
303.15
303.15
303.15
303.15
303.15
303.15
303.15
303.15
303.15
303.15
303.15
303.15
303.15
303.15
303.15
303.15
303.15
303.15
303.15
303.15
303.15
303.15
303.15
303.15
303.15
303.15
303.15
303.15
303.15
303.15
303.15
303.15
303.15
303.15
303.15
303.15
303.15
303.15
303.15
303.15
303.15
303.15
303.15
303.15
303.15
303.15
303.15
303.15
303.15
303.15
303.15
303.15
303.15
303.15
303.15
303.15
303.15
303.15
303.15
303.15
303.15
303.15
303.15
303.15
303.15
303.15
303.15
303.15
303.15
303.15
303.15
303.15
303.15
303.15
303.15
303.15
303.15
303.15
303.15
303.15
303.15
303.15
303.15
303.15
303.15
303.15
303.15
303.15
303.15
303.15
303.15
303.15
303.15
303.15
303.15
303.15
303.15
303.15
303.15
303.15
303.15
303.15
303.15
303.15
303.15
303.15
303.15
303.15
303.15
303.15
303.15
303.15
303.15
303.15
303.15
303.15
303.15
303.15
303.15
303.15
303.15
303.15
303.15
303.15
303.15
303.15
303.15
303.15
303.15
303.15
303.15
303.15
303.15
303.15
303.15
303.15
303.15
303.15
303.15
303.15
303.15
303.15
303.15
303.15
303.15
303.15
303.15
303.15
303.15
303.15
303.15
303.15
303.15
303.15
303.15
303.15
303.15
303.15
303.149
303.149
303.149
303.149
303.149
303.149
303.149
303.149
303.149
303.149
303.149
303.149
303.149
303.149
303.148
303.148
303.148
303.148
303.15
303.15
303.15
303.15
303.15
303.15
303.15
303.149
303.149
303.149
303.149
303.149
303.148
303.148
303.148
303.148
303.148
303.147
303.147
303.147
303.146
303.146
303.146
303.146
303.145
303.145
303.145
303.144
303.144
303.144
303.143
303.143
303.142
303.142
303.142
303.141
303.141
303.14
303.14
303.14
303.139
303.139
303.138
303.137
303.137
303.136
303.136
303.135
303.134
303.133
303.148
303.145
303.143
303.14
303.137
303.135
303.132
303.13
303.127
303.125
303.123
303.12
303.118
303.116
303.113
303.111
303.109
303.107
303.105
303.102
303.1
303.098
303.096
303.094
303.092
303.09
303.088
303.086
303.084
303.082
303.08
303.078
303.077
303.075
303.073
303.071
303.069
303.067
303.066
303.064
303.062
303.06
303.059
303.057
303.055
303.053
303.052
303.05
303.048
303.047
303.038
303.143
303.15
303.124
303.042
302.843
302.443
301.768
300.802
299.71
298.895
298.59
298.595
298.739
298.779
298.549
298.213
298.349
299.185
299.812
303.038
303.143
303.15
303.124
303.042
302.841
302.438
301.758
300.787
299.689
298.874
298.572
298.575
298.694
298.699
298.472
298.202
298.407
299.205
299.81
303.039
303.143
303.15
303.124
303.041
302.838
302.433
301.748
300.771
299.67
298.855
298.556
298.549
298.657
298.644
298.429
298.204
298.448
299.212
299.806
303.039
303.144
303.15
303.123
303.039
302.835
302.426
301.736
300.755
299.653
298.84
298.543
298.524
298.619
298.591
298.391
298.21
298.487
299.217
299.803
303.04
303.144
303.15
303.123
303.038
302.831
302.418
301.724
300.74
299.638
298.826
298.53
298.5
298.581
298.542
298.358
298.22
298.522
299.219
299.798
303.04
303.144
303.15
303.122
303.036
302.827
302.411
301.713
300.726
299.624
298.813
298.518
298.467
298.544
298.496
298.33
298.234
298.55
299.218
299.793
303.041
303.144
303.15
303.122
303.034
302.822
302.403
301.702
300.713
299.611
298.801
298.506
298.455
298.506
298.455
298.308
298.251
298.572
299.215
299.787
303.042
303.144
303.15
303.121
303.032
302.818
302.395
301.691
300.701
299.6
298.79
298.495
298.439
298.468
298.417
298.291
298.269
298.587
299.21
299.781
303.042
303.144
303.149
303.12
303.03
302.813
302.387
301.68
300.69
299.591
298.78
298.484
298.425
298.433
298.384
298.28
298.283
298.594
299.202
299.775
303.043
303.144
303.149
303.119
303.027
302.808
302.379
301.67
300.681
299.583
298.771
298.473
298.413
298.405
298.358
298.274
298.293
298.595
299.193
299.768
303.043
303.144
303.149
303.118
303.025
302.803
302.372
301.661
300.673
299.578
298.763
298.463
298.402
298.385
298.339
298.268
298.298
298.59
299.181
299.761
303.044
303.144
303.149
303.117
303.022
302.798
302.364
301.652
300.666
299.574
298.757
298.453
298.394
298.37
298.325
298.263
298.297
298.58
299.167
299.754
303.044
303.144
303.148
303.116
303.02
302.793
302.356
301.644
300.661
299.573
298.751
298.443
298.387
298.36
298.315
298.257
298.291
298.564
299.151
299.746
303.044
303.144
303.148
303.115
303.017
302.788
302.349
301.636
300.658
299.573
298.747
298.433
298.379
298.353
298.306
298.25
298.281
298.544
299.134
299.739
303.045
303.144
303.147
303.114
303.015
302.783
302.342
301.629
300.655
299.576
298.745
298.423
298.372
298.346
298.298
298.241
298.266
298.521
299.116
299.732
303.045
303.144
303.147
303.113
303.012
302.778
302.335
301.623
300.655
299.581
298.743
298.412
298.364
298.34
298.29
298.23
298.249
298.495
299.097
299.726
303.045
303.144
303.147
303.112
303.009
302.774
302.328
301.617
300.655
299.587
298.744
298.401
298.355
298.333
298.282
298.219
298.229
298.467
299.077
299.719
303.046
303.144
303.146
303.111
303.007
302.769
302.322
301.613
300.657
299.596
298.746
298.389
298.345
298.325
298.273
298.206
298.208
298.437
299.057
299.713
303.046
303.143
303.146
303.11
303.004
302.764
302.316
301.608
300.66
299.606
298.75
298.377
298.333
298.316
298.263
298.192
298.186
298.407
299.038
299.708
303.046
303.143
303.145
303.108
303.002
302.76
302.31
301.605
300.664
299.619
298.756
298.366
298.319
298.306
298.252
298.178
298.163
298.375
299.018
299.703
303.046
303.143
303.145
303.107
302.999
302.756
302.305
301.603
300.67
299.634
298.765
298.354
298.303
298.293
298.24
298.163
298.141
298.345
299
299.699
303.047
303.143
303.144
303.106
302.997
302.752
302.301
301.602
300.678
299.652
298.777
298.344
298.286
298.279
298.227
298.148
298.118
298.315
298.983
299.695
303.047
303.143
303.144
303.105
302.995
302.749
302.298
301.602
300.687
299.672
298.793
298.335
298.267
298.263
298.213
298.132
298.097
298.287
298.967
299.692
303.047
303.142
303.143
303.105
302.994
302.747
302.297
301.605
300.699
299.695
298.813
298.329
298.246
298.245
298.197
298.117
298.077
298.261
298.953
299.689
303.047
303.142
303.143
303.104
302.993
302.746
302.297
301.61
300.714
299.722
298.838
298.326
298.224
298.225
298.18
298.101
298.059
298.238
298.941
299.687
303.047
303.142
303.142
303.104
302.993
302.747
302.299
301.617
300.732
299.752
298.868
298.328
298.201
298.204
298.162
298.086
298.043
298.22
298.932
299.686
303.046
303.141
303.142
303.104
302.993
302.749
302.305
301.629
300.755
299.788
298.904
298.336
298.18
298.181
298.144
298.071
298.03
298.206
298.925
299.685
303.046
303.141
303.142
303.104
302.995
302.753
302.313
301.645
300.782
299.829
298.948
298.352
298.16
298.157
298.124
298.058
298.021
298.198
298.922
299.685
303.046
303.141
303.142
303.105
302.998
302.759
302.325
301.666
300.816
299.877
299.001
298.379
298.146
298.134
298.106
298.046
298.016
298.197
298.923
299.685
303.045
303.141
303.142
303.106
303.002
302.768
302.342
301.694
300.857
299.934
299.064
298.418
298.139
298.113
298.088
298.037
298.017
298.205
298.929
299.686
303.045
303.14
303.142
303.108
303.007
302.78
302.365
301.729
300.907
299.999
299.138
298.473
298.145
298.095
298.075
298.032
298.024
298.222
298.939
299.687
303.044
303.14
303.143
303.11
303.014
302.796
302.393
301.773
300.968
300.076
299.225
298.545
298.167
298.086
298.067
298.035
298.041
298.251
298.954
299.689
303.043
303.14
303.143
303.113
303.023
302.816
302.428
301.827
301.04
300.165
299.325
298.636
298.212
298.088
298.069
298.047
298.07
298.293
298.976
299.692
303.042
303.139
303.144
303.117
303.033
302.839
302.471
301.892
301.126
300.268
299.441
298.75
298.284
298.109
298.087
298.073
298.114
298.349
299.004
299.695
303.04
303.139
303.145
303.121
303.046
302.867
302.521
301.968
301.227
300.387
299.574
298.885
298.39
298.158
298.126
298.12
298.177
298.421
299.039
299.698
303.039
303.139
303.146
303.125
303.059
302.898
302.579
302.057
301.344
300.524
299.723
299.042
298.532
298.245
298.196
298.192
298.262
298.509
299.082
299.702
303.037
303.138
303.146
303.13
303.073
302.931
302.643
302.159
301.479
300.68
299.89
299.217
298.708
298.387
298.301
298.294
298.37
298.612
299.131
299.706
303.035
303.137
303.147
303.134
303.088
302.967
302.713
302.272
301.633
300.859
300.076
299.407
298.905
298.574
298.445
298.428
298.502
298.728
299.187
299.711
303.032
303.137
303.148
303.138
303.102
303.003
302.787
302.396
301.805
301.062
300.286
299.611
299.111
298.78
298.62
298.59
298.652
298.853
299.248
299.716
303.029
303.136
303.149
303.142
303.115
303.038
302.861
302.525
301.994
301.292
300.524
299.834
299.321
298.99
298.814
298.771
298.814
298.982
299.312
299.722
303.026
303.135
303.149
303.145
303.126
303.07
302.932
302.657
302.195
301.548
300.796
300.084
299.539
299.196
299.011
298.956
298.979
299.11
299.378
299.727
303.023
303.134
303.149
303.147
303.135
303.097
302.997
302.783
302.401
301.826
301.108
300.375
299.779
299.398
299.198
299.135
299.139
299.234
299.442
299.733
303.019
303.133
303.149
303.149
303.142
303.118
303.051
302.897
302.601
302.117
301.459
300.721
300.062
299.611
299.383
299.297
299.285
299.348
299.504
299.738
303.015
303.132
303.149
303.15
303.146
303.133
303.092
302.992
302.781
302.405
301.839
301.132
300.415
299.858
299.55
299.437
299.415
299.45
299.562
299.744
303.01
303.13
303.149
303.15
303.149
303.142
303.121
303.063
302.929
302.666
302.224
301.599
300.87
300.198
299.746
299.558
299.525
299.539
299.614
299.749
303.006
303.129
303.149
303.15
303.15
303.147
303.137
303.109
303.036
302.876
302.575
302.088
301.426
300.69
300.064
299.708
299.618
299.616
299.66
299.754
303.001
303.127
303.148
303.15
303.15
303.149
303.146
303.134
303.101
303.021
302.85
302.533
302.026
301.343
300.597
299.991
299.705
299.68
299.7
299.758
302.996
303.126
303.148
303.15
303.15
303.15
303.149
303.145
303.133
303.101
303.025
302.864
302.562
302.07
301.386
300.614
299.98
299.743
299.734
299.762
302.991
303.124
303.148
303.15
303.15
303.15
303.15
303.149
303.145
303.136
303.11
303.051
302.922
302.672
302.24
301.589
300.772
300.011
299.78
299.768
302.986
303.122
303.148
303.15
303.15
303.15
303.15
303.15
303.149
303.146
303.139
303.123
303.086
303.007
302.846
302.544
302.021
301.22
300.208
299.821
302.982
303.121
303.147
303.15
303.15
303.15
303.15
303.15
303.15
303.149
303.147
303.141
303.131
303.111
303.074
303.006
302.88
302.634
302.133
300.995
302.977
303.119
303.147
303.15
303.15
303.15
303.15
303.15
303.15
303.15
303.149
303.146
303.141
303.132
303.115
303.088
303.048
302.994
302.925
302.837
302.972
303.117
303.147
303.15
303.15
303.15
303.15
303.15
303.15
303.15
303.149
303.148
303.146
303.14
303.129
303.11
303.078
303.03
302.962
302.87
302.968
303.115
303.146
303.15
303.15
303.15
303.15
303.15
303.15
303.15
303.15
303.149
303.148
303.145
303.137
303.123
303.097
303.053
302.983
302.874
302.964
303.114
303.146
303.15
303.15
303.15
303.15
303.15
303.15
303.15
303.15
303.15
303.149
303.147
303.142
303.132
303.111
303.07
302.999
302.877
302.961
303.112
303.146
303.15
303.15
303.15
303.15
303.15
303.15
303.15
303.15
303.15
303.149
303.148
303.145
303.138
303.121
303.084
303.012
302.879
302.957
303.111
303.146
303.15
303.15
303.15
303.15
303.15
303.15
303.15
303.15
303.15
303.15
303.149
303.147
303.142
303.127
303.094
303.023
302.881
302.954
303.11
303.145
303.15
303.15
303.15
303.15
303.15
303.15
303.15
303.15
303.15
303.15
303.149
303.148
303.144
303.132
303.102
303.032
302.883
302.952
303.109
303.145
303.15
303.15
303.15
303.15
303.15
303.15
303.15
303.15
303.15
303.15
303.15
303.149
303.146
303.136
303.108
303.039
302.884
302.949
303.108
303.145
303.15
303.15
303.15
303.15
303.15
303.15
303.15
303.15
303.15
303.15
303.15
303.149
303.147
303.139
303.113
303.045
302.886
302.947
303.107
303.145
303.15
303.15
303.15
303.15
303.15
303.15
303.15
303.15
303.15
303.15
303.15
303.149
303.147
303.141
303.118
303.051
302.888
302.946
303.106
303.145
303.15
303.15
303.15
303.15
303.15
303.15
303.15
303.15
303.15
303.15
303.15
303.15
303.148
303.142
303.121
303.055
302.889
302.945
303.105
303.145
303.15
303.15
303.15
303.15
303.15
303.15
303.15
303.15
303.15
303.15
303.15
303.15
303.148
303.143
303.123
303.059
302.891
302.944
303.105
303.144
303.149
303.15
303.15
303.15
303.15
303.15
303.15
303.15
303.15
303.15
303.15
303.15
303.149
303.144
303.126
303.062
302.892
302.943
303.105
303.144
303.149
303.15
303.15
303.15
303.15
303.15
303.15
303.15
303.15
303.15
303.15
303.15
303.149
303.145
303.127
303.065
302.893
302.943
303.104
303.144
303.149
303.15
303.15
303.15
303.15
303.15
303.15
303.15
303.15
303.15
303.15
303.15
303.149
303.145
303.129
303.068
302.895
302.942
303.104
303.144
303.149
303.15
303.15
303.15
303.15
303.15
303.15
303.15
303.15
303.15
303.15
303.15
303.149
303.146
303.13
303.07
302.896
302.942
303.104
303.144
303.149
303.15
303.15
303.15
303.15
303.15
303.15
303.15
303.15
303.15
303.15
303.15
303.149
303.146
303.131
303.072
302.898
302.942
303.104
303.144
303.149
303.15
303.15
303.15
303.15
303.15
303.15
303.15
303.15
303.15
303.15
303.15
303.149
303.146
303.132
303.073
302.899
302.943
303.104
303.144
303.149
303.15
303.15
303.15
303.15
303.15
303.15
303.15
303.15
303.15
303.15
303.15
303.149
303.147
303.133
303.075
302.9
302.943
303.104
303.144
303.149
303.15
303.15
303.15
303.15
303.15
303.15
303.15
303.15
303.15
303.15
303.15
303.149
303.147
303.134
303.076
302.902
302.944
303.104
303.144
303.149
303.15
303.15
303.15
303.15
303.15
303.15
303.15
303.15
303.15
303.15
303.15
303.15
303.147
303.134
303.077
302.903
302.944
303.104
303.144
303.149
303.15
303.15
303.15
303.15
303.15
303.15
303.15
303.15
303.15
303.15
303.15
303.15
303.147
303.135
303.078
302.904
302.945
303.105
303.144
303.149
303.15
303.15
303.15
303.15
303.15
303.15
303.15
303.15
303.15
303.15
303.15
303.15
303.147
303.135
303.079
302.906
302.946
303.105
303.144
303.149
303.15
303.15
303.15
303.15
303.15
303.15
303.15
303.15
303.15
303.15
303.15
303.15
303.147
303.135
303.08
302.907
302.947
303.105
303.144
303.149
303.15
303.15
303.15
303.15
303.15
303.15
303.15
303.15
303.15
303.15
303.15
303.15
303.147
303.136
303.081
302.908
302.948
303.105
303.144
303.149
303.15
303.15
303.15
303.15
303.15
303.15
303.15
303.15
303.15
303.15
303.15
303.15
303.148
303.136
303.082
302.91
302.949
303.106
303.144
303.149
303.15
303.15
303.15
303.15
303.15
303.15
303.15
303.15
303.15
303.15
303.15
303.15
303.148
303.136
303.083
302.911
302.95
303.106
303.145
303.149
303.15
303.15
303.15
303.15
303.15
303.15
303.15
303.15
303.15
303.15
303.15
303.15
303.148
303.137
303.084
302.912
302.951
303.106
303.145
303.149
303.15
303.15
303.15
303.15
303.15
303.15
303.15
303.15
303.15
303.15
303.15
303.15
303.148
303.137
303.084
302.914
302.952
303.106
303.145
303.149
303.15
303.15
303.15
303.15
303.15
303.15
303.15
303.15
303.15
303.15
303.15
303.15
303.148
303.137
303.085
302.915
302.953
303.107
303.145
303.149
303.15
303.15
303.15
303.15
303.15
303.15
303.15
303.15
303.15
303.15
303.15
303.15
303.148
303.137
303.086
302.917
302.954
303.107
303.145
303.149
303.15
303.15
303.15
303.15
303.15
303.15
303.15
303.15
303.15
303.15
303.15
303.15
303.148
303.138
303.086
302.918
302.955
303.108
303.145
303.149
303.15
303.15
303.15
303.15
303.15
303.15
303.15
303.15
303.15
303.15
303.15
303.15
303.148
303.138
303.087
302.919
302.956
303.108
303.145
303.15
303.15
303.15
303.15
303.15
303.15
303.15
303.15
303.15
303.15
303.15
303.15
303.15
303.148
303.138
303.088
302.921
302.958
303.108
303.145
303.15
303.15
303.15
303.15
303.15
303.15
303.15
303.15
303.15
303.15
303.15
303.15
303.15
303.148
303.138
303.088
302.922
302.959
303.109
303.145
303.15
303.15
303.15
303.15
303.15
303.15
303.15
303.15
303.15
303.15
303.15
303.15
303.15
303.148
303.138
303.089
302.924
302.96
303.109
303.145
303.15
303.15
303.15
303.15
303.15
303.15
303.15
303.15
303.15
303.15
303.15
303.15
303.15
303.148
303.138
303.09
302.925
302.961
303.11
303.145
303.15
303.15
303.15
303.15
303.15
303.15
303.15
303.15
303.15
303.15
303.15
303.15
303.15
303.148
303.138
303.09
302.926
302.962
303.11
303.145
303.15
303.15
303.15
303.15
303.15
303.15
303.15
303.15
303.15
303.15
303.15
303.15
303.15
303.148
303.139
303.091
302.928
302.963
303.11
303.145
303.15
303.15
303.15
303.15
303.15
303.15
303.15
303.15
303.15
303.15
303.15
303.15
303.15
303.148
303.139
303.091
302.929
302.964
303.111
303.145
303.15
303.15
303.15
303.15
303.15
303.15
303.15
303.15
303.15
303.15
303.15
303.15
303.15
303.148
303.139
303.092
302.931
302.966
303.111
303.145
303.15
303.15
303.15
303.15
303.15
303.15
303.15
303.15
303.15
303.15
303.15
303.15