/*--------------------------------*- C++ -*----------------------------------*\
  =========                 |
  \\      /  F ield         | OpenFOAM: The Open Source CFD Toolbox
   \\    /   O peration     | Website:  https://openfoam.org
    \\  /    A nd           | Version:  8
     \\/     M anipulation  |
\*---------------------------------------------------------------------------*/
FoamFile
{
    version     2.0;
    format      ascii;
    class       volVectorField;
    location    "400";
    object      U;
}
// * * * * * * * * * * * * * * * * * * * * * * * * * * * * * * * * * * * * * //

dimensions      [0 1 -1 0 0 0 0];

internalField   nonuniform List<vector> 
8400
(
(-106.736 -0.209724 4.52663e-16)
(-106.771 -0.188498 4.30945e-16)
(-106.817 -0.171619 4.10134e-16)
(-106.87 -0.15667 3.89233e-16)
(-106.929 -0.143402 3.70442e-16)
(-106.991 -0.131912 3.53987e-16)
(-107.053 -0.122491 3.37835e-16)
(-107.109 -0.115527 3.22974e-16)
(-107.157 -0.111457 3.09481e-16)
(-107.19 -0.110769 2.96287e-16)
(-107.203 -0.113964 2.85616e-16)
(-107.188 -0.121485 2.77668e-16)
(-107.138 -0.133639 2.70245e-16)
(-107.045 -0.150609 2.64291e-16)
(-106.902 -0.172612 2.59742e-16)
(-106.701 -0.200002 2.55472e-16)
(-106.434 -0.233242 2.53379e-16)
(-106.09 -0.272811 2.53534e-16)
(-105.66 -0.319133 2.53818e-16)
(-105.134 -0.372523 2.55025e-16)
(-104.501 -0.433226 2.571e-16)
(-103.748 -0.50147 2.59942e-16)
(-102.864 -0.577394 2.63358e-16)
(-101.839 -0.66099 2.67146e-16)
(-100.66 -0.752217 2.71284e-16)
(-99.3168 -0.851024 2.75661e-16)
(-97.7989 -0.957172 2.81053e-16)
(-96.0964 -1.07029 2.85983e-16)
(-94.1996 -1.19011 2.90121e-16)
(-92.0996 -1.31632 2.95045e-16)
(-89.7885 -1.44849 3.00133e-16)
(-87.2591 -1.5863 3.05348e-16)
(-84.505 -1.72925 3.10799e-16)
(-81.5208 -1.87657 3.16245e-16)
(-78.3024 -2.0274 3.21695e-16)
(-74.8473 -2.18065 3.27565e-16)
(-71.1547 -2.33489 3.3388e-16)
(-67.226 -2.48845 3.40744e-16)
(-63.0662 -2.63936 3.48259e-16)
(-58.6838 -2.78531 3.56615e-16)
(-54.0914 -2.92374 3.65662e-16)
(-49.3077 -3.05165 3.76075e-16)
(-44.3572 -3.16558 3.87109e-16)
(-39.2686 -3.26146 3.98081e-16)
(-34.0699 -3.33609 4.10355e-16)
(-28.7883 -3.38905 4.23735e-16)
(-23.4702 -3.42217 4.37968e-16)
(-18.209 -3.43251 4.52032e-16)
(-13.1071 -3.40086 4.63876e-16)
(-8.1621 -3.31047 4.74411e-16)
(-100.249 0.255711 7.07771e-16)
(-100.173 0.263159 6.93895e-16)
(-100.113 0.26431 6.79445e-16)
(-100.051 0.262431 6.64874e-16)
(-99.9884 0.257261 6.50016e-16)
(-99.9223 0.247926 6.34973e-16)
(-99.85 0.233221 6.19462e-16)
(-99.7673 0.211969 6.03529e-16)
(-99.6694 0.183148 5.87016e-16)
(-99.5509 0.145931 5.69312e-16)
(-99.4078 0.0997672 5.51696e-16)
(-99.2353 0.0442207 5.34299e-16)
(-99.0287 -0.0210556 5.16007e-16)
(-98.7822 -0.0964881 4.97473e-16)
(-98.4877 -0.182798 4.78788e-16)
(-98.1373 -0.281014 4.6004e-16)
(-97.7227 -0.392228 4.41387e-16)
(-97.2354 -0.517444 4.2291e-16)
(-96.6662 -0.657524 4.04608e-16)
(-96.0057 -0.813176 3.86562e-16)
(-95.2442 -0.984974 3.68854e-16)
(-94.3717 -1.17335 3.51561e-16)
(-93.3783 -1.37851 3.35259e-16)
(-92.2543 -1.60031 3.19452e-16)
(-90.9902 -1.83844 3.06451e-16)
(-89.5771 -2.09249 2.93383e-16)
(-88.0062 -2.36169 2.81379e-16)
(-86.2699 -2.64497 2.70304e-16)
(-84.3603 -2.94151 2.59549e-16)
(-82.2705 -3.25056 2.50144e-16)
(-79.9942 -3.57108 2.41988e-16)
(-77.5262 -3.90196 2.33783e-16)
(-74.861 -4.24202 2.26014e-16)
(-71.9947 -4.58961 2.18094e-16)
(-68.9243 -4.9426 2.09811e-16)
(-65.6482 -5.29827 2.02582e-16)
(-62.1667 -5.65299 1.96116e-16)
(-58.4822 -6.0022 1.90444e-16)
(-54.6006 -6.34095 1.86108e-16)
(-50.5311 -6.66358 1.82251e-16)
(-46.287 -6.96332 1.78807e-16)
(-41.887 -7.2325 1.76951e-16)
(-37.3553 -7.46268 1.76389e-16)
(-32.7208 -7.64374 1.76846e-16)
(-28.0134 -7.76605 1.79315e-16)
(-23.26 -7.82567 1.84032e-16)
(-18.4987 -7.82709 1.91177e-16)
(-13.8045 -7.7712 2.01804e-16)
(-9.27827 -7.6247 2.13214e-16)
(-4.92278 -7.31911 2.29452e-16)
(-91.2143 -0.319756 2.36395e-16)
(-91.0018 -0.2937 2.28533e-16)
(-90.8314 -0.275173 2.20312e-16)
(-90.6538 -0.260848 2.11663e-16)
(-90.4702 -0.251723 2.02914e-16)
(-90.2786 -0.249499 1.94073e-16)
(-90.0772 -0.256053 1.84801e-16)
(-89.8638 -0.273036 1.75359e-16)
(-89.6361 -0.301785 1.65881e-16)
(-89.3915 -0.343388 1.56537e-16)
(-89.1254 -0.398915 1.47339e-16)
(-88.8326 -0.469381 1.38351e-16)
(-88.5069 -0.555935 1.29547e-16)
(-88.1421 -0.660095 1.20795e-16)
(-87.7315 -0.783692 1.12069e-16)
(-87.2682 -0.928538 1.02754e-16)
(-86.7448 -1.09619 9.4078e-17)
(-86.1534 -1.28793 8.62568e-17)
(-85.4861 -1.50497 7.8132e-17)
(-84.7348 -1.74833 7.01679e-17)
(-83.8909 -2.01877 6.24005e-17)
(-82.9459 -2.31663 5.49275e-17)
(-81.8913 -2.64196 4.78638e-17)
(-80.7186 -2.99444 4.13528e-17)
(-79.4203 -3.37322 3.55042e-17)
(-77.9891 -3.77716 3.02861e-17)
(-76.418 -4.20493 2.62285e-17)
(-74.7009 -4.65491 2.20958e-17)
(-72.8323 -5.12552 1.74957e-17)
(-70.8066 -5.61539 1.4016e-17)
(-68.619 -6.12298 1.13267e-17)
(-66.2652 -6.64649 9.23124e-18)
(-63.7412 -7.18405 7.84467e-18)
(-61.0437 -7.73333 6.3378e-18)
(-58.1703 -8.29102 4.41901e-18)
(-55.1202 -8.85221 2.96398e-18)
(-51.8942 -9.41075 1.76656e-18)
(-48.4956 -9.95941 8.4268e-19)
(-44.932 -10.4897 1.82796e-19)
(-41.2135 -10.9916 2.36424e-20)
(-37.3538 -11.4533 -2.13202e-20)
(-33.3728 -11.8618 4.0518e-19)
(-29.2957 -12.203 1.33203e-18)
(-25.1525 -12.4609 2.1503e-18)
(-20.976 -12.6183 3.70764e-18)
(-16.7978 -12.6616 6.8159e-18)
(-12.6571 -12.5888 1.22258e-17)
(-8.60886 -12.4032 2.04595e-17)
(-4.74281 -12.0866 3.09162e-17)
(-1.03392 -11.542 4.6718e-17)
(-80.3898 -0.105665 1.93983e-16)
(-80.0781 -0.109205 1.87302e-16)
(-79.8204 -0.116697 1.80613e-16)
(-79.5532 -0.127589 1.73206e-16)
(-79.2822 -0.144366 1.66102e-16)
(-79.0067 -0.169479 1.59625e-16)
(-78.7246 -0.20513 1.52711e-16)
(-78.4328 -0.253196 1.45684e-16)
(-78.1278 -0.315378 1.38548e-16)
(-77.8054 -0.393348 1.31057e-16)
(-77.4614 -0.48876 1.23909e-16)
(-77.091 -0.603259 1.17283e-16)
(-76.6891 -0.738682 1.1056e-16)
(-76.2503 -0.897113 1.03916e-16)
(-75.7689 -1.08065 9.73755e-17)
(-75.2388 -1.29123 9.05668e-17)
(-74.6531 -1.53067 8.42898e-17)
(-74.005 -1.8007 7.8684e-17)
(-73.2876 -2.10299 7.29563e-17)
(-72.4937 -2.43885 6.73898e-17)
(-71.6159 -2.80909 6.20394e-17)
(-70.6467 -3.21396 5.69245e-17)
(-69.5788 -3.65338 5.21282e-17)
(-68.4054 -4.12683 4.76487e-17)
(-67.12 -4.63301 4.34821e-17)
(-65.7171 -5.17012 3.96204e-17)
(-64.1916 -5.73642 3.64318e-17)
(-62.5388 -6.33005 3.32227e-17)
(-60.7547 -6.94882 2.97338e-17)
(-58.8353 -7.59083 2.67691e-17)
(-56.7768 -8.25448 2.42304e-17)
(-54.5756 -8.93806 2.20928e-17)
(-52.2286 -9.63963 2.07628e-17)
(-49.7328 -10.3565 1.93841e-17)
(-47.086 -11.0846 1.75259e-17)
(-44.2872 -11.8175 1.61346e-17)
(-41.3387 -12.547 1.49958e-17)
(-38.2456 -13.2626 1.40544e-17)
(-35.0161 -13.9524 1.36026e-17)
(-31.6619 -14.6023 1.31684e-17)
(-28.1989 -15.1955 1.24886e-17)
(-24.6474 -15.7138 1.25547e-17)
(-21.0329 -16.1374 1.2636e-17)
(-17.3885 -16.4443 1.19032e-17)
(-13.749 -16.6116 1.16609e-17)
(-10.1466 -16.6169 1.15008e-17)
(-6.63534 -16.4488 1.10286e-17)
(-3.2451 -16.1049 1.23688e-17)
(-0.0672192 -15.5753 1.51185e-17)
(2.8848 -14.7225 1.95755e-17)
(-68.8622 -0.773061 1.7189e-16)
(-68.4476 -0.767185 1.66435e-16)
(-68.1251 -0.75989 1.60958e-16)
(-67.7959 -0.753921 1.5508e-16)
(-67.4663 -0.753854 1.49524e-16)
(-67.1343 -0.7638 1.44479e-16)
(-66.7973 -0.787189 1.39207e-16)
(-66.4517 -0.826895 1.33909e-16)
(-66.0939 -0.885422 1.28606e-16)
(-65.72 -0.964932 1.22932e-16)
(-65.3258 -1.06727 1.17606e-16)
(-64.9071 -1.19428 1.12845e-16)
(-64.4596 -1.34813 1.0793e-16)
(-63.9787 -1.53114 1.03022e-16)
(-63.4591 -1.74562 9.81009e-17)
(-62.8951 -1.99387 9.27514e-17)
(-62.2808 -2.27832 8.7737e-17)
(-61.6101 -2.60135 8.32772e-17)
(-60.8767 -2.96491 7.8627e-17)
(-60.0742 -3.3703 7.40202e-17)
(-59.1957 -3.81826 6.9509e-17)
(-58.2349 -4.30888 6.51363e-17)
(-57.186 -4.84162 6.09907e-17)
(-56.0432 -5.4153 5.70983e-17)
(-54.8014 -6.02807 5.34721e-17)
(-53.4569 -6.67741 5.01568e-17)
(-52.006 -7.36088 4.7187e-17)
(-50.4454 -8.07607 4.43282e-17)
(-48.7719 -8.82033 4.14481e-17)
(-46.9825 -9.59139 3.88135e-17)
(-45.0741 -10.3875 3.65191e-17)
(-43.0439 -11.2069 3.46024e-17)
(-40.8886 -12.0478 3.30741e-17)
(-38.6057 -12.9072 3.16991e-17)
(-36.1934 -13.7799 3.01203e-17)
(-33.6515 -14.6579 2.86663e-17)
(-30.9828 -15.5304 2.7493e-17)
(-28.1936 -16.3837 2.65996e-17)
(-25.2948 -17.2023 2.59513e-17)
(-22.3002 -17.9691 2.55851e-17)
(-19.2308 -18.6608 2.5287e-17)
(-16.1057 -19.2536 2.50772e-17)
(-12.9465 -19.7232 2.52727e-17)
(-9.79518 -20.0398 2.5322e-17)
(-6.69121 -20.1761 2.45288e-17)
(-3.64901 -20.0998 2.39668e-17)
(-0.762714 -19.7905 2.35211e-17)
(1.95803 -19.2202 2.37322e-17)
(4.3539 -18.3729 2.57344e-17)
(6.40337 -17.2712 2.58873e-17)
(-57.1212 -0.794177 9.13629e-17)
(-56.6514 -0.810074 9.02763e-17)
(-56.2794 -0.81965 8.89978e-17)
(-55.9012 -0.829204 8.70324e-17)
(-55.5262 -0.845528 8.52249e-17)
(-55.1521 -0.874201 8.38077e-17)
(-54.7756 -0.91948 8.18797e-17)
(-54.393 -0.984597 7.96709e-17)
(-54.0003 -1.07202 7.7198e-17)
(-53.5937 -1.18372 7.44355e-17)
(-53.1692 -1.32151 7.16283e-17)
(-52.723 -1.4874 6.89207e-17)
(-52.2514 -1.68368 6.60972e-17)
(-51.7502 -1.91277 6.31311e-17)
(-51.2148 -2.17724 6.00592e-17)
(-50.64 -2.47996 5.64151e-17)
(-50.0205 -2.82397 5.30559e-17)
(-49.3506 -3.21206 5.03202e-17)
(-48.6243 -3.64636 4.73577e-17)
(-47.8357 -4.12822 4.43619e-17)
(-46.9788 -4.65831 4.1393e-17)
(-46.0483 -5.23656 3.85012e-17)
(-45.0394 -5.86194 3.5736e-17)
(-43.948 -6.53253 3.31246e-17)
(-42.7706 -7.24588 3.06743e-17)
(-41.5047 -7.99901 2.8434e-17)
(-40.1484 -8.78902 2.70033e-17)
(-38.6991 -9.61349 2.53292e-17)
(-37.1538 -10.4703 2.29726e-17)
(-35.5096 -11.3578 2.10805e-17)
(-33.7634 -12.2747 1.94594e-17)
(-31.9116 -13.2192 1.81547e-17)
(-29.9511 -14.189 1.75836e-17)
(-27.8797 -15.1799 1.70161e-17)
(-25.6971 -16.1848 1.57976e-17)
(-23.4064 -17.1914 1.46431e-17)
(-21.0118 -18.1867 1.36861e-17)
(-18.5209 -19.1547 1.28685e-17)
(-15.9458 -20.077 1.26104e-17)
(-13.2991 -20.935 1.23564e-17)
(-10.6215 -21.6924 1.19091e-17)
(-7.92344 -22.3263 1.14478e-17)
(-5.21154 -22.8093 1.22385e-17)
(-2.54904 -23.0958 1.30885e-17)
(0.0135373 -23.1501 1.28461e-17)
(2.48128 -22.9209 1.27366e-17)
(4.661 -22.3982 1.2114e-17)
(6.60712 -21.6015 1.14853e-17)
(8.38862 -20.525 1.33005e-17)
(10.0102 -19.175 1.37073e-17)
(-45.4225 -1.45997 2.93068e-17)
(-44.8589 -1.46829 3.03811e-17)
(-44.4381 -1.46028 3.14125e-17)
(-44.0197 -1.44908 3.1819e-17)
(-43.6124 -1.44541 3.26347e-17)
(-43.2115 -1.45711 3.41711e-17)
(-42.8122 -1.48949 3.52975e-17)
(-42.41 -1.54605 3.61733e-17)
(-42.0006 -1.62918 3.676e-17)
(-41.5802 -1.74078 3.70406e-17)
(-41.1452 -1.88275 3.69855e-17)
(-40.6923 -2.05729 3.68451e-17)
(-40.2182 -2.26678 3.66218e-17)
(-39.7194 -2.51383 3.60856e-17)
(-39.1915 -2.80157 3.52316e-17)
(-38.6298 -3.13358 3.34623e-17)
(-38.0288 -3.51351 3.2038e-17)
(-37.3826 -3.94455 3.1373e-17)
(-36.6851 -4.42893 3.02392e-17)
(-35.9307 -4.96777 2.89256e-17)
(-35.1142 -5.56119 2.74969e-17)
(-34.2315 -6.20836 2.60237e-17)
(-33.2791 -6.90733 2.45079e-17)
(-32.2544 -7.65483 2.30237e-17)
(-31.1557 -8.44699 2.15603e-17)
(-29.9823 -9.28007 2.02557e-17)
(-28.734 -10.151 1.95689e-17)
(-27.4096 -11.0581 1.88697e-17)
(-26.0066 -12.0008 1.7315e-17)
(-24.5202 -12.9802 1.58066e-17)
(-22.9452 -13.9969 1.44648e-17)
(-21.2751 -15.0501 1.33643e-17)
(-19.505 -16.1369 1.31463e-17)
(-17.6339 -17.2505 1.32659e-17)
(-15.6645 -18.3813 1.26638e-17)
(-13.6138 -19.5031 1.17738e-17)
(-11.4864 -20.6006 1.10542e-17)
(-9.28799 -21.6571 1.0447e-17)
(-7.03047 -22.6527 9.78673e-18)
(-4.71202 -23.5722 9.29296e-18)
(-2.43004 -24.3475 9.8322e-18)
(-0.164338 -24.9679 8.64232e-18)
(2.09268 -25.4023 8.61682e-18)
(4.21507 -25.5857 9.85277e-18)
(6.15289 -25.4932 9.27585e-18)
(7.96397 -25.1052 8.92735e-18)
(9.64894 -24.4084 7.75989e-18)
(11.1722 -23.3981 6.13119e-18)
(12.4996 -22.0771 6.27907e-18)
(13.6018 -20.4751 5.84687e-18)
(-33.7456 -1.70999 4.39669e-17)
(-33.1316 -1.72277 4.37838e-17)
(-32.6803 -1.70767 4.35423e-17)
(-32.239 -1.68991 4.28164e-17)
(-31.8181 -1.68387 4.2328e-17)
(-31.4103 -1.69898 4.25005e-17)
(-31.0089 -1.74034 4.25864e-17)
(-30.6084 -1.81062 4.25793e-17)
(-30.204 -1.91135 4.2378e-17)
(-29.7922 -2.04375 4.14766e-17)
(-29.3699 -2.20931 4.0594e-17)
(-28.9344 -2.40994 4.0204e-17)
(-28.4832 -2.64803 3.95242e-17)
(-28.013 -2.92669 3.85234e-17)
(-27.5196 -3.2501 3.72051e-17)
(-26.9973 -3.62308 3.51695e-17)
(-26.4391 -4.05045 3.33685e-17)
(-25.838 -4.536 3.22417e-17)
(-25.1877 -5.08179 3.10389e-17)
(-24.4829 -5.68821 2.9673e-17)
(-23.7202 -6.35419 2.82377e-17)
(-22.897 -7.07763 2.67866e-17)
(-22.0109 -7.85504 2.53119e-17)
(-21.0607 -8.68102 2.38616e-17)
(-20.0463 -9.54928 2.24169e-17)
(-18.969 -10.4547 2.11232e-17)
(-17.8305 -11.3942 2.06941e-17)
(-16.6317 -12.3675 2.06876e-17)
(-15.3744 -13.3731 1.9629e-17)
(-14.0495 -14.4192 1.81797e-17)
(-12.6493 -15.5102 1.68235e-17)
(-11.1605 -16.6507 1.56526e-17)
(-9.57501 -17.8376 1.46217e-17)
(-7.89413 -19.0616 1.45984e-17)
(-6.11625 -20.3149 1.48877e-17)
(-4.29463 -21.5358 1.41803e-17)
(-2.42633 -22.7131 1.36183e-17)
(-0.513624 -23.8299 1.3103e-17)
(1.43004 -24.8634 1.20536e-17)
(3.42463 -25.8049 1.23787e-17)
(5.25805 -26.5379 1.27368e-17)
(7.03905 -27.0903 1.14374e-17)
(8.76557 -27.4301 1.13105e-17)
(10.4201 -27.5156 1.16413e-17)
(11.9773 -27.3059 1.05006e-17)
(13.396 -26.7649 1.03412e-17)
(14.6337 -25.8734 9.34549e-18)
(15.6444 -24.6254 7.9919e-18)
(16.3813 -23.0273 7.10565e-18)
(16.8138 -21.1187 5.76339e-18)
(-22.1842 -2.38698 2.87824e-17)
(-21.5126 -2.38362 2.88116e-17)
(-21.0558 -2.31984 2.85593e-17)
(-20.6254 -2.26043 2.79048e-17)
(-20.226 -2.22038 2.70296e-17)
(-19.8454 -2.20989 2.65716e-17)
(-19.4732 -2.233 2.62819e-17)
(-19.1019 -2.29094 2.56048e-17)
(-18.7271 -2.38376 2.4591e-17)
(-18.3458 -2.51167 2.29458e-17)
(-17.9562 -2.67554 2.12379e-17)
(-17.5572 -2.87695 2.04449e-17)
(-17.1481 -3.11845 1.99251e-17)
(-16.7287 -3.40375 1.91231e-17)
(-16.2959 -3.7389 1.80355e-17)
(-15.8415 -4.13137 1.63071e-17)
(-15.3514 -4.58903 1.45992e-17)
(-14.8148 -5.1166 1.38901e-17)
(-14.2262 -5.71527 1.36685e-17)
(-13.5826 -6.38323 1.32791e-17)
(-12.8834 -7.11704 1.2805e-17)
(-12.1287 -7.91265 1.22941e-17)
(-11.3178 -8.76492 1.17482e-17)
(-10.4498 -9.66639 1.1145e-17)
(-9.52348 -10.6077 1.04382e-17)
(-8.53929 -11.5809 9.71323e-18)
(-7.49922 -12.5819 9.65595e-18)
(-6.40503 -13.614 1.07073e-17)
(-5.27841 -14.6631 1.11632e-17)
(-4.09888 -15.7531 1.06225e-17)
(-2.85969 -16.8934 9.9959e-18)
(-1.53903 -18.0954 9.58732e-18)
(-0.126548 -19.3547 8.59781e-18)
(1.3717 -20.6567 8.48975e-18)
(2.98278 -22.0085 9.40306e-18)
(4.57891 -23.2885 9.37423e-18)
(6.18188 -24.5058 9.31973e-18)
(7.79252 -25.6424 9.38689e-18)
(9.39767 -26.6702 9.10089e-18)
(10.9784 -27.5593 9.41234e-18)
(12.5141 -28.2779 9.55296e-18)
(13.9845 -28.792 8.98595e-18)
(15.3634 -29.0583 8.76735e-18)
(16.6217 -29.0307 9.00032e-18)
(17.7291 -28.6655 8.69768e-18)
(18.6348 -27.9217 8.34019e-18)
(19.2879 -26.775 7.37573e-18)
(19.6335 -25.2188 6.49481e-18)
(19.6099 -23.263 6.49097e-18)
(19.1895 -20.9535 6.69429e-18)
(-10.8775 -2.70615 8.7271e-18)
(-10.3215 -2.66117 9.10078e-18)
(-9.90271 -2.56263 9.13575e-18)
(-9.55952 -2.48334 8.61823e-18)
(-9.23439 -2.43644 7.0398e-18)
(-8.92447 -2.42959 6.49145e-18)
(-8.61463 -2.46412 7.73049e-18)
(-8.29605 -2.53819 8.50785e-18)
(-7.96486 -2.64995 8.69706e-18)
(-7.61801 -2.7988 7.80333e-18)
(-7.25416 -2.98515 5.67187e-18)
(-6.87382 -3.21033 5.03013e-18)
(-6.47988 -3.47657 6.12395e-18)
(-6.08205 -3.78573 6.87425e-18)
(-5.69417 -4.14369 7.19248e-18)
(-5.31637 -4.55757 6.6289e-18)
(-4.90591 -5.047 4.38093e-18)
(-4.44081 -5.61889 3.34964e-18)
(-3.92119 -6.27284 3.96895e-18)
(-3.34666 -7.00274 4.37471e-18)
(-2.71913 -7.8009 4.55172e-18)
(-2.04027 -8.66102 4.65293e-18)
(-1.31105 -9.5771 4.62833e-18)
(-0.53001 -10.5419 4.54215e-18)
(0.308468 -11.5452 4.23245e-18)
(1.2093 -12.5772 3.93169e-18)
(2.17236 -13.635 3.13337e-18)
(3.22758 -14.7428 3.68404e-18)
(4.31018 -15.8468 4.83459e-18)
(5.42631 -16.9825 4.84999e-18)
(6.57104 -18.1612 4.60994e-18)
(7.76496 -19.3965 4.79511e-18)
(9.01924 -20.6875 4.1898e-18)
(10.3322 -22.0219 3.58716e-18)
(11.6957 -23.376 4.20785e-18)
(13.0973 -24.7155 4.4703e-18)
(14.5198 -26 4.58725e-18)
(15.9364 -27.185 4.77411e-18)
(17.3144 -28.2284 4.40808e-18)
(18.619 -29.0941 4.44295e-18)
(19.8193 -29.7484 4.79888e-18)
(20.8912 -30.158 4.28126e-18)
(21.8045 -30.2795 3.68318e-18)
(22.5252 -30.0632 3.88046e-18)
(23.0234 -29.4633 3.6858e-18)
(23.2404 -28.4324 3.5228e-18)
(23.1206 -26.9431 2.76529e-18)
(22.5974 -24.9853 1.70295e-18)
(21.5985 -22.5752 1.40009e-18)
(20.0862 -19.7516 2.71773e-18)
(0.910668 -3.08986 6.20618e-18)
(0.473729 -2.75095 6.99177e-18)
(0.781672 -2.64734 7.80371e-18)
(0.851586 -2.54884 1.03144e-17)
(0.969223 -2.49008 7.62376e-18)
(1.13031 -2.48439 3.21837e-18)
(1.3118 -2.53036 4.68288e-18)
(1.51054 -2.62139 6.21194e-18)
(1.73771 -2.75399 7.51148e-18)
(1.99945 -2.92732 9.46549e-18)
(2.29864 -3.14168 6.72435e-18)
(2.63837 -3.39931 3.32037e-18)
(3.02483 -3.70467 4.469e-18)
(3.45599 -4.06382 5.60238e-18)
(3.9896 -4.49333 6.26958e-18)
(4.52377 -4.95899 8.17709e-18)
(5.03771 -5.49307 6.75161e-18)
(5.54807 -6.10145 4.4716e-18)
(6.06229 -6.7865 4.44837e-18)
(6.60245 -7.54722 4.60809e-18)
(7.18311 -8.38013 4.71366e-18)
(7.80972 -9.28057 4.757e-18)
(8.48313 -10.2415 4.74206e-18)
(9.20612 -11.2536 4.70406e-18)
(9.98771 -12.3061 4.50778e-18)
(10.8338 -13.3895 4.41969e-18)
(11.7423 -14.4995 4.10562e-18)
(12.7068 -15.6364 3.83141e-18)
(13.7217 -16.8053 4.23587e-18)
(14.7802 -18.0145 4.32612e-18)
(15.8768 -19.2721 4.16442e-18)
(17.0109 -20.5826 4.31196e-18)
(18.1808 -21.9431 3.7071e-18)
(19.3823 -23.3404 3.00516e-18)
(20.6066 -24.7479 3.27415e-18)
(21.8367 -26.124 3.42121e-18)
(23.0483 -27.4192 3.52642e-18)
(24.2058 -28.5799 3.71407e-18)
(25.265 -29.5574 3.67035e-18)
(26.1774 -30.313 3.35259e-18)
(26.9002 -30.8138 3.24891e-18)
(27.4075 -31.0285 2.54462e-18)
(27.6636 -30.9124 2.12469e-18)
(27.6314 -30.4103 2.44841e-18)
(27.2878 -29.4745 2.56576e-18)
(26.5655 -28.0507 2.50467e-18)
(25.414 -26.1137 1.80711e-18)
(23.745 -23.641 6.06022e-19)
(21.5029 -20.679 5.67987e-19)
(18.5692 -17.1993 1.78471e-18)
(13.0386 -3.50339 5.97666e-18)
(12.9895 -2.92599 6.09155e-18)
(12.9387 -2.60516 5.8651e-18)
(12.9262 -2.41179 6.59878e-18)
(12.9374 -2.29281 7.1235e-18)
(12.9689 -2.23761 6.41279e-18)
(13.0222 -2.2412 6.02107e-18)
(13.1001 -2.29831 5.91003e-18)
(13.2049 -2.40567 5.59722e-18)
(13.3389 -2.56243 6.23191e-18)
(13.505 -2.76992 6.70445e-18)
(13.7063 -3.03176 5.94685e-18)
(13.9448 -3.35375 5.53753e-18)
(14.219 -3.74448 5.42718e-18)
(14.5235 -4.21266 5.07193e-18)
(14.8567 -4.76344 5.59746e-18)
(15.2209 -5.39991 6.06899e-18)
(15.6187 -6.12426 5.44465e-18)
(16.055 -6.9352 5.13647e-18)
(16.5372 -7.82844 4.98607e-18)
(17.0716 -8.79721 4.90917e-18)
(17.6624 -9.83241 4.861e-18)
(18.3127 -10.9221 4.81558e-18)
(19.0255 -12.0514 4.75643e-18)
(19.8044 -13.2066 4.59573e-18)
(20.6498 -14.3777 4.53958e-18)
(21.5571 -15.5597 4.12149e-18)
(22.5172 -16.7527 3.76405e-18)
(23.518 -17.9624 3.84797e-18)
(24.5462 -19.1994 3.77888e-18)
(25.5892 -20.4751 3.59866e-18)
(26.6378 -21.7976 3.81699e-18)
(27.6839 -23.166 2.99778e-18)
(28.7182 -24.5666 2.53338e-18)
(29.7276 -25.9685 2.84923e-18)
(30.6897 -27.3221 3.07198e-18)
(31.5742 -28.5658 3.27209e-18)
(32.3359 -29.6338 3.62853e-18)
(32.9146 -30.4681 3.50578e-18)
(33.2428 -31.0262 2.91995e-18)
(33.2643 -31.2753 2.6116e-18)
(32.9561 -31.1899 1.36769e-18)
(32.2725 -30.7197 1.15876e-18)
(31.1764 -29.805 2.13016e-18)
(29.6623 -28.3992 2.79641e-18)
(27.6515 -26.4404 3.11331e-18)
(25.1299 -23.9276 2.09808e-18)
(21.9305 -20.7817 -2.63999e-19)
(18.1469 -17.1845 -5.02384e-19)
(13.2703 -12.8062 2.48237e-18)
(26.5183 -3.15816 5.69581e-18)
(26.1413 -2.82363 5.74572e-18)
(25.8356 -2.64134 5.36968e-18)
(25.6604 -2.56379 5.71493e-18)
(25.5534 -2.54517 6.34016e-18)
(25.4826 -2.57598 6.03786e-18)
(25.4413 -2.65483 5.85814e-18)
(25.427 -2.77881 5.80778e-18)
(25.437 -2.94547 5.43385e-18)
(25.4691 -3.15453 5.77038e-18)
(25.523 -3.40807 6.29192e-18)
(25.599 -3.71038 5.91659e-18)
(25.6983 -4.0679 5.67743e-18)
(25.8222 -4.48879 5.57943e-18)
(25.9724 -4.98076 5.10427e-18)
(26.1525 -5.54962 5.38283e-18)
(26.3678 -6.20134 5.90581e-18)
(26.6248 -6.94048 5.53068e-18)
(26.9311 -7.76899 5.30699e-18)
(27.2956 -8.68576 5.16015e-18)
(27.727 -9.6856 5.04762e-18)
(28.2323 -10.7588 4.9495e-18)
(28.8167 -11.8913 4.85379e-18)
(29.483 -13.0661 4.74929e-18)
(30.2304 -14.2655 4.58414e-18)
(31.0534 -15.4749 4.77115e-18)
(31.9408 -16.6836 4.23622e-18)
(32.8749 -17.8888 3.70426e-18)
(33.8332 -19.0946 3.84576e-18)
(34.7899 -20.3117 3.84511e-18)
(35.72 -21.555 3.73883e-18)
(36.6025 -22.8368 3.94764e-18)
(37.4204 -24.1606 3.35065e-18)
(38.1585 -25.5128 2.86114e-18)
(38.799 -26.8569 3.04267e-18)
(39.3136 -28.1313 3.18893e-18)
(39.6682 -29.2592 3.3712e-18)
(39.8085 -30.1596 3.93137e-18)
(39.656 -30.7634 3.4911e-18)
(39.1127 -31.0206 1.57994e-18)
(38.1045 -30.8977 -1.35506e-19)
(36.6264 -30.3829 -2.13738e-18)
(34.6024 -29.4039 -2.49317e-19)
(32.0125 -27.9062 2.94125e-18)
(28.8805 -25.8429 5.50998e-18)
(25.1071 -23.1439 5.65648e-18)
(20.8184 -19.9006 3.2835e-18)
(15.5203 -15.7968 -1.70002e-18)
(10.0192 -11.5254 -1.45538e-18)
(2.18788 -5.69188 1.00964e-17)
(39.1232 -1.92405 5.382e-18)
(38.9414 -1.71977 5.41346e-18)
(38.7213 -1.60009 4.87371e-18)
(38.5889 -1.54947 5.13811e-18)
(38.5089 -1.54158 5.89985e-18)
(38.4453 -1.57214 5.71243e-18)
(38.391 -1.64436 5.59318e-18)
(38.3459 -1.76022 5.55602e-18)
(38.3084 -1.92143 5.2382e-18)
(38.2766 -2.13138 5.43471e-18)
(38.2495 -2.39547 5.81222e-18)
(38.2273 -2.72095 5.58036e-18)
(38.2112 -3.1168 5.44145e-18)
(38.2037 -3.5928 5.39252e-18)
(38.2092 -4.15814 4.83354e-18)
(38.234 -4.82053 5.06846e-18)
(38.2871 -5.58608 5.71373e-18)
(38.3792 -6.45851 5.40952e-18)
(38.5234 -7.43787 5.20884e-18)
(38.7347 -8.51945 5.0576e-18)
(39.0281 -9.69329 4.92852e-18)
(39.4164 -10.9442 4.8061e-18)
(39.9079 -12.2524 4.68278e-18)
(40.5051 -13.5943 4.55302e-18)
(41.2031 -14.9448 4.38159e-18)
(41.9885 -16.2803 4.74712e-18)
(42.8376 -17.5811 4.30604e-18)
(43.7172 -18.8372 3.53688e-18)
(44.5862 -20.0491 3.626e-18)
(45.3978 -21.2288 3.59585e-18)
(46.1063 -22.3973 3.46387e-18)
(46.6731 -23.5771 3.75373e-18)
(47.0703 -24.782 3.33657e-18)
(47.2794 -26.005 2.61971e-18)
(47.2782 -27.2048 2.85082e-18)
(47.0338 -28.307 3.16455e-18)
(46.5236 -29.2226 3.62243e-18)
(45.6962 -29.858 4.20202e-18)
(44.4467 -30.1302 3.03096e-18)
(42.6138 -29.9657 -1.93601e-18)
(40.1124 -29.3341 -7.51441e-18)
(36.9928 -28.2529 -1.11063e-17)
(33.0694 -26.5662 -5.08966e-19)
(28.4386 -24.2822 8.91834e-18)
(23.1133 -21.3101 1.57651e-17)
(16.9802 -17.5639 1.28128e-17)
(10.6465 -13.4288 3.49652e-18)
(2.36285 -7.77007 -1.14049e-17)
(-4.30553 -3.20732 -1.08622e-17)
(-17.4984 5.847 2.92433e-17)
(54.9589 -3.273 4.93638e-18)
(54.396 -3.1317 4.95803e-18)
(53.8741 -3.04974 4.84768e-18)
(53.4748 -3.02795 4.91324e-18)
(53.1517 -3.04641 5.0688e-18)
(52.8635 -3.0998 4.99201e-18)
(52.5982 -3.18912 4.95203e-18)
(52.3523 -3.31469 4.96027e-18)
(52.1207 -3.47665 4.61748e-18)
(51.8977 -3.67667 4.81401e-18)
(51.6795 -3.91868 5.26157e-18)
(51.4635 -4.20895 5.05099e-18)
(51.2499 -4.55576 4.93731e-18)
(51.0412 -4.9687 4.90394e-18)
(50.8433 -5.45826 4.40883e-18)
(50.6654 -6.03569 4.54307e-18)
(50.5199 -6.7127 5.09176e-18)
(50.4227 -7.50051 4.89468e-18)
(50.393 -8.408 4.75267e-18)
(50.4513 -9.43921 4.63235e-18)
(50.6171 -10.5907 4.51847e-18)
(50.9054 -11.8493 4.40309e-18)
(51.3239 -13.1924 4.28313e-18)
(51.87 -14.5881 4.15461e-18)
(52.5288 -15.9975 3.99018e-18)
(53.2723 -17.379 4.19053e-18)
(54.0579 -18.6936 3.84913e-18)
(54.8279 -19.9143 3.28388e-18)
(55.5113 -21.0303 3.30391e-18)
(56.0288 -22.0512 3.17599e-18)
(56.3041 -23.0041 2.93533e-18)
(56.276 -23.9252 3.14651e-18)
(55.9065 -24.8463 2.7015e-18)
(55.1819 -25.777 1.96282e-18)
(54.0704 -26.6651 2.82219e-18)
(52.5443 -27.4251 4.12664e-18)
(50.6393 -27.9741 5.7521e-18)
(48.3473 -28.2233 7.14612e-18)
(45.5133 -28.0676 2.27341e-18)
(41.7939 -27.3465 -1.57706e-17)
(37.1869 -26.0745 -3.2909e-17)
(31.8712 -24.334 -3.7466e-17)
(25.2415 -21.6762 1.06379e-17)
(18.0535 -18.441 3.87064e-17)
(9.89981 -14.2262 5.22893e-17)
(0.947321 -9.0155 2.87244e-17)
(-6.92725 -4.07971 -4.93575e-18)
(-19.539 4.54217 -4.6492e-17)
(-23.958 7.00732 -4.22943e-17)
(-25.5948 7.70879 -3.98524e-17)
(63.7898 0.0697148 4.08684e-18)
(63.6495 0.11324 4.11404e-18)
(63.4581 0.0974131 3.74587e-18)
(63.3507 0.0436489 3.91448e-18)
(63.3024 -0.0347136 4.38273e-18)
(63.2692 -0.137351 4.27115e-18)
(63.2378 -0.267611 4.21357e-18)
(63.2055 -0.428872 4.20584e-18)
(63.1679 -0.62533 3.81039e-18)
(63.1199 -0.863457 3.94999e-18)
(63.0578 -1.15291 4.42467e-18)
(62.9808 -1.50631 4.30856e-18)
(62.8905 -1.93837 4.25269e-18)
(62.7912 -2.46472 4.25057e-18)
(62.6893 -3.10086 3.86909e-18)
(62.5928 -3.86119 3.99711e-18)
(62.5115 -4.75831 4.42776e-18)
(62.4572 -5.80202 4.26532e-18)
(62.4446 -6.99769 4.1514e-18)
(62.4922 -8.34363 4.05889e-18)
(62.6209 -9.82756 3.97337e-18)
(62.8493 -11.4232 3.8838e-18)
(63.1885 -13.0929 3.78265e-18)
(63.6367 -14.7877 3.66516e-18)
(64.174 -16.4484 3.5035e-18)
(64.757 -18.0128 3.73557e-18)
(65.3176 -19.4182 3.42423e-18)
(65.7649 -20.6212 2.71509e-18)
(65.9855 -21.6003 2.45614e-18)
(65.8557 -22.3649 2.03111e-18)
(65.2618 -22.9547 1.49535e-18)
(64.1188 -23.4284 1.43672e-18)
(62.3832 -23.8515 9.42674e-19)
(60.0646 -24.2713 5.31257e-19)
(57.0549 -24.5874 4.68548e-18)
(53.3875 -24.7293 1.00543e-17)
(49.3016 -24.6888 1.52923e-17)
(44.9431 -24.4327 1.63183e-17)
(39.9853 -23.7908 -6.26631e-18)
(33.4692 -22.3117 -7.59904e-17)
(26.0994 -20.3193 -1.24298e-16)
(18.1475 -17.9774 -1.16404e-16)
(7.44115 -13.7662 9.24578e-17)
(-1.7985 -9.55729 1.63986e-16)
(-13.1121 -3.34772 1.70018e-16)
(-23.8497 3.52761 4.55672e-17)
(-28.2301 6.00999 -1.69508e-17)
(-29.5572 6.5415 -5.21618e-17)
(-29.4973 6.51493 -7.16143e-17)
(-29.2767 6.3448 -8.84522e-17)
(87.5678 -3.79169 3.89032e-18)
(86.8383 -3.78611 3.90151e-18)
(86.1738 -3.79846 3.37026e-18)
(85.6146 -3.8202 3.5092e-18)
(85.1138 -3.85338 4.15376e-18)
(84.6324 -3.9024 4.03544e-18)
(84.1589 -3.96973 3.95633e-18)
(83.6891 -4.05677 3.92524e-18)
(83.2158 -4.16513 3.38226e-18)
(82.7296 -4.2978 3.5168e-18)
(82.2208 -4.46031 4.12589e-18)
(81.6805 -4.66136 3.99731e-18)
(81.1021 -4.91275 3.91692e-18)
(80.4818 -5.2288 3.89573e-18)
(79.8195 -5.62535 3.41552e-18)
(79.1198 -6.11955 3.59804e-18)
(78.3937 -6.73034 4.15429e-18)
(77.6612 -7.47881 3.9612e-18)
(76.9535 -8.38729 3.84873e-18)
(76.3138 -9.47593 3.77954e-18)
(75.792 -10.7551 3.73845e-18)
(75.4251 -12.2089 3.68364e-18)
(75.2261 -13.7978 3.57441e-18)
(75.1725 -15.4553 3.38838e-18)
(75.207 -17.0887 3.01875e-18)
(75.2317 -18.6016 2.89482e-18)
(75.124 -19.8886 2.05803e-18)
(74.7355 -20.8783 6.64542e-19)
(73.8964 -21.5233 -3.68751e-19)
(72.4352 -21.8232 -1.58714e-18)
(70.2093 -21.8238 -2.80594e-18)
(67.1247 -21.5992 -3.24143e-18)
(63.1417 -21.2523 -3.37916e-18)
(58.3261 -20.8903 -1.41351e-18)
(52.0599 -20.1991 2.02563e-17)
(44.9193 -19.2698 4.28332e-17)
(37.7044 -18.3534 5.81749e-17)
(30.9426 -17.5603 4.96408e-17)
(23.5699 -16.4239 -6.55009e-17)
(12.4884 -13.5736 -3.62087e-16)
(2.54634 -10.8269 -4.79893e-16)
(-7.35602 -7.81335 -3.65198e-16)
(-25.0927 0.346118 5.30661e-16)
(-30.4126 3.33068 5.44665e-16)
(-33.2257 4.91599 4.52778e-16)
(-34.042 5.37633 3.11266e-16)
(-33.7585 5.30275 1.61228e-16)
(-33.3056 5.07727 3.14725e-17)
(-32.6259 4.8892 -8.14665e-17)
(-31.7094 4.76352 -1.8574e-16)
(79.7166 2.58186 4.27366e-18)
(79.7294 2.41225 4.29105e-18)
(79.8265 2.21279 3.73445e-18)
(80.0082 2.03431 3.92677e-18)
(80.2158 1.85791 4.61353e-18)
(80.398 1.67543 4.48106e-18)
(80.5354 1.48489 4.37568e-18)
(80.6212 1.28192 4.31636e-18)
(80.6532 1.05915 4.13197e-18)
(80.6349 0.805993 4.10428e-18)
(80.577 0.507565 4.22805e-18)
(80.4977 0.14403 4.1964e-18)
(80.4219 -0.308816 4.17151e-18)
(80.3786 -0.87752 4.16659e-18)
(80.3983 -1.58821 3.55058e-18)
(80.5065 -2.46398 3.73037e-18)
(80.719 -3.52332 4.4441e-18)
(81.0369 -4.77939 4.3348e-18)
(81.4438 -6.23907 4.26097e-18)
(81.9022 -7.90022 4.20548e-18)
(82.3514 -9.74492 4.17223e-18)
(82.6532 -11.6991 3.83747e-18)
(82.7093 -13.6762 2.89338e-18)
(82.4103 -15.568 1.57355e-18)
(81.7326 -17.2643 -6.09349e-19)
(80.6254 -18.6901 -2.61366e-18)
(79.0275 -19.7477 -5.89434e-18)
(76.7946 -20.384 -1.0255e-17)
(73.7696 -20.5464 -1.37956e-17)
(69.804 -20.2473 -1.70787e-17)
(64.8062 -19.5476 -1.90839e-17)
(58.7319 -18.5169 -1.78937e-17)
(51.543 -17.2561 -1.21798e-17)
(43.3971 -15.8438 6.59716e-18)
(30.5729 -13.1981 1.293e-16)
(18.4908 -10.7788 2.2855e-16)
(8.37583 -8.92835 2.65289e-16)
(0.61231 -7.72891 1.72802e-16)
(-8.91078 -5.60847 -4.55826e-16)
(-29.1882 1.24325 -1.70496e-15)
(-36.1635 3.57383 -1.86922e-15)
(-38.6081 4.40016 -1.69821e-15)
(-39.4459 4.59368 -1.46062e-15)
(-39.0078 4.29379 -1.183e-15)
(-38.5508 4.00757 -9.98549e-16)
(-37.8222 3.78341 -8.62057e-16)
(-36.8353 3.6278 -7.65003e-16)
(-35.6784 3.52806 -6.85372e-16)
(-34.4015 3.48656 -6.06409e-16)
(-33.0434 3.45604 -5.14303e-16)
(133.875 -4.8185 4.86e-18)
(132.948 -4.96348 4.86801e-18)
(132.211 -4.99202 4.47927e-18)
(131.516 -4.95199 4.53615e-18)
(130.814 -4.88507 4.94998e-18)
(130.103 -4.80872 4.87442e-18)
(129.388 -4.73256 4.82752e-18)
(128.668 -4.66552 4.81208e-18)
(127.937 -4.61572 4.42011e-18)
(127.183 -4.59013 4.48709e-18)
(126.387 -4.5956 4.90748e-18)
(125.52 -4.64014 4.83346e-18)
(124.547 -4.73403 4.78515e-18)
(123.423 -4.89023 4.76506e-18)
(122.099 -5.12349 4.3365e-18)
(120.514 -5.44847 4.38372e-18)
(118.599 -5.87851 4.8253e-18)
(116.27 -6.42563 4.73721e-18)
(113.426 -7.10176 4.66817e-18)
(109.941 -7.9215 4.60841e-18)
(105.642 -8.9152 4.54711e-18)
(99.9358 -10.1187 6.17018e-19)
(93.721 -11.2851 -9.25954e-18)
(87.1473 -12.3572 -1.96914e-17)
(80.494 -13.2337 -3.41486e-17)
(73.8543 -13.8983 -4.83404e-17)
(67.2897 -14.3124 -6.1766e-17)
(60.2136 -14.424 -7.51712e-17)
(52.523 -14.1739 -8.48638e-17)
(44.1258 -13.552 -8.96192e-17)
(35.0822 -12.5569 -8.47391e-17)
(25.4205 -11.1393 -6.32652e-17)
(15.0047 -9.2047 -1.21714e-17)
(4.05836 -6.33329 1.21512e-16)
(-31.2942 2.66482 9.26713e-16)
(-45.9679 5.64473 1.46739e-15)