/*--------------------------------*- C++ -*----------------------------------*\
  =========                 |
  \\      /  F ield         | OpenFOAM: The Open Source CFD Toolbox
   \\    /   O peration     | Website:  https://openfoam.org
    \\  /    A nd           | Version:  8
     \\/     M anipulation  |
\*---------------------------------------------------------------------------*/
FoamFile
{
    version     2.0;
    format      ascii;
    class       volScalarField;
    location    "400";
    object      p_rgh;
}
// * * * * * * * * * * * * * * * * * * * * * * * * * * * * * * * * * * * * * //

dimensions      [1 -1 -2 0 0 0 0];

internalField   nonuniform List<scalar> 
1200
(
580.14
372.46
284.497
253.996
233.642
216.683
202.996
191.532
181.524
172.625
164.577
157.244
150.553
144.41
138.736
133.456
128.52
123.905
119.569
115.46
111.551
107.832
104.285
100.87
97.5729
94.393
91.3071
88.2961
85.3575
82.4822
79.6569
76.8758
74.1322
71.4165
68.7234
66.0498
63.394
60.7522
58.116
55.4821
52.8506
50.2166
47.5769
44.933
42.2869
39.6328
36.9661
34.2857
31.5965
28.9005
26.1859
23.4604
20.7188
17.9587
15.1905
12.4105
9.60825
6.753
3.8107
0.116323
137.945
163.409
169.735
175.555
176.454
173.553
169.222
164.349
159.266
154.193
149.213
144.385
139.762
135.344
131.118
127.063
123.168
119.434
115.842
112.369
109.004
105.749
102.593
99.5125
96.5032
93.5677
90.6883
87.8539
85.0665
82.3189
79.6012
76.9112
74.244
71.5928
68.9543
66.3257
63.7068
61.0943
58.4799
55.8628
53.2449
50.6208
47.9883
45.3497
42.7062
40.0542
37.3884
34.7075
32.0174
29.3184
26.6026
23.8751
21.1307
18.3689
15.5971
12.8136
10.0114
7.17181
4.28367
1.25062
209.363
267.014
273.61
260.415
245.222
230.419
216.513
203.784
192.275
181.916
172.536
164.006
156.25
149.178
142.698
136.725
131.197
126.067
121.281
116.792
112.565
108.574
104.788
101.17
97.7102
94.3925
91.1882
88.0827
85.0696
82.1321
79.2564
76.4358
73.6604
70.9208
68.2114
65.5254
62.8601
60.2109
57.5671
54.9284
52.2958
49.6608
47.0222
44.3813
41.7364
39.0863
36.4236
33.7476
31.0643
28.371
25.6645
22.9457
20.2106
17.4612
14.6991
11.9257
9.13903
6.33563
3.54313
0.935986
209.849
232.132
225.509
207.808
193.87
183.456
174.709
167.1
160.42
154.452
148.985
143.901
139.146
134.669
130.429
126.386
122.519
118.807
115.23
111.779
108.443
105.209
102.063
98.9917
95.9982
93.0743
90.2023
87.3799
84.6059
81.868
79.1602
76.4813
73.8235
71.1815
68.5538
65.935
63.3238
60.7185
58.1112
55.5037
52.8972
50.2822
47.6603
45.0328
42.3965
39.7528
37.0943
34.4215
31.7405
29.047
26.3416
23.6199
20.8822
18.1322
15.3655
12.5872
9.79989
7.01049
4.25437
1.74802
213.45
232.797
236.314
226.906
216.796
207.331
197.674
188.162
179.205
170.908
163.234
156.142
149.593
143.53
137.908
132.672
127.774
123.17
118.828
114.728
110.837
107.126
103.574
100.16
96.8759
93.7046
90.6246
87.6297
84.71
81.8482
79.0387
76.277
73.5506
70.8524
68.1797
65.5257
62.8865
60.2579
57.6323
55.012
52.3953
49.7722
47.1457
44.5155
41.8767
39.231
36.5712
33.8994
31.2205
28.5285
25.8261
23.1056
20.3711
17.6266
14.8635
12.0888
9.3075
6.53405
3.8152
1.41893
213.452
232.796
236.305
226.875
216.747
207.273
197.602
188.094
179.153
170.862
163.196
156.122
149.587
143.535
137.924
132.698
127.806
123.208
118.872
114.778
110.891
107.183
103.633
100.223
96.9416
93.7687
90.6883
87.694
84.7714
81.9047
79.0916
76.327
73.597
70.8949
68.2187
65.5618
62.92
60.2871
57.6582
55.0364
52.4172
49.792
47.1648
44.5342
41.8951
39.2479
36.5868
33.9156
31.2373
28.5447
25.8413
23.1202
20.3864
17.6428
14.8804
12.1064
9.32496
6.55222
3.83383
1.43527
209.858
232.15
225.56
207.869
193.938
183.529
174.773
167.172
160.495
154.49
148.999
143.914
139.151
134.657
130.406
126.355
122.477
118.755
115.175
111.726
108.391
105.155
102.009
98.9455
95.9557
93.0283
90.1577
87.3415
84.5669
81.8241
79.116
76.4389
73.7819
71.1408
68.5145
65.8996
63.2923
60.6858
58.0791
55.4757
52.8684
50.2527
47.6321
45.0052
42.3683
39.7197
37.0567
34.3846
31.7043
29.0082
26.2995
23.5743
20.836
18.0856
15.3173
12.5369
9.74475
6.95226
4.19332
1.68823
209.364
266.913
273.486
260.307
245.134
230.326
216.423
203.763
192.314
181.95
172.582
164.087
156.345
149.271
142.787
136.807
131.273
126.135
121.345
116.857
112.632
108.638
104.846
101.232
97.7727
94.444
91.2334
88.1293
85.1096
82.1601
79.2778
76.4527
73.6717
70.9279
68.2153
65.5294
62.864
60.2086
57.5636
54.9295
52.2959
49.6614
47.0266
44.3889
41.7458
39.09
36.423
33.7499
31.0698
28.375
25.6669
22.9461
20.2129
17.4656
14.7026
11.9276
9.13565
6.32891
3.53206
0.92067
138.015
163.482
169.779
175.631
176.516
173.556
169.202
164.36
159.275
154.156
149.168
144.351
139.72
135.292
131.06
126.998
123.103
119.367
115.775
112.309
108.955
105.705
102.548
99.4753
96.4775
93.5402
90.6619
87.8394
85.0575
82.3089
79.5935
76.9051
74.2377
71.5881
68.951
66.3263
63.7101
61.0923
58.4772
55.8652
53.2457
50.6223
47.9936
45.3582
42.7155
40.056
37.3856
34.7077
32.021
29.3191
26.6003
23.8706
21.1281
18.369
15.595
12.8087
9.99972
7.15527
4.25968
1.21715
579.898
372.596
284.499
254.022
233.731
216.71
203.007
191.613
181.625
172.69
164.659
157.358
150.668
144.522
138.844
133.557
128.621
124.001
119.657
115.549
111.646
107.929
104.373
100.961
97.6744
94.4906
91.4022
88.4007
85.4667
82.5891
79.7633
76.9797
74.2324
71.5161
68.8225
66.1506
63.4953
60.8447
58.2036
55.5701
52.9327
50.2965
47.6578
45.0149
42.3674
39.7061
37.0383
34.3639
31.6809
28.9837
26.2682
23.5434
20.8064
18.052
15.2835
12.5022
9.69495
6.8367
3.88726
0.178489
579.497
372.186
284.211
253.984
233.844
216.782
202.975
191.528
181.536
172.594
164.568
157.305
150.649
144.515
138.836
133.564
128.648
124.024
119.659
115.539
111.633
107.901
104.322
100.896
97.6015
94.4084
91.3116
88.3046
85.3673
82.4888
79.6644
76.8834
74.1376
71.4237
68.7359
66.0671
63.4098
60.761
58.1229
55.4912
52.8597
50.2279
47.5945
44.9544
42.3026
39.6425
36.9766
34.3036
31.6166
28.9121
26.2011
23.4749
20.7365
17.9878
15.2173
12.4253
9.6127
6.76866
3.83581
0.135825
137.784
163.181
169.406
175.415
176.48
173.562
169.184
164.334
159.264
154.142
149.157
144.37
139.765
135.343
131.107
127.055
123.173
119.433
115.826
112.351
108.995
105.733
102.558
99.4768
96.4728
93.5268
90.6411
87.8116
85.023
82.2704
79.5524
76.8608
74.1902
71.5391
68.9031
66.2777
63.6569
61.0368
58.4208
55.8058
53.1859
50.5631
47.9361
45.2998
42.6512
39.9917
37.3257
34.6519
31.9628
29.2572
26.5424
23.8124
21.0704
18.3165
15.5427
12.7486
9.93653
7.10577
4.22742
1.19863
209.208
266.717
273.114
259.916
244.871
230.181
216.338
203.695
192.257
181.894
172.521
164.031
156.297
149.221
142.727
136.75
131.222
126.083
121.288
116.8
112.575
108.577
104.781
101.172
97.7158
94.3877
91.1811
88.0788
85.0591
82.1139
79.2351
76.4091
73.6281
70.8859
68.1748
65.4893
62.8214
60.1649
57.5218
54.8862
52.2508
49.6184
46.9854
44.3463
41.6992
39.0426
36.3816
33.7143
31.0321
28.3363
25.6288
22.9083
20.1763
17.4306
14.6691
11.8899
9.09699
6.30099
3.51991
0.918522
209.744
232.102
225.389
207.628
193.748
183.432
174.733
167.169
160.527
154.539
149.052
143.97
139.208
134.71
130.44
126.374
122.489
118.765
115.188
111.738
108.401
105.164
102.022
98.9688
95.9832
93.0565
90.1914
87.3755
84.5969
81.8562
79.1484
76.4641
73.8016
71.1576
68.5262
65.9058
63.2913
60.6798
58.0751
55.47
52.8587
50.2467
47.6288
45.0008
42.3639
39.715
37.0598
34.3958
31.715
29.0208
26.3115
23.5901
20.855
18.1029
15.3385
12.5583
9.76748
6.98307
4.23982
1.7377
213.357
232.799
236.186
226.624
216.489
207.123
197.567
188.147
179.267
170.996
163.327
156.232
149.668
143.587
137.933
132.664
127.742
123.132
118.796
114.693
110.798
107.089
103.546
100.15
96.8742
93.7042
90.6333
87.6423
84.7182
81.8583
79.0501
76.2813
73.5497
70.8496
68.172
65.5136
62.8691
60.2353
57.6128
54.9923
52.3693
49.749
47.1239
44.4905
41.8511
39.2018
36.5477
33.8842
31.2045
28.5131
25.8064
23.0903
20.3594
17.6103
14.8519
12.0795
9.29905
6.53087
3.82747
1.43545
213.372
232.811
236.194
226.629
216.487
207.108
197.549
188.117
179.229
170.973
163.316
156.224
149.665
143.595
137.948
132.684
127.767
123.163
118.831
114.73
110.837
107.13
103.588
100.19
96.9124
93.7434
90.6711
87.6769
84.7523
81.8933
79.0843
76.3138
73.5811
70.88
68.2011
65.5405
62.8939
60.2596
57.6357
55.0124
52.3885
49.7676
47.1412
44.5071
41.8674
39.2196
36.5673
33.9038
31.2238
28.5329
25.8265
23.1113
20.3804
17.6314
14.8732
12.101
9.32155
6.55309
3.849
1.45539
209.787
232.152
225.45
207.711
193.85
183.534
174.842
167.242
160.56
154.575
149.084
143.975
139.194
134.692
130.414
126.34
122.449
118.723
115.142
111.686
108.345
105.109
101.966
98.9063
95.919
92.9989
90.1361
87.3187
84.5461
81.816
79.1144
76.4342
73.777
71.1382
68.511
65.892
63.2787
60.6726
58.0696
55.4616
52.8509
50.2387
47.6176
44.9867
42.3474
39.7005
37.0474
34.3805
31.6969
29.0028
26.2941
23.5741
20.8379
18.0847
15.3202
12.5401
9.75104
6.96544
4.22078
1.71993
209.275
266.794
273.132
259.942
244.923
230.271
216.451
203.785
192.331
181.99
172.615
164.101
156.357
149.282
142.784
136.803
131.271
126.13
121.332
116.835
112.605
108.606
104.81
101.191
97.7283
94.4047
91.1982
88.0888
85.0703
82.1322
79.2556
76.4304
73.652
70.9116
68.2013
65.5134
62.8434
60.1926
57.5525
54.915
52.2835
49.654
47.0206
44.3816
41.736
39.0864
36.4299
33.7596
31.0742
28.3798
25.674
22.9549
20.2206
17.4721
14.7104
11.9312
9.14044
6.34239
3.55697
0.947035
137.882
163.288
169.567
175.546
176.588
173.721
169.351
164.423
159.301
154.185
149.167
144.33
139.703
135.275
131.034
126.984
123.1
119.363
115.763
112.29
108.934
105.679
102.517
99.4367
96.4298
93.494
90.6153
87.7825
84.997
82.2539
79.5416
76.8559
74.193
71.5473
68.9159
66.2921
63.6735
61.0648
58.4563
55.8433
53.2317
50.6141
47.9886
45.354
42.7085
40.058
37.3958
34.718
32.0244
29.3202
26.6064
23.8762
21.1303
18.3718
15.5979
12.8041
9.9946
7.16128
4.27619
1.23486
579.64
372.235
284.361
254.094
233.94
216.951
203.148
191.621
181.599
172.68
164.627
157.322
150.657
144.52
138.839
133.57
128.65
124.032
119.678
115.564
111.66
107.937
104.377
100.955
97.6559
94.4715
91.3813
88.3687
85.4305
82.5577
79.7371
76.9621
74.2239
71.5147
68.8313
66.1642
63.5097
60.8717
58.2384
55.6056
52.9783
50.3467
47.7102
45.0666
42.4137
39.7595
37.0942
34.4154
31.7227
29.0199
26.3099
23.5829
20.8402
18.0859
15.3154
12.5238
9.71322
6.86533
3.92305
0.207445
)
;

boundaryField
{
    wall
    {
        type            fixedFluxPressure;
        gradient        nonuniform List<scalar> 
1200
(
128.404
32.2692
31.109
21.1146
18.6249
16.1193
14.419
17.7565
26.9616
50.9843
55.3123
45.6922
59.2618
5.74741
-0.641913
-3.27306
-0.553154
23.3117
39.1266
72.7384
57.8685
65.9377
99.1737
23.7644
25.2772
22.095
22.1399
70.6123
42.6275
28.1026
2.52505
28.1195
100.056
36.0134
56.2329
49.1806
31.6056
73.2194
17.2265
-14.4008
-40.7633
-5.36125
70.572
24.6125
61.6229
52.0731
17.7042
42.3194
-14.3323
-42.2309
-20.1581
-1.75899
47.8881
5.17589
41.8462
33.3149
-0.889349
10.883
-33.1597
-48.6655
3.98921
7.53396
35.075
-4.48011
21.7274
10.8973
-13.7635
-5.99166
-29.8708
-28.6658
0.672854
2.94041
18.0094
-13.6496
3.30596
-4.42782
-13.9368
-4.71472
-12.807
-2.08075
-2.57195
0.565802
3.61542
-21.3179
-12.2733
-15.1085
-12.7695
-3.63401
-5.38794
5.01111
6.43614
10.2802
4.41109
-17.3907
-17.5881
-22.1425
-16.9584
-8.07146
-5.97836
1.8044
2.08936
11.2897
3.18652
-13.5614
-18.8552
-24.1249
-17.1385
-6.77161
0.122318
6.52844
-11.9842
3.22652
-4.89202
-13.9178
-18.2238
-20.532
-12.2592
-2.97044
4.32961
7.20066
-18.8645
-0.359221
-9.2822
-12.5089
-15.2812
-15.8946
-8.72909
-2.27065
3.38055
2.36451
-20.7713
0.293103
-8.55088
-8.27598
-11.4916
-12.2624
-6.97352
-2.19327
3.37536
0.619096
-19.8422
2.5697
-5.78016
-2.4578
-5.09267
-5.03522
-1.70827
0.573937
5.15052
1.09784
-21.3166
1.9018
-4.94743
2.31421
1.54906
2.61471
2.86809
0.862476
2.9402
-2.47372
-25.5374
-1.01749
-5.01373
6.02897
6.31491
7.65743
5.44718
0.429253
0.594859
-5.73655
-23.7606
0.259273
-3.09077
8.4074
7.61887
8.97222
6.38268
1.13079
0.711875
-6.08348
-18.2575
3.31568
-1.48201
8.40438
6.49783
8.23519
6.42078
2.44156
2.49386
-4.06367
-16.0413
3.47973
-1.6184
8.2989
6.93194
9.60476
8.06271
4.32281
3.81772
-2.97459
-16.7492
1.86481
-2.08882
8.62028
7.87208
10.9859
9.23456
5.41824
4.15209
-2.92182
-14.1271
3.26603
-0.510065
9.2778
7.7266
10.6563
9.1644
6.28915
5.16621
-1.73064
-7.79744
6.99964
1.19938
8.30227
5.63941
9.08566
8.64788
7.13667
6.07389
-0.893452
-5.50641
7.06447
-0.394703
4.68829
1.96462
6.87045
7.92459
8.15007
7.66735
1.03191
-5.95434
5.98152
-1.19738
3.08003
0.456014
5.98778
7.44595
8.94579
9.50212
3.60315
-3.28981
8.09421
0.86387
3.62247
0.177594
5.19309
6.00702
7.93352
9.20278
3.73143
-1.04294
9.37473
1.32452
2.21951
-1.68777
3.54053
4.42771
7.1309
9.29037
4.10332
-1.81872
8.40149
0.653214
0.87661
-2.49938
3.51565
4.69332
8.21144
11.3833
6.36669
-2.05687
8.65156
1.9632
1.77085
-1.67009
3.91608
4.27858
7.96974
12.111
7.21564
-1.3914
9.64567
3.53097
2.29527
-2.04914
2.34408
1.69975
5.66958
11.0209
6.32128
-1.56424
9.72455
4.15048
2.2783
-2.35582
1.47076
0.359729
4.50418
10.4312
5.32966
-1.55641
10.0613
5.24202
3.35618
-0.943068
2.64058
0.974367
4.50397
9.90427
3.65794
-1.10463
10.7337
6.38372
4.30973
0.0817329
3.1756
0.971891
3.97107
9.00867
1.84036
-1.45728
10.7277
6.89907
4.70901
0.444675
2.96983
0.48617
3.28982
8.26746
0.459847
-2.52956
10.2272
7.25988
5.44649
1.45824
3.48906
0.645852
2.81536
7.13838
-1.58487
-3.48883
9.58847
7.18675
5.775
2.32247
4.23694
1.45716
3.20703
6.95908
-2.54264
-3.19818
9.96386
7.72151
6.43772
3.37559
5.18036
2.6425
4.12304
7.44142
-2.68871
-1.80869
11.4947
9.20687
7.70727
4.45773
5.47269
2.56565
3.17991
5.62165
-5.22555
-1.42352
11.8024
9.07359
7.19576
3.82369
4.44717
1.80695
2.19264
4.30071
-6.80022
-1.86278
11.3849
8.44727
6.71504
3.8727
4.74793
2.7383
2.90134
4.48719
-6.95552
-1.86357
11.7807
9.03679
7.67767
5.16128
5.69796
3.43218
2.47972
2.92338
-9.02583
-2.27539
11.5184
8.51264
7.08988
4.61099
4.85579
2.74497
1.47963
1.72893
-9.9666
-3.56687
10.4295
7.38483
6.29059
4.32693
4.69058
2.85972
1.20394
1.06983
-10.4344
-4.32781
9.95016
7.02607
6.38311
4.97945
5.41156
3.66622
1.47893
0.914824
-10.3417
-3.18455
10.974
7.458
6.49138
5.11043
5.55423
4.18824
1.99271
1.46147
-9.28387
-1.9699
12.4717
8.74948
7.55131
5.84036
5.67124
3.86754
0.744295
-0.366975
-10.7343
-2.11158
12.513
8.42938
6.89077
4.71887
3.91453
1.91046
-1.36588
-2.03595
-11.2563
-3.59196
11.1016
6.69888
5.1251
3.0646
2.39499
0.880147
-1.95238
-2.08839
-10.3803
-4.03937
10.8951
6.45592
5.07823
3.23371
2.74154
1.57211
-0.889596
-0.719872
-8.47011
-2.32823
12.2371
6.97103
5.21876
3.11189
2.40149
1.15995
-0.962766
-0.259373
-7.33084
-3.03736
12.0239
7.16866
6.00943
4.00147
3.03157
1.17108
-1.45148
-1.27925
-8.46091
-2.88787
12.5437
7.52083
5.95738
3.12366
1.82131
0.111783
-1.78212
-1.18158
-8.02153
-3.52043
12.0733
6.90417
5.42552
2.40842
1.2265
-0.309832
-1.56328
-0.517814
-6.89705
-5.80279
10.4692
6.14904
5.8475
3.35096
2.32456
0.254207
-1.34191
-0.634984
-6.90793
-5.33745
10.8828
6.0498
5.40142
2.40543
1.46957
-0.522629
-1.6249
-0.654171
-6.53838
-2.94495
13.0015
7.20562
5.78101
1.96698
1.10587
-0.574921
-0.766404
0.853421
-4.44323
-0.837524
15.0049
8.47062
6.49137
1.78563
0.687813
-1.2235
-1.01584
0.967301
-3.77923
-3.0749
13.2433
6.99736
5.50389
0.73483
-0.176345
-2.61317
-2.76611
-1.26266
-5.8487
-4.95578
11.2972
4.72091
2.93219
-2.37028
-3.06469
-5.49925
-5.07489
-3.36851
-7.27808
-3.80392
10.4797
3.5908
2.09083
-3.2545
-4.08923
-6.39311
-5.40428
-3.6273
-5.91278
-128.404
-32.2692
-31.109
-21.1146
-18.6249
-16.1193
-14.419
-17.7565
-26.9615
-50.9842
-55.3164
-45.6911
-59.261
-5.7466
0.642741
3.27374
0.55359
-23.3114
-39.1235
-72.75
-57.8708
-65.9319
-99.1733
-23.7643
-25.2777
-22.0958
-22.1406
-70.6167
-42.6155
-28.1219
-2.49969
-28.1085
-100.058
-36.0184
-56.2408
-49.1884
-31.6101
-73.2331
-17.2079
14.4087
40.8131
5.37515
-70.5716
-24.6188
-61.6363
-52.0864
-17.7087
-42.3338
14.3533
42.2498
20.2036
1.77234
-47.8824
-5.17891
-41.8589
-33.3289
0.88705
-10.8939
33.18
48.6774
-3.96334
-7.52377
-35.0647
4.48214
-21.7339
-10.9069
13.7641
5.98196
29.8881
28.6585
-0.662498
-2.93276
-17.9962
13.6555
-3.30489
4.42481
13.9398
4.70365
12.8193
2.05105
2.57402
-0.559842
-3.60082
21.3266
12.2814
15.1111
12.7736
3.62007
5.39511
-5.05669
-6.43829
-10.2755
-4.39639
17.4005
17.6008
22.1485
16.9632
8.05494
5.98165
-1.85733
-2.09016
-11.2853
-3.17248
13.5707
18.8694
24.1322
17.144
6.75326
-0.122011
-6.58408
11.9908
-3.2209
4.90568
13.9259
18.2373
20.5383
12.2646
2.95075
-4.33134
-7.2555
18.8801
0.366723
9.29577
12.5155
15.2924
15.8983
8.73361
2.25035
-3.38295
-2.41446
20.7951
-0.283774
8.56424
8.28103
11.4998
12.2629
6.97682
2.1731
-3.37755
-0.662489
19.8731
-2.55868
5.79326
2.46127
5.0976
5.03232
1.71013
-0.593525
-5.15209
-1.13452
21.353
-1.88922
4.96038
-2.31215
-1.54721
-2.62087
-2.86794
-0.881258
-2.94083
2.44416
25.5778
1.03145
5.02658
-6.02808
-6.3156
-7.66617
-5.44857
-0.447155
-0.594484
5.71411
23.8022
-0.244407
3.10341
-8.40733
-7.6212
-8.98249
-6.38522
-1.14802
-0.710861
6.06703
18.2968
-3.30053
1.49442
-8.40457
-6.50084
-8.24601
-6.42413
-2.45835
-2.49262
4.05171
16.0761
-3.46467
1.63066
-8.29887
-6.93499
-9.61549
-8.0666
-4.33925
-3.81653
2.96577
16.7783
-1.85003
2.10091
-8.61976
-7.87481
-10.9962
-9.23878
-5.43437
-4.15106
2.91514
14.1498
-3.25187
0.52181
-9.27663
-7.72864
-10.6657
-9.16866
-6.30494
-5.16549
1.72494
7.81229
-6.98646
-1.1881
-8.30025
-5.64041
-9.09383
-8.65191
-7.15207
-6.07362
0.887551
5.51282
-7.0524
0.4055
-4.68526
-1.9644
-6.87726
-7.92818
-8.16502
-7.66758
-1.03895
5.95307
-5.97051
1.20763
-3.07609
-0.454678
-5.99327
-7.44889
-8.96011
-9.50286
-3.61221
3.28172
-8.08427
-0.854349
-3.6179
-0.175385
-5.19735
-6.00916
-7.94703
-9.20392
-3.74285
1.02879
-9.36585
-1.31583
-2.21452
1.69065
-3.54366
-4.42896
-7.14348
-9.2918
-4.1169
1.79979
-8.39353
-0.645356
-0.871373
2.50273
-3.51781
-4.6937
-8.22306
-11.3849
-6.38221
2.03452
-8.64436
-1.95623
-1.76565
1.67361
-3.91745
-4.27813
-7.9804
-12.1128
-7.23253
1.36662
-9.63917
-3.52495
-2.29035
2.0526
-2.3448
-1.69852
-5.67925
-11.0227
-6.33856
1.53783
-9.71863
-4.14537
-2.27379
2.35906
-1.47096
-0.357838
-4.51296
-10.4327
-5.3462
1.529
-10.0558
-5.23771
-3.35215
0.945929
-2.64046
-0.972065
-4.51203
-9.90557
-3.67251
1.07669
-10.7286
-6.38013
-4.30625
-0.0793702
-3.17534
-0.969389
-3.97854
-9.00958
-1.85184
1.42918
-10.7229
-6.89608
-4.70608
-0.442856
-2.96951
-0.483613
-3.29682
-8.2679
-0.467534
2.50162
-10.2227
-7.25739
-5.4441
-1.45699
-3.48877
-0.643389
-2.822
-7.1383
1.58153
3.46112
-9.58416
-7.18466
-5.77311
-2.3218
-4.23677
-1.45494
-3.21343
-6.95843
2.54402
3.17051
-9.95974
-7.7197
-6.43627
-3.37545
-5.18035
-2.64061
-4.12927
-7.44021
2.69482
1.7808
-11.4908
-9.20528
-7.70619
-4.45807
-5.47286
-2.56416
-3.18602
-5.61985
5.23639
1.39528
-11.7987
-9.07214
-7.19499
-3.82443
-4.44751
-1.80586
-2.19865
-4.2983
6.8156
1.83421
-11.3814
-8.44586
-6.71448
-3.87378
-4.74844
-2.73763
-2.90728
-4.48422
6.97487
1.83471
-11.7774
-9.03539
-7.67729
-5.16266
-5.69867
-3.43194
-2.4856
-2.91987
9.04868
2.24627
-11.5153
-8.51123
-7.08965
-4.61264
-4.85669
-2.74509
-1.48541
-1.72491
9.9923
3.53752
-10.4265
-7.38336
-6.29046
-4.32875
-4.69161
-2.86013
-1.2096
-1.06536
10.462
4.29823
-9.94733
-7.02452
-6.38306
-4.98142
-5.41271
-3.66686
-1.48445
-0.909979
10.3704
3.15459
-10.9713
-7.45638
-6.4914
-5.11248
-5.55545
-4.18902
-1.99808
-1.45633
9.3131
1.93949
-12.4693
-8.74781
-7.55138
-5.84243
-5.67246
-3.86837
-0.749484
0.372339
10.7632
2.08088
-12.5108
-8.42768
-6.8909
-4.72091
-3.9157
-1.91121
1.36091
2.04148
11.2841
3.56113
-11.0995
-6.6971
-5.12526
-3.06654
-2.39603
-0.88073
1.94761
2.09396
10.4064
4.00848
-10.8932
-6.45406
-5.07841
-3.23552
-2.74244
-1.57248
0.884972
0.725365
8.49386
2.29731
-12.2353
-6.9691
-5.21899
-3.11357
-2.40225
-1.16004
0.958249
0.264696
7.3519
3.00664
-12.0223
-7.16666
-6.00972
-4.003
-3.03216
-1.17085
1.44705
1.28437
8.47918
2.85776
-12.5422
-7.51878
-5.95776
-3.125
-1.82173
-0.111228
1.77774
1.18644
8.03693
3.49102
-12.0718
-6.90207
-5.42598
-2.40951
-1.22672
0.310719
1.55891
0.522367
6.90917
5.77431
-10.4678
-6.14686
-5.84802
-3.35181
-2.32463
-0.253027
1.33754
0.639215
6.91664
5.30987
-10.8814
-6.04753
-5.402
-2.40601
-1.46951
0.524074
1.6205
0.65808
6.5436
2.91802
-13.0001
-7.20327
-5.7816
-1.96721
-1.10566
0.576612
0.761955
-0.849864
4.44474
0.811354
-15.0036
-8.4682
-6.49198
-1.78552
-0.687496
1.22539
1.01131
-0.964096
3.77702
3.05
-13.242
-6.99483
-5.50449
-0.734384
0.176725
2.61522
2.76149
1.26557
5.84313
4.93263
-11.2958
-4.71826
-2.93277
2.37106
3.06509
5.5014
5.07015
3.37114
7.26946
3.78261
-10.4783
-3.58801
-2.09136
3.25561
4.0896
6.3953
5.39939
3.62966
5.90117
)
;
        value           nonuniform List<scalar> 
1200
(
580.461
138.026
209.441
209.902
213.497
213.493
209.895
209.408
138.083
580.023
372.6
163.524
267.162
232.146
232.794
232.787
232.148
266.97
163.581
372.779
284.644
169.9
273.858
225.568
236.376
236.36
225.616
273.662
169.887
284.571
254.003
175.626
260.666
207.898
227.046
226.998
207.948
260.491
175.675
253.986
233.539
176.44
245.4
193.932
216.951
216.877
193.982
245.24
176.481
233.624
216.632
173.549
230.54
183.47
207.436
207.357
183.527
230.353
173.473
216.587
203.005
169.24
216.601
174.699
197.729
197.63
174.738
216.407
169.127
202.934
191.533
164.356
203.829
167.066
188.172
188.083
167.137
203.75
164.328
191.606
181.517
159.268
192.284
160.367
179.175
179.116
160.464
192.304
159.261
181.637
172.642
154.219
181.927
154.408
170.864
170.807
154.448
181.93
154.141
172.694
164.583
149.241
172.544
148.951
163.186
163.135
148.956
172.565
149.168
164.676
157.215
144.394
163.994
143.866
156.096
156.07
143.883
164.079
144.362
157.376
150.507
139.761
156.227
139.114
149.554
149.547
139.129
156.34
139.729
150.675
144.359
135.345
149.157
134.648
143.501
143.503
134.64
149.265
135.3
144.524
138.687
131.125
142.684
130.422
137.895
137.911
130.401
142.788
131.073
138.847
133.403
127.069
136.712
126.392
132.676
132.704
126.361
136.809
127.006
133.551
128.456
123.166
131.185
122.534
127.789
127.825
122.49
131.274
123.104
128.607
123.845
119.434
126.06
118.828
123.189
123.23
118.771
126.138
119.369
123.986
119.523
115.85
121.277
115.251
118.845
118.893
115.19
121.351
115.781
119.647
115.419
112.377
116.788
111.8
114.745
114.802
111.746
116.868
112.319
115.541
111.508
109.009
112.56
108.465
110.857
110.919
108.414
112.645
108.965
111.639
107.796
105.757
108.573
105.233
107.146
107.21
105.178
108.653
105.718
107.925
104.264
102.611
104.79
102.084
103.588
103.656
102.031
104.864
102.563
104.37
100.855
99.53
101.169
99.0037
100.165
100.241
98.9656
101.252
99.4943
100.963
97.5573
96.5179
97.707
96.0061
96.8774
96.957
95.9746
97.7953
96.5011
97.6831
94.3842
93.5877
94.3944
93.0836
93.7054
93.782
93.0437
94.4641
93.5631
94.4997
91.3041
90.7115
91.1912
90.208
90.6206
90.6974
90.1691
91.2515
90.685
91.4122
88.2912
87.8747
88.0839
87.3821
87.6235
87.703
87.3537
88.1502
87.8678
88.4165
85.3521
85.088
85.0741
84.6103
84.7058
84.7815
84.578
85.1299
85.0878
85.4847
82.4786
82.3429
82.1406
81.8736
81.843
81.9108
81.8286
82.1746
82.3365
82.605
79.6528
79.6254
79.2664
79.1657
79.0326
79.0953
79.117
79.2893
79.6197
79.7769
76.8718
76.9363
76.4486
76.4895
76.2744
76.3336
76.4415
76.4641
76.9301
76.9893
74.1294
74.2708
73.6761
73.834
73.5506
73.6049
73.7843
73.6817
74.2604
74.2374
71.4129
71.6196
70.9378
71.1931
70.8532
70.9023
71.1419
70.9362
71.609
71.5178
68.7171
68.9798
68.2294
68.5672
68.1831
68.2273
68.516
68.2224
68.9692
68.8191
66.041
66.3497
65.5433
65.9492
65.5312
65.5723
65.9031
65.5374
66.344
66.1448
63.386
63.7316
62.8794
63.3397
62.8946
62.9328
63.2987
62.8743
63.7291
63.4892
60.7476
61.123
60.2339
60.7377
60.2689
60.3007
60.692
60.2165
61.1067
60.8322
58.1124
58.5093
57.5898
58.1291
57.6417
57.6692
58.0834
57.569
58.4883
58.1871
55.4774
55.8912
54.9495
55.5204
55.0215
55.0481
55.4823
54.9367
55.8768
55.5531
52.8459
53.2743
52.3185
52.9163
52.4081
52.4313
52.8768
52.3021
53.2534
52.9104
50.2109
50.6496
49.6822
50.2999
49.7836
49.8041
50.2593
49.6651
50.6269
50.2718
47.5679
48.0143
47.0408
47.676
47.1564
47.1764
47.6391
47.0296
47.9965
47.6318
44.9221
45.3745
44.399
45.0487
44.5279
44.5477
45.0143
44.3926
45.3607
44.989
42.2789
42.7335
41.7551
42.4127
41.8895
41.909
42.3787
41.7508
42.7193
42.3441
39.6278
40.0853
39.1082
39.7716
39.2456
39.2621
39.7294
39.0919
40.0552
39.679
36.9609
37.4196
36.4448
37.1115
36.5831
36.5966
37.0616
36.4196
37.3806
37.0099
34.2768
34.7352
33.7644
34.4342
33.9071
33.9217
34.387
33.745
34.7024
34.3377
31.5864
32.0446
31.0805
31.7531
31.2287
31.2443
31.7085
31.0676
32.0191
31.6594
28.8947
29.349
28.3885
29.06
28.5364
28.5508
29.0113
28.3726
29.3184
28.965
26.1784
26.6326
25.6825
26.3566
25.8362
25.8491
26.3027
25.6632
26.5969
26.2467
23.4532
23.9065
22.9646
23.6348
23.1136
23.1248
23.5748
22.9416
23.8675
23.523
20.7101
21.1609
20.228
20.8957
20.3773
20.3896
20.8355
20.2089
21.1266
20.7887
17.9443
18.395
17.4767
18.1468
17.6353
17.6487
18.0865
17.4621
18.3672
18.0343
15.1773
15.6243
14.7144
15.379
14.8698
14.8842
15.3162
14.6984
15.5932
15.2667
12.4033
12.8461
11.9439
12.6017
12.094
12.1093
12.5357
11.9255
12.8107
12.4907
9.60636
10.049
9.16039
9.81613
9.31226
9.32671
9.74182
9.13294
10.002
9.68512
6.74553
7.20501
6.35333
7.02428
6.5362
6.55179
6.94582
6.32179
7.15194
6.82171
3.79855
4.31204
3.55516
4.26174
3.80954
3.82609
4.17958
3.5191
4.25107
3.86871
0.107148
1.27705
0.945258
1.75331
1.41096
1.42487
1.67211
0.90677
1.20783
0.163351
579.177
137.703
209.13
209.691
213.311
213.331
209.75
209.231
137.813
579.514
372.046
163.067
266.57
232.089
232.801
232.82
232.154
266.737
163.19
372.051
284.065
169.241
272.866
225.33
236.124
236.139
225.394
272.956
169.46
284.289
253.977
175.344
259.665
207.538
226.484
226.506
207.632
259.758
175.503
254.13
233.947
176.494
244.694
193.686
216.334
216.356
193.805
244.817
176.624
234.047
216.834
173.566
230.061
183.418
207.018
207.023
183.536
230.244
173.804
217.074
202.966
169.165
216.25
174.743
197.512
197.521
174.876
216.467
169.426
203.221
191.527
164.327
203.649
167.202
188.138
188.127
167.277
203.798
164.456
191.627
181.543
159.262
192.248
160.58
179.297
179.267
160.591
192.341
159.315
181.586
172.577
154.117
181.883
154.582
171.04
171.028
154.617
182.01
154.201
172.676
164.562
149.128
172.512
149.086
163.375
163.377
149.127
172.632
149.167
164.61
157.334
144.361
164.043
144.005
156.279
156.276
144.006
164.109
144.319
157.304
150.695
139.765
156.32
139.239
149.707
149.706
139.216
156.362
139.695
150.651
144.566
135.342
149.243
134.731
143.616
143.626
134.709
149.287
135.266
144.517
138.885
131.1
142.742
130.447
137.946
137.961
130.418
142.782
131.021
138.835
133.617
127.05
136.762
126.369
132.661
132.678
126.333
136.8
126.976
133.575
128.712
123.176
131.235
122.474
127.726
127.749
122.436
131.27
123.098
128.664
124.083
119.432
126.09
118.744
123.113
123.141
118.707
126.127
119.362
124.047
119.705
115.817
121.292
115.167
118.78
118.811
115.126
121.326
115.757
119.688
115.58
112.343
116.804
111.717
114.676
114.706
111.666
116.825
112.281
115.571
111.676
108.99
112.581
108.379
110.778
110.809
108.321
112.591
108.924
111.668
107.937
105.725
108.578
105.14
107.069
107.103
105.086
108.59
105.666
107.942
104.343
102.541
104.779
102.001
103.532
103.565
101.944
104.792
102.502
104.379
100.911
99.4594
101.173
98.9567
100.145
100.172
98.8862
101.171
99.4177
100.953
97.6171
96.4582
97.7191
95.9753
96.8727
96.897
95.9001
97.7057
96.4062
97.6471
94.4172
93.5069
94.3859
93.0473
93.7035
93.73
92.9835
94.3846
93.4711
94.4624
91.3146
90.6179
91.1781
90.1857
90.6374
90.6619
90.1247
91.1801
90.5921
91.3712
88.3094
87.7908
88.0776
87.3733
87.6485
87.6678
87.3066
88.0679
87.754
88.3528
85.3727
85.0016
85.0546
84.5926
84.7225
84.7422
84.5351
85.05
84.9667
85.4125
82.4924
82.2465
82.1054
81.8507
81.8635
81.8872
81.8115
82.1177
82.2263
82.5417
79.6684
79.5283
79.225
79.143
79.0562
79.0806
79.1133
79.2441
79.5154
79.7235
76.8873
76.8357
76.3963
76.456
76.2839
76.3072
76.4317
76.419
76.831
76.9525
74.1403
74.1635
73.6124
73.791
73.5498
73.5732
73.7746
73.6419
74.1703
74.2188
71.4273
71.5123
70.8689
71.1461
70.8488
70.8726
71.1371
70.9033
71.5263
71.513
68.7422
68.8776
68.1568
68.5128
68.1686
68.1924
68.5096
68.1942
68.8977
68.8347
66.0758
66.2538
65.4715
65.8916
65.5081
65.53
65.8885
65.5054
66.2743
66.17
63.4178
63.632
62.8022
63.2754
62.861
62.881
63.2723
62.8331
63.6546
63.5159
60.7656
61.0081
60.1419
60.6607
60.2244
60.246
60.6664
60.1847
61.0504
60.8843
58.1264
58.3913
57.4991
58.0572
57.6035
57.6247
58.0654
57.5471
58.4452
58.255
55.4959
55.7774
54.8651
55.4533
54.9828
55.0007
55.455
54.9077
55.8318
55.6226
52.8644
53.1565
52.2281
52.8396
52.3565
52.3744
52.8426
52.2773
53.224
53.0007
50.2335
50.5344
49.5971
50.229
49.7376
49.7556
50.232
49.6503
50.6095
50.3715
47.6034
47.9101
46.9669
47.6131
47.1131
47.1296
47.6106
47.0176
47.9857
47.7362
44.9652
45.2751
44.3287
44.9849
44.4781
44.4936
44.9776
44.3778
45.3515
45.0926
42.3106
42.6238
41.6805
42.3478
41.8384
41.8535
42.3369
41.7309
42.7046
42.4371
39.6474
39.9607
39.0207
39.6961
39.1872
39.2054
39.6907
39.0844
40.0588
39.7866
36.9818
37.2945
36.3605
37.0426
36.5359
36.5575
37.0425
36.4333
37.4009
37.1227
34.3125
34.6242
33.6974
34.383
33.8765
33.8977
34.3781
33.7645
34.7233
34.4417
31.6266
31.9356
31.0159
31.7024
31.1963
31.2168
31.6927
31.0764
32.0263
31.7443
28.9178
29.2266
28.3187
29.0078
28.5053
28.5268
28.9997
28.3822
29.321
29.0386
26.2085
26.5124
25.6108
26.2965
25.7962
25.8187
26.2909
25.6777
26.6098
26.3315
23.4819
23.781
22.8894
23.5752
23.0823
23.1066
23.5736
22.9594
23.8794
23.6034
20.7451
21.0402
20.1589
20.8415
20.3532
20.3773
20.8385
20.2246
21.1318
20.8579
18.0022
18.2904
17.4151
18.0883
17.6017
17.6254
18.0838
17.4756
18.3736
18.1036
15.2305
15.5155
14.6538
15.325
14.8456
14.8694
15.3213
14.7146
15.5998
15.3322
12.4325
12.7161
11.8718
12.5439
12.0742
12.0982
12.5413
11.9332
12.8022
12.5353
9.61452
9.89894
9.07563
9.75124
9.29429
9.3198
9.75397
9.14313
9.99235
9.72305
6.77606
7.07257
6.28329
6.96927
6.52873
6.55352
6.97188
6.3495
7.16462
6.88031
3.84789
4.19905
3.50788
4.23244
3.83313
3.85674
4.23453
3.56991
4.28481
3.94158
0.144944
1.1722
0.909258
1.73241
1.44341
1.46579
1.73606