/*--------------------------------*- C++ -*----------------------------------*\
  =========                 |
  \\      /  F ield         | OpenFOAM: The Open Source CFD Toolbox
   \\    /   O peration     | Website:  https://openfoam.org
    \\  /    A nd           | Version:  8
     \\/     M anipulation  |
\*---------------------------------------------------------------------------*/
FoamFile
{
    version     2.0;
    format      ascii;
    class       volScalarField;
    location    "100";
    object      k;
}
// * * * * * * * * * * * * * * * * * * * * * * * * * * * * * * * * * * * * * //

dimensions      [0 2 -2 0 0 0 0];

internalField   nonuniform List<scalar> 
1200
(
0.0505472
0.0428475
0.0369106
0.0322394
0.0284971
0.0254525
0.0229422
0.0208483
0.0190832
0.0175815
0.0162931
0.0151792
0.0142096
0.0133602
0.0126119
0.0119491
0.0113593
0.010832
0.0103587
0.00993222
0.00954658
0.00919671
0.00887833
0.00858778
0.00832191
0.00807803
0.00785379
0.00764715
0.00745636
0.00727985
0.00711625
0.00696437
0.00682313
0.00669159
0.00656891
0.00645434
0.0063472
0.00624689
0.00615287
0.00606464
0.00598177
0.00590386
0.00583055
0.00576151
0.00569643
0.00563505
0.00557713
0.00552243
0.00547074
0.00542188
0.00537567
0.00533196
0.00529058
0.00525142
0.00521434
0.00517922
0.00514596
0.00511446
0.00508461
0.00505556
0.0434539
0.0320529
0.0244806
0.0192404
0.0154856
0.0127124
0.0106118
0.00898606
0.00770396
0.00667647
0.00584128
0.00515364
0.00458112
0.00409966
0.00369107
0.00334158
0.00304045
0.00277924
0.00255123
0.00235109
0.00217452
0.00201797
0.00187854
0.00175385
0.00164193
0.00154107
0.00144988
0.00136718
0.00129195
0.00122333
0.00116057
0.00110301
0.00105011
0.00100138
0.000956397
0.000914775
0.000876195
0.000840363
0.000807021
0.00077595
0.000746945
0.000719825
0.000694422
0.000670581
0.00064819
0.000627129
0.000607293
0.000588597
0.000570927
0.000554222
0.000538429
0.00052348
0.000509326
0.000495928
0.000483249
0.000471243
0.000459896
0.000449164
0.000438929
0.000429049
0.0434334
0.0319433
0.0243161
0.0190354
0.0152514
0.0124598
0.0103487
0.00871775
0.0074344
0.00640814
0.00557577
0.00489212
0.00432432
0.00384798
0.00344473
0.00310056
0.00280461
0.0025484
0.00232522
0.00212969
0.0019575
0.0018051
0.00166962
0.00154866
0.00144026
0.00134274
0.00125471
0.001175
0.0011026
0.00103665
0.000976421
0.000921271
0.000870653
0.000824091
0.000781166
0.000741515
0.000704817
0.00067079
0.000639184
0.000609779
0.000582378
0.000556806
0.000532907
0.000510541
0.000489582
0.000469918
0.000451446
0.000434074
0.000417719
0.000402306
0.000387764
0.000374032
0.000361053
0.000348773
0.000337144
0.000326122
0.000315665
0.000305734
0.000296288
0.000287276
0.0434334
0.0319683
0.0243516
0.0190752
0.0152908
0.0124965
0.0103818
0.00874706
0.00746006
0.00643047
0.00559515
0.00490894
0.00433891
0.00386065
0.00345575
0.00311015
0.00281299
0.00255572
0.00233162
0.00213527
0.00196235
0.0018093
0.00167323
0.00155175
0.00144286
0.0013449
0.00125647
0.00117639
0.00110364
0.00103737
0.000976842
0.000921409
0.000870524
0.000823706
0.000780537
0.000740652
0.000703727
0.00066948
0.00063766
0.000608045
0.000580437
0.000554661
0.000530559
0.000507992
0.000486832
0.000466966
0.000448292
0.000430717
0.000414158
0.000398538
0.000383789
0.000369848
0.000356658
0.000344166
0.000332324
0.000321089
0.000310421
0.000300281
0.000290637
0.000281456
0.0434333
0.0319683
0.0243482
0.0190692
0.0152832
0.0124883
0.0103737
0.00873945
0.00745315
0.00642432
0.00558976
0.00490425
0.00433485
0.00385715
0.00345274
0.00310758
0.00281078
0.00255383
0.00232999
0.00213388
0.00196115
0.00180828
0.00167236
0.001551
0.00144222
0.00134435
0.00125601
0.00117599
0.00110331
0.00103709
0.000976601
0.000921205
0.000870352
0.000823562
0.000780417
0.000740552
0.000703644
0.000669411
0.000637602
0.000607996
0.000580395
0.000554624
0.000530526
0.00050796
0.000486801
0.000466933
0.000448257
0.000430678
0.000414113
0.000398487
0.000383729
0.000369779
0.000356578
0.000344074
0.000332219
0.00032097
0.000310287
0.000300131
0.000290471
0.000281274
0.0434333
0.0319683
0.0243482
0.0190691
0.0152832
0.0124883
0.0103737
0.00873947
0.00745316
0.00642434
0.00558978
0.00490427
0.00433487
0.00385717
0.00345276
0.0031076
0.0028108
0.00255384
0.00233001
0.00213389
0.00196116
0.00180829
0.00167236
0.00155101
0.00144222
0.00134436
0.00125601
0.001176
0.00110331
0.00103709
0.000976601
0.000921205
0.000870351
0.000823561
0.000780416
0.000740549
0.000703641
0.000669408
0.000637599
0.000607993
0.000580392
0.000554621
0.000530523
0.000507957
0.000486798
0.000466931
0.000448254
0.000430675
0.000414111
0.000398485
0.000383728
0.000369778
0.000356577
0.000344073
0.000332218
0.00032097
0.000310286
0.000300131
0.00029047
0.000281272
0.0434334
0.0319683
0.0243516
0.0190751
0.0152908
0.0124965
0.0103818
0.00874709
0.0074601
0.00643053
0.00559522
0.00490902
0.004339
0.00386074
0.00345585
0.00311026
0.0028131
0.00255583
0.00233173
0.00213538
0.00196245
0.00180941
0.00167334
0.00155185
0.00144296
0.001345
0.00125657
0.00117648
0.00110373
0.00103746
0.000976925
0.000921488
0.000870599
0.000823777
0.000780603
0.000740712
0.000703783
0.00066953
0.000637704
0.000608083
0.000580469
0.000554687
0.000530578
0.000508003
0.000486835
0.000466961
0.000448278
0.000430693
0.000414124
0.000398493
0.000383732
0.000369778
0.000356574
0.000344067
0.00033221
0.000320959
0.000310273
0.000300116
0.000290454
0.000281255
0.0434334
0.0319433
0.024316
0.0190354
0.0152513
0.0124597
0.0103486
0.00871775
0.00743442
0.00640818
0.00557582
0.00489219
0.0043244
0.00384806
0.00344482
0.00310065
0.0028047
0.00254849
0.00232529
0.00212974
0.00195749
0.00180504
0.00166949
0.00154846
0.00143997
0.00134237
0.00125425
0.00117444
0.00110194
0.00103589
0.000975547
0.000920287
0.000869556
0.000822877
0.000779833
0.000740059
0.000703236
0.00066908
0.000637343
0.000607802
0.000580262
0.000554547
0.000530501
0.000507984
0.000486869
0.000467044
0.000448407
0.000430865
0.000414335
0.000398741
0.000384015
0.000370094
0.000356922
0.000344445
0.000332617
0.000321394
0.000310737
0.000300609
0.000290976
0.000281807
0.0434539
0.0320532
0.0244808
0.0192404
0.0154852
0.0127122
0.0106116
0.0089857
0.00770385
0.00667651
0.00584132
0.00515386
0.00458169
0.0041007
0.00369264
0.00334363
0.00304294
0.0027821
0.00255442
0.0023545
0.00217803
0.00202151
0.00188206
0.00175727
0.00164517
0.00154412
0.00145271
0.00136977
0.00129427
0.00122536
0.00116231
0.00110449
0.00105134
0.00100238
0.000957183
0.000915387
0.000876664
0.00084072
0.000807311
0.000776216
0.000747221
0.000720153
0.000694847
0.000671161
0.000648975
0.000628151
0.000608595
0.000590216
0.000572906
0.000556601
0.000541234
0.000526738
0.00051305
0.00050012
0.000487906
0.000476352
0.000465414
0.000455038
0.00044509
0.000434545
0.0505472
0.0428475
0.0369107
0.0322394
0.0284971
0.0254525
0.0229423
0.0208483
0.0190833
0.0175816
0.0162932
0.0151794
0.0142098
0.0133605
0.0126122
0.0119495
0.0113597
0.0108324
0.0103591
0.00993263
0.00954699
0.00919712
0.00887874
0.00858818
0.00832231
0.00807841
0.00785416
0.00764752
0.00745671
0.00728019
0.00711658
0.00696468
0.00682343
0.00669188
0.00656918
0.0064546
0.00634745
0.00624713
0.0061531
0.00606487
0.005982
0.00590408
0.00583077
0.00576172
0.00569665
0.00563527
0.00557735
0.00552264
0.00547096
0.00542209
0.00537588
0.00533216
0.00529077
0.00525159
0.00521448
0.00517933
0.00514603
0.00511447
0.00508456
0.00505628
0.0505474
0.042848
0.0369113
0.0322397
0.0284972
0.0254523
0.022942
0.0208479
0.0190828
0.0175811
0.0162927
0.0151789
0.0142093
0.01336
0.0126117
0.011949
0.0113592
0.0108319
0.0103586
0.00993219
0.00954657
0.00919672
0.00887835
0.0085878
0.00832194
0.00807806
0.00785382
0.00764719
0.0074564
0.00727989
0.00711629
0.00696441
0.00682317
0.00669163
0.00656895
0.00645437
0.00634723
0.00624692
0.0061529
0.00606468
0.00598181
0.0059039
0.00583059
0.00576155
0.00569649
0.00563512
0.0055772
0.00552251
0.00547084
0.00542199
0.00537581
0.00533211
0.00529077
0.00525163
0.00521457
0.00517949
0.00514626
0.00511479
0.00508497
0.00505627
0.0434539
0.0320529
0.0244779
0.019235
0.015478
0.0127044
0.0106039
0.00897857
0.00769751
0.00667112
0.00583689
0.00515039
0.00457907
0.00409878
0.00369137
0.00334286
0.00304246
0.00278176
0.00255412
0.00235415
0.00217756
0.00202088
0.00188125
0.00175629
0.00164402
0.00154282
0.0014513
0.00136827
0.00129273
0.0012238
0.00116076
0.00110297
0.00104988
0.00100097
0.000955846
0.000914128
0.000875479
0.000839611
0.000806266
0.000775202
0.000746214
0.000719121
0.000693758
0.000669985
0.000647651
0.000626639
0.000606842
0.000588156
0.000570518
0.000553835
0.000538024
0.000523035
0.000508814
0.00049531
0.00048248
0.000470298
0.000458718
0.000447679
0.000437075
0.00042645
0.0434334
0.0319431
0.0243158
0.0190352
0.0152511
0.0124596
0.0103485
0.00871759
0.00743426
0.00640802
0.00557566
0.00489203
0.00432424
0.00384791
0.00344467
0.0031005
0.00280457
0.00254836
0.00232518
0.00212964
0.00195743
0.00180502
0.00166952
0.00154854
0.00144011
0.00134256
0.00125451
0.00117477
0.00110234
0.00103636
0.000976101
0.000920923
0.000870278
0.000823688
0.000780737
0.000741061
0.000704338
0.000670287
0.000638659
0.000609232
0.000581811
0.000556219
0.0005323
0.000509916
0.000488939
0.000469257
0.000450769
0.000433381
0.000417011
0.000401582
0.000387027
0.00037328
0.000360286
0.000347993
0.00033635
0.000325314
0.000314843
0.000304897
0.000295435
0.00028641
0.0434333
0.0319681
0.0243515
0.0190751
0.0152907
0.0124965
0.0103817
0.00874705
0.00746006
0.00643048
0.00559517
0.00490896
0.00433892
0.00386066
0.00345576
0.00311016
0.002813
0.00255573
0.00233162
0.00213528
0.00196235
0.0018093
0.00167323
0.00155175
0.00144286
0.0013449
0.00125647
0.00117639
0.00110365
0.00103738
0.000976844
0.00092141
0.000870525
0.000823706
0.000780537
0.000740651
0.000703725
0.000669477
0.000637656
0.00060804
0.000580431
0.000554654
0.000530551
0.000507982
0.00048682
0.000466953
0.000448277
0.0004307
0.000414138
0.000398516
0.000383765
0.000369821
0.000356627
0.000344132
0.000332288
0.00032105
0.000310379
0.000300237
0.00029059
0.000281406
0.0434334
0.0319682
0.024348
0.0190689
0.015283
0.0124882
0.0103736
0.00873936
0.00745307
0.00642427
0.00558972
0.00490421
0.00433482
0.00385713
0.00345272
0.00310756
0.00281076
0.00255381
0.00232998
0.00213387
0.00196114
0.00180826
0.00167234
0.00155099
0.00144221
0.00134434
0.001256
0.00117598
0.0011033
0.00103708
0.000976592
0.000921198
0.000870345
0.000823556
0.000780411
0.000740546
0.000703638
0.000669406
0.000637597
0.000607992
0.000580391
0.000554621
0.000530523
0.000507957
0.000486798
0.000466931
0.000448255
0.000430676
0.000414111
0.000398484
0.000383727
0.000369777
0.000356576
0.000344071
0.000332216
0.000320967
0.000310284
0.000300128
0.000290467
0.00028127
0.0434334
0.0319682
0.024348
0.0190689
0.015283
0.0124882
0.0103736
0.00873936
0.00745308
0.00642428
0.00558972
0.00490422
0.00433483
0.00385714
0.00345273
0.00310757
0.00281077
0.00255382
0.00232999
0.00213388
0.00196115
0.00180827
0.00167235
0.00155099
0.00144221
0.00134435
0.001256
0.00117598
0.0011033
0.00103708
0.000976592
0.000921197
0.000870344
0.000823554
0.00078041
0.000740544
0.000703636
0.000669403
0.000637595
0.000607989
0.000580388
0.000554618
0.00053052
0.000507954
0.000486795
0.000466928
0.000448251
0.000430672
0.000414108
0.000398481
0.000383724
0.000369773
0.000356572
0.000344068
0.000332213
0.000320964
0.00031028
0.000300124
0.000290463
0.000281264
0.0434334
0.0319681
0.0243515
0.0190751
0.0152908
0.0124965
0.0103818
0.0087471
0.00746011
0.00643054
0.00559522
0.00490901
0.00433899
0.00386073
0.00345584
0.00311025
0.00281308
0.00255582
0.00233171
0.00213537
0.00196244
0.0018094
0.00167333
0.00155184
0.00144295
0.00134499
0.00125656
0.00117648
0.00110373
0.00103745
0.000976919
0.000921483
0.000870593
0.000823771
0.000780598
0.000740708
0.000703778
0.000669526
0.000637701
0.00060808
0.000580466
0.000554684
0.000530575
0.000508001
0.000486833
0.000466959
0.000448276
0.000430692
0.000414123
0.000398492
0.000383732
0.000369778
0.000356575
0.000344069
0.000332212
0.000320962
0.000310276
0.00030012
0.000290458
0.00028126
0.0434334
0.0319431
0.0243158
0.0190352
0.0152512
0.0124596
0.0103485
0.00871766
0.00743434
0.00640811
0.00557577
0.00489214
0.00432436
0.00384802
0.00344478
0.00310062
0.00280468
0.00254847
0.00232527
0.00212972
0.00195748
0.00180503
0.00166948
0.00154845
0.00143996
0.00134235
0.00125423
0.00117443
0.00110192
0.00103587
0.000975529
0.000920268
0.000869536
0.000822856
0.000779812
0.000740037
0.000703213
0.000669057
0.000637319
0.000607779
0.000580238
0.000554523
0.000530477
0.00050796
0.000486846
0.000467021
0.000448384
0.000430842
0.000414313
0.00039872
0.000383995
0.000370075
0.000356904
0.000344429
0.000332603
0.000321384
0.000310731
0.000300609
0.000290984
0.000281825
0.0434539
0.0320524
0.0244778
0.0192356
0.0154797
0.0127067
0.0106071
0.0089828
0.00770236
0.00667654
0.00584278
0.0051563
0.00458459
0.00410361
0.00369532
0.00334586
0.0030445
0.00278289
0.00255439
0.00235371
0.00217656
0.00201941
0.0018794
0.00175417
0.00164171
0.00154035
0.00144868
0.00136554
0.00128992
0.00122095
0.00115786
0.00110001
0.00104686
0.000997907
0.000952731
0.000910961
0.000872268
0.00083637
0.000802996
0.000771912
0.00074293
0.000715857
0.000690537
0.00066682
0.000644566
0.00062368
0.00060404
0.000585546
0.000568135
0.000551715
0.000536214
0.000521571
0.000507734
0.000494651
0.00048227
0.000470558
0.000459476
0.000448959
0.000438898
0.00042829
0.0505473
0.042848
0.0369113
0.0322398
0.0284973
0.0254524
0.0229421
0.0208481
0.0190831
0.0175814
0.016293
0.0151793
0.0142097
0.0133604
0.0126122
0.0119495
0.0113597
0.0108324
0.0103592
0.0099327
0.00954706
0.00919719
0.00887881
0.00858824
0.00832236
0.00807847
0.00785421
0.00764756
0.00745675
0.00728023
0.00711661
0.00696471
0.00682346
0.00669191
0.00656921
0.00645462
0.00634747
0.00624715
0.00615311
0.00606488
0.005982
0.00590408
0.00583076
0.00576171
0.00569663
0.00563524
0.0055773
0.00552258
0.00547088
0.00542199
0.00537576
0.00533201
0.00529059
0.00525138
0.00521424
0.00517906
0.00514572
0.00511412
0.00508417
0.00505585
)
;

boundaryField
{
    wall
    {
        type            kqRWallFunction;
        value           nonuniform List<scalar> 
1200
(
0.0505472
0.0434539
0.0434334
0.0434334
0.0434333
0.0434333
0.0434334
0.0434334
0.0434539
0.0505472
0.0428475
0.0320529
0.0319433
0.0319683
0.0319683
0.0319683
0.0319683
0.0319433
0.0320532
0.0428475
0.0369106
0.0244806
0.0243161
0.0243516
0.0243482
0.0243482
0.0243516
0.024316
0.0244808
0.0369107
0.0322394
0.0192404
0.0190354
0.0190752
0.0190692
0.0190691
0.0190751
0.0190354
0.0192404
0.0322394
0.0284971
0.0154856
0.0152514
0.0152908
0.0152832
0.0152832
0.0152908
0.0152513
0.0154852
0.0284971
0.0254525
0.0127124
0.0124598
0.0124965
0.0124883
0.0124883
0.0124965
0.0124597
0.0127122
0.0254525
0.0229422
0.0106118
0.0103487
0.0103818
0.0103737
0.0103737
0.0103818
0.0103486
0.0106116
0.0229423
0.0208483
0.00898606
0.00871775
0.00874706
0.00873945
0.00873947
0.00874709
0.00871775
0.0089857
0.0208483
0.0190832
0.00770396
0.0074344
0.00746006
0.00745315
0.00745316
0.0074601
0.00743442
0.00770385
0.0190833
0.0175815
0.00667647
0.00640814
0.00643047
0.00642432
0.00642434
0.00643053
0.00640818
0.00667651
0.0175816
0.0162931
0.00584128
0.00557577
0.00559515
0.00558976
0.00558978
0.00559522
0.00557582
0.00584132
0.0162932
0.0151792
0.00515364
0.00489212
0.00490894
0.00490425
0.00490427
0.00490902
0.00489219
0.00515386
0.0151794
0.0142096
0.00458112
0.00432432
0.00433891
0.00433485
0.00433487
0.004339
0.0043244
0.00458169
0.0142098
0.0133602
0.00409966
0.00384798
0.00386065
0.00385715
0.00385717
0.00386074
0.00384806
0.0041007
0.0133605
0.0126119
0.00369107
0.00344473
0.00345575
0.00345274
0.00345276
0.00345585
0.00344482
0.00369264
0.0126122
0.0119491
0.00334158
0.00310056
0.00311015
0.00310758
0.0031076
0.00311026
0.00310065
0.00334363
0.0119495
0.0113593
0.00304045
0.00280461
0.00281299
0.00281078
0.0028108
0.0028131
0.0028047
0.00304294
0.0113597
0.010832
0.00277924
0.0025484
0.00255572
0.00255383
0.00255384
0.00255583
0.00254849
0.0027821
0.0108324
0.0103587
0.00255123
0.00232522
0.00233162
0.00232999
0.00233001
0.00233173
0.00232529
0.00255442
0.0103591
0.00993222
0.00235109
0.00212969
0.00213527
0.00213388
0.00213389
0.00213538
0.00212974
0.0023545
0.00993263
0.00954658
0.00217452
0.0019575
0.00196235
0.00196115
0.00196116
0.00196245
0.00195749
0.00217803
0.00954699
0.00919671
0.00201797
0.0018051
0.0018093
0.00180828
0.00180829
0.00180941
0.00180504
0.00202151
0.00919712
0.00887833
0.00187854
0.00166962
0.00167323
0.00167236
0.00167236
0.00167334
0.00166949
0.00188206
0.00887874
0.00858778
0.00175385
0.00154866
0.00155175
0.001551
0.00155101
0.00155185
0.00154846
0.00175727
0.00858818
0.00832191
0.00164193
0.00144026
0.00144286
0.00144222
0.00144222
0.00144296
0.00143997
0.00164517
0.00832231
0.00807803
0.00154107
0.00134274
0.0013449
0.00134435
0.00134436
0.001345
0.00134237
0.00154412
0.00807841
0.00785379
0.00144988
0.00125471
0.00125647
0.00125601
0.00125601
0.00125657
0.00125425
0.00145271
0.00785416
0.00764715
0.00136718
0.001175
0.00117639
0.00117599
0.001176
0.00117648
0.00117444
0.00136977
0.00764752
0.00745636
0.00129195
0.0011026
0.00110364
0.00110331
0.00110331
0.00110373
0.00110194
0.00129427
0.00745671
0.00727985
0.00122333
0.00103665
0.00103737
0.00103709
0.00103709
0.00103746
0.00103589
0.00122536
0.00728019
0.00711625
0.00116057
0.000976421
0.000976842
0.000976601
0.000976601
0.000976925
0.000975547
0.00116231
0.00711658
0.00696437
0.00110301
0.000921271
0.000921409
0.000921205
0.000921205
0.000921488
0.000920287
0.00110449
0.00696468
0.00682313
0.00105011
0.000870653
0.000870524
0.000870352
0.000870351
0.000870599
0.000869556
0.00105134
0.00682343
0.00669159
0.00100138
0.000824091
0.000823706
0.000823562
0.000823561
0.000823777
0.000822877
0.00100238
0.00669188
0.00656891
0.000956397
0.000781166
0.000780537
0.000780417
0.000780416
0.000780603
0.000779833
0.000957183
0.00656918
0.00645434
0.000914775
0.000741515
0.000740652
0.000740552
0.000740549
0.000740712
0.000740059
0.000915387
0.0064546
0.0063472
0.000876195
0.000704817
0.000703727
0.000703644
0.000703641
0.000703783
0.000703236
0.000876664
0.00634745
0.00624689
0.000840363
0.00067079
0.00066948
0.000669411
0.000669408
0.00066953
0.00066908
0.00084072
0.00624713
0.00615287
0.000807021
0.000639184
0.00063766
0.000637602
0.000637599
0.000637704
0.000637343
0.000807311
0.0061531
0.00606464
0.00077595
0.000609779
0.000608045
0.000607996
0.000607993
0.000608083
0.000607802
0.000776216
0.00606487
0.00598177
0.000746945
0.000582378
0.000580437
0.000580395
0.000580392
0.000580469
0.000580262
0.000747221
0.005982
0.00590386
0.000719825
0.000556806
0.000554661
0.000554624
0.000554621
0.000554687
0.000554547
0.000720153
0.00590408
0.00583055
0.000694422
0.000532907
0.000530559
0.000530526
0.000530523
0.000530578
0.000530501
0.000694847
0.00583077
0.00576151
0.000670581
0.000510541
0.000507992
0.00050796
0.000507957
0.000508003
0.000507984
0.000671161
0.00576172
0.00569643
0.00064819
0.000489582
0.000486832
0.000486801
0.000486798
0.000486835
0.000486869
0.000648975
0.00569665
0.00563505
0.000627129
0.000469918
0.000466966
0.000466933
0.000466931
0.000466961
0.000467044
0.000628151
0.00563527
0.00557713
0.000607293
0.000451446
0.000448292
0.000448257
0.000448254
0.000448278
0.000448407
0.000608595
0.00557735
0.00552243
0.000588597
0.000434074
0.000430717
0.000430678
0.000430675
0.000430693
0.000430865
0.000590216
0.00552264
0.00547074
0.000570927
0.000417719
0.000414158
0.000414113
0.000414111
0.000414124
0.000414335
0.000572906
0.00547096
0.00542188
0.000554222
0.000402306
0.000398538
0.000398487
0.000398485
0.000398493
0.000398741
0.000556601
0.00542209
0.00537567
0.000538429
0.000387764
0.000383789
0.000383729
0.000383728
0.000383732
0.000384015
0.000541234
0.00537588
0.00533196
0.00052348
0.000374032
0.000369848
0.000369779
0.000369778
0.000369778
0.000370094
0.000526738
0.00533216
0.00529058
0.000509326
0.000361053
0.000356658
0.000356578
0.000356577
0.000356574
0.000356922
0.00051305
0.00529077
0.00525142
0.000495928
0.000348773
0.000344166
0.000344074
0.000344073
0.000344067
0.000344445
0.00050012
0.00525159
0.00521434
0.000483249
0.000337144
0.000332324
0.000332219
0.000332218
0.00033221
0.000332617
0.000487906
0.00521448
0.00517922
0.000471243
0.000326122
0.000321089
0.00032097
0.00032097
0.000320959
0.000321394
0.000476352
0.00517933
0.00514596
0.000459896
0.000315665
0.000310421
0.000310287
0.000310286
0.000310273
0.000310737
0.000465414
0.00514603
0.00511446
0.000449164
0.000305734
0.000300281
0.000300131
0.000300131
0.000300116
0.000300609
0.000455038
0.00511447
0.00508461
0.000438929
0.000296288
0.000290637
0.000290471
0.00029047
0.000290454
0.000290976
0.00044509
0.00508456
0.00505556
0.000429049
0.000287276
0.000281456
0.000281274
0.000281272
0.000281255
0.000281807
0.000434545
0.00505628
0.0505474
0.0434539
0.0434334
0.0434333
0.0434334
0.0434334
0.0434334
0.0434334
0.0434539
0.0505473
0.042848
0.0320529
0.0319431
0.0319681
0.0319682
0.0319682
0.0319681
0.0319431
0.0320524
0.042848
0.0369113
0.0244779
0.0243158
0.0243515
0.024348
0.024348
0.0243515
0.0243158
0.0244778
0.0369113
0.0322397
0.019235
0.0190352
0.0190751
0.0190689
0.0190689
0.0190751
0.0190352
0.0192356
0.0322398
0.0284972
0.015478
0.0152511
0.0152907
0.015283
0.015283
0.0152908
0.0152512
0.0154797
0.0284973
0.0254523
0.0127044
0.0124596
0.0124965
0.0124882
0.0124882
0.0124965
0.0124596
0.0127067
0.0254524
0.022942
0.0106039
0.0103485
0.0103817
0.0103736
0.0103736
0.0103818
0.0103485
0.0106071
0.0229421
0.0208479
0.00897857
0.00871759
0.00874705
0.00873936
0.00873936
0.0087471
0.00871766
0.0089828
0.0208481
0.0190828
0.00769751
0.00743426
0.00746006
0.00745307
0.00745308
0.00746011
0.00743434
0.00770236
0.0190831
0.0175811
0.00667112
0.00640802
0.00643048
0.00642427
0.00642428
0.00643054
0.00640811
0.00667654
0.0175814
0.0162927
0.00583689
0.00557566
0.00559517
0.00558972
0.00558972
0.00559522
0.00557577
0.00584278
0.016293
0.0151789
0.00515039
0.00489203
0.00490896
0.00490421
0.00490422
0.00490901
0.00489214
0.0051563
0.0151793
0.0142093
0.00457907
0.00432424
0.00433892
0.00433482
0.00433483
0.00433899
0.00432436
0.00458459
0.0142097
0.01336
0.00409878
0.00384791
0.00386066
0.00385713
0.00385714
0.00386073
0.00384802
0.00410361
0.0133604
0.0126117
0.00369137
0.00344467
0.00345576
0.00345272
0.00345273
0.00345584
0.00344478
0.00369532
0.0126122
0.011949
0.00334286
0.0031005
0.00311016
0.00310756
0.00310757
0.00311025
0.00310062
0.00334586
0.0119495
0.0113592
0.00304246
0.00280457
0.002813
0.00281076
0.00281077
0.00281308
0.00280468
0.0030445
0.0113597
0.0108319
0.00278176
0.00254836
0.00255573
0.00255381
0.00255382
0.00255582
0.00254847
0.00278289
0.0108324
0.0103586
0.00255412
0.00232518
0.00233162
0.00232998
0.00232999
0.00233171
0.00232527
0.00255439
0.0103592
0.00993219
0.00235415
0.00212964
0.00213528
0.00213387
0.00213388
0.00213537
0.00212972
0.00235371
0.0099327
0.00954657
0.00217756
0.00195743
0.00196235
0.00196114
0.00196115
0.00196244
0.00195748
0.00217656
0.00954706
0.00919672
0.00202088
0.00180502
0.0018093
0.00180826
0.00180827
0.0018094
0.00180503
0.00201941
0.00919719
0.00887835
0.00188125
0.00166952
0.00167323
0.00167234
0.00167235
0.00167333
0.00166948
0.0018794
0.00887881
0.0085878
0.00175629
0.00154854
0.00155175
0.00155099
0.00155099
0.00155184
0.00154845
0.00175417
0.00858824
0.00832194
0.00164402
0.00144011
0.00144286
0.00144221
0.00144221
0.00144295
0.00143996
0.00164171
0.00832236
0.00807806
0.00154282
0.00134256
0.0013449
0.00134434
0.00134435
0.00134499
0.00134235
0.00154035
0.00807847
0.00785382
0.0014513
0.00125451
0.00125647
0.001256
0.001256
0.00125656
0.00125423
0.00144868
0.00785421
0.00764719
0.00136827
0.00117477
0.00117639
0.00117598
0.00117598
0.00117648
0.00117443
0.00136554
0.00764756
0.0074564
0.00129273
0.00110234
0.00110365
0.0011033
0.0011033
0.00110373
0.00110192
0.00128992
0.00745675
0.00727989
0.0012238
0.00103636
0.00103738
0.00103708
0.00103708
0.00103745
0.00103587
0.00122095
0.00728023
0.00711629
0.00116076
0.000976101
0.000976844
0.000976592
0.000976592
0.000976919
0.000975529
0.00115786
0.00711661
0.00696441
0.00110297
0.000920923
0.00092141
0.000921198
0.000921197
0.000921483
0.000920268
0.00110001
0.00696471
0.00682317
0.00104988
0.000870278
0.000870525
0.000870345
0.000870344
0.000870593
0.000869536
0.00104686
0.00682346
0.00669163
0.00100097
0.000823688
0.000823706
0.000823556
0.000823554
0.000823771
0.000822856
0.000997907
0.00669191
0.00656895
0.000955846
0.000780737
0.000780537
0.000780411
0.00078041
0.000780598
0.000779812
0.000952731
0.00656921
0.00645437
0.000914128
0.000741061
0.000740651
0.000740546
0.000740544
0.000740708
0.000740037
0.000910961
0.00645462
0.00634723
0.000875479
0.000704338
0.000703725
0.000703638
0.000703636
0.000703778
0.000703213
0.000872268
0.00634747
0.00624692
0.000839611
0.000670287
0.000669477
0.000669406
0.000669403
0.000669526
0.000669057
0.00083637
0.00624715
0.0061529
0.000806266
0.000638659
0.000637656
0.000637597
0.000637595
0.000637701
0.000637319
0.000802996
0.00615311
0.00606468
0.000775202
0.000609232
0.00060804
0.000607992
0.000607989
0.00060808
0.000607779
0.000771912
0.00606488
0.00598181
0.000746214
0.000581811
0.000580431
0.000580391
0.000580388
0.000580466
0.000580238
0.00074293
0.005982
0.0059039
0.000719121
0.000556219
0.000554654
0.000554621
0.000554618
0.000554684
0.000554523
0.000715857
0.00590408
0.00583059
0.000693758
0.0005323
0.000530551
0.000530523
0.00053052
0.000530575
0.000530477
0.000690537
0.00583076
0.00576155
0.000669985
0.000509916
0.000507982
0.000507957
0.000507954
0.000508001
0.00050796
0.00066682
0.00576171
0.00569649
0.000647651
0.000488939
0.00048682
0.000486798
0.000486795
0.000486833
0.000486846
0.000644566
0.00569663
0.00563512
0.000626639
0.000469257
0.000466953
0.000466931
0.000466928
0.000466959
0.000467021
0.00062368
0.00563524
0.0055772
0.000606842
0.000450769
0.000448277
0.000448255
0.000448251
0.000448276
0.000448384
0.00060404
0.0055773
0.00552251
0.000588156
0.000433381
0.0004307
0.000430676
0.000430672
0.000430692
0.000430842
0.000585546
0.00552258
0.00547084
0.000570518
0.000417011
0.000414138
0.000414111
0.000414108
0.000414123
0.000414313
0.000568135
0.00547088
0.00542199
0.000553835
0.000401582
0.000398516
0.000398484
0.000398481
0.000398492
0.00039872
0.000551715
0.00542199
0.00537581
0.000538024
0.000387027
0.000383765
0.000383727
0.000383724
0.000383732
0.000383995
0.000536214
0.00537576
0.00533211
0.000523035
0.00037328
0.000369821
0.000369777
0.000369773
0.000369778
0.000370075
0.000521571
0.00533201
0.00529077
0.000508814
0.000360286
0.000356627
0.000356576
0.000356572
0.000356575
0.000356904
0.000507734
0.00529059
0.00525163
0.00049531
0.000347993
0.000344132
0.000344071
0.000344068
0.000344069
0.000344429
0.000494651
0.00525138
0.00521457
0.00048248
0.00033635
0.000332288
0.000332216
0.000332213
0.000332212
0.000332603
0.00048227
0.00521424
0.00517949
0.000470298
0.000325314
0.00032105
0.000320967
0.000320964
0.000320962
0.000321384
0.000470558
0.00517906
0.00514626
0.000458718
0.000314843
0.000310379
0.000310284
0.00031028
0.000310276
0.000310731
0.000459476
0.00514572
0.00511479
0.000447679
0.000304897
0.000300237
0.000300128
0.000300124
0.00030012
0.000300609
0.000448959
0.00511412
0.00508497
0.000437075
0.000295435
0.00029059
0.000290467
0.000290463
0.000290458
0.000290984
0.000438898
0.00508417
0.00505627
0.00042645
0.00028641
0.000281406
0.00028127
0.000281264
0.00028126
0.000281825
0.00042829
0.00505585
)
;
    }
    inlet
    {
        type            turbulentIntensityKineticEnergyInlet;
        intensity       0.05;
        value           uniform 0.06;
    }
    outlet
    {
        type            inletOutlet;
        inletValue      uniform 0.003;
        value           nonuniform List<scalar> 
20
(
0.00505556
0.000429049
0.000287276
0.000281456
0.000281274
0.000281272
0.000281255
0.000281807
0.000434545
0.00505628
0.00505627
0.00042645
0.00028641
0.000281406
0.00028127
0.000281264
0.00028126
0.000281825
0.00042829
0.00505585
)
;
    }
    heatWall
    {
        type            kqRWallFunction;
        value           nonuniform List<scalar> 
240
(
0.0505472
0.0505473
0.0428475
0.042848
0.0369107
0.0369113
0.0322394
0.0322398
0.0284971
0.0284973
0.0254525
0.0254524
0.0229423
0.0229421
0.0208483
0.0208481
0.0190833
0.0190831
0.0175816
0.0175814
0.0162932
0.016293
0.0151794
0.0151793
0.0142098
0.0142097
0.0133605
0.0133604
0.0126122
0.0126122
0.0119495
0.0119495
0.0113597
0.0113597
0.0108324
0.0108324
0.0103591
0.0103592
0.00993263
0.0099327
0.00954699
0.00954706
0.00919712
0.00919719
0.00887874
0.00887881
0.00858818
0.00858824
0.00832231
0.00832236
0.00807841
0.00807847
0.00785416
0.00785421
0.00764752
0.00764756
0.00745671
0.00745675
0.00728019
0.00728023
0.00711658
0.00711661
0.00696468
0.00696471
0.00682343
0.00682346
0.00669188
0.00669191
0.00656918
0.00656921
0.0064546
0.00645462
0.00634745
0.00634747
0.00624713
0.00624715
0.0061531
0.00615311
0.00606487
0.00606488
0.005982
0.005982
0.00590408
0.00590408
0.00583077
0.00583076
0.00576172
0.00576171
0.00569665
0.00569663
0.00563527
0.00563524
0.00557735
0.0055773
0.00552264
0.00552258
0.00547096
0.00547088
0.00542209
0.00542199
0.00537588
0.00537576
0.00533216
0.00533201
0.00529077
0.00529059
0.00525159
0.00525138
0.00521448
0.00521424
0.00517933
0.00517906
0.00514603
0.00514572
0.00511447
0.00511412
0.00508456
0.00508417
0.00505628
0.00505585
0.0505472
0.0505474
0.0428475
0.042848
0.0369106
0.0369113
0.0322394
0.0322397
0.0284971
0.0284972
0.0254525
0.0254523
0.0229422
0.022942
0.0208483
0.0208479
0.0190832
0.0190828
0.0175815
0.0175811
0.0162931
0.0162927
0.0151792
0.0151789
0.0142096
0.0142093
0.0133602
0.01336
0.0126119
0.0126117
0.0119491
0.011949
0.0113593
0.0113592
0.010832
0.0108319
0.0103587
0.0103586
0.00993222
0.00993219
0.00954658
0.00954657
0.00919671
0.00919672
0.00887833
0.00887835
0.00858778
0.0085878
0.00832191
0.00832194
0.00807803
0.00807806