/*--------------------------------*- C++ -*----------------------------------*\
  =========                 |
  \\      /  F ield         | OpenFOAM: The Open Source CFD Toolbox
   \\    /   O peration     | Website:  https://openfoam.org
    \\  /    A nd           | Version:  8
     \\/     M anipulation  |
\*---------------------------------------------------------------------------*/
FoamFile
{
    version     2.0;
    format      ascii;
    class       volScalarField;
    location    "100";
    object      p_rgh;
}
// * * * * * * * * * * * * * * * * * * * * * * * * * * * * * * * * * * * * * //

dimensions      [1 -1 -2 0 0 0 0];

internalField   nonuniform List<scalar> 
1200
(
774.189
567.141
479.75
448.97
428.11
410.817
397.006
385.242
374.738
365.337
356.578
348.301
340.578
333.278
326.358
319.774
313.425
307.309
301.41
295.677
290.048
284.5
279.053
273.665
268.282
262.915
257.552
252.161
246.731
241.256
235.714
230.1
224.411
218.63
212.737
206.729
200.614
194.382
188.021
181.532
174.901
168.123
161.186
154.077
146.815
139.369
131.72
123.86
115.761
107.461
98.9006
90.0861
81.0109
71.6351
61.9725
52.0032
41.7133
31.0121
19.7595
8.03527
332.436
357.784
363.969
369.958
370.88
368.131
363.778
358.62
353.109
347.446
341.67
335.897
330.208
324.614
319.137
313.741
308.403
303.168
298.024
292.919
287.821
282.747
277.701
272.634
267.534
262.415
257.253
252.024
246.733
241.374
235.933
230.406
224.783
219.054
213.212
207.248
201.163
194.96
188.624
182.15
175.536
168.772
161.852
154.762
147.503
140.065
132.426
124.569
116.499
108.209
99.6512
90.8553
81.7965
72.4334
62.7814
52.8341
42.5577
31.8855
20.7131
9.72835
403.85
461.281
467.505
454.412
439.361
424.75
410.769
397.844
385.969
374.98
364.827
355.393
346.557
338.308
330.576
323.232
316.239
309.6
303.252
297.111
291.139
285.345
279.686
274.089
268.557
263.087
257.625
252.146
246.653
241.128
235.554
229.919
224.205
218.399
212.501
206.493
200.371
194.141
187.782
181.287
174.663
167.89
160.965
153.877
146.61
139.169
131.528
123.67
115.609
107.312
98.7563
89.9614
80.8933
71.5352
61.8828
51.9242
41.6372
30.9909
19.9274
9.25131
404.266
426.383
419.699
402.077
388.4
377.855
368.969
361.138
353.97
347.385
341.148
335.105
329.243
323.579
318.065
312.649
307.346
302.145
297.004
291.904
286.84
281.82
276.809
271.761
266.7
261.627
256.493
251.292
246.035
240.703
235.287
229.786
224.182
218.466
212.643
206.695
200.62
194.427
188.093
181.615
175.005
168.236
161.309
154.22
146.946
139.495
131.839
123.967
115.885
107.559
98.9973
90.1746
81.0715
71.7061
62.0321
52.0375
41.7235
31.0832
20.0596
9.56735
407.895
427.078
430.459
420.97
410.951
401.369
391.712
382.024
372.614
363.746
355.294
347.222
339.572
332.3
325.365
318.75
312.44
306.358
300.443
294.696
289.095
283.607
278.191
272.809
267.468
262.148
256.803
251.433
246.033
240.575
235.052
229.463
223.786
218.007
212.13
206.139
200.03
193.804
187.438
180.936
174.306
167.514
160.566
153.462
146.175
138.708
131.035
123.15
115.046
106.7
98.1367
89.2965
80.1788
70.8073
61.1191
51.1195
40.7994
30.1721
19.2223
8.83512
407.896
427.064
430.48
420.995
410.818
401.438
391.693
381.929
372.579
363.635
355.092
347.032
339.42
332.147
325.215
318.625
312.333
306.26
300.355
294.636
289.064
283.587
278.183
272.83
267.514
262.204
256.874
251.53
246.154
240.712
235.204
229.632
223.971
218.208
212.344
206.366
200.273
194.057
187.698
181.21
174.591
167.808
160.871
153.776
146.501
139.046
131.381
123.507
115.414
107.079
98.5286
89.6997
80.5964
71.2326
61.5593
51.5824
41.2765
30.6812
19.7704
9.40049
404.189
426.342
419.798
402.179
388.229
377.874
368.857
360.88
353.76
347.064
340.678
334.594
328.729
322.997
317.442
312.032
306.732
301.526
296.388
291.327
286.305
281.283
276.265
271.248
266.207
261.114
255.968
250.782
245.532
240.185
234.753
229.243
223.631
217.907
212.071
206.116
200.038
193.824
187.464
180.974
174.342
167.546
160.596
153.479
146.181
138.701
131.007
123.103
114.989
106.629
98.0331
89.17
80.0375
70.6314
60.9247
50.9151
40.5803
29.9598
19.0254
8.6431
403.719
460.96
467.489
454.389
439.304
424.475
410.428
397.435
385.468
374.42
364.166
354.618
345.71
337.395
329.643
322.319
315.356
308.741
302.423
296.349
290.452
284.69
279.05
273.509
268.024
262.553
257.095
251.651
246.18
240.652
235.076
229.445
223.735
217.936
212.039
206.037
199.927
193.684
187.308
180.813
174.173
167.382
160.441
153.331
146.051
138.584
130.907
123.025
114.941
106.612
98.0257
89.1886
80.0884
70.704
61.02
51.0422
40.7498
30.1416
19.2019
8.70346
332.391
357.769
363.929
369.895
370.853
367.806
363.309
358.174
352.539
346.686
340.82
334.96
329.162
323.511
318.022
312.614
307.289
302.067
296.943
291.875
286.827
281.802
276.783
271.762
266.719
261.622
256.479
251.292
246.028
240.68
235.257
229.741
224.119
218.392
212.544
206.577
200.492
194.258
187.892
181.401
174.747
167.949
160.993
153.866
146.572
139.075
131.377
123.474
115.358
107.005
98.3849
89.5195
80.391
70.9714
61.2568
51.2577
40.9483
30.2965
19.2735
8.41084
773.967
567.357
479.305
448.612
427.97
410.577
396.565
384.916
374.508
364.887
356.062
347.834
340.077
332.774
325.855
319.236
312.901
306.797
300.912
295.184
289.573
284.084
278.662
273.291
267.96
262.624
257.279
251.913
246.498
241.034
235.52
229.921
224.233
218.459
212.57
206.572
200.465
194.211
187.841
181.347
174.685
167.89
160.935
153.814
146.534
139.033
131.351
123.463
115.343
107.004
98.3971
89.5414
80.4173
71.0084
61.3108
51.3189
41.0147
30.3637
19.2901
7.73953
774.078
566.526
477.869
447.743
427.807
410.954
397.125
385.552
375.274
365.694
356.869
348.706
340.966
333.641
326.667
319.983
313.605
307.464
301.511
295.722
290.084
284.57
279.117
273.718
268.374
263.038
257.689
252.324
246.919
241.458
235.943
230.357
224.678
218.904
213.035
207.057
200.957
194.732
188.383
181.898
175.273
168.5
161.579
154.501
147.228
139.776
132.129
124.274
116.214
107.887
99.3279
90.5099
81.4231
72.0757
62.4196
52.4503
42.122
31.4329
20.19
8.47743
331.976
357.392
363.412
369.428
370.718
367.753
363.301
358.332
352.878
347.134
341.369
335.635
329.94
324.329
318.794
313.374
308.081
302.849
297.657
292.525
287.448
282.384
277.311
272.25
267.179
262.058
256.895
251.69
246.416
241.062
235.631
230.111
224.491
218.767
212.931
206.978
200.903
194.695
188.357
181.889
175.273
168.506
161.588
154.505
147.243
139.794
132.147
124.3
116.224
107.901
99.3545
90.5342
81.4467
72.1018
62.4501
52.473
42.1517
31.4905
20.3144
9.35095
403.552
461.199
467.696
454.513
439.432
424.568
410.651
397.757
385.861
374.92
364.756
355.291
346.491
338.228
330.434
323.111
316.187
309.563
303.2
297.082
291.163
285.368
279.682
274.118
268.615
263.12
257.651
252.196
246.713
241.188
235.616
229.976
224.263
218.465
212.565
206.56
200.447
194.205
187.843
181.362
174.732
167.958
161.035
153.945
146.69
139.242
131.599
123.762
115.683
107.378
98.8458
90.0404
80.9743
71.6333
61.9888
52.0268
41.7309
31.1012
20.0434
9.33304
404.068
426.572
419.894
402.161
388.072
377.73
368.824
360.842
353.763
347.134
340.824
334.821
329.04
323.393
317.873
312.494
307.209
302.003
296.885
291.83
286.801
281.76
276.725
271.714
266.667
261.556
256.413
251.226
245.96
240.618
235.197
229.679
224.064
218.347
212.509
206.553
200.477
194.261
187.92
181.451
174.823
168.052
161.127
154.023
146.754
139.287
131.623
123.76
115.659
107.339
98.7674
89.9413
80.8541
71.4622
61.779
51.7863
41.4597
30.8058
19.802
9.26934
407.631
427.211
430.674
421.185
410.877
401.497
391.626
381.823
372.522
363.589
355.114
347.102
339.481
332.246
325.369
318.786
312.438
306.335
300.47
294.76
289.158
283.643
278.213
272.858
267.517
262.169
256.828
251.466
246.051
240.592
235.075
229.474
223.789
218.015
212.131
206.136
200.025
193.781
187.42
180.93
174.284
167.504
160.569
153.453
146.171
138.691
131.019
123.143
115.041
106.723
98.1299
89.3026
80.2136
70.808
61.1197
51.1172
40.7963
30.1627
19.2297
8.86769
407.621
427.213
430.631
421.127
410.997
401.393
391.606
381.86
372.449
363.54
355.096
347.028
339.347
332.11
325.246
318.666
312.33
306.247
300.398
294.692
289.091
283.594
278.184
272.831
267.494
262.164
256.838
251.478
246.067
240.62
235.116
229.527
223.851
218.087
212.214
206.227
200.119
193.885
187.535
181.049
174.409
167.64
160.711
153.603
146.328
138.855
131.196
123.331
115.24
106.933
98.3481
89.5315
80.4509
71.0643
61.3904
51.3983
41.1074
30.499
19.5977
9.27417
404.122
426.571
419.753
402.007
388.138
377.536
368.727
360.899
353.684
347.066
340.808
334.728
328.832
323.155
317.618
312.201
306.893
301.681
296.559
291.473
286.414
281.39
276.376
271.347
266.287
261.199
256.069
250.861
245.578
240.24
234.822
229.301
223.681
217.96
212.122
206.161
200.067
193.847
187.504
181.012
174.369
167.589
160.642
153.522
146.227
138.734
131.058
123.17
115.043
106.7
98.094
89.2431
80.1203
70.7057
61.0014
50.9846
40.6688
30.0372
19.1223
8.8075
403.595
461.449
467.731
454.372
439.232
424.519
410.547
397.594
385.678
374.653
364.422
354.929
346.088
337.804
329.975
322.608
315.646
308.997
302.621
296.472
290.522
284.742
279.084
273.508
267.992
262.527
257.076
251.599
246.102
240.586
235.02
229.384
223.674
217.88
211.988
205.986
199.861
193.626
187.271
180.771
174.133
167.355
160.415
153.312
146.03
138.56
130.909
123.043
114.933
106.603
98.0337
89.2037
80.0944
70.7117
61.0438
51.0579
40.7632
30.1686
19.246
8.79999
332.057
357.4
363.615
369.562
370.649
367.922
363.442
358.17
352.599
346.821
340.893
335.035
329.305
323.654
318.089
312.675
307.377
302.159
297.004
291.91
286.866
281.841
276.826
271.797
266.738
261.653
256.517
251.309
246.039
240.7
235.273
229.754
224.138
218.407
212.566
206.6
200.497
194.277
187.922
181.414
174.773
167.975
161.017
153.895
146.585
139.099
131.419
123.523
115.389
107.021
98.4235
89.5598
80.4163
71.0079
61.3167
51.3076
40.9864
30.3695
19.3621
8.51395
774.272
566.183
478.132
447.975
427.947
411.091
397.315
385.524
375.022
365.475
356.494
348.079
340.215
332.803
325.795
319.155
312.797
306.7
300.802
295.084
289.508
284.011
278.604
273.25
267.906
262.576
257.234
251.861
246.457
240.996
235.461
229.862
224.18
218.392
212.51
206.511
200.382
194.147
187.771
181.247
174.604
167.798
160.84
153.716
146.4
138.931
131.248
123.35
115.234
106.866
98.2689
89.4078
80.2718
70.866
61.1708
51.1688
40.8532
30.2195
19.1605
7.64206
)
;

boundaryField
{
    wall
    {
        type            fixedFluxPressure;
        gradient        nonuniform List<scalar> 
1200
(
21.0744
92.7094
60.0578
39.438
53.252
55.964
12.9731
25.2045
67.0649
-62.1346
122.468
79.5519
15.7429
-38.4935
-26.4313
-29.5522
-46.428
-99.574
74.0399
236.68
381.157
111.713
-41.3595
-39.5923
-43.2795
-30.0725
8.65088
-50.0166
61.3769
238.616
250.658
107.104
-24.2581
-17.8986
-43.9564
-26.5349
34.2474
1.7681
65.5776
131.288
65.9626
32.2937
-18.389
65.7395
14.4626
-37.209
17.4643
13.7442
40.4924
7.78487
-23.7711
77.122
33.2737
24.4035
-27.3877
8.3692
68.5577
-9.38038
-24.2982
-100.463
-20.789
98.0127
20.1604
28.0723
16.2631
16.8963
26.7168
-23.7131
-27.28
-149.19
-59.5392
59.6013
14.1794
59.4061
39.5725
13.3883
-3.76561
-31.5776
0.896813
-121.99
-105.921
48.2979
19.2184
41.5277
17.2625
25.9041
15.8872
-41.712
-12.1351
-103.331
-70.5519
64.9041
9.39607
50.8224
30.9936
18.9781
0.324096
-46.0561
-26.917
-118.97
-57.422
62.4448
11.7392
66.3118
35.9784
-0.894604
-26.0793
-50.6837
-14.2588
-88.2997
-80.9962
54.5377
18.4625
58.4404
23.9005
0.621569
-26.8874
-62.0202
-14.6559
-50.4386
-77.9695
55.7501
11.7683
42.3046
18.1135
15.0746
-20.7334
-76.2126
-28.6111
-28.8103
-73.4809
59.1715
14.8292
38.9921
10.9527
7.85587
-31.8226
-82.9206
-28.9358
-6.58734
-63.2213
71.0225
28.0335
40.5246
-0.791543
-5.61934
-35.7829
-67.966
-13.7267
11.7069
-43.2671
75.8967
24.0768
33.0321
-7.3125
-7.7221
-34.4539
-59.6761
-12.4867
16.2941
-37.3668
66.8197
10.29
29.3301
0.479869
1.25984
-32.9065
-60.3707
-18.1969
21.5078
-32.3718
66.1643
7.47441
30.5109
4.66002
3.23165
-32.0626
-53.9991
-19.1412
20.5542
-21.4523
75.6954
10.572
26.0186
-5.37475
-8.12877
-35.2478
-42.5642
-12.9547
23.4371
-10.1344
81.1288
5.87476
16.9501
-12.828
-10.9065
-30.324
-27.5753
-7.8281
21.4435
-8.02549
77.0989
-4.77371
9.55874
-12.7519
-5.18963
-22.9541
-17.0384
-8.60861
14.5581
-14.7036
75.0961
-4.76259
13.4669
-7.34533
-1.34459
-22.5852
-13.2917
-8.64973
16.2667
-13.1863
80.7047
0.562408
18.2653
-4.63627
-0.400858
-23.4866
-9.608
-9.28047
13.3599
-10.7309
79.8126
-6.15675
10.7339
-10.0281
-0.535426
-20.9473
-2.35044
-7.87757
9.77048
-18.2714
73.9171
-12.1909
7.57436
-10.1421
3.68245
-16.9989
3.98092
-4.69461
12.2002
-24.4072
74.4211
-7.37147
14.9424
-4.46124
7.57222
-18.2469
2.95203
-6.99423
11.1723
-27.0036
74.8835
-5.98959
16.6965
-5.16158
6.60958
-21.5058
1.69356
-8.54568
10.4253
-32.3695
70.2183
-10.8907
13.7056
-6.90316
9.78333
-16.796
8.44274
-4.39072
11.8837
-37.109
66.9677
-12.9191
15.133
-3.94077
16.827
-10.2982
13.9246
-2.95264
9.40204
-39.9733
66.0797
-12.9045
17.0011
-3.59894
17.8074
-11.9886
11.644
-4.85117
8.78742
-45.1921
64.3238
-13.3675
17.9054
-4.98317
16.6864
-14.8617
9.65076
-4.12533
12.9528
-50.838
63.0699
-12.5246
21.3026
-2.55738
20.2869
-12.6138
10.9186
-3.61737
12.9501
-52.9586
62.6811
-12.7962
23.3753
-1.01606
23.2684
-10.8409
10.9029
-4.61284
11.6623
-54.2856
61.7831
-14.5597
23.4474
-1.92888
23.4425
-11.295
10.0721
-4.03338
14.2778
-58.9576
60.6943
-14.1193
26.273
-0.477791
25.1906
-10.9898
9.01545
-5.35436
13.03
-65.1114
58.5935
-14.7878
27.8731
0.31452
27.1207
-9.76775
9.1106
-5.55066
13.1328
-68.072
56.9055
-16.7674
28.0506
0.806039
30.06
-6.50663
11.989
-2.11901
17.4474
-69.6018
57.9937
-14.5436
32.6247
4.48957
33.7817
-5.19818
10.5089
-5.02435
13.6403
-72.0751
58.3688
-13.9966
33.8435
3.32211
32.0262
-8.63085
6.19876
-7.28243
14.9143
-72.9926
57.4353
-16.7525
32.0308
1.1103
31.8339
-8.15505
7.23245
-4.04713
21.142
-74.1387
57.9646
-15.8487
35.5368
4.42378
35.8681
-5.96594
6.73767
-6.45765
17.2541
-75.2336
58.71
-15.7428
35.8329
1.96979
33.2308
-9.04853
4.13581
-6.74694
19.4897
-78.5322
58.5003
-16.2276
35.47
-0.627442
31.7259
-9.75591
3.99425
-6.29408
20.1507
-84.7992
57.3256
-15.8235
38.4054
1.70096
34.328
-9.1921
2.58136
-7.46795
20.648
-82.5887
57.7807
-18.3881
37.4664
0.735303
34.4756
-9.66732
2.65394
-4.09835
28.02
-81.3943
60.0869
-17.086
40.7616
3.44111
38.021
-7.07287
3.33081
-6.5898
21.7351
-81.774
61.7287
-16.7939
42.4451
3.43716
37.0324
-10.7529
-1.94084
-10.2395
22.0214
-82.6603
59.7742
-21.3601
40.4963
1.5131
35.4133
-13.8388
-5.35508
-11.6549
23.9662
-90.7598
60.939
-17.8063
44.228
1.09029
35.0899
-11.318
-0.185183
-8.26582
23.3809
-85.4676
67.5345
-15.9917
43.2295
-4.55202
29.3093
-14.8406
-0.0403674
-5.13984
29.204
-85.5729
65.044
-20.8897
45.1332
1.49295
36.3397
-12.749
-3.46497
-9.75134
27.3231
-84.8546
69.6777
-18.7969
45.8619
-1.11509
33.9168
-15.2215
-4.96458
-10.0239
28.4426
-82.4827
75.112
-19.2082
42.6182
-6.95256
29.3575
-17.2267
-3.14081
-6.84536
30.834
-88.1462
70.9007
-22.6652
48.0018
-0.0778127
33.9148
-15.5442
-3.47155
-8.87999
30.2043
-89.3751
70.141
-24.1705
49.8925
-0.0916753
34.079
-16.0113
-6.72503
-13.3513
29.6947
-89.3803
75.406
-23.3765
49.4179
0.461161
37.1988
-14.5634
-5.05856
-10.9104
31.5789
-81.5315
83.5602
-21.4086
51.9154
0.593379
34.1908
-18.4435
-4.47506
-7.90217
33.6426
-83.8247
80.2667
-24.4759
54.6463
1.79201
36.844
-16.1048
-7.05557
-14.1783
29.9124
-85.6675
80.066
-25.1818
50.5616
-1.66022
35.0748
-19.9917
-10.2891
-16.2636
26.5674
-88.0515
73.9556
-17.4473
58.8245
-6.96818
25.702
-33.6871
-20.6187
-17.6411
19.5132
-21.0745
-92.7096
-60.0578
-39.438
-53.2521
-55.964
-12.973
-25.2046
-67.0648
62.1346
-122.492
-79.5444
-15.7375
38.4928
26.4367
29.5633
46.4223
99.5791
-74.0389
-236.702
-381.234
-111.674
41.3644
39.5807
43.2972
30.1064
-8.67665
50.0093
-61.3715
-238.63
-250.648
-107.039
24.2147
17.8648
43.9744
26.5714
-34.2883
-1.83043
-65.5812
-131.156
-65.7004
-32.2199
18.2593
-65.7946
-14.4599
37.2419
-17.507
-13.8464
-40.5294
-7.45833
24.2655
-77.0397
-33.4882
-24.4709
27.3714
-8.35355
-68.6041
9.2579
24.2437
100.947
21.4593
-97.929
-20.4316
-28.1357
-16.2956
-16.9097
-26.7594
23.5868
27.2143
149.775
60.3113
-59.4903
-14.486
-59.4805
-39.6331
-13.4129
3.74784
31.4528
-0.978921
122.615
106.765
-48.1568
-19.5589
-41.6097
-17.3301
-25.9348
-15.8926
41.5994
12.0489
103.932
71.4331
-64.7434
-9.75931
-50.8998
-31.0647
-19.0099
-0.322477
45.9549
26.8369
119.518
58.3002
-62.2651
-12.1143
-66.3828
-36.0544
0.866115
26.0924
50.5923
14.182
88.7813
81.8631
-54.3416
-18.8494
-58.4974
-23.9746
-0.648903
26.9062
61.9437
14.5833
50.8471
78.8153
-55.5437
-12.1615
-42.3416
-18.1815
-15.103
20.7513
76.1491
28.5457
29.1334
74.2866
-58.957
-15.2211
-39.0087
-11.0149
-7.88244
31.8386
82.859
28.8753
6.83621
63.9752
-70.8009
-28.4193
-40.523
0.73532
5.59923
35.797
67.89
13.6664
-11.512
43.958
-75.6686
-24.4515
-33.0131
7.26166
7.70923
34.4647
59.5708
12.4248
-16.1315
37.9885
-66.5841
-10.6499
-29.2941
-0.52743
-1.26709
32.9122
60.2254
18.1334
-21.3598
32.928
-65.9219
-7.81897
-30.4594
-4.70535
-3.23378
32.0611
53.8008
19.0749
-20.4041
21.9493
-75.4482
-10.9024
-25.9529
5.33256
8.13245
35.2371
42.2989
12.8833
-23.2686
10.5778
-80.8787
-6.19162
-16.8712
12.7894
10.9153
30.3013
27.2343
7.74998
-21.2467
8.42263
-76.8449
4.46963
-9.46828
12.716
5.20155
22.917
16.6202
8.52255
-14.3267
15.0652
-74.8378
4.46935
-13.3673
7.31105
1.35792
22.5332
12.7992
8.55524
-15.9987
13.5225
-80.4423
-0.847017
-18.1591
4.60313
0.414685
23.4195
9.04389
9.17684
-13.0561
11.048
-79.546
5.8793
-10.6227
9.99603
0.548778
20.864
1.71745
7.76379
-9.42949
18.5766
-73.6457
11.9192
-7.45945
10.1108
-3.67065
16.899
-4.67623
4.57027
-11.8217
24.7087
-74.1448
7.10338
-14.8259
4.43027
-7.56282
18.131
-3.70088
6.85979
-10.7578
27.3066
-74.6021
5.72378
-16.5802
5.13066
-6.60306
21.374
-2.49125
8.40004
-9.97648
32.6776
-69.9314
10.6263
-13.5902
6.8724
-9.78016
16.6474
-9.2865
4.23253
-11.4024
37.4257
-66.6751
12.655
-15.0197
3.91003
-16.8278
10.1331
-14.8064
2.78255
-8.88988
40.3027
-65.7813
12.6389
-16.8908
3.56806
-17.8124
11.8093
-12.5545
4.66932
-8.2473
45.5433
-64.0198
13.0975
-17.7989
4.95213
-16.6958
14.6692
-10.5857
3.93048
-12.3887
51.2164
-62.7603
12.2444
-21.2007
2.52616
-20.3007
12.408
-11.8757
3.40905
-12.3642
53.3676
-62.366
12.4974
-23.2784
0.9847
-23.2868
10.6219
-11.8781
4.39046
-11.0555
54.7273
-61.4625
14.2401
-23.3558
1.89754
-23.4653
11.0639
-11.0629
3.79576
-13.6517
59.4343
-60.3683
13.7749
-26.1868
0.446611
-25.2176
10.748
-10.0207
5.10094
-12.3861
65.6268
-58.2623
14.4165
-27.7927
-0.345378
-27.1519
9.51594
-10.1299
5.27968
-12.4713
68.6291
-56.5692
16.3657
-27.976
-0.836352
-30.0952
6.24584
-13.0213
1.82908
-16.7693
70.2018
-57.6527
14.1066
-32.5561
-4.51917
-33.8206
4.93042
-11.5507
4.71609
-12.9462
72.7192
-58.0234
13.5234
-33.7809
-3.35082
-32.0686
8.35787
-7.24992
6.95263
-14.2042
73.6815
-57.086
16.2407
-31.9741
-1.13784
-31.8794
7.8768
-8.29611
3.69239
-20.4169
74.8726
-57.6119
15.2915
-35.486
-4.45001
-35.9165
5.68333
-7.81342
6.07789
-16.5132
76.0139
-58.3546
15.1375
-35.7881
-1.99459
-33.2818
8.76343
-5.22408
6.33813
-18.7315
79.3602
-58.1429
15.5703
-35.4312
0.60431
-31.7792
9.46843
-5.09762
5.85333
-19.3751
85.677
-56.9671
15.1096
-38.3724
-1.72242
-34.3832
8.90271
-3.70063
6.99277
-19.8536
83.5182
-57.4217
17.6142
-37.4394
-0.7551
-34.5328
9.37722
-3.79063
3.58487
-27.2061
82.3728
-59.7286
16.2441
-40.7403
-3.45914
-38.0797
6.78275
-4.48604
6.03771
-20.9001
82.8027
-61.3723
15.8811
-42.4295
-3.45336
-37.0926
10.4644
0.766517
9.64294
-21.1626
83.7408
-59.4208
20.3715
-40.4865
-1.52734
-35.4745
13.5518
4.15622
11.0065
-23.0832
91.8952
-60.5899
16.7293
-44.2238
-1.1024
-35.1519
11.0321
-1.04384
7.55943
-22.4714
86.6633
-67.192
14.8261
-43.2307
4.54216
-29.3718
14.5571
-1.21586
4.37429
-28.2665
86.824
-64.7091
19.6342
-45.1398
-1.50067
-36.4026
12.4676
2.18241
8.92681
-26.3573
86.1641
-69.3523
17.4378
-45.8737
1.10933
-33.9804
14.9434
3.65195
9.13103
-27.4467
83.8533
-74.7985
17.7427
-42.6351
6.94891
-29.4213
16.952
1.79517
5.87922
-29.8068
89.5798
-70.6002
21.0873
-48.0238
0.0760667
-33.9788
15.2726
2.0944
7.84134
-29.145
90.879
-69.8544
22.4671
-49.9197
0.0916457
-34.1432
15.7437
5.31699
12.2349
-28.6027
90.9587
-75.1353
21.5368
-49.45
-0.459365
-37.2631
14.3006
3.61702
9.7069
-30.454
83.1878
-83.3078
19.4272
-51.9522
-0.589867
-34.2551
18.1869
3.00191
6.61223
-32.4852
85.5577
-80.0332
22.3497
-54.6878
-1.78682
-36.908
15.8539
5.55286
12.8065
-28.7239
87.4861
-79.8522
22.8944
-50.6076
1.66702
-35.1385
19.7472
8.75634
14.8014
-25.3492
89.962
-73.7587
14.9861
-58.8746
6.97645
-25.7652
33.4499
19.0545
16.0851
-18.2664
)
;
        value           nonuniform List<scalar> 
1200
(
774.238
332.67
404.001
404.364
408.03
408.039
404.22
403.784
332.559
773.808
567.445
357.987
461.318
426.285
427.013
426.991
426.224
460.706
357.955
567.954
480.718
364.249
467.393
419.598
430.35
430.406
419.818
467.359
364.078
479.914
449.613
370.229
454.339
402.029
420.857
420.928
402.264
454.389
370.055
448.952
428.291
370.96
439.303
388.565
410.986
410.721
388.271
439.337
370.953
427.999
410.768
368.328
424.824
377.914
401.295
401.457
378.049
424.45
367.741
410.332
396.962
364.03
410.81
369.036
391.75
391.734
368.926
410.369
363.238
396.193
385.099
358.774
397.871
361.287
382.121
381.961
360.871
397.357
358.176
384.609
374.476
353.236
386.011
354.074
372.654
372.643
353.802
385.365
352.508
374.247
365.162
347.615
374.996
347.513
363.822
363.682
347.067
374.307
346.619
364.584
356.435
341.832
364.85
341.318
355.384
355.089
340.613
364.042
340.785
355.834
348.097
336.039
355.434
335.256
347.282
347.033
334.527
354.464
334.924
347.702
340.38
330.354
346.583
329.354
339.618
339.459
328.677
345.518
329.09
340.001
333.09
324.768
338.342
323.682
332.328
332.168
322.917
337.185
323.438
332.754
326.194
319.321
330.646
318.173
325.363
325.203
317.351
329.469
317.987
325.883
319.66
313.938
323.292
312.738
318.732
318.607
311.944
322.165
312.582
319.276
313.326
308.577
316.265
307.425
312.442
312.338
306.648
315.199
307.242
312.956
307.223
303.34
309.619
302.227
306.37
306.27
301.443
308.598
302.017
306.851
301.352
298.22
303.279
297.076
300.43
300.336
296.297
302.308
296.908
300.975
295.647
293.128
297.126
291.953
294.664
294.609
291.248
296.272
291.853
295.241
290.024
288.02
291.128
286.869
289.063
289.051
286.244
290.401
286.803
289.613
284.46
282.942
285.333
281.858
283.588
283.584
281.223
284.649
281.778
284.129
279.018
277.911
279.687
276.859
278.179
278.181
276.203
279.019
276.758
278.7
273.636
272.842
274.073
271.792
272.783
272.827
271.192
273.497
271.74
273.32
268.236
267.727
268.525
266.722
267.442
267.522
266.162
268.028
266.704
267.994
262.854
262.61
263.067
261.667
262.136
262.222
261.065
262.555
261.602
262.656
257.485
257.45
257.608
256.537
256.79
256.889
255.911
257.094
256.455
257.309
252.08
252.21
252.117
251.328
251.415
251.552
250.737
251.668
251.278
251.947
246.639
246.911
246.618
246.073
246.023
246.194
245.504
246.211
246.018
246.524
241.156
241.55
241.093
240.746
240.565
240.755
240.152
240.678
240.665
241.059
235.602
236.106
235.518
235.332
235.038
235.243
234.713
235.097
235.243
235.555
229.974
230.576
229.885
229.839
229.456
229.68
229.209
229.47
229.729
229.956
224.279
224.952
224.169
224.24
223.782
224.027
223.602
223.761
224.105
224.265
218.495
219.222
218.359
218.524
218.002
218.264
217.877
217.96
218.379
218.497
212.591
213.377
212.462
212.707
212.128
212.404
212.042
212.06
212.528
212.604
206.567
207.408
206.452
206.763
206.139
206.432
206.09
206.059
206.56
206.607
200.444
201.32
200.324
200.688
200.031
200.346
200.021
199.956
200.483
200.51
194.208
195.12
194.099
194.507
193.815
194.139
193.81
193.709
194.242
194.246
187.841
188.785
187.742
188.175
187.446
187.776
187.441
187.322
187.87
187.879
181.349
182.31
181.24
181.692
180.939
181.288
180.953
180.83
181.387
181.402
174.715
175.697
174.617
175.091
174.317
174.679
174.327
174.189
174.727
174.73
167.933
168.936
167.845
168.322
167.519
167.889
167.523
167.391
167.928
167.941
160.988
162.016
160.919
161.394
160.565
160.949
160.571
160.45
160.973
160.987
153.863
154.924
153.831
154.313
153.466
153.861
153.455
153.337
153.842
153.867
146.607
147.666
146.557
147.037
146.177
146.586
146.157
146.056
146.557
146.606
139.163
140.234
139.12
139.594
138.717
139.14
138.683
138.591
139.054
139.089
131.513
132.6
131.479
131.942
131.044
131.473
130.98
130.901
131.347
131.408
123.652
124.739
123.609
124.064
123.155
123.596
123.068
123.01
123.44
123.525
115.532
116.672
115.557
115.992
115.05
115.502
114.961
114.939
115.332
115.405
107.244
108.399
107.265
107.664
106.689
107.152
106.591
106.61
106.987
107.08
98.6837
99.8357
98.6964
99.1065
98.1412
98.6194
98.001
98.0151
98.3551
98.4684
89.8709
91.052
89.9068
90.2857
89.2944
89.7847
89.1316
89.1741
89.489
89.6156
80.8015
82.0074
80.8377
81.1742
80.1618
80.67
79.994
80.0784
80.3688
80.4976
71.4114
72.634
71.4708
71.8225
70.8077
71.3176
70.5921
70.6932
70.9444
71.0871
61.7457
62.9802
61.8147
62.1534
61.1194
61.6449
60.8842
61.0008
61.2187
61.3884
51.7761
53.0465
51.8582
52.1573
51.1212
51.6762
50.8782
51.0271
51.2262
51.4011
41.506
42.791
41.5762
41.8495
40.8015
41.3629
40.5334
40.7362
40.9251
41.1019
30.7991
32.1104
30.9223
31.2162
30.1772
30.7745
29.9189
30.1215
30.258
30.4415
19.5418
20.9381
19.8573
20.1821
19.2187
19.8598
18.9746
19.1736
19.2306
19.3591
7.81097
9.93641
9.20197
9.71145
8.81761
9.46659
8.55726
8.64896
8.36584
7.7904
774.029
331.742
403.4
403.97
407.497
407.478
404.091
403.531
331.889
774.431
566.221
357.189
461.162
426.671
427.277
427.286
426.689
461.703
357.214
565.585
476.901
363.132
467.809
419.995
430.783
430.706
419.732
467.861
363.466
477.523
447.101
369.158
454.585
402.209
421.298
421.194
401.922
454.372
369.402
447.635
427.627
370.639
439.49
387.907
410.842
411.095
388.096
439.2
370.549
427.919
411.005
367.557
424.493
377.67
401.57
401.374
377.361
424.544
367.987
411.337
397.171
363.049
410.609
368.757
391.588
391.565
368.658
410.605
363.512
397.688
385.697
358.178
397.73
360.693
381.725
381.827
360.908
397.671
358.168
385.833
375.539
352.752
385.818
353.659
372.482
372.384
353.642
385.781
352.63
375.285
365.872
346.965
374.903
347.005
363.512
363.492
347.063
374.765
346.888
365.779
357.014
341.207
364.733
340.654
355.023
355.099
340.873
364.546
340.927
356.723
348.913
335.493
355.249
334.67
347.042
347.027
334.796
355.082
335.07
348.212
341.166
329.796
346.464
328.93
339.436
339.308
328.884
346.28
329.376
340.293
333.832
324.176
338.193
323.29
332.217
332.089
323.235
338.014
323.727
332.823
326.833
318.61
330.364
317.766
325.37
325.258
317.709
330.149
318.124
325.768
320.099
313.178
323.05
312.405
318.804
318.684
312.289
322.762
312.707
319.115
313.706
307.908
316.16
307.13
312.436
312.325
306.977
315.803
307.424
312.742
307.552
302.677
309.543
301.92
306.323
306.237
301.764
309.139
302.209
306.646
301.572
297.462
303.172
296.814
300.483
300.417
296.65
302.735
297.038
300.74
295.753
292.316
297.066
291.781
294.792
294.718
291.552
296.548
291.932
295.027
290.109
287.248
291.174
286.772
289.19
289.103
286.475
290.572
286.89
289.468
284.611
282.19
285.379
281.722
283.661
283.597
281.449
284.782
281.865
283.967
279.153
277.102
279.68
276.675
278.225
278.185
276.438
279.114
276.851
278.567
273.747
272.042
274.133
271.683
272.884
272.833
271.402
273.519
271.819
273.222
268.421
266.986
268.646
266.645
267.543
267.486
266.332
267.986
266.752
267.873
263.1
261.864
263.139
261.517
262.18
262.147
261.248
262.523
261.673
262.545
257.757
256.699
257.667
256.37
256.841
256.824
256.126
257.075
256.541
257.205
252.406
251.505
252.225
251.191
251.484
251.455
250.905
251.58
251.322
251.829
247.012
246.238
246.747
245.922
246.062
246.027
245.606
246.068
246.048
246.432
241.558
240.886
241.222
240.576
240.601
240.577
240.272
240.557
240.715
240.972
236.056
235.46
235.651
235.153
235.088
235.077
234.861
234.996
235.285
235.427
230.485
229.942
230.01
229.627
229.481
229.478
229.334
229.356
229.765
229.829
224.811
224.322
224.297
224.007
223.793
223.796
223.709
223.646
224.151
224.15
219.041
218.6
218.505
218.29
218.021
218.031
217.989
217.854
218.42
218.356
213.183
212.766
212.603
212.445
212.133
212.153
212.151
211.964
212.582
212.477
207.221
206.818
206.6
206.485
206.136
206.162
206.186
205.962
206.616
206.478
201.129
200.747
200.492
200.409
200.023
200.047
200.084
199.83
200.505
200.339
194.908
194.535
194.245
194.182
193.77
193.803
193.86
193.597
194.292
194.113
188.565
188.197
187.882
187.838
187.412
187.457
187.526
187.254
187.943
187.734
182.084
181.73
181.407
181.373
180.927
180.971
181.033
180.751
181.427
181.194
175.461
175.112
174.775
174.737
174.273
174.321
174.384
174.114
174.792
174.561
168.691
168.342
168.002
167.966
167.499
167.558
167.611
167.342
167.995
167.749
161.779
161.424
161.08
161.041
160.57
160.633
160.666
160.403
161.036
160.79
154.717
154.344
153.988
153.931
153.449
153.519
153.545
153.303
153.917
153.665
147.439
147.081
146.74
146.664
146.169
146.243
146.251
146.022
146.598
146.33
139.984
139.625
139.289
139.188
138.682
138.761
138.751
138.55
139.119
138.876
132.339
131.974
131.645
131.52
131.01
131.104
131.084
130.912
131.448
131.193
124.486
124.131
123.82
123.662
123.139
123.243
123.204
123.055
123.555
123.29
116.448
116.051
115.732
115.552
115.038
115.152
115.071
114.932
115.413
115.176
108.108
107.711
107.421
107.234
106.734
106.86
106.737
106.602
107.037
106.793
99.5488
99.1706
98.9015
98.6581
98.1255
98.257
98.1255
98.041
98.4507
98.2002
90.7293
90.3382
90.0905
89.8301
89.3047
89.4464
89.2809
89.215
89.5873
89.3363
81.6368
81.2364
81.025
80.7513
80.2306
80.3771
80.1633
80.101
80.4353
80.1943
72.304
71.9018
71.6924
71.3458
70.8076
70.9791
70.7446
70.7191
71.0316
70.7901
62.6513
62.2519
62.0512
61.6576
61.1194
61.3046
61.0414
61.0595
61.3512
61.0961
52.6825
52.2611
52.0867
51.6663
51.1155
51.3043
51.021
51.0695
51.3353
51.0895
42.3347
41.9189
41.7853
41.3335
40.7942
41.0208
40.7154
40.7732
41.0056
40.7691
31.6515
31.2661
31.1627
30.6726
30.1577
30.4056
30.0777
30.1852
30.4037
30.1449
20.4136
20.0898
20.1058
19.6793
19.2334
19.5081
19.1728
19.2707
19.4005
19.0945
8.7079
9.14321
9.37404
9.12508
8.88524
9.20788
8.89309
8.85089
8.55415
7.59439
)
;
    }
    inlet
    {
        type            fixedFluxPressure;