/*--------------------------------*- C++ -*----------------------------------*\
  =========                 |
  \\      /  F ield         | OpenFOAM: The Open Source CFD Toolbox
   \\    /   O peration     | Website:  https://openfoam.org
    \\  /    A nd           | Version:  8
     \\/     M anipulation  |
\*---------------------------------------------------------------------------*/
FoamFile
{
    version     2.0;
    format      ascii;
    class       volVectorField;
    location    "100";
    object      U;
}
// * * * * * * * * * * * * * * * * * * * * * * * * * * * * * * * * * * * * * //

dimensions      [0 1 -1 0 0 0 0];

internalField   nonuniform List<vector> 
1200
(
(4.0045 -0.295133 0.00127108)
(4.02891 -0.228018 0.00308487)
(4.03213 -0.190432 0.00787098)
(4.02773 -0.164562 0.0109467)
(4.02224 -0.145659 0.0116872)
(4.01641 -0.131409 0.0113181)
(4.01035 -0.120198 0.0109953)
(4.00428 -0.111125 0.0102038)
(3.99829 -0.103674 0.00885078)
(3.9924 -0.0974397 0.00795055)
(3.98667 -0.0921797 0.00722566)
(3.98108 -0.0877385 0.00621552)
(3.9756 -0.0839642 0.00524927)
(3.97024 -0.0807489 0.00434467)
(3.965 -0.0780059 0.00357287)
(3.95986 -0.0756518 0.00305368)
(3.95483 -0.0736297 0.0026096)
(3.9499 -0.071897 0.00222955)
(3.94506 -0.0704108 0.00198886)
(3.94032 -0.0691296 0.00189227)
(3.93568 -0.0680223 0.00182334)
(3.93113 -0.0670704 0.00167174)
(3.92667 -0.0662495 0.00154172)
(3.92229 -0.0655342 0.00144516)
(3.91801 -0.064912 0.00125555)
(3.91382 -0.064372 0.000991297)
(3.90971 -0.0638989 0.00069747)
(3.90568 -0.0634808 0.000338684)
(3.90175 -0.0631101 -7.68946e-05)
(3.8979 -0.0627802 -0.00052496)
(3.89414 -0.0624864 -0.00103552)
(3.89046 -0.062224 -0.00161398)
(3.88687 -0.0619864 -0.00221522)
(3.88336 -0.0617689 -0.00282908)
(3.87994 -0.0615709 -0.00349835)
(3.8766 -0.0613904 -0.00424229)
(3.87334 -0.0612232 -0.0050201)
(3.87016 -0.0610682 -0.00581311)
(3.86706 -0.060924 -0.00663363)
(3.86404 -0.0607873 -0.00746197)
(3.86111 -0.060658 -0.00830082)
(3.85826 -0.0605354 -0.00914964)
(3.8555 -0.0604198 -0.010037)
(3.85283 -0.0603121 -0.0110013)
(3.85024 -0.0602063 -0.0119332)
(3.84774 -0.0601039 -0.0128452)
(3.84534 -0.0600046 -0.0137579)
(3.84304 -0.0599062 -0.0146781)
(3.84084 -0.0598162 -0.0156985)
(3.83874 -0.0597273 -0.0166457)
(3.83674 -0.0596369 -0.0175898)
(3.83486 -0.0595489 -0.0185192)
(3.83309 -0.0594615 -0.0194127)
(3.83143 -0.0593736 -0.0203747)
(3.82989 -0.0592838 -0.021347)
(3.82848 -0.0591942 -0.0223129)
(3.82719 -0.0591001 -0.0231701)
(3.82606 -0.0590059 -0.0240506)
(3.8251 -0.0589268 -0.024948)
(3.82485 -0.0590501 -0.0258477)
(4.00713 0.10396 0.000101527)
(4.00329 0.133732 0.000609032)
(4.00192 0.134479 0.00181352)
(4.00122 0.129812 0.00310396)
(4.00158 0.123589 0.00353831)
(4.00256 0.11687 0.00455062)
(4.00378 0.110499 0.00583793)
(4.0051 0.104724 0.00665375)
(4.00644 0.0995855 0.00732262)
(4.00777 0.0951167 0.00819691)
(4.00909 0.0912279 0.00904059)
(4.01037 0.087828 0.00978112)
(4.01161 0.0848852 0.0105333)
(4.01281 0.0823345 0.0113262)
(4.01396 0.080121 0.0122661)
(4.01509 0.0782176 0.0132684)
(4.01618 0.0765779 0.01416)
(4.01724 0.0751571 0.015046)
(4.01827 0.0739172 0.0160533)
(4.01929 0.0728382 0.0171321)
(4.02029 0.0718951 0.0181653)
(4.02129 0.0710555 0.0191785)
(4.02227 0.0703065 0.0202678)
(4.02326 0.0696434 0.0213532)
(4.02426 0.0690465 0.0223732)
(4.02526 0.0685001 0.0234084)
(4.02627 0.0680014 0.0244596)
(4.0273 0.0675455 0.0254639)
(4.02835 0.0671247 0.02644)
(4.02942 0.0667338 0.0274184)
(4.03051 0.0663676 0.0283894)
(4.03163 0.066022 0.0293607)
(4.03277 0.0656975 0.0303442)
(4.03394 0.0653931 0.0313352)
(4.03515 0.0651023 0.0323327)
(4.03639 0.0648233 0.0333255)
(4.03766 0.0645576 0.0343206)
(4.03896 0.0643017 0.0353542)
(4.04031 0.0640549 0.0364194)
(4.04169 0.063819 0.0375019)
(4.04313 0.06359 0.0386221)
(4.04461 0.0633672 0.039785)
(4.04614 0.0631487 0.0409811)
(4.04772 0.0629314 0.0422013)
(4.04937 0.0627221 0.0434685)
(4.05108 0.0625171 0.0448088)
(4.05286 0.0623152 0.0462171)
(4.05472 0.0621179 0.0476517)
(4.05665 0.0619144 0.0491545)
(4.05867 0.0617146 0.0507968)
(4.06079 0.0615173 0.0524699)
(4.06299 0.0613171 0.0542649)
(4.0653 0.0611165 0.0561959)
(4.06771 0.0609099 0.0581472)
(4.07023 0.0606979 0.060163)
(4.07285 0.0604786 0.0623204)
(4.07559 0.0602522 0.064658)
(4.07845 0.060002 0.0670361)
(4.08137 0.0596882 0.0694933)
(4.08532 0.0590473 0.0719597)
(3.98983 -0.0196888 0.0010971)
(3.98191 -0.0406787 0.001673)
(3.98286 -0.0575488 0.0014112)
(3.98649 -0.0669726 0.00126276)
(3.99028 -0.0718138 0.00111474)
(3.99393 -0.0742722 0.00155723)
(3.99735 -0.0753687 0.00180347)
(4.00049 -0.075666 0.00194342)
(4.00338 -0.0754807 0.00212156)
(4.00605 -0.07504 0.00216586)
(4.00851 -0.0744843 0.0022264)
(4.01081 -0.0738699 0.00235959)
(4.01296 -0.0732251 0.0024038)
(4.01497 -0.0725795 0.00248194)
(4.01687 -0.0719418 0.00272202)
(4.01868 -0.0713158 0.00291314)
(4.0204 -0.0707167 0.002934)
(4.02204 -0.0701426 0.00292101)
(4.02361 -0.0695735 0.0029488)
(4.02514 -0.0690072 0.00292162)
(4.02663 -0.0684512 0.00276574)
(4.02808 -0.0679117 0.00261284)
(4.02951 -0.0673822 0.00252894)
(4.03092 -0.066857 0.00236482)
(4.03233 -0.0663422 0.00212837)
(4.03372 -0.0658395 0.00195382)
(4.03512 -0.0653435 0.00179857)
(4.03653 -0.0648536 0.00158458)
(4.03795 -0.0643716 0.00134715)
(4.03938 -0.0638953 0.00111127)
(4.04084 -0.0634242 0.000870396)
(4.04231 -0.0629596 0.000639817)
(4.04382 -0.0624989 0.000405728)
(4.04535 -0.0620399 0.000149259)
(4.0469 -0.0615841 -0.000102808)
(4.04849 -0.0611305 -0.000364209)
(4.05012 -0.0606762 -0.000651018)
(4.05177 -0.0602212 -0.000911265)
(4.05347 -0.0597625 -0.00116561)
(4.0552 -0.0592976 -0.00145462)
(4.05697 -0.0588284 -0.00173305)
(4.05879 -0.0583517 -0.00201065)
(4.06065 -0.0578665 -0.00229454)
(4.06256 -0.0573749 -0.00257354)
(4.06452 -0.0568722 -0.00288362)
(4.06654 -0.0563582 -0.0031769)
(4.06861 -0.0558316 -0.00346552)
(4.07075 -0.0552926 -0.00380892)
(4.07295 -0.054742 -0.00410745)
(4.07522 -0.0541723 -0.00438108)
(4.07756 -0.0535936 -0.00471153)
(4.07998 -0.0530001 -0.0050131)
(4.08248 -0.0523882 -0.00531509)
(4.08506 -0.0517734 -0.00565457)
(4.08772 -0.0511526 -0.00600782)
(4.09048 -0.0505211 -0.00634573)
(4.09333 -0.0498857 -0.00665324)
(4.09629 -0.0492721 -0.00699324)
(4.09925 -0.0487242 -0.00734059)
(4.10315 -0.0483656 -0.00760378)
(3.99818 -0.00162452 0.000406411)
(3.99618 0.00889963 -0.000191911)
(3.99915 0.0201169 -0.000826234)
(4.00299 0.0300812 -0.00116821)
(4.00595 0.0383887 -0.000451083)
(4.00832 0.0450643 -0.000217039)
(4.01035 0.0503681 7.95598e-05)
(4.01218 0.0546599 0.000775992)
(4.01386 0.0581841 0.0012638)
(4.01543 0.0610578 0.00187371)
(4.01693 0.0634148 0.00268254)
(4.0184 0.0653593 0.00340074)
(4.01982 0.0669477 0.00392466)
(4.0212 0.0682444 0.0044123)
(4.02256 0.0693036 0.00492391)
(4.02389 0.0701459 0.0053476)
(4.02521 0.0707874 0.00572972)
(4.0265 0.0712677 0.00613066)
(4.02779 0.0716231 0.00648013)
(4.02907 0.0718647 0.00672119)
(4.03034 0.0720004 0.00687401)
(4.03161 0.0720503 0.00707794)
(4.03288 0.0720331 0.00734378)
(4.03417 0.0719569 0.00751816)
(4.03546 0.0718288 0.00765424)
(4.03677 0.0716614 0.0078819)
(4.0381 0.0714638 0.0081312)
(4.03945 0.0712381 0.00834272)
(4.04082 0.0709884 0.00857054)
(4.04222 0.0707219 0.00881956)
(4.04365 0.0704425 0.00907731)
(4.0451 0.0701508 0.00937419)
(4.04659 0.0698493 0.0096935)
(4.04812 0.0695406 0.01001)
(4.04967 0.0692264 0.0103574)
(4.05127 0.0689081 0.0107201)
(4.0529 0.068587 0.0110803)
(4.05457 0.0682653 0.0114918)
(4.05628 0.067946 0.0119129)
(4.05803 0.0676288 0.0123059)
(4.05983 0.067313 0.0127358)
(4.06168 0.0670026 0.0131626)
(4.06357 0.0666977 0.0135779)
(4.06552 0.066396 0.0140218)
(4.06753 0.0660981 0.0144463)
(4.06959 0.0658052 0.0149028)
(4.07172 0.0655184 0.0153712)
(4.07391 0.0652359 0.0158061)
(4.07618 0.0649626 0.0162767)
(4.07851 0.0646997 0.0167248)
(4.08093 0.0644343 0.0171853)
(4.08343 0.0641766 0.0176433)
(4.086 0.0639266 0.0180496)
(4.08867 0.0636728 0.0185087)
(4.09143 0.0634207 0.0189778)
(4.09428 0.0631704 0.0194277)
(4.09722 0.0629185 0.0198936)
(4.10026 0.06265 0.0203782)
(4.10329 0.0623386 0.020799)
(4.10732 0.0619392 0.0213085)
(3.99795 -0.00102616 0.000618986)
(3.99511 -0.00121034 0.000315148)
(3.99588 -0.00451133 -0.000187923)
(3.99834 -0.0103095 -0.000696408)
(4.00082 -0.0171592 -0.000483124)
(4.00324 -0.0243274 -0.000793045)
(4.00568 -0.0311945 -0.000576324)
(4.00808 -0.0374336 -7.4313e-05)
(4.01038 -0.0429721 0.000144867)
(4.01255 -0.0477625 0.000526122)
(4.01463 -0.0518253 0.000965475)
(4.0166 -0.0552521 0.00125305)
(4.01847 -0.0581277 0.00146686)
(4.02026 -0.0604968 0.00159079)
(4.02196 -0.0624193 0.00156909)
(4.02359 -0.0639722 0.00146644)
(4.02515 -0.0652149 0.00146037)
(4.02666 -0.066184 0.00150698)
(4.02814 -0.0669133 0.0014303)
(4.02957 -0.0674478 0.00126206)
(4.03098 -0.0678226 0.00109556)
(4.03236 -0.0680536 0.000996999)
(4.03374 -0.0681602 0.000933045)
(4.03511 -0.06817 0.000803122)
(4.03647 -0.0680991 0.000672369)
(4.03784 -0.0679528 0.000612681)
(4.03922 -0.0677433 0.000545151)
(4.04061 -0.0674873 0.000456816)
(4.04202 -0.067193 0.000405842)
(4.04345 -0.0668632 0.000359787)
(4.0449 -0.0665034 0.000297302)
(4.04638 -0.0661209 0.000265604)
(4.04788 -0.0657205 0.000253872)
(4.04942 -0.0653052 0.000231795)
(4.05099 -0.0648768 0.000228655)
(4.05259 -0.0644385 0.000236535)
(4.05423 -0.0639934 0.000251836)
(4.05591 -0.0635402 0.000313975)
(4.05762 -0.0630781 0.000363368)
(4.05938 -0.0626112 0.000387296)
(4.06118 -0.0621392 0.00045392)
(4.06303 -0.0616601 0.000492546)
(4.06492 -0.061175 0.000501589)
(4.06687 -0.0606846 0.000541666)
(4.06887 -0.06019 0.000572493)
(4.07092 -0.0596902 0.000639354)
(4.07304 -0.0591834 0.000709048)
(4.07522 -0.0586716 0.000758154)
(4.07748 -0.058151 0.000805727)
(4.0798 -0.0576216 0.000787924)
(4.08219 -0.0570904 0.000847523)
(4.08466 -0.0565523 0.000879319)
(4.08721 -0.0560093 0.000843535)
(4.08985 -0.055463 0.000895502)
(4.09257 -0.0549139 0.000951786)
(4.09538 -0.054369 0.00101879)
(4.09828 -0.0538268 0.00109138)
(4.10126 -0.0533011 0.00118271)
(4.10423 -0.0528177 0.00123472)
(4.10802 -0.052386 0.00122557)
(3.99796 0.00104525 0.000648148)
(3.99511 0.00124389 0.000306247)
(3.99588 0.00451304 -3.1303e-05)
(3.99836 0.0102846 -0.000321187)
(4.00082 0.0172314 -0.000743049)
(4.00324 0.0243851 -0.000610852)
(4.00569 0.0313074 -0.000378722)
(4.0081 0.0376706 -0.00019813)
(4.0104 0.0432987 0.00013139)
(4.01259 0.048229 0.000371607)
(4.01467 0.0524967 0.000360748)
(4.01664 0.0561316 0.000364451)
(4.01851 0.0592016 0.000545108)
(4.02029 0.0617839 0.000635714)
(4.02199 0.0639305 0.000559532)
(4.02361 0.0656974 0.000457383)
(4.02517 0.067146 0.000467137)
(4.02668 0.0683186 0.000502843)
(4.02815 0.0692464 0.000399063)
(4.02958 0.0699601 0.000261487)
(4.03098 0.0704943 0.000195239)
(4.03236 0.0708844 0.000177145)
(4.03373 0.0711512 0.000170881)
(4.0351 0.0713059 0.000162457)
(4.03646 0.0713691 0.00020543)
(4.03783 0.0713628 0.000295617)
(4.0392 0.0712959 0.000372601)
(4.04059 0.0711726 0.000487173)
(4.042 0.0710042 0.000686947)
(4.04342 0.0708022 0.000896632)
(4.04488 0.0705719 0.00108996)
(4.04635 0.0703172 0.00132511)
(4.04786 0.0700419 0.00159429)
(4.04939 0.0697494 0.00186269)
(4.05096 0.0694439 0.00214965)
(4.05257 0.0691274 0.00245737)
(4.05421 0.0688011 0.00279821)
(4.05588 0.068471 0.00318168)
(4.0576 0.0681386 0.00354028)
(4.05936 0.0678021 0.00389321)
(4.06117 0.0674656 0.00429253)
(4.06302 0.0671294 0.00465623)
(4.06492 0.0667932 0.00499818)
(4.06688 0.0664598 0.00536883)
(4.06888 0.0661285 0.00573811)
(4.07095 0.0657998 0.0061477)
(4.07308 0.0654758 0.00654189)
(4.07527 0.0651554 0.00691302)
(4.07753 0.0648354 0.00727739)
(4.07987 0.0645167 0.00756797)
(4.08228 0.0642046 0.00794114)
(4.08477 0.0638955 0.00828175)
(4.08733 0.063587 0.00856343)
(4.08999 0.0632845 0.0088976)
(4.09273 0.0629837 0.0092305)
(4.09556 0.0626824 0.00959795)
(4.09848 0.0623821 0.00992591)
(4.10148 0.0620772 0.010283)
(4.10447 0.061766 0.0106151)
(4.10842 0.0614529 0.0108316)
(3.99818 0.00165687 0.000102689)
(3.99615 -0.00879123 -0.000602721)
(3.99911 -0.0200164 -0.000643343)
(4.00299 -0.0299844 -0.000347468)
(4.00597 -0.0383199 -0.00023312)
(4.00833 -0.0449115 0.000533115)
(4.0104 -0.0501442 0.000806468)
(4.01224 -0.0543686 0.000718102)
(4.01393 -0.057783 0.000883706)
(4.01553 -0.0605484 0.00086872)
(4.01706 -0.0627888 0.00053409)
(4.01853 -0.0645789 0.000193598)
(4.01996 -0.0659824 -6.75321e-05)
(4.02136 -0.0670783 -0.000463786)
(4.02272 -0.0679345 -0.000906637)
(4.02406 -0.0685789 -0.00133094)
(4.02538 -0.0690315 -0.00173465)
(4.02668 -0.0693324 -0.00212732)
(4.02796 -0.0695203 -0.00255964)
(4.02923 -0.069613 -0.00293188)
(4.0305 -0.0696193 -0.00321402)
(4.03178 -0.0695509 -0.00349278)
(4.03306 -0.0694225 -0.00378422)
(4.03434 -0.0692486 -0.00404607)
(4.03564 -0.0690341 -0.00426077)
(4.03696 -0.0687813 -0.00449242)
(4.03829 -0.0684999 -0.004766)
(4.03965 -0.0681984 -0.00498301)
(4.04103 -0.067878 -0.0051212)
(4.04243 -0.0675414 -0.00528163)
(4.04387 -0.0671941 -0.00547881)
(4.04533 -0.0668342 -0.00564941)
(4.04682 -0.0664628 -0.00579923)
(4.04835 -0.0660844 -0.00595572)
(4.04991 -0.0656999 -0.00610934)
(4.05151 -0.0653116 -0.00624862)
(4.05315 -0.064922 -0.00634824)
(4.05483 -0.0645277 -0.00643209)
(4.05654 -0.0641318 -0.00655845)
(4.0583 -0.0637371 -0.00667897)
(4.06011 -0.0633395 -0.00677232)
(4.06196 -0.0629425 -0.00690318)
(4.06387 -0.062547 -0.0070423)
(4.06582 -0.062149 -0.00717369)
(4.06783 -0.0617513 -0.00730986)
(4.0699 -0.0613518 -0.00741318)
(4.07203 -0.0609499 -0.00756039)
(4.07422 -0.0605471 -0.00774405)
(4.07648 -0.060149 -0.00789539)
(4.07882 -0.0597552 -0.00808829)
(4.08122 -0.0593526 -0.00825391)
(4.08371 -0.05895 -0.00844787)
(4.08628 -0.058551 -0.00866453)
(4.08893 -0.0581481 -0.00885864)
(4.09166 -0.057744 -0.00905656)
(4.09449 -0.0573417 -0.00923451)
(4.0974 -0.0569459 -0.00945741)
(4.10039 -0.0565495 -0.00965015)
(4.10336 -0.0561487 -0.00988777)
(4.10712 -0.0557143 -0.0102894)
(3.98985 0.0196798 0.000704143)
(3.9819 0.0406627 -0.00016497)
(3.98283 0.0575723 -0.00054659)
(3.98646 0.0670565 -0.000369582)
(3.99028 0.0718697 -0.000110649)
(3.99396 0.0744309 -0.000186324)
(3.9974 0.075615 -0.000478174)
(4.00056 0.0759518 -0.000888454)
(4.00347 0.0758614 -0.00143947)
(4.00616 0.0755414 -0.00205808)
(4.00865 0.0750912 -0.00274049)
(4.01097 0.0746003 -0.00356752)
(4.01314 0.0741133 -0.00457565)
(4.01516 0.073624 -0.00567257)
(4.01706 0.0731357 -0.00658831)
(4.01886 0.0726663 -0.00740509)
(4.02057 0.0722217 -0.00823512)
(4.0222 0.0717971 -0.00899173)
(4.02377 0.0713829 -0.00961194)
(4.02528 0.070984 -0.0100509)
(4.02676 0.0706043 -0.0103635)
(4.02821 0.0702359 -0.0106336)
(4.02963 0.0698775 -0.0108622)
(4.03104 0.0695292 -0.0110044)
(4.03245 0.0691898 -0.0110709)
(4.03385 0.0688589 -0.0111527)
(4.03526 0.0685341 -0.0112527)
(4.03667 0.0682165 -0.0112711)
(4.0381 0.0679084 -0.0112231)
(4.03954 0.0676058 -0.0112045)
(4.04101 0.0673054 -0.0112117)
(4.04249 0.067007 -0.0112037)
(4.04401 0.0667097 -0.0111962)
(4.04555 0.0664122 -0.0111995)
(4.04712 0.0661168 -0.0112162)
(4.04873 0.0658236 -0.0112321)
(4.05037 0.0655315 -0.0112127)
(4.05205 0.0652439 -0.0112119)
(4.05376 0.0649566 -0.0112648)
(4.05552 0.0646688 -0.0113054)
(4.05732 0.0643858 -0.0113526)
(4.05917 0.0641024 -0.0114327)
(4.06107 0.0638198 -0.0115154)
(4.06301 0.0635396 -0.0116163)
(4.06502 0.063258 -0.0117172)
(4.06708 0.0629808 -0.0118112)
(4.0692 0.0627036 -0.0119712)
(4.07139 0.0624252 -0.0121748)
(4.07364 0.0621462 -0.012317)
(4.07596 0.0618637 -0.012459)
(4.07837 0.0615865 -0.0126447)
(4.08085 0.0613084 -0.012851)
(4.08341 0.0610283 -0.0130371)
(4.08606 0.060752 -0.0132293)
(4.08879 0.0604785 -0.0134632)
(4.09161 0.0602035 -0.0136788)
(4.09452 0.0599242 -0.0138892)
(4.09752 0.0596574 -0.014133)
(4.10052 0.0594203 -0.0144181)
(4.10432 0.059328 -0.0148306)
(4.00713 -0.103936 -0.000197587)
(4.00328 -0.133832 0.000242226)
(4.00192 -0.134427 0.000805588)
(4.00122 -0.129665 0.00155429)
(4.00161 -0.123439 0.00205217)
(4.00264 -0.116717 0.0017702)
(4.00387 -0.110278 0.00145266)
(4.0052 -0.104492 0.00148461)
(4.00657 -0.0993842 0.00135506)
(4.00794 -0.0948854 0.00103542)
(4.00928 -0.0909722 0.000867949)
(4.01059 -0.0875856 0.00069434)
(4.01184 -0.0846518 0.000346749)
(4.01304 -0.0821132 -6.20389e-06)
(4.0142 -0.079905 -0.000171625)
(4.01532 -0.0779774 -0.00032264)
(4.0164 -0.0762982 -0.00054589)
(4.01745 -0.074825 -0.000783081)
(4.01846 -0.073529 -0.000945425)
(4.01946 -0.0723788 -0.00104561)
(4.02045 -0.0713525 -0.00115748)
(4.02143 -0.0704425 -0.001272)
(4.0224 -0.0696288 -0.00139676)
(4.02337 -0.0688939 -0.00150672)
(4.02436 -0.0682308 -0.00157971)
(4.02535 -0.0676316 -0.00168386)
(4.02635 -0.0670874 -0.00181)
(4.02737 -0.0665862 -0.00188743)
(4.02841 -0.0661196 -0.00194996)
(4.02947 -0.065689 -0.00203897)
(4.03056 -0.0652925 -0.00212191)
(4.03167 -0.06492 -0.00220161)
(4.03281 -0.0645674 -0.0022967)
(4.03398 -0.0642345 -0.0023876)
(4.03518 -0.0639157 -0.00249793)
(4.03641 -0.063609 -0.00261383)
(4.03768 -0.0633134 -0.0026905)
(4.03899 -0.0630243 -0.00280661)
(4.04033 -0.0627461 -0.00295424)
(4.04171 -0.062477 -0.00306556)
(4.04314 -0.0622096 -0.00321073)
(4.04461 -0.0619488 -0.00336375)
(4.04612 -0.0616911 -0.00351571)
(4.04768 -0.0614367 -0.00368676)
(4.04929 -0.0611888 -0.00382108)
(4.05097 -0.0609367 -0.00399162)
(4.05269 -0.0606891 -0.00421264)
(4.05448 -0.0604457 -0.00445689)
(4.05633 -0.0601986 -0.00466567)
(4.05825 -0.0599551 -0.00484207)
(4.06025 -0.059712 -0.00508167)
(4.06231 -0.05947 -0.00533149)
(4.06446 -0.0592275 -0.00554902)
(4.06669 -0.0589833 -0.00579807)
(4.069 -0.0587403 -0.00610847)
(4.07139 -0.0584981 -0.00639564)
(4.07388 -0.0582572 -0.00665225)
(4.07645 -0.0580076 -0.0069914)
(4.07907 -0.0577216 -0.00736273)
(4.08248 -0.0571287 -0.00776243)
(4.00445 0.295195 0.000301761)
(4.0289 0.228013 0.00352667)
(4.03217 0.19057 0.00655919)
(4.02773 0.164815 0.00816222)
(4.02223 0.145968 0.00818972)
(4.01642 0.13173 0.00686206)
(4.01037 0.120566 0.00493489)
(4.00429 0.111516 0.00335267)
(3.99831 0.104022 0.0020076)
(3.99247 0.097763 0.000472715)
(3.98675 0.0924743 -0.000678236)
(3.98116 0.0879638 -0.00135416)
(3.9757 0.0841003 -0.00175754)
(3.97036 0.0807834 -0.00187894)
(3.96513 0.077937 -0.00176538)
(3.96 0.0754899 -0.00158964)
(3.95498 0.0733769 -0.00134398)
(3.95005 0.0715561 -0.00110441)
(3.94521 0.0699865 -0.000822056)
(3.94047 0.0686351 -0.000558194)
(3.93582 0.0674703 -0.000375155)
(3.93126 0.0664595 -0.000164601)
(3.92679 0.0655833 1.53531e-05)
(3.92241 0.0648242 0.000155703)
(3.91812 0.0641616 0.000332404)
(3.91393 0.06358 0.000501068)
(3.90981 0.0630674 0.000664988)
(3.90579 0.0626155 0.000852482)
(3.90186 0.0622158 0.00101285)
(3.89801 0.0618565 0.00116904)
(3.89424 0.0615294 0.00138211)
(3.89057 0.0612315 0.00159878)
(3.88698 0.0609578 0.00180211)
(3.88347 0.060702 0.00204198)
(3.88005 0.0604622 0.00226881)
(3.8767 0.0602351 0.00249979)
(3.87345 0.0600172 0.0027892)
(3.87028 0.0598082 0.00303227)
(3.86718 0.0596034 0.00329412)
(3.86418 0.0594012 0.00363921)
(3.86126 0.0592044 0.00393709)
(3.85842 0.059009 0.00426653)
(3.85567 0.058816 0.00460779)
(3.853 0.0586235 0.00495871)
(3.85043 0.0584289 0.00540871)
(3.84795 0.0582381 0.00578137)
(3.84556 0.0580452 0.00616123)
(3.84327 0.0578503 0.00657071)
(3.84108 0.0576588 0.00697776)
(3.83899 0.0574652 0.00746537)
(3.83701 0.0572699 0.0079337)
(3.83514 0.057074 0.00842226)
(3.83338 0.0568794 0.00894804)
(3.83174 0.0566845 0.00947173)
(3.83021 0.0564881 0.00999484)
(3.8288 0.0562935 0.0105492)
(3.82751 0.0561014 0.0111372)
(3.82635 0.0559138 0.0116823)
(3.82534 0.0557475 0.0121891)
(3.82493 0.0558068 0.0126094)
(4.00453 -0.295091 -0.000778804)
(4.02908 -0.22811 0.000458785)
(4.03228 -0.191025 0.00511825)
(4.02767 -0.165475 0.00829265)
(4.02205 -0.146708 0.00923107)
(4.01619 -0.132406 0.00908504)
(4.01015 -0.121135 0.00898128)
(4.00407 -0.112005 0.0083928)
(3.99811 -0.104446 0.00722242)
(3.99228 -0.0981402 0.00648599)
(3.98657 -0.0928351 0.00590772)
(3.98098 -0.088326 0.00502808)
(3.97553 -0.0844881 0.00417807)
(3.97019 -0.0812129 0.00337729)
(3.96497 -0.0784123 0.00269865)
(3.95986 -0.0760286 0.00226346)
(3.95484 -0.0740017 0.00189534)
(3.94992 -0.072274 0.00158405)
(3.94509 -0.0707985 0.00140569)
(3.94036 -0.0695413 0.00136565)
(3.93571 -0.0684705 0.00134797)
(3.93116 -0.0675503 0.00124268)
(3.92669 -0.0667584 0.00115442)
(3.92231 -0.0660808 0.00109544)
(3.91802 -0.0654957 0.000939567)
(3.91382 -0.064985 0.000705478)
(3.90971 -0.064539 0.00043857)
(3.90568 -0.064149 0.000103763)
(3.90175 -0.0638051 -0.000290304)
(3.8979 -0.0634992 -0.000718889)
(3.89413 -0.063224 -0.00121182)
(3.89046 -0.0629732 -0.00177433)
(3.88687 -0.0627446 -0.00236116)
(3.88336 -0.0625356 -0.00296199)
(3.87994 -0.0623407 -0.00361945)
(3.8766 -0.0621568 -0.00435264)
(3.87334 -0.0619842 -0.00512063)
(3.87017 -0.0618201 -0.00590466)
(3.86708 -0.0616633 -0.00671693)
(3.86407 -0.061515 -0.00753767)
(3.86114 -0.0613729 -0.00836949)
(3.8583 -0.0612364 -0.00921178)
(3.85555 -0.0611041 -0.010093)
(3.85288 -0.0609739 -0.0110515)
(3.85031 -0.060851 -0.011978)
(3.84783 -0.0607328 -0.0128849)
(3.84544 -0.0606183 -0.0137927)
(3.84315 -0.0605099 -0.0147082)
(3.84096 -0.0603992 -0.015724)
(3.83888 -0.0602932 -0.0166669)
(3.8369 -0.0601943 -0.0176066)
(3.83504 -0.0600975 -0.018532)
(3.83329 -0.0600032 -0.0194214)
(3.83165 -0.0599119 -0.0203793)
(3.83013 -0.0598233 -0.0213475)
(3.82874 -0.0597331 -0.0223094)
(3.82748 -0.0596456 -0.0231627)
(3.82638 -0.059566 -0.0240391)
(3.82543 -0.059505 -0.0249318)
(3.82529 -0.0596642 -0.0258357)
(4.00711 0.104006 0.00201186)
(4.00327 0.13361 0.00347614)
(4.0019 0.133872 0.00510121)
(4.00113 0.128991 0.00652633)
(4.00147 0.122852 0.00695203)
(4.00248 0.11634 0.00787484)
(4.00368 0.110094 0.0090249)
(4.00497 0.104475 0.00968104)
(4.00632 0.0995369 0.0101809)
(4.00767 0.0951806 0.0108817)
(4.00899 0.0913801 0.0115523)
(4.01027 0.088101 0.0121235)
(4.01151 0.0852517 0.0127112)
(4.01272 0.082782 0.0133451)
(4.01388 0.0806435 0.014131)
(4.015 0.0787735 0.0149844)
(4.01608 0.0771371 0.0157331)
(4.01714 0.0757088 0.0164822)
(4.01817 0.0744559 0.0173583)
(4.01919 0.0733445 0.0183109)
(4.02019 0.0723574 0.0192232)
(4.02118 0.071489 0.0201205)
(4.02217 0.0707203 0.0210983)
(4.02315 0.0700285 0.0220765)
(4.02415 0.0694095 0.0229935)
(4.02515 0.0688586 0.0239292)
(4.02616 0.0683614 0.0248841)
(4.02719 0.0679077 0.0257951)
(4.02824 0.0674923 0.0266805)
(4.02931 0.0671097 0.0275704)
(4.0304 0.0667563 0.0284547)
(4.03152 0.0664294 0.0293404)
(4.03267 0.0661225 0.0302393)
(4.03384 0.0658316 0.0311461)
(4.03504 0.0655579 0.0320593)
(4.03628 0.0652991 0.0329674)
(4.03755 0.0650505 0.0338769)
(4.03885 0.0648125 0.0348236)
(4.04019 0.0645828 0.0358)
(4.04156 0.0643574 0.0367917)
(4.04299 0.0641381 0.0378186)
(4.04445 0.0639231 0.0388851)
(4.04596 0.0637128 0.0399815)
(4.04753 0.0635086 0.0410979)
(4.04915 0.0633026 0.0422572)
(4.05084 0.0630985 0.0434852)
(4.05258 0.0628965 0.0447763)
(4.0544 0.0626932 0.046089)
(4.0563 0.0624976 0.0474642)
(4.05827 0.0622984 0.0489732)
(4.06034 0.0620947 0.0505078)
(4.06249 0.06189 0.0521589)
(4.06474 0.0616812 0.0539407)
(4.06709 0.0614711 0.0557381)
(4.06955 0.0612566 0.0575965)
(4.07212 0.0610372 0.0595933)
(4.07481 0.0608055 0.0617687)
(4.07762 0.0605534 0.0639851)
(4.08051 0.0602433 0.0662829)
(4.08438 0.0596317 0.0686015)
(3.9898 -0.019749 0.00029257)
(3.98182 -0.0408786 0.000128741)
(3.98277 -0.0579208 -0.0006234)
(3.98641 -0.0674781 -0.00108437)
(3.99024 -0.0722381 -0.00141957)
(3.99391 -0.0747232 -0.00107587)
(3.99732 -0.0758559 -0.000866181)
(4.00046 -0.0760919 -0.000720667)
(4.00335 -0.0758614 -0.000507745)
(4.00601 -0.0753918 -0.000409734)
(4.00848 -0.0747862 -0.000283013)
(4.01078 -0.0741268 -7.52468e-05)
(4.01293 -0.0734659 4.79399e-05)
(4.01495 -0.072816 0.000207361)
(4.01686 -0.0721899 0.00053021)
(4.01865 -0.0715935 0.000804008)
(4.02036 -0.0710152 0.000905539)
(4.022 -0.0704589 0.000970482)
(4.02358 -0.0699341 0.00107289)
(4.02511 -0.0694357 0.00111677)
(4.02659 -0.0689549 0.00102747)
(4.02805 -0.0684827 0.000936817)
(4.02947 -0.068023 0.000911249)
(4.03088 -0.06758 0.000801001)
(4.03229 -0.0671452 0.000613735)
(4.03369 -0.0667134 0.000484246)
(4.03509 -0.0662878 0.00037013)
(4.0365 -0.0658677 0.000193054)
(4.03792 -0.0654501 -1.17281e-05)
(4.03936 -0.0650358 -0.000218775)
(4.04082 -0.0646235 -0.000433785)
(4.0423 -0.0642104 -0.000639916)
(4.04381 -0.063797 -0.000850855)
(4.04534 -0.0633839 -0.00108525)
(4.04691 -0.0629678 -0.00131605)
(4.0485 -0.0625476 -0.001557)
(4.05013 -0.0621235 -0.00182426)
(4.0518 -0.0616929 -0.00206589)
(4.0535 -0.0612568 -0.00230267)
(4.05524 -0.0608155 -0.00257539)
(4.05702 -0.0603651 -0.00283885)
(4.05884 -0.0599073 -0.00310296)
(4.06071 -0.0594407 -0.00337495)
(4.06263 -0.0589607 -0.00364359)
(4.0646 -0.0584709 -0.00394518)
(4.06663 -0.0579678 -0.00423194)
(4.06872 -0.0574513 -0.00451616)
(4.07087 -0.0569215 -0.00485753)
(4.07308 -0.0563747 -0.0051561)
(4.07536 -0.0558193 -0.00543228)
(4.07772 -0.0552467 -0.00576802)
(4.08015 -0.0546638 -0.00607768)
(4.08267 -0.054074 -0.006391)
(4.08527 -0.0534647 -0.0067448)
(4.08795 -0.052843 -0.00711519)
(4.09073 -0.0522171 -0.00747327)
(4.0936 -0.0515939 -0.00780431)
(4.09658 -0.0509814 -0.00817087)
(4.09958 -0.0504378 -0.00854732)
(4.10352 -0.0500598 -0.00884053)
(3.99815 -0.00163191 0.000518102)
(3.9961 0.00883979 0.000163461)
(3.99909 0.0200651 -0.000191301)
(4.003 0.0300199 -0.000292357)
(4.00599 0.0383857 0.00060919)
(4.00833 0.0449964 0.000973627)
(4.01038 0.0503189 0.00135557)
(4.01221 0.0546631 0.00210033)
(4.01388 0.0581976 0.00260838)
(4.01546 0.0611077 0.00321692)
(4.01697 0.0634966 0.00400759)
(4.01841 0.0654436 0.00469544)
(4.01982 0.0670354 0.00518063)
(4.0212 0.0683211 0.00562378)
(4.02256 0.069337 0.00608696)
(4.02388 0.0701383 0.00645999)
(4.02519 0.070773 0.00679026)
(4.02649 0.0712572 0.00713885)
(4.02777 0.0715997 0.00743623)
(4.02904 0.0718285 0.00762615)
(4.03031 0.0719702 0.00772927)
(4.03158 0.0720354 0.00788498)
(4.03285 0.0720309 0.00810407)
(4.03414 0.0719712 0.00823352)
(4.03543 0.0718692 0.00832663)
(4.03675 0.0717293 0.0085131)
(4.03807 0.0715563 0.00872295)
(4.03942 0.0713602 0.00889686)
(4.04079 0.0711465 0.00908886)
(4.04219 0.0709155 0.00930381)
(4.04362 0.0706693 0.00952921)
(4.04508 0.0704118 0.00979538)
(4.04657 0.0701456 0.0100856)
(4.04809 0.0698717 0.0103746)
(4.04964 0.0695919 0.0106959)
(4.05123 0.069308 0.0110341)
(4.05286 0.0690225 0.0113712)
(4.05453 0.0687358 0.0117611)
(4.05624 0.0684465 0.012162)
(4.05798 0.0681577 0.0125362)
(4.05978 0.0678712 0.0129488)
(4.06162 0.067584 0.0133598)
(4.06351 0.0672975 0.0137607)
(4.06545 0.0670149 0.0141917)
(4.06744 0.0667362 0.0146047)
(4.0695 0.0664622 0.0150513)
(4.07161 0.0661915 0.0155112)
(4.07379 0.0659266 0.015939)
(4.07604 0.0656629 0.0164042)
(4.07835 0.0653979 0.0168484)
(4.08075 0.0651444 0.0173066)
(4.08322 0.0648903 0.0177638)
(4.08577 0.0646355 0.0181711)
(4.08842 0.06439 0.0186326)
(4.09115 0.064146 0.0191057)
(4.09397 0.0639016 0.0195611)
(4.09688 0.0636513 0.0200342)
(4.09989 0.0633888 0.0205275)
(4.10289 0.0630785 0.0209591)
(4.10683 0.0626615 0.0214804)
(3.99791 -0.00100768 0.000618226)
(3.99502 -0.00118499 0.000259449)
(3.99579 -0.00447884 -0.000319657)
(3.99829 -0.0102967 -0.000906709)
(4.00078 -0.0172916 -0.000764283)
(4.00321 -0.024474 -0.00113055)
(4.00569 -0.031346 -0.000955196)
(4.00809 -0.0376406 -0.000481875)
(4.01038 -0.0431901 -0.000280951)
(4.01256 -0.0480148 9.06568e-05)
(4.01463 -0.0521634 0.000527163)
(4.01659 -0.0556611 0.000816859)
(4.01845 -0.0585615 0.00103641)
(4.02023 -0.060963 0.00116858)
(4.02192 -0.062944 0.00115655)
(4.02355 -0.0645499 0.00106437)
(4.02512 -0.0658273 0.00106936)
(4.02663 -0.0668311 0.00112739)
(4.0281 -0.0676078 0.00106201)
(4.02953 -0.0681822 0.0009047)
(4.03094 -0.0685784 0.000748755)
(4.03233 -0.0688321 0.000660358)
(4.0337 -0.0689687 0.000606122)
(4.03507 -0.0689985 0.000485406)
(4.03644 -0.0689371 0.000363379)
(4.03781 -0.0688063 0.000311965)
(4.03919 -0.0686172 0.00025222)
(4.04059 -0.0683727 0.000171201)
(4.042 -0.0680814 0.000127157)
(4.04343 -0.0677559 8.76476e-05)
(4.04488 -0.0674038 3.1295e-05)
(4.04636 -0.0670286 5.35559e-06)
(4.04787 -0.0666338 -9.46938e-07)
(4.04941 -0.0662236 -1.79212e-05)
(4.05098 -0.0658016 -1.62551e-05)
(4.05258 -0.0653688 -3.83477e-06)
(4.05422 -0.0649243 1.57904e-05)
(4.0559 -0.064472 8.20875e-05)
(4.05761 -0.064015 0.000135434)
(4.05937 -0.06355 0.000163116)
(4.06117 -0.0630783 0.000233349)
(4.06301 -0.0626036 0.000275385)
(4.06491 -0.0621243 0.000287605)
(4.06685 -0.0616398 0.000330671)
(4.06885 -0.0611488 0.000364327)
(4.07091 -0.0606514 0.000433891)
(4.07303 -0.0601507 0.00050615)
(4.07521 -0.0596436 0.000557699)
(4.07746 -0.0591336 0.000607509)
(4.07977 -0.0586222 0.000591627)
(4.08217 -0.0581004 0.000653039)
(4.08463 -0.0575761 0.000686443)
(4.08718 -0.0570491 0.000651996)
(4.08982 -0.056519 0.000705163)
(4.09254 -0.0559881 0.000762494)
(4.09534 -0.055455 0.000830474)
(4.09824 -0.0549319 0.000903913)
(4.10122 -0.0544243 0.000995948)
(4.10417 -0.0539544 0.0010488)
(4.10796 -0.0535635 0.00103919)
(3.99791 0.000998475 0.000647427)
(3.99502 0.00118053 0.000250556)
(3.9958 0.00452973 -0.000163278)
(3.99828 0.0104065 -0.000532147)
(4.00078 0.0173486 -0.00102499)
(4.00322 0.024623 -0.000949615)
(4.00568 0.0315369 -0.000759296)
(4.00809 0.0378172 -0.000607498)
(4.01039 0.0434273 -0.000296434)
(4.01257 0.0483043 -6.63032e-05)
(4.01464 0.0524858 -8.10251e-05)
(4.01662 0.0560611 -7.65564e-05)
(4.01849 0.0590949 0.000108494)
(4.02026 0.0616412 0.000206006)
(4.02195 0.063769 0.000138282)
(4.02358 0.0655327 4.55607e-05)
(4.02515 0.0669722 6.5422e-05)
(4.02665 0.0681341 0.000111625)
(4.02811 0.0690648 1.83691e-05)
(4.02955 0.0698007 -0.00010882)
(4.03095 0.070367 -0.00016484)
(4.03234 0.0707808 -0.000172914)
(4.03371 0.0710659 -0.00016942)
(4.03508 0.0712498 -0.000168366)
(4.03644 0.0713462 -0.000116172)
(4.03781 0.0713616 -1.70094e-05)
(4.03919 0.0713121 6.86892e-05)
(4.04058 0.0712145 0.000191756)
(4.04199 0.0710751 0.000399879)