/*--------------------------------*- C++ -*----------------------------------*\
  =========                 |
  \\      /  F ield         | OpenFOAM: The Open Source CFD Toolbox
   \\    /   O peration     | Website:  https://openfoam.org
    \\  /    A nd           | Version:  8
     \\/     M anipulation  |
\*---------------------------------------------------------------------------*/
FoamFile
{
    version     2.0;
    format      ascii;
    class       volVectorField;
    location    "800";
    object      U;
}
// * * * * * * * * * * * * * * * * * * * * * * * * * * * * * * * * * * * * * //

dimensions      [0 1 -1 0 0 0 0];

internalField   nonuniform List<vector> 
1200
(
(4.00458 -0.295021 0.00253821)
(4.0291 -0.228055 0.00305941)
(4.03227 -0.190849 0.00333748)
(4.02772 -0.165199 0.00342648)
(4.02211 -0.146324 0.00333742)
(4.01621 -0.131971 0.00324614)
(4.01009 -0.120651 0.00311425)
(4.0039 -0.111471 0.00285558)
(3.99775 -0.103892 0.00252598)
(3.99168 -0.0975576 0.00220939)
(3.98569 -0.0922178 0.00189039)
(3.97979 -0.0876889 0.00156477)
(3.97397 -0.0838305 0.00128729)
(3.96824 -0.0805327 0.00109147)
(3.9626 -0.0777073 0.000969947)
(3.95704 -0.0752825 0.0008941)
(3.95155 -0.0731986 0.000847022)
(3.94614 -0.0714053 0.000829454)
(3.9408 -0.0698602 0.000825025)
(3.93553 -0.0685281 0.000808534)
(3.93033 -0.0673781 0.00077922)
(3.9252 -0.0663838 0.000754034)
(3.92012 -0.0655227 0.000730634)
(3.91511 -0.0647757 0.000688527)
(3.91015 -0.0641262 0.000633542)
(3.90526 -0.0635598 0.000585947)
(3.90041 -0.0630643 0.000541875)
(3.89562 -0.0626293 0.000495581)
(3.89088 -0.0622459 0.000457567)
(3.8862 -0.0619062 0.000430656)
(3.88156 -0.0616039 0.000408566)
(3.87697 -0.0613334 0.000390891)
(3.87242 -0.0610899 0.000375959)
(3.86792 -0.0608694 0.000356929)
(3.86346 -0.0606685 0.000330856)
(3.85905 -0.0604842 0.000300513)
(3.85467 -0.060314 0.000271137)
(3.85034 -0.0601557 0.000241028)
(3.84604 -0.0600074 0.000198853)
(3.84178 -0.0598676 0.000142106)
(3.83756 -0.0597343 7.56287e-05)
(3.83338 -0.059606 -3.06925e-06)
(3.82922 -0.0594816 -9.36173e-05)
(3.8251 -0.0593602 -0.000185665)
(3.82102 -0.0592411 -0.000270871)
(3.81696 -0.0591237 -0.000353769)
(3.81294 -0.0590076 -0.000447436)
(3.80895 -0.0588926 -0.000554639)
(3.80499 -0.0587782 -0.000661339)
(3.80105 -0.0586642 -0.000758501)
(3.79714 -0.0585503 -0.000851208)
(3.79326 -0.0584362 -0.000941315)
(3.78941 -0.0583219 -0.00103218)
(3.78558 -0.0582074 -0.00112027)
(3.78178 -0.0580925 -0.00119359)
(3.77801 -0.0579773 -0.00125058)
(3.77426 -0.0578631 -0.00130616)
(3.77055 -0.0577547 -0.00137944)
(3.76698 -0.0576654 -0.00146323)
(3.76303 -0.057792 -0.00152428)
(4.00711 0.104077 -0.000728103)
(4.00323 0.133674 -0.00101348)
(4.00185 0.13405 -0.000816568)
(4.00115 0.129219 -0.000610228)
(4.00151 0.123062 -0.000522481)
(4.00248 0.116483 -0.000432623)
(4.00363 0.110198 -0.000355302)
(4.00482 0.104514 -0.000362352)
(4.00599 0.0994782 -0.000414064)
(4.00711 0.0950544 -0.000444909)
(4.00815 0.0911876 -0.000480566)
(4.00912 0.0878176 -0.000536657)
(4.01001 0.0848843 -0.000567692)
(4.01082 0.0823313 -0.00054021)
(4.01157 0.0801075 -0.000455452)
(4.01225 0.0781682 -0.000337013)
(4.01287 0.0764746 -0.000199691)
(4.01344 0.0749933 -4.14762e-05)
(4.01397 0.0736946 0.000125875)
(4.01445 0.0725526 0.000285336)
(4.01488 0.071546 0.000436245)
(4.01529 0.0706571 0.000591351)
(4.01566 0.0698699 0.000747793)
(4.01601 0.0691703 0.000887546)
(4.01632 0.0685466 0.00101503)
(4.01662 0.067989 0.00114608)
(4.01689 0.0674889 0.00127606)
(4.01714 0.0670383 0.00140063)
(4.01738 0.0666308 0.00152913)
(4.0176 0.066261 0.00166354)
(4.01781 0.0659236 0.00179957)
(4.01801 0.0656142 0.0019386)
(4.01819 0.0653291 0.0020795)
(4.01836 0.065065 0.00221633)
(4.01853 0.0648191 0.00234701)
(4.01869 0.064589 0.00247436)
(4.01884 0.0643725 0.00260364)
(4.01898 0.0641679 0.00273369)
(4.01912 0.0639735 0.00285416)
(4.01925 0.0637878 0.00296193)
(4.01938 0.0636079 0.0030606)
(4.01951 0.0634331 0.00314685)
(4.01963 0.063263 0.00322103)
(4.01975 0.063097 0.00329248)
(4.01987 0.0629346 0.00336812)
(4.01998 0.0627754 0.00344359)
(4.0201 0.0626189 0.00350632)
(4.02021 0.0624645 0.00355388)
(4.02032 0.062312 0.00359933)
(4.02043 0.0621613 0.00365037)
(4.02054 0.0620122 0.00370235)
(4.02064 0.0618645 0.00375252)
(4.02075 0.0617181 0.00379822)
(4.02086 0.0615727 0.003843)
(4.02096 0.0614281 0.00389684)
(4.02107 0.0612837 0.00396238)
(4.02118 0.0611367 0.00402737)
(4.02129 0.0609777 0.00407369)
(4.02144 0.0607778 0.00410479)
(4.02156 0.0602711 0.00413946)
(3.9898 -0.019704 0.000696084)
(3.98181 -0.0407311 0.00190282)
(3.98276 -0.0575946 0.00325377)
(3.98641 -0.0670287 0.00434154)
(3.99022 -0.0718274 0.0050568)
(3.99384 -0.0743248 0.00550906)
(3.99719 -0.0754927 0.00577354)
(4.00021 -0.0758495 0.0058649)
(4.00293 -0.0757506 0.00584674)
(4.00538 -0.075412 0.00579329)
(4.00758 -0.0749537 0.00569717)
(4.00957 -0.0744414 0.00555201)
(4.01137 -0.0739106 0.00540199)
(4.01301 -0.0733807 0.00528473)
(4.01451 -0.0728625 0.00520941)
(4.01588 -0.0723611 0.00516142)
(4.01714 -0.0718783 0.00512972)
(4.0183 -0.0714143 0.00511918)
(4.01938 -0.0709695 0.00512934)
(4.02038 -0.0705438 0.00515149)
(4.02132 -0.0701356 0.00518262)
(4.02221 -0.069743 0.0052279)
(4.02304 -0.0693646 0.00528272)
(4.02384 -0.0690001 0.00533237)
(4.02459 -0.0686485 0.0053797)
(4.02531 -0.0683082 0.00543376)
(4.02601 -0.0679782 0.00548807)
(4.02668 -0.0676581 0.00553962)
(4.02733 -0.067347 0.00559489)
(4.02796 -0.0670439 0.00565298)
(4.02857 -0.0667486 0.0057112)
(4.02918 -0.0664607 0.00577234)
(4.02977 -0.0661799 0.00583473)
(4.03035 -0.0659058 0.00589312)
(4.03093 -0.0656382 0.00594669)
(4.0315 -0.065377 0.00599845)
(4.03206 -0.0651217 0.00605345)
(4.03263 -0.0648721 0.00611086)
(4.03319 -0.0646282 0.00616219)
(4.03375 -0.0643901 0.0062062)
(4.03431 -0.0641553 0.00624547)
(4.03487 -0.063924 0.00627538)
(4.03542 -0.0636962 0.00629697)
(4.03598 -0.0634717 0.0063189)
(4.03655 -0.0632503 0.00634652)
(4.03711 -0.0630317 0.00637546)
(4.03768 -0.062816 0.00639393)
(4.03825 -0.0626032 0.00640088)
(4.03882 -0.0623933 0.00640884)
(4.03939 -0.0621858 0.00642333)
(4.03997 -0.0619808 0.0064395)
(4.04055 -0.0617778 0.00645304)
(4.04113 -0.061577 0.00646239)
(4.04172 -0.0613784 0.00647122)
(4.04231 -0.0611818 0.00648647)
(4.04291 -0.0609879 0.00651192)
(4.04351 -0.0608002 0.00653803)
(4.04411 -0.0606293 0.00654793)
(4.04469 -0.0605052 0.006543)
(4.04513 -0.0605695 0.00654013)
(3.99816 -0.00163715 0.000151355)
(3.99613 0.00888142 0.00030884)
(3.9991 0.0201491 0.000475934)
(4.00298 0.0301193 0.000544409)
(4.00593 0.0384398 0.000440527)
(4.00823 0.0450543 0.000243684)
(4.01018 0.0503171 5.03341e-05)
(4.01188 0.0545664 -0.000124303)
(4.01338 0.0580206 -0.000267229)
(4.01473 0.0608322 -0.000350864)
(4.01597 0.0631216 -0.000403675)
(4.01712 0.0649831 -0.000455607)
(4.01819 0.066492 -0.000496333)
(4.01921 0.0677077 -0.000508009)
(4.02016 0.068677 -0.000484961)
(4.02107 0.0694386 -0.000442042)
(4.02193 0.0700249 -0.000392846)
(4.02276 0.0704635 -0.000334291)
(4.02355 0.0707769 -0.000260614)
(4.0243 0.070984 -0.000171288)
(4.02503 0.071102 -7.00753e-05)
(4.02574 0.0711457 4.14603e-05)
(4.02642 0.0711276 0.000158305)
(4.02708 0.0710575 0.000271527)
(4.02773 0.0709446 0.000383672)
(4.02836 0.0707971 0.000497881)
(4.02897 0.0706214 0.000606983)
(4.02958 0.0704228 0.000709884)
(4.03017 0.0702065 0.000809949)
(4.03075 0.0699764 0.000903798)
(4.03133 0.0697355 0.000991277)
(4.0319 0.0694865 0.00107704)
(4.03247 0.0692317 0.00115942)
(4.03303 0.0689728 0.00123487)
(4.03359 0.0687111 0.00130476)
(4.03415 0.0684479 0.00137263)
(4.0347 0.0681846 0.00144325)
(4.03526 0.0679219 0.00151605)
(4.03581 0.0676604 0.00158511)
(4.03637 0.0674004 0.00165253)
(4.03693 0.067142 0.00171989)
(4.03749 0.0668856 0.0017808)
(4.03805 0.0666313 0.00183633)
(4.03861 0.0663797 0.00189287)
(4.03917 0.066131 0.00195308)
(4.03974 0.0658849 0.00201311)
(4.04031 0.0656416 0.00206285)
(4.04089 0.0654008 0.00210318)
(4.04147 0.0651629 0.00214565)
(4.04205 0.0649281 0.00219304)
(4.04263 0.0646965 0.0022403)
(4.04323 0.0644681 0.00228193)
(4.04382 0.0642425 0.00231769)
(4.04442 0.0640198 0.00235091)
(4.04502 0.0638002 0.00238507)
(4.04563 0.0635828 0.00242505)
(4.04624 0.0633657 0.00246413)
(4.04684 0.063143 0.00248662)
(4.04741 0.0629025 0.00249073)
(4.04804 0.0626083 0.00249441)
(3.99793 -0.00101767 0.00019382)
(3.99505 -0.00120296 0.000523115)
(3.99581 -0.00451857 0.00105195)
(3.99828 -0.0103589 0.00158137)
(4.00074 -0.0173155 0.00188801)
(4.00312 -0.024515 0.0019757)
(4.00549 -0.0314074 0.00197364)
(4.00776 -0.037701 0.00195893)
(4.00987 -0.0432851 0.00195196)
(4.01183 -0.0481422 0.00196057)
(4.01363 -0.0523112 0.00196638)
(4.01528 -0.0558532 0.00194591)
(4.0168 -0.0588359 0.00189912)
(4.01821 -0.0613278 0.00184334)
(4.0195 -0.0633947 0.00179609)
(4.0207 -0.0650956 0.00175293)
(4.02181 -0.0664828 0.00170628)
(4.02285 -0.0676019 0.00166344)
(4.02383 -0.0684927 0.00163812)
(4.02474 -0.0691899 0.00163889)
(4.0256 -0.0697227 0.00166211)
(4.02642 -0.070116 0.00170284)
(4.0272 -0.0703913 0.00175634)
(4.02795 -0.0705674 0.00181649)
(4.02866 -0.07066 0.00188383)
(4.02935 -0.0706821 0.00195592)
(4.03002 -0.0706454 0.00202509)
(4.03067 -0.07056 0.00209092)
(4.0313 -0.0704337 0.00215276)
(4.03191 -0.0702738 0.00220485)
(4.03252 -0.0700864 0.00224913)
(4.03311 -0.0698769 0.00229114)
(4.0337 -0.0696497 0.00232892)
(4.03427 -0.0694086 0.00236062)
(4.03485 -0.0691571 0.00238947)
(4.03541 -0.0688978 0.0024192)
(4.03598 -0.0686328 0.00245333)
(4.03654 -0.0683637 0.00249047)
(4.0371 -0.0680925 0.00252686)
(4.03766 -0.0678205 0.00256594)
(4.03822 -0.0675485 0.00260713)
(4.03878 -0.0672773 0.00264347)
(4.03935 -0.0670075 0.00267664)
(4.03991 -0.0667396 0.00271155)
(4.04048 -0.0664735 0.00274856)
(4.04105 -0.0662091 0.00278349)
(4.04162 -0.0659472 0.00280846)
(4.0422 -0.0656882 0.00282664)
(4.04278 -0.0654322 0.00284824)
(4.04336 -0.065179 0.00287346)
(4.04395 -0.0649286 0.00289768)
(4.04454 -0.0646813 0.00291573)
(4.04513 -0.0644373 0.00292894)
(4.04573 -0.0641964 0.00294004)
(4.04634 -0.0639583 0.00294952)
(4.04694 -0.0637234 0.00296276)
(4.04755 -0.0634924 0.00297499)
(4.04815 -0.0632682 0.00297228)
(4.0487 -0.0630586 0.00295199)
(4.04925 -0.0628886 0.00293414)
(3.99793 0.00102235 0.000174365)
(3.99505 0.00121193 0.000481978)
(3.99581 0.0045303 0.000993373)
(3.99828 0.0103748 0.00150553)
(4.00074 0.0173383 0.00179297)
(4.00312 0.0245479 0.00185506)
(4.00549 0.031453 0.00184108)
(4.00776 0.0377559 0.00184244)
(4.00987 0.0433455 0.00186395)
(4.01183 0.0482102 0.00189559)
(4.01363 0.0523857 0.0019297)
(4.01528 0.0559319 0.0019466)
(4.0168 0.0589192 0.00193291)
(4.0182 0.0614171 0.00189994)
(4.0195 0.0634902 0.00186825)
(4.0207 0.0651974 0.00183544)
(4.02181 0.0665904 0.00179535)
(4.02285 0.067715 0.0017558)
(4.02382 0.0686108 0.00173179)
(4.02474 0.0693123 0.00173345)
(4.0256 0.0698488 0.00175657)
(4.02642 0.0702457 0.00179467)
(4.0272 0.0705244 0.00184355)
(4.02795 0.0707034 0.00189979)
(4.02866 0.0707985 0.00196328)
(4.02935 0.0708236 0.00202941)
(4.03002 0.0707897 0.00209278)
(4.03067 0.0707067 0.00215455)
(4.0313 0.0705831 0.00221106)
(4.03191 0.0704264 0.00225534)
(4.03252 0.0702424 0.00229113)
(4.03311 0.0700364 0.0023243)
(4.0337 0.0698126 0.00235287)
(4.03427 0.0695748 0.00237651)
(4.03485 0.069326 0.00239971)
(4.03541 0.0690689 0.00242654)
(4.03598 0.0688058 0.00245898)
(4.03654 0.0685389 0.00249409)
(4.0371 0.0682695 0.00253025)
(4.03766 0.0679987 0.00257199)
(4.03822 0.0677278 0.00261726)
(4.03878 0.0674576 0.00265997)
(4.03935 0.0671885 0.00270285)
(4.03991 0.0669212 0.00275008)
(4.04048 0.0666562 0.00280019)
(4.04105 0.0663939 0.00284722)
(4.04162 0.0661341 0.00288532)
(4.0422 0.0658765 0.00291946)
(4.04278 0.0656215 0.00295781)
(4.04336 0.0653696 0.00299786)
(4.04394 0.0651206 0.00303518)
(4.04454 0.0648744 0.00306609)
(4.04513 0.0646309 0.00309298)
(4.04573 0.0643904 0.00311753)
(4.04633 0.064153 0.00313835)
(4.04694 0.0639192 0.00316034)
(4.04755 0.0636899 0.00317909)
(4.04815 0.0634676 0.0031823)
(4.0487 0.0632597 0.00316761)
(4.04925 0.0630881 0.00315355)
(3.99816 0.00164405 9.63555e-05)
(3.99613 -0.00886202 0.000202449)
(3.9991 -0.0201159 0.000334668)
(4.00298 -0.030076 0.0003785)
(4.00593 -0.0383889 0.000247409)
(4.00823 -0.0449956 3.62989e-06)
(4.01019 -0.0502551 -0.000242261)
(4.01188 -0.0545083 -0.00041151)
(4.01338 -0.0579658 -0.000519256)
(4.01473 -0.0607779 -0.000587055)
(4.01597 -0.0630676 -0.000610182)
(4.01712 -0.06493 -0.000606595)
(4.0182 -0.066438 -0.000603426)
(4.01921 -0.0676497 -0.000599559)
(4.02017 -0.068613 -0.000580648)
(4.02108 -0.0693673 -0.000554747)
(4.02194 -0.0699457 -0.000530199)
(4.02277 -0.0703761 -0.000502016)
(4.02355 -0.0706815 -0.000459972)
(4.02431 -0.0708814 -0.000398071)
(4.02504 -0.0709927 -0.000321533)
(4.02575 -0.0710302 -0.000236289)
(4.02643 -0.0710061 -0.000145763)
(4.02709 -0.0709311 -5.17934e-05)
(4.02774 -0.0708139 4.46645e-05)
(4.02837 -0.0706621 0.000138417)
(4.02898 -0.0704825 0.000228061)
(4.02959 -0.0702806 0.000316922)
(4.03018 -0.0700609 0.000399346)
(4.03077 -0.0698269 0.000467996)
(4.03134 -0.0695822 0.000527824)
(4.03192 -0.0693293 0.000584714)
(4.03248 -0.0690706 0.000637127)
(4.03304 -0.068808 0.000685489)
(4.0336 -0.0685431 0.000734233)
(4.03416 -0.0682771 0.000787386)
(4.03472 -0.0680109 0.000845098)
(4.03527 -0.0677452 0.000902248)
(4.03583 -0.0674808 0.000958881)
(4.03638 -0.0672184 0.00102012)
(4.03694 -0.0669583 0.00108267)
(4.0375 -0.0667012 0.00114229)
(4.03806 -0.0664474 0.00120245)
(4.03862 -0.0661971 0.00126636)
(4.03919 -0.0659501 0.00133114)
(4.03976 -0.0657063 0.00138974)
(4.04033 -0.0654656 0.00143929)
(4.0409 -0.0652282 0.00148692)
(4.04148 -0.0649938 0.00153941)
(4.04206 -0.0647622 0.0015924)
(4.04265 -0.0645334 0.00164193)
(4.04324 -0.0643078 0.00168696)
(4.04384 -0.0640852 0.00173055)
(4.04444 -0.0638654 0.00177333)
(4.04504 -0.0636481 0.00181337)
(4.04565 -0.0634325 0.00185421)
(4.04625 -0.0632164 0.00189019)
(4.04686 -0.0629938 0.0019104)
(4.04743 -0.0627512 0.00191419)
(4.04806 -0.0624497 0.00191607)
(3.9898 0.0197077 0.00058956)
(3.98182 0.0407353 0.001719)
(3.98276 0.0576089 0.002988)
(3.98641 0.0670562 0.00401631)
(3.99022 0.0718691 0.00467119)
(3.99385 0.0743835 0.00502268)
(3.99719 0.0755635 0.00523634)
(4.00021 0.0759285 0.00539807)
(4.00293 0.0758373 0.00548774)
(4.00537 0.0755072 0.00550257)
(4.00757 0.0750557 0.00548892)
(4.00956 0.0745476 0.00545908)
(4.01137 0.0740197 0.00540312)
(4.01301 0.0734921 0.00533468)
(4.0145 0.0729756 0.00527389)
(4.01587 0.0724754 0.00521627)
(4.01714 0.0719934 0.00515947)
(4.0183 0.07153 0.00511063)
(4.01938 0.0710855 0.0050762)
(4.02038 0.0706595 0.00505773)
(4.02132 0.0702508 0.00505093)
(4.02221 0.0698581 0.00505299)
(4.02304 0.0694801 0.00506199)
(4.02384 0.0691157 0.00507741)
(4.02459 0.0687638 0.00509816)
(4.02531 0.0684237 0.00511966)
(4.02601 0.068094 0.0051444)
(4.02668 0.0677738 0.00517764)
(4.02733 0.0674625 0.00521208)
(4.02796 0.0671596 0.00523981)
(4.02857 0.0668645 0.00526595)
(4.02918 0.0665768 0.00529608)
(4.02977 0.066296 0.00532909)
(4.03035 0.0660216 0.00536493)
(4.03093 0.0657536 0.00540623)
(4.0315 0.0654915 0.00545617)
(4.03206 0.0652353 0.00551263)
(4.03262 0.0649849 0.00556773)
(4.03319 0.06474 0.00562222)
(4.03374 0.0645002 0.00568087)
(4.0343 0.0642656 0.00573927)
(4.03486 0.0640355 0.00579518)
(4.03542 0.0638097 0.00585227)
(4.03598 0.0635881 0.00591299)
(4.03654 0.0633706 0.00597395)
(4.03711 0.0631566 0.0060272)
(4.03768 0.0629445 0.00607252)
(4.03825 0.0627345 0.00611829)
(4.03882 0.0625266 0.00616968)
(4.0394 0.0623211 0.00622084)
(4.03998 0.0621177 0.0062679)
(4.04056 0.0619161 0.00631249)
(4.04115 0.0617164 0.00635729)
(4.04174 0.0615188 0.00640149)
(4.04233 0.0613232 0.00644334)
(4.04293 0.0611309 0.0064846)
(4.04354 0.0609451 0.00651753)
(4.04414 0.0607765 0.00653266)
(4.04472 0.0606559 0.00653318)
(4.04516 0.0607219 0.00653172)
(4.00711 -0.104061 -0.000990785)
(4.00323 -0.133673 -0.00145284)
(4.00185 -0.134057 -0.00145613)
(4.00115 -0.129229 -0.0013964)
(4.00152 -0.123074 -0.00143091)
(4.00248 -0.116494 -0.00150562)
(4.00363 -0.110204 -0.00152372)
(4.00482 -0.104514 -0.0014743)
(4.00599 -0.0994686 -0.00143199)
(4.00711 -0.0950325 -0.00142087)
(4.00816 -0.091153 -0.00139611)
(4.00912 -0.0877706 -0.00134918)
(4.01001 -0.0848255 -0.00129472)
(4.01083 -0.0822616 -0.00122551)
(4.01157 -0.0800279 -0.00113303)
(4.01225 -0.0780795 -0.00103103)
(4.01288 -0.0763777 -0.000925428)
(4.01345 -0.0748885 -0.00081389)
(4.01397 -0.0735824 -0.000698254)
(4.01445 -0.0724337 -0.000583917)
(4.01489 -0.0714208 -0.00047508)
(4.0153 -0.0705256 -0.000371335)
(4.01567 -0.0697322 -0.000272845)
(4.01601 -0.0690268 -0.000178362)
(4.01633 -0.0683975 -8.83815e-05)
(4.01663 -0.0678341 -6.13175e-06)
(4.0169 -0.067328 7.53002e-05)
(4.01716 -0.0668717 0.0001642)
(4.0174 -0.0664586 0.000253307)
(4.01762 -0.0660829 0.000334834)
(4.01783 -0.0657395 0.000414098)
(4.01803 -0.0654241 0.000496878)
(4.01821 -0.0651332 0.000582918)
(4.01839 -0.0648633 0.000671524)
(4.01855 -0.0646116 0.00076371)
(4.01871 -0.0643757 0.000862487)
(4.01886 -0.0641534 0.000964746)
(4.01901 -0.0639427 0.00106098)
(4.01915 -0.0637424 0.0011529)
(4.01928 -0.063551 0.00124551)
(4.01941 -0.0633675 0.00133432)
(4.01954 -0.063191 0.00141938)
(4.01966 -0.0630207 0.00150479)
(4.01978 -0.062856 0.00159304)
(4.0199 -0.0626961 0.00168082)
(4.02001 -0.0625399 0.00175942)
(4.02013 -0.0623861 0.00183077)
(4.02024 -0.0622347 0.00190408)
(4.02035 -0.0620853 0.00198361)
(4.02046 -0.0619377 0.00206262)
(4.02056 -0.0617915 0.00213719)
(4.02067 -0.0616468 0.00221138)
(4.02078 -0.0615033 0.00228743)
(4.02088 -0.0613608 0.0023635)
(4.02099 -0.061219 0.00243868)
(4.0211 -0.061077 0.00251334)
(4.0212 -0.0609321 0.00257735)
(4.02132 -0.0607748 0.00262165)
(4.02147 -0.060575 0.00265206)
(4.0216 -0.0600607 0.00268087)
(4.00457 0.295041 0.00233392)
(4.02908 0.228076 0.00287485)
(4.03226 0.190872 0.00311024)
(4.02771 0.165225 0.00318422)
(4.0221 0.146348 0.00309255)
(4.0162 0.131994 0.00294705)
(4.01008 0.120671 0.00282949)
(4.00389 0.111482 0.00273005)
(3.99774 0.103892 0.00257852)
(3.99167 0.0975464 0.00237032)
(3.98568 0.092195 0.00216708)
(3.97978 0.087654 0.00198705)
(3.97397 0.0837842 0.00182357)
(3.96824 0.0804761 0.00168721)
(3.9626 0.0776418 0.00158349)
(3.95703 0.0752095 0.00149625)
(3.95155 0.0731191 0.00141991)
(3.94613 0.0713202 0.0013555)
(3.9408 0.0697704 0.00129728)
(3.93553 0.0684338 0.00123662)
(3.93032 0.0672793 0.00117039)
(3.92519 0.0662805 0.0011017)
(3.92011 0.0654147 0.00103184)
(3.9151 0.0646626 0.000963238)
(3.91014 0.0640076 0.000895706)
(3.90524 0.0634355 0.0008267)
(3.9004 0.0629342 0.000765402)
(3.89561 0.062493 0.000720717)
(3.89087 0.0621031 0.000683949)
(3.88619 0.0617571 0.000646179)
(3.88155 0.0614484 0.000612023)
(3.87696 0.0611715 0.000586607)
(3.87241 0.0609216 0.000569177)
(3.86791 0.0606945 0.000557523)
(3.86345 0.060487 0.000550649)
(3.85904 0.060296 0.000550651)
(3.85466 0.0601191 0.000553056)
(3.85033 0.0599542 0.000546872)
(3.84603 0.0597995 0.000534366)
(3.84177 0.0596533 0.000520715)
(3.83755 0.0595144 0.000501359)
(3.83336 0.0593815 0.00047778)
(3.82921 0.0592537 0.000454375)
(3.82509 0.0591302 0.0004336)
(3.82101 0.0590102 0.00041199)
(3.81695 0.0588931 0.000380097)
(3.81293 0.0587777 0.000341393)
(3.80894 0.0586634 0.000306014)
(3.80498 0.0585498 0.000277671)
(3.80104 0.0584367 0.000248659)
(3.79713 0.0583238 0.000214723)
(3.79325 0.058211 0.000181579)
(3.7894 0.0580981 0.000151171)
(3.78558 0.057985 0.000120845)
(3.78177 0.0578717 9.02951e-05)
(3.778 0.0577586 5.91332e-05)
(3.77426 0.0576468 1.5492e-05)
(3.77055 0.0575412 -4.90763e-05)
(3.76697 0.0574556 -0.000123937)
(3.76305 0.0575875 -0.000189313)
(4.0045 -0.295186 0.000493971)
(4.02897 -0.228237 0.000436375)
(4.03216 -0.191027 0.000558685)
(4.02761 -0.165384 0.000707078)
(4.022 -0.146521 0.00078532)
(4.01612 -0.132184 0.000899678)
(4.01 -0.120878 0.000979038)
(4.00382 -0.111702 0.000923337)
(3.99768 -0.104118 0.000782689)
(3.99162 -0.0977736 0.000639182)
(3.98564 -0.0924203 0.000477294)
(3.97974 -0.0878754 0.000293577)
(3.97394 -0.0840009 0.000144058)
(3.96822 -0.0806882 6.36515e-05)
(3.96258 -0.0778498 4.62918e-05)
(3.95703 -0.0754141 6.4477e-05)
(3.95154 -0.0733212 0.000102291)
(3.94613 -0.0715211 0.000161374)
(3.9408 -0.0699708 0.000226147)
(3.93553 -0.0686338 0.000272093)
(3.93033 -0.0674792 0.000299078)
(3.92519 -0.0664809 0.000324651)
(3.92012 -0.0656165 0.000347007)
(3.9151 -0.0648662 0.000346127)
(3.91015 -0.0642136 0.000328273)
(3.90525 -0.0636446 0.000314124)
(3.90041 -0.0631473 0.000300181)
(3.89562 -0.0627109 0.000281025)
(3.89088 -0.0623267 0.000267458)
(3.88619 -0.0619872 0.000262572)
(3.88156 -0.0616857 0.000260321)
(3.87697 -0.0614164 0.000260514)
(3.87242 -0.0611746 0.00026167)
(3.86792 -0.0609562 0.000257115)
(3.86346 -0.0607574 0.000244061)
(3.85905 -0.0605752 0.000225417)
(3.85467 -0.0604071 0.000206549)
(3.85034 -0.0602509 0.000185871)
(3.84604 -0.0601046 0.000152153)
(3.84178 -0.0599665 0.000102981)
(3.83756 -0.0598346 4.32802e-05)
(3.83337 -0.0597073 -2.93629e-05)
(3.82922 -0.0595835 -0.000114499)
(3.8251 -0.0594624 -0.000201717)
(3.82102 -0.0593433 -0.000282615)
(3.81696 -0.0592259 -0.000361677)
(3.81294 -0.0591096 -0.000451934)
(3.80895 -0.0589939 -0.000556107)
(3.80498 -0.0588784 -0.000660123)
(3.80105 -0.0587632 -0.000754907)
(3.79714 -0.0586479 -0.000845514)
(3.79327 -0.0585326 -0.000933766)
(3.78941 -0.0584171 -0.001023)
(3.78559 -0.0583013 -0.00110966)
(3.78179 -0.0581853 -0.00118171)
(3.77801 -0.0580696 -0.0012376)
(3.77427 -0.0579549 -0.00129221)
(3.77056 -0.0578458 -0.00136453)
(3.76698 -0.0577559 -0.00144843)
(3.76304 -0.0578843 -0.00150581)
(4.00711 0.10395 0.00118526)
(4.00323 0.133627 0.00186747)
(4.00185 0.134106 0.00250675)
(4.00113 0.129353 0.00287909)
(4.00149 0.123245 0.00298938)
(4.00245 0.116683 0.00302398)
(4.0036 0.1104 0.00300379)
(4.00478 0.104717 0.00287795)
(4.00595 0.0996798 0.00269813)
(4.00707 0.0952524 0.00253645)
(4.00812 0.0913803 0.00237123)
(4.00909 0.0880027 0.0021893)
(4.00998 0.0850583 0.00203731)
(4.0108 0.0824909 0.0019491)
(4.01155 0.0802511 0.00192348)
(4.01224 0.0782956 0.00193682)
(4.01286 0.0765862 0.00197424)
(4.01344 0.0750895 0.00203756)
(4.01396 0.0737775 0.00211482)
(4.01444 0.0726261 0.00218885)
(4.01488 0.0716135 0.00225878)
(4.01528 0.0707203 0.00233713)
(4.01566 0.0699303 0.00242078)
(4.016 0.0692298 0.00249154)
(4.01632 0.0686067 0.00255364)
(4.01661 0.0680499 0.00262267)
(4.01688 0.0675504 0.0026938)
(4.01714 0.0671005 0.00276248)
(4.01737 0.0666934 0.00283788)
(4.0176 0.066323 0.00292176)
(4.0178 0.0659847 0.00300966)
(4.018 0.0656742 0.00310283)
(4.01818 0.065388 0.00319996)
(4.01836 0.0651228 0.003295)
(4.01852 0.0648761 0.00338576)
(4.01868 0.0646453 0.00347496)
(4.01883 0.0644285 0.00356775)
(4.01897 0.064224 0.00366284)
(4.01911 0.0640302 0.00374984)
(4.01925 0.0638461 0.00382553)
(4.01937 0.0636689 0.00389344)
(4.0195 0.0634972 0.00395019)
(4.01962 0.0633302 0.00399607)
(4.01974 0.0631673 0.00404038)
(4.01986 0.0630077 0.00408996)
(4.01998 0.0628511 0.00414039)
(4.02009 0.0626969 0.00417907)
(4.0202 0.0625448 0.00420354)
(4.02031 0.0623945 0.0042268)
(4.02042 0.0622456 0.00425652)
(4.02053 0.0620977 0.00428798)
(4.02063 0.0619507 0.00431842)
(4.02074 0.0618044 0.00434513)
(4.02084 0.0616586 0.00437163)
(4.02095 0.061513 0.00440786)
(4.02105 0.0613669 0.00445641)
(4.02116 0.0612182 0.004505)
(4.02127 0.0610576 0.00453552)
(4.02142 0.0608557 0.00455138)
(4.02154 0.060345 0.00457144)
(3.98982 -0.0197058 -0.000109481)
(3.98186 -0.0407233 0.000358357)
(3.98279 -0.0575995 0.00122798)
(3.98641 -0.0670438 0.00201965)
(3.9902 -0.0718531 0.00256657)
(3.9938 -0.0743692 0.00293918)
(3.99714 -0.0755522 0.00318449)
(4.00015 -0.0759121 0.00329709)
(4.00287 -0.0758087 0.00332678)
(4.00531 -0.0754628 0.00333846)
(4.00752 -0.0749948 0.00331811)
(4.00951 -0.0744722 0.00325464)
(4.01132 -0.0739343 0.00318909)
(4.01296 -0.0734019 0.00315707)
(4.01446 -0.0728845 0.00316644)
(4.01583 -0.072386 0.00320165)
(4.0171 -0.0719077 0.00325098)
(4.01826 -0.0714497 0.00331889)
(4.01935 -0.0710101 0.0034047)
(4.02035 -0.0705869 0.00349956)
(4.0213 -0.0701791 0.00360036)
(4.02218 -0.0697864 0.00371232)
(4.02302 -0.0694077 0.00383086)
(4.02381 -0.0690416 0.00394132)
(4.02457 -0.0686874 0.0040466)
(4.02529 -0.068345 0.0041559)
(4.02599 -0.0680138 0.00426281)
(4.02666 -0.0676928 0.00436444)
(4.02731 -0.0673817 0.00446741)
(4.02794 -0.0670803 0.00457093)
(4.02855 -0.0667876 0.00467242)
(4.02916 -0.0665029 0.0047748)
(4.02975 -0.0662258 0.0048765)
(4.03033 -0.0659557 0.00497237)
(4.03091 -0.0656921 0.00506168)
(4.03148 -0.0654345 0.00514752)
(4.03205 -0.0651828 0.00523505)
(4.03261 -0.0649365 0.00532352)
(4.03317 -0.0646952 0.00540451)
(4.03373 -0.0644584 0.00547686)
(4.03429 -0.0642248 0.00554323)
(4.03484 -0.0639938 0.00559906)
(4.0354 -0.0637656 0.00564543)
(4.03597 -0.0635403 0.00569108)
(4.03653 -0.063318 0.00574141)
(4.03709 -0.0630986 0.00579211)
(4.03766 -0.0628816 0.00583141)
(4.03823 -0.062667 0.00585831)
(4.0388 -0.0624546 0.00588538)
(4.03937 -0.0622448 0.00591821)
(4.03995 -0.0620375 0.00595196)
(4.04053 -0.0618328 0.00598237)
(4.04112 -0.0616305 0.00600792)
(4.0417 -0.0614306 0.00603231)
(4.0423 -0.0612336 0.00606251)
(4.04289 -0.0610403 0.00610234)
(4.04349 -0.0608533 0.00614229)
(4.04409 -0.0606828 0.0061655)
(4.04467 -0.0605596 0.00617329)
(4.04511 -0.0606252 0.00618255)
(3.99816 -0.00164688 0.000262943)
(3.99613 0.00881915 0.00066338)
(3.9991 0.0200333 0.00110885)
(4.00296 0.0299747 0.00141676)
(4.0059 0.038279 0.00149394)
(4.00819 0.0448799 0.00142529)
(4.01015 0.0501391 0.00131674)
(4.01185 0.0544005 0.00119268)
(4.01335 0.0578762 0.00107425)
(4.01471 0.0607117 0.000995553)
(4.01595 0.0630265 0.000933424)
(4.0171 0.0649132 0.00086204)
(4.01818 0.0664427 0.000794822)
(4.01919 0.0676725 0.000751873)
(4.02015 0.0686512 0.000740521)
(4.02106 0.0694189 0.000747167)
(4.02192 0.0700088 0.000759167)
(4.02275 0.0704488 0.000780288)
(4.02354 0.0707634 0.00081677)
(4.0243 0.0709734 0.000869481)
(4.02503 0.0710956 0.000934894)
(4.02573 0.0711437 0.0010116)
(4.02642 0.0711301 0.00109471)
(4.02708 0.0710657 0.00117535)
(4.02772 0.0709592 0.00125612)
(4.02835 0.0708174 0.00134017)
(4.02897 0.0706469 0.00142031)
(4.02957 0.0704531 0.00149545)
(4.03017 0.0702404 0.00156892)
(4.03075 0.0700123 0.00163731)
(4.03133 0.0697725 0.00170041)
(4.0319 0.0695239 0.00176286)
(4.03246 0.0692689 0.00182291)
(4.03303 0.0690095 0.001877)
(4.03359 0.0687477 0.00192645)
(4.03414 0.0684849 0.00197475)
(4.0347 0.068222 0.00202663)
(4.03525 0.06796 0.00208147)
(4.03581 0.0676998 0.00213331)
(4.03636 0.0674421 0.00218422)
(4.03692 0.0671869 0.00223573)
(4.03748 0.066934 0.00228145)
(4.03804 0.0666838 0.00232238)
(4.0386 0.0664363 0.00236491)
(4.03917 0.0661914 0.00241164)
(4.03973 0.0659485 0.0024587)
(4.0403 0.0657081 0.00249596)
(4.04088 0.0654705 0.00252428)
(4.04146 0.0652358 0.0025552)
(4.04204 0.0650036 0.00259145)
(4.04263 0.0647741 0.00262797)
(4.04322 0.064547 0.00265924)
(4.04381 0.0643227 0.00268501)
(4.04441 0.0641009 0.00270858)
(4.04501 0.0638812 0.00273342)
(4.04562 0.063663 0.00276439)
(4.04623 0.0634449 0.00279475)
(4.04683 0.0632216 0.00280883)
(4.0474 0.0629802 0.00280487)
(4.04803 0.0626851 0.00280079)
(3.99793 -0.00102109 0.000193112)
(3.99506 -0.0012055 0.000467567)
(3.99582 -0.00450268 0.00092058)
(3.99828 -0.0103141 0.00137181)
(4.00072 -0.0172472 0.00160834)
(4.00309 -0.0244364 0.00164025)
(4.00545 -0.0313252 0.00159736)
(4.00773 -0.0376129 0.00155473)
(4.00984 -0.0431895 0.00153029)
(4.0118 -0.0480432 0.00152971)
(4.0136 -0.0522109 0.00153266)
(4.01525 -0.0557526 0.00151402)
(4.01678 -0.0587389 0.00147246)
(4.01818 -0.0612392 0.0014243)
(4.01948 -0.0633173 0.00138634)
(4.02068 -0.0650308 0.00135356)
(4.02179 -0.0664311 0.00131799)
(4.02283 -0.0675635 0.00128658)
(4.02381 -0.0684668 0.00127284)
(4.02472 -0.0691746 0.00128519)
(4.02559 -0.0697163 0.00131987)
(4.02641 -0.0701176 0.00137187)
(4.02719 -0.0703999 0.0014364)
(4.02794 -0.0705816 0.00150728)
(4.02865 -0.0706785 0.00158502)
(4.02934 -0.0707048 0.00166718)
(4.03001 -0.0706719 0.00174606)
(4.03066 -0.0705896 0.00182124)
(4.03129 -0.0704669 0.00189206)
(4.0319 -0.070311 0.00195278)
(4.03251 -0.0701279 0.00200532)
(4.0331 -0.0699227 0.00205524)
(4.03368 -0.0696998 0.00210059)
(4.03426 -0.0694628 0.00213954)
(4.03483 -0.0692146 0.00217532)
(4.0354 -0.0689579 0.00221169)
(4.03597 -0.0686951 0.00225218)
(4.03653 -0.0684282 0.00229541)
(4.03709 -0.0681586 0.00233765)
(4.03765 -0.0678874 0.00238234)
(4.03821 -0.0676157 0.00242892)
(4.03877 -0.0673444 0.00247043)
(4.03934 -0.067074 0.00250858)
(4.0399 -0.0668051 0.00254829)
(4.04047 -0.0665384 0.0025899)
(4.04104 -0.0662738 0.00262928)
(4.04161 -0.0660114 0.00265853)
(4.04219 -0.0657512 0.00268083)
(4.04277 -0.0654936 0.00270641)
(4.04335 -0.065239 0.00273547)
(4.04394 -0.0649876 0.00276339)
(4.04453 -0.0647393 0.00278502)
(4.04512 -0.0644939 0.00280167)
(4.04572 -0.0642516 0.00281609)
(4.04632 -0.0640128 0.00282879)
(4.04693 -0.0637776 0.00284513)
(4.04754 -0.0635467 0.00286036)
(4.04814 -0.0633226 0.00286054)
(4.04869 -0.063113 0.00284304)
(4.04924 -0.062943 0.00282781)
(3.99793 0.00101816 0.000173672)
(3.99506 0.00120074 0.000426514)
(3.99582 0.00449745 0.000862187)
(3.99828 0.0103111 0.00129625)
(4.00072 0.0172487 0.00151361)
(4.00309 0.0244426 0.0015199)
(4.00546 0.0313399 0.001465)
(4.00773 0.0376427 0.00143831)
(4.00985 0.0432354 0.00144228)
(4.0118 0.0481035 0.00146469)
(4.0136 0.0522857 0.00149589)
(4.01526 0.0558428 0.0015146)
(4.01678 0.0588419 0.00150614)
(4.01818 0.061351 0.0014808)
(4.01948 0.063435 0.00145843)
(4.02068 0.0651524 0.00143605)
(4.02179 0.0665551 0.00140707)
(4.02283 0.0676889 0.001379)
(4.02381 0.0685931 0.00136662)
(4.02472 0.0693018 0.00137991)
(4.02559 0.0698444 0.00141454)
(4.02641 0.0702463 0.00146395)
(4.02719 0.0705291 0.0015239)
(4.02794 0.0707117 0.00159092)
(4.02865 0.0708099 0.00166484)
(4.02934 0.0708372 0.00174107)
(4.03001 0.0708055 0.00181418)
(4.03066 0.0707249 0.00188532)