/*--------------------------------*- C++ -*----------------------------------*\
  =========                 |
  \\      /  F ield         | OpenFOAM: The Open Source CFD Toolbox
   \\    /   O peration     | Website:  https://openfoam.org
    \\  /    A nd           | Version:  8
     \\/     M anipulation  |
\*---------------------------------------------------------------------------*/
FoamFile
{
    version     2.0;
    format      ascii;
    class       volVectorField;
    location    "600";
    object      U;
}
// * * * * * * * * * * * * * * * * * * * * * * * * * * * * * * * * * * * * * //

dimensions      [0 1 -1 0 0 0 0];

internalField   nonuniform List<vector> 
1200
(
(4.00458 -0.295017 0.00257075)
(4.0291 -0.228042 0.00321792)
(4.03228 -0.190833 0.00357208)
(4.02773 -0.165188 0.00356504)
(4.02213 -0.14632 0.00333051)
(4.01623 -0.131967 0.00323637)
(4.01012 -0.12064 0.00322833)
(4.00395 -0.111454 0.0030954)
(3.99781 -0.103871 0.0028559)
(3.99176 -0.0975373 0.00261298)
(3.98579 -0.0922017 0.00230866)
(3.97991 -0.087681 0.00191163)
(3.97411 -0.0838335 0.0015067)
(3.9684 -0.0805474 0.00115943)
(3.96278 -0.0777335 0.000888088)
(3.95723 -0.0753192 0.000669636)
(3.95177 -0.0732449 0.000493354)
(3.94638 -0.0714595 0.000389078)
(3.94107 -0.0699206 0.000350229)
(3.93583 -0.0685932 0.000331366)
(3.93065 -0.0674473 0.000313401)
(3.92554 -0.0664562 0.000319023)
(3.9205 -0.0655974 0.000350661)
(3.91551 -0.0648523 0.000364588)
(3.91059 -0.064205 0.000350814)
(3.90572 -0.0636409 0.000337342)
(3.9009 -0.0631478 0.000317842)
(3.89614 -0.0627154 0.000276869)
(3.89143 -0.0623348 0.000230037)
(3.88678 -0.0619981 0.000188252)
(3.88217 -0.0616986 0.000146654)
(3.87761 -0.0614308 0.000108498)
(3.87309 -0.0611899 7.65614e-05)
(3.86862 -0.0609718 4.42549e-05)
(3.8642 -0.0607732 8.21869e-06)
(3.85981 -0.060591 -2.78097e-05)
(3.85547 -0.0604226 -5.35781e-05)
(3.85116 -0.0602657 -6.53263e-05)
(3.8469 -0.0601184 -7.80713e-05)
(3.84267 -0.0599785 -9.99843e-05)
(3.83848 -0.0598445 -0.000126247)
(3.83432 -0.0597151 -0.000162153)
(3.8302 -0.0595895 -0.000212819)
(3.82611 -0.0594668 -0.00026857)
(3.82206 -0.0593463 -0.000316027)
(3.81803 -0.0592274 -0.000357761)
(3.81404 -0.0591098 -0.000411274)
(3.81008 -0.0589932 -0.000487205)
(3.80615 -0.0588774 -0.000571766)
(3.80224 -0.0587619 -0.000652366)
(3.79836 -0.0586468 -0.000740694)
(3.79451 -0.0585318 -0.000834395)
(3.79069 -0.0584167 -0.000940499)
(3.78689 -0.0583017 -0.00106072)
(3.78312 -0.0581865 -0.00117288)
(3.77937 -0.0580711 -0.00126633)
(3.77565 -0.0579568 -0.00135489)
(3.77197 -0.0578485 -0.00147068)
(3.76842 -0.0577595 -0.00160802)
(3.76451 -0.0578866 -0.0017294)
(4.00711 0.10408 -0.000663413)
(4.00323 0.133684 -0.000794027)
(4.00185 0.134057 -0.000421195)
(4.00116 0.129209 -0.000173286)
(4.00152 0.123038 -0.000121254)
(4.0025 0.116456 -1.42225e-05)
(4.00366 0.110176 0.00013915)
(4.00486 0.104499 0.00021288)
(4.00605 0.0994715 0.000230455)
(4.00718 0.0950546 0.000279399)
(4.00824 0.0911924 0.000300064)
(4.00923 0.087825 0.000246281)
(4.01014 0.0848938 0.000176711)
(4.01097 0.0823431 0.000141982)
(4.01174 0.080122 0.00015527)
(4.01244 0.0781856 0.000196698)
(4.01309 0.0764953 0.000255957)
(4.01369 0.0750188 0.000355682)
(4.01423 0.0737268 0.000493279)
(4.01474 0.0725923 0.000639683)
(4.01521 0.0715929 0.000784605)
(4.01564 0.070711 0.000947833)
(4.01604 0.0699309 0.00113145)
(4.01641 0.0692379 0.00130129)
(4.01676 0.0686193 0.0014533)
(4.01708 0.0680656 0.00161044)
(4.01738 0.0675685 0.00176368)
(4.01766 0.0671199 0.00190037)
(4.01793 0.0667133 0.0020342)
(4.01818 0.0663439 0.00217123)
(4.01842 0.0660067 0.00230621)
(4.01864 0.0656973 0.00244359)
(4.01886 0.0654122 0.00258591)
(4.01906 0.0651481 0.00272732)
(4.01926 0.0649021 0.00286525)
(4.01945 0.0646721 0.00300243)
(4.01963 0.0644562 0.00314837)
(4.0198 0.0642526 0.0033073)
(4.01997 0.0640594 0.00346548)
(4.02014 0.0638732 0.00361701)
(4.0203 0.0636933 0.00376711)
(4.02046 0.063519 0.00390871)
(4.02061 0.0633496 0.00403707)
(4.02076 0.0631843 0.00416114)
(4.02091 0.0630229 0.00429201)
(4.02106 0.0628646 0.00442832)
(4.0212 0.0627091 0.00455287)
(4.02134 0.0625556 0.0046557)
(4.02148 0.0624038 0.00475034)
(4.02162 0.0622536 0.0048474)
(4.02176 0.0621045 0.00493823)
(4.0219 0.0619566 0.00502241)
(4.02204 0.0618096 0.00509336)
(4.02217 0.0616631 0.00515082)
(4.0223 0.0615175 0.00521145)
(4.02244 0.0613721 0.00528552)
(4.02258 0.0612242 0.00536288)
(4.02272 0.0610639 0.00541479)
(4.0229 0.0608627 0.00544099)
(4.02306 0.0603549 0.00545982)
(3.9898 -0.0197034 0.000714458)
(3.98181 -0.0407259 0.00192033)
(3.98275 -0.057587 0.00334297)
(3.98641 -0.0670241 0.00452242)
(3.99023 -0.0718245 0.00529265)
(3.99386 -0.0743172 0.00579412)
(3.99722 -0.0754783 0.00613074)
(4.00026 -0.0758289 0.0062724)
(4.00299 -0.0757241 0.00627308)
(4.00545 -0.0753789 0.00625113)
(4.00767 -0.0749155 0.00618092)
(4.00968 -0.0744004 0.0060261)
(4.01151 -0.0738688 0.00583924)
(4.01316 -0.07334 0.00567327)
(4.01468 -0.0728244 0.00554899)
(4.01607 -0.0723271 0.00545316)
(4.01736 -0.0718489 0.00537405)
(4.01854 -0.0713882 0.00532217)
(4.01965 -0.0709445 0.00529695)
(4.02068 -0.0705186 0.00528762)
(4.02164 -0.07011 0.00529095)
(4.02256 -0.0697164 0.00531775)
(4.02342 -0.0693361 0.00536523)
(4.02424 -0.0689696 0.00540958)
(4.02502 -0.0686169 0.00545411)
(4.02577 -0.0682761 0.00551419)
(4.02649 -0.0679463 0.00557685)
(4.02719 -0.0676275 0.00563428)
(4.02787 -0.0673187 0.00569748)
(4.02853 -0.0670184 0.00576507)
(4.02917 -0.0667263 0.00583138)
(4.02981 -0.066442 0.00590218)
(4.03043 -0.0661648 0.00597809)
(4.03104 -0.0658943 0.00605312)
(4.03165 -0.0656302 0.00612569)
(4.03225 -0.065372 0.0061969)
(4.03284 -0.0651193 0.00627425)
(4.03344 -0.0648715 0.00636073)
(4.03403 -0.0646282 0.00644324)
(4.03462 -0.0643879 0.00651956)
(4.03521 -0.0641509 0.00659558)
(4.0358 -0.0639171 0.00666173)
(4.03638 -0.0636865 0.006715)
(4.03697 -0.0634591 0.00676451)
(4.03756 -0.0632342 0.00681865)
(4.03816 -0.0630118 0.00687743)
(4.03875 -0.0627918 0.0069241)
(4.03935 -0.0625746 0.00695145)
(4.03995 -0.0623603 0.00697474)
(4.04055 -0.0621486 0.00700264)
(4.04116 -0.06194 0.00703043)
(4.04177 -0.0617338 0.007054)
(4.04238 -0.0615305 0.00706857)
(4.04299 -0.0613302 0.00707656)
(4.04361 -0.0611321 0.00708682)
(4.04424 -0.060937 0.00710912)
(4.04486 -0.0607483 0.00713727)
(4.04549 -0.060577 0.00714679)
(4.04609 -0.0604529 0.00713307)
(4.04656 -0.0605175 0.00711301)
(3.99816 -0.00163602 0.000154346)
(3.99613 0.008888 0.000264154)
(3.99911 0.0201617 0.000481922)
(4.00299 0.0301309 0.000685728)
(4.00595 0.0384454 0.000692808)
(4.00826 0.0450578 0.000540264)
(4.01022 0.050326 0.000341277)
(4.01193 0.0545822 0.000124002)
(4.01344 0.0580413 -7.5681e-05)
(4.0148 0.0608565 -0.000199773)
(4.01606 0.0631457 -0.000273851)
(4.01722 0.0650017 -0.000339947)
(4.01832 0.0665016 -0.000385492)
(4.01935 0.0677075 -0.00039114)
(4.02033 0.0686674 -0.000349351)
(4.02126 0.0694206 -0.000280225)
(4.02214 0.0700006 -0.000207655)
(4.02299 0.0704358 -0.000139018)
(4.02381 0.070749 -7.48318e-05)
(4.02459 0.0709578 -8.82428e-06)
(4.02535 0.0710785 6.12945e-05)
(4.02608 0.0711263 0.000138904)
(4.02679 0.0711132 0.000220351)
(4.02748 0.0710484 0.000295243)
(4.02815 0.0709401 0.000375193)
(4.02881 0.0707966 0.000470248)
(4.02945 0.0706242 0.000567763)
(4.03008 0.0704277 0.000666731)
(4.03071 0.0702123 0.000775161)
(4.03132 0.0699825 0.000885319)
(4.03193 0.0697413 0.000993243)
(4.03253 0.0694915 0.00110615)
(4.03313 0.0692358 0.00122154)
(4.03372 0.0689762 0.00133298)
(4.03431 0.0687142 0.00144043)
(4.03489 0.0684511 0.00154389)
(4.03548 0.0681884 0.00164842)
(4.03607 0.0679273 0.00175513)
(4.03665 0.0676679 0.00185295)
(4.03724 0.0674099 0.0019449)
(4.03782 0.0671536 0.00203721)
(4.03841 0.0668995 0.00211868)
(4.039 0.0666476 0.00218901)
(4.03959 0.0663976 0.00225679)
(4.04019 0.0661501 0.00232578)
(4.04079 0.0659053 0.00239598)
(4.04139 0.0656632 0.00245191)
(4.04199 0.0654235 0.00249041)
(4.0426 0.0651862 0.0025283)
(4.04321 0.0649519 0.0025717)
(4.04382 0.0647201 0.00261937)
(4.04444 0.0644914 0.00266385)
(4.04506 0.0642651 0.00270357)
(4.04569 0.0640413 0.00274312)
(4.04632 0.0638205 0.00278255)
(4.04695 0.0636023 0.00283081)
(4.04759 0.0633845 0.00288546)
(4.04822 0.0631609 0.00292636)
(4.04882 0.0629194 0.00294354)
(4.04949 0.0626236 0.00295524)
(3.99793 -0.00101783 0.000187016)
(3.99505 -0.00120093 0.000425988)
(3.9958 -0.00451582 0.00097106)
(3.99828 -0.0103621 0.00166954)
(4.00074 -0.0173295 0.00217461)
(4.00314 -0.0245364 0.00236999)
(4.00552 -0.0314283 0.00236299)
(4.00781 -0.0377159 0.00226067)
(4.00994 -0.043292 0.00213169)
(4.0119 -0.0481422 0.00204211)
(4.01372 -0.0523067 0.00199511)
(4.01539 -0.0558478 0.00196819)
(4.01693 -0.0588316 0.00195149)
(4.01835 -0.061325 0.00194638)
(4.01967 -0.0633935 0.00196511)
(4.02089 -0.0650957 0.0019934)
(4.02203 -0.0664837 0.00200684)
(4.02309 -0.0676026 0.00199466)
(4.02409 -0.0684925 0.00196367)
(4.02503 -0.0691886 0.00193423)
(4.02592 -0.0697202 0.00191169)
(4.02677 -0.070112 0.00189408)
(4.02758 -0.0703857 0.00187858)
(4.02835 -0.0705605 0.00186341)
(4.02909 -0.0706522 0.0018626)
(4.02981 -0.0706737 0.00188132)
(4.0305 -0.0706369 0.00190964)
(4.03118 -0.0705521 0.0019514)
(4.03184 -0.0704272 0.0020094)
(4.03248 -0.0702687 0.00207105)
(4.03311 -0.0700833 0.00213528)
(4.03374 -0.0698759 0.00220943)
(4.03435 -0.0696507 0.00228669)
(4.03496 -0.0694112 0.00235958)
(4.03556 -0.0691609 0.00242917)
(4.03616 -0.0689023 0.00249507)
(4.03676 -0.0686376 0.00255948)
(4.03735 -0.0683681 0.00262031)
(4.03794 -0.0680958 0.00266924)
(4.03853 -0.0678222 0.00271364)
(4.03912 -0.0675481 0.00275814)
(4.03971 -0.0672743 0.00279125)
(4.04031 -0.0670019 0.00281586)
(4.0409 -0.0667307 0.00284004)
(4.0415 -0.0664608 0.0028644)
(4.0421 -0.0661924 0.00288785)
(4.0427 -0.0659265 0.0028974)
(4.0433 -0.065664 0.00289474)
(4.04391 -0.0654049 0.00289644)
(4.04452 -0.0651489 0.00290448)
(4.04514 -0.064896 0.0029187)
(4.04576 -0.0646462 0.00292973)
(4.04638 -0.0643999 0.00293925)
(4.04701 -0.0641572 0.0029524)
(4.04764 -0.0639174 0.00296217)
(4.04827 -0.0636806 0.00297626)
(4.04891 -0.0634476 0.00299417)
(4.04953 -0.0632216 0.00300015)
(4.05011 -0.0630105 0.00298313)
(4.05069 -0.0628398 0.00296595)
(3.99793 0.00102115 0.000164727)
(3.99505 0.00120817 0.00036992)
(3.99581 0.00452307 0.000884333)
(3.99828 0.0103711 0.00154485)
(4.00075 0.017343 0.00200974)
(4.00315 0.0245586 0.00215551)
(4.00553 0.0314619 0.00209604)
(4.00781 0.0377586 0.00197859)
(4.00994 0.0433414 0.00185505)
(4.01191 0.0482018 0.00175737)
(4.01372 0.0523751 0.00171088)
(4.01539 0.0559201 0.00171099)
(4.01693 0.0589068 0.00173029)
(4.01835 0.0614047 0.00175695)
(4.01966 0.0634781 0.00180566)
(4.02088 0.0651856 0.00186175)
(4.02202 0.0665786 0.00189997)
(4.02309 0.0677026 0.00190948)
(4.02409 0.0685971 0.00189899)
(4.02503 0.0692969 0.0018903)
(4.02592 0.0698317 0.00188631)
(4.02677 0.0702269 0.00188248)
(4.02757 0.0705041 0.00187767)
(4.02835 0.0706815 0.00187411)
(4.02909 0.0707755 0.00188325)
(4.02981 0.0708001 0.0019062)
(4.0305 0.070766 0.00193822)
(4.03118 0.070683 0.00198701)
(4.03184 0.0705598 0.00204994)
(4.03248 0.0704039 0.00211253)
(4.03311 0.0702209 0.0021777)
(4.03374 0.070016 0.00225273)
(4.03435 0.0697937 0.00232836)
(4.03496 0.0695576 0.00239739)
(4.03556 0.0693108 0.0024621)
(4.03616 0.0690556 0.00252353)
(4.03676 0.0687945 0.00258214)
(4.03735 0.0685297 0.00263211)
(4.03794 0.0682625 0.00266857)
(4.03853 0.0679938 0.00270196)
(4.03912 0.0677251 0.00273382)
(4.03971 0.067457 0.00275445)
(4.04031 0.0671899 0.00276974)
(4.0409 0.0669243 0.00278763)
(4.0415 0.0666607 0.00280797)
(4.0421 0.0663998 0.00282735)
(4.0427 0.0661413 0.00283663)
(4.0433 0.0658848 0.00284289)
(4.04391 0.0656306 0.00286115)
(4.04452 0.0653793 0.00288877)
(4.04513 0.0651312 0.00292444)
(4.04575 0.064886 0.00295942)
(4.04637 0.0646436 0.0029973)
(4.047 0.0644041 0.00304198)
(4.04763 0.0641678 0.0030835)
(4.04827 0.0639349 0.0031281)
(4.0489 0.0637067 0.00317415)
(4.04953 0.0634856 0.00320817)
(4.05011 0.0632787 0.00321972)
(4.05069 0.0631071 0.00323039)
(3.99816 0.0016426 9.1292e-05)
(3.99613 -0.00886193 0.000116042)
(3.9991 -0.0201152 0.000286798)
(4.00298 -0.0300708 0.000452793)
(4.00594 -0.0383767 0.000425836)
(4.00826 -0.0449796 0.000209931)
(4.01022 -0.0502416 -5.93851e-05)
(4.01193 -0.0545036 -0.000283977)
(4.01344 -0.0579727 -0.000465655)
(4.01481 -0.0607941 -0.000617269)
(4.01606 -0.0630902 -0.000700337)
(4.01723 -0.0649561 -0.000709773)
(4.01832 -0.0664649 -0.000683371)
(4.01936 -0.0676761 -0.000637219)
(4.02034 -0.0686381 -0.000557801)
(4.02127 -0.0693907 -0.000464805)
(4.02216 -0.0699678 -0.000381209)
(4.02301 -0.0703983 -0.000314282)
(4.02382 -0.0707054 -0.000258265)
(4.0246 -0.0709079 -0.000199391)
(4.02536 -0.0710223 -0.000139155)
(4.02609 -0.0710632 -8.20195e-05)
(4.0268 -0.0710427 -2.84802e-05)
(4.02749 -0.0709714 2.41139e-05)
(4.02816 -0.0708573 8.23014e-05)
(4.02882 -0.0707075 0.000143233)
(4.02946 -0.070529 0.000207659)
(4.0301 -0.0703275 0.000285943)
(4.03072 -0.070107 0.000371094)
(4.03133 -0.0698716 0.000448676)
(4.03194 -0.0696247 0.000524631)
(4.03254 -0.0693691 0.000605824)
(4.03314 -0.0691073 0.000683733)
(4.03373 -0.0688416 0.000753318)
(4.03432 -0.0685737 0.000817612)
(4.03491 -0.0683051 0.000880219)
(4.03549 -0.0680369 0.000941177)
(4.03608 -0.0677696 0.000991007)
(4.03667 -0.0675042 0.00102835)
(4.03725 -0.0672413 0.00106475)
(4.03784 -0.0669809 0.00109772)
(4.03843 -0.0667238 0.00112081)
(4.03902 -0.0664702 0.00114132)
(4.03961 -0.0662203 0.00116598)
(4.0402 -0.0659738 0.00119315)
(4.0408 -0.0657304 0.00121433)
(4.0414 -0.0654901 0.00122382)
(4.04201 -0.065253 0.00123278)
(4.04261 -0.0650188 0.00125408)
(4.04323 -0.064787 0.0012814)
(4.04384 -0.0645575 0.00131152)
(4.04446 -0.0643308 0.00133972)
(4.04508 -0.0641069 0.0013706)
(4.04571 -0.0638854 0.00140639)
(4.04634 -0.0636666 0.0014391)
(4.04697 -0.0634496 0.00147424)
(4.04761 -0.063232 0.00150664)
(4.04824 -0.0630076 0.00152334)
(4.04884 -0.0627635 0.0015182)
(4.0495 -0.0624609 0.00151343)
(3.98981 0.0197015 0.00058792)
(3.98182 0.04072 0.00162035)
(3.98276 0.0575946 0.00287082)
(3.98642 0.0670471 0.0039131)
(3.99024 0.0718642 0.00455033)
(3.99387 0.0743797 0.00484005)
(3.99722 0.07556 0.00496642)
(4.00025 0.0759209 0.00507339)
(4.00298 0.0758242 0.00513188)
(4.00544 0.0754897 0.00511203)
(4.00766 0.0750354 0.0050766)
(4.00967 0.0745277 0.00504687)
(4.01149 0.0740032 0.00500118)
(4.01315 0.0734803 0.00494742)
(4.01467 0.0729691 0.00491099)
(4.01606 0.0724747 0.00487869)
(4.01735 0.0719977 0.00484379)
(4.01854 0.0715373 0.00481293)
(4.01964 0.0710932 0.00479225)
(4.02067 0.0706658 0.00478527)
(4.02164 0.0702546 0.00478685)
(4.02255 0.069858 0.0047949)
(4.02341 0.0694753 0.00480768)
(4.02423 0.0691056 0.00482615)
(4.02502 0.0687487 0.00485086)
(4.02577 0.0684043 0.00487302)
(4.02649 0.0680714 0.00489612)
(4.02719 0.067749 0.00493177)
(4.02787 0.0674368 0.00496958)
(4.02853 0.0671342 0.00499532)
(4.02917 0.0668406 0.00501571)
(4.0298 0.0665555 0.00503728)
(4.03043 0.066278 0.00505562)
(4.03104 0.0660071 0.00506941)
(4.03165 0.0657427 0.0050818)
(4.03225 0.0654839 0.00509941)
(4.03284 0.0652305 0.00512289)
(4.03344 0.0649825 0.00513976)
(4.03403 0.0647393 0.00515172)
(4.03462 0.0645009 0.00516971)
(4.03521 0.0642673 0.00518724)
(4.03579 0.064038 0.00520176)
(4.03638 0.0638128 0.00522009)
(4.03697 0.0635917 0.00524748)
(4.03757 0.0633744 0.00528215)
(4.03816 0.0631613 0.00531237)
(4.03876 0.0629504 0.00533525)
(4.03936 0.0627415 0.0053627)
(4.03996 0.0625349 0.0054042)
(4.04056 0.0623308 0.00545036)
(4.04117 0.0621295 0.00549518)
(4.04179 0.0619302 0.00553974)
(4.0424 0.0617329 0.0055884)
(4.04302 0.061538 0.00564074)
(4.04364 0.061345 0.00569294)
(4.04427 0.0611548 0.00575027)
(4.0449 0.060971 0.00580286)
(4.04553 0.0608044 0.00583678)
(4.04614 0.0606856 0.00585196)
(4.04661 0.0607506 0.00586729)
(4.00711 -0.104045 -0.0009425)
(4.00323 -0.133684 -0.00125284)
(4.00186 -0.134073 -0.00116926)
(4.00117 -0.129236 -0.00112608)
(4.00154 -0.123074 -0.0012502)
(4.00251 -0.116493 -0.00143674)
(4.00367 -0.110211 -0.00152812)
(4.00487 -0.104531 -0.00147338)
(4.00606 -0.0994935 -0.00138898)
(4.00719 -0.0950624 -0.00134599)
(4.00825 -0.0911847 -0.0012946)
(4.00924 -0.0878 -0.00123387)
(4.01015 -0.0848495 -0.00118894)
(4.01098 -0.0822791 -0.00114298)
(4.01175 -0.0800385 -0.00107462)
(4.01245 -0.0780832 -0.00100154)
(4.0131 -0.0763757 -0.000922768)
(4.0137 -0.0748828 -0.000824391)
(4.01424 -0.0735753 -0.000703256)
(4.01475 -0.0724268 -0.000568163)
(4.01522 -0.0714151 -0.000428992)
(4.01565 -0.0705218 -0.000286602)
(4.01605 -0.0697305 -0.00014507)
(4.01642 -0.0690273 -4.81543e-06)
(4.01677 -0.0683998 0.000130135)
(4.01709 -0.0678372 0.000246488)
(4.01739 -0.0673309 0.000350009)
(4.01768 -0.0668735 0.000454844)
(4.01794 -0.0664583 0.000550467)
(4.0182 -0.0660799 0.000623878)
(4.01844 -0.0657331 0.000682032)
(4.01867 -0.065414 0.000732413)
(4.01888 -0.0651194 0.000776453)
(4.01909 -0.0648463 0.000816635)
(4.01929 -0.064592 0.000855475)
(4.01948 -0.0643541 0.000901941)
(4.01966 -0.0641306 0.000957454)
(4.01984 -0.0639195 0.00100688)
(4.02001 -0.0637193 0.00105362)
(4.02018 -0.0635285 0.00110702)
(4.02034 -0.0633456 0.00115739)
(4.0205 -0.0631699 0.00120546)
(4.02065 -0.0630004 0.00125657)
(4.02081 -0.0628362 0.00131491)
(4.02095 -0.0626769 0.0013792)
(4.0211 -0.0625213 0.00143382)
(4.02124 -0.0623681 0.00147898)
(4.02139 -0.0622169 0.00152682)
(4.02153 -0.0620674 0.00158497)
(4.02167 -0.0619193 0.00164304)
(4.02181 -0.0617722 0.00169258)
(4.02194 -0.0616265 0.00174076)
(4.02208 -0.0614819 0.00179195)
(4.02222 -0.0613381 0.00184338)
(4.02235 -0.0611951 0.00189578)
(4.02249 -0.0610521 0.00195525)
(4.02262 -0.0609064 0.00200782)
(4.02277 -0.0607482 0.00203733)
(4.02295 -0.0605476 0.00204888)
(4.02311 -0.0600307 0.00206466)
(4.00456 0.295063 0.00216249)
(4.02906 0.228082 0.00288933)
(4.03225 0.190876 0.00312866)
(4.02771 0.165236 0.00306263)
(4.0221 0.146367 0.0028073)
(4.01621 0.132018 0.00253987)
(4.01009 0.120695 0.00240118)
(4.00392 0.111504 0.00238087)
(3.99779 0.103911 0.00233152)
(3.99173 0.0975629 0.00219636)
(3.98576 0.0922106 0.00204324)
(3.97988 0.0876701 0.00187741)
(3.97409 0.0838019 0.00168706)
(3.96838 0.0804956 0.00150482)
(3.96276 0.077663 0.00135425)
(3.95722 0.0752319 0.0012184)
(3.95176 0.0731421 0.00110449)
(3.94637 0.0713428 0.00103073)
(3.94105 0.0697913 0.000997751)
(3.93581 0.0684522 0.000987877)
(3.93064 0.0672948 0.000986868)
(3.92553 0.0662928 0.000993055)
(3.92048 0.065424 0.000999661)
(3.91549 0.064669 0.00100529)
(3.91057 0.0640115 0.00100346)
(3.9057 0.0634376 0.000976742)
(3.90088 0.0629353 0.000932028)
(3.89612 0.062494 0.000885634)
(3.89142 0.0621047 0.000827689)
(3.88676 0.0617598 0.000746747)
(3.88215 0.0614528 0.000651071)
(3.87759 0.0611779 0.000550226)
(3.87308 0.0609301 0.000450435)
(3.8686 0.0607051 0.000356782)
(3.86418 0.0604995 0.000271029)
(3.85979 0.0603101 0.000202969)
(3.85545 0.0601343 0.00015341)
(3.85115 0.0599702 0.000104435)
(3.84688 0.0598159 5.98445e-05)
(3.84265 0.0596698 2.7277e-05)
(3.83846 0.0595309 -5.5768e-06)
(3.83431 0.0593978 -3.6374e-05)
(3.83018 0.0592697 -6.13032e-05)
(3.8261 0.0591457 -7.73301e-05)
(3.82204 0.0590251 -8.64027e-05)
(3.81802 0.0589077 -0.00010862)
(3.81403 0.0587921 -0.000140429)
(3.81006 0.0586777 -0.000168327)
(3.80613 0.058564 -0.000185165)
(3.80223 0.0584506 -0.000202097)
(3.79835 0.0583377 -0.000229746)
(3.7945 0.0582247 -0.000256888)
(3.79067 0.0581115 -0.000279259)
(3.78688 0.0579982 -0.000301919)
(3.7831 0.0578846 -0.000321816)
(3.77936 0.057771 -0.000332327)
(3.77564 0.0576586 -0.000350607)
(3.77196 0.0575523 -0.000394683)
(3.76841 0.0574661 -0.000453908)
(3.76452 0.0575971 -0.000498074)
(4.0045 -0.295181 0.000526728)
(4.02897 -0.228227 0.000596092)
(4.03216 -0.191013 0.000795789)
(4.02761 -0.165369 0.000848576)
(4.02202 -0.146507 0.000780826)
(4.01615 -0.132174 0.000891867)
(4.01004 -0.120875 0.00109532)
(4.00387 -0.111706 0.00116612)
(3.99774 -0.10413 0.00111647)
(3.99169 -0.0977949 0.00104752)
(3.98573 -0.09245 0.000900985)
(3.97985 -0.0879127 0.000646075)
(3.97406 -0.0840446 0.00036885)
(3.96837 -0.0807372 0.000136347)
(3.96275 -0.0779033 -3.17227e-05)
(3.95722 -0.0754709 -0.000157164)
(3.95176 -0.0733806 -0.000249611)
(3.94638 -0.071583 -0.000278212)
(3.94107 -0.0700361 -0.000248667)
(3.93583 -0.0687029 -0.00020571)
(3.93065 -0.0675521 -0.000167815)
(3.92554 -0.0665578 -0.000111716)
(3.9205 -0.0656977 -3.44584e-05)
(3.91551 -0.0649519 2.06638e-05)
(3.91058 -0.0643031 4.40505e-05)
(3.90571 -0.0637376 6.40843e-05)
(3.9009 -0.0632433 7.4783e-05)
(3.89614 -0.0628095 6.10084e-05)
(3.89143 -0.0624274 3.86642e-05)
(3.88677 -0.0620894 1.89272e-05)
(3.88217 -0.0617893 -2.82268e-06)
(3.87761 -0.0615212 -2.31112e-05)
(3.87309 -0.0612804 -3.89647e-05)
(3.86862 -0.0610629 -5.67936e-05)
(3.86419 -0.0608651 -7.97934e-05)
(3.85981 -0.0606839 -0.000104087)
(3.85547 -0.0605171 -0.0001193)
(3.85116 -0.0603623 -0.000121558)
(3.8469 -0.0602176 -0.000125776)
(3.84267 -0.0600805 -0.000140039)
(3.83848 -0.0599493 -0.000159446)
(3.83432 -0.0598228 -0.000189214)
(3.8302 -0.0596999 -0.000234393)
(3.82611 -0.0595799 -0.000285244)
(3.82206 -0.0594622 -0.000328333)
(3.81803 -0.0593464 -0.000366178)
(3.81404 -0.0592318 -0.000416236)
(3.81008 -0.059118 -0.000489105)
(3.80614 -0.0590045 -0.000570962)
(3.80224 -0.0588912 -0.000649179)
(3.79836 -0.0587777 -0.000735416)
(3.79451 -0.058664 -0.000827287)
(3.79069 -0.0585499 -0.000931799)
(3.78689 -0.0584351 -0.00105064)
(3.78312 -0.05832 -0.0011616)
(3.77937 -0.0582049 -0.00125403)
(3.77565 -0.0580907 -0.00134171)
(3.77197 -0.0579819 -0.00145664)
(3.76842 -0.057892 -0.00159418)
(3.76452 -0.0580205 -0.00171203)
(4.00712 0.103951 0.00124966)
(4.00324 0.133624 0.00208517)
(4.00185 0.1341 0.00289754)
(4.00113 0.129353 0.00330844)
(4.00149 0.123251 0.00338052)
(4.00247 0.11669 0.0034299)
(4.00363 0.110402 0.00348307)
(4.00482 0.104715 0.00343502)
(4.00601 0.0996759 0.00332136)
(4.00714 0.095249 0.00323616)
(4.0082 0.0913811 0.00312395)
(4.00919 0.0880116 0.00294135)
(4.0101 0.0850777 0.00274838)
(4.01094 0.082522 0.00259609)
(4.01171 0.0802939 0.00249769)
(4.01242 0.0783496 0.00243324)
(4.01307 0.0766501 0.00239227)
(4.01367 0.0751606 0.0023971)
(4.01422 0.0738524 0.00244478)
(4.01473 0.0727027 0.002506)
(4.01519 0.0716906 0.00257025)
(4.01563 0.070797 0.00265702)
(4.01603 0.0700053 0.00276806)
(4.0164 0.0693031 0.00286905)
(4.01674 0.068679 0.00295577)
(4.01707 0.0681221 0.00305093)
(4.01737 0.0676229 0.00314531)
(4.01765 0.0671743 0.00322611)
(4.01792 0.0667693 0.00330683)
(4.01817 0.0664014 0.00339335)
(4.01841 0.0660656 0.00348026)
(4.01863 0.0657578 0.00357183)
(4.01885 0.0654743 0.00367047)
(4.01905 0.0652117 0.00377018)
(4.01925 0.0649674 0.0038683)
(4.01944 0.064739 0.00396743)
(4.01962 0.0645241 0.00407697)
(4.0198 0.064321 0.00420101)
(4.01996 0.0641279 0.00432573)
(4.02013 0.0639423 0.00444512)
(4.02029 0.0637634 0.00456436)
(4.02045 0.0635901 0.00467631)
(4.0206 0.0634218 0.00477618)
(4.02075 0.0632578 0.00487287)
(4.0209 0.0630973 0.00497742)
(4.02105 0.0629399 0.00508838)
(4.02119 0.0627851 0.00518853)
(4.02133 0.0626327 0.0052679)
(4.02147 0.0624824 0.00533997)
(4.02161 0.0623338 0.00541531)
(4.02175 0.062187 0.00548522)
(4.02189 0.0620414 0.00554928)
(4.02202 0.0618969 0.00560084)
(4.02216 0.0617535 0.00563966)
(4.0223 0.0616102 0.00568233)
(4.02243 0.0614662 0.00573911)
(4.02257 0.0613198 0.00579978)
(4.02271 0.0611616 0.00583563)
(4.02288 0.060962 0.00584636)
(4.02304 0.0604533 0.00585037)
(3.98982 -0.0197114 -9.10971e-05)
(3.98185 -0.0407441 0.000375915)
(3.98279 -0.0576266 0.00131767)
(3.98642 -0.0670584 0.002202)
(3.99021 -0.0718504 0.00280522)
(3.99383 -0.0743585 0.0032286)
(3.99717 -0.0755437 0.00354794)
(4.0002 -0.07591 0.00371287)
(4.00293 -0.0758123 0.00376337)
(4.00539 -0.0754699 0.00380851)
(4.00761 -0.0750014 0.003816)
(4.00962 -0.0744734 0.00374455)
(4.01144 -0.0739269 0.00364348)
(4.01311 -0.0733844 0.00356369)
(4.01463 -0.072857 0.00352471)
(4.01602 -0.0723492 0.00351239)
(4.01731 -0.0718635 0.00351437)
(4.0185 -0.0714012 0.00354083)
(4.01961 -0.0709613 0.00359098)
(4.02064 -0.0705401 0.00365397)
(4.02161 -0.0701355 0.00372652)
(4.02253 -0.069747 0.00381949)
(4.02339 -0.0693739 0.0039302)
(4.02421 -0.0690136 0.00403487)
(4.02499 -0.0686642 0.0041369)
(4.02575 -0.0683257 0.00425179)
(4.02647 -0.0679975 0.00436669)
(4.02717 -0.0676783 0.00447385)
(4.02785 -0.0673679 0.00458444)
(4.02851 -0.0670665 0.00469719)
(4.02915 -0.0667735 0.00480652)
(4.02979 -0.0664882 0.00491835)
(4.03041 -0.0662105 0.00503338)
(4.03102 -0.0659399 0.00514575)
(4.03163 -0.065676 0.00525395)
(4.03223 -0.0654185 0.00535917)
(4.03282 -0.0651674 0.00546901)
(4.03342 -0.0649225 0.00558655)
(4.03401 -0.0646831 0.00569879)
(4.0346 -0.0644468 0.00580358)
(4.03519 -0.0642135 0.00590686)
(4.03577 -0.0639837 0.00599913)
(4.03636 -0.0637569 0.0060774)
(4.03695 -0.0635332 0.00615085)
(4.03754 -0.0633127 0.00622792)
(4.03814 -0.0630951 0.00630867)
(4.03873 -0.0628804 0.00637641)
(4.03933 -0.062668 0.00642393)
(4.03993 -0.0624576 0.00646652)
(4.04053 -0.0622494 0.00651292)
(4.04114 -0.062043 0.00655845)
(4.04174 -0.0618386 0.00659901)
(4.04236 -0.061636 0.00662986)
(4.04297 -0.0614349 0.00665346)
(4.04359 -0.0612364 0.00667869)
(4.04422 -0.0610414 0.00671535)
(4.04484 -0.0608525 0.0067573)
(4.04546 -0.0606796 0.00678005)
(4.04607 -0.0605537 0.00677895)
(4.04654 -0.0606162 0.00677087)
(3.99816 -0.00164828 0.000265952)
(3.99613 0.00881487 0.000618794)
(3.99911 0.0200319 0.00111497)
(4.00298 0.0299832 0.00155795)
(4.00592 0.0382971 0.00174551)
(4.00822 0.0449001 0.00172038)
(4.01018 0.0501541 0.00160538)
(4.01189 0.0544074 0.00143799)
(4.01341 0.0578745 0.00126227)
(4.01478 0.060702 0.00114276)
(4.01604 0.0630118 0.00105907)
(4.0172 0.0648978 0.000973313)
(4.0183 0.0664297 0.000901113)
(4.01934 0.0676638 0.000864045)
(4.02032 0.0686476 0.000871268)
(4.02125 0.0694208 0.000903917)
(4.02214 0.0700157 0.000939059)
(4.02299 0.070459 0.000970031)
(4.0238 0.0707747 0.000996834)
(4.02459 0.0709846 0.0010261)
(4.02534 0.0711059 0.00106037)
(4.02607 0.0711522 0.00110318)
(4.02678 0.0711358 0.00115097)
(4.02747 0.0710684 0.00119344)
(4.02815 0.0709594 0.00124221)
(4.0288 0.0708157 0.00130733)
(4.02945 0.0706438 0.00137611)
(4.03008 0.07045 0.00144755)
(4.0307 0.0702383 0.00152958)
(4.03132 0.0700119 0.00161445)
(4.03192 0.0697743 0.00169815)
(4.03253 0.0695285 0.00178785)
(4.03312 0.0692764 0.00188097)
(4.03371 0.0690197 0.00197107)
(4.0343 0.0687603 0.00205806)
(4.03489 0.0684995 0.00214189)
(4.03548 0.068238 0.00222759)
(4.03606 0.0679764 0.0023162)
(4.03665 0.0677158 0.00239663)
(4.03723 0.0674566 0.00247188)
(4.03782 0.0671992 0.00254812)
(4.0384 0.0669439 0.00261414)
(4.03899 0.0666913 0.00266962)
(4.03959 0.0664418 0.0027231)
(4.04018 0.0661951 0.00277833)
(4.04078 0.0659507 0.00283527)
(4.04138 0.0657089 0.00287841)
(4.04198 0.0654705 0.0029046)
(4.04259 0.0652355 0.00293064)
(4.0432 0.0650036 0.00296263)
(4.04381 0.0647749 0.00299928)
(4.04443 0.0645492 0.00303313)
(4.04505 0.0643267 0.00306261)
(4.04568 0.0641075 0.00309228)
(4.04631 0.0638903 0.00312216)
(4.04694 0.0636746 0.0031612)
(4.04758 0.0634589 0.00320693)
(4.04821 0.063238 0.0032392)
(4.04881 0.062999 0.00324813)
(4.04947 0.0627061 0.00325188)
(3.99793 -0.00102251 0.000186305)
(3.99506 -0.00121017 0.000370403)
(3.99583 -0.0045106 0.00083958)
(3.99829 -0.010325 0.00145989)
(4.00074 -0.01726 0.00189504)
(4.00311 -0.024452 0.00203494)
(4.00548 -0.0313451 0.00198739)
(4.00777 -0.0376356 0.00185733)
(4.0099 -0.0432137 0.00171093)
(4.01187 -0.0480688 0.00161213)
(4.01369 -0.0522361 0.0015622)
(4.01536 -0.0557743 0.00153706)
(4.0169 -0.0587549 0.00152561)
(4.01833 -0.0612485 0.00152823)
(4.01965 -0.0633197 0.00155642)
(4.02087 -0.0650266 0.00159533)
(4.02201 -0.0664211 0.00162011)
(4.02307 -0.0675489 0.00161963)
(4.02407 -0.068449 0.00160045)
(4.02501 -0.0691546 0.00158275)
(4.02591 -0.0696952 0.00157178)
(4.02675 -0.0700964 0.00156548)
(4.02756 -0.0703796 0.00156098)
(4.02833 -0.0705626 0.00155646)
(4.02908 -0.0706613 0.00156593)
(4.0298 -0.0706896 0.00159457)
(4.03049 -0.0706587 0.00163243)
(4.03117 -0.0705779 0.00168339)
(4.03183 -0.0704563 0.00175024)
(4.03247 -0.0703014 0.0018204)
(4.03311 -0.0701189 0.00189281)
(4.03373 -0.0699139 0.00197482)
(4.03434 -0.0696912 0.00205964)
(4.03495 -0.0694547 0.00213979)
(4.03555 -0.0692072 0.00221635)
(4.03615 -0.0689514 0.00228893)
(4.03675 -0.0686898 0.00235976)
(4.03734 -0.0684248 0.00242673)
(4.03793 -0.0681573 0.00248157)
(4.03852 -0.0678882 0.00253162)
(4.03911 -0.0676186 0.00258154)
(4.0397 -0.0673492 0.00261986)
(4.04029 -0.0670804 0.00264946)
(4.04089 -0.0668129 0.00267843)
(4.04148 -0.0665475 0.0027074)
(4.04208 -0.066284 0.00273528)
(4.04268 -0.0660225 0.00274909)
(4.04329 -0.0657627 0.00275054)
(4.0439 -0.0655048 0.00275618)
(4.04451 -0.0652495 0.00276803)
(4.04513 -0.0649968 0.00278592)
(4.04574 -0.064747 0.0028005)
(4.04637 -0.0644996 0.00281344)
(4.04699 -0.0642548 0.0028299)
(4.04763 -0.0640132 0.00284288)
(4.04826 -0.0637753 0.00286006)
(4.04889 -0.0635418 0.00288098)
(4.04952 -0.063315 0.00288985)
(4.0501 -0.0631028 0.00287563)
(4.05068 -0.0629305 0.00286108)
(3.99793 0.00101712 0.000164038)
(3.99506 0.00119805 0.000314469)
(3.99583 0.00449351 0.000753161)
(3.9983 0.0103052 0.00133566)
(4.00074 0.0172407 0.00173072)
(4.00311 0.0244328 0.00182102)
(4.00549 0.031328 0.00172089)
(4.00777 0.0376305 0.00157552)
(4.0099 0.0432243 0.00143439)
(4.01188 0.0480915 0.00132727)
(4.01369 0.0522725 0.00127761)
(4.01537 0.0558291 0.00127929)
(4.01691 0.0588282 0.00130363)
(4.01833 0.0613375 0.00133784)
(4.01965 0.0634219 0.00139586)
(4.02087 0.0651395 0.00146247)
(4.02201 0.0665424 0.00151193)
(4.02307 0.0676764 0.00153307)
(4.02407 0.0685812 0.00153434)
(4.02501 0.0692907 0.00153737)
(4.0259 0.0698341 0.00154495)
(4.02675 0.0702366 0.00155244)
(4.02756 0.0705203 0.00155864)
(4.02833 0.0707039 0.00156576)
(4.02908 0.0708028 0.00158521)
(4.02979 0.0708304 0.00161811)
(4.03049 0.0707988 0.00165973)