/*--------------------------------*- C++ -*----------------------------------*\
  =========                 |
  \\      /  F ield         | OpenFOAM: The Open Source CFD Toolbox
   \\    /   O peration     | Website:  https://openfoam.org
    \\  /    A nd           | Version:  8
     \\/     M anipulation  |
\*---------------------------------------------------------------------------*/
FoamFile
{
    version     2.0;
    format      ascii;
    class       volScalarField;
    location    "300";
    object      alphat;
}
// * * * * * * * * * * * * * * * * * * * * * * * * * * * * * * * * * * * * * //

dimensions      [1 -1 -1 0 0 0 0];

internalField   nonuniform List<scalar> 
1200
(
0.00939635
0.00928314
0.00914873
0.0090108
0.00886724
0.00848096
0.00808554
0.00803128
0.00862832
0.00947384
0.0103097
0.0111247
0.0118993
0.0126818
0.0134024
0.0138045
0.014227
0.0147086
0.0153458
0.00601319
0.00602707
0.0060758
0.00608635
0.00659952
0.00838615
0.00767505
0.00721552
0.0068395
0.00659417
0.0064984
0.00647521
0.00666113
0.00722816
0.00774555
0.00805033
0.00842863
0.00898491
0.00966199
0.0104076
0.0112219
0.0120983
0.0130246
0.0139864
0.0149984
0.0160746
0.0171781
0.0182392
0.0195254
0.0220931
0.0254667
0.0271596
0.0269232
0.0326462
0.0416817
0.0438854
0.045378
0.0465407
0.047518
0.0483268
0.0488771
0.00731404
0.00634076
0.00550898
0.00482831
0.00428385
0.00378424
0.0038909
0.00476546
0.00773696
0.00957505
0.00953984
0.00931501
0.00880974
0.00817453
0.00786584
0.00764594
0.00776749
0.00856368
0.00937239
0.00975011
0.00997529
0.010348
0.0121078
0.0157131
0.0157054
0.0144654
0.0151451
0.0158247
0.00379841
0.00402741
0.00426067
0.00454681
0.00490219
0.00532571
0.00583958
0.00645938
0.00719356
0.00801403
0.00894004
0.0099027
0.0108838
0.0118817
0.0129017
0.0139494
0.0150283
0.0161363
0.0172681
0.0184161
0.0195785
0.0207339
0.0218403
0.0228583
0.0243225
0.0259778
0.0266776
0.0272589
0.0278563
0.0284974
0.0291821
0.0299265
0.00730438
0.00627668
0.00538043
0.00460857
0.00396129
0.0045407
0.00616596
0.00743736
0.00778373
0.00700073
0.00534684
0.00412031
0.00439224
0.00538544
0.00629114
0.00640586
0.00655536
0.00711593
0.00873637
0.00986047
0.0108748
0.0120183
0.0132834
0.0152382
0.0150303
0.0160952
0.00393833
0.00428463
0.00461744
0.00498637
0.00537978
0.00579878
0.00629015
0.00682147
0.00737519
0.00794487
0.00852933
0.00916519
0.00986509
0.0106321
0.011444
0.012291
0.0131686
0.0140753
0.0150114
0.015976
0.0169653
0.0179725
0.0189919
0.0200164
0.0210158
0.0218975
0.0224772
0.0222306
0.0207185
0.0188845
0.0189103
0.0212979
0.0245396
0.0279383
0.00730285
0.00628265
0.0053911
0.00463413
0.0039759
0.00381633
0.00490734
0.0066955
0.0069962
0.00549335
0.00509715
0.00507215
0.0051982
0.00625961
0.00743008
0.00780345
0.00827553
0.00884198
0.00941223
0.00985665
0.0103514
0.011443
0.0130565
0.0142485
0.0145239
0.0154457
0.003849
0.00422914
0.00456169
0.00484287
0.00514346
0.00546908
0.0058057
0.0061508
0.00652879
0.00698966
0.00759092
0.00829831
0.00902096
0.00975657
0.0105113
0.0112909
0.0121023
0.0129425
0.0138139
0.0147168
0.015643
0.0165802
0.0175204
0.0184699
0.0193904
0.0200472
0.0199775
0.0184327
0.0153184
0.0140027
0.0161813
0.0191979
0.0230795
0.0274595
0.00730456
0.00628839
0.00541159
0.00466188
0.00401339
0.00359644
0.00384166
0.00506156
0.0057606
0.00497037
0.00483166
0.00457751
0.00424586
0.00516159
0.00707477
0.0083597
0.00889878
0.00933234
0.00968772
0.0100829
0.0105496
0.0111918
0.0123192
0.0135053
0.0140067
0.0146353
0.0152109
0.0160574
0.0165808
0.0162496
0.00397815
0.0042054
0.00429414
0.00429744
0.00416068
0.00448678
0.00594291
0.00697789
0.00777845
0.00849747
0.00919097
0.00988771
0.0106233
0.0113876
0.012195
0.0130608
0.0139768
0.0149261
0.0158962
0.0169033
0.0178637
0.0184313
0.0180386
0.0158355
0.00900313
0.0102556
0.0103905
0.0111032
0.0137787
0.0217775
0.00731045
0.00630012
0.00542531
0.00467854
0.00403861
0.00354252
0.00337468
0.00391038
0.00442237
0.00419336
0.00388001
0.00352084
0.0032863
0.0030386
0.00341318
0.00571945
0.00779809
0.00860584
0.00888619
0.00877533
0.00844701
0.0083447
0.00913241
0.0129472
0.0135715
0.0139928
0.0143657
0.0143842
0.0140192
0.0134156
0.0135367
0.0139604
0.0138113
0.0131981
0.01251
0.0133046
0.00404523
0.00509159
0.00612042
0.00697343
0.00764864
0.00825459
0.00893398
0.00958413
0.0102447
0.0110094
0.0118844
0.0128525
0.0138488
0.0150999
0.0164534
0.0173025
0.0170867
0.0147282
0.0127421
0.0118504
0.0112375
0.0106734
0.010018
0.0091038
0.00730764
0.0063035
0.00544242
0.00470037
0.00406547
0.00354317
0.00321105
0.00324343
0.00342489
0.00331719
0.00314974
0.00294353
0.00272448
0.00249619
0.00233317
0.00241323
0.00262904
0.00411226
0.00581789
0.00688488
0.00734434
0.00727914
0.00685309
0.0102669
0.0125612
0.0133243
0.0136912
0.013631
0.0133827
0.0131305
0.0129345
0.0127614
0.0124456
0.0119819
0.0114788
0.0112683
0.0124246
0.00382054
0.00453336
0.00525657
0.00597288
0.00664337
0.00723041
0.00776443
0.00830098
0.00890458
0.00961697
0.0104467
0.0113762
0.0126926
0.0144337
0.0158427
0.0160331
0.0148699
0.0140279
0.0132302
0.0125041
0.0118581
0.0112675
0.0107026
0.00731076
0.00630618
0.00544882
0.00472523
0.00410182
0.00357145
0.00317036
0.00296281
0.00287838
0.00273507
0.00258179
0.00241359
0.00224574
0.00209776
0.00196711
0.00187035
0.00182758
0.00215179
0.00286523
0.00355263
0.00382971
0.00396871
0.00410633
0.00567578
0.00890467
0.0110208
0.0120016
0.0122381
0.0121343
0.0119815
0.0118969
0.0118273
0.0117008
0.0115023
0.011246
0.0109792
0.0109746
0.0119367
0.0142147
0.00395155
0.00442136
0.00493731
0.00543108
0.0059042
0.00636759
0.00684895
0.00738542
0.00800796
0.00879867
0.00995044
0.0117142
0.0134755
0.0141944
0.0138889
0.0134273
0.0128716
0.0123099
0.0117788
0.0112914
0.0108602
0.00732039
0.00634245
0.0055127
0.00480772
0.00421767
0.00370363
0.00327749
0.00295759
0.0027396
0.00256348
0.00241333
0.00228324
0.00217582
0.00209964
0.00205248
0.00200938
0.00195634
0.00193691
0.00201617
0.00210596
0.00210828
0.00230228
0.00220303
0.00272601
0.00460415
0.00674546
0.00814634
0.00873446
0.00883804
0.00879966
0.0088093
0.00883958
0.00884639
0.00881981
0.00880128
0.00884598
0.00898545
0.00931577
0.0100069
0.0111136
0.0127678
0.0149643
0.00392988
0.00421033
0.00451384
0.00484124
0.0052091
0.00564567
0.00622728
0.00710359
0.00851262
0.0101721
0.0111099
0.0111818
0.0109476
0.0107012
0.0104654
0.0102431
0.0100262
0.00980011
0.00940256
0.00930557
0.00919026
0.00905765
0.00886376
0.00859223
0.00833192
0.00805506
0.00790646
0.00800898
0.00823891
0.00853735
0.00888382
0.00928186
0.00970607
0.010071
0.0103776
0.010663
0.0108492
0.0110949
0.011638
0.0122414
0.0127241
0.0123718
0.0119689
0.0120274
0.0124643
0.0131079
0.013903
0.0147592
0.0155967
0.00618684
0.00628665
0.00640081
0.00652827
0.00664324
0.00672391
0.00678375
0.0068461
0.00693816
0.00707288
0.00725546
0.0074801
0.00774177
0.00803876
0.00836946
0.00873577
0.00914592
0.00962863
0.0102755
0.0113193
0.0128249
0.0141231
0.0149468
0.0156038
0.016245
0.0168706
0.0174803
0.0180742
0.0186568
0.00940084
0.00927445
0.00913911
0.00902034
0.00889895
0.0085569
0.0081473
0.00805367
0.00861285
0.00943993
0.0102781
0.0110981
0.0118739
0.0126552
0.0133817
0.0137944
0.0142102
0.0146954
0.0153406
0.0155905
0.0156467
0.00607736
0.00608841
0.00656871
0.0082745
0.00761109
0.00717206
0.00681405
0.00665746
0.00649348
0.00644425
0.00652505
0.00702496
0.00759347
0.00793545
0.00833503
0.00893862
0.00964839
0.0104232
0.0112556
0.0121449
0.0130851
0.0140553
0.0150768
0.0161607
0.0172699
0.0183294
0.0195324
0.0219938
0.0254259
0.0272702
0.0271204
0.0316619
0.0417538
0.044032
0.0455451
0.0466943
0.0476406
0.0484066
0.0489115
0.00731661
0.00634018
0.00550405
0.00481508
0.00425479
0.00372192
0.00383751
0.00470268
0.00765079
0.00953451
0.00950466
0.00928101
0.00876457
0.00813215
0.0078246
0.00760191
0.00772413
0.00851337
0.00932978
0.00971569
0.00994654
0.0103193
0.0120675
0.0156386
0.0156125
0.0143812
0.0150591
0.0157181
0.00376193
0.00399298
0.00422167
0.00450346
0.00486459
0.00530113
0.00583078
0.00646729
0.00720966
0.00804748
0.00897869
0.00994525
0.0109305
0.0119328
0.0129577
0.0140085
0.0150865
0.0161882
0.0173086
0.0184435
0.0195914
0.0207309
0.0218205
0.0228104
0.0241934
0.0259687
0.0266594
0.0272338
0.0278314
0.028479
0.0291688
0.0299193
0.00730317
0.00627465
0.00538038
0.00461413
0.00396186
0.00446625
0.0060847
0.00738208
0.00774229
0.00698822
0.00533072
0.00409913
0.00443544
0.00541582
0.00631099
0.00642352
0.00656617
0.00705365
0.00867973
0.00982777
0.0108458
0.0119829
0.0132375
0.0151341
0.0150324
0.0163235
0.00393333
0.0042886
0.00461894
0.00498026
0.00537398
0.00578907
0.0062807
0.00682291
0.00739095
0.00797072
0.00856479
0.00920418
0.00991202
0.0106844
0.0115013
0.0123527
0.0132347
0.0141456
0.0150846
0.0160497
0.0170365
0.0180383
0.019048
0.0200575
0.0210423
0.0219219
0.0225315
0.0224016
0.0209778
0.0192425
0.0191458
0.0214225
0.0246344
0.0279738
0.00730718
0.00628552
0.00539934
0.00464724
0.00398652
0.00380191
0.0048454
0.00664026
0.00697554
0.00552656
0.00512973
0.00509887
0.00522733
0.00629615
0.00746376
0.0078262
0.00829738
0.00887107
0.00945417
0.00991772
0.0104117
0.0112106
0.0129445
0.014142
0.0145245
0.0153606
0.00381827
0.0042198
0.00459281
0.00486699
0.00515312
0.00548435
0.0058282
0.00618082
0.00656455
0.0070331
0.00764032
0.00834525
0.00906978
0.00981166
0.0105715
0.0113555
0.0121721
0.0130154
0.0138877
0.014789
0.0157112
0.0166419
0.0175748
0.0185208
0.0194501
0.0201403
0.0201499
0.0187649
0.0158584
0.0142197
0.0164464
0.0194957
0.0233375
0.0275773
0.00730616
0.00629058
0.00541645
0.00466669
0.0040172
0.00359377
0.00381683
0.00501669
0.00573832
0.00497779
0.00486569
0.00459624
0.00426493
0.00520253
0.00711715
0.00838998
0.00892167
0.00935198
0.00970576
0.0101
0.0105752
0.0112322
0.0124109
0.0135594
0.0140448
0.0146246
0.015117
0.0157636
0.016093
0.0157877
0.00394675
0.00415887
0.00422858
0.00422391
0.00410773
0.00445767
0.00597101
0.00700296
0.00781205
0.00854895
0.00924805
0.00994846
0.0106924
0.0114592
0.0122678
0.0131317
0.0140403
0.0149758
0.0159339
0.016944
0.0179275
0.0185452
0.0182416
0.0161783
0.0089678
0.0101359
0.010201
0.0107298
0.0131
0.0210127
0.00731168
0.00630175
0.00542808
0.00467933
0.0040391
0.00353865
0.00336676
0.00388086
0.00440374
0.00418858
0.00389186
0.00352987
0.00331279
0.00305062
0.00345073
0.00579101
0.00785492
0.00864448
0.00891738
0.00880795
0.00847946
0.00837919
0.00918617
0.0130262
0.0136292
0.0140186
0.0143596
0.0143074
0.0139198
0.0133302
0.0134234
0.013764
0.0135603
0.0129513
0.0123448
0.0131674
0.00400978
0.00507032
0.0061019
0.00698292
0.00772147
0.00828961
0.00898379
0.00964601
0.0103099
0.0110754
0.0119445
0.0128876
0.0138419
0.015111
0.0164914
0.0174
0.0172913
0.015035
0.0129158
0.0119618
0.011338
0.010768
0.0101072
0.00905356
0.0073096
0.00630636
0.00544425
0.00469841
0.00406103
0.00353844
0.00320399
0.00323181
0.00341309
0.00331276
0.0031471
0.00293485
0.00271258
0.0024899
0.00232918
0.00240079
0.00265082
0.00420273
0.00590119
0.00694707
0.00740048
0.00733863
0.00690234
0.010349
0.0126384
0.0133719
0.013717
0.0136384
0.0133971
0.0131593
0.0129519
0.0127508
0.0124122
0.0119401
0.0114358
0.0112186
0.0123143
0.00380308
0.00449493
0.00521948
0.0059823
0.00668084
0.00731169
0.00784139
0.00836845
0.00896176
0.00966321
0.0104812
0.0114168
0.0127203
0.014441
0.0158954
0.0161932
0.0150417
0.0141713
0.0133482
0.0125973
0.0119207
0.0112842
0.0106587
0.00731005
0.00630766
0.00545273
0.00472726
0.0040943
0.00355942
0.00315989
0.00295374
0.00287588
0.00273829
0.00258724
0.00241766
0.00224848
0.00209922
0.00196981
0.00187626
0.00184271
0.00219727
0.00293677
0.0036297
0.00390288
0.00403516
0.00417034
0.00577445
0.00901237
0.0110841
0.0120273
0.0122437
0.0121342
0.0119866
0.0119117
0.0118444
0.0117155
0.0115133
0.0112515
0.0109743
0.0109464
0.0118698
0.014028
0.00392684
0.00440709
0.00492863
0.00543881
0.00592401
0.00639586
0.00688423
0.00742862
0.00805832
0.00885586
0.0100099
0.0117427
0.0135053
0.014293
0.0139971
0.0135217
0.0129424
0.0123474
0.0117782
0.0112535
0.0107966
0.00732264
0.00634662
0.00551602
0.00481261
0.00421975
0.00369499
0.00326106
0.00294413
0.00273444
0.00256517
0.00242
0.00229295
0.0021872
0.00211772
0.00207846
0.00203671
0.00198012
0.00195904
0.00204319
0.00214191
0.00211637
0.00227765
0.00219156
0.00280141
0.00471415
0.00681324
0.00816521
0.00871794
0.00880162
0.00875779
0.00877168
0.00880613
0.00881605
0.00879656
0.0087897
0.00884242
0.00898039
0.00929783
0.00995253
0.0110356
0.0126699
0.0148281
0.00392135
0.00420416
0.00450854
0.00483664
0.00520925
0.00565415
0.00624386
0.00713082
0.00854378
0.0102013
0.0111584
0.0112226
0.0109637
0.0106928
0.0104343
0.0101922
0.0099597
0.00972314
0.00939743
0.00929952
0.00918277
0.00903648
0.00884216
0.00857711
0.00830428
0.00799222
0.00783454
0.00795733
0.00820587
0.00851648
0.00890213
0.00935145
0.00980821
0.0101918
0.0104942
0.0106797
0.0108966
0.0111923
0.0117338
0.0122933
0.0127861
0.0123973
0.0119758
0.0120524
0.0124329
0.0130668
0.0138665
0.0147213
0.0155642
0.00615666
0.00625127
0.0063677
0.00649809
0.00661204
0.00668923
0.00674735
0.00681267
0.00690825
0.00704872
0.00723747
0.00746652
0.0077321
0.00803159
0.0083622
0.00872596
0.00913298
0.00961202
0.0102585
0.0113124
0.0128279
0.0141254
0.0149318
0.0155637
0.016181
0.0167844
0.0173744
0.0179512
0.0185218
)
;

boundaryField
{
    wall
    {
        type            compressible::alphatJayatillekeWallFunction;
        Prt             0.85;
        value           uniform 0;
    }
    inlet
    {
        type            calculated;
        value           uniform 0.189515;
    }
    outlet
    {
        type            calculated;
        value           nonuniform List<scalar> 
20
(
8.06525
8.06525
8.06525
8.06525
8.06525
0.00910385
0.0107026
0.0108602
0.00980017
0.0186569
8.06525
8.06525
8.06525
8.06525
8.06525
0.0090536
0.0106588
0.0107966
0.0097232
0.0185218
)
;
    }
    heatWall
    {
        type            compressible::alphatJayatillekeWallFunction;
        Prt             0.85;
        value           nonuniform List<scalar> 
240
(
0.000414061
0.000413886
0.000410849
0.0004106
0.000407061
0.000406721
0.000402504
0.000401817
0.000395787
0.000395054
0.000385602
0.000384996
0.000375211
0.000374151
0.000364512
0.000362676
0.00035947
0.000357761
0.000364004
0.000363163
0.000372866
0.000372485
0.000383757
0.000383671
0.000396845
0.000397693
0.000411833
0.000413847
0.000427153
0.000429729
0.000440233
0.000442829
0.000451356
0.000452995
0.000457773
0.000457431
0.000460806
0.000461427
0.000469127
0.000470029
0.000488022
0.000488348
0.000508149
0.000507788
0.000522307
0.000522572
0.000512188
0.000511846
0.000500128
0.000499487
0.000500997
0.00050075
0.00051393
0.000513507
0.000534068
0.000534238
0.000558722
0.000559474
0.000584751
0.000585811
0.000608886
0.00060904
0.000619445
0.000619227
0.00063148
0.000631557
0.000645611
0.000646187
0.000660722
0.000661671
0.00067379
0.000674947
0.000682793
0.000684275
0.000689882
0.000691664
0.000697937
0.000700075
0.000709242
0.000711556
0.000725366
0.000727684
0.000746691
0.000748843
0.000772415
0.000774241
0.00080215
0.000803559
0.000835526
0.000836395
0.000872271
0.000872426
0.000912659
0.000911978
0.000957772
0.000956265
0.00101093
0.0010086
0.0010835
0.00108095
0.00120381
0.00120232
0.0013727
0.00137221
0.00151028
0.00150953
0.00159744
0.00159457
0.001668
0.00166244
0.00173684
0.00172889
0.00180416
0.00179414
0.00187001
0.00185825
0.00193438
0.00192122
0.00199768
0.0019836
0.000413823
0.000413896
0.00041004
0.000409731
0.00040568
0.000405342
0.000401233
0.000401424
0.000396415
0.000397003
0.000382864
0.000384407
0.000368793
0.000369513
0.000365836
0.000366282
0.000387515
0.00038696
0.000417247
0.000416093
0.000445481
0.000444427
0.000472342
0.00047145
0.000497496
0.000496643
0.000522496
0.000521609
0.000544963
0.000544286
0.000557353
0.000556903
0.000570494
0.000569864
0.000585055
0.000584647
0.000604192
0.000603997
0.000607793
0.00060882
0.000608353
0.000609917
0.000613133
0.000613106
0.000613997
0.000614182
0.000678112
0.000674315
0.000892475
0.000879838
0.000806522
0.000798441
0.000750968
0.000745132
0.000702147
0.000699645
0.000662554
0.000668508
0.000679659
0.000670792
0.000675896
0.000666297
0.000710322
0.000690205
0.000772506
0.000750529
0.000822762
0.000807067
0.000854091
0.000841601
0.00089317
0.000883736
0.000949539
0.000945478
0.00102216
0.00102132
0.00110327
0.00110521
0.00119293
0.00119648
0.00129021
0.00129452
0.00139268
0.00139777
0.00149917
0.00150475
0.00161041
0.00161687
0.00172754
0.00173552
0.00184525
0.00185588
0.00195709
0.00196955
0.0021091
0.00211536
0.00241151
0.0024117
0.00277733
0.00278569
0.0029235
0.00294752
0.00289603
0.00291868
0.00365547
0.00356185
0.00449866
0.00450779
0.00472579
0.00474218
0.00488298
0.00490119
0.0050089
0.00502559
0.00511711
0.0051305
0.00520906
0.00521787
0.00527415
0.00527801
)
;
    }
}


// ************************************************************************* //
