/*--------------------------------*- C++ -*----------------------------------*\
  =========                 |
  \\      /  F ield         | OpenFOAM: The Open Source CFD Toolbox
   \\    /   O peration     | Website:  https://openfoam.org
    \\  /    A nd           | Version:  8
     \\/     M anipulation  |
\*---------------------------------------------------------------------------*/
FoamFile
{
    version     2.0;
    format      ascii;
    class       volScalarField;
    location    "300";
    object      epsilon;
}
// * * * * * * * * * * * * * * * * * * * * * * * * * * * * * * * * * * * * * //

dimensions      [0 2 -3 0 0 0 0];

internalField   nonuniform List<scalar> 
1200
(
5.35729e-06
5.26227e-06
5.15665e-06
5.05115e-06
4.93558e-06
4.61199e-06
4.28975e-06
4.20598e-06
4.70373e-06
5.44464e-06
6.20676e-06
6.99318e-06
7.78741e-06
8.6318e-06
9.43278e-06
9.88886e-06
1.03937e-05
1.09654e-05
1.17537e-05
3.06134e-05
3.06349e-05
3.12332e-05
3.13324e-05
4.1093e-05
8.79092e-05
6.62479e-05
5.43752e-05
4.50322e-05
3.79673e-05
4.22036e-05
4.15338e-05
4.82443e-05
6.02187e-05
7.07354e-05
7.80832e-05
8.79725e-05
0.000103567
0.000126832
0.000156943
0.000195721
0.000244833
0.000304962
0.000377419
0.000464596
0.000569921
0.000690224
0.00081905
0.00102741
0.00154372
0.00235105
0.00270615
0.00262851
0.00552684
0.0100188
0.0116176
0.0128295
0.0138708
0.0148176
0.015663
0.016288
5.38168e-06
4.66041e-06
4.04173e-06
3.53264e-06
3.11318e-06
2.81691e-06
2.87105e-06
3.5306e-06
5.70433e-06
7.01068e-06
6.9841e-06
6.82423e-06
6.4569e-06
5.98992e-06
5.76422e-06
5.60467e-06
5.69286e-06
6.27706e-06
6.86205e-06
7.13173e-06
7.29329e-06
7.56602e-06
8.853e-06
1.15027e-05
1.1537e-05
1.06375e-05
1.11226e-05
1.16186e-05
5.21193e-05
6.19506e-05
7.36073e-05
8.94458e-05
0.000110888
0.000140473
0.000182753
0.000243933
0.000333938
0.00045897
0.000636645
0.000866195
0.00115152
0.00149952
0.00192046
0.0024276
0.00303705
0.00376574
0.00462978
0.00563992
0.00680012
0.00808357
0.00944505
0.0108376
0.0133506
0.0159166
0.0172356
0.0184164
0.0196931
0.0211191
0.022739
0.0245651
5.37447e-06
4.62009e-06
3.9624e-06
3.39668e-06
2.92288e-06
3.37498e-06
4.5536e-06
5.45922e-06
5.70504e-06
5.12332e-06
3.93118e-06
3.03904e-06
3.2331e-06
3.94692e-06
4.60064e-06
4.68228e-06
4.78658e-06
5.23188e-06
6.40397e-06
7.21223e-06
7.95072e-06
8.78732e-06
9.72032e-06
1.12017e-05
1.10306e-05
1.15349e-05
5.5551e-05
7.10873e-05
8.95799e-05
0.000113903
0.000142815
0.000178442
0.000226794
0.00028721
0.000360128
0.000447901
0.000553005
0.000686211
0.000854605
0.00106975
0.00133446
0.00165399
0.00203514
0.00248628
0.00301782
0.00364109
0.00436657
0.00520191
0.00615379
0.00722501
0.0083758
0.00945731
0.0101527
0.00951646
0.00751472
0.00555224
0.00585421
0.00861657
0.0132869
0.0198739
5.37456e-06
4.62474e-06
3.97327e-06
3.41876e-06
2.9351e-06
2.82182e-06
3.63328e-06
4.92158e-06
5.11752e-06
3.99596e-06
3.73911e-06
3.71829e-06
3.81205e-06
4.59029e-06
5.44083e-06
5.70546e-06
6.04927e-06
6.46719e-06
6.89152e-06
7.22956e-06
7.61806e-06
8.49275e-06
9.59548e-06
1.04892e-05
1.06546e-05
1.12372e-05
5.03247e-05
6.39369e-05
8.11855e-05
9.97122e-05
0.000119283
0.000143176
0.000171077
0.000203988
0.000245283
0.000301062
0.000384266
0.000502937
0.000648494
0.000821072
0.00102749
0.00127488
0.00157062
0.00192248
0.00234036
0.00283529
0.0034132
0.00407447
0.00482073
0.00566297
0.00655267
0.00717835
0.00690201
0.00504324
0.00253652
0.00214063
0.00331759
0.00563884
0.0101777
0.0183603
5.37573e-06
4.62908e-06
3.98456e-06
3.43338e-06
2.95554e-06
2.65068e-06
2.83965e-06
3.73342e-06
4.22211e-06
3.6262e-06
3.54751e-06
3.35364e-06
3.11308e-06
3.79441e-06
5.18895e-06
6.11714e-06
6.50502e-06
6.81908e-06
7.07752e-06
7.36536e-06
7.71196e-06
8.19003e-06
9.05462e-06
9.93591e-06
1.02806e-05
1.07052e-05
1.10749e-05
1.15369e-05
1.16325e-05
1.15538e-05
5.44923e-05
6.29473e-05
6.56268e-05
6.50649e-05
6.06626e-05
7.67373e-05
0.00017709
0.000303744
0.000417067
0.000539653
0.000682633
0.000852274
0.00105689
0.00130299
0.00160253
0.00197352
0.00242675
0.00296799
0.00360146
0.00434938
0.00512932
0.00556276
0.00501822
0.00309169
0.000748294
0.000903469
0.000899137
0.00101657
0.00174963
0.00709806
5.37891e-06
4.63623e-06
3.99253e-06
3.44204e-06
2.97224e-06
2.60326e-06
2.48856e-06
2.8885e-06
3.25014e-06
3.07246e-06
2.83184e-06
2.57655e-06
2.41913e-06
2.22914e-06
2.51773e-06
4.21863e-06
5.72343e-06
6.301e-06
6.50082e-06
6.42122e-06
6.18171e-06
6.10894e-06
6.70007e-06
9.51366e-06
9.96515e-06
1.02534e-05
1.05027e-05
1.04662e-05
1.01706e-05
9.74261e-06
9.80959e-06
1.00637e-05
9.91817e-06
9.46813e-06
9.01555e-06
9.61648e-06
5.68306e-05
0.000111941
0.000193931
0.00028797
0.000396547
0.000500317
0.000625848
0.000772903
0.00094496
0.00117481
0.00148481
0.00189952
0.00239965
0.00312321
0.00403782
0.0046346
0.00426149
0.00258483
0.00175224
0.00142988
0.00122201
0.0010448
0.000869892
0.000633553
5.37887e-06
4.63988e-06
4.0029e-06
3.45309e-06
2.9863e-06
2.6028e-06
2.35801e-06
2.39271e-06
2.52347e-06
2.43849e-06
2.31494e-06
2.16658e-06
1.99033e-06
1.82573e-06
1.70755e-06
1.76186e-06
1.94268e-06
3.06412e-06
4.3009e-06
5.06378e-06
5.3927e-06
5.34765e-06
5.03334e-06
7.54974e-06
9.23202e-06
9.77274e-06
1.00248e-05
9.96589e-06
9.78539e-06
9.60796e-06
9.4556e-06
9.30981e-06
9.06304e-06
8.7176e-06
8.34829e-06
8.18847e-06
8.98946e-06
4.96076e-05
7.88479e-05
0.00012277
0.000183243
0.000253704
0.000329213
0.000411158
0.000504209
0.000622856
0.000786829
0.00101817
0.00133413
0.001882
0.00276908
0.00359941
0.00356831
0.00282364
0.00237415
0.00199523
0.00168418
0.00143216
0.001222
0.00104185
5.3806e-06
4.64136e-06
4.00741e-06
3.46722e-06
3.00329e-06
2.61424e-06
2.32337e-06
2.17473e-06
2.11449e-06
2.00764e-06
1.89144e-06
1.77056e-06
1.65063e-06
1.54226e-06
1.44621e-06
1.37574e-06
1.34818e-06
1.60353e-06
2.1424e-06
2.64887e-06
2.84748e-06
2.94434e-06
3.04427e-06
4.22146e-06
6.5821e-06
8.09674e-06
8.78674e-06
8.94469e-06
8.86372e-06
8.7542e-06
8.69747e-06
8.64665e-06
8.55155e-06
8.40324e-06
8.21137e-06
8.00898e-06
7.98957e-06
8.64876e-06
1.02165e-05
5.35259e-05
7.49007e-05
0.000103637
0.000138139
0.000178141
0.000224303
0.00028014
0.000354248
0.000457451
0.000614616
0.000905312
0.00150205
0.00224865
0.00252211
0.0023391
0.00210303
0.00184512
0.00160743
0.00140186
0.00122924
0.00109009
5.38867e-06
4.66883e-06
4.05468e-06
3.52895e-06
3.08532e-06
2.70208e-06
2.39054e-06
2.16391e-06
2.01199e-06
1.88756e-06
1.77972e-06
1.6864e-06
1.60794e-06
1.55717e-06
1.52893e-06
1.49836e-06
1.4565e-06
1.43877e-06
1.49573e-06
1.56507e-06
1.55056e-06
1.65147e-06
1.59908e-06
2.06989e-06
3.47086e-06
4.99235e-06
5.9753e-06
6.38001e-06
6.44126e-06
6.40884e-06
6.41769e-06
6.44161e-06
6.44776e-06
6.4324e-06
6.42554e-06
6.46236e-06
6.56231e-06
6.79107e-06
7.26702e-06
8.05501e-06
9.23432e-06
1.07889e-05
5.32026e-05
6.52852e-05
8.01173e-05
9.84728e-05
0.000122866
0.000157261
0.000212732
0.000322137
0.000571804
0.000970268
0.00121788
0.00122264
0.00114108
0.00106034
0.000987331
0.000922563
0.00086338
0.00080521
5.36381e-06
5.28349e-06
5.19048e-06
5.07693e-06
4.91223e-06
4.65824e-06
4.40043e-06
4.1504e-06
4.04538e-06
4.15543e-06
4.36106e-06
4.61538e-06
4.94248e-06
5.33695e-06
5.75319e-06
6.12549e-06
6.45811e-06
6.58765e-06
6.61814e-06
6.87052e-06
7.48115e-06
8.15741e-06
8.61899e-06
8.28764e-06
7.89348e-06
7.89547e-06
8.30441e-06
9.00427e-06
9.91756e-06
1.09429e-05
1.19286e-05
3.19415e-05
3.36378e-05
3.57253e-05
3.80225e-05
4.0058e-05
4.14892e-05
4.26598e-05
4.4054e-05
4.60378e-05
4.89541e-05
5.29744e-05
5.80868e-05
6.43909e-05
7.19795e-05
8.09827e-05
9.17062e-05
0.000104779
0.000121766
0.00014804
0.000200244
0.00029201
0.000383229
0.000450045
0.000510007
0.000573635
0.000640993
0.000712015
0.000786554
0.000864949
5.35782e-06
5.25424e-06
5.14807e-06
5.05362e-06
4.94169e-06
4.63059e-06
4.28369e-06
4.21076e-06
4.69053e-06
5.41502e-06
6.17727e-06
6.96563e-06
7.75891e-06
8.60011e-06
9.40742e-06
9.86892e-06
1.03666e-05
1.09491e-05
1.17449e-05
1.1878e-05
1.19075e-05
3.12205e-05
3.13551e-05
4.04666e-05
8.45204e-05
6.4392e-05
5.31818e-05
4.46259e-05
3.88219e-05
4.03007e-05
3.96574e-05
4.44286e-05
5.58041e-05
6.72456e-05
7.50405e-05
8.55403e-05
0.000102459
0.000126622
0.000157755
0.000197348
0.000247026
0.000307846
0.000381008
0.000469438
0.000577173
0.000702206
0.000835627
0.00103911
0.00155119
0.00238329
0.00278504
0.00269202
0.00513268
0.0100842
0.0117428
0.012977
0.0140131
0.0149371
0.0157448
0.0163248
5.38366e-06
4.66086e-06
4.04079e-06
3.53316e-06
3.10887e-06
2.78755e-06
2.85565e-06
3.48491e-06
5.64154e-06
6.98255e-06
6.95838e-06
6.79428e-06
6.42315e-06
5.95861e-06
5.73327e-06
5.57199e-06
5.66069e-06
6.24037e-06
6.83098e-06
7.10758e-06
7.27245e-06
7.54408e-06
8.82606e-06
1.14545e-05
1.14703e-05
1.05699e-05
1.10702e-05
1.15688e-05
5.09534e-05
6.06475e-05
7.19431e-05
8.74533e-05
0.000109145
0.000139366
0.00018282
0.00024593
0.000338298
0.000466601
0.000647444
0.000880295
0.00116945
0.00152203
0.00194862
0.00246239
0.00307837
0.00381146
0.00467448
0.00567672
0.00682144
0.00808814
0.00944188
0.0108043
0.013171
0.015893
0.0171884
0.0183551
0.0196314
0.0210691
0.0227031
0.0245465
5.37439e-06
4.61927e-06
3.96299e-06
3.40245e-06
2.92159e-06
3.32154e-06
4.49456e-06
5.42204e-06
5.67461e-06
5.10771e-06
3.90177e-06
3.00599e-06
3.25446e-06
3.96632e-06
4.61468e-06
4.69501e-06
4.79445e-06
5.18744e-06
6.36504e-06
7.18829e-06
7.92988e-06
8.76437e-06
9.6891e-06
1.11216e-05
1.09764e-05
1.16337e-05
5.5989e-05
7.18488e-05
9.00645e-05
0.000113758
0.000142875
0.000178834
0.000227883
0.000289725
0.000364774
0.000454753
0.00056203
0.000697468
0.000869303
0.00108816
0.00135712
0.00168154
0.00206839
0.00252615
0.0030648
0.00369499
0.00442604
0.00526455
0.00621453
0.00727633
0.00841203
0.00949725
0.0102324
0.00973682
0.00780167
0.00586834
0.00605353
0.00876439
0.0134473
0.0199536
5.37682e-06
4.62692e-06
3.9792e-06
3.42669e-06
2.94176e-06
2.80404e-06
3.58432e-06
4.88081e-06
5.10173e-06
4.01415e-06
3.76303e-06
3.73836e-06
3.83482e-06
4.61755e-06
5.46548e-06
5.72211e-06
6.06535e-06
6.48827e-06
6.92159e-06
7.2723e-06
7.65855e-06
8.41979e-06
9.53471e-06
1.04237e-05
1.0652e-05
1.11988e-05
4.94918e-05
6.15087e-05
7.97586e-05
0.000101719
0.000122596
0.000147167
0.000175908
0.000209592
0.000251498
0.00030845
0.000393809
0.000514684
0.000662322
0.000838241
0.00104871
0.00130048
0.00160158
0.00195914
0.00238243
0.00288164
0.00346208
0.00412356
0.00486809
0.00571051
0.00661061
0.00727098
0.00707012
0.00531159
0.002811
0.00227086
0.00353767
0.0059915
0.0106451
0.0187147
5.37766e-06
4.63131e-06
3.98786e-06
3.43608e-06
2.95741e-06
2.64437e-06
2.81634e-06
3.69806e-06
4.20441e-06
3.62977e-06
3.57284e-06
3.36727e-06
3.12829e-06
3.82571e-06
5.22023e-06
6.13954e-06
6.52168e-06
6.83348e-06
7.09061e-06
7.37781e-06
7.72787e-06
8.21725e-06
9.11407e-06
9.96793e-06
1.03032e-05
1.07007e-05
1.10247e-05
1.13498e-05
1.14895e-05
1.12018e-05
5.32065e-05
6.08427e-05
6.28565e-05
6.21179e-05
5.87788e-05
7.5116e-05
0.000176362
0.000314586
0.000427856
0.0005538
0.000699974
0.0008726
0.00108192
0.00133284
0.00163716
0.0020119
0.00246623
0.00300431
0.00363421
0.00438587
0.00518156
0.00565054
0.00515928
0.00323678
0.000713648
0.000869947
0.000846755
0.000899342
0.00141433
0.00586193
5.38103e-06
4.63823e-06
3.99395e-06
3.44294e-06
2.97316e-06
2.60132e-06
2.47893e-06
2.86478e-06
3.23524e-06
3.06798e-06
2.83929e-06
2.59689e-06
2.43972e-06
2.23753e-06
2.54544e-06
4.27049e-06
5.7645e-06
6.32879e-06
6.52319e-06
6.44395e-06
6.20466e-06
6.13263e-06
6.72947e-06
9.56684e-06
1.00061e-05
1.02698e-05
1.05005e-05
1.04175e-05
1.01124e-05
9.68797e-06
9.72808e-06
9.92947e-06
9.75299e-06
9.31015e-06
8.9094e-06
9.51974e-06
5.52607e-05
0.000109782
0.000190828
0.000286737
0.000410834
0.000514036
0.000644199
0.0007945
0.000970568
0.00120482
0.00151657
0.00192105
0.00240077
0.00314734
0.00407245
0.0046997
0.00439381
0.00269282
0.00179072
0.00145359
0.00124155
0.00105932
0.000879221
0.000635022
5.38093e-06
4.64241e-06
4.00331e-06
3.45188e-06
2.9854e-06
2.60287e-06
2.35472e-06
2.38156e-06
2.51348e-06
2.43471e-06
2.30758e-06
2.15802e-06
1.98295e-06
1.82998e-06
1.71185e-06
1.75731e-06
1.96165e-06
3.12859e-06
4.35811e-06
5.10619e-06
5.43089e-06
5.38988e-06
5.06594e-06
7.59668e-06
9.28174e-06
9.80487e-06
1.00427e-05
9.97318e-06
9.79892e-06
9.63229e-06
9.47068e-06
9.30498e-06
9.04323e-06
8.6916e-06
8.31992e-06
8.15254e-06
8.9033e-06
4.96715e-05
7.67114e-05
0.000119907
0.000182715
0.000255614
0.00033812
0.000424893
0.000521026
0.000642435
0.000808967
0.00104126
0.00134757
0.00190177
0.00279101
0.00364229
0.00366593
0.00289555
0.00242261
0.00202726
0.00170341
0.00143934
0.00121674
0.00102752
5.38081e-06
4.6431e-06
4.01007e-06
3.46821e-06
2.99864e-06
2.61003e-06
2.32162e-06
2.17151e-06
2.11337e-06
2.00979e-06
1.89298e-06
1.77188e-06
1.65491e-06
1.54765e-06
1.45331e-06
1.38571e-06
1.36561e-06
1.64016e-06
2.19155e-06
2.69787e-06
2.89917e-06
2.99208e-06
3.08806e-06
4.26985e-06
6.64173e-06
8.13187e-06
8.79894e-06
8.9442e-06
8.85995e-06
8.75551e-06
8.70704e-06
8.65925e-06
8.56319e-06
8.41235e-06
8.21623e-06
8.00579e-06
7.96704e-06
8.58938e-06
1.00682e-05
5.2433e-05
7.36263e-05
0.000101981
0.000136981
0.000177981
0.000225285
0.000282623
0.000359056
0.000465044
0.000621184
0.00091453
0.00151561
0.00227319
0.00257857
0.00239116
0.00214329
0.00186992
0.00161651
0.00139774
0.0012155
0.00107189
5.39009e-06
4.672e-06
4.05703e-06
3.5323e-06
3.08715e-06
2.69764e-06
2.38401e-06
2.16147e-06
2.01461e-06
1.89332e-06
1.7876e-06
1.69515e-06
1.61796e-06
1.57213e-06
1.54816e-06
1.51705e-06
1.4722e-06
1.45536e-06
1.51831e-06
1.59369e-06
1.57464e-06
1.65775e-06
1.61188e-06
2.08836e-06
3.49712e-06
5.01149e-06
5.96996e-06
6.35144e-06
6.39978e-06
6.36541e-06
6.37966e-06
6.41016e-06
6.42143e-06
6.41352e-06
6.41607e-06
6.45788e-06
6.55437e-06
6.77077e-06
7.21766e-06
7.98314e-06
9.13393e-06
1.06462e-05
5.22844e-05
6.42716e-05
7.8866e-05
9.69473e-05
0.000121225
0.000155652
0.000211152
0.000322059
0.00057438
0.000977019
0.00123232
0.00123273
0.00114201
0.00105365
0.000974865
0.000905964
0.000844215
0.000785016
5.35934e-06
5.27644e-06
5.18061e-06
5.06066e-06
4.89477e-06
4.6429e-06
4.3753e-06
4.11646e-06
4.02135e-06
4.15177e-06
4.36434e-06
4.62331e-06
4.9665e-06
5.38239e-06
5.80722e-06
6.17209e-06
6.46385e-06
6.56094e-06
6.61914e-06
6.85482e-06
7.43696e-06
8.10351e-06
8.59231e-06
8.25194e-06
7.85475e-06
7.86596e-06
8.30201e-06
9.04268e-06
9.99052e-06
1.10412e-05
1.19648e-05
3.20601e-05
3.38447e-05
3.60268e-05
3.83966e-05
4.04961e-05
4.20307e-05
4.32899e-05
4.47604e-05
4.67838e-05
4.96921e-05
5.3664e-05
5.86954e-05
6.48872e-05
7.23199e-05
8.11066e-05
9.15559e-05
0.000104314
0.000120925
0.000146979
0.000199423
0.000291537
0.000382438
0.000447355
0.000504722
0.00056568
0.000630392
0.00069887
0.000771001
0.00084736
)
;

boundaryField
{
    wall
    {
        type            epsilonWallFunction;
        value           nonuniform List<scalar> 
1200
(
5.35729e-06
5.38168e-06
5.37447e-06
5.37456e-06
5.37573e-06
5.37891e-06
5.37887e-06
5.3806e-06
5.38867e-06
5.36381e-06
5.26227e-06
4.66041e-06
4.62009e-06
4.62474e-06
4.62908e-06
4.63623e-06
4.63988e-06
4.64136e-06
4.66883e-06
5.28349e-06
5.15665e-06
4.04173e-06
3.9624e-06
3.97327e-06
3.98456e-06
3.99253e-06
4.0029e-06
4.00741e-06
4.05468e-06
5.19048e-06
5.05115e-06
3.53264e-06
3.39668e-06
3.41876e-06
3.43338e-06
3.44204e-06
3.45309e-06
3.46722e-06
3.52895e-06
5.07693e-06
4.93558e-06
3.11318e-06
2.92288e-06
2.9351e-06
2.95554e-06
2.97224e-06
2.9863e-06
3.00329e-06
3.08532e-06
4.91223e-06
4.61199e-06
2.81691e-06
3.37498e-06
2.82182e-06
2.65068e-06
2.60326e-06
2.6028e-06
2.61424e-06
2.70208e-06
4.65824e-06
4.28975e-06
2.87105e-06
4.5536e-06
3.63328e-06
2.83965e-06
2.48856e-06
2.35801e-06
2.32337e-06
2.39054e-06
4.40043e-06
4.20598e-06
3.5306e-06
5.45922e-06
4.92158e-06
3.73342e-06
2.8885e-06
2.39271e-06
2.17473e-06
2.16391e-06
4.1504e-06
4.70373e-06
5.70433e-06
5.70504e-06
5.11752e-06
4.22211e-06
3.25014e-06
2.52347e-06
2.11449e-06
2.01199e-06
4.04538e-06
5.44464e-06
7.01068e-06
5.12332e-06
3.99596e-06
3.6262e-06
3.07246e-06
2.43849e-06
2.00764e-06
1.88756e-06
4.15543e-06
6.20676e-06
6.9841e-06
3.93118e-06
3.73911e-06
3.54751e-06
2.83184e-06
2.31494e-06
1.89144e-06
1.77972e-06
4.36106e-06
6.99318e-06
6.82423e-06
3.03904e-06
3.71829e-06
3.35364e-06
2.57655e-06
2.16658e-06
1.77056e-06
1.6864e-06
4.61538e-06
7.78741e-06
6.4569e-06
3.2331e-06
3.81205e-06
3.11308e-06
2.41913e-06
1.99033e-06
1.65063e-06
1.60794e-06
4.94248e-06
8.6318e-06
5.98992e-06
3.94692e-06
4.59029e-06
3.79441e-06
2.22914e-06
1.82573e-06
1.54226e-06
1.55717e-06
5.33695e-06
9.43278e-06
5.76422e-06
4.60064e-06
5.44083e-06
5.18895e-06
2.51773e-06
1.70755e-06
1.44621e-06
1.52893e-06
5.75319e-06
9.88886e-06
5.60467e-06
4.68228e-06
5.70546e-06
6.11714e-06
4.21863e-06
1.76186e-06
1.37574e-06
1.49836e-06
6.12549e-06
1.03937e-05
5.69286e-06
4.78658e-06
6.04927e-06
6.50502e-06
5.72343e-06
1.94268e-06
1.34818e-06
1.4565e-06
6.45811e-06
1.09654e-05
6.27706e-06
5.23188e-06
6.46719e-06
6.81908e-06
6.301e-06
3.06412e-06
1.60353e-06
1.43877e-06
6.58765e-06
1.17537e-05
6.86205e-06
6.40397e-06
6.89152e-06
7.07752e-06
6.50082e-06
4.3009e-06
2.1424e-06
1.49573e-06
6.61814e-06
3.06134e-05
7.13173e-06
7.21223e-06
7.22956e-06
7.36536e-06
6.42122e-06
5.06378e-06
2.64887e-06
1.56507e-06
6.87052e-06
3.06349e-05
7.29329e-06
7.95072e-06
7.61806e-06
7.71196e-06
6.18171e-06
5.3927e-06
2.84748e-06
1.55056e-06
7.48115e-06
3.12332e-05
7.56602e-06
8.78732e-06
8.49275e-06
8.19003e-06
6.10894e-06
5.34765e-06
2.94434e-06
1.65147e-06
8.15741e-06
3.13324e-05
8.853e-06
9.72032e-06
9.59548e-06
9.05462e-06
6.70007e-06
5.03334e-06
3.04427e-06
1.59908e-06
8.61899e-06
4.1093e-05
1.15027e-05
1.12017e-05
1.04892e-05
9.93591e-06
9.51366e-06
7.54974e-06
4.22146e-06
2.06989e-06
8.28764e-06
8.79092e-05
1.1537e-05
1.10306e-05
1.06546e-05
1.02806e-05
9.96515e-06
9.23202e-06
6.5821e-06
3.47086e-06
7.89348e-06
6.62479e-05
1.06375e-05
1.15349e-05
1.12372e-05
1.07052e-05
1.02534e-05
9.77274e-06
8.09674e-06
4.99235e-06
7.89547e-06
5.43752e-05
1.11226e-05
5.5551e-05
5.03247e-05
1.10749e-05
1.05027e-05
1.00248e-05
8.78674e-06
5.9753e-06
8.30441e-06
4.50322e-05
1.16186e-05
7.10873e-05
6.39369e-05
1.15369e-05
1.04662e-05
9.96589e-06
8.94469e-06
6.38001e-06
9.00427e-06
3.79673e-05
5.21193e-05
8.95799e-05
8.11855e-05
1.16325e-05
1.01706e-05
9.78539e-06
8.86372e-06
6.44126e-06
9.91756e-06
4.22036e-05
6.19506e-05
0.000113903
9.97122e-05
1.15538e-05
9.74261e-06
9.60796e-06
8.7542e-06
6.40884e-06
1.09429e-05
4.15338e-05
7.36073e-05
0.000142815
0.000119283
5.44923e-05
9.80959e-06
9.4556e-06
8.69747e-06
6.41769e-06
1.19286e-05
4.82443e-05
8.94458e-05
0.000178442
0.000143176
6.29473e-05
1.00637e-05
9.30981e-06
8.64665e-06
6.44161e-06
3.19415e-05
6.02187e-05
0.000110888
0.000226794
0.000171077
6.56268e-05
9.91817e-06
9.06304e-06
8.55155e-06
6.44776e-06
3.36378e-05
7.07354e-05
0.000140473
0.00028721
0.000203988
6.50649e-05
9.46813e-06
8.7176e-06
8.40324e-06
6.4324e-06
3.57253e-05
7.80832e-05
0.000182753
0.000360128
0.000245283
6.06626e-05
9.01555e-06
8.34829e-06
8.21137e-06
6.42554e-06
3.80225e-05
8.79725e-05
0.000243933
0.000447901
0.000301062
7.67373e-05
9.61648e-06
8.18847e-06
8.00898e-06
6.46236e-06
4.0058e-05
0.000103567
0.000333938
0.000553005
0.000384266
0.00017709
5.68306e-05
8.98946e-06
7.98957e-06
6.56231e-06
4.14892e-05
0.000126832
0.00045897
0.000686211
0.000502937
0.000303744
0.000111941
4.96076e-05
8.64876e-06
6.79107e-06
4.26598e-05
0.000156943
0.000636645
0.000854605
0.000648494
0.000417067
0.000193931
7.88479e-05
1.02165e-05
7.26702e-06
4.4054e-05
0.000195721
0.000866195
0.00106975
0.000821072
0.000539653
0.00028797
0.00012277
5.35259e-05
8.05501e-06
4.60378e-05
0.000244833
0.00115152
0.00133446
0.00102749
0.000682633
0.000396547
0.000183243
7.49007e-05
9.23432e-06
4.89541e-05
0.000304962
0.00149952
0.00165399
0.00127488
0.000852274
0.000500317
0.000253704
0.000103637
1.07889e-05
5.29744e-05
0.000377419
0.00192046
0.00203514
0.00157062
0.00105689
0.000625848
0.000329213
0.000138139
5.32026e-05
5.80868e-05
0.000464596
0.0024276
0.00248628
0.00192248
0.00130299
0.000772903
0.000411158
0.000178141
6.52852e-05
6.43909e-05
0.000569921
0.00303705
0.00301782
0.00234036
0.00160253
0.00094496
0.000504209
0.000224303
8.01173e-05
7.19795e-05
0.000690224
0.00376574
0.00364109
0.00283529
0.00197352
0.00117481
0.000622856
0.00028014
9.84728e-05
8.09827e-05
0.00081905
0.00462978
0.00436657
0.0034132
0.00242675
0.00148481
0.000786829
0.000354248
0.000122866
9.17062e-05
0.00102741
0.00563992
0.00520191
0.00407447
0.00296799
0.00189952
0.00101817
0.000457451
0.000157261
0.000104779
0.00154372
0.00680012
0.00615379
0.00482073
0.00360146
0.00239965
0.00133413
0.000614616
0.000212732
0.000121766
0.00235105
0.00808357
0.00722501
0.00566297
0.00434938
0.00312321
0.001882
0.000905312
0.000322137
0.00014804
0.00270615
0.00944505
0.0083758
0.00655267
0.00512932
0.00403782
0.00276908
0.00150205
0.000571804
0.000200244
0.00262851
0.0108376
0.00945731
0.00717835
0.00556276
0.0046346
0.00359941
0.00224865
0.000970268
0.00029201
0.00552684
0.0133506
0.0101527
0.00690201
0.00501822
0.00426149
0.00356831
0.00252211
0.00121788
0.000383229
0.0100188
0.0159166
0.00951646
0.00504324
0.00309169
0.00258483
0.00282364
0.0023391
0.00122264
0.000450045
0.0116176
0.0172356
0.00751472
0.00253652
0.000748294
0.00175224
0.00237415
0.00210303
0.00114108
0.000510007
0.0128295
0.0184164
0.00555224
0.00214063
0.000903469
0.00142988
0.00199523
0.00184512
0.00106034
0.000573635
0.0138708
0.0196931
0.00585421
0.00331759
0.000899137
0.00122201
0.00168418
0.00160743
0.000987331
0.000640993
0.0148176
0.0211191
0.00861657
0.00563884
0.00101657
0.0010448
0.00143216
0.00140186
0.000922563
0.000712015
0.015663
0.022739
0.0132869
0.0101777
0.00174963
0.000869892
0.001222
0.00122924
0.00086338
0.000786554
0.016288
0.0245651
0.0198739
0.0183603
0.00709806
0.000633553
0.00104185
0.00109009
0.00080521
0.000864949
5.35782e-06
5.38366e-06
5.37439e-06
5.37682e-06
5.37766e-06
5.38103e-06
5.38093e-06
5.38081e-06
5.39009e-06
5.35934e-06
5.25424e-06
4.66086e-06
4.61927e-06
4.62692e-06
4.63131e-06
4.63823e-06
4.64241e-06
4.6431e-06
4.672e-06
5.27644e-06
5.14807e-06
4.04079e-06
3.96299e-06
3.9792e-06
3.98786e-06
3.99395e-06
4.00331e-06
4.01007e-06
4.05703e-06
5.18061e-06
5.05362e-06
3.53316e-06
3.40245e-06
3.42669e-06
3.43608e-06
3.44294e-06
3.45188e-06
3.46821e-06
3.5323e-06
5.06066e-06
4.94169e-06
3.10887e-06
2.92159e-06
2.94176e-06
2.95741e-06
2.97316e-06
2.9854e-06
2.99864e-06
3.08715e-06
4.89477e-06
4.63059e-06
2.78755e-06
3.32154e-06
2.80404e-06
2.64437e-06
2.60132e-06
2.60287e-06
2.61003e-06
2.69764e-06
4.6429e-06
4.28369e-06
2.85565e-06
4.49456e-06
3.58432e-06
2.81634e-06
2.47893e-06
2.35472e-06
2.32162e-06
2.38401e-06
4.3753e-06
4.21076e-06
3.48491e-06
5.42204e-06
4.88081e-06
3.69806e-06
2.86478e-06
2.38156e-06
2.17151e-06
2.16147e-06
4.11646e-06
4.69053e-06
5.64154e-06
5.67461e-06
5.10173e-06
4.20441e-06
3.23524e-06
2.51348e-06
2.11337e-06
2.01461e-06
4.02135e-06
5.41502e-06
6.98255e-06
5.10771e-06
4.01415e-06
3.62977e-06
3.06798e-06
2.43471e-06
2.00979e-06
1.89332e-06
4.15177e-06
6.17727e-06
6.95838e-06
3.90177e-06
3.76303e-06
3.57284e-06
2.83929e-06
2.30758e-06
1.89298e-06
1.7876e-06
4.36434e-06
6.96563e-06
6.79428e-06
3.00599e-06
3.73836e-06
3.36727e-06
2.59689e-06
2.15802e-06
1.77188e-06
1.69515e-06
4.62331e-06
7.75891e-06
6.42315e-06
3.25446e-06
3.83482e-06
3.12829e-06
2.43972e-06
1.98295e-06
1.65491e-06
1.61796e-06
4.9665e-06
8.60011e-06
5.95861e-06
3.96632e-06
4.61755e-06
3.82571e-06
2.23753e-06
1.82998e-06
1.54765e-06
1.57213e-06
5.38239e-06
9.40742e-06
5.73327e-06
4.61468e-06
5.46548e-06
5.22023e-06
2.54544e-06
1.71185e-06
1.45331e-06
1.54816e-06
5.80722e-06
9.86892e-06
5.57199e-06
4.69501e-06
5.72211e-06
6.13954e-06
4.27049e-06
1.75731e-06
1.38571e-06
1.51705e-06
6.17209e-06
1.03666e-05
5.66069e-06
4.79445e-06
6.06535e-06
6.52168e-06
5.7645e-06
1.96165e-06
1.36561e-06
1.4722e-06
6.46385e-06
1.09491e-05
6.24037e-06
5.18744e-06
6.48827e-06
6.83348e-06
6.32879e-06
3.12859e-06
1.64016e-06
1.45536e-06
6.56094e-06
1.17449e-05
6.83098e-06
6.36504e-06
6.92159e-06
7.09061e-06
6.52319e-06
4.35811e-06
2.19155e-06
1.51831e-06
6.61914e-06
1.1878e-05
7.10758e-06
7.18829e-06
7.2723e-06
7.37781e-06
6.44395e-06
5.10619e-06
2.69787e-06
1.59369e-06
6.85482e-06
1.19075e-05
7.27245e-06
7.92988e-06
7.65855e-06
7.72787e-06
6.20466e-06
5.43089e-06
2.89917e-06
1.57464e-06
7.43696e-06
3.12205e-05
7.54408e-06
8.76437e-06
8.41979e-06
8.21725e-06
6.13263e-06
5.38988e-06
2.99208e-06
1.65775e-06
8.10351e-06
3.13551e-05
8.82606e-06
9.6891e-06
9.53471e-06
9.11407e-06
6.72947e-06
5.06594e-06
3.08806e-06
1.61188e-06
8.59231e-06
4.04666e-05
1.14545e-05
1.11216e-05
1.04237e-05
9.96793e-06
9.56684e-06
7.59668e-06
4.26985e-06
2.08836e-06
8.25194e-06
8.45204e-05
1.14703e-05
1.09764e-05
1.0652e-05
1.03032e-05
1.00061e-05
9.28174e-06
6.64173e-06
3.49712e-06
7.85475e-06
6.4392e-05
1.05699e-05
1.16337e-05
1.11988e-05
1.07007e-05
1.02698e-05
9.80487e-06
8.13187e-06
5.01149e-06
7.86596e-06
5.31818e-05
1.10702e-05
5.5989e-05
4.94918e-05
1.10247e-05
1.05005e-05
1.00427e-05
8.79894e-06
5.96996e-06
8.30201e-06
4.46259e-05
1.15688e-05
7.18488e-05
6.15087e-05
1.13498e-05
1.04175e-05
9.97318e-06
8.9442e-06
6.35144e-06
9.04268e-06
3.88219e-05
5.09534e-05
9.00645e-05
7.97586e-05
1.14895e-05
1.01124e-05
9.79892e-06
8.85995e-06
6.39978e-06
9.99052e-06
4.03007e-05
6.06475e-05
0.000113758
0.000101719
1.12018e-05
9.68797e-06
9.63229e-06
8.75551e-06
6.36541e-06
1.10412e-05
3.96574e-05
7.19431e-05
0.000142875
0.000122596
5.32065e-05
9.72808e-06
9.47068e-06
8.70704e-06
6.37966e-06
1.19648e-05
4.44286e-05
8.74533e-05
0.000178834
0.000147167
6.08427e-05
9.92947e-06
9.30498e-06
8.65925e-06
6.41016e-06
3.20601e-05
5.58041e-05
0.000109145
0.000227883
0.000175908
6.28565e-05
9.75299e-06
9.04323e-06
8.56319e-06
6.42143e-06
3.38447e-05
6.72456e-05
0.000139366
0.000289725
0.000209592
6.21179e-05
9.31015e-06
8.6916e-06
8.41235e-06
6.41352e-06
3.60268e-05
7.50405e-05
0.00018282
0.000364774
0.000251498
5.87788e-05
8.9094e-06
8.31992e-06
8.21623e-06
6.41607e-06
3.83966e-05
8.55403e-05
0.00024593
0.000454753
0.00030845
7.5116e-05
9.51974e-06
8.15254e-06
8.00579e-06
6.45788e-06
4.04961e-05
0.000102459
0.000338298
0.00056203
0.000393809
0.000176362
5.52607e-05
8.9033e-06
7.96704e-06
6.55437e-06
4.20307e-05
0.000126622
0.000466601
0.000697468
0.000514684
0.000314586
0.000109782
4.96715e-05
8.58938e-06
6.77077e-06
4.32899e-05
0.000157755
0.000647444
0.000869303
0.000662322
0.000427856
0.000190828
7.67114e-05
1.00682e-05
7.21766e-06
4.47604e-05
0.000197348
0.000880295
0.00108816
0.000838241
0.0005538
0.000286737
0.000119907
5.2433e-05
7.98314e-06
4.67838e-05
0.000247026
0.00116945
0.00135712
0.00104871
0.000699974
0.000410834
0.000182715
7.36263e-05
9.13393e-06
4.96921e-05
0.000307846
0.00152203
0.00168154
0.00130048
0.0008726
0.000514036
0.000255614
0.000101981
1.06462e-05
5.3664e-05
0.000381008
0.00194862
0.00206839
0.00160158
0.00108192
0.000644199
0.00033812
0.000136981
5.22844e-05
5.86954e-05
0.000469438
0.00246239
0.00252615
0.00195914
0.00133284
0.0007945
0.000424893
0.000177981
6.42716e-05
6.48872e-05
0.000577173
0.00307837
0.0030648
0.00238243
0.00163716
0.000970568
0.000521026
0.000225285
7.8866e-05
7.23199e-05
0.000702206
0.00381146
0.00369499
0.00288164
0.0020119
0.00120482
0.000642435
0.000282623
9.69473e-05
8.11066e-05
0.000835627
0.00467448
0.00442604
0.00346208
0.00246623
0.00151657
0.000808967
0.000359056
0.000121225
9.15559e-05
0.00103911
0.00567672
0.00526455
0.00412356
0.00300431
0.00192105
0.00104126
0.000465044
0.000155652
0.000104314
0.00155119
0.00682144
0.00621453
0.00486809
0.00363421
0.00240077
0.00134757
0.000621184
0.000211152
0.000120925
0.00238329
0.00808814
0.00727633
0.00571051
0.00438587
0.00314734
0.00190177
0.00091453
0.000322059
0.000146979
0.00278504
0.00944188
0.00841203
0.00661061
0.00518156
0.00407245
0.00279101
0.00151561
0.00057438
0.000199423
0.00269202
0.0108043
0.00949725
0.00727098
0.00565054
0.0046997
0.00364229
0.00227319
0.000977019
0.000291537
0.00513268
0.013171
0.0102324
0.00707012
0.00515928
0.00439381
0.00366593
0.00257857
0.00123232
0.000382438
0.0100842
0.015893
0.00973682
0.00531159
0.00323678
0.00269282
0.00289555
0.00239116
0.00123273
0.000447355
0.0117428
0.0171884
0.00780167
0.002811
0.000713648
0.00179072
0.00242261
0.00214329
0.00114201
0.000504722
0.012977
0.0183551
0.00586834
0.00227086
0.000869947
0.00145359
0.00202726
0.00186992
0.00105365
0.00056568
0.0140131
0.0196314
0.00605353
0.00353767
0.000846755
0.00124155
0.00170341
0.00161651
0.000974865
0.000630392
0.0149371
0.0210691
0.00876439
0.0059915
0.000899342
0.00105932
0.00143934
0.00139774
0.000905964
0.00069887
0.0157448
0.0227031
0.0134473
0.0106451
0.00141433
0.000879221
0.00121674
0.0012155
0.000844215
0.000771001
0.0163248
0.0245465
0.0199536
0.0187147
0.00586193
0.000635022
0.00102752
0.00107189
0.000785016
0.00084736
)
;
    }
    inlet
    {
        type            turbulentMixingLengthDissipationRateInlet;
        mixingLength    0.071;
        phi             phi;
        k               k;
        value           uniform 2.72107e-07;
    }
    outlet
    {
        type            inletOutlet;
        inletValue      uniform 0.0001;
        value           nonuniform List<scalar> 
20
(
0.0001
0.0001
0.0001
0.0001
0.0001
0.000633553
0.00104185
0.00109009
0.00080521
0.000864949
0.0001
0.0001
0.0001
0.0001
0.0001
0.000635022
0.00102752
0.00107189
0.000785016
0.00084736
)
;
    }
    heatWall
    {
        type            epsilonWallFunction;
        value           nonuniform List<scalar> 
240
(
5.36381e-06
5.35934e-06
5.28349e-06
5.27644e-06
5.19048e-06
5.18061e-06
5.07693e-06
5.06066e-06
4.91223e-06
4.89477e-06
4.65824e-06
4.6429e-06
4.40043e-06
4.3753e-06
4.1504e-06
4.11646e-06
4.04538e-06
4.02135e-06
4.15543e-06
4.15177e-06
4.36106e-06
4.36434e-06
4.61538e-06
4.62331e-06
4.94248e-06
4.9665e-06
5.33695e-06
5.38239e-06
5.75319e-06
5.80722e-06
6.12549e-06
6.17209e-06
6.45811e-06
6.46385e-06
6.58765e-06
6.56094e-06
6.61814e-06
6.61914e-06
6.87052e-06
6.85482e-06
7.48115e-06
7.43696e-06