/*--------------------------------*- C++ -*----------------------------------*\
  =========                 |
  \\      /  F ield         | OpenFOAM: The Open Source CFD Toolbox
   \\    /   O peration     | Website:  https://openfoam.org
    \\  /    A nd           | Version:  8
     \\/     M anipulation  |
\*---------------------------------------------------------------------------*/
FoamFile
{
    version     2.0;
    format      ascii;
    class       volScalarField;
    location    "1000";
    object      epsilon;
}
// * * * * * * * * * * * * * * * * * * * * * * * * * * * * * * * * * * * * * //

dimensions      [0 2 -3 0 0 0 0];

internalField   nonuniform List<scalar> 
1200
(
72.1354
55.7223
44.1278
35.6957
29.4068
24.6135
20.891
17.9523
15.5986
13.6894
12.1234
10.8247
9.7366
8.8169
8.03344
7.36178
6.78298
6.28175
5.84479
5.46032
5.11955
4.81579
4.54385
4.30022
4.08212
3.88633
3.71102
3.55225
3.40832
3.27656
3.15554
3.0445
2.94271
2.84958
2.76439
2.68642
2.61475
2.54849
2.48679
2.42872
2.37309
2.31834
2.26302
2.20737
2.1542
2.10704
2.0675
2.03455
2.00775
1.99352
2.00624
2.06247
2.16186
2.26233
2.33845
2.36102
2.31609
2.21373
2.08029
1.94046
92.9318
58.8549
39.2635
27.337
19.7199
14.6464
11.1493
8.66868
6.86621
5.52856
4.5148
3.73342
3.12098
2.63417
2.24217
1.92283
1.66008
1.44195
1.25959
1.10669
0.977781
0.868485
0.775266
0.695117
0.625628
0.565436
0.513198
0.467988
0.427787
0.391849
0.359964
0.331587
0.306255
0.283586
0.263249
0.244964
0.228482
0.213587
0.200085
0.187797
0.17656
0.166221
0.156653
0.14779
0.139647
0.132322
0.126335
0.124426
0.135313
0.17332
0.24727
0.352062
0.475598
0.598435
0.680901
0.698837
0.65208
0.560339
0.452256
0.347672
92.8696
58.5661
38.8918
26.9357
19.3163
14.262
10.7931
8.34263
6.56817
5.25509
4.26461
3.50452
2.91219
2.44422
2.06991
1.7672
1.52
1.31634
1.14721
1.00566
0.88631
0.785002
0.698473
0.624142
0.559949
0.504232
0.455633
0.413053
0.375601
0.342539
0.313255
0.287244
0.264074
0.243376
0.224836
0.208182
0.193182
0.179635
0.167367
0.156231
0.146103
0.13688
0.128476
0.12082
0.11385
0.107508
0.101742
0.0965477
0.0922031
0.0900013
0.0934046
0.107684
0.1366
0.176348
0.214284
0.236117
0.235379
0.215315
0.184926
0.153024
92.8695
58.6392
38.9835
27.0249
19.3941
14.3276
10.8477
8.38729
6.60402
5.28359
4.28735
3.52285
2.92713
2.45652
2.08009
1.77565
1.52702
1.32219
1.15209
1.00974
0.889755
0.787929
0.700982
0.626311
0.561834
0.505874
0.457069
0.41432
0.376734
0.343564
0.314188
0.288083
0.264814
0.244025
0.225398
0.208666
0.193594
0.179978
0.167646
0.15645
0.146264
0.136985
0.128526
0.120815
0.11379
0.107393
0.101567
0.0962563
0.0914186
0.0870652
0.083458
0.0815875
0.0834054
0.0905215
0.101568
0.111864
0.11692
0.115085
0.108018
0.0979926
92.8694
58.6389
38.9733
27.0098
19.3776
14.3115
10.8333
8.37493
6.59394
5.27561
4.28103
3.51779
2.92301
2.4531
2.07724
1.77328
1.52506
1.32057
1.15076
1.00864
0.888846
0.787181
0.700372
0.625821
0.561447
0.50557
0.45684
0.414169
0.376662
0.343572
0.314271
0.288236
0.26503
0.244285
0.225688
0.208973
0.19391
0.180304
0.167983
0.156799
0.146623
0.137341
0.12886
0.121108
0.114062
0.107663
0.101844
0.0965304
0.0916558
0.0871673
0.0830239
0.0792274
0.0760128
0.0739235
0.0735004
0.0744726
0.0757481
0.0760632
0.0750609
0.072512
92.8694
58.639
38.9726
27.0087
19.3762
14.31
10.8319
8.3739
6.59319
5.2751
4.28067
3.51751
2.92278
2.45291
2.07709
1.77319
1.52503
1.3206
1.15083
1.00876
0.889006
0.787372
0.700589
0.626058
0.5617
0.505836
0.457122
0.414471
0.376989
0.343926
0.314658
0.288662
0.265504
0.244816
0.226285
0.209645
0.19467
0.181164
0.168955
0.157891
0.147839
0.138688
0.130358
0.122802
0.115995
0.109881
0.104358
0.0992964
0.0946404
0.0903446
0.0863129
0.0824252
0.0785927
0.0750584
0.0719331
0.0693347
0.0672489
0.065451
0.0637852
0.0619276
92.8693
58.6412
38.9842
27.0252
19.3942
14.3275
10.8481
8.38817
6.60506
5.28459
4.28813
3.52341
2.92752
2.45675
2.0802
1.77565
1.52692
1.32201
1.15186
1.0095
0.889515
0.787721
0.700824
0.626221
0.56182
0.505937
0.457223
0.414588
0.377132
0.344105
0.314881
0.288939
0.265842
0.245226
0.22678
0.210241
0.195381
0.182006
0.169944
0.159042
0.149159
0.140187
0.132126
0.125191
0.119763
0.115869
0.113067
0.110759
0.108719
0.106873
0.104982
0.102566
0.0988496
0.0932678
0.0877528
0.0826355
0.0780397
0.0740073
0.0704689
0.0673522
92.8694
58.5685
38.8922
26.9341
19.3133
14.2592
10.7917
8.34229
6.56845
5.25572
4.26538
3.50533
2.91298
2.44495
2.07062
1.76796
1.52084
1.31728
1.14821
1.0067
0.887343
0.785991
0.699435
0.625104
0.560916
0.505198
0.456607
0.414058
0.376656
0.343654
0.31443
0.288463
0.265317
0.24463
0.226098
0.209446
0.194443
0.180911
0.168705
0.157712
0.147885
0.139412
0.133497
0.133354
0.141998
0.157633
0.175725
0.19194
0.20417
0.212489
0.21718
0.217351
0.211413
0.198327
0.179168
0.159533
0.14333
0.130326
0.11988
0.111407
92.9315
58.8398
39.2357
27.3019
19.6812
14.613
11.1222
8.64429
6.84128
5.50195
4.48881
3.70938
3.09983
2.61594
2.22693
1.91097
1.6522
1.43852
1.26032
1.10992
0.981477
0.87108
0.776697
0.69579
0.626173
0.566022
0.513848
0.467955
0.428907
0.395819
0.367376
0.342504
0.32037
0.300318
0.281596
0.264257
0.248126
0.232813
0.217954
0.204184
0.193113
0.194485
0.232711
0.33037
0.471549
0.607551
0.696818
0.734513
0.742068
0.737549
0.722087
0.687744
0.629142
0.549117
0.458281
0.369367
0.294008
0.236972
0.197249
0.169838
72.1316
55.7255
44.1312
35.6994
29.4108
24.6186
20.8984
17.9618
15.6096
13.7008
12.1338
10.834
9.74514
8.82509
8.04193
7.37178
6.79674
6.30277
5.8769
5.5063
5.17963
4.88741
4.62135
4.37702
4.15296
3.94932
3.76662
3.60219
3.45472
3.32322
3.20655
3.10356
3.01308
2.93389
2.86479
2.80455
2.75183
2.70512
2.66309
2.62474
2.59363
2.58398
2.64063
2.81418
3.0621
3.26586
3.34495
3.28668
3.11452
2.85975
2.55255
2.2234
1.9035
1.62054
1.39173
1.22189
1.10495
1.02778
0.975486
0.929847
72.1358
55.7274
44.1286
35.6926
29.4003
24.6057
20.8853
17.9506
15.6005
13.6927
12.1254
10.8246
9.73513
8.81472
8.03128
7.36018
6.78211
6.28151
5.84494
5.46032
5.11938
4.8156
4.54375
4.29995
4.08189
3.88631
3.71047
3.55171
3.40803
3.27671
3.15556
3.04437
2.94256
2.84945
2.76432
2.6864
2.6148
2.54863
2.48707
2.42921
2.37387
2.31954
2.26468
2.20932
2.15608
2.10853
2.0685
2.0352
2.00806
1.99265
2.00242
2.05362
2.14953
2.25045
2.33043
2.36071
2.32491
2.22972
2.09972
1.95995
92.9318
58.8529
39.2527
27.3221
19.7065
14.639
11.1464
8.66709
6.86377
5.5241
4.50944
3.72865
3.11756
2.6318
2.24029
1.92113
1.65844
1.44038
1.25816
1.10562
0.976997
0.867814
0.774564
0.694456
0.625247
0.565215
0.513679
0.468986
0.429055
0.392875
0.360648
0.331981
0.306462
0.283688
0.263299
0.244988
0.228493
0.213591
0.200086
0.187798
0.176563
0.166229
0.156666
0.147802
0.139649
0.132292
0.126183
0.123735
0.132947
0.167757
0.237872
0.339471
0.460788
0.584856
0.672954
0.698708
0.659219
0.57208
0.465431
0.359156
92.8695
58.573
38.8963
26.9365
19.3138
14.2573
10.7887
8.34021
6.56766
5.25548
4.26492
3.50444
2.9118
2.44367
2.06936
1.76679
1.51976
1.31625
1.14721
1.00569
0.886352
0.785047
0.698522
0.624194
0.559988
0.504233
0.455603
0.413021
0.375589
0.342552
0.313282
0.287266
0.264081
0.243368
0.224816
0.208155
0.193151
0.179602
0.167333
0.156199
0.146072
0.136848
0.128441
0.12078
0.113805
0.107459
0.101687
0.0964792
0.0920666
0.0895953
0.0922588
0.105207
0.132523
0.171396
0.210054
0.23405
0.235898
0.21778
0.188291
0.156311
92.8695
58.6439
38.9863
27.0252
19.3926
14.3249
10.8451
8.38603
6.60432
5.28467
4.28828
3.52327
2.92708
2.45617
2.07965
1.77529
1.5268
1.3221
1.15208
1.00977
0.889789
0.787966
0.701021
0.626351
0.561864
0.505881
0.457062
0.414317
0.376745
0.343588
0.314218
0.288114
0.264841
0.244037
0.225395
0.208649
0.193565
0.179944
0.167611
0.156417
0.146235
0.136957
0.128496
0.120781
0.113751
0.107348
0.101516
0.0961997
0.0913567
0.0869895
0.0833186
0.0812401
0.0826138
0.0891771
0.0999552
0.110536
0.116293
0.115198
0.108657
0.0988464
92.8694
58.6433
38.9773
27.0119
19.3778
14.3101
10.8312
8.37379
6.59411
5.27646
4.28179
3.51811
2.92294
2.45279
2.07687
1.77298
1.52489
1.3205
1.15075
1.00866
0.888875
0.787211
0.700402
0.625852
0.561471
0.505584
0.45685
0.414184
0.376685
0.343599
0.3143
0.288265
0.265059
0.244313
0.225716
0.209
0.193937
0.180332
0.168014
0.156835
0.146663
0.137385
0.128911
0.121167
0.114104
0.107673
0.101821
0.0964848
0.0915959
0.0870989
0.0829511
0.0791444
0.0758825
0.0736779
0.0730984
0.0739771
0.0752943
0.0757558
0.0749302
0.0725111
92.8693
58.6424
38.9765
27.011
19.377
14.3095
10.8306
8.37312
6.59347
5.27591
4.28138
3.51783
2.92274
2.45265
2.07678
1.77294
1.52489
1.32055
1.15083
1.00878
0.889032
0.787399
0.700616
0.626086
0.561724
0.505856
0.457141
0.414494
0.377017
0.343958
0.314692
0.2887
0.265544
0.244858
0.22633
0.209694
0.194722
0.181219
0.169014
0.157953
0.147906
0.138761
0.130441
0.122903
0.116118
0.110025
0.104514
0.099459
0.0947652
0.0903842
0.0862796
0.0823599
0.0785028
0.0749517
0.0718
0.0691667
0.0670542
0.0652518
0.0636014
0.0617674
92.8693
58.6449
38.9894
27.0295
19.3973
14.3291
10.8482
8.3881
6.60566
5.28563
4.28908
3.52393
2.92759
2.4565
2.07983
1.77533
1.52673
1.32193
1.15185
1.00951
0.889538
0.787746
0.70085
0.626248
0.561846
0.505961
0.457247
0.414616
0.377166
0.344143
0.314924
0.288986
0.265895
0.245285
0.226846
0.210314
0.195461
0.182093
0.17004
0.159146
0.149274
0.14032
0.1323
0.125434
0.120068
0.116192
0.113348
0.110931
0.108657
0.106666
0.104767
0.102445
0.0989119
0.0934493
0.0878963
0.0827367
0.078094
0.0740169
0.0704402
0.067295
92.8694
58.5692
38.8943
26.9359
19.315
14.2601
10.7914
8.34199
6.56882
5.25648
4.26607
3.50568
2.913
2.4448
2.07044
1.76782
1.52077
1.31726
1.14823
1.00672
0.88736
0.786004
0.699456
0.625127
0.560939
0.50522
0.456629
0.414083
0.376685
0.343687
0.314464
0.288498
0.265354
0.244662
0.226113
0.209441
0.19442
0.180887
0.168698
0.157735
0.147956
0.13955
0.133617
0.132627
0.139958
0.154801
0.172967
0.189816
0.20281
0.211795
0.217028
0.217693
0.21224
0.199647
0.180725
0.160832
0.144304
0.13103
0.120369
0.111747
92.9314
58.8449
39.2481
27.317
19.6946
14.6201
11.123
8.64379
6.84314
5.50619
4.49332
3.71226
3.10096
2.61611
2.22685
1.911
1.65235
1.43865
1.26028
1.10967
0.981023
0.870516
0.776245
0.695393
0.625675
0.56523
0.512572
0.466499
0.427452
0.394468
0.366143
0.341301
0.319112
0.298989
0.280422
0.26329
0.247524
0.232794
0.218743
0.205551
0.194949
0.194446
0.226512
0.316101
0.453411
0.592578
0.688815
0.732445
0.743076
0.739835
0.725317
0.692161
0.634824
0.555717
0.4651
0.37567
0.299083
0.240717
0.199911
0.171807
72.1332
55.7293
44.1385
35.7068
29.4173
24.6234
20.9005
17.9632
15.6116
13.7034
12.1361
10.8351
9.74502
8.82409
8.04067
7.37076
6.7962
6.30266
5.87709
5.50663
5.18
4.8877
4.62108
4.37606
4.15112
3.94613
3.76103
3.59824
3.45258
3.32213
3.20587
3.10296
3.0124
2.93308
2.86381
2.80342
2.75056
2.70378
2.66175
2.62349
2.59172
2.57905
2.62679
2.78874
3.03435
3.24783
3.34158
3.2966
3.13401
2.8851
2.58057
2.25141
1.92929
1.64265
1.40957
1.23566
1.11536
1.03579
0.982091
0.935922
)
;

boundaryField
{
    wall
    {
        type            epsilonWallFunction;
        value           nonuniform List<scalar> 
1200
(
72.1354
92.9318
92.8696
92.8695
92.8694
92.8694
92.8693
92.8694
92.9315
72.1316
55.7223
58.8549
58.5661
58.6392
58.6389
58.639
58.6412
58.5685
58.8398
55.7255
44.1278
39.2635
38.8918
38.9835
38.9733
38.9726
38.9842
38.8922
39.2357
44.1312
35.6957
27.337
26.9357
27.0249
27.0098
27.0087
27.0252
26.9341
27.3019
35.6994
29.4068
19.7199
19.3163
19.3941
19.3776
19.3762
19.3942
19.3133
19.6812
29.4108
24.6135
14.6464
14.262
14.3276
14.3115
14.31
14.3275
14.2592
14.613
24.6186
20.891
11.1493
10.7931
10.8477
10.8333
10.8319
10.8481
10.7917
11.1222
20.8984
17.9523
8.66868
8.34263
8.38729
8.37493
8.3739
8.38817
8.34229
8.64429
17.9618
15.5986
6.86621
6.56817
6.60402
6.59394
6.59319
6.60506
6.56845
6.84128
15.6096
13.6894
5.52856
5.25509
5.28359
5.27561
5.2751
5.28459
5.25572
5.50195
13.7008
12.1234
4.5148
4.26461
4.28735
4.28103
4.28067
4.28813
4.26538
4.48881
12.1338
10.8247
3.73342
3.50452
3.52285
3.51779
3.51751
3.52341
3.50533
3.70938
10.834
9.7366
3.12098
2.91219
2.92713
2.92301
2.92278
2.92752
2.91298
3.09983
9.74514
8.8169
2.63417
2.44422
2.45652
2.4531
2.45291
2.45675
2.44495
2.61594
8.82509
8.03344
2.24217
2.06991
2.08009
2.07724
2.07709
2.0802
2.07062
2.22693
8.04193
7.36178
1.92283
1.7672
1.77565
1.77328
1.77319
1.77565
1.76796
1.91097
7.37178
6.78298
1.66008
1.52
1.52702
1.52506
1.52503
1.52692
1.52084
1.6522
6.79674
6.28175
1.44195
1.31634
1.32219
1.32057
1.3206
1.32201
1.31728
1.43852
6.30277
5.84479
1.25959
1.14721
1.15209
1.15076
1.15083
1.15186
1.14821
1.26032
5.8769
5.46032
1.10669
1.00566
1.00974
1.00864
1.00876
1.0095
1.0067
1.10992
5.5063
5.11955
0.977781
0.88631
0.889755
0.888846
0.889006
0.889515
0.887343
0.981477
5.17963
4.81579
0.868485
0.785002
0.787929
0.787181
0.787372
0.787721
0.785991
0.87108
4.88741
4.54385
0.775266
0.698473
0.700982
0.700372
0.700589
0.700824
0.699435
0.776697
4.62135
4.30022
0.695117
0.624142
0.626311
0.625821
0.626058
0.626221
0.625104
0.69579
4.37702
4.08212
0.625628
0.559949
0.561834
0.561447
0.5617
0.56182
0.560916
0.626173
4.15296
3.88633
0.565436
0.504232
0.505874
0.50557
0.505836
0.505937
0.505198
0.566022
3.94932
3.71102
0.513198
0.455633
0.457069
0.45684
0.457122
0.457223
0.456607
0.513848
3.76662
3.55225
0.467988
0.413053
0.41432
0.414169
0.414471
0.414588
0.414058
0.467955
3.60219
3.40832
0.427787
0.375601
0.376734
0.376662
0.376989
0.377132
0.376656
0.428907
3.45472
3.27656
0.391849
0.342539
0.343564
0.343572
0.343926
0.344105
0.343654
0.395819
3.32322
3.15554
0.359964
0.313255
0.314188
0.314271
0.314658
0.314881
0.31443
0.367376
3.20655
3.0445
0.331587
0.287244
0.288083
0.288236
0.288662
0.288939
0.288463
0.342504
3.10356
2.94271
0.306255
0.264074
0.264814
0.26503
0.265504
0.265842
0.265317
0.32037
3.01308
2.84958
0.283586
0.243376
0.244025
0.244285
0.244816
0.245226
0.24463
0.300318
2.93389
2.76439
0.263249
0.224836
0.225398
0.225688
0.226285
0.22678
0.226098
0.281596
2.86479
2.68642
0.244964
0.208182
0.208666
0.208973
0.209645
0.210241
0.209446
0.264257
2.80455
2.61475
0.228482
0.193182
0.193594
0.19391
0.19467
0.195381
0.194443
0.248126
2.75183
2.54849
0.213587
0.179635
0.179978
0.180304
0.181164
0.182006
0.180911
0.232813
2.70512
2.48679
0.200085
0.167367
0.167646
0.167983
0.168955
0.169944
0.168705
0.217954
2.66309
2.42872
0.187797
0.156231
0.15645
0.156799
0.157891
0.159042
0.157712
0.204184
2.62474
2.37309
0.17656
0.146103
0.146264
0.146623
0.147839
0.149159
0.147885
0.193113
2.59363
2.31834
0.166221
0.13688
0.136985
0.137341
0.138688
0.140187
0.139412
0.194485
2.58398
2.26302
0.156653
0.128476
0.128526
0.12886
0.130358
0.132126
0.133497
0.232711
2.64063
2.20737
0.14779
0.12082
0.120815
0.121108
0.122802
0.125191
0.133354
0.33037
2.81418
2.1542
0.139647
0.11385
0.11379
0.114062
0.115995
0.119763
0.141998
0.471549
3.0621
2.10704
0.132322
0.107508
0.107393
0.107663
0.109881
0.115869
0.157633
0.607551
3.26586
2.0675
0.126335
0.101742
0.101567
0.101844
0.104358
0.113067
0.175725
0.696818
3.34495
2.03455
0.124426
0.0965477
0.0962563
0.0965304
0.0992964
0.110759
0.19194
0.734513
3.28668
2.00775
0.135313
0.0922031
0.0914186
0.0916558
0.0946404
0.108719
0.20417
0.742068
3.11452
1.99352
0.17332
0.0900013
0.0870652
0.0871673
0.0903446
0.106873
0.212489
0.737549
2.85975
2.00624
0.24727
0.0934046
0.083458
0.0830239
0.0863129
0.104982
0.21718
0.722087
2.55255
2.06247
0.352062
0.107684
0.0815875
0.0792274
0.0824252
0.102566
0.217351
0.687744
2.2234
2.16186
0.475598
0.1366
0.0834054
0.0760128
0.0785927
0.0988496
0.211413
0.629142
1.9035
2.26233
0.598435
0.176348
0.0905215
0.0739235
0.0750584
0.0932678
0.198327
0.549117
1.62054
2.33845
0.680901
0.214284
0.101568
0.0735004
0.0719331
0.0877528
0.179168
0.458281
1.39173
2.36102
0.698837
0.236117
0.111864
0.0744726
0.0693347
0.0826355
0.159533
0.369367
1.22189
2.31609
0.65208
0.235379
0.11692
0.0757481
0.0672489
0.0780397
0.14333
0.294008
1.10495
2.21373
0.560339
0.215315
0.115085
0.0760632
0.065451
0.0740073
0.130326
0.236972
1.02778
2.08029
0.452256
0.184926
0.108018
0.0750609
0.0637852
0.0704689
0.11988
0.197249
0.975486
1.94046
0.347672
0.153024
0.0979926
0.072512
0.0619276
0.0673522
0.111407
0.169838
0.929847
72.1358
92.9318
92.8695
92.8695
92.8694
92.8693
92.8693
92.8694
92.9314
72.1332
55.7274
58.8529
58.573
58.6439
58.6433
58.6424
58.6449
58.5692
58.8449
55.7293
44.1286
39.2527
38.8963
38.9863
38.9773
38.9765
38.9894
38.8943
39.2481
44.1385
35.6926
27.3221
26.9365
27.0252
27.0119
27.011
27.0295
26.9359
27.317
35.7068
29.4003
19.7065
19.3138
19.3926
19.3778
19.377
19.3973
19.315
19.6946
29.4173
24.6057
14.639
14.2573
14.3249
14.3101
14.3095
14.3291
14.2601
14.6201
24.6234
20.8853
11.1464
10.7887
10.8451
10.8312
10.8306
10.8482
10.7914
11.123
20.9005
17.9506
8.66709
8.34021
8.38603
8.37379
8.37312
8.3881
8.34199
8.64379
17.9632
15.6005
6.86377
6.56766
6.60432
6.59411
6.59347
6.60566
6.56882
6.84314
15.6116
13.6927
5.5241
5.25548
5.28467
5.27646
5.27591
5.28563
5.25648
5.50619
13.7034
12.1254
4.50944
4.26492
4.28828
4.28179
4.28138
4.28908
4.26607
4.49332
12.1361
10.8246
3.72865
3.50444
3.52327
3.51811
3.51783
3.52393
3.50568
3.71226
10.8351
9.73513
3.11756
2.9118
2.92708
2.92294
2.92274
2.92759
2.913
3.10096
9.74502
8.81472
2.6318
2.44367
2.45617
2.45279
2.45265
2.4565
2.4448
2.61611
8.82409
8.03128
2.24029
2.06936
2.07965
2.07687
2.07678
2.07983
2.07044
2.22685
8.04067
7.36018
1.92113
1.76679
1.77529
1.77298
1.77294
1.77533
1.76782
1.911
7.37076
6.78211
1.65844
1.51976
1.5268
1.52489
1.52489
1.52673
1.52077
1.65235
6.7962
6.28151
1.44038
1.31625
1.3221
1.3205
1.32055
1.32193
1.31726
1.43865
6.30266
5.84494
1.25816
1.14721
1.15208
1.15075
1.15083
1.15185
1.14823
1.26028
5.87709
5.46032
1.10562
1.00569
1.00977
1.00866
1.00878
1.00951
1.00672
1.10967
5.50663
5.11938
0.976997
0.886352
0.889789
0.888875
0.889032
0.889538
0.88736
0.981023
5.18
4.8156
0.867814
0.785047
0.787966
0.787211
0.787399
0.787746
0.786004
0.870516
4.8877
4.54375
0.774564
0.698522
0.701021
0.700402
0.700616
0.70085
0.699456
0.776245
4.62108
4.29995
0.694456
0.624194
0.626351
0.625852
0.626086
0.626248
0.625127
0.695393
4.37606
4.08189
0.625247
0.559988
0.561864
0.561471
0.561724
0.561846
0.560939
0.625675
4.15112
3.88631
0.565215
0.504233
0.505881
0.505584
0.505856
0.505961
0.50522
0.56523
3.94613
3.71047
0.513679
0.455603
0.457062
0.45685
0.457141
0.457247
0.456629
0.512572
3.76103
3.55171
0.468986
0.413021
0.414317
0.414184
0.414494
0.414616
0.414083
0.466499
3.59824
3.40803
0.429055
0.375589
0.376745
0.376685
0.377017
0.377166
0.376685
0.427452
3.45258
3.27671
0.392875
0.342552
0.343588
0.343599
0.343958
0.344143
0.343687
0.394468
3.32213
3.15556
0.360648
0.313282
0.314218
0.3143
0.314692
0.314924
0.314464
0.366143
3.20587
3.04437
0.331981
0.287266
0.288114
0.288265
0.2887
0.288986
0.288498
0.341301
3.10296
2.94256
0.306462
0.264081
0.264841
0.265059
0.265544
0.265895
0.265354
0.319112
3.0124
2.84945
0.283688
0.243368
0.244037
0.244313
0.244858
0.245285
0.244662
0.298989
2.93308
2.76432
0.263299
0.224816
0.225395
0.225716
0.22633
0.226846
0.226113
0.280422
2.86381
2.6864
0.244988
0.208155
0.208649
0.209
0.209694
0.210314
0.209441
0.26329
2.80342
2.6148
0.228493
0.193151
0.193565
0.193937
0.194722
0.195461
0.19442
0.247524
2.75056
2.54863
0.213591
0.179602
0.179944
0.180332
0.181219
0.182093
0.180887
0.232794
2.70378
2.48707
0.200086
0.167333
0.167611
0.168014
0.169014
0.17004
0.168698
0.218743
2.66175
2.42921
0.187798
0.156199
0.156417
0.156835
0.157953
0.159146
0.157735
0.205551
2.62349
2.37387
0.176563
0.146072
0.146235
0.146663
0.147906
0.149274
0.147956
0.194949
2.59172
2.31954
0.166229
0.136848
0.136957
0.137385
0.138761
0.14032
0.13955
0.194446
2.57905
2.26468
0.156666
0.128441
0.128496
0.128911
0.130441
0.1323
0.133617
0.226512
2.62679
2.20932
0.147802
0.12078
0.120781
0.121167
0.122903
0.125434
0.132627
0.316101
2.78874
2.15608
0.139649
0.113805
0.113751
0.114104
0.116118
0.120068
0.139958
0.453411
3.03435
2.10853
0.132292
0.107459
0.107348
0.107673
0.110025
0.116192
0.154801
0.592578
3.24783
2.0685
0.126183
0.101687
0.101516
0.101821
0.104514
0.113348
0.172967
0.688815
3.34158
2.0352
0.123735
0.0964792
0.0961997
0.0964848
0.099459
0.110931
0.189816
0.732445
3.2966
2.00806
0.132947
0.0920666
0.0913567
0.0915959
0.0947652
0.108657
0.20281
0.743076
3.13401
1.99265
0.167757
0.0895953
0.0869895
0.0870989
0.0903842
0.106666
0.211795
0.739835
2.8851
2.00242
0.237872
0.0922588
0.0833186
0.0829511
0.0862796
0.104767
0.217028
0.725317
2.58057
2.05362
0.339471
0.105207
0.0812401
0.0791444
0.0823599
0.102445
0.217693
0.692161
2.25141
2.14953
0.460788
0.132523
0.0826138
0.0758825
0.0785028
0.0989119
0.21224
0.634824
1.92929
2.25045
0.584856
0.171396
0.0891771
0.0736779
0.0749517
0.0934493
0.199647
0.555717
1.64265
2.33043
0.672954
0.210054
0.0999552
0.0730984
0.0718
0.0878963
0.180725
0.4651
1.40957
2.36071
0.698708
0.23405
0.110536
0.0739771
0.0691667
0.0827367
0.160832
0.37567
1.23566
2.32491
0.659219
0.235898
0.116293
0.0752943
0.0670542
0.078094
0.144304
0.299083
1.11536
2.22972
0.57208
0.21778
0.115198
0.0757558
0.0652518
0.0740169
0.13103
0.240717
1.03579
2.09972
0.465431
0.188291
0.108657
0.0749302
0.0636014
0.0704402
0.120369
0.199911
0.982091
1.95995
0.359156
0.156311
0.0988464
0.0725111
0.0617674
0.067295
0.111747
0.171807
0.935922
)
;
    }
    inlet
    {
        type            turbulentMixingLengthDissipationRateInlet;
        mixingLength    0.071;
        phi             phi;
        k               k;
        value           uniform 2.17686;
    }
    outlet
    {
        type            inletOutlet;
        inletValue      uniform 0.0001;
        value           nonuniform List<scalar> 
20
(
1.94046
0.347672
0.153024
0.0979926
0.072512
0.0619276
0.0673522
0.111407
0.169838
0.929847
1.95995
0.359156
0.156311
0.0988464
0.0725111
0.0617674
0.067295
0.111747
0.171807
0.935922
)
;
    }
    heatWall
    {
        type            epsilonWallFunction;
        value           nonuniform List<scalar> 
240
(
72.1316
72.1332
55.7255
55.7293
44.1312
44.1385
35.6994
35.7068
29.4108
29.4173
24.6186
24.6234
20.8984
20.9005
17.9618
17.9632
15.6096
15.6116
13.7008
13.7034
12.1338
12.1361
10.834
10.8351
9.74514
9.74502
8.82509
8.82409
8.04193
8.04067
7.37178
7.37076
6.79674
6.7962
6.30277
6.30266
5.8769
5.87709
5.5063
5.50663
5.17963
5.18
4.88741
4.8877
4.62135
4.62108
4.37702
4.37606
4.15296
4.15112
3.94932
3.94613
3.76662
3.76103
3.60219
3.59824
3.45472
3.45258
3.32322
3.32213
3.20655
3.20587
3.10356
3.10296
3.01308
3.0124
2.93389
2.93308
2.86479
2.86381
2.80455
2.80342
2.75183
2.75056
2.70512
2.70378
2.66309
2.66175
2.62474
2.62349
2.59363
2.59172
2.58398
2.57905
2.64063
2.62679
2.81418
2.78874
3.0621
3.03435
3.26586
3.24783
3.34495
3.34158
3.28668
3.2966
3.11452
3.13401
2.85975
2.8851
2.55255
2.58057
2.2234
2.25141
1.9035
1.92929
1.62054
1.64265
1.39173
1.40957
1.22189
1.23566
1.10495
1.11536
1.02778
1.03579
0.975486
0.982091
0.929847
0.935922
72.1354
72.1358
55.7223
55.7274
44.1278
44.1286
35.6957
35.6926
29.4068
29.4003
24.6135
24.6057
20.891
20.8853
17.9523
17.9506
15.5986
15.6005
13.6894
13.6927
12.1234
12.1254
10.8247
10.8246
9.7366
9.73513
8.8169
8.81472
8.03344
8.03128
7.36178
7.36018
6.78298
6.78211
6.28175
6.28151
5.84479
5.84494
5.46032
5.46032
5.11955
5.11938
4.81579
4.8156
4.54385
4.54375
4.30022
4.29995
4.08212
4.08189
3.88633
3.88631
3.71102
3.71047
3.55225
3.55171
3.40832
3.40803
3.27656
3.27671
3.15554
3.15556
3.0445
3.04437
2.94271
2.94256
2.84958
2.84945
2.76439
2.76432
2.68642
2.6864
2.61475
2.6148
2.54849
2.54863
2.48679
2.48707
2.42872
2.42921
2.37309
2.37387
2.31834
2.31954
2.26302
2.26468
2.20737
2.20932
2.1542
2.15608
2.10704
2.10853
2.0675
2.0685
2.03455
2.0352
2.00775
2.00806
1.99352
1.99265
2.00624
2.00242
2.06247
2.05362
2.16186
2.14953
2.26233
2.25045
2.33845
2.33043
2.36102
2.36071
2.31609
2.32491
2.21373
2.22972
2.08029
2.09972
1.94046
1.95995
)
;
    }
}


// ************************************************************************* //
