/*--------------------------------*- C++ -*----------------------------------*\
  =========                 |
  \\      /  F ield         | OpenFOAM: The Open Source CFD Toolbox
   \\    /   O peration     | Website:  https://openfoam.org
    \\  /    A nd           | Version:  8
     \\/     M anipulation  |
\*---------------------------------------------------------------------------*/
FoamFile
{
    version     2.0;
    format      ascii;
    class       volScalarField;
    location    "1000";
    object      nut;
}
// * * * * * * * * * * * * * * * * * * * * * * * * * * * * * * * * * * * * * //

dimensions      [0 2 -1 0 0 0 0];

internalField   nonuniform List<scalar> 
1200
(
0.000805084
0.0007387
0.000683433
0.000636792
0.000596955
0.000562578
0.000532653
0.000506406
0.00048323
0.000462651
0.00044429
0.000427822
0.000412978
0.000399542
0.000387338
0.000376227
0.000366097
0.000356847
0.000348374
0.000340562
0.000333325
0.000326598
0.00032033
0.000314499
0.000309089
0.000304066
0.000299422
0.000295089
0.000291047
0.000287249
0.00028367
0.000280306
0.000277149
0.000274195
0.000271436
0.00026886
0.000266448
0.000264179
0.000262033
0.000259986
0.000258002
0.000256029
0.000254008
0.000251929
0.000249888
0.000248028
0.00024644
0.000245107
0.000244002
0.000243331
0.000243629
0.000245547
0.00024926
0.00025315
0.000256238
0.000257549
0.00025647
0.000253102
0.000248181
0.000242566
0.000468116
0.000402
0.000351259
0.000311326
0.000279212
0.000252858
0.000230878
0.000212301
0.000196429
0.000182742
0.000170811
0.000160327
0.000151031
0.000142732
0.000135268
0.000128515
0.000122372
0.000116759
0.000111615
0.000106902
0.000102579
9.86049e-05
9.4943e-05
9.15523e-05
8.83929e-05
8.5462e-05
8.27463e-05
8.02439e-05
7.78801e-05
7.56349e-05
7.35246e-05
7.15389e-05
6.96682e-05
6.79043e-05
6.62397e-05
6.46679e-05
6.31827e-05
6.17778e-05
6.04468e-05
5.91828e-05
5.79782e-05
5.68245e-05
5.57136e-05
5.46424e-05
5.36175e-05
5.26558e-05
5.18192e-05
5.14241e-05
5.25149e-05
5.656e-05
6.34745e-05
7.15172e-05
7.92759e-05
8.60167e-05
9.03701e-05
9.17449e-05
9.0199e-05
8.62135e-05
8.06145e-05
7.39957e-05
0.000468011
0.000401341
0.000350148
0.000309795
0.000277294
0.000250626
0.000228392
0.000209604
0.000193544
0.000179677
0.000167594
0.000156979
0.000147584
0.000139212
0.000131709
0.000124947
0.000118826
0.000113262
0.000108187
0.000103541
9.92713e-05
9.53348e-05
9.16945e-05
8.8319e-05
8.51807e-05
8.2256e-05
7.95234e-05
7.69644e-05
7.45639e-05
7.23083e-05
7.01857e-05
6.81862e-05
6.63008e-05
6.45208e-05
6.28384e-05
6.12464e-05
5.97381e-05
5.83071e-05
5.69478e-05
5.5655e-05
5.44247e-05
5.32537e-05
5.21397e-05
5.10814e-05
5.0078e-05
4.91285e-05
4.82319e-05
4.7392e-05
4.66488e-05
4.61916e-05
4.65583e-05
4.85224e-05
5.23322e-05
5.70577e-05
6.11885e-05
6.35952e-05
6.39133e-05
6.23509e-05
5.94765e-05
5.59298e-05
0.000468011
0.000401508
0.000350422
0.000310136
0.000277665
0.000251009
0.000228777
0.000209977
0.000193896
0.000180001
0.000167891
0.000157252
0.000147836
0.000139446
0.000131924
0.000125146
0.000119009
0.00011343
0.000108341
0.000103681
9.93997e-05
9.5453e-05
9.18041e-05
8.84211e-05
8.52761e-05
8.23451e-05
7.96066e-05
7.70428e-05
7.46385e-05
7.23801e-05
7.0255e-05
6.82523e-05
6.63624e-05
6.45778e-05
6.28906e-05
6.12938e-05
5.97805e-05
5.83443e-05
5.69795e-05
5.56811e-05
5.44449e-05
5.32676e-05
5.21468e-05
5.1081e-05
5.00695e-05
4.91112e-05
4.82047e-05
4.73475e-05
4.65385e-05
4.57826e-05
4.51202e-05
4.47137e-05
4.49087e-05
4.60148e-05
4.77958e-05
4.94777e-05
5.03974e-05
5.0307e-05
4.93859e-05
4.78778e-05
0.000468011
0.000401508
0.000350392
0.000310079
0.000277587
0.000250915
0.000228675
0.000209874
0.000193797
0.00017991
0.000167809
0.000157177
0.000147766
0.000139381
0.000131864
0.00012509
0.000118958
0.000113384
0.000108299
0.000103643
9.93658e-05
9.54229e-05
9.17774e-05
8.83979e-05
8.52564e-05
8.23283e-05
7.95931e-05
7.70331e-05
7.46334e-05
7.23801e-05
7.02605e-05
6.82636e-05
6.63795e-05
6.45997e-05
6.29163e-05
6.13224e-05
5.98114e-05
5.83776e-05
5.70157e-05
5.57205e-05
5.44872e-05
5.33114e-05
5.21894e-05
5.11195e-05
5.01058e-05
4.91481e-05
4.82436e-05
4.73876e-05
4.65746e-05
4.58005e-05
4.5062e-05
4.43607e-05
4.37361e-05
4.32925e-05
4.31589e-05
4.3322e-05
4.35862e-05
4.36945e-05
4.3557e-05
4.30983e-05
0.000468011
0.000401508
0.00035039
0.000310075
0.00027758
0.000250907
0.000228666
0.000209866
0.00019379
0.000179905
0.000167804
0.000157173
0.000147762
0.000139377
0.000131861
0.000125088
0.000118957
0.000113384
0.000108301
0.000103647
9.93717e-05
9.54304e-05
9.17868e-05
8.8409e-05
8.5269e-05
8.23426e-05
7.96092e-05
7.70515e-05
7.46545e-05
7.24043e-05
7.02884e-05
6.82961e-05
6.64176e-05
6.46446e-05
6.29695e-05
6.13854e-05
5.98863e-05
5.84666e-05
5.71211e-05
5.58446e-05
5.46319e-05
5.34784e-05
5.2382e-05
5.1344e-05
5.03693e-05
4.94596e-05
4.86094e-05
4.78063e-05
4.70469e-05
4.63264e-05
4.56309e-05
4.49416e-05
4.42337e-05
4.35575e-05
4.29353e-05
4.23989e-05
4.1959e-05
4.15788e-05
4.12275e-05
4.08299e-05
0.000468011
0.000401513
0.000350425
0.000310138
0.000277666
0.000251009
0.00022878
0.000209985
0.000193906
0.000180012
0.000167901
0.00015726
0.000147842
0.00013945
0.000131927
0.000125146
0.000119006
0.000113425
0.000108333
0.000103672
9.93907e-05
9.54445e-05
9.1797e-05
8.84165e-05
8.5275e-05
8.23479e-05
7.96147e-05
7.70583e-05
7.46634e-05
7.2416e-05
7.03041e-05
6.83165e-05
6.6444e-05
6.46784e-05
6.30124e-05
6.14397e-05
5.99544e-05
5.85514e-05
5.72257e-05
5.59719e-05
5.47841e-05
5.36576e-05
5.25971e-05
5.16349e-05
5.08404e-05
5.02509e-05
4.98277e-05
4.94909e-05
4.92069e-05
4.89554e-05
4.86956e-05
4.83538e-05
4.78115e-05
4.69223e-05
4.59651e-05
4.50427e-05
4.4179e-05
4.33912e-05
4.2676e-05
4.20274e-05
0.000468011
0.000401347
0.000350149
0.000309789
0.00027728
0.00025061
0.000228382
0.000209601
0.000193547
0.000179684
0.000167604
0.000156991
0.000147597
0.000139226
0.000131724
0.000124965
0.000118848
0.000113289
0.000108219
0.000103577
9.931e-05
9.5375e-05
9.17367e-05
8.83642e-05
8.52294e-05
8.2308e-05
7.95793e-05
7.70259e-05
7.46324e-05
7.23851e-05
7.02715e-05
6.82804e-05
6.64022e-05
6.46285e-05
6.29526e-05
6.13666e-05
5.9864e-05
5.84401e-05
5.70926e-05
5.58209e-05
5.46285e-05
5.35404e-05
5.26876e-05
5.24925e-05
5.34405e-05
5.53062e-05
5.74395e-05
5.92972e-05
6.06651e-05
6.15823e-05
6.21125e-05
6.22018e-05
6.17063e-05
6.04954e-05
5.85418e-05
5.62971e-05
5.4283e-05
5.25488e-05
5.10694e-05
4.98087e-05
0.000468115
0.000401966
0.000351177
0.000311194
0.00027903
0.000252666
0.000230692
0.000212102
0.000196192
0.000182449
0.000170483
0.000159982
0.00015069
0.000142401
0.000134961
0.000128251
0.000122179
0.000116669
0.00011164
0.000107013
0.000102719
9.87144e-05
9.50117e-05
9.15904e-05
8.8427e-05
8.54983e-05
8.27851e-05
8.02428e-05
7.79423e-05
7.5881e-05
7.40169e-05
7.23076e-05
7.07173e-05
6.92144e-05
6.77542e-05
6.63383e-05
6.49659e-05
6.36098e-05
6.22351e-05
6.08916e-05
5.96596e-05
5.93886e-05
6.22583e-05
6.96009e-05
7.87528e-05
8.64058e-05
9.10985e-05
9.31347e-05
9.36509e-05
9.35423e-05
9.29523e-05
9.15527e-05
8.90014e-05
8.5193e-05
8.03326e-05
7.48451e-05
6.93674e-05
6.45036e-05
6.06044e-05
5.75985e-05
0.00080507
0.000738714
0.000683451
0.000636814
0.000596982
0.000562617
0.000532716
0.000506495
0.000483343
0.000462778
0.000444417
0.000427943
0.000413098
0.000399665
0.000387474
0.000376397
0.000366344
0.000357243
0.000349007
0.00034151
0.000334617
0.000328204
0.00032214
0.000316363
0.000310871
0.000305705
0.000300913
0.000296466
0.00029236
0.000288599
0.000285176
0.000282082
0.000279305
0.000276827
0.000274626
0.000272678
0.00027095
0.000269403
0.000267999
0.000266696
0.000265606
0.00026509
0.00026649
0.000271632
0.00027943
0.000286095
0.000289117
0.000288062
0.000283437
0.000275873
0.000265919
0.000254178
0.000241471
0.000228865
0.000217442
0.000208034
0.000200971
0.000196007
0.00019252
0.000189447
0.000805085
0.000738722
0.000683437
0.000636772
0.00059691
0.000562519
0.000532605
0.000506389
0.000483249
0.000462688
0.000444314
0.000427822
0.000412957
0.000399509
0.000387304
0.0003762
0.000366082
0.000356843
0.000348378
0.000340563
0.000333322
0.000326595
0.00032033
0.000314495
0.000309085
0.000304065
0.000299406
0.000295072
0.000291037
0.000287252
0.00028367
0.000280301
0.000277143
0.000274191
0.000271434
0.000268859
0.000266449
0.000264183
0.000262042
0.000260002
0.000258028
0.00025607
0.000254066
0.000252003
0.000249963
0.000248091
0.000246484
0.000245136
0.000244019
0.000243309
0.000243503
0.000245235
0.000248775
0.00025269
0.000255901
0.000257467
0.000256718
0.000253649
0.000248921
0.000243373
0.000468116
0.000401995
0.000351227
0.00031127
0.000279149
0.000252816
0.000230858
0.000212288
0.000196406
0.000182693
0.000170744
0.000160259
0.000150977
0.000142689
0.000135231
0.000128477
0.000122332
0.000116717
0.000111572
0.000106867
0.000102551
9.85789e-05
9.49133e-05
9.15213e-05
8.83738e-05
8.54517e-05
8.27736e-05
8.03023e-05
7.79573e-05
7.57013e-05
7.35717e-05
7.15677e-05
6.96841e-05
6.79126e-05
6.62441e-05
6.46703e-05
6.31841e-05
6.17785e-05
6.04472e-05
5.91831e-05
5.79786e-05
5.68254e-05
5.57151e-05
5.46442e-05
5.36182e-05
5.2653e-05
5.18033e-05
5.13481e-05
5.22501e-05
5.59891e-05
6.2672e-05
7.06463e-05
7.84312e-05
8.53103e-05
8.99518e-05
9.16689e-05
9.04588e-05
8.6752e-05
8.1344e-05
7.47762e-05
0.000468011
0.000401357
0.000350161
0.000309798
0.000277281
0.000250598
0.000228361
0.000209584
0.000193539
0.000179681
0.000167598
0.000156978
0.000147577
0.000139202
0.000131697
0.000124937
0.00011882
0.00011326
0.000108187
0.000103542
9.92728e-05
9.53366e-05
9.16967e-05
8.83214e-05
8.51827e-05
8.22561e-05
7.95216e-05
7.69624e-05
7.4563e-05
7.23091e-05
7.01877e-05
6.8188e-05
6.63013e-05
6.452e-05
6.28365e-05
6.12438e-05
5.97349e-05
5.83035e-05
5.6944e-05
5.56512e-05
5.44208e-05
5.32496e-05
5.21351e-05
5.1076e-05
5.00716e-05
4.91212e-05
4.82235e-05
4.73815e-05
4.66292e-05
4.61344e-05
4.6394e-05
4.81773e-05
5.18173e-05
5.6502e-05
6.07465e-05
6.3364e-05
6.39167e-05
6.25528e-05
5.98121e-05
5.63162e-05
0.000468011
0.000401519
0.000350431
0.000310138
0.000277658
0.000250993
0.000228758
0.000209967
0.000193899
0.000180013
0.000167903
0.000157258
0.000147835
0.000139439
0.000131915
0.000125137
0.000119003
0.000113427
0.00010834
0.000103682
9.9401e-05
9.54545e-05
9.18059e-05
8.8423e-05
8.52777e-05
8.23455e-05
7.96062e-05
7.70426e-05
7.46392e-05
7.23818e-05
7.02573e-05
6.82548e-05
6.63648e-05
6.4579e-05
6.28903e-05
6.12919e-05
5.97773e-05
5.83404e-05
5.69753e-05
5.56771e-05
5.44412e-05
5.3264e-05
5.21429e-05
5.10764e-05
5.00638e-05
4.91044e-05
4.81967e-05
4.73384e-05
4.65282e-05
4.577e-05
4.50984e-05
4.46595e-05
4.47814e-05
4.57963e-05
4.7537e-05
4.9264e-05
5.02857e-05
5.03043e-05
4.94696e-05
4.80084e-05
0.000468011
0.000401518
0.000350404
0.000310087
0.000277587
0.000250907
0.00022866
0.000209865
0.000193799
0.00017992
0.000167819
0.000157181
0.000147765
0.000139375
0.000131856
0.000125083
0.000118953
0.000113382
0.000108299
0.000103644
9.93669e-05
9.5424e-05
9.17788e-05
8.83993e-05
8.52576e-05
8.23291e-05
7.95936e-05
7.70341e-05
7.4635e-05
7.2382e-05
7.02627e-05
6.82659e-05
6.63819e-05
6.46021e-05
6.29189e-05
6.13249e-05
5.98141e-05
5.83806e-05
5.70192e-05
5.57246e-05
5.44921e-05
5.33171e-05
5.21963e-05
5.11276e-05
5.01118e-05
4.91496e-05
4.824e-05
4.73801e-05
4.65645e-05
4.57885e-05
4.50489e-05
4.43459e-05
4.37134e-05
4.32491e-05
4.30845e-05
4.3226e-05
4.34946e-05
4.36288e-05
4.35251e-05
4.30927e-05
0.000468011
0.000401516
0.000350402
0.000310083
0.000277584
0.000250903
0.000228656
0.000209859
0.000193792
0.000179914
0.000167813
0.000157177
0.000147761
0.000139372
0.000131854
0.000125082
0.000118953
0.000113383
0.000108301
0.000103648
9.93727e-05
9.54315e-05
9.1788e-05
8.84102e-05
8.52702e-05
8.23436e-05
7.96102e-05
7.70528e-05
7.46563e-05
7.24064e-05
7.02909e-05
6.82989e-05
6.64208e-05
6.46482e-05
6.29735e-05
6.139e-05
5.98914e-05
5.84724e-05
5.71276e-05
5.58518e-05
5.46399e-05
5.34874e-05
5.23925e-05
5.13571e-05
5.03858e-05
4.94799e-05
4.86325e-05
4.78311e-05
4.70656e-05
4.63313e-05
4.56237e-05
4.49288e-05
4.42174e-05
4.35374e-05
4.29101e-05
4.23662e-05
4.19193e-05
4.15365e-05
4.11869e-05
4.07935e-05
0.000468011
0.000401521
0.00035044
0.000310154
0.000277681
0.000251018
0.00022878
0.000209984
0.000193912
0.000180024
0.000167914
0.000157268
0.000147843
0.000139445
0.000131919
0.000125138
0.000119001
0.000113423
0.000108333
0.000103673
9.93915e-05
9.54455e-05
9.17982e-05
8.84178e-05
8.52762e-05
8.23491e-05
7.96161e-05
7.706e-05
7.46655e-05
7.24186e-05
7.03071e-05
6.83201e-05
6.64482e-05
6.46833e-05
6.30182e-05
6.14465e-05
5.99623e-05
5.85605e-05
5.7236e-05
5.59836e-05
5.47975e-05
5.36733e-05
5.26176e-05
5.16647e-05
5.08799e-05
5.02946e-05
4.98665e-05
4.95131e-05
4.91924e-05
4.8919e-05
4.86589e-05
4.83324e-05
4.78189e-05
4.69596e-05
4.5996e-05
4.50649e-05
4.41921e-05
4.33957e-05
4.26726e-05
4.20176e-05
0.000468011
0.000401349
0.000350155
0.000309796
0.000277288
0.000250615
0.00022838
0.000209599
0.00019355
0.000179693
0.000167613
0.000156996
0.000147597
0.000139223
0.00013172
0.000124961
0.000118846
0.000113289
0.00010822
0.000103577
9.93107e-05
9.53755e-05
9.17375e-05
8.83652e-05
8.52305e-05
8.23092e-05
7.95805e-05
7.70274e-05
7.46343e-05
7.23873e-05
7.02739e-05
6.82831e-05
6.64052e-05
6.46314e-05
6.29541e-05
6.13662e-05
5.98616e-05
5.84372e-05
5.70914e-05
5.58228e-05
5.46358e-05
5.35557e-05
5.2704e-05
5.24177e-05
5.32004e-05
5.49718e-05
5.71233e-05
5.9061e-05
6.05166e-05
6.1506e-05
6.20919e-05
6.22296e-05
6.17822e-05
6.06225e-05
5.87103e-05
5.64585e-05
5.44112e-05
5.2648e-05
5.11427e-05
4.98624e-05
0.000468115
0.000401977
0.000351214
0.000311251
0.000279093
0.000252707
0.000230697
0.000212098
0.00019621
0.000182496
0.00017054
0.000160024
0.000150708
0.000142405
0.00013496
0.000128252
0.000122184
0.000116673
0.000111639
0.000107005
0.000102704
9.86927e-05
9.49927e-05
9.15724e-05
8.8403e-05
8.54584e-05
8.27168e-05
8.01593e-05
7.7854e-05
7.57951e-05
7.39349e-05
7.22243e-05
7.06263e-05
6.91134e-05
6.76568e-05
6.62535e-05
6.49072e-05
6.35999e-05
6.22999e-05
6.10087e-05
5.98527e-05
5.94532e-05
6.18001e-05
6.8602e-05
7.76718e-05
8.56103e-05
9.0683e-05
9.30085e-05
9.36767e-05
9.36331e-05
9.30869e-05
9.17429e-05
8.92613e-05
8.55246e-05
8.07213e-05
7.52624e-05
6.97652e-05
6.48456e-05
6.08801e-05
5.78226e-05
0.000805076
0.000738731
0.000683488
0.000636857
0.000597025
0.000562653
0.000532734
0.000506507
0.000483364
0.000462808
0.000444444
0.000427959
0.000413096
0.00039965
0.000387454
0.00037638
0.000366334
0.000357241
0.000349011
0.000341517
0.000334625
0.000328212
0.000322136
0.000316341
0.000310828
0.000305625
0.000300768
0.000296359
0.0002923
0.000288567
0.000285155
0.000282064
0.000279284
0.000276801
0.000274595
0.000272641
0.000270908
0.000269358
0.000267953
0.000266656
0.000265547
0.000264952
0.00026609
0.000270851
0.000278551
0.000285496
0.000288948
0.000288294
0.000283984
0.000276654
0.000266866
0.000255225
0.00024255
0.000229903
0.000218374
0.000208823
0.000201611
0.000196522
0.000192957
0.000189858
)
;

boundaryField
{
    wall
    {
        type            nutkWallFunction;
        Cmu             0.09;
        kappa           0.41;
        E               9.8;
        value           nonuniform List<scalar> 
1200
(
5.15286e-05
4.82506e-05
4.82409e-05
4.82408e-05
4.82408e-05
4.82408e-05
4.82408e-05
4.82408e-05
4.82506e-05
5.15278e-05
4.76472e-05
4.20055e-05
4.19429e-05
4.19587e-05
4.19587e-05
4.19587e-05
4.19592e-05
4.19434e-05
4.20023e-05
4.76481e-05
4.43912e-05
3.71476e-05
3.70404e-05
3.70669e-05
3.7064e-05
3.70638e-05
3.70671e-05
3.70406e-05
3.71396e-05
4.43923e-05
4.16243e-05
3.32776e-05
3.31283e-05
3.31616e-05
3.3156e-05
3.31556e-05
3.31617e-05
3.31277e-05
3.32646e-05
4.16256e-05
3.92459e-05
3.01308e-05
2.99418e-05
2.99784e-05
2.99706e-05
2.997e-05
2.99784e-05
2.99404e-05
3.01128e-05
3.92475e-05
3.71815e-05
2.75222e-05
2.73001e-05
2.73383e-05
2.73289e-05
2.7328e-05
2.73382e-05
2.72985e-05
2.75031e-05
3.71839e-05
3.53746e-05
2.53262e-05
2.50766e-05
2.51153e-05
2.5105e-05
2.51041e-05
2.51156e-05
2.50756e-05
2.53075e-05
3.53785e-05
3.37819e-05
2.34541e-05
2.31811e-05
2.32189e-05
2.32084e-05
2.32076e-05
2.32196e-05
2.31808e-05
2.34339e-05
3.37873e-05
3.23689e-05
2.18417e-05
2.15473e-05
2.15832e-05
2.15731e-05
2.15724e-05
2.15843e-05
2.15476e-05
2.18175e-05
3.23758e-05
3.11088e-05
2.04407e-05
2.01256e-05
2.0159e-05
2.01497e-05
2.01491e-05
2.01602e-05
2.01264e-05
2.04106e-05
3.11167e-05
2.998e-05
1.92108e-05
1.88779e-05
1.89087e-05
1.89001e-05
1.88996e-05
1.89097e-05
1.88789e-05
1.91769e-05
2.99878e-05
2.89636e-05
1.81229e-05
1.77741e-05
1.78026e-05
1.77948e-05
1.77943e-05
1.78035e-05
1.77754e-05
1.8087e-05
2.89712e-05
2.80443e-05
1.71522e-05
1.67908e-05
1.68173e-05
1.681e-05
1.68096e-05
1.68179e-05
1.67922e-05
1.71164e-05
2.80517e-05
2.72093e-05
1.62803e-05
1.59092e-05
1.59339e-05
1.5927e-05
1.59266e-05
1.59343e-05
1.59107e-05
1.62455e-05
2.7217e-05
2.64486e-05
1.54918e-05
1.51144e-05
1.51373e-05
1.51309e-05
1.51305e-05
1.51375e-05
1.5116e-05
1.54592e-05
2.64571e-05
2.57539e-05
1.47744e-05
1.4394e-05
1.44152e-05
1.44093e-05
1.44091e-05
1.44152e-05
1.43959e-05
1.47462e-05
2.57646e-05
2.51188e-05
1.41184e-05
1.37384e-05
1.3758e-05
1.37525e-05
1.37525e-05
1.37577e-05
1.37407e-05
1.40977e-05
2.51343e-05
2.45373e-05
1.3516e-05
1.31394e-05
1.31575e-05
1.31525e-05
1.31526e-05
1.31569e-05
1.31423e-05
1.35061e-05
2.45623e-05
2.40033e-05
1.29611e-05
1.25903e-05
1.26069e-05
1.26024e-05
1.26026e-05
1.26061e-05
1.25937e-05
1.29635e-05
2.40435e-05
2.35099e-05
1.24505e-05
1.20851e-05
1.21004e-05
1.20963e-05
1.20968e-05
1.20995e-05
1.2089e-05
1.2462e-05
2.35701e-05
2.30518e-05
1.198e-05
1.16188e-05
1.16329e-05
1.16292e-05
1.16298e-05
1.16319e-05
1.16231e-05
1.19943e-05
2.31339e-05
2.2625e-05
1.15456e-05
1.1187e-05
1.12e-05
1.11967e-05
1.11975e-05
1.11991e-05
1.11914e-05
1.15566e-05
2.27272e-05
2.22267e-05
1.11436e-05
1.0786e-05
1.07981e-05
1.07951e-05
1.07962e-05
1.07973e-05
1.07906e-05
1.11503e-05
2.23418e-05
2.18554e-05
1.07699e-05
1.04125e-05
1.04239e-05
1.04213e-05
1.04225e-05
1.04234e-05
1.04176e-05
1.07733e-05
2.1974e-05
2.15103e-05
1.04204e-05
1.0064e-05
1.00746e-05
1.00724e-05
1.00738e-05
1.00745e-05
1.00694e-05
1.04235e-05
2.16238e-05
2.11893e-05
1.00949e-05
9.73787e-06
9.74783e-06
9.74598e-06
9.74759e-06
9.7482e-06
9.74372e-06
1.00984e-05
2.12938e-05
2.08921e-05
9.79216e-06
9.43204e-06
9.44139e-06
9.43989e-06
9.44172e-06
9.44237e-06
9.43837e-06
9.79616e-06
2.09875e-05
2.06144e-05
9.51211e-06
9.14461e-06
9.15345e-06
9.15239e-06
9.15448e-06
9.15529e-06
9.1516e-06
9.51192e-06
2.07027e-05
2.0355e-05
9.24665e-06
8.87402e-06
8.88247e-06
8.88192e-06
8.88434e-06
8.8854e-06
8.88186e-06
9.25411e-06
2.04394e-05
2.01108e-05
8.99394e-06
8.61888e-06
8.62704e-06
8.62708e-06
8.62988e-06
8.63128e-06
8.62772e-06
9.0224e-06
2.01979e-05
1.98803e-05
8.7557e-06
8.37799e-06
8.3859e-06
8.38658e-06
8.38983e-06
8.39169e-06
8.38791e-06
8.81211e-06
1.9978e-05
1.96634e-05
8.53083e-06
8.15035e-06
8.15791e-06
8.15926e-06
8.16307e-06
8.16551e-06
8.16127e-06
8.61866e-06
1.97791e-05
1.94596e-05
8.31835e-06
7.935e-06
7.94207e-06
7.94411e-06
7.9486e-06
7.95177e-06
7.94681e-06
8.43805e-06
1.96004e-05
1.92687e-05
8.11743e-06
7.73108e-06
7.73764e-06
7.74024e-06
7.74555e-06
7.74963e-06
7.74368e-06
8.26676e-06
1.94409e-05
1.90903e-05
7.92733e-06
7.53775e-06
7.54378e-06
7.54684e-06
7.55315e-06
7.55835e-06
7.55117e-06
8.09953e-06
1.92993e-05
1.89235e-05
7.74734e-06
7.35429e-06
7.35976e-06
7.36318e-06
7.37069e-06
7.37728e-06
7.36847e-06
7.93739e-06
1.91738e-05
1.87672e-05
7.57682e-06
7.17997e-06
7.18488e-06
7.1886e-06
7.19754e-06
7.20582e-06
7.19487e-06
7.77972e-06
1.90624e-05
1.86201e-05
7.4151e-06
7.01413e-06
7.01845e-06
7.02247e-06
7.03312e-06
7.04344e-06
7.02999e-06
7.62331e-06
1.89625e-05
1.84806e-05
7.26148e-06
6.85618e-06
6.85986e-06
6.86424e-06
6.87688e-06
6.88962e-06
6.8736e-06
7.46443e-06
1.88716e-05
1.83472e-05
7.11521e-06
6.70556e-06
6.7086e-06
6.71337e-06
6.72827e-06
6.74381e-06
6.72574e-06
7.30987e-06
1.87876e-05
1.82175e-05
6.97545e-06
6.56187e-06
6.56421e-06
6.56935e-06
6.58675e-06
6.6054e-06
6.58715e-06
7.17708e-06
1.87184e-05
1.80878e-05
6.84122e-06
6.42476e-06
6.42636e-06
6.4317e-06
6.45187e-06
6.47398e-06
6.46185e-06
7.18144e-06
1.86938e-05
1.79547e-05
6.71165e-06
6.29402e-06
6.29483e-06
6.30006e-06
6.32347e-06
6.35054e-06
6.3692e-06
7.58335e-06
1.88095e-05
1.78183e-05
6.58653e-06
6.16956e-06
6.16949e-06
6.17427e-06
6.20184e-06
6.2396e-06
6.36179e-06
8.46781e-06
1.91703e-05
1.76853e-05
6.46677e-06
6.05131e-06
6.05028e-06
6.05488e-06
6.08758e-06
6.14922e-06
6.48781e-06
9.48686e-06
1.96729e-05
1.75651e-05
6.35459e-06
5.93918e-06
5.93712e-06
5.94186e-06
5.98082e-06
6.08245e-06
6.70984e-06
1.02933e-05
2.00742e-05
1.74627e-05
6.2589e-06
5.8331e-06
5.82984e-06
5.83488e-06
5.88075e-06
6.03369e-06
6.95175e-06
1.07629e-05
2.02332e-05
1.73764e-05
6.22409e-06
5.73377e-06
5.72819e-06
5.73338e-06
5.78578e-06
5.99338e-06
7.15598e-06
1.09532e-05
2.01346e-05
1.73053e-05
6.38503e-06
5.64723e-06
5.63209e-06
5.63676e-06
5.69547e-06
5.95779e-06
7.3031e-06
1.09937e-05
1.98133e-05
1.72659e-05
6.90283e-06
5.60014e-06
5.5424e-06
5.54453e-06
5.60941e-06
5.92542e-06
7.40015e-06
1.09748e-05
1.9308e-05
1.7296e-05
7.73003e-06
5.66253e-06
5.46515e-06
5.45638e-06
5.52602e-06
5.89188e-06
7.45437e-06
1.09042e-05
1.86515e-05
1.74378e-05
8.65234e-06
5.9235e-06
5.4225e-06
5.37275e-06
5.44303e-06
5.84823e-06
7.45832e-06
1.07419e-05
1.78812e-05
1.76888e-05
9.52076e-06
6.39432e-06
5.45796e-06
5.29932e-06
5.35827e-06
5.77951e-06
7.39463e-06
1.045e-05
1.70497e-05
1.79384e-05
1.02458e-05
6.94645e-06
5.60279e-06
5.24955e-06
5.27739e-06
5.67133e-06
7.24728e-06
1.00173e-05
1.62261e-05
1.81258e-05
1.06847e-05
7.40372e-06
5.81766e-06
5.23807e-06
5.20342e-06
5.55858e-06
7.01635e-06
9.46685e-06
1.5481e-05
1.8187e-05
1.07882e-05
7.64855e-06
6.00757e-06
5.26008e-06
5.14001e-06
5.44947e-06
6.75818e-06
8.84613e-06
1.48687e-05
1.8089e-05
1.0572e-05
7.65196e-06
6.10021e-06
5.29023e-06
5.0879e-06
5.34727e-06
6.52715e-06
8.22885e-06
1.44104e-05
1.78471e-05
1.00938e-05
7.44584e-06
6.07403e-06
5.29894e-06
5.04225e-06
5.25399e-06
6.32788e-06
7.68094e-06
1.40886e-05
1.75138e-05
9.4455e-06
7.09722e-06
5.95365e-06
5.27743e-06
4.99937e-06
5.16913e-06
6.15736e-06
7.24076e-06
1.3861e-05
1.71444e-05
8.69665e-06
6.67986e-06
5.76915e-06
5.21869e-06
4.95067e-06
5.0919e-06
6.01128e-06
6.8991e-06
1.36566e-05
5.15287e-05
4.82506e-05
4.82408e-05
4.82408e-05
4.82408e-05
4.82408e-05
4.82408e-05
4.82408e-05
4.82506e-05
5.15282e-05
4.76486e-05
4.20051e-05
4.19443e-05
4.19598e-05
4.19596e-05
4.19594e-05
4.196e-05
4.19435e-05
4.20034e-05
4.76491e-05
4.43915e-05
3.71445e-05
3.70417e-05
3.70677e-05
3.70651e-05
3.70649e-05
3.70686e-05
3.70412e-05
3.71432e-05
4.43945e-05
4.16231e-05
3.3272e-05
3.31286e-05
3.31617e-05
3.31568e-05
3.31564e-05
3.31633e-05
3.31284e-05
3.32702e-05
4.16282e-05
3.92432e-05
3.01245e-05
2.99406e-05
2.99777e-05
2.99707e-05
2.99704e-05
2.99799e-05
2.99411e-05
3.0119e-05
3.92501e-05
3.71779e-05
2.7518e-05
2.72973e-05
2.73367e-05
2.73281e-05
2.73277e-05
2.73392e-05
2.7299e-05
2.75071e-05
3.7186e-05
3.53717e-05
2.53242e-05
2.50735e-05
2.51134e-05
2.51036e-05
2.51031e-05
2.51156e-05
2.50754e-05
2.5308e-05
3.53796e-05
3.37809e-05
2.34528e-05
2.3179e-05
2.32178e-05
2.32075e-05
2.32069e-05
2.32196e-05
2.31805e-05
2.34335e-05
3.37881e-05
3.23701e-05
2.18393e-05
2.15468e-05
2.15835e-05
2.15733e-05
2.15727e-05
2.15849e-05
2.1548e-05
2.18193e-05
3.23771e-05
3.11111e-05
2.04357e-05
2.01261e-05
2.01603e-05
2.01507e-05
2.015e-05
2.01614e-05
2.01273e-05
2.04154e-05
3.11185e-05
2.99814e-05
1.92038e-05
1.88783e-05
1.89099e-05
1.89012e-05
1.89006e-05
1.8911e-05
1.88799e-05
1.91828e-05
2.99895e-05
2.89636e-05
1.81158e-05
1.7774e-05
1.78033e-05
1.77953e-05
1.77948e-05
1.78043e-05
1.77759e-05
1.80913e-05
2.89721e-05
2.8043e-05
1.71465e-05
1.67901e-05
1.68172e-05
1.68098e-05
1.68095e-05
1.68181e-05
1.67922e-05
1.71183e-05
2.80516e-05
2.72073e-05
1.62758e-05
1.59081e-05
1.59331e-05
1.59264e-05
1.59261e-05
1.59338e-05
1.59104e-05
1.62458e-05
2.72161e-05
2.64464e-05
1.54878e-05
1.51131e-05
1.51362e-05
1.513e-05
1.51298e-05
1.51367e-05
1.51155e-05
1.54591e-05
2.64558e-05
2.57522e-05
1.47703e-05
1.4393e-05
1.44143e-05
1.44085e-05
1.44084e-05
1.44144e-05
1.43956e-05
1.47463e-05
2.57635e-05
2.51178e-05
1.41141e-05
1.37377e-05
1.37574e-05
1.37521e-05
1.37521e-05
1.37572e-05
1.37405e-05
1.40981e-05
2.51337e-05
2.4537e-05
1.35114e-05
1.31391e-05
1.31572e-05
1.31523e-05
1.31524e-05
1.31567e-05
1.31423e-05
1.35065e-05
2.45622e-05
2.40035e-05
1.29565e-05
1.25903e-05
1.26069e-05
1.26024e-05
1.26026e-05
1.26061e-05
1.25938e-05
1.29634e-05
2.40437e-05
2.35099e-05
1.24468e-05
1.20853e-05
1.21005e-05
1.20964e-05
1.20968e-05
1.20995e-05
1.20891e-05
1.24611e-05
2.35705e-05
2.30515e-05
1.1977e-05
1.1619e-05
1.1633e-05
1.16293e-05
1.16299e-05
1.1632e-05
1.16231e-05
1.19926e-05
2.31344e-05
2.26248e-05
1.15428e-05
1.11872e-05
1.12002e-05
1.11968e-05
1.11977e-05
1.11992e-05
1.11915e-05
1.15543e-05
2.27276e-05
2.22265e-05
1.11404e-05
1.07862e-05
1.07983e-05
1.07953e-05
1.07963e-05
1.07974e-05
1.07907e-05
1.11482e-05
2.23415e-05
2.1855e-05
1.07666e-05
1.04128e-05
1.04241e-05
1.04215e-05
1.04227e-05
1.04235e-05
1.04177e-05
1.07714e-05
2.19726e-05
2.15099e-05
1.04184e-05
1.00642e-05
1.00748e-05
1.00725e-05
1.0074e-05
1.00746e-05
1.00695e-05
1.04209e-05
2.16209e-05
2.11893e-05
1.00937e-05
9.73788e-06
9.74788e-06
9.74607e-06
9.74771e-06
9.74834e-06
9.74385e-06
1.0094e-05
2.12886e-05
2.08912e-05
9.79508e-06
9.43185e-06
9.44134e-06
9.43996e-06
9.44184e-06
9.44253e-06
9.43851e-06
9.78852e-06
2.0978e-05
2.06134e-05
9.51854e-06
9.14439e-06
9.15343e-06
9.15249e-06
9.15464e-06
9.15548e-06
9.15178e-06
9.50258e-06
2.06957e-05
2.03544e-05
9.25529e-06
8.87393e-06
8.88255e-06
8.8821e-06
8.88455e-06
8.88564e-06
8.88208e-06
9.2442e-06
2.04355e-05
2.0111e-05
9.00139e-06
8.61898e-06
8.62723e-06
8.6273e-06
8.63014e-06
8.63159e-06
8.62798e-06
9.01267e-06
2.01959e-05
1.98803e-05
8.76098e-06
8.37823e-06
8.38615e-06
8.38683e-06
8.39012e-06
8.39205e-06
8.38819e-06
8.80276e-06
1.99767e-05
1.96631e-05
8.53405e-06
8.15055e-06
8.15819e-06
8.15952e-06
8.1634e-06
8.16593e-06
8.16159e-06
8.60909e-06
1.97779e-05
1.94592e-05
8.32013e-06
7.93507e-06
7.94233e-06
7.94438e-06
7.94897e-06
7.95226e-06
7.94716e-06
8.42757e-06
1.95991e-05
1.92684e-05
8.11837e-06
7.73099e-06
7.73777e-06
7.74053e-06
7.74597e-06
7.75021e-06
7.74401e-06
8.25515e-06
1.94393e-05
1.90901e-05
7.92781e-06
7.53754e-06
7.54375e-06
7.54714e-06
7.55363e-06
7.55904e-06
7.55133e-06
8.08867e-06
1.92973e-05
1.89235e-05
7.74759e-06
7.35398e-06
7.35956e-06
7.36349e-06
7.37123e-06
7.37809e-06
7.36841e-06
7.92801e-06
1.91714e-05
1.87673e-05
7.57694e-06
7.1796e-06
7.18453e-06
7.18892e-06
7.19815e-06
7.20676e-06
7.19459e-06
7.77351e-06
1.90597e-05
1.86204e-05
7.41515e-06
7.01372e-06
7.01801e-06
7.02282e-06
7.03381e-06
7.04452e-06
7.02967e-06
7.62287e-06
1.89596e-05
1.84812e-05
7.2615e-06
6.85573e-06
6.8594e-06
6.86466e-06
6.87766e-06
6.89086e-06
6.87349e-06
7.47278e-06
1.88687e-05
1.83483e-05
7.11523e-06
6.70511e-06
6.70814e-06
6.71386e-06
6.72913e-06
6.74523e-06
6.72603e-06
7.32499e-06
1.87849e-05
1.82193e-05
6.97549e-06
6.5614e-06
6.56378e-06
6.56992e-06
6.58771e-06
6.60703e-06
6.58813e-06
7.19905e-06
1.87143e-05
1.80906e-05
6.84132e-06
6.42427e-06
6.42594e-06
6.43237e-06
6.45295e-06
6.47592e-06
6.46385e-06
7.18298e-06
1.86833e-05
1.79587e-05
6.71183e-06
6.29347e-06
6.29436e-06
6.30087e-06
6.32476e-06
6.35318e-06
6.37107e-06
7.52106e-06
1.87804e-05
1.78231e-05
6.58672e-06
6.1689e-06
6.16893e-06
6.17524e-06
6.20346e-06
6.24343e-06
6.35114e-06
8.3505e-06
1.91178e-05
1.76901e-05
6.4668e-06
6.05054e-06
6.0496e-06
6.05561e-06
6.08964e-06
6.1542e-06
6.45799e-06
9.36867e-06
1.96176e-05
1.7569e-05
6.35416e-06
5.9383e-06
5.9363e-06
5.94204e-06
5.98333e-06
6.08787e-06
6.67064e-06
1.02108e-05
2.0039e-05
1.74653e-05
6.25659e-06
5.83209e-06
5.82887e-06
5.83446e-06
5.88358e-06
6.0385e-06
6.91601e-06
1.07223e-05
2.02259e-05
1.73781e-05
6.2134e-06
5.73246e-06
5.72709e-06
5.7325e-06
5.78884e-06
5.99632e-06
7.12996e-06
1.09425e-05
2.01523e-05
1.73062e-05
6.34988e-06
5.64459e-06
5.63084e-06
5.63555e-06
5.69788e-06
5.95652e-06
7.28708e-06
1.09979e-05
1.98505e-05
1.72638e-05
6.83186e-06
5.59219e-06
5.54083e-06
5.5431e-06
5.61016e-06
5.92153e-06
7.39214e-06
1.09853e-05
1.93598e-05
1.72863e-05
7.63531e-06
5.64046e-06
5.46224e-06
5.4548e-06
5.52528e-06
5.88783e-06
7.45252e-06
1.09193e-05
1.87137e-05
1.74155e-05
8.55282e-06
5.87954e-06
5.41516e-06
5.37092e-06
5.44158e-06
5.84591e-06
7.46194e-06
1.07633e-05
1.79499e-05
1.76576e-05
9.42598e-06
6.33211e-06
5.4413e-06
5.29638e-06
5.35626e-06
5.78062e-06
7.40376e-06
1.04793e-05
1.71203e-05
1.79092e-05
1.01709e-05
6.88254e-06
5.57563e-06
5.24392e-06
5.27493e-06
5.67515e-06
7.26253e-06
1.00547e-05
1.6294e-05
1.8106e-05
1.06436e-05
7.35551e-06
5.78714e-06
5.22871e-06
5.20027e-06
5.56174e-06
7.03589e-06
9.51078e-06
1.55421e-05
1.81852e-05
1.07856e-05
7.62579e-06
5.98371e-06
5.2485e-06
5.13592e-06
5.45178e-06
6.77615e-06
8.89343e-06
1.49205e-05
1.81089e-05
1.06062e-05
7.6561e-06
6.08891e-06
5.27961e-06
5.08303e-06
5.34858e-06
6.54164e-06
8.27374e-06
1.44524e-05
1.78857e-05
1.01581e-05
7.47202e-06
6.07541e-06
5.29165e-06
5.03714e-06
5.25429e-06
6.33908e-06
7.71961e-06
1.41226e-05
1.75635e-05
9.53006e-06
7.1378e-06
5.96473e-06
5.27419e-06
4.99455e-06
5.1685e-06
6.16563e-06
7.27209e-06
1.38901e-05
1.71971e-05
8.78588e-06
6.72553e-06
5.78531e-06
5.2185e-06
4.94636e-06
5.09053e-06
6.01734e-06
6.92482e-06
1.36841e-05
)
;
    }
    inlet
    {
        type            calculated;
        value           uniform 0.0381026;
    }
    outlet
    {
        type            calculated;
        value           nonuniform List<scalar> 
20
(
0.000242566
7.39957e-05
5.59298e-05
4.78778e-05
4.30983e-05
4.08299e-05
4.20274e-05
4.98087e-05
5.75985e-05
0.000189447
0.000243373
7.47762e-05
5.63162e-05
4.80084e-05
4.30927e-05
4.07935e-05
4.20176e-05
4.98624e-05
5.78226e-05
0.000189858
)
;
    }
    heatWall
    {
        type            nutkWallFunction;
        Cmu             0.09;