/*--------------------------------*- C++ -*----------------------------------*\
  =========                 |
  \\      /  F ield         | OpenFOAM: The Open Source CFD Toolbox
   \\    /   O peration     | Website:  https://openfoam.org
    \\  /    A nd           | Version:  8
     \\/     M anipulation  |
\*---------------------------------------------------------------------------*/
FoamFile
{
    version     2.0;
    format      ascii;
    class       surfaceScalarField;
    location    "200";
    object      phi;
}
// * * * * * * * * * * * * * * * * * * * * * * * * * * * * * * * * * * * * * //

dimensions      [1 0 -1 0 0 0 0];

internalField   nonuniform List<scalar> 
2860
(
0.40078
-0.00187223
0.000849012
0.400708
0.00138656
0.00217221
0.400711
0.00141284
0.00461933
0.400372
0.00170639
0.00562992
0.39983
0.00180028
0.00500155
0.399233
0.00173657
0.00415365
0.398629
0.00163467
0.00363747
0.398026
0.00152832
0.003001
0.397428
0.00142543
0.00231365
0.396842
0.00133385
0.00207729
0.396265
0.00124965
0.00201306
0.395697
0.0011713
0.00184602
0.395139
0.00110198
0.00173465
0.394589
0.00103943
0.00169074
0.394048
0.000982767
0.0017516
0.393516
0.000932649
0.00188885
0.392991
0.000886534
0.00193628
0.392474
0.00084305
0.00191993
0.391965
0.000802894
0.00191684
0.391463
0.000766477
0.00189479
0.390968
0.00073256
0.00175708
0.39048
0.000699766
0.00149807
0.389998
0.000669224
0.00122811
0.389523
0.000641738
0.0009323
0.389054
0.000615886
0.000544728
0.388591
0.000591273
0.000126828
0.388134
0.000568703
-0.000281912
0.387683
0.000548078
-0.000712315
0.387238
0.000528946
-0.00115106
0.386797
0.000511229
-0.0015738
0.386362
0.000494806
-0.00199314
0.385932
0.000479615
-0.00240193
0.385507
0.000465911
-0.00277489
0.385087
0.000453526
-0.00311781
0.384672
0.000441905
-0.00345547
0.384261
0.000431121
-0.0037964
0.383855
0.000421383
-0.00411815
0.383453
0.000412314
-0.00440252
0.383056
0.000404036
-0.00466115
0.382662
0.000396732
-0.00489917
0.382273
0.000389832
-0.00511776
0.381888
0.000383436
-0.00532213
0.381506
0.000377442
-0.00553452
0.381129
0.000371622
-0.00576683
0.380755
0.000366703
-0.00596486
0.380384
0.000361966
-0.00613464
0.380017
0.000357426
-0.00629716
0.379654
0.000353277
-0.00647693
0.379293
0.000348598
-0.0066888
0.378936
0.000344961
-0.00683951
0.378582
0.000341762
-0.00699617
0.378231
0.00033835
-0.00714031
0.377884
0.000335289
-0.00727253
0.377539
0.000331995
-0.00746638
0.377196
0.000328643
-0.00767438
0.376856
0.000325176
-0.0078578
0.37652
0.000321696
-0.00797563
0.37619
0.000315678
-0.00813023
0.375874
0.000301831
-0.00831332
0.000197982
-0.00844833
0.398248
-0.00315764
0.000717693
0.39824
-3.39929e-05
0.00147528
0.398043
-2.51813e-05
0.00265078
0.398052
-7.07899e-06
0.00341266
0.398126
1.50713e-05
0.00349237
0.398231
-3.97099e-05
0.00364339
0.398353
-0.00010391
0.00386193
0.39848
-0.000154231
0.00386599
0.398604
-0.000187152
0.00377587
0.398724
-0.000204013
0.0038884
0.398837
-0.000212156
0.00408633
0.398944
-0.000214119
0.0042245
0.399044
-0.000209361
0.0043639
0.399137
-0.000200929
0.00455109
0.399224
-0.000189181
0.00483879
0.399306
-0.000174294
0.00516225
0.399382
-0.000159404
0.00542274
0.399453
-0.000144809
0.00569462
0.399521
-0.000129105
0.00603569
0.399585
-0.000112646
0.0063863
0.399646
-9.73004e-05
0.00666855
0.399704
-8.40714e-05
0.00691101
0.39976
-7.1242e-05
0.00717878
0.399814
-5.80005e-05
0.00741005
0.399865
-4.59231e-05
0.00756664
0.399916
-3.50751e-05
0.00771558
0.399964
-2.42216e-05
0.00785822
0.400012
-1.34848e-05
0.00795195
0.400059
-3.33682e-06
0.00802024
0.400104
6.54914e-06
0.00808819
0.400149
1.62525e-05
0.00814565
0.400193
2.57023e-05
0.00819935
0.400237
3.53015e-05
0.00826124
0.400281
4.50458e-05
0.00832607
0.400324
5.44013e-05
0.0083871
0.400367
6.34618e-05
0.0084339
0.400409
7.24764e-05
0.00847738
0.400452
8.11987e-05
0.0085448
0.400494
8.99518e-05
0.00862181
0.400537
9.88539e-05
0.00869473
0.40058
0.000107306
0.00877864
0.400623
0.000115633
0.00886708
0.400666
0.00012365
0.00894132
0.400709
0.000130984
0.00899608
0.400752
0.000138499
0.00905625
0.400796
0.000145601
0.00913612
0.40084
0.000152373
0.00921946
0.400884
0.000158923
0.00927581
0.400929
0.000164594
0.00932213
0.400974
0.000170896
0.00939918
0.401019
0.000176688
0.0094511
0.401064
0.000182155
0.00951734
0.40111
0.000187668
0.00958639
0.401156
0.000191851
0.00960271
0.401202
0.000195598
0.00960358
0.401248
0.00019915
0.00962709
0.401295
0.000202011
0.00969598
0.401344
0.000200765
0.00972842
0.401398
0.000187699
0.00973188
0.000114955
0.00976696
0.39607
-0.000920111
0.000495278
0.396275
0.000525236
0.000952272
0.396446
0.000793072
0.0017938
0.396756
0.000824838
0.00298058
0.397122
0.000879806
0.00409637
0.397475
0.000886424
0.00515819
0.3978
0.00085649
0.00602774
0.398096
0.000820295
0.00663892
0.398365
0.000786907
0.00697654
0.39861
0.000753116
0.00722561
0.398833
0.000721317
0.00743857
0.399037
0.00069216
0.00753047
0.399223
0.000664428
0.00749236
0.399394
0.000638863
0.00743532
0.399553
0.000616203
0.00742619
0.3997
0.000594902
0.00738235
0.399837
0.000573436
0.00728484
0.399965
0.00055359
0.00722814
0.400087
0.000536722
0.00723195
0.400201
0.000521162
0.00723826
0.40031
0.000505334
0.00722111
0.400414
0.000489466
0.00724979
0.400515
0.000474654
0.0073403
0.400612
0.000460797
0.00739176
0.400705
0.000446948
0.00740787
0.400797
0.000433437
0.0074617
0.400887
0.000420879
0.0075102
0.400974
0.000408767
0.00750388
0.40106
0.00039681
0.00747828
0.401145
0.000385645
0.00745089
0.401229
0.00037534
0.0074103
0.401312
0.000365561
0.00736579
0.401395
0.000356542
0.00731493
0.401477
0.000348489
0.00725009
0.401559
0.000341025
0.00718304
0.401641
0.000333982
0.00710237
0.401723
0.000327393
0.00700995
0.401805
0.000321289
0.00694127
0.401887
0.000315965
0.00687353
0.401969
0.000311195
0.00678786
0.402052
0.000306624
0.00671896
0.402136
0.000302687
0.00665284
0.40222
0.00029903
0.00657718
0.402304
0.00029515
0.00650002
0.402389
0.000291602
0.00641733
0.402474
0.000288225
0.00636147
0.40256
0.000285128
0.00631704
0.402647
0.0002822
0.00625066
0.402735
0.000279423
0.00620321
0.402823
0.000277267
0.00616719
0.402911
0.000274314
0.00611775
0.403001
0.000271997
0.00609063
0.403091
0.000270038
0.00606458
0.403182
0.000266798
0.0060287
0.403273
0.000263618
0.00599375
0.403364
0.000260628
0.00598116
0.403457
0.000257271
0.00600513
0.403549
0.000250965
0.00601673
0.403635
0.000238457
0.00601005
0.000204157
0.00604126
0.39742
-0.000488678
0.000393112
0.397744
1.99729e-05
0.000199905
0.398073
0.000137758
4.21241e-05
0.398352
9.98786e-05
0.000261927
0.398613
9.68401e-05
0.000862586
0.398836
7.56239e-05
0.00123051
0.399027
4.03382e-05
0.0015857
0.399197
9.37355e-06
0.00193326
0.39935
-1.77486e-05
0.00205617
0.399491
-3.94147e-05
0.00215595
0.399624
-5.39316e-05
0.00225507
0.39975
-6.46981e-05
0.00223887
0.399868
-7.32751e-05
0.00212114
0.399981
-7.72151e-05
0.00199618
0.400089
-7.7547e-05
0.00189659
0.400193
-7.7467e-05
0.00178474
0.400293
-7.74267e-05
0.00169887
0.400391
-7.55671e-05
0.00166808
0.400485
-7.15191e-05
0.00164728
0.400576
-6.73419e-05
0.00162421
0.400666
-6.36962e-05
0.00163199
0.400753
-5.93259e-05
0.00173732
0.40084
-5.4028e-05
0.00191814
0.400924
-4.88662e-05
0.0020753
0.401008
-4.40184e-05
0.00224366
0.401091
-3.86944e-05
0.00248421
0.401173
-3.32062e-05
0.00272917
0.401255
-2.8565e-05
0.00293982
0.401336
-2.45611e-05
0.00315388
0.401416
-2.03288e-05
0.00336539
0.401497
-1.59603e-05
0.00355668
0.401577
-1.19075e-05
0.00374389
0.401658
-8.10251e-06
0.00391594
0.401738
-4.347e-06
0.00405822
0.401819
-7.06176e-07
0.0041894
0.4019
2.59031e-06
0.00429927
0.401981
5.46133e-06
0.00438709
0.402063
8.34331e-06
0.00448579
0.402145
1.14346e-05
0.00456125
0.402228
1.42452e-05
0.00460023
0.402311
1.68758e-05
0.00464887
0.402395
1.974e-05
0.00467865
0.402479
2.24343e-05
0.00468657
0.402564
2.4689e-05
0.00469804
0.40265
2.669e-05
0.00469352
0.402737
2.86348e-05
0.00470978
0.402824
3.08002e-05
0.00472756
0.402912
3.28827e-05
0.00471753
0.403001
3.51359e-05
0.00471923
0.40309
3.74635e-05
0.00470807
0.40318
3.8853e-05
0.00471047
0.403271
4.08617e-05
0.00471785
0.403362
4.29762e-05
0.00471097
0.403454
4.43109e-05
0.00473722
0.403547
4.56157e-05
0.00476804
0.40364
4.68182e-05
0.00480694
0.403734
4.819e-05
0.0048677
0.403827
4.79925e-05
0.00493335
0.403915
4.37959e-05
0.00496584
2.78739e-05
0.00502664
0.397421
-9.72662e-08
0.000391841
0.397466
-1.18547e-06
9.30398e-05
0.397666
-6.49395e-06
-0.000152486
0.397866
-1.04864e-05
-5.38849e-05
0.398101
-9.21472e-06
0.000520084
0.398347
-1.57027e-05
0.00104065
0.398586
-1.4529e-05
0.00170512
0.398814
-1.24539e-05
0.00237174
0.399028
-1.55605e-05
0.00280315
0.399229
-1.50459e-05
0.00314369
0.399415
-1.25684e-05
0.00335703
0.399588
-1.22959e-05
0.0034081
0.39975
-1.28457e-05
0.00335756
0.3999
-1.16229e-05
0.00320749
0.40004
-1.02242e-05
0.00299069
0.400171
-9.69659e-06
0.00277153
0.400294
-9.05707e-06
0.00262323
0.400412
-7.87241e-06
0.00250664
0.400523
-6.50654e-06
0.00234139
0.400629
-5.68772e-06
0.00217695
0.400731
-4.88079e-06
0.00207545
0.400829
-2.77291e-06
0.00206016
0.400925
1.00497e-07
0.00209339
0.401017
2.40822e-06
0.0021089
0.401107
4.66175e-06
0.00214631
0.401196
7.80274e-06
0.00223688
0.401282
1.09284e-05
0.00231874
0.401368
1.29546e-05
0.0023869
0.401452
1.44799e-05
0.0024762
0.401536
1.62766e-05
0.00255502
0.401618
1.80705e-05
0.00260818
0.401701
1.95116e-05
0.0026684
0.401783
2.05963e-05
0.00272547
0.401865
2.13409e-05
0.0027594
0.401946
2.18861e-05
0.00279011
0.402028
2.20443e-05
0.00281454
0.40211
2.16741e-05
0.00283518
0.402192
2.14174e-05
0.00287086
0.402275
2.12432e-05
0.00287963
0.402358
2.05687e-05
0.00286284
0.402442
1.98473e-05
0.00286383
0.402526
1.92128e-05
0.00283937
0.40261
1.83609e-05
0.00279722
0.402695
1.74399e-05
0.00277299
0.402781
1.62259e-05
0.00274244
0.402868
1.50013e-05
0.00273493
0.402955
1.41682e-05
0.0027208
0.403043
1.32396e-05
0.00267986
0.403132
1.21927e-05
0.0026422
0.403221
1.11549e-05
0.0025842
0.403311
1.00244e-05
0.00257102
0.403402
9.12037e-06
0.00254499
0.403493
8.0609e-06
0.00249488
0.403586
7.10129e-06
0.00250008
0.403678
6.06341e-06
0.00251014
0.403772
4.93102e-06
0.00252618
0.403865
4.42684e-06
0.00254555
0.403956
4.16067e-06
0.00257619
0.404041
4.89952e-06
0.00256906
8.30889e-06
0.00254963
0.39742
0.000488783
0.000340661
0.397465
-2.24962e-05
6.45658e-06
0.397666
-0.000149987
-0.000182199
0.397868
-0.0001198
-0.00013411
0.398102
-0.000119255
0.000130245
0.398349
-0.000103131
0.000592723
0.398589
-6.92565e-05
0.00100893
0.398817
-3.85714e-05
0.00131152
0.399031
-1.57696e-05
0.00153842
0.399232
4.98241e-06
0.00161177
0.399417
2.27161e-05
0.00148702
0.39959
3.63565e-05
0.00129463
0.39975
4.67598e-05
0.0010886
0.3999
5.3932e-05
0.000763651
0.400039
5.73526e-05
0.000378528
0.40017
5.9512e-05
4.03523e-05
0.400293
6.17943e-05
-0.000195856
0.40041
6.30217e-05
-0.000383738
0.400521
6.26942e-05
-0.000594683
0.400627
6.18058e-05
-0.000751571
0.400729
6.15796e-05
-0.000808358
0.400827
6.24767e-05
-0.000794145
0.400922
6.37693e-05
-0.000739886
0.401014
6.45086e-05
-0.000666774
0.401105
6.52917e-05
-0.000551497
0.401193
6.68063e-05
-0.000403496
0.40128
6.80838e-05
-0.000262401
0.401365
6.83595e-05
-9.63892e-05
0.401449
6.82585e-05
0.000111716
0.401533
6.80762e-05
0.000301407
0.401616
6.74385e-05
0.000461697
0.401698
6.63558e-05
0.000635433
0.40178
6.4886e-05
0.000811458
0.401862
6.29331e-05
0.000965399
0.401943
6.07359e-05
0.00111199
0.402025
5.81395e-05
0.00125485
0.402107
5.49832e-05
0.00140078
0.402189
5.19366e-05
0.00154667
0.402272
4.87174e-05
0.00165014
0.402355
4.48653e-05
0.00173191
0.402438
4.10936e-05
0.00182144
0.402522
3.7144e-05
0.001871
0.402607
3.2964e-05
0.00189818
0.402692
2.90187e-05
0.00193425
0.402778
2.47711e-05
0.00196218
0.402864
2.06664e-05
0.00200301
0.402952
1.69696e-05
0.00201473
0.40304
1.31178e-05
0.00199242
0.403128
8.85488e-06
0.00196875
0.403217
4.62862e-06
0.00191748
0.403308
1.26334e-06
0.00190703
0.403398
-2.32967e-06
0.00187025
0.40349
-6.23814e-06
0.00180601
0.403582
-9.34334e-06
0.00178446
0.403675
-1.22192e-05
0.00176143
0.403768
-1.4989e-05
0.00174377
0.403861
-1.70742e-05
0.00170807
0.403953
-1.68427e-05
0.00168049
0.404039
-1.13858e-05
0.00160748
8.44453e-06
0.00148116
0.397419
0.000919062
0.000227045
0.39774
-0.00052593
-4.4165e-05
0.398071
-0.000797116
0.00018125
0.39835
-0.000832677
0.000633206
0.398609
-0.000900325
0.000959426
0.398834
-0.000905234
0.00127112
0.399025
-0.000882842
0.00129378
0.399193
-0.00085856
0.00121894
0.399348
-0.00083093
0.00123896
0.39949
-0.000801956
0.00117898
0.399623
-0.000773109
0.00101614
0.399749
-0.000741645
0.000887931
0.399869
-0.000709767
0.000803181
0.399982
-0.000681361
0.000664206
0.40009
-0.000656237
0.000546284
0.400195
-0.000631389
0.0004771
0.400295
-0.000606276
0.000448385
0.400393
-0.000582488
0.000440694
0.400487
-0.000561031
0.000417794
0.400579
-0.000540543
0.000428925
0.400669
-0.000520085
0.000474289
0.400756
-0.000500249
0.000507206
0.400843
-0.000481278
0.00052479
0.400928
-0.000463414
0.000546112
0.401011
-0.000446564
0.000582287
0.401094
-0.000430381
0.000602191
0.401176
-0.00041534
0.00060071
0.401257
-0.000401562
0.000640129
0.401339
-0.000388588
0.000720003
0.401419
-0.000376742
0.000771621
0.4015
-0.000366282
0.000799072
0.40158
-0.000356627
0.000848592
0.40166
-0.000347724
0.000910706
0.40174
-0.000339907
0.000967375
0.401821
-0.000332782
0.00102708
0.401902
-0.000326409
0.00109957
0.401983
-0.000320959
0.00119817
0.402064
-0.00031583
0.00129863
0.402146
-0.000311532
0.00136901
0.402229
-0.000308233
0.00144732
0.402312
-0.000305043
0.00154109
0.402396
-0.000302603
0.0016118
0.40248
-0.000300677
0.00167983
0.402565
-0.000298818
0.0017607
0.40265
-0.000297608
0.00185344
0.402737
-0.000296181
0.00196614
0.402824
-0.000294841
0.00204977
0.402912
-0.00029393
0.00211694
0.403001
-0.000293535
0.00221149
0.40309
-0.000293678
0.00229432
0.40318
-0.000292992
0.0024006
0.403271
-0.000292846
0.00249697
0.403362
-0.000293155
0.00259177
0.403455
-0.000292625
0.00271684
0.403547
-0.000291764
0.00284413
0.403641
-0.000290882
0.00299217
0.403734
-0.000289374
0.00313317
0.403827
-0.00028397
0.00328138
0.403916
-0.000270793
0.00338984
-0.000232849
0.00341105
0.396072
0.00315247
0.000216613
0.396276
2.37272e-05
-0.0002518
0.396447
2.68696e-05
-5.76416e-05
0.396756
1.04537e-05
0.000676031
0.397123
-2.05098e-05
0.00126568
0.397476
3.96289e-05
0.00142411
0.397799
0.000110312
0.00113641
0.398094
0.000161056
0.00068254
0.398363
0.000200324
0.000166301
0.398607
0.000229771
-0.000454232
0.398829
0.000248269
-0.00106671
0.399032
0.000258443
-0.00159275
0.399218
0.000264594
-0.00203705
0.399389
0.000266374
-0.00237831
0.399548
0.00026523
-0.00252802
0.399695
0.000262773
-0.00258256
0.399832
0.000259273
-0.00261024
0.399961
0.000255058
-0.00259359
0.400082
0.000249229
-0.00253349
0.400197
0.000242712
-0.00243287
0.400306
0.000235888
-0.0023357
0.400411
0.000227849
-0.0022732
0.400511
0.000219344
-0.00223648
0.400608
0.000210649
-0.0021962
0.400702
0.000201387
-0.00214518
0.400793
0.000191872
-0.00212374
0.400882
0.000182274
-0.00211803
0.40097
0.00017296
-0.00206092
0.401056
0.000164045
-0.00196892
0.401141
0.00015473
-0.00189889
0.401224
0.000144993
-0.00183417
0.401307
0.000135772
-0.00174542
0.40139
0.000126938
-0.00164413
0.401472
0.000117991
-0.0015364
0.401554
0.000109377
-0.00142526
0.401636
0.000100966
-0.00129951
0.401718
9.25189e-05
-0.00114112
0.4018
8.44435e-05
-0.000993803
0.401882
7.60145e-05
-0.000871851
0.401965
6.73677e-05
-0.000730575
0.402048
5.93356e-05
-0.000591297
0.402132
5.09626e-05
-0.000471044
0.402216
4.26499e-05
-0.000355664
0.402301
3.45029e-05
-0.000245275
0.402386
2.60968e-05
-0.000122982
0.402472
1.86024e-05
-7.55435e-06
0.402559
1.0874e-05
6.35204e-05
0.402646
3.03553e-06
0.000115351
0.402735
-4.50972e-06
0.000195087
0.402824
-1.2673e-05
0.000263158
0.402913
-2.01372e-05
0.000305968
0.403003
-2.75999e-05
0.000333965
0.403094
-3.51605e-05
0.000362931
0.403185
-4.21243e-05
0.000382131
0.403277
-4.87074e-05
0.000376688
0.40337
-5.48938e-05
0.000385311
0.403464
-6.0107e-05
0.000388045
0.403557
-6.06733e-05
0.000359034
0.403646
-4.83277e-05
0.000283357
2.51523e-05
0.000124838
0.398247
0.00186304
0.000630265
0.398238
-0.0013942
0.00146026
0.39804
-0.00141105
0.00234683
0.398049
-0.00170441
0.00294866
0.398125
-0.00180616
0.00300693
0.39823
-0.00175117
0.00255148
0.398351
-0.00165143
0.00203842
0.39848
-0.00154892
0.0017532
0.398606
-0.00144914
0.00149479
0.398727
-0.00135232
0.00115812
0.398842
-0.00126628
0.000934585
0.398949
-0.00118986
0.000782049
0.399049
-0.00111937
0.000622699
0.399142
-0.0010543
0.000530267
0.399229
-0.000993941
0.000573543
0.399311
-0.000938517
0.00062572
0.399387
-0.00088805
0.000641198
0.399459
-0.000841216
0.000652455
0.399527
-0.00079855
0.000701806
0.399591
-0.000759647
0.000771734
0.399652
-0.000724368
0.000820165
0.39971
-0.000693135
0.000861014
0.399766
-0.000664743
0.000888849
0.39982
-0.000638783
0.000924446
0.399871
-0.000615516
0.000988652
0.399921
-0.000594495
0.0010373
0.39997
-0.000575196
0.0010794
0.400017
-0.00055707
0.00116585
0.400063
-0.000540064
0.00127406
0.400108
-0.000524756
0.00137654
0.400152
-0.000510895
0.00149552
0.400196
-0.000497609
0.00162892
0.400239
-0.000485017
0.00176622
0.400281
-0.000473411
0.00191882
0.400323
-0.000462369
0.00207068
0.400365
-0.000451968
0.0022361
0.400407
-0.000442313
0.00244153
0.400449
-0.000433126
0.00263126
0.40049
-0.000424937
0.00281592
0.400532
-0.000417432
0.00303795
0.400574
-0.000410015
0.00324763
0.400615
-0.000403429
0.00345864
0.400657
-0.000397273
0.00367498
0.400699
-0.000391618
0.00389268
0.400742
-0.000386597
0.00414341
0.400785
-0.000381247
0.00436977
0.400828
-0.000376722
0.00456974
0.400871
-0.000372602
0.00476842
0.400914
-0.000368309
0.00499746
0.400958
-0.000364899
0.00524658
0.401002
-0.000361551
0.00546441
0.401046
-0.000358302
0.00568172
0.40109
-0.000355296
0.00591671
0.401135
-0.000352474
0.00613641
0.40118
-0.0003498
0.00633444
0.401225
-0.000346889
0.00655755
0.401271
-0.000343581
0.00679351
0.40132
-0.000337599
0.0069854
0.401374
-0.000322998
0.00714243
-0.000217614
0.00723375
0.400775
-0.000187304
0.400709
0.00172734
0.400703
0.00313573
0.400363
0.00346242
0.399825
0.00279452
0.399228
0.00143612
0.398622
0.000103769
0.39802
-0.000710055
0.397426
-0.001282
0.396839
-0.00184561
0.396262
-0.00210124
0.395695
-0.0021257
0.395137
-0.00211631
0.394588
-0.00205298
0.394048
-0.00191307
0.393515
-0.00180438
0.392991
-0.00173481
0.392474
-0.00169445
0.391965
-0.00162133
0.391462
-0.00153175
0.390967
-0.00145306
0.390479
-0.00133837
0.389997
-0.00122159
0.389522
-0.00109617
0.389053
-0.000926824
0.38859
-0.000764121
0.388133
-0.000612903
0.387682
-0.000440572
0.387237
-0.00027171
0.386796
-0.000108452
0.386362
7.1867e-05
0.385932
0.000239
0.385507
0.00038498
0.385087
0.000535262
0.384672
0.000662952
0.384261
0.000786378
0.383855
0.000938836
0.383453
0.0010562
0.383055
0.0011704
0.382662
0.00131815
0.382272
0.00142653
0.381887
0.00153484
0.381506
0.0016381
0.381128
0.00173547
0.380754
0.00186645
0.380383
0.0019381
0.380016
0.00198702
0.379652
0.00203253
0.379292
0.00208526
0.378935
0.0021707
0.378581
0.00221672
0.37823
0.00225464
0.377882
0.00230291
0.377536
0.00232723
0.377194
0.00232564
0.376854
0.00233784
0.376519
0.00235832
0.376189
0.00232257
0.375875
0.00224353
0.00210302
0.400789
-0.00185186
0.400713
0.00137013
0.400696
0.00134775
0.400352
0.0016468
0.399814
0.00177307
0.399221
0.00174197
0.398617
0.00165242
0.398017
0.00155642
0.397425
0.00146324
0.396839
0.00136854
0.396262
0.00127955
0.395695
0.00119922
0.395138
0.00112367
0.394589
0.00105413
0.394048
0.000990223
0.393515
0.00093027
0.39299
0.000876158
0.392474
0.000828465
0.391964
0.000785623
0.391461
0.000746484
0.390966
0.000711703
0.390477
0.000682061
0.389996
0.000655763
0.38952
0.000631445
0.389052
0.000610031
0.388589
0.000591375
0.388133
0.000574026
0.387682
0.000557716
0.387237
0.000542641
0.386797
0.000528563
0.386362
0.000515446
0.385933
0.00050318
0.385508
0.000491354
0.385089
0.00047997
0.384673
0.000469429
0.384263
0.000459527
0.383857
0.000449942
0.383455
0.000440935
0.383058
0.000432289
0.382665
0.000423737
0.382276
0.000415767
0.38189
0.000408205
0.381509
0.000401084
0.381131
0.000394576
0.380757
0.000387897
0.380387
0.000381706
0.38002
0.00037594
0.379656
0.000370384
0.379296
0.000365916
0.378939
0.000360914
0.378585
0.000355974
0.378234
0.000351666
0.377886
0.000347392
0.377541
0.000343726
0.377198
0.00034046
0.376859
0.000337329
0.376523
0.000333303
0.376192
0.00032712
0.375876
0.000313468
0.000209313
0.398247
-0.00315452
0.398241
-5.21081e-05
0.398037
-9.65521e-05
0.398042
-8.48855e-05
0.398118
-3.00356e-05
0.398223
-5.95357e-05
0.398343
-0.000108688
0.39847
-0.000139417
0.398596
-0.000159364
0.398717
-0.000175958
0.39883
-0.000186034
0.398937
-0.000190384
0.399038
-0.000192566
0.399131
-0.000191744
0.399219
-0.000188968
0.3993
-0.000185329
0.399377
-0.00017874
0.399449
-0.000169409
0.399517
-0.000159063
0.399582
-0.000147833
0.399643
-0.000134421
0.399701
-0.000118176
0.399757
-0.000101004
0.39981
-8.40689e-05
0.399862
-6.61868e-05
0.399912
-4.75381e-05
0.399961
-2.9658e-05
0.400008
-1.26724e-05
0.400054
3.80044e-06
0.400099
1.94933e-05
0.400143
3.43615e-05
0.400187
4.85183e-05
0.40023
6.15915e-05
0.400272
7.35644e-05
0.400315
8.49774e-05
0.400357
9.5747e-05
0.400398
0.000105641
0.40044
0.000114954
0.400482
0.00012341
0.400524
0.000130912
0.400566
0.000138114
0.400608
0.000144737
0.40065
0.000150979
0.400693
0.000157246
0.400736
0.000162694
0.400779
0.000167967
0.400822
0.000173038
0.400866
0.000177824
0.40091
0.000183041
0.400954
0.000187205
0.400999
0.000191451
0.401044
0.000195611
0.401089
0.000199332
0.401135
0.000204003
0.401181
0.000208696
0.401227
0.000212762
0.401273
0.0002154
0.401322
0.000215111
0.401376
0.000203093
0.000131521
0.396067
-0.000920589
0.396278
0.00051055
0.39645
0.000758737
0.396757
0.000779416
0.397123
0.000850611
0.397473
0.000859875
0.397796
0.000841599
0.39809
0.000820043
0.398358
0.00079356
0.398603
0.000764571
0.398825
0.00073292
0.399028
0.000700302
0.399215
0.000669075
0.399387
0.000638713
0.399545
0.000608562
0.399693
0.000580497
0.39983
0.000556191
0.399959
0.000533739
0.400081
0.0005117
0.400195
0.000491632
0.400305
0.000474879
0.40041
0.000460854
0.40051
0.000448212
0.400607
0.00043694
0.400701
0.000427731
0.400792
0.000419883
0.400882
0.000412512
0.400969
0.000405952
0.401055
0.000400336
0.40114
0.000395049
0.401224
0.00038992
0.401307
0.000385231
0.40139
0.000380685
0.401472
0.000375956
0.401554
0.000371335
0.401636
0.000366917
0.401718
0.000362607
0.4018
0.00035829
0.401882
0.000353641
0.401964
0.000348864
0.402047
0.000344271
0.40213
0.000339418
0.402214
0.000334618
0.402298
0.000330351
0.402383
0.000326048
0.402469
0.000321823
0.402555
0.000317585
0.402642
0.000313449
0.402729
0.000309424
0.402817
0.000305055
0.402906
0.000301706
0.402995
0.00029793
0.403085
0.000293983
0.403176
0.000291484
0.403267
0.000289028
0.403359
0.000286085
0.403451
0.000282151
0.403543
0.000276314
0.403629
0.000263517
0.000228803
0.397415
-0.00048916
0.397741
1.22871e-05
0.398073
0.000121366
0.398355
7.29983e-05
0.398612
6.30035e-05
0.398837
4.39547e-05
0.399027
1.48043e-05
0.399194
-1.30184e-05
0.399348
-3.47766e-05
0.399489
-5.24952e-05
0.399621
-6.82075e-05
0.399745
-7.93304e-05
0.399864
-8.55997e-05
0.399977
-9.08871e-05
0.400085
-9.54072e-05
0.40019
-9.67747e-05
0.400291
-9.50356e-05
0.400388
-9.26017e-05
0.400482
-9.0344e-05
0.400574
-8.66277e-05
0.400665
-8.11464e-05
0.400753
-7.53939e-05
0.400839
-6.97522e-05
0.400924
-6.33801e-05
0.401008
-5.63089e-05
0.401091
-4.95213e-05
0.401173
-4.29081e-05
0.401254
-3.56405e-05
0.401335
-2.79963e-05
0.401416
-2.07979e-05
0.401496
-1.3987e-05
0.401576
-7.12308e-06
0.401656
-2.84933e-07
0.401737
6.30986e-06
0.401817
1.26888e-05
0.401898
1.90435e-05
0.401979
2.54187e-05
0.402061
3.13573e-05
0.402142
3.66696e-05
0.402225
4.18366e-05
0.402308
4.67573e-05
0.402392
5.10421e-05
0.402476
5.50821e-05
0.402561
5.91573e-05
0.402647
6.30953e-05
0.402733
6.67002e-05
0.402821
6.97494e-05
0.402909
7.25654e-05
0.402997
7.4927e-05
0.403087
7.69619e-05
0.403177
7.96643e-05
0.403267
8.1499e-05
0.403359
8.29618e-05
0.403451
8.49599e-05
0.403544
8.67461e-05
0.403638
8.82108e-05
0.403731
8.85823e-05
0.403823
8.77864e-05
0.403912
8.2646e-05
6.32073e-05
0.397414
-2.7648e-06
0.397462
-5.23721e-06
0.397665
-5.97176e-06
0.397868
-9.53971e-06
0.398102
-1.92145e-05
0.39835
-2.15035e-05
0.398588
-3.13296e-05
0.398814
-4.13895e-05
0.399027
-4.49595e-05
0.399226
-4.95998e-05
0.399411
-5.35583e-05
0.399584
-5.29693e-05
0.399744
-4.9785e-05
0.399894
-4.70872e-05
0.400034
-4.38924e-05
0.400166
-3.93687e-05
0.40029
-3.44565e-05
0.400407
-2.96994e-05
0.400519
-2.48299e-05
0.400626
-1.92896e-05
0.400728
-1.37321e-05
0.400827
-9.49149e-06
0.400922
-6.04942e-06
0.401015
-2.1179e-06
0.401106
1.71853e-06
0.401194
4.45765e-06
0.401281
6.92699e-06
0.401366
1.00908e-05
0.40145
1.33437e-05
0.401534
1.60197e-05
0.401617
1.84268e-05
0.401699
2.0912e-05
0.401781
2.34746e-05
0.401862
2.61326e-05
0.401944
2.87221e-05
0.402026
3.14078e-05
0.402108
3.42878e-05
0.40219
3.6709e-05
0.402272
3.87362e-05
0.402355
4.09574e-05
0.402439
4.29109e-05
0.402523
4.4502e-05
0.402607
4.60408e-05
0.402693
4.73803e-05
0.402779
4.87527e-05
0.402865
4.98729e-05
0.402952
5.04056e-05
0.40304
5.08807e-05
0.403129
5.13449e-05
0.403218
5.169e-05
0.403308
5.1993e-05
0.403399
5.19689e-05
0.403491
5.1971e-05
0.403583
5.17597e-05
0.403676
5.1575e-05
0.403769
5.15105e-05
0.403862
5.10668e-05
0.403953
5.10299e-05
0.404038
5.14647e-05
5.20004e-05
0.397414
0.000483558
0.397463
-2.28831e-05
0.397665
-0.000134903
0.397868
-9.52613e-05
0.398103
-9.96702e-05
0.39835
-9.38491e-05
0.398589
-8.06917e-05
0.398816
-6.75919e-05
0.399029
-5.39319e-05
0.399228
-4.20787e-05
0.399413
-3.06225e-05
0.399585
-1.86358e-05
0.399745
-6.99244e-06
0.399894
4.8723e-06
0.400034
1.75005e-05
0.400166
2.86851e-05
0.40029
3.72755e-05
0.400407
4.48311e-05
0.400519
5.21553e-05
0.400626
5.8442e-05
0.400728
6.27436e-05
0.400827
6.49136e-05
0.400922
6.5908e-05
0.401015
6.68081e-05
0.401105
6.70671e-05
0.401193
6.61213e-05
0.40128
6.49724e-05
0.401366
6.42817e-05
0.40145
6.33601e-05
0.401533
6.2004e-05
0.401616
6.07022e-05
0.401698
5.94572e-05
0.40178
5.82355e-05
0.401862
5.72042e-05
0.401943
5.61394e-05
0.402025
5.51791e-05
0.402107
5.44539e-05
0.402189
5.33173e-05
0.402271
5.21328e-05
0.402354
5.13822e-05
0.402437
5.03509e-05
0.402521
4.93617e-05
0.402606
4.84961e-05
0.402691
4.72903e-05
0.402776
4.628e-05
0.402863
4.502e-05
0.40295
4.33423e-05
0.403038
4.1883e-05
0.403126
4.08959e-05
0.403216
3.99263e-05
0.403305
3.81367e-05
0.403396
3.66318e-05
0.403488
3.54951e-05
0.40358
3.3618e-05
0.403673
3.1681e-05
0.403766
3.01364e-05
0.403859
2.93182e-05
0.40395
3.01107e-05
0.404036
3.59266e-05
5.39358e-05
0.397415
0.000916789
0.397742
-0.000521606
0.398072
-0.000779098
0.398351
-0.000811282
0.398609
-0.000886994
0.398831
-0.000915383
0.399022
-0.000908498
0.399191
-0.000892757
0.399344
-0.000875057
0.399487
-0.000850358
0.39962
-0.000819838
0.399746
-0.000788764
0.399865
-0.000757121
0.399979
-0.0007226
0.400088
-0.000686739
0.400193
-0.000653197
0.400294
-0.000622755
0.400391
-0.000593958
0.400486
-0.000565962
0.400578
-0.000540152
0.400667
-0.00051726
0.400755
-0.000496463
0.400842
-0.000477355
0.400926
-0.000459569
0.40101
-0.0004431
0.401093
-0.000428116
0.401175
-0.000414061
0.401257
-0.000400835
0.401338
-0.000388843
0.401418
-0.000377615
0.401499
-0.000366752
0.401579
-0.000356741
0.401659
-0.000347536
0.40174
-0.000338682
0.40182
-0.000330486
0.401901
-0.000322843
0.401982
-0.000315543
0.402064
-0.000309094
0.402146
-0.000302876
0.402228
-0.00029666
0.402311
-0.000291274
0.402395
-0.000285981
0.402479
-0.000280946
0.402564
-0.000276558
0.40265
-0.000272204
0.402736
-0.000268697
0.402824
-0.000265588
0.402912
-0.000262419
0.403
-0.000259081
0.40309
-0.000255568
0.40318
-0.000253203
0.403271
-0.000250609
0.403362
-0.000247835
0.403455
-0.000246126
0.403547
-0.000244843
0.403641
-0.000243162
0.403735
-0.000240277
0.403827
-0.000235251
0.403915
-0.000221757
-0.000183885
0.396066
0.00315554
0.396278
5.15777e-05
0.396451
8.06319e-05
0.396758
6.55801e-05
0.397121
1.69148e-05
0.397471
4.35582e-05
0.397794
9.39978e-05
0.398088
0.000137128
0.398356
0.000168803
0.398601
0.00019291
0.398824
0.000213458
0.399028
0.000229744
0.399216
0.000240435
0.399389
0.00024772
0.399548
0.000251711
0.399696
0.000252091
0.399833
0.000249746
0.399962
0.000245261
0.400084
0.000240098
0.400199
0.000233849
0.400308
0.000226613
0.400412
0.000219627
0.400512
0.000212377
0.400609
0.000204788
0.400703
0.000197373
0.400794
0.000189947
0.400884
0.000182401
0.400971
0.000174405
0.401057
0.000165911
0.401142
0.00015777
0.401226
0.000150063
0.401309
0.000141915
0.401391
0.000133497
0.401474
0.000125344
0.401556
0.00011703
0.401638
0.000108682
0.401719
0.000100538
0.401801
9.22109e-05
0.401884
8.44325e-05
0.401966
7.7065e-05
0.40205
6.9292e-05
0.402133
6.20702e-05
0.402217
5.50045e-05
0.402302
4.79855e-05
0.402387
4.14147e-05
0.402473
3.41418e-05
0.40256
2.73247e-05
0.402647
2.08275e-05
0.402735
1.42302e-05
0.402824
8.46947e-06
0.402914
2.28267e-06
0.403004
-3.63674e-06
0.403095
-9.20614e-06
0.403186
-1.50811e-05
0.403278
-2.09308e-05
0.403371
-2.62609e-05
0.403464
-3.00658e-05
0.403557
-3.05089e-05
0.403646
-1.76788e-05
5.66651e-05
0.398247
0.00185739
0.398237
-0.00136953
0.398035
-0.00136725
0.398039
-0.00167214
0.398112
-0.00179581
0.398218
-0.00176419
0.398342
-0.00167969
0.398471
-0.00158055
0.398598
-0.00148001
0.39872
-0.00138514
0.398835
-0.00129297
0.398943
-0.00120625
0.399044
-0.00112812
0.399138
-0.00105823
0.399226
-0.000996004
0.399307
-0.000940075
0.399384
-0.000889366
0.399456
-0.000844147
0.399524
-0.000802963
0.399588
-0.000765369
0.399649
-0.000730783
0.399707
-0.000698168
0.399763
-0.000668162
0.399816
-0.000640654
0.399868
-0.000614898
0.399918
-0.000590956
0.399967
-0.000569002
0.400014
-0.000549217
0.400061
-0.000531339
0.400106
-0.000514526