/*--------------------------------*- C++ -*----------------------------------*\
  =========                 |
  \\      /  F ield         | OpenFOAM: The Open Source CFD Toolbox
   \\    /   O peration     | Website:  https://openfoam.org
    \\  /    A nd           | Version:  8
     \\/     M anipulation  |
\*---------------------------------------------------------------------------*/
FoamFile
{
    version     2.0;
    format      ascii;
    class       volScalarField;
    location    "200";
    object      k;
}
// * * * * * * * * * * * * * * * * * * * * * * * * * * * * * * * * * * * * * //

dimensions      [0 2 -2 0 0 0 0];

internalField   nonuniform List<scalar> 
1200
(
0.803285
0.676771
0.580211
0.50455
0.447526
0.403886
0.370678
0.336791
0.289236
0.237911
0.194185
0.160676
0.136576
0.119164
0.106058
0.0958223
0.087722
0.081391
0.0765809
0.0727787
0.0696801
0.0673092
0.065369
0.0621906
0.0551791
0.0476761
0.0425722
0.0398375
0.0383055
0.0371263
0.0360558
0.0352904
0.0349997
0.0349226
0.0344522
0.0332561
0.0314066
0.0290973
0.0267139
0.0245761
0.0227617
0.0210379
0.0195272
0.0183699
0.0174178
0.0162158
0.0146173
0.0128364
0.0111482
0.00965931
0.00847333
0.00771704
0.00735548
0.0072579
0.00733201
0.00752981
0.00781946
0.00818292
0.00858769
0.0090989
0.695237
0.512119
0.391063
0.307516
0.248538
0.206545
0.18336
0.175666
0.165284
0.148435
0.129389
0.112864
0.0995761
0.088844
0.0800355
0.0725997
0.0661371
0.0604235
0.0554703
0.0512454
0.0475662
0.0442946
0.0414087
0.0392347
0.0369419
0.0340006
0.0311559
0.028672
0.0265118
0.0245793
0.0227983
0.0211456
0.0196299
0.0182468
0.0170024
0.0158662
0.0148273
0.0138755
0.013024
0.0122756
0.0116141
0.0109961
0.0104072
0.00981929
0.00925501
0.00895718
0.00874673
0.00833662
0.00759429
0.00656457
0.00554587
0.00482747
0.00432475
0.00393391
0.00360805
0.00334025
0.00313152
0.00297274
0.00285026
0.00276004
0.694926
0.511106
0.389539
0.305849
0.246393
0.203124
0.171197
0.148947
0.13233
0.117191
0.103269
0.0915498
0.0816828
0.0733858
0.0663824
0.0603864
0.0551451
0.0504688
0.0463691
0.0428717
0.039858
0.0372139
0.0349202
0.0329313
0.0312258
0.0295076
0.0277941
0.0261614
0.0246388
0.0232188
0.0218925
0.0206481
0.019495
0.01844
0.0174657
0.016558
0.0157042
0.0148989
0.0141379
0.0134154
0.0127231
0.0120455
0.0113605
0.0107407
0.0102723
0.00981299
0.00928278
0.00863575
0.00788946
0.00712423
0.00644072
0.00580535
0.00519417
0.00460142
0.00403823
0.00354671
0.00316145
0.00287764
0.00266913
0.00252712
0.694936
0.511661
0.390204
0.306422
0.246815
0.203477
0.17105
0.146361
0.127327
0.111974
0.0991566
0.0883569
0.0791377
0.0712242
0.0644036
0.0584889
0.0532998
0.0487708
0.0449868
0.0417811
0.0389192
0.0362775
0.0338564
0.0317032
0.0297373
0.0279097
0.0262117
0.0246851
0.0232865
0.0219856
0.0207569
0.0195772
0.0184422
0.0173604
0.0163407
0.015389
0.0144947
0.0136315
0.0127734
0.0119097
0.0110471
0.0102043
0.00938807
0.00869583
0.00821382
0.00794376
0.00775376
0.00751716
0.00713938
0.00665084
0.00614362
0.00564219
0.00513588
0.0045901
0.00399709
0.00343559
0.00298731
0.00266388
0.00242939
0.00227213
0.694941
0.51158
0.389964
0.305986
0.246499
0.203469
0.171309
0.14657
0.127162
0.111567
0.0987234
0.0879491
0.0787886
0.070963
0.0642647
0.0585017
0.0535678
0.0495675
0.0464075
0.0436975
0.0411826
0.0388133
0.0365873
0.0344033
0.032253
0.0302143
0.0282647
0.0262631
0.0242364
0.0222774
0.0204049
0.0186503
0.0170446
0.0155832
0.01428
0.0131509
0.012118
0.011067
0.0099995
0.00895989
0.00800578
0.00719148
0.00655459
0.00610086
0.00577899
0.00562478
0.00561256
0.00562201
0.0055201
0.00524587
0.00484886
0.004435
0.00403567
0.00361986
0.00319227
0.00281729
0.00253329
0.00232896
0.00217211
0.00205317
0.694934
0.511512
0.389848
0.305738
0.246454
0.203847
0.171977
0.147302
0.127802
0.112085
0.0991407
0.0883115
0.0791977
0.0715701
0.0652496
0.0599935
0.0554317
0.0511717
0.0476731
0.0451922
0.0433263
0.0414865
0.0393157
0.0368515
0.0342367
0.0315965
0.0289192
0.0261432
0.0235853
0.0213277
0.0192567
0.0173495
0.0156366
0.0140798
0.0126823
0.0114647
0.0103841
0.00930672
0.0082458
0.00725826
0.00645757
0.00593282
0.00570047
0.00555562
0.00532351
0.00506823
0.00487447
0.00473177
0.00457923
0.00435414
0.00406491
0.00376267
0.00348012
0.00321218
0.00295306
0.00271232
0.00249869
0.00231575
0.00215399
0.00202142
0.694921
0.511427
0.389702
0.305501
0.247124
0.205578
0.174136
0.149456
0.129771
0.11381
0.100657
0.0896442
0.0802581
0.0721604
0.0650311
0.0584959
0.0521978
0.0456558
0.0404281
0.0374377
0.0360244
0.0351101
0.0339538
0.0323442
0.0303087
0.0279595
0.0254125
0.0228143
0.0205378
0.0186149
0.0168684
0.0152622
0.0138208
0.0125135
0.0113273
0.0102736
0.00935978
0.00850561
0.00770118
0.00697811
0.00646947
0.00627389
0.00632115
0.00619485
0.00586154
0.00546995
0.00507094
0.00470953
0.00439078
0.0040772
0.003756
0.003445
0.00317424
0.0029524
0.00276061
0.00258767
0.00242266
0.00226
0.00210002
0.00197217
0.694932
0.510927
0.388856
0.30632
0.253546
0.214859
0.182206
0.156178
0.135492
0.117056
0.0999737
0.0850019
0.072604
0.0622486
0.053431
0.0460496
0.0400728
0.0355023
0.0306642
0.0269556
0.0250143
0.0244229
0.0243869
0.0240835
0.0232967
0.0221345
0.0207823
0.0193712
0.018054
0.016875
0.0157673
0.0147114
0.0137196
0.012788
0.0119139
0.0111035
0.0103699
0.00969998
0.00909109
0.00854253
0.00804394
0.00777802
0.00769725
0.00718846
0.00638305
0.00555606
0.0048507
0.00430572
0.0038935
0.00355571
0.00326948
0.00303684
0.00286421
0.0027414
0.00264219
0.00254141
0.00242
0.00228265
0.00217425
0.00216117
0.695416
0.513855
0.393272
0.327031
0.293941
0.259892
0.222219
0.186963
0.158527
0.136482
0.119
0.104806
0.0927799
0.0825079
0.0734109
0.064837
0.0562241
0.0481515
0.0388145
0.030738
0.0251291
0.0215673
0.0194604
0.0182538
0.0174129
0.0166533
0.0159244
0.0151874
0.0144634
0.0137582
0.0130249
0.0122903
0.0115845
0.0109178
0.0102919
0.00970743
0.00916288
0.00865099
0.00815902
0.00787678
0.00811762
0.00898359
0.0092737
0.00817354
0.00684088
0.00567675
0.00476915
0.00416429
0.00377639
0.00349795
0.00327149
0.00306959
0.00289824
0.00276632
0.00265576
0.00254556
0.00242528
0.00230506
0.0022325
0.00227403
0.803689
0.676751
0.577858
0.509417
0.473799
0.419473
0.356372
0.30128
0.254993
0.215247
0.181174
0.152465
0.128655
0.109099
0.0933417
0.0811193
0.0724236
0.0649703
0.0476661
0.0354859
0.028895
0.0253936
0.02346
0.022046
0.020867
0.0199828
0.0196669
0.0196453
0.0198606
0.0202336
0.0206453
0.0210932
0.0215917
0.0221595
0.0228029
0.0234608
0.0240013
0.0243193
0.0243625
0.0238551
0.0227728
0.0203448
0.0150042
0.00992539
0.00708696
0.00590379
0.00549067
0.0052766
0.00514645
0.00506319
0.00494372
0.00473417
0.00457777
0.00452129
0.00452251
0.00454314
0.00458115
0.00465123
0.00479908
0.00520854
0.803839
0.678032
0.581873
0.504693
0.446537
0.403279
0.37017
0.337653
0.291795
0.240913
0.196842
0.162774
0.138147
0.120378
0.107044
0.0966582
0.0884469
0.0820253
0.0771556
0.0733558
0.0703056
0.0680073
0.066037
0.0629497
0.0562211
0.0486846
0.0433251
0.0403482
0.0386772
0.0374073
0.0362108
0.0353129
0.0349183
0.0348337
0.0344809
0.0334802
0.0318214
0.0296521
0.0273475
0.0252346
0.0234075
0.02164
0.0200654
0.0188448
0.0178709
0.0166735
0.0150452
0.0131832
0.0114123
0.00985741
0.00861983
0.00780824
0.00740725
0.00728357
0.00733905
0.00752248
0.00780043
0.00815466
0.00855283
0.00906113
0.695248
0.512904
0.3915
0.307749
0.248388
0.205927
0.182105
0.174431
0.164868
0.148602
0.12973
0.112983
0.0995234
0.0886757
0.0798004
0.072337
0.0658703
0.0601572
0.0552114
0.051021
0.0473928
0.0441761
0.0413497
0.0391757
0.0370288
0.0342159
0.0313878
0.0289021
0.0267343
0.0247867
0.0229808
0.0212992
0.0197564
0.018352
0.0170935
0.0159498
0.0149084
0.013958
0.0131067
0.0123553
0.0116883
0.0110668
0.0104771
0.00989544
0.00932607
0.00901816
0.00882957
0.00845915
0.00775175
0.00673753
0.00568576
0.0049231
0.00439219
0.00398708
0.0036522
0.00337583
0.00315842
0.00299157
0.00286229
0.00276652
0.694936
0.511421
0.389762
0.30594
0.246369
0.203057
0.171009
0.148682
0.132251
0.117315
0.103378
0.0916189
0.0817006
0.0733457
0.0662858
0.0602462
0.0549773
0.0502856
0.0462646
0.042865
0.0399208
0.0373121
0.0350208
0.0330063
0.0312133
0.0294735
0.0277644
0.0261408
0.0246337
0.0232282
0.0219158
0.0206797
0.0195172
0.0184403
0.0174501
0.0165357
0.0156805
0.014874
0.0141123
0.0133899
0.0126986
0.012026
0.0113542
0.0107362
0.0102574
0.00981125
0.00931819
0.00871901
0.00800551
0.00724502
0.00654763
0.00590261
0.00528448
0.00468891
0.00412194
0.003621
0.00322183
0.00292345
0.00270181
0.00254965
0.694931
0.511725
0.390278
0.306399
0.246786
0.203501
0.171071
0.146407
0.127399
0.112039
0.0991755
0.0883454
0.0791195
0.0712095
0.0643973
0.0584844
0.0532537
0.0487123
0.0449742
0.0417982
0.038936
0.0362857
0.0338862
0.0317491
0.0297803
0.0279453
0.0262467
0.0247195
0.0233266
0.0220302
0.0208005
0.0196102
0.0184601
0.0173626
0.0163308
0.0153718
0.0144719
0.0135932
0.0127116
0.0118227
0.0109406
0.0100845
0.00926747
0.00858608
0.00811828
0.00786269
0.00771996
0.00754324
0.0072148
0.0067486
0.00623843
0.005726
0.00521021
0.00466666
0.00407961
0.00351443
0.00305251
0.00271295
0.00246396
0.00229663
0.694922
0.511609
0.389962
0.305976
0.24654
0.203571
0.171417
0.14666
0.127242
0.111648
0.0987702
0.0879527
0.0787763
0.0709613
0.0642843
0.0585136
0.0535916
0.0496722
0.0465725
0.0438617
0.0413211
0.0389418
0.0367047
0.0345071
0.0323392
0.0302717
0.0282738
0.0262028
0.0241099
0.0221015
0.020192
0.018414
0.0167975
0.0153326
0.0140334
0.0129154
0.0118936
0.0108465
0.00978396
0.00875035
0.00780722
0.00701187
0.00640562
0.00598198
0.00568082
0.00553664
0.00556099
0.00562157
0.0055665
0.00532415
0.00493589
0.00450902
0.00409709
0.00367841
0.00324852
0.0028645
0.0025684
0.00235387
0.00218955
0.00206616
0.694943
0.511539
0.389776
0.305704
0.246507
0.203957
0.172084
0.147385
0.127869
0.112137
0.0991874
0.0883608
0.0792791
0.0717199
0.0654819
0.0602835
0.0557326
0.0514697
0.0480436
0.0456353
0.0437631
0.0418043
0.0394996
0.0369263
0.0342202
0.0314944
0.0287272
0.0258608
0.023256
0.0209815
0.0189005
0.0169912
0.0152875
0.013743
0.0123626
0.0111672
0.0101082
0.00904469
0.00800417
0.00704781
0.00629023
0.00581191
0.00561831
0.00551572
0.00532983
0.00509873
0.00491347
0.0047735
0.00462683
0.00440928
0.00412144
0.00381183
0.00352145
0.00324812
0.00298479
0.0027397
0.0025217
0.00233491
0.00216974
0.00203471
0.694938
0.511501
0.389694
0.305478
0.247228
0.205753
0.174295
0.149578
0.129857
0.113877
0.100727
0.0897332
0.0803967
0.0723159
0.065149
0.0585376
0.0521507
0.0455704
0.040504
0.0377484
0.0364663
0.035516
0.0342214
0.032475
0.0303138
0.027856
0.025213
0.0225395
0.0202326
0.0183064
0.0165582
0.0149569
0.0135277
0.0122342
0.0110624
0.0100251
0.00913248
0.00829667
0.00751119
0.00681565
0.00635672
0.00619921
0.00629797
0.00622792
0.00592319
0.00553968
0.00514099
0.00477612
0.00445446
0.00413947
0.00381495
0.00349566
0.00321331
0.00298121
0.002782
0.00260397
0.0024364
0.00227306
0.00211191
0.0019817
0.694926
0.510944
0.388831
0.306157
0.253389
0.214817
0.182164
0.156248
0.135511
0.116826
0.0995248
0.0844913
0.0720658
0.0617005
0.0528987
0.0455562
0.0396182
0.0350214
0.0302169
0.0267452
0.0250825
0.0246993
0.024676
0.0242745
0.0233823
0.0221435
0.0207309
0.0192784
0.0179423
0.0167594
0.015646
0.0145872
0.0135974
0.0126701
0.0118014
0.0109986
0.0102755
0.0096097
0.0090017
0.00846326
0.00797395
0.00773961
0.00773434
0.00729502
0.00651653
0.00568739
0.00496368
0.00439859
0.00396995
0.00361815
0.00331763
0.00306986
0.00288374
0.00275157
0.00264711
0.00254508
0.00242529
0.0022893
0.00217752
0.00215572
0.69524
0.51283
0.391539
0.323697
0.291725
0.259511
0.222705
0.187633
0.159057
0.136954
0.119415
0.104928
0.0926997
0.0823328
0.0731252
0.0643919
0.055603
0.0473523
0.0379115
0.030033
0.024693
0.0213604
0.0194416
0.0183059
0.0174686
0.0167067
0.0159607
0.0152115
0.0144603
0.0137476
0.0130307
0.0123098
0.0116101
0.0109466
0.0103221
0.00973709
0.00919172
0.00868281
0.00819593
0.00784974
0.00805333
0.00895369
0.00939075
0.00835585
0.00700207
0.0058028
0.0048577
0.00422272
0.00381528
0.00352431
0.00328992
0.0030827
0.00290593
0.00276931
0.00265677
0.00254736
0.00242896
0.00230907
0.00223216
0.0022649
0.80315
0.675885
0.577506
0.507312
0.472679
0.421071
0.358866
0.303644
0.257134
0.21725
0.183055
0.154193
0.130223
0.110517
0.0946113
0.0822429
0.0734094
0.063938
0.0460731
0.0344161
0.0282617
0.0250237
0.0232158
0.0218554
0.0208052
0.0199814
0.0196174
0.0195728
0.0197809
0.0201498
0.020556
0.0209953
0.0214834
0.0220376
0.0226709
0.0233411
0.0239323
0.0243277
0.0244604
0.0241084
0.0231818
0.0209269
0.0156609
0.0103482
0.00727851
0.00597722
0.00552909
0.00530514
0.00516975
0.00508519
0.00497131
0.00476349
0.00459652
0.00453082
0.00452826
0.00454855
0.00458762
0.00465736
0.0048029
0.00520784
)
;

boundaryField
{
    wall
    {
        type            kqRWallFunction;
        value           nonuniform List<scalar> 
1200
(
0.803285
0.695237
0.694926
0.694936
0.694941
0.694934
0.694921
0.694932
0.695416
0.803689
0.676771
0.512119
0.511106
0.511661
0.51158
0.511512
0.511427
0.510927
0.513855
0.676751
0.580211
0.391063
0.389539
0.390204
0.389964
0.389848
0.389702
0.388856
0.393272
0.577858
0.50455
0.307516
0.305849
0.306422
0.305986
0.305738
0.305501
0.30632
0.327031
0.509417
0.447526
0.248538
0.246393
0.246815
0.246499
0.246454
0.247124
0.253546
0.293941
0.473799
0.403886
0.206545
0.203124
0.203477
0.203469
0.203847
0.205578
0.214859
0.259892
0.419473
0.370678
0.18336
0.171197
0.17105
0.171309
0.171977
0.174136
0.182206
0.222219
0.356372
0.336791
0.175666
0.148947
0.146361
0.14657
0.147302
0.149456
0.156178
0.186963
0.30128
0.289236
0.165284
0.13233
0.127327
0.127162
0.127802
0.129771
0.135492
0.158527
0.254993
0.237911
0.148435
0.117191
0.111974
0.111567
0.112085
0.11381
0.117056
0.136482
0.215247
0.194185
0.129389
0.103269
0.0991566
0.0987234
0.0991407
0.100657
0.0999737
0.119
0.181174
0.160676
0.112864
0.0915498
0.0883569
0.0879491
0.0883115
0.0896442
0.0850019
0.104806
0.152465
0.136576
0.0995761
0.0816828
0.0791377
0.0787886
0.0791977
0.0802581
0.072604
0.0927799
0.128655
0.119164
0.088844
0.0733858
0.0712242
0.070963
0.0715701
0.0721604
0.0622486
0.0825079
0.109099
0.106058
0.0800355
0.0663824
0.0644036
0.0642647
0.0652496
0.0650311
0.053431
0.0734109
0.0933417
0.0958223
0.0725997
0.0603864
0.0584889
0.0585017
0.0599935
0.0584959
0.0460496
0.064837
0.0811193
0.087722
0.0661371
0.0551451
0.0532998
0.0535678
0.0554317
0.0521978
0.0400728
0.0562241
0.0724236
0.081391
0.0604235
0.0504688
0.0487708
0.0495675
0.0511717
0.0456558
0.0355023
0.0481515
0.0649703
0.0765809
0.0554703
0.0463691
0.0449868
0.0464075
0.0476731
0.0404281
0.0306642
0.0388145
0.0476661
0.0727787
0.0512454
0.0428717
0.0417811
0.0436975
0.0451922
0.0374377
0.0269556
0.030738
0.0354859
0.0696801
0.0475662
0.039858
0.0389192
0.0411826
0.0433263
0.0360244
0.0250143
0.0251291
0.028895
0.0673092
0.0442946
0.0372139
0.0362775
0.0388133
0.0414865
0.0351101
0.0244229
0.0215673
0.0253936
0.065369
0.0414087
0.0349202
0.0338564
0.0365873
0.0393157
0.0339538
0.0243869
0.0194604
0.02346
0.0621906
0.0392347
0.0329313
0.0317032
0.0344033
0.0368515
0.0323442
0.0240835
0.0182538
0.022046
0.0551791
0.0369419
0.0312258
0.0297373
0.032253
0.0342367
0.0303087
0.0232967
0.0174129
0.020867
0.0476761
0.0340006
0.0295076
0.0279097
0.0302143
0.0315965
0.0279595
0.0221345
0.0166533
0.0199828
0.0425722
0.0311559
0.0277941
0.0262117
0.0282647
0.0289192
0.0254125
0.0207823
0.0159244
0.0196669
0.0398375
0.028672
0.0261614
0.0246851
0.0262631
0.0261432
0.0228143
0.0193712
0.0151874
0.0196453
0.0383055
0.0265118
0.0246388
0.0232865
0.0242364
0.0235853
0.0205378
0.018054
0.0144634
0.0198606
0.0371263
0.0245793
0.0232188
0.0219856
0.0222774
0.0213277
0.0186149
0.016875
0.0137582
0.0202336
0.0360558
0.0227983
0.0218925
0.0207569
0.0204049
0.0192567
0.0168684
0.0157673
0.0130249
0.0206453
0.0352904
0.0211456
0.0206481
0.0195772
0.0186503
0.0173495
0.0152622
0.0147114
0.0122903
0.0210932
0.0349997
0.0196299
0.019495
0.0184422
0.0170446
0.0156366
0.0138208
0.0137196
0.0115845
0.0215917
0.0349226
0.0182468
0.01844
0.0173604
0.0155832
0.0140798
0.0125135
0.012788
0.0109178
0.0221595
0.0344522
0.0170024
0.0174657
0.0163407
0.01428
0.0126823
0.0113273
0.0119139
0.0102919
0.0228029
0.0332561
0.0158662
0.016558
0.015389
0.0131509
0.0114647
0.0102736
0.0111035
0.00970743
0.0234608
0.0314066
0.0148273
0.0157042
0.0144947
0.012118
0.0103841
0.00935978
0.0103699
0.00916288
0.0240013
0.0290973
0.0138755
0.0148989
0.0136315
0.011067
0.00930672
0.00850561
0.00969998
0.00865099
0.0243193
0.0267139
0.013024
0.0141379
0.0127734
0.0099995
0.0082458
0.00770118
0.00909109
0.00815902
0.0243625
0.0245761
0.0122756
0.0134154
0.0119097
0.00895989
0.00725826
0.00697811
0.00854253
0.00787678
0.0238551
0.0227617
0.0116141
0.0127231
0.0110471
0.00800578
0.00645757
0.00646947
0.00804394
0.00811762
0.0227728
0.0210379
0.0109961
0.0120455
0.0102043
0.00719148
0.00593282
0.00627389
0.00777802
0.00898359
0.0203448
0.0195272
0.0104072
0.0113605
0.00938807
0.00655459
0.00570047
0.00632115
0.00769725
0.0092737
0.0150042
0.0183699
0.00981929
0.0107407
0.00869583
0.00610086
0.00555562
0.00619485
0.00718846
0.00817354
0.00992539
0.0174178
0.00925501
0.0102723
0.00821382
0.00577899
0.00532351
0.00586154
0.00638305
0.00684088
0.00708696
0.0162158
0.00895718
0.00981299
0.00794376
0.00562478
0.00506823
0.00546995
0.00555606
0.00567675
0.00590379
0.0146173
0.00874673
0.00928278
0.00775376
0.00561256
0.00487447
0.00507094
0.0048507
0.00476915
0.00549067
0.0128364
0.00833662
0.00863575
0.00751716
0.00562201
0.00473177
0.00470953
0.00430572
0.00416429
0.0052766
0.0111482
0.00759429
0.00788946
0.00713938
0.0055201
0.00457923
0.00439078
0.0038935
0.00377639
0.00514645
0.00965931
0.00656457
0.00712423
0.00665084
0.00524587
0.00435414
0.0040772
0.00355571
0.00349795
0.00506319
0.00847333
0.00554587
0.00644072
0.00614362
0.00484886
0.00406491
0.003756
0.00326948
0.00327149
0.00494372
0.00771704
0.00482747
0.00580535
0.00564219
0.004435
0.00376267
0.003445
0.00303684
0.00306959
0.00473417
0.00735548
0.00432475
0.00519417
0.00513588
0.00403567
0.00348012
0.00317424
0.00286421
0.00289824
0.00457777
0.0072579
0.00393391
0.00460142
0.0045901
0.00361986
0.00321218
0.0029524
0.0027414
0.00276632
0.00452129
0.00733201
0.00360805
0.00403823
0.00399709
0.00319227
0.00295306
0.00276061
0.00264219
0.00265576
0.00452251
0.00752981
0.00334025
0.00354671
0.00343559
0.00281729
0.00271232
0.00258767
0.00254141
0.00254556
0.00454314
0.00781946
0.00313152
0.00316145
0.00298731
0.00253329
0.00249869
0.00242266
0.00242
0.00242528
0.00458115
0.00818292
0.00297274
0.00287764
0.00266388
0.00232896
0.00231575
0.00226
0.00228265
0.00230506
0.00465123
0.00858769
0.00285026
0.00266913
0.00242939
0.00217211
0.00215399
0.00210002
0.00217425
0.0022325
0.00479908
0.0090989
0.00276004
0.00252712
0.00227213
0.00205317
0.00202142
0.00197217
0.00216117
0.00227403
0.00520854
0.803839
0.695248
0.694936
0.694931
0.694922
0.694943
0.694938
0.694926
0.69524
0.80315
0.678032
0.512904
0.511421
0.511725
0.511609
0.511539
0.511501
0.510944
0.51283
0.675885
0.581873
0.3915
0.389762
0.390278
0.389962
0.389776
0.389694
0.388831
0.391539
0.577506
0.504693
0.307749
0.30594
0.306399
0.305976
0.305704
0.305478
0.306157
0.323697
0.507312
0.446537
0.248388
0.246369
0.246786
0.24654
0.246507
0.247228
0.253389
0.291725
0.472679
0.403279
0.205927
0.203057
0.203501
0.203571
0.203957
0.205753
0.214817
0.259511
0.421071
0.37017
0.182105
0.171009
0.171071
0.171417
0.172084
0.174295
0.182164
0.222705
0.358866
0.337653
0.174431
0.148682
0.146407
0.14666
0.147385
0.149578
0.156248
0.187633
0.303644
0.291795
0.164868
0.132251
0.127399
0.127242
0.127869
0.129857
0.135511
0.159057
0.257134
0.240913
0.148602
0.117315
0.112039
0.111648
0.112137
0.113877
0.116826
0.136954
0.21725
0.196842
0.12973
0.103378
0.0991755
0.0987702
0.0991874
0.100727
0.0995248
0.119415
0.183055
0.162774
0.112983
0.0916189
0.0883454
0.0879527
0.0883608
0.0897332
0.0844913
0.104928
0.154193
0.138147
0.0995234
0.0817006
0.0791195
0.0787763
0.0792791
0.0803967
0.0720658
0.0926997
0.130223
0.120378
0.0886757
0.0733457
0.0712095
0.0709613
0.0717199
0.0723159
0.0617005
0.0823328
0.110517
0.107044
0.0798004
0.0662858
0.0643973
0.0642843
0.0654819
0.065149
0.0528987
0.0731252
0.0946113
0.0966582
0.072337
0.0602462
0.0584844
0.0585136
0.0602835
0.0585376
0.0455562
0.0643919
0.0822429
0.0884469
0.0658703
0.0549773
0.0532537
0.0535916
0.0557326
0.0521507
0.0396182
0.055603
0.0734094
0.0820253
0.0601572
0.0502856
0.0487123
0.0496722
0.0514697
0.0455704
0.0350214
0.0473523
0.063938
0.0771556
0.0552114
0.0462646
0.0449742
0.0465725
0.0480436
0.040504
0.0302169
0.0379115
0.0460731
0.0733558
0.051021
0.042865
0.0417982
0.0438617
0.0456353
0.0377484
0.0267452
0.030033
0.0344161
0.0703056
0.0473928
0.0399208
0.038936
0.0413211
0.0437631
0.0364663
0.0250825
0.024693
0.0282617
0.0680073
0.0441761
0.0373121
0.0362857
0.0389418
0.0418043
0.035516
0.0246993
0.0213604
0.0250237
0.066037
0.0413497
0.0350208
0.0338862
0.0367047
0.0394996
0.0342214
0.024676
0.0194416
0.0232158
0.0629497
0.0391757
0.0330063
0.0317491
0.0345071
0.0369263
0.032475
0.0242745
0.0183059
0.0218554
0.0562211
0.0370288
0.0312133
0.0297803
0.0323392
0.0342202
0.0303138
0.0233823
0.0174686
0.0208052
0.0486846
0.0342159
0.0294735
0.0279453
0.0302717
0.0314944
0.027856
0.0221435
0.0167067
0.0199814
0.0433251
0.0313878
0.0277644
0.0262467
0.0282738
0.0287272
0.025213
0.0207309
0.0159607
0.0196174
0.0403482
0.0289021
0.0261408
0.0247195
0.0262028
0.0258608
0.0225395
0.0192784
0.0152115
0.0195728
0.0386772
0.0267343
0.0246337
0.0233266
0.0241099
0.023256
0.0202326
0.0179423
0.0144603
0.0197809
0.0374073
0.0247867
0.0232282
0.0220302
0.0221015
0.0209815
0.0183064
0.0167594
0.0137476
0.0201498
0.0362108
0.0229808
0.0219158
0.0208005
0.020192
0.0189005
0.0165582
0.015646
0.0130307
0.020556
0.0353129
0.0212992
0.0206797
0.0196102
0.018414
0.0169912
0.0149569
0.0145872
0.0123098
0.0209953
0.0349183
0.0197564
0.0195172
0.0184601
0.0167975
0.0152875
0.0135277
0.0135974
0.0116101
0.0214834
0.0348337
0.018352
0.0184403
0.0173626
0.0153326
0.013743
0.0122342
0.0126701
0.0109466
0.0220376
0.0344809
0.0170935
0.0174501
0.0163308
0.0140334
0.0123626
0.0110624
0.0118014
0.0103221
0.0226709
0.0334802
0.0159498
0.0165357
0.0153718
0.0129154
0.0111672
0.0100251
0.0109986
0.00973709
0.0233411
0.0318214
0.0149084
0.0156805
0.0144719
0.0118936
0.0101082
0.00913248
0.0102755
0.00919172
0.0239323
0.0296521
0.013958
0.014874
0.0135932
0.0108465
0.00904469
0.00829667
0.0096097
0.00868281
0.0243277
0.0273475
0.0131067
0.0141123
0.0127116
0.00978396
0.00800417
0.00751119
0.0090017
0.00819593
0.0244604
0.0252346
0.0123553
0.0133899
0.0118227
0.00875035
0.00704781
0.00681565
0.00846326
0.00784974
0.0241084
0.0234075
0.0116883
0.0126986
0.0109406
0.00780722
0.00629023
0.00635672
0.00797395
0.00805333
0.0231818
0.02164
0.0110668
0.012026
0.0100845
0.00701187
0.00581191
0.00619921
0.00773961
0.00895369
0.0209269
0.0200654
0.0104771
0.0113542
0.00926747
0.00640562
0.00561831
0.00629797
0.00773434
0.00939075
0.0156609
0.0188448
0.00989544
0.0107362
0.00858608
0.00598198
0.00551572
0.00622792
0.00729502
0.00835585
0.0103482
0.0178709
0.00932607
0.0102574
0.00811828
0.00568082
0.00532983
0.00592319
0.00651653
0.00700207
0.00727851
0.0166735
0.00901816
0.00981125
0.00786269
0.00553664
0.00509873
0.00553968
0.00568739
0.0058028
0.00597722
0.0150452
0.00882957
0.00931819
0.00771996
0.00556099
0.00491347
0.00514099
0.00496368
0.0048577
0.00552909
0.0131832
0.00845915
0.00871901
0.00754324
0.00562157
0.0047735
0.00477612
0.00439859
0.00422272
0.00530514
0.0114123
0.00775175
0.00800551
0.0072148
0.0055665
0.00462683
0.00445446
0.00396995
0.00381528
0.00516975
0.00985741
0.00673753
0.00724502
0.0067486
0.00532415
0.00440928
0.00413947
0.00361815
0.00352431
0.00508519
0.00861983
0.00568576
0.00654763
0.00623843
0.00493589
0.00412144
0.00381495
0.00331763
0.00328992
0.00497131
0.00780824
0.0049231
0.00590261
0.005726
0.00450902
0.00381183
0.00349566
0.00306986
0.0030827
0.00476349
0.00740725
0.00439219
0.00528448
0.00521021
0.00409709
0.00352145
0.00321331
0.00288374
0.00290593
0.00459652
0.00728357
0.00398708
0.00468891
0.00466666
0.00367841
0.00324812
0.00298121
0.00275157
0.00276931
0.00453082
0.00733905
0.0036522
0.00412194
0.00407961
0.00324852
0.00298479
0.002782
0.00264711
0.00265677
0.00452826
0.00752248
0.00337583
0.003621
0.00351443
0.0028645
0.0027397
0.00260397
0.00254508
0.00254736
0.00454855
0.00780043
0.00315842
0.00322183
0.00305251
0.0025684
0.0025217
0.0024364
0.00242529
0.00242896
0.00458762
0.00815466
0.00299157
0.00292345
0.00271295
0.00235387
0.00233491
0.00227306
0.0022893
0.00230907
0.00465736
0.00855283
0.00286229
0.00270181
0.00246396
0.00218955
0.00216974
0.00211191
0.00217752
0.00223216
0.0048029
0.00906113
0.00276652
0.00254965
0.00229663
0.00206616
0.00203471
0.0019817
0.00215572
0.0022649
0.00520784
)
;
    }
    inlet
    {
        type            turbulentIntensityKineticEnergyInlet;
        intensity       0.05;
        value           uniform 0.96;
    }
    outlet
    {
        type            inletOutlet;
        inletValue      uniform 0.003;
        value           nonuniform List<scalar> 
20
(
0.0090989
0.00276004
0.00252712
0.00227213
0.00205317
0.00202142
0.00197217
0.00216117
0.00227403
0.00520854
0.00906113
0.00276652
0.00254965
0.00229663
0.00206616
0.00203471
0.0019817
0.00215572
0.0022649
0.00520784
)
;
    }
    heatWall
    {
        type            kqRWallFunction;
        value           nonuniform List<scalar> 
240
(
0.803689
0.80315
0.676751
0.675885
0.577858
0.577506
0.509417
0.507312
0.473799
0.472679
0.419473
0.421071
0.356372
0.358866
0.30128
0.303644
0.254993
0.257134
0.215247
0.21725
0.181174
0.183055
0.152465
0.154193
0.128655
0.130223
0.109099
0.110517
0.0933417
0.0946113
0.0811193
0.0822429
0.0724236
0.0734094
0.0649703
0.063938
0.0476661
0.0460731
0.0354859
0.0344161
0.028895
0.0282617
0.0253936
0.0250237
0.02346
0.0232158
0.022046
0.0218554
0.020867
0.0208052
0.0199828
0.0199814
0.0196669
0.0196174
0.0196453
0.0195728
0.0198606
0.0197809
0.0202336
0.0201498
0.0206453
0.020556
0.0210932
0.0209953
0.0215917
0.0214834
0.0221595
0.0220376
0.0228029
0.0226709
0.0234608
0.0233411
0.0240013
0.0239323
0.0243193
0.0243277
0.0243625
0.0244604
0.0238551
0.0241084
0.0227728
0.0231818
0.0203448
0.0209269
0.0150042
0.0156609
0.00992539
0.0103482
0.00708696
0.00727851
0.00590379
0.00597722
0.00549067
0.00552909
0.0052766
0.00530514
0.00514645
0.00516975
0.00506319
0.00508519
0.00494372
0.00497131
0.00473417
0.00476349
0.00457777
0.00459652
0.00452129
0.00453082
0.00452251
0.00452826
0.00454314
0.00454855
0.00458115
0.00458762
0.00465123
0.00465736
0.00479908
0.0048029
0.00520854
0.00520784
0.803285
0.803839
0.676771
0.678032
0.580211
0.581873
0.50455
0.504693
0.447526
0.446537
0.403886
0.403279
0.370678
0.37017
0.336791
0.337653
0.289236
0.291795
0.237911
0.240913
0.194185
0.196842
0.160676
0.162774
0.136576
0.138147
0.119164
0.120378
0.106058
0.107044
0.0958223
0.0966582
0.087722
0.0884469
0.081391
0.0820253
0.0765809
0.0771556
0.0727787
0.0733558
0.0696801
0.0703056
0.0673092
0.0680073
0.065369
0.066037
0.0621906
0.0629497
0.0551791
0.0562211
0.0476761
0.0486846
0.0425722
0.0433251
0.0398375
0.0403482
0.0383055
0.0386772
0.0371263
0.0374073
0.0360558
0.0362108
0.0352904
0.0353129
0.0349997
0.0349183
0.0349226
0.0348337
0.0344522
0.0344809
0.0332561
0.0334802
0.0314066
0.0318214
0.0290973
0.0296521
0.0267139
0.0273475
0.0245761
0.0252346
0.0227617
0.0234075
0.0210379
0.02164
0.0195272
0.0200654
0.0183699
0.0188448
0.0174178
0.0178709
0.0162158
0.0166735
0.0146173
0.0150452
0.0128364
0.0131832
0.0111482
0.0114123
0.00965931
0.00985741
0.00847333
0.00861983
0.00771704
0.00780824
0.00735548
0.00740725
0.0072579
0.00728357
0.00733201
0.00733905
0.00752981
0.00752248
0.00781946
0.00780043
0.00818292
0.00815466
0.00858769
0.00855283
0.0090989
0.00906113
)
;
    }
}


// ************************************************************************* //
