/*--------------------------------*- C++ -*----------------------------------*\
  =========                 |
  \\      /  F ield         | OpenFOAM: The Open Source CFD Toolbox
   \\    /   O peration     | Website:  https://openfoam.org
    \\  /    A nd           | Version:  8
     \\/     M anipulation  |
\*---------------------------------------------------------------------------*/
FoamFile
{
    version     2.0;
    format      ascii;
    class       volScalarField;
    location    "200";
    object      p_rgh;
}
// * * * * * * * * * * * * * * * * * * * * * * * * * * * * * * * * * * * * * //

dimensions      [1 -1 -2 0 0 0 0];

internalField   nonuniform List<scalar> 
1200
(
277341
274773
271896
269589
267401
260018
255417
252591
234955
218235
211358
214038
219821
224314
226760
227766
227833
227160
223461
218414
214070
213069
215931
220493
221097
212862
210118
209770
210168
210953
211949
212965
213795
214389
213721
212675
210948
209118
206487
203325
199551
195429
189599
181764
173389
166852
161253
151093
134327
116647
102798
94204.4
88122.5
81548
73408.5
62875.9
50668.9
36443
22803.6
6755.83
270068
271638
270223
268191
266191
259550
253838
249189
232447
215353
209114
213474
219269
223695
226301
227675
228194
227687
223435
217819
213410
212275
214963
219000
219141
212239
210194
209499
209966
211149
212651
214042
214797
215082
214090
213038
211322
209359
206608
203474
199793
195668
189872
181704
173009
166073
159946
149493
132760
115890
103547
94755.3
88000.7
81129.9
72980.2
62486.3
50323.1
36124.2
22627.9
6101.67
272267
273495
272536
270149
266594
259910
252259
245291
232390
220232
215463
217245
221267
224754
226934
228262
228876
228254
222790
216316
211810
210648
212930
216836
218977
214522
211622
210303
210647
211519
212562
213577
213941
213930
213122
212166
210576
208707
206373
203641
200216
196161
190259
181065
171322
164104
158043
148128
132923
117252
104930
96173.9
88991.5
81557.8
72937.4
62059.9
49771
35463.4
22267.6
4349.27
272436
272558
271558
269454
265416
258024
249779
242423
231887
221449
216489
217456
220937
224028
225988
227246
227956
228043
222179
215517
211556
210833
212539
215783
218444
215777
213019
211433
211531
212152
212919
213695
214000
213932
213289
212430
210905
208940
206676
204142
200792
196750
190983
180668
169222
160926
154863
146135
132881
118992
107239
98056.9
90064
82179.2
73409.9
62292.6
49809.8
35186
22260.2
2415.77
272737
272918
272211
270749
266241
257265
247959
239993
231147
223098
219454
220235
223040
225449
226892
228140
228869
229072
222260
215533
212196
211931
213385
215948
218183
216834
214431
212775
212722
213100
213474
213836
213931
213657
213024
212211
210836
208931
206763
204288
201025
197196
191939
180506
167299
158134
151987
144138
132615
120259
109053
99579.6
91077.4
82705.5
73534.5
62145.5
49755.7
34968.1
22527.7
823.934
272948
273322
272497
271620
266548
255657
245793
238476
231362
224501
221059
221305
223537
225541
226801
228402
229713
230824
222637
214847
212023
212808
214892
217104
218584
217735
215781
214330
213961
213890
213905
214009
214001
213634
212952
212102
210979
209313
207257
204722
201435
197947
193488
180661
165719
156169
150237
142892
132492
121127
110186
100320
91254.7
82591.5
73585.7
62379.1
50222.1
35356.7
23172.1
138.229
273041
273665
272667
272584
266975
253428
241639
233619
227697
221922
219300
219975
222677
224950
226568
229299
231945
235652
225404
215388
212662
213934
216802
219211
220648
220347
218268
216561
215482
214853
214550
214488
214316
213841
213053
212092
211044
209548
207578
205059
201710
199241
195971
180448
162091
152299
147125
140644
131328
120992
110759
101111
91873.2
83007.3
74062.6
62865.3
50749.4
35690.6
23682.6
-278.649
273264
274698
274404
275362
268715
251814
240208
233038
227144
218817
214604
217283
221782
225546
227729
230621
232612
237839
228875
218276
215336
216696
219810
222005
222960
222728
220070
218126
216479
215508
215066
214814
214419
213846
213000
211988
210979
209692
207965
205922
202722
201836
199394
180922
159785
149547
145128
139431
130918
121353
111430
101546
91909.2
82790.9
73957.1
62967.2
51249.6
36490
24804.1
701.43
272388
272628
273313
279028
271433
246840
231834
226540
223784
217750
215050
218429
222852
225706
226928
229954
233125
242172
230744
218125
216278
218785
222571
224220
224806
224627
221119
218751
216817
215745
215513
215329
214799
214177
213347
212294
211137
209875
208375
206934
204232
204399
203907
179687
152750
144415
142576
137924
129998
121068
111498
101620
92009.2
83016.5
74160
63072.9
51314.4
36588.3
24781.3
2307.33
280538
276579
275814
287115
278940
250623
233498
226722
224617
219596
215969
217462
221789
225451
227093
230316
232389
245958
234186
219318
217131
219751
223605
224692
224908
225444
221072
218538
216771
216070
215875
215559
214942
214258
213402
212335
211111
209746
208232
206958
204564
205670
207327
184992
157431
145263
141407
137257
129703
120974
111479
101584
92006
83175.2
74415.3
63344.2
51521
36788
24937.9
4169.99
279860
273380
271478
267222
262293
257914
254750
252193
232519
215225
209632
213357
219601
224319
226902
228278
228900
228583
224582
218675
214629
214170
216299
218400
217307
211641
210493
211531
211847
211379
211046
211684
212682
213462
213663
212480
210884
208816
206605
203798
199933
194756
188958
181405
173076
166178
159677
149065
132813
115316
101500
93176.2
87427.3
81409.1
73645.9
63392
51525.3
37498.2
23923.4
7951.53
270825
270374
269682
267059
263828
258408
254366
250678
232820
214812
208640
213340
219245
223719
226427
228176
229226
229096
224509
217887
213657
213010
215234
217119
215407
210927
210767
211589
211456
211291
211645
212565
213471
214008
213879
212746
211282
209473
207158
204136
200136
194941
188930
180957
172374
165273
158459
147734
131535
114666
102249
93741.6
87285.4
80909.1
73075.4
62886.9
51142.1
37092.7
23573.7
7115.07
272649
272739
271841
269643
266370
259182
252849
246511
232069
218762
214132
216805
221044
224670
227127
228947
230113
229985
224230
216437
211968
211141
213395
215455
215513
213133
212559
212747
211773
211481
211857
212474
212964
213197
212842
211829
210748
209336
207076
204148
200354
195399
189239
180255
170771
163602
156917
146618
131696
115900
103511
94879.6
88089.3
81272.6
72959
62439
50614.3
36402.8
22897.8
5418.19
272486
272434
271265
269498
265862
257773
250361
243434
231787
220497
215792
217597
221136
224285
226518
228312
229514
230104
223774
215472
211354
210873
212841
214659
215574
214283
213650
213467
211808
211771
212495
213043
213355
213428
212855
211892
211061
209834
207421
204427
200754
196055
189947
179875
168786
160668
153983
144783
131636
117499
105739
96656.9
89068.8
81727.4
73101.2
62362.7
50467.3
36035.2
22523.6
3516.23
272776
272901
272232
270998
266769
257136
248037
240420
230803
222006
218494
220135
223135
225716
227506
229335
230604
231886
225031
216345
212388
212075
213806
215331
216113
215463
214567
213874
211803
212058
212989
213375
213403
213295
212597
211656
210851
209773
207518
204657
200942
196558
190931
179806
166855
157882
151238
142998
131484
118757
107469
97996.5
89928.9
82145.6
72983.3
61867.4
49955.1
35537.2
22331.3
1951.43
273079
273319
272974
272391
267600
256087
246443
239633
231569
223859
220466
221264
223721
225977
227570
229538
231052
233318
225026
215109
211536
212306
214767
216509
217139
216514
215341
214307
212128
212454
213496
213780
213657
213505
212779
211786
210860
209919
207818
205155
201399
197257
192484
179980
165133
155593
149212
141762
131547
119813
108738
98833.7
90189.1
82127.2
72965.8
61840.5
49961.9
35605.5
22718.6
1156.63
273364
273739
273172
273721
268460
253704
242077
234566
228057
221816
219071
219725
222312
224690
226620
229785
233040
238316
227648
215636
212226
213475
216670
219041
220103
219573
217588
215667
213168
213166
214166
214325
214045
213762
213006
211931
210799
209774
207839
205334
201754
198425
195003
179951
161584
151394
145881
139713
130826
120058
109450
99504
90565.5
82469.1
73463.7
62264.1
50091.8
35477.2
22696.8
594.496
273814
275496
274882
276786
271439
253856
243480
237068
230524
221282
215823
217503
221674
225552
227966
230989
233342
240032
230766
218202
214590
215973
219219
221521
222177
221246
218605
216531
214221
213748
214589
214706
214288
213835
213057
211980
210745
209585
207894
206134
203191
200972
198179
179822
158471
147845
143470
138705
131040
121120
110708
100268
90583.4
82253.6
73484.8
62478.1
50259
35562
22931.1
877.717
272453
273646
273333
279656
272907
247754
233918
228941
225896
219490
216538
219501
223825
226631
227872
230990
234695
244822
232301
217824
215407
217893
221580
223575
224031
222983
219612
217156
214728
214099
214884
215082
214677
214155
213393
212349
211059
209679
207889
206371
204547
203354
202898
179934
152393
142705
140851
137657
130834
121442
111185
100501
90556.8
82306.3
73785.5
62860.6
50322.8
35127.6
21904.6
1479.72
279542
277506
275152
285980
277358
247560
232464
226801
224644
219396
215014
215876
220534
224806
227118
230849
234249
249283
236327
218944
215984
218608
222380
223956
224133
223839
219628
216972
214751
214328
215160
215314
214919
214349
213540
212516
211277
209816
207702
205750
204839
204512
204833
183008
155997
143343
139682
137243
130796
121611
111407
100643
90596.5
82396.2
74055.9
63287.3
50602.6
35018.3
21368.3
2313.1
)
;

boundaryField
{
    wall
    {
        type            fixedFluxPressure;
        gradient        nonuniform List<scalar> 
1200
(
-511622
-153283
-75366.7
-9068.2
-7521.07
-26071.7
-65059.5
-112091
-13600
204261
276488
256316
152070
23915.4
3555.46
1516.71
-13565.9
-160512
-208505
-184918
79805.7
110567
140103
59418.2
-4098.65
-96332.8
-102600
-96418.6
-7483.05
138249
476437
227858
101368
-8312.84
-49503.3
-155223
-230233
-291891
-129926
246275
1.04422e+06
477744
41685.5
-90968.5
-105987
-212368
-299309
-554400
-286938
322761
433443
231440
148949
49889.1
24371
-89206.4
-53738.8
-411510
-180857
606729
149785
-107940
-116326
-118244
-15684.9
-131302
-86977.7
-666949
-415836
200041
91265.5
-311116
-244768
-203875
-84484.7
-230085
-189608
-842097
-480544
-15981.3
488571
-89776.9
66018.3
20392.6
70232.4
-36344.2
-69713.7
-730025
-426552
-2467.86
593546
100360
296662
191952
221150
135278
22379.6
-549223
-350778
46818.9
336294
94996.7
267674
141155
195803
124925
46235.8
-272134
-304308
199336
135106
26467.4
88605.9
-27853.3
22364.3
10784.8
42278.5
-31578.8
-230025
314852
44047.1
4514.95
45407.1
-39776.6
-17664.5
-40398.5
63543.1
50687.7
-228393
246469
-746.991
-4566.04
17682.1
-51713.3
-52864.9
-95956.4
43701
30091
-223680
125375
-27477.9
-24271.3
-36977.6
-106904
-123483
-164809
-14476.3
-19053.5
-220333
-7257.49
-101088
-98924.8
-134796
-215175
-240549
-236849
-95088.3
-48183
-222023
-108859
-212076
-205875
-245623
-313346
-350577
-272726
-213050
-127449
-314015
-373130
-284294
-282409
-348141
-411512
-569057
-500340
-523235
-424654
-520205
-663421
-223966
-215747
-292280
-320241
-562090
-478145
-446022
-368395
-310456
-449975
-51450.1
-14317.8
-27273.4
8334.76
-166001
-47392.1
-49462.2
22719.1
59020.3
62144.7
-112155
-50426.4
-32345.6
41682.1
-40179.4
105628
88976.1
155428
178656
229402
-222797
-147912
-97183.3
-4383.18
-29210.7
109652
94688.8
148916
184851
231018
-76074.9
-55824.5
-92353.5
-57303.2
-85765.6
30632.6
29608
120688
204792
249678
419888
375075
277222
226957
122653
120920
34864.3
99255.9
134673
148656
761611
752919
696535
578263
415296
288216
106779
158282
161707
155128
244345
266745
278188
302659
276851
241799
150515
297965
335691
320217
-74187.8
-115455
-188925
-124835
-23892.8
85612.7
131865
294745
302729
289980
-351854
-419991
-491712
-407850
-217669
1706.78
176657
322246
318473
313282
-337589
-301848
-227154
-54027.8
189987
367300
466140
457196
417982
403515
-87104.6
-31662.4
4262.05
76732.4
215899
289366
342296
356741
330730
347926
180838
198929
138232
84066
103331
83650.2
80647.9
97289.1
126184
142765
257781
294039
220821
128628
97290.4
46955.3
36484.2
22601.4
49147.8
49342.3
224864
264831
197511
126674
109487
70335.7
58385.6
27251.3
23781.9
4341.22
188427
215220
148760
98085.3
74851.5
26568.7
19800.4
3010.87
4140.37
-18207.1
12538.7
40504.6
56807.5
85091.2
88022.9
35617.4
12761.8
-10622.9
-9426.76
-27171.5
39248.3
56576.6
67643.7
107002
114644
64559.7
35117.9
2059.9
-11549.2
-36382.6
12639.6
6963.23
-35008.8
-32237.8
-280.708
25613.1
52727.9
48327.1
15036.4
-34908.9
63129
-22230.7
-126391
-181995
-167983
-120456
-42309.2
23409.9
39962.9
-16499
-20442.6
-109825
-140819
-152783
-151844
-112023
-50662
15561.7
99865
105727
-93453.6
-133132
-101664
-58388.8
-74332.5
-86750
-54983.7
-43462.9
115103
246378
-77140.5
-69654.6
-28411.1
7300.91
16933.9
8884.75
-8498.43
-96813.9
-66230.8
-55052.6
134754
145681
151868
139581
128410
139897
163916
175088
204696
234993
126829
189434
204828
208669
203841
203486
194652
243182
186380
505502
69766.6
150469
163467
159535
142775
138906
98307.1
223655
-57760.3
393797
62021.6
128041
110424
87017.7
90884.6
117704
102057
262479
78585.7
282468
136288
160468
98126.2
49766.8
49682.8
114998
182245
340001
345470
384772
317245
296899
222643
173803
147787
204169
250238
331776
345647
346451
404778
349583
300990
269884
227117
225163
187275
144169
52019.7
1331.78
299511
242242
244579
249617
227593
188512
100981
-26738.6
-170366
-221065
264089
242901
270633
299621
303095
263160
188713
44347.4
-77127
-129169
260627
257463
284968
300554
319038
290387
264069
143011
60979.6
13614.9
206403
202315
259459
281105
319415
299096
323719
256178
223940
188444
139256
143632
181013
201493
232603
215684
262865
267314
291758
283291
27512.5
44567.6
57276.9
92612.8
113560
95148.3
107587
108481
142013
156802
-48040.2
-19506.9
-4450.21
62040.9
110264
125510
119950
95028.1
73887.1
71809.3
-103413
-81015.7
-76432.4
-16145.1
54322
107616
120775
98262.9
41569.1
10293.3
-171550
-165567
-170514
-136106
-42767.6
49146.6
130564
197858
198402
183358
-211059
-194797
-188635
-172795
-115386
-52847.4
41473
185353
294241
357382
-225854
-192091
-128001
-55886.7
36932.4
84595.2
192562
370122
576830
719383
-241037
-203737
-213907
-219563
-224098
-203022
-173361
-32010.8
171074
381747
511612
153273
75366.1
9068.36
7521.1
26071.8
65059.7
112091
13598.6
-204264
-278482
-256496
-152016
-23902.7
-3550.29
-1512.03
13545.9
160365
208498
185003
-81718.6
-110592
-140073
-59405.5
4111.56
96363
102594
95756.1
6620.46
-138021
-478211
-227836
-101336
8315.01
49517.3
155287
230080
290839
127189
-247407
-1.04452e+06
-477745
-41657.7
90977.8
105956
211942
298422
556591
281772
-325408
-433587
-231448
-148945
-49894.4
-24429
88249.8
52632.3
414589
169098
-609175
-150462
107908
116339
118216
15664.3
129789
85164.2
657288
413472
-200839
-93145.5
311075
244827
203911
84989.1
228977
189436
807158
478384
16158.5
-489984
89837.8
-65927
-20217.3
-69603.2
36997.1
71729.9
675369
423268
3203.44
-593360
-100164
-296615
-192045
-220638
-133367
-21649.7
497073
349235
-45669.4
-335221
-94780.4
-267647
-141210
-195638
-123344
-48526.3
251371
303792
-198225
-133818
-26300.5
-88547.3
27825.9
-22333.6
-10336.8
-50015.3
42810.9
216253
-314470
-42946.5
-4371.39
-45324.2
39746.2
17743.3
36751.3
-72489.9
-27414
184810
-246480
1580.68
4657.64
-17593.5
51618.4
52984.3
87375.9
-52762.4
-4544.77
167632
-125455
28091.2
24302.6
37062.5
106725
123346
153573
8941.34
43970.5
170980
7161.36
101551
98913.4
134888
214883
240326
226614
94469.8
71211
191734
108928
212438
205841
245749
312449
349372
266758
216881
147990
303839
373258
284567
282347
348304
409286
565840
499893
529822
440823
523095
662957
224125
215573
292465
317119
560297
483114
454890
378900
310774
412277
51511.1
14002.2
28953
-10230.2
165569
55192.7
55788.6
-16657.7
-61118.7
-86023.8
112166
50132.5
36312.9
-40158.5
39532.6
-95950.9
-84389.1
-149823
-175309
-232193
222750
147772
103061
9293.22
28580.1
-99717.2
-89597.7
-145186
-179807
-229077
75916.3
55825.5
98928.1
64569.9
87189
-22702
-23123.2
-118716
-201488
-248857
-420072
-375092
-273737
-220021
-119253
-116009
-29924.6
-98024
-133239
-148339
-761708
-752923
-695217
-573313
-411858
-286131
-104651
-157815
-161474
-154595
-244301
-266705
-278149
-299369
-274048
-241700
-151602
-298460
-336194
-320327
74350.7
115541
188941
126543
26129.2
-87079.3
-135579
-295850
-303527
-290022
352044
420147
491691
409258
220376
-4111.29
-180922
-322900
-319245
-313301
337775
302053
227107
53559.3
-187151
-370218
-468283
-456551
-418599
-403437
87314.4
31837.7
-6556.67
-78775.1
-210905
-288979
-339971
-354936
-330596
-347831
-180527
-198736
-141004
-86488.6
-97059.6
-81279.9
-76124.5
-95335.6
-126070
-142684
-257336
-293777
-221611
-131197
-91244.7
-44373.5
-31809
-20819.6
-49058.2
-49287
-224421
-264597
-197477
-129098
-104345
-68029.8
-53958.4
-25641.4
-23710.7
-4313.08
-188100
-215049
-148679
-100290
-70682.1
-24368.9
-15529.3
-1559.12
-4079.85
18206.6
-12307.5
-40378.8
-56715.7
-87089.7
-84796.2
-33736.4
-8768.26
12049.9
9477
27143.4
-39061.9
-56483
-67572.6
-108620
-111960
-62910.6
-31491
-636.221
11586.5
36338.2
-12470.6
-6892.12
35063.2
31290.9
2769.79
-23975.3
-49420.3
-47004.5
-15008.3
34869.3
-62991.7
22285.3
126434
180994
170303
122195
45550.5
-22204.1
-39944.5
16479.5
20556.3
109880
140855
150946
153453
113304
53729.1
-14313
-99881.2
-105728
93556.3
133204
101677
55823.3
74725.6
87638.7
57604
44734.4
-115174
-246375
77237.2
69754.8
28291.1
-9527.96
-16808.3
-7427
11184.8
98816.6
66175.3
55060.2
-134691
-145563
-152495
-140875
-127384
-136615
-160544
-171733
-205367
-235113
-126850
-189337
-204890
-208921
-201684
-198987
-191782
-244986
-191545
-506167
-69863
-150473
-163550
-158997
-140013
-135387
-100115
-223720
55996.8
-393914
-62050
-128087
-110479
-86485.9
-89176.2
-118039
-102567
-261643
-77475.3
-281990
-136379
-160529
-98147.3
-49507.6
-49118.3
-115080
-182290
-339652
-345085
-384397
-317419
-296939
-222666
-173770
-147616
-204154
-250205
-331602
-345445
-346188
-404911
-349563
-301016
-269869
-227100
-225149
-187237
-144026
-51823.2
-1112.05
-299439
-242120
-244578
-249612
-227588
-188497
-100947
26867.2
170549
221212
-263852
-242704
-270601
-299603
-303097
-263139
-188683
-44225.1
77287.1
129260
-260190
-257265
-284915
-300519
-319051
-290360
-264039
-142894
-60841.8
-13551.3
-205689
-201966
-259352
-281163
-319466
-299083
-323692
-256087
-223820
-188366
-138555
-143251
-181106
-201865
-232775
-215744
-262859
-267275
-291649
-283177
-26943.5
-44367.2
-57782.7
-93291.5
-113791
-95282.7
-107613
-108488
-141921
-156703
48495.9
19526.9
3755.59
-62730.2
-110512
-125657
-120004
-95060.8
-73814.9
-71735.2
103786
81026.4
75999.8
15806.5
-54497
-107690
-120813
-98275.5
-41504.7
-10225.7
171870
165709
170603
136326
42910.8
-49079.8
-130525
-197809
-198326
-183267
211320
195033
189115
173459
115959
53170.7
-41342.7
-185241
-294155
-357274
226100
192422
128761
56909.2
-35860.9
-83869.1
-192341
-369915
-576711
-719244
241189
203981
214450
220340
225007
203795
173706
32167.8
-170991
-381665
)
;
        value           nonuniform List<scalar> 
1200
(
276038
269679
272082
272416
272719
272883
272877
272977
272352
281064
275464
272291
273877
272615
272927
273329
273635
274294
272092
276118
272089
270507
272889
271709
272201
272253
272406
274163
273287
276179
270794
268765
270402
269434
270626
271229
272000
274613
278696
287797
270081
267400
266688
265183
265975
266013
266223
267296
270661
279780
261141
260137
260292
258148
257322
255427
253301
250762
246369
252132
255846
253559
251973
249478
247920
245465
241429
238530
230794
233983
252861
248369
244678
241909
239783
237908
233148
230926
225342
226682
236183
232178
232560
231938
231324
231283
227523
225325
222717
224618
219693
215582
220981
221933
223656
224848
221976
217474
216867
219738
212170
209351
216136
216846
219951
221372
219398
213980
214278
216481
214369
213539
217468
217386
220295
221322
220060
217257
217845
218259
219928
219279
221383
220837
222998
223425
222826
221939
222314
222409
224311
223684
224801
223899
225319
225294
225062
225641
225202
225759
226693
226242
226846
225721
226585
226388
226540
227691
226435
227068
227516
227429
227929
226707
227538
227815
229072
230507
229450
230034
227306
227678
228261
227174
227988
229038
231419
232288
232373
231454
226451
226977
227375
227016
227644
229573
234352
236773
240895
244313
222904
222894
222049
221372
220840
221428
224268
227952
229972
233113
218288
217782
216240
215535
215109
214723
215247
218338
218278
219509
213790
213282
211720
211661
212091
212284
212879
215724
216727
217710
212507
211902
210394
210825
211858
213080
214168
217067
219247
220326
215737
214819
212680
212392
213167
214961
216870
220112
223082
224230
221547
219939
217518
216344
216250
217398
219289
222255
224554
225063
223007
221049
220723
219892
219222
219297
220904
223356
225209
225295
213474
212914
215222
216538
217530
218332
220715
223475
225472
226242
209935
209900
211148
212709
214377
215993
218597
220814
221880
221794
208892
208442
209065
210410
212230
214333
217010
218942
219551
219318
209319
209200
210073
211400
213208
214890
216664
217633
217867
217777
210730
211060
211528
212349
213647
214619
215718
216407
216573
216939
212403
213141
212910
213131
213733
214112
214750
215308
215827
216231
213615
214773
214134
214017
214076
214122
214577
214868
215451
215683
214365
215459
214442
214315
214201
214175
214461
214486
214857
214952
214870
215622
214307
214175
213839
213697
213889
213851
214187
214213
213755
214186
213265
213503
213242
213039
213083
212971
213323
213336
212774
213174
212337
212701
212500
212263
212178
211990
212263
212243
210979
211337
210488
210824
210835
211044
211177
211100
211173
211019
209284
209306
208391
208480
208504
209009
209441
209752
209977
209696
206445
206334
206019
206291
206376
206974
207447
208004
208632
208494
203095
203139
203384
204001
204100
204503
204914
205806
207227
207588
199356
199616
200143
200815
201069
201459
201682
202469
204053
204428
195766
196033
196543
197103
197518
198295
199645
202270
204894
206270
189911
190350
190774
191509
192451
193993
196447
200000
204324
208612
181932
182085
181475
181068
180863
181003
180683
181489
179521
185967
173543
173332
171595
169438
167526
166012
162348
160439
152969
158124
167198
166475
164342
161047
158257
156456
152761
150396
145289
146227
162052
160686
158594
155295
152356
150747
147757
145959
143442
142277
152103
150360
148881
146809
144708
143455
141117
139789
138049
137254
135067
133359
133534
133506
133189
132963
131582
130843
129561
129142
117302
116492
117931
119743
121024
121787
121470
121456
120868
120646
103452
104185
105646
107992
109856
110915
111426
111784
111646
111511
94721.4
95260.3
96823.7
98763.5
100386
101074
101926
102189
102181
102055
88470.3
88361.1
89445.4
90575.6
91667.3
91802.3
92534
92584.4
92742
92717.7
81615.3
81241.8
81701.5
82416.8
82993.2
82835.8
83276.1
83065.4
83371
83570.1
73286.2
72929.2
72925.4
73564.3
73809
73902.8
74363.1
74196.3
74341.7
74594.7
62616.5
62280.5
61866.2
62244.7
62276.5
62646.5
63168.7
63214
63174
63367
50239.1
49903.8
49338.9
49455.8
49639.9
50335.8
51072.7
51743.4
51810
51978.1
35914.9
35633.8
34989.4
34745.5
34674.6
35215
35790.1
36952.7
37329
37690.7
22233.5
22139.6
21942.4
22111.8
22613.2
23365.4
24150.3
25716.8
26227.9
26752.1
6148.71
5590.56
3815.46
1869.84
268.99
-366.332
-706.278
631.592
2752.4
5155.07
281163
271214
272834
272506
272794
273144
273528
274101
272489
279016
272685
269722
272356
272377
272892
273313
273770
275899
274182
277967
271280
269398
271488
271114
272242
273218
273434
275122
273357
274788
266013
266486
269390
269517
271121
272783
274304
277532
279978
285295
259613
262619
266276
266095
267035
268135
269210
272865
273659
276512
256791
257821
258800
257650
257079
256314
253828
254914
248198
246045
254320
254645
253134
250661
248077
246767
242282
245130
234953
231976
251919
251498
247125
243949
240631
240198
235038
239090
230133
226841
231288
233089
231899
231736
230627
231650
228235
232205
226956
224645
213768
214583
218014
220014
221449
223517
221763
222498
220369
219256
208823
208403
213459
215435
217998
220157
218963
216402
217302
214504
213029
213276
216582
217666
220076
221245
219619
217561
220013
215079
219496
219235
220928
221235
223177
223821
222136
221576
224244
219914
224324
223730
224622
224414
225846
226200
224552
225522
226999
224497
226971
226486
227215
226785
227813
227955
226634
228067
228251
227143
228530
228421
229281
228850
229936
230102
230011
231160
231429
231131
229428
229742
230728
230294
231480
231715
233577
233717
235430
235184
229292
229806
230864
231125
233305
234571
239634
241138
246110
250927
225140
225050
224972
224574
226448
226249
228807
231715
233075
237309
218800
217922
216518
215451
216768
215254
215793
218155
217667
218701
214909
213784
212067
211254
212490
211299
212021
214216
214967
215400
214732
213383
211408
210894
212146
212059
213255
215612
217444
218037
216493
215378
213656
213005
214029
214717
216619
218922
221077
221756
217345
216179
214777
214114
215038
216227
218975
221275
223244
223587
215397
213499
213768
214136
215082
216430
219852
221782
223628
223749
211029
210251
212433
213527
214774
215915
219203
220497
222137
223041
210677
211062
213032
213963
214627
215125
217249
217858
218850
218907
212410
212646
213985
214492
214426
214297
215207
215714
216354
216193
212696
212222
212347
211934
211325
211191
211981
213069
213678
213745
211602
211380
211466
211566
211523
211726
212309
212855
213271
213459
210593
211155
211502
212274
212746
213294
213978
214352
214571
214804
211035
211834
211914
212714
213150
213673
214248
214656
214960
215190
212114
212810
212463
213033
213146
213489
213911
214226
214619
214909
212982
213469
212820
213179
213123
213448
213725
213833
214145
214395
213629
213783
212698
212636
212387
212697
212987
213090
213418
213607
212382
212610
211659
211617
211374
211630
211855
211981
212380
212607
210854
211268
210835
211139
210858
210800
210674
210627
211024
211370
208651
209527
209653
210292
210205
210228
209889
209527
209577
209866
206647
207432
207429
207802
207909
208105
207979
207859
207632
207440
204028
204471
204404
204563
204846
205377
205487
206253
206078
205120
200128
200313
200427
200726
200899
201379
201789
203450
204725
204975
194419
194575
195016
195699
196239
196919
198030
200546
202856
203912
188645
188452
188723
189421
190425
191991
194534
197568
202467
203546
181236
180576
179845
179477
179456
179646
179711
179256
180096
182032
172922
172050
170498
168571
166632
164839
161326
157819
152177
155305
165832
164871
163364
160548
157761
155306
150932
146996
141833
142379
158877
157719
156365
153551
150869
148702
145249
142639
139985
138813
148055
146867
145866
144108
142427
141200
139241
138347
137532
137246
132073
130937
131085
131011
130910
131076
130571
131115
131271
131358
114661
114064
115221
116748
117992
119153
119581
121017
121643
121940
100847
101611
102796
104986
106665
108009
108784
110355
111037
111375
92661.1
93237.5
94230
95950
97189.4
98079.8
98688.5
99625.8
99940.6
100172
87081.2
86926
87635
88556.2
89338.5
89641.4
89904.8
89908.3
89824.3
89885
81343.2
80797.7
81127.5
81488
81857.3
81882.4
82200.2
81979.1
81952
82001.5
73769.3
73126.5
72969.3
72945.2
72708.2
72648.4
73163.1
73245.4
73604.1
73876.6
63652.4
63092.8
62631.7
62409.9
61736
61573
61960.7
62231.2
62759.6
63264.7
51955.9
51561.8
51046.9
50822
50071.4
49848.5
49768.5
49765.3
49827.4
50145.6
38026.9
37583.7
36878.1
36477.6
35832.3
35748.1
35378
35099.6
34387.1
34115.8
24494
24062.9
23225
22674.6
22248.6
22527.1
22229.7
22019
20458.3
19554.4
8559.02
7626.78
5953.39
4064.14
2508.69
1663.15
1022.97
947.936
1034.86
1328.22
)
;
    }
    inlet
    {
        type            fixedFluxPressure;
        gradient        nonuniform List<scalar> 
20
(
0.000258244
-0.000573895
0.000161982
-0.000625191
-0.000422104
-0.000406402
-0.00045925
0.00150868
-0.00230382
0.00156972
0.000367838
-0.000462846
0.000208653
-0.000659863
-0.000380981
-0.000207454
-0.000387153
0.000933346
-0.00320819
0.00037116
)
;
        value           nonuniform List<scalar> 
20
(
277341
270068
272267
272436
272737
272948
273041
273264
272388
280538
279860
270825
272649
272486
272776
273079
273364
273814
272453
279542
)
;
    }
    outlet
    {
        type            fixedValue;
        value           uniform 0;
    }
    heatWall
    {
        type            fixedFluxPressure;
        gradient        nonuniform List<scalar> 
240
(
295.606
295.606
295.606
295.606
295.606
295.606
295.606
295.606
295.606
295.606
295.606
295.606
295.606
295.606
295.606
295.606
295.606
295.606
295.606
295.606
295.606
295.606
295.606
295.606
295.606
295.606
295.606
295.606
295.606
295.606
295.606
295.606
295.606
295.606
295.606
295.606
295.606
295.606
295.606
295.606
295.606
295.606
295.606
295.606
295.606
295.606
295.606
295.606
295.606
295.606
295.606
295.606
295.606
295.606
295.606
295.606
295.606
295.606
295.606
295.606
295.606
295.606
295.606
295.606
295.606
295.606
295.606
295.606
295.606
295.606
295.606
295.606
295.606
295.606
295.606
295.606
295.606
295.606
295.606
295.606
295.606
295.606
295.606
295.606
295.606
295.606
295.606
295.606
295.606
295.606
295.606
295.606
295.606
295.606
295.606
295.606
295.606
295.606
295.606
295.606
295.606
295.606
295.606
295.606
295.606
295.606
295.606
295.606
295.606
295.606
295.606
295.606
295.606
295.606
295.606
295.606
295.606
295.606
295.606
295.606
0
0
0
0
0
0
0
0
0
0
0
0
0
0
0
0
0
0
0
0
0
0
0
0
0
0
0
0
0
0
0
0
0
0
0
0
0
0
0
0
0
0
0
0
0
0
0
0
0
0
0
0
0
0
0
0
0
0
0
0
0
0
0
0
0
0
0
0
0
0
0
0
0
0
0
0
0
0
0
0
0
0
0
0
0
0
0
0
0
0
0
0
0
0
0
0
0
0
0
0
0
0
0
0
0
0
0
0
0
0
0
0
0
0
0
0
0
0
0
0
)
;
        value           nonuniform List<scalar> 
240
(
280541
279545
276582
277509
275817
275155
287118
285983
278943
277361
250626
247563
233500
232466
226725
226804
224620
224647
219599
219399
215972
215017
217465
215879
221792
220537
225454
224809
227096
227121
230319
230852
232392
234252
245961
249286
234189
236330
219321
218947
217134
215986
219754
218611
223608
222383
224695
223959
224911
224136
225447
223842
221075
219631
218541
216975
216774
214754
216073
214330
215878
215163
215562
215317
214945
214922
214261
214352
213405
213543
212337
212519
211114
211280
209749
209819
208235
207705
206961
205753
204567
204842
205673
204515
207330
204836
184995