/*--------------------------------*- C++ -*----------------------------------*\
  =========                 |
  \\      /  F ield         | OpenFOAM: The Open Source CFD Toolbox
   \\    /   O peration     | Website:  https://openfoam.org
    \\  /    A nd           | Version:  8
     \\/     M anipulation  |
\*---------------------------------------------------------------------------*/
FoamFile
{
    version     2.0;
    format      ascii;
    class       volScalarField;
    location    "200";
    object      T;
}
// * * * * * * * * * * * * * * * * * * * * * * * * * * * * * * * * * * * * * //

dimensions      [0 0 0 1 0 0 0];

internalField   nonuniform List<scalar> 
1200
(
303.15
303.15
303.151
303.144
303.134
303.022
302.185
300.145
298.178
297.023
296.589
296.586
296.704
296.823
296.916
296.993
297.087
297.209
297.301
297.313
297.294
297.278
297.217
297.098
297.127
297.191
297.049
296.825
296.668
296.556
296.369
296.006
295.445
294.792
294.268
293.913
293.713
293.604
293.553
293.537
293.543
293.552
293.559
293.576
293.664
293.907
294.337
294.794
295.082
295.211
295.275
295.381
295.569
295.819
296.099
296.388
296.666
296.921
297.143
297.341
303.15
303.15
303.149
303.149
303.148
303.135
302.973
302.349
301.518
300.999
300.923
300.985
301.055
301.113
301.158
301.201
301.249
301.304
301.345
301.356
301.345
301.316
301.257
301.077
300.89
300.798
300.677
300.579
300.524
300.486
300.42
300.281
300.022
299.6
299.086
298.494
297.879
297.275
296.764
296.381
296.09
295.743
295.322
294.836
294.346
294.047
293.991
294.104
294.205
294.195
294.138
294.141
294.265
294.506
294.814
295.132
295.422
295.672
295.889
296.047
303.15
303.15
303.149
303.149
303.149
303.149
303.135
303.031
302.847
302.748
302.746
302.747
302.747
302.743
302.737
302.734
302.737
302.749
302.763
302.769
302.768
302.759
302.726
302.65
302.545
302.503
302.494
302.479
302.439
302.363
302.248
302.079
301.853
301.569
301.23
300.819
300.39
300.025
299.745
299.507
299.222
298.828
298.277
297.737
297.285
296.591
295.686
294.899
294.405
294.108
293.929
293.884
294.038
294.421
294.966
295.546
296.058
296.475
296.819
297.058
303.15
303.15
303.15
303.149
303.149
303.149
303.148
303.137
303.111
303.096
303.098
303.1
303.101
303.099
303.093
303.078
303.048
303.005
302.981
302.979
302.972
302.939
302.844
302.689
302.572
302.491
302.37
302.027
301.47
300.773
299.986
299.216
298.531
297.946
297.462
297.1
296.727
296.22
295.658
295.156
294.752
294.462
294.26
294.133
294.076
294.18
294.273
294.208
294.053
293.891
293.766
293.741
293.959
294.52
295.345
296.205
296.923
297.458
297.866
298.122
303.15
303.15
303.15
303.149
303.148
303.148
303.148
303.147
303.145
303.144
303.144
303.139
303.121
303.082
303.02
302.927
302.795
302.651
302.632
302.705
302.736
302.603
302.209
301.577
300.873
300.115
299.209
298.133
297.206
296.47
295.865
295.377
294.996
294.695
294.463
294.296
294.152
293.993
293.835
293.698
293.596
293.528
293.494
293.482
293.477
293.504
293.578
293.637
293.636
293.587
293.547
293.662
294.156
295.056
296.124
297.088
297.83
298.355
298.738
298.974
303.15
303.15
303.15
303.148
303.145
303.141
303.14
303.141
303.141
303.136
303.113
303.032
302.855
302.591
302.294
302.008
301.752
301.519
301.56
301.837
302.131
302.232
301.981
301.347
300.467
299.454
298.343
297.197
296.331
295.708
295.206
294.796
294.478
294.222
294.023
293.874
293.759
293.65
293.556
293.487
293.451
293.446
293.471
293.502
293.509
293.5
293.494
293.491
293.481
293.459
293.443
293.507
293.831
294.553
295.618
296.76
297.733
298.438
298.931
299.216
303.15
303.15
303.15
303.146
303.125
303.101
303.09
303.089
303.071
302.99
302.735
302.217
301.564
300.939
300.424
300.005
299.622
299.16
299.128
299.52
299.944
300.105
299.882
299.294
298.453
297.497
296.545
295.719
295.166
294.803
294.514
294.275
294.089
293.938
293.815
293.72
293.65
293.589
293.539
293.51
293.516
293.551
293.609
293.658
293.657
293.619
293.575
293.536
293.508
293.49
293.491
293.563
293.86
294.53
295.582
296.803
297.906
298.705
299.233
299.514
303.15
303.15
303.15
303.132
303.03
302.927
302.864
302.392
301.238
299.882
298.758
297.983
297.456
297.023
296.626
296.276
295.963
295.662
295.532
295.779
296.223
296.631
296.826
296.717
296.389
295.983
295.576
295.223
294.986
294.84
294.714
294.594
294.483
294.379
294.279
294.189
294.117
294.056
294.004
293.958
293.897
293.824
293.816
293.896
293.902
293.84
293.778
293.735
293.717
293.727
293.768
293.887
294.263
295.042
296.162
297.336
298.332
299.026
299.464
299.691
303.15
303.15
303.15
303.062
302.641
302.255
302.112
302.116
302.062
301.935
301.862
301.781
301.423
300.674
299.689
298.682
297.693
296.512
295.566
295.128
295.031
295.069
295.141
295.167
295.116
295.04
294.963
294.904
294.861
294.748
294.621
294.498
294.384
294.282
294.19
294.105
294.019
293.921
293.799
293.671
293.586
293.593
293.933
294.315
294.441
294.422
294.368
294.355
294.387
294.447
294.517
294.623
294.949
295.604
296.475
297.35
298.133
298.751
299.21
299.475
303.15
303.151
303.147
302.609
301.222
300.075
299.197
298.324
297.432
296.679
296.123
295.699
295.363
295.11
294.953
294.876
294.855
294.677
294.287
294.151
294.136
294.143
294.161
294.225
294.322
294.309
294.274
294.218
294.133
294.026
293.925
293.833
293.751
293.676
293.609
293.552
293.511
293.483
293.467
293.464
293.481
293.671
294.494
295.18
295.325
295.429
295.684
295.901
296.037
296.12
296.13
296.124
296.351
296.78
297.252
297.662
298.029
298.348
298.631
298.807
303.15
303.151
303.151
303.145
303.136
303.04
302.292
300.324
298.311
297.095
296.618
296.595
296.712
296.833
296.929
297.012
297.113
297.244
297.345
297.363
297.341
297.313
297.258
297.14
297.129
297.185
297.07
296.875
296.728
296.623
296.46
296.13
295.597
294.946
294.397
294.007
293.774
293.644
293.579
293.555
293.557
293.565
293.572
293.582
293.649
293.865
294.274
294.74
295.054
295.2
295.27
295.367
295.545
295.784
296.057
296.341
296.613
296.866
297.085
297.282
303.15
303.15
303.15
303.149
303.148
303.138
303.002
302.423
301.592
301.037
300.927
300.988
301.06
301.121
301.169
301.213
301.263
301.32
301.364
301.377
301.365
301.336
301.28
301.111
300.905
300.808
300.707
300.62
300.567
300.529
300.475
300.359
300.133
299.753
299.274
298.711
298.119
297.533
297.033
296.652
296.356
296.008
295.582
295.078
294.537
294.156
294.026
294.103
294.204
294.205
294.147
294.141
294.249
294.475
294.775
295.091
295.383
295.636
295.855
296.015
303.15
303.15
303.15
303.149
303.149
303.149
303.138
303.043
302.86
302.75
302.747
302.751
302.753
302.751
302.747
302.745
302.748
302.76
302.768
302.77
302.765
302.752
302.717
302.646
302.55
302.501
302.492
302.48
302.445
302.374
302.265
302.099
301.882
301.624
301.332
300.981
300.602
300.258
299.979
299.727
299.393
299.016
298.497
297.977
297.559
296.921
296.003
295.128
294.544
294.188
293.974
293.898
294.017
294.365
294.887
295.463
295.983
296.411
296.766
297.012
303.15
303.15
303.15
303.149
303.149
303.149
303.148
303.137
303.112
303.095
303.097
303.099
303.1
303.098
303.091
303.075
303.045
303.004
302.986
302.984
302.973
302.93
302.813
302.632
302.501
302.413
302.268
301.867
301.233
300.463
299.614
298.81
298.115
297.533
297.064
296.725
296.372
295.892
295.378
294.933
294.581
294.328
294.154
294.046
294
294.125
294.285
294.274
294.129
293.951
293.806
293.753
293.925
294.431
295.221
296.079
296.816
297.374
297.804
298.076
303.15
303.15
303.15
303.149
303.148
303.148
303.148
303.147
303.145
303.144
303.144
303.137
303.116
303.074
303.009
302.913
302.782
302.655
302.658
302.735
302.747
302.575
302.129
301.436
300.679
299.877
298.947
297.859
296.948
296.235
295.656
295.195
294.839
294.559
294.347
294.195
294.065
293.92
293.777
293.654
293.562
293.503
293.476
293.468
293.465
293.491
293.572
293.648
293.66
293.613
293.563
293.644
294.077
294.922
295.975
296.957
297.727
298.279
298.684
298.935
303.15
303.15
303.15
303.148
303.144
303.141
303.14
303.141
303.14
303.133
303.102
303.005
302.807
302.533
302.241
301.975
301.746
301.553
301.641
301.937
302.211
302.253
301.923
301.205
300.251
299.187
298.05
296.909
296.072
295.484
295.014
294.635
294.345
294.114
293.935
293.803
293.701
293.605
293.524
293.467
293.439
293.44
293.468
293.501
293.512
293.505
293.5
293.5
293.492
293.469
293.449
293.497
293.778
294.442
295.466
296.606
297.603
298.341
298.865
299.172
303.15
303.15
303.15
303.145
303.123
303.1
303.09
303.088
303.064
302.961
302.663
302.118
301.455
300.842
300.353
299.963
299.607
299.187
299.229
299.655
300.048
300.135
299.827
299.168
298.274
297.292
296.34
295.534
295.007
294.667
294.397
294.178
294.008
293.871
293.76
293.675
293.613
293.56
293.518
293.496
293.51
293.548
293.607
293.662
293.667
293.631
293.586
293.546
293.516
293.495
293.492
293.552
293.816
294.434
295.441
296.649
297.775
298.61
299.175
299.48
303.15
303.15
303.15
303.131
303.03
302.929
302.855
302.318
301.104
299.742
298.648
297.896
297.377
296.947
296.555
296.21
295.9
295.604
295.518
295.819
296.29
296.69
296.828
296.663
296.297
295.875
295.464
295.114
294.884
294.745
294.626
294.511
294.408
294.31
294.217
294.134
294.069
294.011
293.962
293.921
293.866
293.818
293.82
293.902
293.914
293.853
293.787
293.741
293.719
293.725
293.761
293.869
294.211
294.941
296.024
297.2
298.226
298.958
299.428
299.673
303.15
303.15
303.15
303.078
302.678
302.273
302.105
302.1
302.05
301.926
301.864
301.734
301.286
300.454
299.45
298.467
297.51
296.361
295.472
295.089
295.026
295.078
295.148
295.151
295.08
294.994
294.91
294.848
294.831
294.763
294.658
294.544
294.434
294.331
294.239
294.153
294.068
293.972
293.851
293.716
293.617
293.598
293.906
294.293
294.437
294.424
294.37
294.352
294.378
294.435
294.504
294.605
294.907
295.53
296.382
297.258
298.057
298.697
299.178
299.457
303.15
303.151
303.148
302.7
301.318
300.132
299.235
298.36
297.473
296.72
296.161
295.735
295.398
295.142
294.981
294.898
294.87
294.634
294.255
294.14
294.135
294.144
294.163
294.22
294.305
294.322
294.293
294.238
294.154
294.049
293.947
293.855
293.772
293.696
293.628
293.569
293.523
293.492
293.473
293.466
293.478
293.643
294.423
295.138
295.317
295.426
295.671
295.884
296.018
296.104
296.121
296.113
296.325
296.741
297.21
297.624
297.998
298.326
298.617
298.798
)
;

boundaryField
{
    wall
    {
        type            zeroGradient;
    }
    inlet
    {
        type            fixedValue;
        value           uniform 303.15;
    }
    outlet
    {
        type            inletOutlet;
        inletValue      uniform 300;
        value           nonuniform List<scalar> 
20
(
297.361
296.058
297.072
298.137
298.986
299.23
299.525
299.696
299.481
298.81
297.301
296.024
297.026
298.091
298.948
299.187
299.491
299.679
299.463
298.801
)
;
    }
    heatWall
    {
        type            fixedGradient;
        gradient        uniform -500;
    }
}


// ************************************************************************* //
