/*--------------------------------*- C++ -*----------------------------------*\
  =========                 |
  \\      /  F ield         | OpenFOAM: The Open Source CFD Toolbox
   \\    /   O peration     | Website:  https://openfoam.org
    \\  /    A nd           | Version:  8
     \\/     M anipulation  |
\*---------------------------------------------------------------------------*/
FoamFile
{
    version     2.0;
    format      ascii;
    class       volScalarField;
    location    "300";
    object      alphat;
}
// * * * * * * * * * * * * * * * * * * * * * * * * * * * * * * * * * * * * * //

dimensions      [1 -1 -1 0 0 0 0];

internalField   nonuniform List<scalar> 
8400
(
0.347563
0.347235
0.346906
0.346577
0.346245
0.345913
0.345578
0.345242
0.344904
0.344563
0.34422
0.343874
0.343525
0.343173
0.342817
0.342458
0.342095
0.341727
0.341355
0.340978
0.340596
0.34021
0.339818
0.33942
0.339017
0.338609
0.338196
0.337783
0.337371
0.33696
0.336552
0.336149
0.335753
0.335366
0.33499
0.334628
0.334285
0.333963
0.333668
0.333405
0.333181
0.333004
0.332882
0.332829
0.332859
0.33299
0.333248
0.333667
0.334291
0.33518
0.147018
0.147098
0.147173
0.147245
0.147316
0.147386
0.147455
0.147524
0.147592
0.147658
0.147724
0.147789
0.147853
0.147917
0.14798
0.148043
0.148106
0.148169
0.148233
0.148299
0.148367
0.148437
0.148511
0.14859
0.148674
0.148764
0.148862
0.148962
0.149065
0.149172
0.149284
0.149401
0.149525
0.149655
0.149794
0.149942
0.150102
0.150274
0.150461
0.150665
0.150888
0.151135
0.151409
0.151714
0.152055
0.152441
0.15288
0.153384
0.153968
0.154654
0.0927402
0.0929231
0.0931062
0.0932893
0.0934722
0.0936547
0.0938368
0.0940185
0.0941998
0.0943806
0.0945609
0.0947408
0.0949202
0.0950992
0.0952779
0.0954565
0.0956349
0.0958133
0.095992
0.096171
0.0963507
0.0965314
0.0967133
0.096897
0.0970829
0.0972717
0.0974615
0.0976517
0.0978423
0.0980334
0.0982251
0.0984176
0.098611
0.0988055
0.0990013
0.0991988
0.0993981
0.0995997
0.0998038
0.100011
0.100222
0.100437
0.100658
0.100884
0.101117
0.101359
0.101611
0.101876
0.102155
0.102453
0.0874241
0.0875922
0.0877606
0.0879295
0.0880987
0.0882684
0.0884385
0.0886092
0.0887802
0.0889518
0.0891239
0.0892965
0.0894696
0.0896433
0.0898175
0.0899923
0.0901677
0.0903437
0.0905204
0.0906978
0.0908759
0.0910547
0.0912343
0.0914146
0.0915954
0.0917769
0.0919591
0.0921418
0.0923253
0.0925094
0.0926941
0.0928795
0.0930656
0.0932524
0.0934399
0.0936281
0.0938171
0.0940068
0.0941973
0.0943886
0.0945808
0.0947738
0.0949678
0.0951627
0.0953588
0.0955561
0.0957547
0.0959549
0.0961569
0.096361
0.0875933
0.0877575
0.0879222
0.0880874
0.0882532
0.0884196
0.0885865
0.0887541
0.0889223
0.0890911
0.0892606
0.0894307
0.0896016
0.0897732
0.0899455
0.0901186
0.0902924
0.090467
0.0906423
0.0908184
0.0909953
0.0911729
0.0913513
0.0915304
0.0917102
0.0918907
0.092072
0.0922539
0.0924365
0.0926197
0.0928035
0.0929878
0.0931726
0.0933578
0.0935433
0.0937291
0.093915
0.094101
0.0942868
0.0944724
0.0946575
0.0948419
0.0950253
0.0952073
0.0953877
0.095566
0.0957415
0.0959136
0.0960815
0.0962443
0.0890977
0.0892688
0.0894404
0.0896126
0.0897853
0.0899585
0.0901323
0.0903066
0.0904815
0.090657
0.0908331
0.0910099
0.0911873
0.0913654
0.0915442
0.0917237
0.0919038
0.0920846
0.0922662
0.0924485
0.0926315
0.0928153
0.0929997
0.093185
0.093371
0.0935577
0.0937451
0.0939333
0.0941221
0.0943116
0.0945018
0.0946927
0.0948841
0.095076
0.0952685
0.0954614
0.0956547
0.0958483
0.0960421
0.096236
0.0964299
0.0966236
0.096817
0.0970099
0.097202
0.0973932
0.0975831
0.0977715
0.097958
0.0981423
0.0900998
0.0902747
0.0904501
0.090626
0.0908025
0.0909794
0.091157
0.0913351
0.0915138
0.0916932
0.0918732
0.0920539
0.0922353
0.0924173
0.0926001
0.0927836
0.0929678
0.0931527
0.0933384
0.0935249
0.0937121
0.0939
0.0940888
0.0942782
0.0944685
0.0946594
0.0948511
0.0950434
0.0952364
0.09543
0.0956242
0.095819
0.0960142
0.0962098
0.0964057
0.0966018
0.096798
0.0969942
0.0971902
0.0973858
0.0975808
0.0977749
0.0979679
0.0981594
0.098349
0.0985363
0.0987206
0.0989014
0.0990781
0.0992497
0.0914484
0.0916297
0.0918116
0.091994
0.0921769
0.0923603
0.0925443
0.0927288
0.0929139
0.0930997
0.0932861
0.0934731
0.0936607
0.0938491
0.0940381
0.0942279
0.0944184
0.0946096
0.0948015
0.0949942
0.0951877
0.0953819
0.0955769
0.0957726
0.0959691
0.0961663
0.0963642
0.0965628
0.0967622
0.0969621
0.0971627
0.0973639
0.0975656
0.0977678
0.0979704
0.0981732
0.0983763
0.0985795
0.0987827
0.0989857
0.0991882
0.0993903
0.0995914
0.0997915
0.0999902
0.100187
0.100382
0.100574
0.100763
0.100949
0.0925669
0.0927534
0.0929404
0.093128
0.093316
0.0935046
0.0936937
0.0938834
0.0940736
0.0942645
0.094456
0.0946482
0.094841
0.0950345
0.0952288
0.0954237
0.0956194
0.0958158
0.096013
0.0962109
0.0964096
0.0966091
0.0968093
0.0970103
0.097212
0.0974145
0.0976177
0.0978216
0.0980261
0.0982313
0.0984371
0.0986434
0.0988502
0.0990574
0.099265
0.0994727
0.0996806
0.0998884
0.100096
0.100303
0.10051
0.100715
0.10092
0.101123
0.101324
0.101523
0.101719
0.101911
0.1021
0.102284
0.0938062
0.093999
0.0941922
0.0943858
0.0945799
0.0947746
0.0949697
0.0951655
0.0953618
0.0955587
0.0957562
0.0959544
0.0961533
0.0963529
0.0965531
0.0967541
0.0969558
0.0971583
0.0973615
0.0975655
0.0977702
0.0979757
0.098182
0.098389
0.0985968
0.0988054
0.0990146
0.0992246
0.0994353
0.0996466
0.0998585
0.100071
0.100284
0.100497
0.100711
0.100925
0.101139
0.101353
0.101567
0.10178
0.101993
0.102205
0.102415
0.102624
0.102831
0.103036
0.103238
0.103436
0.10363
0.103819
0.0950098
0.0952088
0.0954084
0.0956084
0.095809
0.09601
0.0962116
0.0964137
0.0966164
0.0968197
0.0970237
0.0972282
0.0974335
0.0976394
0.097846
0.0980533
0.0982614
0.0984702
0.0986797
0.0988901
0.0991011
0.099313
0.0995257
0.0997391
0.0999533
0.100168
0.100384
0.1006
0.100817
0.101035
0.101254
0.101473
0.101692
0.101912
0.102133
0.102353
0.102574
0.102795
0.103016
0.103236
0.103456
0.103675
0.103893
0.10411
0.104325
0.104538
0.104748
0.104955
0.105159
0.105358
0.0961599
0.0963652
0.0965708
0.0967768
0.0969833
0.0971903
0.0973978
0.0976058
0.0978143
0.0980235
0.0982332
0.0984436
0.0986546
0.0988663
0.0990787
0.0992918
0.0995056
0.0997202
0.0999355
0.100152
0.100368
0.100586
0.100804
0.101024
0.101244
0.101464
0.101686
0.101908
0.102131
0.102354
0.102578
0.102803
0.103028
0.103253
0.103479
0.103705
0.103931
0.104157
0.104383
0.104608
0.104833
0.105056
0.105278
0.105498
0.105715
0.10593
0.106141
0.106348
0.10655
0.106745
0.0974514
0.097664
0.0978773
0.098091
0.0983051
0.0985197
0.0987348
0.0989504
0.0991665
0.0993833
0.0996006
0.0998185
0.100037
0.100256
0.100476
0.100697
0.100918
0.10114
0.101363
0.101587
0.101811
0.102036
0.102262
0.102489
0.102716
0.102945
0.103174
0.103403
0.103634
0.103865
0.104097
0.10433
0.104563
0.104797
0.105031
0.105266
0.105501
0.105736
0.105971
0.106206
0.106441
0.106675
0.106909
0.107141
0.107372
0.107602
0.107829
0.108054
0.108275
0.108494
0.0985036
0.098723
0.0989428
0.0991629
0.0993834
0.0996042
0.0998256
0.100047
0.10027
0.100492
0.100716
0.10094
0.101164
0.101389
0.101615
0.101841
0.102068
0.102296
0.102524
0.102754
0.102984
0.103214
0.103446
0.103678
0.103911
0.104144
0.104379
0.104614
0.104849
0.105086
0.105322
0.10556
0.105798
0.106036
0.106274
0.106513
0.106752
0.10699
0.107228
0.107465
0.107702
0.107937
0.10817
0.108401
0.10863
0.108855
0.109076
0.109292
0.109501
0.109703
0.100108
0.100338
0.100567
0.100797
0.101028
0.101258
0.101489
0.101721
0.101953
0.102185
0.102418
0.102651
0.102884
0.103119
0.103354
0.103589
0.103825
0.104062
0.104299
0.104537
0.104775
0.105015
0.105254
0.105495
0.105736
0.105978
0.106221
0.106464
0.106708
0.106953
0.107198
0.107443
0.107689
0.107935
0.108182
0.108429
0.108676
0.108922
0.109169
0.109415
0.10966
0.109905
0.110148
0.11039
0.11063
0.110868
0.111104
0.111337
0.111568
0.111795
0.101929
0.102176
0.102423
0.10267
0.102916
0.103162
0.103408
0.103653
0.103899
0.104144
0.104389
0.104634
0.104879
0.105124
0.105369
0.105614
0.105859
0.106104
0.106349
0.106595
0.10684
0.107086
0.107331
0.107577
0.107823
0.108069
0.108314
0.10856
0.108805
0.10905
0.109295
0.109539
0.109782
0.110024
0.110264
0.110502
0.110738
0.110972
0.111202
0.111428
0.11165
0.111865
0.112075
0.112276
0.112469
0.112651
0.112822
0.112979
0.11312
0.113243
0.108851
0.109145
0.109439
0.109731
0.110022
0.11031
0.110597
0.110883
0.111166
0.111448
0.111728
0.112006
0.112283
0.112558
0.112831
0.113103
0.113374
0.113643
0.113911
0.114177
0.114442
0.114706
0.114968
0.115229
0.115488
0.115745
0.116
0.116253
0.116504
0.116752
0.116996
0.117237
0.117473
0.117704
0.117929
0.118148
0.118358
0.118559
0.118748
0.118925
0.119087
0.119232
0.119356
0.119457
0.119531
0.119574
0.11958
0.119544
0.119461
0.119322
0.130966
0.131404
0.131835
0.13226
0.132679
0.133094
0.133503
0.133907
0.134305
0.134699
0.135086
0.135469
0.135846
0.136218
0.136586
0.136948
0.137305
0.137658
0.138006
0.138349
0.138688
0.139022
0.13935
0.139674
0.139992
0.140304
0.14061
0.140908
0.141199
0.141481
0.141753
0.142013
0.142261
0.142493
0.142708
0.142902
0.143073
0.143217
0.143328
0.143402
0.143431
0.143409
0.143325
0.143169
0.142925
0.142577
0.142102
0.14147
0.140644
0.13957
0.197414
0.197978
0.198553
0.19913
0.199707
0.200285
0.200862
0.20144
0.202017
0.202595
0.203171
0.203748
0.204324
0.204899
0.205474
0.206049
0.206623
0.207197
0.20777
0.208343
0.208914
0.209485
0.210054
0.210622
0.211187
0.211748
0.212306
0.212858
0.213404
0.213942
0.21447
0.214986
0.215487
0.215971
0.216433
0.21687
0.217276
0.217646
0.217973
0.218247
0.218459
0.218596
0.218643
0.218581
0.218385
0.218022
0.217447
0.216598
0.215393
0.213713
0.377316
0.377761
0.378211
0.378665
0.379122
0.379583
0.380048
0.380518
0.380994
0.381475
0.381961
0.382454
0.382953
0.38346
0.383973
0.384493
0.38502
0.385554
0.386096
0.386645
0.387201
0.387765
0.388336
0.388915
0.3895
0.390093
0.390694
0.391301
0.391915
0.392536
0.393164
0.393798
0.394438
0.395084
0.395736
0.396392
0.397052
0.397716
0.398382
0.39905
0.399718
0.400384
0.401047
0.401704
0.402353
0.40299
0.403612
0.404213
0.404787
0.405324
1.08355
1.06874
1.05457
1.04098
1.02789
1.01526
1.00302
0.991131
0.979585
0.968363
0.957454
0.946844
0.936523
0.926479
0.916704
0.907187
0.897919
0.888893
0.880099
0.87153
0.863178
0.855037
0.847099
0.839358
0.831807
0.82444
0.817253
0.810239
0.803392
0.796709
0.790184
0.783813
0.777592
0.771516
0.765582
0.759787
0.754128
0.7486
0.743192
0.737887
0.732678
0.72756
0.722523
0.71756
0.712659
0.707804
0.702973
0.698128
0.693203
0.688066
1.07683
1.05216
1.02859
1.00603
0.984429
0.963764
0.944006
0.9251
0.906993
0.889635
0.872982
0.85699
0.841621
0.82684
0.812612
0.798908
0.785698
0.772956
0.760658
0.74878
0.737301
0.726202
0.715462
0.705064
0.694992
0.685231
0.675765
0.66658
0.657664
0.649004
0.640588
0.632404
0.624441
0.616687
0.609132
0.601765
0.594575
0.587552
0.580699
0.574021
0.567514
0.561168
0.554979
0.54894
0.543044
0.537284
0.531653
0.526142
0.52074
0.51543
1.0768
1.05207
1.02836
1.00568
0.983955
0.963152
0.943214
0.924088
0.905725
0.88808
0.871111
0.85478
0.839049
0.823888
0.809265
0.795152
0.781522
0.768353
0.755619
0.743301
0.731379
0.719834
0.708648
0.697805
0.68729
0.677088
0.667186
0.65757
0.648229
0.639152
0.630327
0.621743
0.613393
0.605267
0.597358
0.589656
0.582155
0.574848
0.567728
0.560789
0.554024
0.54743
0.541
0.53473
0.528616
0.522654
0.516841
0.511174
0.505649
0.500263
1.0768
1.05225
1.02876
1.00628
0.984746
0.964102
0.944292
0.925267
0.906979
0.889389
0.872456
0.856145
0.840423
0.825259
0.810625
0.796494
0.782841
0.769642
0.756875
0.744521
0.732559
0.720972
0.709742
0.698854
0.688293
0.678044
0.668095
0.658432
0.649043
0.639918
0.631046
0.622417
0.614021
0.60585
0.597895
0.590148
0.582602
0.57525
0.568085
0.561101
0.554293
0.547654
0.541181
0.534867
0.52871
0.522705
0.516848
0.511135
0.505565
0.500132
1.0768
1.05225
1.02875
1.00625
0.984678
0.963996
0.944148
0.92509
0.906775
0.889164
0.872218
0.8559
0.840176
0.825016
0.810389
0.796268
0.782628
0.769444
0.756694
0.744358
0.732415
0.720847
0.709637
0.698769
0.688227
0.677997
0.668067
0.658422
0.649051
0.639943
0.631087
0.622474
0.614093
0.605936
0.597994
0.59026
0.582726
0.575384
0.568229
0.561254
0.554453
0.54782
0.541351
0.535041
0.528885
0.522878
0.517018
0.511299
0.505719
0.500271
1.0768
1.05226
1.02879
1.00633
0.984802
0.964168
0.944369
0.925358
0.907088
0.889517
0.872607
0.85632
0.840623
0.825485
0.810876
0.79677
0.783141
0.769965
0.757221
0.744888
0.732947
0.721378
0.710167
0.699295
0.688749
0.678514
0.668577
0.658925
0.649546
0.64043
0.631565
0.622942
0.614551
0.606383
0.59843
0.590684
0.583138
0.575783
0.568615
0.561625
0.554809
0.54816
0.541674
0.535345
0.529169
0.523141
0.517257
0.511512
0.505902
0.500422
1.0768
1.05227
1.0288
1.00634
0.984815
0.964177
0.944371
0.925349
0.907066
0.889482
0.872558
0.856258
0.840548
0.825399
0.81078
0.796665
0.783029
0.769847
0.757099
0.744762
0.732819
0.721249
0.710037
0.699166
0.688621
0.678388
0.668453
0.658804
0.649428
0.640315
0.631454
0.622834
0.614447
0.606283
0.598333
0.590591
0.583047
0.575695
0.568529
0.561541
0.554725
0.548077
0.54159
0.535259
0.529079
0.523046
0.517155
0.511402
0.505781
0.500288
1.0768
1.05227
1.02881
1.00635
0.984836
0.964207
0.944411
0.925401
0.907131
0.889559
0.872648
0.856361
0.840664
0.825526
0.810918
0.796814
0.783187
0.770013
0.757272
0.744942
0.733003
0.721438
0.710229
0.699361
0.688818
0.678585
0.66865
0.659
0.649623
0.640508
0.631643
0.62302
0.614629
0.606459
0.598504
0.590755
0.583205
0.575845
0.568669
0.561672
0.554846
0.548185
0.541685
0.53534
0.529144
0.523093
0.517182
0.511407
0.505762
0.500243
1.0768
1.05227
1.02881
1.00636
0.984842
0.964215
0.94442
0.925409
0.907137
0.889563
0.872648
0.856357
0.840655
0.825512
0.8109
0.79679
0.783158
0.76998
0.757234
0.744899
0.732957
0.721388
0.710176
0.699305
0.688759
0.678524
0.668587
0.658935
0.649556
0.640439
0.631574
0.622949
0.614556
0.606385
0.598429
0.590678
0.583125
0.575763
0.568584
0.561583
0.554753
0.548087
0.541581
0.535229
0.529025
0.522964
0.517042
0.511254
0.505595
0.50006
1.0768
1.05227
1.02881
1.00636
0.984846
0.96422
0.944427
0.925418
0.907148
0.889576
0.872664
0.856375
0.840676
0.825536
0.810926
0.796819
0.78319
0.770014
0.757271
0.744938
0.732998
0.721431
0.71022
0.699349
0.688804
0.678569
0.668632
0.65898
0.649601
0.640482
0.631615
0.622989
0.614593
0.606419
0.598459
0.590704
0.583147
0.575779
0.568595
0.561587
0.554749
0.548074
0.541558
0.535194
0.528978
0.522903
0.516965
0.51116
0.505481
0.499925
1.0768
1.05227
1.02881
1.00636
0.984846
0.96422
0.944426
0.925417
0.907148
0.889576
0.872664
0.856374
0.840675
0.825535
0.810925
0.796818
0.783188
0.770012
0.757268
0.744935
0.732994
0.721426
0.710215
0.699344
0.688797
0.678562
0.668624
0.65897
0.649589
0.640469
0.6316
0.622971
0.614573
0.606396
0.598433
0.590674
0.583112
0.57574
0.56855
0.561535
0.55469
0.548008
0.541482
0.535108
0.52888
0.522793
0.516841
0.511019
0.505323
0.499748
1.0768
1.05227
1.02881
1.00636
0.984842
0.964215
0.944419
0.925408
0.907136
0.889562
0.872647
0.856355
0.840653
0.82551
0.810896
0.796786
0.783153
0.769974
0.757227
0.744891
0.732948
0.721377
0.710163
0.69929
0.688741
0.678504
0.668564
0.658908
0.649525
0.640404
0.631533
0.622902
0.614502
0.606323
0.598357
0.590596
0.583031
0.575655
0.568461
0.561442
0.554591
0.547903
0.541371
0.534989
0.528751
0.522653
0.516689
0.510854
0.505143
0.499551
1.0768
1.05227
1.02881
1.00635
0.984836
0.964206
0.944411
0.9254
0.90713
0.889558
0.872646
0.856358
0.84066
0.825522
0.810913
0.796807
0.783178
0.770004
0.75726
0.744928
0.732987
0.721419
0.710207
0.699334
0.688787
0.678549
0.668609
0.658953
0.649568
0.640445
0.631571
0.622938
0.614534
0.606351
0.59838
0.590613
0.583042
0.57566
0.568458
0.56143
0.55457
0.547871
0.541327
0.534932
0.52868
0.522566
0.516585
0.510731
0.504999
0.499384
1.0768
1.05227
1.0288
1.00634
0.984815
0.964176
0.94437
0.925348
0.907065
0.88948
0.872555
0.856254
0.840544
0.825393
0.810773
0.796656
0.783018
0.769835
0.757084
0.744745
0.732798
0.721225
0.710009
0.699133
0.688582
0.678343
0.668401
0.658744
0.649359
0.640235
0.631361
0.622728
0.614324
0.606141
0.598171
0.590404
0.582833
0.57545
0.568248
0.561219
0.554357
0.547656
0.541109
0.53471
0.528453
0.522332
0.516343
0.510479
0.504736
0.499108
1.0768
1.05226
1.02879
1.00633
0.984802
0.964167
0.944368
0.925357
0.907086
0.889515
0.872603
0.856315
0.840617
0.825477
0.810867
0.796758
0.783127
0.769948
0.757201
0.744864
0.732918
0.721345
0.710127
0.69925
0.688696
0.678453
0.668506
0.658843
0.649452
0.640322
0.631441
0.6228
0.614388
0.606197
0.598217
0.59044
0.582859
0.575465
0.568251
0.56121
0.554335
0.547619
0.541057
0.534642
0.528367
0.522227
0.516217
0.510331
0.504564
0.498909
1.0768
1.05225
1.02875
1.00625
0.984678
0.963995
0.944147
0.925088
0.906773
0.889161
0.872214
0.855895
0.84017
0.825008
0.810379
0.796255
0.782612
0.769425
0.756672
0.744332
0.732384
0.720811
0.709595
0.698719
0.688169
0.677931
0.667989
0.658332
0.648947
0.639823
0.630949
0.622314
0.613909
0.605725
0.597752
0.589981
0.582406
0.575017
0.567809
0.560772
0.553901
0.547189
0.540628
0.534214
0.52794
0.521799
0.515786
0.509896
0.504123
0.498461
1.0768
1.05225
1.02876
1.00628
0.984745
0.964101
0.944291
0.925265
0.906977
0.889385
0.872451
0.856138
0.840415
0.825249
0.810613
0.796479
0.782822
0.769619
0.756848
0.744489
0.732521
0.720928
0.709691
0.698795
0.688224
0.677964
0.668002
0.658325
0.64892
0.639777
0.630884
0.622231
0.613808
0.605606
0.597616
0.58983
0.582239
0.574835
0.567612
0.560562
0.553678
0.546953
0.540382
0.533957
0.527674
0.521526
0.515509
0.509617
0.503847
0.498196
1.0768
1.05207
1.02836
1.00567
0.983955
0.963151
0.943212
0.924086
0.905722
0.888076
0.871106
0.854773
0.839041
0.823878
0.809253
0.795137
0.781505
0.768332
0.755595
0.743273
0.731346
0.719796
0.708604
0.697755
0.687233
0.677024
0.667114
0.657489
0.648139
0.639051
0.630215
0.62162
0.613256
0.605116
0.597189
0.589468
0.581945
0.574613
0.567465
0.560495
0.553697
0.547065
0.540595
0.534283
0.528125
0.52212
0.516268
0.51057
0.505037
0.499684
1.07683
1.05216
1.02859
1.00602
0.984428
0.963764
0.944005
0.925099
0.906993
0.889635
0.872982
0.856991
0.841623
0.826843
0.812617
0.798914
0.785707
0.772969
0.760675
0.748803
0.737331
0.72624
0.71551
0.705126
0.69507
0.685328
0.675886
0.666731
0.65785
0.649233
0.640869
0.632748
0.624861
0.617199
0.609757
0.602526
0.5955
0.588676
0.582047
0.575612
0.569367
0.563312
0.557447
0.551775
0.5463
0.541034
0.535992
0.531205
0.526732
0.522686
1.08355
1.06874
1.05457
1.04098
1.02789
1.01526
1.00302
0.99113
0.979582
0.96836
0.957449
0.946837
0.936513
0.926467
0.916688
0.907167
0.897895
0.888863
0.880063
0.871486
0.863126
0.854974
0.847025
0.83927
0.831703
0.824319
0.81711
0.810071
0.803197
0.796481
0.789918
0.783503
0.777231
0.771097
0.765096
0.759222
0.753472
0.747839
0.742321
0.73691
0.731604
0.726395
0.72128
0.716251
0.711305
0.706432
0.701627
0.69688
0.69218
0.68751
0.463713
0.251428
0.19436
0.186922
0.183057
0.181797
0.179063
0.177379
0.175034
0.173066
0.171048
0.168842
0.167139
0.164671
0.163294
0.160468
0.160186
0.163125
0.207962
0.388723
0.464284
0.252034
0.195053
0.187636
0.183781
0.182511
0.179779
0.178087
0.175741
0.173767
0.171747
0.169535
0.167828
0.165356
0.163974
0.161145
0.160856
0.163796
0.208632
0.389275
0.464861
0.25262
0.195747
0.188355
0.184511
0.183231
0.180501
0.1788
0.176455
0.174474
0.172451
0.170234
0.168524
0.166048
0.164661
0.161828
0.161533
0.164472
0.209297
0.389776
0.465443
0.2532
0.196445
0.189079
0.185246
0.183957
0.181229
0.17952
0.177174
0.175186
0.173162
0.17094
0.169226
0.166746
0.165353
0.162518
0.162216
0.165151
0.209917
0.390284
0.46603
0.25378
0.197148
0.18981
0.185988
0.184689
0.181963
0.180246
0.1779
0.175905
0.173879
0.171651
0.169934
0.16745
0.166052
0.163214
0.162904
0.16583
0.21052
0.390799
0.466622
0.254363
0.197856
0.190547
0.186736
0.185427
0.182703
0.180977
0.178632
0.17663
0.174602
0.172369
0.170648
0.168161
0.166757
0.163917
0.163599
0.166511
0.211118
0.391321
0.467218
0.25495
0.19857
0.19129
0.18749
0.186171
0.18345
0.181716
0.17937
0.177362
0.175332
0.173094
0.171369
0.168878
0.167468
0.164626
0.1643
0.167195
0.211713
0.391849
0.46782
0.255542
0.19929
0.192039
0.188251
0.186921
0.184203
0.18246
0.180115
0.1781
0.176068
0.173825
0.172096
0.169602
0.168186
0.165342
0.165006
0.167883
0.21231
0.392384
0.468426
0.256138
0.200016
0.192794
0.189018
0.187678
0.184963
0.183211
0.180866
0.178844
0.17681
0.174562
0.17283
0.170332
0.168911
0.166064
0.16572
0.168577
0.212909
0.392925
0.469038
0.256741
0.200749
0.193556
0.189791
0.188441
0.185729
0.183968
0.181624
0.179595
0.17756
0.175306
0.17357
0.171069
0.169642
0.166793
0.166439
0.169276
0.213512
0.393473
0.469655
0.257349
0.201489
0.194324
0.190571
0.189211
0.186502
0.184732
0.182388
0.180353
0.178315
0.176057
0.174317
0.171813
0.17038
0.167529
0.167165
0.169981
0.21412
0.394027
0.470277
0.257963
0.202236
0.195099
0.191358
0.189987
0.187281
0.185503
0.183159
0.181117
0.179078
0.176815
0.175071
0.172563
0.171125
0.168271
0.167898
0.170692
0.214732
0.394587
0.470904
0.258582
0.202989
0.195881
0.192152
0.190771
0.188067
0.18628
0.183937
0.181888
0.179847
0.177579
0.175831
0.173321
0.171877
0.16902
0.168638
0.17141
0.215351
0.395154
0.471537
0.259208
0.203749
0.196669
0.192952
0.19156
0.188861
0.187065
0.184722
0.182666
0.180624
0.17835
0.176599
0.174085
0.172635
0.169776
0.169384
0.172135
0.215975
0.395728
0.472175
0.25984
0.204517
0.197464
0.19376
0.192357
0.189661
0.187856
0.185514
0.183451
0.181407
0.179129
0.177373
0.174856
0.173401
0.17054
0.170138
0.172866
0.216605
0.396309
0.472818
0.260478
0.205291
0.198266
0.194574
0.193161
0.190468
0.188654
0.186313
0.184243
0.182197
0.179914
0.178155
0.175635
0.174173
0.17131
0.170898
0.173604
0.217242
0.396896
0.473468
0.261121
0.206073
0.199075
0.195396
0.193972
0.191282
0.189459
0.187119
0.185042
0.182995
0.180707
0.178944
0.176421
0.174953
0.172087
0.171666
0.17435
0.217885
0.39749
0.474122
0.261771
0.206862
0.199891
0.196224
0.194789
0.192104
0.190272
0.187932
0.185849
0.183799
0.181507
0.17974
0.177214
0.17574
0.172872
0.172441
0.175102
0.218535
0.398091
0.474783
0.262427
0.207658
0.200714
0.19706
0.195614
0.192932
0.191091
0.188752
0.186663
0.184611
0.182314
0.180543
0.178014
0.176535
0.173665
0.173223
0.175862
0.219192
0.3987
0.475449
0.26309
0.208461
0.201544
0.197904
0.196447
0.193768
0.191918
0.18958
0.187484
0.185431
0.183129
0.181354
0.178822
0.177336
0.174464
0.174012
0.17663
0.219857
0.399315
0.47612
0.263758
0.209272
0.202382
0.198755
0.197286
0.194612
0.192753
0.190416
0.188312
0.186258
0.183951
0.182173
0.179637
0.178146
0.175272
0.174809
0.177405
0.220528
0.399938
0.476798
0.264433
0.210091
0.203227
0.199613
0.198134
0.195463
0.193595
0.191259
0.189149
0.187092
0.184781
0.182999
0.180461
0.178963
0.176087
0.175614
0.178187
0.221207
0.400568
0.477482
0.265114
0.210917
0.20408
0.200479
0.198988
0.196322
0.194445
0.192109
0.189992
0.187935
0.185619
0.183833
0.181291
0.179788
0.17691
0.176427
0.178978
0.221893
0.401206
0.478171
0.265801
0.21175
0.20494
0.201353
0.199851
0.197189
0.195302
0.192968
0.190844
0.188785
0.186464
0.184674
0.18213
0.18062
0.17774
0.177247
0.179777
0.222587
0.401851
0.478866
0.266495
0.212592
0.205808
0.202234
0.200721
0.198063
0.196167
0.193834
0.191704
0.189643
0.187318
0.185524
0.182977
0.181461
0.178579
0.178075
0.180583
0.223289
0.402503
0.479568
0.267195
0.213441
0.206683
0.203124
0.201599
0.198945
0.197041
0.194708
0.192571
0.190509
0.188179
0.186381
0.183832
0.182309
0.179426
0.178911
0.181398
0.223998
0.403164
0.480275
0.267901
0.214298
0.207567
0.204021
0.202485
0.199836
0.197922
0.195591
0.193447
0.191383
0.189049
0.187247
0.184695
0.183166
0.180281
0.179756
0.182221
0.224716
0.403832
0.480989
0.268615
0.215163
0.208458
0.204927
0.203379
0.200734
0.198811
0.196481
0.194331
0.192265
0.189927
0.188121
0.185566
0.184031
0.181145
0.180609
0.183052
0.225442
0.404509
0.481709
0.269335
0.216036
0.209358
0.20584
0.204281
0.201641
0.199709
0.19738
0.195223
0.193156
0.190813
0.189003
0.186446
0.184905
0.182017
0.18147
0.183893
0.226176
0.405193
0.482435
0.270061
0.216918
0.210265
0.206762
0.205191
0.202556
0.200615
0.198287
0.196124
0.194055
0.191708
0.189894
0.187334
0.185787
0.182897
0.18234
0.184741
0.226918
0.405886
0.483168
0.270794
0.217808
0.211181
0.207693
0.20611
0.20348
0.201529
0.199203
0.197033
0.194963
0.192612
0.190793
0.188231
0.186677
0.183787
0.183218
0.185599
0.227668
0.406587
0.483907
0.271535
0.218706
0.212105
0.208632
0.207037
0.204412
0.202452
0.200127
0.197951
0.195879
0.193524
0.191701
0.189137
0.187577
0.184685
0.184105
0.186465
0.228428
0.407296
0.484652
0.272282
0.219612
0.213038
0.209579
0.207973
0.205352
0.203384
0.201061
0.198878
0.196804
0.194445
0.192618
0.190052
0.188485
0.185592
0.185001
0.187341
0.229196
0.408014
0.485404
0.273036
0.220528
0.21398
0.210536
0.208918
0.206302
0.204324
0.202003
0.199813
0.197738
0.195375
0.193544
0.190976
0.189402
0.186508
0.185906
0.188225
0.229973
0.408741
0.486162
0.273797
0.221452
0.21493
0.211501
0.209871
0.207261
0.205274
0.202953
0.200758
0.198681
0.196314
0.194479
0.191908
0.190328
0.187433
0.18682
0.189119
0.230758
0.409476
0.486927
0.274565
0.222384
0.215888
0.212475
0.210834
0.208228
0.206232
0.203914
0.201711
0.199633
0.197262
0.195424
0.192851
0.191264
0.188368
0.187744
0.190022
0.231553
0.41022
0.487699
0.275341
0.223326
0.216856
0.213458
0.211805
0.209205
0.2072
0.204883
0.202674
0.200595
0.19822
0.196377
0.193802
0.192209
0.189312
0.188676
0.190935
0.232358
0.410974
0.488477
0.276124
0.224277
0.217833
0.214451
0.212786
0.210191
0.208177
0.205861
0.203647
0.201566
0.199187
0.19734
0.194763
0.193163
0.190266
0.189619
0.191858
0.233171
0.411736
0.489262
0.276915
0.225237
0.218819
0.215453
0.213776
0.211186
0.209163
0.20685
0.204629
0.202546
0.200164
0.198313
0.195734
0.194127
0.191229
0.190571
0.192791
0.233994
0.412508
0.490055
0.277713
0.226206
0.219815
0.216464
0.214775
0.212191
0.210159
0.207847
0.20562
0.203536
0.201151
0.199295
0.196715
0.195101
0.192203
0.191533
0.193733
0.234827
0.413289
0.490854
0.278519
0.227185
0.22082
0.217485
0.215784
0.213206
0.211165
0.208855
0.206622
0.204536
0.202147
0.200287
0.197706
0.196085
0.193187
0.192505
0.194686
0.23567
0.41408
0.49166
0.279332
0.228173
0.221834
0.218515
0.216803
0.21423
0.212181
0.209872
0.207633
0.205546
0.203154
0.20129
0.198706
0.197079
0.19418
0.193487
0.195649
0.236523
0.414881
0.492473
0.280154
0.229172
0.222858
0.219556
0.217831
0.215265
0.213206
0.2109
0.208654
0.206566
0.20417
0.202302
0.199717
0.198084
0.195184
0.19448
0.196623
0.237386
0.415691
0.493293
0.280983
0.230179
0.223892
0.220606
0.21887
0.216309
0.214242
0.211937
0.209686
0.207597
0.205198
0.203325
0.200739
0.199098
0.196199
0.195483
0.197607
0.238259
0.416512
0.494121
0.281821
0.231197
0.224936
0.221667
0.219919
0.217364
0.215288
0.212985
0.210728
0.208637
0.206235
0.204359
0.201771
0.200124
0.197224
0.196496
0.198602
0.239142
0.417343
0.494956
0.282666
0.232225
0.22599
0.222738
0.220978
0.218429
0.216344
0.214043
0.211781
0.209689
0.207283
0.205403
0.202814
0.20116
0.198261
0.197521
0.199608
0.240037
0.418184
0.495798
0.283521
0.233263
0.227055
0.223819
0.222047
0.219505
0.217411
0.215113
0.212844
0.210751
0.208343
0.206458
0.203868
0.202207
0.199308
0.198556
0.200626
0.240942
0.419035
0.496648
0.284383
0.234312
0.22813
0.224911
0.223127
0.220591
0.218489
0.216192
0.213919
0.211824
0.209413
0.207524
0.204933
0.203265
0.200366
0.199603
0.201654
0.241858
0.419898
0.497506
0.285254
0.235371
0.229215
0.226014
0.224218
0.221688
0.219578
0.217283
0.215004
0.212908
0.210494
0.208601
0.206009
0.204334
0.201436
0.20066
0.202694
0.242785
0.420771
0.498371
0.286134
0.236441
0.230311
0.227127
0.22532
0.222797
0.220677
0.218385
0.216101
0.214003
0.211587
0.209689
0.207097
0.205415
0.202517
0.20173
0.203746
0.243724
0.421655
0.499244
0.287023
0.237522
0.231418
0.228252
0.226433
0.223916
0.221788
0.219498
0.217209
0.21511
0.212691
0.210789
0.208196
0.206507
0.203611
0.202811
0.20481
0.244674
0.42255
0.500124
0.287921
0.238613
0.232536
0.229388
0.227557
0.225047
0.222911
0.220623
0.218328
0.216228
0.213807
0.211901
0.209307
0.207612
0.204716
0.203904
0.205886
0.245636
0.423457
0.501013
0.288827
0.239716
0.233666
0.230535
0.228692
0.226189
0.224045
0.22176
0.219459
0.217358
0.214934
0.213025
0.21043
0.208728
0.205833
0.205009
0.206974
0.24661
0.424375
0.501909
0.289744
0.24083
0.234806
0.231694
0.22984
0.227343
0.225191
0.222908
0.220603
0.2185
0.216074
0.21416
0.211566
0.209856
0.206962
0.206126
0.208075
0.247596
0.425306
0.502814
0.290669
0.241956
0.235959
0.232864
0.230998
0.228508
0.226348
0.224068
0.221758
0.219655
0.217226
0.215308
0.212713
0.210997
0.208104
0.207256
0.209188
0.248595
0.426248
0.503727
0.291604
0.243093
0.237123
0.234046
0.232169
0.229686
0.227518
0.22524
0.222926
0.220821
0.218391
0.216469
0.213874
0.212151
0.209259
0.208399
0.210314
0.249606
0.427202
0.504648
0.292549
0.244242
0.238299
0.235241
0.233352
0.230876
0.2287
0.226425
0.224106
0.222
0.219568
0.217642
0.215047
0.213317
0.210427
0.209554
0.211454
0.25063
0.428168
0.505578
0.293504
0.245404
0.239487
0.236447
0.234548
0.232079
0.229895
0.227622
0.225298
0.223192
0.220758
0.218828
0.216233
0.214496
0.211608
0.210723
0.212607
0.251667
0.429147
0.506516
0.294468
0.246577
0.240687
0.237666
0.235755
0.233294
0.231103
0.228832
0.226504
0.224397
0.221961
0.220027
0.217432
0.215688
0.212802
0.211905
0.213773
0.252717
0.430139
0.507462
0.295443
0.247763
0.2419
0.238898
0.236976
0.234522
0.232323
0.230056
0.227723
0.225615
0.223178
0.22124
0.218645
0.216894
0.21401
0.2131
0.214953
0.25378
0.431144
0.508417
0.296428
0.248961
0.243125
0.240143
0.238209
0.235762
0.233557
0.231292
0.228955
0.226846
0.224408
0.222466
0.219872
0.218114
0.215231
0.21431
0.216148
0.254858
0.432162
0.509381
0.297424
0.250172
0.244364
0.2414
0.239456
0.237016
0.234803
0.232542
0.230201
0.228091
0.225651
0.223705
0.221112
0.219348
0.216467
0.215533
0.217356
0.255949
0.433194
0.510354
0.29843
0.251396
0.245615
0.242671
0.240716
0.238284
0.236064
0.233805
0.23146
0.22935
0.226909
0.224959
0.222367
0.220595
0.217717
0.216771
0.21858
0.257054
0.434239