/*--------------------------------*- C++ -*----------------------------------*\
  =========                 |
  \\      /  F ield         | OpenFOAM: The Open Source CFD Toolbox
   \\    /   O peration     | Website:  https://openfoam.org
    \\  /    A nd           | Version:  8
     \\/     M anipulation  |
\*---------------------------------------------------------------------------*/
FoamFile
{
    version     2.0;
    format      ascii;
    class       volScalarField;
    location    "300";
    object      epsilon;
}
// * * * * * * * * * * * * * * * * * * * * * * * * * * * * * * * * * * * * * //

dimensions      [0 2 -3 0 0 0 0];

internalField   nonuniform List<scalar> 
8400
(
2.39244
2.38569
2.37891
2.37213
2.36533
2.35852
2.35168
2.34483
2.33794
2.33102
2.32406
2.31706
2.31001
2.30291
2.29576
2.28854
2.28126
2.27391
2.26649
2.25899
2.25142
2.24375
2.23601
2.22817
2.22024
2.21222
2.20415
2.19608
2.18804
2.18005
2.17215
2.16435
2.15671
2.14925
2.14203
2.1351
2.12853
2.12239
2.11677
2.11177
2.10751
2.10414
2.10185
2.10084
2.1014
2.10388
2.10878
2.11674
2.12863
2.14565
0.181121
0.181418
0.181693
0.181961
0.182224
0.182484
0.182742
0.182997
0.183248
0.183497
0.183743
0.183985
0.184225
0.184462
0.184699
0.184934
0.18517
0.185407
0.185649
0.185895
0.18615
0.186415
0.186694
0.18699
0.187307
0.18765
0.188019
0.188398
0.18879
0.189198
0.189624
0.190071
0.190542
0.191041
0.191573
0.192143
0.192756
0.19342
0.194143
0.194933
0.195803
0.196765
0.197835
0.199032
0.200381
0.20191
0.20366
0.205681
0.208039
0.21083
0.0454664
0.0457358
0.0460068
0.0462787
0.0465514
0.0468246
0.0470983
0.0473724
0.0476469
0.0479218
0.048197
0.0484725
0.0487484
0.0490248
0.0493017
0.0495793
0.0498578
0.0501374
0.0504184
0.0507011
0.0509858
0.0512731
0.0515635
0.0518579
0.052157
0.0524618
0.0527696
0.0530791
0.0533905
0.053704
0.0540196
0.0543378
0.0546588
0.0549829
0.0553105
0.0556421
0.0559782
0.0563194
0.0566665
0.0570204
0.057382
0.0577525
0.0581334
0.0585264
0.0589336
0.0593575
0.0598015
0.0602694
0.0607665
0.0612996
0.0380875
0.0383076
0.038529
0.0387518
0.038976
0.0392017
0.0394288
0.0396574
0.0398876
0.0401193
0.0403526
0.0405875
0.040824
0.0410621
0.041302
0.0415436
0.041787
0.0420322
0.0422793
0.0425283
0.0427793
0.0430324
0.0432876
0.0435446
0.0438036
0.0440645
0.0443274
0.0445922
0.044859
0.0451279
0.0453988
0.0456718
0.0459469
0.0462241
0.0465035
0.0467851
0.047069
0.0473551
0.0476436
0.0479345
0.0482279
0.0485238
0.0488224
0.0491238
0.0494281
0.0497356
0.0500464
0.050361
0.0506798
0.0510034
0.0383091
0.0385249
0.0387422
0.0389611
0.0391815
0.0394035
0.0396271
0.0398523
0.0400793
0.040308
0.0405385
0.0407708
0.0410049
0.0412409
0.0414789
0.0417188
0.0419606
0.0422045
0.0424504
0.0426983
0.0429482
0.0432002
0.0434542
0.0437103
0.0439685
0.0442287
0.0444909
0.0447551
0.0450214
0.0452896
0.0455597
0.0458317
0.0461055
0.046381
0.0466581
0.0469367
0.0472166
0.0474977
0.0477797
0.0480624
0.0483454
0.0486285
0.0489112
0.0491929
0.0494731
0.049751
0.0500257
0.0502961
0.0505609
0.0508183
0.040317
0.0405497
0.0407841
0.0410201
0.0412577
0.0414969
0.0417378
0.0419805
0.0422249
0.0424711
0.0427191
0.042969
0.0432208
0.0434745
0.0437302
0.0439879
0.0442476
0.0445093
0.0447731
0.0450389
0.045307
0.0455771
0.0458495
0.046124
0.0464007
0.0466796
0.0469607
0.047244
0.0475296
0.0478173
0.0481072
0.0483992
0.0486933
0.0489894
0.0492876
0.0495876
0.0498895
0.050193
0.0504982
0.0508047
0.0511124
0.0514211
0.0517305
0.0520403
0.0523502
0.0526597
0.0529685
0.0532759
0.0535815
0.0538845
0.0416929
0.0419361
0.042181
0.0424276
0.0426759
0.0429259
0.0431777
0.0434313
0.0436867
0.0439441
0.0442034
0.0444647
0.0447281
0.0449935
0.0452609
0.0455305
0.0458022
0.0460761
0.0463522
0.0466305
0.0469111
0.047194
0.0474791
0.0477665
0.0480562
0.0483482
0.0486425
0.048939
0.0492377
0.0495386
0.0498417
0.0501468
0.0504539
0.0507629
0.0510737
0.0513861
0.0516999
0.0520149
0.0523308
0.0526475
0.0529644
0.0532812
0.0535974
0.0539123
0.0542254
0.0545357
0.0548425
0.0551445
0.0554406
0.0557292
0.0435931
0.043853
0.0441147
0.0443781
0.0446433
0.0449103
0.0451792
0.04545
0.0457227
0.0459975
0.0462743
0.0465531
0.0468341
0.0471172
0.0474025
0.04769
0.0479798
0.0482719
0.0485663
0.0488631
0.0491622
0.0494638
0.0497677
0.0500741
0.0503829
0.0506941
0.0510078
0.0513238
0.0516423
0.0519632
0.0522864
0.0526118
0.0529395
0.0532693
0.0536011
0.0539348
0.0542703
0.0546073
0.0549456
0.055285
0.0556252
0.0559658
0.0563064
0.0566465
0.0569855
0.0573229
0.0576579
0.0579898
0.0583175
0.0586402
0.0452124
0.0454862
0.0457619
0.0460395
0.0463189
0.0466003
0.0468836
0.0471689
0.0474562
0.0477457
0.0480373
0.0483311
0.0486271
0.0489253
0.0492259
0.0495289
0.0498342
0.0501419
0.0504521
0.0507648
0.05108
0.0513977
0.0517179
0.0520407
0.052366
0.0526939
0.0530243
0.0533572
0.0536926
0.0540305
0.0543708
0.0547134
0.0550583
0.0554053
0.0557542
0.056105
0.0564575
0.0568113
0.0571663
0.057522
0.0578782
0.0582343
0.0585898
0.0589441
0.0592965
0.0596462
0.0599922
0.0603336
0.0606692
0.0609978
0.0470528
0.0473434
0.047636
0.0479303
0.0482267
0.048525
0.0488254
0.0491279
0.0494325
0.0497394
0.0500485
0.0503599
0.0506737
0.0509898
0.0513084
0.0516295
0.0519531
0.0522792
0.0526079
0.0529393
0.0532732
0.0536099
0.0539492
0.0542912
0.0546359
0.0549833
0.0553334
0.0556862
0.0560417
0.0563997
0.0567603
0.0571234
0.0574889
0.0578567
0.0582266
0.0585984
0.058972
0.0593471
0.0597235
0.0601007
0.0604784
0.060856
0.0612331
0.0616089
0.0619827
0.0623536
0.0627207
0.0630827
0.0634385
0.0637867
0.0488873
0.0491951
0.0495051
0.0498172
0.0501313
0.0504475
0.050766
0.0510866
0.0514095
0.0517347
0.0520623
0.0523923
0.0527247
0.0530597
0.0533973
0.0537374
0.0540802
0.0544257
0.0547739
0.0551249
0.0554786
0.0558352
0.0561946
0.0565569
0.056922
0.0572901
0.057661
0.0580347
0.0584113
0.0587907
0.0591729
0.0595577
0.0599451
0.060335
0.0607273
0.0611218
0.0615183
0.0619165
0.0623162
0.0627171
0.0631187
0.0635207
0.0639224
0.0643232
0.0647225
0.0651195
0.0655133
0.0659028
0.0662871
0.0666651
0.0506843
0.0510095
0.0513367
0.051666
0.0519974
0.052331
0.0526668
0.053005
0.0533455
0.0536884
0.0540337
0.0543816
0.0547321
0.0550852
0.055441
0.0557995
0.0561607
0.0565248
0.0568918
0.0572616
0.0576343
0.05801
0.0583887
0.0587703
0.059155
0.0595427
0.0599333
0.060327
0.0607236
0.0611231
0.0615254
0.0619306
0.0623383
0.0627486
0.0631612
0.063576
0.0639928
0.0644111
0.0648307
0.0652512
0.0656719
0.0660925
0.0665121
0.06693
0.0673451
0.0677563
0.0681624
0.0685619
0.0689528
0.0693334
0.052754
0.0531001
0.0534486
0.0537994
0.0541525
0.0545079
0.0548657
0.0552259
0.0555886
0.0559539
0.0563217
0.0566922
0.0570655
0.0574415
0.0578203
0.058202
0.0585866
0.0589742
0.0593648
0.0597585
0.0601553
0.0605553
0.0609584
0.0613647
0.0617742
0.062187
0.0626031
0.0630224
0.0634449
0.0638706
0.0642996
0.0647317
0.0651668
0.0656049
0.0660459
0.0664896
0.0669359
0.0673845
0.0678352
0.0682876
0.0687415
0.0691964
0.0696518
0.0701071
0.0705618
0.071015
0.071466
0.0719139
0.0723578
0.0727968
0.0544813
0.0548462
0.0552133
0.0555826
0.0559541
0.056328
0.0567043
0.057083
0.0574643
0.0578481
0.0582346
0.0586238
0.0590158
0.0594106
0.0598083
0.0602089
0.0606125
0.0610191
0.0614289
0.0618417
0.0622578
0.062677
0.0630995
0.0635253
0.0639543
0.0643866
0.0648222
0.0652611
0.0657032
0.0661484
0.0665968
0.0670482
0.0675025
0.0679595
0.0684191
0.0688809
0.0693449
0.0698105
0.0702774
0.070745
0.0712129
0.0716802
0.0721462
0.0726099
0.07307
0.0735252
0.0739739
0.074414
0.0748432
0.0752587
0.0571877
0.0575813
0.0579776
0.0583763
0.0587774
0.0591809
0.0595869
0.0599955
0.0604066
0.0608204
0.061237
0.0616563
0.0620784
0.0625034
0.0629314
0.0633624
0.0637964
0.0642336
0.0646739
0.0651175
0.0655643
0.0660144
0.0664679
0.0669247
0.067385
0.0678486
0.0683157
0.0687861
0.0692599
0.069737
0.0702175
0.0707011
0.0711878
0.0716774
0.0721699
0.0726649
0.0731623
0.0736618
0.0741631
0.0746657
0.0751692
0.0756731
0.076177
0.0766801
0.0771817
0.0776813
0.0781781
0.0786715
0.0791609
0.0796462
0.0603642
0.0608047
0.0612467
0.0616901
0.0621352
0.0625819
0.0630303
0.0634805
0.0639325
0.0643864
0.0648421
0.0652998
0.0657595
0.0662213
0.0666853
0.0671515
0.0676199
0.0680907
0.0685638
0.0690393
0.0695173
0.0699976
0.0704804
0.0709656
0.0714532
0.071943
0.0724349
0.0729288
0.0734245
0.0739217
0.0744201
0.0749194
0.075419
0.0759184
0.0764169
0.0769138
0.077408
0.0778986
0.0783843
0.0788635
0.0793347
0.0797957
0.0802445
0.0806785
0.0810946
0.0814898
0.0818602
0.0822019
0.0825107
0.0827818
0.0735173
0.0741151
0.0747148
0.0753147
0.0759145
0.0765138
0.0771126
0.0777107
0.0783082
0.078905
0.0795012
0.0800968
0.0806918
0.0812863
0.0818803
0.082474
0.0830674
0.0836604
0.0842532
0.0848457
0.0854379
0.0860296
0.0866208
0.0872112
0.0878006
0.0883885
0.0889745
0.089558
0.0901383
0.0907145
0.0912856
0.0918501
0.0924066
0.0929533
0.0934879
0.0940081
0.0945107
0.0949924
0.0954492
0.0958764
0.0962686
0.0966198
0.0969226
0.0971691
0.0973497
0.0974538
0.097469
0.0973819
0.0971784
0.0968416
0.128045
0.129333
0.130609
0.131876
0.133135
0.134387
0.13563
0.136865
0.13809
0.139306
0.140513
0.14171
0.142897
0.144075
0.145243
0.146402
0.147552
0.148692
0.149822
0.150943
0.152054
0.153154
0.154243
0.15532
0.156383
0.157431
0.158462
0.159474
0.160463
0.161426
0.162358
0.163255
0.16411
0.164915
0.165662
0.166341
0.166938
0.167441
0.167832
0.168091
0.168195
0.168117
0.167822
0.167273
0.166422
0.16521
0.163563
0.16139
0.15858
0.154976
0.438516
0.442288
0.446149
0.450048
0.453975
0.457926
0.4619
0.465896
0.469913
0.473952
0.478011
0.48209
0.486189
0.490309
0.494449
0.498608
0.502788
0.506988
0.511208
0.515446
0.519701
0.523971
0.528254
0.532546
0.536842
0.541136
0.545421
0.549689
0.553929
0.558127
0.562269
0.566337
0.570308
0.574156
0.577852
0.581359
0.584633
0.587624
0.590271
0.592502
0.594231
0.595352
0.595738
0.59523
0.593629
0.590675
0.586016
0.579178
0.569565
0.556347
3.06099
3.07185
3.08283
3.09393
3.10515
3.11649
3.12797
3.13959
3.15137
3.16331
3.17544
3.18774
3.20024
3.21294
3.22585
3.23898
3.25232
3.26588
3.27967
3.29368
3.30792
3.32238
3.33708
3.35202
3.36718
3.38258
3.39822
3.41409
3.43019
3.44652
3.46308
3.47986
3.49686
3.51407
3.53148
3.54908
3.56684
3.58476
3.60281
3.62095
3.63916
3.65739
3.67559
3.69369
3.71163
3.72929
3.74658
3.76335
3.77942
3.79448
73.1772
70.2177
67.4608
64.8855
62.4698
60.195
58.0428
56.0033
54.0686
52.2315
50.4859
48.8259
47.2464
45.7425
44.3096
42.9438
41.6409
40.3976
39.2103
38.076
36.9918
35.9548
34.9626
34.0127
33.103
32.2312
31.3955
30.5939
29.8248
29.0866
28.3777
27.6968
27.0424
26.4134
25.8086
25.2269
24.6673
24.1288
23.6096
23.1075
22.6216
22.1507
21.6939
21.2499
20.8173
20.3948
19.9799
19.5697
19.1584
18.7356
71.8241
67.0004
62.5981
58.5672
54.8759
51.4921
48.3897
45.5401
42.918
40.5008
38.2687
36.2039
34.2908
32.5156
30.8658
29.3303
27.8993
26.5639
25.316
24.1485
23.0548
22.0292
21.0662
20.161
19.3093
18.507
17.7506
17.0366
16.3621
15.7242
15.1203
14.5482
14.0055
13.4903
13.0005
12.5345
12.0905
11.6671
11.2636
10.8795
10.5136
10.1649
9.83227
9.51476
9.21144
8.92143
8.64386
8.37783
8.1224
7.87645
71.8183
66.982
62.5556
58.5062
54.7967
51.3941
48.268
45.3908
42.7383
40.2889
38.0233
35.9245
33.9775
32.1687
30.486
28.9187
27.457
26.0922
24.8163
23.6224
22.5038
21.4548
20.4701
19.5448
18.6745
17.8552
17.0832
16.3552
15.668
15.019
14.4054
13.8249
13.2753
12.7547
12.2612
11.793
11.3487
10.9267
10.5257
10.1444
9.78171
9.43655
9.10793
8.79492
8.49668
8.21244
7.94145
7.68306
7.43662
7.20151
71.8184
67.0163
62.6275
58.6113
54.9289
51.5463
48.4337
45.5648
42.9162
40.4672
38.1996
36.0969
34.1446
32.3296
30.64
29.0654
27.5962
26.2237
24.9403
23.7388
22.6129
21.5567
20.5651
19.6331
18.7564
17.9309
17.1531
16.4195
15.7271
15.0731
14.4548
13.8699
13.3161
12.7916
12.2943
11.8226
11.3748
10.9496
10.5455
10.1614
9.79595
9.44818
9.11708
8.80171
8.50122
8.21481
7.94175
7.68133
7.43291
7.19584
71.8184
67.0171
62.6267
58.6058
54.9176
51.5292
48.4116
45.5386
42.8872
40.4366
38.1684
36.066
34.1146
32.301
30.6132
29.0407
27.5737
26.2035
24.9224
23.7232
22.5995
21.5455
20.5559
19.6259
18.751
17.9272
17.1509
16.4188
15.7277
15.0748
14.4576
13.8737
13.3208
12.797
12.3004
11.8293
11.3821
10.9573
10.5536
10.1697
9.80442
9.45677
9.1257
8.81028
8.50965
8.22301
7.9496
7.68872
7.4397
7.20188
71.8184
67.0197
62.6344
58.6198
54.9384
51.5569
48.4456
45.5783
42.9316
40.4848
38.2194
36.1191
34.169
32.3561
30.6685
29.0956
27.6279
26.2568
24.9745
23.774
22.6488
21.5933
20.602
19.6703
18.7937
17.9682
17.1903
16.4565
15.7637
15.1093
14.4905
13.905
13.3506
12.8254
12.3273
11.8548
11.4062
10.9801
10.5751
10.1899
9.82334
9.4744
9.14204
8.82533
8.52339
8.23541
7.96062
7.6983
7.44778
7.20839
71.8184
67.0203
62.6359
58.6219
54.9405
51.5583
48.4458
45.5769
42.9285
40.48
38.213
36.1112
34.1599
32.3459
30.6576
29.0841
27.6161
26.2448
24.9624
23.7619
22.637
21.5816
20.5907
19.6594
18.7832
17.9582
17.1807
16.4474
15.7551
15.1012
14.4828
13.8978
13.3439
12.819
12.3213
11.8492
11.4009
10.975
10.5703
10.1853
9.8189
9.47007
9.13777
8.82106
8.51905
8.23094
7.95594
7.69333
7.44244
7.20258
71.8184
67.0207
62.6371
58.6242
54.944
51.5631
48.452
45.5846
42.9376
40.4905
38.2249
36.1242
34.174
32.3609
30.6733
29.1004
27.6328
26.2617
24.9795
23.7791
22.6541
21.5986
20.6075
19.6758
18.7993
17.9739
17.1959
16.4621
15.7693
15.1148
14.4959
13.9103
13.3557
12.8302
12.3319
11.8591
11.4101
10.9836
10.5781
10.1924
9.82529
9.47569
9.14259
8.82504
8.52217
8.23314
7.95718
7.69356
7.44161
7.20064
71.8184
67.0208
62.6375
58.625
54.9451
51.5644
48.4533
45.5858
42.9386
40.491
38.2249
36.1238
34.1729
32.3593
30.6711
29.0978
27.6297
26.2583
24.9758
23.775
22.6498
21.5941
20.6028
19.6711
18.7945
17.969
17.191
16.4572
15.7645
15.1099
14.4911
13.9055
13.351
12.8255
12.3272
11.8544
11.4055
10.9789
10.5734
10.1876
9.82035
9.47061
9.13733
8.81956
8.51641
8.22706
7.95073
7.68669
7.43425
7.19274
71.8184
67.0208
62.6377
58.6253
54.9457
51.5652
48.4544
45.5871
42.9401
40.4928
38.227
36.1261
34.1755
32.3621
30.6742
29.101
27.6331
26.2618
24.9794
23.7788
22.6536
21.5979
20.6066
19.6748
18.7982
17.9726
17.1945
16.4606
15.7677
15.113
14.4939
13.9081
13.3534
12.8277
12.3291
11.856
11.4068
10.9799
10.5739
10.1878
9.82013
9.46993
9.13616
8.81786
8.51414
8.22417
7.94718
7.68243
7.42924
7.18693
71.8184
67.0208
62.6377
58.6253
54.9457
51.5652
48.4544
45.5871
42.9401
40.4928
38.2269
36.126
34.1754
32.362
30.674
29.1009
27.6329
26.2616
24.9792
23.7785
22.6532
21.5976
20.6062
19.6743
18.7976
17.972
17.1939
16.4598
15.7668
15.112
14.4929
13.9069
13.3521
12.8262
12.3275
11.8542
11.4047
10.9776
10.5714
10.185
9.81702
9.46648
9.13233
8.81361
8.50943
8.21896
7.94142
7.67608
7.42226
7.17928
71.8184
67.0208
62.6375
58.6249
54.9451
51.5644
48.4533
45.5857
42.9385
40.4909
38.2247
36.1235
34.1727
32.359
30.6708
29.0974
27.6292
26.2577
24.9751
23.7743
22.6489
21.5931
20.6017
19.6698
18.793
17.9674
17.1893
16.4552
15.7622
15.1074
14.4883
13.9023
13.3474
12.8216
12.3228
11.8495
11.4
10.9727
10.5665
10.1799
9.81178
9.46105
9.12667
8.80769
8.5032
8.21238
7.93443
7.66864
7.41432
7.17079
71.8184
67.0207
62.637
58.6241
54.9439
51.563
48.4519
45.5845
42.9375
40.4903
38.2246
36.1239
34.1735
32.3604
30.6726
29.0996
27.6319
26.2607
24.9784
23.7778
22.6525
21.5969
20.6055
19.6736
18.7968
17.971
17.1927
16.4585
15.7653
15.1103
14.4909
13.9047
13.3495
12.8233
12.3242
11.8505
11.4006
10.973
10.5663
10.1793
9.81066
9.45941
9.12448
8.80491
8.49979
8.2083
7.92965
7.6631
7.40799
7.16363
71.8184
67.0203
62.6359
58.6219
54.9405
51.5582
48.4457
45.5767
42.9283
40.4797
38.2126
36.1107
34.1593
32.3453
30.6568
29.0832
27.615
26.2435
24.9609
23.7602
22.635
21.5795
20.5882
19.6566
18.78
17.9546
17.1767
16.4429
15.7501
15.0955
14.4765
13.8907
13.3359
12.81
12.3113
11.838
11.3884
10.961
10.5546
10.1678
9.79936
9.44826
9.11344
8.79392
8.48881
8.19726
7.9185
7.65178
7.39643
7.15176
71.8184
67.0197
62.6344
58.6197
54.9383
51.5568
48.4455
45.5781
42.9313
40.4844
38.219
36.1185
34.1683
32.3552
30.6674
29.0943
27.6264
26.2551
24.9725
23.7717
22.6462
21.5902
20.5986
19.6664
18.7893
17.9633
17.1848
16.4503
15.7569
15.1016
14.4819
13.8955
13.34
12.8135
12.3142
11.8401
11.3899
10.9619
10.5548
10.1673
9.79818
9.44637
9.11083
8.79056
8.48468
8.19233
7.91273
7.64513
7.38884
7.14319
71.8184
67.0171
62.6267
58.6058
54.9175
51.5291
48.4114
45.5384
42.8869
40.4362
38.1678
36.0653
34.1138
32.3
30.612
29.0393
27.572
26.2016
24.9202
23.7207
22.5967
21.5423
20.5523
19.6217
18.7463
17.9219
17.145
16.4121
15.7201
15.0664
14.4481
13.863
13.3089
12.7836
12.2854
11.8125
11.3633
10.9363
10.5301
10.1435
9.77518
9.42409
9.08919
8.7695
8.46412
8.17219
7.89293
7.6256
7.3695
7.12398
71.8184
67.0163
62.6275
58.6112
54.9288
51.5462
48.4336
45.5645
42.9158
40.4667
38.1989
36.0961
34.1436
32.3284
30.6386
29.0637
27.5942
26.2214
24.9376
23.7358
22.6094
21.5528
20.5606
19.6281
18.7507
17.9246
17.146
16.4115
15.7182
15.0631
14.4436
13.8574
13.3023
12.7761
12.2771
11.8034
11.3536
10.9259
10.5192
10.1321
9.76338
9.41194
9.07676
8.75686
8.45134
8.15938
7.88019
7.61308
7.35741
7.11261
71.8183
66.982
62.5556
58.5061
54.7966
51.394
48.2677
45.3905
42.7379
40.2883
38.0226
35.9237
33.9765
32.1675
30.4846
28.9171
27.4551
26.09
24.8139
23.6196
22.5008
21.4514
20.4663
19.5406
18.6699
17.8501
17.0776
16.3491
15.6615
15.0119
14.3977
13.8166
13.2664
12.7451
12.2508
11.7817
11.3364
10.9133
10.511
10.1285
9.76436
9.41769
9.08749
8.77286
8.47302
8.18727
7.91502
7.65587
7.40964
7.17651
71.8241
67.0004
62.598
58.5672
54.8758
51.492
48.3895
45.54
42.918
40.5008
38.2687
36.204
34.2911
32.516
30.8663
29.3311
27.9004
26.5652
25.3177
24.1507
23.0576
22.0326
21.0705
20.1663
19.3158
18.5149
17.7601
17.0482
16.376
15.7408
15.1402
14.5719
14.0338
13.5239
13.0405
12.582
12.147
11.7342
11.3422
10.9702
10.617
10.2818
9.96399
9.6629
9.37813
9.1095
8.85719
8.62201
8.40599
8.21379
73.1772
70.2177
67.4608
64.8855
62.4698
60.195
58.0427
56.0031
54.0682
52.2309
50.485
48.8248
47.2449
45.7406
44.3073
42.9409
41.6375
40.3935
39.2055
38.0703
36.9851
35.947
34.9535
34.0021
33.0906
32.2169
31.379
30.575
29.8031
29.0616
28.3491
27.664
27.0049
26.3704
25.7594
25.1707
24.603
24.0553
23.5266
23.0159
22.5222
22.0445
21.582
21.1338
20.6989
20.2764
19.8654
19.4649
19.0736
18.6901
5.72069
0.914179
0.422323
0.375672
0.35285
0.345612
0.330251
0.321023
0.308456
0.298172
0.287861
0.276866
0.268572
0.256851
0.250462
0.23768
0.236428
0.249676
0.51728
3.38351
5.74115
0.920804
0.426854
0.37999
0.357052
0.3497
0.334229
0.32488
0.312211
0.301808
0.291402
0.28029
0.27191
0.260071
0.253605
0.2407
0.23941
0.252769
0.522299
3.39751
5.76185
0.927242
0.43143
0.384376
0.361322
0.353855
0.338272
0.328801
0.316029
0.305505
0.295003
0.283772
0.275305
0.263348
0.256802
0.243774
0.242444
0.255913
0.527311
3.41022
5.7828
0.933646
0.436062
0.388831
0.365661
0.358076
0.342382
0.332787
0.319911
0.309265
0.298666
0.287315
0.278759
0.266682
0.260055
0.246905
0.245531
0.259097
0.532007
3.42315
5.80398
0.940078
0.440757
0.393356
0.370071
0.362367
0.34656
0.336839
0.323858
0.313087
0.302391
0.290918
0.282272
0.270075
0.263366
0.250092
0.248671
0.262305
0.53661
3.4363
5.82541
0.946569
0.445523
0.397954
0.374553
0.366728
0.350807
0.340959
0.327872
0.316975
0.306181
0.294584
0.285847
0.273528
0.266734
0.253337
0.251865
0.265548
0.54119
3.44966
5.84708
0.953135
0.450362
0.402626
0.379109
0.371161
0.355126
0.345148
0.331954
0.32093
0.310035
0.298314
0.289484
0.277043
0.270163
0.25664
0.255115
0.268834
0.545783
3.46323
5.869
0.959786
0.455279
0.407375
0.383741
0.375668
0.359518
0.349407
0.336106
0.324952
0.313956
0.302109
0.293185
0.28062
0.273653
0.260002
0.258422
0.272169
0.55041
3.47702
5.89116
0.966527
0.460276
0.412201
0.388451
0.380249
0.363984
0.353739
0.340328
0.329044
0.317945
0.305971
0.296951
0.28426
0.277206
0.263424
0.261787
0.275557
0.555084
3.49101
5.91359
0.973362
0.465356
0.417106
0.393239
0.384907
0.368526
0.358144
0.344624
0.333206
0.322004
0.3099
0.300783
0.287966
0.280822
0.266909
0.265212
0.279
0.559815
3.50522
5.93627
0.980295
0.470519
0.422093
0.398109
0.389644
0.373145
0.362624
0.348994
0.337441
0.326134
0.313899
0.304682
0.291739
0.284503
0.270455
0.268699
0.282501
0.564608
3.51964
5.95921
0.987328
0.475769
0.427163
0.40306
0.39446
0.377843
0.367182
0.353439
0.341749
0.330336
0.317968
0.308652
0.295579
0.28825
0.274067
0.272249
0.286063
0.569469
3.53428
5.98242
0.994462
0.481106
0.432317
0.408096
0.399358
0.382622
0.371818
0.357962
0.346133
0.334612
0.32211
0.312692
0.299488
0.292065
0.277744
0.275862
0.289687
0.574402
3.54915
6.00591
1.0017
0.486533
0.437557
0.413218
0.404339
0.387483
0.376533
0.362563
0.350593
0.338963
0.326325
0.316805
0.303468
0.295949
0.281488
0.279542
0.293376
0.579412
3.56424
6.02967
1.00904
0.492051
0.442885
0.418427
0.409405
0.392429
0.381331
0.367246
0.355133
0.343392
0.330616
0.320992
0.30752
0.299903
0.285302
0.283288
0.297131
0.5845
3.57956
6.0537
1.01649
0.497662
0.448303
0.423725
0.414558
0.39746
0.386213
0.37201
0.359752
0.3479
0.334984
0.325254
0.311646
0.30393
0.289185
0.287104
0.300954
0.589671
3.59511
6.07803
1.02405
0.503368
0.453813
0.429115
0.4198
0.40258
0.391179
0.376859
0.364454
0.352488
0.339431
0.329594
0.315847
0.30803
0.293141
0.29099
0.304847
0.594926
3.6109
6.10264
1.03171
0.509171
0.459417
0.434599
0.425132
0.407789
0.396233
0.381794
0.36924
0.357159
0.343959
0.334013
0.320125
0.312206
0.29717
0.294948
0.308812
0.600267
3.62693
6.12754
1.03949
0.515073
0.465116
0.440177
0.430557
0.413089
0.401377
0.386817
0.374111
0.361914
0.348568
0.338512
0.324483
0.316459
0.301275
0.298979
0.31285
0.605699
3.64321
6.15274
1.04738
0.521075
0.470912
0.445853
0.436076
0.418483
0.406611
0.391929
0.37907
0.366754
0.353263
0.343093
0.328921
0.320791
0.305456
0.303086
0.316964
0.611222
3.65973
6.17824
1.05538
0.527179
0.476809
0.451628
0.441692
0.423973
0.411938
0.397133
0.384118
0.371683
0.358043
0.347759
0.333441
0.325204
0.309716
0.30727
0.321155
0.61684
3.67652
6.20404
1.0635
0.533388
0.482807
0.457505
0.447407
0.42956
0.41736
0.402431
0.389258
0.376702
0.362911
0.352511
0.338046
0.329699
0.314057
0.311533
0.325424
0.622554
3.69356
6.23016
1.07174
0.539704
0.488909
0.463485
0.453222
0.435247
0.42288
0.407825
0.394492
0.381813
0.367869
0.357352
0.342737
0.334278
0.318481
0.315877
0.329775
0.628367
3.71086
6.25659
1.0801
0.546129
0.495117
0.469571
0.45914
0.441036
0.428499
0.413317
0.399821
0.387017
0.372919
0.362282
0.347516
0.338944
0.322989
0.320304
0.334209
0.634281
3.72843
6.28333
1.08858
0.552665
0.501433
0.475765
0.465163
0.446929
0.434219
0.418908
0.405248
0.392318
0.378064
0.367305
0.352386
0.343698
0.327583
0.324815
0.338728
0.640299
3.74628
6.3104
1.09718
0.559315
0.50786
0.48207
0.471294
0.452928
0.440044
0.424602
0.410775
0.397717
0.383305
0.372422
0.357348
0.348543
0.332266
0.329413
0.343333
0.646423
3.76441
6.3378
1.10591
0.56608
0.5144
0.488488
0.477535
0.459037
0.445974
0.430401
0.416405
0.403217
0.388644
0.377635
0.362405
0.35348
0.337039
0.3341
0.348028
0.652656
3.78282
6.36553
1.11477
0.572964
0.521056
0.495021
0.483888
0.465256
0.452013
0.436307
0.422139
0.408819
0.394084
0.382948
0.367558
0.358512
0.341906
0.338877
0.352814
0.658999
3.80152
6.39359
1.12375
0.579969
0.52783
0.501672
0.490356
0.47159
0.458163
0.442323
0.42798
0.414527
0.399627
0.388361
0.372811
0.363641
0.346867
0.343748
0.357694
0.665456
3.82051
6.422
1.13287
0.587097
0.534725
0.508443
0.496941
0.47804
0.464426
0.44845
0.433931
0.420342
0.405276
0.393879
0.378165
0.368869
0.351926
0.348714
0.362669
0.672029
3.83981
6.45075
1.14213
0.594351
0.541743
0.515338
0.503647
0.484608
0.470806
0.454692
0.439994
0.426268
0.411033
0.399502
0.383624
0.374199
0.357084
0.353778
0.367743
0.678721
3.85941
6.47985
1.15152
0.601734
0.548887
0.52236
0.510475
0.491299
0.477305
0.461051
0.446172
0.432307
0.4169
0.405233
0.389188
0.379633
0.362344
0.358941
0.372917
0.685535
3.87932
6.50931
1.16105
0.609248
0.556161
0.529509
0.517429
0.498114
0.483925
0.46753
0.452467
0.438461
0.422881
0.411076
0.394862
0.385174
0.367709
0.364207
0.378194
0.692473
3.89956
6.53912
1.17072
0.616898
0.563566
0.536791
0.524511
0.505056
0.490669
0.474132
0.458882
0.444733
0.428978
0.417033
0.400648
0.390825
0.373182
0.369579
0.383577
0.699539
3.92011
6.56931
1.18054
0.624684
0.571106
0.544208
0.531725
0.512129
0.497541
0.48086
0.46542
0.451126
0.435194
0.423106
0.406547
0.396587
0.378764
0.375058
0.389068
0.706735
3.941
6.59986
1.19051
0.632612
0.578784
0.551762
0.539073
0.519335
0.504543
0.487716
0.472085
0.457643
0.441531
0.429298
0.412565
0.402464
0.384459
0.380647
0.39467
0.714065
3.96223
6.63079
1.20063
0.640683
0.586603
0.559458
0.546559
0.526677
0.511678
0.494704
0.478878
0.464288
0.447993
0.435613
0.418702
0.408459
0.390269
0.386349
0.400386
0.721532
3.9838
6.66211
1.21091
0.648901
0.594566
0.567298
0.554186
0.534159
0.518951
0.501826
0.485804
0.471062
0.454583
0.442053
0.424962
0.414574
0.396197
0.392168
0.406219
0.729139
4.00572
6.69381
1.22134
0.65727
0.602677
0.575286
0.561957
0.541784
0.526362
0.509087
0.492865
0.477969
0.461304
0.448622
0.431349
0.420813
0.402247
0.398105
0.412172
0.736889
4.028
6.7259
1.23193
0.665793
0.610939
0.583425
0.569875
0.549555
0.533918
0.51649
0.500065
0.485013
0.468158
0.455322
0.437865
0.427179
0.408422
0.404164
0.418247
0.744786
4.05065
6.7584
1.24268
0.674473
0.619356
0.591718
0.577945
0.557477
0.541619
0.524037
0.507407
0.492197
0.475151
0.462157
0.444514
0.433675
0.414724
0.410349
0.424448
0.752833
4.07367
6.7913
1.2536
0.683314
0.627931
0.60017
0.586169
0.565551
0.549472
0.531732
0.514894
0.499524
0.482284
0.469131
0.451298
0.440304
0.421157
0.416662
0.430779
0.761035
4.09707
6.82461
1.2647
0.69232
0.636669
0.608784
0.594552
0.573783
0.557478
0.53958
0.522531
0.506998
0.489561
0.476246
0.458223
0.447069
0.427724
0.423107
0.437242
0.769395
4.12086
6.85834
1.27596
0.701494
0.645572
0.617565
0.603097
0.582176
0.565641
0.547583
0.53032
0.514623
0.496987
0.483507
0.46529
0.453975
0.434429
0.429686
0.443841
0.777917
4.14505
6.89249
1.28741
0.710841
0.654645
0.626515
0.611808
0.590734
0.573967
0.555746
0.538267
0.522402
0.504565
0.490917
0.472504
0.461025
0.441276
0.436405
0.45058
0.786605
4.16965
6.92708
1.29904
0.720365
0.663892
0.635639
0.620689
0.59946
0.582457
0.564072
0.546374
0.530339
0.512298
0.49848
0.479869
0.468223
0.448268
0.443266
0.457463
0.795464
4.19466
6.9621
1.31085
0.73007
0.673317
0.644942
0.629745
0.60836
0.591118
0.572566
0.554646
0.538439
0.520191
0.5062
0.487388
0.475572
0.455409
0.450274
0.464493
0.804497
4.22009
6.99757
1.32285
0.73996
0.682924
0.654427
0.63898
0.617437
0.599953
0.581233
0.563086
0.546705
0.528248
0.514082
0.495066
0.483076
0.462703
0.457431
0.471674
0.81371
4.24596
7.03349
1.33504
0.750039
0.692719
0.6641
0.648397
0.626696
0.608966
0.590075
0.571701
0.555142
0.536473
0.522128
0.502907
0.490741
0.470154
0.464743
0.479011
0.823106
4.27227
7.06986
1.34744
0.760313
0.702705
0.673964
0.658003
0.636142
0.618162
0.599098
0.580493
0.563754
0.544871
0.530344
0.510915
0.498569
0.477767
0.472213
0.486507
0.83269
4.29903
7.10671
1.36003
0.770786
0.712887
0.684025
0.6678
0.645778
0.627545
0.608307
0.589467
0.572546
0.553446
0.538734
0.519094
0.506566
0.485545
0.479845
0.494167
0.842469
4.32625
7.14403
1.37283
0.781463
0.72327
0.694287
0.677796
0.655611
0.637121
0.617706
0.598629
0.581522
0.562203
0.547303
0.52745
0.514735
0.493493
0.487645
0.501996
0.852445
4.35394
7.18183
1.38585
0.792349
0.733859
0.704755
0.687993
0.665644
0.646894
0.6273
0.607982
0.590688
0.571146
0.556056
0.535986
0.523082
0.501617
0.495617
0.509998
0.862626
4.38212
7.22012
1.39908
0.803448
0.74466
0.715435
0.698398
0.675883
0.65687
0.637095
0.617533
0.600048
0.58028
0.564997
0.544708
0.531612
0.50992
0.503765
0.518178
0.873016
4.41079
7.25891
1.41253
0.814767
0.755677
0.726333
0.709015
0.686334
0.667053
0.647094
0.627286
0.609608
0.589612
0.574132
0.553622
0.540329
0.518408
0.512094
0.526541
0.883621
4.43997
7.2982
1.4262
0.826311
0.766916
0.737452
0.719851
0.697001
0.67745
0.657305
0.637247
0.619372
0.599146
0.583465
0.562731
0.549238
0.527086
0.52061
0.535092
0.894447
4.46966
7.33801
1.44011
0.838085
0.778383
0.7488
0.730911
0.707891
0.688065
0.667732
0.647421
0.629347
0.608887
0.593003
0.572042
0.558346
0.535959
0.529318
0.543837
0.905499
4.49988
7.37834
1.45426
0.850095
0.790083
0.760382
0.7422
0.719009
0.698905
0.678381
0.657814
0.639538
0.618841
0.602751
0.58156
0.567657
0.545032
0.538223
0.55278
0.916784
4.53064
7.4192
1.46864
0.862348
0.802023
0.772203
0.753726
0.730361
0.709975
0.689258
0.668432
0.64995
0.629014
0.612714
0.591291
0.577177
0.554313
0.54733
0.561928
0.928309
4.56196
7.4606
1.48328
0.874849
0.814208
0.784271
0.765493
0.741954
0.721282
0.700369
0.679281
0.660591
0.639413
0.622899
0.601241
0.586913
0.563805
0.556647
0.571287
0.94008
4.59384
7.50256
1.49817
0.887604
0.826646
0.796592
0.777508
0.753793
0.732832
0.711721
0.690367
0.671466
0.650043
0.633312
0.611416
0.596869
0.573516
0.566178
0.580863
0.952103
4.6263
7.54507
1.51331
0.900621
0.839342
0.809172
0.789778
0.765886
0.744632
0.72332
0.701698
0.682582
0.66091
0.643959
0.621822
0.607054
0.583451
0.575929
0.590662
0.964387
4.65936
7.58815
1.52873
0.913906
0.852304
0.822018
0.80231
0.778238
0.756688
0.735173
0.713278
0.693945
0.672022
0.654847
0.632467
0.617472
0.593617
0.585909
0.60069
0.976937
4.69302
7.63182
1.54441
0.927465
0.865538
0.835137
0.81511
0.790858
0.769008
0.747287
0.725116
0.705563
0.683386
0.665983
0.643356
0.628131
0.604022
0.596122
0.610955
0.989763
4.72731
7.67607
1.56038
0.941307
0.879052
0.848536
0.828187
0.803752
0.781598
0.759668
0.737219
0.717442
0.695008
0.677374
0.654498
0.639038
0.614671
0.606575
0.621463
1.00287
4.76223
7.72092
1.57663
0.955438
0.892853
0.862224
0.841547
0.816928
0.794466
0.772325
0.749595
0.729589
0.706895
0.689027
0.665898
0.6502
0.625572
0.617277
0.632221
1.01627
4.79781
7.76638
1.59317
0.969867
0.906949
0.876206
0.855198
0.830394
0.80762
0.785265
0.762249
0.742014
0.719057
0.700949
0.677565
0.661625
0.636733
0.628235
0.643238
1.02997
4.83405
7.81246
1.61002
0.9846
0.921348
0.890493
0.869149
0.844157
0.821067
0.798496
0.775192
0.754723
0.7315
0.713149
0.689507
0.67332
0.648161
0.639455
0.654521