/*--------------------------------*- C++ -*----------------------------------*\
  =========                 |
  \\      /  F ield         | OpenFOAM: The Open Source CFD Toolbox
   \\    /   O peration     | Website:  https://openfoam.org
    \\  /    A nd           | Version:  8
     \\/     M anipulation  |
\*---------------------------------------------------------------------------*/
FoamFile
{
    version     2.0;
    format      ascii;
    class       volScalarField;
    location    "300";
    object      k;
}
// * * * * * * * * * * * * * * * * * * * * * * * * * * * * * * * * * * * * * //

dimensions      [0 2 -2 0 0 0 0];

internalField   nonuniform List<scalar> 
8400
(
0.0962222
0.096041
0.0958591
0.0956768
0.0954939
0.0953105
0.0951263
0.0949413
0.0947553
0.0945682
0.0943799
0.0941903
0.0939992
0.0938065
0.0936121
0.0934159
0.0932177
0.0930174
0.0928149
0.0926101
0.0924028
0.092193
0.0919807
0.0917656
0.0915478
0.0913273
0.0911049
0.0908824
0.0906604
0.0904397
0.090221
0.090005
0.089793
0.0895859
0.0893852
0.0891923
0.0890092
0.0888379
0.0886809
0.0885412
0.0884221
0.088328
0.0882637
0.0882354
0.0882511
0.0883206
0.0884575
0.0886802
0.089012
0.0894858
0.0172198
0.0172386
0.017256
0.0172729
0.0172896
0.0173061
0.0173223
0.0173384
0.0173543
0.01737
0.0173855
0.0174008
0.0174159
0.0174309
0.0174458
0.0174606
0.0174754
0.0174904
0.0175056
0.0175211
0.0175371
0.0175537
0.0175712
0.0175898
0.0176097
0.0176312
0.0176542
0.017678
0.0177025
0.017728
0.0177546
0.0177825
0.0178118
0.0178429
0.017876
0.0179114
0.0179495
0.0179907
0.0180355
0.0180844
0.0181382
0.0181976
0.0182635
0.0183371
0.0184198
0.0185134
0.0186202
0.0187432
0.0188862
0.0190547
0.00685238
0.00687943
0.00690657
0.00693376
0.00696097
0.00698818
0.00701539
0.00704258
0.00706976
0.00709692
0.00712406
0.00715119
0.0071783
0.00720541
0.00723251
0.00725964
0.0072868
0.00731402
0.00734132
0.00736873
0.0073963
0.00742405
0.00745206
0.00748039
0.00750913
0.00753836
0.00756782
0.00759738
0.00762706
0.00765689
0.00768686
0.00771702
0.00774738
0.00777797
0.00780884
0.00784001
0.00787155
0.00790351
0.00793595
0.00796896
0.00800261
0.00803702
0.00807232
0.00810866
0.00814623
0.00818525
0.00822601
0.00826887
0.00831427
0.00836283
0.00608933
0.00611277
0.0061363
0.00615993
0.00618367
0.00620751
0.00623147
0.00625553
0.00627971
0.00630401
0.00632842
0.00635296
0.00637761
0.00640239
0.0064273
0.00645234
0.00647752
0.00650284
0.0065283
0.0065539
0.00657967
0.00660559
0.00663168
0.00665791
0.00668428
0.00671079
0.00673746
0.00676427
0.00679122
0.00681833
0.00684559
0.00687301
0.00690058
0.00692831
0.0069562
0.00698425
0.00701247
0.00704086
0.00706943
0.00709818
0.00712711
0.00715624
0.00718556
0.0072151
0.00724487
0.00727488
0.00730516
0.00733575
0.00736667
0.007398
0.00611293
0.00613586
0.00615892
0.00618209
0.00620538
0.0062288
0.00625234
0.00627601
0.00629982
0.00632376
0.00634785
0.00637207
0.00639645
0.00642097
0.00644564
0.00647047
0.00649545
0.0065206
0.0065459
0.00657136
0.00659698
0.00662275
0.00664869
0.00667479
0.00670104
0.00672745
0.00675402
0.00678073
0.0068076
0.00683461
0.00686176
0.00688904
0.00691645
0.00694397
0.00697161
0.00699933
0.00702713
0.00705499
0.00708288
0.00711079
0.00713868
0.00716652
0.00719427
0.00722187
0.00724927
0.00727639
0.00730315
0.00732944
0.00735514
0.00738009
0.0063247
0.00634902
0.00637346
0.00639802
0.00642271
0.00644751
0.00647244
0.0064975
0.00652269
0.00654802
0.00657349
0.0065991
0.00662485
0.00665076
0.00667681
0.00670301
0.00672937
0.00675588
0.00678254
0.00680937
0.00683635
0.0068635
0.00689082
0.0069183
0.00694594
0.00697374
0.00700172
0.00702985
0.00705814
0.0070866
0.00711521
0.00714398
0.00717289
0.00720194
0.00723113
0.00726045
0.00728989
0.00731943
0.00734906
0.00737877
0.00740853
0.00743833
0.00746814
0.00749793
0.00752766
0.00755731
0.00758682
0.00761615
0.00764524
0.00767404
0.00646779
0.00649292
0.00651818
0.00654355
0.00656906
0.00659469
0.00662045
0.00664635
0.00667238
0.00669856
0.00672489
0.00675137
0.006778
0.00680478
0.00683172
0.00685882
0.00688608
0.00691351
0.0069411
0.00696886
0.00699678
0.00702488
0.00705315
0.00708158
0.00711019
0.00713896
0.0071679
0.007197
0.00722625
0.00725567
0.00728523
0.00731493
0.00734477
0.00737473
0.00740479
0.00743495
0.00746519
0.00749548
0.00752581
0.00755613
0.00758643
0.00761665
0.00764675
0.00767668
0.00770637
0.00773574
0.00776472
0.0077932
0.00782107
0.0078482
0.00666285
0.0066893
0.00671589
0.00674259
0.00676943
0.00679639
0.00682349
0.00685073
0.00687812
0.00690564
0.00693332
0.00696114
0.00698912
0.00701726
0.00704556
0.00707402
0.00710265
0.00713145
0.00716042
0.00718955
0.00721887
0.00724835
0.00727802
0.00730785
0.00733787
0.00736806
0.00739842
0.00742895
0.00745965
0.00749052
0.00752154
0.00755272
0.00758405
0.00761552
0.00764711
0.00767882
0.00771062
0.00774251
0.00777446
0.00780644
0.00783843
0.00787039
0.00790229
0.00793408
0.00796571
0.00799712
0.00802825
0.00805902
0.00808936
0.00811917
0.00682684
0.00685437
0.00688204
0.00690985
0.00693778
0.00696584
0.00699405
0.00702239
0.00705088
0.00707952
0.00710832
0.00713727
0.00716638
0.00719566
0.0072251
0.00725471
0.0072845
0.00731446
0.00734459
0.00737491
0.0074054
0.00743607
0.00746693
0.00749796
0.00752918
0.00756057
0.00759214
0.00762389
0.00765581
0.0076879
0.00772014
0.00775254
0.00778508
0.00781775
0.00785055
0.00788344
0.00791642
0.00794946
0.00798254
0.00801563
0.00804868
0.00808166
0.00811451
0.00814719
0.00817964
0.00821176
0.00824349
0.00827474
0.00830539
0.00833535
0.00701087
0.00703971
0.00706867
0.00709777
0.00712699
0.00715635
0.00718585
0.0072155
0.0072453
0.00727526
0.00730537
0.00733564
0.00736608
0.00739668
0.00742746
0.00745842
0.00748955
0.00752086
0.00755235
0.00758403
0.00761589
0.00764794
0.00768018
0.0077126
0.00774521
0.00777801
0.007811
0.00784416
0.00787751
0.00791102
0.00794471
0.00797855
0.00801255
0.00804668
0.00808094
0.00811531
0.00814977
0.00818429
0.00821886
0.00825343
0.00828797
0.00832243
0.00835677
0.00839093
0.00842484
0.00845842
0.00849158
0.00852423
0.00855625
0.00858753
0.00719192
0.00722208
0.00725239
0.00728284
0.00731342
0.00734415
0.00737502
0.00740604
0.00743721
0.00746854
0.00750004
0.0075317
0.00756352
0.00759553
0.00762771
0.00766006
0.00769261
0.00772533
0.00775825
0.00779135
0.00782465
0.00785814
0.00789183
0.00792571
0.00795979
0.00799406
0.00802853
0.00806318
0.00809803
0.00813306
0.00816826
0.00820364
0.00823918
0.00827487
0.0083107
0.00834665
0.0083827
0.00841884
0.00845504
0.00849126
0.00852747
0.00856363
0.0085997
0.00863561
0.00867132
0.00870674
0.0087418
0.00877642
0.0088105
0.00884396
0.00736711
0.00739858
0.00743019
0.00746193
0.00749381
0.00752582
0.00755799
0.0075903
0.00762277
0.0076554
0.0076882
0.00772117
0.0077543
0.00778762
0.00782111
0.00785479
0.00788866
0.00792272
0.00795697
0.00799141
0.00802605
0.0080609
0.00809594
0.00813118
0.00816662
0.00820226
0.0082381
0.00827413
0.00831036
0.00834677
0.00838335
0.00842011
0.00845703
0.0084941
0.0085313
0.00856861
0.00860601
0.00864348
0.00868097
0.00871847
0.00875591
0.00879325
0.00883043
0.00886737
0.008904
0.00894021
0.0089759
0.00901093
0.00904516
0.00907841
0.00756632
0.00759938
0.0076326
0.00766596
0.00769946
0.00773311
0.00776692
0.00780087
0.00783499
0.00786928
0.00790373
0.00793835
0.00797316
0.00800814
0.00804331
0.00807867
0.00811422
0.00814997
0.00818592
0.00822207
0.00825843
0.00829499
0.00833176
0.00836875
0.00840594
0.00844334
0.00848096
0.00851879
0.00855682
0.00859506
0.0086335
0.00867213
0.00871095
0.00874995
0.00878912
0.00882844
0.0088679
0.00890747
0.00894715
0.00898689
0.00902666
0.00906644
0.00910618
0.00914582
0.00918532
0.00922461
0.00926363
0.00930229
0.00934053
0.00937827
0.00773059
0.00776507
0.00779969
0.00783442
0.0078693
0.00790432
0.00793948
0.00797479
0.00801026
0.00804589
0.00808169
0.00811766
0.0081538
0.00819013
0.00822663
0.00826333
0.00830022
0.0083373
0.00837458
0.00841206
0.00844975
0.00848764
0.00852574
0.00856405
0.00860256
0.00864129
0.00868022
0.00871935
0.00875869
0.00879821
0.00883792
0.00887781
0.00891787
0.00895808
0.00899842
0.00903887
0.00907941
0.00912
0.00916062
0.00920122
0.00924174
0.00928213
0.00932231
0.00936221
0.00940172
0.00944073
0.00947909
0.00951665
0.00955321
0.00958854
0.00798453
0.00802113
0.00805789
0.00809479
0.00813183
0.008169
0.00820632
0.00824379
0.00828141
0.00831919
0.00835713
0.00839523
0.00843351
0.00847196
0.00851059
0.0085494
0.0085884
0.00862759
0.00866697
0.00870656
0.00874634
0.00878632
0.00882652
0.00886691
0.00890752
0.00894833
0.00898935
0.00903057
0.00907199
0.00911361
0.00915542
0.0091974
0.00923957
0.00928189
0.00932435
0.00936694
0.00940964
0.00945242
0.00949525
0.0095381
0.00958094
0.00962371
0.00966638
0.00970889
0.00975119
0.00979322
0.00983493
0.00987627
0.00991719
0.00995768
0.00827753
0.00831776
0.00835801
0.00839831
0.00843865
0.00847905
0.00851951
0.00856002
0.00860061
0.00864126
0.00868199
0.0087228
0.00876369
0.00880467
0.00884575
0.00888693
0.00892821
0.0089696
0.0090111
0.00905272
0.00909445
0.0091363
0.00917826
0.00922034
0.00926252
0.0093048
0.00934716
0.0093896
0.0094321
0.00947464
0.00951718
0.0095597
0.00960215
0.00964449
0.00968666
0.00972861
0.00977024
0.00981148
0.00985222
0.00989233
0.00993169
0.00997014
0.0100075
0.0100435
0.010078
0.0101108
0.0101414
0.0101696
0.010195
0.0102173
0.00944005
0.00949116
0.00954228
0.0095933
0.00964416
0.00969485
0.00974536
0.0097957
0.00984584
0.00989581
0.00994559
0.0099952
0.0100446
0.0100939
0.010143
0.010192
0.0102408
0.0102895
0.0103381
0.0103865
0.0104347
0.0104829
0.0105308
0.0105786
0.0106262
0.0106736
0.0107207
0.0107676
0.010814
0.0108601
0.0109056
0.0109505
0.0109947
0.011038
0.0110803
0.0111214
0.011161
0.0111989
0.0112347
0.0112682
0.0112989
0.0113264
0.0113501
0.0113693
0.0113834
0.0113915
0.0113927
0.0113859
0.01137
0.0113437
0.0136654
0.0137569
0.0138472
0.0139366
0.0140252
0.014113
0.0141999
0.0142859
0.0143711
0.0144554
0.0145387
0.0146212
0.0147027
0.0147834
0.0148632
0.0149422
0.0150203
0.0150975
0.015174
0.0152495
0.0153243
0.0153981
0.015471
0.0155429
0.0156138
0.0156835
0.0157519
0.0158188
0.0158842
0.0159477
0.016009
0.0160679
0.0161239
0.0161766
0.0162254
0.0162697
0.0163087
0.0163414
0.0163668
0.0163837
0.0163904
0.0163853
0.0163662
0.0163305
0.016275
0.0161959
0.0160881
0.0159453
0.0157596
0.01552
0.0310483
0.0312261
0.0314076
0.0315903
0.0317738
0.0319579
0.0321425
0.0323276
0.0325132
0.0326992
0.0328857
0.0330725
0.0332597
0.0334473
0.0336353
0.0338237
0.0340125
0.0342016
0.0343911
0.0345809
0.034771
0.0349612
0.0351515
0.0353416
0.0355314
0.0357206
0.035909
0.036096
0.0362814
0.0364645
0.0366447
0.0368212
0.0369931
0.0371594
0.0373186
0.0374695
0.03761
0.0377382
0.0378514
0.0379468
0.0380205
0.0380683
0.0380848
0.0380631
0.0379948
0.0378687
0.0376693
0.0373757
0.036961
0.0363869
0.113403
0.11367
0.113941
0.114215
0.114491
0.114769
0.115051
0.115336
0.115624
0.115916
0.116212
0.116512
0.116816
0.117125
0.117439
0.117757
0.11808
0.118408
0.118741
0.119079
0.119422
0.11977
0.120123
0.120481
0.120844
0.121212
0.121586
0.121964
0.122347
0.122735
0.123128
0.123525
0.123927
0.124334
0.124744
0.125158
0.125575
0.125995
0.126418
0.126842
0.127267
0.127692
0.128115
0.128535
0.128951
0.12936
0.129759
0.130146
0.130516
0.130863
0.941092
0.915544
0.891419
0.868586
0.846892
0.826206
0.806393
0.787391
0.76915
0.751628
0.734787
0.718591
0.703008
0.688009
0.673566
0.659652
0.646242
0.633313
0.620843
0.608811
0.597198
0.585985
0.575154
0.564689
0.554574
0.544794
0.535335
0.526184
0.517329
0.508757
0.500457
0.492419
0.484632
0.477087
0.469776
0.462691
0.455822
0.449165
0.442698
0.436399
0.430259
0.424268
0.418414
0.412685
0.407066
0.401538
0.396075
0.390634
0.385141
0.379454
0.929455
0.887359
0.848051
0.811243
0.776787
0.744518
0.714304
0.685979
0.659388
0.634391
0.610863
0.588687
0.567762
0.547994
0.529297
0.511595
0.494816
0.478897
0.46378
0.449409
0.435735
0.422714
0.410303
0.398464
0.387161
0.376362
0.366035
0.356153
0.346689
0.337618
0.328919
0.320568
0.312546
0.304833
0.297409
0.290259
0.283364
0.276709
0.270291
0.264111
0.258156
0.252416
0.246879
0.241535
0.236374
0.231386
0.226562
0.221889
0.217356
0.212945
0.929404
0.887197
0.847667
0.810679
0.77604
0.743573
0.713106
0.684479
0.657546
0.632176
0.608248
0.585655
0.564298
0.544089
0.524946
0.506797
0.489572
0.473211
0.457657
0.442857
0.428764
0.415334
0.402526
0.390303
0.378629
0.367472
0.356802
0.346591
0.336815
0.327447
0.318467
0.309853
0.301586
0.293648
0.286024
0.278696
0.271651
0.264874
0.258353
0.252076
0.246032
0.24021
0.2346
0.229194
0.223983
0.218959
0.214115
0.209445
0.204942
0.2006
0.929405
0.8875
0.848317
0.81165
0.777288
0.74504
0.714738
0.686227
0.659369
0.63404
0.610127
0.587527
0.566147
0.545902
0.526713
0.508509
0.491225
0.4748
0.459179
0.444311
0.430149
0.416649
0.403771
0.391478
0.379735
0.368511
0.357775
0.3475
0.337661
0.328234
0.319195
0.310525
0.302204
0.294214
0.286539
0.279162
0.272068
0.265245
0.258679
0.252358
0.246271
0.240407
0.234757
0.229312
0.224062
0.219001
0.214121
0.209414
0.204874
0.200494
0.929405
0.887507
0.848309
0.811599
0.777181
0.744876
0.71452
0.685964
0.659072
0.633721
0.609795
0.587191
0.565815
0.54558
0.526406
0.508221
0.490958
0.474556
0.45896
0.444117
0.429979
0.416504
0.403651
0.391382
0.379662
0.368459
0.357745
0.34749
0.337669
0.328259
0.319237
0.310582
0.302275
0.294298
0.286634
0.279267
0.272184
0.265369
0.25881
0.252495
0.246412
0.240552
0.234905
0.22946
0.22421
0.219147
0.214262
0.209548
0.204999
0.200607
0.929405
0.88753
0.848379
0.811728
0.777377
0.745142
0.714854
0.686362
0.659527
0.634224
0.610339
0.587768
0.566417
0.5462
0.527039
0.508861
0.491602
0.4752
0.459599
0.44475
0.430604
0.417119
0.404254
0.391972
0.380238
0.369021
0.358292
0.348021
0.338185
0.328759
0.31972
0.311049
0.302726
0.294732
0.287052
0.279669
0.272569
0.265737
0.259161
0.252829
0.246729
0.240851
0.235185
0.229722
0.224452
0.219367
0.21446
0.209722
0.205147
0.200727
0.929405
0.887535
0.848393
0.811748
0.777397
0.745156
0.714856
0.686348
0.659495
0.634174
0.61027
0.587682
0.566316
0.546086
0.526914
0.508728
0.491461
0.475054
0.459451
0.4446
0.430454
0.41697
0.404106
0.391827
0.380097
0.368884
0.358159
0.347893
0.338062
0.328641
0.319608
0.310942
0.302623
0.294635
0.286959
0.27958
0.272484
0.265656
0.259083
0.252753
0.246655
0.240778
0.235112
0.229647
0.224376
0.219288
0.214376
0.209632
0.205049
0.20062
0.929405
0.887538
0.848403
0.811769
0.77743
0.745202
0.714917
0.686425
0.659589
0.634284
0.610396
0.587824
0.566472
0.546255
0.527094
0.508917
0.491659
0.475259
0.459661
0.444814
0.430671
0.417188
0.404325
0.392045
0.380314
0.369099
0.35837
0.348101
0.338265
0.328838
0.319799
0.311127
0.302802
0.294807
0.287123
0.279736
0.272631
0.265794
0.259211
0.252871
0.246762
0.240873
0.235195
0.229717
0.22443
0.219327
0.214398
0.209636
0.205034
0.200584
0.929405
0.887539
0.848407
0.811776
0.777441
0.745214
0.71493
0.686437
0.659598
0.634289
0.610397
0.587818
0.56646
0.546237
0.52707
0.508887
0.491623
0.475217
0.459615
0.444763
0.430616
0.41713
0.404265
0.391982
0.380249
0.369032
0.358302
0.348032
0.338195
0.328768
0.319729
0.311056
0.302731
0.294735
0.287051
0.279663
0.272557
0.265718
0.259133
0.252791
0.246679
0.240787
0.235104
0.229621
0.224329
0.219219
0.214282
0.209511
0.204899
0.200437
0.929405
0.88754
0.848409
0.81178
0.777446
0.745222
0.714941
0.68645
0.659614
0.634308
0.610419
0.587843
0.566489
0.546268
0.527104
0.508924
0.491663
0.47526
0.459659
0.44481
0.430664
0.417179
0.404314
0.392032
0.380299
0.369081
0.358351
0.348079
0.338241
0.328812
0.319771
0.311096
0.302767
0.294768
0.28708
0.279688
0.272577
0.265733
0.259143
0.252794
0.246675
0.240776
0.235084
0.229592
0.224289
0.219168
0.214218
0.209434
0.204807
0.200329
0.929405
0.88754
0.848409
0.81178
0.777446
0.745222
0.714941
0.68645
0.659614
0.634307
0.610418
0.587843
0.566488
0.546267
0.527103
0.508923
0.491661
0.475258
0.459656
0.444806
0.43066
0.417175
0.404309
0.392026
0.380291
0.369073
0.358341
0.348069
0.338229
0.328799
0.319755
0.311078
0.302747
0.294745
0.287055
0.279659
0.272545
0.265697
0.259102
0.252748
0.246624
0.240717
0.235019
0.229518
0.224207
0.219075
0.214115
0.209319
0.204678
0.200187
0.929405
0.887539
0.848407
0.811776
0.77744
0.745214
0.71493
0.686437
0.659597
0.634288
0.610395
0.587816
0.566458
0.546233
0.527065
0.508882
0.491617
0.47521
0.459606
0.444754
0.430605
0.417118
0.40425
0.391966
0.38023
0.36901
0.358277
0.348004
0.338163
0.328732
0.319687
0.311009
0.302677
0.294674
0.286982
0.279585
0.272469
0.265618
0.259021
0.252664
0.246536
0.240625
0.234922
0.229415
0.224097
0.218958
0.213989
0.209183
0.204532
0.200029
0.929405
0.887538
0.848403
0.811769
0.77743
0.745201
0.714917
0.686424
0.659587
0.634281
0.610393
0.58782
0.566467
0.546249
0.527087
0.508909
0.491649
0.475247
0.459647
0.444797
0.430652
0.417166
0.4043
0.392016
0.38028
0.36906
0.358326
0.34805
0.338208
0.328774
0.319726
0.311045
0.302709
0.294701
0.287004
0.279602
0.27248
0.265623
0.259018
0.252654
0.246517
0.240597
0.234884
0.229367
0.224037
0.218885
0.213903
0.209083
0.204416
0.199896
0.929405
0.887535
0.848393
0.811748
0.777397
0.745155
0.714855
0.686346
0.659493
0.634171
0.610266
0.587677
0.56631
0.546079
0.526905
0.508717
0.491448
0.475039
0.459433
0.444579
0.43043
0.416941
0.404074
0.39179
0.380054
0.368835
0.358103
0.34783
0.337989
0.328558
0.319514
0.310835
0.302502
0.294498
0.286803
0.279404
0.272284
0.265429
0.258827
0.252463
0.246328
0.240408
0.234694
0.229176
0.223844
0.218689
0.213703
0.208877
0.204203
0.199675
0.929405
0.88753
0.848379
0.811728
0.777377
0.745141
0.714853
0.68636
0.659524
0.63422
0.610333
0.587761
0.566409
0.54619
0.527027
0.508846
0.491584
0.475179
0.459575
0.444721
0.430571
0.41708
0.404209
0.391921
0.38018
0.368954
0.358215
0.347935
0.338087
0.328647
0.319594
0.310907
0.302565
0.294551
0.286848
0.279438
0.272308
0.265443
0.25883
0.252455
0.246308
0.240376
0.23465
0.229118
0.223772
0.218601
0.213599
0.208755
0.204064
0.199515
0.929405
0.887507
0.848309
0.811599
0.777181
0.744875
0.714518
0.685961
0.659069
0.633716
0.609789
0.587184
0.565806
0.545569
0.526392
0.508204
0.490939
0.474533
0.458933
0.444085
0.429943
0.416463
0.403603
0.391326
0.379598
0.368387
0.357662
0.347395
0.337561
0.328136
0.319097
0.310423
0.302094
0.294093
0.286401
0.279004
0.271885
0.26503
0.258427
0.252061
0.245922
0.239998
0.234278
0.228752
0.22341
0.218243
0.213242
0.2084
0.203707
0.199157
0.929405
0.8875
0.848317
0.811649
0.777287
0.745039
0.714736
0.686224
0.659365
0.634035
0.61012
0.587519
0.566136
0.545888
0.526696
0.508489
0.491201
0.474772
0.459147
0.444273
0.430105
0.416598
0.403712
0.391411
0.379658
0.368423
0.357676
0.347387
0.337533
0.328088
0.319031
0.310339
0.301994
0.293978
0.286272
0.278861
0.271729
0.264863
0.258248
0.251873
0.245724
0.239792
0.234064
0.228532
0.223185
0.218015
0.213013
0.208172
0.203484
0.198945
0.929404
0.887197
0.847667
0.810679
0.77604
0.743571
0.713104
0.684476
0.657542
0.63217
0.608241
0.585646
0.564287
0.544076
0.524931
0.506778
0.48955
0.473185
0.457627
0.442823
0.428726
0.41529
0.402477
0.390247
0.378566
0.367402
0.356725
0.346506
0.336721
0.327344
0.318354
0.30973
0.301452
0.293502
0.285862
0.278518
0.271455
0.264658
0.258114
0.251812
0.245741
0.239889
0.234249
0.22881
0.223567
0.218511
0.21364
0.208951
0.204446
0.200135
0.929455
0.887359
0.848051
0.811243
0.776787
0.744517
0.714303
0.685978
0.659388
0.634391
0.610863
0.588689
0.567765
0.547998
0.529303
0.511603
0.494828
0.478914
0.463801
0.449436
0.43577
0.422758
0.410359
0.398534
0.387248
0.376469
0.366167
0.356314
0.346885
0.337857
0.329208
0.320917
0.312966
0.305339
0.298019
0.290993
0.284246
0.277768
0.271548
0.265577
0.259845
0.254348
0.249079
0.244035
0.239217
0.234627
0.230274
0.22618
0.222386
0.218983
0.941092
0.915544
0.891419
0.868586
0.846892
0.826206
0.806392
0.787389
0.769146
0.751622
0.734778
0.71858
0.702994
0.687991
0.673543
0.659623
0.646207
0.63327
0.620792
0.60875
0.597126
0.585899
0.575053
0.564571
0.554436
0.544633
0.535148
0.525967
0.517077
0.508465
0.50012
0.492029
0.484183
0.476569
0.469179
0.462003
0.45503
0.448252
0.44166
0.435245
0.428998
0.422911
0.416975
0.411181
0.40552
0.399983
0.39456
0.389238
0.384005
0.37884
0.172125
0.0506682
0.0302792
0.0280062
0.0268601
0.0264916
0.0257006
0.0252196
0.0245571
0.0240082
0.0234514
0.0228504
0.0223918
0.0217354
0.0213735
0.02064
0.0205674
0.0213288
0.0346629
0.121198
0.172539
0.0509127
0.0304954
0.0282204
0.027073
0.0267
0.0259066
0.0254213
0.024756
0.024203
0.0236434
0.0230384
0.0225769
0.0219167
0.0215519
0.0208145
0.02074
0.0215046
0.0348868
0.121534
0.172957
0.0511497
0.030713
0.0284371
0.0272884
0.0269111
0.0261151
0.0256254
0.0249574
0.0244002
0.0238378
0.0232289
0.0227645
0.0221004
0.0217327
0.0209913
0.0209149
0.0216825
0.0351096
0.12184
0.17338
0.051385
0.0309324
0.0286564
0.0275064
0.0271247
0.0263262
0.0258321
0.0251614
0.0246
0.0240347
0.0234218
0.0229545
0.0222866
0.0219159
0.0211707
0.0210921
0.021862
0.0353178
0.12215
0.173806
0.0516207
0.031154
0.0288783
0.0277271
0.027341
0.0265399
0.0260413
0.0253679
0.0248023
0.0242341
0.0236172
0.0231469
0.0224752
0.0221015
0.0213525
0.0212715
0.0220421
0.0355212
0.122465
0.174237
0.051858
0.0313782
0.0291029
0.0279505
0.0275599
0.0267564
0.0262532
0.0255771
0.0250072
0.0244362
0.0238152
0.023342
0.0226664
0.0222895
0.0215367
0.0214533
0.0222234
0.035723
0.122785
0.174673
0.0520976
0.031605
0.0293303
0.0281768
0.0277815
0.0269755
0.0264678
0.0257889
0.0252148
0.0246408
0.0240158
0.0235395
0.0228602
0.0224801
0.0217235
0.0216374
0.0224064
0.0359248
0.12311
0.175112
0.0523397
0.0318346
0.0295604
0.0284058
0.028006
0.0271975
0.0266851
0.0260035
0.025425
0.0248482
0.0242191
0.0237397
0.0230565
0.0226733
0.0219129
0.021824
0.0225913
0.0361276
0.123438
0.175557
0.0525844
0.0320672
0.0297934
0.0286377
0.0282332
0.0274222
0.0269052
0.0262209
0.025638
0.0250582
0.024425
0.0239426
0.0232555
0.0228691
0.0221047
0.0220131
0.0227783
0.0363318
0.123772
0.176005
0.0528321
0.0323026
0.0300293
0.0288726
0.0284633
0.0276499
0.0271281
0.026441
0.0258537
0.025271
0.0246337
0.0241481
0.0234572
0.0230676
0.0222992
0.0222047
0.0229677
0.0365379
0.12411
0.176458
0.0530827
0.0325411
0.0302682
0.0291105
0.0286963
0.0278804
0.0273539
0.0266641
0.0260723
0.0254866
0.0248451
0.0243564
0.0236616
0.0232687
0.0224963
0.0223988
0.0231594
0.0367462
0.124453
0.176916
0.0533362
0.0327827
0.0305101
0.0293513
0.0289323
0.028114
0.0275826
0.02689
0.0262938
0.025705
0.0250594
0.0245675
0.0238688
0.0234726
0.0226962
0.0225957
0.0233537
0.0369568
0.1248
0.177379
0.0535928
0.0330274
0.030755
0.0295953
0.0291713
0.0283505
0.0278143
0.0271189
0.0265181
0.0259264
0.0252765
0.0247814
0.0240788
0.0236792
0.0228987
0.0227952
0.0235505
0.03717
0.125152
0.177846
0.0538525
0.0332754
0.031003
0.0298424
0.0294134
0.0285902
0.028049
0.0273508
0.0267455
0.0261507
0.0254966
0.0249982
0.0242916
0.0238887
0.0231041
0.0229974
0.02375
0.0373858
0.125509
0.178318
0.0541154
0.0335265
0.0312542
0.0300927
0.0296586
0.0288329
0.0282867
0.0275858
0.0269758
0.026378
0.0257196
0.025218
0.0245074
0.024101
0.0233123
0.0232024
0.0239523
0.0376043
0.12587
0.178795
0.0543814
0.0337809
0.0315086
0.0303462
0.0299069
0.0290788
0.0285276
0.0278239
0.0272093
0.0266083
0.0259456
0.0254408
0.0247261
0.0243163
0.0235233
0.0234103
0.0241573
0.0378258
0.126237
0.179276
0.0546505
0.0340386
0.0317663
0.030603
0.0301585
0.029328
0.0287717
0.0280651
0.0274458
0.0268418
0.0261747
0.0256666
0.0249478
0.0245345
0.0237373
0.0236211
0.0243652
0.0380502
0.126609
0.179763
0.0549229
0.0342997
0.0320272
0.0308631
0.0304133
0.0295804
0.029019
0.0283096
0.0276856
0.0270783
0.026407
0.0258954
0.0251726
0.0247557
0.0239544
0.0238348
0.024576
0.0382776
0.126985
0.180255
0.0551986
0.0345642
0.0322915
0.0311267
0.0306715
0.0298362
0.0292695
0.0285574
0.0279285
0.0273181
0.0266424
0.0261275
0.0254005
0.02498
0.0241744
0.0240515
0.0247898
0.0385081
0.127367
0.180752
0.0554776
0.0348322
0.0325593
0.0313937
0.0309331
0.0300954
0.0295235
0.0288084
0.0281748
0.0275612
0.0268811
0.0263627
0.0256316
0.0252075
0.0243976
0.0242712
0.0250066
0.0387419
0.127754
0.181254
0.0557598
0.0351037
0.0328305
0.0316642
0.0311981
0.030358
0.0297808
0.0290629
0.0284244
0.0278076
0.027123
0.0266012
0.0258659
0.0254381
0.0246239
0.0244941
0.0252265
0.0389789
0.128147
0.181761
0.0560455
0.0353788
0.0331052
0.0319383
0.0314666
0.0306241
0.0300415
0.0293208
0.0286774
0.0280573
0.0273683
0.0268429
0.0261035
0.025672
0.0248535
0.0247202
0.0254496
0.0392193
0.128544
0.182274
0.0563345
0.0356576
0.0333836
0.032216
0.0317387
0.0308938
0.0303058
0.0295822
0.0289339
0.0283105
0.027617
0.0270881
0.0263444
0.0259092
0.0250863
0.0249494
0.025676
0.039463
0.128948
0.182792
0.056627
0.03594
0.0336656
0.0324974
0.0320144
0.0311672
0.0305737
0.0298472
0.0291939
0.0285672
0.0278692
0.0273367
0.0265887
0.0261497
0.0253225
0.025182
0.0259056
0.0397103
0.129357
0.183316
0.056923
0.0362262
0.0339513
0.0327826
0.0322937
0.0314442
0.0308452
0.0301158
0.0294575
0.0288275
0.0281249
0.0275888
0.0268366
0.0263937
0.025562
0.0254179
0.0261386
0.039961
0.129771
0.183845
0.0572225
0.0365162
0.0342408
0.0330716
0.0325769
0.0317249
0.0311204
0.0303881
0.0297247
0.0290914
0.0283842
0.0278444
0.0270879
0.0266411
0.0258051
0.0256572
0.026375
0.0402154
0.130191
0.184379
0.0575256
0.0368101
0.0345342
0.0333644
0.0328638
0.0320095
0.0313994
0.0306641
0.0299957
0.0293589
0.0286472
0.0281037
0.0273428
0.0268921
0.0260516
0.0258999
0.0266149
0.0404735
0.130618
0.184919
0.0578323
0.0371079
0.0348314
0.0336612
0.0331547
0.032298
0.0316822
0.030944
0.0302704
0.0296303
0.0289139
0.0283666
0.0276015
0.0271467
0.0263018
0.0261463
0.0268583
0.0407353
0.13105
0.185465
0.0581427
0.0374097
0.0351326
0.0339621
0.0334495
0.0325905
0.0319689
0.0312277
0.030549
0.0299054
0.0291844
0.0286333
0.0278638
0.027405
0.0265556
0.0263962
0.0271054
0.041001
0.131488
0.186017
0.0584568
0.0377156
0.0354379
0.034267
0.0337483
0.032887
0.0322596
0.0315155
0.0308315
0.0301845
0.0294588
0.0289039
0.02813
0.0276671
0.0268132
0.0266498
0.0273562
0.0412705
0.131932
0.186574
0.0587747
0.0380256
0.0357473
0.0345761
0.0340512
0.0331876
0.0325544
0.0318072
0.0311181
0.0304675
0.0297371
0.0291783
0.0284
0.0279329
0.0270746
0.0269072
0.0276107
0.0415441
0.132383
0.187138
0.0590965
0.0383399
0.0360609
0.0348895
0.0343583
0.0334923
0.0328533
0.0321031
0.0314086
0.0307545
0.0300195
0.0294567
0.028674
0.0282027
0.0273398
0.0271684
0.0278691
0.0418216
0.132839
0.187707
0.0594222
0.0386584
0.0363788
0.0352071
0.0346696
0.0338013
0.0331563
0.0324032
0.0317034
0.0310457
0.0303059
0.0297392
0.028952
0.0284765
0.027609
0.0274335
0.0281314
0.0421034
0.133303
0.188282
0.0597518
0.0389813
0.036701
0.0355292
0.0349852
0.0341147
0.0334637
0.0327075
0.0320024
0.0313411
0.0305965
0.0300258
0.0292341
0.0287543
0.0278823
0.0277025
0.0283977
0.0423893
0.133773
0.188864
0.0600855
0.0393087
0.0370276
0.0358557
0.0353053
0.0344324
0.0337754
0.0330162
0.0323056
0.0316407
0.0308913
0.0303166
0.0295204
0.0290362
0.0281596
0.0279756
0.0286681
0.0426795
0.134249
0.189451
0.0604232
0.0396405
0.0373587
0.0361867
0.0356298
0.0347546
0.0340915
0.0333293
0.0326133
0.0319448
0.0311905
0.0306117
0.029811
0.0293224
0.0284412
0.0282529
0.0289426
0.0429741
0.134733
0.190045
0.0607652
0.039977
0.0376944
0.0365224
0.0359589
0.0350814
0.0344122
0.0336469
0.0329254
0.0322532
0.0314941
0.0309112
0.0301059
0.0296128
0.028727
0.0285344
0.0292214
0.0432731
0.135223
0.190645
0.0611113
0.0403181
0.0380348
0.0368628
0.0362926
0.0354129
0.0347375
0.0339691
0.0332421
0.0325662
0.0318022
0.0312151
0.0304052
0.0299077
0.0290172
0.0288201
0.0295045
0.0435767
0.13572
0.191252
0.0614617
0.040664
0.03838
0.0372081
0.0366311
0.0357491
0.0350675
0.0342959
0.0335635
0.0328838
0.0321149
0.0315235
0.0307091
0.030207
0.0293119
0.0291103
0.029792
0.043885
0.136225
0.191865
0.0618166
0.0410148
0.0387299
0.0375582
0.0369744
0.0360902
0.0354022
0.0346276
0.0338895
0.033206
0.0324322
0.0318366
0.0310176
0.0305109
0.0296111
0.0294049
0.0300841
0.044198
0.136736
0.192485
0.0621758
0.0413705
0.0390848
0.0379133
0.0373226
0.0364361
0.0357419
0.0349641
0.0342204
0.0335331
0.0327543
0.0321545
0.0313308
0.0308194
0.0299149
0.0297041
0.0303807
0.0445158
0.137256
0.193111
0.0625396
0.0417313
0.0394448
0.0382734
0.0376759
0.0367871
0.0360865
0.0353056
0.0345562
0.0338651
0.0330813
0.0324771
0.0316488
0.0311327
0.0302234
0.030008
0.030682
0.0448385
0.137782
0.193744
0.062908
0.0420971
0.0398098
0.0386388
0.0380342
0.0371432
0.0364362
0.0356521
0.0348971
0.0342021
0.0334133
0.0328047
0.0319717
0.0314508
0.0305368
0.0303166
0.0309882
0.0451663
0.138317
0.194384
0.0632811
0.0424682
0.0401801
0.0390094
0.0383978
0.0375046
0.036791
0.0360038
0.035243
0.0345441
0.0337503
0.0331373
0.0322996
0.0317738
0.0308551
0.0306301
0.0312992
0.0454992
0.138859
0.195031
0.0636589
0.0428446
0.0405557
0.0393854
0.0387666
0.0378712
0.0371512
0.0363607
0.0355942
0.0348914
0.0340925
0.033475
0.0326326
0.0321019
0.0311785
0.0309486
0.0316152
0.0458373
0.139409
0.195685
0.0640416
0.0432265
0.0409367
0.0397669
0.0391409
0.0382433
0.0375167
0.036723
0.0359507
0.0352439
0.03444
0.0338179
0.0329708
0.0324352
0.031507
0.0312721
0.0319364
0.0461808
0.139967
0.196346
0.0644292
0.0436138
0.0413232
0.040154
0.0395207
0.0386208
0.0378876
0.0370907
0.0363127
0.0356018
0.0347928
0.0341662
0.0333143
0.0327737
0.0318407
0.0316009
0.0322627
0.0465298
0.140534
0.197014
0.0648219
0.0440068
0.0417154
0.0405467
0.0399061
0.0390041
0.0382642
0.037464
0.0366802
0.0359653
0.0351512
0.0345199
0.0336633
0.0331176
0.0321798
0.0319349
0.0325944
0.0468843
0.141109
0.19769
0.0652196
0.0444056
0.0421133
0.0409452
0.0402972
0.039393
0.0386465
0.0378431
0.0370533
0.0363343
0.0355151
0.0348792
0.0340178
0.0334669
0.0325243
0.0322743
0.0329315
0.0472446
0.141693
0.198372
0.0656226
0.0448101
0.0425171
0.0413497
0.0406942
0.0397879
0.0390346
0.0382279
0.0374322
0.0367092
0.0358848
0.0352441
0.034378
0.0338219
0.0328745
0.0326192
0.0332742
0.0476106
0.142285
0.199063
0.0660309
0.0452207
0.0429268
0.0417602
0.0410972
0.0401887
0.0394286
0.0386186
0.0378171