/*--------------------------------*- C++ -*----------------------------------*\
  =========                 |
  \\      /  F ield         | OpenFOAM: The Open Source CFD Toolbox
   \\    /   O peration     | Website:  https://openfoam.org
    \\  /    A nd           | Version:  8
     \\/     M anipulation  |
\*---------------------------------------------------------------------------*/
FoamFile
{
    version     2.0;
    format      ascii;
    class       volScalarField;
    location    "300";
    object      nut;
}
// * * * * * * * * * * * * * * * * * * * * * * * * * * * * * * * * * * * * * //

dimensions      [0 2 -1 0 0 0 0];

internalField   nonuniform List<scalar> 
8400
(
0.000348299
0.000347971
0.000347641
0.00034731
0.000346978
0.000346645
0.00034631
0.000345973
0.000345634
0.000345292
0.000344948
0.000344602
0.000344252
0.000343899
0.000343542
0.000343182
0.000342818
0.000342449
0.000342077
0.000341699
0.000341316
0.000340929
0.000340536
0.000340137
0.000339734
0.000339324
0.000338911
0.000338497
0.000338083
0.000337671
0.000337263
0.000336859
0.000336462
0.000336074
0.000335697
0.000335334
0.00033499
0.000334668
0.000334372
0.000334108
0.000333884
0.000333706
0.000333584
0.000333531
0.00033356
0.000333692
0.00033395
0.00033437
0.000334995
0.000335886
0.000147342
0.000147423
0.000147498
0.00014757
0.000147641
0.000147711
0.000147781
0.000147849
0.000147917
0.000147984
0.00014805
0.000148115
0.000148179
0.000148243
0.000148306
0.000148369
0.000148432
0.000148496
0.00014856
0.000148626
0.000148694
0.000148764
0.000148838
0.000148917
0.000149001
0.000149092
0.00014919
0.00014929
0.000149394
0.000149501
0.000149613
0.000149731
0.000149854
0.000149985
0.000150124
0.000150273
0.000150432
0.000150605
0.000150792
0.000150997
0.000151221
0.000151468
0.000151742
0.000152048
0.00015239
0.000152777
0.000153217
0.000153722
0.000154307
0.000154994
9.2947e-05
9.31302e-05
9.33138e-05
9.34973e-05
9.36805e-05
9.38635e-05
9.4046e-05
9.42281e-05
9.44097e-05
9.45909e-05
9.47716e-05
9.49519e-05
9.51317e-05
9.53111e-05
9.54903e-05
9.56692e-05
9.5848e-05
9.60268e-05
9.62059e-05
9.63853e-05
9.65654e-05
9.67465e-05
9.69287e-05
9.71129e-05
9.72992e-05
9.74884e-05
9.76787e-05
9.78693e-05
9.80603e-05
9.82518e-05
9.84439e-05
9.86369e-05
9.88307e-05
9.90256e-05
9.92219e-05
9.94198e-05
9.96196e-05
9.98216e-05
0.000100026
0.000100234
0.000100445
0.000100661
0.000100882
0.000101109
0.000101343
0.000101585
0.000101838
0.000102103
0.000102383
0.000102681
8.76192e-05
8.77877e-05
8.79565e-05
8.81257e-05
8.82953e-05
8.84654e-05
8.86359e-05
8.88069e-05
8.89784e-05
8.91503e-05
8.93228e-05
8.94957e-05
8.96693e-05
8.98433e-05
9.00179e-05
9.01931e-05
9.03689e-05
9.05453e-05
9.07224e-05
9.09001e-05
9.10786e-05
9.12579e-05
9.14379e-05
9.16185e-05
9.17998e-05
9.19817e-05
9.21642e-05
9.23474e-05
9.25313e-05
9.27158e-05
9.29009e-05
9.30868e-05
9.32733e-05
9.34605e-05
9.36484e-05
9.38371e-05
9.40265e-05
9.42166e-05
9.44075e-05
9.45993e-05
9.47919e-05
9.49854e-05
9.51798e-05
9.53753e-05
9.55718e-05
9.57696e-05
9.59687e-05
9.61693e-05
9.63718e-05
9.65765e-05
8.77888e-05
8.79533e-05
8.81184e-05
8.8284e-05
8.84502e-05
8.86169e-05
8.87842e-05
8.89521e-05
8.91207e-05
8.92899e-05
8.94598e-05
8.96303e-05
8.98015e-05
8.99735e-05
9.01462e-05
9.03197e-05
9.04939e-05
9.06689e-05
9.08446e-05
9.10211e-05
9.11983e-05
9.13763e-05
9.15551e-05
9.17346e-05
9.19148e-05
9.20958e-05
9.22774e-05
9.24598e-05
9.26428e-05
9.28264e-05
9.30106e-05
9.31953e-05
9.33805e-05
9.35661e-05
9.37521e-05
9.39383e-05
9.41247e-05
9.4311e-05
9.44973e-05
9.46833e-05
9.48688e-05
9.50536e-05
9.52375e-05
9.542e-05
9.56008e-05
9.57795e-05
9.59554e-05
9.6128e-05
9.62964e-05
9.64596e-05
8.92965e-05
8.9468e-05
8.96401e-05
8.98126e-05
8.99857e-05
9.01593e-05
9.03334e-05
9.05081e-05
9.06834e-05
9.08593e-05
9.10358e-05
9.1213e-05
9.13908e-05
9.15693e-05
9.17485e-05
9.19284e-05
9.21089e-05
9.22901e-05
9.24721e-05
9.26548e-05
9.28382e-05
9.30224e-05
9.32073e-05
9.33929e-05
9.35793e-05
9.37665e-05
9.39543e-05
9.41429e-05
9.43322e-05
9.45221e-05
9.47127e-05
9.4904e-05
9.50958e-05
9.52882e-05
9.54812e-05
9.56745e-05
9.58683e-05
9.60623e-05
9.62566e-05
9.64509e-05
9.66453e-05
9.68394e-05
9.70333e-05
9.72266e-05
9.74192e-05
9.76108e-05
9.78012e-05
9.79901e-05
9.81771e-05
9.83618e-05
9.0301e-05
9.04762e-05
9.0652e-05
9.08283e-05
9.10052e-05
9.11825e-05
9.13604e-05
9.1539e-05
9.17181e-05
9.18978e-05
9.20783e-05
9.22593e-05
9.24411e-05
9.26236e-05
9.28068e-05
9.29906e-05
9.31752e-05
9.33606e-05
9.35467e-05
9.37336e-05
9.39212e-05
9.41096e-05
9.42987e-05
9.44886e-05
9.46793e-05
9.48707e-05
9.50627e-05
9.52555e-05
9.54489e-05
9.5643e-05
9.58376e-05
9.60328e-05
9.62285e-05
9.64245e-05
9.66209e-05
9.68174e-05
9.70141e-05
9.72108e-05
9.74072e-05
9.76033e-05
9.77987e-05
9.79933e-05
9.81868e-05
9.83787e-05
9.85688e-05
9.87565e-05
9.89413e-05
9.91226e-05
9.92996e-05
9.94717e-05
9.16525e-05
9.18343e-05
9.20166e-05
9.21994e-05
9.23827e-05
9.25665e-05
9.27509e-05
9.29358e-05
9.31213e-05
9.33075e-05
9.34943e-05
9.36817e-05
9.38698e-05
9.40586e-05
9.4248e-05
9.44382e-05
9.46291e-05
9.48207e-05
9.50131e-05
9.52063e-05
9.54001e-05
9.55948e-05
9.57902e-05
9.59863e-05
9.61832e-05
9.63809e-05
9.65793e-05
9.67783e-05
9.69781e-05
9.71785e-05
9.73796e-05
9.75812e-05
9.77834e-05
9.7986e-05
9.81891e-05
9.83924e-05
9.8596e-05
9.87996e-05
9.90033e-05
9.92067e-05
9.94098e-05
9.96122e-05
9.98139e-05
0.000100014
0.000100214
0.000100411
0.000100606
0.000100799
0.000100988
0.000101174
9.27736e-05
9.29605e-05
9.31479e-05
9.33359e-05
9.35243e-05
9.37133e-05
9.39028e-05
9.40929e-05
9.42836e-05
9.44749e-05
9.46669e-05
9.48594e-05
9.50527e-05
9.52467e-05
9.54413e-05
9.56367e-05
9.58328e-05
9.60297e-05
9.62273e-05
9.64257e-05
9.66248e-05
9.68247e-05
9.70254e-05
9.72268e-05
9.7429e-05
9.76319e-05
9.78356e-05
9.80399e-05
9.82449e-05
9.84506e-05
9.86568e-05
9.88636e-05
9.90709e-05
9.92786e-05
9.94866e-05
9.96948e-05
9.99031e-05
0.000100111
0.000100319
0.000100527
0.000100734
0.00010094
0.000101145
0.000101349
0.00010155
0.00010175
0.000101946
0.000102139
0.000102328
0.000102512
9.40157e-05
9.42089e-05
9.44025e-05
9.45966e-05
9.47911e-05
9.49862e-05
9.51818e-05
9.53779e-05
9.55747e-05
9.5772e-05
9.597e-05
9.61686e-05
9.6368e-05
9.6568e-05
9.67687e-05
9.69701e-05
9.71722e-05
9.73752e-05
9.75788e-05
9.77832e-05
9.79884e-05
9.81944e-05
9.84011e-05
9.86086e-05
9.88169e-05
9.90259e-05
9.92356e-05
9.94461e-05
9.96572e-05
9.9869e-05
0.000100081
0.000100294
0.000100508
0.000100722
0.000100936
0.00010115
0.000101365
0.000101579
0.000101794
0.000102007
0.000102221
0.000102433
0.000102644
0.000102854
0.000103061
0.000103266
0.000103469
0.000103667
0.000103862
0.000104052
9.52219e-05
9.54214e-05
9.56214e-05
9.58219e-05
9.60229e-05
9.62244e-05
9.64264e-05
9.6629e-05
9.68321e-05
9.70359e-05
9.72403e-05
9.74453e-05
9.7651e-05
9.78573e-05
9.80644e-05
9.82722e-05
9.84807e-05
9.869e-05
9.89e-05
9.91108e-05
9.93224e-05
9.95347e-05
9.97478e-05
9.99617e-05
0.000100176
0.000100392
0.000100608
0.000100825
0.000101043
0.000101261
0.00010148
0.000101699
0.000101919
0.00010214
0.000102361
0.000102582
0.000102803
0.000103025
0.000103246
0.000103467
0.000103687
0.000103907
0.000104125
0.000104342
0.000104558
0.000104771
0.000104982
0.00010519
0.000105394
0.000105594
9.63747e-05
9.65804e-05
9.67865e-05
9.69929e-05
9.71999e-05
9.74073e-05
9.76152e-05
9.78237e-05
9.80327e-05
9.82423e-05
9.84525e-05
9.86634e-05
9.88749e-05
9.9087e-05
9.92999e-05
9.95135e-05
9.97278e-05
9.99428e-05
0.000100159
0.000100375
0.000100592
0.000100811
0.000101029
0.000101249
0.00010147
0.000101691
0.000101913
0.000102135
0.000102359
0.000102583
0.000102807
0.000103032
0.000103258
0.000103484
0.00010371
0.000103937
0.000104163
0.00010439
0.000104616
0.000104842
0.000105067
0.000105291
0.000105513
0.000105733
0.000105951
0.000106167
0.000106378
0.000106586
0.000106788
0.000106984
9.7669e-05
9.78822e-05
9.80959e-05
9.831e-05
9.85246e-05
9.87397e-05
9.89552e-05
9.91713e-05
9.9388e-05
9.96052e-05
9.9823e-05
0.000100041
0.00010026
0.00010048
0.000100701
0.000100922
0.000101144
0.000101366
0.000101589
0.000101813
0.000102038
0.000102264
0.00010249
0.000102718
0.000102946
0.000103174
0.000103404
0.000103634
0.000103865
0.000104097
0.00010433
0.000104563
0.000104797
0.000105031
0.000105266
0.000105501
0.000105736
0.000105972
0.000106208
0.000106443
0.000106679
0.000106914
0.000107148
0.000107381
0.000107612
0.000107842
0.00010807
0.000108295
0.000108518
0.000108737
9.87236e-05
9.89435e-05
9.91638e-05
9.93844e-05
9.96053e-05
9.98267e-05
0.000100048
0.000100271
0.000100493
0.000100717
0.000100941
0.000101165
0.00010139
0.000101615
0.000101842
0.000102069
0.000102296
0.000102524
0.000102753
0.000102983
0.000103213
0.000103445
0.000103677
0.000103909
0.000104143
0.000104377
0.000104612
0.000104847
0.000105083
0.00010532
0.000105558
0.000105796
0.000106034
0.000106273
0.000106512
0.000106751
0.00010699
0.000107229
0.000107467
0.000107705
0.000107942
0.000108178
0.000108412
0.000108643
0.000108872
0.000109098
0.00010932
0.000109536
0.000109746
0.000109949
0.000100332
0.000100562
0.000100792
0.000101022
0.000101253
0.000101484
0.000101716
0.000101948
0.00010218
0.000102413
0.000102646
0.00010288
0.000103114
0.000103349
0.000103584
0.00010382
0.000104057
0.000104294
0.000104532
0.00010477
0.000105009
0.000105249
0.000105489
0.000105731
0.000105972
0.000106215
0.000106458
0.000106702
0.000106946
0.000107191
0.000107437
0.000107683
0.00010793
0.000108176
0.000108424
0.000108671
0.000108918
0.000109166
0.000109413
0.000109659
0.000109905
0.00011015
0.000110394
0.000110637
0.000110877
0.000111116
0.000111353
0.000111586
0.000111817
0.000112045
0.000102156
0.000102404
0.000102652
0.000102899
0.000103146
0.000103392
0.000103639
0.000103885
0.000104131
0.000104377
0.000104622
0.000104868
0.000105113
0.000105359
0.000105604
0.00010585
0.000106095
0.000106341
0.000106587
0.000106833
0.000107079
0.000107325
0.000107571
0.000107817
0.000108063
0.00010831
0.000108556
0.000108802
0.000109048
0.000109294
0.000109539
0.000109783
0.000110027
0.000110269
0.00011051
0.000110749
0.000110986
0.00011122
0.00011145
0.000111677
0.000111899
0.000112115
0.000112325
0.000112527
0.00011272
0.000112903
0.000113074
0.000113231
0.000113373
0.000113497
0.000109094
0.000109389
0.000109683
0.000109976
0.000110267
0.000110557
0.000110844
0.00011113
0.000111414
0.000111697
0.000111977
0.000112256
0.000112533
0.000112809
0.000113083
0.000113356
0.000113627
0.000113897
0.000114165
0.000114432
0.000114698
0.000114962
0.000115225
0.000115486
0.000115746
0.000116003
0.000116259
0.000116513
0.000116764
0.000117012
0.000117257
0.000117498
0.000117735
0.000117967
0.000118193
0.000118411
0.000118622
0.000118823
0.000119013
0.000119191
0.000119353
0.000119498
0.000119623
0.000119724
0.000119798
0.000119841
0.000119847
0.000119811
0.000119728
0.000119589
0.000131258
0.000131697
0.000132128
0.000132554
0.000132975
0.00013339
0.0001338
0.000134205
0.000134604
0.000134998
0.000135387
0.00013577
0.000136149
0.000136522
0.00013689
0.000137253
0.000137611
0.000137965
0.000138313
0.000138657
0.000138997
0.000139331
0.000139661
0.000139985
0.000140303
0.000140616
0.000140923
0.000141222
0.000141513
0.000141796
0.000142068
0.000142329
0.000142577
0.00014281
0.000143025
0.00014322
0.000143392
0.000143536
0.000143647
0.000143721
0.000143751
0.000143728
0.000143644
0.000143487
0.000143244
0.000142895
0.000142419
0.000141785
0.000140957
0.000139881
0.000197849
0.000198415
0.00019899
0.000199568
0.000200147
0.000200726
0.000201305
0.000201884
0.000202462
0.000203041
0.000203619
0.000204196
0.000204773
0.00020535
0.000205926
0.000206502
0.000207078
0.000207653
0.000208227
0.000208801
0.000209374
0.000209946
0.000210516
0.000211085
0.000211651
0.000212214
0.000212773
0.000213326
0.000213873
0.000214412
0.000214941
0.000215458
0.000215961
0.000216445
0.000216909
0.000217347
0.000217754
0.000218125
0.000218452
0.000218727
0.000218939
0.000219077
0.000219124
0.000219062
0.000218865
0.000218502
0.000217926
0.000217075
0.000215867
0.000214184
0.000378117
0.000378563
0.000379014
0.000379468
0.000379926
0.000380388
0.000380855
0.000381326
0.000381802
0.000382284
0.000382771
0.000383265
0.000383766
0.000384273
0.000384787
0.000385308
0.000385836
0.000386372
0.000386914
0.000387465
0.000388022
0.000388587
0.000389159
0.000389739
0.000390326
0.00039092
0.000391521
0.00039213
0.000392745
0.000393368
0.000393997
0.000394632
0.000395274
0.000395921
0.000396574
0.000397231
0.000397893
0.000398558
0.000399226
0.000399895
0.000400564
0.000401232
0.000401896
0.000402555
0.000403206
0.000403844
0.000404467
0.00040507
0.000405646
0.000406184
0.00108926
0.00107437
0.00106012
0.00104646
0.00103331
0.00102061
0.0010083
0.000996345
0.000984737
0.000973455
0.000962488
0.000951821
0.000941444
0.000931347
0.00092152
0.000911952
0.000902635
0.00089356
0.000884719
0.000876104
0.000867708
0.000859523
0.000851543
0.00084376
0.000836169
0.000828763
0.000821537
0.000814486
0.000807603
0.000800884
0.000794324
0.000787919
0.000781665
0.000775557
0.000769591
0.000763765
0.000758075
0.000752519
0.000747082
0.000741748
0.000736512
0.000731366
0.000726303
0.000721313
0.000716386
0.000711505
0.000706648
0.000701778
0.000696826
0.000691662
0.0010825
0.0010577
0.00103401
0.00101132
0.000989613
0.00096884
0.000948978
0.000929972
0.000911769
0.00089432
0.000877579
0.000861503
0.000846053
0.000831194
0.000816891
0.000803114
0.000789835
0.000777026
0.000764663
0.000752723
0.000741184
0.000730025
0.000719229
0.000708776
0.000698651
0.000688838
0.000679322
0.00067009
0.000661126
0.000652421
0.00064396
0.000635733
0.000627728
0.000619934
0.000612339
0.000604933
0.000597705
0.000590645
0.000583755
0.000577043
0.0005705
0.000564122
0.0005579
0.000551829
0.000545902
0.000540111
0.000534451
0.000528911
0.00052348
0.000518142
0.00108247
0.00105761
0.00103378
0.00101097
0.000989138
0.000968225
0.000948181
0.000928955
0.000910495
0.000892757
0.000875699
0.000859281
0.000843468
0.000828227
0.000813527
0.00079934
0.000785638
0.000772399
0.000759599
0.000747216
0.000735231
0.000723625
0.00071238
0.00070148
0.000690909
0.000680654
0.0006707
0.000661033
0.000651643
0.000642518
0.000633646
0.000625018
0.000616623
0.000608455
0.000600504
0.000592762
0.000585221
0.000577876
0.000570718
0.000563742
0.000556942
0.000550313
0.000543849
0.000537546
0.0005314
0.000525407
0.000519563
0.000513866
0.000508312
0.000502898
0.00108247
0.00105779
0.00103417
0.00101158
0.000989932
0.00096918
0.000949266
0.00093014
0.000911756
0.000894073
0.000877051
0.000860654
0.000844849
0.000829606
0.000814895
0.000800689
0.000786964
0.000773695
0.000760861
0.000748442
0.000736417
0.000724769
0.00071348
0.000702535
0.000691918
0.000681616
0.000671614
0.0006619
0.000652462
0.000643289
0.00063437
0.000625695
0.000617255
0.000609041
0.000601044
0.000593256
0.000585671
0.00057828
0.000571077
0.000564057
0.000557212
0.000550539
0.000544031
0.000537684
0.000531495
0.000525458
0.00051957
0.000513827
0.000508227
0.000502766
0.00108247
0.00105779
0.00103417
0.00101155
0.000989864
0.000969073
0.000949121
0.000929962
0.000911551
0.000893847
0.000876812
0.000860408
0.000844601
0.000829361
0.000814657
0.000800462
0.00078675
0.000773496
0.00076068
0.000748278
0.000736272
0.000724643
0.000713374
0.000702449
0.000691852
0.000681568
0.000671585
0.000661889
0.000652469
0.000643313
0.000634411
0.000625752
0.000617327
0.000609127
0.000601144
0.000593369
0.000585795
0.000578415
0.000571222
0.00056421
0.000557373
0.000550706
0.000544202
0.000537859
0.00053167
0.000525632
0.000519741
0.000513992
0.000508382
0.000502906
0.00108247
0.00105781
0.00103421
0.00101163
0.000989989
0.000969246
0.000949343
0.000930232
0.000911865
0.000894202
0.000877203
0.00086083
0.00084505
0.000829832
0.000815147
0.000800966
0.000787266
0.000774021
0.000761209
0.000748811
0.000736807
0.000725178
0.000713907
0.000702978
0.000692377
0.000682088
0.000672098
0.000662395
0.000652967
0.000643803
0.000634891
0.000626223
0.000617788
0.000609577
0.000601582
0.000593795
0.000586209
0.000578816
0.000571609
0.000564583
0.000557731
0.000551047
0.000544527
0.000538165
0.000531956
0.000525896
0.000519981
0.000514206
0.000508566
0.000503058
0.00108247
0.00105781
0.00103422
0.00101164
0.000990002
0.000969255
0.000949344
0.000930222
0.000911844
0.000894167
0.000877153
0.000860767
0.000844975
0.000829746
0.00081505
0.000800861
0.000787153
0.000773902
0.000761086
0.000748685
0.000736678
0.000725048
0.000713777
0.000702848
0.000692248
0.000681961
0.000671974
0.000662274
0.000652849
0.000643688
0.00063478
0.000626115
0.000617683
0.000609476
0.000601485
0.000593701
0.000586118
0.000578727
0.000571523
0.000564498
0.000557647
0.000550964
0.000544442
0.000538078
0.000531866
0.000525801
0.000519879
0.000514095
0.000508445
0.000502923
0.00108247
0.00105781
0.00103423
0.00101165
0.000990023
0.000969285
0.000949385
0.000930275
0.000911908
0.000894245
0.000877244
0.000860871
0.000845091
0.000829874
0.000815189
0.00080101
0.000787311
0.000774069
0.000761261
0.000748865
0.000736864
0.000725238
0.00071397
0.000703044
0.000692445
0.000682159
0.000672172
0.000662471
0.000653045
0.000643881
0.00063497
0.000626302
0.000617866
0.000609654
0.000601657
0.000593867
0.000586276
0.000578878
0.000571665
0.00056463
0.000557768
0.000551073
0.000544538
0.000538159
0.000531931
0.000525848
0.000519906
0.0005141
0.000508426
0.000502877
0.00108247
0.00105781
0.00103423
0.00101166
0.000990029
0.000969293
0.000949394
0.000930283
0.000911915
0.000894248
0.000877244
0.000860867
0.000845083
0.00082986
0.000815171
0.000800986
0.000787282
0.000774035
0.000761222
0.000748823
0.000736817
0.000725188
0.000713916
0.000702988
0.000692386
0.000682098
0.000672108
0.000662406
0.000652977
0.000643813
0.0006349
0.00062623
0.000617793
0.000609579
0.000601581
0.000593789
0.000586196
0.000578795
0.000571579
0.000564541
0.000557674
0.000550974
0.000544434
0.000538048
0.000531811
0.000525719
0.000519765
0.000513947
0.000508258
0.000502694
0.00108247
0.00105781
0.00103423
0.00101166
0.000990033
0.000969298
0.000949401
0.000930292
0.000911926
0.000894262
0.00087726
0.000860885
0.000845104
0.000829884
0.000815197
0.000801016
0.000787315
0.00077407
0.000761259
0.000748862
0.000736858
0.00072523
0.00071396
0.000703033
0.000692432
0.000682143
0.000672154
0.000662451
0.000653022
0.000643856
0.000634942
0.00062627
0.00061783
0.000609613
0.000601611
0.000593815
0.000586218
0.000578812
0.000571589
0.000564544
0.00055767
0.000550961
0.00054441
0.000538013
0.000531764
0.000525657
0.000519688
0.000513852
0.000508144
0.000502558
0.00108247
0.00105781
0.00103423
0.00101166
0.000990033
0.000969298
0.000949401
0.000930291
0.000911926
0.000894261
0.00087726
0.000860885
0.000845103
0.000829883
0.000815196
0.000801014
0.000787313
0.000774068
0.000761257
0.000748859
0.000736855
0.000725226
0.000713955
0.000703027
0.000692425
0.000682136
0.000672145
0.000662441
0.00065301
0.000643842
0.000634926
0.000626252
0.00061781
0.00060959
0.000601585
0.000593785
0.000586183
0.000578772
0.000571544
0.000564493
0.000557612
0.000550894
0.000544334
0.000537927
0.000531666
0.000525546
0.000519563
0.00051371
0.000507984
0.00050238
0.00108247
0.00105781
0.00103423
0.00101166
0.000990029
0.000969293
0.000949393
0.000930282
0.000911914
0.000894247
0.000877243
0.000860865
0.000845081
0.000829858
0.000815167
0.000800982
0.000787278
0.000774029
0.000761215
0.000748815
0.000736808
0.000725177
0.000713904
0.000702973
0.000692369
0.000682077
0.000672085
0.000662379
0.000652946
0.000643777
0.000634859
0.000626183
0.000617738
0.000609517
0.000601509
0.000593706
0.000586102
0.000578687
0.000571455
0.000564399
0.000557512
0.000550789
0.000544222
0.000537806
0.000531536
0.000525406
0.00051941
0.000513544
0.000507803
0.000502182
0.00108247
0.00105781
0.00103423
0.00101165
0.000990022
0.000969285
0.000949385
0.000930274
0.000911907
0.000894243
0.000877242
0.000860868
0.000845088
0.000829869
0.000815184
0.000801003
0.000787303
0.000774059
0.000761249
0.000748851
0.000736847
0.000725218
0.000713947
0.000703018
0.000692414
0.000682123
0.00067213
0.000662423
0.00065299
0.000643818
0.000634898
0.000626218
0.00061777
0.000609545
0.000601532
0.000593724
0.000586113
0.000578691
0.000571452
0.000564387
0.000557491
0.000550757
0.000544178
0.00053775
0.000531465
0.000525319
0.000519306
0.000513421
0.000507659
0.000502014
0.00108247
0.00105781
0.00103422
0.00101164
0.000990002
0.000969254
0.000949344
0.000930221
0.000911842
0.000894165
0.000877151
0.000860764
0.000844971
0.00082974
0.000815043
0.000800852
0.000787142
0.000773889
0.000761071
0.000748667
0.000736657
0.000725023
0.000713748
0.000702815
0.000692209
0.000681916
0.000671921
0.000662213
0.000652779
0.000643607
0.000634686
0.000626007
0.00061756
0.000609334
0.000601321
0.000593514
0.000585903
0.000578481
0.000571241
0.000564175
0.000557277
0.00055054
0.000543959
0.000537526
0.000531236
0.000525083
0.000519062
0.000513168
0.000507395
0.000501737
0.00108247
0.00105781
0.00103421
0.00101163
0.000989989
0.000969245
0.000949342
0.00093023
0.000911863
0.000894199
0.000877199
0.000860825
0.000845044
0.000829825
0.000815137
0.000800955
0.000787251
0.000774003
0.000761189
0.000748787
0.000736778
0.000725144
0.000713868
0.000702932
0.000692323
0.000682026
0.000672027
0.000662313
0.000652873
0.000643694
0.000634767
0.00062608
0.000617624
0.000609389
0.000601368
0.00059355
0.000585929
0.000578496
0.000571244
0.000564166
0.000557254
0.000550504
0.000543907
0.000537457
0.00053115
0.000524978
0.000518936
0.000513019
0.000507221
0.000501536
0.00108247
0.00105779
0.00103417
0.00101155
0.000989864
0.000969072
0.00094912
0.00092996
0.000911549
0.000893844
0.000876808
0.000860402
0.000844595
0.000829353
0.000814647
0.000800449
0.000786734
0.000773478
0.000760657
0.000748252
0.000736241
0.000724607
0.000713332
0.000702399
0.000691794
0.000681501
0.000671507
0.000661799
0.000652365
0.000643193
0.000634272
0.000625592
0.000617143
0.000608915
0.0006009
0.000593089
0.000585473
0.000578046
0.000570799
0.000563725
0.000556818
0.00055007
0.000543476
0.000537028
0.00053072
0.000524547
0.000518503
0.000512582
0.000506778
0.000501086
0.00108247
0.00105779
0.00103417
0.00101158
0.000989932
0.000969179
0.000949265
0.000930138
0.000911754
0.000894069
0.000877046
0.000860647
0.000844841
0.000829595
0.000814882
0.000800673
0.000786945
0.000773672
0.000760834
0.00074841
0.000736379
0.000724725
0.000713429
0.000702475
0.000691849
0.000681535
0.00067152
0.000661792
0.000652338
0.000643146
0.000634206
0.000625508
0.000617041
0.000608796
0.000600764
0.000592936
0.000585305
0.000577863
0.000570602
0.000563514
0.000556594
0.000549834
0.000543228
0.00053677
0.000530453
0.000524273
0.000518224
0.000512301
0.000506501
0.00050082
0.00108247
0.00105761
0.00103378
0.00101097
0.000989137
0.000968224
0.00094818
0.000928953
0.000910492
0.000892754
0.000875694
0.000859275
0.00084346
0.000828217
0.000813515
0.000799325
0.000785621
0.000772378
0.000759574
0.000747187
0.000735198
0.000723587
0.000712336
0.00070143
0.000690853
0.00068059
0.000670627
0.000660952
0.000651553
0.000642417
0.000633534
0.000624894
0.000616486
0.000608303
0.000600334
0.000592572
0.00058501
0.000577639
0.000570454
0.000563447
0.000556613
0.000549946
0.000543442
0.000537096
0.000530906
0.00052487
0.000518986
0.000513259
0.000507696
0.000502315
0.0010825
0.0010577
0.00103401
0.00101132
0.000989613
0.000968839
0.000948977
0.000929971
0.000911769
0.00089432
0.00087758
0.000861504
0.000846055
0.000831197
0.000816896
0.000803121
0.000789845
0.000777039
0.000764681
0.000752746
0.000741213
0.000730063
0.000719278
0.000708838
0.00069873
0.000688936
0.000679445
0.000670241
0.000661314
0.000652651
0.000644242
0.000636078
0.00062815
0.000620448
0.000612966
0.000605697
0.000598635
0.000591774
0.000585111
0.000578641
0.000572364
0.000566276
0.00056038
0.000554678
0.000549175
0.00054388
0.000538812
0.000534
0.000529503
0.000525436
0.00108926
0.00107437
0.00106012
0.00104646
0.00103331
0.00102061
0.0010083
0.000996344
0.000984734
0.000973452
0.000962482
0.000951814
0.000941435
0.000931335
0.000921504
0.000911932
0.00090261
0.00089353
0.000884683
0.00087606
0.000867655
0.00085946
0.000851468
0.000843672
0.000836065
0.000828641
0.000821394
0.000814318
0.000807406
0.000800655
0.000794057
0.000787608
0.000781302
0.000775135
0.000769102
0.000763197
0.000757416
0.000751754
0.000746205
0.000740766
0.000735431
0.000730195
0.000725052
0.000719997
0.000715024
0.000710126
0.000705295
0.000700523
0.000695797
0.000691102
0.000466103
0.000252745
0.000195383
0.000187906
0.000184022
0.000182755
0.000180006
0.000178313
0.000175956
0.000173978
0.000171949
0.000169731
0.000168019
0.000165538
0.000164154
0.000161313
0.000161029
0.000163983
0.000209048
0.000390719
0.000466678
0.000253354
0.000196079
0.000188624
0.000184749
0.000183472
0.000180726
0.000179025
0.000176667
0.000174682
0.000172651
0.000170428
0.000168712
0.000166227
0.000164838
0.000161993
0.000161703
0.000164657
0.000209722
0.000391274
0.000467258
0.000253943
0.000196777
0.000189347
0.000185483
0.000184196
0.000181451
0.000179742
0.000177384
0.000175393
0.000173359
0.000171131
0.000169412
0.000166923
0.000165528
0.00016268
0.000162384
0.000165337
0.000210391
0.000391777
0.000467843
0.000254526
0.000197479
0.000190075
0.000186222
0.000184926
0.000182183
0.000180465
0.000178107
0.000176109
0.000174074
0.00017184
0.000170117
0.000167624
0.000166224
0.000163374
0.00016307
0.00016602
0.000211014
0.000392288
0.000468433
0.000255109
0.000198185
0.00019081
0.000186968
0.000185661
0.000182921
0.000181195
0.000178837
0.000176832
0.000174795
0.000172555
0.000170829
0.000168332
0.000166926
0.000164073
0.000163762
0.000166702
0.000211621
0.000392806
0.000469028
0.000255695
0.000198897
0.00019155
0.00018772
0.000186403
0.000183666
0.000181931
0.000179573
0.000177561
0.000175522
0.000173277
0.000171547
0.000169046
0.000167635
0.00016478
0.00016446
0.000167386
0.000212221
0.000393331
0.000469628
0.000256285
0.000199615
0.000192297
0.000188478
0.000187151
0.000184416
0.000182673
0.000180315
0.000178296
0.000176255
0.000174006
0.000172271
0.000169767
0.00016835
0.000165493
0.000165165
0.000168074
0.00021282
0.000393862
0.000470233
0.00025688
0.000200339
0.00019305
0.000189242
0.000187906
0.000185173
0.000183421
0.000181063
0.000179038
0.000176995
0.00017474
0.000173002
0.000170495
0.000169072
0.000166213
0.000165875
0.000168766
0.000213419
0.0003944
0.000470843
0.00025748
0.000201069
0.000193809
0.000190013
0.000188666
0.000185937
0.000184176
0.000181818
0.000179786
0.000177742
0.000175482
0.00017374
0.000171229
0.000169801
0.000166939
0.000166592
0.000169463
0.000214022
0.000394944
0.000471458
0.000258085
0.000201806
0.000194575
0.000190791
0.000189434
0.000186707
0.000184937
0.00018258
0.000180541
0.000178495
0.00017623
0.000174484
0.00017197
0.000170536
0.000167672
0.000167316
0.000170166
0.000214628
0.000395494
0.000472078
0.000258697
0.000202549
0.000195348
0.000191575
0.000190208
0.000187484
0.000185705
0.000183349
0.000181303
0.000179255
0.000176984
0.000175235
0.000172718
0.000171278
0.000168411
0.000168046
0.000170875
0.000215239
0.000396051
0.000472703
0.000259314
0.0002033
0.000196126
0.000192366
0.000190988
0.000188268
0.00018648
0.000184124
0.000182071
0.000180021
0.000177746
0.000175993
0.000173472
0.000172026
0.000169157
0.000168782
0.00017159
0.000215855
0.000396615
0.000473334
0.000259937
0.000204057
0.000196912
0.000193164
0.000191775
0.000189058
0.000187261
0.000184906
0.000182846
0.000180795
0.000178514
0.000176757
0.000174233
0.000172782
0.00016991
0.000169526
0.000172312
0.000216476
0.000397185
0.00047397
0.000260566
0.000204822
0.000197705
0.000193969
0.000192569
0.000189855
0.00018805
0.000185695
0.000183628
0.000181575
0.00017929
0.000177529
0.000175002
0.000173544
0.000170671
0.000170276
0.00017304
0.000217104
0.000397762
0.000474612
0.000261201
0.000205593
0.000198504
0.00019478
0.00019337
0.00019066
0.000188845
0.000186491
0.000184417
0.000182362
0.000180072
0.000178308
0.000175777
0.000174314
0.000171438
0.000171034
0.000173775
0.000217738
0.000398346
0.000475259
0.000261842
0.000206372
0.00019931
0.000195599
0.000194178
0.000191471
0.000189648
0.000187294
0.000185214
0.000183157
0.000180862
0.000179093
0.00017656
0.000175091
0.000172212
0.000171798
0.000174517
0.000218378
0.000398936
0.000475911
0.000262489
0.000207157
0.000200123
0.000196425
0.000194993
0.00019229
0.000190457
0.000188104
0.000186017
0.000183959
0.000181658
0.000179886
0.00017735
0.000175875
0.000172994
0.00017257
0.000175267
0.000219024
0.000399534
0.00047657
0.000263143
0.00020795
0.000200944
0.000197258
0.000195815
0.000193115
0.000191274
0.000188922
0.000186828
0.000184767
0.000182463
0.000180687
0.000178147
0.000176666
0.000173783
0.000173349
0.000176023
0.000219678
0.000400138
0.000477234
0.000263802
0.000208751
0.000201771
0.000198098
0.000196645
0.000193948
0.000192098
0.000189746
0.000187646
0.000185584
0.000183274
0.000181494
0.000178952
0.000177464
0.000174579
0.000174135
0.000176787
0.000220339
0.00040075
0.000477903
0.000264468
0.000209558
0.000202606
0.000198946
0.000197481
0.000194789
0.000192929
0.000190579
0.000188471
0.000186408
0.000184093
0.000182309
0.000179764
0.00017827
0.000175383
0.000174928
0.000177559
0.000221006
0.000401369
0.000478579
0.00026514
0.000210374
0.000203448
0.000199802
0.000198325
0.000195637
0.000193768
0.000191419
0.000189304
0.000187239
0.00018492
0.000183132
0.000180584
0.000179084
0.000176195
0.00017573
0.000178338
0.000221681
0.000401995
0.00047926
0.000265818
0.000211196
0.000204297
0.000200664
0.000199177
0.000196493
0.000194615
0.000192266
0.000190145
0.000188078
0.000185754
0.000183963
0.000181411
0.000179905
0.000177014
0.000176539
0.000179125
0.000222364
0.000402628
0.000479947
0.000266503
0.000212027
0.000205154
0.000201535
0.000200036
0.000197356
0.000195469
0.000193121
0.000190993
0.000188925
0.000186596
0.000184801
0.000182246
0.000180735
0.000177841
0.000177355
0.000179919
0.000223054
0.000403269
0.00048064
0.000267194
0.000212865
0.000206019
0.000202413
0.000200903
0.000198227
0.000196331
0.000193984
0.000191849