/*--------------------------------*- C++ -*----------------------------------*\
  =========                 |
  \\      /  F ield         | OpenFOAM: The Open Source CFD Toolbox
   \\    /   O peration     | Website:  https://openfoam.org
    \\  /    A nd           | Version:  8
     \\/     M anipulation  |
\*---------------------------------------------------------------------------*/
FoamFile
{
    version     2.0;
    format      ascii;
    class       volScalarField;
    location    "300";
    object      p_rgh;
}
// * * * * * * * * * * * * * * * * * * * * * * * * * * * * * * * * * * * * * //

dimensions      [1 -1 -2 0 0 0 0];

internalField   nonuniform List<scalar> 
8400
(
0.895506
19.5659
35.3359
50.594
65.6282
80.6607
95.8352
111.265
127.054
143.304
160.122
177.62
195.926
215.184
235.556
257.229
280.412
305.35
332.327
361.675
393.777
429.066
468.052
511.365
559.755
613.968
674.699
742.902
819.823
906.856
1005.6
1117.9
1245.88
1392
1559.1
1750.48
1969.97
2222.04
2511.9
2845.68
3230.53
3674.94
4189.54
4788.19
5487.23
6300.76
7243.88
8377.08
9866.37
11805.6
-8.67737
5.00695
18.6227
32.6753
46.7981
61.0017
75.352
89.9326
104.828
120.129
135.93
152.338
169.469
187.456
206.449
226.622
248.17
271.318
296.331
323.518
353.24
385.901
421.952
461.926
506.427
556.174
612.073
675.096
746.3
826.963
918.569
1022.83
1141.74
1277.56
1432.95
1610.95
1815.04
2049.29
2318.35
2627.62
2983.24
3392.3
3863.27
4406.57
5033.42
5752.15
6569.92
7517.53
8677.98
10101.8
22.6021
40.6464
56.6875
71.8917
86.9949
102.221
117.685
133.471
149.664
166.348
183.621
201.593
220.381
240.123
260.975
283.118
306.754
332.114
359.472
389.146
421.515
456.99
495.991
539.006
586.637
639.604
698.796
765.195
839.895
924.171
1019.5
1127.58
1250.4
1390.2
1549.62
1731.66
1939.79
2178.01
2450.91
2763.74
3122.45
3533.85
4005.76
4547.17
5167.21
5872.88
6669.99
7573.42
8613.66
9785.96
-14.3384
-10.0596
-0.174796
11.7865
24.4677
37.481
50.7323
64.2261
78.0053
92.1297
106.673
121.718
137.36
153.707
170.887
189.049
208.359
229.006
251.209
275.218
301.34
329.964
361.548
396.559
435.507
479.017
527.816
582.737
644.745
714.959
794.679
885.403
988.863
1107.06
1242.29
1397.19
1574.82
1778.66
2012.68
2281.42
2590
2944.18
3350.5
3816.18
4348.46
4953.46
5636.62
6407.02
7279.39
8250.1
37.7748
59.3074
76.2239
91.2503
105.949
120.74
135.772
151.12
166.842
183.004
199.68
216.95
234.91
253.667
273.349
294.107
316.109
339.534
364.58
391.486
420.496
451.929
486.18
523.711
565.025
610.709
661.434
717.97
781.199
852.139
931.961
1022.01
1123.84
1239.22
1370.19
1519.05
1688.45
1881.36
2101.13
2351.5
2636.56
2960.77
3328.91
3745.88
4216.18
4743.01
5327.88
5972.81
6684.02
7460.15
-22.6992
-22.3372
-14.2927
-3.44124
8.36481
20.5869
33.0734
45.7979
58.7776
72.0526
85.6727
99.6991
114.201
129.262
144.98
161.469
178.877
197.376
217.151
238.408
261.381
286.325
313.557
343.444
376.409
412.945
453.623
499.102
550.145
607.628
672.568
746.136
829.679
924.748
1033.12
1156.82
1298.17
1459.77
1644.55
1855.78
2097
2372.04
2684.89
3039.52
3439.5
3887.13
4382.58
4924.89
5516.1
6156.86
45.022
68.814
85.9943
100.484
114.358
128.19
142.164
156.352
170.798
185.538
200.618
216.09
232.011
248.445
265.468
283.16
301.618
320.967
341.362
362.972
385.989
410.632
437.157
465.858
497.074
531.197
568.677
610.036
655.873
706.876
763.839
827.679
899.447
980.347
1071.76
1175.24
1292.59
1425.79
1577.09
1748.95
1944.05
2165.23
2415.43
2697.51
3014.03
3366.59
3754.94
4177.71
4636.47
5133.65
-27.2238
-28.721
-21.5583
-11.2628
0.059828
11.8058
23.7972
35.9944
48.3981
61.027
73.9139
87.1007
100.637
114.579
128.993
143.948
159.52
175.804
192.909
210.964
230.114
250.527
272.4
295.959
321.464
349.219
379.573
412.93
449.752
490.571
536.003
586.755
643.639
707.586
779.657
861.059
953.154
1057.47
1175.72
1309.76
1461.61
1633.36
1827.15
2045.04
2288.85
2559.63
2857.01
3179.83
3529.51
3909.29
47.2416
71.3969
88.079
101.714
114.555
127.225
139.914
152.682
165.549
178.524
191.625
204.866
218.269
231.861
245.678
259.758
274.144
288.893
304.069
319.744
336.004
352.949
370.695
389.376
409.149
430.196
452.731
476.997
503.28
531.91
563.27
597.803
636.021
678.516
725.966
779.149
838.951
906.376
982.554
1068.74
1166.29
1276.68
1401.4
1542
1699.89
1876.07
2070.66
2283.34
2515.96
2772.38
-28.3604
-30.5883
-23.9679
-14.1666
-3.35346
7.8438
19.236
30.7651
42.4154
54.1847
66.0782
78.1038
90.2716
102.595
115.094
127.785
140.691
153.841
167.263
180.993
195.071
209.544
224.464
239.891
255.892
272.547
289.944
308.185
327.387
347.685
369.233
392.21
416.821
443.307
471.944
503.055
537.011
574.242
615.251
660.614
710.988
767.125
829.867
900.155
979.023
1067.43
1166.07
1275.7
1398.79
1539.93
46.2244
69.7076
85.5979
98.3995
110.345
122.041
133.662
145.249
156.802
168.311
179.763
191.143
202.437
213.629
224.705
235.653
246.452
257.084
267.528
277.762
287.761
297.499
306.943
316.06
324.811
333.154
341.038
348.413
355.22
361.395
366.866
371.555
375.381
378.254
380.084
380.783
380.265
378.452
375.29
370.767
364.926
357.898
349.96
341.575
333.472
326.676
322.54
323.04
331.625
353.557
-27.2194
-29.6088
-23.5048
-14.3798
-4.33056
6.02023
16.4688
26.9381
37.3874
47.79
58.1224
68.359
78.4746
88.4414
98.2291
107.805
117.126
126.147
134.813
143.067
150.838
158.044
164.589
170.362
175.236
179.06
181.661
182.841
182.37
179.981
175.367
168.177
158.008
144.404
126.85
104.768
77.5195
44.4102
4.69176
-42.4056
-97.6395
-161.706
-235.139
-318.191
-410.684
-511.824
-619.894
-731.958
-843.48
-947.235
42.7758
64.9416
79.9821
92.1601
103.532
114.637
125.618
136.49
147.231
157.808
168.184
178.314
188.152
197.648
206.743
215.37
223.453
230.904
237.624
243.498
248.395
252.162
254.624
255.577
254.785
251.978
246.846
239.031
228.119
213.635
195.034
171.694
142.902
107.85
65.6213
15.1907
-44.5886
-114.977
-197.335
-293.105
-403.766
-530.743
-675.291
-838.299
-1020.07
-1220.02
-1436.12
-1664.27
-1897.93
-2127.94
-23.7441
-25.7037
-19.9994
-11.6045
-2.42786
6.93454
16.271
25.4827
34.5068
43.2916
51.7845
59.9286
67.6609
74.9143
81.6109
87.6598
92.9595
97.394
100.828
103.105
104.048
103.451
101.075
96.6447
89.842
80.3013
67.6002
51.2504
30.6896
5.26668
-25.7652
-63.2628
-108.213
-161.745
-225.15
-299.899
-387.645
-490.253
-609.792
-748.525
-908.883
-1093.39
-1304.54
-1544.52
-1814.98
-2116.66
-2448.62
-2807.05
-3184.08
-3565.62
35.9281
55.9664
69.9747
81.6376
92.6331
103.379
113.964
124.379
134.583
144.526
154.152
163.395
172.183
180.435
188.058
194.943
200.969
205.99
209.84
212.328
213.231
212.292
209.211
203.642
195.184
183.369
167.657
147.424
121.945
90.3778
51.753
4.94966
-51.3263
-118.571
-198.501
-293.083
-404.564
-535.49
-688.719
-867.433
-1075.11
-1315.46
-1592.28
-1909.09
-2268.73
-2672.98
-3121.97
-3611.96
-4131.78
-4661.07
-17.1876
-17.4245
-11.4216
-3.30241
5.36102
14.0572
22.5864
30.8437
38.754
46.2465
53.2451
59.6662
65.4177
70.3954
74.4798
77.5339
79.4002
79.8959
78.8113
75.9054
70.901
63.4771
53.2634
39.8335
22.6928
1.26961
-25.0936
-57.1575
-95.8
-142.036
-197.04
-262.161
-338.958
-429.231
-535.047
-658.78
-803.156
-971.282
-1166.68
-1393.33
-1655.66
-1958.58
-2307.39
-2707.4
-3163.44
-3679.87
-4261.1
-4909.27
-5615.51
-6348.93
23.1158
40.6058
53.4299
64.6216
75.2647
85.627
95.7523
105.617
115.175
124.37
133.13
141.377
149.02
155.956
162.066
167.211
171.231
173.937
175.116
174.515
171.847
166.774
158.907
147.793
132.907
113.641
89.2904
59.0348
21.925
-23.1383
-77.4356
-142.457
-219.921
-311.832
-420.52
-548.678
-699.456
-876.498
-1084.03
-1326.95
-1610.88
-1942.36
-2328.9
-2778.75
-3300.1
-3901.34
-4593.35
-5387.79
-6278.15
-7213.98
-9.40407
-4.81536
3.08053
11.9712
20.9261
29.6724
38.0973
46.1304
53.7057
60.7488
67.1752
72.8889
77.7788
81.7173
84.5587
86.1336
86.2451
84.6677
81.1411
75.3634
66.9858
55.6059
40.7573
21.8994
-1.59274
-30.4407
-65.4839
-107.696
-158.202
-218.313
-289.546
-373.669
-472.737
-589.142
-725.675
-885.586
-1072.68
-1291.42
-1547
-1845.53
-2194.12
-2601.15
-3076.59
-3631.9
-4278.82
-5028.72
-5896.97
-6908.74
-8077.04
-9338.05
1.27765
20.393
32.6197
43.4886
53.7089
63.5288
72.9947
82.0894
90.7683
98.9699
106.618
113.623
119.88
125.268
129.647
132.853
134.697
134.961
133.39
129.69
123.522
114.49
102.137
85.9338
65.2701
39.435
7.60199
-31.1818
-78.0264
-134.215
-201.242
-280.843
-375.034
-486.168
-616.979
-770.671
-950.987
-1162.32
-1409.83
-1699.62
-2038.84
-2436.04
-2901.84
-3449.26
-4092.31
-4843.7
-5722.76
-6783.19
-8110.65
-9679.92
-1.50082
8.26051
18.12
27.9825
37.5717
46.8243
55.7006
64.1584
72.144
79.5898
86.413
92.5163
97.7877
102.096
105.29
107.193
107.603
106.284
102.964
97.3255
89.0049
77.5784
62.5546
43.3673
19.3596
-10.2327
-46.2939
-89.8557
-142.109
-204.44
-278.466
-366.069
-469.445
-591.169
-734.25
-902.232
-1099.3
-1330.43
-1601.55
-1919.82
-2293.83
-2734.26
-3254.95
-3874.15
-4613.7
-5496.21
-6557.14
-7900.19
-9733.94
-12102.8
29007.1
20844.8
16811.7
15293.4
14459
13850.2
13426.5
13142.2
12942
12790.9
12671.2
12573
12489.7
12417
12351.7
12291.7
12235.4
12181.7
12129.7
12078.5
12027.5
11975.9
11923.3
11869
11812.3
11752.4
11688.7
11620.3
11546.1
11464.9
11375.5
11276.3
11165.7
11041.5
10901.3
10742.2
10560.7
10352.9
10113.8
9837.63
9517.17
9143.81
8706.88
8192.88
7584.32
6857.75
5980.21
4902.46
3544.06
1768.37
3472.01
8061.16
9562.87
10129.2
10563.5
10889.1
11113.4
11273.5
11392.3
11481.2
11547.2
11595.9
11631.2
11655.8
11671.7
11680.2
11682.5
11679.2
11671.1
11658.3
11641.3
11619.9
11594.3
11564.3
11529.6
11489.8
11444.5
11393.1
11334.6
11268.1
11192.4
11106
11007.3
10894.2
10764.5
10615.6
10444
10246
10016.8
9751.19
9442.38
9082.21
8660.71
8165.53
7581.25
6888.29
6061.7
5069.98
3875.59
2444.67
10801.4
12971.5
14154.6
14257.3
14100.6
13929
13742.7
13551.4
13373
13213.9
13073.1
12948.2
12836.7
12736.4
12645.4
12561.9
12484.3
12411.5
12342.3
12275.8
12211.2
12147.6
12084.4
12020.7
11955.8
11889.1
11819.5
11746.4
11668.8
11585.5
11495.4
11396.9
11288.3
11167.5
11032.2
10879.8
10707.2
10510.6
10285.7
10027.4
9729.5
9384.84
8984.72
8518.77
7974.58
7337.45
6590.38
5714.82
4693.56
3518.3
11150.1
11559.1
11750.6
11678.9
11576.7
11533.3
11521.7
11519.5
11523.7
11533.6
11546.2
11558.9
11570.3
11579.5
11585.9
11589.2
11589.4
11586.3
11579.8
11569.9
11556.6
11539.8
11519.2
11494.8
11466.1
11432.8
11394.4
11350.2
11299.7
11241.9
11176.1
11100.9
11015
10916.7
10804
10674.6
10525.7
10354
10155.8
9926.43
9660.85
9352.93
8995.55
8580.55
8098.73
7540.04
6894.31
6152.84
5311.77
4377.92
11689.1
11938.2
12254.8
12486.5
12626.3
12715.6
12767.9
12786.9
12780.5
12757.5
12723.7
12682.8
12637.2
12588.6
12538.3
12487.1
12435.2
12383.1
12330.8
12278.1
12225.1
12171.5
12117
12061.3
12004.1
11944.9
11883.1
11818
11748.9
11674.8
11594.8
11507.7
11412.2
11306.8
11189.7
11058.7
10911.5
10745.1
10556.3
10341.2
10095.7
9814.6
9492.42
9123
8699.83
8216.42
7667.16
7048.69
6362.38
5617.02
11892.8
11978.4
12086.5
12148.6
12151.2
12123.1
12084.7
12042.4
11999.3
11958
11920
11885.6
11854.3
11825.7
11799
11773.9
11749.7
11726
11702.3
11678.2
11653.4
11627.4
11599.9
11570.5
11538.9
11504.6
11467.3
11426.2
11381
11330.8
11274.8
11212.1
11141.6
11062
10971.8
10869.4
10752.6
10619.2
10466.5
10291.6
10091.1
9861.09
9597.59
9296.28
8952.94
8563.86
8126.58
7641.05
7111.28
6546.81
12005.9
12050.3
12122
12194.2
12249.6
12290.5
12322.1
12345.1
12359.1
12364.9
12363.7
12356.5
12344
12327
12306.2
12282.2
12255.3
12226
12194.5
12161
12125.7
12088.7
12049.9
12009.2
11966.5
11921.6
11874.3
11824.1
11770.7
11713.6
11652.2
11585.7
11513.3
11434
11346.6
11249.9
11142.2
11021.8
10886.7
10734.5
10562.9
10369.1
10150.2
9903.44
9626.2
9316.56
8973.78
8599.07
8196.61
7773.71
12064.4
12086.6
12124.4
12164.4
12192.6
12205.4
12205.6
12195.6
12177.6
12153.5
12125.3
12094.7
12062.7
12030.1
11997.4
11964.9
11932.9
11901.3
11870
11839
11808.2
11777.3
11746.2
11714.6
11682.3
11649
11614.3
11577.9
11539.4
11498.4
11454.3
11406.7
11354.7
11297.8
11234.9
11165.2
11087.6
11000.8
10903.4
10793.9
10670.6
10531.8
10375.7
10200.7
10005.6
9789.59
9553.04
9297.76
9027.7
8749.03
12095.9
12109.5
12134.5
12165.2
12192.6
12212.9
12226.1
12233.3
12235.1
12232.3
12225.4
12215.1
12202
12186.4
12168.6
12148.8
12127.4
12104.5
12080.2
12054.6
12027.9
12000
11971
11941
11909.9
11877.6
11844
11809.1
11772.6
11734.4
11694.3
11651.9
11606.8
11558.8
11507.3
11451.8
11391.7
11326.2
11254.7
11176.3
11090.1
10995.2
10890.9
10776.5
10651.6
10516.2
10371.1
10218
10059.8
9900.31
12110
12120.1
12139.3
12163.8
12186.7
12203.4
12212.7
12214.9
12210.7
12201
12186.6
12168.7
12148
12125.2
12101
12075.7
12049.8
12023.4
11996.7
11969.9
11942.9
11916
11889
11861.9
11834.8
11807.6
11780.3
11752.7
11724.9
11696.7
11668
11638.8
11608.9
11578.2
11546.5
11513.7
11479.7
11444.2
11407.1
11368.2
11327.4
11284.6
11239.9
11193.2
11145
11095.8
11046.6
10998.9
10954.5
10916.1
12111.2
12121.3
12140.5
12165.1
12188.2
12205
12214.4
12216.9
12213
12203.6
12189.7
12172.3
12152.1
12130.1
12106.7
12082.4
12057.6
12032.5
12007.4
11982.4
11957.6
11933.1
11909
11885.3
11862.1
11839.5
11817.4
11796
11775.3
11755.4
11736.4
11718.4
11701.6
11686.1
11672.2
11660
11649.9
11642.2
11637.3
11635.7
11637.9
11644.7
11656.6
11674.6
11699.6
11732.5
11774.4
11826.2
11888.7
11962.8
12099.4
12113
12138.3
12169.1
12196.9
12217.7
12231.4
12239.2
12241.9
12240
12234.3
12225.4
12213.9
12200.2
12184.6
12167.5
12149.1
12129.8
12109.7
12089
12068
12046.9
12025.9
12005.1
11984.8
11965.2
11946.4
11928.9
11912.7
11898.3
11886
11876
11868.9
11865.2
11865.4
11870.1
11880.2
11896.4
11919.8
11951.5
11992.7
12044.8
12109.2
12187.5
12281.2
12391.6
12519.8
12666.3
12831
13013.1
12070.2
12092.5
12130.5
12170.9
12199.6
12213.2
12214.3
12205.4
12188.8
12166.3
12140.2
12111.9
12082.6
12053.3
12024.4
11996.5
11969.7
11944.3
11920.3
11897.8
11876.8
11857.5
11839.8
11824
11810
11798
11788.2
11780.9
11776.4
11774.9
11777.1
11783.3
11794.1
11810.5
11833
11862.9
11901.1
11949.1
12008.3
12080.5
12167.6
12271.5
12394.7
12539.2
12707.4
12901.1
13121.6
13369.4
13643.4
13941.7
12013.8
12058.3
12130.4
12203.1
12259.2
12301.1
12333.9
12358.4
12374.3
12382.3
12383.7
12379.5
12370.7
12358.1
12342.3
12324.2
12304.3
12283.1
12261.2
12238.9
12216.7
12194.9
12173.9
12154.1
12135.9
12119.6
12105.8
12094.8
12087.3
12083.7
12084.9
12091.5
12104.5
12124.9
12153.9
12192.9
12243.5
12307.4
12386.7
12483.8
12601.2
12741.8
12908.5
13104.6
13333
13596.5
13896.7
14234.1
14606.9
15011.1
11902.6
11988.4
12096.9
12159.6
12163.2
12136.3
12099.4
12059.1
12018.3
11979.8
11945.2
11914.7
11888.1
11865
11844.8
11827.2
11811.9
11798.5
11786.9
11777
11768.7
11762.1
11757.3
11754.4
11753.8
11755.7
11760.6
11768.8
11781.1
11797.9
11820.2
11848.9
11885
11929.9
11984.9
12051.7
12132.4
12229.1
12344.5
12481.4
12643.1
12833.3
13056
13315.3
13615.4
13960.2
14352.7
14794.3
15283.3
15815.9
11700.5
11949.8
12266.9
12499.4
12640.4
12731.1
12785.2
12806.3
12802.5
12782.8
12752.8
12716.5
12676.2
12634
12591.1
12548.6
12507.1
12466.9
12428.7
12392.5
12358.7
12327.6
12299.4
12274.5
12253.1
12235.7
12222.7
12214.6
12212.3
12216.2
12227.5
12247.2
12276.4
12316.6
12369.5
12437.1
12521.6
12625.6
12752.3
12905
13087.8
13305
13561.6
13862.9
14214.6
14622.2
15090.3
15622
16216.4
16868
11162.9
11572.2
11764.2
11693.4
11592.4
11550.6
11541
11541.2
11548.5
11562
11579
11596.9
11614.3
11630.6
11645.4
11658.5
11670.2
11680.5
11689.7
11698.3
11706.5
11714.9
11723.7
11733.7
11745.3
11759.1
11775.8
11796.2
11821.1
11851.5
11888.6
11933.6
11988
12053.5
12132.1
12226
12337.9
12470.8
12628.2
12814.1
13033.1
13290.7
13592.7
13946
14357.9
14836.5
15389.5
16023.5
16741.9
17542.9
10815.3
12985.6
14169.3
14272.9
14117.6
13947.6
13763.4
13575
13399.9
13244.8
13108.7
12989.4
12884.5
12792
12710.1
12637.3
12572.3
12514.2
12462.2
12415.9
12374.8
12338.8
12307.7
12281.6
12260.7
12245.3
12235.7
12232.6
12236.5
12248.5
12269.4
12300.5
12343.4
12399.6
12471.3
12560.8
12671
12805
12966.7
13160.6
13391.7
13666.2
13991.1
14374.5
14825.8
15355.8
15976.4
16699.9
17536.4
18491.1
3486.62
8076.03
9578.32
10145.6
10581.2
10908.6
11135.2
11298.1
11420.3
11513.3
11584.2
11638.7
11680.8
11713.5
11738.8
11758.5
11773.7
11785.8
11795.5
11803.6
11811
11818.3
11826.1
11835.1
11846.1
11859.8
11876.9
11898.4
11925.3
11958.6
11999.7
12050
12111.1
12185.1
12274.2
12381
12508.4
12660
12840
13053.1
13305
13602.2
13952.7
14365.8
14852.9
15427.7
16107
16911.6
17864.9
18993.2
29022
20859.9
16827.5
15310.1
14477.2
13870.3
13449.1
13167.7
12971
12824.2
12709.6
12617.4
12541.3
12476.9
12421.4
12372.9
12330.1
12292.2
12258.7
12229.1
12203.4
12181.5
12163.4
12149.5
12140
12135.4
12136.2
12143.2
12157
12178.8
12209.7
12251
12304.5
12372
12455.7
12558.3
12682.8
12832.8
13012.6
13227
13481.9
13784.4
14142.6
14566.9
15069.9
15667.9
16382.5
17244.4
18300.7
19633.5
-20383.4
-15768.2
-14197
-10238.9
-8271.72
-4853.74
-2751.72
303.916
2409.39
5218.62
7250
9894.06
11793.3
14341.4
16049.4
18573.1
20005.7
22589.9
23591.1
26225
-20313.3
-15710.2
-14148
-10191
-8229.78
-4809.4
-2712.17
346.585
2448.6
5260.93
7289.76
9937.34
11834.9
14387.7
16095.5
18627.2
20063.5
22663.6
23679.6
26353.1
-20251.5
-15650.2
-14096.7
-10139.9
-8184.5
-4762.21
-2669.25
392.208
2491.1
5306.54
7333.2
9984.48
11880.9
14438.7
16147.3
18686.1
20127.1
22738.7
23765.4
26457.3
-20194.1
-15590.8
-14044.2
-10086.8
-8136.83
-4712.59
-2623.71
440.415
2536.3
5354.9
7379.53
10034.6
11930.2
14492.6
16202.2
18747.1
20192
22811.6
23844.4
26544.9
-20138.8
-15532.1
-13991.2
-10032.3
-8087.42
-4661.01
-2576.06
490.787
2583.75
5405.52
7428.18
10086.9
11981.7
14548.5
16258.7
18808.8
20256.2
22881.5
23917.1
26623
-20084.6
-15473.9
-13937.7
-9976.97
-8036.68
-4607.89
-2526.72
542.913
2632.99
5457.92
7478.59
10140.9
12034.6
14605.4
16315.9
18870.2
20318.9
22948.4
23984.9
26694.8
-20030.9
-15415.8
-13883.9
-9920.87
-7984.91
-4553.56
-2476.05
596.425
2683.65
5511.68
7530.28
10196
12088.5
14662.9
16373.1
18931
20379.9
23012.7
24049.1
26762.3
-19977.4
-15357.7
-13829.7
-9864.18
-7932.35
-4498.28
-2424.34
651.009
2735.37
5566.43
7582.89
10251.8
12142.8
14720.4
16430
18990.8
20439.3
23074.8
24110.5
26826.7
-19923.8
-15299.4
-13775.2
-9807
-7879.15
-4442.27
-2371.83
706.402
2787.88
5621.88
7636.1
10308
12197.4
14777.9
16486.3
19049.8
20497.4
23135.1
24169.6
26888.7
-19870.1
-15240.9
-13720.5
-9749.41
-7825.44
-4385.68
-2318.72
762.389
2840.97
5677.81
7689.69
10364.4
12251.9
14835.1
16542.2
19108
20554.2
23193.9
24227.1
26948.9
-19816.2
-15182.3
-13665.4
-9691.48
-7771.35
-4328.66
-2265.16
818.798
2894.44
5734.03
7743.49
10420.8
12306.4
14891.9
16597.4
19165.4
20610
23251.5
24283.1
27007.7
-19762.1
-15123.4
-13610.2
-9633.27
-7716.95
-4271.32
-2211.28
875.492
2948.17
5790.41
7797.37
10477.1
12360.7
14948.4
16652.1
19222
20664.8
23308.1
24338
27065.2
-19707.9
-15064.3
-13554.7
-9574.85
-7662.34
-4213.76
-2157.18
932.36
3002.04
5846.84
7851.24
10533.3
12414.7
15004.5
16706.2
19278
20718.9
23363.7
24391.9
27121.8
-19653.6
-15005.1
-13499.1
-9516.28
-7607.57
-4156.05
-2102.95
989.316
3055.97
5903.24
7905.03
10589.4
12468.5
15060.2
16759.9
19333.4
20772.3
23418.6
24445
27177.6
-19599.1
-14945.8
-13443.5
-9457.59
-7552.71
-4098.26
-2048.65
1046.29
3109.89
5959.56
7958.7
10645.1
12521.9
15115.5
16813
19388.2
20825
23472.8
24497.4
27232.6
-19544.7
-14886.4
-13387.7
-9398.85
-7497.81
-4040.45
-1994.35
1103.23
3163.76
6015.74
8012.2
10700.7
12575.1
15170.5
16865.8
19442.5
20877.2
23526.5
24549.2
27287
-19490.1
-14827
-13332
-9340.08
-7442.91
-3982.65
-1940.07
1160.09
3217.53
6071.76
8065.52
10756
12628
15225
16918.1
19496.4
20928.9
23579.6
24600.4
27340.9
-19435.6
-14767.5
-13276.3
-9281.33
-7388.04
-3924.91
-1885.87
1216.83
3271.17
6127.6
8118.64
10811
12680.6
15279.3
16970.1
19549.9
20980.2
23632.2
24651.1
27394.3
-19381.1
-14708.1
-13220.6
-9222.63
-7333.24
-3867.27
-1831.76
1273.42
3324.67
6183.22
8171.55
10865.7
12732.9
15333.1
17021.7
19602.9
21031
23684.4
24701.4
27447.3
-19326.7
-14648.7
-13165
-9164.01
-7278.54
-3809.74
-1777.78
1329.86
3378
6238.62
8224.23
10920.1
12784.9
15386.7
17072.9
19655.6
21081.4
23736.2
24751.3
27499.8
-19272.4
-14589.4
-13109.6
-9105.5
-7223.96
-3752.35
-1723.95
1386.1
3431.15
6293.78
8276.69
10974.3
12836.6
15439.9
17123.9
19707.9
21131.5
23787.7
24800.8
27552
-19218.2
-14530.2
-13054.2
-9047.11
-7169.52
-3695.12
-1670.27
1442.14
3484.11
6348.7
8328.92
11028.1
12888.1
15492.8
17174.5
19759.9
21181.3
23838.7
24849.9
27603.8
-19164.1
-14471.1
-12999
-8988.86
-7115.23
-3638.07
-1616.77
1497.97
3536.87
6403.37
8380.91
11081.7
12939.2
15545.4
17224.8
19811.5
21230.7
23889.5
24898.7
27655.3
-19110.2
-14412.2
-12944
-8930.78
-7061.12
-3581.21
-1563.46
1553.58
3589.42
6457.78
8432.67
11135
12990.2
15597.6
17274.8
19862.8
21279.8
23939.9
24947.1
27706.5
-19056.5
-14353.4
-12889.1
-8872.88
-7007.2
-3524.56
-1510.35
1608.95
3641.76
6511.94
8484.2
11188.1
13040.8
15649.6
17324.6
19913.9
21328.6
23990
24995.2
27757.4
-19003
-14294.8
-12834.5
-8815.17
-6953.47
-3468.12
-1457.44
1664.08
3693.88
6565.82
8535.49
11240.8
13091.3
15701.3
17374.1
19964.6
21377.1
24039.8
25043.1
27807.9
-18949.6
-14236.4
-12780
-8757.66
-6899.95
-3411.91
-1404.74
1718.96
3745.78
6619.44
8586.55
11293.2
13141.4
15752.7
17423.3
20015
21425.3
24089.4
25090.6
27858.3
-18896.5
-14178.2
-12725.8
-8700.37
-6846.65
-3355.93
-1352.26
1773.59
3797.45
6672.79
8637.37
11345.4
13191.3
15803.8
17472.2
20065.1
21473.3
24138.6
25137.8
27908.3
-18843.6
-14120.1
-12671.8
-8643.3
-6793.56
-3300.19
-1300
1827.96
3848.9
6725.87
8687.95
11397.3
13241
15854.6
17520.9
20115
21520.9
24187.6
25184.8
27958
-18790.9
-14062.3
-12618
-8586.46
-6740.71
-3244.7
-1247.96
1882.07
3900.11
6778.67
8738.3
11448.9
13290.4
15905.2
17569.3
20164.6
21568.4
24236.2
25231.5
28007.5
-18738.5
-14004.7
-12564.5
-8529.85
-6688.09
-3189.46
-1196.16
1935.91
3951.1
6831.19
8788.41
11500.2
13339.6
15955.4
17617.5
20213.9
21615.5
24284.7
25277.9
28056.8
-18686.4
-13947.4
-12511.2
-8473.49
-6635.71
-3134.48
-1144.59
1989.48
4001.85
6883.43
8838.28
11551.3
13388.5
16005.4
17665.4
20262.9
21662.4
24332.8
25324
28105.8
-18634.4
-13890.2
-12458.2
-8417.38
-6583.57
-3079.77
-1093.26
2042.77
4052.36
6935.39
8887.91
11602
13437.2
16055.1
17713
20311.6
21709
24380.7
25369.9
28154.5
-18582.8
-13833.4
-12405.4
-8361.53
-6531.68
-3025.32
-1042.18
2095.78
4102.64
6987.05
8937.31
11652.5
13485.6
16104.5
17760.4
20360.1
21755.4
24428.3
25415.5
28203
-18531.4
-13776.7
-12352.9
-8305.93
-6480.04
-2971.15
-991.328
2148.51
4152.68
7038.43
8986.46
11702.6
13533.8
16153.6
17807.6
20408.3
21801.5
24475.7
25460.9
28251.2
-18480.3
-13720.3
-12300.6
-8250.6
-6428.65
-2917.25
-940.724
2200.95
4202.48
7089.52
9035.38
11752.5
13581.8
16202.4
17854.5
20456.2
21847.3
24522.8
25505.9
28299.1
-18429.4
-13664.2
-12248.7
-8195.53
-6377.52
-2863.63
-890.365
2253.11
4252.04
7140.32
9084.06
11802.1
13629.5
16251
17901.2
20503.8
21892.9
24569.6
25550.7
28346.8
-18378.8
-13608.3
-12197
-8140.74
-6326.64
-2810.29
-840.252
2304.98
4301.36
7190.83
9132.5
11851.4
13677
16299.2
17947.6
20551.2
21938.2
24616.2
25595.3
28394.3
-18328.5
-13552.7
-12145.5
-8086.21
-6276.03
-2757.23
-790.388
2356.55
4350.44
7241.03
9180.7
11900.4
13724.2
16347.2
17993.7
20598.3
21983.3
24662.5
25639.6
28441.5
-18278.5
-13497.4
-12094.4
-8031.96
-6225.67
-2704.47
-740.772
2407.83
4399.28
7290.94
9228.67
11949.1
13771.2
16394.9
18039.7
20645.1
22028.2
24708.5
25683.6
28488.5
-18228.8
-13442.3
-12043.5
-7978
-6175.58
-2651.99
-691.406
2458.81
4447.87
7340.56
9276.39
11997.5
13817.9
16442.3
18085.3
20691.6
22072.7
24754.3
25727.3
28535.2
-18179.4
-13387.5
-11992.9
-7924.31
-6125.75
-2599.8
-642.29
2509.49
4496.23
7389.86
9323.87
12045.6
13864.4
16489.4
18130.8
20737.9
22117
24799.8
25770.8
28581.7
-18130.2
-13332.9
-11942.6
-7870.91
-6076.18
-2547.91
-593.427
2559.87
4544.34
7438.87
9371.12
12093.4
13910.7
16536.2
18175.9
20783.8
22161.1
24845.1
25814
28627.9
-18081.3
-13278.7
-11892.5
-7817.79
-6026.88
-2496.32
-544.817
2609.95
4592.2
7487.57
9418.12
12141
13956.7
16582.7
18220.9
20829.5
22204.9
24890.1
25857
28673.8
-18032.8
-13224.7
-11842.8
-7764.96
-5977.85
-2445.03
-496.46
2659.71
4639.83
7535.95
9464.88
12188.2
14002.5
16628.9
18265.5
20874.9
22248.5
24934.8
25899.7
28719.5
-17984.5
-13171
-11793.3
-7712.43
-5929.09
-2394.04
-448.358
2709.17
4687.2
7584.03
9511.4
12235.1
14048
16674.9
18310
20920.1
22291.8
24979.3
25942.1
28765
-17936.5
-13117.5
-11744.1
-7660.19
-5880.6
-2343.35
-400.511
2758.32
4734.33
7631.8
9557.68
12281.6
14093.3
16720.5
18354.2
20964.9
22334.8
25023.5
25984.3
28810.2
-17888.8
-13064.4
-11695.3
-7608.24
-5832.38
-2292.98
-352.919
2807.15
4781.22
7679.25
9603.71
12327.9
14138.4
16765.8
18398.1
21009.5
22377.6
25067.4
26026.2
28855.1
-17841.4
-13011.5
-11646.7
-7556.59
-5784.42
-2242.91
-305.583
2855.66
4827.86
7726.38
9649.51
12373.9
14183.2
16810.9
18441.8
21053.8
22420.1
25111
26067.8
28899.8
-17794.3
-12958.9
-11598.3
-7505.24
-5736.74
-2193.15
-258.501
2903.86
4874.25
7773.19
9695.06
12419.5
14227.7
16855.6
18485.2
21097.8
22462.4
25154.4
26109.2
28944.3
-17747.5
-12906.6
-11550.3
-7454.19
-5689.33
-2143.7
-211.674
2951.74
4920.4
7819.69
9740.37
12464.9
14272.1
16900
18528.4
21141.5
22504.4
25197.6
26150.2
28988.4
-17701
-12854.6
-11502.6
-7403.43
-5642.19
-2094.57
-165.103
2999.3
4966.3
7865.86
9785.44
12509.9
14316.1
16944.2
18571.3
21184.9
22546.1
25240.4
26191.1
29032.3
-17654.8
-12802.9
-11455.2
-7352.99
-5595.32
-2045.76
-118.787
3046.53
5011.96
7911.71
9830.27
12554.6
14360
16988
18614
21228.1
22587.6
25283
26231.6
29076
-17608.9
-12751.4
-11408
-7302.85
-5548.72
-1997.26
-72.7277
3093.43
5057.37
7957.23
9874.85
12599
14403.5
17031.5
18656.4
21270.9
22628.8
25325.3
26271.9
29119.4
-17563.3
-12700.3
-11361.2
-7253.01
-5502.4
-1949.09
-26.9243
3140.01
5102.53
8002.42
9919.19
12643.1
14446.9
17074.7
18698.6
21313.5
22669.8
25367.3
26311.9
29162.5
-17518
-12649.4
-11314.6
-7203.49
-5456.35
-1901.23
18.6228
3186.26
5147.45
8047.28
9963.29
12686.8
14490
17117.6
18740.5
21355.7
22710.5
25409.1
26351.6
29205.4
-17473
-12598.8
-11268.3
-7154.28
-5410.57
-1853.71
63.9138
3232.17
5192.12
8091.81
10007.1
12730.3
14532.8
17160.2
18782.2
21397.7
22750.9
25450.6
26391
29248
-17428.3
-12548.5
-11222.4
-7105.38
-5365.06
-1806.51
108.949
3277.75
5236.55
8136.01
10050.8
12773.3
14575.4
17202.5
18823.6
21439.4
22791.1
25491.8
26430.2
29290.4
-17383.9
-12498.6
-11176.7
-7056.8
-5319.83
-1759.64
153.729
3323
5280.73
8179.87
10094.1
12816.1
14617.8
17244.5
18864.8
21480.7
22831
25532.7
26469.1
29332.5
-17339.8
-12448.9
-11131.3
-7008.53
-5274.87
-1713.1
198.254
3367.9
5324.67
8223.4
10137.3
12858.6
14659.9
17286.1
18905.7
21521.8
22870.7
25573.4
26507.7
29374.3
-17296.1
-12399.5
-11086.2
-6960.58
-5230.18
-1666.9
242.525
3412.47
5368.37
8266.58
10180.2
12900.7
14701.8
17327.5
18946.4
21562.6
22910
25613.8
26546.1
29415.9
-17252.6
-12350.4
-11041.5
-6912.95
-5185.77
-1621.03
286.541
3456.69
5411.82
8309.43
10222.8
12942.4
14743.4
17368.5
18986.8
21603.1
22949.2
25653.9
26584.2
29457.2
-17209.5
-12301.6
-10997
-6865.64
-5141.62
-1575.49
330.303
3500.57
5455.02
8351.93
10265.2
12983.9
14784.8
17409.2
19026.9
21643.3
22988
25693.7
26622
29498.3
-17166.6
-12253.2
-10952.8
-6818.66
-5097.75
-1530.3
373.812
3544.1
5497.99
8394.09
10307.4
13025
14825.9
17449.6
19066.8
21683.2
23026.6
25733.2
26659.5
29539
-17124.1
-12205
-10908.9
-6772
-5054.15
-1485.45
417.067
3587.29
5540.71
8435.9
10349.3
13065.8
14866.8
17489.6
19106.5
21722.8
23065
25772.5
26696.7
29579.6
-17081.8
-12157.1
-10865.3
-6725.67
-5010.82
-1440.94
460.07
3630.12
5583.19
8477.36
10391
13106.2
14907.4
17529.4
19145.9
21762.1
23103
25811.5
26733.7
29619.8
-17039.9
-12109.6
-10822
-6679.67
-4967.76
-1396.77
502.821
3672.6
5625.42
8518.47
10432.5
13146.3
14947.8
17568.8
19185
21801.1
23140.8
25850.2
26770.4
29659.8
-16998.3
-12062.3
-10779
-6634
-4924.97
-1352.96
545.321
3714.73
5667.42
8559.23
10473.7
13186.1
14988
17607.9
19223.9
21839.7
23178.4
25888.6
26806.8
29699.5
-16957
-12015.3
-10736.3
-6588.65
-4882.45
-1309.49
587.572
3756.5
5709.17
8599.64
10514.6
13225.5
15027.9
17646.7
19262.5
21878.1
23215.6
25926.7
26842.9
29738.9
-16915.9
-11968.7
-10693.8
-6543.64
-4840.2
-1266.37
629.574
3797.91
5750.69
8639.69
10555.4
13264.6
15067.6
17685.1
19300.9
21916.2
23252.6
25964.6
26878.8
29778.1
-16875.2
-11922.4
-10651.7
-6498.97
-4798.21
-1223.6
671.329
3838.97
5791.97
8679.39
10595.9
13303.3
15107
17723.2
19339
21953.9
23289.4
26002.2
26914.3
29817
-16834.9
-11876.3
-10609.9
-6454.63
-4756.49
-1181.19
712.837
3879.66
5833.01
8718.73
10636.1
13341.7
15146.2
17761
19376.9
21991.4
23325.8
26039.4
26949.6
29855.7
-16794.8
-11830.6
-10568.3
-6410.63
-4715.04
-1139.13
754.099
3919.99
5873.82
8757.71
10676.1
13379.7
15185.1
17798.5
19414.5
22028.5
23362
26076.4
26984.6
29894
-16755
-11785.2
-10527.1
-6366.97
-4673.85
-1097.43
795.116
3959.95
5914.38
8796.32
10715.9
13417.4
15223.8
17835.6
19451.9
22065.4
23397.9
26113.1
27019.3
29932.1
-16715.5
-11740.1
-10486.2
-6323.65
-4632.92
-1056.1
835.889
3999.55
5954.71
8834.58
10755.5
13454.7
15262.2
17872.4
19489
22101.9
23433.6
26149.6
27053.7
29969.9
-16676.4
-11695.3
-10445.5
-6280.67
-4592.25
-1015.12
876.418
4038.77
5994.81
8872.46
10794.8
13491.7
15300.4
17908.9
19525.8
22138.1
23469
26185.7
27087.9
30007.5
-16637.5
-11650.9
-10405.1
-6238.04
-4551.85
-974.515
916.706
4077.62
6034.67
8909.98
10833.9
13528.3
15338.4
17945
19562.4
22174
23504.1
26221.5
27121.7
30044.7
-16599
-11606.7
-10365
-6195.76
-4511.71
-934.276
956.752
4116.1
6074.3
8947.13
10872.7
13564.6
15376.1
17980.8
19598.8
22209.6
23539
26257.1
27155.3
30081.7
-16560.7
-11562.9
-10325.3
-6153.83
-4471.82
-894.406
996.559
4154.2
6113.7
8983.91
10911.3
13600.5
15413.6
18016.2
19634.8
22244.9
23573.6
26292.3
27188.6
30118.5
-16522.8
-11519.4
-10285.8
-6112.25
-4432.19
-854.909
1036.13
4191.93
6152.87
9020.32
10949.7
13636.1
15450.8
18051.4
19670.7
22279.9
23607.9
26327.3
27221.6
30154.9
-16485.1
-11476.2
-10246.5
-6071.02
-4392.82
-815.787
1075.46
4229.27
6191.8
9056.35
10987.8
13671.3
15487.8
18086.1
19706.2
22314.5
23641.9
26362
27254.3
30191.1
-16447.8
-11433.3
-10207.6
-6030.15
-4353.7
-777.041
1114.56
4266.23
6230.51
9092.01
11025.7
13706.1
15524.6
18120.6
19741.6
22348.8
23675.7
26396.4
27286.7
30227
-16410.8
-11390.8
-10169
-5989.64