/*--------------------------------*- C++ -*----------------------------------*\
  =========                 |
  \\      /  F ield         | OpenFOAM: The Open Source CFD Toolbox
   \\    /   O peration     | Website:  https://openfoam.org
    \\  /    A nd           | Version:  8
     \\/     M anipulation  |
\*---------------------------------------------------------------------------*/
FoamFile
{
    version     2.0;
    format      ascii;
    class       surfaceScalarField;
    location    "300";
    object      phi;
}
// * * * * * * * * * * * * * * * * * * * * * * * * * * * * * * * * * * * * * //

dimensions      [1 0 -1 0 0 0 0];

internalField   nonuniform List<scalar> 
16360
(
-1.3669
0.000223746
-1.36715
0.000255248
-1.36742
0.000267276
-1.36769
0.000272171
-1.36796
0.000273917
-1.36824
0.000274
-1.36851
0.000272961
-1.36878
0.000271068
-1.36905
0.000268407
-1.36932
0.000264965
-1.36958
0.000260735
-1.36983
0.000255645
-1.37008
0.000249612
-1.37032
0.000242511
-1.37056
0.000234223
-1.37078
0.000224553
-1.371
0.000213296
-1.3712
0.000200242
-1.37138
0.000185095
-1.37155
0.000167522
-1.3717
0.000147132
-1.37182
0.000123477
-1.37192
9.60901e-05
-1.37198
6.42649e-05
-1.37201
2.70666e-05
-1.37199
-1.71869e-05
-1.37192
-7.05528e-05
-1.37178
-0.000134049
-1.37158
-0.000208184
-1.37128
-0.000294245
-1.37089
-0.00039398
-1.37038
-0.000509511
-1.36974
-0.000643318
-1.36894
-0.000798323
-1.36796
-0.000977972
-1.36677
-0.00118634
-1.36534
-0.00142828
-1.36364
-0.00170955
-1.3616
-0.00203714
-1.35918
-0.0024196
-1.35631
-0.00286769
-1.35292
-0.00339505
-1.3489
-0.00401928
-1.34413
-0.00476408
-1.33847
-0.00566438
-1.33169
-0.00677413
-1.32353
-0.00816485
-1.31363
-0.00990283
-1.30153
-0.0120974
-0.0153413
-1.28619
-1.56475
0.000485441
-1.56498
0.00048697
-1.5652
0.000488726
-1.56542
0.000492217
-1.56564
0.000494028
-1.56586
0.000493955
-1.56608
0.000492204
-1.5663
0.000488905
-1.56651
0.000484154
-1.56672
0.000477956
-1.56693
0.000470218
-1.56714
0.000460831
-1.56734
0.000449621
-1.56753
0.000436371
-1.56772
0.000420761
-1.5679
0.000402507
-1.56807
0.000381214
-1.56822
0.00035644
-1.56836
0.000327658
-1.56849
0.000294176
-1.5686
0.000255245
-1.56869
0.000210076
-1.56875
0.000157855
-1.56878
9.72675e-05
-1.56878
2.67599e-05
-1.56874
-5.55004e-05
-1.56866
-0.000151217
-1.56853
-0.000262192
-1.56835
-0.000390839
-1.5681
-0.00053986
-1.56779
-0.000712382
-1.56738
-0.000912051
-1.56688
-0.00114313
-1.56627
-0.0014106
-1.56553
-0.00172025
-1.56464
-0.00207888
-1.56357
-0.00249447
-1.5623
-0.00297646
-1.5608
-0.00353607
-1.55904
-0.00418685
-1.55696
-0.00494531
-1.55452
-0.00583183
-1.55167
-0.00687195
-1.54834
-0.00809894
-1.54444
-0.00955921
-1.5399
-0.0113184
-1.5346
-0.0134587
-1.52843
-0.0160778
-1.52115
-0.019372
-0.0238007
-1.51269
-1.60408
0.000305953
-1.60397
0.000370107
-1.60388
0.000395968
-1.60379
0.000405522
-1.6037
0.000408408
-1.60362
0.000407687
-1.60353
0.000404426
-1.60344
0.000399031
-1.60335
0.00039159
-1.60325
0.000382099
-1.60315
0.000370429
-1.60305
0.000356378
-1.60294
0.00033967
-1.60282
0.000319999
-1.6027
0.000296967
-1.60256
0.000270084
-1.60242
0.000238799
-1.60227
0.000202492
-1.6021
0.000160353
-1.60192
0.000111502
-1.60172
5.47515e-05
-1.6015
-1.11443e-05
-1.60125
-8.80453e-05
-1.60097
-0.000177654
-1.60067
-0.000281586
-1.60032
-0.000401825
-1.59993
-0.000540893
-1.59949
-0.00070182
-1.59899
-0.000888074
-1.59843
-0.00110361
-1.59779
-0.00135296
-1.59706
-0.00164143
-1.59623
-0.00197518
-1.59528
-0.00236135
-1.59419
-0.00280828
-1.59294
-0.00332571
-1.59151
-0.00392501
-1.58987
-0.00461956
-1.58798
-0.00542514
-1.58581
-0.00636055
-1.5833
-0.00744833
-1.58042
-0.00871564
-1.5771
-0.0101957
-1.57326
-0.01193
-1.56885
-0.0139727
-1.56378
-0.0163932
-1.55796
-0.019273
-1.55133
-0.0227117
-1.54381
-0.0268848
-0.0321467
-1.53547
-1.64899
0.000460313
-1.64902
0.000398478
-1.649
0.000379107
-1.64897
0.000374876
-1.64894
0.000373148
-1.6489
0.000370499
-1.64886
0.000365955
-1.64882
0.000359231
-1.64878
0.000350173
-1.64874
0.000338634
-1.64869
0.0003244
-1.64864
0.000307224
-1.64859
0.000286744
-1.64853
0.000262519
-1.64847
0.00023406
-1.6484
0.000200762
-1.64832
0.000161908
-1.64824
0.000116757
-1.64814
6.42544e-05
-1.64803
3.28955e-06
-1.64791
-6.72822e-05
-1.64777
-0.000148958
-1.64762
-0.000243475
-1.64744
-0.000352726
-1.64725
-0.000479195
-1.64702
-0.000625559
-1.64677
-0.000794933
-1.64648
-0.000990967
-1.64615
-0.00121787
-1.64577
-0.00148049
-1.64534
-0.0017844
-1.64485
-0.00213607
-1.64428
-0.00254299
-1.64363
-0.00301386
-1.64287
-0.00355876
-1.64201
-0.00418942
-1.64102
-0.0049195
-1.63987
-0.00576496
-1.63855
-0.00674447
-1.63703
-0.00788002
-1.63528
-0.00919759
-1.63327
-0.010728
-1.63096
-0.0125081
-1.62831
-0.0145829
-1.62527
-0.0170077
-1.62181
-0.0198495
-1.6179
-0.0231849
-1.61351
-0.0271068
-1.60864
-0.0317532
-0.0373196
-1.60347
-1.63401
0.000133399
-1.63383
0.000218888
-1.6337
0.000250286
-1.63358
0.000259355
-1.63347
0.000260366
-1.63336
0.000257295
-1.63324
0.000251286
-1.63313
0.000242621
-1.63301
0.000231273
-1.63289
0.000217073
-1.63276
0.000199768
-1.63263
0.000179013
-1.6325
0.000154409
-1.63236
0.000125438
-1.63222
9.14976e-05
-1.63207
5.18421e-05
-1.63192
5.66762e-06
-1.63175
-4.81461e-05
-1.63158
-0.000110719
-1.63139
-0.000183298
-1.63119
-0.000267425
-1.63097
-0.000365013
-1.63074
-0.00047802
-1.63048
-0.000608804
-1.6302
-0.000760156
-1.62989
-0.000935257
-1.62955
-0.00113781
-1.62917
-0.00137214
-1.62874
-0.00164321
-1.62827
-0.00195676
-1.62773
-0.00231943
-1.62713
-0.00273888
-1.62645
-0.00322398
-1.62568
-0.00378499
-1.6248
-0.0044338
-1.62381
-0.00518414
-1.62268
-0.00605196
-1.62138
-0.00705572
-1.61991
-0.00821689
-1.61823
-0.0095604
-1.61631
-0.0111153
-1.61413
-0.0129155
-1.61163
-0.0150007
-1.6088
-0.0174178
-1.60558
-0.0202221
-1.60196
-0.0234781
-1.59788
-0.0272584
-1.59334
-0.031647
-1.58835
-0.0367488
-0.0426962
-1.58297
-1.64897
0.000344626
-1.649
0.000251708
-1.64897
0.000219315
-1.64892
0.000208933
-1.64886
0.000203333
-1.6488
0.000197529
-1.64874
0.000189906
-1.64868
0.000179821
-1.64861
0.000166963
-1.64855
0.000150974
-1.64848
0.000131555
-1.64841
0.000108296
-1.64833
8.07233e-05
-1.64826
4.82134e-05
-1.64817
1.01e-05
-1.64809
-3.44011e-05
-1.648
-8.62027e-05
-1.6479
-0.000146435
-1.64779
-0.000216315
-1.64768
-0.000297362
-1.64755
-0.000391327
-1.64742
-0.000500231
-1.64727
-0.00062637
-1.64711
-0.000772421
-1.64693
-0.000941478
-1.64672
-0.00113713
-1.6465
-0.00136356
-1.64624
-0.00162558
-1.64596
-0.00192874
-1.64564
-0.00227948
-1.64527
-0.00268523
-1.64485
-0.00315456
-1.64438
-0.00369738
-1.64384
-0.00432513
-1.64322
-0.00505103
-1.64252
-0.0058903
-1.64171
-0.00686052
-1.64078
-0.00798195
-1.63972
-0.00927793
-1.63851
-0.0107753
-1.63712
-0.012505
-1.63553
-0.0145023
-1.63372
-0.0168077
-1.63167
-0.0194678
-1.62936
-0.022535
-1.62677
-0.0260682
-1.6239
-0.0301315
-1.62075
-0.0347941
-1.61737
-0.0401327
-0.04623
-1.61383
-1.64034
-3.82952e-05
-1.64016
6.32953e-05
-1.64004
9.85713e-05
-1.63993
0.000107115
-1.63984
0.000106418
-1.63974
0.000101239
-1.63964
9.28939e-05
-1.63954
8.16113e-05
-1.63945
6.72747e-05
-1.63934
4.96159e-05
-1.63924
2.82659e-05
-1.63913
2.76605e-06
-1.63903
-2.74392e-05
-1.63892
-6.29999e-05
-1.6388
-0.000104656
-1.63868
-0.000153273
-1.63856
-0.000209965
-1.63843
-0.000275907
-1.63829
-0.000352474
-1.63815
-0.000441317
-1.638
-0.000544326
-1.63783
-0.000663691
-1.63766
-0.000801952
-1.63747
-0.000962037
-1.63726
-0.00114734
-1.63704
-0.00136179
-1.63679
-0.00160996
-1.63652
-0.00189709
-1.63622
-0.00222929
-1.63588
-0.00261359
-1.63551
-0.00305811
-1.63509
-0.00357223
-1.63462
-0.00416677
-1.63409
-0.00485422
-1.6335
-0.00564898
-1.63282
-0.00656762
-1.63205
-0.00762918
-1.63118
-0.00885553
-1.63018
-0.0102717
-1.62905
-0.0119065
-1.62776
-0.0137924
-1.6263
-0.0159664
-1.62464
-0.0184702
-1.62276
-0.0213505
-1.62063
-0.0246589
-1.61825
-0.0284515
-1.61559
-0.0327871
-1.61266
-0.0377256
-1.60947
-0.0433256
-0.0496464
-1.60605
-1.64638
0.00020727
-1.64642
0.000102124
-1.64639
6.42908e-05
-1.64633
5.08896e-05
-1.64627
4.29561e-05
-1.6462
3.49804e-05
-1.64613
2.51155e-05
-1.64606
1.26402e-05
-1.64599
-2.89777e-06
-1.64592
-2.18743e-05
-1.64585
-4.4719e-05
-1.64578
-7.1946e-05
-1.6457
-0.000104165
-1.64562
-0.000141994
-1.64554
-0.000186292
-1.64545
-0.000238003
-1.64536
-0.000298224
-1.64527
-0.000368236
-1.64518
-0.000449538
-1.64507
-0.000543861
-1.64496
-0.00065321
-1.64485
-0.000779911
-1.64472
-0.000926662
-1.64459
-0.00109658
-1.64444
-0.00129326
-1.64428
-0.00152087
-1.64411
-0.00178426
-1.64392
-0.002089
-1.64371
-0.00244156
-1.64347
-0.00284937
-1.64321
-0.00332106
-1.64291
-0.00386656
-1.64258
-0.00449735
-1.64221
-0.0052266
-1.64179
-0.00606954
-1.64131
-0.00704362
-1.64077
-0.00816889
-1.64016
-0.0094683
-1.63946
-0.010968
-1.63867
-0.0126977
-1.63777
-0.014691
-1.63675
-0.0169858
-1.6356
-0.019624
-1.6343
-0.0226519
-1.63284
-0.0261198
-1.63121
-0.0300808
-1.62941
-0.0345894
-1.62743
-0.0396979
-1.62531
-0.0454541
-0.0519033
-1.62305
-1.64263
-0.00019136
-1.64245
-8.41431e-05
-1.64234
-4.77551e-05
-1.64225
-3.97343e-05
-1.64216
-4.15144e-05
-1.64208
-4.79707e-05
-1.642
-5.77144e-05
-1.64191
-7.05048e-05
-1.64183
-8.65034e-05
-1.64174
-0.000106032
-1.64166
-0.000129543
-1.64157
-0.00015755
-1.64149
-0.000190645
-1.6414
-0.000229591
-1.64131
-0.000275199
-1.64122
-0.000328451
-1.64113
-0.000390525
-1.64103
-0.00046276
-1.64094
-0.000546685
-1.64084
-0.000644094
-1.64073
-0.000757086
-1.64062
-0.000888081
-1.64051
-0.00103986
-1.64039
-0.00121566
-1.64027
-0.00141925
-1.64013
-0.00165494
-1.63999
-0.00192777
-1.63983
-0.00224353
-1.63967
-0.00260894
-1.63948
-0.00303175
-1.63928
-0.00352091
-1.63906
-0.00408675
-1.63882
-0.00474122
-1.63855
-0.00549803
-1.63825
-0.006373
-1.6379
-0.00738428
-1.63752
-0.00855268
-1.63709
-0.00990199
-1.6366
-0.0114593
-1.63604
-0.0132554
-1.6354
-0.0153248
-1.63468
-0.0177062
-1.63387
-0.0204426
-1.63294
-0.0235805
-1.63189
-0.0271702
-1.6307
-0.0312642
-1.62938
-0.035915
-1.6279
-0.0411719
-1.62628
-0.0470778
-0.0536715
-1.62451
-1.64387
6.12784e-05
-1.64391
-4.51958e-05
-1.64387
-8.39268e-05
-1.64381
-9.83159e-05
-1.64374
-0.000107283
-1.64368
-0.000116297
-1.64361
-0.000127195
-1.64354
-0.000140714
-1.64347
-0.000157336
-1.64339
-0.000177484
-1.64332
-0.00020162
-1.64325
-0.000230317
-1.64318
-0.00026418
-1.6431
-0.000303943
-1.64303
-0.000350484
-1.64295
-0.000404821
-1.64287
-0.000468115
-1.64279
-0.000541726
-1.64271
-0.000627225
-1.64263
-0.00072644
-1.64255
-0.000841499
-1.64246
-0.000974846
-1.64237
-0.00112931
-1.64228
-0.00130818
-1.64218
-0.00151529
-1.64208
-0.001755
-1.64198
-0.00203243
-1.64187
-0.00235346
-1.64175
-0.0027249
-1.64163
-0.00315464
-1.6415
-0.00365178
-1.64136
-0.00422682
-1.64121
-0.00489188
-1.64104
-0.00566097
-1.64087
-0.00655016
-1.64067
-0.00757798
-1.64046
-0.00876566
-1.64022
-0.0101375
-1.63996
-0.0117212
-1.63967
-0.0135482
-1.63934
-0.0156539
-1.63897
-0.018078
-1.63855
-0.0208645
-1.63807
-0.0240612
-1.63752
-0.0277195
-1.63689
-0.031893
-1.63617
-0.0366358
-1.63534
-0.0419981
-1.6344
-0.0480233
-0.0547472
-1.63332
-1.64387
-0.000324899
-1.64369
-0.000219513
-1.64359
-0.000184377
-1.64351
-0.000177255
-1.64344
-0.000179758
-1.64337
-0.000186833
-1.6433
-0.000197066
-1.64323
-0.000210237
-1.64316
-0.000226521
-1.64309
-0.000246274
-1.64303
-0.000269938
-1.64296
-0.000298021
-1.64289
-0.000331206
-1.64282
-0.000370206
-1.64276
-0.000415874
-1.6427
-0.000469227
-1.64263
-0.000531427
-1.64257
-0.000603814
-1.64251
-0.000687956
-1.64245
-0.000785668
-1.64239
-0.000899038
-1.64234
-0.0010305
-1.64228
-0.00118288
-1.64223
-0.00135944
-1.64218
-0.00156394
-1.64214
-0.00180076
-1.64209
-0.00207497
-1.64206
-0.0023924
-1.64202
-0.00275985
-1.64199
-0.00318513
-1.64196
-0.00367732
-1.64194
-0.00424687
-1.64193
-0.00490588
-1.64192
-0.00566831
-1.64192
-0.00655025
-1.64193
-0.00757022
-1.64195
-0.00874951
-1.64197
-0.0101125
-1.64201
-0.0116872
-1.64205
-0.0135053
-1.6421
-0.0156028
-1.64216
-0.01802
-1.64222
-0.020802
-1.64228
-0.0239981
-1.64234
-0.0276616
-1.64239
-0.0318487
-1.64241
-0.0366164
-1.64238
-0.0420188
-1.64231
-0.0481031
-0.0549102
-1.64214
-1.6408
-8.53551e-05
-1.64083
-0.000186526
-1.6408
-0.000223603
-1.64073
-0.000237834
-1.64067
-0.000246941
-1.6406
-0.00025604
-1.64053
-0.000266825
-1.64046
-0.000280023
-1.64039
-0.000296094
-1.64032
-0.000315449
-1.64025
-0.000338578
-1.64018
-0.000366025
-1.64012
-0.000398413
-1.64005
-0.000436463
-1.63998
-0.000481023
-1.63992
-0.000533085
-1.63986
-0.000593776
-1.6398
-0.000664404
-1.63974
-0.000746503
-1.63968
-0.000841845
-1.63963
-0.00095247
-1.63958
-0.00108075
-1.63953
-0.00122944
-1.63949
-0.0014017
-1.63945
-0.00160122
-1.63942
-0.00183226
-1.6394
-0.00209977
-1.63938
-0.00240946
-1.63937
-0.00276793
-1.63937
-0.00318284
-1.63939
-0.00366307
-1.63942
-0.00421886
-1.63946
-0.00486207
-1.63952
-0.00560642
-1.6396
-0.00646776
-1.63971
-0.00746441
-1.63984
-0.00861748
-1.64
-0.00995128
-1.6402
-0.0114938
-1.64043
-0.013277
-1.64069
-0.0153375
-1.64099
-0.0177168
-1.64133
-0.0204619
-1.64171
-0.0236248
-1.64211
-0.027263
-1.64252
-0.0314382
-1.64292
-0.0362153
-1.64328
-0.0416591
-1.64355
-0.0478295
-0.0547712
-1.64369
-1.64493
-0.000436675
-1.64477
-0.000340199
-1.64469
-0.000308882
-1.64462
-0.000303251
-1.64456
-0.000306354
-1.64451
-0.000313477
-1.64445
-0.000323337
-1.64439
-0.000335743
-1.64434
-0.000350878
-1.64428
-0.000369096
-1.64423
-0.000390832
-1.64418
-0.0004166
-1.64413
-0.000446981
-1.64409
-0.000482684
-1.64404
-0.000524515
-1.644
-0.000573398
-1.64397
-0.000630398
-1.64393
-0.000696759
-1.64391
-0.000773928
-1.64389
-0.000863573
-1.64387
-0.000967615
-1.64386
-0.0010883
-1.64386
-0.00122821
-1.64387
-0.00139035
-1.6439
-0.00157819
-1.64393
-0.00179576
-1.64399
-0.00204772
-1.64406
-0.00233948
-1.64415
-0.00267727
-1.64426
-0.00306837
-1.6444
-0.00352115
-1.64458
-0.00404535
-1.64479
-0.00465227
-1.64504
-0.00535497
-1.64534
-0.00616859
-1.64569
-0.00711072
-1.64611
-0.00820168
-1.64659
-0.00946505
-1.64716
-0.0109281
-1.64781
-0.0126223
-1.64857
-0.0145841
-1.64943
-0.0168553
-1.65041
-0.0194836
-1.65151
-0.0225237
-1.65273
-0.0260364
-1.65408
-0.0300891
-1.65554
-0.0347545
-1.65709
-0.0401096
-1.65869
-0.0462293
-0.05318
-1.66029
-1.63586
-0.000232651
-1.63588
-0.000322844
-1.63583
-0.000356439
-1.63577
-0.000369957
-1.63569
-0.000378718
-1.63562
-0.000387162
-1.63555
-0.000396829
-1.63547
-0.000408413
-1.6354
-0.000422346
-1.63533
-0.000439047
-1.63526
-0.000458958
-1.6352
-0.000482589
-1.63513
-0.000510503
-1.63507
-0.000543348
-1.63502
-0.000581886
-1.63496
-0.000626973
-1.63491
-0.000679608
-1.63487
-0.000740963
-1.63483
-0.000812381
-1.6348
-0.0008954
-1.63477
-0.000991826
-1.63476
-0.00110375
-1.63475
-0.00123357
-1.63476
-0.00138409
-1.63478
-0.00155856
-1.63481
-0.00176074
-1.63487
-0.00199496
-1.63494
-0.00226628
-1.63504
-0.00258057
-1.63516
-0.00294459
-1.63532
-0.00336623
-1.63551
-0.00385463
-1.63574
-0.00442042
-1.63602
-0.00507595
-1.63635
-0.00583559
-1.63674
-0.00671602
-1.63721
-0.00773673
-1.63775
-0.00892047
-1.63839
-0.0102937
-1.63912
-0.0118874
-1.63997
-0.0137379
-1.64094
-0.0158873
-1.64204
-0.0183853
-1.64327
-0.0212898
-1.64464
-0.0246677
-1.64613
-0.0285954
-1.64773
-0.0331594
-1.64938
-0.0384599
-1.651
-0.0446069
-0.0516897
-1.65249
-1.64642
-0.000513683
-1.64631
-0.000436972
-1.64625
-0.000414017
-1.64621
-0.000411394
-1.64617
-0.000415304
-1.64614
-0.000422028
-1.6461
-0.000430653
-1.64607
-0.000441115
-1.64604
-0.000453668
-1.64601
-0.000468648
-1.64598
-0.000486446
-1.64596
-0.00050751
-1.64593
-0.000532356
-1.64592
-0.000561571
-1.6459
-0.000595819
-1.64589
-0.000635872
-1.64589
-0.000682632
-1.64589
-0.000737126
-1.64591
-0.000800526
-1.64593
-0.000874212
-1.64596
-0.000959792
-1.646
-0.0010591
-1.64606
-0.00117427
-1.64614
-0.00130778
-1.64623
-0.0014625
-1.64635
-0.00164175
-1.6465
-0.00184938
-1.64668
-0.00208987
-1.64689
-0.00236839
-1.64714
-0.00269096
-1.64744
-0.00306457
-1.6478
-0.00349734
-1.64822
-0.00399875
-1.64872
-0.0045798
-1.6493
-0.00525333
-1.64998
-0.00603437
-1.65078
-0.00694056
-1.65171
-0.00799256
-1.65279
-0.00921474
-1.65404
-0.0106359
-1.65548
-0.0122902
-1.65715
-0.0142183
-1.65907
-0.016469
-1.66126
-0.0191012
-1.66374
-0.0221854
-1.66653
-0.0258047
-1.66963
-0.0300566
-1.67303
-0.0350611
-1.67667
-0.0409666
-0.0479268
-1.68044
-1.62403
-0.000373981
-1.62401
-0.000451148
-1.62395
-0.00048054
-1.62387
-0.000493449
-1.62378
-0.000501662
-1.62369
-0.000508949
-1.62361
-0.000516721
-1.62352
-0.000525666
-1.62344
-0.000536231
-1.62336
-0.000548796
-1.62328
-0.000563741
-1.62321
-0.000581475
-1.62314
-0.000602467
-1.62307
-0.000627234
-1.62301
-0.000656347
-1.62296
-0.000690481
-1.62291
-0.000730416
-1.62287
-0.000777039
-1.62284
-0.000831382
-1.62282
-0.000894651
-1.62281
-0.000968225
-1.62281
-0.0010537
-1.62284
-0.00115294
-1.62288
-0.00126811
-1.62294
-0.00140169
-1.62302
-0.00155657
-1.62313
-0.00173613
-1.62328
-0.00194426
-1.62346
-0.00218549
-1.62369
-0.0024651
-1.62396
-0.0027892
-1.6243
-0.00316494
-1.62469
-0.00360067
-1.62517
-0.00410614
-1.62573
-0.00469279
-1.62639
-0.00537405
-1.62716
-0.00616581
-1.62807
-0.00708686
-1.62913
-0.00815964
-1.63035
-0.00941106
-1.63177
-0.0108736
-1.6334
-0.0125866
-1.63527
-0.0145987
-1.6374
-0.0169703
-1.63981
-0.0197776
-1.6425
-0.0231137
-1.64547
-0.0270894
-1.64867
-0.0318522
-1.65202
-0.0376229
-0.0446571
-1.65529
-1.64171
-0.000503566
-1.6417
-0.00046422
-1.64173
-0.000455438
-1.64176
-0.000457161
-1.6418
-0.000461601
-1.64184
-0.000467095
-1.64189
-0.000473402
-1.64193
-0.000480703
-1.64198
-0.000489265
-1.64203
-0.000499384
-1.64208
-0.000511372
-1.64214
-0.00052555
-1.6422
-0.000542284
-1.64226
-0.00056199
-1.64233
-0.000585133
-1.64241
-0.000612252
-1.6425
-0.000643951
-1.6426
-0.000680928
-1.6427
-0.00072401
-1.64282
-0.00077414
-1.64296
-0.000832401
-1.64311
-0.00090007
-1.64329
-0.000978617
-1.64349
-0.00106972
-1.64371
-0.00117536
-1.64397
-0.00129782
-1.64427
-0.00143974
-1.64461
-0.00160421
-1.645
-0.0017948
-1.64545
-0.00201567
-1.64596
-0.00227166
-1.64656
-0.00256844
-1.64725
-0.00291258
-1.64804
-0.00331185
-1.64896
-0.00377535
-1.65002
-0.00431383
-1.65125
-0.00494
-1.65266
-0.00566905
-1.6543
-0.00651923
-1.6562
-0.00751266
-1.6584
-0.00867646
-1.66094
-0.010044
-1.66388
-0.0116573
-1.66728
-0.0135703
-1.67121
-0.0158547
-1.67572
-0.018603
-1.68088
-0.0219276
-1.68675
-0.0259813
-1.69333
-0.0310447
-0.0375813
-1.7004
-1.56399
-0.000405779
-1.56398
-0.000478145
-1.56393
-0.000500318
-1.56388
-0.000510503
-1.56382
-0.000516853
-1.56377
-0.000522196
-1.56371
-0.000527565
-1.56366
-0.000533434
-1.56361
-0.000540123
-1.56356
-0.000547875
-1.56352
-0.00055692
-1.56347
-0.000567514
-1.56344
-0.000579919
-1.5634
-0.000594427
-1.56338
-0.000611384
-1.56336
-0.000631169
-1.56335
-0.000654208
-1.56335
-0.00068102
-1.56336
-0.000712197
-1.56339
-0.000748405
-1.56343
-0.000790432
-1.56349
-0.000839188
-1.56357
-0.000895715
-1.56368
-0.000961238
-1.56382
-0.00103717
-1.56399
-0.00112515
-1.5642
-0.00122709
-1.56446
-0.00134518
-1.56478
-0.001482
-1.56515
-0.00164056
-1.5656
-0.00182432
-1.56613
-0.00203738
-1.56676
-0.00228451
-1.5675
-0.00257129
-1.56837
-0.00290434
-1.56939
-0.00329149
-1.57059
-0.00374204
-1.57199
-0.00426722
-1.57363
-0.00488063
-1.57554
-0.00559899
-1.57778
-0.00644325
-1.58038
-0.00743986
-1.58341
-0.00862297
-1.58695
-0.0100385
-1.59105
-0.0117522
-1.59579
-0.0138577
-1.60125
-0.0164746
-1.60747
-0.0197589
-1.61447
-0.0240406
-0.0300672
-1.62199
-1.52279
-0.000101125
-1.52322
-5.00409e-05
-1.52368
-4.04135e-05
-1.52415
-3.85713e-05
-1.52463
-3.89839e-05
-1.52511
-4.00179e-05
-1.5256
-4.13782e-05
-1.52609
-4.30823e-05
-1.52658
-4.52081e-05
-1.52708
-4.78716e-05
-1.52759
-5.12044e-05
-1.5281
-5.53221e-05
-1.52862
-6.03509e-05
-1.52915
-6.64583e-05
-1.52969
-7.3822e-05
-1.53024
-8.26243e-05
-1.5308
-9.30967e-05
-1.53137
-0.000105512
-1.53196
-0.000120166
-1.53258
-0.00013741
-1.53321
-0.000157656
-1.53387
-0.000181364
-1.53455
-0.000209088
-1.53527
-0.000241464
-1.53603
-0.000279221
-1.53683
-0.000323224
-1.53768
-0.000374455
-1.5386
-0.000434068
-1.53957
-0.000503406
-1.54063
-0.000584038
-1.54178
-0.000677815
-1.54303
-0.000786844
-1.5444
-0.000913662
-1.54591
-0.00106126
-1.54758
-0.00123312
-1.54944
-0.00143344
-1.55151
-0.00166728
-1.55384
-0.00194076
-1.55646
-0.00226142
-1.55942
-0.0026387
-1.56278
-0.00308466
-1.5666
-0.00361502
-1.57097
-0.00425062
-1.57599
-0.00502043
-1.58178
-0.00596828
-1.58847
-0.00716205
-1.59625
-0.00869263
-1.60536
-0.0106557
-1.61616
-0.0132358
-0.0172432
-1.62899
-1.22702
-1.22707
-1.22711
-1.22715
-1.22719
-1.22723
-1.22727
-1.22732
-1.22736
-1.22741
-1.22746
-1.22751
-1.22758
-1.22764
-1.22772
-1.2278
-1.22789
-1.228
-1.22812
-1.22825
-1.22841
-1.22859
-1.2288
-1.22904
-1.22932
-1.22965
-1.23002
-1.23045
-1.23096
-1.23154
-1.23222
-1.23301
-1.23392
-1.23498
-1.23621
-1.23765
-1.23932
-1.24126
-1.24352
-1.24616
-1.24924
-1.25286
-1.25711
-1.26213
-1.2681
-1.27526
-1.28395
-1.29461
-1.30784
-1.32508
1.62587
-0.0342492
1.638
-0.0121345
1.64684
-0.00883958
1.65127
-0.0044262
1.65284
-0.00157461
1.65294
-9.91215e-05
1.65225
0.000692697
1.65109
0.00116128
1.64964
0.00144748
1.64802
0.00161977
1.6463
0.00172103
1.64452
0.0017783
1.64271
0.00180764
1.64089
0.00181855
1.63908
0.00181687
1.63727
0.00180629
1.63548
0.00178923
1.63371
0.00176722
1.63197
0.00174123
1.63026
0.00171185
1.62858
0.00167938
1.62694
0.00164393
1.62533
0.00160541
1.62377
0.0015636
1.62225
0.00151816
1.62078
0.00146859
1.61937
0.00141427
1.61801
0.00135438
1.61673
0.00128792
1.61551
0.00121388
1.61438
0.00113103
1.61334
0.0010379
1.61241
0.00093291
1.6116
0.000812748
1.61092
0.00067497
1.61041
0.000516442
1.61007
0.000333477
1.60995
0.000121921
1.61007
-0.000123893
1.61049
-0.00041217
1.61124
-0.000753127
1.6124
-0.00115955
1.61405
-0.00164869
1.61629
-0.00224505
1.61928
-0.00298536
1.62321
-0.00392846
1.62838
-0.00517627
1.6353
-0.0069212
1.64487
-0.00956262
-0.0139726
1.65884
1.57532
-0.0179533
1.5719
-0.00871241
1.5662
-0.00314169
1.56319
-0.00141544
1.56174
-0.000121417
1.56096
0.000679821
1.56059
0.0010569
1.56052
0.00123068
1.56066
0.00131364
1.56093
0.00134735
1.5613
0.00135275
1.56174
0.00134279
1.56222
0.00132478
1.56273
0.00130237
1.56327
0.00127732
1.56383
0.0012504
1.5644
0.00122186
1.56497
0.00119163
1.56555
0.00115938
1.56614
0.00112469
1.56673
0.00108695
1.56733
0.00104548
1.56794
0.000999461
1.56855
0.000947938
1.56918
0.000889827
1.56983
0.000823885
1.57049
0.00074862
1.57118
0.000662109
1.57191
0.000562029
1.57268
0.000446284
1.5735
0.000312493
1.57438
0.000157066
1.57533
-2.4192e-05
1.57638
-0.000235741
1.57754
-0.000482682
1.57883
-0.000771367
1.58027
-0.0011095
1.5819
-0.00150644
1.58375
-0.00197438
1.58587
-0.00252827
1.5883
-0.00318623
1.59111
-0.00397207
1.59438
-0.00491743
1.5982
-0.00606553
1.60269
-0.00747758
1.60801
-0.00924359
1.61433
-0.011501
1.62188
-0.0144664
1.6308
-0.0184888
-0.0241166
1.64095
1.57763
-0.00396682
1.573
-0.00408398
1.57217
-0.0023062
1.57223
-0.00147691
1.57309
-0.000985551
1.57428
-0.000504727
1.57545
-0.000120039
1.57653
0.000155468
1.57749
0.000357101
1.57833
0.000507382
1.57906
0.000618078
1.57971
0.000698091
1.58028
0.000754581
1.58078
0.000792805
1.58125
0.000816462
1.58167
0.000828141
1.58206
0.000829625
1.58243
0.000822065
1.58278
0.000806116
1.58313
0.000782031
1.58346
0.000749717
1.5838
0.000708771
1.58414
0.000658496
1.58449
0.000597896
1.58485
0.000525769
1.58524
0.00044068
1.58565
0.000340873
1.58608
0.000223699
1.58656
8.59855e-05
1.58708
-7.5581e-05
1.58766
-0.000264982
1.5883
-0.000486948
1.58903
-0.000747126
1.58984
-0.00105107
1.59077
-0.00140694
1.59182
-0.00182408
1.59302
-0.00231367
1.59441
-0.00288934
1.596
-0.00356787
1.59784
-0.00436976
1.59997
-0.0053203
1.60245
-0.00645162
1.60534
-0.00780522
1.60871
-0.00943579
1.61265
-0.0114169
1.61726
-0.0138495
1.62263
-0.0168747
1.62886
-0.0206904
1.63594
-0.0255712
-0.0318751
1.6437
1.59001
-0.00235601
1.58927
-0.00334321
1.58952
-0.00256422
1.58974
-0.00169077
1.5898
-0.00104492
1.58979
-0.000496835
1.58972
-4.87458e-05
1.58959
0.000280367
1.58944
0.000509249
1.58928
0.000665779
1.58913
0.00076966
1.58899
0.000834573
1.58888
0.000870767
1.58879
0.000885753
1.58872
0.000884749
1.58867
0.000871253
1.58866
0.000847522
1.58866
0.000814891
1.5887
0.000773995
1.58875
0.000724924
1.58883
0.000667327
1.58894
0.00060045
1.58908
0.000523137
1.58924
0.000433728
1.58944
0.000330479
1.58967
0.000211461
1.58993
7.38939e-05
1.59024
-8.52857e-05
1.5906
-0.000269556
1.59101
-0.000483523
1.59147
-0.000732803
1.59201
-0.00102336
1.59263
-0.00136224
1.59333
-0.00175761
1.59414
-0.00221954
1.59508
-0.00275996
1.59616
-0.00339306
1.59741
-0.00413587
1.59885
-0.00500897
1.60052
-0.00603733
1.60245
-0.00725146
1.60468
-0.00868913
1.60728
-0.0103976
1.61028
-0.0124368
1.61374
-0.0148834
1.61773
-0.0178361
1.62228
-0.0214219
1.62739
-0.0258022
1.63299
-0.0311735
-0.0377526
1.63887
1.59022
-0.00096285
1.58845
-0.00156457
1.58719
-0.00131312
1.58635
-0.00084687
1.58579
-0.000487189
1.5855
-0.000208206
1.58543
2.1066e-05
1.58552
0.000197361
1.5857
0.000323829
1.58596
0.000412076
1.58625
0.000472081
1.58658
0.000510385
1.58692
0.000531619
1.58726
0.000539207
1.58761
0.000535529
1.58796
0.00052209
1.58831
0.000499723
1.58866
0.000468737
1.589
0.000429008
1.58935
0.000380046
1.58969
0.000321065
1.59004
0.00025094
1.5904
0.000168281
1.59076
7.0868e-05
1.59113
-4.35167e-05
1.59152
-0.000177641
1.59193
-0.000334805
1.59236
-0.000518491
1.59283
-0.000732827
1.59333
-0.000983249
1.59387
-0.00127603
1.59447
-0.00161834
1.59512
-0.00201861
1.59585
-0.00248674
1.59667
-0.0030345
1.59758
-0.00367584
1.59862
-0.00442729
1.59979
-0.00530852
1.60112
-0.00634303
1.60264
-0.00755897
1.60438
-0.00899022
1.60637
-0.0106777
1.60865
-0.0126714
1.61124
-0.015032
1.61419
-0.0178342
1.61752
-0.0211687
1.62125
-0.0251447
1.62534
-0.0298907
1.62971
-0.0355494
-0.0422647
1.63422
1.59117
-0.000510644
1.59055
-0.00095335
1.59023
-0.000991402
1.5902
-0.000809774
1.5903
-0.000594954
1.59049
-0.000390763
1.5907
-0.000198405
1.59093
-2.86675e-05
1.59114
0.000109947
1.59134
0.000217327
1.59151
0.000297173
1.59167
0.000353324
1.59181
0.000389166
1.59195
0.000407661
1.59207
0.000411227
1.59219
0.000401648
1.59231
0.0003801
1.59243
0.000347196
1.59256
0.000303061
1.59269
0.000247331
1.59283
0.000179388
1.59298
9.80738e-05
1.59315
1.85296e-06
1.59333
-0.000111111
1.59353
-0.000243409
1.59375
-0.000398309
1.594
-0.000579325
1.59427
-0.000790571
1.59457
-0.00103696
1.59492
-0.00132446
1.5953
-0.00166007
1.59573
-0.00205195
1.59622
-0.00250965
1.59678
-0.00304439
1.59742
-0.00366934
1.59814
-0.00440009
1.59897
-0.00525497
1.59992
-0.00625562
1.601
-0.00742761
1.60224
-0.00880117
1.60366
-0.0104121
1.60529
-0.0123027
1.60714
-0.0145233
1.60924
-0.0171333
1.61161
-0.0202022
1.61425
-0.0238112
1.61716
-0.0280522
1.6203
-0.0330259
1.62358
-0.0388349
-0.0455712
1.62689
1.59137
-0.000263413
1.59094
-0.00052105
1.59052
-0.000578374
1.5902
-0.00048487
1.58995
-0.000340857
1.58975
-0.000197228
1.58962
-6.68553e-05
1.58955
4.38015e-05
1.58953
0.000130242
1.58955
0.000192404
1.58962
0.000233168
1.58971
0.000255876
1.58984
0.000263386
1.58999
0.000257987
1.59016
0.000241392
1.59035
0.00021473
1.59055
0.000178573
1.59076
0.00013295
1.59099
7.74841e-05
1.59122
1.13634e-05
1.59147
-6.66451e-05
1.59173
-0.000158124
1.59199
-0.000265158
1.59227
-0.000389867
1.59256
-0.00053523
1.59287
-0.000704761
1.59319
-0.00090248
1.59354
-0.00113309
1.5939
-0.00140211
1.59429
-0.00171607
1.59472
-0.00208261
1.59517
-0.00251068
1.59567
-0.0030107
1.59623
-0.00359486
1.59683
-0.00427747
1.59751
-0.00507527
1.59826
-0.00600788
1.5991
-0.00709827
1.60005
-0.00837332
1.60111
-0.00986443
1.60231
-0.0116083
1.60365
-0.0136474
1.60516
-0.0160312
1.60684
-0.0188164
1.60871
-0.0220674
1.61075
-0.025856
1.61296
-0.0302602
1.6153
-0.0353609
1.6177
-0.0412367
-0.0479567
1.62009
1.59149
-0.000139561
1.59126
-0.00028995
1.59103
-0.000348087
1.59087
-0.000323271
1.59079
-0.000259268
1.59078
-0.000187382
1.59083
-0.000118769
1.59093
-5.77063e-05
1.59107
-7.46232e-06
1.59123
3.04123e-05
1.59141
5.61131e-05
1.59159
7.05145e-05
1.59178
7.44627e-05
1.59197
6.86085e-05
1.59216
5.33748e-05
1.59235
2.89164e-05
1.59253
-4.90601e-06
1.59271
-4.85248e-05
1.59289
-0.000102685
1.59307
-0.000168398
1.59325
-0.000247151
1.59343
-0.000340701
1.59362
-0.000451165
1.59381
-0.000581025
1.59401
-0.000733342
1.59422
-0.000911762
1.59443
-0.00112054
1.59467
-0.00136466
1.59491
-0.00164996
1.59518
-0.0019833
1.59547
-0.00237273
1.59579
-0.00282766
1.59614
-0.00335907
1.59652
-0.00397979
1.59695
-0.00470479
1.59743
-0.00555158
1.59796
-0.00654052
1.59856
-0.00769534
1.59923
-0.00904358
1.59998
-0.0106171
1.60082
-0.0124527
1.60177
-0.0145925
1.60282
-0.0170843
1.60399
-0.019982
1.60526
-0.0233451
1.60665
-0.0272379
1.60811
-0.0317276
1.60963
-0.0368808
1.61115
-0.0427581
-0.0494083
1.61261
1.59154
-6.24849e-05
1.59138
-0.000133373
1.5912
-0.000166795
1.59104
-0.000162585
1.59092
-0.000136949
1.59084
-0.00010493
1.59079
-7.38933e-05
1.59078
-4.71897e-05
1.5908
-2.71422e-05
1.59085
-1.51227e-05
1.59091
-1.14764e-05
1.591
-1.59954e-05
1.5911
-2.83705e-05
1.59122
-4.83825e-05
1.59135
-7.59743e-05
1.59149
-0.000111305
1.59164
-0.000154788
1.5918
-0.000207067
1.59197
-0.000269097
1.59214
-0.000342128
1.59232
-0.000427763
1.59251
-0.00052793
1.5927
-0.000644933
1.5929
-0.000781496
1.59311
-0.000940853
1.59332
-0.00112682
1.59355
-0.00134388
1.59378
-0.00159723
1.59402
-0.00189297
1.59428
-0.00223823
1.59455
-0.00264134
1.59483
-0.00311202
1.59513
-0.00366158
1.59546
-0.00430323
1.5958
-0.00505233
1.59618
-0.00592672
1.59659
-0.00694716
1.59703
-0.00813764
1.59751
-0.00952589
1.59804
-0.0111438
1.59861
-0.0130277
1.59924
-0.0152189
1.59992
-0.0177637
1.60065
-0.0207135
1.60143
-0.0241239
1.60224
-0.0280538
1.60308
-0.0325632
1.60391
-0.0377104
1.6047
-0.0435472
-0.0501166
1.60541
1.59156
-5.03035e-06
1.59144
-1.2525e-05
1.59129
-2.03042e-05
1.59116
-2.85791e-05
1.59106