/*--------------------------------*- C++ -*----------------------------------*\
  =========                 |
  \\      /  F ield         | OpenFOAM: The Open Source CFD Toolbox
   \\    /   O peration     | Website:  https://openfoam.org
    \\  /    A nd           | Version:  8
     \\/     M anipulation  |
\*---------------------------------------------------------------------------*/
FoamFile
{
    version     2.0;
    format      ascii;
    class       volVectorField;
    location    "300";
    object      U;
}
// * * * * * * * * * * * * * * * * * * * * * * * * * * * * * * * * * * * * * //

dimensions      [0 1 -1 0 0 0 0];

internalField   nonuniform List<vector> 
8400
(
(-13.6961 -0.075132 -3.74685e-16)
(-13.6992 -0.0758675 -3.76756e-16)
(-13.7018 -0.0768066 -3.78656e-16)
(-13.7045 -0.0778295 -3.84477e-16)
(-13.7072 -0.078901 -3.87878e-16)
(-13.71 -0.0800104 -3.86701e-16)
(-13.7127 -0.0811547 -3.8764e-16)
(-13.7154 -0.082334 -3.8879e-16)
(-13.7181 -0.0835491 -3.90073e-16)
(-13.7208 -0.0848019 -3.95564e-16)
(-13.7234 -0.0860945 -3.98228e-16)
(-13.726 -0.0874296 -3.96051e-16)
(-13.7286 -0.08881 -3.96309e-16)
(-13.731 -0.0902389 -3.96908e-16)
(-13.7334 -0.09172 -3.99515e-16)
(-13.7357 -0.0932574 -4.04896e-16)
(-13.7379 -0.0948556 -4.02969e-16)
(-13.74 -0.09652 -4.01636e-16)
(-13.7419 -0.0982563 -4.02108e-16)
(-13.7437 -0.100071 -4.02883e-16)
(-13.7453 -0.101972 -4.03969e-16)
(-13.7466 -0.103967 -4.05106e-16)
(-13.7477 -0.106065 -4.06272e-16)
(-13.7486 -0.108279 -4.07416e-16)
(-13.749 -0.110623 -4.08487e-16)
(-13.7491 -0.113117 -4.09868e-16)
(-13.7487 -0.115786 -4.0739e-16)
(-13.7477 -0.11865 -4.0712e-16)
(-13.746 -0.121723 -4.11401e-16)
(-13.7435 -0.125027 -4.13517e-16)
(-13.7401 -0.128591 -4.15395e-16)
(-13.7356 -0.132446 -4.17308e-16)
(-13.7299 -0.136629 -4.17777e-16)
(-13.7227 -0.141184 -4.18876e-16)
(-13.7139 -0.146162 -4.22173e-16)
(-13.7031 -0.151622 -4.2536e-16)
(-13.6901 -0.157636 -4.28472e-16)
(-13.6745 -0.164289 -4.31654e-16)
(-13.6559 -0.171685 -4.3497e-16)
(-13.6337 -0.179951 -4.37375e-16)
(-13.6074 -0.189246 -4.40829e-16)
(-13.5763 -0.199773 -4.42103e-16)
(-13.5395 -0.211795 -4.44928e-16)
(-13.4958 -0.225665 -4.52507e-16)
(-13.4439 -0.241882 -4.59063e-16)
(-13.3823 -0.261162 -4.64964e-16)
(-13.3093 -0.284476 -4.67784e-16)
(-13.2214 -0.313154 -4.75049e-16)
(-13.109 -0.349745 -4.89477e-16)
(-12.9605 -0.40014 -5.01891e-16)
(-15.6801 0.0784173 1.1743e-16)
(-15.6832 0.0794522 1.18007e-16)
(-15.6854 0.0804755 1.18566e-16)
(-15.6876 0.0815132 1.15955e-16)
(-15.6898 0.0825545 1.14399e-16)
(-15.692 0.083603 1.16106e-16)
(-15.6942 0.0846626 1.17741e-16)
(-15.6964 0.0857365 1.19729e-16)
(-15.6986 0.0868267 1.21091e-16)
(-15.7007 0.0879347 1.1874e-16)
(-15.7029 0.0890616 1.17104e-16)
(-15.7049 0.0902081 1.19394e-16)
(-15.707 0.0913749 1.22502e-16)
(-15.7089 0.0925622 1.27464e-16)
(-15.7109 0.0937701 1.24227e-16)
(-15.7127 0.0949986 1.0881e-16)
(-15.7144 0.0962474 1.0828e-16)
(-15.716 0.0975159 1.11894e-16)
(-15.7175 0.0988031 1.14908e-16)
(-15.7189 0.100108 1.17767e-16)
(-15.7201 0.101428 1.20563e-16)
(-15.7211 0.102761 1.23366e-16)
(-15.7218 0.104105 1.26204e-16)
(-15.7223 0.105454 1.29108e-16)
(-15.7225 0.106798 1.31992e-16)
(-15.7223 0.108121 1.34433e-16)
(-15.7217 0.109417 1.39833e-16)
(-15.7207 0.110687 1.44653e-16)
(-15.7191 0.111925 1.4672e-16)
(-15.717 0.113121 1.49603e-16)
(-15.7142 0.114262 1.52859e-16)
(-15.7106 0.115333 1.56315e-16)
(-15.7062 0.116314 1.62413e-16)
(-15.7006 0.117182 1.67837e-16)
(-15.6939 0.117909 1.70695e-16)
(-15.6858 0.118461 1.74488e-16)
(-15.676 0.118797 1.78707e-16)
(-15.6644 0.118867 1.83111e-16)
(-15.6506 0.11861 1.90084e-16)
(-15.6344 0.117947 1.95403e-16)
(-15.6152 0.116776 1.985e-16)
(-15.5928 0.114964 2.06187e-16)
(-15.5664 0.112329 2.13554e-16)
(-15.5356 0.10861 2.18465e-16)
(-15.4995 0.103397 2.26633e-16)
(-15.4575 0.0960644 2.33497e-16)
(-15.409 0.0857747 2.41049e-16)
(-15.3526 0.0714088 2.50525e-16)
(-15.2845 0.0503759 2.56946e-16)
(-15.2 0.0156474 2.62914e-16)
(-16.0778 -0.0662783 -2.31034e-16)
(-16.0759 -0.0666828 -2.31122e-16)
(-16.0749 -0.0673833 -2.31169e-16)
(-16.0741 -0.0682038 -2.32779e-16)
(-16.0732 -0.0690938 -2.33592e-16)
(-16.0723 -0.0700328 -2.32191e-16)
(-16.0715 -0.071013 -2.31066e-16)
(-16.0706 -0.0720315 -2.30099e-16)
(-16.0697 -0.0730879 -2.29112e-16)
(-16.0687 -0.0741829 -2.29826e-16)
(-16.0677 -0.0753183 -2.29738e-16)
(-16.0667 -0.0764966 -2.27115e-16)
(-16.0656 -0.0777209 -2.24575e-16)
(-16.0645 -0.0789949 -2.21727e-16)
(-16.0633 -0.0803232 -2.18877e-16)
(-16.062 -0.081711 -2.19203e-16)
(-16.0607 -0.0831643 -2.19049e-16)
(-16.0592 -0.0846896 -2.1633e-16)
(-16.0576 -0.086295 -2.14145e-16)
(-16.0558 -0.0879895 -2.12065e-16)
(-16.0539 -0.0897842 -2.10031e-16)
(-16.0518 -0.0916916 -2.07974e-16)
(-16.0495 -0.0937257 -2.05864e-16)
(-16.0469 -0.0959063 -2.03685e-16)
(-16.044 -0.0982495 -2.01439e-16)
(-16.0407 -0.100774 -1.9922e-16)
(-16.037 -0.103509 -1.95023e-16)
(-16.0329 -0.106488 -1.91274e-16)
(-16.0282 -0.109746 -1.89801e-16)
(-16.0229 -0.11332 -1.87938e-16)
(-16.0169 -0.117254 -1.85804e-16)
(-16.0101 -0.121599 -1.836e-16)
(-16.0023 -0.126412 -1.79382e-16)
(-15.9934 -0.131761 -1.75605e-16)
(-15.9833 -0.137722 -1.74147e-16)
(-15.9716 -0.144386 -1.72375e-16)
(-15.9583 -0.151855 -1.70411e-16)
(-15.943 -0.160251 -1.68382e-16)
(-15.9254 -0.169713 -1.66319e-16)
(-15.9051 -0.180408 -1.63364e-16)
(-15.8818 -0.19253 -1.61165e-16)
(-15.855 -0.206313 -1.58462e-16)
(-15.8241 -0.222037 -1.56269e-16)
(-15.7884 -0.240049 -1.56683e-16)
(-15.7472 -0.260807 -1.56956e-16)
(-15.6999 -0.284904 -1.56528e-16)
(-15.6457 -0.313019 -1.54983e-16)
(-15.5837 -0.345899 -1.55336e-16)
(-15.512 -0.385007 -1.6026e-16)
(-15.4291 -0.434055 -1.661e-16)
(-16.5259 0.0690438 6.23312e-17)
(-16.527 0.0696816 6.25666e-17)
(-16.5269 0.0704325 6.27768e-17)
(-16.5267 0.071214 6.12812e-17)
(-16.5264 0.0719928 6.03534e-17)
(-16.526 0.0727614 6.16152e-17)
(-16.5256 0.0735187 6.25392e-17)
(-16.5252 0.0742644 6.32535e-17)
(-16.5248 0.0749983 6.38405e-17)
(-16.5244 0.0757191 6.28294e-17)
(-16.5239 0.0764253 6.26409e-17)
(-16.5235 0.0771144 6.47413e-17)
(-16.523 0.0777831 6.672e-17)
(-16.5224 0.0784272 6.83252e-17)
(-16.5218 0.0790417 6.93844e-17)
(-16.5211 0.0796209 6.94051e-17)
(-16.5204 0.0801577 6.98542e-17)
(-16.5196 0.0806444 7.21347e-17)
(-16.5187 0.0810711 7.44106e-17)
(-16.5177 0.081426 7.65179e-17)
(-16.5165 0.0816944 7.85444e-17)
(-16.5152 0.0818639 8.05285e-17)
(-16.5138 0.0819153 8.25065e-17)
(-16.5121 0.0818344 8.44985e-17)
(-16.5103 0.0816005 8.65112e-17)
(-16.5082 0.0811905 8.84352e-17)
(-16.5058 0.0805771 9.21428e-17)
(-16.5031 0.079727 9.53831e-17)
(-16.5 0.0786009 9.64708e-17)
(-16.4965 0.0771534 9.78733e-17)
(-16.4924 0.0753321 9.95165e-17)
(-16.4878 0.0730756 1.012e-16)
(-16.4825 0.0703125 1.04757e-16)
(-16.4765 0.0669595 1.07888e-16)
(-16.4695 0.0629193 1.08792e-16)
(-16.4614 0.0580776 1.09929e-16)
(-16.4522 0.0523005 1.11196e-16)
(-16.4415 0.0454297 1.12335e-16)
(-16.4292 0.037278 1.15176e-16)
(-16.4151 0.0276218 1.1644e-16)
(-16.3988 0.0161936 1.15512e-16)
(-16.38 0.00267069 1.17702e-16)
(-16.3585 -0.0133381 1.19155e-16)
(-16.3337 -0.0323157 1.17742e-16)
(-16.3053 -0.0548677 1.17909e-16)
(-16.2729 -0.0817398 1.15904e-16)
(-16.2361 -0.113794 1.13127e-16)
(-16.1946 -0.152025 1.10757e-16)
(-16.1476 -0.197825 1.04806e-16)
(-16.0949 -0.253341 9.8176e-17)
(-16.3787 -0.0555229 3.37833e-16)
(-16.3755 -0.0559275 3.38973e-16)
(-16.3741 -0.0564494 3.40085e-16)
(-16.3729 -0.0570286 3.39454e-16)
(-16.3717 -0.057644 3.3931e-16)
(-16.3706 -0.0582888 3.41269e-16)
(-16.3695 -0.0589604 3.42876e-16)
(-16.3683 -0.0596579 3.44141e-16)
(-16.3671 -0.0603811 3.45237e-16)
(-16.3659 -0.0611309 3.44541e-16)
(-16.3647 -0.0619084 3.44363e-16)
(-16.3634 -0.0627158 3.46489e-16)
(-16.3621 -0.0635556 3.48491e-16)
(-16.3608 -0.0644313 3.50406e-16)
(-16.3594 -0.0653468 3.52356e-16)
(-16.3579 -0.0663071 3.52264e-16)
(-16.3564 -0.067318 3.5234e-16)
(-16.3548 -0.068386 3.54942e-16)
(-16.3531 -0.0695216 3.57059e-16)
(-16.3513 -0.0707336 3.58963e-16)
(-16.3493 -0.0720319 3.60746e-16)
(-16.3473 -0.0734347 3.62487e-16)
(-16.345 -0.0749597 3.64227e-16)
(-16.3426 -0.0766286 3.66e-16)
(-16.3399 -0.0784664 3.6782e-16)
(-16.3369 -0.080501 3.69603e-16)
(-16.3337 -0.0827649 3.73273e-16)
(-16.3301 -0.0852951 3.76556e-16)
(-16.326 -0.0881347 3.77704e-16)
(-16.3215 -0.0913334 3.79266e-16)
(-16.3165 -0.0949487 3.81183e-16)
(-16.3108 -0.0990471 3.83277e-16)
(-16.3044 -0.103706 3.87481e-16)
(-16.2972 -0.109015 3.91422e-16)
(-16.289 -0.115079 3.93275e-16)
(-16.2797 -0.122018 3.95654e-16)
(-16.269 -0.129973 3.98484e-16)
(-16.257 -0.139109 4.017e-16)
(-16.2432 -0.149618 4.05353e-16)
(-16.2275 -0.161725 4.10386e-16)
(-16.2095 -0.175698 4.1518e-16)
(-16.189 -0.191852 4.21072e-16)
(-16.1657 -0.210565 4.27337e-16)
(-16.1391 -0.232297 4.31902e-16)
(-16.1088 -0.257611 4.376e-16)
(-16.0746 -0.287189 4.45226e-16)
(-16.0361 -0.321839 4.55464e-16)
(-15.9931 -0.362543 4.65697e-16)
(-15.945 -0.410617 4.73423e-16)
(-15.8914 -0.467805 4.83363e-16)
(-16.5253 0.0530733 2.54162e-17)
(-16.5268 0.0534264 2.56472e-17)
(-16.5267 0.0538545 2.59062e-17)
(-16.5262 0.0542935 2.44337e-17)
(-16.5257 0.0547177 2.34933e-17)
(-16.5251 0.0551179 2.4714e-17)
(-16.5245 0.0554896 2.55809e-17)
(-16.5239 0.0558295 2.61644e-17)
(-16.5232 0.0561346 2.66581e-17)
(-16.5226 0.0564008 2.52675e-17)
(-16.5219 0.0566237 2.43e-17)
(-16.5212 0.0567975 2.55575e-17)
(-16.5205 0.056916 2.67211e-17)
(-16.5197 0.0569716 2.77128e-17)
(-16.5189 0.0569552 2.88689e-17)
(-16.5181 0.0568563 2.78039e-17)
(-16.5172 0.0566643 2.73485e-17)
(-16.5163 0.0563652 2.89566e-17)
(-16.5152 0.0559465 3.02368e-17)
(-16.5141 0.0553917 3.12819e-17)
(-16.513 0.0546821 3.21835e-17)
(-16.5117 0.0537974 3.3002e-17)
(-16.5102 0.0527143 3.3768e-17)
(-16.5087 0.0514055 3.45089e-17)
(-16.507 0.0498388 3.52272e-17)
(-16.5051 0.0479771 3.58351e-17)
(-16.5029 0.0457776 3.82265e-17)
(-16.5005 0.0431909 4.01333e-17)
(-16.4978 0.0401605 3.98062e-17)
(-16.4948 0.0366213 3.9779e-17)
(-16.4914 0.0324986 3.99683e-17)
(-16.4875 0.0277064 4.01938e-17)
(-16.4831 0.0221461 4.22931e-17)
(-16.478 0.0157042 4.39811e-17)
(-16.4722 0.00825015 4.3434e-17)
(-16.4656 -0.000365903 4.31303e-17)
(-16.4581 -0.0103162 4.29779e-17)
(-16.4494 -0.0217988 4.2724e-17)
(-16.4395 -0.0350409 4.42318e-17)
(-16.4282 -0.0503034 4.4163e-17)
(-16.4152 -0.0678848 4.19558e-17)
(-16.4004 -0.088127 4.29898e-17)
(-16.3834 -0.11142 4.33224e-17)
(-16.3641 -0.138211 4.08288e-17)
(-16.3423 -0.169008 3.99244e-17)
(-16.3177 -0.204377 3.67814e-17)
(-16.2904 -0.244932 3.30506e-17)
(-16.2602 -0.291341 2.99819e-17)
(-16.2273 -0.344373 2.35248e-17)
(-16.1915 -0.40494 1.44413e-17)
(-16.4425 -0.0404699 1.83446e-16)
(-16.4389 -0.040708 1.83782e-16)
(-16.4375 -0.0409973 1.84126e-16)
(-16.4364 -0.0413134 1.82562e-16)
(-16.4354 -0.0416476 1.81391e-16)
(-16.4345 -0.041998 1.82483e-16)
(-16.4335 -0.0423643 1.83289e-16)
(-16.4325 -0.042747 1.8385e-16)
(-16.4315 -0.0431469 1.84279e-16)
(-16.4305 -0.0435652 1.82635e-16)
(-16.4295 -0.0440039 1.81244e-16)
(-16.4285 -0.0444653 1.82166e-16)
(-16.4274 -0.0449524 1.82966e-16)
(-16.4263 -0.0454701 1.83646e-16)
(-16.4252 -0.0460228 1.84194e-16)
(-16.424 -0.0466161 1.8238e-16)
(-16.4228 -0.0472591 1.81333e-16)
(-16.4215 -0.0479617 1.83117e-16)
(-16.4202 -0.0487359 1.84143e-16)
(-16.4188 -0.0495959 1.84936e-16)
(-16.4173 -0.0505583 1.8561e-16)
(-16.4157 -0.0516425 1.86212e-16)
(-16.414 -0.0528708 1.86807e-16)
(-16.4122 -0.0542691 1.874e-16)
(-16.4102 -0.0558677 1.88042e-16)
(-16.4081 -0.0577021 1.8862e-16)
(-16.4057 -0.0598136 1.911e-16)
(-16.4031 -0.0622505 1.93169e-16)
(-16.4003 -0.065069 1.93118e-16)
(-16.3971 -0.0683348 1.93479e-16)
(-16.3936 -0.0721242 1.94248e-16)
(-16.3896 -0.0765259 1.9522e-16)
(-16.3852 -0.0816433 1.98359e-16)
(-16.3802 -0.0875963 2.01325e-16)
(-16.3746 -0.0945238 2.02346e-16)
(-16.3683 -0.102587 2.03977e-16)
(-16.3611 -0.111974 2.06223e-16)
(-16.3529 -0.122899 2.09001e-16)
(-16.3436 -0.135614 2.12396e-16)
(-16.333 -0.150405 2.16513e-16)
(-16.3209 -0.167606 2.22002e-16)
(-16.3072 -0.187594 2.29693e-16)
(-16.2916 -0.210805 2.36755e-16)
(-16.2738 -0.237731 2.43575e-16)
(-16.2538 -0.268926 2.51692e-16)
(-16.2312 -0.305004 2.60239e-16)
(-16.206 -0.346618 2.7276e-16)
(-16.1781 -0.39445 2.87528e-16)
(-16.1473 -0.449196 3.01809e-16)
(-16.1134 -0.511587 3.18767e-16)
(-16.4992 0.0336086 -2.11008e-16)
(-16.501 0.0337672 -2.10935e-16)
(-16.5008 0.0339394 -2.10764e-16)
(-16.5004 0.0340981 -2.12506e-16)
(-16.4997 0.0342312 -2.13912e-16)
(-16.4991 0.0343329 -2.13028e-16)
(-16.4984 0.0343991 -2.12402e-16)
(-16.4977 0.0344257 -2.12004e-16)
(-16.497 0.0344085 -2.11739e-16)
(-16.4963 0.0343427 -2.13431e-16)
(-16.4956 0.0342228 -2.1499e-16)
(-16.4949 0.0340424 -2.14322e-16)
(-16.4941 0.0337936 -2.13914e-16)
(-16.4933 0.0334691 -2.14099e-16)
(-16.4925 0.0330592 -2.14047e-16)
(-16.4917 0.0325532 -2.15818e-16)
(-16.4908 0.0319388 -2.17202e-16)
(-16.4899 0.0312025 -2.16396e-16)
(-16.489 0.0303285 -2.16025e-16)
(-16.488 0.0292984 -2.15963e-16)
(-16.4869 0.0280909 -2.16125e-16)
(-16.4858 0.0266815 -2.16448e-16)
(-16.4846 0.0250422 -2.16908e-16)
(-16.4833 0.0231407 -2.17473e-16)
(-16.4819 0.0209401 -2.18149e-16)
(-16.4804 0.0183978 -2.19017e-16)
(-16.4787 0.0154651 -2.18168e-16)
(-16.4769 0.012086 -2.1791e-16)
(-16.4749 0.00819641 -2.20039e-16)
(-16.4726 0.00372254 -2.21946e-16)
(-16.4701 -0.00142009 -2.23753e-16)
(-16.4674 -0.00732836 -2.25634e-16)
(-16.4642 -0.0141135 -2.25764e-16)
(-16.4607 -0.0219029 -2.26469e-16)
(-16.4568 -0.0308426 -2.29604e-16)
(-16.4523 -0.0410999 -2.32615e-16)
(-16.4472 -0.0528659 -2.35674e-16)
(-16.4415 -0.0663586 -2.38889e-16)
(-16.435 -0.0818264 -2.42501e-16)
(-16.4276 -0.0995513 -2.43652e-16)
(-16.4191 -0.119852 -2.47406e-16)
(-16.4096 -0.143086 -2.52981e-16)
(-16.3987 -0.169655 -2.55834e-16)
(-16.3864 -0.2 -2.63194e-16)
(-16.3726 -0.234603 -2.72942e-16)
(-16.3571 -0.273983 -2.8142e-16)
(-16.3399 -0.31867 -2.89815e-16)
(-16.3211 -0.369186 -2.99063e-16)
(-16.3005 -0.426015 -3.1381e-16)
(-16.2779 -0.48963 -3.32737e-16)
(-16.4655 -0.0231506 9.55746e-17)
(-16.4618 -0.0232345 9.72999e-17)
(-16.4605 -0.0233358 9.91337e-17)
(-16.4596 -0.0234525 9.89738e-17)
(-16.4587 -0.0235846 9.91205e-17)
(-16.4579 -0.023733 1.01658e-16)
(-16.457 -0.0238989 1.03962e-16)
(-16.4562 -0.024084 1.06057e-16)
(-16.4554 -0.0242902 1.08147e-16)
(-16.4545 -0.0245204 1.08273e-16)
(-16.4537 -0.0247781 1.0862e-16)
(-16.4528 -0.0250674 1.11151e-16)
(-16.452 -0.0253936 1.13274e-16)
(-16.4511 -0.025763 1.15183e-16)
(-16.4502 -0.0261834 1.17245e-16)
(-16.4493 -0.0266637 1.17393e-16)
(-16.4484 -0.0272147 1.1793e-16)
(-16.4474 -0.0278487 1.20656e-16)
(-16.4465 -0.0285801 1.22986e-16)
(-16.4455 -0.0294256 1.25047e-16)
(-16.4445 -0.0304052 1.26904e-16)
(-16.4434 -0.0315415 1.28648e-16)
(-16.4423 -0.0328614 1.30287e-16)
(-16.4411 -0.0343959 1.31881e-16)
(-16.4399 -0.0361813 1.33414e-16)
(-16.4386 -0.0382597 1.34826e-16)
(-16.4372 -0.04068 1.38046e-16)
(-16.4357 -0.0434996 1.40755e-16)
(-16.4341 -0.0467846 1.41194e-16)
(-16.4324 -0.0506122 1.41981e-16)
(-16.4305 -0.0550714 1.43042e-16)
(-16.4284 -0.0602657 1.442e-16)
(-16.4261 -0.0663148 1.47396e-16)
(-16.4235 -0.0733571 1.50241e-16)
(-16.4206 -0.0815521 1.50944e-16)
(-16.4174 -0.0910838 1.52161e-16)
(-16.4138 -0.102163 1.53801e-16)
(-16.4097 -0.115032 1.55676e-16)
(-16.4051 -0.129966 1.59704e-16)
(-16.3999 -0.147278 1.62712e-16)
(-16.394 -0.167322 1.64191e-16)
(-16.3872 -0.190492 1.69559e-16)
(-16.3795 -0.217227 1.75312e-16)
(-16.3708 -0.248005 1.795e-16)
(-16.3609 -0.283342 1.86702e-16)
(-16.3497 -0.323778 1.93353e-16)
(-16.3372 -0.369863 2.0132e-16)
(-16.3232 -0.422114 2.12607e-16)
(-16.3077 -0.480998 2.239e-16)
(-16.2904 -0.546954 2.39051e-16)
(-16.474 0.0129321 -1.58622e-16)
(-16.4758 0.0129535 -1.57414e-16)
(-16.4756 0.0129546 -1.56066e-16)
(-16.4751 0.0129316 -1.56642e-16)
(-16.4745 0.0128828 -1.56835e-16)
(-16.4738 0.0128063 -1.54626e-16)
(-16.4731 0.0126996 -1.52627e-16)
(-16.4724 0.0125599 -1.50774e-16)
(-16.4717 0.0123838 -1.48853e-16)
(-16.471 0.0121671 -1.48821e-16)
(-16.4703 0.0119053 -1.48506e-16)
(-16.4695 0.0115928 -1.46055e-16)
(-16.4688 0.011223 -1.43928e-16)
(-16.4681 0.0107887 -1.4199e-16)
(-16.4673 0.0102808 -1.4009e-16)
(-16.4666 0.00968928 -1.40159e-16)
(-16.4658 0.00900223 -1.39798e-16)
(-16.465 0.00820593 -1.37303e-16)
(-16.4642 0.00728436 -1.35202e-16)
(-16.4634 0.00621902 -1.33455e-16)
(-16.4626 0.00498851 -1.3191e-16)
(-16.4617 0.00356806 -1.30594e-16)
(-16.4608 0.00192911 -1.29397e-16)
(-16.4599 3.86685e-05 -1.28387e-16)
(-16.459 -0.00214139 -1.27487e-16)
(-16.458 -0.00465514 -1.26869e-16)
(-16.457 -0.00755347 -1.24515e-16)
(-16.4559 -0.0108952 -1.22894e-16)
(-16.4548 -0.014748 -1.23721e-16)
(-16.4536 -0.0191901 -1.24393e-16)
(-16.4523 -0.0243117 -1.2502e-16)
(-16.4509 -0.0302166 -1.2584e-16)
(-16.4495 -0.0370247 -1.24955e-16)
(-16.4479 -0.0448737 -1.24817e-16)
(-16.4462 -0.0539219 -1.27263e-16)
(-16.4444 -0.0643511 -1.29706e-16)
(-16.4423 -0.0763691 -1.3232e-16)
(-16.4401 -0.0902133 -1.35308e-16)
(-16.4376 -0.106154 -1.38674e-16)
(-16.4349 -0.124497 -1.41571e-16)
(-16.4318 -0.145586 -1.45911e-16)
(-16.4283 -0.169806 -1.50439e-16)
(-16.4243 -0.19758 -1.56137e-16)
(-16.4198 -0.229369 -1.65521e-16)
(-16.4147 -0.265665 -1.75941e-16)
(-16.4088 -0.306981 -1.8717e-16)
(-16.4021 -0.353823 -1.99133e-16)
(-16.3944 -0.40666 -2.15121e-16)
(-16.3856 -0.465885 -2.39025e-16)
(-16.3753 -0.531835 -2.6773e-16)
(-16.4778 -0.0053678 2.10802e-16)
(-16.4743 -0.0053276 2.13306e-16)
(-16.4731 -0.00529216 2.15839e-16)
(-16.4722 -0.0052728 2.16453e-16)
(-16.4715 -0.00527438 2.17541e-16)
(-16.4708 -0.00529956 2.21044e-16)
(-16.4701 -0.00535092 2.24403e-16)
(-16.4694 -0.00543143 2.27641e-16)
(-16.4687 -0.00554466 2.30974e-16)
(-16.468 -0.00569495 2.32333e-16)
(-16.4673 -0.00588734 2.3419e-16)
(-16.4666 -0.00612778 2.38319e-16)
(-16.4659 -0.00642323 2.42194e-16)
(-16.4653 -0.00678167 2.45925e-16)
(-16.4646 -0.0072123 2.49691e-16)
(-16.4639 -0.00772585 2.50995e-16)
(-16.4633 -0.00833462 2.53198e-16)
(-16.4627 -0.00905284 2.58291e-16)
(-16.4621 -0.00989707 2.62567e-16)
(-16.4615 -0.0108863 2.66684e-16)
(-16.4609 -0.0120424 2.70634e-16)
(-16.4603 -0.0133906 2.74593e-16)
(-16.4598 -0.0149599 2.78487e-16)
(-16.4592 -0.0167842 2.82455e-16)
(-16.4587 -0.0189022 2.86415e-16)
(-16.4583 -0.0213589 2.90373e-16)
(-16.4578 -0.024206 2.96233e-16)
(-16.4574 -0.0275033 3.01674e-16)
(-16.457 -0.03132 3.04914e-16)
(-16.4567 -0.0357356 3.08695e-16)
(-16.4564 -0.0408421 3.12886e-16)
(-16.4562 -0.0467456 3.17362e-16)
(-16.456 -0.0535684 3.24061e-16)
(-16.4559 -0.0614518 3.30648e-16)
(-16.4559 -0.0705581 3.3538e-16)
(-16.4559 -0.081074 3.40992e-16)
(-16.456 -0.0932142 3.4744e-16)
(-16.4562 -0.107224 3.54624e-16)
(-16.4565 -0.123385 3.64614e-16)
(-16.4569 -0.142014 3.74281e-16)
(-16.4574 -0.163474 3.83159e-16)
(-16.458 -0.188167 3.97193e-16)
(-16.4586 -0.216545 4.12894e-16)
(-16.4592 -0.249098 4.2852e-16)
(-16.4599 -0.286358 4.49318e-16)
(-16.4604 -0.328881 4.7185e-16)
(-16.4608 -0.377231 4.98939e-16)
(-16.4608 -0.431942 5.33596e-16)
(-16.4604 -0.493486 5.73072e-16)
(-16.4592 -0.562272 6.19753e-16)
(-16.4434 -0.00734502 -5.52102e-16)
(-16.445 -0.00744104 -5.53002e-16)
(-16.4448 -0.00757886 -5.5378e-16)
(-16.4443 -0.00774375 -5.56442e-16)
(-16.4436 -0.00792864 -5.58599e-16)
(-16.443 -0.00813205 -5.58332e-16)
(-16.4423 -0.00835454 -5.58277e-16)
(-16.4416 -0.00859773 -5.58363e-16)
(-16.4409 -0.00886402 -5.58413e-16)
(-16.4402 -0.00915637 -5.60331e-16)
(-16.4395 -0.00947856 -5.61716e-16)
(-16.4388 -0.00983501 -5.60792e-16)
(-16.4381 -0.0102311 -5.60188e-16)
(-16.4374 -0.0106732 -5.5977e-16)
(-16.4368 -0.0111686 -5.5934e-16)
(-16.4361 -0.011726 -5.60821e-16)
(-16.4355 -0.0123558 -5.61798e-16)
(-16.4349 -0.0130702 -5.60587e-16)
(-16.4343 -0.0138833 -5.59738e-16)
(-16.4337 -0.0148118 -5.59241e-16)
(-16.4332 -0.0158751 -5.58913e-16)
(-16.4326 -0.0170958 -5.58828e-16)
(-16.4322 -0.0185006 -5.58872e-16)
(-16.4317 -0.0201204 -5.59158e-16)
(-16.4313 -0.0219913 -5.59617e-16)
(-16.431 -0.0241554 -5.60476e-16)
(-16.4307 -0.0266619 -5.59728e-16)
(-16.4305 -0.0295678 -5.59898e-16)
(-16.4303 -0.0329395 -5.62742e-16)
(-16.4303 -0.0368542 -5.65715e-16)
(-16.4304 -0.0414017 -5.68987e-16)
(-16.4306 -0.0466863 -5.72875e-16)
(-16.4309 -0.0528285 -5.75523e-16)
(-16.4315 -0.0599684 -5.79504e-16)
(-16.4322 -0.0682677 -5.86776e-16)
(-16.4331 -0.0779132 -5.94807e-16)
(-16.4343 -0.0891204 -6.03928e-16)
(-16.4358 -0.102136 -6.14479e-16)
(-16.4375 -0.117245 -6.26673e-16)
(-16.4396 -0.134768 -6.39846e-16)
(-16.4421 -0.155073 -6.56158e-16)
(-16.445 -0.178571 -6.74618e-16)
(-16.4482 -0.20572 -6.96613e-16)
(-16.4518 -0.237026 -7.2519e-16)
(-16.4557 -0.273032 -7.58129e-16)
(-16.4598 -0.314312 -7.95959e-16)
(-16.464 -0.361453 -8.3934e-16)
(-16.4679 -0.415012 -8.92724e-16)
(-16.4713 -0.47548 -9.61053e-16)
(-16.4735 -0.543242 -1.04345e-15)
(-16.4882 0.0115848 8.21334e-16)
(-16.485 0.0117501 8.24625e-16)
(-16.484 0.0119268 8.27909e-16)
(-16.4833 0.0120913 8.29364e-16)
(-16.4826 0.0122339 8.31408e-16)
(-16.4821 0.0123503 8.35858e-16)
(-16.4815 0.012437 8.40089e-16)
(-16.4809 0.0124902 8.44223e-16)
(-16.4804 0.0125055 8.48453e-16)
(-16.4798 0.0124778 8.50906e-16)
(-16.4793 0.0124012 8.54004e-16)
(-16.4788 0.0122689 8.59474e-16)
(-16.4783 0.0120735 8.64761e-16)
(-16.4778 0.0118062 8.69977e-16)
(-16.4774 0.011457 8.75351e-16)
(-16.4769 0.0110146 8.78987e-16)
(-16.4765 0.0104658 8.8331e-16)
(-16.4762 0.00979586 8.90108e-16)
(-16.4759 0.00898786 8.96745e-16)
(-16.4756 0.00802235 9.03407e-16)
(-16.4755 0.00687702 9.1016e-16)
(-16.4753 0.00552631 9.17132e-16)
(-16.4753 0.00394094 9.24321e-16)
(-16.4754 0.00208731 9.31824e-16)
(-16.4755 -7.30703e-05 9.39616e-16)
(-16.4758 -0.00258447 9.47675e-16)
(-16.4763 -0.00549768 9.5795e-16)
(-16.4769 -0.00887104 9.68125e-16)
(-16.4777 -0.0127716 9.76468e-16)
(-16.4787 -0.0172766 9.85697e-16)
(-16.48 -0.0224747 9.95745e-16)
(-16.4815 -0.0284683 1.00648e-15)
(-16.4834 -0.0353747 1.01994e-15)
(-16.4857 -0.0433293 1.03377e-15)
(-16.4885 -0.0524881 1.04634e-15)
(-16.4917 -0.0630307 1.06043e-15)
(-16.4956 -0.0751639 1.07612e-15)
(-16.5001 -0.0891257 1.09335e-15)
(-16.5053 -0.10519 1.1144e-15)
(-16.5114 -0.123671 1.13621e-15)
(-16.5184 -0.144928 1.15859e-15)
(-16.5265 -0.169374 1.18771e-15)
(-16.5357 -0.197475 1.22039e-15)
(-16.5461 -0.229759 1.2553e-15)
(-16.5578 -0.266811 1.29816e-15)
(-16.5708 -0.309273 1.34652e-15)
(-16.5849 -0.357833 1.4039e-15)
(-16.6001 -0.413198 1.47394e-15)
(-16.6161 -0.476049 1.55515e-15)
(-16.6323 -0.546959 1.65388e-15)
(-16.3941 -0.0259325 -9.62401e-16)
(-16.3954 -0.0261821 -9.65534e-16)
(-16.3951 -0.0265 -9.68616e-16)
(-16.3945 -0.0268515 -9.73615e-16)
(-16.3938 -0.0272204 -9.77773e-16)
(-16.3931 -0.0276024 -9.79481e-16)
(-16.3923 -0.0279972 -9.81572e-16)
(-16.3916 -0.028406 -9.83797e-16)
(-16.3909 -0.028831 -9.85966e-16)
(-16.3902 -0.0292745 -9.89909e-16)
(-16.3895 -0.0297399 -9.93235e-16)
(-16.3888 -0.0302306 -9.94157e-16)
(-16.3882 -0.0307512 -9.95407e-16)
(-16.3875 -0.0313066 -9.9674e-16)
(-16.3869 -0.031903 -9.98053e-16)
(-16.3864 -0.0325477 -1.0012e-15)
(-16.3859 -0.0332489 -1.00378e-15)
(-16.3854 -0.0340166 -1.004e-15)
(-16.385 -0.0348624 -1.00458e-15)
(-16.3846 -0.0358001 -1.00536e-15)
(-16.3843 -0.036846 -1.00629e-15)
(-16.3841 -0.0380188 -1.00734e-15)
(-16.384 -0.039341 -1.00849e-15)
(-16.384 -0.0408387 -1.00978e-15)
(-16.3842 -0.0425423 -1.01125e-15)
(-16.3844 -0.0444878 -1.01307e-15)
(-16.3849 -0.0467169 -1.01327e-15)
(-16.3855 -0.0492788 -1.01442e-15)
(-16.3863 -0.0522307 -1.01836e-15)
(-16.3874 -0.0556397 -1.02249e-15)
(-16.3888 -0.059584 -1.02712e-15)
(-16.3905 -0.0641551 -1.03257e-15)
(-16.3926 -0.0694601 -1.0364e-15)
(-16.3952 -0.0756237 -1.04235e-15)
(-16.3982 -0.0827922 -1.05271e-15)
(-16.4018 -0.0911361 -1.06382e-15)
(-16.4061 -0.100855 -1.07678e-15)
(-16.4112 -0.112183 -1.09198e-15)
(-16.417 -0.125391 -1.10993e-15)
(-16.4239 -0.140799 -1.13012e-15)
(-16.4318 -0.158778 -1.155e-15)
(-16.4408 -0.179759 -1.18387e-15)
(-16.4512 -0.204244 -1.21854e-15)
(-16.4629 -0.232812 -1.26242e-15)
(-16.4759 -0.266119 -1.31386e-15)
(-16.4904 -0.304899 -1.37414e-15)
(-16.506 -0.349954 -1.44461e-15)
(-16.5224 -0.402151 -1.53096e-15)
(-16.5392 -0.462362 -1.63985e-15)
(-16.5552 -0.53131 -1.77173e-15)
(-16.5027 0.0263532 1.53414e-15)
(-16.5002 0.0266632 1.5394e-15)
(-16.4995 0.0270243 1.54459e-15)
(-16.499 0.0273953 1.54792e-15)
(-16.4986 0.0277592 1.55184e-15)
(-16.4983 0.0281089 1.55815e-15)
(-16.4979 0.0284397 1.56422e-15)
(-16.4976 0.0287474 1.57019e-15)
(-16.4973 0.0290274 1.57633e-15)
(-16.497 0.029275 1.58006e-15)
(-16.4967 0.0294848 1.58503e-15)
(-16.4964 0.0296507 1.59303e-15)
(-16.4962 0.029766 1.60044e-15)
(-16.496 0.029823 1.60784e-15)
(-16.4958 0.0298129 1.6155e-15)
(-16.4957 0.0297258 1.62146e-15)
(-16.4956 0.0295505 1.62825e-15)
(-16.4956 0.0292738 1.63761e-15)
(-16.4957 0.0288809 1.64688e-15)
(-16.4959 0.0283547 1.65626e-15)
(-16.4961 0.0276755 1.66585e-15)
(-16.4965 0.0268208 1.67576e-15)
(-16.497 0.0257647 1.68604e-15)
(-16.4977 0.0244773 1.69678e-15)
(-16.4986 0.0229243 1.70801e-15)
(-16.4996 0.0210662 1.71972e-15)
(-16.5009 0.0188575 1.73394e-15)
(-16.5025 0.0162456 1.74827e-15)
(-16.5045 0.01317 1.76103e-15)
(-16.5068 0.00956068 1.77504e-15)
(-16.5096 0.00533713 1.79027e-15)
(-16.5128 0.000405986 1.80663e-15)
(-16.5167 -0.0053407 1.82634e-15)
(-16.5213 -0.0120278 1.84702e-15)
(-16.5267 -0.0198002 1.86727e-15)
(-16.533 -0.0288257 1.88997e-15)
(-16.5403 -0.0392992 1.91545e-15)
(-16.5489 -0.0514475 1.94371e-15)
(-16.5589 -0.0655344 1.9774e-15)
(-16.5705 -0.0818673 2.01348e-15)
(-16.584 -0.100805 2.05214e-15)
(-16.5996 -0.122765 2.09983e-15)
(-16.6175 -0.148239 2.15377e-15)
(-16.638 -0.1778 2.21309e-15)
(-16.6614 -0.212114 2.28412e-15)
(-16.6878 -0.251942 2.36532e-15)
(-16.7174 -0.29815 2.461e-15)
(-16.7502 -0.351757 2.57641e-15)
(-16.7857 -0.413949 2.71154e-15)
(-16.8233 -0.485861 2.87382e-15)
(-16.2759 -0.0410535 -1.97886e-15)
(-16.2766 -0.0415411 -1.99011e-15)
(-16.2761 -0.0421115 -2.00165e-15)
(-16.2753 -0.0427211 -2.01538e-15)
(-16.2745 -0.0433477 -2.02884e-15)
(-16.2736 -0.0439876 -2.04018e-15)
(-16.2727 -0.044642 -2.05222e-15)
(-16.2719 -0.0453135 -2.0647e-15)
(-16.271 -0.0460049 -2.07755e-15)
(-16.2702 -0.0467195 -2.09253e-15)
(-16.2694 -0.0474606 -2.1072e-15)
(-16.2687 -0.0482321 -2.11972e-15)
(-16.268 -0.0490381 -2.13279e-15)
(-16.2673 -0.0498837 -2.14617e-15)
(-16.2666 -0.0507743 -2.1596e-15)
(-16.2661 -0.0517162 -2.17501e-15)
(-16.2655 -0.0527169 -2.18977e-15)
(-16.2651 -0.053785 -2.2021e-15)
(-16.2647 -0.0549304 -2.21467e-15)
(-16.2645 -0.0561647 -2.22737e-15)
(-16.2643 -0.0575013 -2.24e-15)
(-16.2643 -0.058956 -2.25262e-15)
(-16.2644 -0.0605469 -2.26506e-15)
(-16.2647 -0.062295 -2.27749e-15)
(-16.2652 -0.0642251 -2.28973e-15)
(-16.2659 -0.0663657 -2.3021e-15)
(-16.2669 -0.0687499 -2.31239e-15)
(-16.2682 -0.0714163 -2.32343e-15)
(-16.2698 -0.0744098 -2.33694e-15)
(-16.2719 -0.0777825 -2.3505e-15)
(-16.2744 -0.0815949 -2.36432e-15)
(-16.2774 -0.0859177 -2.37908e-15)
(-16.281 -0.0908336 -2.39284e-15)
(-16.2854 -0.0964388 -2.40869e-15)
(-16.2905 -0.102846 -2.42865e-15)
(-16.2966 -0.110188 -2.45055e-15)
(-16.3038 -0.118621 -2.47482e-15)
(-16.3121 -0.12833 -2.50221e-15)
(-16.3219 -0.139536 -2.53323e-15)
(-16.3333 -0.1525 -2.56766e-15)
(-16.3464 -0.167543 -2.60795e-15)
(-16.3617 -0.185049 -2.65373e-15)
(-16.3792 -0.205493 -2.70725e-15)
(-16.3992 -0.229466 -2.77233e-15)
(-16.4219 -0.257702 -2.8478e-15)
(-16.4475 -0.291106 -2.93574e-15)
(-16.4759 -0.330779 -3.03876e-15)
(-16.5072 -0.378152 -3.16361e-15)
(-16.5407 -0.435123 -3.31824e-15)
(-16.5747 -0.503732 -3.50495e-15)
(-16.4545 0.0371118 2.40469e-15)
(-16.4536 0.037507 2.41823e-15)
(-16.4538 0.0380501 2.43234e-15)
(-16.4541 0.0386532 2.44491e-15)
(-16.4545 0.0392827 2.45865e-15)
(-16.4549 0.0399238 2.4752e-15)
(-16.4553 0.0405692 2.49192e-15)
(-16.4558 0.0412141 2.50887e-15)
(-16.4562 0.041855 2.52633e-15)
(-16.4567 0.0424884 2.54225e-15)
(-16.4572 0.0431111 2.55926e-15)
(-16.4577 0.0437194 2.57906e-15)
(-16.4583 0.0443095 2.59883e-15)
(-16.4589 0.0448769 2.6188e-15)
(-16.4596 0.0454163 2.63912e-15)
(-16.4604 0.045922 2.65788e-15)
(-16.4612 0.046387 2.67763e-15)
(-16.4621 0.0468036 2.70028e-15)
(-16.4631 0.0471625 2.7229e-15)
(-16.4643 0.0474531 2.74588e-15)
(-16.4655 0.047663 2.76926e-15)
(-16.467 0.0477778 2.79328e-15)
(-16.4686 0.0477807 2.81789e-15)
(-16.4705 0.0476522 2.84329e-15)
(-16.4726 0.0473693 2.86948e-15)
(-16.475 0.0469055 2.89653e-15)
(-16.4778 0.04623 2.92653e-15)
(-16.4809 0.0453067 2.95708e-15)
(-16.4846 0.0440933 2.98655e-15)
(-16.4888 0.0425405 3.01794e-15)
(-16.4936 0.0405906 3.05119e-15)
(-16.4991 0.038176 3.08621e-15)
(-16.5055 0.0352171 3.12521e-15)
(-16.5129 0.0316202 3.1656e-15)
(-16.5214 0.0272746 3.20559e-15)
(-16.5313 0.0220491 3.24808e-15)
(-16.5427 0.0157871 3.29279e-15)
(-16.5559 0.0083013 3.3395e-15)
(-16.5711 -0.000634046 3.39041e-15)
(-16.5887 -0.0112931 3.44184e-15)
(-16.6091 -0.0240108 3.49395e-15)
(-16.6328 -0.0391988 3.5523e-15)
(-16.6601 -0.0573683 3.61385e-15)
(-16.6917 -0.0791649 3.67695e-15)
(-16.7283 -0.10541 3.74769e-15)
(-16.7703 -0.137122 3.82315e-15)
(-16.8187 -0.175514 3.90691e-15)
(-16.8742 -0.222112 4.00345e-15)
(-16.9373 -0.279102 4.11066e-15)
(-17.0066 -0.349276 4.23655e-15)
(-15.6743 -0.0497236 -3.91395e-16)
(-15.6748 -0.0505938 -3.99787e-16)
(-15.6744 -0.0514208 -4.08567e-16)
(-15.6739 -0.0522713 -4.19981e-16)
(-15.6733 -0.0531363 -4.31046e-16)
(-15.6728 -0.0540189 -4.39879e-16)
(-15.6722 -0.0549233 -4.49731e-16)
(-15.6717 -0.0558532 -4.60182e-16)
(-15.6712 -0.0568125 -4.71122e-16)
(-15.6707 -0.0578049 -4.84714e-16)
(-15.6702 -0.0588343 -4.98013e-16)
(-15.6697 -0.0599048 -5.09096e-16)
(-15.6693 -0.0610208 -5.21302e-16)
(-15.669 -0.0621872 -5.34201e-16)
(-15.6687 -0.0634097 -5.47661e-16)
(-15.6685 -0.0646945 -5.63909e-16)
(-15.6683 -0.0660487 -5.79964e-16)
(-15.6682 -0.0674804 -5.93923e-16)
(-15.6683 -0.0689985 -6.09177e-16)
(-15.6685 -0.0706136 -6.25319e-16)
(-15.6688 -0.0723375 -6.42346e-16)
(-15.6693 -0.0741841 -6.60165e-16)
(-15.67 -0.0761688 -6.78838e-16)