/*--------------------------------*- C++ -*----------------------------------*\
  =========                 |
  \\      /  F ield         | OpenFOAM: The Open Source CFD Toolbox
   \\    /   O peration     | Website:  https://openfoam.org
    \\  /    A nd           | Version:  8
     \\/     M anipulation  |
\*---------------------------------------------------------------------------*/
FoamFile
{
    version     2.0;
    format      ascii;
    class       volScalarField;
    location    "500";
    object      alphat;
}
// * * * * * * * * * * * * * * * * * * * * * * * * * * * * * * * * * * * * * //

dimensions      [1 -1 -1 0 0 0 0];

internalField   nonuniform List<scalar> 
1200
(
0.00940028
0.00930484
0.00919489
0.00907915
0.00895772
0.00882077
0.00864313
0.00831846
0.0079912
0.00836335
0.00895203
0.009541
0.0102319
0.0110017
0.011855
0.0125286
0.0128424
0.0132458
0.0140364
0.0150302
0.0155019
0.0155408
0.00603221
0.00605812
0.00614351
0.00625447
0.00636273
0.00644462
0.00649978
0.00656835
0.00673177
0.00716776
0.00746823
0.00753194
0.00760322
0.00782099
0.00830945
0.00885473
0.00930659
0.00975975
0.0103202
0.010648
0.010896
0.0110241
0.0110885
0.0109898
0.0105452
0.0135607
0.0152892
0.0161754
0.0167891
0.0176253
0.0181468
0.0186214
0.0189703
0.01927
0.0217654
0.0261351
0.029198
0.0386034
0.007332
0.00634988
0.00550295
0.00479871
0.00423487
0.0037813
0.00339824
0.0029093
0.00312203
0.00546618
0.00715939
0.00652528
0.00561151
0.00527591
0.00505171
0.0049905
0.00519929
0.00562519
0.00643103
0.00736111
0.00806787
0.0087306
0.00970193
0.0110196
0.0123464
0.0138331
0.0154118
0.00385474
0.00377035
0.0160166
0.0034828
0.00468811
0.00539092
0.00527258
0.0043695
0.00537057
0.00625964
0.00657313
0.00654255
0.00680281
0.00755464
0.00818077
0.00836948
0.00852155
0.00895297
0.00994299
0.010953
0.0117045
0.0114017
0.0089188
0.0100734
0.0128551
0.0140703
0.0152049
0.0161995
0.0172053
0.0198192
0.0212344
0.0202803
0.0214489
0.00732068
0.00630297
0.00541646
0.00466162
0.00402727
0.00348042
0.00300353
0.00297968
0.00409845
0.0053415
0.0048953
0.00223555
0.00166187
0.0031446
0.0046883
0.00530885
0.0054311
0.00544964
0.00540881
0.00693191
0.00957906
0.0127448
0.0149105
0.00376329
0.00411712
0.00449044
0.00487862
0.00530573
0.00575305
0.00621083
0.00665776
0.00718093
0.00765811
0.00811271
0.00857814
0.00915592
0.00974522
0.0102889
0.0108303
0.0113534
0.0118559
0.0123017
0.0126795
0.0130607
0.0135439
0.0141276
0.0146923
0.0151179
0.0155475
0.0159926
0.0163896
0.0171546
0.0179384
0.0189006
0.0200524
0.0214315
0.0228597
0.0243939
0.0258915
0.0276039
0.00732054
0.00630262
0.00542113
0.00466895
0.00402837
0.00346881
0.00298006
0.00276864
0.0037926
0.00478697
0.00427689
0.00334572
0.00323053
0.00412266
0.00539582
0.00632285
0.00670595
0.00689746
0.00696633
0.00661382
0.00945039
0.0126638
0.0148342
0.0168491
0.00409084
0.00449657
0.00491007
0.00534078
0.00578693
0.00625124
0.00673029
0.00722297
0.00772162
0.00822366
0.00872808
0.00924953
0.0097798
0.0103155
0.010856
0.0113999
0.0119411
0.012467
0.0129645
0.0134321
0.0138854
0.014337
0.0147883
0.0152386
0.0157337
0.0162967
0.0168288
0.0174902
0.0182919
0.0192633
0.0203931
0.0216835
0.0230912
0.0247635
0.0265692
0.0284507
0.00731671
0.0062955
0.00541888
0.00467198
0.00402954
0.00347291
0.00298945
0.00265459
0.00307776
0.00388498
0.00378361
0.00328604
0.00294766
0.00307978
0.00465151
0.00648256
0.0069257
0.00726731
0.00775693
0.00824955
0.00914278
0.011023
0.0128082
0.014429
0.0157674
0.00353455
0.00413324
0.00457931
0.0050028
0.0054277
0.0058342
0.00619752
0.00662906
0.00718362
0.00770138
0.00814064
0.00856707
0.00904779
0.00958787
0.010139
0.0106675
0.011185
0.0116928
0.0121527
0.0125285
0.0128214
0.0130819
0.0134175
0.0138216
0.0143526
0.0150292
0.0157661
0.0166568
0.0176305
0.0187035
0.0200276
0.021772
0.0238458
0.0261054
0.0283066
0.0073079
0.00628683
0.00541809
0.00467702
0.00403399
0.00347631
0.00300186
0.0026187
0.00262699
0.00305544
0.00311732
0.00294262
0.00271148
0.00257315
0.0027376
0.00248992
0.00301769
0.00469896
0.00635423
0.00716755
0.00767717
0.00870496
0.010202
0.0119769
0.013379
0.0141301
0.0158334
0.00371919
0.00399268
0.00437967
0.00492946
0.00496797
0.00503874
0.0059363
0.00641918
0.0066903
0.00692704
0.00730475
0.00784139
0.00842021
0.00893026
0.00942139
0.00990958
0.0103223
0.0105957
0.0107348
0.0108134
0.0109059
0.011086
0.011427
0.0120973
0.0127402
0.0131566
0.0135159
0.0142693
0.0158118
0.0180622
0.0208051
0.0242329
0.0273919
0.00729604
0.00627717
0.00541733
0.00468406
0.00404299
0.00348557
0.00301454
0.0026196
0.00241374
0.00248945
0.00249681
0.00241629
0.00229908
0.0021897
0.00212533
0.00196944
0.00182864
0.00168785
0.00159837
0.00241707
0.00442406
0.0059427
0.00700224
0.0085431
0.010115
0.0112233
0.0121482
0.0128597
0.0138057
0.0154867
0.0038153
0.00395387
0.00426942
0.00482046
0.0051509
0.00531229
0.00538902
0.00534949
0.0057494
0.00643215
0.00700344
0.00747135
0.00795943
0.00839264
0.00863145
0.00863095
0.00848845
0.00854765
0.00886663
0.00977679
0.0102005
0.0101502
0.0104085
0.010012
0.00911223
0.0102444
0.0111181
0.0124005
0.0194174
0.0237338
0.00728583
0.00626518
0.00540953
0.00468153
0.0040429
0.00348839
0.00302271
0.00263155
0.00234635
0.00221179
0.00211105
0.00201393
0.00191716
0.00182842
0.00174155
0.0016188
0.00150407
0.00138667
0.00128729
0.0014173
0.00222694
0.00335621
0.00425897
0.00526163
0.00637833
0.00736351
0.00815331
0.00888971
0.0098111
0.0110432
0.0122296
0.0137035
0.0157035
0.00389859
0.00402247
0.00408192
0.00412464
0.00422468
0.00445551
0.00480058
0.00513728
0.00545732
0.00601055
0.00649383
0.00672574
0.00671321
0.00655753
0.00638449
0.00639407
0.00698567
0.00775619
0.00817365
0.00832667
0.00822579
0.00790746
0.00771307
0.00761742
0.00887424
0.0135104
0.0175108
0.00728973
0.00630031
0.00547713
0.00478219
0.00416319
0.00361983
0.0031643
0.00277361
0.00245467
0.00222284
0.00205324
0.00191622
0.00179988
0.00170061
0.00161105
0.00152959
0.00146144
0.0014036
0.00134964
0.00132414
0.0015033
0.00194043
0.00242532
0.00296179
0.00353846
0.00409091
0.00456064
0.00498692
0.00550835
0.00620362
0.0070642
0.00821958
0.00956053
0.0105808
0.0112628
0.0117858
0.0123891
0.0132984
0.0146503
0.0160569
0.00391519
0.0041116
0.00439328
0.00466156
0.00480626
0.00480412
0.00471045
0.00460345
0.00458651
0.00482687
0.00526044
0.00564625
0.00590591
0.00606118
0.0061289
0.00602524
0.00590854
0.00621177
0.00853725
0.0112408
0.00937461
0.00925924
0.00917533
0.00912582
0.00901007
0.00881254
0.00858428
0.00826848
0.00790311
0.00760379
0.00753471
0.00761261
0.00777304
0.00797645
0.0082467
0.00864235
0.00904311
0.00944553
0.00968386
0.00962804
0.00938489
0.00912295
0.009083
0.00922709
0.00951296
0.00982528
0.0102279
0.0107483
0.0113441
0.0120398
0.0128035
0.0135479
0.014284
0.0151126
0.00612757
0.00631607
0.00652504
0.00674994
0.00698144
0.00723087
0.00749327
0.00775643
0.0080294
0.00833049
0.00865945
0.00901054
0.00937255
0.00972174
0.0100204
0.0102917
0.0106238
0.0110352
0.0115221
0.012118
0.0128401
0.0136617
0.0144914
0.0152495
0.0160613
0.0174467
0.00942328
0.00931576
0.00919131
0.0090747
0.00897065
0.00885711
0.00865979
0.00833296
0.00799859
0.00836203
0.00894935
0.00954036
0.0102268
0.0109916
0.0118446
0.0125353
0.0128594
0.0132541
0.0140297
0.0150179
0.00597297
0.00600639
0.0156157
0.00606001
0.00614297
0.00625378
0.00636548
0.006455
0.00652217
0.00658045
0.00671677
0.00711145
0.00754508
0.00764525
0.00772773
0.00794226
0.00845801
0.00902226
0.00948359
0.0099864
0.010678
0.011205
0.0111262
0.0110279
0.011038
0.0111359
0.0116564
0.0132336
0.0145887
0.0154429
0.0159809
0.0171525
0.017731
0.0182773
0.0187758
0.0189245
0.0212789
0.0255454
0.0287956
0.0379637
0.00733378
0.00634397
0.0055025
0.0048072
0.00424866
0.00380374
0.00343052
0.00291413
0.00310091
0.00541873
0.00713284
0.00650493
0.0055905
0.00524652
0.00502574
0.00496736
0.00517598
0.00560093
0.00640403
0.00733525
0.00805107
0.00872829
0.00970432
0.0110147
0.012363
0.0139113
0.0156992
0.0039539
0.00417829
0.01581
0.0156372
0.00430811
0.00539575
0.00572249
0.00479605
0.00513001
0.00626817
0.0068771
0.00711165
0.00733787
0.00778924
0.00813442
0.00825907
0.00836569
0.0087384
0.00968263
0.0107005
0.0115223
0.0113823
0.00902551
0.008843
0.0124162
0.0138736
0.0149313
0.0157875
0.0165924
0.0194764
0.0211882
0.0202826
0.0211634
0.00731984
0.00629334
0.00541514
0.00466653
0.0040292
0.0034824
0.00300954
0.00295451
0.0040544
0.00530772
0.00491106
0.0022765
0.00164385
0.00319289
0.00471468
0.00532585
0.00544622
0.00545894
0.00539189
0.00689966
0.00960628
0.0127959
0.0149003
0.00366603
0.00410815
0.00448169
0.00487647
0.00530991
0.00575424
0.00619891
0.0066167
0.00717229
0.00764698
0.00811401
0.00861498
0.00918509
0.00973478
0.0102741
0.0108096
0.0113308
0.0118293
0.012296
0.0126399
0.0129756
0.0134389
0.0140204
0.014575
0.0150047
0.0154268
0.0158372
0.0161146
0.0169822
0.0177996
0.018748
0.019888
0.0212571
0.0227619
0.0243129
0.0258205
0.0275201
0.00731184
0.00629018
0.00541979
0.00467311
0.00402916
0.00346696
0.00298108
0.00275392
0.00375277
0.0047595
0.00427834
0.0033607
0.00324835
0.00414059
0.00541227
0.00633823
0.00672349
0.0069167
0.00698615
0.00672777
0.00938455
0.012622
0.0150159
0.0176831
0.00409455
0.0044933
0.00491167
0.00534578
0.00579298
0.00625562
0.00673178
0.00722184
0.00770742
0.00821706
0.00872957
0.00924582
0.00977108
0.0102979
0.0108225
0.0113786
0.0119123
0.0124268
0.0129088
0.0133599
0.0138022
0.0142492
0.0146949
0.015138
0.0156182
0.0161847
0.0167156
0.0173918
0.0182039
0.019179
0.0203109
0.0215991
0.0230127
0.0246657
0.0264875
0.0284
0.00729946
0.00628268
0.00541835
0.00467339
0.0040286
0.00346622
0.0029881
0.0026482
0.00305215
0.00386186
0.00377589
0.00328267
0.00295771
0.0030931
0.00467795
0.00649772
0.00695654
0.00730607
0.00779107
0.00827706
0.00916414
0.0110101
0.0127925
0.0143874
0.015776
0.00345107
0.00397934
0.00450309
0.00496361
0.00543488
0.00587435
0.00621305
0.00658795
0.00712123
0.00765672
0.0080999
0.0085086
0.00896535
0.00950339
0.0100249
0.010564
0.0110918
0.0116095
0.0120757
0.0124516
0.012738
0.0129817
0.0132841
0.0136794
0.0142505
0.0149755
0.0157045
0.0165652
0.017546
0.0186452
0.0199912
0.0217117
0.0237328
0.0260291
0.0282611
0.00728734
0.00627516
0.00541785
0.00467713
0.00403317
0.00347603
0.00299803
0.00261436
0.00261316
0.00303934
0.00310858
0.00293923
0.00271252
0.00257179
0.00272729
0.00247082
0.00304883
0.00475453
0.00640302
0.00719984
0.00768795
0.00868249
0.0101614
0.0119551
0.0133549
0.0141412
0.0157302
0.0164209
0.0039901
0.00436945
0.00499038
0.00508855
0.00464893
0.005653
0.0063538
0.00662997
0.00682608
0.00715163
0.00766542
0.00825417
0.00879232
0.00930072
0.00981272
0.0102514
0.0105406
0.0106735
0.0107085
0.0107098
0.0108497
0.0112257
0.0120797
0.0126602
0.01307
0.0133405
0.0141348
0.0157466
0.0174249
0.0205549
0.0240201
0.0273037
0.00727856
0.00626671
0.0054165
0.0046839
0.00404205
0.00348582
0.00301217
0.00261592
0.00240708
0.00248068
0.00249149
0.00241742
0.00230199
0.00219293
0.00212037
0.00196284
0.00183622
0.00169112
0.00160881
0.00248798
0.00449164
0.00595469
0.00697799
0.00852091
0.0101008
0.011201
0.0121043
0.0128404
0.013743
0.0154223
0.00381678
0.00397418
0.00427897
0.00479707
0.00509298
0.00527353
0.00537376
0.00523655
0.0054074
0.00605608
0.00676725
0.00730684
0.00783683
0.00831819
0.00859697
0.00861449
0.00845339
0.00841447
0.00858555
0.00945083
0.010064
0.0101985
0.0102652
0.0098003
0.00888547
0.0102334
0.0111046
0.0126769
0.0187598
0.0234738
0.00727429
0.00625723
0.00540949
0.00468208
0.0040415
0.00348889
0.00302181
0.0026319
0.00234587
0.00220839
0.00211045
0.00201741
0.00192372
0.00183663
0.00174601
0.00162209
0.0015027
0.00138255
0.00129076
0.00144505
0.00227326
0.00338643
0.00426195
0.00525431
0.00637118
0.00734348
0.00812992
0.00887727
0.00981117
0.0110848
0.0123293
0.0138343
0.0157782
0.00389586
0.00401505
0.00407052
0.00412039
0.00424275
0.00446778
0.00479367
0.00512907
0.00537841
0.00584991
0.00636148
0.00667297
0.00672176
0.00659264
0.00641334
0.00634406
0.00678337
0.00752037
0.0080291
0.00823765
0.00813223
0.00781299
0.00765236
0.00759997
0.00916774
0.0138603
0.0174556
0.0072832
0.00629554
0.00547701
0.00478095
0.00415789
0.00362011
0.00316514
0.00277409
0.00245519
0.00222376
0.00205421
0.00191693
0.00180093
0.00170189
0.00161267
0.00153147
0.00146455
0.00140837
0.00135435
0.00133294
0.00152015
0.00196128
0.00244075
0.0029732
0.00355042
0.00409224
0.00455514
0.00498058
0.0055075
0.00625457
0.00718236
0.00836357
0.00965573
0.0106198
0.0112539
0.0117659
0.0124378
0.0134331
0.0148154
0.00375735
0.00393507
0.00414941
0.00440352
0.00462794
0.00474175
0.00472089
0.00462549
0.00454052
0.00457404
0.00485461
0.00528538
0.00568012
0.0059727
0.00613991
0.00611755
0.00595946
0.00589182
0.00634882
0.00892334
0.0116034
0.00938952
0.00929295
0.00920466
0.00911231
0.00898577
0.0088244
0.00860059
0.00828184
0.00790865
0.00760449
0.00753191
0.00761557
0.00778275
0.00798178
0.00824636
0.00862061
0.00898216
0.00936364
0.00965426
0.00958544
0.00931193
0.00905535
0.00903691
0.00918111
0.00938398
0.00964471
0.0100463
0.0105784
0.0111811
0.0118433
0.0125584
0.0133036
0.0140809
0.0149379
0.00607505
0.00627049
0.00648623
0.00671691
0.00695832
0.00721146
0.00746896
0.00773009
0.00800934
0.0083181
0.00865181
0.00900233
0.00935606
0.00968959
0.0099787
0.0102689
0.0106352
0.0110794
0.0116045
0.0122429
0.0130034
0.0138191
0.0146195
0.0153563
0.0162109
0.0176673
)
;

boundaryField
{
    wall
    {
        type            compressible::alphatJayatillekeWallFunction;
        Prt             0.85;
        value           uniform 0;
    }
    inlet
    {
        type            calculated;
        value           uniform 0.189515;
    }
    outlet
    {
        type            calculated;
        value           nonuniform List<scalar> 
20
(
0.0386033
0.0214488
8.06525
8.06525
8.06525
8.06525
0.0237338
0.0175108
0.0112408
0.0174466
0.0379637
0.0211634
8.06525
8.06525
8.06525
8.06525
0.0234738
0.0174556
0.0116034
0.0176672
)
;
    }
    heatWall
    {
        type            compressible::alphatJayatillekeWallFunction;
        Prt             0.85;
        value           nonuniform List<scalar> 
240
(
0.000413366
0.000413731
0.000409943
0.000410468
0.000406989
0.000407258
0.000404158
0.000403891
0.000400088
0.000399709
0.000394103
0.000394206
0.00038586
0.000386273
0.000374379
0.000374789
0.000361194
0.000361257
0.000350397
0.000350248
0.000347922
0.000347749
0.000350914
0.000351046
0.000356901
0.00035722
0.000364214
0.000364386
0.000373882
0.000373885
0.000387355
0.000387091
0.000400142
0.000399673
0.000412951
0.000412712
0.000422554
0.000423059
0.000422881
0.000422299
0.000415181
0.000413642
0.000406145
0.000404361
0.000404682
0.000402632
0.000408426
0.000404973
0.000415665
0.000409898
0.000425603
0.000419345
0.000439522
0.000434106
0.000457152
0.00045221
0.00047671
0.000471727
0.000498164
0.00049233
0.000521067
0.00051465
0.000544217
0.000538322
0.000567946
0.000563049
0.000593841
0.000589707
0.000614094
0.000610831
0.000636305
0.000633658
0.000661106
0.000658969
0.00068763
0.000685898
0.000715016
0.000713884
0.000743493
0.000742325
0.000772544
0.000770948
0.000802298
0.000800893
0.000833962
0.000833405
0.000868584
0.000868674
0.000905702
0.000905862
0.000944635
0.00094425
0.000984206
0.000982876
0.0010223
0.00102017
0.00105682
0.0010553
0.00109256
0.00109408
0.00113653
0.0011416
0.0011886
0.00119685
0.001249
0.00126052
0.0013204
0.00133503
0.00140294
0.00141908
0.00149136
0.00150578
0.00158003
0.00159231
0.00166089
0.00167195
0.00175819
0.00177468
0.00192228
0.00194487
0.0004139
0.0004142
0.000410564
0.000410703
0.000406908
0.000406901
0.000402991
0.000402966
0.000398731
0.00039894
0.000393923
0.000394558
0.000387794
0.000388128
0.000375924
0.000376455
0.0003643
0.000364582
0.000377804
0.000377776
0.000398512
0.000398457
0.00041886
0.000418826
0.000442412
0.000442156
0.000468164
0.000467652
0.000495733
0.000495337
0.000516863
0.000517068
0.000526666
0.000527167
0.000539668
0.000539813
0.00056452
0.000564173
0.000595033
0.0005945
0.000608548
0.000606815
0.000608973
0.000608335
0.0006085
0.000609811
0.000611057
0.000611054
0.000620956
0.000620827
0.000633635
0.000633548
0.000645761
0.000646016
0.00065463
0.000655507
0.000660337
0.000661546
0.000670005
0.000670017
0.000693413
0.000689798
0.000737981
0.000735506
0.000761069
0.000768501
0.000767542
0.000776975
0.000777863
0.000786514
0.000811749
0.000816433
0.00088
0.000878511
0.000943337
0.000940001
0.000990394
0.000987765
0.00103151
0.0010323
0.00107298
0.0010798
0.00110668
0.00111514
0.00113673
0.00113333
0.0011631
0.00115374
0.00118909
0.00117866
0.00122494
0.00121605
0.00134548
0.00132954
0.00160509
0.0015456
0.00173086
0.0016748
0.00179667
0.00174815
0.0018549
0.00180584
0.00191598
0.00188851
0.00196272
0.00193855
0.00199961
0.00197969
0.00201961
0.00200785
0.00203868
0.0020262
0.00247807
0.00245758
0.00289759
0.00287219
0.00321676
0.00318195
0.00426405
0.0042006
)
;
    }
}


// ************************************************************************* //
