/*--------------------------------*- C++ -*----------------------------------*\
  =========                 |
  \\      /  F ield         | OpenFOAM: The Open Source CFD Toolbox
   \\    /   O peration     | Website:  https://openfoam.org
    \\  /    A nd           | Version:  8
     \\/     M anipulation  |
\*---------------------------------------------------------------------------*/
FoamFile
{
    version     2.0;
    format      ascii;
    class       volScalarField;
    location    "500";
    object      p;
}
// * * * * * * * * * * * * * * * * * * * * * * * * * * * * * * * * * * * * * //

dimensions      [1 -1 -2 0 0 0 0];

internalField   nonuniform List<scalar> 
1200
(
12925.5
12925.4
12925.4
12925.4
12925.3
12925.4
12925.5
12925.9
12926.1
12927
12927.4
12926.4
12923.6
12921.9
12918.7
12916.5
12915
12913.3
12912.7
12912.5
12910.2
12906.4
12902.4
12897.4
12891.6
12892
12873.7
12814.7
12771
12712.4
12672.5
12598.8
12376.5
12116.6
11984.1
11856.2
11656.8
11356.8
11003
10674.9
10385.5
10151.8
9981
9860.5
9768.87
9707
9720.01
9630.09
9250.03
8983.04
8839.58
8234.3
7643.11
7339.53
7273.69
7291.19
6948.93
5189.81
2467.03
1012.58
12730.1
12730.2
12730.2
12730.2
12730.2
12730.2
12730.3
12730.8
12731.1
12732.3
12731
12727.7
12724.2
12725.3
12723.2
12721.5
12719.7
12717.4
12716.8
12715.9
12712.8
12709.9
12707.3
12701.6
12695.8
12698.1
12676.1
12610.8
12570.7
12515.1
12483.2
12423.1
12183.1
11905.3
11790.9
11679.3
11483.4
11179.4
10827.6
10510.4
10226.4
9972.23
9791.83
9676.14
9592.22
9532.3
9541.74
9438.89
9002.52
8750.02
8702.54
8108.44
7452.28
7112.39
7050.13
7075.26
6680.61
4630.94
1869.84
831.164
12535
12535
12535
12535
12535
12535.1
12535.1
12535.6
12535.1
12534.5
12530.3
12527.8
12527.9
12529.7
12527
12524.5
12521.9
12518.7
12519
12517
12514
12512.6
12511.4
12505.1
12497.9
12498.6
12479.9
12425.3
12376.5
12315.3
12272.7
12199.3
12008.1
11749.8
11607.8
11495.7
11316.3
11051.5
10739.8
10433.5
10160.4
9919.01
9725.63
9585.19
9483.34
9408.57
9354.72
9194.17
8833.53
8547.1
8438.07
7928.11
7401.3
7057.39
6870.15
6711.49
6151.41
4357.92
2041.31
433.26
12339.8
12339.8
12339.8
12339.8
12339.8
12339.8
12339.8
12340
12339.8
12339
12334.7
12335.3
12332.8
12332.4
12330.2
12328.7
12327.2
12323.8
12321.3
12318.6
12315.1
12315.8
12315.7
12309.9
12300.7
12300.2
12281.2
12238.9
12196
12126.9
12047.7
11968.3
11841.4
11650.1
11486.3
11342.7
11173
10966.6
10733.9
10481
10232.7
10010.3
9813.01
9626.87
9445.98
9280.01
9136.24
8953.67
8703
8477.91
8249.84
7829.16
7389.41
6979.56
6609.65
6162.43
5480.23
4083.86
2214.93
251.273
12144.7
12144.7
12144.7
12144.6
12144.6
12144.6
12144.6
12144.5
12143.7
12142.3
12139
12137.5
12137
12135.4
12134.5
12133
12132.8
12131.2
12128.7
12122.8
12120
12119.2
12119
12111.9
12101.4
12104.6
12086.3
12045.7
12005.2
11931
11824.8
11746
11664.6
11510.9
11339.3
11179.5
11013.9
10850.9
10679.7
10466.9
10233.8
10023.7
9826.8
9613.09
9376.91
9138.38
8931.37
8737.21
8532.09
8326.39
8055.75
7692.41
7286.97
6813.41
6312.22
5695.48
4946.1
3863.06
2334.59
221.658
11949.5
11949.5
11949.5
11949.5
11949.4
11949.4
11949.3
11949.1
11948.3
11946.7
11943.5
11942.8
11940.6
11939.3
11937.9
11937.3
11939.6
11940.8
11941.4
11939.4
11930.7
11926.3
11923
11915.2
11904.3
11905.6
11882.1
11842.5
11805.7
11727.7
11622.9
11545.3
11476.9
11330.7
11153.1
10991
10831.4
10693.4
10565.1
10382.2
10155.4
9949.23
9751.49
9517.63
9246.7
8968.5
8727.68
8535.4
8359.65
8162.97
7849.79
7502.02
7122.72
6650.36
6133.06
5459.4
4674.96
3678.47
2352.17
278.337
11754.4
11754.3
11754.3
11754.3
11754.2
11754.2
11754
11753.7
11752.7
11751
11748.1
11746.4
11745.3
11744
11742.9
11742.3
11744.1
11744.9
11745.6
11748
11746.4
11739.3
11731.2
11722.3
11710.9
11704.8
11680.4
11641.8
11601.5
11527.7
11429.6
11349.4
11265.8
11117.6
10954.2
10797.3
10637.3
10501.3
10390.7
10223.8
10009.8
9814.88
9623.44
9382.47
9095.28
8800.3
8545.43
8341.06
8172.66
7976.36
7653.48
7304.89
6917.03
6451.12
5928.45
5231.42
4361.72
3382.31
2149.37
172.123
11559.2
11559.2
11559.2
11559.1
11559.1
11559
11558.8
11558.3
11557.4
11555.7
11553.1
11551.3
11549.8
11548.6
11547.6
11547.1
11548.8
11550
11550.7
11551.8
11551.4
11547.2
11539
11529.7
11518
11506
11481.6
11443.6
11398.7
11328.5
11238.9
11155.8
11063.8
10921.4
10761.6
10605
10445.1
10306.3
10188.2
10023.1
9817.53
9627.49
9445.98
9206.68
8918.29
8625.36
8370.28
8160.48
7982.87
7777.13
7457.49
7095.03
6717.75
6279.32
5752.8
5035.73
4162.65
3134.59
1777.84
-93.9831
11364
11364
11363.9
11363.9
11363.9
11363.8
11363.5
11363
11362.1
11360.5
11358.1
11356.3
11354.9
11353.6
11352.6
11352.4
11353.9
11354.9
11355.4
11355.9
11355.1
11351.2
11343.3
11334
11323
11308.2
11283
11245.1
11197.3
11131.9
11050
10963.9
10865.8
10729
10573
10415.6
10257.9
10117.6
9986.19
9818.92
9620.55
9430.7
9246.46
9011.34
8729.17
8440.18
8185.68
7974.14
7786.05
7563.56
7245.55
6888.43
6515.13
6086.76
5564.13
4874.71
3970.56
2909.64
1530.29
-316.576
11169
11168.9
11168.8
11168.8
11168.7
11168.6
11168.3
11167.8
11166.9
11165.4
11163
11161.2
11159.7
11158.5
11157.7
11157.7
11159.3
11160.3
11160.7
11160.9
11159.8
11155.7
11147.7
11138.1
11126.8
11111
11085.1
11047
10998.5
10934.9
10855.9
10769.2
10668.2
10534
10380.2
10223
10067.2
9926.28
9789.51
9623.4
9432.64
9242.11
9048.47
8810.12
8529.64
8242.86
7987.69
7772.45
7578.5
7353.33
7042.83
6690.31
6317.96
5895.11
5373.04
4682.05
3782.89
2719.56
1311.58
-505.145
12925.5
12925.4
12925.4
12925.4
12925.3
12925.4
12925.5
12925.8
12926
12927
12927.6
12926.4
12923.6
12921.9
12918.6
12916.4
12914.9
12913.4
12912.7
12912.6
12910.2
12906.2
12902.3
12897
12891.1
12891.7
12873.8
12815.7
12771.2
12713.2
12673.1
12598.9
12376.5
12117.2
11985.2
11857.7
11658.4
11358.5
11005
10677.3
10387.9
10154.4
9983.9
9862.86
9770.29
9707.65
9721.81
9631.48
9252.36
8989.88
8846.09
8233.69
7645.97
7337.82
7271.6
7297.12
6943.08
5163.56
2356.94
968.585
12730.1
12730.2
12730.2
12730.2
12730.1
12730.2
12730.3
12730.5
12730.5
12731.3
12730.2
12726.8
12723.8
12724.5
12722.5
12720.8
12718.8
12716.2
12715
12714
12711.3
12708.4
12706.3
12701
12695.5
12698
12677.1
12612.6
12571.8
12515.3
12482.5
12422.9
12184.8
11906.5
11790.9
11680.1
11485.2
11181.7
10829.3
10511.8
10228.5
9975.49
9795.13
9679.05
9594.6
9533.66
9544.42
9443.1
9011.8
8756.2
8705.33
8113.71
7453.73
7105.66
7044.83
7093.91
6715.4
4687.87
1857.75
910.997
12535
12535
12535.1
12535
12535
12535
12535
12535.3
12534.7
12534.1
12530.3
12527.6
12527.8
12529.4
12526.9
12524.3
12521.6
12517.9
12518
12516.2
12513.2
12511.9
12510.9
12505.1
12498.1
12498.8
12480.4
12426.6
12379.2
12317.1
12274
12200.8
12008.6
11751.1
11609
11497.1
11318
11052.6
10740.7
10434.7
10161.4
9919.44
9726.17
9586.07
9483.93
9409.25
9356.87
9197.87
8841.43
8562.29
8444.04
7920.16
7392.63
7052.24
6871.51
6745.67
6208.78
4388.56
1958.78
448.776
12339.8
12339.9
12339.9
12339.8
12339.8
12339.8
12339.8
12339.8
12339.3
12338.6
12335
12335.3
12332.5
12332.5
12330.6
12329.3
12327.8
12324.1
12321.2
12318.7
12315.6
12316.1
12316.1
12310.6
12301.4
12300.7
12281.5
12239.5
12197.4
12128.5
12048.9
11969.1
11842.5
11651.3
11487.6
11344.6
11175.2
10968.7
10735.9
10483.5
10234.7
10011.6
9814.04
9628.62
9448.68
9282.65
9137.09
8950.96
8699.98
8476.43
8247.72
7827.32
7396.28
6990.86
6625.67
6182.98
5501.96
4112.02
2217.56
332.62
12144.7
12144.7
12144.7
12144.7
12144.6
12144.6
12144.5
12144.4
12143.6
12142.3
12139.1
12137.8
12137.2
12135.9
12135
12133.3
12133.1
12131.5
12129.3
12123.6
12120.9
12120.2
12119.9
12112.9
12102.1
12105.4
12086.8
12046.1
12006.6
11933.3
11826.6
11747.1
11665.9
11512.3
11340.7
11181.2
11016.2
10852.7
10681.1
10469
10236.1
10026.2
9829.57
9616.08
9379.69
9140.41
8932.22
8737.34
8534.15
8326.1
8053.97
7692.67
7297.59
6829.13
6337.72
5730.77
4982.89
3901.15
2346.54
238.081
11949.5
11949.5
11949.5
11949.5
11949.4
11949.4
11949.3
11949
11948.2
11946.7
11943.6
11942.6
11940.8
11939.4
11937.9
11937.4
11940.1
11941.3
11942.2
11940.5
11931.7
11927.4
11924
11916.4
11905.4
11906.8
11883.5
11843.4
11807.4
11729.7
11624
11546.3
11478.2
11332.7
11154.8
10992.8
10833.4
10694.9
10566
10383.1
10155.7
9950.25
9752.94
9519.29
9248.14
8969.42
8727.47
8534.47
8361.13
8162.28
7852.26
7500.94
7127.98
6664.83
6154.7
5479.47
4690.87
3706.9
2385.87
300.352
11754.4
11754.4
11754.3
11754.3
11754.2
11754.2
11754
11753.7
11752.8
11751.1
11748.2
11746.5
11745.4
11744.1
11743
11742.4
11744.1
11744.9
11745.7
11748.7
11747.4
11740.2
11731.9
11723.3
11712
11706
11681.6
11642.6
11602.6
11528.9
11430.7
11350.9
11267.6
11118.8
10955.9
10799.9
10639.5
10503.1
10391.2
10225.4
10010.7
9815.86
9624.77
9384.18
9097.38
8802.55
8546.88
8341.99
8175.09
7978.13
7652.74
7303.92
6924.99
6454.45
5944.93
5253.74
4379.92
3398.53
2167.16
178.403
11559.2
11559.2
11559.2
11559.1
11559.1
11559
11558.8
11558.4
11557.4
11555.8
11553.2
11551.4
11550
11548.7
11547.7
11547.2
11548.9
11550.1
11550.8
11551.9
11551.5
11547.3
11539
11529.9
11518.5
11506.6
11482.4
11444.2
11399.3
11329.4
11239.8
11156.9
11065
10922.7
10763.2
10607.1
10447
10307.8
10189.4
10024
9819.07
9628.37
9446.37
9207.18
8918.96
8626.12
8370.79
8160.77
7985.03
7778.24
7457.77
7096.29
6723.75
6291.27
5767.03
5053.77
4187.2
3161.26
1795.29
-90.5441
11364
11364
11363.9
11363.9
11363.9
11363.8
11363.5
11363.1
11362.2
11360.7
11358.2
11356.4
11355.1
11353.8
11352.7
11352.5
11353.9
11354.8
11355.3
11355.8
11355.1
11351.2
11343.2
11334.2
11323.3
11308.6
11283.3
11245.1
11197.4
11132.3
11050.6
10964.5
10866.5
10729.6
10573.4
10416.3
10258.5
10118.4
9987.03
9819.66
9621.68
9431.61
9247.19
9012.65
8730.83
8441.96
8187.11
7975.24
7788.53
7565.34
7244.67
6888.66
6521.4
6098.83
5578.2
4891.43
3985.92
2930.51
1538.19
-305.104
11169
11168.9
11168.8
11168.8
11168.7
11168.6
11168.4
11167.9
11167
11165.4
11163.1
11161.2
11159.8
11158.5
11157.6
11157.6
11159.1
11160.1
11160.5
11160.7
11159.6
11155.5
11147.4
11137.8
11126.7
11111
11085.1
11046.7
10998.2
10934.8
10855.9
10769.2
10668.2
10533.9
10380.1
10223
10067.1
9926.35
9789.77
9623.73
9433.38
9242.79
9049.11
8811.03
8530.81
8244.23
7989
7773.96
7581.84
7356.44
7042.76
6691.09
6324.42
5907.33
5388.48
4700.46
3801.88
2742.75
1317.12
-473.541
)
;

boundaryField
{
    wall
    {
        type            calculated;
        value           nonuniform List<scalar> 
1200
(
12925.5
12730.1
12535
12339.8
12144.7
11949.5
11754.4
11559.2
11364
11169
12925.4
12730.1
12535
12339.8
12144.7
11949.5
11754.3
11559.2
11364
11168.9
12925.4
12730.2
12535
12339.8
12144.7
11949.5
11754.3
11559.2
11363.9
11168.8
12925.4
12730.2
12535
12339.8
12144.6
11949.4
11754.3
11559.1
11363.9
11168.8
12925.4
12730.2
12535
12339.8
12144.6
11949.4
11754.2
11559.1
11363.8
11168.7
12925.4
12730.2
12535.1
12339.9
12144.7
11949.4
11754.2
11559
11363.8
11168.6
12925.5
12730.3
12535.2
12339.9
12144.6
11949.3
11754
11558.8
11363.5
11168.3
12926
12730.9
12535.8
12340.1
12144.6
11949.1
11753.7
11558.3
11363
11167.8
12926.2
12731.5
12535.4
12340.1
12143.7
11948.3
11752.7
11557.3
11362
11166.9
12926.9
12732.9
12534.7
12339.2
12142.3
11946.7
11751
11555.7
11360.5
11165.3
12927.3
12731.4
12530.4
12334.5
12138.9
11943.4
11748
11553
11358
11163
12926.4
12728.2
12528
12335.4
12137.4
11942.8
11746.4
11551.2
11356.2
11161.1
12923.6
12724.5
12528
12332.9
12136.9
11940.6
11745.3
11549.8
11354.8
11159.7
12921.9
12725.7
12529.9
12332.3
12135.2
11939.2
11743.9
11548.5
11353.5
11158.5
12918.8
12723.6
12527.1
12330.1
12134.2
11937.9
11742.9
11547.5
11352.6
11157.7
12916.6
12721.9
12524.5
12328.4
12132.9
11937.2
11742.2
11547.1
11352.3
11157.7
12915
12720.2
12522.1
12326.8
12132.7
11939.4
11744.1
11548.8
11353.9
11159.4
12913.3
12718
12519.1
12323.6
12131.1
11940.6
11745
11549.9
11355
11160.4
12912.7
12717.7
12519.5
12321.4
12128.4
11941
11745.5
11550.6
11355.4
11160.7
12912.4
12716.8
12517.4
12318.5
12122.4
11938.9
11747.7
11551.7
11355.9
11160.9
12910.1
12713.5
12514.4
12314.8
12119.5
11930.1
11746
11551.4
11355.1
11159.8
12906.5
12710.7
12513
12315.6
12118.6
11925.7
11738.9
11547.2
11351.2
11155.8
12902.5
12707.9
12511.6
12315.6
12118.6
11922.4
11730.8
11539.1
11343.3
11147.9
12897.6
12701.9
12505.2
12309.6
12111.4
11914.5
11721.7
11529.6
11334
11138.2
12891.8
12696.1
12497.8
12300.4
12100.8
11903.7
11710.3
11517.9
11322.9
11126.8
12892.1
12698.1
12498.4
12300
12104.2
11905.1
11704.1
11505.7
11308.1
11111
12873.5
12675.8
12479.7
12281
12086
11881.5
11679.8
11481.2
11282.9
11085.2
12814.2
12610.1
12424.7
12238.5
12045.5
11842.1
11641.3
11443.4
11245.1
11047.2
12770.9
12570.2
12375.2
12195.3
12004.5
11804.9
11601
11398.3
11197.2
10998.7
12712
12514.8
12314.4
12126
11929.9
11726.7
11527.2
11328
11131.8
10935
12672.3
12483.3
12272.1
12047
11824
11622.2
11429
11238.4
11049.8
10856
12598.8
12423
12198.7
11967.8
11745.4
11544.7
11348.6
11155.3
10963.6
10769.3
12376.6
12182.8
12008
11840.8
11663.7
11476.1
11265.1
11063.2
10865.5
10668.3
12116.4
11905
11749.6
11649.4
11510.1
11329.8
11116.9
10920.7
10728.7
10534.1
11983.7
11790.8
11607.5
11485.6
11338.4
11152.2
10953.4
10760.7
10572.7
10380.3
11855.6
11678.9
11495.1
11341.7
11178.4
10990.1
10796.1
10603.9
10415.3
10223.1
11656.1
11482.6
11315.6
11171.8
11012.5
10830.3
10636.2
10444.1
10257.7
10067.3
11356.2
11178.6
11051.1
10965.5
10849.7
10692.2
10500.3
10305.5
10117.3
9926.34
11002.4
10827.3
10739.6
10732.9
10678.6
10564.2
10390.2
10187.7
9985.76
9789.45
10674
10510.1
10433.3
10479.7
10465.6
10381.4
10222.7
10022.7
9818.53
9623.28
10384.5
10225.8
10160.2
10231.6
10232.5
10155
10009
9816.65
9619.93
9432.34
10150.7
9971.31
9918.81
10009.5
10022.3
9948.54
9813.9
9626.95
9430.18
9241.83
9979.94
9790.91
9725.42
9812.28
9825.23
9750.63
9622.31
9445.64
9246.14
9048.16
9859.63
9675.46
9584.78
9625.84
9611.42
9516.7
9381.22
9206.47
9010.85
8809.65
9768.29
9591.81
9482.83
9444.7
9375.37
9245.9
9093.91
8918.03
8728.57
8529.05
9706.53
9532.15
9407.88
9279.05
9137.2
8967.96
8798.96
8624.94
8439.52
8242.17
9718.94
9539.69
9353.83
9136.44
8930.63
8727.54
8544.54
8369.91
8185.14
7987.01
9629.12
9435.87
9192.82
8955.65
8736.83
8535.42
8340.42
8160.17
7973.66
7771.64
9248.87
8998.83
8829.36
8704.71
8531.02
8358.42
8171.27
7981.55
7784.77
7576.77
8979.81
8745.86
8540.15
8478.43
8326.73
8162.99
7975.36
7776.37
7562.58
7351.74
8836.99
8699.69
8436.39
8250.76
8056.76
7848.7
7654.14
7457.28
7245.98
7042.9
8234.99
8106.43
7933.22
7829.93
7692.13
7502.7
7305.36
7094.39
6888.42
6690.08
7641.74
7452.45
7405.81
7385.49
7281.16
7120.39
6912.83
6714.65
6512.15
6314.99
7340.18
7117.25
7059.41
6973.36
6805.69
6643.15
6449.22
6273.36
6080.57
5889.29
7274.77
7053.56
6869.03
6601.1
6300.03
6123.66
5920.19
5745.5
5556.77
5365.49
7288.43
7064.95
6693.77
6152.28
5678.85
5449.58
5221.27
5025.97
4866.4
4672.94
6951.24
6660.68
6121.09
5469.33
4927.25
4666.58
4354.61
4150.05
3962.7
3773.42
5204.21
4602.86
4341.56
4068.79
3843.07
3663.72
3373.84
3121.87
2899
2708.03
2526.05
1880.06
2082.59
2211.68
2328.53
2333.58
2138.46
1768.09
1526.9
1308.98
1040.49
782.858
429.392
207.891
214.684
266.238
168.803
-96.8542
-321.744
-520.737
12925.5
12730.1
12535
12339.8
12144.7
11949.5
11754.4
11559.2
11364
11169
12925.4
12730.2
12535.1
12339.9
12144.7
11949.5
11754.4
11559.2
11364
11168.9
12925.4
12730.2
12535.1
12339.9
12144.7
11949.5
11754.3
11559.2
11364
11168.8
12925.4
12730.2
12535
12339.8
12144.7
11949.5
11754.3
11559.1
11363.9
11168.7
12925.3
12730.1
12535
12339.8
12144.6
11949.4
11754.2
11559.1
11363.9
11168.7
12925.4
12730.2
12535
12339.8
12144.6
11949.4
11754.2
11559
11363.8
11168.6
12925.5
12730.2
12535
12339.7
12144.5
11949.3
11754
11558.8
11363.6
11168.4
12925.7
12730.4
12535.1
12339.7
12144.4
11949
11753.7
11558.4
11363.1
11167.9
12925.9
12730.2
12534.5
12339
12143.5
11948.2
11752.8
11557.5
11362.2
11167
12927.1
12730.7
12533.9
12338.5
12142.3
11946.7
11751.1
11555.9
11360.7
11165.5
12927.8
12729.8
12530.3
12335.2
12139.2
11943.6
11748.3
11553.2
11358.3
11163.1
12926.4
12726.3
12527.5
12335.3
12137.9
11942.6
11746.6
11551.4
11356.5
11161.3
12923.7
12723.5
12527.7
12332.4
12137.3
11940.9
11745.4
11550
11355.1
11159.8
12921.9
12724.1
12529.3
12332.6
12136.1
11939.5
11744.2
11548.8
11353.8
11158.5
12918.5
12722.2
12526.9
12330.8
12135.3
11938
11743.1
11547.7
11352.8
11157.6
12916.3
12720.4
12524.2
12329.7
12133.5
11937.4
11742.4
11547.2
11352.5
11157.6
12914.8
12718.4
12521.4
12328.1
12133.2
11940.3
11744.1
11548.9
11353.9
11159
12913.4
12715.6
12517.5
12324.3
12131.6
11941.5
11744.8
11550.1
11354.8
11160
12912.8
12714.1
12517.5
12321.1
12129.6
11942.6
11745.7
11550.9
11355.2
11160.4
12912.7
12713
12515.7
12318.7
12124.1
11941
11748.9
11552
11355.8
11160.7
12910.3
12710.5
12512.8
12315.9
12121.5
11932.2
11747.8
11551.5
11355.1
11159.6
12906.1
12707.7
12511.5
12316.3
12120.7
11928
11740.6
11547.3
11351.2
11155.4
12902.2
12705.8
12510.7
12316.3
12120.3
11924.6
11732.3
11539
11343.1
11147.3
12896.8
12700.7
12505
12310.9
12113.4
11917
11723.9
11530
11334.2
11137.7
12890.9
12695.3
12498.2
12301.8
12102.6
11906
11712.6
11518.7
11323.3
11126.7
12891.6
12698
12499
12301.1
12105.9
11907.3
11706.6
11506.9
11308.7
11111
12873.9
12677.4
12480.6
12281.7
12087.1
11884
11682.3
11482.7
11283.5
11085.1
12816.2
12613.4
12427.3
12239.8
12046.2
11843.8
11643.1
11444.4
11245.1
11046.4
12771.3
12572.3
12380.4
12198.2
12007.3
11808.2
11603.1
11399.7
11197.5
10997.9
12713.6
12515.5
12318
12129.4
11934.3
11730.7
11529.4
11329.9
11132.5
10934.6
12673.3
12482.5
12274.7
12049.6
11827.4
11624.7
11431.3
11240.3
11050.8
10855.7
12598.9
12423
12201.4
11969.6
11747.8
11546.8
11351.7
11157.5
10964.9
10769.1
12376.4
12185.2
12008.8
11843.1
11666.7
11479.1
11268.4
11065.7
10866.9
10668.2
12117.4
11906.9
11751.4
11652
11513.2
11333.6
11119.5
10923.4
10729.9
10533.8
11985.7
11791
11609.4
11488.4
11341.5
11155.7
10956.8
10764.2
10573.7
10379.9
11858.3
11680.5
11497.9
11345.6
11182.3
10993.7
10801.2
10608.2
10416.6
10222.9
11659
11485.9
11318.8
11176.3
11017.6
10834.5
10640.5
10448
10258.7
10067
11359.1
11182.5
11053.1
10969.8
10853.9
10696.1
10504.1
10308.6
10118.7
9926.32
11005.7
10829.6
10741.1
10737
10682.2
10567
10391.7
10189.9
9987.48
9789.85
10678.2
10512.1
10435
10484.8
10470.4
10384
10226.4
10024.4
9820.08
9623.86
10388.9
10229.1
10161.7
10235.9
10237.5
10156.2
10011.5
9819.95
9622.34
9433.69
10155.4
9976.41
9919.6
10012.5
10027.7
9950.96
9816.84
9628.92
9432.16
9243.08
9984.96
9796.05
9726.27
9814.82
9831.22
9753.84
9625.9
9446.71
9247.5
9049.42
9863.71
9679.72
9586.34
9629.68
9617.82
9520.26
9385.43
9207.39
9013.08
8811.49
9770.9
9595.03
9484.3
9449.99
9381.27
9248.97
9098.75
8919.22
8731.35
8531.4
9708.17
9533.81
9409.85
9283.67
9141.56
8969.96
8803.88
8626.54
8442.55
8244.92
9722.93
9546.46
9357.66
9136.94
8932.84
8727.56
8547.77
8371.17
8187.64
7989.7
9632.47
9446.11
9199.13
8948.99
8737.52
8534.33
8342.63
8161.07
7975.76
7774.81
9253.54
9015.48
8845.56
8698.28
8535.01
8362.2
8176.48
7986.34
7789.89
7583.64
8993.12
8760.37
8569.09
8475.93
8325.64
8162.15
7979.13
7778.99
7566.4
7358.11
8848.69
8708.2
8445.64
8246.86
8052.93
7853.35
7652.07
7457.99
7244.3
7042.78
8232.77
8115.71
7914.94
7826.66
7693.01
7500.26
7303.45
7096.93
6888.69
6691.39
7647.34
7453.47
7387.92
7400.3
7303.53
7130.29
6929.19
6726.89
6524.38
6327.42
7337.16
7100.58
7049.96
6997.1
6836.94
6672.03
6456.35
6297.29
6105.04
5913.16
7270.5
7041.05
6872.57
6634.15
6349.81
6164.09
5953.29
5774.44
5585.57
5396.06
7299.84
7104.19
6763.47
6192.82
5747.15
5489.28
5263.97
5063.91
4899.78
4709.6
6940.62
6735.42
6239.02
5512.28
5001.3
4698.95
4387.15
4200.07
3993.9
3811.42
5149.26
4715.97
4404.71
4126.16
3920.71
3721.36
3407.18
3174.18
2941.29
2754.37
2297.95
1847.54
1916.91
2219.71
2352.19
2404.37
2178.1
1805.6
1542.17
1319.96
940.572
959.308
452.615
375.977
245.044
312.449
181.728
-86.9254
-299.259
-457.487
)
;
    }
    inlet
    {
        type            calculated;
        value           nonuniform List<scalar> 
20
(
12925.5
12730.1
12535
12339.8
12144.7
11949.5
11754.4
11559.2
11364
11169
12925.5
12730.1
12535
12339.8
12144.7
11949.5
11754.4
11559.2
11364
11169
)
;
    }
    outlet
    {
        type            calculated;
        value           nonuniform List<scalar> 
20
(
-97.6853
-293.048
-488.396
-683.754
-879.112
-1074.47
-1269.83
-1465.21
-1660.73
-1856.69
-97.6858
-293.048
-488.396
-683.754
-879.112
-1074.47
-1269.83
-1465.21
-1660.72
-1856.68
)
;
    }
    heatWall
    {
        type            calculated;
        value           nonuniform List<scalar> 
240
(
11071.4
11071.4
11071.3
11071.3
11071.2
11071.2
11071.2
11071.2
11071.1
11071.1
11071
11071
11070.8
11070.8
11070.3
11070.3
11069.3
11069.4
11067.8
11067.9
11065.4
11065.5
11063.6
11063.6
11062.1
11062.2
11060.9
11060.9
11060.1
11060
11060.1
11060
11061.7
11061.5
11062.7
11062.5
11063.1
11062.9
11063.3
11063.1
11062.2
11062
11058.1
11057.9
11050.1
11049.8
11040.4
11040.2
11029.1
11029.1
11013.3
11013.4
10987.4
10987.5
10949.3
10949
10900.8
10900.5
10837.2
10837.1
10758.2
10758.2
10671.5
10671.5
10570.5
10570.5
10436.3
10436.2
10282.5
10282.4
10125.3
10125.2
9969.49
9969.39
9828.56
9828.63
9691.78
9692.03
9525.66
9525.99
9334.9
9335.64
9144.37
9145.05
8950.73
8951.37
8712.38
8713.29
8431.9
8433.07
8145.12
8146.48
7889.94
7891.26
7674.7
7676.22
7480.76
7484.11
7255.59
7258.7
6945.1
6945.03
6592.58
6593.36
6220.23
6226.69
5797.38
5809.6
5275.31
5290.75
4584.32
4602.73
3685.16
3704.15
2621.83
2645.02
1213.85
1219.4
-602.866
-571.261
13023.1
13023.1
13023
13023
13023
13023
13023
13023
13022.9
13022.9
13023
13023
13023.1
13023.1
13023.5
13023.4
13023.7
13023.6
13024.6
13024.7
13025.1
13025.3
13024.1
13024
13021.3
13021.3
13019.6
13019.6
13016.4
13016.3
13014.2
13014.1
13012.7
13012.6
13011.1
13011.1
13010.5
13010.5
13010.3
13010.4
13008
13008.1
13004.3
13004
13000.2
13000.1
12995.2
12994.8
12989.4
12989
12989.8
12989.5
12971.5
12971.6
12912.6
12913.5
12868.8
12869.1
12810.2
12811
12770.3
12770.9
12696.6
12696.7
12474.3
12474.3
12214.4
12215
12081.9
12083
11953.9
11955.4
11754.5
11756.1
11454.5
11456.2
11100.8
11102.8
10772.6
10775
10483.2
10485.7
10249.5
10252.1
10078.7
10081.6
9958.22
9960.58
9866.59
9868.02
9804.72
9805.37
9817.72
9819.53
9727.79
9729.19
9347.73
9350.07
9080.74
9087.59
8937.29
8943.8
8332.01
8331.4
7740.82
7743.68
7437.24
7435.53
7371.4
7369.31
7388.9
7394.82
7046.63
7040.78
5287.5
5261.25
2564.72
2454.64
1110.26
1066.27
)
;
    }
}


// ************************************************************************* //
