/*--------------------------------*- C++ -*----------------------------------*\
  =========                 |
  \\      /  F ield         | OpenFOAM: The Open Source CFD Toolbox
   \\    /   O peration     | Website:  https://openfoam.org
    \\  /    A nd           | Version:  8
     \\/     M anipulation  |
\*---------------------------------------------------------------------------*/
FoamFile
{
    version     2.0;
    format      ascii;
    class       surfaceScalarField;
    location    "500";
    object      phi;
}
// * * * * * * * * * * * * * * * * * * * * * * * * * * * * * * * * * * * * * //

dimensions      [1 0 -1 0 0 0 0];

internalField   nonuniform List<scalar> 
2860
(
0.00797956
-6.88989e-06
-0.000333553
0.00795087
5.37876e-05
-0.00133312
0.00791463
6.37184e-05
-0.00323179
0.00783717
9.59722e-05
-0.00444655
0.00767545
0.000143352
-0.00291446
0.00741784
0.000225081
0.00128918
0.00704425
0.000325623
0.00509816
0.00732504
-0.00026301
0.0254201
0.00853612
-0.000939456
0.0632487
0.0100713
-0.00143412
0.106074
0.0107378
-0.000213479
0.0999576
0.0108823
-0.00014594
0.106141
0.011103
-0.000111885
0.109478
0.0114758
-0.000403105
0.117746
0.0115428
-0.000125452
0.127795
0.0115582
-8.69371e-05
0.13695
0.0122114
-0.000775373
0.145508
0.013326
-0.00129469
0.153226
0.0144105
-0.00139708
0.173515
0.0155531
-0.00155866
0.189838
0.0171987
-0.00211357
0.214738
0.0195357
-0.00271381
0.25414
0.0222458
-0.00305534
0.271557
0.0253341
-0.00331908
0.287039
0.0287826
-0.003554
0.29792
0.0321916
-0.00373131
0.288062
0.0351133
-0.00342245
0.261461
0.0367069
-0.00248604
0.214614
0.0391561
-0.00269191
0.183462
0.0426149
-0.00399305
0.145712
0.0498031
-0.00623469
0.123441
0.0618177
-0.0113894
0.118453
0.0695043
-0.00841889
0.117323
0.0675311
0.000550217
0.103293
0.0662286
7.71877e-05
0.0834207
0.0700422
-0.00456205
0.0645375
0.0788517
-0.00856876
0.0593402
0.0891022
-0.00888912
0.0594864
0.0969843
-0.00666463
0.0527648
0.103157
-0.00573731
0.03835
0.108425
-0.00582714
0.0218266
0.111032
-0.000890916
0.000284441
0.109775
0.00538906
-0.0211989
0.10409
0.0097349
-0.0354579
0.0956886
0.0105354
-0.0407189
0.089247
0.006028
-0.0374871
0.104216
-0.00378161
-0.0142485
0.132389
-0.0154941
0.050867
0.151852
-0.00884943
0.0652835
0.160304
0.0013318
0.0249498
0.183902
-0.011072
-0.00312066
0.192998
-0.00338173
0.0124042
0.183843
0.0119351
0.00104285
0.161828
0.022381
0.010819
0.141628
0.0214895
0.0227456
0.13885
0.0069582
-0.0274247
0.166176
-0.0303471
0.119311
0.205537
-0.0392034
0.397634
0.195532
0.0195293
1.09315
0.0522366
2.12729
0.00795395
-8.12186e-05
1.30386e-05
0.00794461
-2.54117e-06
-0.000865332
0.0079248
5.35783e-05
-0.0027526
0.00787329
0.00013168
-0.00437549
0.00774825
0.000220904
-0.00268294
0.00751901
0.000398695
0.0023735
0.00708317
0.000716805
0.00924169
0.00724144
-9.34965e-05
0.0525575
0.00665497
0.000496243
0.196318
0.0020359
0.00345342
0.393606
-0.00274927
0.00414015
0.455065
-0.00337842
5.55292e-05
0.41471
-0.0024337
-0.000915796
0.340487
-0.00101547
-0.00172482
0.287043
0.0011832
-0.00196251
0.205501
0.00351077
-0.00216924
0.168212
0.00534103
-0.00223254
0.213525
0.00669867
-0.00215836
0.309823
0.00731118
-0.00216651
0.455597
0.00737408
-0.00235956
0.521139
0.0074594
-0.00285563
0.511001
0.00771999
-0.00336002
0.494485
0.00789391
-0.00373105
0.407863
0.00866057
-0.00414441
0.32349
0.0100801
-0.00452451
0.274045
0.0118788
-0.00533468
0.211797
0.0163189
-0.00668374
0.136203
0.0208612
-0.00783289
0.0503979
0.0287772
-0.00433069
0.000139887
0.025423
-0.000134551
-0.0255945
0.0185474
0.00291285
0.0307595
0.0134747
-0.00303925
0.103128
0.0186265
-0.0133409
0.137036
0.0193047
-0.00997686
0.0912583
0.0147995
0.00254032
0.0880129
0.0112138
0.00325884
0.126246
0.0099396
-0.0030231
0.17782
0.0116434
-0.00864573
0.211771
0.0130365
-0.00789732
0.225494
0.011238
-0.00277439
0.227582
0.0086025
0.00135732
0.263254
0.00867117
0.00532582
0.310783
0.00997647
0.0128148
0.324885
0.00872174
0.021288
0.310477
0.00489725
0.0246416
0.291311
-0.000628858
0.018492
0.301916
-0.00376007
0.00298769
0.286173
-0.00232387
-0.0158404
0.316669
0.01164
-0.0217964
0.248953
0.00816543
0.000197149
-0.279043
-0.0082893
0.0223963
0.0754575
-0.034624
0.0259083
0.316324
-0.0529795
0.0342437
0.419062
-0.0612452
0.039415
0.495836
-0.0566854
0.031011
0.430022
-0.035436
0.00359731
0.245827
-0.0146799
-0.0538549
0.424833
0.0369738
-0.104268
0.720067
0.0827011
-0.0356758
1.2047
0.0450208
0.789712
0.00791329
-3.89459e-05
0.000142324
0.00791226
2.26555e-05
-0.00150395
0.0079104
9.20631e-05
-0.00457208
0.00788203
0.000184432
-0.00671575
0.00778003
0.000329334
-0.00399922
0.00755772
0.000657649
0.00368209
0.00715997
0.00129409
0.0169387
0.00669523
0.00168832
0.112174
0.00544209
0.0026302
0.251635
0.00247396
0.0061957
0.331793
0.000245929
0.0050643
0.284576
0.000746948
-0.00175228
0.0889367
0.00111474
-0.000916747
0.0123524
0.00119666
-9.55846e-05
-0.0995899
0.000979752
-0.00172592
-0.212994
0.00118807
-0.00277689
-0.224943
0.00132373
-0.00294203
-0.178793
0.00224452
-0.00402758
-0.091083
0.0030217
-0.0022606
0.160076
-0.000407769
0.00081087
0.325667
-0.00648483
0.00291974
0.261388
-0.0129208
0.00312946
0.165924
-0.0188068
0.00195119
0.104733
-0.0242416
0.00122331
0.0818556
-0.0300639
0.00107574
0.0776616
-0.0351325
-0.000434344
0.0857926
-0.0402504
-0.00177839
0.0955293
-0.0473528
-0.000755164
0.108822
-0.0542997
0.00282657
0.136535
-0.0612897
0.00581767
0.185356
-0.0677836
0.00858996
0.223825
-0.0749642
0.00278869
0.260136
-0.0835968
-0.00607867
0.292272
-0.0917363
-0.00236878
0.312496
-0.0988171
0.00788144
0.332358
-0.107496
0.00996787
0.364181
-0.116619
0.0042664
0.398126
-0.1261
-0.00137732
0.427992
-0.134978
-0.00119163
0.457096
-0.142785
0.00327853
0.484296
-0.15026
0.00743392
0.511347
-0.15662
0.0115138
0.535603
-0.161073
0.0189688
0.553098
-0.164591
0.0281574
0.567398
-0.168353
0.0323576
0.585266
-0.171848
0.0258928
0.605092
-0.173699
0.0087681
0.614662
-0.176084
-0.0108426
0.609456
-0.179399
-0.0170293
0.608274
-0.178049
0.00152311
0.638174
-0.174087
0.0238788
0.703021
-0.174549
0.028834
0.763931
-0.17478
0.036524
0.757541
-0.172402
0.0403788
0.75317
-0.166824
0.0297764
0.74614
-0.160468
-0.00174477
0.764577
-0.164367
-0.0524788
0.981223
-0.178883
-0.0887807
1.42733
-0.181487
-0.029025
1.86859
0.0515533
1.53394
0.00794833
-5.28999e-05
1.15953e-05
0.00795841
-2.99359e-06
-0.00159014
0.00795933
8.46634e-05
-0.00400986
0.00792957
0.000202879
-0.0054541
0.00786051
0.000383599
-0.00290239
0.00775258
0.000791696
0.00426006
0.00749939
0.00165563
0.0146896
0.00712103
0.00317345
0.0809392
0.00636343
0.00433684
0.236112
0.00498305
0.00690286
0.279058
0.00336445
0.0051505
0.184246
0.00234064
0.0044684
-0.0673787
0.00122603
0.00162319
-0.181824
0.000366117
0.000729416
-0.302601
-0.0011107
-0.000672133
-0.358812
-0.00253849
-0.00199802
-0.37809
-0.00325222
-0.00295355
-0.357715
-0.00320537
-0.00499619
-0.303284
-0.00138874
-0.00523451
-0.217128
-0.000293952
-0.000474841
-0.0501713
-0.00273588
0.0048455
0.0410041
-0.00757825
0.00861108
0.0174449
-0.0135317
0.00913953
0.00312907
-0.0209481
0.00915734
0.0137035
-0.0289585
0.00833672
0.0437807
-0.0351941
0.00395974
0.0725248
-0.0413104
0.00245294
0.0975627
-0.0481784
0.00401757
0.11853
-0.0549915
0.00765192
0.14495
-0.0625161
0.0115895
0.18347
-0.0702966
0.0148269
0.222018
-0.0780746
0.00895263
0.252124
-0.0864297
0.000889149
0.276986
-0.0955401
0.00508067
0.30397
-0.104003
0.0147494
0.330286
-0.11221
0.0165343
0.356213
-0.120798
0.0111107
0.385687
-0.129537
0.00573479
0.417601
-0.138149
0.00593416
0.4471
-0.146926
0.0105396
0.473998
-0.155847
0.0147113
0.503413
-0.1644
0.0184553
0.529774
-0.171743
0.0249901
0.550821
-0.177278
0.0329423
0.568059
-0.181192
0.0361001
0.584986
-0.184331
0.0290112
0.601607
-0.187404
0.0116685
0.615204
-0.191311
-0.00724872
0.620858
-0.194859
-0.013389
0.616957
-0.194197
0.00045569
0.618263
-0.190608
0.0197696
0.618062
-0.189123
0.0262143
0.602943
-0.188761
0.0341368
0.580877
-0.188448
0.0380116
0.599844
-0.187666
0.028224
0.643432
-0.188682
0.0012676
0.717894
-0.197697
-0.0369043
0.810498
-0.216127
-0.0604113
0.90663
-0.228956
-0.00331792
0.971677
0.0728529
0.849806
0.00795031
-5.60792e-05
-0.000141424
0.00795907
-1.14016e-05
-0.00204423
0.00796375
7.95804e-05
-0.00530804
0.00795493
0.000204864
-0.0079043
0.00792841
0.000410684
-0.00686916
0.00794162
0.000852184
-0.000166282
0.00797809
0.00170862
0.00755631
0.00824227
0.00345962
0.0422504
0.0083222
0.00498282
0.137067
0.00815618
0.00679514
0.195197
0.00735935
0.0049273
0.151336
0.00640982
0.00429202
0.0402406
0.0058435
0.00430081
-0.0877591
0.00351085
0.00361109
-0.237131
-0.000749384
0.00328057
-0.32552
-0.00397061
0.00088233
-0.3816
-0.00506047
-0.00173306
-0.396335
-0.00556181
-0.00430851
-0.396461
-0.00554102
-0.00582112
-0.388656
-0.00429062
-0.00341645
-0.33205
-0.00241707
0.00328869
-0.224699
-0.00160733
0.00880326
-0.161169
-0.00237205
0.0108819
-0.117279
-0.00426201
0.0116022
-0.0911713
-0.00997413
0.0116244
-0.0420659
-0.0123344
0.012127
-0.00827043
-0.0186393
0.0110076
0.0328669
-0.024058
0.0108589
0.0509202
-0.0274392
0.0115304
0.0541261
-0.0317071
0.0150691
0.0792751
-0.0373071
0.0188489
0.116883
-0.0428683
0.0130307
0.139545
-0.0496295
0.00671001
0.160646
-0.057874
0.0122843
0.195198
-0.0645075
0.0193461
0.222205
-0.0698358
0.0191798
0.238206
-0.0758837
0.0146032
0.258807
-0.0826597
0.0103733
0.292739
-0.0895184
0.0106408
0.32498
-0.0964771
0.0153934
0.352564
-0.10362
0.0196621
0.379077
-0.110917
0.0232758
0.400559
-0.117709
0.0289305
0.419948
-0.122878
0.0351105
0.437196
-0.126014
0.0364469
0.448843
-0.128257
0.0292131
0.451977
-0.131535
0.0147386
0.447191
-0.135847
-4.73388e-05
0.437141
-0.138772
-0.00487245
0.414832
-0.138829
0.00591736
0.394872
-0.137732
0.0221482
0.350547
-0.138806
0.027336
0.281329
-0.140462
0.0320142
0.224494
-0.139906
0.033658
0.222426
-0.137682
0.0246027
0.237696
-0.141415
0.0100535
0.336697
-0.153955
-0.0183588
0.547768
-0.171716
-0.0340941
0.779791
-0.185817
0.0170952
1.00375
0.0882939
0.98535
0.00795719
-4.95168e-05
-0.000126201
0.00797306
-1.58447e-05
-0.00184399
0.00798317
6.48816e-05
-0.00491906
0.00798831
0.000181768
-0.00741006
0.00800545
0.000386474
-0.0083371
0.00810202
0.000802778
-0.00466368
0.00832622
0.00158168
-0.000794257
0.0088877
0.00318219
0.0138729
0.00972364
0.00469411
0.0687345
0.010519
0.0059544
0.121541
0.0105749
0.0044461
0.117021
0.0104089
0.00375632
0.0937401
0.0102875
0.00362015
0.0288895
0.00994219
0.0036731
-0.0484907
0.00931847
0.00313009
-0.105689
0.00864513
0.0011752
-0.127612
0.00746589
0.000190828
-0.2222
0.00471423
-0.000775276
-0.319548
0.00114375
-0.00161874
-0.419696
-0.000822168
-0.00154878
-0.476412
-0.00033617
0.0021582
-0.406026
0.00158313
0.0070694
-0.330539
0.00352113
0.00930424
-0.262723
0.00449573
0.0107972
-0.23154
0.00439653
0.0116757
-0.188504
0.00505849
0.0125063
-0.153968
0.00613445
0.0118573
-0.126341
0.00591046
0.0113172
-0.0638641
0.00622542
0.0130125
-0.0926141
0.0106521
0.0127338
-0.0857321
0.0105509
0.010224
0.00403844
0.00493649
0.0124738
0.0200473
-0.00391059
0.0198603
0.0320592
-0.0136967
0.0238608
0.0881203
-0.0174049
0.0215553
0.115623
-0.0180941
0.0173058
0.121178
-0.0204852
0.0144438
0.137175
-0.0240705
0.0116578
0.1863
-0.0277112
0.0122655
0.243618
-0.0316671
0.0174273
0.279731
-0.0357577
0.0218728
0.305469
-0.0401068
0.0253184
0.309489
-0.0440362
0.0300419
0.319205
-0.0464788
0.0341492
0.327816
-0.0473704
0.0336325
0.331
-0.0483241
0.0269158
0.325567
-0.0513341
0.0162292
0.314335
-0.054843
0.00589777
0.291316
-0.0564229
0.00268989
0.242155
-0.0555248
0.0135709
0.200586
-0.052163
0.0244065
0.0884102
-0.0525103
0.0275257
0.00431681
-0.0530241
0.0319666
-0.152279
-0.0479058
0.0314808
-0.307645
-0.0420977
0.0262397
-0.337951
-0.049799
0.020576
-0.152592
-0.06592
0.00733637
0.15119
-0.0811062
-0.00830727
0.302639
-0.09314
0.0383102
0.621527
0.094088
0.777845
0.00796767
-3.78417e-05
5.0568e-05
0.00799665
-3.16691e-05
-0.00118026
0.00801458
3.08292e-05
-0.00317433
0.00803389
0.000127982
-0.00429954
0.00808204
0.00030733
-0.00566788
0.00824356
0.000654159
-0.0047829
0.00856465
0.00129309
-0.00441145
0.00941595
0.00249306
-0.00136685
0.0105503
0.00382502
0.0196201
0.0118691
0.00468775
0.0527752
0.0126011
0.00353841
0.0623026
0.0128618
0.00313014
0.0610992
0.0131447
0.00292774
0.0465734
0.0134478
0.00286568
0.0181773
0.0137862
0.00223751
-0.0109466
0.0137744
0.000558854
-0.0257189
0.0140035
0.000490549
-0.0329475
0.0136649
-0.000130714
-0.0290798
0.0128502
-8.37048e-05
-0.0452228
0.0118086
0.00192893
-0.158322
0.0105381
0.00438045
-0.288761
0.0103439
0.00690876
-0.333678
0.0111423
0.00805144
-0.322601
0.0125553
0.00905231
-0.318915
0.0142107
0.00952687
-0.295998
0.0163911
0.0101321
-0.279776
0.0185777
0.00971451
-0.272231
0.020551
0.00919231
-0.236013
0.0231839
0.0102005
-0.217033
0.0254542
0.00966435
-0.198591
0.0263557
0.00818679
-0.163548
0.0269107
0.0106007
-0.137003
0.0306145
0.016057
-0.0906381
0.034725
0.0166753
-0.0311949
0.0375747
0.0153284
-0.00314
0.0411829
0.0136557
-0.0148826
0.0431948
0.0116305
-0.0158465
0.0370195
0.0120273
0.00288766
0.0295256
0.0156636
0.0629671
0.0259754
0.0183468
0.109476
0.0255771
0.0198356
0.168668
0.0257357
0.0222144
0.200079
0.0261933
0.0267157
0.220331
0.0279024
0.0293987
0.231685
0.0311045
0.0273784
0.23082
0.0342049
0.0212083
0.218124
0.0341503
0.0147679
0.210777
0.0310059
0.00986095
0.216305
0.0250653
0.0109997
0.181065
0.0229315
0.0206214
0.207581
0.0278813
0.0260609
0.24411
0.0322714
0.0261315
0.177578
0.0349755
0.0239737
-0.103313
0.0388817
0.0190978
-0.205088
0.0418561
0.0196782
-0.460497
0.0420424
0.0183348
-0.593788
0.0395945
0.003882
-0.563496
0.0140259
-0.00202486
-0.465719
0.00780098
0.0552727
0.271604
0.0767906
0.648327
0.0079449
3.54961e-05
0.000229953
0.0079737
3.93592e-06
-0.000905459
0.00799708
3.60174e-05
-0.00273208
0.0080345
9.28271e-05
-0.00332355
0.00812211
0.000217871
-0.00542024
0.00834316
0.000468059
-0.00662488
0.00876478
0.000908521
-0.00828355
0.00961792
0.00170372
-0.0106264
0.0109547
0.00257853
-0.00715108
0.0125437
0.00310114
0.00592113
0.0135398
0.00237352
0.0124482
0.014323
0.00188343
0.0150456
0.0149853
0.00165144
0.0116923
0.0155936
0.00157628
0.00431297
0.0161215
0.00117175
-0.00209612
0.0161224
0.000352404
-0.00876937
0.0164108
0.000272179
-0.0157352
0.0163023
0.000158578
-0.0215814
0.0160959
0.000571909
-0.0319868
0.0165866
0.00259606
-0.0605211
0.0175842
0.00482083
-0.123396
0.0188661
0.00632693
-0.186912
0.0202611
0.00664272
-0.216551
0.0220372
0.00697297
-0.240254
0.0242641
0.00683596
-0.254259
0.0269377
0.00692097
-0.266436
0.0295761
0.0066491
-0.278968
0.0319643
0.00631651
-0.274545
0.0348875
0.00667378
-0.267982
0.0378635
0.00573431
-0.26317
0.0402216
0.00464552
-0.252894
0.0432242
0.00643939
-0.237116
0.0482992
0.0101946
-0.213538
0.0535695
0.0109258
-0.191167
0.0584246
0.0103268
-0.179879
0.0627635
0.00981035
-0.183613
0.065457
0.00844581
-0.182153
0.067302
0.008782
-0.168852
0.0706353
0.0118087
-0.137664
0.074324
0.0131843
-0.0921846
0.0759417
0.0135552
-0.0462583
0.0756982
0.0159749
0.00845822
0.0784796
0.0193629
0.0648643
0.0849119
0.0191548
0.104408
0.0921484
0.0155464
0.121761
0.0977491
0.0103346
0.121602
0.100853
0.00639804
0.116627
0.101117
0.00539773
0.11339
0.0994964
0.0102297
0.0965052
0.101128
0.0196963
0.10974
0.106964
0.0233907
0.146635
0.114496
0.0225408
0.156928
0.123885
0.0198623
0.082702
0.127933
0.0172746
-0.034353
0.125375
0.0153121
-0.171303
0.124581
0.00946604
-0.332095
0.11994
0.00305581
-0.50618
0.101863
0.00587446
-0.589969
0.102043
0.0388213
-0.319944
0.0519319
0.115499
0.00798852
1.49386e-06
0.000161993
0.00801311
-4.52059e-05
-0.00051888
0.00802885
-2.76801e-05
-0.00107838
0.00806811
-7.41852e-06
-0.000592485
0.00816661
6.94367e-05
-0.00219856
0.00842
0.000216421
-0.00404184
0.00888409
0.000454149
-0.00698871
0.00975025
0.000860502
-0.0135147
0.0110657
0.00128819
-0.0193235
0.012647
0.00153694
-0.0222534
0.0137822
0.00119477
-0.0249816
0.0146863
0.000974072
-0.0301306
0.0154906
0.000880293
-0.0369313
0.0162297
0.000817227
-0.0427521
0.0167764
0.000595792
-0.0462887
0.0169203
0.000157377
-0.0502333
0.0170417
0.000142394
-0.0470603
0.0170468
0.000118243
-0.0387818
0.0172027
0.000352598
-0.0327778
0.018411
0.00143502
-0.0343039
0.0208139
0.00264521
-0.0517391
0.0237976
0.00368434
-0.0821937
0.0268028
0.00388472
-0.105629
0.0300721
0.00399521
-0.130875
0.0336811
0.00354358
-0.152745
0.0374728
0.00325374
-0.17097
0.0410721
0.00304049
-0.185661
0.0443228
0.00286804
-0.189643
0.0477611
0.00289983
-0.193924
0.0513366
0.00209337
-0.202197
0.0548049
0.00117596
-0.211439
0.0592096
0.00172478
-0.219989
0.0654776
0.00356563
-0.223754
0.0719308
0.00413327
-0.223003
0.0775911
0.00433947
-0.220721
0.0824049
0.0046041
-0.220959
0.0861177
0.00400918
-0.217763
0.0898482
0.00423386
-0.215435
0.0950423
0.00572151
-0.210195
0.100827
0.00612731
-0.197587
0.106417
0.00613345
-0.183353
0.112803
0.00766975
-0.161345
0.121614
0.00993113
-0.133558
0.131283
0.00979908
-0.111473
0.139648
0.00748956
-0.0973324
0.145075
0.00445535
-0.0907723
0.14741
0.00242194
-0.0859407
0.147242
0.00252691
-0.0793952
0.147488
0.00590115
-0.0773534
0.15223
0.0109507
-0.0618665
0.159425
0.0128856
-0.0269274
0.166836
0.0126749
-0.00381367
0.173345
0.0117562
-0.0262391
0.179244
0.00948316
-0.0918064
0.185924
0.00621444
-0.173514
0.189856
0.00333791
-0.261807
0.187885
0.00276655
-0.342417
0.182423
0.00800825
-0.449739
0.190458
0.0240249
-0.419331
0.0266455
-0.317057
0.00802109
0.000305495
0.00802725
-0.000562154
0.00802986
-0.000905332
0.00804258
-1.01018e-05
0.00811879
-0.00143283
0.00835873
-0.00278502
0.00882939
-0.00445373
0.00969791
-0.00980192
0.011003
-0.016281
0.012563
-0.0227664
0.0137543
-0.0266948
0.0147169
-0.0313792
0.0155697
-0.0355848
0.016341
-0.0372731
0.0169011
-0.0342745
0.0170456
-0.0286159
0.017214
-0.0177601
0.0173498
-0.0067007
0.0177564
0.00120872
0.0192964
0.00503215
0.0220447
0.00438979
0.0260257
-0.00178402
0.0304677
-0.00559517
0.0356265
-0.0144682
0.0414567
-0.0273853
0.0475591
-0.0403573
0.0533983
-0.0501727
0.0587745
-0.0514939
0.0640375
-0.052955
0.0689162
-0.0578451
0.0730355
-0.063496
0.0774725
-0.0716505
0.083442
-0.0821977
0.0897723
-0.0909955
0.0958436
-0.0975946
0.101504
-0.103085
0.10626
-0.105851
0.11111
-0.10971
0.117195
-0.115587
0.123625
-0.121634
0.130226
-0.129959
0.138168
-0.135899
0.148126
-0.139672
0.157943
-0.144073
0.165461
-0.149442
0.169712
-0.155589
0.171467
-0.160702
0.172717
-0.165384
0.176821
-0.177023
0.185784
-0.182008
0.197041
-0.167507
0.208776
-0.157738
0.220178
-0.17632
0.22953
-0.222403
0.235387
-0.284217
0.238023
-0.358503
0.239785
-0.434477
0.246367
-0.522588
0.267783
-0.517723
-0.579657
0.00797898
-1.01019e-06
0.0079529
5.34105e-05
0.0079219
6.90548e-05
0.00785036
0.000109809
0.00769394
0.000180946
0.00741359
0.000274767
0.00699684
0.000396017
0.00716848
-0.00018061
0.00826256
-0.000832774
0.0098508
-0.00127037
0.010764
0.000210059
0.011078
0.000608126
0.011252
0.000489426
0.0116297
-0.000242239
0.0116941
-0.000112252
0.0116883
-4.83972e-05
0.0122827
-0.00064525
0.0133389
-0.00107281
0.0144012
-0.00124001
0.0155737
-0.00136924
0.0172285
-0.00198936
0.0195522
-0.00264147
0.0223057
-0.00310238
0.0254473
-0.00341191
0.0289506
-0.00368636
0.0328424
-0.00409465
0.0366279
-0.0038308
0.038383
-0.00208596
0.0410969
-0.00354364
0.044269
-0.00350075
0.0517218
-0.00684973
0.0656305
-0.0137224
0.0752838
-0.0109266
0.0738913
-0.000514948
0.0733085
-0.00212168
0.0776922
-0.00784434
0.0868971
-0.0116638
0.0968996
-0.0124835
0.104107
-0.0111752
0.109754
-0.0111443
0.114414
-0.0111417
0.113376
-0.00444377
0.105233
0.00430741
0.0929442
0.01031
0.0808554
0.0118856
0.0760658
0.00815052
0.094881
-0.00332462
0.126691
-0.0155868
0.145791
-0.00850984
0.152472
0.000638198
0.17561
-0.0202781
0.184403
-0.00985033
0.177077
0.00933761
0.158463
0.0220084
0.137198
0.0219037
0.132916
0.0050634
0.167574
-0.0335048
0.20623
-0.0429284
0.195569
0.0137031
0.0427952
0.0079502
-7.84968e-05
0.00794142
-4.30648e-06
0.00792766
5.62233e-05
0.00789192
0.000142805
0.00777902
0.000263102
0.00754042
0.000458256
0.00709555
0.000827233
0.00721603
-4.58012e-06
0.00662138
0.00052283
0.00206981
0.00353945
-0.0026588
0.00457533
-0.00328145
0.000769767
-0.00237664
-0.00072623
-0.00091519
-0.00177546
0.00130019
-0.00200986
0.00360223
-0.00214384
0.00539797
-0.00217449
0.00672581
-0.00219509
0.00733596
-0.00198342
0.00740055
-0.00218116
0.00747714
-0.00267325
0.0077197
-0.00322201
0.00791772
-0.00377447
0.00868784
-0.00432362
0.0100463
-0.0048933
0.0120628
-0.00599651
0.0159442
-0.00815099
0.0173441
-0.0110204
0.0217451
-0.00594459
0.0243212
-0.000862925
0.0257831
0.00477396
0.0214658
-0.000702757
0.0211727
-0.01628
0.0211914
-0.0160364
0.0215356
-0.00198809
0.0187517
-3.83948e-05
0.0163407
-0.00630072
0.0164471
-0.0143319
0.0176906
-0.0165062
0.0167835
-0.012366
0.0139672
-0.00758657
0.0133891
-0.002073
0.0146743
0.00743219
0.0130576
0.0174919
0.00819429
0.0220522
0.00182168
0.0180141
4.11714e-05
0.00706257
0.00115897
-0.00989883
0.0086361
-0.022308
0.0125425
-0.000130141
0.0100321
0.0261264
-0.0250592
0.0243916
-0.0443531
0.0284061
-0.0536725
0.0341468
-0.0514592
0.0296676
-0.0318105
0.00994352
-0.0114269
-0.0455194
0.0358466
-0.104548
0.0795226
-0.0462889
0.0437285
0.00790532
-4.29113e-05
0.00790778
1.55913e-05
0.00791463
8.36127e-05
0.00790435
0.000176289
0.00781758
0.000321802
0.0075893
0.000652642
0.00717979
0.00129901
0.00671585
0.00171297
0.00547821
0.00263555
0.00256215
0.00622296
0.000396833
0.00523554
0.000742858
-0.00161736
0.000989182
-0.000855712
0.0010625
-0.000438849
0.000871187
-0.00184627
0.00108999
-0.00276845
0.00118417
-0.00276457
0.00221737
-0.00376894
0.00307425
-0.00204475
-0.000362989
0.000585961
-0.0065256
0.00324857
-0.0129045
0.00308532
-0.0183782
0.00162022
-0.0233735
0.000402735
-0.0289609
0.000274321
-0.0333985
-0.00195347
-0.0382756
-0.00377196
-0.0461085
-0.00395935
-0.0530703
0.000249924
-0.0599406
0.00495939
-0.0660697
0.0102551
-0.0726134
0.00355745
-0.0810149
-0.00993944
-0.0905829
-0.0092741
-0.0982307
0.00258419
-0.106381
0.00631381
-0.115009
0.000325808
-0.124239
-0.00776429
-0.133159
-0.0104692
-0.140986
-0.00746638
-0.147598
-0.00295574
-0.152336
0.0023544
-0.15532
0.011734
-0.158282
0.0234657
-0.162557
0.0306505
-0.167275
0.0274486
-0.170109
0.0131626
-0.172245
-0.0066803
-0.175302
-0.0172549
-0.17301
-0.00172104
-0.166888
0.022209
-0.16779
0.025056
-0.168798
0.0308063
-0.167511
0.0370758
-0.163629
0.0310292
-0.157973
0.00684953
-0.160271
-0.0428973
-0.174353
-0.0883661
-0.176997
-0.0400221
0.0431511
0.00794175
-5.77604e-05
0.00795637
-3.93626e-06
0.00796442
7.95862e-05
0.00795252
0.000190727
0.00789317
0.000350087
0.00777416
0.000735808
0.00752302
0.00157258
0.0071479
0.00309837
0.00638422
0.00430182
0.00503882
0.00697739
0.00334852
0.00537546
0.00219528
0.00425656
0.00117362
0.00135864
0.000309374
0.000444821
-0.00116067
-0.000764909
-0.00258737
-0.00196585
-0.00333559
-0.00267898
-0.00330972
-0.00447185
-0.00171752
-0.00454153
-0.000371986
4.95265e-05
-0.0024298
0.00506531
-0.00704364
0.00899459
-0.012591
0.00958375
-0.0199721
0.00945681
-0.0282973
0.0080286
-0.033963
0.00314909
-0.0398235
0.000904918
-0.0470779
0.00233867
-0.0538322
0.00633505
-0.061446
0.0116803
-0.069325
0.0169451
-0.0767073
0.00963984
-0.0847756
-0.00285001
-0.0944718
-0.000858128
-0.103244
0.01002
-0.111345
0.0129873
-0.119769
0.00732392
-0.128517
-0.000443387
-0.137284
-0.00314377
-0.146243
0.000147722
-0.155192
0.00482076
-0.16346
0.00972437
-0.170282
0.0179883
-0.175405
0.0283284
-0.179284
0.0342329
-0.182562
0.0298603
-0.185306
0.0141543
-0.188265
-0.00568873
-0.191283
-0.0146549
-0.19046
-0.00233781
-0.186331
0.0180311
-0.185351
0.0235204
-0.185746
0.0306895
-0.186175
0.0369899
-0.18571
0.031059
-0.186328
0.00871202
-0.193391
-0.029987
-0.210514
-0.0605858
-0.223765
-0.0117278
0.0678077
0.00794393
-5.51264e-05
0.00795501
-7.5142e-07
0.00796632
8.92555e-05
0.00797127
0.000208003
0.00796678
0.000373338
0.00795466
0.000738075
0.0079847
0.00155716
0.00824858
0.00333107
0.00831894
0.00493499
0.00817711
0.00685648
0.00739431
0.00513761
0.00641428
0.00447017
0.00576212
0.00421646
0.00345276
0.00342951
-0.000795193
0.00314341
-0.00401372
0.000851429
-0.00518163
-0.00144236
-0.0057589
-0.00375308
-0.00577788
-0.00497455
-0.00449787
-0.00211418
-0.00261761
0.00441717
-0.00173998
0.00974204
-0.00269283
0.0114774
-0.0048437
0.0120552
-0.00520327
0.0118871
-0.00515557
0.011885
-0.0125117
0.0117599
-0.0199122
0.0104566
-0.024155
0.0114558
-0.0294368
0.0150866
-0.0358578
0.020223
-0.0407919
0.013748
-0.0465544
0.00396647
-0.0556344
0.00878807
-0.0633254
0.0169188
-0.0687667
0.0172224
-0.0746175
0.0122815
-0.0813506
0.00599601
-0.0884148
0.00367944
-0.0959722
0.00715354
-0.103937
0.011847
-0.111791
0.0161245
-0.118745
0.0230034
-0.123794
0.0311822
-0.126578
0.03487
-0.128091
0.0298532
-0.129997
0.0166751
-0.132682
0.0006133
-0.134999
-0.0071278
-0.13547
0.00243004
-0.135321
0.0207137
-0.13784
0.0270635
-0.139913
0.0322636
-0.139292
0.0320985
-0.135875
0.0227837
-0.138784
0.0114085
-0.150167
-0.0120781
-0.167029
-0.0337252
-0.181417
0.00863928
0.0818485
0.00795111
-4.38423e-05
0.0079678
8.82713e-07
0.00798447
8.94585e-05
0.00799775
0.000208911
0.00803039
0.000370922
0.00810428
0.000713696
0.00831429
0.00143779
0.00889559
0.00300724
0.00970734
0.00462688
0.0105189
0.00602227
0.0105481
0.00463803
0.0104321
0.00413648
0.0103189
0.00381899
0.00996382
0.00368368
0.00935256
0.00308363
0.00870587
0.00113247
0.00745806
0.000445237
0.00464514
-0.000423571
0.00101948
-0.00108363
-0.000999385
-0.000462256
-0.000497751
0.00362623
0.00139902
0.00840527
0.00324216
0.0103416
0.00406987
0.011816
0.00401192
0.0128492
0.00413221
0.0128496
0.00444336
0.0118249
0.00386656
0.0108643
0.00337538
0.0122225
0.00761883
0.0124465
0.0102276
0.0115655
0.0111067
0.0131815
0.00652155
0.0218038
-0.00872875
0.0242993
-0.014711
0.0214111
-0.0157304
0.0163853
-0.0183843
0.0141105
-0.0223433
0.0113531
-0.0261987
0.00953844
-0.0308058
0.0127405
-0.0361078
0.0167718
-0.0414146
0.0202495
-0.045874
0.0255359
-0.0485193
0.0311051
-0.0490655
0.03223
-0.0488017
0.0267883
-0.0493856
0.0169268
-0.0507723
0.00672969
-0.0507399
0.00151309
-0.0486352
0.0109637
-0.0484608
0.0240915
-0.0533063
0.0273538
-0.0535211
0.0289717
-0.0471885
0.0286051
-0.0453928
0.0209731
-0.0498205
0.016497
-0.0581068
0.00792894
-0.0739144
-0.00557195
-0.0872067
0.0359494
0.0911218
0.0079616
-3.3953e-05
0.007992
-1.74303e-05
0.00801739
6.07825e-05
0.0080387
0.000168918
0.00809906
0.00031276
0.00824393
0.000599013
0.00855076
0.00120782
0.00937619
0.00237761
0.0105386
0.00374841
0.0118735
0.00472996
0.0125683
0.00367892
0.0128464
0.00333503
0.0131468
0.00318339
0.0135258
0.00300466
0.0139697
0.00229451
0.0140474
0.000616194
0.0141166
0.000558405
0.0136911
5.79024e-06
0.0128602
0.000359637
0.0116897
0.0025225
0.010387
0.00531051
0.0102065
0.00809057
0.0109453
0.00921799
0.0122618
0.0103052
0.0138788
0.0109796
0.0157332
0.011082
0.0175399
0.0104961
0.0192291
0.00987131
0.021184
0.0104055
0.0225849
0.0104718
0.0232104
0.00976275
0.023619
0.011958
0.0265164
0.0164337
0.0323953
0.0171205
0.0354859
0.015646
0.036801
0.0140186
0.0391433
0.0122926
0.0372535
0.0129719
0.0331776
0.015927
0.0283527
0.0184969
0.0255705
0.0199679
0.024568
0.0225328
0.0246248
0.026189
0.0261471
0.029499
0.0295488
0.0282404
0.0334822
0.0219447
0.0353108
0.0149452
0.0345378
0.00979496
0.0299155
0.0101688
0.0272723
0.0195275
0.0303086
0.0255205
0.0330288
0.0277409
0.0349856
0.0247019
0.0397884
0.01724
0.0412644
0.0160636
0.0391708
0.0133429
0.0345641
-0.000291157
0.0149877
-0.00345534
0.0173449
0.0573849
0.0782633
0.00793747
3.53733e-05
0.00796804
8.20531e-06
0.00800069
5.59897e-05
0.00803409
0.000123873
0.00813183
0.00022484
0.0083408
0.000435661
0.00875368
0.000859414
0.00958983
0.00163837
0.010903
0.00254811
0.0125506
0.00309682
0.0134854
0.00245648
0.0142402
0.00196558
0.014901
0.0017395
0.0156182
0.00170416
0.0162977
0.00130896
0.0164753
0.000602929
0.0166041
0.000513821
0.0163441
0.000291908
0.0161711
0.000759534
0.0166415
0.00277043
0.0175586
0.00507296
0.0187789
0.00683594
0.0201063
0.00733505
0.021765
0.00790355
0.0238658
0.00808862
0.0262558
0.00800349
0.0285808
0.00763424
0.030699
0.00723861
0.0331924
0.00729241
0.0358565
0.00699624
0.0382296
0.00651792
0.041153
0.00800168
0.0456829
0.011285
0.05077
0.0122589
0.0556344
0.0116132
0.0596909
0.0107285
0.0622898
0.00963159
0.0644514
0.0101302
0.0673507
0.0122384
0.0702486
0.0136111
0.0724649
0.0150623
0.0737244
0.0174573
0.0773903
0.0199959
0.0831501
0.0194933
0.0901061
0.016002
0.0961971
0.0108692
0.100262
0.00686751
0.101643
0.00583883
0.101177
0.0108901
0.102978
0.0204614
0.107277
0.0250511
0.113925
0.0251243
0.122499
0.0227083
0.124606
0.0175696
0.122514
0.0129667
0.122561
0.00785611
0.116161
0.00210889
0.0953386
0.00550792
0.100661
0.0420479
0.0514043
0.00798357
1.87339e-06
0.00801224
-4.28432e-05
0.00803475
-1.89762e-05
0.00806215
5.83903e-06
0.00817231
7.27238e-05
0.00841537
0.000203128
0.00886594
0.000434246
0.00972479
0.000825887
0.0110437
0.00126658
0.0126086
0.00154224
0.0137819
0.00123649
0.0146785
0.000996293
0.0154667
0.000891037
0.0162279
0.000870678
0.0168162
0.000705657
0.0170385
0.000343283
0.0171325
0.000331316
0.0171249
0.000218494
0.0173777
0.00037276
0.0186349
0.00145738
0.0209523
0.00270049
0.0238064
0.00385065
0.0267123
0.00412274
0.029825
0.0043141
0.0331759
0.00410125
0.0365676
0.00394654
0.0397468
0.00381006
0.0426434
0.00365825
0.045718
0.00358157
0.0490775
0.00308646
0.0526183
0.0025157
0.0571406
0.00295285
0.0632532
0.00458234
0.0696116
0.00540955
0.0751782
0.00570455
0.0798047
0.00567934
0.083581
0.00508755
0.0875352
0.00535945
0.0926355
0.00635774
0.0984234
0.00676649
0.104631
0.00753388
0.111807
0.00902227
0.120594
0.0101283
0.129509
0.00907786
0.136732
0.00643903
0.14098
0.00356583
0.142312
0.00201817
0.141663
0.00278293
0.142362
0.00687149
0.148036
0.0121151
0.156206
0.0140982
0.163428
0.0139873
0.169782
0.0128306
0.177432
0.00945427
0.185028
0.00504512
0.187444
0.00305821
0.184511
0.00377969