/*--------------------------------*- C++ -*----------------------------------*\
  =========                 |
  \\      /  F ield         | OpenFOAM: The Open Source CFD Toolbox
   \\    /   O peration     | Website:  https://openfoam.org
    \\  /    A nd           | Version:  8
     \\/     M anipulation  |
\*---------------------------------------------------------------------------*/
FoamFile
{
    version     2.0;
    format      ascii;
    class       volScalarField;
    location    "500";
    object      T;
}
// * * * * * * * * * * * * * * * * * * * * * * * * * * * * * * * * * * * * * //

dimensions      [0 0 0 1 0 0 0];

internalField   nonuniform List<scalar> 
1200
(
303.143
303.135
303.127
303.119
303.111
303.103
303.095
303.044
302.428
301.111
300.581
300.252
299.923
299.656
299.428
298.89
298.035
297.324
296.736
296.099
295.35
294.61
294.097
293.845
293.847
294.082
294.443
294.853
295.377
295.875
296.392
296.828
296.935
296.932
297.079
297.433
297.891
298.189
298.299
298.335
298.352
298.367
298.385
298.414
298.454
298.53
298.773
299.027
299.093
299.089
299.102
299.079
299.062
299.047
299.033
299.046
299.334
299.504
299.534
299.785
303.15
303.15
303.149
303.148
303.147
303.146
303.143
302.707
300.008
295.721
293.99
293.92
293.766
293.551
293.351
293.272
293.243
293.229
293.193
293.172
293.24
293.47
294.075
294.97
295.867
296.756
297.416
297.833
298.143
298.447
298.948
299.272
299.401
299.253
299.348
299.559
299.66
299.71
299.753
299.807
299.865
299.874
299.858
299.846
299.858
299.897
299.909
299.843
299.78
299.742
299.717
299.689
299.712
299.784
299.867
299.947
299.951
299.902
299.813
299.883
303.15
303.15
303.15
303.15
303.15
303.15
303.14
300.104
296.095
294.291
293.685
293.727
293.807
293.572
293.318
293.168
293.165
293.295
293.329
293.268
294.605
297.752
299.391
299.582
299.63
299.659
299.672
299.683
299.733
299.763
299.785
299.809
299.828
299.844
299.853
299.879
299.896
299.907
299.918
299.926
299.934
299.94
299.944
299.946
299.948
299.95
299.947
299.941
299.933
299.924
299.917
299.921
299.933
299.952
299.965
299.969
299.969
299.971
299.979
299.989
303.15
303.15
303.15
303.15
303.15
303.15
303.144
301.199
296.55
294.298
293.728
293.758
293.954
293.8
293.423
293.188
293.215
293.438
294.129
295.718
296.818
298.937
299.634
299.695
299.71
299.722
299.733
299.745
299.76
299.776
299.792
299.809
299.825
299.841
299.856
299.871
299.885
299.898
299.91
299.922
299.932
299.942
299.95
299.956
299.962
299.966
299.969
299.971
299.971
299.971
299.971
299.974
299.978
299.984
299.987
299.99
299.992
299.994
299.997
299.999
303.15
303.15
303.15
303.15
303.15
303.15
303.148
302.287
298.895
295.847
294.666
294.319
294.273
294.373
293.834
293.311
293.288
293.344
293.613
294.505
296.057
297.772
299.045
299.524
299.691
299.729
299.739
299.75
299.761
299.769
299.779
299.791
299.805
299.82
299.834
299.847
299.86
299.873
299.888
299.902
299.915
299.928
299.939
299.949
299.957
299.964
299.969
299.974
299.977
299.978
299.98
299.982
299.986
299.989
299.992
299.994
299.996
299.998
299.999
300
303.15
303.15
303.15
303.15
303.15
303.15
303.149
302.853
300.968
298.307
296.862
296.085
295.605
295.313
295.094
295.134
294.508
293.716
293.338
293.36
294.041
295.195
296.619
298.083
298.84
299.067
299.176
299.432
299.51
299.62
299.725
299.77
299.788
299.8
299.81
299.817
299.821
299.826
299.838
299.854
299.871
299.889
299.906
299.92
299.931
299.942
299.951
299.96
299.965
299.965
299.964
299.964
299.958
299.957
299.974
299.99
299.993
299.996
299.999
300
303.15
303.15
303.15
303.15
303.15
303.15
303.15
303.067
302.296
300.683
299.534
298.793
298.161
297.571
297.135
297.051
297.016
297.073
297.044
296.054
294.712
294.312
294.642
295.603
296.682
297.32
297.641
297.942
298.238
298.496
298.781
299.083
299.343
299.538
299.65
299.689
299.701
299.724
299.738
299.766
299.781
299.801
299.829
299.853
299.868
299.877
299.885
299.904
299.929
299.947
299.943
299.931
299.934
299.911
299.886
299.921
299.941
299.976
299.995
299.997
303.15
303.15
303.15
303.15
303.15
303.15
303.15
303.131
302.888
302.211
301.609
301.119
300.672
300.207
299.855
299.794
299.804
299.869
299.763
299.03
297.613
296.379
295.79
295.73
296.025
296.339
296.534
296.68
296.862
297.06
297.261
297.507
297.743
297.909
298.03
298.157
298.322
298.507
298.704
298.909
299.103
299.278
299.393
299.424
299.424
299.43
299.459
299.52
299.613
299.73
299.812
299.844
299.853
299.856
299.845
299.812
299.782
299.825
299.908
299.955
303.15
303.15
303.149
303.149
303.149
303.148
303.148
303.144
303.085
302.882
302.666
302.477
302.298
302.099
301.948
301.895
301.846
301.801
301.68
301.27
300.439
299.404
298.555
297.947
297.611
297.475
297.445
297.453
297.448
297.402
297.313
297.212
297.122
297.037
296.964
296.936
296.959
297.022
297.13
297.267
297.412
297.562
297.709
297.828
297.921
297.999
298.083
298.198
298.382
298.616
298.812
298.955
299.064
299.14
299.175
299.207
299.234
299.305
299.483
299.627
303.143
303.135
303.127
303.119
303.112
303.105
303.101
303.098
303.091
303.057
303.013
302.97
302.925
302.872
302.824
302.795
302.764
302.736
302.701
302.592
302.32
301.879
301.428
300.99
300.595
300.269
300.021
299.829
299.665
299.518
299.376
299.216
299.019
298.821
298.651
298.521
298.423
298.329
298.225
298.12
298.015
297.929
297.872
297.841
297.829
297.831
297.85
297.89
297.962
298.065
298.167
298.251
298.31
298.338
298.332
298.298
298.243
298.25
298.409
298.592
303.143
303.135
303.127
303.119
303.111
303.103
303.095
303.048
302.45
301.134
300.611
300.27
299.937
299.653
299.431
298.915
298.065
297.341
296.746
296.114
295.371
294.636
294.124
293.87
293.867
294.093
294.439
294.823
295.343
295.824
296.371
296.865
296.996
296.95
297.061
297.363
297.771
298.085
298.242
298.314
298.345
298.343
298.365
298.404
298.453
298.521
298.701
298.969
299.066
299.077
299.12
299.108
299.088
299.071
299.056
299.072
299.335
299.502
299.531
299.77
303.15
303.15
303.149
303.148
303.147
303.145
303.143
302.743
300.08
295.775
293.999
293.928
293.773
293.552
293.353
293.274
293.244
293.231
293.194
293.173
293.246
293.49
294.105
295.004
295.9
296.787
297.476
297.963
298.235
298.594
298.891
299.238
299.418
299.315
299.343
299.54
299.655
299.712
299.753
299.801
299.857
299.861
299.824
299.797
299.804
299.863
299.908
299.845
299.791
299.741
299.717
299.688
299.701
299.763
299.845
299.945
299.951
299.909
299.818
299.875
303.15
303.15
303.15
303.15
303.15
303.15
303.142
300.239
296.181
294.325
293.693
293.729
293.81
293.57
293.317
293.167
293.164
293.292
293.337
293.27
294.663
297.837
299.407
299.585
299.633
299.66
299.675
299.694
299.738
299.766
299.782
299.812
299.831
299.845
299.855
299.88
299.898
299.909
299.919
299.927
299.935
299.939
299.941
299.942
299.944
299.947
299.946
299.94
299.932
299.922
299.913
299.917
299.929
299.947
299.962
299.969
299.97
299.973
299.98
299.987
303.15
303.15
303.15
303.15
303.15
303.15
303.145
301.305
296.65
294.337
293.739
293.759
293.956
293.8
293.423
293.188
293.213
293.434
294.131
295.741
296.792
298.962
299.641
299.701
299.715
299.725
299.736
299.749
299.764
299.78
299.795
299.812
299.828
299.844
299.859
299.874
299.887
299.9
299.913
299.924
299.934
299.943
299.951
299.957
299.962
299.966
299.969
299.971
299.971
299.971
299.97
299.973
299.977
299.983
299.987
299.99
299.992
299.995
299.997
299.999
303.15
303.15
303.15
303.15
303.15
303.15
303.148
302.339
298.988
295.902
294.69
294.328
294.275
294.376
293.83
293.311
293.283
293.338
293.607
294.499
296.03
297.718
299.008
299.509
299.686
299.729
299.741
299.753
299.763
299.773
299.783
299.795
299.808
299.823
299.837
299.851
299.863
299.876
299.891
299.905
299.918
299.93
299.941
299.95
299.958
299.965
299.97
299.974
299.977
299.978
299.98
299.983
299.986
299.99
299.992
299.995
299.996
299.998
299.999
300
303.15
303.15
303.15
303.15
303.15
303.15
303.149
302.874
301.032
298.36
296.888
296.09
295.61
295.316
295.107
295.146
294.49
293.696
293.324
293.352
294.027
295.144
296.553
298.048
298.817
299.039
299.148
299.414
299.493
299.61
299.736
299.772
299.788
299.803
299.814
299.821
299.824
299.829
299.841
299.858
299.875
299.893
299.91
299.923
299.935
299.944
299.953
299.961
299.965
299.965
299.965
299.962
299.954
299.952
299.972
299.989
299.994
299.996
299.999
300
303.15
303.15
303.15
303.15
303.15
303.15
303.15
303.074
302.326
300.717
299.55
298.777
298.143
297.566
297.152
297.075
297.023
297.083
297.039
295.997
294.676
294.289
294.608
295.567
296.655
297.293
297.612
297.912
298.209
298.475
298.772
299.077
299.335
299.537
299.656
299.676
299.683
299.72
299.745
299.773
299.789
299.808
299.835
299.859
299.874
299.882
299.889
299.904
299.927
299.946
299.944
299.934
299.931
299.904
299.88
299.92
299.942
299.979
299.995
299.997
303.15
303.15
303.15
303.15
303.15
303.15
303.15
303.131
302.891
302.22
301.608
301.091
300.622
300.159
299.842
299.825
299.85
299.893
299.725
298.964
297.553
296.352
295.784
295.73
296.027
296.336
296.524
296.665
296.846
297.047
297.248
297.486
297.699
297.848
297.964
298.108
298.302
298.498
298.696
298.911
299.113
299.303
299.432
299.482
299.487
299.484
299.494
299.528
299.6
299.706
299.794
299.837
299.852
299.854
299.838
299.8
299.777
299.831
299.913
299.955
303.15
303.15
303.149
303.149
303.149
303.148
303.148
303.144
303.084
302.879
302.659
302.473
302.295
302.094
301.947
301.897
301.851
301.806
301.671
301.253
300.416
299.381
298.538
297.937
297.61
297.483
297.459
297.468
297.457
297.398
297.299
297.188
297.088
296.993
296.916
296.893
296.93
296.997
297.104
297.243
297.383
297.52
297.659
297.791
297.911
298.019
298.131
298.265
298.456
298.679
298.864
299.004
299.105
299.15
299.172
299.215
299.242
299.319
299.503
299.642
303.143
303.135
303.127
303.119
303.112
303.105
303.101
303.098
303.09
303.056
303.011
302.969
302.925
302.871
302.823
302.795
302.769
302.746
302.708
302.587
302.307
301.86
301.407
300.949
300.531
300.209
299.974
299.789
299.626
299.472
299.33
299.167
298.966
298.771
298.615
298.501
298.408
298.311
298.204
298.089
297.98
297.899
297.851
297.827
297.822
297.832
297.86
297.91
297.992
298.099
298.199
298.276
298.325
298.34
298.325
298.282
298.222
298.242
298.421
298.612
)
;

boundaryField
{
    wall
    {
        type            zeroGradient;
    }
    inlet
    {
        type            fixedValue;
        value           uniform 303.15;
    }
    outlet
    {
        type            inletOutlet;
        inletValue      uniform 300;
        value           nonuniform List<scalar> 
20
(
299.791
299.886
300
300
300
300
299.997
299.957
299.635
298.6
299.776
299.878
300
300
300
300
299.997
299.957
299.649
298.621
)
;
    }
    heatWall
    {
        type            fixedGradient;
        gradient        uniform -500;
    }
}


// ************************************************************************* //
