/*--------------------------------*- C++ -*----------------------------------*\
  =========                 |
  \\      /  F ield         | OpenFOAM: The Open Source CFD Toolbox
   \\    /   O peration     | Website:  https://openfoam.org
    \\  /    A nd           | Version:  8
     \\/     M anipulation  |
\*---------------------------------------------------------------------------*/
FoamFile
{
    version     2.0;
    format      ascii;
    class       volScalarField;
    location    "700";
    object      p_rgh;
}
// * * * * * * * * * * * * * * * * * * * * * * * * * * * * * * * * * * * * * //

dimensions      [1 -1 -2 0 0 0 0];

internalField   nonuniform List<scalar> 
8400
(
0.677788
19.6089
35.4877
50.8242
65.9158
80.9927
96.2022
111.661
127.474
143.743
160.576
178.087
196.404
215.671
236.051
257.731
280.923
305.874
332.868
362.237
394.365
429.689
468.718
512.077
560.521
614.83
675.692
744.036
821.12
908.344
1007.31
1119.87
1248.16
1394.63
1562.15
1754.03
1974.09
2226.83
2517.47
2852.16
3238.07
3683.72
4199.77
4800.15
5501.24
6317.2
7263.17
8399.92
9894.1
11840
-9.37255
4.43489
18.093
32.1965
46.3623
60.6011
74.9807
89.5839
104.497
119.812
135.624
152.039
169.175
187.165
206.16
226.333
247.883
271.037
296.058
323.255
352.991
385.677
421.762
461.779
506.339
556.152
612.13
675.259
746.596
827.417
919.211
1023.7
1142.87
1279.01
1434.76
1613.19
1817.79
2052.63
2322.38
2632.46
2989.02
3399.17
3871.43
4416.23
5044.84
5765.6
6585.72
7536.11
8700.06
10128.4
22.1996
40.3722
56.444
71.6828
86.8161
102.07
117.559
133.367
149.577
166.277
183.565
201.547
220.345
240.095
260.956
283.106
306.752
332.128
359.505
389.199
421.591
457.107
496.168
539.254
586.974
640.038
699.335
765.864
840.72
925.18
1020.72
1129.06
1252.17
1392.32
1552.14
1734.65
1943.33
2182.19
2455.83
2769.52
3129.24
3541.79
4015.04
4558
5179.84
5887.58
6687.04
7593.16
8636.51
9812.33
-14.829
-10.5781
-0.722395
11.238
23.9258
36.9485
50.2092
63.7113
77.4964
91.6247
106.168
121.211
136.849
153.192
170.367
188.522
207.826
228.471
250.675
274.691
300.82
329.441
361.029
396.065
435.05
478.609
527.472
582.477
644.59
714.933
794.808
885.719
989.403
1107.86
1243.41
1398.69
1576.76
1781.11
2015.74
2285.2
2594.61
2949.77
3357.21
3824.21
4358.03
4964.79
5649.96
6422.67
7297.66
8271.32
37.7053
59.2693
76.1802
91.2075
105.912
120.715
135.76
151.121
166.857
183.031
199.716
216.994
234.963
253.729
273.42
294.184
316.193
339.631
364.701
391.635
420.688
452.165
486.46
524.041
565.414
611.167
661.978
718.616
781.967
853.051
933.043
1023.29
1125.36
1241.02
1372.3
1521.54
1691.37
1884.79
2105.15
2356.2
2642.04
2967.15
3336.33
3754.49
4226.15
4754.51
5341.1
5987.92
6701.25
7479.7
-23.0767
-22.808
-14.8229
-3.99894
7.79234
20.0071
32.4892
45.2097
58.1853
71.4537
85.0659
99.0836
113.578
128.633
144.344
160.826
178.218
196.698
216.458
237.707
260.678
285.631
312.878
342.786
375.782
412.359
453.091
498.638
549.764
607.349
672.413
746.131
829.854
925.137
1033.76
1157.77
1299.47
1461.49
1646.76
1858.56
2100.45
2376.26
2690
3045.66
3446.81
3895.77
4392.71
4936.65
5529.66
6172.38
45.0229
68.8797
86.0564
100.541
114.413
128.245
142.221
156.412
170.859
185.601
200.683
216.155
232.078
248.519
265.549
283.253
301.724
321.086
341.489
363.108
386.136
410.794
437.337
466.062
497.309
531.47
569
610.418
656.325
707.415
764.483
828.447
900.363
981.437
1073.05
1176.78
1294.41
1427.95
1579.63
1751.95
1947.58
2169.37
2420.27
2703.15
3020.6
3374.19
3763.7
4187.74
4647.89
5146.6
-27.6019
-29.1861
-22.078
-11.8138
-0.514403
11.2117
23.1869
35.3681
47.7571
60.3728
73.2449
86.4141
99.9296
113.851
128.245
143.182
158.744
175.02
192.121
210.174
229.326
249.745
271.627
295.2
320.726
348.509
378.899
412.299
449.173
490.058
535.57
586.419
643.418
707.501
779.733
861.325
953.644
1058.23
1176.78
1311.19
1463.45
1635.68
1830.02
2048.55
2293.08
2564.67
2862.96
3186.76
3537.52
3918.49
47.27
71.5082
88.2
101.831
114.666
127.328
140.011
152.772
165.635
178.61
191.711
204.95
218.349
231.934
245.742
259.811
274.189
288.929
304.096
319.763
336.018
352.958
370.701
389.382
409.159
430.213
452.757
477.039
503.342
532
563.396
597.974
636.249
678.813
726.348
779.634
839.561
907.137
983.494
1069.89
1167.69
1278.38
1403.45
1544.45
1702.81
1879.52
2074.7
2288.06
2521.42
2778.67
-28.7322
-31.0407
-24.4765
-14.7121
-3.92993
7.23892
18.6021
30.1023
41.7242
53.4675
65.3376
77.3414
89.4894
101.795
114.276
126.952
139.845
152.983
166.395
180.117
194.19
208.658
223.576
239.003
255.006
271.665
289.069
307.321
326.536
346.851
368.421
391.424
416.068
442.593
471.276
502.441
536.461
573.77
614.869
660.339
710.84
767.124
830.037
900.528
979.628
1068.31
1167.26
1277.24
1400.74
1542.35
46.3329
69.8905
85.7891
98.5817
110.513
122.192
133.795
145.364
156.898
168.389
179.821
191.182
202.456
213.631
224.69
235.618
246.398
257.012
267.439
277.657
287.64
297.361
306.789
315.888
324.62
332.943
340.808
348.163
354.947
361.097
366.542
371.203
374.999
377.841
379.64
380.303
379.746
377.892
374.692
370.129
364.248
357.185
349.211
340.798
332.678
325.878
321.76
322.305
330.978
353.05
-27.557
-30.0074
-23.9574
-14.8742
-4.86545
5.44538
15.8538
26.2828
36.6941
47.0606
57.358
67.562
77.6468
87.5847
97.3448
106.892
116.187
125.183
133.829
142.062
149.811
156.995
163.518
169.268
174.117
177.916
180.491
181.643
181.138
178.71
174.053
166.812
156.586
142.917
125.288
103.12
75.7711
42.5435
2.69125
-44.5574
-99.9659
-164.229
-237.883
-321.181
-413.946
-515.377
-623.754
-736.127
-847.947
-951.972
42.9477
65.1421
80.1782
92.3345
103.678
114.754
125.704
136.545
147.256
157.805
168.153
178.258
188.073
197.546
206.619
215.225
223.288
230.72
237.422
243.279
248.156
251.903
254.341
255.266
254.445
251.606
246.435
238.574
227.608
213.06
194.385
170.957
142.063
106.891
64.5231
13.9293
-46.039
-116.645
-199.256
-295.316
-406.307
-533.661
-678.635
-842.117
-1024.41
-1224.94
-1441.66
-1670.44
-1904.74
-2135.37
-23.9798
-25.9635
-20.311
-11.9726
-2.85677
6.44607
15.7227
24.8764
33.845
42.5758
51.0163
59.1103
66.7961
74.0044
80.6567
86.6638
91.9232
96.3175
99.7115
101.949
102.852
102.212
99.7902
95.3111
88.4561
78.8575
66.0911
49.6672
29.0214
3.50288
-27.6375
-65.2615
-110.358
-164.06
-227.662
-302.635
-390.644
-493.557
-613.448
-752.587
-913.411
-1098.46
-1310.22
-1550.9
-1822.15
-2124.71
-2457.64
-2817.13
-3195.27
-3577.92
36.213
56.1682
70.1315
81.7424
92.6874
103.385
113.926
124.298
134.463
144.371
153.963
163.176
171.938
180.168
187.77
194.637
200.645
205.649
209.484
211.956
212.843
211.884
208.781
203.186
194.695
182.841
167.082
146.791
121.24
89.5884
50.8616
3.93405
-52.4937
-119.919
-200.065
-294.904
-406.688
-537.973
-691.629
-870.842
-1079.1
-1320.13
-1597.75
-1915.47
-2276.14
-2681.56
-3131.86
-3623.27
-4144.6
-4675.43
-17.1924
-17.4711
-11.5439
-3.51424
5.06111
13.6734
22.1221
30.3031
38.1398
45.561
52.4919
58.85
64.5426
69.4643
73.4947
76.4959
78.3092
78.7523
77.6154
74.6563
69.5961
62.1129
51.8353
38.3342
21.1145
-0.395692
-26.857
-59.0325
-97.8034
-144.187
-199.36
-264.677
-341.703
-432.24
-538.363
-662.455
-807.246
-975.853
-1171.82
-1399.12
-1662.2
-1966
-2315.81
-2716.99
-3174.36
-3692.31
-4275.25
-4925.34
-5633.69
-6369.31
23.6821
40.8238
53.5163
64.6041
75.1642
85.4552
95.518
105.327
114.835
123.983
132.703
140.915
148.529
155.441
161.53
166.657
170.659
173.35
174.514
173.899
171.214
166.122
158.231
147.089
132.17
112.862
88.4593
58.1402
20.9523
-24.2096
-78.6286
-143.794
-221.436
-313.562
-422.506
-550.979
-702.129
-879.616
-1087.68
-1331.23
-1615.91
-1948.28
-2335.88
-2786.97
-3309.78
-3912.74
-4606.75
-5403.52
-6296.51
-7235.12
-9.00324
-4.67886
3.08167
11.8491
20.6964
29.345
37.6801
45.6287
53.1233
60.0904
66.4462
72.0943
76.9234
80.8056
83.5931
85.1154
85.176
83.5481
79.9695
74.1379
65.7033
54.2614
39.3444
20.4111
-3.16509
-32.11
-67.2646
-109.604
-160.258
-220.541
-291.975
-376.334
-475.677
-592.406
-729.317
-889.676
-1077.3
-1296.65
-1552.96
-1852.34
-2201.93
-2610.14
-3086.97
-3643.91
-4292.76
-5044.9
-5915.76
-6930.6
-8102.46
-9367.32
1.80656
20.5753
32.6856
43.4537
53.5852
63.3244
72.7158
81.7416
90.357
98.5006
106.097
113.057
119.275
124.629
128.979
132.158
133.978
134.219
132.625
128.901
122.706
113.645
101.259
85.0186
64.308
38.4151
6.51401
-32.3529
-79.2967
-135.607
-202.78
-282.557
-376.961
-488.349
-619.469
-773.528
-954.28
-1166.13
-1414.27
-1704.8
-2044.89
-2443.14
-2910.19
-3459.1
-4103.92
-4857.41
-5738.96
-6802.46
-8133.88
-9707.92
-0.96349
8.77083
18.5907
28.3771
37.8814
47.0488
55.8432
64.2235
72.1358
79.5128
86.273
92.3198
97.54
101.802
104.953
106.817
107.189
105.832
102.472
96.7936
88.4293
76.9549
61.879
42.6322
18.5544
-11.1196
-47.2775
-90.95
-143.334
-205.823
-280.035
-367.86
-471.501
-593.537
-736.99
-905.414
-1103.01
-1334.76
-1606.62
-1925.76
-2300.83
-2742.52
-3264.71
-3885.74
-4627.52
-5512.75
-6577.01
-7924.41
-9764.35
-12141.4
29232.6
21070.7
17037.8
15519.5
14685.1
14076.2
13652.5
13368.2
13168.1
13017
12897.3
12799.1
12715.9
12643.2
12577.9
12517.9
12461.6
12408
12355.9
12304.8
12253.7
12202.2
12149.6
12095.3
12038.6
11978.8
11915.1
11846.7
11772.5
11691.3
11601.9
11502.8
11392.1
11268
11127.8
10968.7
10787.3
10579.4
10340.4
10064.2
9743.8
9370.46
8933.56
8419.58
7811.05
7084.51
6207
5129.26
3770.88
1995.19
3697.85
8287.11
9788.9
10355.2
10789.5
11115.1
11339.5
11499.6
11618.5
11707.3
11773.4
11822.1
11857.5
11882.1
11898
11906.5
11908.8
11905.6
11897.4
11884.7
11867.7
11846.4
11820.8
11790.8
11756.1
11716.3
11671
11619.6
11561.1
11494.7
11419
11332.6
11233.9
11120.9
10991.2
10842.3
10670.7
10472.7
10243.6
9978
9669.21
9309.07
8887.59
8392.45
7808.19
7115.26
6288.7
5297.01
4102.64
2671.74
11027.4
13197.4
14380.6
14483.3
14326.7
14155.1
13968.8
13777.6
13599.2
13440.1
13299.3
13174.4
13062.9
12962.7
12871.7
12788.2
12710.7
12637.9
12568.7
12502.2
12437.6
12374.1
12310.8
12247.2
12182.3
12115.6
12046.1
11973
11895.4
11812.1
11722
11623.5
11515
11394.2
11258.9
11106.5
10933.9
10737.4
10512.5
10254.2
9956.37
9611.73
9211.64
8745.71
8201.55
7564.45
6817.41
5941.88
4920.63
3745.39
11376.1
11785.1
11976.6
11905
11802.8
11759.4
11747.8
11745.6
11749.9
11759.7
11772.4
11785.2
11796.6
11805.7
11812.2
11815.5
11815.7
11812.6
11806.2
11796.3
11783
11766.2
11745.7
11721.3
11692.6
11659.3
11620.9
11576.8
11526.2
11468.5
11402.7
11327.5
11241.6
11143.4
11030.7
10901.3
10752.5
10580.8
10382.5
10153.3
9887.7
9579.8
9222.45
8807.48
8325.68
7767.01
7121.31
6379.87
5538.83
4604.99
11915.1
12164.2
12480.8
12712.5
12852.4
12941.7
12994
13013
13006.6
12983.7
12950
12909
12863.4
12814.9
12764.6
12713.4
12661.6
12609.5
12557.1
12504.5
12451.5
12397.9
12343.4
12287.8
12230.6
12171.4
12109.6
12044.6
11975.5
11901.4
11821.4
11734.4
11638.9
11533.5
11416.4
11285.5
11138.2
10971.9
10783.1
10568.1
10322.5
10041.5
9719.32
9349.93
8926.78
8443.4
7894.16
7275.72
6589.43
5844.09
12118.8
12204.5
12312.6
12374.6
12377.3
12349.2
12310.8
12268.5
12225.4
12184.2
12146.2
12111.8
12080.6
12051.9
12025.3
12000.2
11976.1
11952.4
11928.7
11904.6
11879.8
11853.8
11826.4
11797
11765.4
11731.2
11693.8
11652.8
11607.6
11557.4
11501.4
11438.7
11368.3
11288.7
11198.5
11096.1
10979.3
10846
10693.3
10518.5
10317.9
10088
9824.47
9523.19
9179.88
8790.82
8353.57
7868.06
7338.31
6773.86
12232
12276.4
12348.1
12420.3
12475.7
12516.6
12548.2
12571.2
12585.3
12591.1
12589.9
12582.7
12570.2
12553.3
12532.5
12508.5
12481.6
12452.3
12420.8
12387.4
12352.1
12315.1
12276.3
12235.7
12193
12148.2
12100.8
12050.7
11997.3
11940.2
11878.8
11812.3
11740
11660.7
11573.3
11476.6
11369
11248.6
11113.5
10961.4
10789.8
10596
10377.1
10130.4
9853.14
9543.52
9200.76
8826.08
8423.64
8000.76
12290.5
12312.7
12350.5
12390.5
12418.7
12431.6
12431.7
12421.8
12403.7
12379.7
12351.5
12320.9
12288.9
12256.3
12223.7
12191.3
12159.2
12127.6
12096.4
12065.4
12034.6
12003.8
11972.7
11941.1
11908.8
11875.5
11840.8
11804.4
11766
11725
11680.9
11633.3
11581.4
11524.4
11461.6
11392
11314.4
11227.6
11130.2
11020.7
10897.4
10758.6
10602.6
10427.6
10232.5
10016.5
9780.01
9524.75
9254.72
8976.07
12321.9
12335.5
12360.6
12391.2
12418.7
12439
12452.2
12459.4
12461.3
12458.4
12451.6
12441.4
12428.3
12412.6
12394.9
12375.1
12353.7
12330.8
12306.5
12281
12254.3
12226.4
12197.5
12167.5
12136.4
12104.1
12070.5
12035.6
11999.2
11961
11920.9
11878.5
11833.5
11785.5
11734
11678.5
11618.4
11553
11481.5
11403.1
11316.9
11222.1
11117.8
11003.4
10878.5
10743.1
10598
10445
10286.8
10127.3
12336.1
12346.2
12365.3
12389.9
12412.8
12429.5
12438.8
12441
12436.9
12427.2
12412.9
12394.9
12374.2
12351.5
12327.3
12302.1
12276.1
12249.7
12223.1
12196.2
12169.3
12142.4
12115.4
12088.4
12061.3
12034.2
12006.8
11979.3
11951.5
11923.3
11894.6
11865.4
11835.5
11804.8
11773.2
11740.4
11706.4
11670.9
11633.9
11595
11554.3
11511.5
11466.7
11420.1
11371.9
11322.8
11273.6
11225.8
11181.5
11143.1
12337.2
12347.4
12366.6
12391.2
12414.3
12431.1
12440.6
12443
12439.2
12429.8
12415.9
12398.5
12378.4
12356.4
12333
12308.7
12283.9
12258.9
12233.8
12208.8
12184
12159.5
12135.5
12111.8
12088.6
12066
12044
12022.6
12001.9
11982
11963
11945.1
11928.3
11912.8
11898.9
11886.7
11876.6
11869
11864.1
11862.5
11864.8
11871.5
11883.5
11901.5
11926.5
11959.5
12001.4
12053.1
12115.7
12189.8
12325.5
12339.1
12364.3
12395.2
12423
12443.8
12457.5
12465.4
12468.1
12466.2
12460.5
12451.7
12440.2
12426.5
12410.9
12393.8
12375.5
12356.1
12336
12315.4
12294.4
12273.3
12252.3
12231.6
12211.3
12191.7
12173
12155.4
12139.3
12124.9
12112.6
12102.6
12095.6
12091.9
12092.1
12096.8
12106.9
12123.2
12146.6
12178.3
12219.5
12271.6
12336.1
12414.4
12508.1
12618.5
12746.7
12893.3
13058
13240.2
12296.3
12318.6
12356.6
12397
12425.7
12439.3
12440.4
12431.6
12414.9
12392.5
12366.4
12338.1
12308.9
12279.5
12250.7
12222.8
12196
12170.6
12146.6
12124.2
12103.2
12083.9
12066.3
12050.4
12036.4
12024.5
12014.7
12007.5
12002.9
12001.5
12003.7
12009.9
12020.8
12037.1
12059.7
12089.6
12127.9
12175.9
12235.1
12307.3
12394.4
12498.4
12621.5
12766.1
12934.3
13128
13348.6
13596.4
13870.4
14168.7
12239.9
12284.4
12356.4
12429.2
12485.3
12527.2
12560
12584.6
12600.4
12608.5
12609.9
12605.8
12597
12584.3
12568.6
12550.5
12530.6
12509.5
12487.6
12465.3
12443.1
12421.3
12400.4
12380.6
12362.4
12346.2
12332.3
12321.4
12313.8
12310.3
12311.5
12318.1
12331.2
12351.6
12380.6
12419.6
12470.2
12534.1
12613.5
12710.6
12828
12968.6
13135.4
13331.5
13559.9
13823.4
14123.6
14461
14833.9
15238.1
12128.6
12214.4
12323
12385.7
12389.2
12362.4
12325.5
12285.2
12244.4
12206
12171.4
12141
12114.4
12091.2
12071.1
12053.5
12038.2
12024.8
12013.2
12003.3
11995.1
11988.5
11983.7
11980.9
11980.3
11982.2
11987.1
11995.4
12007.6
12024.5
12046.9
12075.5
12111.7
12156.5
12211.5
12278.4
12359.1
12455.8
12571.2
12708.1
12869.9
13060.2
13282.9
13542.2
13842.3
14187.1
14579.7
15021.2
15510.3
16042.8
11926.6
12175.9
12493
12725.4
12866.4
12957.2
13011.3
13032.4
13028.7
13008.9
12979
12942.7
12902.4
12860.2
12817.4
12774.9
12733.4
12693.3
12655
12618.9
12585.2
12554.1
12525.9
12501
12479.6
12462.2
12449.2
12441.2
12438.8
12442.8
12454.2
12473.8
12503
12543.2
12596.2
12663.8
12748.3
12852.4
12979.1
13131.8
13314.6
13531.8
13788.4
14089.8
14441.5
14849.1
15317.2
15848.9
16443.3
17095
11388.9
11798.2
11990.2
11919.4
11818.4
11776.7
11767.1
11767.4
11774.7
11788.2
11805.2
11823.1
11840.5
11856.8
11871.6
11884.8
11896.5
11906.8
11916.1
11924.7
11932.9
11941.3
11950.2
11960.2
11971.7
11985.6
12002.3
12022.7
12047.6
12078.1
12115.2
12160.2
12214.7
12280.2
12358.8
12452.7
12564.6
12697.5
12854.9
13040.8
13259.9
13517.5
13819.5
14172.8
14584.8
15063.3
15616.3
16250.4
16968.8
17769.9
11041.3
13211.6
14395.3
14498.9
14343.6
14173.7
13989.5
13801.1
13626.1
13471
13334.9
13215.6
13110.7
13018.3
12936.4
12863.6
12798.7
12740.6
12688.6
12642.3
12601.2
12565.2
12534.1
12508.1
12487.2
12471.8
12462.3
12459.1
12463.1
12475.1
12496
12527.2
12570
12626.3
12698
12787.5
12897.7
13031.7
13193.5
13387.3
13618.5
13893
14217.9
14601.3
15052.6
15582.7
16203.3
16926.8
17763.3
18718.1
3712.44
8301.97
9804.34
10371.6
10807.3
11134.6
11361.3
11524.2
11646.5
11739.4
11810.4
11864.9
11907.1
11939.7
11965.1
11984.7
12000.1
12012.1
12021.8
12030
12037.4
12044.7
12052.5
12061.6
12072.6
12086.3
12103.4
12125
12151.8
12185.2
12226.3
12276.6
12337.8
12411.8
12500.9
12607.6
12735.1
12886.7
13066.7
13279.8
13531.7
13828.9
14179.4
14592.6
15079.6
15654.5
16333.9
17138.4
18091.8
19220
29247.5
21085.8
17053.6
15536.2
14703.2
14096.3
13675.1
13393.7
13197.1
13050.3
12935.7
12843.5
12767.4
12703
12647.6
12599.1
12556.3
12518.5
12484.9
12455.4
12429.6
12407.7
12389.7
12375.8
12366.3
12361.7
12362.6
12369.5
12383.4
12405.2
12436.1
12477.4
12530.9
12598.4
12682.1
12784.7
12909.3
13059.3
13239
13453.5
13708.4
14010.9
14369.1
14793.5
15296.5
15894.4
16609
17471
18527.3
19860.1
-20154.6
-15538.6
-13967.9
-10009.4
-8042.58
-4624.4
-2522.63
533.138
2638.41
5447.74
7478.95
10123.1
12022.1
14570.3
16278.2
18802
20234.3
22818.8
23819.7
26454.2
-20084.5
-15480.5
-13918.8
-9961.51
-8000.64
-4580.06
-2483.08
575.804
2677.62
5490.04
7518.71
10166.4
12063.7
14616.7
16324.3
18856.1
20292.2
22892.5
23908.2
26582.3
-20022.7
-15420.5
-13867.5
-9910.38
-7955.36
-4532.87
-2440.16
621.424
2720.12
5535.65
7562.14
10213.5
12109.8
14667.6
16376.1
18915
20355.7
22967.6
23994
26686.5
-19965.3
-15361.2
-13815.1
-9857.26
-7907.69
-4483.25
-2394.62
669.628
2765.32
5584.01
7608.47
10263.6
12159
14721.6
16431
18976
20420.6
23040.6
24073
26774.1
-19910.1
-15302.5
-13762
-9802.84
-7858.28
-4431.67
-2346.97
719.996
2812.76
5634.63
7657.11
10316
12210.5
14777.5
16487.5
19037.7
20484.8
23110.4
24145.7
26852.2
-19855.9
-15244.2
-13708.6
-9747.47
-7807.54
-4378.56
-2297.64
772.119
2862
5687.03
7707.52
10369.9
12263.5
14834.4
16544.6
19099.2
20547.5
23177.3
24213.5
26924
-19802.2
-15186.1
-13654.7
-9691.38
-7755.78
-4324.23
-2246.97
825.629
2912.65
5740.78
7759.21
10425
12317.3
14891.8
16601.8
19159.9
20608.5
23241.5
24277.6
26991.5
-19748.6
-15128
-13600.6
-9634.69
-7703.21
-4268.95
-2195.27
880.211
2964.37
5795.53
7811.81
10480.8
12371.7
14949.4
16658.7
19219.7
20668
23303.6
24339
27055.8
-19695.1
-15069.8
-13546.1
-9577.51
-7650.01
-4212.94
-2142.76
935.601
3016.88
5850.98
7865.02
10537
12426.2
15006.8
16715.1
19278.7
20726
23364
24398.1
27117.8
-19641.3
-15011.3
-13491.3
-9519.92
-7596.31
-4156.35
-2089.65
991.587
3069.97
5906.91
7918.61
10593.4
12480.8
15064
16770.9
19336.9
20782.8
23422.8
24455.6
27178
-19587.5
-14952.6
-13436.3
-9462
-7542.22
-4099.33
-2036.09
1048
3123.44
5963.12
7972.41
10649.8
12535.2
15120.9
16826.1
19394.2
20838.6
23480.4
24511.6
27236.7
-19533.4
-14893.8
-13381
-9403.8
-7487.83
-4042
-1982.21
1104.69
3177.17
6019.5
8026.29
10706.1
12589.5
15177.3
16880.8
19450.9
20893.4
23536.9
24566.5
27294.3
-19479.2
-14834.7
-13325.6
-9345.38
-7433.22
-3984.44
-1928.11
1161.55
3231.03
6075.93
8080.16
10762.3
12643.5
15233.4
16934.9
19506.9
20947.5
23592.6
24620.4
27350.8
-19424.9
-14775.5
-13270
-9286.81
-7378.46
-3926.73
-1873.89
1218.51
3284.96
6132.33
8133.94
10818.4
12697.3
15289.1
16988.6
19562.2
21000.8
23647.5
24673.5
27406.6
-19370.5
-14716.2
-13214.3
-9228.13
-7323.6
-3868.95
-1819.59
1275.48
3338.88
6188.64
8187.61
10874.1
12750.8
15344.4
17041.7
19617.1
21053.6
23701.7
24725.9
27461.6
-19316
-14656.8
-13158.6
-9169.38
-7268.7
-3811.14
-1765.29
1332.41
3392.74
6244.82
8241.11
10929.7
12803.9
15399.4
17094.5
19671.4
21105.8
23755.3
24777.7
27516
-19261.5
-14597.4
-13102.9
-9110.62
-7213.8
-3753.35
-1711.02
1389.27
3446.51
6300.84
8294.42
10984.9
12856.8
15454
17146.8
19725.3
21157.5
23808.4
24828.9
27569.9
-19207
-14537.9
-13047.2
-9051.88
-7158.93
-3695.61
-1656.82
1446
3500.15
6356.67
8347.54
11039.9
12909.4
15508.2
17198.8
19778.7
21208.8
23861.1
24879.6
27623.3
-19152.5
-14478.5
-12991.5
-8993.18
-7104.14
-3637.97
-1602.72
1502.6
3553.64
6412.29
8400.44
11094.7
12961.7
15562
17250.4
19831.8
21259.6
23913.3
24929.9
27676.2
-19098.1
-14419.2
-12935.9
-8934.56
-7049.44
-3580.44
-1548.74
1559.02
3606.97
6467.68
8453.12
11149.1
13013.7
15615.6
17301.6
19884.4
21310
23965.1
24979.7
27728.8
-19043.8
-14359.9
-12880.4
-8876.05
-6994.87
-3523.06
-1494.91
1615.26
3660.12
6522.84
8505.57
11203.2
13065.4
15668.8
17352.6
19936.7
21360.1
24016.5
25029.2
27780.9
-18989.6
-14300.7
-12825.1
-8817.66
-6940.43
-3465.83
-1441.24
1671.3
3713.07
6577.76
8557.8
11257.1
13116.8
15721.7
17403.2
19988.7
21409.9
24067.6
25078.3
27832.7
-18935.5
-14241.6
-12769.9
-8759.43
-6886.15
-3408.79
-1387.75
1727.13
3765.83
6632.42
8609.79
11310.7
13168
15774.3
17453.5
20040.4
21459.3
24118.3
25127.1
27884.2
-18881.6
-14182.7
-12714.9
-8701.35
-6832.05
-3351.93
-1334.44
1782.73
3818.37
6686.83
8661.55
11364
13219
15826.5
17503.5
20091.7
21508.4
24168.7
25175.5
27935.4
-18827.9
-14123.9
-12660
-8643.45
-6778.13
-3295.28
-1281.33
1838.1
3870.71
6740.98
8713.07
11417
13269.6
15878.5
17553.3
20142.7
21557.2
24218.8
25223.7
27986.3
-18774.4
-14065.3
-12605.4
-8585.75
-6724.4
-3238.85
-1228.42
1893.22
3922.82
6794.86
8764.36
11469.7
13320
15930.2
17602.7
20193.4
21605.7
24268.6
25271.5
28036.8
-18721.1
-14006.9
-12550.9
-8528.25
-6670.89
-3182.64
-1175.73
1948.1
3974.72
6848.48
8815.41
11522.2
13370.2
15981.6
17651.9
20243.8
21653.9
24318.2
25319
28087.1
-18667.9
-13948.6
-12496.7
-8470.96
-6617.59
-3126.67
-1123.25
2002.73
4026.39
6901.82
8866.22
11574.4
13420.1
16032.7
17700.9
20294
21701.8
24367.4
25366.2
28137.1
-18615.1
-13890.6
-12442.7
-8413.9
-6564.51
-3070.94
-1071
2057.09
4077.83
6954.89
8916.8
11626.2
13469.8
16083.5
17749.5
20343.8
21749.5
24416.4
25413.2
28186.9
-18562.4
-13832.8
-12389
-8357.06
-6511.67
-3015.46
-1018.97
2111.19
4129.04
7007.69
8967.14
11677.8
13519.2
16134
17798
20393.4
21796.9
24465
25459.9
28236.4
-18510
-13775.2
-12335.4
-8300.47
-6459.05
-2960.23
-967.177
2165.02
4180.01
7060.2
9017.24
11729.2
13568.3
16184.3
17846.1
20442.7
21844
24513.4
25506.3
28285.6
-18457.8
-13717.9
-12282.2
-8244.12
-6406.68
-2905.26
-915.616
2218.58
4230.76
7112.43
9067.11
11780.2
13617.2
16234.2
17894
20491.7
21890.9
24561.6
25552.4
28334.6
-18405.9
-13660.8
-12229.1
-8188.01
-6354.55
-2850.55
-864.293
2271.87
4281.27
7164.38
9116.74
11830.9
13665.9
16283.9
17941.7
20540.4
21937.5
24609.5
25598.3
28383.3
-18354.3
-13603.9
-12176.4
-8132.17
-6302.66
-2796.11
-813.21
2324.87
4331.54
7216.05
9166.13
11881.4
13714.4
16333.3
17989.1
20588.9
21983.9
24657.1
25643.9
28431.7
-18302.9
-13547.3
-12123.9
-8076.58
-6251.03
-2741.94
-762.369
2377.6
4381.57
7267.42
9215.28
11931.5
13762.5
16382.4
18036.2
20637
22030
24704.4
25689.2
28479.9
-18251.8
-13490.9
-12071.6
-8021.25
-6199.65
-2688.05
-711.772
2430.03
4431.36
7318.5
9264.19
11981.4
13810.5
16431.2
18083.1
20684.9
22075.8
24751.5
25734.3
28527.9
-18201
-13434.8
-12019.7
-7966.19
-6148.53
-2634.44
-661.42
2482.18
4480.92
7369.29
9312.86
12031
13858.2
16479.8
18129.8
20732.6
22121.4
24798.3
25779.1
28575.6
-18150.4
-13378.9
-11968
-7911.41
-6097.66
-2581.1
-611.315
2534.04
4530.23
7419.79
9361.29
12080.3
13905.7
16528
18176.2
20779.9
22166.7
24844.9
25823.6
28623
-18100.1
-13323.3
-11916.5
-7856.89
-6047.05
-2528.06
-561.459
2585.61
4579.3
7469.99
9409.49
12129.3
13952.9
16576
18222.3
20827
22211.8
24891.2
25867.9
28670.2
-18050.1
-13268
-11865.4
-7802.65
-5996.7
-2475.3
-511.853
2636.88
4628.13
7519.89
9457.44
12178
13999.9
16623.7
18268.2
20873.8
22256.6
24937.2
25911.9
28717.2
-18000.4
-13212.9
-11814.5
-7748.7
-5946.62
-2422.83
-462.497
2687.85
4676.72
7569.49
9505.16
12226.4
14046.6
16671.1
18313.9
20920.3
22301.2
24983
25955.6
28763.8
-17951
-13158.1
-11763.9
-7695.02
-5896.8
-2370.66
-413.392
2738.52
4725.06
7618.79
9552.63
12274.5
14093.1
16718.1
18359.3
20966.6
22345.5
25028.5
25999.1
28810.3
-17901.8
-13103.6
-11713.6
-7641.63
-5847.24
-2318.78
-364.54
2788.89
4773.16
7667.78
9599.86
12322.3
14139.4
16765
18404.5
21012.5
22389.6
25073.8
26042.3
28856.5
-17853
-13049.3
-11663.6
-7588.52
-5797.96
-2267.19
-315.94
2838.95
4821.02
7716.47
9646.86
12369.8
14185.4
16811.5
18449.4
21058.2
22433.4
25118.7
26085.3
28902.4
-17804.4
-12995.3
-11613.9
-7535.7
-5748.94
-2215.91
-267.594
2888.71
4868.63
7764.85
9693.61
12417
14231.1
16857.7
18494.1
21103.6
22476.9
25163.5
26127.9
28948.1
-17756.1
-12941.6
-11564.4
-7483.18
-5700.18
-2164.93
-219.502
2938.15
4915.99
7812.92
9740.12
12463.9
14276.7
16903.6
18538.5
21148.8
22520.2
25207.9
26170.4
28993.6
-17708.1
-12888.2
-11515.2
-7430.95
-5651.7
-2114.26
-171.665
2987.29
4963.11
7860.67
9786.38
12510.4
14321.9
16949.2
18582.7
21193.6
22563.2
25252.1
26212.5
29038.7
-17660.5
-12835.1
-11466.4
-7379.01
-5603.49
-2063.89
-124.083
3036.11
5009.99
7908.11
9832.41
12556.7
14367
16994.6
18626.6
21238.2
22606
25296
26254.4
29083.7
-17613.1
-12782.2
-11417.8
-7327.37
-5555.54
-2013.83
-76.7552
3084.62
5056.62
7955.23
9878.2
12602.7
14411.8
17039.6
18670.3
21282.5
22648.5
25339.7
26296
29128.3
-17566
-12729.6
-11369.5
-7276.02
-5507.87
-1964.08
-29.6832
3132.8
5103
8002.04
9923.74
12648.3
14456.3
17084.3
18713.7
21326.5
22690.8
25383.1
26337.4
29172.8
-17519.2
-12677.3
-11321.5
-7224.98
-5460.47
-1914.65
17.1332
3180.67
5149.14
8048.52
9969.04
12693.6
14500.6
17128.7
18756.9
21370.2
22732.8
25426.2
26378.4
29216.9
-17472.7
-12625.3
-11273.7
-7174.24
-5413.34
-1865.53
63.6938
3228.22
5195.03
8094.69
10014.1
12738.7
14544.7
17172.9
18799.8
21413.6
22774.5
25469
26419.2
29260.8
-17426.5
-12573.6
-11226.3
-7123.81
-5366.48
-1816.73
109.999
3275.44
5240.68
8140.52
10058.9
12783.4
14588.5
17216.7
18842.5
21456.7
22816
25511.6
26459.8
29304.5
-17380.6
-12522.2
-11179.2
-7073.68
-5319.9
-1768.24
156.048
3322.33
5286.08
8186.04
10103.5
12827.7
14632.1
17260.2
18884.9
21499.5
22857.2
25553.9
26500.1
29347.9
-17335
-12471
-11132.3
-7023.86
-5273.58
-1720.08
201.841
3368.9
5331.24
8231.22
10147.8
12871.8
14675.4
17303.4
18927.1
21542.1
22898.2
25595.9
26540
29391
-17289.8
-12420.2
-11085.8
-6974.35
-5227.54
-1672.24
247.379
3415.14
5376.15
8276.07
10191.9
12915.5
14718.5
17346.3
18969
21584.4
22938.8
25637.7
26579.8
29433.9
-17244.8
-12369.6
-11039.5
-6925.15
-5181.78
-1624.72
292.66
3461.04
5420.81
8320.6
10235.8
12959
14761.4
17388.9
19010.7
21626.3
22979.3
25679.2
26619.2
29476.5
-17200.1
-12319.3
-10993.6
-6876.26
-5136.28
-1577.53
337.687
3506.62
5465.23
8364.78
10279.4
13002.1
14804
17431.2
19052.1
21668
23019.5
25720.4
26658.4
29518.8
-17155.7
-12269.4
-10947.9
-6827.69
-5091.06
-1530.68
382.458
3551.85
5509.41
8408.64
10322.7
13044.8
14846.3
17473.1
19093.2
21709.4
23059.4
25761.3
26697.3
29560.9
-17111.7
-12219.7
-10902.6
-6779.43
-5046.1
-1484.15
426.975
3596.75
5553.34
8452.15
10365.9
13087.2
14888.4
17514.8
19134.2
21750.4
23099
25802
26735.9
29602.8
-17067.9
-12170.3
-10857.5
-6731.49
-5001.43
-1437.95
471.237
3641.3
5597.02
8495.33
10408.8
13129.4
14930.3
17556.1
19174.8
21791.2
23138.4
25842.3
26774.2
29644.3
-17024.5
-12121.3
-10812.7
-6683.87
-4957.02
-1392.09
515.245
3685.52
5640.47
8538.17
10451.4
13171.1
14971.9
17597.1
19215.2
21831.7
23177.5
25882.4
26812.3
29685.6
-16981.3
-12072.5
-10768.2
-6636.58
-4912.88
-1346.57
558.998
3729.39
5683.66
8580.66
10493.8
13212.6
15013.3
17637.8
19255.4
21871.9
23216.4
25922.2
26850.1
29726.6
-16938.5
-12024
-10724
-6589.6
-4869.02
-1301.38
602.499
3772.91
5726.62
8622.81
10536
13253.7
15054.4
17678.2
19295.3
21911.8
23255
25961.8
26887.6
29767.4
-16895.9
-11975.9
-10680.2
-6542.95
-4825.43
-1256.54
645.747
3816.09
5769.33
8664.61
10577.9
13294.4
15095.3
17718.2
19334.9
21951.3
23293.3
26001
26924.9
29807.9
-16853.7
-11928
-10636.6
-6496.63
-4782.11
-1212.03
688.743
3858.91
5811.8
8706.06
10619.6
13334.9
15135.9
17758
19374.3
21990.6
23331.3
26040
26961.8
29848.1
-16811.8
-11880.4
-10593.3
-6450.64
-4739.06
-1167.88
731.487
3901.38
5854.03
8747.17
10661
13374.9
15176.3
17797.4
19413.4
22029.6
23369.1
26078.7
26998.5
29888.1
-16770.2
-11833.2
-10550.3
-6404.97
-4696.27
-1124.07
773.98
3943.5
5896.02
8787.92
10702.2
13414.7
15216.5
17836.5
19452.3
22068.3
23406.6
26117.1
27034.9
29927.8
-16728.9
-11786.3
-10507.6
-6359.64
-4653.76
-1080.61
816.224
3985.27
5937.77
8828.32
10743.2
13454.1
15256.4
17875.2
19490.9
22106.6
23443.9
26155.2
27071
29967.2
-16687.9
-11739.6
-10465.1
-6314.64
-4611.52
-1037.5
858.217
4026.67
5979.28
8868.36
10783.9
13493.2
15296
17913.6
19529.3
22144.7
23480.9
26193.1
27106.8
30006.4
-16647.2
-11693.3
-10423
-6269.97
-4569.54
-994.74
899.963
4067.71
6020.55
8908.05
10824.4
13531.9
15335.4
17951.8
19567.4
22182.4
23517.6
26230.6
27142.4
30045.3
-16606.8
-11647.3
-10381.2
-6225.64
-4527.83
-952.338
941.461
4108.4
6061.58
8947.37
10864.6
13570.2
15374.6
17989.5
19605.2
22219.9
23554.1
26267.9
27177.6
30083.9
-16566.7
-11601.6
-10339.7
-6181.65
-4486.38
-910.293
982.712
4148.71
6102.37
8986.34
10904.6
13608.3
15413.5
18027
19642.9
22257
23590.3
26304.9
27212.6
30122.2
-16527
-11556.2
-10298.5
-6138.01
-4445.2
-868.608
1023.72
4188.66
6142.93
9024.95
10944.4
13645.9
15452.2
18064.1
19680.2
22293.8
23626.2
26341.6
27247.3
30160.3
-16487.5
-11511.1
-10257.5
-6094.7
-4404.29
-827.284
1064.48
4228.25
6183.25
9063.19
10983.9
13683.3
15490.6
18100.9
19717.3
22330.4
23661.8
26378
27281.7
30198.1
-16448.4
-11466.3
-10216.9
-6051.74
-4363.64
-786.324
1105
4267.46
6223.33
9101.06
11023.2
13720.2
15528.8
18137.3
19754.1
22366.6
23697.2
26414.1
27315.8
30235.6
-16409.5
-11421.9
-10176.5
-6009.12
-4323.24
-745.73
1145.27
4306.3
6263.18
9138.57
11062.3
13756.8
15566.8
18173.5
19790.7
22402.5
23732.3
26449.9
27349.7
30272.9
-16371
-11377.7
-10136.4
-5966.86
-4283.11
-705.504
1185.31
4344.76
6302.8
9175.71
11101.1
13793.1
15604.5
18209.2
19827
22438
23767.2
26485.5
27383.2
30309.9
-16332.7
-11333.9
-10096.7
-5924.94
-4243.24
-665.649
1225.1
4382.85
6342.19
9212.47
11139.7
13829
15642
18244.7
19863.1
22473.3
23801.7
26520.7
27416.5
30346.6
-16294.8
-11290.4
-10057.2
-5883.37
-4203.63
-626.166
1264.66
4420.56
6381.34
9248.87
11178.1
13864.6
15679.2
18279.8
19898.9
22508.3
23836
26555.7
27449.5
30383
-16257.2
-11247.3
-10018
-5842.16
-4164.27
-587.058
1303.98
4457.89
6420.27
9284.89
11216.2
13899.8
15716.2
18314.6
19934.5
22542.9
23870.1
26590.3
27482.2
30419.2
-16219.9
-11204.4
-9979.08
-5801.31
-4125.17
-548.327
1343.06
4494.84
6458.97
9320.54
11254.1
13934.6
15752.9
18349
19969.8
22577.2
23903.8