/*--------------------------------*- C++ -*----------------------------------*\
  =========                 |
  \\      /  F ield         | OpenFOAM: The Open Source CFD Toolbox
   \\    /   O peration     | Website:  https://openfoam.org
    \\  /    A nd           | Version:  8
     \\/     M anipulation  |
\*---------------------------------------------------------------------------*/
FoamFile
{
    version     2.0;
    format      ascii;
    class       volScalarField;
    location    "200";
    object      alphat;
}
// * * * * * * * * * * * * * * * * * * * * * * * * * * * * * * * * * * * * * //

dimensions      [1 -1 -1 0 0 0 0];

internalField   nonuniform List<scalar> 
8400
(
0.352314
0.351666
0.351018
0.350374
0.349735
0.349101
0.348472
0.347848
0.34723
0.346617
0.34601
0.345409
0.344814
0.344224
0.343641
0.343063
0.342492
0.341928
0.34137
0.340818
0.340274
0.339737
0.339207
0.338685
0.338172
0.337667
0.337171
0.336685
0.33621
0.335747
0.335296
0.33486
0.334439
0.334036
0.333653
0.333291
0.332956
0.332649
0.332375
0.33214
0.33195
0.331811
0.331734
0.331729
0.331811
0.331997
0.332314
0.332794
0.333481
0.334434
0.144764
0.144665
0.144576
0.144496
0.144427
0.144366
0.144314
0.144271
0.144237
0.144212
0.144196
0.144188
0.144189
0.144198
0.144216
0.144243
0.144278
0.144321
0.144373
0.144433
0.144502
0.144579
0.144665
0.14476
0.144863
0.144975
0.145097
0.145227
0.145368
0.145518
0.145679
0.145851
0.146034
0.146229
0.146438
0.146661
0.146899
0.147153
0.147427
0.14772
0.148037
0.148379
0.148751
0.149155
0.149599
0.150088
0.150632
0.151241
0.15193
0.152721
0.090996
0.091154
0.091314
0.0914757
0.0916391
0.0918042
0.091971
0.0921395
0.0923095
0.0924811
0.0926543
0.092829
0.0930054
0.0931833
0.0933627
0.0935437
0.0937263
0.0939105
0.0940963
0.0942837
0.0944727
0.0946634
0.0948558
0.09505
0.0952459
0.0954437
0.0956433
0.0958449
0.0960485
0.0962541
0.096462
0.0966721
0.0968847
0.0970998
0.0973177
0.0975384
0.0977623
0.0979896
0.0982206
0.0984557
0.0986954
0.0989401
0.0991905
0.0994473
0.0997115
0.0999843
0.100267
0.100562
0.100871
0.101198
0.0867246
0.0869244
0.0871232
0.0873212
0.0875182
0.0877143
0.0879096
0.0881041
0.0882979
0.0884911
0.0886836
0.0888754
0.0890668
0.0892576
0.089448
0.0896381
0.0898278
0.0900172
0.0902064
0.0903954
0.0905842
0.090773
0.0909617
0.0911504
0.0913391
0.0915279
0.0917169
0.091906
0.0920953
0.0922849
0.0924748
0.092665
0.0928555
0.0930464
0.0932377
0.0934295
0.0936218
0.0938146
0.094008
0.0942019
0.0943965
0.0945918
0.0947877
0.0949845
0.095182
0.0953806
0.0955803
0.0957812
0.0959836
0.0961878
0.0870829
0.0872932
0.087502
0.0877091
0.0879146
0.0881185
0.0883209
0.0885219
0.0887216
0.08892
0.0891172
0.0893132
0.0895082
0.0897023
0.0898954
0.0900876
0.090279
0.0904697
0.0906597
0.0908491
0.0910379
0.0912263
0.0914142
0.0916017
0.0917888
0.0919756
0.0921622
0.0923484
0.0925345
0.0927204
0.092906
0.0930915
0.0932767
0.0934618
0.0936466
0.0938311
0.0940152
0.0941989
0.0943821
0.0945646
0.0947462
0.0949268
0.0951062
0.095284
0.0954598
0.0956333
0.0958039
0.0959709
0.0961336
0.0962909
0.0884424
0.0886627
0.0888813
0.0890982
0.0893135
0.0895272
0.0897394
0.0899501
0.0901596
0.0903678
0.0905748
0.0907806
0.0909854
0.0911891
0.091392
0.091594
0.0917951
0.0919956
0.0921954
0.0923946
0.0925932
0.0927913
0.092989
0.0931862
0.0933832
0.0935798
0.0937761
0.0939722
0.0941681
0.0943639
0.0945594
0.0947548
0.0949501
0.0951453
0.0953403
0.0955351
0.0957298
0.0959242
0.0961182
0.096312
0.0965052
0.0966979
0.0968899
0.097081
0.0972711
0.0974599
0.0976472
0.0978327
0.0980161
0.0981971
0.0894201
0.0896471
0.0898725
0.090096
0.0903178
0.090538
0.0907566
0.0909736
0.0911892
0.0914035
0.0916164
0.0918281
0.0920387
0.0922483
0.0924567
0.0926643
0.0928709
0.0930768
0.0932819
0.0934863
0.0936901
0.0938933
0.0940959
0.0942981
0.0944998
0.0947011
0.094902
0.0951026
0.0953029
0.0955028
0.0957025
0.0959018
0.0961008
0.0962995
0.0964977
0.0966956
0.0968929
0.0970895
0.0972855
0.0974805
0.0976745
0.0978672
0.0980583
0.0982477
0.0984347
0.0986192
0.0988004
0.098978
0.0991511
0.099319
0.0906757
0.0909098
0.0911421
0.0913727
0.0916017
0.0918291
0.0920549
0.0922793
0.0925024
0.0927241
0.0929446
0.0931639
0.0933822
0.0935994
0.0938156
0.094031
0.0942455
0.0944593
0.0946723
0.0948847
0.0950965
0.0953078
0.0955185
0.0957288
0.0959387
0.0961482
0.0963574
0.0965663
0.0967748
0.0969831
0.0971911
0.0973989
0.0976064
0.0978136
0.0980205
0.098227
0.098433
0.0986386
0.0988436
0.0990478
0.0992511
0.0994534
0.0996544
0.099854
0.100052
0.100247
0.10044
0.100631
0.100818
0.101001
0.0917252
0.0919662
0.0922057
0.0924435
0.0926797
0.0929143
0.0931474
0.093379
0.0936093
0.0938382
0.0940659
0.0942924
0.0945178
0.0947422
0.0949656
0.0951881
0.0954098
0.0956306
0.0958507
0.0960701
0.0962889
0.0965071
0.0967247
0.0969419
0.0971586
0.0973749
0.0975908
0.0978063
0.0980215
0.0982363
0.0984508
0.0986649
0.0988787
0.0990921
0.099305
0.0995173
0.0997291
0.0999403
0.100151
0.10036
0.100568
0.100775
0.10098
0.101183
0.101384
0.101582
0.101777
0.101968
0.102155
0.102337
0.0928765
0.0931251
0.093372
0.0936172
0.0938607
0.0941027
0.0943432
0.0945824
0.0948201
0.0950566
0.0952919
0.0955261
0.0957592
0.0959912
0.0962223
0.0964526
0.096682
0.0969106
0.0971384
0.0973656
0.0975922
0.0978182
0.0980437
0.0982687
0.0984933
0.0987174
0.0989412
0.0991645
0.0993875
0.0996102
0.0998325
0.100054
0.100276
0.100497
0.100718
0.100938
0.101157
0.101376
0.101594
0.101811
0.102027
0.102241
0.102454
0.102664
0.102872
0.103078
0.10328
0.103478
0.103672
0.10386
0.0939743
0.0942295
0.0944836
0.0947362
0.0949876
0.0952375
0.095486
0.0957332
0.095979
0.0962237
0.0964672
0.0967095
0.0969509
0.0971912
0.0974307
0.0976693
0.097907
0.098144
0.0983803
0.098616
0.098851
0.0990855
0.0993195
0.099553
0.0997861
0.100019
0.100251
0.100483
0.100714
0.100945
0.101176
0.101407
0.101637
0.101866
0.102096
0.102324
0.102552
0.10278
0.103006
0.103232
0.103456
0.103679
0.1039
0.10412
0.104337
0.104551
0.104763
0.104971
0.105175
0.105374
0.0950208
0.0952843
0.0955465
0.095807
0.096066
0.0963236
0.0965801
0.0968354
0.0970897
0.0973428
0.097595
0.097846
0.0980959
0.0983448
0.0985926
0.0988396
0.0990858
0.0993312
0.0995758
0.0998198
0.100063
0.100306
0.100548
0.10079
0.101031
0.101272
0.101512
0.101752
0.101992
0.102231
0.102469
0.102708
0.102945
0.103183
0.103419
0.103655
0.103891
0.104125
0.104358
0.10459
0.104821
0.10505
0.105277
0.105501
0.105723
0.105941
0.106156
0.106365
0.106569
0.106767
0.0961859
0.0964575
0.0967275
0.096996
0.097263
0.0975287
0.0977931
0.0980562
0.0983181
0.0985788
0.0988385
0.0990974
0.0993556
0.099613
0.0998698
0.100126
0.100381
0.100636
0.100889
0.101143
0.101396
0.101648
0.1019
0.102151
0.102402
0.102653
0.102903
0.103153
0.103402
0.103651
0.1039
0.104149
0.104397
0.104645
0.104893
0.10514
0.105386
0.105632
0.105877
0.106121
0.106364
0.106606
0.106847
0.107085
0.107322
0.107556
0.107788
0.108016
0.108241
0.108462
0.0970726
0.097354
0.0976342
0.097913
0.0981903
0.0984663
0.0987411
0.0990146
0.0992869
0.0995582
0.0998283
0.100097
0.100366
0.100633
0.100899
0.101165
0.10143
0.101695
0.101959
0.102223
0.102486
0.102748
0.103009
0.10327
0.103531
0.103791
0.10405
0.104309
0.104568
0.104826
0.105083
0.10534
0.105597
0.105853
0.106108
0.106362
0.106615
0.106867
0.107118
0.107368
0.107616
0.107861
0.108104
0.108345
0.108582
0.108815
0.109043
0.109266
0.109482
0.10969
0.0984906
0.0987805
0.0990692
0.0993564
0.0996424
0.0999271
0.100211
0.100493
0.100774
0.101055
0.101334
0.101613
0.101891
0.102168
0.102444
0.102719
0.102994
0.103269
0.103543
0.103816
0.104089
0.104363
0.104636
0.104908
0.10518
0.105452
0.105724
0.105995
0.106266
0.106536
0.106806
0.107076
0.107345
0.107614
0.107882
0.108149
0.108415
0.108681
0.108945
0.109208
0.109469
0.109728
0.109986
0.110241
0.110493
0.110742
0.110988
0.11123
0.111469
0.111703
0.0996015
0.0999081
0.100214
0.10052
0.100824
0.101128
0.101432
0.101735
0.102037
0.102338
0.10264
0.10294
0.103241
0.103541
0.103841
0.10414
0.104439
0.104738
0.105037
0.105336
0.105634
0.105933
0.106231
0.10653
0.106828
0.107128
0.107425
0.107721
0.108016
0.108309
0.108601
0.10889
0.109178
0.109463
0.109746
0.110025
0.110301
0.110573
0.11084
0.111101
0.111356
0.111604
0.111843
0.112073
0.112293
0.1125
0.112694
0.112872
0.113032
0.113173
0.104696
0.105044
0.105393
0.105741
0.106091
0.106441
0.106791
0.107142
0.107494
0.107846
0.108199
0.108552
0.108906
0.109261
0.109616
0.109973
0.110329
0.110687
0.111045
0.111404
0.111764
0.112124
0.112485
0.112846
0.113207
0.113569
0.113933
0.114298
0.114656
0.11501
0.115359
0.115702
0.11604
0.116371
0.116693
0.117007
0.11731
0.1176
0.117877
0.118138
0.11838
0.118602
0.118799
0.118969
0.119108
0.119211
0.119274
0.11929
0.119253
0.119157
0.122414
0.122861
0.123315
0.123775
0.12424
0.124712
0.125188
0.12567
0.126157
0.126649
0.127146
0.127648
0.128154
0.128666
0.129182
0.129702
0.130227
0.130756
0.131289
0.131826
0.132366
0.13291
0.133457
0.134007
0.134558
0.135112
0.135667
0.136222
0.136785
0.137339
0.13787
0.138385
0.138882
0.139358
0.139811
0.140238
0.140635
0.140996
0.141318
0.141593
0.141815
0.141976
0.142066
0.142073
0.141983
0.141778
0.141435
0.140925
0.140211
0.139238
0.190282
0.190792
0.191316
0.191854
0.192405
0.19297
0.193548
0.19414
0.194744
0.19536
0.19599
0.196632
0.197287
0.197953
0.198632
0.199323
0.200025
0.200739
0.201464
0.202199
0.202945
0.2037
0.204463
0.205235
0.206014
0.2068
0.207591
0.208385
0.209182
0.20999
0.210815
0.211632
0.212395
0.213131
0.213839
0.214514
0.215149
0.215738
0.216273
0.216746
0.217147
0.217462
0.217676
0.21777
0.217719
0.217492
0.217042
0.216308
0.21521
0.213629
0.378916
0.379159
0.37943
0.379723
0.380035
0.380366
0.380715
0.381083
0.381468
0.38187
0.38229
0.382727
0.38318
0.383649
0.384133
0.384632
0.385145
0.385672
0.386211
0.386762
0.387323
0.387893
0.38847
0.389053
0.389641
0.390231
0.390821
0.39141
0.391994
0.392571
0.393138
0.393705
0.394304
0.394915
0.395536
0.396166
0.396805
0.397451
0.398102
0.398758
0.399417
0.400078
0.400737
0.401392
0.402041
0.402681
0.403306
0.403912
0.404492
0.405035
1.08355
1.06874
1.05457
1.04097
1.02789
1.01526
1.00302
0.991132
0.979585
0.968364
0.957455
0.946845
0.936524
0.926481
0.916706
0.907189
0.897922
0.888895
0.880102
0.871533
0.863182
0.855041
0.847103
0.839362
0.831811
0.824445
0.817258
0.810244
0.803398
0.796715
0.79019
0.783819
0.777598
0.771523
0.765589
0.759794
0.754135
0.748608
0.7432
0.737895
0.732686
0.727568
0.722532
0.717569
0.712668
0.707813
0.702982
0.698138
0.693212
0.688076
1.07683
1.05216
1.02859
1.00603
0.984429
0.963764
0.944006
0.9251
0.906993
0.889635
0.872981
0.85699
0.841621
0.826839
0.812612
0.798907
0.785698
0.772956
0.760658
0.74878
0.737301
0.726201
0.715461
0.705064
0.694992
0.68523
0.675764
0.66658
0.657664
0.649004
0.640587
0.632403
0.624441
0.616687
0.609132
0.601765
0.594575
0.587552
0.580698
0.574021
0.567513
0.561168
0.554979
0.54894
0.543044
0.537284
0.531653
0.526142
0.52074
0.51543
1.0768
1.05207
1.02836
1.00568
0.983955
0.963152
0.943214
0.924088
0.905725
0.88808
0.871111
0.85478
0.839049
0.823888
0.809265
0.795152
0.781522
0.768352
0.755619
0.743301
0.731379
0.719833
0.708648
0.697805
0.68729
0.677088
0.667186
0.65757
0.648229
0.639152
0.630326
0.621743
0.613393
0.605267
0.597357
0.589656
0.582155
0.574848
0.567728
0.560788
0.554024
0.547429
0.541
0.53473
0.528616
0.522654
0.516841
0.511174
0.505649
0.500263
1.0768
1.05225
1.02876
1.00628
0.984746
0.964102
0.944292
0.925267
0.906979
0.889389
0.872456
0.856145
0.840423
0.825259
0.810625
0.796494
0.782841
0.769642
0.756875
0.744521
0.732559
0.720972
0.709742
0.698854
0.688293
0.678044
0.668095
0.658432
0.649043
0.639918
0.631046
0.622417
0.614021
0.60585
0.597895
0.590148
0.582602
0.57525
0.568085
0.561101
0.554293
0.547654
0.541181
0.534867
0.52871
0.522704
0.516847
0.511135
0.505564
0.500131
1.0768
1.05225
1.02875
1.00625
0.984678
0.963996
0.944148
0.925089
0.906775
0.889164
0.872218
0.8559
0.840176
0.825016
0.810389
0.796268
0.782628
0.769444
0.756694
0.744358
0.732415
0.720847
0.709637
0.698769
0.688227
0.677997
0.668066
0.658422
0.649051
0.639943
0.631087
0.622474
0.614093
0.605936
0.597994
0.59026
0.582725
0.575384
0.568229
0.561254
0.554453
0.54782
0.541351
0.535041
0.528885
0.522878
0.517018
0.511299
0.505718
0.500271
1.0768
1.05226
1.02879
1.00633
0.984802
0.964168
0.944369
0.925358
0.907088
0.889517
0.872607
0.85632
0.840623
0.825485
0.810876
0.79677
0.783141
0.769965
0.757221
0.744888
0.732947
0.721378
0.710167
0.699295
0.688749
0.678514
0.668577
0.658925
0.649546
0.64043
0.631565
0.622942
0.614551
0.606383
0.59843
0.590684
0.583138
0.575783
0.568614
0.561625
0.554809
0.54816
0.541674
0.535345
0.529169
0.523141
0.517256
0.511511
0.505901
0.500422
1.0768
1.05227
1.0288
1.00634
0.984815
0.964177
0.944371
0.925349
0.907066
0.889482
0.872558
0.856258
0.840548
0.825399
0.81078
0.796665
0.783029
0.769847
0.757099
0.744762
0.732819
0.721249
0.710037
0.699166
0.688621
0.678388
0.668453
0.658804
0.649428
0.640315
0.631454
0.622834
0.614447
0.606283
0.598333
0.59059
0.583047
0.575695
0.568528
0.561541
0.554725
0.548077
0.54159
0.535259
0.529079
0.523046
0.517155
0.511401
0.50578
0.500288
1.0768
1.05227
1.02881
1.00635
0.984836
0.964207
0.944411
0.925401
0.907131
0.889559
0.872648
0.856361
0.840664
0.825526
0.810918
0.796814
0.783187
0.770013
0.757272
0.744942
0.733003
0.721438
0.710229
0.699361
0.688818
0.678585
0.66865
0.659
0.649623
0.640508
0.631643
0.62302
0.614628
0.606459
0.598504
0.590755
0.583204
0.575845
0.568669
0.561672
0.554846
0.548185
0.541685
0.53534
0.529144
0.523093
0.517182
0.511406
0.505762
0.500243
1.0768
1.05227
1.02881
1.00636
0.984842
0.964215
0.94442
0.925409
0.907137
0.889563
0.872648
0.856357
0.840655
0.825512
0.8109
0.79679
0.783158
0.76998
0.757234
0.744899
0.732957
0.721388
0.710176
0.699305
0.688759
0.678524
0.668587
0.658935
0.649556
0.640439
0.631574
0.622949
0.614556
0.606385
0.598429
0.590678
0.583125
0.575762
0.568584
0.561583
0.554753
0.548087
0.541581
0.535228
0.529025
0.522964
0.517042
0.511254
0.505595
0.50006
1.0768
1.05227
1.02881
1.00636
0.984846
0.96422
0.944427
0.925418
0.907148
0.889576
0.872664
0.856375
0.840676
0.825536
0.810926
0.796819
0.78319
0.770014
0.757271
0.744938
0.732998
0.72143
0.71022
0.699349
0.688804
0.678569
0.668632
0.65898
0.6496
0.640482
0.631615
0.622988
0.614593
0.606419
0.598459
0.590704
0.583147
0.575779
0.568595
0.561586
0.554748
0.548074
0.541558
0.535194
0.528978
0.522903
0.516965
0.51116
0.505481
0.499925
1.0768
1.05227
1.02881
1.00636
0.984846
0.96422
0.944426
0.925417
0.907148
0.889576
0.872664
0.856374
0.840675
0.825535
0.810925
0.796818
0.783188
0.770012
0.757268
0.744935
0.732994
0.721426
0.710215
0.699344
0.688797
0.678562
0.668623
0.65897
0.649589
0.640469
0.6316
0.622971
0.614573
0.606396
0.598433
0.590674
0.583112
0.57574
0.56855
0.561535
0.55469
0.548008
0.541482
0.535108
0.52888
0.522793
0.51684
0.511019
0.505323
0.499747
1.0768
1.05227
1.02881
1.00636
0.984842
0.964215
0.944419
0.925408
0.907136
0.889562
0.872647
0.856355
0.840653
0.82551
0.810896
0.796786
0.783153
0.769974
0.757227
0.744891
0.732948
0.721377
0.710163
0.69929
0.688741
0.678504
0.668564
0.658908
0.649525
0.640404
0.631533
0.622902
0.614502
0.606323
0.598357
0.590596
0.583031
0.575655
0.568461
0.561442
0.554591
0.547903
0.54137
0.534988
0.528751
0.522653
0.516689
0.510854
0.505143
0.49955
1.0768
1.05227
1.02881
1.00635
0.984836
0.964206
0.944411
0.9254
0.90713
0.889558
0.872646
0.856358
0.84066
0.825521
0.810913
0.796807
0.783178
0.770004
0.75726
0.744928
0.732987
0.721419
0.710207
0.699334
0.688787
0.678549
0.668609
0.658953
0.649568
0.640445
0.631571
0.622937
0.614534
0.606351
0.59838
0.590613
0.583042
0.575659
0.568458
0.56143
0.55457
0.547871
0.541327
0.534932
0.52868
0.522566
0.516585
0.510731
0.504999
0.499384
1.0768
1.05227
1.0288
1.00634
0.984815
0.964176
0.94437
0.925347
0.907065
0.88948
0.872555
0.856254
0.840544
0.825393
0.810773
0.796656
0.783018
0.769835
0.757084
0.744745
0.732798
0.721225
0.710009
0.699133
0.688582
0.678343
0.668401
0.658744
0.649359
0.640235
0.631361
0.622727
0.614324
0.606141
0.598171
0.590404
0.582833
0.57545
0.568248
0.561219
0.554357
0.547656
0.541109
0.534709
0.528452
0.522332
0.516343
0.510479
0.504736
0.499108
1.0768
1.05226
1.02879
1.00633
0.984802
0.964167
0.944368
0.925357
0.907086
0.889515
0.872603
0.856315
0.840617
0.825477
0.810867
0.796758
0.783127
0.769948
0.757201
0.744864
0.732918
0.721345
0.710127
0.699249
0.688696
0.678453
0.668506
0.658843
0.649452
0.640322
0.631441
0.622799
0.614388
0.606196
0.598217
0.59044
0.582859
0.575465
0.568251
0.56121
0.554335
0.547619
0.541057
0.534641
0.528367
0.522227
0.516217
0.510331
0.504563
0.498909
1.0768
1.05225
1.02875
1.00625
0.984678
0.963995
0.944147
0.925088
0.906773
0.889161
0.872214
0.855895
0.84017
0.825007
0.810379
0.796255
0.782612
0.769425
0.756672
0.744332
0.732384
0.720811
0.709595
0.698719
0.688169
0.67793
0.667989
0.658332
0.648947
0.639823
0.630949
0.622314
0.613909
0.605725
0.597751
0.589981
0.582406
0.575017
0.567808
0.560772
0.553901
0.547188
0.540628
0.534214
0.52794
0.521799
0.515786
0.509896
0.504123
0.498461
1.0768
1.05225
1.02876
1.00628
0.984745
0.964101
0.944291
0.925265
0.906977
0.889385
0.872451
0.856138
0.840415
0.825249
0.810613
0.796479
0.782822
0.769619
0.756848
0.744489
0.732521
0.720928
0.709691
0.698795
0.688224
0.677964
0.668002
0.658325
0.64892
0.639777
0.630884
0.622231
0.613808
0.605606
0.597616
0.58983
0.582239
0.574835
0.567612
0.560562
0.553678
0.546953
0.540382
0.533957
0.527674
0.521526
0.515509
0.509617
0.503847
0.498196
1.0768
1.05207
1.02836
1.00567
0.983955
0.963151
0.943212
0.924086
0.905722
0.888076
0.871106
0.854773
0.839041
0.823878
0.809253
0.795137
0.781505
0.768332
0.755595
0.743273
0.731346
0.719795
0.708604
0.697755
0.687233
0.677024
0.667114
0.657489
0.648139
0.639051
0.630215
0.62162
0.613256
0.605116
0.597189
0.589468
0.581945
0.574613
0.567465
0.560495
0.553696
0.547065
0.540595
0.534282
0.528125
0.52212
0.516267
0.51057
0.505037
0.499683
1.07683
1.05216
1.02859
1.00602
0.984428
0.963763
0.944005
0.925099
0.906992
0.889635
0.872982
0.856991
0.841623
0.826843
0.812617
0.798914
0.785707
0.772969
0.760675
0.748803
0.737331
0.726239
0.71551
0.705125
0.69507
0.685328
0.675886
0.666731
0.65785
0.649233
0.640869
0.632747
0.62486
0.617199
0.609756
0.602525
0.5955
0.588676
0.582047
0.575612
0.569367
0.563312
0.557447
0.551775
0.5463
0.541034
0.535992
0.531206
0.526732
0.522687
1.08355
1.06874
1.05457
1.04097
1.02789
1.01526
1.00302
0.99113
0.979583
0.96836
0.95745
0.946838
0.936515
0.926468
0.91669
0.907169
0.897897
0.888865
0.880065
0.871489
0.863129
0.854978
0.847029
0.839274
0.831708
0.824324
0.817115
0.810077
0.803202
0.796486
0.789924
0.783509
0.777238
0.771104
0.765102
0.759229
0.753479
0.747847
0.742328
0.736918
0.731612
0.726403
0.721288
0.71626
0.711314
0.706442
0.701637
0.69689
0.69219
0.68752
0.464723
0.252193
0.194926
0.187443
0.183561
0.182297
0.179552
0.177864
0.17551
0.173537
0.171511
0.169299
0.167591
0.165116
0.163736
0.160902
0.160623
0.163593
0.20858
0.389503
0.465286
0.252791
0.195612
0.18815
0.184279
0.183005
0.180262
0.178565
0.176211
0.174231
0.172204
0.169986
0.168275
0.165796
0.164411
0.161574
0.161289
0.16426
0.209248
0.390048
0.465855
0.25337
0.196299
0.188863
0.185002
0.183718
0.180978
0.179273
0.176919
0.174932
0.172903
0.17068
0.168965
0.166482
0.165092
0.162252
0.16196
0.164933
0.209908
0.390544
0.466427
0.253942
0.19699
0.189581
0.185731
0.184438
0.1817
0.179986
0.177632
0.175638
0.173607
0.171379
0.169661
0.167174
0.165778
0.162936
0.162638
0.165607
0.210523
0.391045
0.467003
0.254512
0.197684
0.190304
0.186465
0.185162
0.182426
0.180704
0.17835
0.17635
0.174318
0.172084
0.170362
0.167872
0.16647
0.163626
0.16332
0.166279
0.21112
0.391553
0.467582
0.255084
0.198383
0.191032
0.187205
0.185892
0.183159
0.181428
0.179075
0.177068
0.175033
0.172795
0.171069
0.168576
0.167168
0.164322
0.164008
0.166953
0.21171
0.392066
0.468165
0.255659
0.199087
0.191766
0.187951
0.186627
0.183897
0.182158
0.179804
0.177791
0.175755
0.173511
0.171782
0.169285
0.167872
0.165024
0.164701
0.167629
0.212297
0.392585
0.468751
0.256238
0.199796
0.192506
0.188702
0.187369
0.184641
0.182893
0.18054
0.17852
0.176482
0.174234
0.172501
0.170001
0.168582
0.165732
0.1654
0.16831
0.212884
0.393109
0.469341
0.256821
0.200512
0.193251
0.189459
0.188116
0.185391
0.183635
0.181282
0.179255
0.177216
0.174962
0.173226
0.170722
0.169299
0.166446
0.166105
0.168995
0.213473
0.393638
0.469935
0.257408
0.201233
0.194002
0.190222
0.188869
0.186147
0.184382
0.18203
0.179996
0.177955
0.175697
0.173957
0.17145
0.170021
0.167166
0.166816
0.169684
0.214065
0.394173
0.470532
0.258
0.20196
0.194759
0.190992
0.189628
0.186909
0.185135
0.182784
0.180744
0.178701
0.176438
0.174694
0.172185
0.170749
0.167893
0.167533
0.17038
0.21466
0.394713
0.471134
0.258597
0.202694
0.195522
0.191767
0.190393
0.187678
0.185895
0.183544
0.181497
0.179453
0.177185
0.175437
0.172925
0.171484
0.168625
0.168256
0.171081
0.21526
0.395258
0.47174
0.259199
0.203434
0.196292
0.192549
0.191164
0.188452
0.186661
0.184311
0.182257
0.180212
0.177938
0.176187
0.173672
0.172225
0.169365
0.168985
0.171788
0.215864
0.395809
0.47235
0.259807
0.204181
0.197067
0.193337
0.191942
0.189234
0.187434
0.185084
0.183024
0.180977
0.178699
0.176944
0.174426
0.172973
0.17011
0.169721
0.172501
0.216474
0.396366
0.472965
0.260419
0.204934
0.197849
0.194132
0.192726
0.190022
0.188213
0.185864
0.183797
0.181748
0.179465
0.177707
0.175186
0.173728
0.170863
0.170464
0.17322
0.217089
0.396929
0.473584
0.261038
0.205694
0.198638
0.194934
0.193517
0.190816
0.188998
0.186651
0.184577
0.182527
0.180239
0.178478
0.175953
0.174489
0.171622
0.171213
0.173947
0.21771
0.397499
0.474208
0.261661
0.20646
0.199433
0.195742
0.194314
0.191618
0.189791
0.187444
0.185364
0.183312
0.18102
0.179255
0.176727
0.175258
0.172388
0.17197
0.17468
0.218338
0.398074
0.474837
0.262291
0.207234
0.200236
0.196558
0.195119
0.192426
0.190591
0.188245
0.186158
0.184105
0.181808
0.180039
0.177509
0.176033
0.173162
0.172733
0.17542
0.218971
0.398656
0.475471
0.262926
0.208015
0.201045
0.19738
0.195931
0.193242
0.191397
0.189053
0.186959
0.184904
0.182603
0.18083
0.178297
0.176816
0.173942
0.173503
0.176167
0.219612
0.399244
0.47611
0.263567
0.208803
0.201861
0.19821
0.19675
0.194065
0.192211
0.189868
0.187768
0.185711
0.183405
0.181629
0.179093
0.177606
0.174731
0.174281
0.176922
0.220259
0.399839
0.476755
0.264215
0.209599
0.202685
0.199047
0.197576
0.194895
0.193033
0.19069
0.188584
0.186526
0.184215
0.182435
0.179897
0.178403
0.175526
0.175066
0.177684
0.220913
0.400442
0.477406
0.264868
0.210402
0.203516
0.199892
0.198409
0.195733
0.193862
0.191521
0.189407
0.187348
0.185033
0.183249
0.180708
0.179208
0.176329
0.175859
0.178454
0.221575
0.401051
0.478062
0.265528
0.211212
0.204354
0.200744
0.199251
0.196579
0.194698
0.192358
0.190238
0.188177
0.185858
0.184071
0.181527
0.180021
0.177141
0.17666
0.179232
0.222244
0.401668
0.478724
0.266194
0.212031
0.2052
0.201604
0.2001
0.197432
0.195543
0.193204
0.191078
0.189015
0.186692
0.1849
0.182353
0.180842
0.17796
0.177469
0.180017
0.22292
0.402292
0.479392
0.266867
0.212857
0.206054
0.202473
0.200957
0.198294
0.196395
0.194058
0.191925
0.189861
0.187533
0.185738
0.183188
0.181671
0.178787
0.178285
0.180811
0.223605
0.402924
0.480067
0.267547
0.213692
0.206916
0.203349
0.201821
0.199163
0.197256
0.19492
0.19278
0.190715
0.188383
0.186583
0.184032
0.182508
0.179623
0.17911
0.181614
0.224297
0.403563
0.480748
0.268233
0.214534
0.207786
0.204233
0.202695
0.200041
0.198125
0.19579
0.193644
0.191577
0.189241
0.187437
0.184883
0.183353
0.180467
0.179943
0.182424
0.224998
0.404211
0.481436
0.268927
0.215385
0.208665
0.205126
0.203576
0.200927
0.199002
0.196669
0.194516
0.192448
0.190107
0.1883
0.185743
0.184207
0.181319
0.180785
0.183244
0.225708
0.404867
0.48213
0.269628
0.216245
0.209551
0.206027
0.204466
0.201822
0.199888
0.197556
0.195397
0.193327
0.190983
0.189171
0.186612
0.18507
0.18218
0.181635
0.184072
0.226425
0.405532
0.482831
0.270335
0.217113
0.210447
0.206937
0.205364
0.202725
0.200782
0.198452
0.196286
0.194215
0.191866
0.190051
0.18749
0.185941
0.183051
0.182495
0.184909
0.227152
0.406205
0.48354
0.271051
0.217989
0.21135
0.207856
0.206272
0.203638
0.201685
0.199356
0.197185
0.195112
0.192759
0.19094
0.188377
0.186822
0.18393
0.183363
0.185756
0.227888
0.406887
0.484255
0.271773
0.218875
0.212263
0.208784
0.207188
0.204559
0.202597
0.20027
0.198092
0.196018
0.193661
0.191838
0.189272
0.187711
0.184818
0.18424
0.186611
0.228632
0.407578
0.484978
0.272504
0.219769
0.213185
0.209721
0.208113
0.205489
0.203519
0.201193
0.199008
0.196933
0.194573
0.192745
0.190178
0.18861
0.185716
0.185126
0.187476
0.229386
0.408278
0.485708
0.273242
0.220673
0.214115
0.210667
0.209047
0.206429
0.204449
0.202125
0.199934
0.197858
0.195493
0.193662
0.191092
0.189518
0.186623
0.186022
0.188351
0.230149
0.408988
0.486445
0.273987
0.221586
0.215055
0.211622
0.209991
0.207378
0.205389
0.203067
0.20087
0.198792
0.196423
0.194588
0.192016
0.190435
0.187539
0.186928
0.189236
0.230922
0.409706
0.48719
0.274741
0.222508
0.216004
0.212586
0.210944
0.208336
0.206339
0.204018
0.201815
0.199735
0.197363
0.195524
0.19295
0.191362
0.188466
0.187843
0.19013
0.231705
0.410435
0.487942
0.275503
0.22344
0.216962
0.213561
0.211906
0.209304
0.207298
0.204979
0.202769
0.200688
0.198313
0.196469
0.193893
0.192299
0.189402
0.188768
0.191034
0.232497
0.411173
0.488703
0.276273
0.224381
0.21793
0.214545
0.212878
0.210282
0.208266
0.205949
0.203734
0.201651
0.199272
0.197424
0.194847
0.193246
0.190348
0.189702
0.191949
0.2333
0.411921
0.489471
0.277051
0.225332
0.218908
0.215538
0.21386
0.211269
0.209245
0.20693
0.204708
0.202624
0.200242
0.19839
0.195811
0.194203
0.191305
0.190647
0.192874
0.234113
0.41268
0.490247
0.277837
0.226293
0.219896
0.216542
0.214852
0.212267
0.210234
0.20792
0.205692
0.203608
0.201221
0.199365
0.196784
0.195171
0.192272
0.191603
0.193809
0.234936
0.413448
0.491031
0.278632
0.227264
0.220893
0.217556
0.215854
0.213275
0.211233
0.208921
0.206687
0.204601
0.202211
0.200351
0.197769
0.196148
0.193249
0.192568
0.194755
0.235769
0.414227
0.491823
0.279435
0.228245
0.221901
0.21858
0.216866
0.214293
0.212242
0.209932
0.207692
0.205605
0.203212
0.201348
0.198764
0.197137
0.194237
0.193545
0.195712
0.236613
0.415016
0.492623
0.280247
0.229236
0.222918
0.219614
0.217889
0.215321
0.213261
0.210954
0.208708
0.206619
0.204223
0.202355
0.199769
0.198135
0.195236
0.194532
0.196679
0.237468
0.415816
0.493431
0.281068
0.230237
0.223946
0.220659
0.218922
0.21636
0.214292
0.211986
0.209735
0.207644
0.205245
0.203372
0.200786
0.199145
0.196245
0.195529
0.197658
0.238334
0.416627
0.494247
0.281897
0.231249
0.224985
0.221714
0.219965
0.217409
0.215333
0.213029
0.210772
0.20868
0.206278
0.204401
0.201813
0.200166
0.197266
0.196538
0.198648
0.23921
0.417449
0.495071
0.282735
0.232272
0.226034
0.22278
0.221019
0.21847
0.216384
0.214083
0.21182
0.209727
0.207322
0.205441
0.202852
0.201197
0.198298
0.197558
0.199649
0.240098
0.418281
0.495904
0.283583
0.233305
0.227094
0.223857
0.222084
0.219541
0.217447
0.215148
0.212879
0.210785
0.208377
0.206492
0.203901
0.20224
0.199341
0.19859
0.200662
0.240998
0.419125
0.496745
0.284439
0.234349
0.228164
0.224944
0.22316
0.220623
0.218521
0.216224
0.21395
0.211854
0.209443
0.207554
0.204963
0.203295
0.200396
0.199633
0.201687
0.241908
0.41998
0.497594
0.285304
0.235404
0.229246
0.226043
0.224247
0.221717
0.219606
0.217311
0.215031
0.212935
0.210521
0.208628
0.206035
0.204361
0.201462
0.200687
0.202723
0.242831
0.420847
0.498452
0.286179
0.23647
0.230338
0.227153
0.225346
0.222822
0.220702
0.21841
0.216125
0.214027
0.21161
0.209713
0.20712
0.205438
0.202541
0.201753
0.203772
0.243765
0.421725
0.499318
0.287063
0.237547
0.231442
0.228275
0.226456
0.223938
0.22181
0.21952
0.21723
0.215131
0.212712
0.21081
0.208217
0.206528
0.203631
0.202832
0.204833
0.244711
0.422615
0.500192
0.287956
0.238636
0.232557
0.229408
0.227577
0.225066
0.22293
0.220642
0.218347
0.216247
0.213825
0.211919
0.209325
0.20763
0.204733
0.203922
0.205906
0.245669
0.423517
0.501076
0.28886
0.239736
0.233684
0.230552
0.22871
0.226206
0.224062
0.221776
0.219476
0.217375
0.21495
0.213041
0.210446
0.208744
0.205848
0.205025
0.206992
0.24664
0.424431
0.501967
0.289772
0.240847
0.234822
0.231709
0.229855
0.227357
0.225205
0.222922
0.220617
0.218515
0.216088
0.214174
0.211579
0.20987
0.206976
0.20614
0.20809
0.247623
0.425357
0.502867
0.290695
0.241971
0.235973
0.232877
0.231012
0.228521
0.226361
0.22408
0.22177
0.219667
0.217238
0.21532
0.212725
0.211009
0.208116
0.207268
0.209202
0.248619
0.426296
0.503776
0.291627
0.243106
0.237135
0.234058
0.232181
0.229697
0.227529
0.225251
0.222936
0.220832
0.218401
0.216479
0.213884
0.212161
0.209269
0.208409
0.210326
0.249628
0.427247
0.504694
0.292569
0.244253
0.238309
0.235251
0.233362
0.230886
0.22871
0.226434
0.224115
0.222009
0.219577
0.217651
0.215056
0.213326
0.210436
0.209563
0.211464
0.25065
0.42821
0.50562
0.293522
0.245413
0.239496
0.236456
0.234556
0.232087
0.229903
0.22763
0.225306
0.2232
0.220766
0.218836
0.216241
0.214504
0.211615
0.210731
0.212616
0.251685
0.429187
0.506555
0.294485
0.246585
0.240695
0.237674
0.235762
0.233301
0.23111
0.228839
0.226511
0.224404
0.221968
0.220034
0.217439
0.215695
0.212808
0.211911
0.213781
0.252733
0.430176
0.5075
0.295458
0.24777
0.241906
0.238904
0.236982
0.234527
0.232329
0.230061
0.227729
0.225621
0.223183
0.221245
0.218651
0.2169
0.214015
0.213106
0.21496
0.253795
0.431179
0.508453
0.296441
0.248967
0.243131
0.240148
0.238214
0.235767
0.233561
0.231297
0.22896
0.226851
0.224412
0.22247
0.219876
0.218119
0.215236
0.214314
0.216153
0.254871
0.432196
0.509415
0.297436
0.250177
0.244368
0.241404
0.23946
0.237021
0.234808
0.232546
0.230205
0.228095
0.225655
0.223709
0.221116
0.219352
0.216471
0.215537
0.217361
0.255961
0.433226
0.510386
0.298441
0.2514
0.245619
0.242674
0.240719
0.238287
0.236067
0.233808
0.231464
0.229353
0.226912
0.224963
0.22237
0.220599
0.21772
0.216774
0.218584
0.257066
0.43427