/*--------------------------------*- C++ -*----------------------------------*\
  =========                 |
  \\      /  F ield         | OpenFOAM: The Open Source CFD Toolbox
   \\    /   O peration     | Website:  https://openfoam.org
    \\  /    A nd           | Version:  8
     \\/     M anipulation  |
\*---------------------------------------------------------------------------*/
FoamFile
{
    version     2.0;
    format      ascii;
    class       volScalarField;
    location    "200";
    object      k;
}
// * * * * * * * * * * * * * * * * * * * * * * * * * * * * * * * * * * * * * //

dimensions      [0 2 -2 0 0 0 0];

internalField   nonuniform List<scalar> 
8400
(
0.100191
0.099806
0.0994192
0.0990338
0.0986504
0.0982692
0.0978906
0.0975145
0.0971412
0.0967708
0.0964034
0.0960391
0.0956781
0.0953205
0.0949664
0.0946159
0.0942691
0.0939263
0.0935874
0.0932528
0.0929224
0.0925965
0.0922753
0.091959
0.0916479
0.0913422
0.0910424
0.0907486
0.0904616
0.0901816
0.0899095
0.0896458
0.0893915
0.0891476
0.0889151
0.0886956
0.0884906
0.088302
0.0881321
0.0879836
0.0878598
0.0877646
0.0877028
0.0876804
0.0877049
0.0877861
0.0879374
0.0881768
0.0885277
0.0890224
0.0168847
0.0168506
0.016819
0.0167896
0.0167625
0.0167375
0.0167146
0.0166938
0.0166752
0.0166587
0.0166443
0.016632
0.0166218
0.0166137
0.0166077
0.0166038
0.016602
0.0166024
0.0166048
0.0166094
0.0166161
0.016625
0.016636
0.0166492
0.0166647
0.0166824
0.0167025
0.0167249
0.0167498
0.0167772
0.0168073
0.0168402
0.016876
0.0169149
0.0169571
0.0170028
0.0170525
0.0171063
0.0171648
0.0172284
0.0172977
0.0173734
0.0174565
0.0175479
0.0176489
0.0177614
0.0178874
0.0180298
0.0181923
0.0183804
0.00658317
0.00660481
0.00662683
0.00664919
0.0066719
0.00669495
0.00671833
0.00674204
0.00676607
0.00679042
0.00681507
0.00684004
0.00686531
0.00689089
0.00691676
0.00694294
0.00696942
0.0069962
0.00702328
0.00705067
0.00707836
0.00710636
0.00713468
0.00716332
0.00719228
0.00722157
0.0072512
0.00728119
0.00731154
0.00734226
0.00737337
0.00740489
0.00743684
0.00746923
0.00750211
0.00753549
0.00756942
0.00760394
0.0076391
0.00767496
0.00771158
0.00774907
0.0077875
0.00782702
0.00786777
0.00790993
0.00795376
0.00799953
0.00804764
0.00809858
0.00593809
0.00596756
0.00599696
0.00602626
0.00605548
0.00608461
0.00611365
0.00614262
0.00617151
0.00620033
0.00622909
0.00625778
0.00628642
0.00631501
0.00634355
0.00637206
0.00640053
0.00642897
0.00645739
0.0064858
0.0065142
0.00654259
0.00657099
0.00659941
0.00662784
0.00665629
0.00668478
0.0067133
0.00674186
0.00677048
0.00679915
0.00682788
0.00685669
0.00688556
0.00691452
0.00694356
0.0069727
0.00700193
0.00703127
0.00706071
0.00709028
0.00711996
0.00714978
0.00717975
0.00720986
0.00724014
0.00727061
0.00730128
0.0073322
0.00736341
0.00597371
0.00600575
0.0060376
0.00606924
0.00610066
0.00613189
0.00616291
0.00619374
0.00622439
0.00625486
0.00628517
0.00631531
0.0063453
0.00637515
0.00640486
0.00643444
0.0064639
0.00649325
0.0065225
0.00655165
0.00658071
0.00660969
0.0066386
0.00666744
0.00669623
0.00672496
0.00675364
0.00678229
0.00681089
0.00683947
0.00686801
0.00689652
0.006925
0.00695345
0.00698187
0.00701025
0.00703858
0.00706685
0.00709504
0.00712315
0.00715113
0.00717898
0.00720664
0.00723407
0.00726123
0.00728804
0.00731443
0.00734028
0.00736548
0.00738987
0.00615725
0.00619132
0.00622518
0.0062588
0.00629221
0.00632541
0.00635841
0.00639121
0.00642383
0.00645627
0.00648854
0.00652064
0.0065526
0.00658441
0.00661608
0.00664763
0.00667906
0.00671038
0.0067416
0.00677273
0.00680378
0.00683474
0.00686564
0.00689648
0.00692727
0.006958
0.0069887
0.00701937
0.00705001
0.00708062
0.00711122
0.0071418
0.00717236
0.00720292
0.00723346
0.00726398
0.00729449
0.00732497
0.00735542
0.00738583
0.00741618
0.00744646
0.00747665
0.00750672
0.00753665
0.0075664
0.00759594
0.00762522
0.00765419
0.00768279
0.00629134
0.00632687
0.00636219
0.00639727
0.00643213
0.00646677
0.00650119
0.0065354
0.00656941
0.00660323
0.00663687
0.00667033
0.00670363
0.00673677
0.00676976
0.00680261
0.00683534
0.00686794
0.00690042
0.0069328
0.00696508
0.00699728
0.00702939
0.00706143
0.0070934
0.00712531
0.00715716
0.00718896
0.00722072
0.00725243
0.0072841
0.00731572
0.0073473
0.00737884
0.00741033
0.00744175
0.00747311
0.00750438
0.00753555
0.0075666
0.0075975
0.00762822
0.00765871
0.00768893
0.00771882
0.00774831
0.00777733
0.00780577
0.00783354
0.00786049
0.00646884
0.00650584
0.00654262
0.00657917
0.00661551
0.00665163
0.00668755
0.00672328
0.00675882
0.00679418
0.00682938
0.00686441
0.00689929
0.00693402
0.00696862
0.00700309
0.00703745
0.00707169
0.00710583
0.00713988
0.00717385
0.00720773
0.00724155
0.0072753
0.00730899
0.00734264
0.00737624
0.0074098
0.00744333
0.00747682
0.00751029
0.00754372
0.00757713
0.0076105
0.00764384
0.00767714
0.00771039
0.00774358
0.00777669
0.00780971
0.00784261
0.00787536
0.00790794
0.0079403
0.0079724
0.00800419
0.0080356
0.00806656
0.00809702
0.00812687
0.00661785
0.00665627
0.00669452
0.00673255
0.00677038
0.006808
0.00684543
0.00688266
0.00691972
0.0069566
0.00699332
0.00702987
0.00706628
0.00710255
0.00713868
0.00717469
0.00721058
0.00724636
0.00728204
0.00731763
0.00735313
0.00738855
0.00742391
0.00745919
0.00749442
0.0075296
0.00756472
0.00759981
0.00763485
0.00766985
0.00770482
0.00773974
0.00777463
0.00780947
0.00784426
0.00787899
0.00791364
0.00794821
0.00798267
0.008017
0.00805116
0.00808513
0.00811886
0.0081523
0.00818539
0.00821807
0.00825026
0.00828187
0.00831281
0.00834297
0.006784
0.00682396
0.00686373
0.00690329
0.00694265
0.00698183
0.00702082
0.00705963
0.00709827
0.00713675
0.00717507
0.00721325
0.00725129
0.00728919
0.00732697
0.00736464
0.0074022
0.00743965
0.00747702
0.0075143
0.0075515
0.00758863
0.00762569
0.0076627
0.00769966
0.00773657
0.00777344
0.00781027
0.00784707
0.00788383
0.00792056
0.00795725
0.00799391
0.00803053
0.00806709
0.0081036
0.00814004
0.00817639
0.00821263
0.00824873
0.00828467
0.00832041
0.0083559
0.0083911
0.00842593
0.00846033
0.00849423
0.00852751
0.00856009
0.00859185
0.00694398
0.00698545
0.00702675
0.00706786
0.0071088
0.00714956
0.00719016
0.00723061
0.0072709
0.00731104
0.00735105
0.00739092
0.00743067
0.0074703
0.00750982
0.00754924
0.00758856
0.00762779
0.00766694
0.00770602
0.00774503
0.00778398
0.00782287
0.00786172
0.00790052
0.00793929
0.00797803
0.00801673
0.00805541
0.00809406
0.00813268
0.00817128
0.00820985
0.00824838
0.00828687
0.00832531
0.00836369
0.00840198
0.00844018
0.00847825
0.00851616
0.00855389
0.00859138
0.00862859
0.00866546
0.00870193
0.00873792
0.00877335
0.00880814
0.00884218
0.00709659
0.00713976
0.00718279
0.00722563
0.00726828
0.00731077
0.0073531
0.00739527
0.00743731
0.00747922
0.00752101
0.00756268
0.00760424
0.00764568
0.00768702
0.00772827
0.00776942
0.00781049
0.00785148
0.0078924
0.00793326
0.00797405
0.0080148
0.0080555
0.00809616
0.00813678
0.00817736
0.00821792
0.00825844
0.00829894
0.0083394
0.00837983
0.00842023
0.00846058
0.00850087
0.0085411
0.00858125
0.00862129
0.00866121
0.00870097
0.00874053
0.00877985
0.00881887
0.00885753
0.00889576
0.00893346
0.00897053
0.00900685
0.00904228
0.00907666
0.00727053
0.00731541
0.00736013
0.00740466
0.00744904
0.00749325
0.00753731
0.00758122
0.007625
0.00766865
0.00771217
0.00775559
0.00779892
0.00784216
0.00788534
0.00792845
0.0079715
0.00801449
0.00805743
0.00810032
0.00814317
0.00818599
0.00822878
0.00827155
0.0083143
0.00835704
0.00839976
0.00844249
0.00848521
0.00852792
0.00857064
0.00861335
0.00865605
0.00869874
0.00874142
0.00878407
0.00882668
0.00886924
0.00891173
0.00895412
0.00899639
0.00903851
0.00908044
0.00912212
0.00916352
0.00920456
0.00924519
0.00928533
0.00932491
0.00936384
0.00740065
0.00744738
0.007494
0.00754048
0.00758682
0.00763302
0.00767909
0.00772504
0.00777086
0.00781658
0.00786219
0.00790771
0.00795313
0.00799847
0.00804373
0.00808892
0.00813406
0.00817916
0.00822423
0.00826928
0.00831429
0.00835926
0.00840421
0.00844912
0.008494
0.00853887
0.00858371
0.00862853
0.00867332
0.0087181
0.00876285
0.00880757
0.00885225
0.00889689
0.00894147
0.00898597
0.00903037
0.00907465
0.00911879
0.00916273
0.00920644
0.00924986
0.00929292
0.00933556
0.00937767
0.00941915
0.00945987
0.00949967
0.00953837
0.00957574
0.00761768
0.00766639
0.00771499
0.00776345
0.00781179
0.00786
0.0079081
0.00795609
0.00800398
0.00805177
0.00809948
0.00814711
0.00819467
0.00824217
0.00828961
0.008337
0.00838436
0.00843168
0.00847897
0.00852625
0.00857353
0.00862084
0.00866819
0.00871555
0.00876294
0.00881034
0.00885777
0.00890522
0.00895268
0.00900016
0.00904766
0.00909516
0.00914266
0.00919016
0.00923762
0.00928505
0.00933242
0.0093797
0.00942688
0.0094739
0.00952075
0.00956737
0.00961372
0.00965974
0.00970539
0.00975059
0.00979528
0.00983942
0.00988294
0.00992583
0.00778346
0.00783466
0.00788589
0.00793712
0.00798834
0.00803957
0.00809079
0.00814202
0.00819326
0.00824452
0.00829581
0.00834713
0.00839849
0.00844988
0.00850133
0.00855283
0.00860439
0.00865602
0.00870772
0.00875949
0.00881134
0.00886328
0.0089153
0.00896743
0.0090197
0.00907211
0.00912456
0.00917697
0.0092293
0.00928153
0.00933362
0.00938553
0.00943723
0.00948865
0.00953974
0.00959042
0.00964061
0.00969023
0.00973915
0.00978725
0.00983439
0.0098804
0.00992508
0.00996824
0.0100096
0.0100489
0.0100859
0.0101202
0.0101514
0.0101792
0.00858892
0.00864778
0.00870694
0.00876637
0.00882608
0.00888607
0.00894633
0.00900687
0.00906769
0.00912879
0.00919018
0.00925185
0.0093138
0.00937605
0.00943859
0.00950142
0.00956455
0.00962799
0.00969172
0.00975575
0.00982008
0.0098847
0.00994961
0.0100148
0.0100803
0.010146
0.0102121
0.0102786
0.010345
0.0104111
0.0104767
0.0105416
0.0106057
0.0106689
0.0107309
0.0107916
0.0108506
0.0109077
0.0109625
0.0110146
0.0110637
0.0111091
0.0111503
0.0111866
0.0112174
0.0112416
0.0112583
0.0112665
0.011265
0.0112524
0.0117531
0.011834
0.0119167
0.0120011
0.012087
0.0121744
0.0122633
0.0123537
0.0124456
0.0125389
0.0126337
0.0127299
0.0128275
0.0129266
0.0130271
0.013129
0.0132322
0.0133369
0.0134429
0.0135503
0.0136589
0.0137689
0.01388
0.0139924
0.0141059
0.0142205
0.014336
0.0144524
0.0145702
0.0146887
0.0148057
0.0149204
0.0150323
0.0151406
0.0152448
0.0153441
0.0154376
0.0155242
0.0156028
0.0156718
0.0157297
0.0157746
0.0158041
0.0158155
0.0158056
0.0157703
0.0157045
0.0156018
0.0154542
0.0152504
0.0287845
0.0289216
0.0290633
0.0292095
0.0293603
0.0295156
0.0296754
0.0298398
0.0300086
0.030182
0.0303599
0.0305423
0.0307293
0.0309209
0.031117
0.0313176
0.0315228
0.0317325
0.0319467
0.0321654
0.0323884
0.0326158
0.0328473
0.0330829
0.0333225
0.0335657
0.0338125
0.0340625
0.0343154
0.0345716
0.034833
0.0350984
0.0353593
0.0356133
0.0358596
0.0360967
0.0363225
0.0365347
0.0367306
0.0369068
0.0370597
0.0371844
0.0372755
0.0373261
0.0373274
0.037268
0.0371325
0.0368998
0.0365429
0.0360236
0.115407
0.115527
0.115662
0.115809
0.115967
0.116136
0.116315
0.116506
0.116707
0.116918
0.11714
0.117373
0.117616
0.11787
0.118134
0.118408
0.118692
0.118985
0.119288
0.119599
0.119919
0.120246
0.120581
0.120921
0.121267
0.121617
0.12197
0.122325
0.122681
0.123035
0.123385
0.123733
0.124087
0.124449
0.12482
0.125197
0.125582
0.125973
0.12637
0.126771
0.127176
0.127583
0.127991
0.128399
0.128805
0.129205
0.129598
0.129981
0.130348
0.130692
0.941092
0.915545
0.891422
0.868589
0.846896
0.82621
0.806399
0.787397
0.769157
0.751636
0.734795
0.7186
0.703018
0.68802
0.673577
0.659663
0.646254
0.633326
0.620856
0.608825
0.597212
0.585999
0.575169
0.564704
0.55459
0.54481
0.535352
0.526201
0.517346
0.508775
0.500475
0.492437
0.484651
0.477106
0.469796
0.46271
0.455842
0.449185
0.442718
0.43642
0.43028
0.424289
0.418435
0.412706
0.407088
0.40156
0.396097
0.390656
0.385163
0.379476
0.929455
0.887359
0.848051
0.811243
0.776787
0.744518
0.714304
0.685979
0.659388
0.634391
0.610862
0.588687
0.567762
0.547994
0.529297
0.511595
0.494816
0.478897
0.46378
0.449409
0.435735
0.422714
0.410303
0.398464
0.387161
0.376362
0.366035
0.356153
0.346689
0.337619
0.328919
0.320568
0.312546
0.304833
0.29741
0.290259
0.283365
0.27671
0.270292
0.264112
0.258157
0.252417
0.24688
0.241536
0.236375
0.231387
0.226563
0.22189
0.217357
0.212946
0.929404
0.887197
0.847667
0.810679
0.77604
0.743573
0.713106
0.684479
0.657546
0.632176
0.608248
0.585655
0.564298
0.544089
0.524946
0.506796
0.489572
0.473211
0.457656
0.442857
0.428764
0.415334
0.402526
0.390303
0.378628
0.367471
0.356802
0.346591
0.336815
0.327447
0.318467
0.309853
0.301586
0.293648
0.286024
0.278696
0.271651
0.264874
0.258353
0.252076
0.246032
0.240209
0.2346
0.229193
0.223982
0.218959
0.214115
0.209445
0.204942
0.2006
0.929405
0.8875
0.848317
0.81165
0.777288
0.74504
0.714738
0.686227
0.659369
0.63404
0.610127
0.587527
0.566147
0.545902
0.526713
0.508509
0.491225
0.4748
0.459179
0.444311
0.430149
0.416649
0.403771
0.391478
0.379735
0.368511
0.357775
0.3475
0.337661
0.328233
0.319195
0.310525
0.302204
0.294214
0.286539
0.279161
0.272068
0.265245
0.258679
0.252357
0.24627
0.240407
0.234757
0.229311
0.224062
0.219001
0.214121
0.209414
0.204874
0.200494
0.929405
0.887507
0.848309
0.811599
0.777181
0.744876
0.71452
0.685964
0.659072
0.633721
0.609795
0.587191
0.565815
0.54558
0.526406
0.508221
0.490958
0.474556
0.45896
0.444116
0.429979
0.416504
0.403651
0.391382
0.379662
0.368459
0.357744
0.34749
0.337669
0.328259
0.319236
0.310582
0.302275
0.294298
0.286634
0.279267
0.272183
0.265368
0.258809
0.252495
0.246412
0.240552
0.234905
0.22946
0.22421
0.219147
0.214262
0.209548
0.204999
0.200606
0.929405
0.88753
0.848379
0.811728
0.777377
0.745142
0.714854
0.686362
0.659527
0.634224
0.610339
0.587768
0.566417
0.5462
0.527039
0.508861
0.491602
0.4752
0.459599
0.44475
0.430604
0.417119
0.404254
0.391972
0.380238
0.369021
0.358291
0.348021
0.338185
0.328758
0.31972
0.311049
0.302726
0.294732
0.287052
0.279669
0.272568
0.265737
0.259161
0.252829
0.246729
0.240851
0.235185
0.229722
0.224452
0.219367
0.21446
0.209722
0.205147
0.200727
0.929405
0.887535
0.848393
0.811748
0.777397
0.745156
0.714856
0.686348
0.659495
0.634174
0.61027
0.587682
0.566316
0.546086
0.526914
0.508728
0.491461
0.475054
0.459451
0.4446
0.430454
0.41697
0.404106
0.391827
0.380097
0.368884
0.358159
0.347893
0.338062
0.328641
0.319607
0.310941
0.302623
0.294635
0.286959
0.27958
0.272484
0.265655
0.259083
0.252753
0.246655
0.240778
0.235112
0.229647
0.224375
0.219287
0.214376
0.209632
0.205049
0.20062
0.929405
0.887538
0.848403
0.811769
0.77743
0.745202
0.714917
0.686425
0.659589
0.634284
0.610396
0.587824
0.566472
0.546255
0.527094
0.508917
0.491659
0.475259
0.459661
0.444814
0.430671
0.417188
0.404325
0.392045
0.380314
0.369098
0.35837
0.3481
0.338265
0.328838
0.319799
0.311127
0.302802
0.294807
0.287123
0.279736
0.272631
0.265794
0.259211
0.252871
0.246762
0.240873
0.235195
0.229717
0.22443
0.219327
0.214398
0.209636
0.205034
0.200583
0.929405
0.887539
0.848407
0.811776
0.777441
0.745214
0.71493
0.686437
0.659598
0.634289
0.610397
0.587818
0.56646
0.546237
0.52707
0.508887
0.491623
0.475217
0.459614
0.444763
0.430616
0.41713
0.404265
0.391982
0.380249
0.369032
0.358302
0.348032
0.338195
0.328768
0.319729
0.311056
0.302731
0.294735
0.287051
0.279663
0.272556
0.265718
0.259133
0.252791
0.246679
0.240787
0.235104
0.229621
0.224329
0.219219
0.214282
0.209511
0.204899
0.200437
0.929405
0.88754
0.848409
0.81178
0.777446
0.745222
0.714941
0.68645
0.659614
0.634308
0.610419
0.587843
0.566489
0.546268
0.527104
0.508924
0.491663
0.47526
0.459659
0.44481
0.430664
0.417179
0.404314
0.392032
0.380299
0.369081
0.358351
0.348079
0.338241
0.328812
0.319771
0.311096
0.302767
0.294768
0.28708
0.279688
0.272577
0.265733
0.259143
0.252794
0.246675
0.240775
0.235084
0.229592
0.224289
0.219167
0.214218
0.209434
0.204806
0.200329
0.929405
0.88754
0.848409
0.81178
0.777446
0.745222
0.714941
0.68645
0.659614
0.634307
0.610418
0.587843
0.566488
0.546267
0.527103
0.508923
0.491661
0.475257
0.459656
0.444806
0.43066
0.417174
0.404309
0.392026
0.380291
0.369073
0.358341
0.348069
0.338229
0.328799
0.319755
0.311078
0.302747
0.294745
0.287054
0.279659
0.272545
0.265697
0.259102
0.252748
0.246623
0.240717
0.235019
0.229518
0.224206
0.219075
0.214115
0.209318
0.204678
0.200186
0.929405
0.887539
0.848407
0.811776
0.77744
0.745214
0.71493
0.686437
0.659597
0.634288
0.610395
0.587816
0.566457
0.546233
0.527065
0.508882
0.491617
0.47521
0.459606
0.444754
0.430605
0.417118
0.40425
0.391966
0.38023
0.36901
0.358277
0.348003
0.338163
0.328732
0.319687
0.311009
0.302677
0.294674
0.286982
0.279585
0.272469
0.265618
0.259021
0.252664
0.246536
0.240625
0.234921
0.229415
0.224097
0.218958
0.213989
0.209183
0.204532
0.200029
0.929405
0.887538
0.848403
0.811769
0.77743
0.745201
0.714917
0.686424
0.659587
0.634281
0.610393
0.58782
0.566467
0.546249
0.527087
0.508909
0.491649
0.475247
0.459647
0.444797
0.430651
0.417166
0.404299
0.392016
0.38028
0.36906
0.358326
0.34805
0.338208
0.328774
0.319726
0.311045
0.302709
0.294701
0.287004
0.279602
0.272479
0.265623
0.259018
0.252653
0.246517
0.240597
0.234884
0.229367
0.224037
0.218885
0.213903
0.209082
0.204416
0.199895
0.929405
0.887535
0.848393
0.811748
0.777397
0.745155
0.714855
0.686346
0.659493
0.634171
0.610266
0.587677
0.56631
0.546079
0.526905
0.508716
0.491448
0.475039
0.459433
0.444579
0.430429
0.416941
0.404074
0.39179
0.380054
0.368835
0.358103
0.347829
0.337989
0.328558
0.319514
0.310835
0.302502
0.294497
0.286803
0.279404
0.272284
0.265429
0.258827
0.252463
0.246328
0.240408
0.234694
0.229176
0.223844
0.218689
0.213703
0.208876
0.204203
0.199675
0.929405
0.88753
0.848379
0.811728
0.777377
0.745141
0.714853
0.68636
0.659524
0.63422
0.610333
0.587761
0.566409
0.54619
0.527027
0.508846
0.491584
0.475178
0.459575
0.444721
0.430571
0.41708
0.404209
0.391921
0.38018
0.368954
0.358215
0.347935
0.338087
0.328647
0.319594
0.310907
0.302565
0.294551
0.286847
0.279438
0.272308
0.265443
0.25883
0.252455
0.246308
0.240376
0.234649
0.229118
0.223771
0.218601
0.213599
0.208755
0.204063
0.199515
0.929405
0.887507
0.848309
0.811599
0.777181
0.744875
0.714518
0.685961
0.659069
0.633716
0.609789
0.587184
0.565806
0.545569
0.526392
0.508204
0.490938
0.474533
0.458933
0.444085
0.429943
0.416463
0.403603
0.391326
0.379598
0.368387
0.357661
0.347395
0.337561
0.328136
0.319096
0.310422
0.302094
0.294093
0.286401
0.279004
0.271885
0.26503
0.258427
0.252061
0.245922
0.239998
0.234278
0.228752
0.22341
0.218243
0.213242
0.2084
0.203707
0.199157
0.929405
0.8875
0.848317
0.811649
0.777287
0.745039
0.714736
0.686224
0.659365
0.634035
0.61012
0.587518
0.566136
0.545888
0.526696
0.508489
0.491201
0.474772
0.459146
0.444273
0.430105
0.416598
0.403712
0.391411
0.379658
0.368423
0.357675
0.347387
0.337533
0.328088
0.31903
0.310339
0.301994
0.293977
0.286272
0.27886
0.271729
0.264863
0.258248
0.251872
0.245724
0.239792
0.234064
0.228532
0.223185
0.218015
0.213013
0.208171
0.203484
0.198945
0.929404
0.887197
0.847667
0.810679
0.77604
0.743571
0.713104
0.684476
0.657542
0.63217
0.608241
0.585646
0.564287
0.544076
0.52493
0.506778
0.48955
0.473185
0.457627
0.442823
0.428725
0.41529
0.402477
0.390247
0.378566
0.367402
0.356725
0.346506
0.336721
0.327344
0.318354
0.30973
0.301452
0.293501
0.285862
0.278518
0.271455
0.264657
0.258114
0.251812
0.24574
0.239889
0.234249
0.22881
0.223566
0.218511
0.21364
0.208951
0.204446
0.200135
0.929455
0.887359
0.848051
0.811243
0.776787
0.744517
0.714303
0.685978
0.659388
0.634391
0.610863
0.588689
0.567765
0.547998
0.529303
0.511603
0.494828
0.478914
0.463801
0.449436
0.43577
0.422759
0.410359
0.398534
0.387248
0.376469
0.366167
0.356314
0.346886
0.337857
0.329208
0.320917
0.312967
0.305339
0.29802
0.290993
0.284247
0.277769
0.271549
0.265577
0.259846
0.254349
0.24908
0.244036
0.239218
0.234628
0.230275
0.226181
0.222387
0.218984
0.941092
0.915545
0.891422
0.868589
0.846896
0.82621
0.806398
0.787395
0.769154
0.75163
0.734787
0.718589
0.703004
0.688001
0.673554
0.659635
0.646219
0.633283
0.620805
0.608764
0.59714
0.585914
0.575068
0.564586
0.554452
0.54465
0.535165
0.525984
0.517095
0.508483
0.500138
0.492048
0.484201
0.476588
0.469199
0.462022
0.45505
0.448272
0.44168
0.435265
0.429019
0.422932
0.416996
0.411202
0.405542
0.400005
0.394582
0.38926
0.384027
0.378863
0.172082
0.0507448
0.0303189
0.0280364
0.0268875
0.0265187
0.0257263
0.025245
0.0245813
0.0240318
0.0234741
0.0228723
0.0224131
0.0217559
0.0213935
0.0206592
0.0205873
0.0213554
0.0347108
0.121124
0.172507
0.0509917
0.0305359
0.0282513
0.027101
0.0267279
0.025933
0.0254472
0.0247808
0.0242271
0.0236666
0.0230609
0.0225988
0.0219378
0.0215725
0.0208342
0.0207605
0.0215321
0.0349375
0.121468
0.172937
0.0512313
0.0307543
0.0284689
0.0273172
0.0269397
0.0261422
0.0256521
0.0249829
0.0244251
0.0238617
0.023252
0.022787
0.0221221
0.0217539
0.0210117
0.0209361
0.0217111
0.0351624
0.121783
0.17337
0.0514688
0.0309745
0.0286889
0.0275359
0.027154
0.026354
0.0258594
0.0251875
0.0246255
0.0240593
0.0234455
0.0229776
0.0223089
0.0219376
0.0211917
0.0211138
0.0218913
0.0353727
0.122102
0.173808
0.0517065
0.0311968
0.0289114
0.0277573
0.0273708
0.0265683
0.0260692
0.0253946
0.0248283
0.0242592
0.0236415
0.0231706
0.0224981
0.0221238
0.021374
0.0212938
0.022072
0.035578
0.122426
0.174249
0.0519455
0.0314214
0.0291365
0.0279812
0.0275903
0.0267852
0.0262816
0.0256042
0.0250337
0.0244617
0.0238399
0.0233661
0.0226897
0.0223123
0.0215587
0.021476
0.0222539
0.0357815
0.122754
0.174694
0.0521864
0.0316486
0.0293643
0.0282078
0.0278123
0.0270048
0.0264966
0.0258165
0.0252416
0.0246667
0.0240409
0.023564
0.0228838
0.0225032
0.0217459
0.0216605
0.0224373
0.0359847
0.123086
0.175143
0.0524294
0.0318784
0.0295947
0.0284372
0.028037
0.027227
0.0267142
0.0260313
0.0254521
0.0248744
0.0242444
0.0237645
0.0230804
0.0226967
0.0219355
0.0218474
0.0226226
0.0361886
0.123423
0.175595
0.0526749
0.032111
0.0298279
0.0286694
0.0282645
0.027452
0.0269344
0.0262489
0.0256653
0.0250846
0.0244505
0.0239675
0.0232796
0.0228927
0.0221276
0.0220367
0.0228099
0.0363938
0.123763
0.176052
0.0529229
0.0323465
0.0300639
0.0289043
0.0284947
0.0276797
0.0271575
0.0264692
0.0258812
0.0252975
0.0246593
0.0241732
0.0234815
0.0230913
0.0223222
0.0222284
0.0229993
0.0366006
0.124108
0.176512
0.0531736
0.0325848
0.0303028
0.0291422
0.0287277
0.0279103
0.0273833
0.0266922
0.0260998
0.0255131
0.0248708
0.0243815
0.0236859
0.0232925
0.0225194
0.0224227
0.0231911
0.0368093
0.124457
0.176976
0.0534269
0.0328261
0.0305445
0.029383
0.0289636
0.0281438
0.0276119
0.0269181
0.0263212
0.0257315
0.025085
0.0245926
0.0238931
0.0234964
0.0227192
0.0226195
0.0233853
0.0370201
0.12481
0.177445
0.053683
0.0330704
0.0307893
0.0296268
0.0292025
0.0283802
0.0278434
0.0271469
0.0265454
0.0259528
0.025302
0.0248064
0.024103
0.0237029
0.0229217
0.0228189
0.0235819
0.0372333
0.125168
0.177917
0.0539419
0.0333178
0.031037
0.0298736
0.0294443
0.0286196
0.0280779
0.0273786
0.0267725
0.0261768
0.0255219
0.0250231
0.0243157
0.0239123
0.023127
0.023021
0.0237812
0.0374488
0.12553
0.178394
0.0542037
0.0335683
0.0312878
0.0301236
0.0296891
0.028862
0.0283153
0.0276132
0.0270026
0.0264039
0.0257447
0.0252426
0.0245312
0.0241244
0.0233349
0.0232258
0.023983
0.037667
0.125897
0.178875
0.0544684
0.0338219
0.0315416
0.0303767
0.029937
0.0291075
0.0285558
0.027851
0.0272356
0.0266339
0.0259704
0.025465
0.0247496
0.0243393
0.0235457
0.0234334
0.0241876
0.0378878
0.126268
0.179361
0.0547361
0.0340788
0.0317987
0.030633
0.0301881
0.0293562
0.0287994
0.0280918
0.0274718
0.0268669
0.0261991
0.0256905
0.024971
0.0245572
0.0237594
0.0236439
0.024395
0.0381114
0.126643
0.17985
0.0550067
0.034339
0.032059
0.0308925
0.0304423
0.0296081
0.0290461
0.0283357
0.027711
0.027103
0.0264309
0.0259189
0.0251954
0.0247781
0.0239761
0.0238572
0.0246052
0.0383378
0.127023
0.180345
0.0552805
0.0346025
0.0323226
0.0311554
0.0306999
0.0298633
0.0292961
0.0285829
0.0279534
0.0273423
0.0266658
0.0261504
0.0254228
0.0250019
0.0241957
0.0240734
0.0248183
0.0385673
0.127408
0.180844
0.0555573
0.0348694
0.0325896
0.0314217
0.0309607
0.0301218
0.0295493
0.0288333
0.0281991
0.0275847
0.0269039
0.0263851
0.0256534
0.0252288
0.0244184
0.0242927
0.0250345
0.0387997
0.127798
0.181347
0.0558373
0.0351398
0.0328599
0.0316915
0.031225
0.0303837
0.0298059
0.0290871
0.028448
0.0278305
0.0271452
0.026623
0.0258871
0.0254589
0.0246442
0.024515
0.0252536
0.0390353
0.128193
0.181856
0.0561206
0.0354137
0.0331338
0.0319647
0.0314927
0.030649
0.030066
0.0293443
0.0287003
0.0280796
0.0273899
0.0268641
0.0261241
0.0256922
0.0248732
0.0247404
0.0254759
0.0392742
0.128593
0.182369
0.0564071
0.0356912
0.0334112
0.0322416
0.0317639
0.0309179
0.0303294
0.0296049
0.0289561
0.028332
0.0276379
0.0271086
0.0263644
0.0259287
0.0251054
0.024969
0.0257014
0.0395163
0.128998
0.182887
0.056697
0.0359723
0.0336922
0.0325221
0.0320387
0.0311904
0.0305965
0.0298691
0.0292153
0.028588
0.0278894
0.0273565
0.026608
0.0261686
0.0253409
0.0252009
0.0259301
0.0397618
0.129408
0.18341
0.0569902
0.0362572
0.0339769
0.0328063
0.0323172
0.0314665
0.0308671
0.0301369
0.0294781
0.0288475
0.0281443
0.0276079
0.0268551
0.0264119
0.0255798
0.0254361
0.0261621
0.0400108
0.129824
0.183939
0.057287
0.0365458
0.0342654
0.0330944
0.0325993
0.0317464
0.0311414
0.0304083
0.0297445
0.0291105
0.0284029
0.0278627
0.0271057
0.0266586
0.0258221
0.0256747
0.0263976
0.0402633
0.130245
0.184472
0.0575872
0.0368384
0.0345576
0.0333862
0.0328853
0.0320301
0.0314195
0.0306835
0.0300146
0.0293773
0.0286651
0.0281212
0.0273599
0.0269089
0.026068
0.0259168
0.0266365
0.0405195
0.130671
0.185011
0.0578911
0.0371348
0.0348538
0.0336821
0.0331752
0.0323176
0.0317014
0.0309625
0.0302885
0.0296478
0.028931
0.0283834
0.0276178
0.0271627
0.0263174
0.0261624
0.026879
0.0407794
0.131104
0.185556
0.0581987
0.0374352
0.0351539
0.0339819
0.033469
0.0326091
0.0319872
0.0312454
0.0305662
0.0299221
0.0292007
0.0286493
0.0278794
0.0274203
0.0265705
0.0264115
0.0271251
0.0410431
0.131542
0.186106
0.05851
0.0377398
0.0354581
0.0342858
0.0337668
0.0329047
0.032277
0.0315322
0.0308478
0.0302003
0.0294742
0.0289191
0.0281447
0.0276816
0.0268274
0.0266644
0.0273748
0.0413107
0.131986
0.186661
0.0588251
0.0380484
0.0357664
0.0345939
0.0340687
0.0332043
0.0325708
0.0318231
0.0311335
0.0304825
0.0297517
0.0291927
0.028414
0.0279467
0.027088
0.026921
0.0276284
0.0415822
0.132436
0.187222
0.059144
0.0383614
0.036079
0.0349063
0.0343748
0.0335081
0.0328687
0.0321181
0.0314232
0.0307687
0.0300332
0.0294703
0.0286872
0.0282157
0.0273525
0.0271814
0.0278858
0.0418578
0.132893
0.187789
0.059467
0.0386786
0.0363957
0.0352229
0.0346851
0.0338162
0.0331709
0.0324173
0.0317171
0.031059
0.0303189
0.029752
0.0289644
0.0284887
0.027621
0.0274458
0.0281471
0.0421376
0.133355
0.188362
0.0597939
0.0390002
0.0367169
0.035544
0.0349998
0.0341286
0.0334774
0.0327207
0.0320152
0.0313536
0.0306087
0.0300378
0.0292458
0.0287658
0.0278935
0.0277141
0.0284125
0.0424216
0.133824
0.188942
0.060125
0.0393263
0.0370425
0.0358696
0.0353189
0.0344455
0.0337882
0.0330285
0.0323177
0.0316524
0.0309027
0.0303278
0.0295313
0.029047
0.0281702
0.0279865
0.0286819
0.04271
0.1343
0.189527
0.0604602
0.0396569
0.0373726
0.0361997
0.0356425
0.0347668
0.0341035
0.0333408
0.0326245
0.0319557
0.0312012
0.0306222
0.0298212
0.0293325
0.028451
0.028263
0.0289555
0.0430028
0.134782
0.190118
0.0607997
0.0399922
0.0377074
0.0365345
0.0359708
0.0350928
0.0344233
0.0336576
0.0329359
0.0322634
0.031504
0.0309209
0.0301154
0.0296222
0.0287362
0.0285438
0.0292334
0.0433001
0.135272
0.190716
0.0611435
0.0403322
0.0380468
0.036874
0.0363036
0.0354234
0.0347478
0.033979
0.0332518
0.0325756
0.0318114
0.0312241
0.0304141
0.0299164
0.0290257
0.0288289
0.0295157
0.043602
0.135768
0.19132
0.0614917
0.0406771
0.038391
0.0372184
0.0366413
0.0357589
0.035077
0.0343052
0.0335724
0.0328925
0.0321234
0.0315319
0.0307173
0.0302151
0.0293197
0.0291184
0.0298024
0.0439086
0.136271
0.191931
0.0618444
0.0410268
0.0387402
0.0375677
0.0369838
0.0360992
0.035411
0.0346361
0.0338978
0.0332141
0.0324401
0.0318444
0.0310251
0.0305183
0.0296183
0.0294124
0.0300936
0.04422
0.136782
0.192548
0.0622016
0.0413815
0.0390942
0.037922
0.0373313
0.0364444
0.03575
0.0349719
0.034228
0.0335405
0.0327616
0.0321616
0.0313377
0.0308262
0.0299216
0.0297111
0.0303895
0.0445364
0.1373
0.193172
0.0625635
0.0417413
0.0394534
0.0382815
0.0376838
0.0367947
0.0360939
0.0353127
0.0345632
0.0338719
0.033088
0.0324836
0.0316552
0.0311389
0.0302296
0.0300144
0.0306902
0.0448577
0.137826
0.193803
0.06293
0.0421063
0.0398177
0.0386461
0.0380414
0.0371502
0.036443
0.0356586
0.0349035
0.0342082
0.0334194
0.0328106
0.0319775
0.0314565
0.0305424
0.0303225
0.0309956
0.0451841
0.138359
0.194441
0.0633014
0.0424766
0.0401873
0.0390161
0.0384044
0.0375109
0.0367972
0.0360097
0.0352489
0.0345497
0.0337559
0.0331427
0.0323049
0.0317791
0.0308603
0.0306355
0.031306
0.0455158
0.1389
0.195086
0.0636777
0.0428522
0.0405622
0.0393915
0.0387726
0.0378769
0.0371568
0.0363661
0.0355995
0.0348965
0.0340976
0.0334799
0.0326374
0.0321067
0.0311831
0.0309534
0.0316214
0.0458528
0.139449
0.195738
0.0640589
0.0432333
0.0409426
0.0397724
0.0391463
0.0382484
0.0375217
0.0367279
0.0359555
0.0352485
0.0344445
0.0338224
0.0329752
0.0324395
0.0315112
0.0312765
0.031942
0.0461951
0.140007
0.196397
0.0644451
0.04362
0.0413285
0.0401589
0.0395256
0.0386255
0.0378922
0.0370951
0.036317
0.035606
0.034797
0.0341702
0.0333183
0.0327776
0.0318445
0.0316048
0.0322678
0.0465431
0.140572
0.197063
0.0648365
0.0440124
0.0417202
0.0405511
0.0399105
0.0390083
0.0382683
0.037468
0.036684
0.035969
0.0351549
0.0345235
0.0336668
0.0331211
0.0321832
0.0319384
0.032599
0.0468967
0.141146
0.197737
0.0652331
0.0444106
0.0421176
0.0409492
0.0403012
0.0393968
0.0386501
0.0378466
0.0370568
0.0363377
0.0355184
0.0348824
0.034021
0.0334701
0.0325274
0.0322775
0.0329357
0.047256
0.141729
0.198418
0.065635
0.0448146
0.0425209
0.0413532
0.0406977
0.0397912
0.0390378
0.038231
0.0374353
0.0367121
0.0358877
0.035247
0.0343808
0.0338247
0.0328772
0.032622
0.033278
0.0476213
0.14232
0.199107
0.0660423
0.0452247
0.0429302
0.0417633
0.0411003
0.0401916
0.0394315
0.0386214