/*--------------------------------*- C++ -*----------------------------------*\
  =========                 |
  \\      /  F ield         | OpenFOAM: The Open Source CFD Toolbox
   \\    /   O peration     | Website:  https://openfoam.org
    \\  /    A nd           | Version:  8
     \\/     M anipulation  |
\*---------------------------------------------------------------------------*/
FoamFile
{
    version     2.0;
    format      ascii;
    class       volScalarField;
    location    "200";
    object      nut;
}
// * * * * * * * * * * * * * * * * * * * * * * * * * * * * * * * * * * * * * //

dimensions      [0 2 -1 0 0 0 0];

internalField   nonuniform List<scalar> 
8400
(
0.000353087
0.000352437
0.000351788
0.000351142
0.000350502
0.000349866
0.000349235
0.00034861
0.000347991
0.000347377
0.000346768
0.000346165
0.000345568
0.000344978
0.000344393
0.000343814
0.000343242
0.000342676
0.000342116
0.000341564
0.000341018
0.00034048
0.000339949
0.000339426
0.000338911
0.000338405
0.000337908
0.000337422
0.000336945
0.000336481
0.00033603
0.000335592
0.000335171
0.000334766
0.000334382
0.00033402
0.000333684
0.000333376
0.000333102
0.000332867
0.000332676
0.000332537
0.000332459
0.000332454
0.000332536
0.000332723
0.00033304
0.000333521
0.00033421
0.000335165
0.000145086
0.000144987
0.000144898
0.000144818
0.000144748
0.000144687
0.000144635
0.000144592
0.000144558
0.000144533
0.000144517
0.000144509
0.00014451
0.000144519
0.000144537
0.000144564
0.000144599
0.000144642
0.000144694
0.000144754
0.000144823
0.000144901
0.000144987
0.000145082
0.000145185
0.000145298
0.000145419
0.00014555
0.000145691
0.000145842
0.000146003
0.000146175
0.000146359
0.000146555
0.000146764
0.000146987
0.000147226
0.000147481
0.000147755
0.000148049
0.000148366
0.000148709
0.000149082
0.000149487
0.000149932
0.000150422
0.000150967
0.000151577
0.000152268
0.000153061
9.11991e-05
9.13575e-05
9.15178e-05
9.16798e-05
9.18436e-05
9.20091e-05
9.21762e-05
9.2345e-05
9.25154e-05
9.26873e-05
9.28609e-05
9.3036e-05
9.32128e-05
9.33911e-05
9.35709e-05
9.37523e-05
9.39353e-05
9.41199e-05
9.43061e-05
9.44939e-05
9.46833e-05
9.48745e-05
9.50673e-05
9.52619e-05
9.54583e-05
9.56565e-05
9.58566e-05
9.60586e-05
9.62627e-05
9.64688e-05
9.66771e-05
9.68878e-05
9.71008e-05
9.73164e-05
9.75348e-05
9.7756e-05
9.79804e-05
9.82083e-05
9.84398e-05
9.86754e-05
9.89156e-05
9.91609e-05
9.94118e-05
9.96693e-05
9.99341e-05
0.000100208
0.000100491
0.000100787
0.000101096
0.000101424
8.69184e-05
8.71186e-05
8.7318e-05
8.75163e-05
8.77138e-05
8.79103e-05
8.8106e-05
8.8301e-05
8.84952e-05
8.86888e-05
8.88817e-05
8.90739e-05
8.92657e-05
8.94569e-05
8.96478e-05
8.98383e-05
9.00284e-05
9.02182e-05
9.04078e-05
9.05972e-05
9.07864e-05
9.09756e-05
9.11648e-05
9.13539e-05
9.1543e-05
9.17323e-05
9.19217e-05
9.21112e-05
9.23009e-05
9.24909e-05
9.26812e-05
9.28718e-05
9.30628e-05
9.32541e-05
9.34459e-05
9.36381e-05
9.38309e-05
9.40241e-05
9.42179e-05
9.44123e-05
9.46073e-05
9.4803e-05
9.49994e-05
9.51966e-05
9.53946e-05
9.55936e-05
9.57937e-05
9.59951e-05
9.6198e-05
9.64027e-05
8.72779e-05
8.74886e-05
8.76979e-05
8.79054e-05
8.81113e-05
8.83157e-05
8.85186e-05
8.872e-05
8.89201e-05
8.9119e-05
8.93166e-05
8.95131e-05
8.97085e-05
8.99029e-05
9.00964e-05
9.02891e-05
9.04809e-05
9.0672e-05
9.08624e-05
9.10522e-05
9.12415e-05
9.14303e-05
9.16186e-05
9.18065e-05
9.1994e-05
9.21812e-05
9.23682e-05
9.25548e-05
9.27413e-05
9.29276e-05
9.31137e-05
9.32995e-05
9.34852e-05
9.36706e-05
9.38558e-05
9.40407e-05
9.42253e-05
9.44094e-05
9.45929e-05
9.47758e-05
9.49579e-05
9.51389e-05
9.53187e-05
9.54968e-05
9.56731e-05
9.5847e-05
9.60179e-05
9.61853e-05
9.63484e-05
9.65061e-05
8.86407e-05
8.88615e-05
8.90806e-05
8.9298e-05
8.95137e-05
8.97279e-05
8.99406e-05
9.01518e-05
9.03618e-05
9.05704e-05
9.07778e-05
9.09841e-05
9.11893e-05
9.13935e-05
9.15968e-05
9.17992e-05
9.20008e-05
9.22017e-05
9.24019e-05
9.26016e-05
9.28006e-05
9.29991e-05
9.31972e-05
9.33949e-05
9.35922e-05
9.37893e-05
9.3986e-05
9.41825e-05
9.43789e-05
9.4575e-05
9.4771e-05
9.49668e-05
9.51625e-05
9.53581e-05
9.55535e-05
9.57488e-05
9.59438e-05
9.61387e-05
9.63332e-05
9.65273e-05
9.6721e-05
9.69141e-05
9.71065e-05
9.7298e-05
9.74885e-05
9.76777e-05
9.78654e-05
9.80513e-05
9.82351e-05
9.84165e-05
8.96209e-05
8.98484e-05
9.00743e-05
9.02983e-05
9.05206e-05
9.07413e-05
9.09604e-05
9.11779e-05
9.1394e-05
9.16087e-05
9.18222e-05
9.20343e-05
9.22454e-05
9.24554e-05
9.26643e-05
9.28723e-05
9.30794e-05
9.32857e-05
9.34913e-05
9.36961e-05
9.39003e-05
9.41039e-05
9.4307e-05
9.45095e-05
9.47117e-05
9.49134e-05
9.51147e-05
9.53158e-05
9.55164e-05
9.57168e-05
9.59168e-05
9.61166e-05
9.6316e-05
9.65151e-05
9.67138e-05
9.6912e-05
9.71097e-05
9.73068e-05
9.75031e-05
9.76986e-05
9.7893e-05
9.80861e-05
9.82777e-05
9.84674e-05
9.86549e-05
9.88397e-05
9.90213e-05
9.91993e-05
9.93728e-05
9.9541e-05
9.08796e-05
9.11142e-05
9.13471e-05
9.15782e-05
9.18077e-05
9.20356e-05
9.22619e-05
9.24868e-05
9.27104e-05
9.29326e-05
9.31536e-05
9.33734e-05
9.35921e-05
9.38098e-05
9.40265e-05
9.42424e-05
9.44574e-05
9.46716e-05
9.48851e-05
9.50979e-05
9.53102e-05
9.55219e-05
9.5733e-05
9.59438e-05
9.61541e-05
9.6364e-05
9.65736e-05
9.67829e-05
9.69919e-05
9.72006e-05
9.7409e-05
9.76172e-05
9.78252e-05
9.80328e-05
9.82401e-05
9.8447e-05
9.86535e-05
9.88595e-05
9.90648e-05
9.92695e-05
9.94733e-05
9.9676e-05
9.98774e-05
0.000100077
0.000100276
0.000100472
0.000100665
0.000100856
0.000101043
0.000101226
9.19316e-05
9.21731e-05
9.24132e-05
9.26516e-05
9.28883e-05
9.31234e-05
9.33571e-05
9.35892e-05
9.382e-05
9.40494e-05
9.42776e-05
9.45046e-05
9.47306e-05
9.49554e-05
9.51793e-05
9.54023e-05
9.56244e-05
9.58457e-05
9.60663e-05
9.62861e-05
9.65054e-05
9.6724e-05
9.69421e-05
9.71597e-05
9.73769e-05
9.75936e-05
9.78099e-05
9.80259e-05
9.82415e-05
9.84567e-05
9.86717e-05
9.88862e-05
9.91004e-05
9.93142e-05
9.95276e-05
9.97404e-05
9.99526e-05
0.000100164
0.000100375
0.000100585
0.000100793
0.000101
0.000101206
0.000101409
0.000101611
0.000101809
0.000102005
0.000102196
0.000102384
0.000102566
9.30856e-05
9.33348e-05
9.35823e-05
9.3828e-05
9.40721e-05
9.43146e-05
9.45557e-05
9.47954e-05
9.50337e-05
9.52707e-05
9.55065e-05
9.57412e-05
9.59748e-05
9.62074e-05
9.6439e-05
9.66697e-05
9.68996e-05
9.71287e-05
9.7357e-05
9.75847e-05
9.78118e-05
9.80382e-05
9.82642e-05
9.84896e-05
9.87147e-05
9.89392e-05
9.91634e-05
9.93872e-05
9.96107e-05
9.98338e-05
0.000100057
0.000100279
0.000100501
0.000100722
0.000100944
0.000101164
0.000101384
0.000101603
0.000101822
0.000102039
0.000102255
0.00010247
0.000102683
0.000102894
0.000103103
0.000103308
0.000103511
0.000103709
0.000103904
0.000104093
9.41859e-05
9.44417e-05
9.46964e-05
9.49496e-05
9.52015e-05
9.54521e-05
9.57011e-05
9.59488e-05
9.61952e-05
9.64404e-05
9.66845e-05
9.69274e-05
9.71692e-05
9.74101e-05
9.76501e-05
9.78892e-05
9.81274e-05
9.83649e-05
9.86017e-05
9.88379e-05
9.90734e-05
9.93084e-05
9.95429e-05
9.97768e-05
0.00010001
0.000100243
0.000100476
0.000100709
0.000100941
0.000101172
0.000101403
0.000101634
0.000101865
0.000102095
0.000102325
0.000102554
0.000102782
0.00010301
0.000103237
0.000103463
0.000103688
0.000103911
0.000104133
0.000104353
0.00010457
0.000104785
0.000104997
0.000105206
0.00010541
0.00010561
9.52347e-05
9.54989e-05
9.57616e-05
9.60228e-05
9.62824e-05
9.65406e-05
9.67976e-05
9.70535e-05
9.73084e-05
9.75621e-05
9.78148e-05
9.80664e-05
9.83168e-05
9.85662e-05
9.88146e-05
9.90621e-05
9.93088e-05
9.95547e-05
9.97999e-05
0.000100044
0.000100288
0.000100532
0.000100774
0.000101016
0.000101258
0.000101499
0.00010174
0.000101981
0.000102221
0.00010246
0.000102699
0.000102938
0.000103176
0.000103414
0.000103651
0.000103888
0.000104123
0.000104358
0.000104592
0.000104825
0.000105056
0.000105285
0.000105513
0.000105738
0.00010596
0.000106178
0.000106393
0.000106603
0.000106808
0.000107006
9.64025e-05
9.66746e-05
9.69453e-05
9.72144e-05
9.74821e-05
9.77484e-05
9.80133e-05
9.8277e-05
9.85395e-05
9.88008e-05
9.9061e-05
9.93205e-05
9.95792e-05
9.98372e-05
0.000100095
0.000100351
0.000100607
0.000100862
0.000101116
0.00010137
0.000101624
0.000101876
0.000102129
0.000102381
0.000102632
0.000102883
0.000103134
0.000103384
0.000103634
0.000103884
0.000104134
0.000104383
0.000104631
0.00010488
0.000105128
0.000105375
0.000105622
0.000105869
0.000106114
0.000106359
0.000106602
0.000106845
0.000107086
0.000107325
0.000107562
0.000107797
0.000108029
0.000108258
0.000108484
0.000108705
9.7291e-05
9.75731e-05
9.78539e-05
9.81333e-05
9.84113e-05
9.8688e-05
9.89633e-05
9.92374e-05
9.95104e-05
9.97822e-05
0.000100053
0.000100323
0.000100591
0.000100859
0.000101126
0.000101393
0.000101658
0.000101924
0.000102188
0.000102453
0.000102716
0.000102979
0.000103241
0.000103502
0.000103763
0.000104024
0.000104284
0.000104543
0.000104802
0.000105061
0.000105319
0.000105577
0.000105834
0.00010609
0.000106346
0.0001066
0.000106854
0.000107107
0.000107358
0.000107608
0.000107857
0.000108103
0.000108347
0.000108587
0.000108825
0.000109059
0.000109287
0.00010951
0.000109727
0.000109935
9.87121e-05
9.90027e-05
9.9292e-05
9.95799e-05
9.98665e-05
0.000100152
0.000100436
0.000100719
0.000101001
0.000101282
0.000101562
0.000101841
0.00010212
0.000102397
0.000102674
0.00010295
0.000103226
0.000103501
0.000103775
0.000104049
0.000104323
0.000104597
0.000104871
0.000105144
0.000105417
0.000105689
0.000105961
0.000106233
0.000106504
0.000106775
0.000107046
0.000107316
0.000107586
0.000107855
0.000108124
0.000108391
0.000108658
0.000108924
0.000109189
0.000109452
0.000109714
0.000109974
0.000110232
0.000110487
0.00011074
0.00011099
0.000111237
0.000111479
0.000111718
0.000111953
9.98253e-05
0.000100133
0.00010044
0.000100746
0.000101051
0.000101356
0.00010166
0.000101963
0.000102266
0.000102568
0.00010287
0.000103172
0.000103473
0.000103773
0.000104074
0.000104374
0.000104674
0.000104973
0.000105273
0.000105572
0.000105871
0.00010617
0.000106469
0.000106769
0.000107068
0.000107368
0.000107666
0.000107962
0.000108258
0.000108552
0.000108844
0.000109134
0.000109423
0.000109709
0.000109992
0.000110272
0.000110548
0.000110821
0.000111088
0.00011135
0.000111605
0.000111854
0.000112094
0.000112324
0.000112544
0.000112752
0.000112946
0.000113124
0.000113285
0.000113426
0.000104932
0.00010528
0.000105629
0.000105979
0.000106329
0.00010668
0.000107031
0.000107383
0.000107735
0.000108088
0.000108442
0.000108796
0.000109151
0.000109506
0.000109862
0.000110219
0.000110577
0.000110935
0.000111294
0.000111654
0.000112015
0.000112375
0.000112737
0.000113099
0.000113461
0.000113824
0.000114188
0.000114554
0.000114913
0.000115268
0.000115617
0.000115962
0.0001163
0.000116632
0.000116955
0.000117269
0.000117573
0.000117864
0.000118141
0.000118402
0.000118645
0.000118867
0.000119065
0.000119236
0.000119375
0.000119478
0.000119541
0.000119557
0.00011952
0.000119424
0.000122689
0.000123136
0.000123591
0.000124052
0.000124519
0.000124991
0.000125469
0.000125952
0.00012644
0.000126933
0.000127431
0.000127934
0.000128442
0.000128954
0.000129471
0.000129993
0.000130519
0.000131049
0.000131583
0.000132121
0.000132663
0.000133208
0.000133756
0.000134307
0.00013486
0.000135415
0.000135971
0.000136527
0.000137092
0.000137647
0.000138179
0.000138695
0.000139192
0.00013967
0.000140124
0.000140552
0.000140949
0.000141312
0.000141634
0.00014191
0.000142133
0.000142294
0.000142384
0.000142391
0.000142301
0.000142096
0.000141752
0.00014124
0.000140524
0.000139549
0.000190708
0.000191218
0.000191744
0.000192283
0.000192836
0.000193402
0.000193981
0.000194574
0.000195179
0.000195797
0.000196428
0.000197072
0.000197728
0.000198396
0.000199076
0.000199769
0.000200473
0.000201188
0.000201914
0.000202651
0.000203398
0.000204155
0.00020492
0.000205694
0.000206475
0.000207262
0.000208054
0.000208851
0.00020965
0.000210459
0.000211285
0.000212105
0.000212869
0.000213607
0.000214317
0.000214992
0.000215629
0.000216219
0.000216756
0.00021723
0.000217631
0.000217947
0.000218161
0.000218256
0.000218205
0.000217977
0.000217526
0.000216791
0.00021569
0.000214106
0.000379751
0.000379994
0.000380266
0.000380559
0.000380872
0.000381204
0.000381554
0.000381922
0.000382308
0.000382711
0.000383132
0.000383569
0.000384023
0.000384493
0.000384978
0.000385479
0.000385993
0.000386521
0.000387061
0.000387613
0.000388175
0.000388746
0.000389324
0.000389909
0.000390498
0.000391089
0.000391681
0.00039227
0.000392855
0.000393434
0.000394002
0.000394571
0.00039517
0.000395783
0.000396405
0.000397037
0.000397677
0.000398324
0.000398977
0.000399634
0.000400295
0.000400956
0.000401617
0.000402274
0.000402924
0.000403565
0.000404191
0.000404799
0.00040538
0.000405925
0.00108926
0.00107437
0.00106012
0.00104646
0.00103331
0.00102061
0.0010083
0.000996349
0.000984741
0.00097346
0.000962493
0.000951827
0.000941451
0.000931354
0.000921527
0.00091196
0.000902643
0.000893569
0.000884728
0.000876114
0.000867718
0.000859534
0.000851554
0.000843772
0.000836181
0.000828776
0.00082155
0.000814499
0.000807616
0.000800898
0.000794339
0.000787934
0.00078168
0.000775572
0.000769607
0.000763781
0.000758092
0.000752535
0.000747099
0.000741765
0.000736529
0.000731384
0.000726321
0.000721332
0.000716405
0.000711524
0.000706667
0.000701797
0.000696846
0.000691683
0.0010825
0.0010577
0.00103401
0.00101132
0.000989614
0.00096884
0.000948978
0.000929972
0.000911769
0.00089432
0.000877579
0.000861503
0.000846053
0.000831194
0.000816891
0.000803114
0.000789835
0.000777026
0.000764663
0.000752723
0.000741184
0.000730025
0.000719229
0.000708776
0.000698651
0.000688838
0.000679323
0.00067009
0.000661127
0.000652421
0.00064396
0.000635733
0.000627728
0.000619934
0.000612339
0.000604933
0.000597705
0.000590645
0.000583756
0.000577043
0.000570501
0.000564122
0.000557901
0.00055183
0.000545903
0.000540112
0.000534452
0.000528912
0.000523481
0.000518143
0.00108247
0.00105761
0.00103378
0.00101097
0.000989138
0.000968225
0.000948181
0.000928955
0.000910495
0.000892757
0.000875699
0.000859281
0.000843468
0.000828227
0.000813527
0.00079934
0.000785638
0.000772399
0.000759599
0.000747216
0.000735231
0.000723625
0.00071238
0.00070148
0.000690909
0.000680654
0.000670699
0.000661033
0.000651643
0.000642518
0.000633646
0.000625018
0.000616623
0.000608455
0.000600503
0.000592761
0.000585221
0.000577876
0.000570718
0.000563742
0.000556942
0.000550313
0.000543849
0.000537546
0.0005314
0.000525407
0.000519563
0.000513866
0.000508312
0.000502898
0.00108247
0.00105779
0.00103417
0.00101158
0.000989932
0.00096918
0.000949266
0.00093014
0.000911756
0.000894073
0.000877051
0.000860654
0.000844849
0.000829606
0.000814895
0.000800689
0.000786964
0.000773695
0.000760861
0.000748442
0.000736417
0.000724769
0.00071348
0.000702535
0.000691918
0.000681615
0.000671613
0.000661899
0.000652462
0.000643289
0.00063437
0.000625695
0.000617255
0.000609041
0.000601044
0.000593256
0.00058567
0.00057828
0.000571077
0.000564056
0.000557212
0.000550539
0.000544031
0.000537684
0.000531494
0.000525457
0.00051957
0.000513827
0.000508227
0.000502766
0.00108247
0.00105779
0.00103417
0.00101155
0.000989864
0.000969073
0.000949121
0.000929962
0.000911551
0.000893847
0.000876812
0.000860408
0.000844601
0.000829361
0.000814657
0.000800462
0.00078675
0.000773496
0.000760679
0.000748278
0.000736272
0.000724643
0.000713374
0.000702449
0.000691852
0.000681568
0.000671585
0.000661889
0.000652469
0.000643313
0.000634411
0.000625752
0.000617327
0.000609127
0.000601144
0.000593369
0.000585794
0.000578414
0.000571222
0.00056421
0.000557373
0.000550705
0.000544202
0.000537859
0.00053167
0.000525632
0.000519741
0.000513992
0.000508382
0.000502906
0.00108247
0.00105781
0.00103421
0.00101163
0.000989989
0.000969246
0.000949343
0.000930232
0.000911865
0.000894202
0.000877203
0.00086083
0.00084505
0.000829832
0.000815147
0.000800966
0.000787265
0.000774021
0.000761209
0.000748811
0.000736807
0.000725178
0.000713907
0.000702978
0.000692377
0.000682088
0.000672098
0.000662395
0.000652967
0.000643803
0.000634891
0.000626223
0.000617787
0.000609577
0.000601582
0.000593795
0.000586209
0.000578816
0.000571609
0.000564583
0.000557731
0.000551047
0.000544527
0.000538165
0.000531956
0.000525896
0.000519981
0.000514205
0.000508566
0.000503058
0.00108247
0.00105781
0.00103422
0.00101164
0.000990002
0.000969255
0.000949344
0.000930222
0.000911844
0.000894167
0.000877153
0.000860767
0.000844975
0.000829746
0.00081505
0.000800861
0.000787153
0.000773902
0.000761086
0.000748685
0.000736678
0.000725048
0.000713777
0.000702848
0.000692248
0.000681961
0.000671974
0.000662274
0.000652849
0.000643688
0.00063478
0.000626115
0.000617683
0.000609476
0.000601484
0.000593701
0.000586118
0.000578727
0.000571523
0.000564498
0.000557647
0.000550963
0.000544442
0.000538078
0.000531866
0.000525801
0.000519879
0.000514095
0.000508444
0.000502923
0.00108247
0.00105781
0.00103423
0.00101165
0.000990023
0.000969285
0.000949385
0.000930275
0.000911908
0.000894245
0.000877244
0.000860871
0.000845091
0.000829874
0.000815189
0.00080101
0.000787311
0.000774069
0.000761261
0.000748865
0.000736864
0.000725238
0.00071397
0.000703044
0.000692445
0.000682159
0.000672172
0.000662471
0.000653044
0.000643881
0.00063497
0.000626301
0.000617866
0.000609653
0.000601656
0.000593866
0.000586276
0.000578878
0.000571664
0.00056463
0.000557768
0.000551072
0.000544538
0.000538159
0.000531931
0.000525848
0.000519906
0.0005141
0.000508425
0.000502877
0.00108247
0.00105781
0.00103423
0.00101166
0.000990029
0.000969293
0.000949394
0.000930283
0.000911915
0.000894248
0.000877244
0.000860867
0.000845083
0.00082986
0.00081517
0.000800986
0.000787282
0.000774035
0.000761222
0.000748823
0.000736817
0.000725187
0.000713916
0.000702988
0.000692386
0.000682097
0.000672108
0.000662405
0.000652977
0.000643812
0.0006349
0.00062623
0.000617793
0.000609579
0.00060158
0.000593789
0.000586196
0.000578795
0.000571579
0.000564541
0.000557674
0.000550974
0.000544433
0.000538047
0.000531811
0.000525718
0.000519765
0.000513947
0.000508258
0.000502693
0.00108247
0.00105781
0.00103423
0.00101166
0.000990033
0.000969298
0.000949401
0.000930292
0.000911926
0.000894262
0.00087726
0.000860885
0.000845104
0.000829884
0.000815197
0.000801016
0.000787315
0.00077407
0.000761259
0.000748862
0.000736858
0.00072523
0.00071396
0.000703032
0.000692432
0.000682143
0.000672154
0.000662451
0.000653022
0.000643856
0.000634942
0.00062627
0.00061783
0.000609613
0.000601611
0.000593815
0.000586218
0.000578812
0.000571589
0.000564544
0.00055767
0.000550961
0.00054441
0.000538013
0.000531764
0.000525657
0.000519688
0.000513852
0.000508143
0.000502558
0.00108247
0.00105781
0.00103423
0.00101166
0.000990033
0.000969298
0.000949401
0.000930291
0.000911925
0.000894261
0.00087726
0.000860885
0.000845103
0.000829883
0.000815196
0.000801014
0.000787313
0.000774068
0.000761257
0.000748859
0.000736855
0.000725226
0.000713955
0.000703027
0.000692425
0.000682136
0.000672145
0.00066244
0.00065301
0.000643842
0.000634926
0.000626252
0.000617809
0.00060959
0.000601584
0.000593785
0.000586183
0.000578772
0.000571544
0.000564493
0.000557611
0.000550894
0.000544334
0.000537927
0.000531666
0.000525546
0.000519562
0.00051371
0.000507984
0.000502379
0.00108247
0.00105781
0.00103423
0.00101166
0.000990029
0.000969293
0.000949393
0.000930282
0.000911914
0.000894247
0.000877243
0.000860865
0.000845081
0.000829858
0.000815167
0.000800982
0.000787278
0.000774029
0.000761215
0.000748815
0.000736808
0.000725177
0.000713904
0.000702973
0.000692369
0.000682077
0.000672085
0.000662379
0.000652946
0.000643777
0.000634859
0.000626183
0.000617738
0.000609516
0.000601509
0.000593706
0.000586101
0.000578687
0.000571455
0.000564399
0.000557512
0.000550788
0.000544222
0.000537806
0.000531536
0.000525406
0.00051941
0.000513544
0.000507803
0.000502181
0.00108247
0.00105781
0.00103423
0.00101165
0.000990022
0.000969285
0.000949385
0.000930274
0.000911907
0.000894243
0.000877242
0.000860868
0.000845088
0.000829869
0.000815184
0.000801003
0.000787303
0.000774059
0.000761249
0.000748851
0.000736847
0.000725218
0.000713947
0.000703018
0.000692414
0.000682123
0.00067213
0.000662423
0.000652989
0.000643818
0.000634898
0.000626218
0.00061777
0.000609544
0.000601532
0.000593724
0.000586113
0.000578691
0.000571452
0.000564387
0.000557491
0.000550757
0.000544178
0.000537749
0.000531465
0.000525319
0.000519306
0.000513421
0.000507659
0.000502014
0.00108247
0.00105781
0.00103422
0.00101164
0.000990002
0.000969254
0.000949344
0.000930221
0.000911842
0.000894165
0.000877151
0.000860764
0.000844971
0.00082974
0.000815043
0.000800852
0.000787142
0.000773889
0.000761071
0.000748667
0.000736657
0.000725023
0.000713748
0.000702815
0.000692209
0.000681916
0.000671921
0.000662213
0.000652779
0.000643607
0.000634686
0.000626007
0.000617559
0.000609334
0.000601321
0.000593514
0.000585903
0.000578481
0.00057124
0.000564175
0.000557277
0.00055054
0.000543958
0.000537526
0.000531236
0.000525083
0.000519062
0.000513168
0.000507394
0.000501737
0.00108247
0.00105781
0.00103421
0.00101163
0.000989989
0.000969245
0.000949342
0.00093023
0.000911863
0.000894199
0.000877199
0.000860825
0.000845044
0.000829825
0.000815137
0.000800955
0.000787251
0.000774003
0.000761189
0.000748787
0.000736778
0.000725144
0.000713868
0.000702932
0.000692323
0.000682026
0.000672027
0.000662313
0.000652873
0.000643694
0.000634767
0.00062608
0.000617624
0.000609389
0.000601367
0.00059355
0.000585929
0.000578496
0.000571244
0.000564165
0.000557254
0.000550503
0.000543906
0.000537457
0.00053115
0.000524978
0.000518936
0.000513019
0.000507221
0.000501536
0.00108247
0.00105779
0.00103417
0.00101155
0.000989864
0.000969072
0.00094912
0.00092996
0.000911549
0.000893844
0.000876808
0.000860402
0.000844595
0.000829353
0.000814647
0.000800449
0.000786734
0.000773478
0.000760657
0.000748252
0.000736241
0.000724607
0.000713332
0.000702399
0.000691794
0.000681501
0.000671507
0.000661799
0.000652365
0.000643193
0.000634272
0.000625592
0.000617143
0.000608915
0.0006009
0.000593088
0.000585473
0.000578046
0.000570799
0.000563725
0.000556818
0.00055007
0.000543476
0.000537028
0.00053072
0.000524547
0.000518503
0.000512582
0.000506778
0.000501086
0.00108247
0.00105779
0.00103417
0.00101158
0.000989932
0.000969179
0.000949265
0.000930138
0.000911754
0.000894069
0.000877046
0.000860647
0.000844841
0.000829595
0.000814882
0.000800673
0.000786945
0.000773672
0.000760834
0.00074841
0.000736379
0.000724725
0.000713429
0.000702475
0.000691848
0.000681535
0.00067152
0.000661792
0.000652338
0.000643146
0.000634206
0.000625508
0.000617041
0.000608796
0.000600764
0.000592936
0.000585305
0.000577863
0.000570601
0.000563514
0.000556594
0.000549834
0.000543228
0.000536769
0.000530453
0.000524273
0.000518224
0.000512301
0.000506501
0.00050082
0.00108247
0.00105761
0.00103378
0.00101097
0.000989137
0.000968224
0.00094818
0.000928953
0.000910492
0.000892754
0.000875694
0.000859275
0.00084346
0.000828217
0.000813515
0.000799325
0.000785621
0.000772378
0.000759574
0.000747187
0.000735198
0.000723586
0.000712336
0.00070143
0.000690853
0.00068059
0.000670627
0.000660952
0.000651552
0.000642417
0.000633534
0.000624893
0.000616486
0.000608302
0.000600334
0.000592572
0.00058501
0.000577639
0.000570453
0.000563446
0.000556612
0.000549946
0.000543442
0.000537096
0.000530906
0.000524869
0.000518986
0.000513259
0.000507696
0.000502315
0.0010825
0.0010577
0.00103401
0.00101132
0.000989613
0.000968839
0.000948977
0.000929971
0.000911769
0.00089432
0.00087758
0.000861504
0.000846055
0.000831197
0.000816896
0.000803121
0.000789845
0.000777039
0.000764681
0.000752746
0.000741214
0.000730064
0.000719278
0.000708838
0.00069873
0.000688937
0.000679445
0.000670241
0.000661314
0.000652651
0.000644243
0.000636079
0.00062815
0.000620449
0.000612967
0.000605698
0.000598635
0.000591775
0.000585111
0.000578642
0.000572364
0.000566277
0.000560381
0.000554679
0.000549176
0.000543881
0.000538813
0.000534001
0.000529504
0.000525438
0.00108926
0.00107437
0.00106012
0.00104646
0.00103331
0.00102061
0.0010083
0.000996348
0.000984739
0.000973457
0.000962488
0.00095182
0.000941441
0.000931342
0.000921511
0.00091194
0.000902619
0.000893539
0.000884692
0.00087607
0.000867666
0.000859471
0.00085148
0.000843684
0.000836077
0.000828654
0.000821407
0.000814331
0.00080742
0.000800669
0.000794071
0.000787623
0.000781317
0.000775151
0.000769118
0.000763213
0.000757432
0.000751771
0.000746223
0.000740784
0.000735449
0.000730213
0.000725071
0.000720016
0.000715043
0.000710145
0.000705315
0.000700543
0.000695818
0.000691123
0.000466087
0.000252941
0.000195508
0.000188006
0.000184113
0.000182846
0.000180094
0.000178401
0.000176041
0.000174062
0.000172031
0.000169811
0.000168098
0.000165616
0.00016423
0.000161387
0.000161106
0.000164084
0.000209201
0.000390644
0.000466674
0.000253553
0.000196206
0.000188724
0.000184842
0.000183565
0.000180815
0.000179114
0.000176753
0.000174767
0.000172734
0.000170509
0.000168792
0.000166306
0.000164915
0.000162069
0.000161782
0.000164761
0.000209881
0.00039121
0.000467267
0.000254146
0.000196905
0.000189448
0.000185577
0.00018429
0.000181542
0.000179832
0.000177472
0.000175479
0.000173444
0.000171214
0.000169493
0.000167002
0.000165607
0.000162757
0.000162464
0.000165443
0.000210554
0.000391726
0.000467865
0.000254733
0.000197608
0.000190178
0.000186318
0.000185021
0.000182276
0.000180557
0.000178196
0.000176197
0.00017416
0.000171924
0.0001702
0.000167705
0.000166304
0.000163452
0.000163152
0.000166128
0.000211181
0.00039225
0.000468467
0.000255318
0.000198315
0.000190914
0.000187065
0.000185758
0.000183015
0.000181287
0.000178926
0.00017692
0.000174881
0.00017264
0.000170913
0.000168414
0.000167007
0.000164153
0.000163845
0.000166811
0.000211791
0.000392779
0.000469074
0.000255906
0.000199026
0.000191655
0.000187817
0.0001865
0.000183759
0.000182024
0.000179663
0.00017765
0.000175609
0.000173363
0.000171631
0.000169129
0.000167716
0.00016486
0.000164544
0.000167496
0.000212394
0.000393316
0.000469684
0.000256497
0.000199744
0.000192402
0.000188575
0.000187249
0.00018451
0.000182766
0.000180405
0.000178385
0.000176343
0.000174091
0.000172356
0.00016985
0.000168432
0.000165574
0.000165248
0.000168184
0.000212995
0.000393857
0.000470299
0.000257092
0.000200467
0.000193154
0.00018934
0.000188003
0.000185267
0.000183514
0.000181154
0.000179127
0.000177083
0.000174826
0.000173087
0.000170578
0.000169154
0.000166293
0.000165959
0.000168876
0.000213596
0.000394405
0.000470918
0.000257691
0.000201196
0.000193913
0.000190111
0.000188763
0.000186031
0.000184269
0.000181909
0.000179875
0.000177829
0.000175567
0.000173824
0.000171312
0.000169882
0.000167019
0.000166676
0.000169573
0.000214199
0.000394959
0.000471541
0.000258295
0.000201932
0.000194678
0.000190887
0.00018953
0.0001868
0.000185029
0.00018267
0.000180629
0.000178581
0.000176314
0.000174568
0.000172052
0.000170617
0.000167752
0.000167399
0.000170275
0.000214805
0.000395518
0.000472168
0.000258905
0.000202674
0.00019545
0.000191671
0.000190303
0.000187576
0.000185796
0.000183437
0.00018139
0.00017934
0.000177068
0.000175318
0.000172799
0.000171358
0.000168491
0.000168128
0.000170983
0.000215415
0.000396084
0.0004728
0.000259519
0.000203422
0.000196227
0.00019246
0.000191082
0.000188358
0.00018657
0.000184211
0.000182157
0.000180106
0.000177829
0.000176075
0.000173553
0.000172106
0.000169236
0.000168864
0.000171697
0.00021603
0.000396655
0.000473437
0.000260139
0.000204177
0.000197011
0.000193257
0.000191868
0.000189147
0.00018735
0.000184992
0.000182931
0.000180878
0.000178596
0.000176838
0.000174313
0.00017286
0.000169988
0.000169606
0.000172417
0.00021665
0.000397232
0.000474078
0.000260765
0.000204939
0.000197802
0.00019406
0.00019266
0.000189943
0.000188137
0.000185779
0.000183712
0.000181657
0.00017937
0.000177608
0.00017508
0.000173622
0.000170747
0.000170355
0.000173143
0.000217275
0.000397815
0.000474723
0.000261395
0.000205707
0.000198599
0.000194869
0.000193459
0.000190745
0.00018893
0.000186573
0.000184499
0.000182442
0.00018015
0.000178385
0.000175854
0.00017439
0.000171513
0.000171111
0.000173876
0.000217906
0.000398404
0.000475374
0.000262032
0.000206483
0.000199402
0.000195686
0.000194265
0.000191555
0.00018973
0.000187375
0.000185293
0.000183235
0.000180938
0.000179169
0.000176635
0.000175165
0.000172285
0.000171874
0.000174615
0.000218542
0.000399
0.000476029
0.000262674
0.000207265
0.000200213
0.00019651
0.000195077
0.000192371
0.000190538
0.000188183
0.000186094
0.000184034
0.000181733
0.00017996
0.000177423
0.000175946
0.000173065
0.000172643
0.000175362
0.000219185
0.000399602
0.000476689
0.000263322
0.000208054
0.000201031
0.00019734
0.000195897
0.000193194
0.000191352
0.000188998
0.000186903
0.000184841
0.000182535
0.000180758
0.000178218
0.000176736
0.000173852
0.00017342
0.000176115
0.000219835
0.00040021
0.000477355
0.000263976
0.000208851
0.000201855
0.000198178
0.000196724
0.000194025
0.000192173
0.00018982
0.000187718
0.000185655
0.000183344
0.000181564
0.00017902
0.000177532
0.000174646
0.000174204
0.000176876
0.000220491
0.000400825
0.000478025
0.000264635
0.000209655
0.000202687
0.000199023
0.000197557
0.000194863
0.000193002
0.00019065
0.000188541
0.000186476
0.000184161
0.000182376
0.00017983
0.000178336
0.000175448
0.000174995
0.000177645
0.000221154
0.000401446
0.000478701
0.000265301
0.000210466
0.000203526
0.000199875
0.000198399
0.000195708
0.000193838
0.000191487
0.000189371
0.000187305
0.000184985
0.000183197
0.000180647
0.000179147
0.000176257
0.000175794
0.00017842
0.000221824
0.000402074
0.000479382
0.000265973
0.000211285
0.000204372
0.000200735
0.000199247
0.000196561
0.000194682
0.000192331
0.000190209
0.000188141
0.000185816
0.000184024
0.000181472
0.000179966
0.000177074
0.000176601
0.000179204
0.000222501
0.00040271
0.000480068
0.000266651
0.000212111
0.000205226
0.000201602
0.000200103
0.000197421
0.000195533
0.000193184
0.000191055
0.000188985
0.000186656
0.00018486
0.000182305
0.000180792
0.000177899
0.000177415
0.000179995
0.000223185
0.000403352
0.00048076
0.000267335
0.000212945
0.000206087
0.000202478
0.000200967
0.000198289
0.000196392
0.000194044
0.000191908