/*--------------------------------*- C++ -*----------------------------------*\
  =========                 |
  \\      /  F ield         | OpenFOAM: The Open Source CFD Toolbox
   \\    /   O peration     | Website:  https://openfoam.org
    \\  /    A nd           | Version:  8
     \\/     M anipulation  |
\*---------------------------------------------------------------------------*/
FoamFile
{
    version     2.0;
    format      ascii;
    class       volScalarField;
    location    "200";
    object      p;
}
// * * * * * * * * * * * * * * * * * * * * * * * * * * * * * * * * * * * * * //

dimensions      [1 -1 -2 0 0 0 0];

internalField   nonuniform List<scalar> 
8400
(
11725.3
11729.7
11737.3
11745.1
11753.7
11762.8
11772.6
11782.9
11793.8
11805.4
11817.6
11830.7
11844.7
11859.8
11876.1
11893.9
11913.2
11934.4
11957.8
11983.7
12012.4
12044.4
12080.1
12120.1
12165.1
12216
12273.5
12338.8
12413
12497.6
12594.1
12704.3
12830.3
12974.7
13140.1
13330.1
13548.3
13799.3
14088.3
14421.3
14805.7
15249.9
15764.6
16363.5
17063.2
17878.1
18822.8
19956.9
21447.9
23394.8
11615.7
11613
11618.1
11625
11632.9
11641.5
11650.5
11660.2
11670.3
11681
11692.3
11704.3
11717.2
11731
11746
11762.3
11780
11799.4
11820.8
11844.5
11870.8
11900
11932.8
11969.6
12011
12057.8
12110.9
12171.2
12239.8
12318.1
12407.5
12509.7
12626.7
12760.8
12914.6
13091.2
13294.1
13527.3
13795.4
14103.9
14459
14867.8
15338.7
15882.1
16509.3
17228.9
18047.7
18995.7
20156.5
21583.7
11537
11547.7
11558.1
11567.5
11577.1
11587.1
11597.5
11608.5
11619.9
11632
11644.8
11658.4
11672.8
11688.4
11705.1
11723.3
11742.9
11764.4
11788
11813.9
11842.5
11874.3
11909.7
11949.2
11993.5
12043.3
12099.5
12163
12234.9
12316.6
12409.6
12515.4
12636.1
12774
12931.6
13112
13318.7
13555.6
13827.3
14139.2
14497.2
14908.1
15379.6
15920.9
16541.2
17247.5
18045.3
18949.5
19990.5
21165.1
11388
11388.3
11393.7
11401.2
11409.2
11417.7
11426.6
11435.7
11445.2
11455.1
11465.5
11476.5
11488.1
11500.7
11514.1
11528.5
11544.2
11561.4
11580.1
11600.8
11623.8
11649.2
11677.7
11709.7
11745.7
11786.4
11832.5
11884.8
11944.3
12012.2
12089.7
12178.4
12279.9
12396.3
12530
12683.4
12859.7
13062.3
13295.3
13563.2
13871
14224.7
14630.6
15096.1
15628.4
16233.6
16917.1
17687.9
18560.9
19532.7
11337.5
11359.9
11374.1
11385.5
11396.1
11406.6
11417.3
11428.3
11439.6
11451.4
11463.8
11476.8
11490.6
11505.2
11520.8
11537.5
11555.4
11574.9
11596
11619
11644.3
11672.1
11702.9
11737.2
11775.4
11818
11865.8
11919.5
11980.1
12048.5
12125.9
12213.7
12313.5
12426.9
12556.1
12703.4
12871.3
13062.9
13281.6
13531
13815.3
14138.9
14506.7
14923.6
15394.1
15921.3
16506.7
17152.4
17864.6
18642.3
11170.7
11170.7
11176
11183.9
11192.4
11201
11209.9
11218.9
11228.1
11237.7
11247.6
11257.9
11268.7
11280.2
11292.4
11305.3
11319.2
11334.2
11350.6
11368.4
11388
11409.7
11433.8
11460.7
11490.7
11524.5
11562.5
11605.4
11653.9
11709
11771.8
11843.3
11924.9
12018.1
12124.8
12246.9
12386.8
12547.2
12730.9
12941.1
13181.5
13455.9
13768.3
14122.7
14522.6
14970.4
15466.1
16009
16600.9
17242.9
11142
11168.1
11183.3
11195.1
11205.7
11215.9
11226
11236.2
11246.6
11257.3
11268.3
11279.7
11291.5
11303.9
11316.9
11330.5
11345
11360.4
11377
11394.9
11414.3
11435.4
11458.6
11484.1
11512.3
11543.5
11578.2
11616.8
11660.1
11708.7
11763.4
11825.1
11894.8
11973.8
12063.5
12165.4
12281.3
12413.3
12563.5
12734.5
12928.8
13149.4
13399.2
13681.2
13997.8
14350.7
14739.6
15163.1
15623
16121.7
10964.4
10962.8
10967.5
10975.4
10984
10992.8
11001.7
11010.6
11019.6
11028.8
11038.3
11047.9
11057.9
11068.3
11079.1
11090.4
11102.3
11115
11128.6
11143.2
11158.9
11176
11194.8
11215.4
11238.1
11263.1
11290.8
11321.6
11356
11394.5
11437.8
11486.5
11541.4
11603.4
11673.8
11753.6
11844.4
11947.4
12064.5
12197.6
12348.6
12519.7
12713
12930.6
13174.4
13445.3
13743.1
14066.5
14417
14798
10946.1
10972.8
10987.7
10999
11009
11018.4
11027.6
11036.7
11045.8
11054.9
11064.1
11073.4
11082.7
11092.3
11102
11112.1
11122.4
11133.3
11144.6
11156.5
11169.1
11182.6
11197
11212.6
11229.3
11247.5
11267.3
11288.9
11312.8
11339.1
11368.3
11400.7
11437
11477.6
11523.3
11575
11633.4
11699.6
11774.7
11860
11956.7
12066.5
12190.9
12331.3
12489.3
12665.7
12860.8
13074.3
13308
13565.7
10763.5
10761.5
10765.7
10773.3
10781.8
10790.4
10798.9
10807.3
10815.7
10824.2
10832.6
10841.1
10849.6
10858.2
10867
10876
10885.2
10894.8
10904.6
10914.9
10925.6
10936.9
10948.7
10961.2
10974.4
10988.3
11003.1
11019
11035.9
11054
11073.5
11094.4
11117.1
11141.8
11168.8
11198.4
11231
11267
11306.9
11351.4
11401
11456.5
11518.8
11588.9
11667.8
11756.4
11855.5
11965.7
12089.7
12232.1
10748.3
10774.7
10789.2
10800
10809.4
10818.1
10826.4
10834.4
10842.3
10850
10857.4
10864.8
10871.9
10878.9
10885.8
10892.6
10899.3
10905.9
10912.4
10918.8
10925.1
10931.3
10937.4
10943.3
10948.9
10954.4
10959.5
10964.3
10968.7
10972.7
10976
10978.6
10980.5
10981.6
10981.8
10981
10979.2
10976.1
10971.9
10966.5
10960
10952.4
10944.1
10935.6
10927.5
10921
10917.3
10918.4
10927.9
10951
10566.5
10565.2
10569.3
10576.5
10584.3
10592.1
10599.6
10606.8
10613.9
10620.8
10627.5
10634
10640.4
10646.5
10652.5
10658.3
10663.9
10669.3
10674.4
10679.2
10683.7
10687.7
10691.2
10694.1
10696.2
10697.4
10697.5
10696.4
10693.8
10689.3
10682.8
10673.7
10661.8
10646.6
10627.5
10604
10575.6
10541.4
10500.7
10452.8
10396.9
10332.3
10258.6
10175.6
10083.2
9982.44
9874.92
9763.65
9653.23
9550.96
10548.3
10573.9
10588.1
10598.6
10607.5
10615.6
10623.2
10630.4
10637.2
10643.8
10650.1
10656
10661.6
10666.8
10671.6
10675.9
10679.8
10683.1
10685.8
10687.8
10688.9
10689
10688
10685.6
10681.6
10675.8
10667.9
10657.4
10644.1
10627.4
10606.6
10581.4
10550.8
10514.1
10470.3
10418.5
10357.5
10286
10202.8
10106.2
9994.97
9867.54
9722.73
9559.67
9378
9178.31
8962.6
8734.98
8502
8272.94
10374.9
10375.6
10379.9
10386.5
10393.2
10399.6
10405.6
10411.2
10416.4
10421.3
10425.8
10429.9
10433.6
10436.8
10439.5
10441.5
10442.9
10443.6
10443.4
10442.2
10439.8
10436.1
10430.7
10423.4
10413.9
10401.8
10386.7
10368.1
10345.5
10318.2
10285.4
10246.4
10200
10145.1
10080.5
10004.6
9915.95
9812.52
9692.27
9552.97
9392.21
9207.46
8996.31
8756.5
8486.38
8185.3
7854.16
7496.79
7121.11
6741.46
10347
10371
10384.3
10393.9
10402
10409.2
10415.8
10422.1
10427.9
10433.5
10438.7
10443.5
10447.9
10451.7
10455
10457.5
10459.3
10460.1
10459.9
10458.5
10455.6
10451
10444.3
10435.3
10423.6
10408.7
10390.1
10367.1
10339.1
10305.3
10264.7
10216.1
10158.2
10089.5
10008.3
9912.54
9800.04
9668.24
9514.25
9334.92
9126.78
8886.2
8609.38
8292.7
7933.4
7529.66
7081.31
6592.05
6073.02
5544.82
10194.2
10196.5
10200.7
10206
10211.2
10215.8
10220.1
10223.9
10227.4
10230.4
10233
10235
10236.4
10237
10236.8
10235.7
10233.5
10230.1
10225.2
10218.7
10210.2
10199.6
10186.3
10170
10150.1
10126.1
10097.4
10063.2
10022.6
9974.69
9918.22
9851.81
9773.87
9682.61
9575.95
9451.5
9306.52
9137.92
8942.19
8715.34
8453.01
8150.35
7801.98
7402.62
6947.5
6432.23
5852.39
5205.84
4501.57
3770.6
10150.9
10168.6
10178.7
10185.9
10191.8
10197.2
10202.3
10207.2
10211.7
10216
10219.9
10223.4
10226.4
10228.7
10230.3
10231
10230.7
10229.1
10226.1
10221.5
10215
10206.2
10194.7
10180.1
10161.8
10139.2
10111.7
10078.5
10038.8
9991.66
9935.52
9868.91
9790.08
9697.02
9587.38
9458.4
9306.91
9129.27
8921.29
8678.1
8394.12
8062.82
7676.65
7227.42
6706.97
6106.85
5416.17
4623.35
3734.95
2801.44
10037.8
10031.9
10033.2
10035.7
10038.6
10041.5
10044.3
10046.8
10049.1
10051
10052.4
10053.2
10053.4
10052.7
10051.1
10048.2
10044
10038.3
10030.7
10021
10009
9994.07
9975.92
9953.98
9927.67
9896.3
9859.11
9815.11
9762.9
9701.18
9628.58
9543.38
9443.48
9326.38
9189.24
9028.84
8841.38
8622.4
8366.72
8068.32
7720.16
7313.78
6839.29
6285.26
5639.94
4891.97
4025.97
3016.89
1851.88
594.349
9969.22
9969.65
9972.82
9975.48
9978.38
9981.47
9984.63
9987.74
9990.7
9993.41
9995.77
9997.66
9998.97
9999.55
9999.22
9997.8
9995.11
9990.94
9985.03
9977.13
9966.89
9953.92
9937.79
9917.97
9893.89
9864.89
9830.18
9788.86
9739.75
9681.47
9612.44
9531.24
9436.15
9324.43
9193.04
9038.82
8858.11
8646.52
8398.93
8109.31
7770.51
7373.96
6909.14
6363.01
5721.57
4972.09
4095.22
3037.65
1714.13
149.725
9876.25
9865.36
9864.24
9864.61
9866.05
9868.02
9870.21
9872.41
9874.47
9876.25
9877.63
9878.5
9878.71
9878.09
9876.45
9873.61
9869.35
9863.44
9855.62
9845.6
9833.03
9817.51
9798.56
9775.65
9748.15
9715.39
9676.58
9630.78
9576.94
9513.8
9439.83
9352.46
9248.72
9126.27
8982.52
8813.97
8616.47
8385.07
8113.9
7795.82
7422.17
6982.42
6462.7
5844.85
5107
4226.41
3167.78
1827.97
-1.22215
-2364.51
18898.8
10736.7
6703.69
5185.22
4350.76
3741.93
3318.26
3033.96
2833.78
2682.69
2563
2464.82
2381.62
2308.92
2243.65
2183.68
2127.48
2073.86
2021.88
1970.76
1919.79
1868.36
1815.84
1761.6
1704.99
1645.3
1581.73
1513.41
1439.33
1358.33
1269.06
1170.02
1059.46
935.388
795.303
636.264
454.844
247.039
8.02719
-268.127
-588.575
-961.928
-1398.85
-1912.85
-2521.41
-3247.98
-4125.53
-5203.29
-6561.7
-8337.41
-6733.78
-2144.58
-642.848
-76.5914
357.68
683.272
907.643
1067.73
1186.59
1275.42
1341.5
1390.26
1425.61
1450.26
1466.16
1474.75
1477.08
1473.92
1465.83
1453.17
1436.18
1414.94
1389.43
1359.51
1324.93
1285.3
1240.14
1188.8
1130.48
1064.14
988.555
902.329
803.753
690.789
561.209
412.304
240.813
42.8194
-186.265
-451.869
-760.661
-1120.81
-1542.31
-2037.48
-2621.76
-3314.72
-4141.3
-5133.02
-6327.42
-7758.35
498.146
2668.16
3851.29
3953.95
3797.29
3625.63
3439.32
3248.1
3069.72
2910.61
2769.83
2644.92
2533.48
2433.28
2342.32
2258.83
2181.35
2108.6
2039.5
1973.1
1908.55
1845.07
1781.91
1718.34
1653.62
1586.96
1517.58
1444.61
1367.11
1284
1194.02
1095.66
987.186
866.495
731.3
578.975
406.407
209.906
-14.923
-273.234
-571.086
-915.732
-1315.84
-1781.79
-2325.98
-2963.1
-3710.17
-4585.73
-5607.01
-6782.28
749.194
1158.25
1349.72
1278.06
1175.83
1132.43
1120.8
1118.54
1122.81
1132.69
1145.32
1158.12
1169.54
1178.73
1185.2
1188.62
1188.84
1185.78
1179.38
1169.6
1156.39
1139.63
1119.19
1094.85
1066.29
1033.11
994.828
950.822
900.392
842.797
777.088
702.044
616.245
518.075
405.514
276.197
127.353
-44.2718
-242.5
-471.788
-737.339
-1045.25
-1402.62
-1817.6
-2299.43
-2858.12
-3503.85
-4245.32
-5086.39
-6020.26
1190.63
1439.72
1756.34
1988
2127.88
2217.14
2269.45
2288.38
2282.01
2259.05
2225.32
2184.42
2138.83
2090.33
2040.09
1988.87
1937.12
1885.06
1832.78
1780.23
1727.28
1673.74
1619.34
1563.78
1506.69
1447.61
1385.97
1321.05
1252.06
1178.13
1098.24
1011.27
915.917
810.639
693.612
562.72
415.52
249.179
60.4118
-154.569
-400.112
-681.176
-1003.34
-1372.75
-1795.92
-2279.32
-2828.59
-3447.07
-4133.39
-4878.76
1296.77
1382.4
1490.51
1552.53
1555.17
1527.05
1488.62
1446.35
1403.21
1361.95
1324.03
1289.64
1258.4
1229.78
1203.22
1178.14
1154.02
1130.36
1106.73
1082.72
1057.96
1032.07
1004.69
975.431
943.926
909.788
872.539
831.661
786.558
736.495
680.645
618.07
547.677
468.19
378.115
275.721
159.01
25.6773
-126.92
-301.792
-502.328
-732.295
-995.784
-1297.08
-1640.41
-2029.49
-2466.77
-2952.32
-3482.09
-4046.58
1312.34
1356.72
1428.44
1500.65
1555.98
1596.87
1628.46
1651.45
1665.51
1671.35
1670.16
1662.93
1650.5
1633.58
1612.84
1588.83
1562
1532.74
1501.31
1467.93
1432.73
1395.8
1357.1
1316.54
1273.97
1229.2
1181.96
1131.93
1078.7
1021.74
960.428
894.05
821.76
742.565
655.308
558.644
451.024
330.677
195.588
43.4982
-128.095
-321.903
-540.768
-787.526
-1064.75
-1374.4
-1717.18
-2091.89
-2494.36
-2917.27
1273.29
1295.48
1333.26
1373.23
1401.38
1414.26
1414.4
1404.45
1386.4
1362.32
1334.19
1303.57
1271.59
1239.03
1206.4
1174.01
1142.01
1110.45
1079.27
1048.39
1017.65
986.876
955.859
924.381
892.174
858.943
824.373
788.114
749.769
708.884
664.95
617.393
565.56
508.702
445.966
376.376
298.826
212.069
114.716
5.23149
-118.039
-256.833
-412.893
-587.839
-782.97
-998.974
-1235.53
-1490.82
-1760.88
-2039.56
1207.14
1220.74
1245.8
1276.42
1303.9
1324.17
1337.37
1344.52
1346.37
1343.54
1336.7
1326.47
1313.36
1297.76
1280
1260.32
1238.96
1216.09
1191.86
1166.37
1139.71
1111.94
1083.09
1053.18
1022.15
989.969
956.534
921.728
885.395
847.333
807.297
764.996
720.085
672.16
620.751
565.318
505.247
439.851
368.368
289.976
203.811
109.002
4.73239
-109.67
-234.599
-369.992
-515.095
-668.209
-826.423
-985.876
1123.7
1133.79
1152.96
1177.5
1200.41
1217.1
1226.35
1228.55
1224.39
1214.68
1200.38
1182.45
1161.78
1139.06
1114.87
1089.65
1063.75
1037.41
1010.8
984.042
957.209
930.339
903.446
876.521
849.54
822.459
795.229
767.788
740.064
711.973
683.419
654.298
624.491
593.869
562.288
529.593
495.619
460.193
423.144
384.312
343.56
300.806
256.045
209.406
161.208
112.041
62.8592
15.0846
-29.2743
-67.6841
1027.31
1037.42
1056.65
1081.27
1104.29
1121.13
1130.57
1133
1129.12
1119.76
1105.87
1088.44
1068.36
1046.34
1022.98
998.736
973.976
948.971
923.928
898.998
874.295
849.906
825.9
802.333
779.256
756.717
734.769
713.47
692.889
673.108
654.223
636.353
619.638
604.246
590.38
578.282
568.239
560.592
555.748
554.183
556.456
563.211
575.188
593.216
618.207
651.136
693.004
744.785
807.347
881.437
917.957
931.619
956.82
987.682
1015.5
1036.22
1049.97
1057.8
1060.46
1058.6
1052.92
1044.06
1032.57
1018.86
1003.31
986.245
967.938
948.647
928.606
908.033
887.136
866.116
845.172
824.501
804.307
784.798
766.201
748.756
732.729
718.417
706.15
696.306
689.313
685.664
685.925
690.748
700.884
717.191
740.652
772.377
813.608
865.713
930.16
1008.47
1102.15
1212.55
1340.75
1487.31
1652.05
1834.17
791.212
813.515
851.526
891.895
920.596
934.203
935.262
926.437
909.768
887.341
861.176
832.897
803.682
774.375
745.57
717.674
690.951
665.569
641.633
619.213
598.361
579.13
561.583
545.804
531.906
520.035
510.383
503.188
498.747
497.423
499.649
505.947
516.931
533.328
555.988
585.902
624.217
672.257
731.533
803.752
890.82
994.82
1117.97
1262.55
1430.74
1624.45
1845.01
2092.8
2366.84
2665.13
637.232
681.763
753.799
826.543
882.64
924.523
957.344
981.843
997.718
1005.74
1007.14
1003
994.204
981.583
965.895
947.822
927.965
906.857
884.979
862.767
840.623
818.93
798.057
778.375
760.262
744.12
730.38
719.519
712.067
708.623
709.87
716.589
729.679
750.172
779.262
818.323
868.932
932.897
1012.28
1109.39
1226.83
1367.43
1534.22
1730.33
1958.78
2222.22
2522.45
2859.89
3232.72
3636.97
428.44
514.239
622.748
685.436
689.014
662.13
625.272
584.918
544.116
505.66
471.073
440.625
414.039
390.897
370.765
353.228
337.936
324.618
313.088
303.239
295.042
288.537
283.832
281.105
280.598
282.627
287.583
295.942
308.271
325.243
347.648
376.413
412.618
457.522
512.585
579.501
660.222
756.998
872.398
1009.35
1171.13
1361.38
1584.09
1843.41
2143.55
2488.39
2880.92
3322.48
3811.56
4344.1
128.815
378.108
695.2
927.644
1068.63
1159.34
1213.47
1234.57
1230.83
1211.06
1181.14
1144.77
1104.54
1062.35
1019.54
977.059
935.552
895.507
857.293
821.213
787.537
756.522
728.44
703.587
682.302
664.981
652.089
644.172
641.878
645.97
657.344
677.054
706.334
746.626
799.613
867.253
951.82
1055.94
1182.65
1335.41
1518.18
1735.41
1992.04
2293.41
2645.14
3052.72
3520.91
4052.62
4647.01
5298.64
-506.414
-97.1131
94.8696
24.0672
-76.9457
-118.712
-128.314
-128.061
-120.755
-107.241
-90.2866
-72.3821
-54.9322
-38.6359
-23.8304
-10.6172
1.07791
11.453
20.7887
29.4236
37.7408
46.1627
55.15
65.2058
76.882
90.7883
107.604
128.093
153.116
183.654
220.827
265.919
320.406
385.99
464.636
558.614
670.549
803.472
960.885
1146.82
1365.92
1623.48
1925.52
2278.82
2690.81
3169.4
3722.42
4356.53
5074.9
5875.96
-951.564
1218.73
2402.42
2506.01
2350.68
2180.72
1996.55
1808.11
1633.06
1477.91
1341.85
1222.52
1117.66
1025.22
943.376
870.594
805.654
747.601
695.708
649.444
608.446
572.498
541.519
515.55
494.757
479.425
469.964
466.921
470.984
483.004
504.009
535.232
578.137
634.45
706.205
795.786
905.984
1040.06
1201.82
1395.71
1626.9
1901.43
2226.32
2609.73
3061.09
3591.14
4211.8
4935.33
5771.83
6726.59
-8377.92
-3788.45
-2286.14
-1718.91
-1283.26
-955.915
-729.269
-566.38
-444.127
-351.206
-280.267
-225.737
-183.572
-150.887
-125.538
-105.858
-90.5195
-78.4299
-68.6668
-60.4228
-52.9661
-45.6101
-37.6869
-28.5254
-17.4306
-3.66411
13.5759
35.1744
62.1218
95.5372
136.695
187.056
248.299
322.363
411.492
518.287
645.774
797.47
977.481
1190.61
1442.48
1739.74
2090.25
2503.4
2990.5
3565.33
4244.75
5049.32
6002.68
7130.96
17059.7
8897.89
4865.5
3348.04
2515.04
1908.18
1486.95
1205.56
1008.92
862.085
747.459
655.28
579.162
514.79
459.312
410.845
368.124
330.295
296.803
267.311
241.653
219.805
201.863
188.038
178.65
174.135
175.042
182.056
196.002
217.867
248.822
290.252
343.78
411.314
495.09
597.721
722.271
872.328
1052.1
1266.54
1521.51
1823.96
2182.26
2606.59
3109.63
3707.61
4422.21
5284.21
6340.54
7673.34
-20406.2
-15803.3
-14234.3
-10285.5
-8321.22
-4911.21
-2812.72
235.874
2337.53
5140.37
7167.87
9805.93
11701.4
14243.6
15948.3
18466
19895.9
22473.7
23473.2
26099.4
-20442
-15851.6
-14292.4
-10345.5
-8388.12
-4976.46
-2883.68
167.234
2264.53
5069.66
7093.72
9734.48
11627.3
14173.5
15877.1
18401.9
19834.6
22427.4
23440.7
26105.5
-20486.4
-15898.4
-14348.8
-10402.7
-8452.07
-5039.27
-2951.65
101.175
2194.46
5001.88
7022.88
9666.51
11557.4
14107.6
15811.2
18342.3
19778.8
22382.3
23405.4
26087.7
-20535.3
-15945.8
-14404.1
-10458
-8513.76
-5099.76
-3017.11
37.5996
2126.99
4936.77
6954.85
9601.44
11490.6
14044.7
15748.3
18284.6
19724.1
22334.9
23363
26053.2
-20586.4
-15994.1
-14458.9
-10512.1
-8573.78
-5158.38
-3080.53
-23.8927
2061.7
4873.84
6889.07
9538.56
11426
13983.7
15687
18227.7
19668.8
22284.3
23314.3
26009.2
-20638.6
-16042.8
-14513.3
-10565.4
-8632.54
-5215.52
-3142.33
-83.6798
1998.15
4812.65
6825
9477.25
11362.8
13923.6
15626.2
18170.5
19611.9
22230.8
23260.8
25958.9
-20691.3
-16091.7
-14567.4
-10617.9
-8690.31
-5271.46
-3202.81
-142.096
1936
4752.81
6762.24
9417.07
11300.5
13864
15565.6
18112.5
19553.4
22174.7
23203.7
25904.4
-20744.1
-16140.6
-14621.2
-10669.9
-8747.26
-5326.45
-3262.24
-199.421
1874.94
4693.99
6700.4
9357.61
11238.7
13804.7
15504.7
18053.8
19493.3
22116.5
23143.8
25846.8
-20796.9
-16189.3
-14674.6
-10721.3
-8803.54
-5380.65
-3320.82
-255.882
1814.74
4635.94
6639.23
9298.62
11177.2
13745.3
15443.3
17994.3
19431.8
22056.6
23081.8
25786.9
-20849.5
-16237.8
-14727.6
-10772.2
-8859.23
-5434.21
-3378.72
-311.678
1755.18
4578.45
6578.54
9239.91
11115.8
13685.7
15381.5
17934
19369.3
21995.4
23018.2
25725.4
-20901.8
-16285.9
-14780.3
-10822.7
-8914.44
-5487.23
-3436.07
-366.942
1696.12
4521.35
6518.17
9181.36
11054.5
13625.9
15319.2
17873
19305.9
21933
22953.4
25662.5
-20953.9
-16333.7
-14832.6
-10872.8
-8969.22
-5539.81
-3492.96
-421.789
1637.45
4464.55
6458
9122.87
10993
13565.9
15256.5
17811.5
19241.8
21869.8
22887.6
25598.6
-21005.6
-16381.2
-14884.6
-10922.5
-9023.63
-5592.01
-3549.49
-476.305
1579.07
4407.96
6397.98
9064.4
10931.5
13505.7
15193.5
17749.6
19177
21805.8
22821
25534
-21057
-16428.3
-14936.3
-10971.9
-9077.7
-5643.88
-3605.71
-530.555
1520.94
4351.51
6338.08
9005.94
10870
13445.3
15130.2
17687.2
19111.7
21741.3
22753.8
25468.7
-21108.1
-16475.1
-14987.7
-11020.9
-9131.47
-5695.47
-3661.65
-584.579
1463
4295.2
6278.27
8947.47
10808.3
13384.7
15066.6
17624.5
19046
21676.4
22686.1
25402.9
-21158.9
-16521.6
-15038.7
-11069.7
-9184.97
-5746.79
-3717.34
-638.405
1405.25
4239
6218.54
8888.99
10746.6
13324
15002.8
17561.5
18980.1
21611.1
22618
25336.8
-21209.4
-16567.8
-15089.6
-11118.2
-9238.21
-5797.88
-3772.81
-692.045
1347.68
4182.91
6158.9
8830.53
10684.9
13263.2
14938.9
17498.4
18913.9
21545.5
22549.6
25270.3
-21259.6
-16613.7
-15140.1
-11166.4
-9291.18
-5848.72
-3828.04
-745.501
1290.28
4126.93
6099.36
8772.09
10623.2
13202.4
14875
17435.1
18847.5
21479.8
22481
25203.7
-21309.5
-16659.3
-15190.4
-11214.4
-9343.9
-5899.32
-3883.05
-798.769
1233.07
4071.07
6039.93
8713.71
10561.5
13141.5
14810.9
17371.7
18781
21413.9
22412.3
25136.9
-21359.2
-16704.6
-15240.4
-11262
-9396.36
-5949.69
-3937.82
-851.849
1176.04
4015.33
5980.64
8655.39
10499.9
13080.6
14746.9
17308.3
18714.5
21347.9
22343.5
25070
-21408.5
-16749.6
-15290.1
-11309.4
-9448.55
-5999.81
-3992.36
-904.735
1119.21
3959.74
5921.5
8597.15
10438.4
13019.8
14682.9
17244.9
18648
21281.9
22274.6
25003.1
-21457.5
-16794.2
-15339.5
-11356.5
-9500.46
-6049.68
-4046.64
-957.414
1062.59
3904.31
5862.52
8539.02
10377
12959
14619
17181.6
18581.5
21216
22205.8
24936.2
-21506.3
-16838.6
-15388.6
-11403.3
-9552.09
-6099.28
-4100.66
-1009.87
1006.21
3849.05
5803.73
8481.03
10315.8
12898.4
14555.2
17118.3
18515.1
21150.1
22137.1
24869.5
-21554.6
-16882.6
-15437.4
-11449.8
-9603.42
-6148.62
-4154.4
-1062.1
950.066
3793.98
5745.16
8423.2
10254.7
12837.8
14491.6
17055.2
18448.8
21084.4
22068.5
24802.8
-21602.7
-16926.2
-15485.9
-11495.9
-9654.44
-6197.68
-4207.87
-1114.09
894.184
3739.11
5686.81
8365.55
10193.9
12777.5
14428.1
16992.2
18382.8
21018.9
22000
24736.4
-21650.4
-16969.5
-15534.1
-11541.8
-9705.15
-6246.45
-4261.03
-1165.82
838.584
3684.49
5628.73
8308.11
10133.2
12717.3
14364.9
16929.4
18316.9
20953.5
21931.8
24670.2
-21697.8
-17012.5
-15581.9
-11587.3
-9755.54
-6294.92
-4313.88
-1217.28
783.283
3630.11
5570.93
8250.9
10072.9
12657.4
14301.9
16866.9
18251.3
20888.4
21863.8
24604.2
-21744.8
-17055.1
-15629.4
-11632.5
-9805.6
-6343.08
-4366.41
-1268.45
728.299
3575.99
5513.43
8193.94
10012.8
12597.7
14239.2
16804.6
18185.9
20823.5
21796
24538.4
-21791.5
-17097.3
-15676.6
-11677.3
-9855.32
-6390.92
-4418.6
-1319.32
673.644
3522.16
5456.25
8137.26
9953.04
12538.3
14176.8
16742.5
18120.8
20758.9
21728.6
24473
-21837.8
-17139.2
-15723.4
-11721.8
-9904.69
-6438.43
-4470.44
-1369.88
619.335
3468.63
5399.42
8080.87
9893.6
12479.2
14114.7
16680.7
18056
20694.6
21661.3
24407.8
-21883.8
-17180.7
-15769.8
-11766
-9953.71
-6485.61
-4521.92
-1420.12
565.384
3415.41
5342.93
8024.78
9834.5
12420.4
14052.9
16619.3
17991.5
20630.6
21594.4
24342.9
-21929.4
-17221.9
-15816
-11809.8
-10002.4
-6532.46
-4573.04
-1470.03
511.8
3362.51
5286.8
7968.99
9775.73
12361.8
13991.4
16558.1
17927.3
20566.9
21527.8
24278.3
-21974.7
-17262.7
-15861.7
-11853.2
-10050.7
-6578.96
-4623.79
-1519.61
458.587
3309.92
5231.03
7913.5
9717.32
12303.6
13930.3
16497.2
17863.4
20503.4
21461.5
24214.1
-22019.6
-17303.1
-15907.1
-11896.3
-10098.6
-6625.11
-4674.15
-1568.86
405.748
3257.65
5175.63
7858.33
9659.26
12245.6
13869.5
16436.7
17799.9
20440.3
21395.5
24150.1
-22064.1
-17343.1
-15952.2
-11939
-10146.1
-6670.9
-4724.14
-1617.77
353.283
3205.7
5120.59
7803.48
9601.58
12188
13809
16376.4
17736.7
20377.6
21329.8
24086.5
-22108.3
-17382.7
-15996.8
-11981.4
-10193.3
-6716.34
-4773.74
-1666.35
301.195
3154.07
5065.94
7748.96
9544.26
12130.8
13749
16316.5
17673.8
20315.1
21264.4
24023.2
-22152.1
-17422
-16041.1
-12023.4
-10240.1
-6761.43
-4822.96
-1714.6
249.487
3102.77
5011.66
7694.75
9487.32
12073.8
13689.3
16256.9
17611.3
20253
21199.4
23960.3
-22195.5
-17460.8
-16085
-12065
-10286.5
-6806.18
-4871.81
-1762.52
198.16
3051.8
4957.76
7640.87
9430.75
12017.2
13629.9
16197.7
17549.2
20191.3
21134.7
23897.7
-22238.5
-17499.3
-16128.5
-12106.2
-10332.5
-6850.6
-4920.29
-1810.11
147.213
3001.15
4904.24
7587.31
9374.55
11960.9
13571
16138.8
17487.4
20129.9
21070.4
23835.5
-22281.2
-17537.4
-16171.7
-12147.1
-10378.2
-6894.68
-4968.39
-1857.38
96.6411
2950.81
4851.1
7534.07
9318.73
11904.9
13512.3
16080.3
17426
20068.8
21006.5
23773.7
-22323.5
-17575.2
-16214.6
-12187.7
-10423.5
-6938.43
-5016.12
-1904.33
46.4433
2900.79
4798.33
7481.15
9263.29
11849.3
13454.1
16022
17364.9
20008.2
20942.9
23712.2
-22365.6
-17612.7
-16257.1
-12227.9
-10468.5
-6981.87
-5063.49
-1950.96
-3.38238
2851.08
4745.94
7428.55
9208.22
11794
13396.3
15964.2
17304.2
19947.8
20879.6
23651.1
-22407.3
-17649.8
-16299.3
-12267.9
-10513.1
-7024.99
-5110.51
-1997.29
-52.8383
2801.68
4693.93
7376.26
9153.52
11739
13338.7
15906.6
17243.9
19887.9
20816.7
23590.4
-22448.6
-17686.6
-16341.2
-12307.5
-10557.4
-7067.81
-5157.17
-2043.32
-101.929
2752.58
4642.28
7324.27
9099.18
11684.3
13281.6
15849.4
17183.9
19828.2
20754.2
23530
-22489.7
-17723
-16382.8
-12346.8
-10601.4
-7110.33
-5203.49
-2089.06
-150.662
2703.78
4590.99
7272.58
9045.21
11629.9
13224.8
15792.5
17124.4
19769
20692.1
23470
-22530.5
-17759.2
-16424
-12385.8
-10645
-7152.57
-5249.46
-2134.5
-199.043
2655.26
4540.06
7221.18
8991.59
11575.9
13168.4
15736
17065.1
19710.1
20630.3
23410.5
-22571.1
-17795
-16465
-12424.5
-10688.3
-7194.52
-5295.1
-2179.67
-247.074
2607.02
4489.48
7170.08
8938.35
11522.2
13112.4
15679.8
17006.3
19651.6
20568.9
23351.3
-22611.3
-17830.6
-16505.7
-12463
-10731.3
-7236.19
-5340.4
-2224.56
-294.757
2559.07
4439.27
7119.28
8885.47
11468.7
13056.7
15624
16947.8
19593.4
20507.8
23292.4
-22651.2
-17865.9
-16546.1
-12501.1
-10774
-7277.58
-5385.36
-2269.17
-342.088
2511.4
4389.43
7068.77
8832.96
11415.6
13001.4
15568.4
16889.6
19535.6
20447.1
23234
-22690.9
-17900.9
-16586.2
-12539
-10816.4
-7318.7
-5430
-2313.51
-389.068
2464.01
4339.94
7018.56
8780.81
11362.8
12946.5
15513.2
16831.9
19478.1
20386.8
23175.9
-22730.3
-17935.6
-16626
-12576.6
-10858.5
-7359.55
-5474.29
-2357.58
-435.698
2416.9
4290.81
6968.63
8729.02
11310.3
12891.9
15458.4
16774.5
19421
20326.8
23118.1
-22769.4
-17969.9
-16665.5
-12613.9
-10900.2
-7400.12
-5518.26
-2401.37
-481.977
2370.07
4242.04
6919
8677.6
11258.1
12837.7
15403.8
16717.4
19364.3
20267.2
23060.8
-22808.2
-18004.1
-16704.8
-12650.9
-10941.7
-7440.42
-5561.88
-2444.9
-527.907
2323.51
4193.63
6869.65
8626.55
11206.3
12783.9
15349.6
16660.7
19307.9
20207.9
23003.8
-22846.8
-18037.9
-16743.7
-12687.6
-10982.8
-7480.44
-5605.17
-2488.16
-573.486
2277.22
4145.59
6820.6
8575.87
11154.7
12730.4
15295.8
16604.4
19251.8
20149
22947.2
-22885.1
-18071.4
-16782.4
-12724.1
-11023.6
-7520.2
-5648.12
-2531.15
-618.707
2231.21
4097.91
6771.84
8525.57
11103.5
12677.3
15242.2
16548.5
19196.1
20090.4
22890.9
-22923.1
-18104.6
-16820.7
-12760.3
-11064.1
-7559.69
-5690.73
-2573.87
-663.568
2185.49
4050.62
6723.38
8475.64
11052.5
12624.6
15189
16492.9
19140.8
20032.2
22835.1
-22960.8
-18137.6
-16858.8
-12796.2
-11104.2
-7598.92
-5733
-2616.31
-708.061
2140.05
4003.7
6675.22
8426.1
11001.9
12572.3
15136.2
16437.7
19085.9
19974.4
22779.6
-22998.3
-18170.3
-16896.6
-12831.9
-11144.1
-7637.87
-5774.92
-2658.48
-752.186
2094.9
3957.16
6627.36
8376.95
10951.7
12520.3
15083.7
16382.9
19031.3
19917
22724.6
-23035.4
-18202.6
-16934.1
-12867.3
-11183.6
-7676.55
-5816.48
-2700.38
-795.939
2050.03
3911.01
6579.81
8328.2
10901.7
12468.8
15031.6
16328.6
18977.1
19860
22670
-23072.3
-18234.7
-16971.3
-12902.3
-11222.8
-7714.96
-5857.7
-2742
-839.32
2005.44
3865.24
6532.57
8279.83
10852.1
12417.6
14979.8
16274.6
18923.3
19803.4
22615.8
-23108.9
-18266.5
-17008.2
-12937.2
-11261.7
-7753.09
-5898.56
-2783.35
-882.327
1961.14
3819.86
6485.62
8231.86
10802.8
12366.9
14928.4
16220.9
18869.9
19747.2
22561.9
-23145.3
-18298
-17044.7
-12971.7
-11300.2
-7790.96
-5939.06
-2824.43
-924.956
1917.13
3774.87
6438.98
8184.28
10753.9
12316.5
14877.4
16167.7
18816.9
19691.3
22508.5
-23181.3
-18329.2
-17081
-13005.9
-11338.4
-7828.54
-5979.2
-2865.23
-967.2
1873.4
3730.28
6392.65
8137.11
10705.2
12266.6
14826.7
16114.9
18764.3
19635.9
22455.5
-23217
-18360
-17117
-13039.9
-11376.2
-7865.83
-6018.96
-2905.73
-1009.05
1829.98
3686.09
6346.63
8090.34
10656.9
12217
14776.3
16062.5
18712
19580.8
22403
-23252.4
-18390.6
-17152.6
-13073.5
-11413.7
-7902.82
-6058.32
-2945.94
-1050.49
1786.86
3642.32
6300.94
8043.98
10609
12167.9
14726.3
16010.5
18660.2
19526.2
22350.8
-23287.5
-18420.8
-17187.8
-13106.8
-11450.8
-7939.5
-6097.27
-2985.82
-1091.5
1744.06
3598.98
6255.57
7998.05
10561.4
12119.1
14676.7
15958.9
18608.7
19471.9
22299
-23322.2
-18450.6
-17222.7
-13139.7
-11487.5
-7975.84
-6135.79
-3025.39
-1132.08
1701.59
3556.07
6210.54
7952.55
10514.1
12070.8
14627.5
15907.7
18557.7
19418.1
22247.7
-23356.6
-18480.1
-17257.2
-13172.4
-11523.7
-8011.84
-6173.88
-3064.62
-1172.21
1659.45
3513.61
6165.86
7907.5
10467.2
12023
14578.7
15856.9
18507
19364.7
22196.9
-23390.6
-18509.2
-17291.3
-13204.6
-11559.6
-8047.5
-6211.53
-3103.52
-1211.89
1617.65
3471.61
6121.53
7862.9
10420.7
11975.6
14530.2
15806.6
18456.8
19311.7
22146.4
-23424.2
-18538
-17325.1
-13236.5
-11595
-8082.82
-6248.74
-3142.08
-1251.12
1576.2
3430.07
6077.57
7818.77
10374.6
11928.6
14482.2
15756.8
18407.1
19259.2
22096.5
-23457.5
-18566.4
-17358.4
-13268.1
-11630
-8117.81
-6285.5
-3180.31
-1289.88
1535.09
3389.01
6033.98
7775.12
10328.9
11882.1
14434.6
15707.4
18357.8
19207.1
22047
-23490.5
-18594.5
-17391.4
-13299.3
-11664.6
-8152.48
-6321.82
-3218.2
-1328.17
1494.34
3348.42
5990.76
7731.94
10283.6
11836.2
14387.5
15658.5
18309
19155.5
21998
-23523.1
-18622.2
-17424.1
-13330.2
-11698.8
-8186.82
-6357.7
-3255.76
-1366.01
1453.93
3308.3
5947.91
7689.25
10238.7
11790.6
14340.8
15610.1
18260.6
19104.4
21949.6
-23555.4
-18649.6
-17456.4
-13360.8
-11732.6
-8220.85
-6393.15
-3293
-1403.38
1413.86
3268.66
5905.43
7647.04
10194.2
11745.6
14294.5
15562.2
18212.7
19053.8
21901.6
-23587.4
-18676.7
-17488.3
-13391.1
-11766
-8254.57
-6428.17
-3329.92
-1440.3
1374.13
3229.5
5863.32
7605.31
10150.1
11701.1
14248.6
15514.8
18165.3
19003.7
21854.2
-23619.1
-18703.5
-17519.9
-13421.1
-11799
-8288
-6462.76
-3366.53
-1476.76
1334.74
3190.81
5821.58
7564.07
10106.4
11657.1
14203.3
15467.8
18118.4
18954.1
21807.2
-23650.5
-18729.9
-17551.2
-13450.8
-11831.7
-8321.14
-6496.92
-3402.84
-1512.77
1295.68
3152.6
5780.21
7523.33
10063.1
11613.5
14158.3
15421.4
18072
18905
21760.8
-23681.5
-18756.1
-17582.1
-13480.2
-11863.9
-8353.97
-6530.64
-3438.83
-1548.31
1256.96
3114.87
5739.2
7483.07
10020.2
11570.5
14113.8
15375.5
18026
18856.3
21714.9
-23712.2
-18781.9
-17612.6
-13509.3
-11895.7
-8386.51
-6563.93
-3474.52
-1583.39
1218.57
3077.62
5698.57
7443.3
9977.7
11527.9
14069.8
15330
17980.6
18808.2
21669.5
-23742.6
-18807.4
-17642.8
-13538.1
-11927.2
-8418.74
-6596.77
-3509.88
-1617.99
1180.53
3040.86
5658.32
7404.03
9935.63
11485.9
14026.2
15285.1
17935.6
18760.6
21624.7
-23772.6
-18832.5
-17672.6
-13566.6
-11958.1
-8450.65
-6629.14
-3544.92
-1652.11
1142.83
3004.6
5618.43
7365.26
9893.97
11444.3
13983
15240.7
17891.2
18713.5
21580.3
-23802.3
-18857.3
-17702
-13594.7
-11988.7
-8482.24
-6661.05
-3579.63
-1685.74
1105.49
2968.83
5578.93
7326.99
9852.73
11403.3
13940.3