/*--------------------------------*- C++ -*----------------------------------*\
  =========                 |
  \\      /  F ield         | OpenFOAM: The Open Source CFD Toolbox
   \\    /   O peration     | Website:  https://openfoam.org
    \\  /    A nd           | Version:  8
     \\/     M anipulation  |
\*---------------------------------------------------------------------------*/
FoamFile
{
    version     2.0;
    format      ascii;
    class       surfaceScalarField;
    location    "200";
    object      phi;
}
// * * * * * * * * * * * * * * * * * * * * * * * * * * * * * * * * * * * * * //

dimensions      [1 0 -1 0 0 0 0];

internalField   nonuniform List<scalar> 
16360
(
-1.41304
-0.000518451
-1.41254
-0.000502506
-1.41203
-0.000511263
-1.4115
-0.000525593
-1.41096
-0.00054042
-1.41041
-0.000554492
-1.40984
-0.000567216
-1.40926
-0.000579215
-1.40867
-0.000590548
-1.40807
-0.00060103
-1.40746
-0.000611142
-1.40684
-0.000621006
-1.40621
-0.000630924
-1.40556
-0.000641019
-1.40491
-0.000651418
-1.40425
-0.000662388
-1.40358
-0.000674159
-1.40289
-0.000687179
-1.40219
-0.000701718
-1.40147
-0.000718125
-1.40073
-0.000736842
-1.39997
-0.000758322
-1.39919
-0.000783338
-1.39838
-0.000812589
-1.39753
-0.00084661
-1.39665
-0.000886335
-1.39571
-0.000933047
-1.39472
-0.000987912
-1.39367
-0.00105214
-1.39255
-0.00112739
-1.39133
-0.00121565
-1.39001
-0.00131907
-1.38857
-0.0014401
-1.38699
-0.00158175
-1.38524
-0.00174762
-1.3833
-0.00194179
-1.38113
-0.00216896
-1.3787
-0.00243488
-1.37595
-0.00274668
-1.37284
-0.00311309
-1.36929
-0.00354479
-1.36524
-0.00405532
-1.36057
-0.0046624
-1.35518
-0.00538997
-1.34891
-0.00627307
-1.34154
-0.00736579
-1.3328
-0.00874009
-1.32234
-0.0104624
-1.3097
-0.012641
-0.0158706
-1.29383
-1.60306
-0.000965138
-1.60251
-0.00105214
-1.60193
-0.00109546
-1.60133
-0.00112247
-1.60073
-0.00114212
-1.60012
-0.00115742
-1.59952
-0.00117027
-1.59892
-0.00118104
-1.59832
-0.00119057
-1.59772
-0.00119901
-1.59712
-0.00120705
-1.59653
-0.0012148
-1.59594
-0.00122263
-1.59535
-0.00123111
-1.59476
-0.00124032
-1.59417
-0.00125083
-1.59358
-0.00126311
-1.59299
-0.00127778
-1.5924
-0.00129537
-1.5918
-0.00131641
-1.59119
-0.00134184
-1.59058
-0.0013727
-1.58995
-0.00140981
-1.58931
-0.0014543
-1.58865
-0.00150771
-1.58796
-0.0015717
-1.58725
-0.00164793
-1.5865
-0.00173841
-1.5857
-0.00184562
-1.58486
-0.0019724
-1.58395
-0.00212192
-1.58297
-0.00229782
-1.58191
-0.0025045
-1.58074
-0.00274705
-1.57946
-0.00303129
-1.57804
-0.00336389
-1.57646
-0.00375282
-1.57468
-0.00420774
-1.57269
-0.00474009
-1.57044
-0.00536334
-1.56789
-0.00609379
-1.56499
-0.0069518
-1.56169
-0.00796308
-1.55792
-0.00916108
-1.5536
-0.0105923
-1.54865
-0.0123225
-1.54295
-0.0144343
-1.53639
-0.0170256
-1.52874
-0.0202914
-0.024694
-1.51991
-1.6241
-0.00143649
-1.6237
-0.00144755
-1.62333
-0.00146903
-1.62295
-0.001496
-1.62258
-0.00152073
-1.62219
-0.00154279
-1.6218
-0.0015626
-1.6214
-0.00158011
-1.62099
-0.00159628
-1.62058
-0.00161162
-1.62016
-0.0016265
-1.61973
-0.00164153
-1.6193
-0.00165716
-1.61886
-0.00167382
-1.61841
-0.00169201
-1.61794
-0.00171234
-1.61747
-0.00173566
-1.61699
-0.00176258
-1.61649
-0.00179376
-1.61597
-0.0018305
-1.61544
-0.00187385
-1.61489
-0.00192486
-1.61432
-0.00198515
-1.61371
-0.00205666
-1.61308
-0.0021412
-1.61241
-0.00224086
-1.6117
-0.00235829
-1.61094
-0.00249656
-1.61013
-0.0026591
-1.60925
-0.00284985
-1.6083
-0.00307345
-1.60726
-0.0033353
-1.60613
-0.00364162
-1.60487
-0.00399957
-1.60349
-0.00441748
-1.60195
-0.00490506
-1.60022
-0.00547376
-1.5983
-0.0061371
-1.59612
-0.00691092
-1.59367
-0.00781395
-1.5909
-0.00886869
-1.58775
-0.0101024
-1.58416
-0.0115485
-1.58008
-0.0132483
-1.57541
-0.015256
-1.57009
-0.0176409
-1.56404
-0.0204853
-1.55718
-0.0238884
-1.54945
-0.0280243
-0.0332474
-1.54089
-1.65039
-0.00129986
-1.6504
-0.00143554
-1.65037
-0.001502
-1.65032
-0.00154161
-1.65027
-0.00157001
-1.65022
-0.00159278
-1.65017
-0.00161239
-1.65012
-0.00163008
-1.65007
-0.00164657
-1.65002
-0.00166269
-1.64997
-0.00167884
-1.64992
-0.00169548
-1.64986
-0.0017133
-1.6498
-0.00173273
-1.64974
-0.00175474
-1.64967
-0.00177992
-1.6496
-0.00180883
-1.64952
-0.00184252
-1.64943
-0.00188222
-1.64933
-0.00192895
-1.64922
-0.00198388
-1.6491
-0.00204883
-1.64895
-0.00212575
-1.6488
-0.0022165
-1.64861
-0.00232333
-1.6484
-0.00244912
-1.64817
-0.00259714
-1.64789
-0.00277093
-1.64758
-0.00297461
-1.64721
-0.00321315
-1.64679
-0.00349227
-1.64631
-0.00381846
-1.64575
-0.00419917
-1.64511
-0.0046431
-1.64437
-0.00516037
-1.64351
-0.00576281
-1.64252
-0.00646418
-1.64138
-0.00728045
-1.64006
-0.00823021
-1.63854
-0.00933538
-1.63678
-0.010622
-1.63476
-0.0121212
-1.63244
-0.0138698
-1.62978
-0.0159126
-1.62673
-0.0183048
-1.62326
-0.0211137
-1.61933
-0.0244161
-1.61491
-0.0283047
-1.61002
-0.032917
-0.0384496
-1.60481
-1.63352
-0.00147772
-1.63352
-0.00143638
-1.63358
-0.00144555
-1.63365
-0.00147395
-1.63371
-0.00150536
-1.63377
-0.00153589
-1.63381
-0.00156491
-1.63385
-0.00159297
-1.63388
-0.00162019
-1.63389
-0.00164714
-1.6339
-0.00167454
-1.63389
-0.00170276
-1.63387
-0.00173269
-1.63384
-0.00176505
-1.63379
-0.00180025
-1.63374
-0.00183911
-1.63366
-0.00188299
-1.63357
-0.00193274
-1.63346
-0.00198942
-1.63334
-0.00205456
-1.63319
-0.00212993
-1.63302
-0.00221735
-1.63283
-0.00231879
-1.63261
-0.00243664
-1.63236
-0.00257387
-1.63207
-0.00273379
-1.63175
-0.00292005
-1.63139
-0.0031369
-1.63097
-0.00338946
-1.6305
-0.00368362
-1.62997
-0.004026
-1.62936
-0.00442422
-1.62867
-0.00488717
-1.62789
-0.00542518
-1.627
-0.00605014
-1.62599
-0.00677589
-1.62483
-0.00761849
-1.62352
-0.00859639
-1.62202
-0.00973096
-1.6203
-0.0110471
-1.61835
-0.0125741
-1.61613
-0.0143458
-1.6136
-0.0164019
-1.61072
-0.0187893
-1.60746
-0.0215632
-1.60379
-0.0247882
-1.59967
-0.0285371
-1.59508
-0.0328936
-1.59003
-0.0379622
-0.0438751
-1.58461
-1.64327
-0.00102242
-1.64353
-0.00117586
-1.64372
-0.0012562
-1.64388
-0.00130782
-1.64404
-0.00134922
-1.64419
-0.00138635
-1.64433
-0.00142092
-1.64447
-0.00145457
-1.6446
-0.00148796
-1.64473
-0.00152123
-1.64485
-0.00155518
-1.64496
-0.00159075
-1.64506
-0.00162824
-1.64516
-0.00166828
-1.64525
-0.00171205
-1.64533
-0.00176048
-1.6454
-0.00181427
-1.64546
-0.00187458
-1.6455
-0.00194313
-1.64553
-0.00202151
-1.64555
-0.00211131
-1.64556
-0.00221451
-1.64554
-0.0023336
-1.64551
-0.00247139
-1.64545
-0.00263104
-1.64537
-0.00281609
-1.64526
-0.00303071
-1.64511
-0.00327985
-1.64493
-0.00356925
-1.64471
-0.00390531
-1.64444
-0.00429538
-1.64412
-0.00474807
-1.64373
-0.00527338
-1.64327
-0.00588285
-1.64274
-0.00658971
-1.6421
-0.00740926
-1.64136
-0.0083591
-1.6405
-0.00945946
-1.6395
-0.0107337
-1.63833
-0.0122088
-1.63699
-0.0139156
-1.63545
-0.0158896
-1.63368
-0.0181711
-1.63166
-0.0208067
-1.62938
-0.0238492
-1.62681
-0.0273572
-1.62395
-0.031395
-1.62081
-0.0360315
-1.61743
-0.0413435
-0.0474137
-1.61389
-1.63412
-0.00112505
-1.63423
-0.00106074
-1.63442
-0.0010684
-1.63462
-0.0011032
-1.63483
-0.00114486
-1.63503
-0.00118811
-1.63522
-0.00123146
-1.6354
-0.00127435
-1.63557
-0.00131714
-1.63573
-0.00136075
-1.63588
-0.00140539
-1.63602
-0.00145152
-1.63615
-0.00150007
-1.63626
-0.00155202
-1.63637
-0.0016079
-1.63646
-0.00166867
-1.63654
-0.00173553
-1.6366
-0.00180998
-1.63665
-0.00189349
-1.63668
-0.00198749
-1.6367
-0.00209392
-1.6367
-0.00221521
-1.63668
-0.00235402
-1.63664
-0.00251325
-1.63657
-0.00269628
-1.63648
-0.00290712
-1.63636
-0.00315046
-1.63621
-0.00343167
-1.63602
-0.00375685
-1.6358
-0.00413299
-1.63552
-0.0045682
-1.6352
-0.00507194
-1.63482
-0.00565512
-1.63437
-0.00633029
-1.63385
-0.00711194
-1.63324
-0.00801664
-1.63254
-0.00906338
-1.63172
-0.010274
-1.63078
-0.0116737
-1.6297
-0.0132913
-1.62846
-0.0151594
-1.62703
-0.0173148
-1.6254
-0.0197994
-1.62355
-0.0226598
-1.62145
-0.0259477
-1.61909
-0.0297192
-1.61645
-0.0340329
-1.61353
-0.0389489
-1.61035
-0.0445257
-0.0508221
-1.60694
-1.63812
-0.000535335
-1.63847
-0.000706722
-1.63874
-0.000800566
-1.63898
-0.000863982
-1.6392
-0.000918282
-1.63942
-0.00096901
-1.63964
-0.00101832
-1.63984
-0.00106753
-1.64004
-0.0011171
-1.64024
-0.00116743
-1.64042
-0.00121909
-1.6406
-0.00127296
-1.64077
-0.00132949
-1.64094
-0.00138938
-1.64109
-0.00145371
-1.64123
-0.00152369
-1.64137
-0.00160043
-1.64149
-0.00168521
-1.64161
-0.00177948
-1.64171
-0.00188501
-1.6418
-0.00200405
-1.64188
-0.002139
-1.64194
-0.0022925
-1.64198
-0.00246767
-1.64201
-0.00266822
-1.64202
-0.00289846
-1.64201
-0.00316327
-1.64197
-0.00346827
-1.64191
-0.00381988
-1.64182
-0.00422557
-1.64169
-0.00469405
-1.64153
-0.0052353
-1.64132
-0.00586081
-1.64107
-0.00658384
-1.64076
-0.00741968
-1.64039
-0.00838578
-1.63995
-0.00950213
-1.63943
-0.0107918
-1.63883
-0.012281
-1.63812
-0.0139995
-1.6373
-0.015981
-1.63635
-0.0182631
-1.63526
-0.0208881
-1.63402
-0.0239022
-1.63261
-0.0273559
-1.63103
-0.031302
-1.62926
-0.0357949
-1.62733
-0.0408874
-1.62522
-0.0466269
-0.0530583
-1.62299
-1.63261
-0.000614849
-1.63277
-0.000549764
-1.63301
-0.000561636
-1.63327
-0.000603519
-1.63353
-0.000654032
-1.6338
-0.000707188
-1.63405
-0.000761371
-1.63431
-0.000816098
-1.63455
-0.000871838
-1.63479
-0.000928939
-1.63502
-0.00098772
-1.63525
-0.00104872
-1.63546
-0.00111282
-1.63567
-0.0011808
-1.63587
-0.0012537
-1.63606
-0.00133245
-1.63624
-0.00141821
-1.63642
-0.00151239
-1.63658
-0.00161658
-1.63673
-0.00173268
-1.63687
-0.00186284
-1.637
-0.00200947
-1.63712
-0.00217537
-1.63722
-0.0023639
-1.63731
-0.0025789
-1.63739
-0.00282472
-1.63744
-0.00310641
-1.63748
-0.00342979
-1.6375
-0.00380159
-1.6375
-0.0042296
-1.63747
-0.00472283
-1.63741
-0.00529166
-1.63732
-0.00594803
-1.6372
-0.00670574
-1.63704
-0.00758061
-1.63684
-0.00859076
-1.63658
-0.00975706
-1.63627
-0.0111034
-1.63589
-0.0126569
-1.63545
-0.0144483
-1.63491
-0.0165123
-1.63429
-0.0188876
-1.63356
-0.0216171
-1.63272
-0.0247474
-1.63174
-0.028329
-1.63063
-0.0324141
-1.62937
-0.0370554
-1.62796
-0.0423022
-1.62638
-0.0481972
-0.0547795
-1.62466
-1.6324
5.44579e-05
-1.63283
-0.000125383
-1.63316
-0.000227677
-1.63346
-0.000298836
-1.63376
-0.000361046
-1.63404
-0.000420614
-1.63433
-0.000479969
-1.6346
-0.000539875
-1.63487
-0.000600894
-1.63514
-0.000663422
-1.6354
-0.000728123
-1.63565
-0.000795597
-1.6359
-0.000866397
-1.63614
-0.000941349
-1.63637
-0.00102135
-1.6366
-0.00110743
-1.63681
-0.0012009
-1.63702
-0.00130314
-1.63722
-0.00141568
-1.63742
-0.00154039
-1.6376
-0.00167943
-1.63777
-0.00183531
-1.63794
-0.00201095
-1.63809
-0.00220971
-1.63824
-0.00243538
-1.63837
-0.00269238
-1.63849
-0.00298584
-1.6386
-0.00332172
-1.63869
-0.00370683
-1.63877
-0.00414904
-1.63884
-0.00465747
-1.63889
-0.00524269
-1.63892
-0.00591685
-1.63893
-0.00669395
-1.63892
-0.00759003
-1.63889
-0.00862362
-1.63883
-0.00981608
-1.63874
-0.0111917
-1.63862
-0.0127783
-1.63846
-0.0146072
-1.63826
-0.0167139
-1.63801
-0.0191383
-1.6377
-0.0219242
-1.63733
-0.0251195
-1.63688
-0.0287755
-1.63635
-0.0329458
-1.63572
-0.0376846
-1.63498
-0.0430422
-1.63412
-0.0490617
-0.0557785
-1.63312
-1.62962
7.36681e-06
-1.62981
6.53791e-05
-1.63009
4.95599e-05
-1.63039
4.01738e-06
-1.6307
-5.06937e-05
-1.63101
-0.000108908
-1.63133
-0.000168785
-1.63164
-0.000230101
-1.63194
-0.000293053
-1.63225
-0.000358143
-1.63255
-0.000425801
-1.63285
-0.000496453
-1.63315
-0.000570607
-1.63344
-0.00064916
-1.63373
-0.000732998
-1.63401
-0.000823181
-1.63429
-0.000920913
-1.63457
-0.00102746
-1.63484
-0.00114436
-1.6351
-0.00127353
-1.63537
-0.00141714
-1.63562
-0.00157766
-1.63588
-0.00175793
-1.63613
-0.00196124
-1.63637
-0.00219136
-1.63661
-0.0024527
-1.63684
-0.00275034
-1.63708
-0.00309014
-1.6373
-0.00347885
-1.63753
-0.00392433
-1.63775
-0.00443566
-1.63797
-0.00502333
-1.63819
-0.00569944
-1.6384
-0.00647789
-1.63862
-0.00737468
-1.63883
-0.00840841
-1.63905
-0.00960054
-1.63927
-0.0109755
-1.63948
-0.0125612
-1.6397
-0.0143894
-1.63992
-0.0164961
-1.64014
-0.0189218
-1.64035
-0.0217115
-1.64055
-0.0249148
-1.64074
-0.0285847
-1.64091
-0.0327775
-1.64105
-0.0375504
-1.64113
-0.0429574
-1.64115
-0.0490458
-0.0558569
-1.64107
-1.62491
0.000722862
-1.6254
0.00055167
-1.6258
0.000453071
-1.62618
0.000382943
-1.62655
0.000320557
-1.62692
0.000259521
-1.62728
0.000197662
-1.62765
0.000133957
-1.62801
6.79172e-05
-1.62837
-5.75257e-07
-1.62872
-7.1943e-05
-1.62907
-0.000146593
-1.62942
-0.00022525
-1.62976
-0.000308619
-1.63009
-0.000397401
-1.63042
-0.000492564
-1.63075
-0.000595252
-1.63107
-0.000706742
-1.63139
-0.000828601
-1.6317
-0.000962638
-1.632
-0.00111088
-1.6323
-0.00127572
-1.6326
-0.00145996
-1.6329
-0.00166682
-1.63319
-0.00189999
-1.63348
-0.0021637
-1.63376
-0.00246284
-1.63405
-0.00280309
-1.63434
-0.0031911
-1.63463
-0.00363459
-1.63492
-0.0041424
-1.63522
-0.00472473
-1.63553
-0.0053934
-1.63584
-0.006162
-1.63617
-0.00704634
-1.63652
-0.00806482
-1.63688
-0.00923861
-1.63726
-0.010592
-1.63767
-0.012153
-1.63811
-0.0139538
-1.63857
-0.0160309
-1.63907
-0.0184256
-1.63959
-0.021185
-1.64015
-0.0243612
-1.64072
-0.0280117
-1.6413
-0.0321983
-1.64186
-0.0369857
-1.64238
-0.0424386
-1.64281
-0.0486168
-0.055565
-1.6431
-1.62604
0.000728321
-1.62627
0.000780178
-1.62658
0.000766046
-1.62693
0.000724458
-1.62728
0.000673408
-1.62764
0.000617645
-1.628
0.000558514
-1.62836
0.000496579
-1.62872
0.000431951
-1.62909
0.000364362
-1.62945
0.000293499
-1.62982
0.00021895
-1.63018
0.000140221
-1.63055
5.68845e-05
-1.63092
-3.17317e-05
-1.63128
-0.000126514
-1.63165
-0.000228426
-1.63202
-0.000338714
-1.63239
-0.000458959
-1.63276
-0.000590863
-1.63313
-0.000736345
-1.63351
-0.00089781
-1.63389
-0.00107799
-1.63428
-0.00127994
-1.63467
-0.00150706
-1.63507
-0.00176326
-1.63548
-0.0020531
-1.6359
-0.002382
-1.63634
-0.00275631
-1.63679
-0.00318327
-1.63726
-0.00367118
-1.63776
-0.00422967
-1.63828
-0.00486991
-1.63884
-0.00560488
-1.63943
-0.00644973
-1.64008
-0.0074221
-1.64077
-0.00854237
-1.64153
-0.00983407
-1.64236
-0.0113244
-1.64327
-0.0130451
-1.64427
-0.0150326
-1.64536
-0.0173286
-1.64657
-0.0199813
-1.64788
-0.0230447
-1.64932
-0.02658
-1.65086
-0.0306547
-1.6525
-0.0353416
-1.65422
-0.0407177
-1.65598
-0.0468581
-0.0538296
-1.65772
-1.61414
0.00143382
-1.61465
0.00129747
-1.61511
0.00122009
-1.61555
0.00116485
-1.61599
0.00111343
-1.61643
0.00106063
-1.61688
0.001005
-1.61733
0.000946019
-1.61778
0.000883594
-1.61823
0.000817483
-1.61869
0.000747605
-1.61914
0.000673705
-1.6196
0.000595511
-1.62005
0.000512571
-1.62051
0.000424133
-1.62096
0.000329341
-1.62142
0.000227223
-1.62187
0.000116603
-1.62233
-3.81741e-06
-1.62278
-0.000135625
-1.62324
-0.000280784
-1.6237
-0.000441455
-1.62415
-0.000619983
-1.62462
-0.000819172
-1.62508
-0.00104201
-1.62555
-0.00129202
-1.62603
-0.00157343
-1.62652
-0.00189138
-1.62703
-0.00225185
-1.62755
-0.00266154
-1.62809
-0.00312818
-1.62866
-0.00366072
-1.62926
-0.00426962
-1.6299
-0.00496721
-1.63058
-0.00576783
-1.63132
-0.00668802
-1.63211
-0.00774724
-1.63298
-0.00896836
-1.63392
-0.0103779
-1.63496
-0.0120067
-1.6361
-0.0138909
-1.63736
-0.0160733
-1.63874
-0.0186031
-1.64024
-0.021538
-1.64188
-0.0249454
-1.64363
-0.0289012
-1.64548
-0.0334919
-1.64738
-0.0388174
-1.64925
-0.0449879
-0.0520928
-1.65099
-1.624
0.00149703
-1.62426
0.00156092
-1.6246
0.00156147
-1.62497
0.00153525
-1.62536
0.00149697
-1.62575
0.00145151
-1.62614
0.00140063
-1.62654
0.00134525
-1.62694
0.00128564
-1.62735
0.00122208
-1.62775
0.00115461
-1.62816
0.00108312
-1.62858
0.00100735
-1.62899
0.000926802
-1.62941
0.00084082
-1.62983
0.000748741
-1.63025
0.000649751
-1.63067
0.000542829
-1.6311
0.000426778
-1.63154
0.000300197
-1.63198
0.000161512
-1.63243
9.08388e-06
-1.63289
-0.000158924
-1.63337
-0.000344459
-1.63386
-0.000550398
-1.63437
-0.000780441
-1.63491
-0.00103836
-1.63547
-0.00132903
-1.63606
-0.00165799
-1.63669
-0.00203104
-1.63737
-0.00245476
-1.63809
-0.00293706
-1.63887
-0.00348724
-1.63972
-0.00411625
-1.64065
-0.00483687
-1.64168
-0.00566399
-1.64281
-0.0066152
-1.64407
-0.00771126
-1.64547
-0.00897674
-1.64703
-0.0104404
-1.64879
-0.0121364
-1.65076
-0.0141055
-1.65296
-0.016396
-1.65543
-0.0190673
-1.65819
-0.0221899
-1.66124
-0.0258467
-1.6646
-0.0301351
-1.66824
-0.0351752
-1.67212
-0.0411155
-0.0481092
-1.6761
-1.59797
0.00201142
-1.59836
0.00195226
-1.59872
0.0019199
-1.59908
0.00189551
-1.59945
0.00186768
-1.59984
0.0018343
-1.60023
0.00179543
-1.60064
0.00175149
-1.60105
0.00170291
-1.60148
0.00165001
-1.60192
0.00159284
-1.60237
0.00153135
-1.60283
0.00146528
-1.60329
0.00139425
-1.60377
0.00131781
-1.60426
0.00123545
-1.60475
0.00114646
-1.60526
0.00104993
-1.60578
0.000944838
-1.60631
0.000830014
-1.60685
0.000704174
-1.60741
0.000565855
-1.60798
0.000413211
-1.60857
0.000243881
-1.60918
5.51481e-05
-1.6098
-0.000155901
-1.61045
-0.000393131
-1.61111
-0.000660609
-1.61181
-0.000962694
-1.61254
-0.00130373
-1.6133
-0.00168907
-1.61411
-0.0021257
-1.61498
-0.00262179
-1.61591
-0.00318681
-1.61691
-0.003832
-1.61801
-0.00457075
-1.6192
-0.0054189
-1.62052
-0.0063953
-1.62197
-0.00752252
-1.62359
-0.00882748
-1.62538
-0.0103428
-1.62738
-0.0121074
-1.6296
-0.0141698
-1.63208
-0.0165907
-1.63482
-0.019446
-1.63784
-0.0228282
-1.64113
-0.0268485
-1.64465
-0.031654
-1.6483
-0.0374648
-0.0445366
-1.65187
-1.62805
0.00199732
-1.62822
0.00212125
-1.62846
0.00215629
-1.62872
0.00215972
-1.629
0.00214616
-1.62929
0.00212199
-1.62958
0.00209015
-1.62988
0.00205211
-1.63019
0.00200873
-1.6305
0.00196042
-1.63081
0.00190738
-1.63113
0.00184964
-1.63145
0.00178706
-1.63178
0.00171942
-1.63211
0.00164645
-1.63244
0.00156769
-1.63277
0.00148252
-1.63311
0.00139025
-1.63346
0.00129007
-1.63381
0.0011811
-1.63417
0.00106229
-1.63453
0.000932393
-1.63491
0.000789824
-1.6353
0.000632727
-1.6357
0.000459069
-1.63613
0.000266773
-1.63657
5.3823e-05
-1.63705
-0.000181117
-1.63758
-0.00043884
-1.63816
-0.000722934
-1.63881
-0.00104059
-1.63953
-0.00139856
-1.64035
-0.00180349
-1.64128
-0.00226235
-1.64232
-0.00278381
-1.64352
-0.00337891
-1.64487
-0.00406063
-1.64643
-0.00484411
-1.6482
-0.00574767
-1.65023
-0.00679369
-1.65257
-0.00800917
-1.65525
-0.00942722
-1.65833
-0.0110901
-1.66187
-0.0130514
-1.66593
-0.0153825
-1.67058
-0.0181761
-1.67589
-0.0215444
-1.6819
-0.0256399
-1.68862
-0.0307422
-0.0373137
-1.69585
-1.56222
0.00170676
-1.56181
0.00171559
-1.56138
0.00172499
-1.56095
0.00173017
-1.56053
0.00172766
-1.56013
0.00171816
-1.55974
0.00170274
-1.55937
0.00168235
-1.55902
0.0016576
-1.55869
0.00162883
-1.55838
0.00159625
-1.55809
0.00155989
-1.55782
0.00151969
-1.55757
0.00147553
-1.55736
0.00142715
-1.55716
0.00137419
-1.557
0.00131622
-1.55686
0.00125277
-1.55675
0.00118328
-1.55668
0.00110712
-1.55664
0.00102347
-1.55664
0.000931418
-1.55668
0.000829823
-1.55676
0.00071739
-1.55689
0.000592736
-1.55708
0.000454426
-1.55733
0.000300878
-1.55764
0.000130079
-1.55802
-6.10585e-05
-1.55847
-0.000275346
-1.55899
-0.000514657
-1.55961
-0.000783429
-1.56032
-0.00108665
-1.56116
-0.00142832
-1.56213
-0.00181436
-1.56325
-0.0022532
-1.56456
-0.00275475
-1.56607
-0.00333047
-1.56783
-0.00399402
-1.56986
-0.00476213
-1.57221
-0.00565538
-1.57494
-0.00670056
-1.5781
-0.00793166
-1.58175
-0.00939432
-1.58598
-0.0111541
-1.59085
-0.0133046
-1.59643
-0.0159654
-1.60278
-0.019292
-1.60991
-0.023614
-0.0296794
-1.61754
-1.55341
0.00113062
-1.55291
0.00122401
-1.55246
0.00126818
-1.55202
0.00129372
-1.5516
0.00130894
-1.5512
0.00131748
-1.55082
0.00132111
-1.55046
0.00132078
-1.55012
0.00131695
-1.5498
0.00130988
-1.5495
0.00129965
-1.54923
0.00128625
-1.54898
0.00126962
-1.54875
0.00124963
-1.54855
0.00122604
-1.54838
0.00119861
-1.54823
0.00116708
-1.54811
0.00113113
-1.54801
0.00109037
-1.54795
0.00104432
-1.54792
0.000992434
-1.54792
0.000934096
-1.54796
0.000868569
-1.54804
0.00079508
-1.54816
0.000712838
-1.54832
0.000620915
-1.54854
0.000518238
-1.54881
0.000403581
-1.54915
0.000275395
-1.54956
0.000132176
-1.55005
-2.54325e-05
-1.55064
-0.000191161
-1.55137
-0.000360846
-1.55225
-0.000542014
-1.55332
-0.000744357
-1.5546
-0.000973745
-1.55612
-0.00123567
-1.55791
-0.00153659
-1.56003
-0.00188421
-1.5625
-0.00228773
-1.5654
-0.00275905
-1.56878
-0.00331435
-1.57274
-0.00397387
-1.57737
-0.00476707
-1.58278
-0.00573753
-1.58914
-0.0069528
-1.5966
-0.00850431
-1.6054
-0.0104874
-1.61593
-0.0130861
-0.0171109
-1.6285
-1.26743
-1.26621
-1.26494
-1.26365
-1.26234
-1.26102
-1.2597
-1.25838
-1.25706
-1.25575
-1.25445
-1.25316
-1.25189
-1.25065
-1.24942
-1.24822
-1.24705
-1.24592
-1.24483
-1.24379
-1.24279
-1.24186
-1.24099
-1.2402
-1.23948
-1.23886
-1.23834
-1.23794
-1.23767
-1.23753
-1.23756
-1.23775
-1.23811
-1.23865
-1.2394
-1.24037
-1.24161
-1.24314
-1.24503
-1.24732
-1.25007
-1.25339
-1.25736
-1.26213
-1.26787
-1.27482
-1.28333
-1.29381
-1.3069
-1.32401
1.62587
-0.0342496
1.638
-0.0121346
1.64684
-0.00883942
1.65127
-0.00442633
1.65284
-0.00157507
1.65294
-9.96769e-05
1.65225
0.00069214
1.65109
0.00116072
1.64964
0.00144692
1.64802
0.00161921
1.6463
0.00172047
1.64453
0.00177774
1.64272
0.0018071
1.6409
0.00181802
1.63908
0.00181633
1.63728
0.00180577
1.63549
0.00178871
1.63372
0.00176671
1.63198
0.00174072
1.63027
0.00171135
1.62859
0.00167889
1.62695
0.00164344
1.62534
0.00160493
1.62378
0.00156313
1.62226
0.00151769
1.62079
0.00146813
1.61938
0.00141382
1.61803
0.00135393
1.61674
0.00128749
1.61553
0.00121344
1.61439
0.0011306
1.61336
0.00103749
1.61242
0.000932498
1.61161
0.000812341
1.61094
0.000674571
1.61042
0.00051605
1.61009
0.000333095
1.60997
0.000121554
1.61009
-0.000124245
1.6105
-0.000412505
1.61126
-0.000753443
1.61242
-0.00115984
1.61407
-0.00164895
1.61631
-0.00224529
1.6193
-0.00298557
1.62323
-0.00392863
1.6284
-0.00517639
1.63532
-0.00692127
1.64489
-0.00956264
-0.0139726
1.65886
1.57532
-0.0179536
1.5719
-0.00871271
1.5662
-0.00314179
1.56319
-0.00141558
1.56174
-0.000121731
1.56096
0.000679392
1.56059
0.00105644
1.56052
0.00123022
1.56066
0.00131316
1.56093
0.00134686
1.5613
0.00135226
1.56173
0.0013423
1.56222
0.00132429
1.56273
0.00130189
1.56327
0.00127683
1.56383
0.00124991
1.5644
0.00122138
1.56497
0.00119115
1.56555
0.00115891
1.56614
0.00112421
1.56673
0.00108648
1.56733
0.00104501
1.56794
0.000998996
1.56855
0.000947476
1.56918
0.000889368
1.56983
0.00082343
1.57049
0.000748168
1.57118
0.000661659
1.57191
0.00056158
1.57268
0.000445839
1.5735
0.000312052
1.57438
0.000156628
1.57533
-2.4624e-05
1.57638
-0.000236165
1.57754
-0.000483096
1.57883
-0.000771768
1.58027
-0.00110989
1.5819
-0.00150681
1.58375
-0.00197473
1.58587
-0.00252861
1.5883
-0.00318654
1.59111
-0.00397235
1.59438
-0.00491768
1.5982
-0.00606575
1.60269
-0.00747776
1.60801
-0.00924373
1.61433
-0.0115011
1.62188
-0.0144664
1.6308
-0.0184888
-0.0241166
1.64095
1.57763
-0.00396691
1.573
-0.0040842
1.57217
-0.00230637
1.57223
-0.00147708
1.57309
-0.000985798
1.57428
-0.000505059
1.57545
-0.000120412
1.57653
0.00015508
1.57749
0.000356702
1.57833
0.000506976
1.57906
0.000617666
1.5797
0.000697676
1.58027
0.000754164
1.58078
0.000792388
1.58124
0.000816044
1.58167
0.000827724
1.58206
0.000829208
1.58243
0.000821649
1.58278
0.000805702
1.58312
0.000781619
1.58346
0.000749306
1.5838
0.000708362
1.58414
0.000658089
1.58449
0.000597491
1.58485
0.000525366
1.58524
0.000440279
1.58564
0.000340474
1.58608
0.000223299
1.58656
8.55854e-05
1.58708
-7.5981e-05
1.58766
-0.00026538
1.5883
-0.000487344
1.58902
-0.000747514
1.58984
-0.00105145
1.59076
-0.00140731
1.59182
-0.00182443
1.59302
-0.00231401
1.5944
-0.00288966
1.596
-0.00356817
1.59784
-0.00437003
1.59997
-0.00532055
1.60245
-0.00645184
1.60534
-0.00780542
1.60871
-0.00943595
1.61265
-0.011417
1.61726
-0.0138496
1.62263
-0.0168747
1.62885
-0.0206904
1.63594
-0.0255712
-0.031875
1.64369
1.59001
-0.00235605
1.58927
-0.00334334
1.58952
-0.00256439
1.58974
-0.00169095
1.5898
-0.00104513
1.58979
-0.000497091
1.58972
-4.90381e-05
1.58959
0.000280055
1.58944
0.000508926
1.58928
0.000665447
1.58913
0.000769322
1.58899
0.00083423
1.58888
0.000870421
1.58878
0.000885404
1.58872
0.000884398
1.58867
0.000870902
1.58865
0.000847171
1.58866
0.00081454
1.58869
0.000773644
1.58875
0.000724575
1.58883
0.00066698
1.58894
0.000600103
1.58908
0.000522791
1.58924
0.000433382
1.58944
0.000330134
1.58967
0.000211116
1.58993
7.35477e-05
1.59024
-8.56321e-05
1.5906
-0.000269901
1.591
-0.00048387
1.59147
-0.000733148
1.59201
-0.0010237
1.59262
-0.00136258
1.59333
-0.00175794
1.59414
-0.00221985
1.59508
-0.00276026
1.59616
-0.00339334
1.5974
-0.00413614
1.59885
-0.00500921
1.60051
-0.00603755
1.60244
-0.00725165
1.60468
-0.00868929
1.60727
-0.0103978
1.61028
-0.0124369
1.61374
-0.0148835
1.61773
-0.0178361
1.62228
-0.0214219
1.62739
-0.0258022
1.63299
-0.0311734
-0.0377525
1.63887
1.59022
-0.000962901
1.58845
-0.00156467
1.58719
-0.00131325
1.58635
-0.000847022
1.58579
-0.00048736
1.5855
-0.0002084
1.58543
2.08492e-05
1.58552
0.000197128
1.5857
0.000323583
1.58596
0.00041182
1.58625
0.000471817
1.58658
0.000510115
1.58692
0.000531345
1.58726
0.000538929
1.58761
0.000535247
1.58796
0.000521805
1.58831
0.000499438
1.58866
0.000468451
1.589
0.000428721
1.58935
0.00037976
1.58969
0.00032078
1.59004
0.000250656
1.5904
0.000167997
1.59076
7.05828e-05
1.59113
-4.38033e-05
1.59152
-0.00017793
1.59193
-0.000335097
1.59236
-0.000518785
1.59283
-0.000733122
1.59333
-0.000983543
1.59387
-0.00127632
1.59446
-0.00161863
1.59512
-0.00201889
1.59585
-0.00248701
1.59666
-0.00303476
1.59758
-0.00367608
1.59861
-0.00442752
1.59979
-0.00530873
1.60112
-0.00634322
1.60264
-0.00755913
1.60438
-0.00899035
1.60637
-0.0106778
1.60864
-0.0126714
1.61124
-0.0150321
1.61419
-0.0178342
1.61752
-0.0211686
1.62124
-0.0251447
1.62533
-0.0298906
1.62971
-0.0355493
-0.0422646
1.63422
1.59117
-0.000510711
1.59055
-0.000953441
1.59023
-0.000991508
1.5902
-0.000809896
1.5903
-0.000595088
1.59049
-0.00039091
1.5907
-0.000198565
1.59093
-2.88388e-05
1.59114
0.000109766
1.59134
0.000217138
1.59151
0.000296976
1.59167
0.000353121
1.59181
0.000388958
1.59194
0.000407449
1.59207
0.000411012
1.59219
0.00040143
1.59231
0.00037988
1.59243
0.000346976
1.59256
0.000302839
1.59269
0.000247108
1.59283
0.000179165
1.59298
9.78508e-05
1.59315
1.62933e-06
1.59333
-0.000111336
1.59353
-0.000243636
1.59375
-0.000398539
1.594
-0.000579559
1.59427
-0.000790807
1.59457
-0.0010372
1.59491
-0.0013247
1.5953
-0.00166031
1.59573
-0.00205218
1.59622
-0.00250988
1.59678
-0.0030446
1.59741
-0.00366955
1.59814
-0.00440028
1.59897
-0.00525514
1.59991
-0.00625577
1.601
-0.00742774
1.60224
-0.00880127
1.60366
-0.0104121
1.60529
-0.0123028
1.60714
-0.0145234
1.60924
-0.0171332
1.61161
-0.0202022
1.61425
-0.0238111
1.61716
-0.0280521
1.62029
-0.0330258
1.62358
-0.0388347
-0.045571
1.62689
1.59137
-0.000263477
1.59094
-0.000521139
1.59052
-0.000578461
1.5902
-0.000484962
1.58995
-0.000340955
1.58975
-0.000197331
1.58962
-6.69627e-05
1.58955
4.36883e-05
1.58953
0.000130123
1.58955
0.00019228
1.58962
0.000233039
1.58971
0.000255742
1.58984
0.000263247
1.58999
0.000257844
1.59016
0.000241245
1.59035
0.00021458
1.59055
0.000178421
1.59076
0.000132796
1.59099
7.73281e-05
1.59122
1.12057e-05
1.59147
-6.68043e-05
1.59172
-0.000158284
1.59199
-0.000265322
1.59227
-0.000390032
1.59256
-0.000535399
1.59287
-0.000704934
1.59319
-0.000902657
1.59353
-0.00113327
1.5939
-0.00140229
1.59429
-0.00171625
1.59471
-0.0020828
1.59517
-0.00251086
1.59567
-0.00301087
1.59622
-0.00359503
1.59683
-0.00427762
1.59751
-0.0050754
1.59826
-0.00600799
1.5991
-0.00709836
1.60005
-0.00837339
1.60111
-0.00986447
1.60231
-0.0116083
1.60365
-0.0136474
1.60516
-0.0160312
1.60684
-0.0188163
1.60871
-0.0220672
1.61075
-0.0258558
1.61296
-0.03026
1.6153
-0.0353607
1.6177
-0.0412365
-0.0479565
1.62008
1.59149
-0.000139615
1.59126
-0.00029003
1.59103
-0.000348159
1.59087
-0.000323336
1.59079
-0.00025933
1.59078
-0.000187442
1.59083
-0.000118828
1.59093
-5.77656e-05
1.59107
-7.52318e-06
1.59123
3.03487e-05
1.59141
5.60464e-05
1.59159
7.04435e-05
1.59178
7.43873e-05
1.59197
6.85291e-05
1.59216
5.32921e-05
1.59235
2.88303e-05
1.59253
-4.99507e-06
1.59271
-4.86162e-05
1.59289
-0.000102778
1.59307
-0.000168493
1.59325
-0.000247249
1.59343
-0.0003408
1.59362
-0.000451268
1.59381
-0.00058113
1.59401
-0.000733452
1.59422
-0.000911877
1.59443
-0.00112066
1.59467
-0.00136479
1.59491
-0.00165009
1.59518
-0.00198343
1.59547
-0.00237286
1.59579
-0.00282779
1.59614
-0.00335919
1.59652
-0.00397989
1.59695
-0.00470489
1.59742
-0.00555165
1.59796
-0.00654058
1.59855
-0.00769537
1.59922
-0.00904359
1.59998
-0.0106171
1.60082
-0.0124527
1.60177
-0.0145924
1.60282
-0.0170842
1.60398
-0.0199819
1.60526
-0.0233449
1.60664
-0.0272377
1.60811
-0.0317273
1.60963
-0.0368805
1.61115
-0.0427579
-0.049408
1.6126
1.59154
-6.25338e-05
1.59138
-0.000133441
1.5912
-0.000166851
1.59104
-0.000162625
1.59092
-0.000136976
1.59084
-0.000104948
1.59079
-7.3904e-05
1.59078
-4.71959e-05
1.5908
-2.71469e-05
1.59085
-1.51279e-05
1.59091
-1.14828e-05
1.591
-1.60043e-05
1.5911
-2.83828e-05
1.59122
-4.83984e-05
1.59135
-7.59934e-05
1.59149
-0.000111327
1.59164
-0.000154814
1.5918
-0.000207096
1.59196
-0.000269128
1.59214
-0.000342162
1.59232
-0.000427799
1.59251
-0.000527969
1.5927
-0.000644976
1.5929
-0.000781543
1.59311
-0.000940906
1.59332
-0.00112688
1.59355
-0.00134394
1.59378
-0.0015973
1.59402
-0.00189304
1.59428
-0.0022383
1.59454
-0.00264141
1.59483
-0.00311209
1.59513
-0.00366164
1.59545
-0.00430328
1.5958
-0.00505236
1.59618
-0.00592674
1.59658
-0.00694716
1.59703
-0.00813762
1.59751
-0.00952584
1.59803
-0.0111437
1.59861
-0.0130275
1.59924
-0.0152187
1.59992
-0.0177635
1.60065
-0.0207133
1.60143
-0.0241236
1.60224
-0.0280535
1.60308
-0.0325629
1.60391
-0.0377101
1.6047
-0.0435468
-0.0501163
1.6054
1.59156
-5.07685e-06
1.59144
-1.2581e-05
1.59129
-2.0341e-05
1.59116
-2.85931e-05
1.59106
-3.75502e-05
1.591
-4.74335e-05
1.59099
-5.84814e-05
1.59101
-7.09654e-05
1.59107
-8.51919e-05
1.59115
-0.000101506
1.59126
-0.000120302
1.59139
-0.00014204
1.59153
-0.000167249
1.59168
-0.000196543
1.59183
-0.000230636
1.59199
-0.000270359
1.59215
-0.000316678
1.59232
-0.000370711
1.59248
-0.000433769
1.59265
-0.000507385
1.59281