/*--------------------------------*- C++ -*----------------------------------*\
  =========                 |
  \\      /  F ield         | OpenFOAM: The Open Source CFD Toolbox
   \\    /   O peration     | Website:  https://openfoam.org
    \\  /    A nd           | Version:  8
     \\/     M anipulation  |
\*---------------------------------------------------------------------------*/
FoamFile
{
    version     2.0;
    format      ascii;
    class       volScalarField;
    location    "200";
    object      T;
}
// * * * * * * * * * * * * * * * * * * * * * * * * * * * * * * * * * * * * * //

dimensions      [0 0 0 1 0 0 0];

internalField   nonuniform List<scalar> 
8400
(
293.028
293.026
293.025
293.023
293.022
293.02
293.019
293.018
293.016
293.015
293.014
293.013
293.012
293.011
293.01
293.009
293.009
293.008
293.007
293.007
293.006
293.006
293.006
293.005
293.005
293.005
293.005
293.005
293.004
293.004
293.004
293.004
293.004
293.004
293.004
293.004
293.004
293.004
293.004
293.004
293.003
293.003
293.003
293.002
293.002
293.001
293
292.999
292.998
292.996
293.138
293.137
293.136
293.135
293.134
293.133
293.132
293.131
293.131
293.13
293.129
293.129
293.128
293.128
293.128
293.127
293.127
293.127
293.127
293.127
293.127
293.127
293.127
293.127
293.128
293.128
293.128
293.128
293.129
293.129
293.13
293.13
293.13
293.131
293.131
293.132
293.132
293.132
293.133
293.133
293.134
293.134
293.134
293.134
293.134
293.134
293.134
293.134
293.134
293.134
293.154
293.154
293.153
293.152
293.151
293.151
293.15
293.149
293.149
293.148
293.148
293.147
293.147
293.147
293.146
293.146
293.146
293.146
293.146
293.146
293.146
293.146
293.146
293.146
293.146
293.147
293.147
293.147
293.148
293.148
293.148
293.149
293.149
293.15
293.15
293.151
293.151
293.152
293.152
293.152
293.153
293.153
293.154
293.154
293.154
293.155
293.155
293.155
293.155
293.156
293.165
293.165
293.164
293.163
293.163
293.162
293.162
293.161
293.16
293.16
293.159
293.159
293.159
293.158
293.158
293.157
293.157
293.157
293.156
293.156
293.156
293.156
293.156
293.156
293.155
293.155
293.155
293.155
293.156
293.156
293.156
293.156
293.156
293.156
293.156
293.157
293.157
293.157
293.157
293.157
293.158
293.158
293.158
293.158
293.158
293.158
293.159
293.159
293.159
293.159
293.176
293.175
293.175
293.175
293.174
293.174
293.173
293.173
293.173
293.172
293.172
293.171
293.171
293.17
293.17
293.169
293.169
293.168
293.168
293.167
293.167
293.166
293.166
293.165
293.165
293.165
293.164
293.164
293.164
293.163
293.163
293.163
293.162
293.162
293.162
293.162
293.161
293.161
293.161
293.161
293.161
293.161
293.161
293.161
293.161
293.161
293.161
293.16
293.16
293.16
293.188
293.188
293.188
293.188
293.188
293.188
293.187
293.187
293.187
293.187
293.186
293.186
293.185
293.185
293.184
293.184
293.183
293.182
293.182
293.181
293.18
293.179
293.179
293.178
293.177
293.176
293.175
293.175
293.174
293.173
293.172
293.172
293.171
293.17
293.169
293.169
293.168
293.168
293.167
293.167
293.166
293.166
293.165
293.165
293.165
293.164
293.164
293.164
293.163
293.163
293.198
293.198
293.199
293.199
293.199
293.199
293.199
293.199
293.199
293.199
293.198
293.198
293.198
293.197
293.197
293.196
293.195
293.194
293.194
293.193
293.192
293.191
293.19
293.188
293.187
293.186
293.185
293.184
293.183
293.181
293.18
293.179
293.178
293.177
293.176
293.175
293.174
293.173
293.172
293.171
293.17
293.17
293.169
293.168
293.168
293.167
293.166
293.166
293.165
293.165
293.207
293.208
293.208
293.209
293.209
293.209
293.209
293.209
293.209
293.209
293.209
293.209
293.208
293.208
293.207
293.206
293.206
293.205
293.204
293.203
293.201
293.2
293.199
293.198
293.196
293.195
293.193
293.192
293.19
293.189
293.187
293.186
293.184
293.183
293.182
293.18
293.179
293.178
293.177
293.175
293.174
293.173
293.172
293.172
293.171
293.17
293.169
293.169
293.168
293.167
293.213
293.214
293.214
293.215
293.215
293.216
293.216
293.216
293.216
293.216
293.216
293.216
293.215
293.215
293.214
293.213
293.212
293.211
293.21
293.209
293.208
293.206
293.205
293.203
293.202
293.2
293.199
293.197
293.195
293.193
293.192
293.19
293.188
293.187
293.185
293.184
293.182
293.181
293.18
293.178
293.177
293.176
293.175
293.174
293.173
293.172
293.171
293.17
293.17
293.169
293.217
293.218
293.219
293.219
293.22
293.22
293.22
293.22
293.22
293.22
293.22
293.22
293.219
293.219
293.218
293.217
293.216
293.215
293.214
293.213
293.211
293.21
293.208
293.207
293.205
293.203
293.202
293.2
293.198
293.196
293.195
293.193
293.191
293.189
293.188
293.186
293.185
293.183
293.182
293.18
293.179
293.178
293.177
293.175
293.174
293.173
293.173
293.172
293.171
293.17
293.219
293.22
293.22
293.221
293.221
293.222
293.222
293.222
293.222
293.222
293.222
293.221
293.221
293.22
293.219
293.219
293.218
293.217
293.215
293.214
293.213
293.211
293.21
293.208
293.206
293.205
293.203
293.201
293.199
293.197
293.196
293.194
293.192
293.19
293.189
293.187
293.186
293.184
293.183
293.181
293.18
293.179
293.178
293.177
293.176
293.175
293.174
293.173
293.172
293.171
293.219
293.22
293.22
293.221
293.221
293.221
293.221
293.221
293.221
293.221
293.221
293.22
293.22
293.219
293.218
293.218
293.217
293.216
293.214
293.213
293.212
293.21
293.209
293.207
293.205
293.204
293.202
293.2
293.199
293.197
293.195
293.194
293.192
293.19
293.189
293.187
293.186
293.184
293.183
293.182
293.18
293.179
293.178
293.177
293.176
293.175
293.174
293.174
293.173
293.172
293.218
293.218
293.219
293.219
293.219
293.219
293.219
293.219
293.219
293.219
293.219
293.218
293.218
293.217
293.216
293.215
293.214
293.213
293.212
293.211
293.21
293.208
293.207
293.205
293.204
293.202
293.201
293.199
293.198
293.196
293.195
293.193
293.191
293.19
293.189
293.187
293.186
293.184
293.183
293.182
293.181
293.18
293.179
293.178
293.177
293.176
293.175
293.174
293.174
293.173
293.214
293.215
293.215
293.215
293.215
293.215
293.215
293.215
293.215
293.215
293.214
293.214
293.213
293.212
293.212
293.211
293.21
293.209
293.208
293.207
293.206
293.204
293.203
293.202
293.2
293.199
293.198
293.196
293.195
293.194
293.192
293.191
293.189
293.188
293.187
293.186
293.185
293.183
293.182
293.181
293.18
293.179
293.178
293.178
293.177
293.176
293.175
293.174
293.174
293.173
293.211
293.211
293.211
293.211
293.211
293.211
293.211
293.211
293.211
293.21
293.21
293.21
293.209
293.208
293.208
293.207
293.206
293.205
293.204
293.203
293.202
293.201
293.2
293.199
293.198
293.197
293.195
293.194
293.193
293.192
293.191
293.19
293.188
293.187
293.186
293.185
293.184
293.183
293.182
293.181
293.181
293.18
293.179
293.178
293.178
293.177
293.176
293.176
293.175
293.174
293.204
293.204
293.204
293.204
293.204
293.204
293.204
293.204
293.204
293.203
293.203
293.202
293.202
293.201
293.201
293.2
293.199
293.199
293.198
293.197
293.196
293.195
293.194
293.194
293.193
293.192
293.191
293.19
293.189
293.188
293.187
293.186
293.185
293.184
293.184
293.183
293.182
293.181
293.18
293.18
293.179
293.178
293.178
293.177
293.177
293.176
293.176
293.175
293.174
293.174
293.2
293.2
293.2
293.2
293.2
293.2
293.199
293.199
293.199
293.199
293.198
293.198
293.197
293.197
293.196
293.196
293.195
293.195
293.194
293.193
293.193
293.192
293.191
293.191
293.19
293.189
293.189
293.188
293.187
293.186
293.186
293.185
293.184
293.184
293.183
293.183
293.182
293.181
293.181
293.18
293.18
293.179
293.179
293.178
293.178
293.177
293.177
293.176
293.176
293.175
293.189
293.189
293.188
293.188
293.188
293.188
293.188
293.188
293.187
293.187
293.187
293.187
293.186
293.186
293.185
293.185
293.185
293.184
293.184
293.183
293.183
293.182
293.182
293.181
293.181
293.18
293.18
293.179
293.179
293.178
293.178
293.177
293.177
293.176
293.176
293.176
293.175
293.175
293.174
293.174
293.174
293.173
293.173
293.173
293.172
293.172
293.172
293.172
293.171
293.171
293.17
293.17
293.169
293.169
293.169
293.169
293.168
293.168
293.168
293.167
293.167
293.167
293.166
293.166
293.165
293.165
293.164
293.164
293.163
293.163
293.162
293.162
293.161
293.161
293.16
293.16
293.159
293.159
293.158
293.158
293.157
293.157
293.156
293.156
293.155
293.155
293.154
293.154
293.153
293.153
293.152
293.152
293.152
293.151
293.151
293.151
293.151
293.151
293.151
293.152
293.06
293.059
293.059
293.058
293.058
293.057
293.057
293.056
293.055
293.055
293.054
293.054
293.053
293.052
293.051
293.051
293.05
293.049
293.049
293.048
293.047
293.046
293.046
293.045
293.044
293.044
293.043
293.042
293.042
293.041
293.041
293.04
293.04
293.039
293.039
293.038
293.038
293.038
293.037
293.037
293.036
293.036
293.036
293.035
293.035
293.035
293.035
293.034
293.034
293.034
303.15
303.15
303.151
303.151
303.148
303.146
303.144
303.141
303.139
303.137
303.135
303.132
303.13
303.128
303.126
303.124
303.122
303.12
303.118
303.116
303.114
303.112
303.11
303.108
303.106
303.105
303.103
303.101
303.099
303.097
303.096
303.094
303.092
303.091
303.089
303.087
303.086
303.084
303.082
303.081
303.079
303.078
303.076
303.075
303.073
303.072
303.071
303.069
303.068
303.068
303.15
303.15
303.149
303.149
303.149
303.149
303.149
303.149
303.149
303.149
303.149
303.149
303.149
303.148
303.148
303.148
303.148
303.148
303.148
303.147
303.147
303.147
303.147
303.146
303.146
303.146
303.146
303.146
303.145
303.145
303.145
303.145
303.144
303.144
303.144
303.144
303.143
303.143
303.143
303.143
303.142
303.142
303.142
303.142
303.141
303.141
303.141
303.141
303.141
303.141
303.15
303.15
303.15
303.15
303.15
303.15
303.15
303.15
303.15
303.15
303.15
303.15
303.15
303.15
303.15
303.15
303.15
303.15
303.15
303.15
303.15
303.15
303.15
303.15
303.15
303.15
303.15
303.15
303.15
303.15
303.15
303.15
303.15
303.15
303.15
303.15
303.15
303.15
303.149
303.149
303.149
303.149
303.149
303.149
303.149
303.149
303.149
303.149
303.149
303.149
303.15
303.15
303.15
303.15
303.15
303.15
303.15
303.15
303.15
303.15
303.15
303.15
303.15
303.15
303.15
303.15
303.15
303.15
303.15
303.15
303.15
303.15
303.15
303.15
303.15
303.15
303.15
303.15
303.15
303.15
303.15
303.15
303.15
303.15
303.15
303.15
303.15
303.15
303.15
303.15
303.15
303.15
303.15
303.15
303.15
303.15
303.15
303.15
303.15
303.15
303.15
303.15
303.15
303.15
303.15
303.15
303.15
303.15
303.15
303.15
303.15
303.15
303.15
303.15
303.15
303.15
303.15
303.15
303.15
303.15
303.15
303.15
303.15
303.15
303.15
303.15
303.15
303.15
303.15
303.15
303.15
303.15
303.15
303.15
303.15
303.15
303.15
303.15
303.15
303.15
303.15
303.15
303.15
303.15
303.15
303.15
303.15
303.15
303.15
303.15
303.15
303.15
303.15
303.15
303.15
303.15
303.15
303.15
303.15
303.15
303.15
303.15
303.15
303.15
303.15
303.15
303.15
303.15
303.15
303.15
303.15
303.15
303.15
303.15
303.15
303.15
303.15
303.15
303.15
303.15
303.15
303.15
303.15
303.15
303.15
303.15
303.15
303.15
303.15
303.15
303.15
303.15
303.15
303.15
303.15
303.15
303.15
303.15
303.15
303.15
303.15
303.15
303.15
303.15
303.15
303.15
303.15
303.15
303.15
303.15
303.15
303.15
303.15
303.15
303.15
303.15
303.15
303.15
303.15
303.15
303.15
303.15
303.15
303.15
303.15
303.15
303.15
303.15
303.15
303.15
303.15
303.15
303.15
303.15
303.15
303.15
303.15
303.15
303.15
303.15
303.15
303.15
303.15
303.15
303.15
303.15
303.15
303.15
303.15
303.15
303.15
303.15
303.15
303.15
303.15
303.15
303.15
303.15
303.15
303.15
303.15
303.15
303.15
303.15
303.15
303.15
303.15
303.15
303.15
303.15
303.15
303.15
303.15
303.15
303.15
303.15
303.15
303.15
303.15
303.15
303.15
303.15
303.15
303.15
303.15
303.15
303.15
303.15
303.15
303.15
303.15
303.15
303.15
303.15
303.15
303.15
303.15
303.15
303.15
303.15
303.15
303.15
303.15
303.15
303.15
303.15
303.15
303.15
303.15
303.15
303.15
303.15
303.15
303.15
303.15
303.15
303.15
303.15
303.15
303.15
303.15
303.15
303.15
303.15
303.15
303.15
303.15
303.15
303.15
303.15
303.15
303.15
303.15
303.15
303.15
303.15
303.15
303.15
303.15
303.15
303.15
303.15
303.15
303.15
303.15
303.15
303.15
303.15
303.15
303.15
303.15
303.15
303.15
303.15
303.15
303.15
303.15
303.15
303.15
303.15
303.15
303.15
303.15
303.15
303.15
303.15
303.15
303.15
303.15
303.15
303.15
303.15
303.15
303.15
303.15
303.15
303.15
303.15
303.15
303.15
303.15
303.15
303.15
303.15
303.15
303.15
303.15
303.15
303.15
303.15
303.15
303.15
303.15
303.15
303.15
303.15
303.15
303.15
303.15
303.15
303.15
303.15
303.15
303.15
303.15
303.15
303.15
303.15
303.15
303.15
303.15
303.15
303.15
303.15
303.15
303.15
303.15
303.15
303.15
303.15
303.15
303.15
303.15
303.15
303.15
303.15
303.15
303.15
303.15
303.15
303.15
303.15
303.15
303.15
303.15
303.15
303.15
303.15
303.15
303.15
303.15
303.15
303.15
303.15
303.15
303.15
303.15
303.15
303.15
303.15
303.15
303.15
303.15
303.15
303.15
303.15
303.15
303.15
303.15
303.15
303.15
303.15
303.15
303.15
303.15
303.15
303.15
303.15
303.15
303.15
303.15
303.15
303.15
303.15
303.15
303.15
303.15
303.15
303.15
303.15
303.15
303.15
303.15
303.15
303.15
303.15
303.15
303.15
303.15
303.15
303.15
303.15
303.15
303.15
303.15
303.15
303.15
303.15
303.15
303.15
303.15
303.15
303.15
303.15
303.15
303.15
303.15
303.15
303.15
303.15
303.15
303.15
303.15
303.15
303.15
303.15
303.15
303.15
303.15
303.15
303.15
303.15
303.15
303.15
303.15
303.15
303.15
303.15
303.15
303.15
303.15
303.15
303.15
303.15
303.15
303.15
303.15
303.15
303.15
303.15
303.15
303.15
303.15
303.15
303.15
303.15
303.15
303.15
303.15
303.15
303.15
303.15
303.15
303.15
303.15
303.15
303.15
303.15
303.15
303.15
303.15
303.15
303.15
303.15
303.15
303.15
303.15
303.15
303.15
303.15
303.15
303.15
303.15
303.15
303.15
303.15
303.15
303.15
303.15
303.15
303.15
303.15
303.15
303.15
303.15
303.15
303.15
303.15
303.15
303.15
303.15
303.15
303.15
303.15
303.15
303.15
303.15
303.15
303.15
303.15
303.15
303.15
303.15
303.15
303.15
303.15
303.15
303.15
303.15
303.15
303.15
303.15
303.15
303.15
303.15
303.15
303.15
303.15
303.15
303.15
303.15
303.15
303.15
303.15
303.15
303.15
303.15
303.15
303.15
303.15
303.15
303.15
303.15
303.15
303.15
303.15
303.15
303.15
303.15
303.15
303.15
303.15
303.15
303.15
303.15
303.15
303.15
303.15
303.15
303.15
303.15
303.15
303.15
303.15
303.15
303.15
303.15
303.15
303.15
303.15
303.15
303.15
303.15
303.15
303.15
303.15
303.15
303.15
303.15
303.15
303.15
303.15
303.15
303.15
303.15
303.15
303.15
303.15
303.15
303.15
303.15
303.15
303.15
303.15
303.15
303.15
303.15
303.15
303.15
303.15
303.15
303.15
303.15
303.15
303.15
303.15
303.15
303.15
303.15
303.15
303.15
303.15
303.15
303.15
303.15
303.15
303.15
303.15
303.15
303.15
303.15
303.15
303.15
303.15
303.15
303.15
303.15
303.15
303.15
303.15
303.15
303.15
303.15
303.15
303.15
303.15
303.15
303.15
303.15
303.15
303.15
303.15
303.15
303.15
303.15
303.15
303.15
303.15
303.15
303.15
303.15
303.15
303.15
303.15
303.15
303.15
303.15
303.15
303.15
303.15
303.15
303.15
303.15
303.15
303.15
303.15
303.15
303.15
303.15
303.15
303.15
303.15
303.15
303.15
303.15
303.15
303.15
303.15
303.15
303.15
303.15
303.15
303.15
303.15
303.15
303.15
303.15
303.15
303.15
303.15
303.15
303.15
303.15
303.15
303.15
303.149
303.149
303.149
303.149
303.149
303.149
303.149
303.149
303.149
303.149
303.149
303.149
303.149
303.149
303.148
303.15
303.15
303.149
303.149
303.149
303.149
303.149
303.149
303.149
303.149
303.149
303.149
303.149
303.148
303.148
303.148
303.148
303.148
303.148
303.147
303.147
303.147
303.147
303.146
303.146
303.146
303.146
303.145
303.145
303.145
303.145
303.144
303.144
303.144
303.144
303.143
303.143
303.143
303.142
303.142
303.141
303.141
303.141
303.14
303.14
303.139
303.139
303.138
303.137
303.137
303.15
303.15
303.151
303.151
303.148
303.146
303.144
303.141
303.139
303.137
303.135
303.132
303.13
303.128
303.126
303.124
303.122
303.12
303.118
303.116
303.114
303.112
303.11
303.108
303.106
303.105
303.103
303.101
303.099
303.097
303.096
303.094
303.092
303.09
303.089
303.087
303.085
303.084
303.082
303.081
303.079
303.077
303.076
303.074
303.073
303.071
303.07
303.068
303.067
303.065
295.474
295.581
295.654
295.692
295.721
295.737
295.753
295.763
295.776
295.782
295.784
295.78
295.773
295.765
295.755
295.741
295.719
295.684
295.615
295.457
295.633
295.737
295.812
295.851
295.882
295.897
295.914
295.925
295.937
295.943
295.946
295.941
295.934
295.926
295.916
295.902
295.878
295.843
295.773
295.616
295.796
295.9
295.976
296.016
296.047
296.063
296.08
296.091
296.103
296.11
296.112
296.108
296.101
296.092
296.081
296.067
296.043
296.006
295.936
295.781
295.965
296.067
296.144
296.185
296.217
296.233
296.251
296.262
296.275
296.281
296.284
296.279
296.272
296.263
296.252
296.237
296.213
296.175
296.105
295.95
296.138
296.239
296.318
296.36
296.392
296.408
296.426
296.437
296.451
296.457
296.46
296.455
296.447
296.438
296.427
296.412
296.387
296.349
296.278
296.124
296.316
296.416
296.496
296.538
296.571
296.588
296.606
296.617
296.631
296.637
296.64
296.635
296.627
296.618
296.607
296.591
296.566
296.527
296.455
296.302
296.498
296.597
296.678
296.721
296.754
296.772
296.79
296.801
296.815
296.821
296.824
296.819
296.811
296.802
296.79
296.774
296.749
296.709
296.637
296.485
296.684
296.782
296.864
296.908
296.942
296.959
296.977
296.989
297.002
297.009
297.011
297.006
296.998
296.989
296.977
296.961
296.935
296.895
296.823
296.672
296.873
296.971
297.053
297.098
297.132
297.149
297.168
297.18
297.193
297.2
297.202
297.197
297.189
297.179
297.167
297.151
297.125
297.085
297.012
296.861
297.066
297.162
297.246
297.291
297.325
297.343
297.361
297.373
297.387
297.393
297.396
297.39
297.382
297.373
297.361
297.345
297.318
297.277
297.204
297.054
297.261
297.357
297.441
297.487
297.521
297.539
297.557
297.569
297.583
297.589
297.592
297.586
297.578
297.568
297.556
297.54
297.513
297.472
297.399
297.25
297.458
297.554
297.639
297.685
297.719
297.737
297.755
297.767
297.78
297.787
297.789
297.784
297.775
297.766
297.754
297.738
297.711
297.669
297.596
297.447
297.657
297.753
297.838
297.884
297.919
297.936
297.955
297.966
297.98
297.986
297.988
297.983
297.974
297.965
297.953
297.937
297.91
297.868
297.795
297.647
297.858
297.953
298.039
298.085
298.119
298.137
298.155
298.167
298.18
298.186
298.188
298.183
298.174
298.165
298.153
298.137
298.11
298.068
297.995
297.847
298.059
298.154
298.24
298.286
298.321
298.338
298.356
298.367
298.38
298.387
298.389
298.383
298.375
298.365
298.353
298.337
298.31
298.269
298.195
298.048
298.26
298.356
298.442
298.488
298.522
298.539
298.557
298.568
298.581
298.587
298.589
298.583
298.575
298.566
298.554
298.538
298.511
298.47
298.396
298.249
298.461
298.557
298.643
298.689
298.723
298.739
298.757
298.768
298.781
298.787
298.789
298.783
298.775
298.766
298.754
298.738
298.712
298.67
298.597
298.45
298.661
298.758
298.844
298.889
298.923
298.939
298.956
298.967
298.98
298.986
298.987
298.982
298.973
298.964
298.953
298.938
298.911
298.87
298.797
298.65
298.86
298.957
299.043
299.088
299.121
299.137
299.154
299.165
299.177
299.183
299.184
299.179
299.171
299.162
299.151
299.135
299.109
299.069
298.995
298.849
299.057
299.155
299.24
299.285
299.318
299.333
299.35
299.36
299.372
299.378
299.379
299.374
299.366
299.357
299.346
299.331
299.305
299.265
299.192
299.046
299.252
299.351
299.436
299.48
299.512
299.527
299.543
299.553
299.565
299.57
299.572
299.566
299.558
299.55
299.539
299.524
299.499
299.459
299.387
299.24
299.444
299.544
299.628
299.671
299.703
299.717
299.733
299.743
299.754
299.759
299.761
299.755
299.748
299.739
299.729
299.715
299.69
299.651
299.578
299.432
299.633
299.734
299.818
299.86
299.89
299.904
299.92
299.929
299.94
299.945
299.946
299.941
299.934
299.926
299.915
299.902
299.877
299.839
299.767
299.62
299.818
299.92
300.003
300.044
300.074
300.088
300.103
300.112
300.122
300.127
300.128
300.123
300.116
300.108
300.098
300.085
300.061
300.023
299.951
299.804
299.999
300.102
300.185
300.225
300.254
300.267
300.281
300.29
300.3
300.305
300.306
300.301
300.294
300.286
300.277
300.264
300.241
300.204
300.132
299.984
300.176
300.28
300.362
300.401
300.429
300.441
300.455
300.463
300.473
300.478
300.479
300.474
300.467
300.46
300.45
300.438
300.416
300.379
300.308
300.16
300.347
300.453
300.534
300.572
300.599
300.611
300.624
300.632
300.641
300.645
300.646
300.642
300.635
300.628
300.619
300.607
300.585
300.55
300.48
300.331
300.514
300.621
300.7
300.737
300.763
300.775
300.788
300.795
300.804
300.808
300.809
300.804
300.798
300.791
300.783
300.771
300.75
300.716
300.646
300.497
300.675
300.784
300.862
300.897
300.922
300.933
300.946
300.953
300.961
300.965
300.966
300.961
300.955
300.949
300.941
300.93
300.909
300.876
300.807
300.657
300.83
300.941
301.017
301.052
301.076
301.086
301.098
301.104
301.113
301.116
301.117
301.112
301.106
301.101
301.093
301.082
301.063
301.03
300.962
300.811
300.979
301.092
301.167
301.2
301.223
301.233
301.244
301.25
301.258
301.261
301.262
301.258
301.252
301.246
301.239
301.229
301.21
301.179
301.111
300.959
301.122
301.237
301.311
301.342
301.364
301.373
301.384
301.39
301.397
301.4
301.4
301.397
301.391
301.386
301.379
301.369
301.352
301.321
301.254
301.102
301.259
301.375
301.448
301.478
301.499
301.507
301.517
301.523
301.53
301.532
301.533
301.529
301.524
301.519
301.513
301.504
301.487
301.457
301.39
301.238
301.39
301.508
301.579
301.607
301.627
301.635
301.645
301.65
301.656
301.659
301.659
301.656
301.651
301.646
301.64
301.631
301.615
301.587
301.52
301.367
301.514
301.633
301.703
301.73
301.749
301.756
301.765
301.77
301.776
301.778
301.779
301.775
301.771
301.767
301.761
301.753
301.737
301.71
301.644
301.49
301.631
301.753
301.821
301.847
301.865
301.871
301.88
301.884
301.89
301.892
301.892
301.889
301.885
301.881
301.875
301.868
301.853
301.826
301.762
301.607
301.742
301.865
301.932
301.957
301.973
301.98
301.987
301.991
301.997
301.999
301.999
301.996
301.992
301.988
301.983
301.976
301.962
301.937
301.873
301.717
301.847
301.972
302.037
302.06
302.076
302.082
302.089
302.092
302.097
302.099
302.099
302.097
302.093
302.09
302.085
302.078
302.065
302.041
301.977
301.821
301.946
302.071
302.135
302.157
302.172
302.177
302.184
302.187
302.192
302.193
302.194
302.191
302.188
302.185
302.18
302.174
302.162
302.138
302.075
301.918
302.038
302.165
302.227
302.248
302.262
302.267
302.273
302.276
302.28
302.282
302.282
302.279
302.276
302.273
302.269
302.264
302.252
302.229
302.167
302.01
302.124
302.253
302.313
302.333
302.346
302.35
302.356
302.359
302.362
302.364
302.364
302.362
302.359
302.356
302.352
302.347
302.336
302.315
302.253
302.095
302.204
302.334
302.393
302.412
302.424
302.428
302.433
302.435
302.439
302.44
302.44
302.438
302.435
302.433
302.429
302.425
302.414
302.394
302.333
302.174
302.278
302.41
302.468
302.485
302.496
302.499
302.504
302.507
302.51
302.511
302.511
302.509
302.507
302.504
302.501
302.497
302.487
302.467
302.407
302.248
302.347
302.48
302.536
302.552
302.563
302.566
302.57
302.572
302.575
302.576
302.576
302.575
302.572
302.57
302.567
302.563
302.554
302.535
302.476
302.316
302.41
302.544
302.599
302.615
302.624
302.627
302.631
302.633
302.635
302.636
302.636
302.635
302.633
302.631
302.628
302.625
302.616
302.598
302.539
302.379
302.469
302.603
302.658
302.672
302.681
302.683
302.687
302.688
302.691
302.691
302.691
302.69
302.688
302.687
302.684
302.681
302.673
302.655
302.597
302.437
302.522
302.658
302.711
302.724
302.732
302.734
302.738
302.739
302.741
302.742
302.742
302.741
302.739
302.737
302.735
302.732
302.725
302.708
302.651
302.49
302.571
302.708
302.759
302.772
302.779
302.781
302.784
302.785
302.787
302.788
302.788
302.787
302.785
302.784
302.782
302.779
302.772
302.756
302.699
302.538
302.616
302.753
302.803
302.815
302.822
302.823
302.826
302.827
302.829
302.83
302.83
302.829
302.827
302.826
302.824
302.822
302.815
302.8
302.744
302.582
302.656
302.794
302.844
302.854
302.861
302.862
302.865
302.865
302.867
302.867
302.867
302.866
302.865
302.864
302.862
302.86
302.854
302.84
302.784
302.622
302.693
302.831
302.88
302.89
302.896
302.897
302.899
302.9
302.901
302.901
302.901
302.901
302.899
302.899
302.897
302.895
302.889
302.875
302.82
302.658
302.726
302.865
302.912
302.922
302.927
302.928
302.93
302.93
302.932
302.932
302.932
302.931
302.93
302.93
302.928
302.927
302.921
302.908
302.853
302.691
302.756
302.895
302.942
302.95
302.955
302.956
302.958
302.958
302.959
302.96
302.96
302.959
302.958
302.957
302.956
302.955
302.95
302.937
302.883
302.721
302.782
302.922
302.968
302.976
302.98
302.981
302.983
302.983
302.984
302.984
302.984
302.984
302.983
302.982
302.981
302.98
302.975
302.963
302.909
302.747
302.806
302.946
302.991
302.999
303.003
303.003
303.005
303.005
303.006
303.006
303.006
303.006
303.005
303.004
303.003
303.002
302.998
302.986
302.933
302.771
302.828
302.968
303.012
303.019
303.023
303.023
303.024
303.024
303.025
303.025
303.025
303.025
303.024
303.024
303.023
303.022
303.018
303.006
302.954
302.792
302.847
302.987
303.03
303.037
303.04
303.04
303.042
303.042
303.043
303.043
303.043
303.042
303.042
303.041
303.04
303.04
303.036
303.024
302.972
302.811
302.863
303.004
303.046
303.052
303.056
303.056
303.057
303.057
303.058
303.058
303.058
303.057
303.057
303.057
303.056
303.055
303.051
303.041
302.989
302.827
302.878
303.018
303.06
303.066
303.069
303.069
303.07
303.07
303.071
303.071
303.071
303.071
303.07
303.07
303.069
303.069
303.065
303.055
303.003
302.842
302.892
303.031
303.073
303.078
303.081
303.081
303.082
303.082
303.083
303.083
303.083
303.082
303.082
303.082
303.081
303.081
303.077
303.067
303.016
302.855
302.903
303.043
303.084
303.089
303.092
303.091
303.092
303.092
303.093
303.093
303.093
303.092
303.092
303.092
303.091
303.091
303.088
303.078
303.027
302.867
302.913
303.053
303.093
303.098
303.101
303.1
303.101
303.101
303.101
303.101
303.101
303.101
303.101
303.101
303.1
303.1
303.097
303.087
303.037
302.877
302.922
303.062
303.101
303.106
303.108
303.108
303.109
303.109
303.109
303.109
303.109
303.109
303.109
303.109
303.108
303.108
303.105
303.095
303.046
302.886
302.93
303.069
303.108
303.113
303.115
303.115
303.115
303.115
303.116
303.115
303.115
303.115
303.115
303.115
303.115
303.114
303.112
303.102
303.053
302.894
302.937
303.076
303.114
303.119
303.121
303.12
303.121
303.121
303.121
303.121
303.121
303.121
303.121
303.121
303.12
303.12
303.118
303.108
303.06
302.901
302.943
303.081
303.12
303.124
303.126
303.125
303.126
303.126
303.126
303.126
303.126
303.126
303.126
303.126
303.125
303.125
303.123
303.114
303.065
302.907
302.948
303.086
303.124
303.128
303.13
303.129
303.13
303.13
303.13
303.13
303.13
303.13
303.13
303.13
303.129
303.129
303.127
303.118
303.07
302.912
302.953
303.091
303.128
303.132
303.133
303.133
303.134
303.133
303.134
303.133
303.133
303.133
303.133
303.133
303.133
303.133
303.13
303.122
303.074
302.917
302.957
303.094
303.131
303.135
303.136
303.136
303.136
303.136
303.136
303.136
303.136
303.136
303.136
303.136
303.136
303.136
303.134
303.125
303.078
302.921
302.96
303.097
303.134
303.137
303.139
303.138
303.139
303.139
303.139
303.139
303.139
303.139
303.139
303.139
303.138
303.138
303.136
303.128
303.081
302.925
302.963
303.1
303.136
303.139
303.141
303.14
303.141
303.141
303.141
303.141
303.141
303.141
303.141
303.141
303.14
303.141
303.138
303.13
303.084
302.928
302.966
303.102
303.138
303.141
303.143
303.142
303.143
303.142
303.143
303.143
303.143
303.143
303.142
303.143
303.142
303.142
303.14
303.132
303.086
302.931
302.969
303.104
303.139
303.143
303.144
303.144
303.144
303.144
303.144
303.144
303.144
303.144
303.144
303.144
303.144
303.144
303.142
303.134
303.088
302.934
302.971
303.106
303.141
303.144
303.145
303.145
303.145
303.145
303.145
303.145
303.145
303.145
303.145
303.145
303.145
303.145
303.143
303.135
303.09
302.936
302.973
303.107
303.142
303.145
303.146
303.146
303.146
303.146
303.146
303.146
303.146
303.146
303.146
303.146
303.146
303.146
303.144
303.136
303.091
302.938
302.975
303.109
303.143
303.146
303.147
303.147
303.147
303.147
303.147
303.147
303.147
303.147
303.147
303.147
303.147
303.147
303.145
303.137
303.092
302.94
302.976
303.11
303.144
303.147
303.148
303.147
303.148
303.147
303.148
303.148
303.148
303.148
303.147
303.148
303.147
303.147
303.146
303.138
303.094
302.942
302.978
303.111
303.144
303.147
303.148
303.148
303.148
303.148
303.148
303.148
303.148
303.148
303.148
303.148
303.148
303.148
303.146
303.138
303.095
302.944
302.979
303.112
303.145
303.148
303.149
303.148
303.149
303.148
303.149
303.149
303.149
303.149
303.148
303.149
303.148
303.148
303.147
303.139
303.096
302.945
302.981
303.112
303.145
303.148
303.149
303.149
303.149
303.149
303.149
303.149
303.149
303.149
303.149
303.149
303.149
303.149
303.147
303.14
303.096
302.947
302.982
303.113
303.146
303.148
303.15
303.149
303.149
303.149
303.149
303.149
303.149
303.149
303.149
303.149
303.149
303.149
303.147
303.14
303.097
302.948
302.983
303.114
303.146
303.148
303.15
303.149
303.15
303.149
303.149
303.149
303.149
303.149
303.149
303.149
303.149
303.149
303.148
303.14
303.098
302.95
302.984
303.114
303.146
303.149
303.15
303.149
303.15
303.149
303.15
303.15
303.15
303.15
303.149
303.15
303.149
303.15
303.148
303.141
303.099
302.951
302.985
303.115
303.146
303.149
303.15
303.149
303.15
303.15
303.15
303.15
303.15
303.15
303.15
303.15
303.15
303.15
303.148
303.141
303.099
302.952
302.986
303.115
303.146
303.149
303.15
303.15
303.15
303.15
303.15
303.15
303.15
303.15
303.15
303.15
303.15
303.15
303.148
303.141
303.1
302.954
302.987
303.116
303.147
303.149
303.15
303.15
303.15
303.15
303.15
303.15
303.15
303.15
303.15
303.15
303.15
303.15
303.148
303.141
303.1
302.955
302.988
303.116
303.147
303.149
303.15
303.15
303.15
303.15
303.15
303.15
303.15
303.15
303.15
303.15
303.15
303.15
303.148
303.141
303.101
302.956
302.989
303.117
303.147
303.149
303.15
303.15
303.15
303.15
303.15
303.15
303.15
303.15
303.15
303.15
303.15
303.15
303.148
303.141
303.101
302.958
302.99
303.117
303.147
303.149
303.15
303.15
303.15
303.15
303.15
303.15
303.15
303.15
303.15
303.15
303.15
303.15
303.148
303.142
303.102
302.959
302.991
303.118
303.147
303.149
303.15
303.15
303.15
303.15
303.15
303.15
303.15
303.15
303.15
303.15
303.15
303.15
303.148
303.142
303.102
302.96
302.992
303.118
303.147
303.149
303.15
303.15
303.15
303.15
303.15
303.15
303.15