/*--------------------------------*- C++ -*----------------------------------*\
  =========                 |
  \\      /  F ield         | OpenFOAM: The Open Source CFD Toolbox
   \\    /   O peration     | Website:  https://openfoam.org
    \\  /    A nd           | Version:  8
     \\/     M anipulation  |
\*---------------------------------------------------------------------------*/
FoamFile
{
    version     2.0;
    format      ascii;
    class       volScalarField;
    location    "900";
    object      nut;
}
// * * * * * * * * * * * * * * * * * * * * * * * * * * * * * * * * * * * * * //

dimensions      [0 2 -1 0 0 0 0];

internalField   nonuniform List<scalar> 
1200
(
0.000201954
0.000185938
0.000172577
0.000161287
0.000151637
0.000143308
0.000136057
0.000129698
0.000124086
0.000119102
0.000114654
0.000110664
0.000107069
0.000103817
0.000100865
9.81763e-05
9.57193e-05
9.34678e-05
9.13992e-05
8.94938e-05
8.77349e-05
8.61077e-05
8.45992e-05
8.31983e-05
8.18949e-05
8.06803e-05
7.95467e-05
7.84871e-05
7.74953e-05
7.65657e-05
7.56934e-05
7.48738e-05
7.41029e-05
7.3377e-05
7.26928e-05
7.20472e-05
7.14376e-05
7.08612e-05
7.03159e-05
6.97996e-05
6.93103e-05
6.88461e-05
6.84056e-05
6.79871e-05
6.75892e-05
6.72108e-05
6.68505e-05
6.65073e-05
6.61801e-05
6.5868e-05
6.557e-05
6.52855e-05
6.50135e-05
6.47533e-05
6.45044e-05
6.4266e-05
6.40376e-05
6.38187e-05
6.36087e-05
6.3407e-05
0.00011703
0.000100512
8.78387e-05
7.78703e-05
6.9859e-05
6.32963e-05
5.78328e-05
5.32214e-05
4.92825e-05
4.58827e-05
4.29212e-05
4.03203e-05
3.80196e-05
3.59712e-05
3.41367e-05
3.24852e-05
3.09912e-05
2.96339e-05
2.83958e-05
2.72624e-05
2.62213e-05
2.52621e-05
2.43759e-05
2.35548e-05
2.27924e-05
2.20829e-05
2.14211e-05
2.08027e-05
2.02238e-05
1.9681e-05
1.91711e-05
1.86916e-05
1.824e-05
1.7814e-05
1.74118e-05
1.70316e-05
1.66717e-05
1.63309e-05
1.60076e-05
1.57009e-05
1.54094e-05
1.51323e-05
1.48686e-05
1.46175e-05
1.43782e-05
1.41501e-05
1.39324e-05
1.37246e-05
1.35261e-05
1.33364e-05
1.3155e-05
1.29814e-05
1.28153e-05
1.26562e-05
1.25038e-05
1.23577e-05
1.22175e-05
1.20826e-05
1.19514e-05
1.18112e-05
0.000117003
0.00010034
8.75445e-05
7.74574e-05
6.93323e-05
6.26665e-05
5.71112e-05
5.2418e-05
4.8406e-05
4.49407e-05
4.19201e-05
3.92657e-05
3.69162e-05
3.48231e-05
3.29473e-05
3.12574e-05
2.97275e-05
2.83364e-05
2.70663e-05
2.59023e-05
2.48319e-05
2.38445e-05
2.29309e-05
2.20832e-05
2.12946e-05
2.05593e-05
1.98722e-05
1.92286e-05
1.86247e-05
1.8057e-05
1.75222e-05
1.70178e-05
1.65411e-05
1.609e-05
1.56626e-05
1.52569e-05
1.48715e-05
1.45049e-05
1.41557e-05
1.38227e-05
1.35049e-05
1.32013e-05
1.29111e-05
1.26332e-05
1.2367e-05
1.21118e-05
1.18669e-05
1.16317e-05
1.14057e-05
1.11883e-05
1.0979e-05
1.07775e-05
1.05833e-05
1.03961e-05
1.02154e-05
1.00409e-05
9.87242e-06
9.70951e-06
9.55186e-06
9.39882e-06
0.000117003
0.000100379
8.76088e-05
7.75386e-05
6.94222e-05
6.27593e-05
5.72029e-05
5.25064e-05
4.84897e-05
4.50191e-05
4.1993e-05
3.93332e-05
3.69785e-05
3.48804e-05
3.3e-05
3.13057e-05
2.97718e-05
2.8377e-05
2.71035e-05
2.59364e-05
2.48631e-05
2.3873e-05
2.29569e-05
2.2107e-05
2.13163e-05
2.05791e-05
1.98901e-05
1.92449e-05
1.86394e-05
1.80702e-05
1.75341e-05
1.70283e-05
1.65504e-05
1.60982e-05
1.56696e-05
1.5263e-05
1.48766e-05
1.4509e-05
1.41589e-05
1.38251e-05
1.35064e-05
1.32019e-05
1.29107e-05
1.2632e-05
1.23649e-05
1.21087e-05
1.18628e-05
1.16266e-05
1.13996e-05
1.11811e-05
1.09708e-05
1.07683e-05
1.0573e-05
1.03846e-05
1.02028e-05
1.00271e-05
9.85743e-06
9.69334e-06
9.53459e-06
9.38093e-06
0.000117003
0.000100379
8.76025e-05
7.75261e-05
6.94048e-05
6.27384e-05
5.71803e-05
5.24833e-05
4.8467e-05
4.49973e-05
4.19725e-05
3.93141e-05
3.69609e-05
3.48643e-05
3.29853e-05
3.12924e-05
2.97598e-05
2.83661e-05
2.70937e-05
2.59276e-05
2.48552e-05
2.38659e-05
2.29505e-05
2.21012e-05
2.13112e-05
2.05745e-05
1.9886e-05
1.92412e-05
1.86361e-05
1.80673e-05
1.75315e-05
1.7026e-05
1.65484e-05
1.60964e-05
1.56681e-05
1.52617e-05
1.48755e-05
1.4508e-05
1.41581e-05
1.38244e-05
1.35059e-05
1.32015e-05
1.29104e-05
1.26318e-05
1.23647e-05
1.21086e-05
1.18628e-05
1.16267e-05
1.13997e-05
1.11814e-05
1.09711e-05
1.07686e-05
1.05733e-05
1.0385e-05
1.02032e-05
1.00276e-05
9.8579e-06
9.69383e-06
9.5351e-06
9.38146e-06
0.000117003
0.000100379
8.76025e-05
7.75261e-05
6.94048e-05
6.27385e-05
5.71804e-05
5.24833e-05
4.8467e-05
4.49973e-05
4.19725e-05
3.93142e-05
3.69609e-05
3.48643e-05
3.29853e-05
3.12924e-05
2.97598e-05
2.83661e-05
2.70937e-05
2.59276e-05
2.48552e-05
2.38659e-05
2.29505e-05
2.21012e-05
2.13112e-05
2.05745e-05
1.9886e-05
1.92412e-05
1.86362e-05
1.80673e-05
1.75315e-05
1.7026e-05
1.65484e-05
1.60964e-05
1.56681e-05
1.52617e-05
1.48754e-05
1.4508e-05
1.41581e-05
1.38244e-05
1.35059e-05
1.32015e-05
1.29104e-05
1.26318e-05
1.23647e-05
1.21086e-05
1.18628e-05
1.16267e-05
1.13997e-05
1.11813e-05
1.09711e-05
1.07686e-05
1.05733e-05
1.0385e-05
1.02032e-05
1.00276e-05
9.85788e-06
9.69381e-06
9.53508e-06
9.38144e-06
0.000117003
0.000100379
8.76087e-05
7.75386e-05
6.94222e-05
6.27592e-05
5.72029e-05
5.25064e-05
4.84897e-05
4.50191e-05
4.1993e-05
3.93332e-05
3.69785e-05
3.48804e-05
3.3e-05
3.13057e-05
2.97718e-05
2.8377e-05
2.71035e-05
2.59364e-05
2.48632e-05
2.38731e-05
2.2957e-05
2.2107e-05
2.13163e-05
2.05791e-05
1.98901e-05
1.92449e-05
1.86394e-05
1.80702e-05
1.75341e-05
1.70283e-05
1.65504e-05
1.60982e-05
1.56696e-05
1.5263e-05
1.48766e-05
1.4509e-05
1.41589e-05
1.3825e-05
1.35064e-05
1.32019e-05
1.29107e-05
1.26319e-05
1.23648e-05
1.21086e-05
1.18628e-05
1.16266e-05
1.13995e-05
1.11811e-05
1.09708e-05
1.07682e-05
1.05729e-05
1.03845e-05
1.02027e-05
1.0027e-05
9.85733e-06
9.69323e-06
9.53448e-06
9.38082e-06
0.000117003
0.00010034
8.75445e-05
7.74575e-05
6.93323e-05
6.26666e-05
5.71113e-05
5.24181e-05
4.84061e-05
4.49407e-05
4.19201e-05
3.92657e-05
3.69163e-05
3.48231e-05
3.29473e-05
3.12574e-05
2.97275e-05
2.83364e-05
2.70663e-05
2.59023e-05
2.4832e-05
2.38445e-05
2.29309e-05
2.20832e-05
2.12946e-05
2.05594e-05
1.98722e-05
1.92286e-05
1.86247e-05
1.8057e-05
1.75222e-05
1.70178e-05
1.65411e-05
1.609e-05
1.56626e-05
1.52569e-05
1.48715e-05
1.45049e-05
1.41556e-05
1.38227e-05
1.35048e-05
1.32011e-05
1.29107e-05
1.26326e-05
1.23662e-05
1.21107e-05
1.18656e-05
1.16301e-05
1.14038e-05
1.11861e-05
1.09766e-05
1.07748e-05
1.05803e-05
1.03927e-05
1.02117e-05
1.0037e-05
9.86816e-06
9.70493e-06
9.54695e-06
9.39367e-06
0.00011703
0.000100512
8.78388e-05
7.78705e-05
6.98592e-05
6.32967e-05
5.78333e-05
5.3222e-05
4.92833e-05
4.58837e-05
4.29223e-05
4.03215e-05
3.80209e-05
3.59726e-05
3.41381e-05
3.24866e-05
3.09927e-05
2.96354e-05
2.83973e-05
2.72639e-05
2.62228e-05
2.52636e-05
2.43773e-05
2.35563e-05
2.27939e-05
2.20843e-05
2.14225e-05
2.08041e-05
2.02252e-05
1.96823e-05
1.91725e-05
1.86929e-05
1.82412e-05
1.78152e-05
1.74129e-05
1.70326e-05
1.66727e-05
1.63318e-05
1.60085e-05
1.57016e-05
1.54101e-05
1.5133e-05
1.48693e-05
1.46183e-05
1.43791e-05
1.4151e-05
1.39335e-05
1.37258e-05
1.35274e-05
1.33377e-05
1.31564e-05
1.29829e-05
1.28169e-05
1.26579e-05
1.25056e-05
1.23596e-05
1.22194e-05
1.20845e-05
1.19534e-05
1.18128e-05
0.000201954
0.000185938
0.000172577
0.000161287
0.000151637
0.000143307
0.000136057
0.000129698
0.000124086
0.000119102
0.000114654
0.000110663
0.000107069
0.000103817
0.000100865
9.8176e-05
9.5719e-05
9.34675e-05
9.13989e-05
8.94935e-05
8.77346e-05
8.61074e-05
8.45989e-05
8.3198e-05
8.18946e-05
8.068e-05
7.95464e-05
7.84868e-05
7.7495e-05
7.65654e-05
7.56931e-05
7.48735e-05
7.41026e-05
7.33768e-05
7.26926e-05
7.2047e-05
7.14373e-05
7.0861e-05
7.03157e-05
6.97994e-05
6.931e-05
6.88459e-05
6.84053e-05
6.79868e-05
6.7589e-05
6.72105e-05
6.68502e-05
6.6507e-05
6.61798e-05
6.58677e-05
6.55698e-05
6.52852e-05
6.50132e-05
6.4753e-05
6.45041e-05
6.42657e-05
6.40373e-05
6.38183e-05
6.36083e-05
6.34066e-05
0.000201954
0.000185938
0.000172577
0.000161286
0.000151636
0.000143307
0.000136056
0.000129697
0.000124085
0.000119102
0.000114653
0.000110663
0.000107068
0.000103817
0.000100865
9.81758e-05
9.57188e-05
9.34674e-05
9.13988e-05
8.94935e-05
8.77346e-05
8.61073e-05
8.45989e-05
8.3198e-05
8.18946e-05
8.06801e-05
7.95464e-05
7.84868e-05
7.7495e-05
7.65654e-05
7.56931e-05
7.48735e-05
7.41026e-05
7.33767e-05
7.26925e-05
7.20469e-05
7.14372e-05
7.08609e-05
7.03156e-05
6.97992e-05
6.93098e-05
6.88457e-05
6.84051e-05
6.79866e-05
6.75888e-05
6.72103e-05
6.685e-05
6.65068e-05
6.61796e-05
6.58674e-05
6.55695e-05
6.52849e-05
6.50129e-05
6.47528e-05
6.45038e-05
6.42654e-05
6.4037e-05
6.38181e-05
6.36081e-05
6.34064e-05
0.00011703
0.000100512
8.78389e-05
7.78704e-05
6.9859e-05
6.32962e-05
5.78325e-05
5.32209e-05
4.9282e-05
4.58822e-05
4.29207e-05
4.032e-05
3.80194e-05
3.59711e-05
3.41368e-05
3.24853e-05
3.09914e-05
2.96341e-05
2.8396e-05
2.72626e-05
2.62216e-05
2.52624e-05
2.43761e-05
2.35552e-05
2.27928e-05
2.20833e-05
2.14216e-05
2.08032e-05
2.02244e-05
1.96816e-05
1.91718e-05
1.86923e-05
1.82406e-05
1.78147e-05
1.74125e-05
1.70323e-05
1.66725e-05
1.63316e-05
1.60084e-05
1.57017e-05
1.54103e-05
1.51332e-05
1.48696e-05
1.46186e-05
1.43794e-05
1.41514e-05
1.39338e-05
1.3726e-05
1.35276e-05
1.3338e-05
1.31566e-05
1.29832e-05
1.28171e-05
1.26581e-05
1.25058e-05
1.23598e-05
1.22196e-05
1.20847e-05
1.19536e-05
1.18133e-05
0.000117003
0.00010034
8.75446e-05
7.74576e-05
6.93324e-05
6.26666e-05
5.71112e-05
5.2418e-05
4.84059e-05
4.49406e-05
4.19199e-05
3.92655e-05
3.69161e-05
3.48229e-05
3.29471e-05
3.12572e-05
2.97273e-05
2.83362e-05
2.70661e-05
2.59021e-05
2.48318e-05
2.38443e-05
2.29307e-05
2.2083e-05
2.12945e-05
2.05592e-05
1.9872e-05
1.92285e-05
1.86246e-05
1.80568e-05
1.75221e-05
1.70176e-05
1.65409e-05
1.60899e-05
1.56624e-05
1.52568e-05
1.48714e-05
1.45047e-05
1.41555e-05
1.38225e-05
1.35047e-05
1.32011e-05
1.29108e-05
1.26329e-05
1.23668e-05
1.21115e-05
1.18666e-05
1.16314e-05
1.14054e-05
1.1188e-05
1.09787e-05
1.07772e-05
1.0583e-05
1.03957e-05
1.0215e-05
1.00406e-05
9.87203e-06
9.70911e-06
9.55144e-06
9.39838e-06
0.000117003
0.000100379
8.76088e-05
7.75386e-05
6.94222e-05
6.27592e-05
5.72028e-05
5.25063e-05
4.84896e-05
4.5019e-05
4.19929e-05
3.93331e-05
3.69784e-05
3.48803e-05
3.29999e-05
3.13056e-05
2.97717e-05
2.83769e-05
2.71034e-05
2.59363e-05
2.48631e-05
2.3873e-05
2.29569e-05
2.21069e-05
2.13163e-05
2.0579e-05
1.98901e-05
1.92448e-05
1.86394e-05
1.80701e-05
1.7534e-05
1.70282e-05
1.65504e-05
1.60981e-05
1.56696e-05
1.52629e-05
1.48765e-05
1.45089e-05
1.41588e-05
1.3825e-05
1.35063e-05
1.32019e-05
1.29107e-05
1.26319e-05
1.23648e-05
1.21086e-05
1.18627e-05
1.16265e-05
1.13995e-05
1.1181e-05
1.09707e-05
1.07681e-05
1.05728e-05
1.03845e-05
1.02026e-05
1.0027e-05
9.85728e-06
9.69318e-06
9.53443e-06
9.38077e-06
0.000117003
0.000100379
8.76025e-05
7.75262e-05
6.94048e-05
6.27384e-05
5.71803e-05
5.24832e-05
4.84669e-05
4.49972e-05
4.19724e-05
3.9314e-05
3.69608e-05
3.48642e-05
3.29852e-05
3.12923e-05
2.97597e-05
2.8366e-05
2.70936e-05
2.59275e-05
2.48551e-05
2.38658e-05
2.29504e-05
2.21011e-05
2.13111e-05
2.05744e-05
1.98859e-05
1.92411e-05
1.86361e-05
1.80672e-05
1.75314e-05
1.70259e-05
1.65483e-05
1.60964e-05
1.5668e-05
1.52616e-05
1.48754e-05
1.45079e-05
1.4158e-05
1.38243e-05
1.35058e-05
1.32014e-05
1.29103e-05
1.26316e-05
1.23646e-05
1.21085e-05
1.18627e-05
1.16266e-05
1.13996e-05
1.11812e-05
1.0971e-05
1.07684e-05
1.05732e-05
1.03848e-05
1.0203e-05
1.00274e-05
9.85773e-06
9.69365e-06
9.53492e-06
9.38127e-06
0.000117003
0.000100379
8.76026e-05
7.75262e-05
6.94048e-05
6.27385e-05
5.71803e-05
5.24833e-05
4.8467e-05
4.49973e-05
4.19724e-05
3.93141e-05
3.69609e-05
3.48642e-05
3.29852e-05
3.12923e-05
2.97597e-05
2.83661e-05
2.70936e-05
2.59275e-05
2.48551e-05
2.38658e-05
2.29505e-05
2.21011e-05
2.13111e-05
2.05744e-05
1.98859e-05
1.92411e-05
1.86361e-05
1.80672e-05
1.75314e-05
1.70259e-05
1.65483e-05
1.60964e-05
1.5668e-05
1.52616e-05
1.48754e-05
1.45079e-05
1.4158e-05
1.38243e-05
1.35058e-05
1.32014e-05
1.29103e-05
1.26316e-05
1.23646e-05
1.21085e-05
1.18627e-05
1.16266e-05
1.13996e-05
1.11812e-05
1.0971e-05
1.07684e-05
1.05732e-05
1.03848e-05
1.0203e-05
1.00274e-05
9.85772e-06
9.69364e-06
9.53491e-06
9.38126e-06
0.000117003
0.000100379
8.76088e-05
7.75386e-05
6.94222e-05
6.27592e-05
5.72028e-05
5.25063e-05
4.84896e-05
4.5019e-05
4.19929e-05
3.93331e-05
3.69784e-05
3.48803e-05
3.29999e-05
3.13056e-05
2.97718e-05
2.8377e-05
2.71034e-05
2.59364e-05
2.48631e-05
2.3873e-05
2.29569e-05
2.21069e-05
2.13163e-05
2.05791e-05
1.98901e-05
1.92449e-05
1.86394e-05
1.80701e-05
1.7534e-05
1.70283e-05
1.65504e-05
1.60981e-05
1.56696e-05
1.52629e-05
1.48765e-05
1.45089e-05
1.41588e-05
1.3825e-05
1.35063e-05
1.32019e-05
1.29107e-05
1.26319e-05
1.23648e-05
1.21086e-05
1.18627e-05
1.16265e-05
1.13994e-05
1.1181e-05
1.09707e-05
1.07681e-05
1.05728e-05
1.03844e-05
1.02026e-05
1.00269e-05
9.85723e-06
9.69313e-06
9.53437e-06
9.38071e-06
0.000117003
0.00010034
8.75447e-05
7.74576e-05
6.93324e-05
6.26666e-05
5.71113e-05
5.2418e-05
4.8406e-05
4.49406e-05
4.192e-05
3.92656e-05
3.69161e-05
3.4823e-05
3.29472e-05
3.12573e-05
2.97274e-05
2.83363e-05
2.70661e-05
2.59022e-05
2.48318e-05
2.38444e-05
2.29307e-05
2.2083e-05
2.12945e-05
2.05592e-05
1.98721e-05
1.92285e-05
1.86246e-05
1.80568e-05
1.75221e-05
1.70176e-05
1.6541e-05
1.60899e-05
1.56624e-05
1.52568e-05
1.48714e-05
1.45047e-05
1.41555e-05
1.38225e-05
1.35047e-05
1.3201e-05
1.29105e-05
1.26325e-05
1.2366e-05
1.21106e-05
1.18654e-05
1.16299e-05
1.14036e-05
1.11859e-05
1.09764e-05
1.07746e-05
1.05801e-05
1.03926e-05
1.02116e-05
1.00368e-05
9.86798e-06
9.70475e-06
9.54677e-06
9.39349e-06
0.00011703
0.000100512
8.7839e-05
7.78707e-05
6.98594e-05
6.32968e-05
5.78333e-05
5.3222e-05
4.92832e-05
4.58835e-05
4.29221e-05
4.03214e-05
3.80208e-05
3.59724e-05
3.4138e-05
3.24865e-05
3.09925e-05
2.96351e-05
2.8397e-05
2.72635e-05
2.62224e-05
2.52632e-05
2.43769e-05
2.35559e-05
2.27935e-05
2.2084e-05
2.14222e-05
2.08038e-05
2.02249e-05
1.96821e-05
1.91722e-05
1.86927e-05
1.8241e-05
1.78149e-05
1.74127e-05
1.70324e-05
1.66725e-05
1.63316e-05
1.60083e-05
1.57014e-05
1.541e-05
1.51329e-05
1.48693e-05
1.46183e-05
1.43791e-05
1.41511e-05
1.39336e-05
1.37259e-05
1.35275e-05
1.33379e-05
1.31565e-05
1.29831e-05
1.2817e-05
1.2658e-05
1.25056e-05
1.23596e-05
1.22194e-05
1.20845e-05
1.19533e-05
1.18126e-05
0.000201954
0.000185938
0.000172577
0.000161287
0.000151636
0.000143307
0.000136056
0.000129697
0.000124085
0.000119102
0.000114653
0.000110663
0.000107068
0.000103816
0.000100865
9.81756e-05
9.57186e-05
9.34672e-05
9.13986e-05
8.94933e-05
8.77343e-05
8.61071e-05
8.45987e-05
8.31977e-05
8.18944e-05
8.06798e-05
7.95462e-05
7.84865e-05
7.74947e-05
7.65651e-05
7.56928e-05
7.48732e-05
7.41023e-05
7.33764e-05
7.26922e-05
7.20466e-05
7.14369e-05
7.08606e-05
7.03153e-05
6.97989e-05
6.93096e-05
6.88454e-05
6.84048e-05
6.79863e-05
6.75885e-05
6.721e-05
6.68497e-05
6.65064e-05
6.61792e-05
6.5867e-05
6.55691e-05
6.52845e-05
6.50125e-05
6.47523e-05
6.45033e-05
6.42649e-05
6.40365e-05
6.38175e-05
6.36075e-05
6.34058e-05
)
;

boundaryField
{
    wall
    {
        type            nutkWallFunction;
        Cmu             0.09;
        kappa           0.41;
        E               9.8;
        value           nonuniform List<scalar> 
1200
(
1.45301e-05
1.35454e-05
1.35424e-05
1.35424e-05
1.35424e-05
1.35424e-05
1.35424e-05
1.35424e-05
1.35454e-05
1.45301e-05
1.34572e-05
1.17545e-05
1.17357e-05
1.174e-05
1.174e-05
1.174e-05
1.174e-05
1.17357e-05
1.17545e-05
1.34572e-05
1.25548e-05
1.03592e-05
1.03265e-05
1.03337e-05
1.0333e-05
1.0333e-05
1.03337e-05
1.03265e-05
1.03592e-05
1.25548e-05
1.17865e-05
9.24633e-06
9.19991e-06
9.20904e-06
9.20764e-06
9.20764e-06
9.20904e-06
9.19992e-06
9.24635e-06
1.17865e-05
1.11252e-05
8.34062e-06
8.28068e-06
8.29093e-06
8.28894e-06
8.28894e-06
8.29092e-06
8.28069e-06
8.34065e-06
1.11252e-05
1.05507e-05
7.59008e-06
7.51761e-06
7.52829e-06
7.52589e-06
7.52589e-06
7.52829e-06
7.51762e-06
7.59012e-06
1.05507e-05
1.00477e-05
6.95858e-06
6.87468e-06
6.88535e-06
6.88272e-06
6.88273e-06
6.88535e-06
6.87469e-06
6.95863e-06
1.00477e-05
9.60419e-06
6.42029e-06
6.32599e-06
6.33636e-06
6.33365e-06
6.33366e-06
6.33636e-06
6.32599e-06
6.42037e-06
9.60417e-06
9.21074e-06
5.95628e-06
5.85246e-06
5.86239e-06
5.85969e-06
5.8597e-06
5.86239e-06
5.85247e-06
5.95638e-06
9.21072e-06
8.85973e-06
5.55234e-06
5.4398e-06
5.44918e-06
5.44658e-06
5.44658e-06
5.44918e-06
5.43981e-06
5.55245e-06
8.85971e-06
8.54504e-06
5.19762e-06
5.07708e-06
5.08587e-06
5.0834e-06
5.0834e-06
5.08587e-06
5.07708e-06
5.19775e-06
8.54502e-06
8.26161e-06
4.88374e-06
4.75579e-06
4.76399e-06
4.76168e-06
4.76168e-06
4.76399e-06
4.7558e-06
4.88388e-06
8.26159e-06
8.0053e-06
4.60409e-06
4.46927e-06
4.47689e-06
4.47474e-06
4.47474e-06
4.47689e-06
4.46927e-06
4.60425e-06
8.00527e-06
7.77262e-06
4.35341e-06
4.21217e-06
4.21923e-06
4.21725e-06
4.21725e-06
4.21923e-06
4.21217e-06
4.35358e-06
7.7726e-06
7.56068e-06
4.12747e-06
3.9802e-06
3.98673e-06
3.98491e-06
3.98491e-06
3.98673e-06
3.9802e-06
4.12764e-06
7.56066e-06
7.36702e-06
3.92281e-06
3.76984e-06
3.77588e-06
3.77422e-06
3.77422e-06
3.77588e-06
3.76985e-06
3.92299e-06
7.367e-06
7.18954e-06
3.73659e-06
3.57822e-06
3.58379e-06
3.58228e-06
3.58228e-06
3.58379e-06
3.57822e-06
3.73677e-06
7.18952e-06
7.02645e-06
3.56646e-06
3.40293e-06
3.40806e-06
3.40669e-06
3.40669e-06
3.40807e-06
3.40293e-06
3.56664e-06
7.02643e-06
6.87622e-06
3.41044e-06
3.24197e-06
3.2467e-06
3.24545e-06
3.24545e-06
3.2467e-06
3.24197e-06
3.41063e-06
6.8762e-06
6.7375e-06
3.26688e-06
3.09364e-06
3.09799e-06
3.09687e-06
3.09687e-06
3.098e-06
3.09364e-06
3.26707e-06
6.73748e-06
6.60915e-06
3.13437e-06
2.95651e-06
2.96052e-06
2.9595e-06
2.9595e-06
2.96052e-06
2.95651e-06
3.13456e-06
6.60913e-06
6.49014e-06
3.01171e-06
2.82935e-06
2.83303e-06
2.83211e-06
2.83211e-06
2.83303e-06
2.82935e-06
3.01189e-06
6.49012e-06
6.37959e-06
2.89785e-06
2.71111e-06
2.71449e-06
2.71366e-06
2.71366e-06
2.71449e-06
2.71111e-06
2.89804e-06
6.37957e-06
6.27672e-06
2.79192e-06
2.60087e-06
2.60397e-06
2.60322e-06
2.60322e-06
2.60397e-06
2.60087e-06
2.79211e-06
6.2767e-06
6.18083e-06
2.69314e-06
2.49784e-06
2.50068e-06
2.50001e-06
2.50001e-06
2.50068e-06
2.49784e-06
2.69332e-06
6.18081e-06
6.09132e-06
2.60083e-06
2.40134e-06
2.40394e-06
2.40333e-06
2.40333e-06
2.40394e-06
2.40134e-06
2.60101e-06
6.0913e-06
6.00763e-06
2.5144e-06
2.31076e-06
2.31313e-06
2.31258e-06
2.31258e-06
2.31313e-06
2.31076e-06
2.51458e-06
6.00761e-06
5.92928e-06
2.43333e-06
2.22556e-06
2.22772e-06
2.22723e-06
2.22723e-06
2.22772e-06
2.22556e-06
2.43351e-06
5.92926e-06
5.85584e-06
2.35716e-06
2.14528e-06
2.14723e-06
2.1468e-06
2.1468e-06
2.14723e-06
2.14528e-06
2.35734e-06
5.85582e-06
5.78691e-06
2.28548e-06
2.0695e-06
2.07126e-06
2.07087e-06
2.07087e-06
2.07126e-06
2.0695e-06
2.28566e-06
5.78689e-06
5.72213e-06
2.21793e-06
1.99784e-06
1.99943e-06
1.99908e-06
1.99908e-06
1.99943e-06
1.99784e-06
2.2181e-06
5.72211e-06
5.66119e-06
2.15419e-06
1.92998e-06
1.9314e-06
1.93109e-06
1.93109e-06
1.9314e-06
1.92998e-06
2.15436e-06
5.66117e-06
5.6038e-06
2.09395e-06
1.86562e-06
1.86688e-06
1.86661e-06
1.86661e-06
1.86688e-06
1.86562e-06
2.09412e-06
5.60378e-06
5.5497e-06
2.03697e-06
1.8045e-06
1.8056e-06
1.80536e-06
1.80536e-06
1.8056e-06
1.80449e-06
2.03713e-06
5.54968e-06
5.49865e-06
1.98301e-06
1.74636e-06
1.74732e-06
1.74712e-06
1.74712e-06
1.74732e-06
1.74636e-06
1.98316e-06
5.49863e-06
5.45043e-06
1.93184e-06
1.691e-06
1.69183e-06
1.69165e-06
1.69165e-06
1.69183e-06
1.691e-06
1.93198e-06
5.45041e-06
5.40484e-06
1.88328e-06
1.63822e-06
1.63892e-06
1.63876e-06
1.63876e-06
1.63892e-06
1.63822e-06
1.88342e-06
5.40482e-06
5.3617e-06
1.83716e-06
1.58785e-06
1.58841e-06
1.58828e-06
1.58828e-06
1.58841e-06
1.58784e-06
1.83728e-06
5.36169e-06
5.32086e-06
1.79331e-06
1.53971e-06
1.54015e-06
1.54004e-06
1.54004e-06
1.54015e-06
1.53971e-06
1.79342e-06
5.32084e-06
5.28214e-06
1.75158e-06
1.49367e-06
1.49399e-06
1.4939e-06
1.4939e-06
1.49399e-06
1.49366e-06
1.75168e-06
5.28212e-06
5.24542e-06
1.71184e-06
1.44958e-06
1.44979e-06
1.44972e-06
1.44971e-06
1.44979e-06
1.44957e-06
1.71193e-06
5.2454e-06
5.21056e-06
1.67396e-06
1.40734e-06
1.40742e-06
1.40737e-06
1.40737e-06
1.40742e-06
1.40731e-06
1.67405e-06
5.21054e-06
5.17745e-06
1.63783e-06
1.36683e-06
1.36678e-06
1.36674e-06
1.36674e-06
1.36678e-06
1.36678e-06
1.63792e-06
5.17743e-06
5.14597e-06
1.60334e-06
1.32793e-06
1.32776e-06
1.32773e-06
1.32773e-06
1.32776e-06
1.32785e-06
1.60345e-06
5.14596e-06
5.11603e-06
1.57041e-06
1.29056e-06
1.29026e-06
1.29024e-06
1.29024e-06
1.29026e-06
1.29045e-06
1.57053e-06
5.11601e-06
5.08752e-06
1.53894e-06
1.25463e-06
1.25419e-06
1.25419e-06
1.25419e-06
1.25419e-06
1.25449e-06
1.53907e-06
5.08751e-06
5.06037e-06
1.50885e-06
1.22006e-06
1.21948e-06
1.21949e-06
1.21948e-06
1.21948e-06
1.21987e-06
1.509e-06
5.06035e-06
5.03449e-06
1.48007e-06
1.18677e-06
1.18604e-06
1.18606e-06
1.18606e-06
1.18604e-06
1.18654e-06
1.48023e-06
5.03447e-06
5.0098e-06
1.45253e-06
1.15468e-06
1.15381e-06
1.15384e-06
1.15383e-06
1.15381e-06
1.15441e-06
1.4527e-06
5.00978e-06
4.98623e-06
1.42615e-06
1.12374e-06
1.12272e-06
1.12276e-06
1.12275e-06
1.12272e-06
1.12343e-06
1.42634e-06
4.98621e-06
4.96372e-06
1.40088e-06
1.09389e-06
1.09272e-06
1.09275e-06
1.09275e-06
1.09271e-06
1.09353e-06
1.40108e-06
4.9637e-06
4.94222e-06
1.37666e-06
1.06506e-06
1.06373e-06
1.06378e-06
1.06377e-06
1.06372e-06
1.06466e-06
1.37687e-06
4.94219e-06
4.92165e-06
1.35344e-06
1.03721e-06
1.03572e-06
1.03577e-06
1.03577e-06
1.03571e-06
1.03677e-06
1.35366e-06
4.92162e-06
4.90197e-06
1.33116e-06
1.01029e-06
1.00863e-06
1.00869e-06
1.00868e-06
1.00862e-06
1.0098e-06
1.3314e-06
4.90194e-06
4.88312e-06
1.30978e-06
9.84245e-07
9.82421e-07
9.82482e-07
9.82479e-07
9.82409e-07
9.83719e-07
1.31003e-06
4.8831e-06
4.86507e-06
1.28926e-06
9.59044e-07
9.57046e-07
9.5711e-07
9.57108e-07
9.57033e-07
9.58472e-07
1.28952e-06
4.86505e-06
4.84777e-06
1.26953e-06
9.3464e-07
9.32466e-07
9.32534e-07
9.32531e-07
9.32452e-07
9.34022e-07
1.2698e-06
4.84774e-06
4.83118e-06
1.25051e-06
9.10995e-07
9.08643e-07
9.08715e-07
9.08712e-07
9.08629e-07
9.10329e-07
1.25079e-06
4.83115e-06
4.81526e-06
1.23201e-06
8.8806e-07
8.85544e-07
8.85618e-07
8.85615e-07
8.85528e-07
8.87345e-07
1.23228e-06
4.81523e-06
4.79996e-06
1.21219e-06
8.65746e-07
8.63134e-07
8.63211e-07
8.63208e-07
8.63118e-07
8.64994e-07
1.21242e-06
4.79993e-06
1.45301e-05
1.35454e-05
1.35424e-05
1.35424e-05
1.35424e-05
1.35424e-05
1.35424e-05
1.35424e-05
1.35454e-05
1.45301e-05
1.34572e-05
1.17545e-05
1.17357e-05
1.174e-05
1.174e-05
1.174e-05
1.174e-05
1.17357e-05
1.17545e-05
1.34572e-05
1.25548e-05
1.03592e-05
1.03266e-05
1.03337e-05
1.0333e-05
1.0333e-05
1.03337e-05
1.03266e-05
1.03592e-05
1.25548e-05
1.17864e-05
9.24634e-06
9.19993e-06
9.20904e-06
9.20765e-06
9.20765e-06
9.20904e-06
9.19994e-06
9.24637e-06
1.17864e-05
1.11251e-05
8.34062e-06
8.2807e-06
8.29092e-06
8.28894e-06
8.28894e-06
8.29092e-06
8.28071e-06
8.34067e-06
1.11251e-05
1.05506e-05
7.59007e-06
7.51762e-06
7.52828e-06
7.52589e-06
7.52589e-06
7.52828e-06
7.51763e-06
7.59014e-06
1.05506e-05
1.00476e-05
6.95854e-06
6.87468e-06
6.88534e-06
6.88272e-06
6.88272e-06
6.88534e-06
6.87469e-06
6.95864e-06
1.00476e-05
9.60412e-06
6.42024e-06
6.32598e-06
6.33635e-06
6.33365e-06
6.33365e-06
6.33635e-06
6.32599e-06
6.42036e-06
9.60412e-06
9.21067e-06
5.95622e-06
5.85245e-06
5.86237e-06
5.85968e-06
5.85969e-06
5.86237e-06
5.85246e-06
5.95636e-06
9.21067e-06
8.85967e-06
5.55227e-06
5.43979e-06
5.44917e-06
5.44657e-06
5.44657e-06
5.44917e-06
5.4398e-06
5.55243e-06
8.85967e-06
8.54498e-06
5.19757e-06
5.07706e-06
5.08586e-06
5.08339e-06
5.08339e-06
5.08586e-06
5.07707e-06
5.19773e-06
8.54498e-06
8.26156e-06
4.8837e-06
4.75577e-06
4.76398e-06
4.76167e-06
4.76167e-06
4.76398e-06
4.75578e-06
4.88386e-06
8.26155e-06
8.00525e-06
4.60406e-06
4.46925e-06
4.47687e-06
4.47472e-06
4.47473e-06
4.47688e-06
4.46925e-06
4.60423e-06
8.00524e-06
7.77258e-06
4.3534e-06
4.21215e-06
4.21922e-06
4.21724e-06
4.21724e-06
4.21922e-06
4.21216e-06
4.35356e-06
7.77257e-06
7.56064e-06
4.12747e-06
3.98017e-06
3.98672e-06
3.9849e-06
3.9849e-06
3.98672e-06
3.98018e-06
4.12762e-06
7.56063e-06
7.36698e-06
3.92282e-06
3.76982e-06
3.77587e-06
3.7742e-06
3.77421e-06
3.77587e-06
3.76983e-06
3.92296e-06
7.36697e-06
7.18951e-06
3.73661e-06
3.5782e-06
3.58378e-06
3.58226e-06
3.58227e-06
3.58378e-06
3.57821e-06
3.73674e-06
7.18949e-06
7.02642e-06
3.56649e-06
3.40291e-06
3.40805e-06
3.40668e-06
3.40668e-06
3.40806e-06
3.40292e-06
3.56661e-06
7.02641e-06
6.87619e-06
3.41047e-06
3.24195e-06
3.24669e-06
3.24544e-06
3.24544e-06
3.24669e-06
3.24195e-06
3.41059e-06
6.87618e-06
6.73748e-06
3.26691e-06
3.09362e-06
3.09799e-06
3.09685e-06
3.09686e-06
3.09799e-06
3.09362e-06
3.26702e-06
6.73746e-06
6.60912e-06
3.1344e-06
2.95649e-06
2.96051e-06
2.95948e-06
2.95949e-06
2.96051e-06
2.95649e-06
3.13451e-06
6.60911e-06
6.49012e-06
3.01174e-06
2.82933e-06
2.83302e-06
2.8321e-06
2.8321e-06
2.83303e-06
2.82933e-06
3.01184e-06
6.4901e-06
6.37957e-06
2.89789e-06
2.71108e-06
2.71448e-06
2.71364e-06
2.71365e-06
2.71448e-06
2.71109e-06
2.89799e-06
6.37955e-06
6.2767e-06
2.79196e-06
2.60084e-06
2.60396e-06
2.60321e-06
2.60321e-06
2.60396e-06
2.60085e-06
2.79206e-06
6.27668e-06
6.18081e-06
2.69319e-06
2.49782e-06
2.50068e-06
2.5e-06
2.5e-06
2.50068e-06
2.49783e-06
2.69328e-06
6.18079e-06
6.0913e-06
2.60088e-06
2.40132e-06
2.40393e-06
2.40332e-06
2.40332e-06
2.40393e-06
2.40132e-06
2.60097e-06
6.09128e-06
6.00761e-06
2.51446e-06
2.31074e-06
2.31312e-06
2.31257e-06
2.31257e-06
2.31312e-06
2.31074e-06
2.51454e-06
6.00759e-06
5.92926e-06
2.4334e-06
2.22554e-06
2.22771e-06
2.22722e-06
2.22722e-06
2.22771e-06
2.22554e-06
2.43348e-06
5.92924e-06
5.85582e-06
2.35723e-06
2.14526e-06
2.14723e-06
2.14679e-06
2.14679e-06
2.14723e-06
2.14526e-06
2.35731e-06
5.8558e-06
5.78688e-06
2.28556e-06
2.06947e-06
2.07126e-06
2.07086e-06
2.07086e-06
2.07126e-06
2.06948e-06
2.28563e-06
5.78686e-06
5.72211e-06
2.21802e-06
1.99782e-06
1.99942e-06
1.99907e-06
1.99907e-06
1.99942e-06
1.99782e-06
2.21807e-06
5.72209e-06
5.66117e-06
2.15428e-06
1.92996e-06
1.93139e-06
1.93108e-06
1.93108e-06
1.93139e-06
1.92996e-06
2.15433e-06
5.66115e-06
5.60378e-06
2.09405e-06
1.8656e-06
1.86687e-06
1.8666e-06
1.8666e-06
1.86687e-06
1.8656e-06
2.09409e-06
5.60376e-06
5.54968e-06
2.03707e-06
1.80447e-06
1.80559e-06
1.80535e-06
1.80535e-06
1.8056e-06
1.80447e-06
2.0371e-06
5.54965e-06
5.49862e-06
1.9831e-06
1.74634e-06
1.74732e-06
1.7471e-06
1.7471e-06
1.74732e-06
1.74634e-06
1.98312e-06
5.4986e-06
5.4504e-06
1.93194e-06
1.69098e-06
1.69182e-06
1.69163e-06
1.69163e-06
1.69182e-06
1.69098e-06
1.93195e-06
5.45038e-06
5.40481e-06
1.88338e-06
1.6382e-06
1.63891e-06
1.63875e-06
1.63875e-06
1.63891e-06
1.6382e-06
1.88339e-06
5.40479e-06
5.36168e-06
1.83726e-06
1.58782e-06
1.5884e-06
1.58827e-06
1.58827e-06
1.5884e-06
1.58782e-06
1.83725e-06
5.36166e-06
5.32083e-06
1.79341e-06
1.53968e-06
1.54014e-06
1.54003e-06
1.54003e-06
1.54014e-06
1.53968e-06
1.79339e-06
5.32081e-06
5.28211e-06
1.75169e-06
1.49364e-06
1.49398e-06
1.49389e-06
1.49389e-06
1.49398e-06
1.49364e-06
1.75166e-06
5.28209e-06
5.24539e-06
1.71195e-06
1.44955e-06
1.44978e-06
1.4497e-06
1.4497e-06
1.44978e-06
1.44955e-06
1.71191e-06
5.24537e-06
5.21053e-06
1.67408e-06
1.40731e-06
1.40741e-06
1.40735e-06
1.40735e-06
1.40741e-06
1.40729e-06
1.67404e-06
5.21051e-06
5.17742e-06
1.63796e-06
1.36679e-06
1.36677e-06
1.36672e-06
1.36672e-06
1.36677e-06
1.36675e-06
1.63792e-06
5.17739e-06
5.14594e-06
1.60349e-06
1.3279e-06
1.32775e-06
1.32771e-06
1.32771e-06
1.32775e-06
1.32783e-06
1.60345e-06
5.14592e-06
5.11599e-06
1.57057e-06
1.29053e-06
1.29025e-06
1.29023e-06
1.29023e-06
1.29025e-06
1.29043e-06
1.57053e-06
5.11597e-06
5.08749e-06
1.53912e-06
1.2546e-06
1.25418e-06
1.25417e-06
1.25417e-06
1.25418e-06
1.25446e-06
1.53908e-06
5.08746e-06
5.06033e-06
1.50904e-06
1.22002e-06
1.21947e-06
1.21947e-06
1.21947e-06
1.21947e-06
1.21985e-06
1.50902e-06
5.06031e-06
5.03445e-06
1.48027e-06
1.18672e-06
1.18603e-06
1.18604e-06
1.18604e-06
1.18603e-06
1.18651e-06
1.48025e-06
5.03442e-06
5.00976e-06
1.45274e-06
1.15464e-06
1.1538e-06
1.15382e-06
1.15382e-06
1.1538e-06
1.15439e-06
1.45272e-06
5.00973e-06
4.98619e-06
1.42637e-06
1.1237e-06
1.12271e-06
1.12274e-06
1.12273e-06
1.1227e-06
1.1234e-06
1.42635e-06
4.98616e-06
4.96368e-06
1.40111e-06
1.09384e-06
1.0927e-06
1.09273e-06
1.09273e-06
1.09269e-06
1.09351e-06
1.4011e-06
4.96365e-06
4.94217e-06
1.3769e-06
1.06501e-06
1.06371e-06
1.06375e-06
1.06375e-06
1.06371e-06
1.06464e-06
1.37689e-06
4.94214e-06
4.92161e-06
1.35369e-06
1.03716e-06
1.0357e-06
1.03575e-06
1.03575e-06
1.0357e-06
1.03675e-06
1.35368e-06
4.92157e-06
4.90192e-06
1.33143e-06
1.01024e-06
1.00861e-06
1.00866e-06
1.00866e-06
1.00861e-06
1.00978e-06
1.33141e-06
4.90189e-06
4.88308e-06
1.31006e-06
9.84193e-07
9.82401e-07
9.82458e-07
9.82457e-07
9.82396e-07
9.83693e-07
1.31004e-06
4.88304e-06
4.86503e-06
1.28955e-06
9.58989e-07
9.57025e-07
9.57086e-07
9.57085e-07
9.57019e-07
9.58446e-07
1.28952e-06
4.86499e-06
4.84773e-06
1.26983e-06
9.34583e-07
9.32445e-07
9.32509e-07
9.32508e-07
9.32437e-07
9.33996e-07
1.2698e-06
4.84768e-06
4.83113e-06
1.25082e-06
9.10936e-07
9.08622e-07
9.08689e-07
9.08688e-07
9.08614e-07
9.10302e-07
1.25078e-06
4.83109e-06
4.81521e-06
1.23232e-06
8.87999e-07
8.85521e-07
8.85592e-07
8.8559e-07
8.85512e-07
8.87318e-07
1.23227e-06
4.81516e-06
4.79991e-06
1.21249e-06
8.65681e-07
8.63111e-07
8.63184e-07
8.63182e-07
8.63101e-07
8.64967e-07
1.21238e-06
4.79987e-06
)
;
    }
    inlet
    {
        type            calculated;
        value           uniform 0.00952565;
    }
    outlet
    {
        type            calculated;
        value           nonuniform List<scalar> 
20
(
6.3407e-05
1.18112e-05
9.39882e-06
9.38093e-06
9.38146e-06
9.38144e-06
9.38082e-06
9.39367e-06
1.18128e-05
6.34066e-05
6.34064e-05
1.18133e-05
9.39838e-06
9.38077e-06
9.38127e-06
9.38126e-06
9.38071e-06
9.39349e-06
1.18126e-05
6.34058e-05
)
;
    }
    heatWall
    {
        type            nutkWallFunction;
        Cmu             0.09;