/*--------------------------------*- C++ -*----------------------------------*\
  =========                 |
  \\      /  F ield         | OpenFOAM: The Open Source CFD Toolbox
   \\    /   O peration     | Website:  https://openfoam.org
    \\  /    A nd           | Version:  8
     \\/     M anipulation  |
\*---------------------------------------------------------------------------*/
FoamFile
{
    version     2.0;
    format      ascii;
    class       volScalarField;
    location    "500";
    object      k;
}
// * * * * * * * * * * * * * * * * * * * * * * * * * * * * * * * * * * * * * //

dimensions      [0 2 -2 0 0 0 0];

internalField   nonuniform List<scalar> 
1200
(
0.803222
0.676153
0.578807
0.502559
0.441763
0.392521
0.352059
0.318382
0.290039
0.266045
0.245626
0.228132
0.213032
0.199702
0.187737
0.176995
0.167809
0.160371
0.154472
0.149193
0.145854
0.148856
0.148352
0.141133
0.129648
0.11725
0.106135
0.0969999
0.0894387
0.0831112
0.078025
0.0740296
0.0709111
0.0684678
0.0665387
0.0650402
0.0639237
0.06315
0.0626498
0.0623486
0.0621683
0.0620174
0.0617082
0.0610774
0.0599557
0.0581467
0.0555381
0.0522641
0.0487274
0.0453705
0.0425021
0.0402856
0.0387444
0.0378382
0.0373926
0.0370615
0.0364803
0.0354436
0.0339225
0.0320517
0.695223
0.5126
0.391329
0.307391
0.247252
0.202789
0.169106
0.143007
0.122464
0.106031
0.0926556
0.0816008
0.0723039
0.0645466
0.0580233
0.0525029
0.0478217
0.0438251
0.0405304
0.0391147
0.0440587
0.0566616
0.0650647
0.0655022
0.060336
0.0530813
0.0458908
0.0396618
0.034634
0.0307661
0.0276981
0.0251961
0.0231093
0.0213366
0.0198089
0.0184745
0.0173005
0.0162631
0.0153451
0.014537
0.0138408
0.0132769
0.012895
0.0126781
0.0125497
0.0124339
0.0122691
0.0120084
0.0116416
0.0111853
0.0106559
0.010063
0.00946087
0.00890303
0.00842731
0.00810194
0.00795745
0.00792331
0.0079034
0.00773428
0.694923
0.510935
0.388862
0.304372
0.243866
0.199269
0.165568
0.139531
0.119023
0.102635
0.0893614
0.0784842
0.069469
0.0619372
0.0555928
0.0502168
0.0456865
0.0418562
0.0385691
0.035841
0.0345565
0.0363163
0.0389235
0.0402172
0.0397271
0.037838
0.0353772
0.0328823
0.0305309
0.0283943
0.0264465
0.0246449
0.0229842
0.0214871
0.0201649
0.0190012
0.0179668
0.0170342
0.0161838
0.0154009
0.0146724
0.01398
0.0133161
0.0126884
0.0120983
0.01154
0.0110043
0.0104878
0.00999959
0.00955522
0.00916553
0.00883052
0.00853828
0.00826113
0.00797994
0.0076897
0.0073923
0.00708983
0.00678133
0.0064746
0.694937
0.511406
0.389546
0.305135
0.244592
0.199907
0.166119
0.139996
0.11942
0.102966
0.0896319
0.0786989
0.069638
0.0620589
0.05568
0.0503072
0.0458108
0.0420119
0.0387336
0.0358953
0.0336819
0.0324956
0.0320156
0.0314739
0.0305279
0.0292608
0.0278369
0.0263043
0.0248011
0.0233579
0.0220152
0.0207895
0.019675
0.0186532
0.0177072
0.0168302
0.0160203
0.0152767
0.014594
0.0139605
0.0133661
0.0128128
0.0122986
0.0118146
0.0113551
0.0109194
0.0104584
0.00996937
0.00948246
0.0090361
0.00865976
0.00835529
0.00810011
0.00786266
0.00762459
0.00738892
0.00715838
0.00693349
0.00671311
0.00650017
0.694943
0.51143
0.389494
0.305039
0.244466
0.199773
0.165994
0.13988
0.11932
0.102884
0.0895672
0.0786467
0.0695897
0.0620169
0.055644
0.0503133
0.0459237
0.0422504
0.0390507
0.0361982
0.0337399
0.0317728
0.0302219
0.0288508
0.0275059
0.0261648
0.0248424
0.0235734
0.0223818
0.0212674
0.0202262
0.0192519
0.0183362
0.0174746
0.0166634
0.0158994
0.0151771
0.0144894
0.0138327
0.0132065
0.0126136
0.0120594
0.0115422
0.011054
0.0105967
0.0101705
0.00978137
0.00942217
0.00905601
0.00867708
0.00830167
0.00795709
0.00765978
0.00741357
0.00719711
0.006994
0.00679736
0.00660547
0.00641796
0.00623561
0.694935
0.511453
0.389514
0.305047
0.244472
0.199771
0.165976
0.139853
0.119295
0.102869
0.0895635
0.0786472
0.0695963
0.0620251
0.0556795
0.0505553
0.046574
0.0432308
0.0401337
0.03723
0.0346168
0.0323977
0.0305181
0.0288776
0.0273937
0.026028
0.02477
0.0235988
0.0224893
0.0214297
0.0204155
0.0194441
0.0185165
0.017633
0.0167926
0.0159935
0.0152358
0.0145178
0.0138356
0.0131854
0.0125673
0.011988
0.0114495
0.0109477
0.010478
0.0100403
0.00964113
0.00925822
0.00886423
0.00845604
0.00805834
0.0076975
0.00738136
0.00710589
0.00686301
0.00663971
0.00643065
0.00623294
0.00604377
0.00586254
0.694924
0.511499
0.389638
0.305231
0.244696
0.199995
0.166185
0.140048
0.119474
0.103023
0.0896889
0.0787472
0.0696689
0.0620671
0.055826
0.0516541
0.049097
0.0465111
0.0433305
0.0399844
0.0369373
0.0343823
0.0322925
0.0305032
0.0288969
0.0274055
0.0259828
0.0246088
0.0232822
0.0220115
0.0208074
0.0196765
0.0186204
0.0176332
0.0166967
0.0158131
0.0149969
0.0142482
0.0135549
0.0129027
0.0122831
0.0117058
0.0111761
0.0106864
0.010217
0.00976789
0.00932977
0.00890261
0.00848393
0.00810148
0.00774216
0.00738052
0.00702574
0.00670472
0.00643107
0.00618973
0.0059696
0.00576482
0.0055714
0.00538698
0.694923
0.511066
0.38898
0.304479
0.243945
0.1993
0.165558
0.139499
0.119005
0.102628
0.0893552
0.078461
0.069425
0.0618876
0.056522
0.0566261
0.0584592
0.0572082
0.052539
0.0470036
0.042181
0.0382766
0.0349881
0.0320932
0.0294658
0.0270973
0.0249811
0.0231269
0.02155
0.0202057
0.0190079
0.0178993
0.016853
0.0159125
0.0151871
0.0146025
0.0139944
0.0132724
0.0124996
0.0117779
0.0111768
0.0107077
0.0103267
0.00994324
0.00944116
0.00890485
0.00854546
0.00843456
0.00835881
0.00817072
0.00785242
0.00741147
0.00689298
0.00638887
0.00596751
0.00564143
0.00538237
0.00516489
0.00496459
0.00475599
0.695245
0.51266
0.391283
0.307219
0.24687
0.202281
0.168492
0.142286
0.1216
0.105037
0.0916272
0.0806779
0.0718032
0.0649687
0.0643391
0.0802211
0.0905616
0.0908329
0.0853092
0.0774116
0.069536
0.0623443
0.0555797
0.0496115
0.0447483
0.0407927
0.0375012
0.0347601
0.0325796
0.0308092
0.029347
0.028015
0.0266997
0.025388
0.0240256
0.0225542
0.0210994
0.0197979
0.0186822
0.0176688
0.0167371
0.0159096
0.0151669
0.0144509
0.0137597
0.013144
0.0125135
0.011679
0.0106511
0.00987341
0.00933903
0.00869066
0.00779026
0.00684751
0.0060918
0.00553051
0.00507807
0.00468555
0.00431315
0.00395088
0.803342
0.676366
0.578943
0.502657
0.441783
0.392437
0.351933
0.318258
0.289932
0.265876
0.245292
0.227596
0.212293
0.198854
0.187137
0.193817
0.199084
0.192557
0.179594
0.164622
0.149772
0.136757
0.126149
0.117608
0.110574
0.104558
0.0991493
0.0940477
0.0892009
0.084765
0.0808847
0.077416
0.0740734
0.0705191
0.0664418
0.0616768
0.0563023
0.0506663
0.0450975
0.0400365
0.0357981
0.0322802
0.0294401
0.0272907
0.0257749
0.0248646
0.0246426
0.0250871
0.0255613
0.0250005
0.0229527
0.0197304
0.0162089
0.0132717
0.0112018
0.00991176
0.00915152
0.00870892
0.00842492
0.00828495
0.803299
0.676483
0.579042
0.50272
0.441838
0.3925
0.351968
0.318318
0.290082
0.266123
0.245659
0.228074
0.212846
0.199466
0.18748
0.176655
0.167298
0.159504
0.153567
0.148469
0.144612
0.147016
0.147752
0.141775
0.130915
0.118647
0.107425
0.0981179
0.0904042
0.0838771
0.0786054
0.0744659
0.0712418
0.0687185
0.0667259
0.0651722
0.0640051
0.0631875
0.0626589
0.0623539
0.0622019
0.0620997
0.0618197
0.0612399
0.0601977
0.0584919
0.0559566
0.052731
0.0492071
0.0458362
0.0429392
0.0406829
0.0390949
0.0381334
0.0376297
0.0372783
0.0367219
0.0357411
0.0342833
0.0324665
0.695244
0.512658
0.39118
0.307048
0.246764
0.202344
0.168756
0.142825
0.122373
0.105898
0.0924574
0.0814015
0.0721987
0.0644818
0.0579718
0.0524472
0.0477547
0.0437599
0.0403679
0.038618
0.0429549
0.0542652
0.0632439
0.0651603
0.0609016
0.0539265
0.0467187
0.0403594
0.0351374
0.031121
0.0279527
0.025384
0.0232523
0.0214488
0.0198998
0.0185502
0.0173653
0.0163191
0.0153928
0.0145747
0.0138644
0.0132835
0.0129002
0.0126652
0.0125096
0.0123648
0.012204
0.0119584
0.0116105
0.0111743
0.0106656
0.0100928
0.00950143
0.00894597
0.00847685
0.00814387
0.00798107
0.00792913
0.00790417
0.0077472
0.694939
0.511129
0.389028
0.304497
0.243929
0.199283
0.165546
0.139496
0.119023
0.102643
0.0893643
0.0784774
0.0694559
0.0619158
0.0555636
0.050196
0.0456952
0.0418843
0.0386063
0.0359374
0.034897
0.0366579
0.0390491
0.0400299
0.0395669
0.0378378
0.0354943
0.0330549
0.0307071
0.0285534
0.0265966
0.0248015
0.023144
0.0216318
0.0202797
0.0190845
0.0180282
0.0170865
0.0162366
0.0154598
0.0147393
0.0140512
0.0133855
0.0127505
0.0121507
0.0115821
0.0110402
0.0105212
0.0100303
0.00958058
0.00918428
0.00884371
0.00854811
0.00827228
0.00799491
0.00770927
0.00741649
0.00711834
0.00681368
0.00650958
0.694933
0.511527
0.389657
0.305225
0.24466
0.199959
0.166133
0.13999
0.119428
0.102991
0.0896628
0.0787247
0.0696527
0.062068
0.0556914
0.0503351
0.0458472
0.0420449
0.0387608
0.0359443
0.0338382
0.0327847
0.0323282
0.0317177
0.0307102
0.029423
0.0279846
0.0264065
0.0248283
0.0233327
0.0219608
0.0207195
0.0195931
0.0185611
0.0176111
0.0167394
0.0159424
0.0152128
0.0145385
0.0139046
0.0133024
0.0127389
0.0122163
0.0117256
0.0112625
0.0108399
0.0104364
0.0100132
0.00956159
0.00911468
0.00871468
0.00838341
0.00811248
0.00787434
0.00764111
0.00740894
0.00717963
0.00695497
0.0067345
0.00652164
0.694923
0.511502
0.389569
0.305091
0.244521
0.199828
0.166
0.139866
0.119324
0.102907
0.089593
0.078662
0.0696012
0.0620257
0.0556602
0.0503452
0.0459641
0.042286
0.039074
0.0362212
0.0337964
0.031877
0.0303463
0.0289637
0.0275985
0.0262393
0.0248978
0.0236006
0.0223908
0.0212647
0.0202145
0.0192319
0.01831
0.0174444
0.0166304
0.0158639
0.015138
0.014446
0.0137858
0.0131582
0.0125655
0.0120125
0.0114943
0.0110059
0.0105489
0.0101228
0.00973285
0.00938156
0.00904858
0.0087083
0.00835608
0.00801376
0.00770653
0.00744732
0.0072231
0.00701685
0.00681928
0.00662715
0.00643905
0.00625671
0.694922
0.511489
0.389547
0.305064
0.244494
0.199791
0.165961
0.139836
0.119298
0.102882
0.0895752
0.0786521
0.0696022
0.0620344
0.0557005
0.0506152
0.04664
0.0432662
0.0401362
0.0372235
0.0346338
0.0324415
0.0305782
0.0289415
0.0274535
0.0260809
0.0248117
0.0236267
0.0225048
0.0214352
0.0204124
0.0194337
0.0184998
0.0176113
0.0167669
0.0159658
0.0152069
0.0144856
0.0137972
0.0131405
0.0125192
0.011939
0.0113996
0.0108971
0.0104273
0.00999005
0.00959062
0.00922608
0.00886953
0.00849654
0.00811263
0.00774671
0.00742016
0.0071367
0.00688888
0.00666294
0.00645188
0.00625236
0.00606126
0.00587877
0.694933
0.511517
0.389671
0.305257
0.244717
0.20002
0.166181
0.140039
0.119474
0.103029
0.089695
0.0787479
0.06967
0.0620711
0.0558851
0.0518249
0.0492233
0.0465095
0.0432435
0.0398878
0.0368838
0.0343875
0.0323279
0.0305483
0.028938
0.0274349
0.0260029
0.0246252
0.0232979
0.0220259
0.0208163
0.0196744
0.0186055
0.0176056
0.0166616
0.0157834
0.0149762
0.0142298
0.0135281
0.0128586
0.0122266
0.011644
0.0111109
0.0106193
0.0101481
0.00970513
0.00929764
0.00891247
0.00852063
0.00813961
0.00777748
0.00741651
0.00706122
0.0067366
0.00645871
0.0062137
0.00599041
0.00578282
0.00558657
0.00540013
0.694947
0.511031
0.388972
0.304462
0.243928
0.199308
0.165559
0.139496
0.119006
0.102634
0.0893601
0.0784644
0.0694241
0.0618878
0.056773
0.0569481
0.0585602
0.0569982
0.0521163
0.0466126
0.0419234
0.0381321
0.034901
0.0320102
0.0293754
0.0269925
0.0248569
0.0229811
0.0213815
0.0200199
0.0188195
0.0177314
0.016715
0.0157929
0.0150712
0.0144372
0.0137602
0.0130055
0.0122619
0.0116121
0.0110671
0.0106108
0.0102373
0.00988782
0.00947046
0.00899234
0.00859591
0.0084217
0.00833872
0.00817823
0.00788714
0.00746251
0.00694804
0.00643763
0.00600469
0.00566779
0.0054005
0.0051777
0.00497511
0.00476751
0.695264
0.512661
0.391314
0.3072
0.246848
0.202236
0.168362
0.14207
0.121391
0.104861
0.0914519
0.08045
0.0713408
0.0641965
0.0640589
0.0781875
0.0888436
0.0901437
0.0852515
0.077438
0.0693675
0.0618208
0.0548707
0.0489797
0.0442202
0.0403504
0.0371318
0.034423
0.0321671
0.0302042
0.0284666
0.0269853
0.0257231
0.0246578
0.0236274
0.022472
0.0212404
0.0200355
0.0189155
0.017881
0.0169227
0.0160453
0.0152501
0.0145083
0.0138026
0.0131651
0.0125397
0.0117508
0.0107569
0.00995443
0.00940907
0.00876991
0.00787453
0.0069175
0.00613961
0.00556397
0.00510432
0.0047089
0.00433651
0.00397549
0.803258
0.676244
0.578916
0.502633
0.44179
0.392486
0.351949
0.318263
0.289887
0.265735
0.244999
0.227094
0.211748
0.198459
0.186596
0.191225
0.197711
0.192638
0.18046
0.165838
0.151028
0.137855
0.127072
0.118415
0.111318
0.105274
0.099855
0.0947349
0.0898414
0.0853394
0.0813832
0.0778567
0.0744978
0.0709555
0.0669265
0.0622344
0.0569254
0.0513292
0.0457734
0.0406844
0.0363842
0.032784
0.0298487
0.0276054
0.0260075
0.0250268
0.0247364
0.0251267
0.0256149
0.0251504
0.0232077
0.0200492
0.0165226
0.0135312
0.0113937
0.0100457
0.00924675
0.00878193
0.00848599
0.00834016
)
;

boundaryField
{
    wall
    {
        type            kqRWallFunction;
        value           nonuniform List<scalar> 
1200
(
0.803222
0.695223
0.694923
0.694937
0.694943
0.694935
0.694924
0.694923
0.695245
0.803342
0.676153
0.5126
0.510935
0.511406
0.51143
0.511453
0.511499
0.511066
0.51266
0.676366
0.578807
0.391329
0.388862
0.389546
0.389494
0.389514
0.389638
0.38898
0.391283
0.578943
0.502559
0.307391
0.304372
0.305135
0.305039
0.305047
0.305231
0.304479
0.307219
0.502657
0.441763
0.247252
0.243866
0.244592
0.244466
0.244472
0.244696
0.243945
0.24687
0.441783
0.392521
0.202789
0.199269
0.199907
0.199773
0.199771
0.199995
0.1993
0.202281
0.392437
0.352059
0.169106
0.165568
0.166119
0.165994
0.165976
0.166185
0.165558
0.168492
0.351933
0.318382
0.143007
0.139531
0.139996
0.13988
0.139853
0.140048
0.139499
0.142286
0.318258
0.290039
0.122464
0.119023
0.11942
0.11932
0.119295
0.119474
0.119005
0.1216
0.289932
0.266045
0.106031
0.102635
0.102966
0.102884
0.102869
0.103023
0.102628
0.105037
0.265876
0.245626
0.0926556
0.0893614
0.0896319
0.0895672
0.0895635
0.0896889
0.0893552
0.0916272
0.245292
0.228132
0.0816008
0.0784842
0.0786989
0.0786467
0.0786472
0.0787472
0.078461
0.0806779
0.227596
0.213032
0.0723039
0.069469
0.069638
0.0695897
0.0695963
0.0696689
0.069425
0.0718032
0.212293
0.199702
0.0645466
0.0619372
0.0620589
0.0620169
0.0620251
0.0620671
0.0618876
0.0649687
0.198854
0.187737
0.0580233
0.0555928
0.05568
0.055644
0.0556795
0.055826
0.056522
0.0643391
0.187137
0.176995
0.0525029
0.0502168
0.0503072
0.0503133
0.0505553
0.0516541
0.0566261
0.0802211
0.193817
0.167809
0.0478217
0.0456865
0.0458108
0.0459237
0.046574
0.049097
0.0584592
0.0905616
0.199084
0.160371
0.0438251
0.0418562
0.0420119
0.0422504
0.0432308
0.0465111
0.0572082
0.0908329
0.192557
0.154472
0.0405304
0.0385691
0.0387336
0.0390507
0.0401337
0.0433305
0.052539
0.0853092
0.179594
0.149193
0.0391147
0.035841
0.0358953
0.0361982
0.03723
0.0399844
0.0470036
0.0774116
0.164622
0.145854
0.0440587
0.0345565
0.0336819
0.0337399
0.0346168
0.0369373
0.042181
0.069536
0.149772
0.148856
0.0566616
0.0363163
0.0324956
0.0317728
0.0323977
0.0343823
0.0382766
0.0623443
0.136757
0.148352
0.0650647
0.0389235
0.0320156
0.0302219
0.0305181
0.0322925
0.0349881
0.0555797
0.126149
0.141133
0.0655022
0.0402172
0.0314739
0.0288508
0.0288776
0.0305032
0.0320932
0.0496115
0.117608
0.129648
0.060336
0.0397271
0.0305279
0.0275059
0.0273937
0.0288969
0.0294658
0.0447483
0.110574
0.11725
0.0530813
0.037838
0.0292608
0.0261648
0.026028
0.0274055
0.0270973
0.0407927
0.104558
0.106135
0.0458908
0.0353772
0.0278369
0.0248424
0.02477
0.0259828
0.0249811
0.0375012
0.0991493
0.0969999
0.0396618
0.0328823
0.0263043
0.0235734
0.0235988
0.0246088
0.0231269
0.0347601
0.0940477
0.0894387
0.034634
0.0305309
0.0248011
0.0223818
0.0224893
0.0232822
0.02155
0.0325796
0.0892009
0.0831112
0.0307661
0.0283943
0.0233579
0.0212674
0.0214297
0.0220115
0.0202057
0.0308092
0.084765
0.078025
0.0276981
0.0264465
0.0220152
0.0202262
0.0204155
0.0208074
0.0190079
0.029347
0.0808847
0.0740296
0.0251961
0.0246449
0.0207895
0.0192519
0.0194441
0.0196765
0.0178993
0.028015
0.077416
0.0709111
0.0231093
0.0229842
0.019675
0.0183362
0.0185165
0.0186204
0.016853
0.0266997
0.0740734
0.0684678
0.0213366
0.0214871
0.0186532
0.0174746
0.017633
0.0176332
0.0159125
0.025388
0.0705191
0.0665387
0.0198089
0.0201649
0.0177072
0.0166634
0.0167926
0.0166967
0.0151871
0.0240256
0.0664418
0.0650402
0.0184745
0.0190012
0.0168302
0.0158994
0.0159935
0.0158131
0.0146025
0.0225542
0.0616768
0.0639237
0.0173005
0.0179668
0.0160203
0.0151771
0.0152358
0.0149969
0.0139944
0.0210994
0.0563023
0.06315
0.0162631
0.0170342
0.0152767
0.0144894
0.0145178
0.0142482
0.0132724
0.0197979
0.0506663
0.0626498
0.0153451
0.0161838
0.014594
0.0138327
0.0138356
0.0135549
0.0124996
0.0186822
0.0450975
0.0623486
0.014537
0.0154009
0.0139605
0.0132065
0.0131854
0.0129027
0.0117779
0.0176688
0.0400365
0.0621683
0.0138408
0.0146724
0.0133661
0.0126136
0.0125673
0.0122831
0.0111768
0.0167371
0.0357981
0.0620174
0.0132769
0.01398
0.0128128
0.0120594
0.011988
0.0117058
0.0107077
0.0159096
0.0322802
0.0617082
0.012895
0.0133161
0.0122986
0.0115422
0.0114495
0.0111761
0.0103267
0.0151669
0.0294401
0.0610774
0.0126781
0.0126884
0.0118146
0.011054
0.0109477
0.0106864
0.00994324
0.0144509
0.0272907
0.0599557
0.0125497
0.0120983
0.0113551
0.0105967
0.010478
0.010217
0.00944116
0.0137597
0.0257749
0.0581467
0.0124339
0.01154
0.0109194
0.0101705
0.0100403
0.00976789
0.00890485
0.013144
0.0248646
0.0555381
0.0122691
0.0110043
0.0104584
0.00978137
0.00964113
0.00932977
0.00854546
0.0125135
0.0246426
0.0522641
0.0120084
0.0104878
0.00996937
0.00942217
0.00925822
0.00890261
0.00843456
0.011679
0.0250871
0.0487274
0.0116416
0.00999959
0.00948246
0.00905601
0.00886423
0.00848393
0.00835881
0.0106511
0.0255613
0.0453705
0.0111853
0.00955522
0.0090361
0.00867708
0.00845604
0.00810148
0.00817072
0.00987341
0.0250005
0.0425021
0.0106559
0.00916553
0.00865976
0.00830167
0.00805834
0.00774216
0.00785242
0.00933903
0.0229527
0.0402856
0.010063
0.00883052
0.00835529
0.00795709
0.0076975
0.00738052
0.00741147
0.00869066
0.0197304
0.0387444
0.00946087
0.00853828
0.00810011
0.00765978
0.00738136
0.00702574
0.00689298
0.00779026
0.0162089
0.0378382
0.00890303
0.00826113
0.00786266
0.00741357
0.00710589
0.00670472
0.00638887
0.00684751
0.0132717
0.0373926
0.00842731
0.00797994
0.00762459
0.00719711
0.00686301
0.00643107
0.00596751
0.0060918
0.0112018
0.0370615
0.00810194
0.0076897
0.00738892
0.006994
0.00663971
0.00618973
0.00564143
0.00553051
0.00991176
0.0364803
0.00795745
0.0073923
0.00715838
0.00679736
0.00643065
0.0059696
0.00538237
0.00507807
0.00915152
0.0354436
0.00792331
0.00708983
0.00693349
0.00660547
0.00623294
0.00576482
0.00516489
0.00468555
0.00870892
0.0339225
0.0079034
0.00678133
0.00671311
0.00641796
0.00604377
0.0055714
0.00496459
0.00431315
0.00842492
0.0320517
0.00773428
0.0064746
0.00650017
0.00623561
0.00586254
0.00538698
0.00475599
0.00395088
0.00828495
0.803299
0.695244
0.694939
0.694933
0.694923
0.694922
0.694933
0.694947
0.695264
0.803258
0.676483
0.512658
0.511129
0.511527
0.511502
0.511489
0.511517
0.511031
0.512661
0.676244
0.579042
0.39118
0.389028
0.389657
0.389569
0.389547
0.389671
0.388972
0.391314
0.578916
0.50272
0.307048
0.304497
0.305225
0.305091
0.305064
0.305257
0.304462
0.3072
0.502633
0.441838
0.246764
0.243929
0.24466
0.244521
0.244494
0.244717
0.243928
0.246848
0.44179
0.3925
0.202344
0.199283
0.199959
0.199828
0.199791
0.20002
0.199308
0.202236
0.392486
0.351968
0.168756
0.165546
0.166133
0.166
0.165961
0.166181
0.165559
0.168362
0.351949
0.318318
0.142825
0.139496
0.13999
0.139866
0.139836
0.140039
0.139496
0.14207
0.318263
0.290082
0.122373
0.119023
0.119428
0.119324
0.119298
0.119474
0.119006
0.121391
0.289887
0.266123
0.105898
0.102643
0.102991
0.102907
0.102882
0.103029
0.102634
0.104861
0.265735
0.245659
0.0924574
0.0893643
0.0896628
0.089593
0.0895752
0.089695
0.0893601
0.0914519
0.244999
0.228074
0.0814015
0.0784774
0.0787247
0.078662
0.0786521
0.0787479
0.0784644
0.08045
0.227094
0.212846
0.0721987
0.0694559
0.0696527
0.0696012
0.0696022
0.06967
0.0694241
0.0713408
0.211748
0.199466
0.0644818
0.0619158
0.062068
0.0620257
0.0620344
0.0620711
0.0618878
0.0641965
0.198459
0.18748
0.0579718
0.0555636
0.0556914
0.0556602
0.0557005
0.0558851
0.056773
0.0640589
0.186596
0.176655
0.0524472
0.050196
0.0503351
0.0503452
0.0506152
0.0518249
0.0569481
0.0781875
0.191225
0.167298
0.0477547
0.0456952
0.0458472
0.0459641
0.04664
0.0492233
0.0585602
0.0888436
0.197711
0.159504
0.0437599
0.0418843
0.0420449
0.042286
0.0432662
0.0465095
0.0569982
0.0901437
0.192638
0.153567
0.0403679
0.0386063
0.0387608
0.039074
0.0401362
0.0432435
0.0521163
0.0852515
0.18046
0.148469
0.038618
0.0359374
0.0359443
0.0362212
0.0372235
0.0398878
0.0466126
0.077438
0.165838
0.144612
0.0429549
0.034897
0.0338382
0.0337964
0.0346338
0.0368838
0.0419234
0.0693675
0.151028
0.147016
0.0542652
0.0366579
0.0327847
0.031877
0.0324415
0.0343875
0.0381321
0.0618208
0.137855
0.147752
0.0632439
0.0390491
0.0323282
0.0303463
0.0305782
0.0323279
0.034901
0.0548707
0.127072
0.141775
0.0651603
0.0400299
0.0317177
0.0289637
0.0289415
0.0305483
0.0320102
0.0489797
0.118415
0.130915
0.0609016
0.0395669
0.0307102
0.0275985
0.0274535
0.028938
0.0293754
0.0442202
0.111318
0.118647
0.0539265
0.0378378
0.029423
0.0262393
0.0260809
0.0274349
0.0269925
0.0403504
0.105274
0.107425
0.0467187
0.0354943
0.0279846
0.0248978
0.0248117
0.0260029
0.0248569
0.0371318
0.099855
0.0981179
0.0403594
0.0330549
0.0264065
0.0236006
0.0236267
0.0246252
0.0229811
0.034423
0.0947349
0.0904042
0.0351374
0.0307071
0.0248283
0.0223908
0.0225048
0.0232979
0.0213815
0.0321671
0.0898414
0.0838771
0.031121
0.0285534
0.0233327
0.0212647
0.0214352
0.0220259
0.0200199
0.0302042
0.0853394
0.0786054
0.0279527
0.0265966
0.0219608
0.0202145
0.0204124
0.0208163
0.0188195
0.0284666
0.0813832
0.0744659
0.025384
0.0248015
0.0207195
0.0192319
0.0194337
0.0196744
0.0177314
0.0269853
0.0778567
0.0712418
0.0232523
0.023144
0.0195931
0.01831
0.0184998
0.0186055
0.016715
0.0257231
0.0744978
0.0687185
0.0214488
0.0216318
0.0185611
0.0174444
0.0176113
0.0176056
0.0157929
0.0246578
0.0709555
0.0667259
0.0198998
0.0202797
0.0176111
0.0166304
0.0167669
0.0166616
0.0150712
0.0236274
0.0669265
0.0651722
0.0185502
0.0190845
0.0167394
0.0158639
0.0159658
0.0157834
0.0144372
0.022472
0.0622344
0.0640051
0.0173653
0.0180282
0.0159424
0.015138
0.0152069
0.0149762
0.0137602
0.0212404
0.0569254
0.0631875
0.0163191
0.0170865
0.0152128
0.014446
0.0144856
0.0142298
0.0130055
0.0200355
0.0513292
0.0626589
0.0153928
0.0162366
0.0145385
0.0137858
0.0137972
0.0135281
0.0122619
0.0189155
0.0457734
0.0623539
0.0145747
0.0154598
0.0139046
0.0131582
0.0131405
0.0128586
0.0116121
0.017881
0.0406844
0.0622019
0.0138644
0.0147393
0.0133024
0.0125655
0.0125192
0.0122266
0.0110671
0.0169227
0.0363842
0.0620997
0.0132835
0.0140512
0.0127389
0.0120125
0.011939
0.011644
0.0106108
0.0160453
0.032784
0.0618197
0.0129002
0.0133855
0.0122163
0.0114943
0.0113996
0.0111109
0.0102373
0.0152501
0.0298487
0.0612399
0.0126652
0.0127505
0.0117256
0.0110059
0.0108971
0.0106193
0.00988782
0.0145083
0.0276054
0.0601977
0.0125096
0.0121507
0.0112625
0.0105489
0.0104273
0.0101481
0.00947046
0.0138026
0.0260075
0.0584919
0.0123648
0.0115821
0.0108399
0.0101228
0.00999005
0.00970513
0.00899234
0.0131651
0.0250268
0.0559566
0.012204
0.0110402
0.0104364
0.00973285
0.00959062
0.00929764
0.00859591
0.0125397
0.0247364
0.052731
0.0119584
0.0105212
0.0100132
0.00938156
0.00922608
0.00891247
0.0084217
0.0117508
0.0251267
0.0492071
0.0116105
0.0100303
0.00956159
0.00904858
0.00886953
0.00852063
0.00833872
0.0107569
0.0256149
0.0458362
0.0111743
0.00958058
0.00911468
0.0087083
0.00849654
0.00813961
0.00817823
0.00995443
0.0251504
0.0429392
0.0106656
0.00918428
0.00871468
0.00835608
0.00811263
0.00777748
0.00788714
0.00940907
0.0232077
0.0406829
0.0100928
0.00884371
0.00838341
0.00801376
0.00774671
0.00741651
0.00746251
0.00876991
0.0200492
0.0390949
0.00950143
0.00854811
0.00811248
0.00770653
0.00742016
0.00706122
0.00694804
0.00787453
0.0165226
0.0381334
0.00894597
0.00827228
0.00787434
0.00744732
0.0071367
0.0067366
0.00643763
0.0069175
0.0135312
0.0376297
0.00847685
0.00799491
0.00764111
0.0072231
0.00688888
0.00645871
0.00600469
0.00613961
0.0113937
0.0372783
0.00814387
0.00770927
0.00740894
0.00701685
0.00666294
0.0062137
0.00566779
0.00556397
0.0100457
0.0367219
0.00798107
0.00741649
0.00717963
0.00681928
0.00645188
0.00599041
0.0054005
0.00510432
0.00924675
0.0357411
0.00792913
0.00711834
0.00695497
0.00662715
0.00625236
0.00578282
0.0051777
0.0047089
0.00878193
0.0342833
0.00790417
0.00681368
0.0067345
0.00643905
0.00606126
0.00558657
0.00497511
0.00433651
0.00848599
0.0324665
0.0077472
0.00650958
0.00652164
0.00625671
0.00587877
0.00540013
0.00476751
0.00397549
0.00834016
)
;
    }
    inlet
    {
        type            turbulentIntensityKineticEnergyInlet;
        intensity       0.05;
        value           uniform 0.96;
    }
    outlet
    {
        type            inletOutlet;
        inletValue      uniform 0.003;
        value           nonuniform List<scalar> 
20
(
0.0320517
0.00773428
0.0064746
0.00650017
0.00623561
0.00586254
0.00538698
0.00475599
0.00395088
0.00828495
0.0324665
0.0077472
0.00650958
0.00652164
0.00625671
0.00587877
0.00540013
0.00476751
0.00397549
0.00834016
)
;
    }
    heatWall
    {
        type            kqRWallFunction;
        value           nonuniform List<scalar> 
240
(
0.803342
0.803258
0.676366
0.676244
0.578943
0.578916
0.502657
0.502633
0.441783
0.44179
0.392437
0.392486
0.351933
0.351949
0.318258
0.318263
0.289932
0.289887
0.265876
0.265735
0.245292
0.244999
0.227596
0.227094
0.212293
0.211748
0.198854
0.198459
0.187137
0.186596
0.193817
0.191225
0.199084
0.197711
0.192557
0.192638
0.179594
0.18046
0.164622
0.165838
0.149772
0.151028
0.136757
0.137855
0.126149
0.127072
0.117608
0.118415
0.110574
0.111318
0.104558
0.105274
0.0991493
0.099855
0.0940477
0.0947349
0.0892009
0.0898414
0.084765
0.0853394
0.0808847
0.0813832
0.077416
0.0778567
0.0740734
0.0744978
0.0705191
0.0709555
0.0664418
0.0669265
0.0616768
0.0622344
0.0563023
0.0569254
0.0506663
0.0513292
0.0450975
0.0457734
0.0400365
0.0406844
0.0357981
0.0363842
0.0322802
0.032784
0.0294401
0.0298487
0.0272907
0.0276054
0.0257749
0.0260075
0.0248646
0.0250268
0.0246426
0.0247364
0.0250871
0.0251267
0.0255613
0.0256149
0.0250005
0.0251504
0.0229527
0.0232077
0.0197304
0.0200492
0.0162089
0.0165226
0.0132717
0.0135312
0.0112018
0.0113937
0.00991176
0.0100457
0.00915152
0.00924675
0.00870892
0.00878193
0.00842492
0.00848599
0.00828495
0.00834016
0.803222
0.803299
0.676153
0.676483
0.578807
0.579042
0.502559
0.50272
0.441763
0.441838
0.392521
0.3925
0.352059
0.351968
0.318382
0.318318
0.290039
0.290082
0.266045
0.266123
0.245626
0.245659
0.228132
0.228074
0.213032
0.212846
0.199702
0.199466
0.187737
0.18748
0.176995
0.176655
0.167809
0.167298
0.160371
0.159504
0.154472
0.153567
0.149193
0.148469
0.145854
0.144612
0.148856
0.147016
0.148352
0.147752
0.141133
0.141775
0.129648
0.130915
0.11725
0.118647
0.106135
0.107425
0.0969999
0.0981179
0.0894387
0.0904042
0.0831112
0.0838771
0.078025
0.0786054
0.0740296
0.0744659
0.0709111
0.0712418
0.0684678
0.0687185
0.0665387
0.0667259
0.0650402
0.0651722
0.0639237
0.0640051
0.06315
0.0631875
0.0626498
0.0626589
0.0623486
0.0623539
0.0621683
0.0622019
0.0620174
0.0620997
0.0617082
0.0618197
0.0610774
0.0612399
0.0599557
0.0601977
0.0581467
0.0584919
0.0555381
0.0559566
0.0522641
0.052731
0.0487274
0.0492071
0.0453705
0.0458362
0.0425021
0.0429392
0.0402856
0.0406829
0.0387444
0.0390949
0.0378382
0.0381334
0.0373926
0.0376297
0.0370615
0.0372783
0.0364803
0.0367219
0.0354436
0.0357411
0.0339225
0.0342833
0.0320517
0.0324665
)
;
    }
}


// ************************************************************************* //
