/*--------------------------------*- C++ -*----------------------------------*\
  =========                 |
  \\      /  F ield         | OpenFOAM: The Open Source CFD Toolbox
   \\    /   O peration     | Website:  https://openfoam.org
    \\  /    A nd           | Version:  8
     \\/     M anipulation  |
\*---------------------------------------------------------------------------*/
FoamFile
{
    version     2.0;
    format      ascii;
    class       volScalarField;
    location    "500";
    object      nut;
}
// * * * * * * * * * * * * * * * * * * * * * * * * * * * * * * * * * * * * * //

dimensions      [0 2 -1 0 0 0 0];

internalField   nonuniform List<scalar> 
1200
(
0.000805049
0.000738623
0.000683394
0.000636795
0.000597035
0.000562774
0.000532971
0.000506823
0.00048374
0.000463291
0.000445147
0.000428987
0.000414575
0.000401433
0.00038928
0.000377948
0.000367861
0.000359402
0.000352513
0.000346346
0.000340531
0.00034382
0.000345467
0.000338694
0.000325529
0.000309894
0.00029484
0.000281745
0.000270411
0.000260422
0.000252062
0.000245291
0.000239883
0.000235568
0.000232108
0.000229377
0.000227302
0.000225833
0.000224871
0.00022431
0.000224028
0.000223849
0.000223369
0.000222356
0.00022051
0.000217404
0.000212698
0.000206528
0.000199535
0.000192586
0.00018639
0.000181399
0.000177787
0.000175522
0.00017433
0.000173517
0.000172247
0.000169972
0.000166511
0.000162073
0.000468056
0.000401932
0.000351195
0.000311267
0.000279171
0.000252818
0.000230847
0.000212306
0.000196462
0.000182816
0.00017091
0.000160417
0.000150983
0.000142632
0.000135213
0.000128605
0.00012271
0.000117422
0.000112644
0.000109816
0.000112299
0.000128708
0.000140962
0.000143625
0.000138894
0.000130674
0.000121603
0.000112986
0.000105373
9.9141e-05
9.39399e-05
8.95054e-05
8.56549e-05
8.22594e-05
7.92288e-05
7.64917e-05
7.40055e-05
7.17383e-05
6.9668e-05
6.77849e-05
6.61031e-05
6.46813e-05
6.37032e-05
6.30953e-05
6.2698e-05
6.23656e-05
6.19782e-05
6.13674e-05
6.04835e-05
5.93517e-05
5.79995e-05
5.64321e-05
5.47538e-05
5.31553e-05
5.17412e-05
5.06984e-05
5.01711e-05
4.99979e-05
4.99213e-05
4.94324e-05
0.000467982
0.00040129
0.000350082
0.000309736
0.000277255
0.000250617
0.000228425
0.00020969
0.000193656
0.000179846
0.000167813
0.00015727
0.000147955
0.000139687
0.000132313
0.000125697
0.000119868
0.000114736
0.000110145
0.000106031
0.000103034
0.000104571
0.00010861
0.000111227
0.000111415
0.000109269
0.000105899
0.000102194
9.84486e-05
9.49024e-05
9.1597e-05
8.84696e-05
8.54638e-05
8.26052e-05
7.99587e-05
7.75541e-05
7.53749e-05
7.33817e-05
7.15369e-05
6.9811e-05
6.81719e-05
6.6566e-05
6.49648e-05
6.33992e-05
6.18875e-05
6.04251e-05
5.9002e-05
5.76022e-05
5.6239e-05
5.49573e-05
5.38046e-05
5.27959e-05
5.1907e-05
5.10653e-05
5.02049e-05
4.93035e-05
4.83618e-05
4.73832e-05
4.63606e-05
4.53138e-05
0.000468029
0.000401483
0.000350379
0.000310136
0.000277679
0.000251024
0.000228818
0.00021005
0.000194004
0.000180161
0.000168085
0.000157469
0.000148125
0.000139808
0.000132403
0.000125814
0.000120054
0.000114991
0.000110431
0.000106267
0.000102696
0.00010047
9.96007e-05
9.88642e-05
9.75103e-05
9.55693e-05
9.33233e-05
9.08833e-05
8.84304e-05
8.5936e-05
8.3481e-05
8.11354e-05
7.8941e-05
7.68949e-05
7.49607e-05
7.3105e-05
7.13098e-05
6.96029e-05
6.80123e-05
6.65318e-05
6.51386e-05
6.38468e-05
6.26373e-05
6.1484e-05
6.03345e-05
5.92245e-05
5.80006e-05
5.66053e-05
5.51086e-05
5.36535e-05
5.23784e-05
5.13516e-05
5.05307e-05
4.98113e-05
4.90797e-05
4.83282e-05
4.75715e-05
4.68198e-05
4.60714e-05
4.53374e-05
0.000468047
0.000401491
0.000350355
0.000310094
0.000277595
0.000250922
0.000228741
0.000209976
0.000193935
0.000180071
0.000168002
0.000157426
0.000148073
0.000139773
0.000132373
0.000125852
0.000120227
0.00011533
0.000110898
0.00010677
0.000103009
9.98442e-05
9.73131e-05
9.50906e-05
9.28922e-05
9.06527e-05
8.83914e-05
8.61414e-05
8.39698e-05
8.1875e-05
7.98611e-05
7.79365e-05
7.60785e-05
7.42895e-05
7.25617e-05
7.08915e-05
6.92824e-05
6.77148e-05
6.61806e-05
6.4679e-05
6.32183e-05
6.1818e-05
6.04964e-05
5.9215e-05
5.79892e-05
5.68271e-05
5.5754e-05
5.47644e-05
5.37339e-05
5.26101e-05
5.14257e-05
5.02834e-05
4.927e-05
4.84231e-05
4.76925e-05
4.70133e-05
4.63506e-05
4.56942e-05
4.50405e-05
4.43979e-05
0.000468024
0.000401502
0.000350387
0.000310085
0.000277584
0.000250919
0.000228729
0.000209965
0.000193912
0.000180049
0.000168004
0.000157439
0.000148101
0.000139799
0.000132435
0.000126129
0.000121046
0.000116669
0.000112471
0.000108345
0.000104423
0.000100963
9.79465e-05
9.52607e-05
9.27816e-05
9.04439e-05
8.82387e-05
8.61503e-05
8.4128e-05
8.21479e-05
8.021e-05
7.83003e-05
7.64305e-05
7.4604e-05
7.28202e-05
7.10807e-05
6.93848e-05
6.7745e-05
6.61582e-05
6.46109e-05
6.31004e-05
6.16441e-05
6.0259e-05
5.89375e-05
5.76697e-05
5.64586e-05
5.53305e-05
5.42504e-05
5.31236e-05
5.18942e-05
5.06203e-05
4.94188e-05
4.83524e-05
4.74199e-05
4.65928e-05
4.58243e-05
4.50925e-05
4.43887e-05
4.37039e-05
4.30402e-05
0.000467988
0.000401528
0.000350462
0.00031016
0.000277708
0.000251077
0.000228875
0.0002101
0.00019405
0.000180191
0.000168126
0.000157546
0.000148188
0.000139859
0.000132546
0.000127285
0.000124172
0.000121081
0.00011702
0.00011244
0.000108013
0.000104104
0.000100822
9.79614e-05
9.53471e-05
9.28734e-05
9.04647e-05
8.80669e-05
8.56742e-05
8.33051e-05
8.09845e-05
7.87438e-05
7.66038e-05
7.45662e-05
7.26023e-05
7.0685e-05
6.88328e-05
6.70834e-05
6.54461e-05
6.38988e-05
6.24077e-05
6.09616e-05
5.95995e-05
5.83149e-05
5.70543e-05
5.57669e-05
5.44519e-05
5.31939e-05
5.19033e-05
5.06706e-05
4.95238e-05
4.83654e-05
4.71913e-05
4.60886e-05
4.51242e-05
4.42578e-05
4.3454e-05
4.26933e-05
4.19613e-05
4.1254e-05
0.000467982
0.00040136
0.000350163
0.000309772
0.000277292
0.000250649
0.000228436
0.000209678
0.00019367
0.000179853
0.000167816
0.000157254
0.000147913
0.000139627
0.000132841
0.000132311
0.000135135
0.00013449
0.000129318
0.000122334
0.000115718
0.000110072
0.000105168
0.000100731
9.65387e-05
9.25932e-05
8.89319e-05
8.55971e-05
8.26821e-05
8.01638e-05
7.78967e-05
7.57193e-05
7.3584e-05
7.15436e-05
6.98156e-05
6.85292e-05
6.73925e-05
6.58891e-05
6.395e-05
6.18263e-05
5.9936e-05
5.86732e-05
5.77937e-05
5.70279e-05
5.54902e-05
5.36042e-05
5.2039e-05
5.14333e-05
5.12482e-05
5.08029e-05
4.99047e-05
4.85426e-05
4.68336e-05
4.5071e-05
4.35188e-05
4.22737e-05
4.12611e-05
4.03996e-05
3.96025e-05
3.87707e-05
0.000468113
0.000401976
0.000351187
0.000311171
0.000278953
0.000252524
0.000230443
0.000211757
0.000195766
0.000181931
0.000169877
0.000159295
0.000149981
0.000142095
0.000136671
0.000154184
0.000167258
0.000169301
0.000164944
0.00015767
0.000149439
0.000141669
0.000133897
0.000126341
0.000119839
0.000114344
0.000109545
0.000105163
0.000101613
9.87019e-05
9.6593e-05
9.50369e-05
9.3339e-05
9.14458e-05
8.94221e-05
8.6889e-05
8.34188e-05
7.99842e-05
7.7312e-05
7.51061e-05
7.3061e-05
7.10544e-05
6.92479e-05
6.75862e-05
6.59483e-05
6.43991e-05
6.28825e-05
6.09323e-05
5.83114e-05
5.60916e-05
5.4533e-05
5.26499e-05
4.98836e-05
4.67367e-05
4.40126e-05
4.18934e-05
4.01252e-05
3.85413e-05
3.69896e-05
3.54202e-05
0.000805153
0.000738711
0.00068346
0.000636886
0.000597051
0.00056268
0.000532878
0.000506767
0.000483685
0.000463169
0.000444891
0.000428555
0.000413998
0.000400857
0.000387679
0.000391926
0.000399303
0.000394477
0.000381926
0.000366197
0.000349555
0.00033391
0.000320508
0.000309372
0.000299943
0.000291684
0.000284096
0.000276748
0.000269483
0.000262621
0.000256441
0.000250812
0.000245329
0.000239445
0.000232589
0.000224343
0.000214634
0.000203875
0.000192523
0.000181487
0.000171601
0.000162866
0.000155374
0.000149384
0.000144958
0.000142166
0.000141305
0.000142396
0.000143821
0.000142577
0.000137036
0.000127422
0.000115687
0.000104672
9.60172e-05
9.01251e-05
8.6446e-05
8.42347e-05
8.28e-05
8.20868e-05
0.000805044
0.000738792
0.000683521
0.00063691
0.000597114
0.000562761
0.000532864
0.000506747
0.000483721
0.000463342
0.00044517
0.000428961
0.000414432
0.000401244
0.00038906
0.000377655
0.000367389
0.00035856
0.000351443
0.000345524
0.000339549
0.000341417
0.000344313
0.000339172
0.000326983
0.000311694
0.00029663
0.000283382
0.000271901
0.000261661
0.000253022
0.000246025
0.000240454
0.000236018
0.000232459
0.000229635
0.000227462
0.000225898
0.000224876
0.000224314
0.000224105
0.000224043
0.000223614
0.00022268
0.000220962
0.000218082
0.000213503
0.000207424
0.000200475
0.000193526
0.00018731
0.000182279
0.000178605
0.000176284
0.000174963
0.000174093
0.000172873
0.000170738
0.000167452
0.000163187
0.000468127
0.000401972
0.000351119
0.000311111
0.000278905
0.000252542
0.000230633
0.000212167
0.000196407
0.000182731
0.000170753
0.0001602
0.000150866
0.000142553
0.000135146
0.000128525
0.000122593
0.000117334
0.000112626
0.000109346
0.000111421
0.000125776
0.000138474
0.000142863
0.000139358
0.000131648
0.00012269
0.000114006
0.000106181
9.97391e-05
9.43895e-05
8.98525e-05
8.59311e-05
8.24857e-05
7.94193e-05
7.66563e-05
7.41507e-05
7.18688e-05
6.97851e-05
6.78845e-05
6.61741e-05
6.47148e-05
6.37684e-05
6.31488e-05
6.26921e-05
6.22178e-05
6.18175e-05
6.1235e-05
6.03928e-05
5.93083e-05
5.80105e-05
5.6503e-05
5.48675e-05
5.32442e-05
5.18657e-05
5.08198e-05
5.02443e-05
5.00118e-05
4.99124e-05
4.94667e-05
0.000468044
0.000401369
0.00035015
0.000309817
0.000277289
0.000250615
0.000228427
0.000209678
0.000193693
0.000179861
0.000167807
0.000157255
0.000147934
0.000139649
0.000132265
0.000125688
0.00011989
0.000114796
0.000110216
0.000106123
0.000103504
0.000105196
0.000108888
0.000110837
0.000110966
0.000109082
0.000105956
0.000102381
9.87046e-05
9.51513e-05
9.18186e-05
8.87017e-05
8.57313e-05
8.2897e-05
8.0234e-05
7.77769e-05
7.55449e-05
7.35184e-05
7.16663e-05
6.99546e-05
6.83431e-05
6.67609e-05
6.51694e-05
6.35948e-05
6.20661e-05
6.05708e-05
5.91204e-05
5.77093e-05
5.63412e-05
5.50465e-05
5.38726e-05
5.28453e-05
5.19448e-05
5.11057e-05
5.02585e-05
4.93735e-05
4.84488e-05
4.7487e-05
4.64808e-05
4.54498e-05
0.000468026
0.000401524
0.000350445
0.000310182
0.000277692
0.000251029
0.000228834
0.000210068
0.000194022
0.000180148
0.00016808
0.000157513
0.000148145
0.000139823
0.00013242
0.000125876
0.000120129
0.000115054
0.00011048
0.000106321
0.00010287
0.000100902
0.000100136
9.93041e-05
9.78312e-05
9.5837e-05
9.3621e-05
9.12275e-05
8.8678e-05
8.60786e-05
8.35458e-05
8.11424e-05
7.88943e-05
7.67826e-05
7.47745e-05
7.2864e-05
7.10575e-05
6.93789e-05
6.78231e-05
6.63568e-05
6.4952e-05
6.36256e-05
6.23805e-05
6.11896e-05
6.00087e-05
5.89122e-05
5.78779e-05
5.67599e-05
5.54511e-05
5.40373e-05
5.26924e-05
5.15512e-05
5.06378e-05
4.98798e-05
4.91533e-05
4.8416e-05
4.7668e-05
4.69199e-05
4.61727e-05
4.54407e-05
0.000467992
0.000401526
0.00035043
0.000310092
0.000277606
0.000250963
0.000228747
0.000209968
0.000193928
0.000180085
0.000168037
0.000157459
0.0001481
0.00013979
0.000132401
0.000125905
0.000120292
0.000115386
0.000110935
0.000106794
0.000103077
9.99984e-05
9.75243e-05
9.52982e-05
9.30683e-05
9.08023e-05
8.85133e-05
8.62225e-05
8.40123e-05
8.18891e-05
7.98525e-05
7.79026e-05
7.60256e-05
7.42178e-05
7.24758e-05
7.0799e-05
6.91788e-05
6.75986e-05
6.60497e-05
6.45348e-05
6.30661e-05
6.16697e-05
6.03371e-05
5.9045e-05
5.78098e-05
5.66352e-05
5.55491e-05
5.45644e-05
5.3653e-05
5.2702e-05
5.16494e-05
5.05513e-05
4.95162e-05
4.86188e-05
4.78479e-05
4.71466e-05
4.64749e-05
4.58162e-05
4.51604e-05
4.45195e-05
0.000467982
0.000401531
0.000350421
0.000310066
0.000277604
0.000250961
0.000228714
0.000209933
0.000193906
0.000180071
0.000168023
0.000157438
0.000148098
0.000139811
0.000132461
0.000126204
0.000121139
0.000116726
0.000112478
0.000108331
0.000104438
0.00010102
9.8039e-05
9.53673e-05
9.28862e-05
9.05449e-05
8.83327e-05
8.62172e-05
8.41648e-05
8.2161e-05
8.01992e-05
7.82731e-05
7.63892e-05
7.45479e-05
7.27529e-05
7.10063e-05
6.93117e-05
6.76675e-05
6.60646e-05
6.44939e-05
6.296e-05
6.14912e-05
6.00953e-05
5.87653e-05
5.74905e-05
5.62756e-05
5.51405e-05
5.41003e-05
5.30989e-05
5.20263e-05
5.08437e-05
4.96441e-05
4.8539e-05
4.75702e-05
4.67184e-05
4.59373e-05
4.51974e-05
4.44868e-05
4.37946e-05
4.31271e-05
0.000468009
0.000401535
0.000350463
0.000310175
0.000277735
0.000251102
0.000228859
0.000210084
0.000194052
0.000180201
0.000168134
0.000157536
0.000148175
0.000139862
0.000132605
0.00012751
0.000124357
0.000121099
0.00011691
0.000112302
0.00010792
0.000104098
0.000100871
9.80352e-05
9.54225e-05
9.29304e-05
9.04931e-05
8.80866e-05
8.57064e-05
8.33635e-05
8.10707e-05
7.88404e-05
7.66797e-05
7.45862e-05
7.25527e-05
7.0595e-05
6.87512e-05
6.70347e-05
6.54172e-05
6.38337e-05
6.22704e-05
6.0784e-05
5.93947e-05
5.80909e-05
5.68162e-05
5.55548e-05
5.43302e-05
5.32082e-05
5.20431e-05
5.08312e-05
4.96638e-05
4.85011e-05
4.73287e-05
4.62197e-05
4.52442e-05
4.43662e-05
4.35509e-05
4.27793e-05
4.20358e-05
4.13213e-05
0.00046804
0.000401324
0.000350138
0.000309789
0.000277281
0.000250632
0.000228432
0.000209683
0.000193671
0.000179855
0.000167819
0.000157256
0.000147922
0.000139634
0.000133171
0.000132858
0.000135332
0.000134282
0.000128805
0.000121804
0.00011534
0.000109862
0.000105051
0.000100617
9.64182e-05
9.24671e-05
8.87704e-05
8.53819e-05
8.23727e-05
7.97125e-05
7.72822e-05
7.50105e-05
7.28667e-05
7.09131e-05
6.93366e-05
6.80956e-05
6.67916e-05
6.50395e-05
6.29539e-05
6.09328e-05
5.93128e-05
5.81769e-05
5.73708e-05
5.67246e-05
5.56498e-05
5.40826e-05
5.24736e-05
5.15428e-05
5.12054e-05
5.08008e-05
4.99935e-05
4.8703e-05
4.70274e-05
4.52588e-05
4.36739e-05
4.23905e-05
4.13451e-05
4.04605e-05
3.96516e-05
3.88228e-05
0.000468152
0.000401948
0.000351188
0.000311192
0.000278927
0.000252462
0.000230356
0.00021162
0.000195614
0.000181804
0.000169778
0.000159253
0.000149914
0.000141623
0.000137102
0.000152075
0.000165043
0.000168179
0.000164641
0.000157655
0.000149269
0.000141164
0.000133035
0.000125537
0.000119148
0.000113708
0.000108999
0.000104953
0.000101605
9.85433e-05
9.56812e-05
9.34705e-05
9.13144e-05
8.93511e-05
8.77194e-05
8.60866e-05
8.37598e-05
8.10409e-05
7.83866e-05
7.60426e-05
7.39117e-05
7.17226e-05
6.9695e-05
6.78578e-05
6.61399e-05
6.45234e-05
6.2961e-05
6.10928e-05
5.85866e-05
5.62982e-05
5.47098e-05
5.28705e-05
5.015e-05
4.69862e-05
4.42039e-05
4.20347e-05
4.0239e-05
3.86443e-05
3.70943e-05
3.55345e-05
0.00080505
0.000738672
0.000683468
0.000636838
0.000597046
0.000562749
0.000532902
0.000506757
0.000483637
0.000463039
0.000444573
0.000427943
0.000413018
0.000400133
0.000387532
0.000389224
0.000397604
0.000394351
0.000382738
0.000367483
0.000351024
0.000335252
0.00032166
0.00031042
0.000300943
0.000292688
0.000285132
0.000277781
0.000270458
0.000263544
0.000257286
0.000251551
0.000246046
0.000240197
0.000233439
0.000225348
0.000215813
0.000205169
0.000193929
0.000182952
0.000173037
0.00016419
0.000156518
0.000150311
0.000145663
0.000142664
0.000141602
0.000142525
0.000143956
0.000142989
0.000137785
0.000128459
0.000116841
0.000105752
9.68982e-05
9.0789e-05
8.69409e-05
8.46238e-05
8.31277e-05
8.23808e-05
)
;

boundaryField
{
    wall
    {
        type            nutkWallFunction;
        Cmu             0.09;
        kappa           0.41;
        E               9.8;
        value           nonuniform List<scalar> 
1200
(
5.15266e-05
4.825e-05
4.82405e-05
4.82409e-05
4.82411e-05
4.82409e-05
4.82405e-05
4.82405e-05
4.82507e-05
5.15301e-05
4.76432e-05
4.20009e-05
4.19388e-05
4.19564e-05
4.19573e-05
4.19581e-05
4.19598e-05
4.19436e-05
4.20032e-05
4.765e-05
4.43889e-05
3.7142e-05
3.70351e-05
3.70647e-05
3.70625e-05
3.70633e-05
3.70687e-05
3.70402e-05
3.714e-05
4.43937e-05
4.16243e-05
3.32716e-05
3.31222e-05
3.316e-05
3.31553e-05
3.31556e-05
3.31648e-05
3.31275e-05
3.32631e-05
4.1628e-05
3.92506e-05
3.01257e-05
2.99367e-05
2.99774e-05
2.99703e-05
2.99707e-05
2.99832e-05
2.99411e-05
3.01045e-05
3.92515e-05
3.71934e-05
2.75182e-05
2.72988e-05
2.73388e-05
2.73304e-05
2.73303e-05
2.73443e-05
2.73008e-05
2.74867e-05
3.71898e-05
3.53945e-05
2.53252e-05
2.50815e-05
2.51196e-05
2.5111e-05
2.51097e-05
2.51242e-05
2.50808e-05
2.52832e-05
3.53887e-05
3.38088e-05
2.34547e-05
2.31919e-05
2.32272e-05
2.32184e-05
2.32163e-05
2.32312e-05
2.31894e-05
2.34005e-05
3.38028e-05
3.24015e-05
2.18456e-05
2.15619e-05
2.15948e-05
2.15866e-05
2.15845e-05
2.15993e-05
2.15604e-05
2.17747e-05
3.2396e-05
3.11499e-05
2.04478e-05
2.01444e-05
2.01742e-05
2.01668e-05
2.01655e-05
2.01794e-05
2.01437e-05
2.03596e-05
3.11409e-05
3.00352e-05
1.92193e-05
1.89019e-05
1.89282e-05
1.8922e-05
1.89216e-05
1.89338e-05
1.89013e-05
1.91209e-05
3.00165e-05
2.90389e-05
1.81279e-05
1.78056e-05
1.7828e-05
1.78226e-05
1.78226e-05
1.78331e-05
1.78032e-05
1.80332e-05
2.90077e-05
2.81447e-05
1.7145e-05
1.68316e-05
1.68505e-05
1.68451e-05
1.68458e-05
1.68539e-05
1.68267e-05
1.70902e-05
2.81001e-05
2.73259e-05
1.62701e-05
1.59629e-05
1.59774e-05
1.59724e-05
1.59733e-05
1.59783e-05
1.5957e-05
1.63192e-05
2.72728e-05
2.65651e-05
1.54883e-05
1.51847e-05
1.51957e-05
1.51912e-05
1.51957e-05
1.52141e-05
1.53016e-05
1.62459e-05
2.65259e-05
2.5859e-05
1.47879e-05
1.44859e-05
1.4498e-05
1.44988e-05
1.45311e-05
1.46766e-05
1.53146e-05
1.79857e-05
2.69525e-05
2.52362e-05
1.41613e-05
1.38643e-05
1.38818e-05
1.38977e-05
1.39887e-05
1.43352e-05
1.55418e-05
1.90175e-05
2.72833e-05
2.47181e-05
1.3599e-05
1.33115e-05
1.33346e-05
1.33697e-05
1.3513e-05
1.39798e-05
1.53869e-05
1.90434e-05
2.68702e-05
2.42977e-05
1.31137e-05
1.28145e-05
1.28399e-05
1.28887e-05
1.30538e-05
1.35274e-05
1.47921e-05
1.85014e-05
2.60274e-05
2.39139e-05
1.28985e-05
1.23838e-05
1.23925e-05
1.24412e-05
1.26052e-05
1.30312e-05
1.40478e-05
1.76919e-05
2.50115e-05
2.36668e-05
1.36326e-05
1.21747e-05
1.20299e-05
1.20395e-05
1.21846e-05
1.25589e-05
1.33587e-05
1.6838e-05
2.39525e-05
2.38872e-05
1.53188e-05
1.246e-05
1.18301e-05
1.17064e-05
1.18134e-05
1.2146e-05
1.27682e-05
1.60103e-05
2.29758e-05
2.38493e-05
1.63296e-05
1.2869e-05
1.1748e-05
1.14355e-05
1.14878e-05
1.17954e-05
1.22444e-05
1.51821e-05
2.21412e-05
2.33104e-05
1.63799e-05
1.30662e-05
1.16547e-05
1.11896e-05
1.11945e-05
1.14852e-05
1.17603e-05
1.44038e-05
2.14407e-05
2.24212e-05
1.57698e-05
1.29918e-05
1.14895e-05
1.0942e-05
1.09211e-05
1.11979e-05
1.12996e-05
1.37305e-05
2.08425e-05
2.14112e-05
1.48623e-05
1.27004e-05
1.12637e-05
1.06884e-05
1.06621e-05
1.09232e-05
1.08644e-05
1.31523e-05
2.0314e-05
2.04546e-05
1.38924e-05
1.23084e-05
1.10035e-05
1.04311e-05
1.04168e-05
1.06533e-05
1.04574e-05
1.26471e-05
1.98244e-05
1.96262e-05
1.29817e-05
1.18954e-05
1.0715e-05
1.01769e-05
1.01821e-05
1.03847e-05
1.00847e-05
1.22074e-05
1.93489e-05
1.89074e-05
1.2187e-05
1.14898e-05
1.04229e-05
9.93131e-06
9.95377e-06
1.01174e-05
9.75458e-06
1.18436e-05
1.88837e-05
1.82796e-05
1.15311e-05
1.11061e-05
1.0133e-05
9.69495e-06
9.7298e-06
9.85331e-06
9.46238e-06
1.15383e-05
1.84456e-05
1.77557e-05
1.09775e-05
1.0742e-05
9.85423e-06
9.46781e-06
9.50958e-06
9.59514e-06
9.1928e-06
1.12786e-05
1.80519e-05
1.73308e-05
1.05004e-05
1.03918e-05
9.59143e-06
9.24933e-06
9.29289e-06
9.34501e-06
8.93477e-06
1.10358e-05
1.7691e-05
1.69902e-05
1.00819e-05
1.00562e-05
9.34491e-06
9.03832e-06
9.08027e-06
9.10414e-06
8.68295e-06
1.07897e-05
1.73346e-05
1.67175e-05
9.70963e-06
9.74195e-06
9.11197e-06
8.83434e-06
8.8722e-06
8.87203e-06
8.4491e-06
1.05375e-05
1.69457e-05
1.64984e-05
9.37479e-06
9.45413e-06
8.88992e-06
8.63714e-06
8.66885e-06
8.64506e-06
8.26341e-06
1.02677e-05
1.64862e-05
1.63258e-05
9.07037e-06
9.19202e-06
8.67809e-06
8.44649e-06
8.47018e-06
8.42433e-06
8.11016e-06
9.96673e-06
1.5929e-05
1.61957e-05
8.79231e-06
8.95142e-06
8.47697e-06
8.26148e-06
8.27662e-06
8.21427e-06
7.9471e-06
9.6582e-06
1.52713e-05
1.61048e-05
8.53772e-06
8.72786e-06
8.28726e-06
8.08076e-06
8.08823e-06
8.01593e-06
7.74828e-06
9.372e-06
1.45432e-05
1.60456e-05
8.3048e-06
8.51797e-06
8.10853e-06
7.90364e-06
7.90437e-06
7.82706e-06
7.52867e-06
9.11821e-06
1.37785e-05
1.60099e-05
8.09327e-06
8.31925e-06
7.93848e-06
7.73037e-06
7.72434e-06
7.64437e-06
7.31667e-06
8.88032e-06
1.30368e-05
1.59884e-05
7.9057e-06
8.12924e-06
7.77496e-06
7.56202e-06
7.5486e-06
7.46602e-06
7.13451e-06
8.65481e-06
1.23747e-05
1.59704e-05
7.74991e-06
7.94373e-06
7.61907e-06
7.40067e-06
7.37947e-06
7.29528e-06
6.98852e-06
8.44862e-06
1.17914e-05
1.59335e-05
7.64228e-06
7.76099e-06
7.47084e-06
7.2463e-06
7.21812e-06
7.13447e-06
6.8673e-06
8.25844e-06
1.12943e-05
1.58579e-05
7.58038e-06
7.58348e-06
7.32808e-06
7.09701e-06
7.06393e-06
6.98197e-06
6.74278e-06
8.07013e-06
1.09001e-05
1.57226e-05
7.54345e-06
7.41212e-06
7.18954e-06
6.95381e-06
6.91601e-06
6.8321e-06
6.5756e-06
7.88331e-06
1.06116e-05
1.55014e-05
7.50995e-06
7.24564e-06
7.05525e-06
6.81724e-06
6.7748e-06
6.68506e-06
6.39147e-06
7.71245e-06
1.04338e-05
1.51756e-05
7.46201e-06
7.08162e-06
6.90988e-06
6.68972e-06
6.64299e-06
6.53796e-06
6.26459e-06
7.53281e-06
1.03899e-05
1.47546e-05
7.38542e-06
6.91921e-06
6.7517e-06
6.56947e-06
6.51367e-06
6.39077e-06
6.22484e-06
7.28706e-06
1.04776e-05
1.42831e-05
7.2761e-06
6.76158e-06
6.58986e-06
6.44424e-06
6.37745e-06
6.24264e-06
6.1975e-06
6.97061e-06
1.05702e-05
1.38177e-05
7.13739e-06
6.61432e-06
6.43738e-06
6.31163e-06
6.2327e-06
6.10371e-06
6.12905e-06
6.7197e-06
1.04607e-05
1.34047e-05
6.97242e-06
6.48201e-06
6.30552e-06
6.17702e-06
6.08788e-06
5.96982e-06
6.0112e-06
6.54087e-06
1.00485e-05
1.30749e-05
6.78217e-06
6.36573e-06
6.19649e-06
6.05045e-06
5.953e-06
5.83153e-06
5.84346e-06
6.31608e-06
9.35619e-06
1.28395e-05
6.58245e-06
6.26228e-06
6.10339e-06
5.93878e-06
5.83192e-06
5.69214e-06
5.63895e-06
5.98783e-06
8.52336e-06
1.26987e-05
6.39098e-06
6.16232e-06
6.01529e-06
5.84445e-06
5.72403e-06
5.56261e-06
5.4317e-06
5.62058e-06
7.74786e-06
1.26288e-05
6.22234e-06
6.05898e-06
5.92545e-06
5.76007e-06
5.62696e-06
5.44943e-06
5.25136e-06
5.30526e-06
7.14203e-06
1.25765e-05
6.10392e-06
5.95016e-06
5.83496e-06
5.6796e-06
5.53601e-06
5.34736e-06
5.10685e-06
5.05663e-06
6.73231e-06
1.24842e-05
6.05045e-06
5.83625e-06
5.74487e-06
5.60044e-06
5.4493e-06
5.2523e-06
4.98869e-06
4.84575e-06
6.4768e-06
1.23175e-05
6.03772e-06
5.71775e-06
5.65541e-06
5.52195e-06
5.36583e-06
5.16209e-06
4.88701e-06
4.65412e-06
6.32258e-06
1.2068e-05
6.03027e-06
5.59394e-06
5.56616e-06
5.44402e-06
5.28457e-06
5.07523e-06
4.79123e-06
4.46383e-06
6.22131e-06
1.17524e-05
5.96679e-06
5.46769e-06
5.47836e-06
5.36699e-06
5.20538e-06
4.99082e-06
4.68915e-06
4.26966e-06
6.17071e-06
5.15288e-05
4.82506e-05
4.8241e-05
4.82408e-05
4.82405e-05
4.82405e-05
4.82408e-05
4.82413e-05
4.82513e-05
5.15276e-05
4.76537e-05
4.20031e-05
4.1946e-05
4.19609e-05
4.19599e-05
4.19595e-05
4.19605e-05
4.19424e-05
4.20032e-05
4.76461e-05
4.43971e-05
3.71355e-05
3.70423e-05
3.70696e-05
3.70657e-05
3.70648e-05
3.70702e-05
3.70398e-05
3.71413e-05
4.43927e-05
4.16304e-05
3.32547e-05
3.31284e-05
3.31645e-05
3.31578e-05
3.31565e-05
3.31661e-05
3.31266e-05
3.32622e-05
4.16271e-05
3.92537e-05
3.00986e-05
2.99402e-05
2.99812e-05
2.99734e-05
2.99719e-05
2.99844e-05
2.99402e-05
3.01033e-05
3.92518e-05
3.71925e-05
2.74906e-05
2.72997e-05
2.7342e-05
2.73338e-05
2.73316e-05
2.73459e-05
2.73013e-05
2.74839e-05
3.71919e-05
3.53904e-05
2.53013e-05
2.50799e-05
2.51206e-05
2.51114e-05
2.51087e-05
2.51239e-05
2.50809e-05
2.52742e-05
3.53895e-05
3.38058e-05
2.34411e-05
2.31892e-05
2.32267e-05
2.32173e-05
2.3215e-05
2.32305e-05
2.31891e-05
2.33842e-05
3.38031e-05
3.24037e-05
2.18382e-05
2.15618e-05
2.15955e-05
2.15869e-05
2.15847e-05
2.15993e-05
2.15604e-05
2.17576e-05
3.23937e-05
3.11541e-05
2.04361e-05
2.01452e-05
2.01765e-05
2.01689e-05
2.01667e-05
2.01799e-05
2.01443e-05
2.03439e-05
3.11334e-05
3.0037e-05
1.92004e-05
1.89022e-05
1.89312e-05
1.89244e-05
1.89227e-05
1.89344e-05
1.89018e-05
1.91041e-05
3.00001e-05
2.90355e-05
1.81075e-05
1.78049e-05
1.78307e-05
1.78242e-05
1.78231e-05
1.78331e-05
1.78035e-05
1.80097e-05
2.89785e-05
2.81334e-05
1.71335e-05
1.68301e-05
1.68521e-05
1.68464e-05
1.68465e-05
1.6854e-05
1.68266e-05
1.70393e-05
2.80671e-05
2.73112e-05
1.62626e-05
1.59603e-05
1.59785e-05
1.59734e-05
1.59745e-05
1.59788e-05
1.5957e-05
1.62293e-05
2.72481e-05
2.65484e-05
1.5482e-05
1.5181e-05
1.51972e-05
1.51932e-05
1.51983e-05
1.52216e-05
1.5333e-05
1.62132e-05
2.6491e-05
2.58362e-05
1.47806e-05
1.44832e-05
1.45018e-05
1.45031e-05
1.45391e-05
1.46991e-05
1.53548e-05
1.77743e-05
2.67874e-05
2.5201e-05
1.41521e-05
1.38655e-05
1.38869e-05
1.39033e-05
1.39978e-05
1.43523e-05
1.55542e-05
1.88507e-05
2.71973e-05
2.46568e-05
1.35896e-05
1.33157e-05
1.33394e-05
1.33749e-05
1.35181e-05
1.39796e-05
1.53608e-05
1.89768e-05
2.68755e-05
2.42324e-05
1.30893e-05
1.28202e-05
1.28441e-05
1.28923e-05
1.30542e-05
1.35148e-05
1.47369e-05
1.84957e-05
2.60848e-05
2.38608e-05
1.2822e-05
1.23993e-05
1.24004e-05
1.24448e-05
1.26042e-05
1.30165e-05
1.39934e-05
1.76947e-05
2.50959e-05
2.35745e-05
1.34728e-05
1.22305e-05
1.20559e-05
1.2049e-05
1.21874e-05
1.25504e-05
1.33207e-05
1.68192e-05
2.40443e-05
2.37519e-05
1.50155e-05
1.25145e-05
1.18791e-05
1.17243e-05
1.18209e-05
1.21468e-05
1.27457e-05
1.5948e-05
2.30602e-05
2.38052e-05
1.6117e-05
1.28883e-05
1.18015e-05
1.14575e-05
1.14984e-05
1.18015e-05
1.22302e-05
1.50921e-05
2.22153e-05
2.3359e-05
1.63404e-05
1.30379e-05
1.16968e-05
1.12101e-05
1.12061e-05
1.14931e-05
1.17461e-05
1.43185e-05
2.15081e-05
2.25213e-05
1.5838e-05
1.29674e-05
1.15215e-05
1.09593e-05
1.09322e-05
1.12054e-05
1.12834e-05
1.3655e-05
2.09068e-05
2.15279e-05
1.49714e-05
1.27004e-05
1.12929e-05
1.07026e-05
1.06723e-05
1.09287e-05
1.08447e-05
1.30858e-05
2.03778e-05
2.05683e-05
1.40081e-05
1.23274e-05
1.10308e-05
1.0442e-05
1.0425e-05
1.06571e-05
1.04329e-05
1.25889e-05
1.98891e-05
1.97298e-05
1.30874e-05
1.19245e-05
1.07345e-05
1.01825e-05
1.01878e-05
1.03879e-05
1.00547e-05
1.2152e-05
1.94137e-05
1.9001e-05
1.22693e-05
1.15208e-05
1.04282e-05
9.93319e-06
9.95701e-06
1.01206e-05
9.71852e-06
1.17733e-05
1.8946e-05
1.8357e-05
1.15931e-05
1.11352e-05
1.01278e-05
9.69437e-06
9.73097e-06
9.85634e-06
9.42116e-06
1.14317e-05
1.85031e-05
1.78164e-05
1.10247e-05
1.07706e-05
9.84275e-06
9.46523e-06
9.50888e-06
9.59707e-06
9.14956e-06
1.11189e-05
1.8103e-05
1.73778e-05
1.05371e-05
1.04228e-05
9.57617e-06
9.24479e-06
9.29052e-06
9.34455e-06
8.89491e-06
1.08437e-05
1.77373e-05
1.70267e-05
1.01112e-05
1.00891e-05
9.3265e-06
9.0322e-06
9.07639e-06
9.10068e-06
8.64909e-06
1.06026e-05
1.73803e-05
1.67458e-05
9.73369e-06
9.77283e-06
9.09062e-06
8.82709e-06
8.86703e-06
8.86542e-06
8.41879e-06
1.03939e-05
1.69941e-05
1.65198e-05
9.39509e-06
9.47953e-06
8.86699e-06
8.62901e-06
8.66255e-06
8.63639e-06
8.23328e-06
1.01873e-05
1.65416e-05
1.63411e-05
9.08796e-06
9.21107e-06
8.65583e-06
8.4375e-06
8.46319e-06
8.41679e-06
8.06621e-06
9.94959e-06
1.59954e-05
1.62052e-05
8.80791e-06
8.96593e-06
8.45732e-06
8.25132e-06
8.26913e-06
8.20886e-06
7.88323e-06
9.6886e-06
1.53493e-05
1.61092e-05
8.5517e-06
8.74056e-06
8.27074e-06
8.06918e-06
8.07964e-06
8.011e-06
7.67325e-06
9.42501e-06
1.46311e-05
1.60467e-05
8.31709e-06
8.53118e-06
8.0938e-06
7.89082e-06
7.89384e-06
7.81963e-06
7.45961e-06
9.17197e-06
1.3874e-05
1.60105e-05
8.10326e-06
8.33439e-06
7.92325e-06
7.7168e-06
7.71175e-06
7.63185e-06
7.26694e-06
8.93074e-06
1.31346e-05
1.59924e-05
7.91216e-06
8.1469e-06
7.7572e-06
7.5482e-06
7.53473e-06
7.4495e-06
7.10069e-06
8.70028e-06
1.24688e-05
1.59802e-05
7.75177e-06
7.96303e-06
7.59797e-06
7.38682e-06
7.36495e-06
7.27672e-06
6.95792e-06
8.48285e-06
1.1877e-05
1.59468e-05
7.64377e-06
7.78033e-06
7.44679e-06
7.2318e-06
7.20298e-06
7.11438e-06
6.83851e-06
8.28001e-06
1.13674e-05
1.58774e-05
7.57668e-06
7.60127e-06
7.30148e-06
7.08213e-06
7.04817e-06
6.96075e-06
6.72456e-06
8.0854e-06
1.09588e-05
1.57519e-05
7.53185e-06
7.42751e-06
7.16122e-06
6.93865e-06
6.89983e-06
6.80977e-06
6.5855e-06
7.89507e-06
1.06565e-05
1.55439e-05
7.48989e-06
7.25833e-06
7.03042e-06
6.80175e-06
6.75836e-06
6.66421e-06
6.42192e-06
7.71841e-06
1.04658e-05
1.52284e-05
7.44296e-06
7.09275e-06
6.90285e-06
6.67362e-06
6.62609e-06
6.52702e-06
6.28258e-06
7.54038e-06
1.04085e-05
1.48155e-05
7.37064e-06
6.92987e-06
6.76605e-06
6.55572e-06
6.50267e-06
6.39422e-06
6.22021e-06
7.30861e-06
1.04854e-05
1.43481e-05
7.26674e-06
6.77163e-06
6.61647e-06
6.44167e-06
6.3793e-06
6.25578e-06
6.19024e-06
7.00396e-06
1.05806e-05
1.38834e-05
7.13399e-06
6.62283e-06
6.46452e-06
6.32267e-06
6.24724e-06
6.11772e-06
6.1318e-06
6.74634e-06
1.04901e-05
1.34686e-05
6.97549e-06
6.48844e-06
6.32496e-06
6.19674e-06
6.10789e-06
5.98313e-06
6.02418e-06
6.56462e-06
1.01009e-05
1.31347e-05
6.79188e-06
6.37036e-06
6.20665e-06
6.07148e-06
5.97161e-06
5.84546e-06
5.86316e-06
6.34404e-06
9.42736e-06
1.28935e-05
6.59612e-06
6.26579e-06
6.10795e-06
5.95649e-06
5.84693e-06
5.70626e-06
5.66106e-06
6.01941e-06
8.60141e-06
1.27448e-05
6.40595e-06
6.16638e-06
6.01966e-06
5.85749e-06
5.73621e-06
5.57562e-06
5.45214e-06
5.64878e-06
7.82001e-06
1.2666e-05
6.24015e-06
6.06453e-06
5.93173e-06
5.77028e-06
5.63739e-06
5.46098e-06
5.26755e-06
5.32583e-06
7.20069e-06
1.26107e-05
6.11933e-06
5.95757e-06
5.84271e-06
5.68872e-06
5.54555e-06
5.35759e-06
5.1187e-06
5.07184e-06
6.77618e-06
1.25227e-05
6.05923e-06
5.84561e-06
5.75324e-06
5.60933e-06
5.45817e-06
5.26137e-06
4.99706e-06
4.85827e-06
6.50944e-06
1.23656e-05
6.03989e-06
5.72904e-06
5.66402e-06
5.53089e-06
5.37409e-06
5.17009e-06
4.89307e-06
4.66577e-06
6.34832e-06
1.21277e-05
6.03056e-06
5.60707e-06
5.5749e-06
5.45285e-06
5.29214e-06
5.0821e-06
4.79631e-06
4.47603e-06
6.24325e-06
1.18233e-05
5.97167e-06
5.48225e-06
5.48729e-06
5.37597e-06
5.21253e-06
4.9969e-06
4.69486e-06
4.28316e-06
6.19073e-06
)
;
    }
    inlet
    {
        type            calculated;
        value           uniform 0.0381026;
    }
    outlet
    {
        type            calculated;
        value           nonuniform List<scalar> 
20
(
0.000162073
4.94324e-05
4.53138e-05
4.53374e-05
4.43979e-05
4.30402e-05
4.1254e-05
3.87707e-05
3.54202e-05
8.20868e-05
0.000163187
4.94667e-05
4.54498e-05
4.54407e-05
4.45195e-05
4.31271e-05
4.13213e-05
3.88228e-05
3.55345e-05
8.23808e-05
)
;
    }
    heatWall
    {
        type            nutkWallFunction;