/*--------------------------------*- C++ -*----------------------------------*\
  =========                 |
  \\      /  F ield         | OpenFOAM: The Open Source CFD Toolbox
   \\    /   O peration     | Website:  https://openfoam.org
    \\  /    A nd           | Version:  8
     \\/     M anipulation  |
\*---------------------------------------------------------------------------*/
FoamFile
{
    version     2.0;
    format      ascii;
    class       volScalarField;
    location    "500";
    object      p;
}
// * * * * * * * * * * * * * * * * * * * * * * * * * * * * * * * * * * * * * //

dimensions      [1 -1 -2 0 0 0 0];

internalField   nonuniform List<scalar> 
1200
(
1.63056e+06
1.62767e+06
1.62612e+06
1.62562e+06
1.6252e+06
1.62458e+06
1.62402e+06
1.62372e+06
1.62389e+06
1.62378e+06
1.62307e+06
1.62217e+06
1.62126e+06
1.62011e+06
1.61851e+06
1.61601e+06
1.61148e+06
1.60552e+06
1.60021e+06
1.59762e+06
1.6001e+06
1.61145e+06
1.60589e+06
1.59852e+06
1.5919e+06
1.58448e+06
1.57736e+06
1.57242e+06
1.57177e+06
1.57336e+06
1.57404e+06
1.57106e+06
1.56348e+06
1.55223e+06
1.53869e+06
1.52369e+06
1.50624e+06
1.48555e+06
1.4614e+06
1.43485e+06
1.40729e+06
1.3799e+06
1.35339e+06
1.32977e+06
1.31032e+06
1.29474e+06
1.28034e+06
1.26242e+06
1.2362e+06
1.19586e+06
1.13498e+06
1.04995e+06
942569
820068
690413
558201
427198
298802
175774
51733.4
1.62315e+06
1.62389e+06
1.62389e+06
1.62403e+06
1.62407e+06
1.62385e+06
1.62351e+06
1.62325e+06
1.62346e+06
1.62333e+06
1.62273e+06
1.62192e+06
1.62108e+06
1.61998e+06
1.61839e+06
1.61594e+06
1.6113e+06
1.6051e+06
1.59955e+06
1.59659e+06
1.59726e+06
1.60533e+06
1.6047e+06
1.60018e+06
1.59289e+06
1.58482e+06
1.57764e+06
1.57281e+06
1.5726e+06
1.57482e+06
1.57572e+06
1.57265e+06
1.56483e+06
1.55337e+06
1.53978e+06
1.52491e+06
1.50772e+06
1.4872e+06
1.46297e+06
1.43599e+06
1.40767e+06
1.37948e+06
1.35254e+06
1.32881e+06
1.30958e+06
1.29454e+06
1.28096e+06
1.26396e+06
1.23872e+06
1.19915e+06
1.13855e+06
1.05312e+06
944873
821744
691640
559126
428030
299761
176639
52485.3
1.62423e+06
1.62555e+06
1.62568e+06
1.62543e+06
1.62509e+06
1.62455e+06
1.62388e+06
1.62351e+06
1.62359e+06
1.6235e+06
1.62281e+06
1.62188e+06
1.62097e+06
1.61987e+06
1.61839e+06
1.61609e+06
1.61112e+06
1.60459e+06
1.59894e+06
1.59552e+06
1.59481e+06
1.60113e+06
1.60181e+06
1.59884e+06
1.59197e+06
1.58464e+06
1.57778e+06
1.57267e+06
1.57231e+06
1.57421e+06
1.57511e+06
1.57223e+06
1.56449e+06
1.55296e+06
1.53933e+06
1.52457e+06
1.50765e+06
1.48723e+06
1.46283e+06
1.43552e+06
1.40687e+06
1.37854e+06
1.35158e+06
1.32774e+06
1.30855e+06
1.29404e+06
1.28122e+06
1.26492e+06
1.24043e+06
1.20153e+06
1.14135e+06
1.05594e+06
947571
823384
692263
559200
427985
299972
176715
51562.8
1.62403e+06
1.62458e+06
1.62441e+06
1.62408e+06
1.62387e+06
1.62361e+06
1.62312e+06
1.62281e+06
1.62295e+06
1.62291e+06
1.62232e+06
1.62148e+06
1.62067e+06
1.61965e+06
1.61822e+06
1.61625e+06
1.6109e+06
1.60393e+06
1.59818e+06
1.5945e+06
1.59387e+06
1.59904e+06
1.60123e+06
1.60056e+06
1.59561e+06
1.58812e+06
1.58031e+06
1.57447e+06
1.57336e+06
1.57467e+06
1.57496e+06
1.57167e+06
1.56392e+06
1.55264e+06
1.53926e+06
1.5246e+06
1.50781e+06
1.4874e+06
1.46283e+06
1.435e+06
1.40542e+06
1.37598e+06
1.34888e+06
1.32593e+06
1.30796e+06
1.29461e+06
1.28316e+06
1.26815e+06
1.24436e+06
1.20517e+06
1.14371e+06
1.05651e+06
947075
822865
692286
559941
429402
301982
178398
53277.6
1.6239e+06
1.62433e+06
1.6244e+06
1.62423e+06
1.62408e+06
1.62386e+06
1.62333e+06
1.62289e+06
1.62284e+06
1.62276e+06
1.62224e+06
1.62143e+06
1.62065e+06
1.6197e+06
1.61843e+06
1.61727e+06
1.61144e+06
1.60363e+06
1.59736e+06
1.59334e+06
1.59299e+06
1.59759e+06
1.60056e+06
1.6008e+06
1.59681e+06
1.58973e+06
1.5819e+06
1.57623e+06
1.57508e+06
1.57641e+06
1.57683e+06
1.57369e+06
1.56592e+06
1.55425e+06
1.54027e+06
1.52522e+06
1.50845e+06
1.48814e+06
1.46344e+06
1.43516e+06
1.40495e+06
1.37513e+06
1.34842e+06
1.32638e+06
1.30922e+06
1.29555e+06
1.28246e+06
1.26663e+06
1.24383e+06
1.20594e+06
1.1446e+06
1.05621e+06
944667
819221
688835
557591
428462
302308
179109
54133.4
1.62369e+06
1.62406e+06
1.62415e+06
1.62399e+06
1.62385e+06
1.62369e+06
1.62319e+06
1.62272e+06
1.62258e+06
1.62245e+06
1.62195e+06
1.62112e+06
1.62025e+06
1.61919e+06
1.61756e+06
1.61758e+06
1.61136e+06
1.60324e+06
1.59761e+06
1.59471e+06
1.59546e+06
1.60036e+06
1.60367e+06
1.60378e+06
1.59969e+06
1.59226e+06
1.58362e+06
1.57787e+06
1.57733e+06
1.57977e+06
1.58137e+06
1.57913e+06
1.57136e+06
1.5585e+06
1.54286e+06
1.52697e+06
1.51052e+06
1.49075e+06
1.46599e+06
1.437e+06
1.40593e+06
1.37537e+06
1.3483e+06
1.32668e+06
1.3106e+06
1.29774e+06
1.28438e+06
1.26816e+06
1.24551e+06
1.20772e+06
1.14539e+06
1.05526e+06
942264
816230
686283
556212
428399
303108
180107
54962.8
1.62341e+06
1.62375e+06
1.62364e+06
1.62331e+06
1.62308e+06
1.623e+06
1.62256e+06
1.62211e+06
1.62196e+06
1.62184e+06
1.6214e+06
1.6206e+06
1.61961e+06
1.61831e+06
1.61596e+06
1.61828e+06
1.61164e+06
1.60178e+06
1.5945e+06
1.59114e+06
1.59216e+06
1.59797e+06
1.60244e+06
1.6028e+06
1.59845e+06
1.5901e+06
1.58101e+06
1.57634e+06
1.57843e+06
1.58419e+06
1.58882e+06
1.58848e+06
1.58064e+06
1.56547e+06
1.54661e+06
1.52922e+06
1.51327e+06
1.4941e+06
1.46893e+06
1.43885e+06
1.40679e+06
1.37574e+06
1.34851e+06
1.32741e+06
1.31241e+06
1.3006e+06
1.28785e+06
1.27196e+06
1.24918e+06
1.20984e+06
1.14504e+06
1.05304e+06
938582
811435
681748
553127
427225
303435
181201
55857
1.62323e+06
1.62417e+06
1.62435e+06
1.62407e+06
1.62378e+06
1.6236e+06
1.62307e+06
1.62253e+06
1.62221e+06
1.62195e+06
1.62147e+06
1.62065e+06
1.61949e+06
1.6179e+06
1.61403e+06
1.62017e+06
1.61268e+06
1.6018e+06
1.594e+06
1.5886e+06
1.58585e+06
1.58586e+06
1.58853e+06
1.58804e+06
1.58457e+06
1.57961e+06
1.57594e+06
1.57848e+06
1.58799e+06
1.59941e+06
1.6072e+06
1.60712e+06
1.59608e+06
1.5748e+06
1.54987e+06
1.53002e+06
1.51466e+06
1.49621e+06
1.47071e+06
1.4398e+06
1.40706e+06
1.37573e+06
1.34843e+06
1.32842e+06
1.31642e+06
1.30685e+06
1.29363e+06
1.27428e+06
1.24855e+06
1.20785e+06
1.14223e+06
1.04962e+06
935120
808580
679695
551933
427270
304296
182354
57567.1
1.62182e+06
1.62206e+06
1.62235e+06
1.62238e+06
1.62238e+06
1.62253e+06
1.62219e+06
1.62181e+06
1.62164e+06
1.6215e+06
1.62113e+06
1.6204e+06
1.61924e+06
1.61772e+06
1.61428e+06
1.62693e+06
1.61633e+06
1.6011e+06
1.59222e+06
1.58866e+06
1.58692e+06
1.58871e+06
1.59272e+06
1.59123e+06
1.58741e+06
1.58229e+06
1.57864e+06
1.58187e+06
1.59222e+06
1.60378e+06
1.61126e+06
1.61071e+06
1.59891e+06
1.57702e+06
1.55233e+06
1.53378e+06
1.51977e+06
1.5009e+06
1.47391e+06
1.44175e+06
1.40914e+06
1.379e+06
1.35183e+06
1.33004e+06
1.31531e+06
1.30377e+06
1.2912e+06
1.27451e+06
1.25053e+06
1.20993e+06
1.14297e+06
1.04872e+06
932788
805190
676426
549979
426912
304966
183258
58485.5
1.62878e+06
1.62533e+06
1.62406e+06
1.62349e+06
1.62312e+06
1.62301e+06
1.62252e+06
1.62205e+06
1.62181e+06
1.62159e+06
1.62116e+06
1.62039e+06
1.61926e+06
1.61788e+06
1.61467e+06
1.63563e+06
1.61976e+06
1.59971e+06
1.58886e+06
1.58453e+06
1.58265e+06
1.58441e+06
1.58869e+06
1.58779e+06
1.58385e+06
1.57843e+06
1.57423e+06
1.57671e+06
1.58665e+06
1.59816e+06
1.60558e+06
1.60511e+06
1.59394e+06
1.57279e+06
1.54829e+06
1.5289e+06
1.51401e+06
1.49541e+06
1.46965e+06
1.43896e+06
1.40754e+06
1.37799e+06
1.35086e+06
1.32952e+06
1.31572e+06
1.30482e+06
1.29173e+06
1.27352e+06
1.24738e+06
1.20472e+06
1.13741e+06
1.0439e+06
929113
802545
674558
548893
426904
305676
184205
58987.2
1.63094e+06
1.62697e+06
1.62571e+06
1.62521e+06
1.6249e+06
1.62488e+06
1.62477e+06
1.62433e+06
1.62351e+06
1.62288e+06
1.62242e+06
1.62192e+06
1.62117e+06
1.62015e+06
1.61878e+06
1.61659e+06
1.61233e+06
1.60645e+06
1.60069e+06
1.59733e+06
1.59951e+06
1.61047e+06
1.60437e+06
1.5964e+06
1.58976e+06
1.58376e+06
1.57789e+06
1.57359e+06
1.57237e+06
1.57322e+06
1.57349e+06
1.57044e+06
1.56299e+06
1.55193e+06
1.53863e+06
1.52369e+06
1.5065e+06
1.48604e+06
1.462e+06
1.43531e+06
1.40741e+06
1.3795e+06
1.35282e+06
1.32924e+06
1.30982e+06
1.2941e+06
1.27933e+06
1.26124e+06
1.23511e+06
1.19475e+06
1.1339e+06
1.04904e+06
941993
819949
690563
558636
427767
299586
176130
52485.7
1.62328e+06
1.62349e+06
1.62368e+06
1.62378e+06
1.62386e+06
1.62406e+06
1.62415e+06
1.62377e+06
1.62307e+06
1.62246e+06
1.62207e+06
1.62163e+06
1.62094e+06
1.61996e+06
1.61863e+06
1.61652e+06
1.61214e+06
1.60609e+06
1.60019e+06
1.59654e+06
1.59709e+06
1.60514e+06
1.60389e+06
1.59806e+06
1.59013e+06
1.58319e+06
1.57725e+06
1.57311e+06
1.57239e+06
1.574e+06
1.57462e+06
1.57153e+06
1.56383e+06
1.55254e+06
1.53916e+06
1.52434e+06
1.50743e+06
1.48716e+06
1.46301e+06
1.43591e+06
1.4073e+06
1.37863e+06
1.3515e+06
1.3278e+06
1.30857e+06
1.29337e+06
1.27939e+06
1.2622e+06
1.23705e+06
1.19741e+06
1.1368e+06
1.05154e+06
943647
820988
691170
558987
428071
300062
176565
52792.4
1.62443e+06
1.62517e+06
1.62535e+06
1.62514e+06
1.62489e+06
1.62465e+06
1.62448e+06
1.62411e+06
1.62332e+06
1.62275e+06
1.62232e+06
1.62182e+06
1.62107e+06
1.62012e+06
1.61887e+06
1.6169e+06
1.61221e+06
1.60576e+06
1.59973e+06
1.59568e+06
1.59495e+06
1.60145e+06
1.60191e+06
1.59809e+06
1.59068e+06
1.58416e+06
1.57823e+06
1.57352e+06
1.57246e+06
1.57369e+06
1.57431e+06
1.57138e+06
1.56378e+06
1.55241e+06
1.53893e+06
1.5242e+06
1.5075e+06
1.48729e+06
1.46293e+06
1.4355e+06
1.4066e+06
1.37785e+06
1.35078e+06
1.32704e+06
1.30785e+06
1.29313e+06
1.27991e+06
1.26345e+06
1.23905e+06
1.20008e+06
1.13986e+06
1.05457e+06
946521
822824
691991
559258
428213
300446
176768
52253.8
1.62417e+06
1.6244e+06
1.62432e+06
1.62408e+06
1.62389e+06
1.62369e+06
1.62361e+06
1.62336e+06
1.62279e+06
1.62231e+06
1.62196e+06
1.62153e+06
1.62084e+06
1.61993e+06
1.61874e+06
1.61704e+06
1.61198e+06
1.6053e+06
1.59932e+06
1.59501e+06
1.59429e+06
1.5995e+06
1.60137e+06
1.59984e+06
1.59438e+06
1.58769e+06
1.58084e+06
1.5754e+06
1.57368e+06
1.57448e+06
1.57454e+06
1.57115e+06
1.56345e+06
1.55229e+06
1.53903e+06
1.52441e+06
1.50784e+06
1.48766e+06
1.46308e+06
1.43514e+06
1.4053e+06
1.37538e+06
1.34807e+06
1.32516e+06
1.30715e+06
1.29355e+06
1.28167e+06
1.26661e+06
1.24305e+06
1.20384e+06
1.14233e+06
1.0552e+06
946006
822212
691869
559828
429430
302242
178254
53848
1.62404e+06
1.62431e+06
1.62439e+06
1.62428e+06
1.6241e+06
1.6238e+06
1.62372e+06
1.62349e+06
1.62286e+06
1.62232e+06
1.62194e+06
1.6215e+06
1.62086e+06
1.62008e+06
1.61914e+06
1.61834e+06
1.61283e+06
1.60525e+06
1.5986e+06
1.59381e+06
1.59333e+06
1.59793e+06
1.60059e+06
1.60005e+06
1.59552e+06
1.58904e+06
1.58205e+06
1.57667e+06
1.57496e+06
1.57597e+06
1.57633e+06
1.57315e+06
1.56544e+06
1.5539e+06
1.54004e+06
1.52504e+06
1.50847e+06
1.48839e+06
1.46369e+06
1.43532e+06
1.40486e+06
1.37453e+06
1.34758e+06
1.32558e+06
1.30842e+06
1.2946e+06
1.28119e+06
1.26522e+06
1.24247e+06
1.2045e+06
1.14313e+06
1.05488e+06
943700
818748
688582
557584
428504
302518
178871
54693
1.62384e+06
1.62416e+06
1.62425e+06
1.62417e+06
1.62402e+06
1.62367e+06
1.62358e+06
1.62339e+06
1.62282e+06
1.62227e+06
1.62182e+06
1.62131e+06
1.62065e+06
1.61985e+06
1.61863e+06
1.61911e+06
1.61337e+06
1.60567e+06
1.59957e+06
1.59555e+06
1.59584e+06
1.60057e+06
1.60358e+06
1.60304e+06
1.59842e+06
1.59133e+06
1.5833e+06
1.57774e+06
1.5767e+06
1.57901e+06
1.58077e+06
1.57859e+06
1.57089e+06
1.55817e+06
1.54263e+06
1.52678e+06
1.5105e+06
1.49093e+06
1.46616e+06
1.43707e+06
1.40578e+06
1.37465e+06
1.34731e+06
1.32575e+06
1.30967e+06
1.29669e+06
1.28312e+06
1.26683e+06
1.24426e+06
1.20635e+06
1.14397e+06
1.05386e+06
941077
815473
685745
555958
428183
303102
179672
55466.2
1.62357e+06
1.62391e+06
1.62372e+06
1.62345e+06
1.62322e+06
1.62289e+06
1.62282e+06
1.62268e+06
1.62225e+06
1.62181e+06
1.62141e+06
1.6209e+06
1.62021e+06
1.61932e+06
1.61755e+06
1.62045e+06
1.61438e+06
1.60488e+06
1.59695e+06
1.59223e+06
1.59258e+06
1.5982e+06
1.60236e+06
1.6021e+06
1.59712e+06
1.58872e+06
1.57995e+06
1.57533e+06
1.57705e+06
1.58293e+06
1.588e+06
1.58785e+06
1.5801e+06
1.56506e+06
1.54628e+06
1.52892e+06
1.5131e+06
1.49408e+06
1.46887e+06
1.43871e+06
1.40647e+06
1.37482e+06
1.34732e+06
1.32631e+06
1.31129e+06
1.29935e+06
1.2864e+06
1.27049e+06
1.24781e+06
1.20833e+06
1.14347e+06
1.05159e+06
937527
810940
681426
552975
426934
303248
180520
56221.5
1.62339e+06
1.62456e+06
1.62461e+06
1.62444e+06
1.62417e+06
1.62358e+06
1.6234e+06
1.62316e+06
1.62257e+06
1.62197e+06
1.6214e+06
1.62072e+06
1.61981e+06
1.61858e+06
1.61531e+06
1.62255e+06
1.61663e+06
1.60723e+06
1.59941e+06
1.59254e+06
1.58812e+06
1.58687e+06
1.58861e+06
1.58732e+06
1.58316e+06
1.57801e+06
1.57462e+06
1.57722e+06
1.58649e+06
1.5982e+06
1.60658e+06
1.60672e+06
1.59567e+06
1.57438e+06
1.54951e+06
1.52981e+06
1.51465e+06
1.49637e+06
1.47081e+06
1.43977e+06
1.40679e+06
1.37477e+06
1.34718e+06
1.32721e+06
1.31511e+06
1.30553e+06
1.29246e+06
1.27336e+06
1.24774e+06
1.20685e+06
1.14101e+06
1.04822e+06
933800
807697
679055
551553
426722
303837
181434
57574.9
1.6219e+06
1.6223e+06
1.62239e+06
1.62256e+06
1.62261e+06
1.62237e+06
1.62238e+06
1.62224e+06
1.62181e+06
1.62135e+06
1.62085e+06
1.62016e+06
1.61919e+06
1.61791e+06
1.61484e+06
1.62809e+06
1.61859e+06
1.60429e+06
1.59503e+06
1.59051e+06
1.58845e+06
1.58999e+06
1.59356e+06
1.59145e+06
1.58683e+06
1.58115e+06
1.57744e+06
1.58046e+06
1.59045e+06
1.6023e+06
1.61042e+06
1.61013e+06
1.59842e+06
1.5766e+06
1.55187e+06
1.53329e+06
1.5194e+06
1.50077e+06
1.47385e+06
1.44167e+06
1.40892e+06
1.3781e+06
1.35071e+06
1.32908e+06
1.31427e+06
1.30244e+06
1.28959e+06
1.27279e+06
1.24873e+06
1.20791e+06
1.14101e+06
1.04697e+06
931439
804425
675819
549481
426059
304077
181891
58213.3
1.62888e+06
1.62579e+06
1.62413e+06
1.6237e+06
1.62338e+06
1.62279e+06
1.62263e+06
1.62237e+06
1.62183e+06
1.62127e+06
1.6207e+06
1.61999e+06
1.61905e+06
1.61787e+06
1.61484e+06
1.63579e+06
1.62079e+06
1.60219e+06
1.59159e+06
1.58646e+06
1.58377e+06
1.5848e+06
1.58832e+06
1.58683e+06
1.58225e+06
1.57642e+06
1.57236e+06
1.57477e+06
1.58446e+06
1.59629e+06
1.60445e+06
1.60442e+06
1.59336e+06
1.57227e+06
1.54781e+06
1.52842e+06
1.51354e+06
1.49505e+06
1.46933e+06
1.43866e+06
1.40721e+06
1.37704e+06
1.3497e+06
1.32849e+06
1.31469e+06
1.30375e+06
1.2908e+06
1.27293e+06
1.24696e+06
1.20399e+06
1.13634e+06
1.04263e+06
927962
801900
674099
548569
426186
304909
182991
58809.8
)
;

boundaryField
{
    wall
    {
        type            calculated;
        value           nonuniform List<scalar> 
1200
(
1.63036e+06
1.62308e+06
1.62413e+06
1.62396e+06
1.62383e+06
1.62361e+06
1.62334e+06
1.62314e+06
1.62178e+06
1.62874e+06
1.62803e+06
1.62408e+06
1.62574e+06
1.62467e+06
1.62434e+06
1.62401e+06
1.62366e+06
1.62398e+06
1.62195e+06
1.6251e+06
1.62632e+06
1.624e+06
1.62585e+06
1.62446e+06
1.6244e+06
1.6241e+06
1.6236e+06
1.62422e+06
1.62233e+06
1.62402e+06
1.62583e+06
1.62416e+06
1.62557e+06
1.62409e+06
1.62421e+06
1.6239e+06
1.62323e+06
1.62388e+06
1.62229e+06
1.62338e+06
1.62536e+06
1.62418e+06
1.62519e+06
1.62386e+06
1.62406e+06
1.62376e+06
1.62301e+06
1.62358e+06
1.62227e+06
1.62299e+06
1.62444e+06
1.62374e+06
1.6245e+06
1.62358e+06
1.6239e+06
1.62371e+06
1.62306e+06
1.6236e+06
1.62262e+06
1.62312e+06
1.62365e+06
1.62319e+06
1.62359e+06
1.62288e+06
1.62314e+06
1.623e+06
1.62243e+06
1.6229e+06
1.6221e+06
1.62246e+06
1.62341e+06
1.62298e+06
1.62321e+06
1.62253e+06
1.62259e+06
1.62237e+06
1.62182e+06
1.62221e+06
1.62159e+06
1.6219e+06
1.62409e+06
1.62365e+06
1.62373e+06
1.62303e+06
1.62283e+06
1.62246e+06
1.62181e+06
1.62203e+06
1.62155e+06
1.6218e+06
1.62423e+06
1.62377e+06
1.62387e+06
1.62321e+06
1.62298e+06
1.62254e+06
1.62184e+06
1.62194e+06
1.62157e+06
1.62175e+06
1.6234e+06
1.62306e+06
1.62305e+06
1.6225e+06
1.62239e+06
1.62201e+06
1.62139e+06
1.62149e+06
1.62127e+06
1.62139e+06
1.6223e+06
1.62207e+06
1.6219e+06
1.62146e+06
1.6214e+06
1.62102e+06
1.62045e+06
1.6206e+06
1.62052e+06
1.62059e+06
1.6213e+06
1.62117e+06
1.62092e+06
1.62059e+06
1.62055e+06
1.62004e+06
1.6193e+06
1.61931e+06
1.61927e+06
1.61936e+06
1.62009e+06
1.61999e+06
1.61975e+06
1.61951e+06
1.61951e+06
1.61886e+06
1.61778e+06
1.61754e+06
1.61762e+06
1.61788e+06
1.61839e+06
1.61828e+06
1.61815e+06
1.61797e+06
1.61809e+06
1.61703e+06
1.61513e+06
1.61332e+06
1.61398e+06
1.61463e+06
1.61573e+06
1.61566e+06
1.61568e+06
1.61585e+06
1.61674e+06
1.61681e+06
1.61717e+06
1.61888e+06
1.62636e+06
1.63557e+06
1.61106e+06
1.61089e+06
1.61057e+06
1.61036e+06
1.61075e+06
1.61034e+06
1.61026e+06
1.61063e+06
1.61519e+06
1.61917e+06
1.60506e+06
1.60461e+06
1.604e+06
1.60325e+06
1.60282e+06
1.60203e+06
1.60022e+06
1.59899e+06
1.59951e+06
1.59842e+06
1.59997e+06
1.59922e+06
1.59853e+06
1.5976e+06
1.59675e+06
1.59668e+06
1.59327e+06
1.59115e+06
1.59082e+06
1.58751e+06
1.59778e+06
1.5966e+06
1.59543e+06
1.59424e+06
1.5931e+06
1.59436e+06
1.59061e+06
1.58645e+06
1.58775e+06
1.58361e+06
1.60046e+06
1.59733e+06
1.5947e+06
1.59365e+06
1.59282e+06
1.59536e+06
1.59197e+06
1.58453e+06
1.58617e+06
1.58217e+06
1.61196e+06
1.60543e+06
1.60093e+06
1.5988e+06
1.59743e+06
1.60035e+06
1.59791e+06
1.58515e+06
1.58805e+06
1.58428e+06
1.60657e+06
1.60511e+06
1.60178e+06
1.60116e+06
1.60054e+06
1.6038e+06
1.60253e+06
1.58832e+06
1.59223e+06
1.58889e+06
1.59948e+06
1.60124e+06
1.59924e+06
1.60093e+06
1.60118e+06
1.60423e+06
1.6032e+06
1.58827e+06
1.59104e+06
1.58828e+06
1.5929e+06
1.59427e+06
1.59263e+06
1.59622e+06
1.59746e+06
1.60039e+06
1.59915e+06
1.58519e+06
1.58765e+06
1.58464e+06
1.58481e+06
1.58563e+06
1.58488e+06
1.58833e+06
1.59009e+06
1.59278e+06
1.59079e+06
1.58039e+06
1.58285e+06
1.57941e+06
1.57708e+06
1.57783e+06
1.57754e+06
1.58003e+06
1.58184e+06
1.58379e+06
1.58149e+06
1.57665e+06
1.57924e+06
1.57515e+06
1.57183e+06
1.57263e+06
1.57224e+06
1.57396e+06
1.57599e+06
1.57792e+06
1.57678e+06
1.57923e+06
1.5826e+06
1.57768e+06
1.57147e+06
1.57268e+06
1.57223e+06
1.57316e+06
1.57511e+06
1.57762e+06
1.57907e+06
1.58893e+06
1.59315e+06
1.58775e+06
1.57344e+06
1.5752e+06
1.57444e+06
1.57473e+06
1.57659e+06
1.58011e+06
1.58478e+06
1.60026e+06
1.60457e+06
1.59913e+06
1.57432e+06
1.57624e+06
1.57546e+06
1.57513e+06
1.57703e+06
1.58162e+06
1.58922e+06
1.60776e+06
1.61172e+06
1.60622e+06
1.57138e+06
1.5732e+06
1.57259e+06
1.5719e+06
1.57392e+06
1.57936e+06
1.5888e+06
1.60755e+06
1.61102e+06
1.60557e+06
1.56373e+06
1.56532e+06
1.56481e+06
1.56414e+06
1.56614e+06
1.57157e+06
1.58094e+06
1.59646e+06
1.59915e+06
1.59433e+06
1.55239e+06
1.55378e+06
1.55321e+06
1.5528e+06
1.55441e+06
1.55865e+06
1.5657e+06
1.57508e+06
1.5772e+06
1.57312e+06
1.53872e+06
1.54008e+06
1.53951e+06
1.53937e+06
1.54038e+06
1.54297e+06
1.5468e+06
1.55005e+06
1.5525e+06
1.54858e+06
1.5237e+06
1.52518e+06
1.52475e+06
1.52469e+06
1.5253e+06
1.52706e+06
1.52937e+06
1.53014e+06
1.53396e+06
1.52917e+06
1.50612e+06
1.50785e+06
1.50771e+06
1.50778e+06
1.50842e+06
1.51053e+06
1.51337e+06
1.51473e+06
1.51992e+06
1.51427e+06
1.48531e+06
1.48721e+06
1.48716e+06
1.48726e+06
1.488e+06
1.49066e+06
1.49413e+06
1.49621e+06
1.50097e+06
1.4956e+06
1.46111e+06
1.46293e+06
1.46274e+06
1.46268e+06
1.46329e+06
1.46591e+06
1.46897e+06
1.47074e+06
1.47399e+06
1.4698e+06
1.43463e+06
1.43602e+06
1.43549e+06
1.43491e+06
1.43506e+06
1.43696e+06
1.43893e+06
1.43989e+06
1.44184e+06
1.43911e+06
1.40723e+06
1.40786e+06
1.40698e+06
1.40548e+06
1.40498e+06
1.40601e+06
1.40695e+06
1.40724e+06
1.40929e+06
1.40769e+06
1.3801e+06
1.37992e+06
1.37887e+06
1.37627e+06
1.37542e+06
1.37572e+06
1.37619e+06
1.37624e+06
1.37949e+06
1.37847e+06
1.35368e+06
1.35308e+06
1.352e+06
1.34929e+06
1.34883e+06
1.34879e+06
1.3491e+06
1.34905e+06
1.35243e+06
1.35146e+06
1.33003e+06
1.32932e+06
1.32813e+06
1.32631e+06
1.32677e+06
1.32714e+06
1.32796e+06
1.32898e+06
1.33056e+06
1.33005e+06
1.31057e+06
1.31008e+06
1.30894e+06
1.30835e+06
1.30961e+06
1.31107e+06
1.31296e+06
1.31698e+06
1.31589e+06
1.31622e+06
1.29506e+06
1.29512e+06
1.29451e+06
1.29509e+06
1.29601e+06
1.29826e+06
1.30121e+06
1.30742e+06
1.30449e+06
1.30533e+06
1.28085e+06
1.28173e+06
1.28188e+06
1.28381e+06
1.28308e+06
1.285e+06
1.28854e+06
1.29417e+06
1.29203e+06
1.29218e+06
1.26301e+06
1.26482e+06
1.26565e+06
1.26882e+06
1.26729e+06
1.2688e+06
1.27265e+06
1.27473e+06
1.27537e+06
1.27381e+06
1.23674e+06
1.23954e+06
1.2411e+06
1.24494e+06
1.24444e+06
1.24609e+06
1.24983e+06
1.24893e+06
1.25141e+06
1.24759e+06
1.19641e+06
1.2e+06
1.20223e+06
1.20579e+06
1.20659e+06
1.20833e+06
1.21055e+06
1.20832e+06
1.21088e+06
1.20508e+06
1.13552e+06
1.13941e+06
1.14205e+06
1.14436e+06
1.14526e+06
1.14605e+06
1.14577e+06
1.14281e+06
1.14389e+06
1.13793e+06
1.05039e+06
1.0539e+06
1.05658e+06
1.05714e+06
1.05681e+06
1.05592e+06
1.0537e+06
1.0503e+06
1.04954e+06
1.04453e+06
942853
945480
948060
947591
945099
942824
939061
935763
933429
929690
820127
822119
823641
823169
819426
816578
811657
809004
805562
802875
690342
691873
692385
692474
688945
686528
681901
679998
676730
674797
557989
559194
559162
559980
557588
556325
553205
552118
550235
549065
426920
428008
427865
429374
428439
428502
427378
427548
427349
427268
298419
299612
299733
301841
302201
303111
303536
304533
305422
306062
175595
176669
176683
178460
179226
180328
181550
182824
183954
184811
51376
52341.9
51239.9
52997.1
53860.5
54720
55687.1
57571.1
58627.4
59079.6
1.63114e+06
1.62334e+06
1.62453e+06
1.62424e+06
1.62411e+06
1.62392e+06
1.62365e+06
1.62348e+06
1.62193e+06
1.62892e+06
1.62661e+06
1.6233e+06
1.62497e+06
1.62432e+06
1.62429e+06
1.62421e+06
1.624e+06
1.62476e+06
1.62242e+06
1.62602e+06
1.62551e+06
1.62357e+06
1.62518e+06
1.62427e+06
1.62438e+06
1.6243e+06
1.62376e+06
1.62475e+06
1.6224e+06
1.62416e+06
1.625e+06
1.62366e+06
1.625e+06
1.62408e+06
1.6243e+06
1.62426e+06
1.62352e+06
1.62463e+06
1.62265e+06
1.62381e+06
1.62474e+06
1.62376e+06
1.62479e+06
1.6239e+06
1.62412e+06
1.62411e+06
1.6233e+06
1.62437e+06
1.62272e+06
1.6235e+06
1.62502e+06
1.62417e+06
1.6247e+06
1.62373e+06
1.62376e+06
1.62366e+06
1.62284e+06
1.62357e+06
1.62229e+06
1.62268e+06
1.62514e+06
1.62446e+06
1.62478e+06
1.62386e+06
1.62391e+06
1.62378e+06
1.62296e+06
1.62357e+06
1.62247e+06
1.62269e+06
1.62464e+06
1.62403e+06
1.62441e+06
1.62364e+06
1.62379e+06
1.62373e+06
1.62297e+06
1.62347e+06
1.62245e+06
1.62253e+06
1.62332e+06
1.62287e+06
1.62318e+06
1.62271e+06
1.62287e+06
1.62294e+06
1.62239e+06
1.62275e+06
1.6219e+06
1.62184e+06
1.62243e+06
1.62202e+06
1.62237e+06
1.62201e+06
1.6221e+06
1.62218e+06
1.6218e+06
1.62199e+06
1.62128e+06
1.62111e+06
1.62209e+06
1.62173e+06
1.62208e+06
1.62178e+06
1.62179e+06
1.62176e+06
1.62141e+06
1.62138e+06
1.62071e+06
1.62047e+06
1.62179e+06
1.62148e+06
1.62179e+06
1.62155e+06
1.62153e+06
1.62141e+06
1.62105e+06
1.62076e+06
1.62004e+06
1.61979e+06
1.62112e+06
1.62085e+06
1.62113e+06
1.62092e+06
1.62097e+06
1.62085e+06
1.62052e+06
1.61997e+06
1.61916e+06
1.61895e+06
1.62016e+06
1.61994e+06
1.62024e+06
1.62007e+06
1.62027e+06
1.62017e+06
1.61984e+06
1.61893e+06
1.61801e+06
1.61786e+06
1.61891e+06
1.61874e+06
1.61911e+06
1.619e+06
1.61948e+06
1.61916e+06
1.61836e+06
1.61602e+06
1.61514e+06
1.61488e+06
1.61688e+06
1.6168e+06
1.61731e+06
1.61744e+06
1.61886e+06
1.61987e+06
1.62155e+06
1.62384e+06
1.62866e+06
1.63585e+06
1.61275e+06
1.61255e+06
1.61276e+06
1.61252e+06
1.61352e+06
1.61438e+06
1.61575e+06
1.6187e+06
1.6197e+06
1.62138e+06
1.60692e+06
1.60658e+06
1.60636e+06
1.60598e+06
1.60606e+06
1.60687e+06
1.60642e+06
1.61003e+06
1.60587e+06
1.60348e+06
1.60093e+06
1.60052e+06
1.60014e+06
1.5999e+06
1.59922e+06
1.60051e+06
1.59816e+06
1.60218e+06
1.59642e+06
1.59295e+06
1.59717e+06
1.59652e+06
1.59578e+06
1.59528e+06
1.59407e+06
1.59593e+06
1.59276e+06
1.59455e+06
1.59142e+06
1.58737e+06
1.59916e+06
1.59702e+06
1.59507e+06
1.59453e+06
1.59352e+06
1.59599e+06
1.5928e+06
1.58935e+06
1.58919e+06
1.58425e+06
1.60995e+06
1.60504e+06
1.60167e+06
1.59976e+06
1.59812e+06
1.60061e+06
1.59829e+06
1.58755e+06
1.59065e+06
1.58493e+06
1.60368e+06
1.60348e+06
1.60198e+06
1.60147e+06
1.60062e+06
1.60347e+06
1.60228e+06
1.58883e+06
1.59398e+06
1.58812e+06
1.59544e+06
1.597e+06
1.59771e+06
1.59949e+06
1.59967e+06
1.6026e+06
1.6017e+06
1.58713e+06
1.59151e+06
1.58634e+06
1.58876e+06
1.58876e+06
1.59002e+06
1.59378e+06
1.59487e+06
1.59773e+06
1.59642e+06
1.58259e+06
1.58648e+06
1.58146e+06
1.58344e+06
1.58237e+06
1.58393e+06
1.58748e+06
1.58868e+06
1.59081e+06
1.58803e+06
1.57729e+06
1.58052e+06
1.57544e+06
1.57817e+06
1.57706e+06
1.57846e+06
1.58112e+06
1.5821e+06
1.58312e+06
1.57948e+06
1.57397e+06
1.57679e+06
1.57144e+06
1.57418e+06
1.57329e+06
1.57395e+06
1.5759e+06
1.57689e+06
1.57768e+06
1.57491e+06
1.57652e+06
1.5797e+06
1.5738e+06
1.57267e+06
1.57232e+06
1.57254e+06
1.57386e+06
1.57491e+06
1.57641e+06
1.57643e+06
1.5856e+06
1.58949e+06
1.58336e+06
1.57314e+06
1.57362e+06
1.57347e+06
1.57439e+06
1.57577e+06
1.57867e+06
1.58236e+06
1.59739e+06
1.60149e+06
1.59532e+06
1.57321e+06
1.5741e+06
1.57396e+06
1.57434e+06
1.57612e+06
1.58052e+06
1.58762e+06
1.60605e+06
1.60993e+06
1.60381e+06
1.57012e+06
1.57098e+06
1.57101e+06
1.5709e+06
1.57291e+06
1.57836e+06
1.58755e+06
1.60632e+06
1.60981e+06
1.60396e+06
1.56274e+06
1.56334e+06
1.56346e+06
1.56323e+06
1.56521e+06
1.57068e+06
1.57982e+06
1.59532e+06
1.59817e+06
1.59297e+06
1.55177e+06
1.55213e+06
1.55216e+06
1.55212e+06
1.55374e+06
1.55802e+06
1.56484e+06
1.57412e+06
1.57642e+06
1.57194e+06
1.5386e+06
1.53886e+06
1.53874e+06
1.53891e+06
1.53992e+06
1.54251e+06
1.5461e+06
1.54934e+06
1.5517e+06
1.54752e+06
1.52368e+06
1.52407e+06
1.52402e+06
1.52431e+06
1.52495e+06
1.52669e+06
1.52878e+06
1.5297e+06
1.53311e+06
1.52814e+06
1.50662e+06
1.50729e+06
1.50745e+06
1.50787e+06
1.50849e+06
1.51049e+06
1.513e+06
1.51459e+06
1.51925e+06
1.51328e+06
1.48628e+06
1.48715e+06
1.48736e+06
1.4878e+06
1.48853e+06
1.49102e+06
1.49405e+06
1.49636e+06
1.50069e+06
1.49486e+06
1.4623e+06
1.46305e+06
1.46302e+06
1.46323e+06
1.46383e+06
1.46624e+06
1.46883e+06
1.47077e+06
1.47378e+06
1.46918e+06
1.43554e+06
1.43589e+06
1.43553e+06
1.43523e+06
1.4354e+06
1.4371e+06
1.43864e+06
1.43969e+06
1.44158e+06
1.43852e+06
1.40747e+06
1.40712e+06
1.40649e+06
1.40525e+06
1.40482e+06
1.40569e+06
1.40631e+06
1.40663e+06
1.40878e+06
1.40706e+06
1.3793e+06
1.3782e+06
1.37752e+06
1.37508e+06
1.37424e+06
1.3743e+06
1.37437e+06
1.37428e+06
1.37761e+06
1.37656e+06
1.35254e+06
1.35097e+06
1.35036e+06
1.34766e+06
1.34716e+06
1.34681e+06
1.34674e+06
1.34658e+06
1.3501e+06
1.34911e+06
1.32898e+06
1.32729e+06
1.32665e+06
1.32477e+06
1.32519e+06
1.32529e+06
1.32578e+06
1.32665e+06
1.32855e+06
1.32797e+06
1.30957e+06
1.30807e+06
1.30746e+06
1.30676e+06
1.30803e+06
1.30921e+06
1.31075e+06
1.31454e+06
1.31369e+06
1.31419e+06
1.29378e+06
1.29279e+06
1.29266e+06
1.29307e+06
1.29414e+06
1.29618e+06
1.29874e+06
1.30496e+06
1.30172e+06
1.30323e+06
1.27883e+06
1.27861e+06
1.27925e+06
1.28101e+06
1.28057e+06
1.2825e+06
1.28571e+06
1.29192e+06
1.28876e+06
1.29035e+06
1.26064e+06
1.26134e+06
1.26272e+06
1.26594e+06
1.26455e+06
1.2662e+06
1.26979e+06
1.27291e+06
1.27193e+06
1.27264e+06
1.23457e+06
1.23623e+06
1.23838e+06
1.24248e+06
1.24186e+06
1.24368e+06
1.24716e+06
1.24736e+06
1.24785e+06
1.24675e+06
1.1942e+06
1.19656e+06
1.19938e+06
1.20323e+06
1.20385e+06
1.20573e+06
1.20761e+06
1.20638e+06
1.20696e+06
1.20363e+06
1.13336e+06
1.13594e+06
1.13915e+06
1.14167e+06
1.14247e+06
1.14332e+06
1.14274e+06
1.14042e+06
1.1401e+06
1.13582e+06
1.0486e+06
1.05077e+06
1.05392e+06
1.05456e+06
1.05427e+06
1.0532e+06
1.05092e+06
1.04754e+06
1.04615e+06
1.042e+06
941710
943040
946031
945491
943267
940517
937047
933158
930799
927387
819889
820614
822567
821907
818543
815125
810718
807273
804054
801571
690634
690937
691869
691681
688472
685500
681273
678752
675516
673861
558848
558919
559296
559790
557588
555845
552897
551369
549226
548398
428045
428094
428333
429458
428527
428079
426781
426444
425622
425822
299970
300212
300685
302383
302625
303099
303147
303601
303621
304524
176309
176536
176800
178193
178754
179450
180171
180964
181195
182386
52843.3
52936.2
52577.1
54128.7
54965.9
55709.1
56391.4
57570.7
58071.8
58717.6
)
;
    }
    inlet
    {
        type            calculated;
        value           nonuniform List<scalar> 
20
(
1.63056e+06
1.62315e+06
1.62423e+06
1.62403e+06
1.6239e+06
1.62369e+06
1.62341e+06
1.62323e+06
1.62182e+06
1.62878e+06
1.63094e+06
1.62328e+06
1.62443e+06
1.62417e+06
1.62404e+06
1.62384e+06
1.62357e+06
1.62339e+06
1.6219e+06
1.62888e+06
)
;
    }
    outlet
    {
        type            calculated;
        value           nonuniform List<scalar> 
20
(
-97.8237
-293.383
-488.254
-683.294
-878.76
-1074.54
-1270.82
-1467.5
-1663.2
-1857.89
-97.824
-293.377
-488.242
-683.288
-878.758
-1074.54
-1270.79
-1467.48
-1663.2
-1857.9
)
;
    }
    heatWall
    {
        type            calculated;
        value           nonuniform List<scalar> 
240
(
1.62869e+06
1.62878e+06
1.62523e+06
1.62569e+06
1.62396e+06
1.62403e+06
1.62339e+06
1.6236e+06
1.62302e+06
1.62328e+06
1.62291e+06
1.62269e+06
1.62242e+06
1.62254e+06
1.62196e+06
1.62227e+06
1.62171e+06
1.62173e+06
1.62149e+06
1.62118e+06
1.62106e+06
1.6206e+06
1.62029e+06
1.61989e+06
1.61916e+06
1.61896e+06
1.61778e+06
1.61777e+06
1.61457e+06
1.61474e+06
1.63553e+06
1.63569e+06
1.61966e+06
1.6207e+06
1.59962e+06
1.6021e+06
1.58877e+06
1.59149e+06
1.58443e+06
1.58636e+06
1.58256e+06
1.58367e+06
1.58431e+06
1.5847e+06
1.58859e+06
1.58822e+06
1.5877e+06
1.58673e+06
1.58375e+06
1.58215e+06
1.57833e+06
1.57632e+06
1.57413e+06
1.57226e+06
1.57662e+06
1.57467e+06
1.58655e+06
1.58436e+06
1.59806e+06
1.5962e+06
1.60548e+06
1.60435e+06
1.60501e+06
1.60432e+06
1.59385e+06
1.59326e+06
1.57269e+06
1.57217e+06
1.54819e+06
1.54771e+06
1.5288e+06
1.52832e+06
1.51391e+06
1.51344e+06
1.49531e+06
1.49495e+06
1.46955e+06
1.46923e+06
1.43887e+06
1.43856e+06
1.40744e+06
1.40712e+06
1.37789e+06
1.37694e+06
1.35076e+06
1.3496e+06
1.32943e+06
1.32839e+06
1.31562e+06
1.31459e+06
1.30472e+06
1.30365e+06
1.29163e+06
1.2907e+06
1.27342e+06
1.27283e+06
1.24728e+06
1.24686e+06
1.20462e+06
1.20389e+06
1.13731e+06
1.13625e+06
1.0438e+06
1.04253e+06
929015
927865
802447
801802
674460
674001
548795
548471
426806
426088
305578
304811
184107
182894
58889.4
58712
1.63065e+06
1.63104e+06
1.62777e+06
1.62707e+06
1.62622e+06
1.62581e+06