/*--------------------------------*- C++ -*----------------------------------*\
  =========                 |
  \\      /  F ield         | OpenFOAM: The Open Source CFD Toolbox
   \\    /   O peration     | Website:  https://openfoam.org
    \\  /    A nd           | Version:  8
     \\/     M anipulation  |
\*---------------------------------------------------------------------------*/
FoamFile
{
    version     2.0;
    format      ascii;
    class       volScalarField;
    location    "500";
    object      T;
}
// * * * * * * * * * * * * * * * * * * * * * * * * * * * * * * * * * * * * * //

dimensions      [0 0 0 1 0 0 0];

internalField   nonuniform List<scalar> 
1200
(
303.15
303.15
303.151
303.146
303.141
303.137
303.133
303.129
303.125
303.122
303.118
303.115
303.112
303.109
303.106
303.103
303.101
303.099
303.098
303.09
302.19
299.831
298.44
297.972
297.949
298.097
298.28
298.447
298.593
298.715
298.802
298.851
298.861
298.832
298.764
298.658
298.515
298.347
298.164
297.978
297.791
297.606
297.427
297.26
297.102
296.957
296.824
296.7
296.572
296.421
296.23
295.989
295.706
295.408
295.147
294.978
294.919
294.946
295.021
295.107
303.15
303.15
303.15
303.15
303.15
303.15
303.15
303.149
303.149
303.149
303.149
303.149
303.148
303.148
303.148
303.147
303.147
303.147
303.147
303.146
303.018
302.212
301.143
300.543
300.481
300.682
300.941
301.172
301.355
301.493
301.6
301.687
301.757
301.813
301.853
301.875
301.872
301.835
301.758
301.638
301.475
301.272
301.05
300.844
300.695
300.628
300.639
300.703
300.779
300.831
300.835
300.767
300.591
300.247
299.696
298.96
298.129
297.328
296.641
296.125
303.15
303.15
303.15
303.15
303.15
303.15
303.15
303.15
303.15
303.15
303.15
303.15
303.15
303.149
303.149
303.148
303.148
303.148
303.148
303.14
303.087
302.871
302.525
302.192
301.965
301.862
301.843
301.868
301.914
301.97
302.031
302.096
302.16
302.219
302.27
302.316
302.357
302.392
302.422
302.447
302.469
302.492
302.516
302.54
302.564
302.588
302.61
302.625
302.625
302.608
302.582
302.552
302.504
302.435
302.339
302.2
302.001
301.739
301.401
300.99
303.15
303.15
303.15
303.15
303.15
303.15
303.15
303.15
303.15
303.15
303.15
303.15
303.15
303.149
303.149
303.148
303.147
303.147
303.146
303.134
303.094
303
302.867
302.742
302.65
302.593
302.568
302.584
302.615
302.653
302.69
302.726
302.76
302.791
302.821
302.847
302.869
302.887
302.902
302.915
302.924
302.929
302.931
302.931
302.926
302.918
302.905
302.87
302.791
302.673
302.558
302.492
302.48
302.478
302.469
302.455
302.429
302.387
302.321
302.234
303.15
303.15
303.15
303.15
303.15
303.15
303.15
303.15
303.15
303.15
303.15
303.15
303.15
303.149
303.148
303.144
303.138
303.135
303.136
303.131
303.112
303.075
303.029
302.992
302.97
302.966
302.978
303
303.022
303.039
303.051
303.056
303.055
303.047
303.029
303.004
302.976
302.945
302.908
302.86
302.798
302.732
302.666
302.603
302.534
302.46
302.388
302.313
302.185
301.937
301.605
301.318
301.159
301.137
301.161
301.201
301.246
301.287
301.318
301.328
303.15
303.15
303.15
303.15
303.15
303.15
303.15
303.15
303.15
303.15
303.15
303.15
303.15
303.149
303.144
303.123
303.091
303.073
303.079
303.093
303.101
303.099
303.094
303.091
303.089
303.088
303.079
303.059
303.026
302.981
302.928
302.867
302.798
302.717
302.611
302.483
302.354
302.23
302.098
301.948
301.785
301.634
301.501
301.38
301.259
301.133
301.025
300.93
300.722
300.285
299.744
299.317
299.083
299.029
299.119
299.277
299.46
299.631
299.758
299.793
303.15
303.15
303.15
303.15
303.15
303.15
303.15
303.15
303.15
303.15
303.15
303.15
303.15
303.148
303.129
303.046
302.92
302.829
302.809
302.851
302.91
302.94
302.916
302.853
302.751
302.601
302.412
302.195
301.969
301.748
301.541
301.351
301.173
300.993
300.791
300.582
300.409
300.277
300.157
300.028
299.892
299.773
299.678
299.587
299.466
299.363
299.295
299.117
298.659
298.057
297.542
297.21
297.07
297.104
297.278
297.499
297.697
297.802
297.736
297.452
303.15
303.15
303.15
303.15
303.15
303.15
303.15
303.15
303.15
303.15
303.15
303.15
303.15
303.147
303.105
302.866
302.484
302.15
301.751
301.143
300.428
299.728
299.11
298.586
298.156
297.82
297.566
297.396
297.314
297.297
297.306
297.314
297.303
297.276
297.299
297.368
297.421
297.437
297.439
297.45
297.474
297.5
297.53
297.519
297.471
297.427
297.395
297.241
296.892
296.453
296.092
295.87
295.742
295.648
295.571
295.514
295.426
295.273
295.048
294.794
303.15
303.15
303.15
303.15
303.15
303.15
303.15
303.15
303.15
303.15
303.15
303.149
303.149
303.15
303.091
302.319
301.352
300.761
300.503
300.443
300.452
300.45
300.397
300.306
300.218
300.145
300.089
300.041
299.991
299.93
299.851
299.751
299.646
299.588
299.621
299.704
299.727
299.676
299.602
299.54
299.513
299.534
299.562
299.551
299.474
299.241
298.649
297.659
296.552
295.678
295.166
294.894
294.723
294.607
294.541
294.5
294.471
294.467
294.537
294.723
303.15
303.15
303.151
303.151
303.146
303.142
303.138
303.134
303.13
303.127
303.123
303.12
303.117
303.115
302.711
299.563
297.497
296.685
296.464
296.52
296.707
296.912
297.087
297.226
297.337
297.423
297.485
297.518
297.504
297.422
297.255
296.999
296.654
296.243
295.807
295.399
295.063
294.826
294.719
294.708
294.728
294.73
294.702
294.648
294.57
294.465
294.359
294.342
294.504
294.805
295.106
295.31
295.403
295.43
295.449
295.497
295.604
295.783
296.074
296.459
303.15
303.15
303.151
303.146
303.141
303.137
303.133
303.129
303.125
303.122
303.118
303.115
303.112
303.109
303.106
303.103
303.101
303.099
303.098
303.093
302.549
300.331
298.692
298.054
297.96
298.084
298.262
298.428
298.575
298.703
298.796
298.85
298.866
298.842
298.781
298.68
298.545
298.382
298.203
298.018
297.829
297.64
297.459
297.288
297.128
296.981
296.848
296.725
296.6
296.453
296.263
296.023
295.74
295.442
295.178
295
294.929
294.946
295.016
295.1
303.15
303.15
303.15
303.15
303.15
303.15
303.149
303.149
303.149
303.149
303.149
303.149
303.148
303.148
303.148
303.147
303.147
303.147
303.148
303.146
303.058
302.429
301.379
300.646
300.482
300.644
300.897
301.132
301.325
301.471
301.584
301.674
301.747
301.805
301.848
301.874
301.874
301.843
301.773
301.661
301.506
301.309
301.086
300.877
300.721
300.645
300.648
300.706
300.782
300.836
300.843
300.781
300.615
300.289
299.761
299.046
298.228
297.426
296.728
296.194
303.15
303.15
303.15
303.15
303.15
303.15
303.15
303.15
303.15
303.15
303.15
303.15
303.15
303.149
303.149
303.148
303.148
303.149
303.148
303.135
303.068
302.852
302.528
302.225
301.997
301.879
301.845
301.858
301.898
301.95
302.01
302.074
302.139
302.201
302.257
302.305
302.348
302.384
302.414
302.44
302.462
302.484
302.508
302.532
302.557
302.583
302.607
302.625
302.629
302.615
302.59
302.562
302.517
302.448
302.353
302.218
302.029
301.782
301.463
301.074
303.15
303.15
303.15
303.15
303.15
303.15
303.15
303.15
303.15
303.15
303.15
303.15
303.15
303.149
303.149
303.148
303.147
303.147
303.145
303.13
303.081
302.977
302.843
302.722
302.636
302.582
302.564
302.59
302.628
302.668
302.708
302.745
302.78
302.811
302.838
302.861
302.88
302.895
302.909
302.919
302.926
302.929
302.929
302.926
302.919
302.911
302.902
302.877
302.813
302.705
302.585
302.504
302.484
302.485
302.478
302.464
302.44
302.402
302.342
302.264
303.15
303.15
303.15
303.15
303.15
303.15
303.15
303.15
303.15
303.15
303.15
303.15
303.15
303.149
303.148
303.144
303.138
303.136
303.136
303.13
303.108
303.068
303.023
302.989
302.971
302.969
302.984
303.009
303.031
303.048
303.057
303.059
303.054
303.042
303.023
303
302.974
302.942
302.897
302.838
302.768
302.696
302.628
302.563
302.496
302.429
302.362
302.287
302.179
301.981
301.69
301.403
301.218
301.169
301.181
301.216
301.257
301.295
301.325
301.337
303.15
303.15
303.15
303.15
303.15
303.15
303.15
303.15
303.15
303.15
303.15
303.15
303.15
303.149
303.143
303.121
303.09
303.076
303.084
303.097
303.102
303.099
303.094
303.092
303.091
303.089
303.081
303.063
303.031
302.986
302.926
302.855
302.776
302.688
302.579
302.462
302.341
302.208
302.056
301.886
301.716
301.56
301.425
301.306
301.194
301.082
300.972
300.874
300.718
300.375
299.879
299.426
299.147
299.055
299.118
299.258
299.431
299.6
299.735
299.789
303.15
303.15
303.15
303.15
303.15
303.15
303.15
303.15
303.15
303.15
303.15
303.15
303.149
303.147
303.124
303.035
302.912
302.832
302.824
302.874
302.929
302.946
302.915
302.846
302.741
302.595
302.414
302.203
301.979
301.753
301.529
301.315
301.117
300.927
300.734
300.56
300.411
300.272
300.125
299.967
299.814
299.688
299.589
299.502
299.385
299.271
299.219
299.12
298.766
298.192
297.644
297.269
297.093
297.097
297.253
297.467
297.669
297.791
297.76
297.519
303.15
303.15
303.15
303.15
303.15
303.15
303.15
303.15
303.15
303.15
303.15
303.15
303.15
303.146
303.093
302.843
302.465
302.136
301.72
301.087
300.361
299.661
299.044
298.526
298.104
297.773
297.521
297.353
297.274
297.261
297.273
297.28
297.26
297.232
297.268
297.328
297.373
297.398
297.421
297.446
297.454
297.463
297.488
297.482
297.458
297.432
297.411
297.29
296.971
296.529
296.143
295.896
295.756
295.661
295.584
295.53
295.451
295.308
295.092
294.838
303.15
303.15
303.15
303.15
303.15
303.15
303.15
303.15
303.15
303.15
303.15
303.15
303.15
303.15
303.092
302.441
301.489
300.858
300.564
300.497
300.492
300.459
300.378
300.278
300.188
300.118
300.068
300.029
299.987
299.934
299.87
299.796
299.723
299.677
299.677
299.72
299.744
299.716
299.652
299.58
299.529
299.527
299.548
299.549
299.491
299.298
298.781
297.849
296.732
295.798
295.228
294.925
294.742
294.619
294.549
294.509
294.479
294.473
294.536
294.711
303.15
303.15
303.151
303.151
303.146
303.142
303.138
303.134
303.13
303.127
303.124
303.12
303.118
303.115
302.899
299.98
297.711
296.769
296.49
296.518
296.696
296.902
297.079
297.22
297.331
297.417
297.48
297.516
297.506
297.43
297.272
297.024
296.687
296.282
295.848
295.439
295.097
294.852
294.736
294.717
294.734
294.737
294.712
294.662
294.587
294.485
294.378
294.35
294.495
294.785
295.087
295.299
295.399
295.429
295.448
295.494
295.597
295.771
296.056
296.436
)
;

boundaryField
{
    wall
    {
        type            zeroGradient;
    }
    inlet
    {
        type            fixedValue;
        value           uniform 303.15;
    }
    outlet
    {
        type            inletOutlet;
        inletValue      uniform 300;
        value           nonuniform List<scalar> 
20
(
295.109
296.102
300.961
302.223
301.323
299.791
297.426
294.78
294.727
296.466
295.102
296.169
301.043
302.251
301.331
299.789
297.495
294.823
294.715
296.443
)
;
    }
    heatWall
    {
        type            fixedGradient;
        gradient        uniform -500;
    }
}


// ************************************************************************* //
