/*--------------------------------*- C++ -*----------------------------------*\
  =========                 |
  \\      /  F ield         | OpenFOAM: The Open Source CFD Toolbox
   \\    /   O peration     | Website:  https://openfoam.org
    \\  /    A nd           | Version:  8
     \\/     M anipulation  |
\*---------------------------------------------------------------------------*/
FoamFile
{
    version     2.0;
    format      ascii;
    class       volVectorField;
    location    "500";
    object      U;
}
// * * * * * * * * * * * * * * * * * * * * * * * * * * * * * * * * * * * * * //

dimensions      [0 1 -1 0 0 0 0];

internalField   nonuniform List<vector> 
1200
(
(16.0174 -1.16862 -0.226478)
(16.1183 -0.879149 0.215422)
(16.1443 -0.711075 0.470313)
(16.1366 -0.59062 0.734209)
(16.134 -0.504033 0.935347)
(16.1363 -0.45134 0.760665)
(16.1299 -0.422824 0.300226)
(16.1061 -0.403261 -0.0836272)
(16.0817 -0.382313 0.157836)
(16.0887 -0.353755 0.72886)
(16.1262 -0.328627 1.15221)
(16.1816 -0.310711 1.33196)
(16.2659 -0.299312 1.41656)
(16.4007 -0.291607 1.43196)
(16.6124 -0.287379 1.31409)
(16.9307 -0.286239 1.00698)
(17.318 -0.27704 0.536686)
(17.6676 -0.255434 0.0134919)
(17.9096 -0.218918 -0.245198)
(17.8073 -0.145873 -0.060209)
(17.8125 0.350298 1.14065)
(19.3298 0.737844 5.25541)
(20.1264 0.589796 8.80851)
(19.6306 0.46033 10.9154)
(18.5487 0.42673 12.0824)
(17.4499 0.394899 12.0993)
(16.5604 0.350948 11.2626)
(15.9232 0.306672 10.0009)
(15.5107 0.260959 9.13128)
(15.2905 0.219215 8.80257)
(15.1932 0.18473 8.79147)
(15.1717 0.155461 8.87207)
(15.1991 0.131156 8.9002)
(15.2675 0.112437 8.83484)
(15.3695 0.0992011 8.62438)
(15.4924 0.0926473 8.40644)
(15.6269 0.0914545 8.04484)
(15.7514 0.0957295 7.55807)
(15.8471 0.104652 7.02395)
(15.8948 0.119356 6.59207)
(15.8794 0.140521 6.38554)
(15.7941 0.16446 6.52321)
(15.6678 0.183488 6.7775)
(15.5247 0.199744 7.00244)
(15.3874 0.212784 7.21088)
(15.2904 0.213169 7.5132)
(15.2809 0.194298 8.07013)
(15.4062 0.158345 8.7689)
(15.6784 0.114059 9.41735)
(16.0393 0.080401 10.0908)
(16.3809 0.0675829 10.744)
(16.6027 0.0725597 11.2647)
(16.6762 0.0819115 11.5731)
(16.6297 0.0897351 11.6159)
(16.5172 0.101786 11.5481)
(16.3898 0.12108 11.3701)
(16.2714 0.14595 11.1349)
(16.1224 0.167583 10.7279)
(15.9872 0.190781 10.4631)
(15.6362 0.174629 9.87887)
(16.0196 0.417362 -0.081627)
(15.9979 0.539121 0.164755)
(15.994 0.530445 0.301806)
(15.9893 0.502969 0.464257)
(15.9967 0.470773 0.60657)
(16.0161 0.434623 0.48251)
(16.0358 0.408024 0.0865106)
(16.0399 0.389326 -0.239725)
(16.0403 0.375884 0.00696454)
(16.0687 0.360015 0.566232)
(16.1241 0.341984 1.00051)
(16.1976 0.32311 1.20863)
(16.3006 0.298447 1.33499)
(16.4547 0.261958 1.38525)
(16.6856 0.204956 1.27555)
(17.026 0.14258 0.947986)
(17.4413 0.128487 0.458482)
(17.8238 0.162805 -0.119371)
(18.1129 0.229502 -0.484028)
(18.1421 0.370232 -0.453642)
(17.9752 0.902563 -0.213229)
(18.5743 1.58418 1.03708)
(19.8994 1.49697 3.49433)
(21.0146 1.02062 6.62632)
(21.593 0.581049 9.33764)
(21.7247 0.254649 10.6436)
(21.5974 0.0182698 10.7405)
(21.3454 -0.155725 10.141)
(21.0417 -0.263242 9.57998)
(20.7449 -0.313965 9.27877)
(20.487 -0.329013 9.15176)
(20.2734 -0.326167 9.09949)
(20.1039 -0.319308 9.04091)
(19.9815 -0.315952 8.94757)
(19.9026 -0.316856 8.78837)
(19.8549 -0.314666 8.64726)
(19.8309 -0.30701 8.41184)
(19.8146 -0.289996 8.09592)
(19.791 -0.265566 7.78242)
(19.7469 -0.234757 7.57829)
(19.6751 -0.200769 7.56674)
(19.5777 -0.170371 7.83467)
(19.484 -0.157642 8.19642)
(19.4263 -0.166212 8.51239)
(19.4337 -0.195772 8.78341)
(19.533 -0.245443 9.08582)
(19.7517 -0.305092 9.53756)
(20.103 -0.360288 10.048)
(20.5718 -0.392152 10.5072)
(21.09 -0.370421 11.0232)
(21.5157 -0.293611 11.5767)
(21.688 -0.194248 12.0567)
(21.5392 -0.100178 12.3333)
(21.1143 -0.0277808 12.3574)
(20.53 0.0135799 12.2537)
(19.9182 0.0272118 12.0178)
(19.3849 0.0233298 11.7191)
(18.9655 0.00121804 11.3022)
(18.7165 -0.0190857 11.059)
(18.4698 -0.0353519 10.6121)
(15.9499 -0.0886458 -0.116049)
(15.9067 -0.173237 0.128159)
(15.9116 -0.242726 0.341111)
(15.9309 -0.274873 0.522737)
(15.96 -0.286058 0.651696)
(15.999 -0.295595 0.590094)
(16.0321 -0.294683 0.217569)
(16.0424 -0.290092 -0.160568)
(16.0453 -0.28141 0.00928528)
(16.0747 -0.280271 0.48254)
(16.1343 -0.282872 0.793666)
(16.2086 -0.287162 0.836422)
(16.3036 -0.298544 0.776342)
(16.4356 -0.317511 0.625903)
(16.6257 -0.352329 0.318277)
(16.9252 -0.404601 -0.208464)
(17.368 -0.4044 -0.897545)
(17.8472 -0.35175 -1.61265)
(18.2179 -0.25296 -2.06865)
(18.3163 -0.0226774 -2.09558)
(18.2317 0.547937 -1.96872)
(18.4722 1.2083 -1.59431)
(19.1387 1.45436 -0.743114)
(20.0138 1.36469 0.686966)
(20.8579 1.09077 2.19315)
(21.3244 0.771764 2.95493)
(21.5156 0.480385 2.97991)
(21.599 0.235256 2.58907)
(21.6852 0.0634013 2.4128)
(21.8012 -0.0231041 2.49322)
(21.8579 -0.0530256 2.67241)
(21.799 -0.0637641 2.85606)
(21.6833 -0.0788546 2.98442)
(21.6285 -0.0984551 3.05483)
(21.7045 -0.113956 3.07045)
(21.8919 -0.114459 3.08384)
(22.1374 -0.106254 2.9865)
(22.3819 -0.0876469 2.78896)
(22.5745 -0.0560243 2.59145)
(22.6725 -0.00576522 2.47895)
(22.6328 0.0628023 2.52457)
(22.415 0.125713 2.79867)
(22.0897 0.135554 3.14979)
(21.7868 0.0950984 3.465)
(21.5972 0.0273988 3.74943)
(21.5338 -0.0648736 4.06896)
(21.5666 -0.181482 4.51764)
(21.693 -0.299968 4.98241)
(21.9793 -0.38582 5.36632)
(22.4902 -0.375518 5.82098)
(23.1774 -0.243833 6.40076)
(23.8661 -0.0351262 7.07246)
(24.3384 0.162826 7.69665)
(24.4897 0.311697 8.09563)
(24.3394 0.388096 8.30057)
(23.9661 0.395898 8.27189)
(23.4564 0.354353 8.08278)
(22.8852 0.274849 7.7174)
(22.3388 0.199894 7.4946)
(21.6928 0.116769 7.00499)
(15.9883 -0.00602675 -0.0851043)
(15.9768 0.0549214 0.0263999)
(15.9917 0.118427 0.0869471)
(16.0079 0.173994 0.0914457)
(16.0231 0.214652 0.0812261)
(16.0469 0.230872 0.0368219)
(16.0688 0.23556 -0.268267)
(16.0753 0.245428 -0.616184)
(16.0826 0.260141 -0.51556)
(16.1073 0.275905 -0.139491)
(16.1563 0.279616 0.0888174)
(16.216 0.271209 0.0617957)
(16.2907 0.243475 -0.0405479)
(16.3981 0.188199 -0.220848)
(16.5709 0.0739884 -0.55899)
(16.9227 -0.131663 -1.10332)
(17.4493 -0.236945 -1.83214)
(17.9713 -0.200638 -2.68293)
(18.3367 -0.0300279 -3.31666)
(18.4355 0.245791 -3.48817)
(18.4109 0.653842 -3.48016)
(18.6602 1.05663 -3.3427)
(19.2468 1.14919 -2.95512)
(19.9115 0.965916 -2.14764)
(20.4848 0.642794 -1.19909)
(20.9117 0.319927 -0.767223)
(21.2074 0.0292224 -0.926558)
(21.4702 -0.240429 -1.43095)
(21.7374 -0.428528 -1.67981)
(22.0055 -0.529014 -1.69675)
(22.2753 -0.5563 -1.60434)
(22.5349 -0.539204 -1.44882)
(22.7511 -0.508115 -1.29784)
(22.9127 -0.488905 -1.19418)
(23.0608 -0.494996 -1.14537)
(23.2691 -0.521591 -1.12417)
(23.5412 -0.552529 -1.21197)
(23.8103 -0.553188 -1.39314)
(24.0032 -0.50177 -1.56088)
(24.0855 -0.398783 -1.65992)
(24.0949 -0.259352 -1.62488)
(24.1159 -0.118633 -1.35319)
(24.1694 -0.0443233 -0.970125)
(24.2439 -0.066188 -0.628954)
(24.3497 -0.150297 -0.302827)
(24.3724 -0.238292 0.101937)
(23.7996 -0.318781 0.688026)
(22.9785 -0.453458 1.30129)
(22.3985 -0.644215 1.80625)
(22.3069 -0.771916 2.33099)
(22.7152 -0.725284 2.89975)
(23.4107 -0.49201 3.45593)
(24.096 -0.174816 3.95167)
(24.5583 0.103133 4.34002)
(24.7566 0.27682 4.64991)
(24.7871 0.348539 4.81747)
(24.7106 0.344234 4.88669)
(24.5793 0.284658 4.80532)
(24.3961 0.227686 4.85648)
(24.1402 0.108173 4.57071)
(15.9884 -0.00391167 -0.0825535)
(15.9733 0.00331055 -0.0670012)
(15.9764 -0.0103753 -0.0604587)
(15.9868 -0.037079 -0.0901512)
(16 -0.0695849 -0.107959)
(16.024 -0.10877 -0.0663346)
(16.0509 -0.148728 -0.306842)
(16.0651 -0.180085 -0.68567)
(16.0792 -0.197122 -0.701492)
(16.1063 -0.20698 -0.427451)
(16.1517 -0.222215 -0.24008)
(16.206 -0.245398 -0.285989)
(16.2747 -0.278119 -0.427653)
(16.3715 -0.326675 -0.693665)
(16.5328 -0.426428 -1.20794)
(16.9405 -0.661888 -2.04845)
(17.5836 -0.770593 -3.10406)
(18.203 -0.731791 -4.19357)
(18.6161 -0.558215 -4.87026)
(18.7402 -0.235394 -4.9495)
(18.7728 0.195631 -4.86713)
(19.0624 0.573026 -4.74899)
(19.6445 0.704055 -4.49589)
(20.3076 0.627589 -3.90571)
(20.9067 0.443108 -3.13492)
(21.3943 0.241812 -2.734)
(21.7598 0.0679658 -2.80498)
(22.0122 -0.0714317 -3.08699)
(22.1918 -0.160692 -3.13628)
(22.3523 -0.208259 -3.04017)
(22.5045 -0.210958 -2.90779)
(22.6178 -0.17211 -2.73574)
(22.6571 -0.111112 -2.56804)
(22.6334 -0.0777177 -2.45419)
(22.6114 -0.125336 -2.3948)
(22.6562 -0.238318 -2.3672)
(22.7567 -0.332793 -2.43667)
(22.8325 -0.328142 -2.60638)
(22.8175 -0.221947 -2.77352)
(22.7011 -0.0695591 -2.89355)
(22.5271 0.0711328 -2.89356)
(22.361 0.162563 -2.63986)
(22.1928 0.175773 -2.25703)
(22.0128 0.0941978 -1.89439)
(21.8835 -0.0477264 -1.52715)
(21.9096 -0.159653 -1.09045)
(22.2403 -0.203117 -0.500416)
(22.7514 -0.266494 0.136656)
(22.9204 -0.427124 0.746303)
(22.9713 -0.625472 1.42254)
(23.0813 -0.689866 2.13952)
(23.3202 -0.533136 2.77419)
(23.644 -0.217992 3.1813)
(23.9855 0.0962224 3.33196)
(24.2259 0.298915 3.42003)
(24.3827 0.378309 3.42944)
(24.4513 0.36547 3.42856)
(24.4851 0.298923 3.34683)
(24.4247 0.230892 3.45453)
(24.3732 0.134832 3.20124)
(15.9895 0.00629848 -0.0868456)
(15.975 0.0185534 -0.15026)
(15.9769 0.0431023 -0.214004)
(15.9861 0.0798503 -0.32647)
(15.9973 0.119468 -0.440161)
(16.0181 0.150123 -0.427005)
(16.0427 0.177305 -0.673551)
(16.0592 0.20508 -1.10447)
(16.079 0.229897 -1.26397)
(16.1106 0.24622 -1.1603)
(16.1551 0.250125 -1.09041)
(16.2059 0.240715 -1.22575)
(16.2739 0.206386 -1.4992)
(16.3691 0.129186 -1.9511)
(16.5267 -0.067318 -2.72474)
(17.0221 -0.529292 -3.87094)
(17.8137 -0.755624 -5.28283)
(18.5454 -0.691088 -6.77522)
(19.0574 -0.393638 -7.71339)
(19.3066 0.0463871 -7.77588)
(19.4847 0.475703 -7.41987)
(19.8862 0.724967 -7.02359)
(20.5047 0.759574 -6.60542)
(21.1644 0.637451 -6.0053)
(21.7419 0.426832 -5.27266)
(22.1761 0.171406 -4.79212)
(22.4413 -0.11624 -4.68285)
(22.5675 -0.391914 -4.69229)
(22.6217 -0.598896 -4.47625)
(22.6457 -0.709908 -4.19329)
(22.6436 -0.706521 -3.9698)
(22.5906 -0.608837 -3.75657)
(22.4658 -0.469797 -3.55886)
(22.2918 -0.375584 -3.41184)
(22.1406 -0.40251 -3.30348)
(22.0867 -0.521341 -3.21614)
(22.1285 -0.60199 -3.20219)
(22.1799 -0.54592 -3.282)
(22.1613 -0.379017 -3.35705)
(22.0515 -0.186445 -3.38993)
(21.8825 -0.02971 -3.31185)
(21.7139 0.0683161 -2.96159)
(21.5369 0.087148 -2.46984)
(21.3625 -0.00535247 -1.99986)
(21.2879 -0.182915 -1.50921)
(21.4341 -0.390054 -0.938828)
(21.8535 -0.598849 -0.268155)
(22.008 -0.749458 0.424314)
(21.8304 -0.860562 1.12477)
(21.6982 -0.911211 1.98915)
(21.8853 -0.863845 2.96672)
(22.3005 -0.714063 3.88445)
(22.7168 -0.461418 4.54478)
(23.0205 -0.160019 4.85745)
(23.1791 0.0859852 4.98394)
(23.2334 0.225177 4.96613)
(23.2015 0.263617 4.93779)
(23.1317 0.236908 4.82637)
(22.9896 0.188936 4.93736)
(22.8471 0.114422 4.64631)
(15.9927 0.00682052 -0.0891733)
(15.9852 -0.0358455 -0.195742)
(15.999 -0.086881 -0.247599)
(16.0164 -0.129884 -0.339436)
(16.0279 -0.164246 -0.433848)
(16.0453 -0.192454 -0.366888)
(16.0688 -0.217064 -0.536578)
(16.0829 -0.235796 -0.904815)
(16.0966 -0.245189 -1.09848)
(16.1209 -0.250476 -1.1008)
(16.1583 -0.260721 -1.12825)
(16.2018 -0.278467 -1.34791)
(16.2595 -0.309568 -1.78437)
(16.3303 -0.36967 -2.5275)
(16.4303 -0.527397 -3.6484)
(16.9712 -1.07465 -4.93498)
(17.9174 -1.29898 -6.42643)
(18.8081 -1.27922 -8.23534)
(19.4855 -1.12746 -9.70818)
(19.9049 -0.837468 -10.2427)
(20.2386 -0.427925 -10.2308)
(20.7207 -0.084351 -10.0552)
(21.3343 0.0961985 -9.81558)
(21.9023 0.121739 -9.36112)
(22.3134 0.0350678 -8.68032)
(22.5145 -0.112491 -8.03377)
(22.511 -0.272482 -7.53925)
(22.3774 -0.40335 -7.03236)
(22.1983 -0.484362 -6.30155)
(22.0281 -0.489523 -5.58417)
(21.8824 -0.395785 -5.04165)
(21.7326 -0.222161 -4.5865)
(21.536 -0.0288171 -4.18484)
(21.2923 0.0720746 -3.86736)
(21.0694 -0.0162439 -3.61086)
(20.9879 -0.23111 -3.38738)
(21.0928 -0.377183 -3.2266)
(21.2737 -0.334164 -3.15912)
(21.3932 -0.15629 -3.09762)
(21.3923 0.0425688 -3.01319)
(21.2978 0.190695 -2.84465)
(21.2146 0.27557 -2.38163)
(21.1503 0.281957 -1.78174)
(21.1326 0.140804 -1.21217)
(21.2755 -0.191219 -0.599266)
(21.4266 -0.543491 0.0909898)
(20.8617 -0.618462 0.874267)
(19.9811 -0.447689 1.72476)
(19.4709 -0.403971 2.72369)
(19.7887 -0.598904 3.96548)
(20.5237 -0.744507 5.19409)
(21.1603 -0.671 6.17888)
(21.5446 -0.425207 6.74566)
(21.709 -0.138714 6.84148)
(21.7126 0.0925953 6.72699)
(21.5759 0.230849 6.54156)
(21.3407 0.277023 6.46462)
(21.0619 0.268416 6.38628)
(20.7252 0.249871 6.63456)
(20.4208 0.15468 6.4365)
(15.9571 0.0827708 -0.0944481)
(15.9199 0.182156 -0.339046)
(15.9221 0.250923 -0.505416)
(15.9385 0.288841 -0.743731)
(15.9579 0.307187 -0.994621)
(15.9843 0.310893 -0.988529)
(16.012 0.308566 -1.20367)
(16.0349 0.304055 -1.60823)
(16.0617 0.300409 -1.84574)
(16.0954 0.296564 -1.87866)
(16.1354 0.289238 -1.86562)
(16.177 0.27671 -1.94436)
(16.2317 0.252304 -2.19247)
(16.2987 0.183624 -2.6723)
(16.2712 -0.18919 -3.3636)
(16.7144 -1.11305 -3.9587)
(17.6951 -1.3706 -5.01456)
(18.6287 -1.12171 -7.55503)
(19.5464 -0.757849 -11.1758)
(20.3256 -0.428652 -14.0684)
(20.8709 -0.147384 -15.5834)
(21.2063 -0.0296559 -15.9988)
(21.314 -0.0185985 -15.6409)
(21.175 -0.0598575 -14.7086)
(20.843 -0.141636 -13.3447)
(20.3886 -0.242463 -11.8034)
(19.8802 -0.342485 -10.36)
(19.4179 -0.427162 -8.93053)
(19.0887 -0.472574 -7.3854)
(18.9049 -0.457354 -6.04334)
(18.8134 -0.367416 -5.12435)
(18.7259 -0.229329 -4.4515)
(18.5521 -0.115457 -3.90726)
(18.3272 -0.151926 -3.463)
(18.3088 -0.379876 -3.04473)
(18.5807 -0.673701 -2.65763)
(19.0299 -0.826768 -2.35953)
(19.4839 -0.732519 -2.21195)
(19.8326 -0.487307 -2.11334)
(20.0598 -0.23359 -1.99902)
(20.2185 -0.0832041 -1.78939)
(20.487 -0.0835013 -1.23646)
(20.8697 -0.152338 -0.567155)
(21.0778 -0.236612 0.0395758)
(20.1014 -0.268604 0.725729)
(18.5063 -0.226942 1.53417)
(17.3409 -0.214714 2.45199)
(17.3511 -0.384676 3.45548)
(18.126 -0.741852 4.63355)
(18.9148 -1.09053 6.13271)
(19.3252 -1.21716 7.71502)
(19.3557 -1.08989 9.10445)
(19.1367 -0.78416 10.0489)
(18.7571 -0.403305 10.3858)
(18.2699 -0.0524007 10.3805)
(17.8471 0.185752 10.1246)
(17.5236 0.308292 10.006)
(17.3235 0.355584 9.94041)
(17.2165 0.376799 10.3225)
(17.2758 0.274819 10.2872)
(16.032 -0.417684 -0.0476107)
(16.0149 -0.526925 -0.199789)
(16.0048 -0.521179 -0.224217)
(16.0031 -0.492488 -0.338424)
(16.0011 -0.456666 -0.482331)
(16.0094 -0.426402 -0.380981)
(16.0289 -0.398485 -0.49602)
(16.0427 -0.371739 -0.766817)
(16.0563 -0.347559 -0.877454)
(16.0778 -0.328355 -0.787245)
(16.1106 -0.316324 -0.613028)
(16.153 -0.312003 -0.464563)
(16.2062 -0.318508 -0.42682)
(16.2528 -0.353094 -0.536609)
(16.0113 -0.685418 -0.790259)
(16.6378 -1.7302 0.358163)
(17.9777 -1.793 1.75664)
(18.6959 -1.31711 1.86346)
(18.93 -0.823966 1.24888)
(19.0284 -0.484576 0.511301)
(19.099 -0.184521 -0.306941)
(19.095 0.118586 -1.18338)
(19.5734 0.324154 -2.17813)
(20.4154 0.401016 -2.92947)
(21.1245 0.379562 -3.08368)
(21.5583 0.293341 -2.80663)
(21.781 0.16133 -2.40709)
(21.9378 -0.00275454 -1.82577)
(22.178 -0.171619 -1.0092)
(22.6532 -0.299832 -0.292965)
(23.4462 -0.357542 0.120914)
(24.4345 -0.336177 0.338121)
(25.2137 -0.25539 0.444969)
(25.5438 -0.184362 0.485992)
(25.1883 -0.158836 0.532994)
(24.0773 -0.161465 0.700772)
(22.9418 -0.14027 1.02737)
(22.3967 -0.0654624 1.30141)
(22.2624 0.0292356 1.47148)
(22.266 0.100325 1.54227)
(22.2273 0.108627 1.60098)
(21.9176 0.0556521 1.98213)
(21.3514 0.0367159 2.4982)
(20.7747 0.071097 2.97919)
(20.4596 0.0960539 3.56582)
(20.4118 0.0292008 4.39299)
(20.338 -0.128165 5.50745)
(20.0347 -0.317127 6.95843)
(19.3871 -0.459706 8.72792)
(18.3036 -0.523425 10.6488)
(17.025 -0.488747 12.275)
(15.8813 -0.350662 13.4332)
(15.1033 -0.136203 14.0929)
(14.692 0.090838 14.1898)
(14.509 0.237044 14.0144)
(14.4616 0.295713 13.6769)
(14.517 0.299783 13.6207)
(14.6604 0.277117 13.6457)
(14.8327 0.254272 14.1283)
(15.1184 0.17639 13.8768)
(16.026 1.17626 -0.0467883)
(16.1283 0.89881 -0.334508)
(16.1458 0.74288 -0.377125)
(16.1366 0.633175 -0.510058)
(16.1214 0.550587 -0.669221)
(16.111 0.491402 -0.532619)
(16.1059 0.444491 -0.602313)
(16.0965 0.404565 -0.797982)
(16.0882 0.372856 -0.807866)
(16.0863 0.349144 -0.603181)
(16.0943 0.330808 -0.31116)
(16.1113 0.314234 -0.0554857)
(16.1342 0.291227 0.0802114)
(16.0899 0.252765 0.0941546)
(15.6922 -0.0982875 0.435079)
(17.909 -0.930771 7.7518)
(19.3357 -0.801839 13.9537)
(19.1265 -0.437166 15.6571)
(18.475 -0.124806 14.9815)
(17.9551 0.0660631 13.7299)
(17.731 0.113447 12.4319)
(17.8231 0.106209 11.3993)
(18.1224 0.0509055 10.7792)
(18.4191 -0.0337052 10.4991)
(18.5662 -0.123913 10.5645)
(18.5009 -0.202558 10.8668)
(18.2341 -0.250321 11.1097)
(17.817 -0.266987 11.4052)
(17.3077 -0.260094 11.8811)
(16.7782 -0.236995 12.2419)
(16.2749 -0.221202 12.2601)
(15.7862 -0.213465 12.1087)
(15.2879 -0.212046 11.9174)
(14.7902 -0.207817 11.6599)
(14.3185 -0.196077 11.3305)
(13.8726 -0.183871 10.9591)
(13.4355 -0.177235 10.5434)
(12.9915 -0.15802 10.0021)
(12.5922 -0.103152 9.36748)
(12.2825 -0.0460022 8.71104)
(12.0347 -0.00459672 8.11702)
(11.7752 0.0214043 8.15614)
(11.559 0.0465394 8.46773)
(11.4373 0.0816206 8.72779)
(11.4345 0.151171 9.05602)
(11.5475 0.266517 9.57137)
(11.7913 0.408642 10.2564)
(12.1944 0.514637 11.1068)
(12.6967 0.485874 12.2314)
(13.0119 0.250551 13.6045)
(12.7668 -0.0856044 14.7314)
(11.9274 -0.34552 15.3409)
(10.8493 -0.416058 15.3609)
(9.99399 -0.307135 14.7066)
(9.57925 -0.132857 13.9412)
(9.52829 0.000914006 13.2176)
(9.66486 0.0692684 13.1223)
(9.90976 0.0957169 13.2221)
(10.1541 0.108708 14.0775)
(10.586 0.0643179 13.951)
(16.0417 -1.15151 -0.233842)
(16.151 -0.89148 0.206012)
(16.1578 -0.740377 0.462023)
(16.1409 -0.630785 0.726824)
(16.1236 -0.547333 0.927475)
(16.1119 -0.486962 0.752012)
(16.1076 -0.448044 0.291325)
(16.1179 -0.414494 -0.0911577)
(16.1261 -0.393168 0.150182)
(16.1176 -0.373103 0.719793)
(16.1261 -0.353911 1.14113)
(16.1662 -0.337972 1.31791)
(16.2436 -0.326084 1.3987)
(16.3685 -0.317834 1.40966)
(16.5645 -0.31321 1.28697)
(16.8659 -0.311756 0.975157)
(17.2467 -0.300543 0.501589)
(17.6179 -0.278607 -0.0210938)
(17.9154 -0.242017 -0.268471)
(17.8382 -0.18114 -0.0819066)
(17.6795 0.228056 0.753692)
(19.0375 0.684907 4.4135)
(20.0641 0.582341 8.2423)
(19.7583 0.448706 10.6921)
(18.7319 0.415255 12.0411)
(17.6161 0.387532 12.1308)
(16.6902 0.344298 11.321)
(16.0168 0.298474 10.0695)
(15.5789 0.248791 9.19919)
(15.3584 0.201711 8.86477)
(15.2798 0.165587 8.84632)
(15.2828 0.138007 8.92)
(15.33 0.11535 8.94271)
(15.4127 0.0961351 8.87339)
(15.5324 0.0808058 8.66092)
(15.6809 0.0712232 8.44075)
(15.8508 0.0672887 8.07776)
(16.0185 0.0699887 7.5901)
(16.158 0.0797341 7.05575)
(16.241 0.0977374 6.62297)
(16.2443 0.125232 6.41365)
(16.1503 0.157142 6.54573)
(15.9924 0.181278 6.79702)
(15.8075 0.197434 7.02127)
(15.6322 0.207369 7.22988)
(15.5101 0.204149 7.53209)
(15.4933 0.181726 8.08709)
(15.631 0.142118 8.78196)
(15.9438 0.0939471 9.42653)
(16.3745 0.0572217 10.0957)
(16.8055 0.0432161 10.7459)
(17.1197 0.0503743 11.2664)
(17.2677 0.0642716 11.5757)
(17.2727 0.0753479 11.6184)
(17.1878 0.0890767 11.5458)
(17.0717 0.10853 11.3611)
(16.9553 0.1326 11.1223)
(16.8144 0.153282 10.7195)
(16.684 0.176704 10.4668)
(16.3463 0.165034 9.89574)
(16.0315 0.428876 -0.0743888)
(16.0153 0.528814 0.174339)
(16.003 0.519622 0.311031)
(15.9948 0.489831 0.47088)
(15.9903 0.458548 0.609368)
(15.9928 0.438031 0.482739)
(16.0079 0.421762 0.0860883)
(16.0438 0.401467 -0.239114)
(16.0839 0.379744 0.00703785)
(16.1035 0.355828 0.562522)
(16.1306 0.333473 0.992096)
(16.1867 0.311677 1.195)
(16.2807 0.286679 1.31551)
(16.4226 0.251278 1.35972)
(16.6347 0.195901 1.24393)
(16.9556 0.12994 0.909323)
(17.361 0.106984 0.412437)
(17.7741 0.127951 -0.164821)
(18.1263 0.190016 -0.512648)
(18.1814 0.327437 -0.472696)
(18.0049 0.834728 -0.269142)
(18.4285 1.45799 0.730031)
(19.6602 1.47076 3.00944)
(20.8467 1.07534 6.19616)
(21.5135 0.644511 9.07709)
(21.7004 0.302101 10.5362)
(21.6061 0.0542943 10.7373)
(21.3755 -0.124485 10.2038)
(21.0944 -0.242605 9.67723)
(20.8227 -0.306883 9.37851)
(20.5968 -0.332079 9.24276)
(20.4131 -0.332387 9.18072)
(20.2633 -0.324045 9.1138)
(20.1521 -0.319386 9.01258)
(20.0866 -0.321345 8.84623)
(20.0609 -0.323581 8.69751)
(20.0684 -0.32073 8.45567)
(20.0892 -0.305882 8.13489)
(20.099 -0.278532 7.81825)
(20.0763 -0.24132 7.61204)
(20.0087 -0.198196 7.5996)
(19.8914 -0.157913 7.86717)
(19.7554 -0.137366 8.22974)
(19.6498 -0.142636 8.54726)
(19.6161 -0.173718 8.8193)
(19.688 -0.230165 9.12137)
(19.8951 -0.300384 9.56946)
(20.2552 -0.368718 10.0726)
(20.7614 -0.415587 10.5226)
(21.3504 -0.407253 11.0314)
(21.8772 -0.337479 11.5851)
(22.1647 -0.23514 12.0753)
(22.1178 -0.132462 12.3703)
(21.7687 -0.0476993 12.4025)
(21.2261 0.00496906 12.2991)
(20.6294 0.0254124 12.0601)
(20.0912 0.0238004 11.7578)
(19.6616 0.001033 11.3392)
(19.3935 -0.0181903 11.0971)
(19.1254 -0.0311469 10.654)
(15.9635 -0.0893342 -0.119272)
(15.9309 -0.187277 0.122)
(15.9266 -0.260078 0.334173)
(15.9378 -0.300175 0.515818)
(15.9562 -0.314755 0.644902)
(15.9797 -0.307197 0.583544)
(16.0043 -0.292794 0.210411)
(16.0425 -0.288593 -0.167231)
(16.0842 -0.295253 0.00218692)
(16.1065 -0.304813 0.474353)
(16.1384 -0.310994 0.784093)
(16.1954 -0.316748 0.824658)
(16.2819 -0.326905 0.762929)
(16.4024 -0.345701 0.610835)
(16.5762 -0.383844 0.300137)
(16.8876 -0.443727 -0.228756)
(17.3832 -0.440351 -0.910124)
(17.9015 -0.375403 -1.61463)
(18.2684 -0.253209 -2.05882)
(18.3227 0.0138779 -2.07684)
(18.2346 0.630718 -1.93395)
(18.5309 1.26513 -1.57099)
(19.2234 1.46342 -0.772397)
(19.974 1.31573 0.575976)
(20.7154 1.04388 2.0984)
(21.2064 0.75441 2.90066)
(21.4489 0.491826 2.95879)
(21.5492 0.267834 2.60373)
(21.6371 0.0944793 2.43506)
(21.7902 -0.0165487 2.51707)
(21.9582 -0.0711176 2.69779)
(22.047 -0.0897538 2.88517)
(22.0395 -0.100192 3.01458)
(22.018 -0.115263 3.07889)
(22.0825 -0.131521 3.08462)
(22.2646 -0.139823 3.08885)
(22.5455 -0.140063 2.98823)
(22.8689 -0.126109 2.79288)
(23.1638 -0.0910889 2.6004)
(23.3652 -0.0316562 2.49286)
(23.412 0.0537523 2.54262)
(23.2304 0.142842 2.81301)
(22.8591 0.17863 3.16188)
(22.4398 0.148451 3.48055)
(22.108 0.0747474 3.76876)
(21.9326 -0.0335635 4.08695)
(21.9132 -0.172219 4.53132)
(22.0415 -0.319452 4.99087)
(22.3664 -0.437338 5.36608)
(22.9375 -0.454275 5.80379)
(23.7063 -0.335667 6.3606)
(24.4958 -0.118784 7.01338)
(25.0763 0.0994631 7.63624)
(25.3155 0.270833 8.05582)
(25.2282 0.366305 8.2872)
(24.9035 0.387054 8.28486)
(24.432 0.35245 8.1173)
(23.8991 0.275076 7.7678)
(23.3734 0.204153 7.5515)
(22.7478 0.123964 7.06344)
(15.9963 -0.00243799 -0.0846198)
(15.9903 0.0353089 0.0275109)
(15.9988 0.0833478 0.0881656)
(16.0113 0.126239 0.0917161)
(16.0243 0.163081 0.0797002)
(16.0355 0.201044 0.034788)
(16.0486 0.227474 -0.269738)
(16.0762 0.24192 -0.617306)
(16.1093 0.244309 -0.517299)
(16.1357 0.245175 -0.143665)
(16.1631 0.24244 0.0824006)
(16.207 0.229865 0.0538013)
(16.2766 0.197781 -0.0501001)
(16.3826 0.13773 -0.231789)
(16.5677 0.013845 -0.571841)
(16.9512 -0.189303 -1.11489)
(17.5004 -0.270549 -1.835)
(18.0205 -0.203254 -2.6722)
(18.3632 0.00063792 -3.29107)
(18.4297 0.299741 -3.45213)
(18.4213 0.737099 -3.42924)
(18.7427 1.11357 -3.28922)
(19.3858 1.16045 -2.91385)
(20.068 0.953578 -2.12964)
(20.621 0.639891 -1.19409)
(21.019 0.344558 -0.760208)
(21.3457 0.073808 -0.919437)
(21.6894 -0.185727 -1.43334)
(21.9515 -0.353108 -1.69771)
(22.0973 -0.427251 -1.71994)
(22.1866 -0.438795 -1.62508)
(22.2572 -0.423017 -1.46477)
(22.3061 -0.409947 -1.31264)
(22.3452 -0.420926 -1.21287)
(22.4255 -0.4554 -1.16789)
(22.6015 -0.496814 -1.14384)
(22.8366 -0.520528 -1.2243)
(23.0387 -0.501046 -1.39895)
(23.1356 -0.431166 -1.56339)
(23.1155 -0.325412 -1.66258)
(23.0438 -0.202148 -1.62806)
(23.0234 -0.0886138 -1.34886)
(23.0712 -0.038347 -0.955759)
(23.1674 -0.0737034 -0.605119)
(23.3635 -0.15818 -0.27169)
(23.7256 -0.23602 0.135265)
(23.9306 -0.302914 0.699802)
(23.7967 -0.431466 1.28522)
(23.5771 -0.633521 1.77805)
(23.5957 -0.7941 2.29924)
(23.9863 -0.789647 2.86702)
(24.6503 -0.584531 3.42572)
(25.3497 -0.265675 3.91444)
(25.8626 0.0369446 4.3053)
(26.1017 0.238987 4.62498)
(26.1487 0.329783 4.80551)
(26.0727 0.334227 4.8875)
(25.951 0.276014 4.81942)
(25.7681 0.220772 4.87596)
(25.5331 0.107789 4.60229)
(15.9929 -0.00398134 -0.082579)
(15.9814 -0.0141976 -0.0674697)
(15.9816 -0.0372807 -0.0617469)
(15.9904 -0.0708054 -0.0924713)
(16.0061 -0.107477 -0.111395)
(16.0199 -0.134143 -0.0699985)
(16.0323 -0.161016 -0.310192)
(16.0611 -0.193375 -0.688772)
(16.0986 -0.22534 -0.704975)
(16.1286 -0.249974 -0.43287)
(16.1574 -0.268393 -0.24826)
(16.1992 -0.28697 -0.297534)
(16.2668 -0.321052 -0.443329)
(16.366 -0.377453 -0.714359)
(16.5438 -0.496616 -1.23745)
(16.9853 -0.731862 -2.07473)
(17.6437 -0.812853 -3.11108)
(18.2539 -0.743434 -4.1709)
(18.6409 -0.530851 -4.81667)
(18.7395 -0.163192 -4.88353)
(18.7989 0.297017 -4.809)
(19.1533 0.649883 -4.70262)
(19.7796 0.740329 -4.46668)
(20.4557 0.641072 -3.89401)
(21.0454 0.461743 -3.13388)
(21.5144 0.287335 -2.73794)
(21.8693 0.153531 -2.81183)
(22.117 0.0743558 -3.09883)
(22.2704 0.041244 -3.14926)
(22.3554 0.0251673 -3.05014)
(22.3872 0.0225493 -2.91456)
(22.3602 0.0321357 -2.74085)
(22.2745 0.0364464 -2.57421)
(22.1709 -0.00147388 -2.46505)
(22.1158 -0.0980494 -2.40825)
(22.1386 -0.207263 -2.37709)
(22.189 -0.253402 -2.44262)
(22.1828 -0.200224 -2.6142)
(22.0819 -0.0798446 -2.78682)
(21.9056 0.0482467 -2.91168)
(21.7119 0.144376 -2.91059)
(21.5469 0.196067 -2.6497)
(21.3813 0.185322 -2.26092)
(21.2132 0.0977473 -1.89433)
(21.1047 -0.0312158 -1.52529)
(21.1521 -0.124874 -1.08579)
(21.5279 -0.167813 -0.485233)
(22.3462 -0.248453 0.1579)
(23.2002 -0.422629 0.749033)
(23.9066 -0.624048 1.39658)
(24.441 -0.702484 2.09466)
(24.8843 -0.572867 2.73555)
(25.2988 -0.272522 3.16697)
(25.6923 0.0517596 3.33827)
(25.9585 0.279557 3.43499)
(26.1283 0.37944 3.44881)
(26.2023 0.375994 3.44834)
(26.2495 0.308006 3.36892)
(26.1858 0.235782 3.46921)
(26.1493 0.139156 3.22721)
(15.9917 0.00575905 -0.0868715)
(15.9786 0.00662806 -0.150693)
(15.9783 0.0290848 -0.215155)
(15.9858 0.0650336 -0.328716)
(16.002 0.103939 -0.44384)
(16.0172 0.143272 -0.431436)
(16.0287 0.180128 -0.678194)
(16.055 0.208471 -1.11016)
(16.092 0.221157 -1.27124)
(16.1251 0.223549 -1.16913)
(16.1581 0.222224 -1.10035)
(16.2009 0.211101 -1.23669)
(16.2702 0.164123 -1.51305)
(16.3659 0.0675424 -1.97149)
(16.5434 -0.169616 -2.75858)
(17.0833 -0.618421 -3.90403)
(17.8873 -0.794607 -5.30386)
(18.6058 -0.689755 -6.76863)
(19.0956 -0.363738 -7.66357)
(19.3304 0.0831173 -7.69029)
(19.536 0.482136 -7.3381)
(19.9838 0.677882 -6.96607)
(20.6259 0.667105 -6.57472)
(21.2838 0.521925 -5.99582)
(21.8404 0.31581 -5.2755)
(22.2455 0.0976169 -4.79912)
(22.4958 -0.112216 -4.67888)
(22.6249 -0.274128 -4.67914)
(22.6596 -0.364737 -4.45608)
(22.6094 -0.389128 -4.17118)
(22.4877 -0.353282 -3.95085)
(22.3032 -0.285122 -3.74304)
(22.0751 -0.231818 -3.55016)
(21.8546 -0.247526 -3.40614)
(21.704 -0.345996 -3.29913)
(21.6532 -0.457228 -3.21169)
(21.6531 -0.476485 -3.19954)
(21.6174 -0.371634 -3.2837)
(21.5051 -0.205468 -3.36085)
(21.3292 -0.0533496 -3.39196)
(21.1351 0.0490552 -3.31203)
(20.959 0.105817 -2.95526)
(20.778 0.0995431 -2.45517)
(20.609 0.000713034 -1.97903)
(20.5471 -0.160451 -1.48501)
(20.7133 -0.340078 -0.912382)
(21.252 -0.552252 -0.22954)
(21.9274 -0.757063 0.462835)
(22.4186 -0.911825 1.12912)
(22.7517 -0.969826 1.93943)
(23.1042 -0.901329 2.88359)
(23.5394 -0.72686 3.81105)
(23.9628 -0.462559 4.50518)
(24.294 -0.157689 4.85068)
(24.4852 0.092354 4.99626)
(24.5679 0.232621 4.98768)
(24.5537 0.268404 4.96193)
(24.5039 0.235571 4.85345)
(24.3596 0.183174 4.95632)
(24.2315 0.110418 4.67034)
(15.9937 0.00605416 -0.0887115)
(15.9884 -0.0529512 -0.194609)
(16.0026 -0.108349 -0.245945)
(16.018 -0.155703 -0.33784)
(16.0351 -0.193013 -0.432918)
(16.0483 -0.212569 -0.366018)
(16.0566 -0.226189 -0.536527)
(16.076 -0.237678 -0.907128)
(16.104 -0.250869 -1.10342)
(16.1306 -0.262775 -1.10863)
(16.1588 -0.272104 -1.13953)
(16.1929 -0.285009 -1.36471)
(16.2477 -0.324419 -1.81118)
(16.3123 -0.400823 -2.57016)
(16.4409 -0.614322 -3.69286)
(17.0469 -1.15215 -4.96601)
(18.0089 -1.33485 -6.46412)
(18.8832 -1.29826 -8.2753)
(19.5365 -1.13471 -9.71057)
(19.9365 -0.829346 -10.1944)
(20.2842 -0.436574 -10.1735)
(20.7989 -0.151568 -10.031)
(21.423 -0.0147173 -9.81258)
(21.9789 0.00429337 -9.3671)
(22.3642 -0.0447811 -8.68244)
(22.5437 -0.108689 -8.01508)
(22.5421 -0.147739 -7.49912)
(22.4222 -0.139814 -6.9767)
(22.231 -0.0942591 -6.23618)
(21.9919 -0.0154646 -5.51615)
(21.7256 0.0893151 -4.97701)
(21.435 0.191405 -4.52825)
(21.1263 0.242337 -4.13515)
(20.8402 0.179793 -3.8274)
(20.6443 -0.00343039 -3.58014)
(20.6055 -0.191826 -3.36998)
(20.6837 -0.24705 -3.22333)
(20.7555 -0.143018 -3.1633)
(20.7358 0.0288485 -3.09882)
(20.6214 0.17743 -3.00622)
(20.4709 0.268264 -2.83179)
(20.3606 0.313693 -2.35541)
(20.2752 0.294861 -1.74086)
(20.252 0.145967 -1.16228)
(20.4699 -0.177811 -0.538468)
(20.9653 -0.551373 0.160411)
(21.1231 -0.73514 0.919955)
(20.7891 -0.653981 1.71697)
(20.4031 -0.541828 2.64351)
(20.577 -0.607196 3.85494)
(21.2436 -0.702363 5.11283)
(21.935 -0.641779 6.14696)
(22.4137 -0.415533 6.75899)
(22.6691 -0.133603 6.88874)
(22.7506 0.100455 6.78565)
(22.6687 0.238657 6.59973)
(22.4614 0.279969 6.51312)
(22.1989 0.263356 6.42393)
(21.8449 0.237544 6.64949)
(21.5305 0.1481 6.44152)
(15.9538 0.0872585 -0.0976006)
(15.9165 0.181391 -0.344406)
(15.9211 0.252631 -0.511353)
(15.9363 0.288236 -0.749695)
(15.9642 0.303654 -1.00094)
(15.9897 0.311486 -0.994681)
(16.0048 0.312172 -1.20941)
(16.032 0.310597 -1.61438)
(16.0696 0.306428 -1.85327)
(16.1049 0.301943 -1.88844)
(16.1386 0.298551 -1.8782)
(16.1711 0.292882 -1.96182)
(16.2204 0.267364 -2.21762)
(16.268 0.188254 -2.70558)
(16.2588 -0.264061 -3.37168)
(16.7684 -1.14825 -3.97324)
(17.7652 -1.34901 -5.08708)
(18.7077 -1.07624 -7.74999)
(19.6372 -0.70567 -11.4446)
(20.4006 -0.37241 -14.2719)