/*--------------------------------*- C++ -*----------------------------------*\
  =========                 |
  \\      /  F ield         | OpenFOAM: The Open Source CFD Toolbox
   \\    /   O peration     | Website:  https://openfoam.org
    \\  /    A nd           | Version:  8
     \\/     M anipulation  |
\*---------------------------------------------------------------------------*/
FoamFile
{
    version     2.0;
    format      ascii;
    class       volScalarField;
    location    "800";
    object      nut;
}
// * * * * * * * * * * * * * * * * * * * * * * * * * * * * * * * * * * * * * //

dimensions      [0 2 -1 0 0 0 0];

internalField   nonuniform List<scalar> 
8400
(
0.000348464
0.000348147
0.000347828
0.000347507
0.000347183
0.000346857
0.000346529
0.000346197
0.000345863
0.000345525
0.000345184
0.000344838
0.000344489
0.000344136
0.000343778
0.000343416
0.000343049
0.000342676
0.000342299
0.000341916
0.000341528
0.000341134
0.000340734
0.000340329
0.000339918
0.000339501
0.00033908
0.000338658
0.000338237
0.000337819
0.000337403
0.000336993
0.00033659
0.000336197
0.000335815
0.000335448
0.0003351
0.000334774
0.000334474
0.000334208
0.000333981
0.0003338
0.000333677
0.000333622
0.000333651
0.000333781
0.000334039
0.000334459
0.000335085
0.000335976
0.000147954
0.000148021
0.000148081
0.000148137
0.000148191
0.000148244
0.000148295
0.000148344
0.000148393
0.00014844
0.000148486
0.000148532
0.000148576
0.000148621
0.000148665
0.000148709
0.000148754
0.000148799
0.000148846
0.000148896
0.000148947
0.000149003
0.000149062
0.000149127
0.000149198
0.000149276
0.000149363
0.000149452
0.000149546
0.000149644
0.000149746
0.000149855
0.00014997
0.000150093
0.000150225
0.000150367
0.00015052
0.000150687
0.000150869
0.000151068
0.000151287
0.000151531
0.000151801
0.000152103
0.000152442
0.000152826
0.000153264
0.000153767
0.00015435
0.000155036
9.32322e-05
9.34097e-05
9.3587e-05
9.37638e-05
9.39399e-05
9.41153e-05
9.42901e-05
9.44642e-05
9.46377e-05
9.48106e-05
9.4983e-05
9.5155e-05
9.53265e-05
9.54978e-05
9.56688e-05
9.58399e-05
9.6011e-05
9.61823e-05
9.63541e-05
9.65266e-05
9.66999e-05
9.68744e-05
9.70504e-05
9.72285e-05
9.74091e-05
9.75928e-05
9.77782e-05
9.7964e-05
9.81503e-05
9.83372e-05
9.85248e-05
9.87133e-05
9.89029e-05
9.90938e-05
9.92862e-05
9.94803e-05
9.96766e-05
9.98752e-05
0.000100077
0.000100281
0.00010049
0.000100703
0.000100921
0.000101146
0.000101378
0.000101618
0.000101869
0.000102132
0.000102411
0.000102708
8.76505e-05
8.78182e-05
8.79862e-05
8.81546e-05
8.83235e-05
8.84927e-05
8.86625e-05
8.88327e-05
8.90034e-05
8.91746e-05
8.93463e-05
8.95186e-05
8.96914e-05
8.98647e-05
9.00387e-05
9.02133e-05
9.03885e-05
9.05643e-05
9.07409e-05
9.09182e-05
9.10962e-05
9.1275e-05
9.14547e-05
9.16351e-05
9.1816e-05
9.19976e-05
9.21798e-05
9.23627e-05
9.25462e-05
9.27304e-05
9.29153e-05
9.31008e-05
9.32871e-05
9.3474e-05
9.36617e-05
9.38501e-05
9.40392e-05
9.42292e-05
9.44199e-05
9.46115e-05
9.48039e-05
9.49972e-05
9.51915e-05
9.53868e-05
9.55832e-05
9.57808e-05
9.59798e-05
9.61804e-05
9.63829e-05
9.65875e-05
8.7775e-05
8.79392e-05
8.81041e-05
8.82696e-05
8.84358e-05
8.86026e-05
8.877e-05
8.89381e-05
8.91069e-05
8.92764e-05
8.94467e-05
8.96176e-05
8.97893e-05
8.99618e-05
9.01351e-05
9.03091e-05
9.04839e-05
9.06595e-05
9.0836e-05
9.10132e-05
9.11911e-05
9.13698e-05
9.15493e-05
9.17295e-05
9.19104e-05
9.20921e-05
9.22744e-05
9.24574e-05
9.26411e-05
9.28253e-05
9.30101e-05
9.31955e-05
9.33812e-05
9.35674e-05
9.37539e-05
9.39407e-05
9.41275e-05
9.43144e-05
9.45011e-05
9.46876e-05
9.48735e-05
9.50587e-05
9.52429e-05
9.54257e-05
9.56069e-05
9.57859e-05
9.59621e-05
9.61349e-05
9.63036e-05
9.6467e-05
8.92891e-05
8.94599e-05
8.96314e-05
8.98036e-05
8.99763e-05
9.01497e-05
9.03236e-05
9.04982e-05
9.06735e-05
9.08494e-05
9.1026e-05
9.12033e-05
9.13814e-05
9.15601e-05
9.17395e-05
9.19197e-05
9.21006e-05
9.22822e-05
9.24646e-05
9.26477e-05
9.28316e-05
9.30162e-05
9.32016e-05
9.33877e-05
9.35746e-05
9.37623e-05
9.39507e-05
9.41398e-05
9.43296e-05
9.45201e-05
9.47113e-05
9.4903e-05
9.50954e-05
9.52883e-05
9.54818e-05
9.56756e-05
9.58699e-05
9.60644e-05
9.62591e-05
9.64539e-05
9.66487e-05
9.68433e-05
9.70375e-05
9.72313e-05
9.74242e-05
9.76162e-05
9.7807e-05
9.79961e-05
9.81834e-05
9.83685e-05
9.02905e-05
9.04651e-05
9.06404e-05
9.08162e-05
9.09927e-05
9.11698e-05
9.13476e-05
9.1526e-05
9.17051e-05
9.1885e-05
9.20655e-05
9.22468e-05
9.24288e-05
9.26116e-05
9.27952e-05
9.29794e-05
9.31645e-05
9.33503e-05
9.35369e-05
9.37243e-05
9.39125e-05
9.41015e-05
9.42912e-05
9.44817e-05
9.4673e-05
9.4865e-05
9.50577e-05
9.52511e-05
9.54451e-05
9.56398e-05
9.58351e-05
9.60309e-05
9.62271e-05
9.64238e-05
9.66207e-05
9.68178e-05
9.70151e-05
9.72122e-05
9.74092e-05
9.76058e-05
9.78017e-05
9.79968e-05
9.81907e-05
9.8383e-05
9.85735e-05
9.87616e-05
9.89467e-05
9.91284e-05
9.93058e-05
9.94781e-05
9.16491e-05
9.18298e-05
9.20113e-05
9.21935e-05
9.23762e-05
9.25595e-05
9.27435e-05
9.29282e-05
9.31135e-05
9.32995e-05
9.34862e-05
9.36736e-05
9.38617e-05
9.40505e-05
9.42401e-05
9.44305e-05
9.46216e-05
9.48135e-05
9.50061e-05
9.51996e-05
9.53938e-05
9.55889e-05
9.57847e-05
9.59812e-05
9.61786e-05
9.63767e-05
9.65755e-05
9.67751e-05
9.69754e-05
9.71763e-05
9.73778e-05
9.758e-05
9.77826e-05
9.79858e-05
9.81893e-05
9.83931e-05
9.85972e-05
9.88013e-05
9.90054e-05
9.92093e-05
9.94128e-05
9.96157e-05
9.98178e-05
0.000100019
0.000100218
0.000100416
0.000100612
0.000100805
0.000100994
0.000101181
9.27718e-05
9.29576e-05
9.31442e-05
9.33314e-05
9.35192e-05
9.37075e-05
9.38966e-05
9.40862e-05
9.42766e-05
9.44676e-05
9.46594e-05
9.48518e-05
9.5045e-05
9.5239e-05
9.54337e-05
9.56292e-05
9.58255e-05
9.60225e-05
9.62204e-05
9.6419e-05
9.66185e-05
9.68188e-05
9.70198e-05
9.72216e-05
9.74242e-05
9.76276e-05
9.78317e-05
9.80365e-05
9.8242e-05
9.84481e-05
9.86549e-05
9.88622e-05
9.90699e-05
9.92781e-05
9.94866e-05
9.96953e-05
9.99041e-05
0.000100113
0.000100321
0.000100529
0.000100737
0.000100944
0.000101149
0.000101353
0.000101555
0.000101754
0.000101951
0.000102145
0.000102334
0.000102519
9.40195e-05
9.42112e-05
9.44037e-05
9.45968e-05
9.47905e-05
9.49847e-05
9.51796e-05
9.53752e-05
9.55714e-05
9.57683e-05
9.59659e-05
9.61643e-05
9.63634e-05
9.65632e-05
9.67638e-05
9.69652e-05
9.71674e-05
9.73703e-05
9.75741e-05
9.77787e-05
9.79841e-05
9.81903e-05
9.83973e-05
9.86051e-05
9.88137e-05
9.9023e-05
9.92331e-05
9.94439e-05
9.96555e-05
9.98677e-05
0.00010008
0.000100294
0.000100508
0.000100722
0.000100937
0.000101151
0.000101366
0.000101581
0.000101796
0.00010201
0.000102224
0.000102437
0.000102648
0.000102858
0.000103066
0.000103271
0.000103474
0.000103673
0.000103868
0.000104058
9.52321e-05
9.543e-05
9.56287e-05
9.5828e-05
9.60279e-05
9.62283e-05
9.64294e-05
9.66312e-05
9.68336e-05
9.70367e-05
9.72405e-05
9.7445e-05
9.76503e-05
9.78563e-05
9.80631e-05
9.82707e-05
9.8479e-05
9.86882e-05
9.88982e-05
9.91089e-05
9.93206e-05
9.9533e-05
9.97462e-05
9.99603e-05
0.000100175
0.000100391
0.000100607
0.000100824
0.000101042
0.000101261
0.00010148
0.0001017
0.00010192
0.000102141
0.000102363
0.000102584
0.000102806
0.000103027
0.000103249
0.00010347
0.000103691
0.000103911
0.00010413
0.000104347
0.000104563
0.000104777
0.000104988
0.000105196
0.0001054
0.0001056
9.6389e-05
9.65928e-05
9.67973e-05
9.70024e-05
9.72079e-05
9.74141e-05
9.76209e-05
9.78283e-05
9.80364e-05
9.82452e-05
9.84546e-05
9.86648e-05
9.88757e-05
9.90874e-05
9.92998e-05
9.9513e-05
9.9727e-05
9.99418e-05
0.000100157
0.000100374
0.000100591
0.000100809
0.000101028
0.000101248
0.000101469
0.00010169
0.000101912
0.000102135
0.000102358
0.000102583
0.000102808
0.000103033
0.000103259
0.000103485
0.000103712
0.000103939
0.000104166
0.000104393
0.000104619
0.000104845
0.00010507
0.000105295
0.000105517
0.000105738
0.000105956
0.000106172
0.000106384
0.000106592
0.000106794
0.00010699
9.76944e-05
9.79054e-05
9.81173e-05
9.83297e-05
9.85426e-05
9.87562e-05
9.89703e-05
9.91851e-05
9.94005e-05
9.96165e-05
9.98333e-05
0.000100051
0.000100269
0.000100488
0.000100708
0.000100928
0.000101149
0.000101371
0.000101594
0.000101818
0.000102042
0.000102268
0.000102494
0.000102721
0.000102949
0.000103178
0.000103407
0.000103638
0.000103869
0.000104101
0.000104333
0.000104567
0.0001048
0.000105035
0.00010527
0.000105505
0.000105741
0.000105977
0.000106213
0.000106449
0.000106684
0.000106919
0.000107154
0.000107387
0.000107619
0.000107849
0.000108077
0.000108302
0.000108525
0.000108744
9.87543e-05
9.89717e-05
9.91897e-05
9.94081e-05
9.9627e-05
9.98464e-05
0.000100066
0.000100287
0.000100508
0.00010073
0.000100952
0.000101175
0.000101399
0.000101624
0.000101849
0.000102075
0.000102302
0.000102529
0.000102758
0.000102987
0.000103217
0.000103448
0.000103679
0.000103912
0.000104145
0.000104379
0.000104614
0.000104849
0.000105085
0.000105322
0.00010556
0.000105798
0.000106036
0.000106275
0.000106514
0.000106754
0.000106993
0.000107232
0.000107471
0.000107709
0.000107946
0.000108182
0.000108416
0.000108648
0.000108878
0.000109104
0.000109325
0.000109542
0.000109752
0.000109955
0.000100381
0.000100608
0.000100835
0.000101063
0.000101291
0.00010152
0.000101749
0.000101979
0.000102209
0.00010244
0.000102671
0.000102903
0.000103136
0.000103369
0.000103603
0.000103837
0.000104072
0.000104308
0.000104545
0.000104782
0.00010502
0.000105259
0.000105499
0.000105739
0.000105981
0.000106223
0.000106465
0.000106709
0.000106953
0.000107198
0.000107443
0.000107689
0.000107935
0.000108182
0.000108429
0.000108677
0.000108924
0.000109171
0.000109419
0.000109665
0.000109911
0.000110157
0.000110401
0.000110643
0.000110884
0.000111123
0.00011136
0.000111594
0.000111825
0.000112053
0.000102247
0.000102489
0.000102731
0.000102972
0.000103214
0.000103455
0.000103696
0.000103938
0.000104179
0.00010442
0.000104661
0.000104903
0.000105145
0.000105387
0.000105629
0.000105871
0.000106114
0.000106356
0.0001066
0.000106843
0.000107087
0.000107331
0.000107576
0.000107821
0.000108066
0.000108311
0.000108556
0.000108802
0.000109047
0.000109292
0.000109537
0.000109781
0.000110024
0.000110266
0.000110507
0.000110746
0.000110983
0.000111217
0.000111448
0.000111675
0.000111898
0.000112114
0.000112325
0.000112527
0.000112721
0.000112904
0.000113076
0.000113233
0.000113375
0.0001135
0.000109313
0.000109595
0.000109876
0.000110156
0.000110435
0.000110712
0.000110987
0.000111261
0.000111533
0.000111805
0.000112075
0.000112344
0.000112611
0.000112878
0.000113143
0.000113408
0.000113672
0.000113934
0.000114196
0.000114457
0.000114718
0.000114977
0.000115235
0.000115492
0.000115748
0.000116003
0.000116256
0.000116507
0.000116756
0.000117003
0.000117246
0.000117487
0.000117723
0.000117954
0.000118179
0.000118398
0.000118609
0.00011881
0.000119
0.000119178
0.000119341
0.000119487
0.000119612
0.000119715
0.00011979
0.000119833
0.000119841
0.000119806
0.000119724
0.000119586
0.000131787
0.000132195
0.000132595
0.000132989
0.000133379
0.000133764
0.000134144
0.000134519
0.00013489
0.000135257
0.000135619
0.000135978
0.000136332
0.000136683
0.00013703
0.000137374
0.000137714
0.00013805
0.000138384
0.000138713
0.00013904
0.000139362
0.000139681
0.000139995
0.000140306
0.000140611
0.000140911
0.000141204
0.000141491
0.000141769
0.000142038
0.000142297
0.000142543
0.000142774
0.000142988
0.000143183
0.000143354
0.000143498
0.00014361
0.000143685
0.000143716
0.000143694
0.000143612
0.000143456
0.000143214
0.000142867
0.000142392
0.000141759
0.000140933
0.000139858
0.000198247
0.00019879
0.000199343
0.000199898
0.000200454
0.00020101
0.000201566
0.000202123
0.00020268
0.000203237
0.000203795
0.000204354
0.000204913
0.000205473
0.000206033
0.000206595
0.000207157
0.000207719
0.000208283
0.000208847
0.00020941
0.000209974
0.000210538
0.0002111
0.00021166
0.000212218
0.000212773
0.000213323
0.000213867
0.000214403
0.00021493
0.000215446
0.000215947
0.000216431
0.000216894
0.000217332
0.00021774
0.000218111
0.000218438
0.000218714
0.000218927
0.000219066
0.000219114
0.000219053
0.000218858
0.000218495
0.00021792
0.00021707
0.000215863
0.00021418
0.000378264
0.000378701
0.000379144
0.000379591
0.000380043
0.000380501
0.000380964
0.000381432
0.000381907
0.000382388
0.000382875
0.000383369
0.00038387
0.000384377
0.000384892
0.000385413
0.000385942
0.000386478
0.000387021
0.000387571
0.000388128
0.000388693
0.000389264
0.000389843
0.00039043
0.000391023
0.000391624
0.000392232
0.000392846
0.000393468
0.000394096
0.000394731
0.000395372
0.000396018
0.00039667
0.000397327
0.000397989
0.000398653
0.00039932
0.000399989
0.000400658
0.000401325
0.000401989
0.000402648
0.000403298
0.000403936
0.000404559
0.000405162
0.000405737
0.000406275
0.00108926
0.00107437
0.00106012
0.00104646
0.00103331
0.00102061
0.0010083
0.000996349
0.000984741
0.00097346
0.000962493
0.000951827
0.000941451
0.000931354
0.000921527
0.00091196
0.000902643
0.000893569
0.000884728
0.000876114
0.000867718
0.000859534
0.000851554
0.000843772
0.000836181
0.000828776
0.00082155
0.000814499
0.000807616
0.000800898
0.000794339
0.000787934
0.00078168
0.000775572
0.000769607
0.000763781
0.000758092
0.000752535
0.000747099
0.000741765
0.000736529
0.000731384
0.000726321
0.000721332
0.000716405
0.000711524
0.000706667
0.000701797
0.000696846
0.000691683
0.0010825
0.0010577
0.00103401
0.00101132
0.000989613
0.00096884
0.000948978
0.000929972
0.000911769
0.00089432
0.000877579
0.000861503
0.000846053
0.000831194
0.000816891
0.000803114
0.000789835
0.000777026
0.000764663
0.000752723
0.000741184
0.000730025
0.000719229
0.000708776
0.000698651
0.000688839
0.000679323
0.00067009
0.000661127
0.000652421
0.00064396
0.000635733
0.000627728
0.000619934
0.000612339
0.000604933
0.000597705
0.000590645
0.000583756
0.000577043
0.000570501
0.000564123
0.000557901
0.00055183
0.000545903
0.000540112
0.000534452
0.000528912
0.000523481
0.000518143
0.00108247
0.00105761
0.00103378
0.00101097
0.000989138
0.000968225
0.000948181
0.000928955
0.000910495
0.000892757
0.000875699
0.000859281
0.000843468
0.000828227
0.000813527
0.00079934
0.000785638
0.000772399
0.000759599
0.000747216
0.000735231
0.000723625
0.00071238
0.00070148
0.000690909
0.000680654
0.000670699
0.000661033
0.000651643
0.000642518
0.000633646
0.000625018
0.000616623
0.000608455
0.000600503
0.000592761
0.000585221
0.000577876
0.000570718
0.000563742
0.000556942
0.000550313
0.000543849
0.000537546
0.0005314
0.000525407
0.000519563
0.000513866
0.000508312
0.000502898
0.00108247
0.00105779
0.00103417
0.00101158
0.000989932
0.00096918
0.000949266
0.00093014
0.000911756
0.000894073
0.000877051
0.000860654
0.000844849
0.000829606
0.000814895
0.000800689
0.000786964
0.000773695
0.000760861
0.000748442
0.000736417
0.000724769
0.00071348
0.000702535
0.000691918
0.000681616
0.000671613
0.0006619
0.000652462
0.000643289
0.00063437
0.000625695
0.000617255
0.000609041
0.000601044
0.000593256
0.00058567
0.00057828
0.000571077
0.000564056
0.000557212
0.000550539
0.000544031
0.000537684
0.000531494
0.000525457
0.00051957
0.000513827
0.000508227
0.000502766
0.00108247
0.00105779
0.00103417
0.00101155
0.000989864
0.000969073
0.000949121
0.000929962
0.000911551
0.000893847
0.000876812
0.000860408
0.000844601
0.000829361
0.000814657
0.000800462
0.00078675
0.000773496
0.000760679
0.000748278
0.000736272
0.000724643
0.000713374
0.000702449
0.000691852
0.000681568
0.000671585
0.000661889
0.000652469
0.000643313
0.000634411
0.000625752
0.000617327
0.000609127
0.000601144
0.000593369
0.000585794
0.000578414
0.000571222
0.00056421
0.000557373
0.000550705
0.000544202
0.000537859
0.00053167
0.000525632
0.000519741
0.000513992
0.000508382
0.000502906
0.00108247
0.00105781
0.00103421
0.00101163
0.000989989
0.000969246
0.000949343
0.000930232
0.000911865
0.000894202
0.000877203
0.00086083
0.00084505
0.000829832
0.000815147
0.000800966
0.000787265
0.000774021
0.000761209
0.000748811
0.000736807
0.000725178
0.000713907
0.000702978
0.000692377
0.000682088
0.000672098
0.000662395
0.000652967
0.000643803
0.000634891
0.000626223
0.000617787
0.000609577
0.000601582
0.000593795
0.000586209
0.000578816
0.000571609
0.000564583
0.000557731
0.000551047
0.000544527
0.000538165
0.000531956
0.000525896
0.000519981
0.000514205
0.000508566
0.000503058
0.00108247
0.00105781
0.00103422
0.00101164
0.000990002
0.000969255
0.000949344
0.000930222
0.000911844
0.000894167
0.000877153
0.000860767
0.000844975
0.000829746
0.00081505
0.000800861
0.000787153
0.000773902
0.000761086
0.000748685
0.000736678
0.000725048
0.000713777
0.000702848
0.000692248
0.000681961
0.000671974
0.000662274
0.000652849
0.000643688
0.00063478
0.000626115
0.000617683
0.000609476
0.000601484
0.000593701
0.000586118
0.000578727
0.000571523
0.000564498
0.000557647
0.000550963
0.000544442
0.000538078
0.000531866
0.000525801
0.000519879
0.000514095
0.000508444
0.000502923
0.00108247
0.00105781
0.00103423
0.00101165
0.000990023
0.000969285
0.000949385
0.000930275
0.000911908
0.000894245
0.000877244
0.000860871
0.000845091
0.000829874
0.000815189
0.00080101
0.000787311
0.000774069
0.000761261
0.000748865
0.000736864
0.000725238
0.00071397
0.000703044
0.000692445
0.000682159
0.000672172
0.000662471
0.000653044
0.000643881
0.00063497
0.000626301
0.000617866
0.000609653
0.000601656
0.000593867
0.000586276
0.000578878
0.000571664
0.00056463
0.000557768
0.000551072
0.000544538
0.000538159
0.000531931
0.000525848
0.000519906
0.0005141
0.000508425
0.000502877
0.00108247
0.00105781
0.00103423
0.00101166
0.000990029
0.000969293
0.000949394
0.000930283
0.000911915
0.000894248
0.000877244
0.000860867
0.000845083
0.00082986
0.00081517
0.000800986
0.000787282
0.000774035
0.000761222
0.000748823
0.000736817
0.000725187
0.000713916
0.000702988
0.000692386
0.000682097
0.000672108
0.000662405
0.000652977
0.000643812
0.0006349
0.00062623
0.000617793
0.000609579
0.00060158
0.000593789
0.000586196
0.000578795
0.000571579
0.000564541
0.000557674
0.000550974
0.000544433
0.000538047
0.000531811
0.000525718
0.000519765
0.000513947
0.000508258
0.000502693
0.00108247
0.00105781
0.00103423
0.00101166
0.000990033
0.000969298
0.000949401
0.000930292
0.000911926
0.000894262
0.00087726
0.000860885
0.000845104
0.000829884
0.000815197
0.000801016
0.000787315
0.00077407
0.000761259
0.000748862
0.000736858
0.00072523
0.00071396
0.000703032
0.000692432
0.000682143
0.000672154
0.000662451
0.000653022
0.000643856
0.000634942
0.00062627
0.00061783
0.000609613
0.000601611
0.000593815
0.000586218
0.000578812
0.000571589
0.000564544
0.00055767
0.000550961
0.00054441
0.000538013
0.000531764
0.000525657
0.000519688
0.000513852
0.000508143
0.000502558
0.00108247
0.00105781
0.00103423
0.00101166
0.000990033
0.000969298
0.000949401
0.000930291
0.000911926
0.000894261
0.00087726
0.000860885
0.000845103
0.000829883
0.000815196
0.000801014
0.000787313
0.000774068
0.000761257
0.000748859
0.000736855
0.000725226
0.000713955
0.000703027
0.000692425
0.000682136
0.000672145
0.00066244
0.00065301
0.000643842
0.000634926
0.000626252
0.000617809
0.00060959
0.000601584
0.000593785
0.000586183
0.000578772
0.000571544
0.000564493
0.000557611
0.000550894
0.000544334
0.000537927
0.000531666
0.000525546
0.000519562
0.00051371
0.000507984
0.000502379
0.00108247
0.00105781
0.00103423
0.00101166
0.000990029
0.000969293
0.000949393
0.000930282
0.000911914
0.000894247
0.000877243
0.000860865
0.000845081
0.000829858
0.000815167
0.000800982
0.000787278
0.000774029
0.000761215
0.000748815
0.000736808
0.000725176
0.000713904
0.000702973
0.000692369
0.000682077
0.000672085
0.000662379
0.000652946
0.000643777
0.000634859
0.000626183
0.000617738
0.000609516
0.000601509
0.000593706
0.000586101
0.000578687
0.000571455
0.000564399
0.000557512
0.000550788
0.000544222
0.000537806
0.000531536
0.000525406
0.00051941
0.000513544
0.000507803
0.000502181
0.00108247
0.00105781
0.00103423
0.00101165
0.000990022
0.000969285
0.000949385
0.000930274
0.000911907
0.000894243
0.000877242
0.000860868
0.000845088
0.000829869
0.000815184
0.000801003
0.000787303
0.000774059
0.000761249
0.000748851
0.000736847
0.000725218
0.000713947
0.000703018
0.000692414
0.000682123
0.00067213
0.000662423
0.000652989
0.000643818
0.000634898
0.000626218
0.00061777
0.000609544
0.000601532
0.000593724
0.000586113
0.000578691
0.000571452
0.000564387
0.000557491
0.000550757
0.000544178
0.000537749
0.000531465
0.000525319
0.000519306
0.000513421
0.000507659
0.000502014
0.00108247
0.00105781
0.00103422
0.00101164
0.000990002
0.000969254
0.000949344
0.000930221
0.000911842
0.000894165
0.000877151
0.000860764
0.000844971
0.00082974
0.000815043
0.000800852
0.000787142
0.000773889
0.000761071
0.000748667
0.000736657
0.000725023
0.000713748
0.000702815
0.000692209
0.000681916
0.000671921
0.000662213
0.000652779
0.000643607
0.000634686
0.000626007
0.000617559
0.000609334
0.000601321
0.000593514
0.000585903
0.000578481
0.00057124
0.000564175
0.000557277
0.00055054
0.000543958
0.000537526
0.000531236
0.000525083
0.000519062
0.000513168
0.000507394
0.000501737
0.00108247
0.00105781
0.00103421
0.00101163
0.000989989
0.000969245
0.000949342
0.00093023
0.000911863
0.000894199
0.000877199
0.000860825
0.000845044
0.000829825
0.000815137
0.000800955
0.000787251
0.000774003
0.000761189
0.000748787
0.000736778
0.000725144
0.000713867
0.000702932
0.000692323
0.000682026
0.000672027
0.000662313
0.000652873
0.000643694
0.000634767
0.00062608
0.000617624
0.000609389
0.000601367
0.00059355
0.000585929
0.000578496
0.000571244
0.000564166
0.000557254
0.000550503
0.000543907
0.000537457
0.00053115
0.000524978
0.000518936
0.000513019
0.000507221
0.000501536
0.00108247
0.00105779
0.00103417
0.00101155
0.000989864
0.000969072
0.00094912
0.00092996
0.000911549
0.000893844
0.000876808
0.000860402
0.000844595
0.000829353
0.000814647
0.000800449
0.000786734
0.000773478
0.000760657
0.000748252
0.000736241
0.000724607
0.000713332
0.000702399
0.000691794
0.000681501
0.000671507
0.000661799
0.000652365
0.000643193
0.000634272
0.000625592
0.000617143
0.000608915
0.0006009
0.000593088
0.000585473
0.000578046
0.000570799
0.000563725
0.000556818
0.00055007
0.000543476
0.000537028
0.00053072
0.000524547
0.000518503
0.000512582
0.000506778
0.000501086
0.00108247
0.00105779
0.00103417
0.00101158
0.000989932
0.000969179
0.000949265
0.000930138
0.000911754
0.000894069
0.000877046
0.000860647
0.000844841
0.000829595
0.000814882
0.000800673
0.000786945
0.000773672
0.000760834
0.00074841
0.000736379
0.000724725
0.000713429
0.000702475
0.000691848
0.000681535
0.00067152
0.000661792
0.000652338
0.000643146
0.000634206
0.000625508
0.000617041
0.000608796
0.000600764
0.000592936
0.000585305
0.000577863
0.000570602
0.000563514
0.000556594
0.000549834
0.000543228
0.000536769
0.000530453
0.000524273
0.000518224
0.000512301
0.000506501
0.00050082
0.00108247
0.00105761
0.00103378
0.00101097
0.000989137
0.000968224
0.00094818
0.000928953
0.000910492
0.000892754
0.000875694
0.000859275
0.00084346
0.000828217
0.000813515
0.000799325
0.000785621
0.000772378
0.000759574
0.000747187
0.000735198
0.000723586
0.000712336
0.00070143
0.000690853
0.00068059
0.000670627
0.000660952
0.000651552
0.000642417
0.000633534
0.000624893
0.000616486
0.000608302
0.000600334
0.000592572
0.00058501
0.000577639
0.000570453
0.000563446
0.000556612
0.000549946
0.000543442
0.000537096
0.000530906
0.000524869
0.000518986
0.000513259
0.000507696
0.000502315
0.0010825
0.0010577
0.00103401
0.00101132
0.000989613
0.000968839
0.000948977
0.000929971
0.000911769
0.00089432
0.00087758
0.000861504
0.000846055
0.000831197
0.000816896
0.000803121
0.000789845
0.000777039
0.000764681
0.000752746
0.000741213
0.000730064
0.000719278
0.000708838
0.00069873
0.000688937
0.000679445
0.000670241
0.000661314
0.000652651
0.000644243
0.000636079
0.00062815
0.000620449
0.000612967
0.000605698
0.000598635
0.000591775
0.000585111
0.000578642
0.000572364
0.000566277
0.000560381
0.000554679
0.000549176
0.000543882
0.000538813
0.000534001
0.000529504
0.000525438
0.00108926
0.00107437
0.00106012
0.00104646
0.00103331
0.00102061
0.0010083
0.000996348
0.000984739
0.000973457
0.000962488
0.00095182
0.000941441
0.000931342
0.000921511
0.00091194
0.000902619
0.000893539
0.000884692
0.00087607
0.000867666
0.000859471
0.000851479
0.000843684
0.000836077
0.000828654
0.000821407
0.000814331
0.00080742
0.000800669
0.000794071
0.000787623
0.000781317
0.000775151
0.000769118
0.000763213
0.000757432
0.000751771
0.000746223
0.000740784
0.000735449
0.000730213
0.000725071
0.000720016
0.000715043
0.000710145
0.000705315
0.000700543
0.000695818
0.000691123
0.000466135
0.000252726
0.000195365
0.000187891
0.000184007
0.00018274
0.000179992
0.000178299
0.000175942
0.000173965
0.000171936
0.000169718
0.000168006
0.000165526
0.000164142
0.0001613
0.000161017
0.000163967
0.000209033
0.000390758
0.00046671
0.000253337
0.000196062
0.000188609
0.000184735
0.000183458
0.000180712
0.000179011
0.000176654
0.000174669
0.000172638
0.000170416
0.0001687
0.000166215
0.000164826
0.000161981
0.000161691
0.000164642
0.000209709
0.000391313
0.00046729
0.000253927
0.000196761
0.000189332
0.000185469
0.000184183
0.000181438
0.000179729
0.000177371
0.00017538
0.000173347
0.000171119
0.0001694
0.000166911
0.000165516
0.000162669
0.000162372
0.000165322
0.000210379
0.000391816
0.000467875
0.000254512
0.000197464
0.000190062
0.000186209
0.000184913
0.000182171
0.000180453
0.000178095
0.000176097
0.000174062
0.000171829
0.000170106
0.000167613
0.000166213
0.000163362
0.000163059
0.000166006
0.000211003
0.000392327
0.000468465
0.000255096
0.000198171
0.000190797
0.000186955
0.000185649
0.00018291
0.000181183
0.000178825
0.000176821
0.000174784
0.000172545
0.000170818
0.000168321
0.000166916
0.000164063
0.000163752
0.000166689
0.000211611
0.000392845
0.00046906
0.000255683
0.000198883
0.000191538
0.000187708
0.000186392
0.000183654
0.00018192
0.000179562
0.00017755
0.000175511
0.000173267
0.000171537
0.000169036
0.000167625
0.00016477
0.00016445
0.000167374
0.000212212
0.000393369
0.00046966
0.000256274
0.000199602
0.000192285
0.000188467
0.00018714
0.000184406
0.000182662
0.000180304
0.000178286
0.000176245
0.000173996
0.000172262
0.000169758
0.000168341
0.000165484
0.000165155
0.000168063
0.000212812
0.0003939
0.000470266
0.00025687
0.000200326
0.000193039
0.000189232
0.000187895
0.000185163
0.000183411
0.000181054
0.000179028
0.000176986
0.000174731
0.000172993
0.000170486
0.000169063
0.000166204
0.000165866
0.000168756
0.000213413
0.000394438
0.000470876
0.000257471
0.000201057
0.000193799
0.000190003
0.000188657
0.000185927
0.000184166
0.000181809
0.000179777
0.000177733
0.000175473
0.000173731
0.00017122
0.000169792
0.00016693
0.000166584
0.000169454
0.000214017
0.000394982
0.000471491
0.000258078
0.000201795
0.000194565
0.000190781
0.000189425
0.000186698
0.000184928
0.000182572
0.000180533
0.000178486
0.000176221
0.000174476
0.000171962
0.000170528
0.000167664
0.000167308
0.000170157
0.000214624
0.000395532
0.000472112
0.00025869
0.000202539
0.000195338
0.000191566
0.000190199
0.000187476
0.000185697
0.000183341
0.000181295
0.000179247
0.000176977
0.000175227
0.00017271
0.00017127
0.000168403
0.000168038
0.000170867
0.000215236
0.00039609
0.000472738
0.000259309
0.000203291
0.000196118
0.000192358
0.00019098
0.00018826
0.000186472
0.000184116
0.000182064
0.000180014
0.000177739
0.000175986
0.000173465
0.000172019
0.00016915
0.000168775
0.000171582
0.000215853
0.000396653
0.000473369
0.000259933
0.000204049
0.000196904
0.000193156
0.000191768
0.000189051
0.000187254
0.000184899
0.000182839
0.000180788
0.000178508
0.000176751
0.000174227
0.000172775
0.000169904
0.000169519
0.000172305
0.000216475
0.000397224
0.000474006
0.000260563
0.000204814
0.000197697
0.000193961
0.000192562
0.000189848
0.000188043
0.000185688
0.000183622
0.000181569
0.000179283
0.000177523
0.000174996
0.000173538
0.000170664
0.00017027
0.000173034
0.000217104
0.000397801
0.000474648
0.000261199
0.000205586
0.000198497
0.000194774
0.000193364
0.000190653
0.000188839
0.000186485
0.000184411
0.000182356
0.000180066
0.000178302
0.000175772
0.000174308
0.000171432
0.000171028
0.000173769
0.000217738
0.000398385
0.000475295
0.000261841
0.000206365
0.000199304
0.000195593
0.000194172
0.000191465
0.000189642
0.000187288
0.000185208
0.000183151
0.000180856
0.000179088
0.000176555
0.000175085
0.000172207
0.000171793
0.000174512
0.000218379
0.000398975
0.000475948
0.000262489
0.000207151
0.000200117
0.000196419
0.000194988
0.000192284
0.000190452
0.000188099
0.000186012
0.000183953
0.000181653
0.000179881
0.000177345
0.00017587
0.000172989
0.000172565
0.000175262
0.000219027
0.000399573
0.000476607
0.000263143
0.000207945
0.000200938
0.000197253
0.00019581
0.00019311
0.000191269
0.000188917
0.000186823
0.000184763
0.000182458
0.000180682
0.000178142
0.000176661
0.000173778
0.000173344
0.000176019
0.000219681
0.000400178
0.000477271
0.000263804
0.000208746
0.000201766
0.000198093
0.00019664
0.000193944
0.000192093
0.000189742
0.000187641
0.000185579
0.00018327
0.00018149
0.000178947
0.00017746
0.000174575
0.000174131
0.000176783
0.000220343
0.00040079
0.000477941
0.00026447
0.000209554
0.000202601
0.000198942
0.000197477
0.000194785
0.000192925
0.000190575
0.000188467
0.000186404
0.000184089
0.000182306
0.00017976
0.000178267
0.000175379
0.000174925
0.000177555
0.000221011
0.000401409
0.000478617
0.000265143
0.000210369
0.000203444
0.000199797
0.000198321
0.000195633
0.000193764
0.000191415
0.0001893
0.000187235
0.000184916
0.000183129
0.00018058
0.000179081
0.000176191
0.000175726
0.000178335
0.000221687
0.000402035
0.000479299
0.000265822
0.000211193
0.000204294
0.000200661
0.000199173
0.000196489
0.000194611
0.000192262
0.000190141
0.000188075
0.000185751
0.000183959
0.000181408
0.000179902
0.000177011
0.000176536
0.000179122
0.00022237
0.000402669
0.000479986
0.000266507
0.000212023
0.000205151
0.000201531
0.000200033
0.000197353
0.000195466
0.000193118
0.00019099
0.000188922
0.000186593
0.000184798
0.000182243
0.000180732
0.000177838
0.000177353
0.000179917
0.00022306
0.00040331
0.00048068
0.000267198
0.000212862
0.000206016
0.00020241
0.0002009
0.000198224
0.000196328
0.000193981
0.000191846