/*--------------------------------*- C++ -*----------------------------------*\
  =========                 |
  \\      /  F ield         | OpenFOAM: The Open Source CFD Toolbox
   \\    /   O peration     | Website:  https://openfoam.org
    \\  /    A nd           | Version:  8
     \\/     M anipulation  |
\*---------------------------------------------------------------------------*/
FoamFile
{
    version     2.0;
    format      ascii;
    class       volScalarField;
    location    "800";
    object      p_rgh;
}
// * * * * * * * * * * * * * * * * * * * * * * * * * * * * * * * * * * * * * //

dimensions      [1 -1 -2 0 0 0 0];

internalField   nonuniform List<scalar> 
8400
(
0.431859
19.2279
35.0267
50.3178
65.382
80.4421
95.6413
111.094
126.904
143.172
160.005
177.517
195.837
215.107
235.491
257.174
280.371
305.327
332.326
361.7
393.833
429.164
468.199
511.564
560.015
614.332
675.202
743.554
820.647
907.881
1006.86
1119.43
1247.73
1394.21
1561.74
1753.63
1973.71
2226.46
2517.12
2851.82
3237.74
3683.41
4199.47
4799.86
5500.96
6316.92
7262.89
8399.63
9893.76
11839.6
-9.35568
4.43624
18.0657
32.1449
46.293
60.5198
74.8916
89.4902
104.401
119.715
135.528
151.945
169.083
187.076
206.075
226.252
247.806
270.965
295.992
323.194
352.936
385.628
421.719
461.744
506.311
556.131
612.117
675.255
746.601
827.433
919.237
1023.73
1142.91
1279.07
1434.84
1613.27
1817.89
2052.74
2322.52
2632.61
2989.19
3399.36
3871.64
4416.46
5045.08
5765.87
6586
7536.39
8700.35
10128.7
22.2744
40.4796
56.5595
71.7957
86.9237
102.173
117.658
133.463
149.672
166.372
183.66
201.644
220.443
240.196
261.059
283.212
306.862
332.241
359.622
389.32
421.716
457.236
496.302
539.393
587.119
640.188
699.491
766.026
840.889
925.356
1020.91
1129.25
1252.37
1392.53
1552.36
1734.88
1943.57
2182.44
2456.09
2769.78
3129.51
3542.07
4015.33
4558.3
5180.14
5887.89
6687.35
7593.46
8636.81
9812.62
-14.7534
-10.4569
-0.577734
11.3928
24.0848
37.1093
50.371
63.874
77.6605
91.7905
106.336
121.382
137.023
153.369
170.547
188.706
208.015
228.664
250.872
274.893
301.028
329.654
361.248
396.29
435.282
478.847
527.718
582.731
644.852
715.204
795.088
886.008
989.702
1108.17
1243.73
1399.02
1577.11
1781.47
2016.12
2285.59
2595.01
2950.18
3357.64
3824.65
4358.48
4965.25
5650.43
6423.14
7298.13
8271.78
37.7416
59.3399
76.2755
91.3183
106.033
120.841
135.891
151.256
166.994
183.171
199.858
217.139
235.11
253.879
273.573
294.34
316.352
339.794
364.866
391.805
420.862
452.343
486.642
524.226
565.604
611.363
662.178
718.822
782.178
853.268
933.267
1023.52
1125.6
1241.26
1372.55
1521.8
1691.64
1885.07
2105.44
2356.49
2642.34
2967.47
3336.65
3754.82
4226.49
4754.85
5341.45
5988.28
6701.6
7480.06
-23.0311
-22.7265
-14.7147
-3.87221
7.9323
20.1567
32.6462
45.3726
58.3533
71.6262
85.2424
99.2641
113.763
128.821
144.536
161.022
178.418
196.903
216.667
237.92
260.896
285.854
313.106
343.019
376.02
412.603
453.341
498.895
550.027
607.62
672.691
746.416
830.147
925.439
1034.07
1158.09
1299.8
1461.82
1647.11
1858.91
2100.81
2376.63
2690.38
3046.05
3447.21
3896.17
4393.11
4937.06
5530.06
6172.78
45.0369
68.9166
86.1153
100.618
114.504
128.347
142.332
156.531
170.983
185.731
200.816
216.293
232.219
248.664
265.697
283.405
301.879
321.244
341.651
363.274
386.306
410.968
437.515
466.244
497.495
531.661
569.195
610.619
656.531
707.626
764.7
828.671
900.592
981.674
1073.3
1177.03
1294.67
1428.21
1579.91
1752.23
1947.87
2169.67
2420.57
2703.47
3020.92
3374.52
3764.04
4188.08
4648.24
5146.94
-27.5663
-29.1221
-21.9902
-11.7069
-0.392118
11.3466
23.3319
35.5217
47.9178
60.5396
73.417
86.5911
100.111
114.037
128.434
143.375
158.941
175.221
192.326
210.383
229.539
249.962
271.848
295.425
320.955
348.743
379.137
412.542
449.421
490.311
535.828
586.682
643.687
707.776
780.014
861.611
953.937
1058.53
1177.09
1311.5
1463.76
1636
1830.35
2048.89
2293.42
2565.01
2863.31
3187.12
3537.88
3918.85
47.2766
71.5321
88.2432
101.892
114.742
127.417
140.11
152.88
165.75
178.732
191.838
205.082
218.485
232.075
245.886
259.959
274.341
289.085
304.255
319.926
336.184
353.128
370.875
389.56
409.341
430.399
452.948
477.234
503.542
532.205
563.605
598.189
636.469
679.039
726.579
779.871
839.804
907.386
983.75
1070.15
1167.96
1278.65
1403.73
1544.74
1703.1
1879.82
2075.01
2288.37
2521.73
2778.99
-28.6997
-30.9824
-24.3961
-14.6132
-3.81527
7.3668
18.7411
30.2506
41.8803
53.6303
65.5061
77.515
89.6675
101.977
114.462
127.141
140.038
153.179
166.594
180.32
194.396
208.868
223.789
239.218
255.225
271.887
289.295
307.549
326.768
347.087
368.66
391.666
416.314
442.843
471.53
502.699
536.723
574.036
615.14
660.613
711.119
767.408
830.326
900.822
979.927
1068.61
1167.57
1277.55
1401.06
1542.67
46.3382
69.912
85.8292
98.6391
110.585
122.277
133.892
145.469
157.011
168.508
179.946
191.312
202.59
213.768
224.831
235.763
246.547
257.164
267.594
277.815
287.802
297.526
306.956
316.059
324.795
333.121
340.99
348.348
355.136
361.29
366.738
371.403
375.202
378.049
379.851
380.519
379.966
378.117
374.921
370.363
364.487
357.428
349.46
341.052
332.937
326.142
322.03
322.579
331.257
353.335
-27.5239
-29.9478
-23.8753
-14.7735
-4.74925
5.57448
15.9936
26.4315
36.8503
47.223
57.5258
67.7345
77.8235
87.7653
97.5289
107.08
116.377
125.377
134.025
142.261
150.013
157.199
163.725
169.478
174.329
178.131
180.708
181.862
181.359
178.934
174.278
167.04
156.816
143.15
125.522
103.356
76.01
42.7847
2.93499
-44.311
-99.7165
-163.977
-237.627
-320.92
-413.681
-515.106
-623.478
-735.845
-847.659
-951.676
42.9567
65.1702
80.2262
92.4
103.758
114.846
125.805
136.654
147.372
157.926
168.278
178.387
188.206
197.682
206.758
215.367
223.432
230.867
237.572
243.431
248.311
252.059
254.499
255.428
254.608
251.771
246.603
238.744
227.779
213.234
194.561
171.134
142.242
107.072
64.7062
14.1144
-45.8518
-116.456
-199.064
-295.122
-406.109
-533.461
-678.431
-841.909
-1024.2
-1224.72
-1441.43
-1670.21
-1904.5
-2135.12
-23.9417
-25.8946
-20.2174
-11.8603
-2.73001
6.58406
15.8696
25.0303
34.0048
42.7406
51.1854
59.2833
66.9726
74.1841
80.8395
86.8495
92.1117
96.5087
99.9053
102.146
103.051
102.413
99.9938
95.5168
88.6639
79.0673
66.3027
49.8806
29.2364
3.71938
-27.4197
-65.0424
-110.138
-163.839
-227.44
-302.412
-390.42
-493.332
-613.222
-752.36
-913.183
-1098.23
-1309.99
-1550.67
-1821.92
-2124.47
-2457.39
-2816.87
-3195
-3577.64
36.2352
56.2173
70.2032
81.8306
92.7875
103.494
114.041
124.418
134.587
144.497
154.092
163.308
172.072
180.303
187.907
194.777
200.786
205.792
209.629
212.102
212.99
212.033
208.931
203.336
194.846
182.992
167.234
146.943
121.392
89.7401
51.0129
4.08485
-52.3437
-119.77
-199.917
-294.757
-406.542
-537.828
-691.484
-870.699
-1078.96
-1319.99
-1597.6
-1915.32
-2275.99
-2681.41
-3131.7
-3623.1
-4144.42
-4675.24
-17.1395
-17.3796
-11.4267
-3.38145
5.20365
13.8223
22.2755
30.4599
38.2995
45.7233
52.6566
59.0171
64.7121
69.6362
73.669
76.6725
78.4882
78.9337
77.7991
74.8423
69.7844
62.3034
52.0277
38.5286
21.3108
-0.197722
-26.6575
-58.8315
-97.6012
-143.984
-199.156
-264.472
-341.497
-432.034
-538.157
-662.248
-807.039
-975.646
-1171.61
-1398.91
-1661.99
-1965.79
-2315.6
-2716.77
-3174.14
-3692.08
-4275.01
-4925.09
-5633.43
-6369.03
23.7336
40.9107
53.6216
64.7172
75.2801
85.5718
95.6345
105.444
114.952
124.1
132.82
141.032
148.647
155.56
161.65
166.777
170.781
173.473
174.637
174.023
171.338
166.247
158.356
147.214
132.294
112.986
88.5819
58.2614
21.0718
-24.0923
-78.5138
-143.682
-221.327
-313.457
-422.406
-550.883
-702.039
-879.531
-1087.6
-1331.15
-1615.84
-1948.22
-2335.82
-2786.91
-3309.73
-3912.68
-4606.69
-5403.45
-6296.42
-7235.02
-8.94174
-4.58881
3.17879
11.9442
20.7872
29.4316
37.7633
45.7098
53.2032
60.1699
66.526
72.1748
77.0051
80.8887
83.6778
85.202
85.2645
83.6384
80.0619
74.2321
65.7994
54.3592
39.444
20.5122
-3.06258
-32.0063
-67.1597
-109.498
-160.152
-220.434
-291.868
-376.226
-475.57
-592.299
-729.21
-889.569
-1077.19
-1296.54
-1552.85
-1852.23
-2201.82
-2610.03
-3086.85
-3643.78
-4292.62
-5044.75
-5915.59
-6930.41
-8102.24
-9367.07
1.81285
20.5671
32.6507
43.3962
53.5109
63.2384
72.6217
81.6422
90.2542
98.3958
105.991
112.951
119.169
124.524
128.874
132.055
133.876
134.118
132.524
128.802
122.608
113.547
101.162
84.9211
64.2103
38.3168
6.41478
-32.4535
-79.399
-135.711
-202.887
-282.668
-377.076
-488.469
-619.593
-773.658
-954.416
-1166.27
-1414.42
-1704.95
-2045.06
-2443.32
-2910.37
-3459.29
-4104.12
-4857.61
-5739.17
-6802.67
-8134.06
-9708.08
-1.14747
8.48396
18.2412
27.9908
37.4723
46.6252
55.4104
63.785
71.6941
79.0695
85.8293
91.8766
97.0979
101.362
104.515
106.38
106.754
105.399
102.042
96.3655
88.0032
76.5308
61.4566
42.2113
18.1349
-11.538
-47.6951
-91.367
-143.751
-206.24
-280.453
-368.278
-471.921
-593.958
-737.413
-905.839
-1103.43
-1335.18
-1607.05
-1926.19
-2301.26
-2742.95
-3265.14
-3886.17
-4627.94
-5513.14
-6577.38
-7924.73
-9764.57
-12141.5
29234.8
21072.7
17039.7
15521.3
14686.9
14078.1
13654.4
13370.1
13169.9
13018.9
12899.2
12801
12717.7
12645
12579.7
12519.7
12463.4
12409.8
12357.7
12306.5
12255.5
12204
12151.4
12097.1
12040.3
11980.5
11916.8
11848.4
11774.2
11693
11603.6
11504.5
11393.8
11269.6
11129.5
10970.4
10788.9
10581.1
10342
10065.9
9745.41
9372.06
8935.15
8421.16
7812.62
7086.07
6208.54
5130.8
3772.42
1996.73
3699.87
8289.08
9790.8
10357.1
10791.4
11117
11341.4
11501.5
11620.3
11709.1
11775.2
11823.9
11859.3
11883.9
11899.7
11908.3
11910.6
11907.3
11899.2
11886.5
11869.4
11848.1
11822.5
11792.4
11757.7
11718
11672.7
11621.2
11562.8
11496.3
11420.6
11334.2
11235.5
11122.5
10992.8
10843.8
10672.3
10474.3
10245.1
9979.52
9670.72
9310.57
8889.08
8393.92
7809.65
7116.71
6290.14
5298.44
4104.07
2673.15
11029.3
13199.4
14382.5
14485.2
14328.5
14156.9
13970.6
13779.4
13601
13441.9
13301.1
13176.2
13064.7
12964.5
12873.5
12789.9
12712.4
12639.6
12570.4
12504
12439.3
12375.8
12312.5
12248.8
12184
12117.2
12047.7
11974.6
11897
11813.7
11723.6
11625.1
11516.5
11395.8
11260.5
11108.1
10935.5
10738.9
10514.1
10255.7
9957.87
9613.22
9213.12
8747.18
8203
7565.9
6818.84
5943.3
4922.05
3746.8
11378
11787
11978.5
11906.9
11804.7
11761.3
11749.7
11747.4
11751.7
11761.6
11774.2
11787
11798.4
11807.5
11813.9
11817.3
11817.5
11814.4
11807.9
11798
11784.8
11767.9
11747.4
11722.9
11694.3
11661
11622.6
11578.4
11527.9
11470.1
11404.3
11329.1
11243.2
11144.9
11032.3
10902.9
10754
10582.3
10384.1
10154.8
9889.21
9581.3
9223.93
8808.95
8327.14
7768.47
7122.76
6381.3
5540.25
4606.41
11917
12166.1
12482.7
12714.4
12854.3
12943.6
12995.9
13014.8
13008.5
12985.5
12951.8
12910.8
12865.2
12816.7
12766.4
12715.1
12663.3
12611.2
12558.9
12506.3
12453.2
12399.6
12345.1
12289.4
12232.2
12173.1
12111.3
12046.2
11977.1
11903.1
11823
11735.9
11640.5
11535.1
11418
11287
11139.8
10973.4
10784.6
10569.6
10324
10043
9720.81
9351.4
8928.25
8444.86
7895.6
7277.15
6590.85
5845.51
12120.7
12206.4
12314.5
12376.5
12379.2
12351.1
12312.6
12270.4
12227.2
12186
12148
12113.6
12082.4
12053.7
12027.1
12002
11977.8
11954.1
11930.4
11906.3
11881.5
11855.5
11828
11798.7
11767.1
11732.8
11695.4
11654.4
11609.2
11559
11503
11440.3
11369.8
11290.3
11200.1
11097.6
10980.9
10847.5
10694.9
10520
10319.4
10089.5
9825.97
9524.67
9181.35
8792.29
8355.02
7869.5
7339.75
6775.29
12233.9
12278.3
12350
12422.2
12477.5
12518.5
12550.1
12573
12587.1
12592.9
12591.7
12584.5
12572
12555.1
12534.3
12510.3
12483.4
12454.1
12422.6
12389.1
12353.8
12316.8
12278
12237.4
12194.7
12149.8
12102.4
12052.3
11998.9
11941.9
11880.4
11813.9
11741.5
11662.3
11574.9
11478.2
11370.5
11250.1
11115
10962.9
10791.3
10597.5
10378.6
10131.8
9854.61
9544.99
9202.21
8827.53
8425.08
8002.19
12292.4
12314.6
12352.4
12392.4
12420.5
12433.4
12433.6
12423.6
12405.6
12381.5
12353.3
12322.7
12290.7
12258.1
12225.4
12193
12161
12129.3
12098.1
12067.2
12036.3
12005.5
11974.4
11942.8
11910.5
11877.1
11842.4
11806.1
11767.6
11726.6
11682.6
11634.9
11583
11526
11463.2
11393.5
11315.9
11229.1
11131.7
11022.2
10898.9
10760.1
10604.1
10429.1
10234
10018
9781.47
9526.2
9256.16
8977.5
12323.8
12337.4
12362.5
12393.1
12420.6
12440.9
12454.1
12461.2
12463.1
12460.3
12453.4
12443.2
12430.1
12414.4
12396.6
12376.9
12355.5
12332.6
12308.3
12282.7
12256
12228.1
12199.2
12169.2
12138
12105.7
12072.2
12037.3
12000.8
11962.7
11922.5
11880.1
11835.1
11787.1
11735.6
11680.1
11620
11554.5
11483
11404.6
11318.4
11223.6
11119.3
11004.9
10880
10744.6
10599.5
10446.4
10288.2
10128.8
12337.9
12348
12367.2
12391.8
12414.7
12431.4
12440.6
12442.8
12438.7
12429
12414.7
12396.7
12376
12353.3
12329.1
12303.8
12277.9
12251.5
12224.8
12198
12171.1
12144.1
12117.1
12090.1
12063
12035.8
12008.5
11980.9
11953.1
11924.9
11896.2
11867
11837.1
11806.4
11774.8
11742
11708
11672.5
11635.4
11596.5
11555.8
11513
11468.2
11421.6
11373.4
11324.2
11275.1
11227.3
11183
11144.6
12339.1
12349.2
12368.5
12393.1
12416.1
12433
12442.4
12444.9
12441
12431.6
12417.7
12400.3
12380.2
12358.1
12334.8
12310.5
12285.7
12260.6
12235.5
12210.5
12185.7
12161.2
12137.1
12113.5
12090.3
12067.7
12045.6
12024.2
12003.5
11983.6
11964.6
11946.7
11929.9
11914.4
11900.5
11888.3
11878.2
11870.5
11865.6
11864
11866.3
11873
11885
11903
11928
11961
12002.8
12054.6
12117.2
12191.3
12327.3
12341
12366.2
12397.1
12424.9
12445.6
12459.4
12467.2
12469.9
12468
12462.3
12453.5
12442
12428.2
12412.7
12395.6
12377.2
12357.9
12337.8
12317.1
12296.1
12275
12254
12233.2
12212.9
12193.3
12174.6
12157.1
12141
12126.5
12114.2
12104.2
12097.2
12093.4
12093.6
12098.4
12108.5
12124.7
12148.2
12179.9
12221.1
12273.2
12337.6
12415.9
12509.6
12620
12748.2
12894.7
13059.5
13241.6
12298.2
12320.5
12358.5
12398.8
12427.6
12441.2
12442.2
12433.4
12416.8
12394.3
12368.2
12339.9
12310.7
12281.3
12252.5
12224.6
12197.8
12172.4
12148.4
12125.9
12104.9
12085.6
12068
12052.1
12038.1
12026.1
12016.4
12009.1
12004.6
12003.1
12005.3
12011.5
12022.4
12038.7
12061.3
12091.2
12129.4
12177.4
12236.7
12308.9
12395.9
12499.9
12623
12767.6
12935.8
13129.5
13350
13597.8
13871.9
14170.2
12241.7
12286.3
12358.3
12431.1
12487.2
12529.1
12561.9
12586.4
12602.3
12610.3
12611.7
12607.6
12598.8
12586.1
12570.4
12552.3
12532.4
12511.2
12489.3
12467
12444.8
12423
12402
12382.3
12364.1
12347.8
12334
12323
12315.5
12311.9
12313.1
12319.7
12332.7
12353.2
12382.2
12421.2
12471.8
12535.7
12615
12712.1
12829.5
12970.1
13136.9
13333
13561.4
13824.9
14125.1
14462.5
14835.3
15239.6
12130.5
12216.3
12324.8
12387.5
12391.1
12364.2
12327.4
12287
12246.2
12207.8
12173.2
12142.8
12116.2
12093
12072.8
12055.3
12039.9
12026.6
12015
12005.1
11996.8
11990.2
11985.4
11982.6
11982
11983.9
11988.8
11997
12009.3
12026.2
12048.5
12077.2
12113.3
12158.1
12213.1
12280
12360.7
12457.4
12572.8
12709.7
12871.5
13061.7
13284.4
13543.7
13843.8
14188.6
14581.2
15022.7
15511.8
16044.3
11928.5
12177.8
12494.9
12727.3
12868.3
12959
13013.1
13034.3
13030.5
13010.8
12980.9
12944.5
12904.2
12862
12819.2
12776.7
12735.1
12695
12656.8
12620.6
12586.9
12555.8
12527.6
12502.6
12481.3
12463.8
12450.9
12442.8
12440.5
12444.5
12455.8
12475.4
12504.6
12544.8
12597.8
12665.4
12749.9
12854
12980.6
13133.4
13316.1
13533.3
13789.9
14091.3
14443
14850.6
15318.7
15850.4
16444.8
17096.4
11390.8
11800.1
11992.1
11921.3
11820.3
11778.5
11768.9
11769.2
11776.5
11790
11807
11824.9
11842.3
11858.6
11873.4
11886.6
11898.2
11908.6
11917.8
11926.4
11934.6
11943
11951.9
11961.8
11973.4
11987.2
12004
12024.4
12049.3
12079.7
12116.8
12161.9
12216.3
12281.8
12360.4
12454.3
12566.2
12699.1
12856.5
13042.4
13261.5
13519
13821
14174.3
14586.3
15064.9
15617.8
16251.9
16970.3
17771.3
11043.2
13213.5
14397.2
14500.8
14345.5
14175.5
13991.4
13803
13627.9
13472.8
13336.7
13217.4
13112.5
13020.1
12938.2
12865.4
12800.4
12742.3
12690.3
12644
12602.9
12566.9
12535.8
12509.8
12488.9
12473.5
12463.9
12460.8
12464.7
12476.7
12497.6
12528.8
12571.6
12627.9
12699.6
12789.1
12899.3
13033.3
13195
13388.9
13620.1
13894.6
14219.4
14602.8
15054.2
15584.2
16204.8
16928.3
17764.8
18719.6
3714.47
8303.93
9806.24
10373.5
10809.1
11136.5
11363.1
11526
11648.3
11741.2
11812.2
11866.7
11908.9
11941.5
11966.9
11986.5
12001.8
12013.9
12023.6
12031.7
12039.1
12046.4
12054.2
12063.3
12074.3
12088
12105.1
12126.6
12153.5
12186.8
12227.9
12278.2
12339.4
12413.4
12502.5
12609.2
12736.7
12888.3
13068.3
13281.4
13533.3
13830.5
14181
14594.1
15081.2
15656
16335.4
17139.9
18093.3
19221.6
29249.7
21087.9
17055.5
15538
14705
14098.2
13677
13395.6
13199
13052.2
12937.5
12845.4
12769.3
12704.9
12649.4
12600.9
12558.1
12520.3
12486.7
12457.2
12431.4
12409.5
12391.5
12377.6
12368.1
12363.5
12364.3
12371.2
12385.1
12406.9
12437.8
12479.2
12532.6
12600.1
12683.9
12786.4
12911
13061
13240.7
13455.2
13710.1
14012.5
14370.8
14795.1
15298.2
15896.1
16610.7
17472.7
18529
19861.8
-20153.8
-15538.2
-13967.3
-10009
-8041.99
-4623.9
-2522.01
533.704
2639.08
5448.36
7479.65
10123.8
12022.9
14571
16279
18802.7
20235.2
22819.5
23820.6
26454.8
-20083.8
-15480.2
-13918.2
-9961.09
-8000.04
-4579.56
-2482.45
576.372
2678.28
5490.67
7519.42
10167.1
12064.5
14617.4
16325.1
18856.8
20293
22893.2
23909.1
26582.9
-20021.9
-15420.2
-13866.9
-9909.95
-7954.76
-4532.36
-2439.53
621.996
2720.79
5536.28
7562.85
10214.2
12110.6
14668.3
16376.9
18915.7
20356.6
22968.3
23994.9
26687.1
-19964.5
-15360.8
-13814.5
-9856.84
-7907.09
-4482.74
-2393.99
670.202
2765.99
5584.64
7609.19
10264.3
12159.8
14722.3
16431.8
18976.8
20421.5
23041.3
24073.9
26774.7
-19909.3
-15302.1
-13761.4
-9802.41
-7857.67
-4431.16
-2346.34
720.573
2813.43
5635.26
7657.83
10316.6
12211.3
14778.2
16488.3
19038.5
20485.7
23111.1
24146.6
26852.8
-19855.1
-15243.9
-13708
-9747.04
-7806.93
-4378.04
-2297
772.699
2862.68
5687.66
7708.24
10370.6
12264.2
14835.1
16545.4
19099.9
20548.4
23178
24214.4
26924.6
-19801.4
-15185.8
-13654.1
-9690.94
-7755.16
-4323.71
-2246.33
826.211
2913.33
5741.41
7759.93
10425.7
12318.1
14892.5
16602.6
19160.6
20609.4
23242.3
24278.6
26992.1
-19747.8
-15127.7
-13600
-9634.25
-7702.6
-4268.43
-2194.62
880.796
2965.05
5796.16
7812.54
10481.5
12372.4
14950.1
16659.5
19220.5
20668.8
23304.4
24339.9
27056.5
-19694.2
-15069.4
-13545.5
-9577.07
-7649.4
-4212.41
-2142.11
936.189
3017.57
5851.62
7865.75
10537.7
12427
15007.5
16715.9
19279.5
20726.9
23364.7
24399.1
27118.5
-19640.5
-15010.9
-13490.7
-9519.48
-7595.69
-4155.82
-2089
992.178
3070.66
5907.55
7919.35
10594.1
12481.5
15064.7
16771.7
19337.6
20783.7
23423.5
24456.5
27178.7
-19586.6
-14952.3
-13435.7
-9461.55
-7541.6
-4098.8
-2035.43
1048.59
3124.13
5963.77
7973.15
10650.5
12536
15121.6
16826.9
19395
20839.5
23481.1
24512.5
27237.4
-19532.6
-14893.4
-13380.4
-9403.34
-7487.2
-4041.47
-1981.55
1105.28
3177.86
6020.15
8027.03
10706.8
12590.3
15178.1
16881.6
19451.6
20894.3
23537.7
24567.4
27295
-19478.4
-14834.3
-13325
-9344.93
-7432.59
-3983.9
-1927.45
1162.15
3231.73
6076.58
8080.9
10763
12644.3
15234.2
16935.8
19507.6
20948.4
23593.3
24621.3
27351.5
-19424.1
-14775.1
-13269.4
-9286.35
-7377.82
-3926.2
-1873.22
1219.11
3285.66
6132.98
8134.69
10819.1
12698.1
15289.9
16989.4
19563
21001.7
23648.2
24674.5
27407.3
-19369.6
-14715.8
-13213.7
-9227.67
-7322.96
-3868.41
-1818.93
1276.08
3339.58
6189.3
8188.35
10874.8
12751.5
15345.2
17042.6
19617.8
21054.5
23702.5
24726.8
27462.3
-19315.1
-14656.4
-13158
-9168.92
-7268.06
-3810.59
-1764.62
1333.02
3393.45
6245.48
8241.85
10930.4
12804.7
15400.1
17095.3
19672.2
21106.7
23756.1
24778.6
27516.7
-19260.6
-14597
-13102.2
-9110.15
-7213.15
-3752.8
-1710.35
1389.88
3447.22
6301.5
8295.17
10985.6
12857.6
15454.7
17147.7
19726
21158.4
23809.2
24829.8
27570.6
-19206.1
-14537.5
-13046.5
-9051.41
-7158.29
-3695.06
-1656.14
1446.62
3500.86
6357.33
8348.29
11040.6
12910.2
15508.9
17199.6
19779.5
21209.7
23861.9
24880.6
27624
-19151.6
-14478.1
-12990.9
-8992.71
-7103.49
-3637.42
-1602.04
1503.21
3554.36
6412.96
8401.19
11095.4
12962.5
15562.8
17251.2
19832.5
21260.5
23914.1
24930.9
27677
-19097.2
-14418.7
-12935.3
-8934.09
-7048.79
-3579.89
-1548.06
1559.64
3607.69
6468.35
8453.88
11149.8
13014.5
15616.3
17302.5
19885.2
21310.9
23965.9
24980.7
27729.5
-19042.9
-14359.4
-12879.8
-8875.57
-6994.21
-3522.5
-1494.23
1615.89
3660.84
6523.52
8506.33
11204
13066.2
15669.5
17353.4
19937.5
21361
24017.3
25030.2
27781.7
-18988.7
-14300.2
-12824.5
-8817.18
-6939.77
-3465.27
-1440.55
1671.93
3713.8
6578.43
8558.56
11257.8
13117.7
15722.4
17404
19989.5
21410.8
24068.4
25079.3
27833.5
-18934.6
-14241.2
-12769.3
-8758.94
-6885.49
-3408.22
-1387.06
1727.76
3766.55
6633.1
8610.56
11311.4
13168.8
15775
17454.4
20041.1
21460.2
24119.1
25128.1
27885
-18880.7
-14182.2
-12714.2
-8700.86
-6831.38
-3351.36
-1333.75
1783.36
3819.1
6687.52
8662.32
11364.7
13219.8
15827.3
17504.4
20092.5
21509.3
24169.5
25176.5
27936.2
-18827
-14123.4
-12659.4
-8642.96
-6777.46
-3294.71
-1280.63
1838.73
3871.44
6741.67
8713.84
11417.7
13270.4
15879.3
17554.1
20143.5
21558.1
24219.6
25224.7
27987
-18773.5
-14064.8
-12604.7
-8585.25
-6723.73
-3238.28
-1227.72
1893.86
3923.56
6795.55
8765.13
11470.5
13320.9
15931
17603.6
20194.2
21606.6
24269.4
25272.5
28037.6
-18720.1
-14006.4
-12550.3
-8527.75
-6670.21
-3182.07
-1175.02
1948.74
3975.46
6849.17
8816.19
11522.9
13371
15982.4
17652.8
20244.6
21654.8
24319
25320
28087.9
-18667
-13948.2
-12496.1
-8470.46
-6616.91
-3126.09
-1122.54
2003.37
4027.13
6902.52
8867
11575.1
13420.9
16033.5
17701.7
20294.8
21702.8
24368.2
25367.3
28137.9
-18614.1
-13890.2
-12442.1
-8413.39
-6563.83
-3070.36
-1070.29
2057.74
4078.57
6955.59
8917.59
11627
13470.6
16084.3
17750.4
20344.6
21750.4
24417.2
25414.2
28187.7
-18561.5
-13832.4
-12388.3
-8356.55
-6510.98
-3014.87
-1018.26
2111.84
4129.78
7008.39
8967.93
11678.6
13520
16134.8
17798.8
20394.2
21797.8
24465.8
25460.9
28237.2
-18509.1
-13774.8
-12334.8
-8299.95
-6458.36
-2959.64
-966.46
2165.68
4180.76
7060.91
9018.03
11729.9
13569.2
16185.1
17847
20443.5
21845
24514.3
25507.3
28286.4
-18456.9
-13717.4
-12281.5
-8243.6
-6405.99
-2904.66
-914.896
2219.24
4231.51
7113.14
9067.9
11780.9
13618.1
16235
17894.9
20492.5
21891.9
24562.4
25553.4
28335.4
-18405
-13660.3
-12228.5
-8187.49
-6353.85
-2849.95
-863.57
2272.53
4282.02
7165.09
9117.53
11831.7
13666.8
16284.7
17942.6
20541.2
21938.5
24610.3
25599.3
28384.1
-18353.3
-13603.4
-12175.7
-8131.64
-6301.97
-2795.51
-812.484
2325.53
4332.3
7216.76
9166.92
11882.1
13715.2
16334.1
17990
20589.7
21984.8
24657.9
25644.9
28432.5
-18301.9
-13546.8
-12123.2
-8076.05
-6250.33
-2741.34
-761.639
2378.26
4382.33
7268.14
9216.08
11932.3
13763.4
16383.2
18037.1
20637.9
22030.9
24705.3
25690.2
28480.8
-18250.8
-13490.4
-12070.9
-8020.72
-6198.94
-2687.44
-711.039
2430.7
4432.13
7319.22
9264.99
11982.2
13811.3
16432
18084
20685.8
22076.8
24752.3
25735.3
28528.7
-18200
-13434.3
-12019
-7965.66
-6147.82
-2633.82
-660.684
2482.85
4481.69
7370.02
9313.67
12031.8
13859
16480.6
18130.7
20733.4
22122.4
24799.2
25780.1
28576.4
-18149.4
-13378.4
-11967.3
-7910.87
-6096.94
-2580.49
-610.576
2534.72
4531
7420.52
9362.11
12081.1
13906.5
16528.8
18177.1
20780.8
22167.7
24845.7
25824.6
28623.9
-18099.1
-13322.8
-11915.8
-7856.35
-6046.33
-2527.44
-560.716
2586.29
4580.08
7470.72
9410.3
12130
13953.7
16576.8
18223.2
20827.8
22212.8
24892
25868.9
28671.1
-18049.1
-13267.5
-11864.7
-7802.11
-5995.98
-2474.68
-511.106
2637.56
4628.91
7520.63
9458.26
12178.7
14000.7
16624.5
18269.2
20874.6
22257.6
24938.1
25912.9
28718
-17999.4
-13212.4
-11813.8
-7748.15
-5945.9
-2422.21
-461.747
2688.54
4677.5
7570.23
9505.98
12227.2
14047.5
16671.9
18314.8
20921.2
22302.2
24983.8
25956.7
28764.7
-17950
-13157.6
-11763.2
-7694.47
-5896.07
-2370.03
-412.639
2739.21
4725.85
7619.53
9553.46
12275.3
14094
16719
18360.2
20967.4
22346.5
25029.4
26000.2
28811.2
-17900.8
-13103.1
-11712.9
-7641.07
-5846.51
-2318.14
-363.783
2789.58
4773.95
7668.53
9600.69
12323.1
14140.2
16765.8
18405.4
21013.4
22390.5
25074.6
26043.4
28857.4
-17852
-13048.8
-11662.9
-7587.96
-5797.22
-2266.56
-315.18
2839.65
4821.81
7717.22
9647.69
12370.6
14186.2
16812.3
18450.3
21059.1
22434.3
25119.6
26086.3
28903.3
-17803.4
-12994.8
-11613.1
-7535.14
-5748.2
-2215.27
-266.83
2889.41
4869.42
7765.6
9694.44
12417.8
14232
16858.5
18495
21104.5
22477.9
25164.3
26129
28949
-17755.1
-12941.1
-11563.7
-7482.61
-5699.44
-2164.29
-218.735
2938.86
4916.79
7813.67
9740.95
12464.6
14277.5
16904.4
18539.4
21149.6
22521.2
25208.8
26171.4
28994.5
-17707.1
-12887.7
-11514.5
-7430.37
-5650.96
-2113.61
-170.894
2988
4963.92
7861.43
9787.23
12511.2
14322.8
16950.1
18583.6
21194.5
22564.2
25253
26213.6
29039.7
-17659.4
-12834.5
-11465.6
-7378.43
-5602.74
-2063.24
-123.308
3036.82
5010.79
7908.87
9833.26
12557.5
14367.9
16995.4
18627.5
21239
22607
25296.9
26255.5
29084.6
-17612
-12781.7
-11417
-7326.78
-5554.79
-2013.18
-75.977
3085.33
5057.43
7956
9879.04
12603.5
14412.7
17040.4
18671.2
21283.3
22649.5
25340.6
26297.1
29129.3
-17565
-12729.1
-11368.7
-7275.44
-5507.12
-1963.42
-28.9013
3133.52
5103.82
8002.81
9924.59
12649.1
14457.2
17085.2
18714.7
21327.3
22691.8
25383.9
26338.4
29173.7
-17518.2
-12676.8
-11320.7
-7224.39
-5459.71
-1913.99
17.9187
3181.39
5149.96
8049.29
9969.9
12694.5
14501.5
17129.6
18757.8
21371
22733.8
25427.1
26379.5
29217.9
-17471.7
-12624.8
-11273
-7173.65
-5412.58
-1864.86
64.4831
3228.94
5195.85
8095.46
10015
12739.5
14545.6
17173.7
18800.8
21414.4
22775.5
25469.9
26420.3
29261.8
-17425.5
-12573
-11225.5
-7123.21
-5365.71
-1816.05
110.792
3276.17
5241.5
8141.3
10059.8
12784.2
14589.4
17217.5
18843.4
21457.6
22817
25512.5
26460.9
29305.4
-17379.6
-12521.6
-11178.4
-7073.08
-5319.13
-1767.57
156.845
3323.07
5286.91
8186.82
10104.4
12828.6
14633
17261
18885.9
21500.4
22858.2
25554.8
26501.2
29348.8
-17334
-12470.4
-11131.6
-7023.25
-5272.81
-1719.4
202.642
3369.64
5332.07
8232.01
10148.7
12872.6
14676.3
17304.3
18928
21543
22899.2
25596.8
26541.2
29392
-17288.7
-12419.6
-11085
-6973.74
-5226.76
-1671.55
248.183
3415.88
5376.98
8276.86
10192.8
12916.4
14719.4
17347.2
18970
21585.2
22939.9
25638.6
26580.9
29434.9
-17243.7
-12369
-11038.8
-6924.53
-5180.99
-1624.03
293.469
3461.79
5421.65
8321.39
10236.6
12959.8
14762.3
17389.7
19011.6
21627.2
22980.3
25680.1
26620.3
29477.5
-17199
-12318.8
-10992.8
-6875.64
-5135.49
-1576.84
338.499
3507.37
5466.07
8365.58
10280.3
13002.9
14804.9
17432
19053
21668.9
23020.5
25721.3
26659.5
29519.8
-17154.7
-12268.8
-10947.1
-6827.06
-5090.26
-1529.98
383.275
3552.6
5510.25
8409.44
10323.6
13045.7
14847.2
17474
19094.2
21710.3
23060.4
25762.2
26698.4
29561.9
-17110.6
-12219.1
-10901.8
-6778.8
-5045.31
-1483.45
427.795
3597.51
5554.19
8452.96
10366.8
13088.1
14889.3
17515.6
19135.1
21751.3
23100
25802.9
26737
29603.7
-17066.8
-12169.8
-10856.7
-6730.86
-5000.62
-1437.25
472.061
3642.07
5597.88
8496.14
10409.6
13130.2
14931.2
17557
19175.8
21792.1
23139.4
25843.2
26775.4
29645.3
-17023.4
-12120.7
-10811.9
-6683.24
-4956.21
-1391.38
516.073
3686.28
5641.32
8538.98
10452.3
13172
14972.8
17598
19216.2
21832.6
23178.5
25883.3
26813.4
29686.6
-16980.2
-12071.9
-10767.4
-6635.93
-4912.07
-1345.85
559.831
3730.16
5684.53
8581.48
10494.7
13213.4
15014.2
17638.7
19256.3
21872.8
23217.4
25923.2
26851.2
29727.7
-16937.4
-12023.4
-10723.2
-6588.95
-4868.21
-1300.66
603.336
3773.69
5727.49
8623.63
10536.9
13254.5
15055.3
17679.1
19296.2
21912.7
23256
25962.7
26888.8
29768.4
-16894.8
-11975.3
-10679.3
-6542.3
-4824.61
-1255.81
646.588
3816.87
5770.2
8665.44
10578.8
13295.3
15096.2
17719.1
19335.9
21952.3
23294.3
26002
26926
29808.9
-16852.6
-11927.4
-10635.7
-6495.97
-4781.28
-1211.31
689.588
3859.7
5812.68
8706.9
10620.5
13335.7
15136.9
17758.9
19375.3
21991.5
23332.4
26040.9
26963
29849.2
-16810.7
-11879.8
-10592.4
-6449.97
-4738.23
-1167.14
732.336
3902.17
5854.91
8748
10661.9
13375.8
15177.3
17798.3
19414.4
22030.5
23370.2
26079.6
26999.6
29889.1
-16769
-11832.6
-10549.4
-6404.3
-4695.44
-1123.33
774.834
3944.3
5896.9
8788.76
10703.1
13415.6
15217.4
17837.4
19453.3
22069.2
23407.7
26118
27036
29928.8
-16727.7
-11785.6
-10506.7
-6358.96
-4652.92
-1079.86
817.081
3986.06
5938.66
8829.16
10744.1
13455
15257.3
17876.1
19491.9
22107.6
23445
26156.2
27072.1
29968.3
-16686.7
-11739
-10464.3
-6313.96
-4610.67
-1036.75
859.08
4027.47
5980.17
8869.21
10784.8
13494
15297
17914.6
19530.3
22145.6
23481.9
26194
27108
30007.4
-16646
-11692.6
-10422.2
-6269.29
-4568.69
-993.987
900.829
4068.52
6021.44
8908.9
10825.3
13532.8
15336.4
17952.7
19568.4
22183.4
23518.7
26231.6
27143.5
30046.3
-16605.7
-11646.6
-10380.4
-6224.96
-4526.98
-951.58
942.331
4109.21
6062.48
8948.23
10865.6
13571.1
15375.6
17990.5
19606.3
22220.8
23555.1
26268.9
27178.8
30085
-16565.6
-11600.9
-10338.8
-6180.96
-4485.53
-909.53
983.587
4149.53
6103.27
8987.2
10905.6
13609.2
15414.5
18027.9
19643.9
22258
23591.3
26305.8
27213.8
30123.3
-16525.8
-11555.5
-10297.6
-6137.31
-4444.34
-867.84
1024.6
4189.49
6143.83
9025.81
10945.3
13646.8
15453.2
18065
19681.2
22294.8
23627.2
26342.5
27248.5
30161.4
-16486.3
-11510.4
-10256.7
-6094
-4403.42
-826.511
1065.36
4229.08
6184.16
9064.06
10984.9
13684.2
15491.6
18101.8
19718.3
22331.3
23662.9
26378.9
27282.9
30199.2
-16447.2
-11465.7
-10216
-6051.03
-4362.77
-785.546
1105.88
4268.29
6224.25
9101.94
11024.2
13721.1
15529.8
18138.3
19755.2
22367.5
23698.3
26415.1
27317
30236.7
-16408.3
-11421.2
-10175.6
-6008.41
-4322.37
-744.947
1146.16
4307.14
6264.1
9139.45
11063.3
13757.8
15567.8
18174.4
19791.7
22403.4
23733.4
26450.9
27350.9
30274
-16369.8
-11377.1
-10135.6
-5966.14
-4282.24
-704.716
1186.2
4345.61
6303.73
9176.59
11102.1
13794
15605.5
18210.2
19828.1
22439
23768.2
26486.4
27384.4
30311
-16331.6
-11333.2
-10095.8
-5924.21
-4242.36
-664.855
1226
4383.7
6343.12
9213.37
11140.7
13829.9
15643
18245.6
19864.1
22474.3
23802.8
26521.7
27417.7
30347.7
-16293.6
-11289.7
-10056.3
-5882.64
-4202.74
-625.366
1265.56
4421.42
6382.28
9249.77
11179.1
13865.5
15680.2
18280.7
19900
22509.2
23837.1
26556.7
27450.7
30384.1
-16256
-11246.6
-10017.1
-5841.43
-4163.38
-586.253
1304.89
4458.75
6421.21
9285.79
11217.2
13900.7
15717.2
18315.5
19935.5
22543.9
23871.2
26591.3
27483.4
30420.3
-16218.7
-11203.7
-9978.19
-5800.57
-4124.27
-547.517
1343.98
4495.7
6459.91
9321.45
11255.1
13935.5
15753.9
18350
19970.8
22578.2
23904.9
26625.7
27515.8
30456.2
-16181.7
-11161.2
-9939.56
-5760.06
-4085.41
-509.161