/*--------------------------------*- C++ -*----------------------------------*\
  =========                 |
  \\      /  F ield         | OpenFOAM: The Open Source CFD Toolbox
   \\    /   O peration     | Website:  https://openfoam.org
    \\  /    A nd           | Version:  8
     \\/     M anipulation  |
\*---------------------------------------------------------------------------*/
FoamFile
{
    version     2.0;
    format      ascii;
    class       surfaceScalarField;
    location    "800";
    object      phi;
}
// * * * * * * * * * * * * * * * * * * * * * * * * * * * * * * * * * * * * * //

dimensions      [1 0 -1 0 0 0 0];

internalField   nonuniform List<scalar> 
16360
(
-1.36725
0.000231611
-1.36752
0.000262882
-1.36779
0.000274724
-1.36807
0.000279411
-1.36835
0.000280965
-1.36863
0.000280846
-1.36891
0.00027963
-1.36919
0.000277557
-1.36946
0.000274717
-1.36974
0.000271125
-1.37
0.00026675
-1.37026
0.00026153
-1.37052
0.000255372
-1.37077
0.000248161
-1.37101
0.000239754
-1.37124
0.000229978
-1.37146
0.000218635
-1.37166
0.000205488
-1.37185
0.000190257
-1.37202
0.000172605
-1.37218
0.000152132
-1.3723
0.0001284
-1.37241
0.000100927
-1.37247
6.90326e-05
-1.37251
3.18254e-05
-1.37249
-1.22847e-05
-1.37243
-6.55511e-05
-1.3723
-0.000129075
-1.3721
-0.00020329
-1.37181
-0.000289481
-1.37142
-0.000389369
-1.37091
-0.000505055
-1.37027
-0.00063903
-1.36948
-0.000794222
-1.3685
-0.00097408
-1.36732
-0.00118267
-1.3659
-0.00142482
-1.36419
-0.00170631
-1.36216
-0.00203412
-1.35974
-0.00241682
-1.35687
-0.00286513
-1.35348
-0.00339271
-1.34947
-0.00401714
-1.3447
-0.00476212
-1.33904
-0.00566258
-1.33227
-0.00677249
-1.3241
-0.0081634
-1.3142
-0.00990163
-1.30211
-0.0120966
-0.0153413
-1.28677
-1.56501
0.000503486
-1.56525
0.000504127
-1.56548
0.000505122
-1.56571
0.000507952
-1.56594
0.000509137
-1.56616
0.000508483
-1.56639
0.000506167
-1.56662
0.000502357
-1.56684
0.000497129
-1.56706
0.00049048
-1.56727
0.000482336
-1.56748
0.000472571
-1.56769
0.000461008
-1.56789
0.000447422
-1.56808
0.000431535
-1.56826
0.000413018
-1.56844
0.000391486
-1.5686
0.000366486
-1.56875
0.000337481
-1.56888
0.000303826
-1.56899
0.000264737
-1.56908
0.000219361
-1.56915
0.000166956
-1.56918
0.000106218
-1.56919
3.5576e-05
-1.56915
-4.68245e-05
-1.56908
-0.00014271
-1.56895
-0.000253867
-1.56877
-0.000382729
-1.56853
-0.000531986
-1.56821
-0.000704768
-1.56781
-0.000904727
-1.56732
-0.00113612
-1.56671
-0.00140392
-1.56597
-0.00171393
-1.56508
-0.00207293
-1.56401
-0.00248889
-1.56275
-0.00297125
-1.56125
-0.00353123
-1.55948
-0.00418235
-1.55741
-0.0049411
-1.55497
-0.00582789
-1.55212
-0.00686821
-1.54879
-0.00809532
-1.5449
-0.00955564
-1.54035
-0.0113148
-1.53506
-0.0134549
-1.52889
-0.0160738
-1.52162
-0.0193679
-0.0237967
-1.51316
-1.60397
0.000331245
-1.60386
0.000394748
-1.60377
0.000419613
-1.6037
0.000428147
-1.60362
0.000430032
-1.60354
0.000428338
-1.60345
0.000424162
-1.60337
0.000417903
-1.60328
0.000409672
-1.60319
0.000399435
-1.6031
0.000387068
-1.603
0.000372374
-1.60289
0.000355089
-1.60278
0.000334884
-1.60266
0.000311355
-1.60253
0.000284023
-1.60239
0.00025233
-1.60224
0.000215633
-1.60207
0.000173157
-1.60189
0.000123985
-1.6017
6.69816e-05
-1.60148
8.89031e-07
-1.60123
-7.61882e-05
-1.60096
-0.000166037
-1.60066
-0.000270243
-1.60031
-0.000390796
-1.59992
-0.000530172
-1.59949
-0.000691429
-1.59899
-0.000878042
-1.59843
-0.00109396
-1.59779
-0.00134373
-1.59706
-0.00163267
-1.59623
-0.00196691
-1.59528
-0.00235362
-1.5942
-0.00280112
-1.59295
-0.00331914
-1.59152
-0.00391906
-1.58988
-0.00461425
-1.58799
-0.00542048
-1.58581
-0.00635654
-1.58331
-0.00744495
-1.58042
-0.00871287
-1.5771
-0.0101935
-1.57327
-0.0119283
-1.56885
-0.0139714
-1.56377
-0.0163922
-1.55795
-0.0192724
-1.55132
-0.0227112
-1.5438
-0.0268846
-0.0321469
-1.53545
-1.64889
0.000490948
-1.64892
0.000427902
-1.64891
0.000407244
-1.64888
0.000401777
-1.64885
0.000398845
-1.64882
0.000395052
-1.64878
0.000389424
-1.64875
0.000381673
-1.64871
0.000371657
-1.64867
0.000359222
-1.64862
0.000344164
-1.64858
0.000326211
-1.64853
0.000305017
-1.64847
0.000280159
-1.64841
0.000251123
-1.64835
0.000217293
-1.64827
0.000177951
-1.64819
0.00013232
-1.6481
7.94168e-05
-1.64799
1.80804e-05
-1.64787
-5.2885e-05
-1.64773
-0.000134949
-1.64758
-0.000229847
-1.64741
-0.000339452
-1.64721
-0.00046628
-1.64699
-0.000613016
-1.64674
-0.000782779
-1.64645
-0.000979237
-1.64612
-0.00120661
-1.64574
-0.00146973
-1.64531
-0.0017742
-1.64482
-0.00212649
-1.64425
-0.00253407
-1.6436
-0.00300565
-1.64285
-0.00355132
-1.64199
-0.00418279
-1.64099
-0.00491374
-1.63985
-0.00576008
-1.63853
-0.00674051
-1.63701
-0.00787698
-1.63526
-0.00919547
-1.63324
-0.0107268
-1.63093
-0.0125078
-1.62827
-0.0145834
-1.62523
-0.0170089
-1.62178
-0.0198514
-1.61786
-0.0231874
-1.61346
-0.0271097
-1.60859
-0.0317566
-0.0373233
-1.60341
-1.63382
0.000166128
-1.63365
0.000250503
-1.63352
0.000280655
-1.63341
0.000288465
-1.6333
0.000288255
-1.63318
0.000283998
-1.63307
0.000276865
-1.63296
0.000267136
-1.63284
0.000254784
-1.63272
0.000239644
-1.6326
0.000221459
-1.63247
0.000199892
-1.63234
0.000174529
-1.63221
0.000144867
-1.63207
0.000110291
-1.63192
7.0072e-05
-1.63176
2.33454e-05
-1.6316
-3.09061e-05
-1.63143
-9.3897e-05
-1.63124
-0.00016691
-1.63104
-0.000251446
-1.63083
-0.000349396
-1.6306
-0.000462798
-1.63034
-0.00059398
-1.63006
-0.000745735
-1.62975
-0.000921263
-1.62941
-0.00112428
-1.62903
-0.0013591
-1.62861
-0.00163072
-1.62813
-0.00194486
-1.6276
-0.00230818
-1.627
-0.00272835
-1.62632
-0.00321423
-1.62555
-0.0037761
-1.62467
-0.00442582
-1.62368
-0.00517715
-1.62255
-0.00604602
-1.62125
-0.00705088
-1.61978
-0.0082132
-1.6181
-0.0095579
-1.61618
-0.011114
-1.61399
-0.0129155
-1.6115
-0.0150019
-1.60866
-0.0174202
-1.60545
-0.0202258
-1.60181
-0.0234829
-1.59774
-0.0272643
-1.59319
-0.0316541
-1.58819
-0.0367569
-0.0427052
-1.58281
-1.64881
0.000380533
-1.64884
0.000285945
-1.64882
0.000252073
-1.64877
0.00024032
-1.64871
0.000233421
-1.64866
0.000226385
-1.6486
0.000217576
-1.64854
0.000206378
-1.64847
0.000192447
-1.64841
0.000175479
-1.64834
0.00015513
-1.64827
0.000130996
-1.6482
0.00010259
-1.64813
6.93464e-05
-1.64805
3.05401e-05
-1.64796
-1.4617e-05
-1.64787
-6.70279e-05
-1.64777
-0.000127806
-1.64767
-0.000198212
-1.64756
-0.000279733
-1.64743
-0.000374142
-1.6473
-0.00048347
-1.64715
-0.000610029
-1.64699
-0.000756497
-1.64681
-0.000925993
-1.64661
-0.00112212
-1.64639
-0.00134904
-1.64613
-0.00161159
-1.64585
-0.00191535
-1.64553
-0.00226674
-1.64516
-0.0026732
-1.64475
-0.00314332
-1.64427
-0.003687
-1.64373
-0.0043157
-1.64312
-0.00504262
-1.64241
-0.005883
-1.6416
-0.00685441
-1.64068
-0.0079771
-1.63962
-0.00927442
-1.6384
-0.0107732
-1.63701
-0.0125043
-1.63542
-0.0145031
-1.63361
-0.01681
-1.63156
-0.0194716
-1.62925
-0.0225403
-1.62666
-0.0260751
-1.62378
-0.0301398
-1.62063
-0.0348038
-1.61724
-0.0401438
-0.0462423
-1.61371
-1.64014
-2.72703e-07
-1.63996
9.99758e-05
-1.63984
0.000133771
-1.63974
0.000140884
-1.63965
0.000138804
-1.63955
0.000132304
-1.63946
0.000122697
-1.63936
0.000110218
-1.63926
9.47434e-05
-1.63916
7.60049e-05
-1.63906
5.36295e-05
-1.63896
2.71778e-05
-1.63885
-3.89428e-06
-1.63874
-4.02633e-05
-1.63863
-8.26835e-05
-1.63851
-0.000132022
-1.63839
-0.000189336
-1.63826
-0.000255879
-1.63813
-0.00033302
-1.63798
-0.000422388
-1.63783
-0.000525894
-1.63767
-0.000645742
-1.6375
-0.000784471
-1.63731
-0.000945021
-1.6371
-0.0011308
-1.63688
-0.00134575
-1.63663
-0.00159444
-1.63636
-0.00188214
-1.63606
-0.00221495
-1.63573
-0.00259992
-1.63536
-0.00304518
-1.63494
-0.00356011
-1.63447
-0.00415555
-1.63394
-0.00484399
-1.63335
-0.00563981
-1.63267
-0.0065596
-1.6319
-0.00762241
-1.63103
-0.0088501
-1.63004
-0.0102678
-1.62891
-0.011904
-1.62762
-0.0137915
-1.62615
-0.0159671
-1.62449
-0.0184726
-1.62261
-0.0213547
-1.62048
-0.0246649
-1.6181
-0.0284593
-1.61544
-0.0327968
-1.61251
-0.0377371
-1.60931
-0.0433389
-0.0496614
-1.6059
-1.6462
0.000248344
-1.64624
0.000141165
-1.64621
0.000101676
-1.64616
8.67363e-05
-1.6461
7.73379e-05
-1.64603
6.79613e-05
-1.64597
5.67615e-05
-1.6459
4.30013e-05
-1.64583
2.62411e-05
-1.64576
6.08965e-06
-1.64569
-1.78699e-05
-1.64562
-4.61347e-05
-1.64554
-7.93031e-05
-1.64546
-0.000118068
-1.64538
-0.000163208
-1.6453
-0.00021569
-1.64521
-0.000276628
-1.64512
-0.000347317
-1.64502
-0.000429244
-1.64492
-0.000524146
-1.64481
-0.000634041
-1.6447
-0.000761266
-1.64457
-0.00090852
-1.64444
-0.00107893
-1.64429
-0.00127611
-1.64414
-0.00150424
-1.64396
-0.00176816
-1.64377
-0.00207348
-1.64356
-0.00242665
-1.64332
-0.00283514
-1.64306
-0.00330757
-1.64277
-0.00385389
-1.64244
-0.00448556
-1.64207
-0.0052158
-1.64165
-0.00605981
-1.64117
-0.00703507
-1.64063
-0.00816162
-1.64002
-0.00946239
-1.63932
-0.0109635
-1.63853
-0.0126948
-1.63763
-0.0146898
-1.63661
-0.0169863
-1.63546
-0.0196264
-1.63416
-0.0226562
-1.6327
-0.0261261
-1.63107
-0.0300891
-1.62927
-0.0345998
-1.62729
-0.0397105
-1.62516
-0.0454688
-0.05192
-1.6229
-1.64243
-0.000148046
-1.64225
-4.22703e-05
-1.64214
-7.49511e-06
-1.64205
-1.09732e-06
-1.64197
-4.45434e-06
-1.64189
-1.24448e-05
-1.64181
-2.36609e-05
-1.64173
-3.78699e-05
-1.64164
-5.52299e-05
-1.64156
-7.60624e-05
-1.64148
-0.000100792
-1.6414
-0.00012995
-1.64131
-0.000164152
-1.64122
-0.000204115
-1.64114
-0.00025068
-1.64105
-0.000304838
-1.64096
-0.000367746
-1.64086
-0.000440745
-1.64077
-0.000525384
-1.64067
-0.000623469
-1.64056
-0.000737089
-1.64046
-0.00086867
-1.64034
-0.00102101
-1.64023
-0.00119737
-1.6401
-0.00140149
-1.63997
-0.00163773
-1.63982
-0.00191111
-1.63967
-0.00222745
-1.6395
-0.00259347
-1.63932
-0.00301694
-1.63912
-0.00350681
-1.6389
-0.00407345
-1.63866
-0.00472877
-1.63839
-0.00548652
-1.63809
-0.00636251
-1.63775
-0.00737491
-1.63736
-0.00854453
-1.63693
-0.00989517
-1.63644
-0.0114539
-1.63588
-0.0132515
-1.63525
-0.0153225
-1.63453
-0.0177057
-1.63371
-0.0204439
-1.63279
-0.0235838
-1.63174
-0.0271756
-1.63055
-0.0312716
-1.62923
-0.0359247
-1.62776
-0.0411839
-1.62613
-0.0470921
-0.0536881
-1.62436
-1.64367
0.000107764
-1.64371
-8.3834e-07
-1.64368
-4.14519e-05
-1.64362
-5.75934e-05
-1.64356
-6.82412e-05
-1.64349
-7.88855e-05
-1.64342
-9.13599e-05
-1.64335
-0.000106411
-1.64328
-0.000124502
-1.64321
-0.000146057
-1.64314
-0.000171543
-1.64307
-0.000201504
-1.643
-0.000236571
-1.64293
-0.000277484
-1.64285
-0.000325103
-1.64278
-0.000380438
-1.6427
-0.000444664
-1.64262
-0.00051914
-1.64254
-0.000605448
-1.64246
-0.000705418
-1.64237
-0.000821174
-1.64229
-0.000955174
-1.6422
-0.00111026
-1.64211
-0.00128974
-1.64201
-0.00149741
-1.64191
-0.00173769
-1.64181
-0.00201569
-1.6417
-0.0023373
-1.64158
-0.00270936
-1.64146
-0.00313974
-1.64133
-0.00363755
-1.64119
-0.00421333
-1.64104
-0.0048792
-1.64087
-0.00564916
-1.6407
-0.00653931
-1.6405
-0.00756817
-1.64029
-0.00875699
-1.64006
-0.0101301
-1.63979
-0.0117151
-1.6395
-0.0135435
-1.63917
-0.0156508
-1.6388
-0.0180767
-1.63838
-0.0208649
-1.6379
-0.0240635
-1.63735
-0.0277238
-1.63673
-0.0318996
-1.63601
-0.0366446
-1.63518
-0.0420093
-1.63424
-0.048037
-0.0547634
-1.63316
-1.64368
-0.000277611
-1.64351
-0.000173884
-1.64341
-0.000140474
-1.64333
-0.000135082
-1.64326
-0.00013931
-1.64319
-0.000148069
-1.64312
-0.00015995
-1.64306
-0.000174726
-1.64299
-0.000192565
-1.64292
-0.000213808
-1.64285
-0.000238897
-1.64279
-0.000268369
-1.64272
-0.000302853
-1.64265
-0.000343086
-1.64259
-0.000389925
-1.64252
-0.000444373
-1.64246
-0.000507592
-1.6424
-0.000580933
-1.64234
-0.000665961
-1.64228
-0.000764492
-1.64222
-0.000878631
-1.64217
-0.00101081
-1.64211
-0.00116387
-1.64206
-0.00134105
-1.64201
-0.00154616
-1.64197
-0.00178357
-1.64193
-0.00205835
-1.64189
-0.00237635
-1.64185
-0.00274438
-1.64182
-0.00317026
-1.6418
-0.00366308
-1.64178
-0.0042333
-1.64176
-0.00489303
-1.64175
-0.00565624
-1.64175
-0.00653902
-1.64176
-0.00755991
-1.64178
-0.00874021
-1.64181
-0.0101043
-1.64184
-0.0116802
-1.64188
-0.0134996
-1.64194
-0.0155985
-1.642
-0.0180172
-1.64206
-0.0208008
-1.64212
-0.0239987
-1.64218
-0.0276642
-1.64223
-0.0318533
-1.64225
-0.0366232
-1.64223
-0.0420279
-1.64216
-0.0481146
-0.0549243
-1.642
-1.64058
-3.47452e-05
-1.64062
-0.000137922
-1.64058
-0.000176976
-1.64052
-0.000193109
-1.64046
-0.00020409
-1.64039
-0.00021503
-1.64032
-0.000227633
-1.64026
-0.000242604
-1.64019
-0.000260394
-1.64012
-0.000281426
-1.64005
-0.000306167
-1.63999
-0.000335154
-1.63992
-0.000369009
-1.63985
-0.000408459
-1.63979
-0.000454344
-1.63973
-0.000507645
-1.63966
-0.000569497
-1.6396
-0.000641218
-1.63955
-0.000724335
-1.63949
-0.000820619
-1.63944
-0.000932121
-1.63939
-0.00106122
-1.63934
-0.00121066
-1.6393
-0.00138363
-1.63926
-0.00158382
-1.63923
-0.0018155
-1.6392
-0.00208361
-1.63918
-0.00239388
-1.63918
-0.00275293
-1.63918
-0.00316843
-1.63919
-0.00364924
-1.63922
-0.00420564
-1.63926
-0.00484949
-1.63932
-0.00559452
-1.63941
-0.0064566
-1.63951
-0.00745403
-1.63964
-0.00860795
-1.63981
-0.00994267
-1.64
-0.0114862
-1.64023
-0.0132705
-1.6405
-0.0153322
-1.6408
-0.0177129
-1.64114
-0.0204593
-1.64152
-0.0236239
-1.64192
-0.0272638
-1.64233
-0.0314409
-1.64273
-0.03622
-1.64309
-0.0416661
-1.64337
-0.0478389
-0.0547831
-1.64351
-1.64477
-0.000387123
-1.64462
-0.000292506
-1.64453
-0.00026297
-1.64447
-0.000259137
-1.64441
-0.00026404
-1.64435
-0.000272962
-1.64429
-0.000284604
-1.64424
-0.00029877
-1.64418
-0.000315637
-1.64413
-0.000335537
-1.64407
-0.000358898
-1.64402
-0.000386228
-1.64397
-0.000418119
-1.64393
-0.000455259
-1.64388
-0.000498446
-1.64384
-0.000548605
-1.64381
-0.00060681
-1.64377
-0.000674303
-1.64374
-0.000752526
-1.64372
-0.000843148
-1.64371
-0.000948102
-1.6437
-0.00106963
-1.6437
-0.00121032
-1.64371
-0.00137319
-1.64373
-0.00156171
-1.64377
-0.00177991
-1.64382
-0.00203247
-1.64389
-0.00232479
-1.64398
-0.00266313
-1.64409
-0.00305475
-1.64423
-0.00350805
-1.6444
-0.00403279
-1.64461
-0.00464024
-1.64486
-0.0053435
-1.64516
-0.00615771
-1.64552
-0.00710046
-1.64593
-0.00819209
-1.64642
-0.00945618
-1.64698
-0.01092
-1.64764
-0.0126151
-1.64839
-0.0145779
-1.64926
-0.01685
-1.65024
-0.0194796
-1.65134
-0.0225209
-1.65257
-0.026035
-1.65392
-0.0300893
-1.65538
-0.0347564
-1.65694
-0.0401134
-1.65854
-0.0462352
-0.0531882
-1.66013
-1.63562
-0.000179956
-1.63564
-0.00027152
-1.63559
-0.00030694
-1.63553
-0.000322394
-1.63546
-0.000333138
-1.63539
-0.000343602
-1.63532
-0.000355295
-1.63525
-0.000368874
-1.63518
-0.000384774
-1.63511
-0.000403399
-1.63505
-0.000425183
-1.63498
-0.000450616
-1.63492
-0.000480261
-1.63486
-0.000514764
-1.6348
-0.000554871
-1.63475
-0.000601448
-1.6347
-0.000655494
-1.63466
-0.000718169
-1.63462
-0.000790813
-1.63459
-0.000874984
-1.63456
-0.00097248
-1.63455
-0.00108539
-1.63454
-0.00121613
-1.63455
-0.00136751
-1.63457
-0.00154276
-1.6346
-0.00174566
-1.63465
-0.00198055
-1.63472
-0.0022525
-1.63482
-0.00256735
-1.63494
-0.00293192
-1.6351
-0.00335407
-1.63529
-0.00384297
-1.63552
-0.00440925
-1.6358
-0.00506525
-1.63613
-0.00582536
-1.63652
-0.00670629
-1.63699
-0.00772752
-1.63753
-0.00891179
-1.63817
-0.0102856
-1.6389
-0.01188
-1.63975
-0.0137311
-1.64072
-0.0158813
-1.64182
-0.0183801
-1.64305
-0.0212855
-1.64442
-0.0246645
-1.64592
-0.0285934
-1.64752
-0.0331588
-1.64917
-0.0384608
-1.65079
-0.0446096
-0.0516945
-1.65229
-1.64635
-0.000465756
-1.64623
-0.000390805
-1.64617
-0.00036944
-1.64612
-0.000368485
-1.64608
-0.000374124
-1.64604
-0.00038262
-1.646
-0.000393034
-1.64597
-0.000405301
-1.64593
-0.000419638
-1.6459
-0.000436367
-1.64587
-0.000455873
-1.64584
-0.000478597
-1.64581
-0.000505045
-1.64579
-0.000535795
-1.64578
-0.000571512
-1.64577
-0.000612964
-1.64576
-0.00066104
-1.64576
-0.000716766
-1.64577
-0.000781331
-1.64579
-0.000856111
-1.64582
-0.000942701
-1.64586
-0.00104295
-1.64592
-0.00115899
-1.64599
-0.0012933
-1.64609
-0.00144875
-1.6462
-0.00162868
-1.64635
-0.00183693
-1.64652
-0.00207798
-1.64673
-0.00235702
-1.64698
-0.00268007
-1.64728
-0.00305412
-1.64764
-0.00348731
-1.64806
-0.00398909
-1.64855
-0.00457049
-1.64914
-0.00524436
-1.64982
-0.00602575
-1.65061
-0.00693226
-1.65154
-0.00798458
-1.65262
-0.00920709
-1.65387
-0.0106286
-1.65532
-0.0122833
-1.65699
-0.0142118
-1.6589
-0.016463
-1.66109
-0.0190957
-1.66358
-0.0221805
-1.66637
-0.0258006
-1.66948
-0.0300533
-1.67288
-0.0350588
-1.67652
-0.0409656
-0.0479273
-1.68029
-1.62379
-0.000325224
-1.62378
-0.000402226
-1.62372
-0.000432931
-1.62364
-0.000447508
-1.62355
-0.00045759
-1.62347
-0.00046684
-1.62339
-0.000476622
-1.6233
-0.000487581
-1.62322
-0.000500144
-1.62314
-0.000514678
-1.62307
-0.000531556
-1.623
-0.000551177
-1.62293
-0.000573988
-1.62286
-0.000600497
-1.6228
-0.000631283
-1.62275
-0.000667016
-1.6227
-0.000708466
-1.62266
-0.000756525
-1.62263
-0.000812225
-1.62261
-0.000876763
-1.6226
-0.000951521
-1.62261
-0.00103811
-1.62263
-0.00113838
-1.62267
-0.00125449
-1.62273
-0.00138894
-1.62281
-0.00154462
-1.62292
-0.00172491
-1.62307
-0.0019337
-1.62325
-0.00217553
-1.62347
-0.00245567
-1.62375
-0.00278025
-1.62408
-0.00315643
-1.62447
-0.00359254
-1.62494
-0.00409835
-1.6255
-0.0046853
-1.62616
-0.00536682
-1.62694
-0.00615881
-1.62784
-0.00708007
-1.62889
-0.00815303
-1.63012
-0.00940461
-1.63153
-0.0108673
-1.63317
-0.0125805
-1.63504
-0.0145927
-1.63717
-0.0169646
-1.63958
-0.0197722
-1.64227
-0.0231086
-1.64524
-0.0270848
-1.64845
-0.0318482
-1.65179
-0.0376198
-0.0446552
-1.65506
-1.64191
-0.000468852
-1.64189
-0.000430748
-1.6419
-0.000423072
-1.64192
-0.000425968
-1.64194
-0.000431667
-1.64197
-0.000438457
-1.642
-0.000446102
-1.64203
-0.000454762
-1.64207
-0.00046469
-1.64211
-0.000476165
-1.64215
-0.000489484
-1.6422
-0.00050497
-1.64225
-0.00052298
-1.6423
-0.000543918
-1.64237
-0.000568245
-1.64244
-0.000596489
-1.64252
-0.00062926
-1.64261
-0.000667264
-1.64271
-0.000711313
-1.64282
-0.000762351
-1.64295
-0.000821471
-1.6431
-0.000889937
-1.64327
-0.000969214
-1.64346
-0.001061
-1.64368
-0.00116727
-1.64394
-0.0012903
-1.64423
-0.00143275
-1.64457
-0.00159769
-1.64495
-0.0017887
-1.6454
-0.00200994
-1.64591
-0.00226627
-1.64651
-0.00256332
-1.64719
-0.00290772
-1.64798
-0.0033072
-1.6489
-0.00377087
-1.64995
-0.00430947
-1.65118
-0.00493574
-1.65259
-0.00566485
-1.65423
-0.00651508
-1.65613
-0.00750853
-1.65832
-0.00867231
-1.66086
-0.0100399
-1.6638
-0.0116531
-1.6672
-0.0135661
-1.67112
-0.0158505
-1.67563
-0.0185988
-1.68079
-0.0219234
-1.68666
-0.0259774
-1.69324
-0.0310411
-0.0375784
-1.70032
-1.56412
-0.000380757
-1.5641
-0.000453286
-1.56405
-0.000476197
-1.56399
-0.000487233
-1.56392
-0.00049451
-1.56386
-0.000500835
-1.5638
-0.000507217
-1.56374
-0.000514125
-1.56368
-0.000521858
-1.56363
-0.000530655
-1.56358
-0.000540744
-1.56353
-0.000552363
-1.56349
-0.000565774
-1.56345
-0.000581266
-1.56342
-0.00059917
-1.5634
-0.000619866
-1.56338
-0.000643791
-1.56338
-0.00067145
-1.56339
-0.000703425
-1.56341
-0.000740394
-1.56345
-0.000783138
-1.5635
-0.000832565
-1.56358
-0.000889727
-1.56369
-0.000955841
-1.56382
-0.00103232
-1.56399
-0.00112081
-1.5642
-0.00122321
-1.56446
-0.00134173
-1.56477
-0.00147894
-1.56514
-0.00163784
-1.56558
-0.00182192
-1.56611
-0.00203526
-1.56674
-0.00228262
-1.56748
-0.00256961
-1.56834
-0.00290283
-1.56936
-0.00329012
-1.57056
-0.00374078
-1.57196
-0.00426605
-1.57359
-0.0048795
-1.5755
-0.0055979
-1.57773
-0.00644217
-1.58033
-0.00743879
-1.58337
-0.00862191
-1.58689
-0.0100375
-1.59099
-0.0117513
-1.59574
-0.0138568
-1.60118
-0.0164741
-1.6074
-0.0197589
-1.6144
-0.0240415
-0.0300697
-1.62191
-1.52362
-9.249e-05
-1.52403
-4.32944e-05
-1.52447
-3.42419e-05
-1.52492
-3.27552e-05
-1.52538
-3.34434e-05
-1.52585
-3.47612e-05
-1.52632
-3.64135e-05
-1.5268
-3.84155e-05
-1.52728
-4.08575e-05
-1.52777
-4.38468e-05
-1.52826
-4.74978e-05
-1.52876
-5.19326e-05
-1.52927
-5.72857e-05
-1.52978
-6.3708e-05
-1.53031
-7.1371e-05
-1.53085
-8.04714e-05
-1.5314
-9.12356e-05
-1.53197
-0.000103925
-1.53256
-0.000118843
-1.53316
-0.00013634
-1.53379
-0.000156823
-1.53444
-0.000180761
-1.53512
-0.000208701
-1.53583
-0.000241278
-1.53659
-0.000279226
-1.53738
-0.000323399
-1.53823
-0.00037479
-1.53914
-0.000434553
-1.54012
-0.000504033
-1.54117
-0.000584796
-1.54231
-0.000678675
-1.54356
-0.000787813
-1.54493
-0.00091473
-1.54643
-0.00106239
-1.5481
-0.00123432
-1.54996
-0.00143472
-1.55203
-0.00166862
-1.55435
-0.00194215
-1.55697
-0.00226286
-1.55993
-0.00264018
-1.56328
-0.0030862
-1.56711
-0.00361662
-1.57148
-0.00425228
-1.57649
-0.00502219
-1.58227
-0.00597019
-1.58897
-0.00716421
-1.59674
-0.00869515
-1.60584
-0.0106587
-1.61665
-0.0132396
-0.0172486
-1.62947
-1.2277
-1.22775
-1.22778
-1.22781
-1.22785
-1.22788
-1.22792
-1.22796
-1.228
-1.22804
-1.22809
-1.22814
-1.2282
-1.22826
-1.22833
-1.22841
-1.2285
-1.22861
-1.22873
-1.22886
-1.22902
-1.2292
-1.22941
-1.22965
-1.22993
-1.23025
-1.23063
-1.23106
-1.23157
-1.23215
-1.23283
-1.23362
-1.23453
-1.23559
-1.23683
-1.23826
-1.23993
-1.24187
-1.24414
-1.24678
-1.24986
-1.25348
-1.25773
-1.26276
-1.26873
-1.27589
-1.28458
-1.29524
-1.30848
-1.32573
1.62587
-0.0342497
1.638
-0.0121347
1.64684
-0.00883955
1.65127
-0.00442636
1.65284
-0.00157505
1.65294
-9.96575e-05
1.65225
0.000692141
1.65109
0.00116072
1.64964
0.00144691
1.64802
0.0016192
1.6463
0.00172046
1.64453
0.00177774
1.64272
0.00180709
1.6409
0.00181801
1.63908
0.00181633
1.63728
0.00180576
1.63549
0.00178871
1.63372
0.0017667
1.63198
0.00174072
1.63027
0.00171134
1.62859
0.00167888
1.62695
0.00164344
1.62534
0.00160493
1.62378
0.00156313
1.62226
0.00151769
1.62079
0.00146813
1.61938
0.00141382
1.61803
0.00135393
1.61674
0.00128748
1.61553
0.00121344
1.61439
0.0011306
1.61336
0.00103749
1.61242
0.000932502
1.61161
0.000812347
1.61094
0.000674579
1.61042
0.00051606
1.61009
0.000333106
1.60997
0.000121565
1.61009
-0.000124234
1.6105
-0.000412493
1.61126
-0.000753432
1.61242
-0.00115983
1.61407
-0.00164894
1.61631
-0.00224528
1.6193
-0.00298556
1.62323
-0.00392862
1.6284
-0.00517638
1.63532
-0.00692126
1.64489
-0.00956263
-0.0139726
1.65886
1.57532
-0.0179535
1.5719
-0.00871262
1.5662
-0.00314182
1.56319
-0.00141561
1.56174
-0.000121732
1.56096
0.000679402
1.56059
0.00105645
1.56052
0.00123021
1.56066
0.00131316
1.56093
0.00134686
1.5613
0.00135225
1.56173
0.0013423
1.56222
0.00132428
1.56273
0.00130188
1.56327
0.00127682
1.56383
0.00124991
1.5644
0.00122137
1.56497
0.00119114
1.56555
0.0011589
1.56614
0.0011242
1.56673
0.00108647
1.56733
0.001045
1.56794
0.000998984
1.56855
0.000947465
1.56918
0.000889357
1.56983
0.00082342
1.57049
0.00074816
1.57118
0.000661653
1.57191
0.000561577
1.57268
0.000445839
1.5735
0.000312055
1.57438
0.000156634
1.57533
-2.46159e-05
1.57638
-0.000236155
1.57754
-0.000483085
1.57883
-0.000771757
1.58027
-0.00110988
1.5819
-0.0015068
1.58375
-0.00197472
1.58587
-0.0025286
1.5883
-0.00318653
1.59111
-0.00397235
1.59438
-0.00491768
1.5982
-0.00606575
1.60269
-0.00747776
1.60801
-0.00924373
1.61433
-0.0115011
1.62188
-0.0144664
1.6308
-0.0184888
-0.0241166
1.64095
1.57763
-0.00396691
1.573
-0.00408413
1.57217
-0.00230633
1.57223
-0.00147708
1.57309
-0.000985805
1.57428
-0.000505059
1.57545
-0.000120411
1.57653
0.000155078
1.57749
0.000356696
1.57833
0.000506967
1.57906
0.000617656
1.5797
0.000697665
1.58027
0.000754153
1.58078
0.000792376
1.58124
0.000816033
1.58167
0.000827712
1.58206
0.000829195
1.58243
0.000821636
1.58278
0.000805689
1.58312
0.000781604
1.58346
0.000749291
1.5838
0.000708346
1.58414
0.000658073
1.58449
0.000597476
1.58485
0.000525353
1.58524
0.000440268
1.58564
0.000340466
1.58608
0.000223295
1.58656
8.55866e-05
1.58708
-7.59752e-05
1.58766
-0.00026537
1.5883
-0.00048733
1.58902
-0.000747497
1.58984
-0.00105143
1.59076
-0.00140729
1.59182
-0.00182441
1.59302
-0.00231399
1.5944
-0.00288965
1.596
-0.00356815
1.59784
-0.00437003
1.59997
-0.00532055
1.60245
-0.00645184
1.60534
-0.00780542
1.60871
-0.00943596
1.61265
-0.011417
1.61725
-0.0138496
1.62263
-0.0168747
1.62885
-0.0206904
1.63593
-0.0255712
-0.031875
1.64369
1.59001
-0.00235607
1.58927
-0.00334332
1.58952
-0.00256435
1.58974
-0.00169093
1.5898
-0.00104513
1.58979
-0.000497098
1.58972
-4.90455e-05
1.58959
0.000280046
1.58944
0.000508915
1.58928
0.000665434
1.58913
0.000769308
1.58899
0.000834216
1.58888
0.000870408
1.58878
0.000885392
1.58872
0.000884386
1.58867
0.000870891
1.58865
0.000847159
1.58866
0.000814527
1.58869
0.00077363
1.58875
0.00072456
1.58883
0.000666963
1.58894
0.000600086
1.58908
0.000522774
1.58924
0.000433366
1.58944
0.00033012
1.58967
0.000211106
1.58993
7.35423e-05
1.59024
-8.56322e-05
1.5906
-0.000269896
1.591
-0.000483859
1.59147
-0.000733133
1.59201
-0.00102368
1.59262
-0.00136256
1.59333
-0.00175791
1.59414
-0.00221983
1.59508
-0.00276023
1.59616
-0.00339332
1.5974
-0.00413612
1.59885
-0.0050092
1.60051
-0.00603754
1.60244
-0.00725165
1.60468
-0.00868929
1.60727
-0.0103978
1.61027
-0.012437
1.61374
-0.0148835
1.61773
-0.0178361
1.62228
-0.0214219
1.62739
-0.0258022
1.63299
-0.0311734
-0.0377525
1.63887
1.59022
-0.000962887
1.58845
-0.00156465
1.58719
-0.00131323
1.58635
-0.000847006
1.58579
-0.000487359
1.5855
-0.000208409
1.58543
2.08358e-05
1.58552
0.000197112
1.5857
0.000323567
1.58596
0.000411804
1.58625
0.000471801
1.58658
0.0005101
1.58692
0.000531331
1.58726
0.000538916
1.58761
0.000535235
1.58796
0.000521794
1.58831
0.000499426
1.58866
0.000468438
1.589
0.000428707
1.58934
0.000379745
1.58969
0.000320763
1.59004
0.000250638
1.5904
0.00016798
1.59076
7.05672e-05
1.59113
-4.38162e-05
1.59152
-0.000177939
1.59193
-0.000335101
1.59236
-0.000518783
1.59283
-0.000733114
1.59333
-0.000983529
1.59387
-0.0012763
1.59446
-0.0016186
1.59512
-0.00201886
1.59585
-0.00248698
1.59666
-0.00303473
1.59758
-0.00367606
1.59861
-0.00442749
1.59979
-0.00530871
1.60112
-0.0063432
1.60264
-0.00755913
1.60438
-0.00899035
1.60637
-0.0106778
1.60864
-0.0126715
1.61124
-0.0150321
1.61419
-0.0178342
1.61752
-0.0211686
1.62124
-0.0251447
1.62533
-0.0298907
1.62971
-0.0355493
-0.0422646
1.63422
1.59117
-0.000510671
1.59055
-0.000953409
1.59023
-0.000991486
1.59019
-0.000809881
1.5903
-0.000595085
1.59049
-0.000390918
1.5907
-0.00019858
1.59093
-2.88577e-05
1.59114
0.000109746
1.59134
0.000217118
1.59151
0.000296958
1.59167
0.000353104
1.59181
0.000388942
1.59194
0.000407435
1.59207
0.000410998
1.59219
0.000401417
1.59231
0.000379867
1.59243
0.000346962
1.59256
0.000302824
1.59269
0.000247092
1.59283
0.000179148
1.59298
9.7833e-05
1.59315
1.61215e-06
1.59333
-0.000111351
1.59353
-0.000243648
1.59375
-0.000398547
1.594
-0.000579561
1.59427
-0.000790803
1.59457
-0.00103719
1.59491
-0.00132468
1.5953
-0.00166028
1.59573
-0.00205216
1.59622
-0.00250985
1.59678
-0.00304457
1.59741
-0.00366952
1.59814
-0.00440025
1.59897
-0.00525512
1.59991
-0.00625575
1.601
-0.00742772
1.60224
-0.00880126
1.60366
-0.0104121
1.60529
-0.0123028
1.60714
-0.0145234
1.60924
-0.0171333
1.61161
-0.0202022
1.61425
-0.0238112
1.61716
-0.0280521
1.62029
-0.0330258
1.62358
-0.0388347
-0.045571
1.62688
1.59137
-0.000263432
1.59094
-0.000521093
1.59052
-0.000578435
1.5902
-0.000484948
1.58995
-0.000340952
1.58975
-0.000197338
1.58962
-6.69774e-05
1.58955
4.36692e-05
1.58953
0.000130101
1.58955
0.000192259
1.58962
0.000233018
1.58971
0.000255722
1.58984
0.000263229
1.58999
0.000257827
1.59016
0.00024123
1.59035
0.000214565
1.59055
0.000178406
1.59076
0.000132781
1.59099
7.73117e-05
1.59122
1.11884e-05
1.59147
-6.68222e-05
1.59172
-0.000158302
1.59199
-0.000265338
1.59227
-0.000390047
1.59256
-0.00053541
1.59287
-0.00070494
1.59319
-0.000902657
1.59353
-0.00113326
1.5939
-0.00140228
1.59429
-0.00171623
1.59471
-0.00208277
1.59517
-0.00251083
1.59567
-0.00301084
1.59622
-0.00359499
1.59683
-0.00427759
1.59751
-0.00507537
1.59826
-0.00600797
1.5991
-0.00709835
1.60005
-0.00837338
1.60111
-0.00986447
1.60231
-0.0116083
1.60365
-0.0136474
1.60516
-0.0160312
1.60684
-0.0188163
1.60871
-0.0220673
1.61075
-0.0258558
1.61296
-0.03026
1.6153
-0.0353608
1.6177
-0.0412366
-0.0479565
1.62008
1.59149
-0.000139573
1.59126
-0.000289978
1.59103
-0.000348126
1.59087
-0.000323321
1.59079
-0.000259327
1.59078
-0.000187449
1.59083
-0.000118843
1.59093
-5.77857e-05
1.59107
-7.54624e-06
1.59123
3.03249e-05
1.59141
5.60234e-05
1.59159
7.04221e-05
1.59178
7.43674e-05
1.59197
6.85107e-05
1.59216
5.3275e-05
1.59235
2.8814e-05
1.59253
-5.01098e-06
1.59271
-4.86321e-05
1.59289
-0.000102794
1.59307
-0.00016851
1.59325
-0.000247266
1.59343
-0.000340817
1.59362
-0.000451283
1.59381
-0.000581144
1.59401
-0.000733462
1.59422
-0.000911881
1.59443
-0.00112066
1.59467
-0.00136478
1.59491
-0.00165007
1.59518
-0.00198341
1.59547
-0.00237284
1.59579
-0.00282776
1.59614
-0.00335916
1.59652
-0.00397986
1.59695
-0.00470486
1.59742
-0.00555163
1.59796
-0.00654055
1.59855
-0.00769536
1.59922
-0.00904358
1.59998
-0.0106171
1.60082
-0.0124527
1.60177
-0.0145924
1.60282
-0.0170842
1.60398
-0.0199819
1.60526
-0.023345
1.60664
-0.0272377
1.60811
-0.0317274
1.60963
-0.0368805
1.61115
-0.0427579
-0.049408
1.6126
1.59154
-6.2491e-05
1.59138
-0.000133386
1.5912
-0.000166814
1.59104
-0.000162606
1.59092
-0.000136974
1.59084
-0.000104957
1.59079
-7.39204e-05
1.59078
-4.72179e-05
1.5908
-2.71715e-05
1.59085
-1.51532e-05
1.59091
-1.15074e-05
1.591
-1.60272e-05
1.5911
-2.84039e-05
1.59122
-4.84178e-05
1.59135
-7.60112e-05
1.59149
-0.000111344
1.59164
-0.00015483
1.5918
-0.000207111
1.59196
-0.000269143
1.59214
-0.000342177
1.59232
-0.000427815
1.59251
-0.000527984
1.5927
-0.000644989
1.5929
-0.000781554
1.59311
-0.000940913
1.59332
-0.00112688
1.59355
-0.00134394
1.59378
-0.00159729
1.59402
-0.00189302
1.59428
-0.00223828
1.59454
-0.00264139
1.59483
-0.00311206
1.59513
-0.00366161
1.59545
-0.00430325
1.5958
-0.00505233
1.59618
-0.00592672
1.59658
-0.00694714
1.59703
-0.0081376
1.59751
-0.00952583
1.59803
-0.0111437
1.59861
-0.0130276
1.59924
-0.0152187
1.59992
-0.0177636
1.60065
-0.0207133
1.60143
-0.0241237
1.60224
-0.0280535
1.60308
-0.032563
1.60391
-0.0377101
1.6047
-0.0435469
-0.0501163
1.6054
1.59156
-5.03052e-06
1.59144
-1.25244e-05
1.59129
-2.03022e-05
1.59116
-2.85734e-05
1.59106
-3.75467e-05
1.591