/*--------------------------------*- C++ -*----------------------------------*\
  =========                 |
  \\      /  F ield         | OpenFOAM: The Open Source CFD Toolbox
   \\    /   O peration     | Website:  https://openfoam.org
    \\  /    A nd           | Version:  8
     \\/     M anipulation  |
\*---------------------------------------------------------------------------*/
FoamFile
{
    version     2.0;
    format      ascii;
    class       volScalarField;
    location    "200";
    object      alphat;
}
// * * * * * * * * * * * * * * * * * * * * * * * * * * * * * * * * * * * * * //

dimensions      [1 -1 -1 0 0 0 0];

internalField   nonuniform List<scalar> 
8400
(
0.310384
0.308939
0.307513
0.306097
0.304687
0.303276
0.301859
0.300431
0.298992
0.297539
0.296072
0.294593
0.293101
0.291599
0.290087
0.288567
0.28704
0.285509
0.283976
0.282443
0.280912
0.279385
0.277864
0.276351
0.274848
0.273357
0.27188
0.270419
0.268976
0.267553
0.266153
0.264777
0.263427
0.262105
0.260813
0.259554
0.258329
0.25714
0.25599
0.25488
0.253813
0.252792
0.251821
0.250903
0.250046
0.249256
0.248546
0.247934
0.247442
0.247104
0.0887799
0.0887389
0.0887039
0.0886772
0.0886605
0.0886556
0.0886639
0.0886865
0.0887245
0.0887788
0.0888503
0.0889395
0.0890471
0.0891733
0.0893184
0.0894825
0.0896659
0.0898686
0.0900907
0.0903325
0.0905937
0.0908747
0.0911751
0.0914947
0.0918333
0.0921906
0.092566
0.0929593
0.0933699
0.0937976
0.0942418
0.0947019
0.0951774
0.0956676
0.0961721
0.0966901
0.097221
0.0977641
0.0983186
0.0988837
0.0994587
0.100043
0.100634
0.101233
0.101838
0.102447
0.103059
0.103671
0.104282
0.104889
0.0973432
0.0974104
0.0974786
0.0975502
0.0976275
0.0977127
0.097808
0.0979148
0.0980348
0.0981687
0.0983175
0.0984817
0.0986617
0.0988576
0.0990695
0.0992972
0.0995405
0.0997993
0.100073
0.100363
0.100667
0.100985
0.101317
0.101663
0.102022
0.102393
0.102776
0.103169
0.103573
0.103987
0.10441
0.104841
0.105279
0.105725
0.106177
0.106634
0.107096
0.107562
0.108031
0.108502
0.108975
0.109449
0.109923
0.110395
0.110864
0.111328
0.111787
0.112236
0.112675
0.113097
0.107429
0.107634
0.107836
0.108035
0.108233
0.108429
0.108625
0.108822
0.109021
0.109224
0.10943
0.10964
0.109855
0.110076
0.110303
0.110536
0.110775
0.11102
0.111273
0.111532
0.111797
0.11207
0.11235
0.112636
0.112928
0.113227
0.113531
0.113841
0.114157
0.114478
0.114804
0.115135
0.11547
0.11581
0.116154
0.116501
0.116852
0.117207
0.117564
0.117924
0.118286
0.11865
0.119017
0.119386
0.119755
0.120126
0.120499
0.120872
0.121246
0.12162
0.107293
0.10769
0.10808
0.108462
0.108832
0.109191
0.109537
0.109871
0.110194
0.110506
0.110808
0.111101
0.111387
0.111666
0.11194
0.112209
0.112474
0.112735
0.112995
0.113252
0.113509
0.113764
0.11402
0.114276
0.114533
0.11479
0.11505
0.11531
0.115574
0.115839
0.116108
0.11638
0.116656
0.116935
0.117219
0.117506
0.117799
0.118096
0.118398
0.118706
0.11902
0.119339
0.119666
0.119999
0.12034
0.12069
0.12105
0.121421
0.121806
0.122207
0.0981668
0.0987551
0.0993414
0.099916
0.100472
0.101007
0.101517
0.102004
0.102466
0.102905
0.103323
0.10372
0.104099
0.104461
0.104808
0.10514
0.10546
0.105769
0.106067
0.106358
0.106641
0.106918
0.10719
0.107459
0.107724
0.107987
0.108249
0.108512
0.108775
0.109041
0.109309
0.109581
0.109858
0.110141
0.110429
0.110724
0.111027
0.111337
0.111656
0.111984
0.112323
0.112671
0.113032
0.113404
0.11379
0.114191
0.114608
0.115045
0.115505
0.115992
0.0832155
0.0839122
0.0846119
0.0853008
0.0859698
0.0866135
0.0872289
0.0878151
0.0883722
0.0889013
0.0894037
0.089881
0.0903348
0.090767
0.0911793
0.0915735
0.0919515
0.0923148
0.0926653
0.0930047
0.0933345
0.0936564
0.093972
0.0942827
0.09459
0.0948953
0.0952001
0.0955059
0.095814
0.0961259
0.0964429
0.0967663
0.097097
0.0974362
0.0977847
0.0981434
0.098513
0.0988945
0.0992885
0.0996958
0.100117
0.100553
0.101004
0.101471
0.101955
0.102458
0.102982
0.10353
0.104104
0.104711
0.067673
0.0682491
0.0688444
0.0694422
0.0700322
0.0706081
0.0711666
0.0717059
0.0722255
0.0727254
0.0732061
0.0736684
0.0741134
0.074542
0.0749556
0.0753554
0.0757427
0.076119
0.0764859
0.0768447
0.0771972
0.0775447
0.0778888
0.078231
0.0785728
0.0789157
0.0792613
0.079611
0.0799664
0.0803289
0.0806999
0.0810807
0.0814724
0.0818762
0.0822929
0.0827234
0.0831687
0.0836295
0.0841064
0.0846
0.0851108
0.0856393
0.0861858
0.086751
0.0873355
0.0879405
0.0885679
0.0892199
0.0898998
0.0906117
0.0576666
0.0578336
0.0580322
0.0582553
0.0584964
0.0587505
0.0590136
0.059283
0.0595563
0.059832
0.0601088
0.0603857
0.0606622
0.0609377
0.0612122
0.0614856
0.0617582
0.0620302
0.0623021
0.0625747
0.0628486
0.0631246
0.0634036
0.0636865
0.0639741
0.0642676
0.0645681
0.0648765
0.0651942
0.0655223
0.0658618
0.0662138
0.0665794
0.0669594
0.0673549
0.0677666
0.0681956
0.0686425
0.0691083
0.0695934
0.0700983
0.0706234
0.0711694
0.0717365
0.0723254
0.0729372
0.073573
0.0742348
0.0749252
0.0756476
0.0559626
0.0556951
0.0554567
0.055255
0.0550883
0.0549532
0.0548463
0.0547642
0.0547045
0.054665
0.0546435
0.0546386
0.0546485
0.0546718
0.0547072
0.0547537
0.0548101
0.0548757
0.0549498
0.0550321
0.0551221
0.0552197
0.0553247
0.055437
0.0555566
0.0556837
0.0558186
0.0559617
0.0561134
0.0562743
0.056445
0.0566261
0.0568181
0.0570215
0.0572373
0.0574662
0.0577093
0.0579674
0.0582416
0.058533
0.0588423
0.0591701
0.0595177
0.0598859
0.0602752
0.0606873
0.0611231
0.0615836
0.0620707
0.0625865
0.0585135
0.0581198
0.05775
0.0574075
0.0570915
0.0567981
0.0565254
0.0562703
0.0560323
0.0558109
0.0556057
0.0554166
0.0552435
0.055086
0.0549432
0.0548144
0.0546989
0.0545956
0.0545038
0.054423
0.054353
0.0542931
0.0542425
0.0542003
0.0541659
0.0541383
0.0541172
0.0541021
0.054093
0.0540894
0.054091
0.0540972
0.0541076
0.0541218
0.0541397
0.0541614
0.0541876
0.0542187
0.0542549
0.054297
0.0543452
0.0544
0.0544624
0.0545345
0.0546166
0.0547106
0.0548175
0.0549377
0.0550728
0.0552219
0.0605188
0.0602474
0.0600071
0.0597765
0.0595575
0.0593477
0.0591448
0.0589458
0.0587498
0.0585545
0.0583609
0.0581708
0.0579855
0.0578049
0.0576294
0.0574597
0.0572947
0.057132
0.0569728
0.0568203
0.0566754
0.0565386
0.0564111
0.056292
0.0561795
0.0560722
0.0559706
0.0558759
0.0557888
0.0557087
0.0556355
0.0555681
0.0555044
0.0554417
0.0553795
0.0553182
0.0552592
0.0552041
0.055151
0.0550962
0.0550381
0.0549753
0.0549078
0.0548375
0.0547664
0.054697
0.0546296
0.0545629
0.054503
0.0544457
0.0611076
0.0609633
0.0608276
0.0606988
0.0605744
0.0604532
0.060335
0.0602185
0.0601032
0.059989
0.0598751
0.0597611
0.0596475
0.059535
0.0594238
0.059314
0.0592047
0.059095
0.058985
0.0588749
0.0587654
0.0586576
0.0585524
0.0584494
0.0583477
0.0582463
0.0581456
0.0580463
0.057949
0.0578541
0.0577625
0.0576744
0.0575888
0.0575049
0.0574215
0.0573382
0.0572567
0.0571775
0.0571021
0.0570303
0.0569606
0.0568876
0.0568128
0.0567369
0.0566586
0.0565801
0.0565017
0.0564155
0.0563244
0.056207
0.0611673
0.0610931
0.0610196
0.0609469
0.0608744
0.0608023
0.0607303
0.0606583
0.0605864
0.0605143
0.060442
0.0603696
0.0602975
0.0602257
0.0601541
0.0600826
0.0600112
0.0599398
0.0598681
0.0597964
0.0597248
0.0596537
0.0595831
0.0595129
0.059443
0.0593733
0.0593037
0.0592344
0.0591654
0.059097
0.0590294
0.0589626
0.0588965
0.0588309
0.0587653
0.0587
0.0586352
0.0585713
0.0585079
0.0584446
0.0583816
0.0583178
0.0582529
0.0581871
0.0581205
0.058053
0.0579835
0.057911
0.0578358
0.0577524
0.0611907
0.0611422
0.0610933
0.0610445
0.0609954
0.060946
0.0608965
0.0608467
0.0607968
0.0607469
0.0606967
0.0606466
0.0605965
0.0605464
0.0604965
0.0604466
0.0603968
0.0603468
0.0602967
0.0602466
0.0601964
0.0601464
0.0600965
0.0600468
0.0599972
0.0599476
0.059898
0.0598483
0.0597986
0.0597491
0.0596999
0.0596509
0.0596022
0.0595536
0.0595051
0.0594567
0.0594082
0.0593598
0.0593113
0.0592627
0.0592138
0.0591644
0.0591146
0.0590642
0.059013
0.0589608
0.0589071
0.0588509
0.0587926
0.0587308
0.0612006
0.0611639
0.0611274
0.061091
0.0610546
0.0610183
0.0609819
0.0609453
0.0609087
0.0608721
0.0608355
0.0607989
0.0607624
0.0607259
0.0606896
0.0606533
0.0606169
0.0605804
0.0605438
0.0605071
0.0604704
0.0604336
0.060397
0.0603604
0.0603237
0.060287
0.0602501
0.0602132
0.0601761
0.0601391
0.060102
0.0600652
0.0600284
0.0599916
0.0599547
0.0599177
0.0598807
0.0598434
0.059806
0.0597685
0.0597306
0.0596922
0.0596536
0.0596144
0.0595746
0.0595341
0.0594925
0.0594498
0.0594075
0.0593649
0.0612113
0.0611856
0.0611596
0.0611335
0.061107
0.0610803
0.0610533
0.061026
0.0609986
0.060971
0.0609433
0.0609156
0.0608877
0.0608598
0.0608319
0.0608039
0.0607757
0.0607474
0.0607189
0.0606903
0.0606616
0.0606329
0.0606041
0.0605753
0.0605464
0.0605174
0.0604882
0.0604588
0.0604294
0.0603999
0.0603703
0.0603409
0.0603114
0.0602819
0.0602524
0.0602227
0.0601928
0.0601629
0.0601325
0.0601021
0.0600714
0.0600405
0.0600092
0.0599777
0.0599456
0.0599137
0.0598813
0.0598487
0.0598147
0.0597792
0.0612113
0.0611861
0.0611615
0.0611371
0.0611131
0.0610894
0.0610659
0.0610426
0.0610195
0.0609967
0.060974
0.0609515
0.0609293
0.0609071
0.0608851
0.0608632
0.0608413
0.0608194
0.0607975
0.0607756
0.0607538
0.060732
0.0607104
0.0606888
0.0606672
0.0606456
0.060624
0.0606024
0.0605809
0.0605594
0.0605381
0.060517
0.0604959
0.0604749
0.060454
0.0604331
0.0604119
0.0603905
0.0603684
0.0603455
0.0603216
0.0602966
0.0602702
0.0602447
0.0602189
0.0601929
0.0601663
0.0601391
0.0601114
0.0600826
0.061221
0.0612133
0.0612084
0.0612067
0.061208
0.0612118
0.0612173
0.0612242
0.0612321
0.0612408
0.0612501
0.0612598
0.0612699
0.0612802
0.0612906
0.0613011
0.0613116
0.061322
0.0613324
0.0613427
0.0613531
0.0613635
0.061374
0.0613846
0.0613953
0.0614062
0.0614172
0.0614285
0.0614402
0.0614523
0.0614649
0.0614779
0.0614911
0.0615044
0.0615171
0.0615284
0.0615369
0.0615403
0.0615343
0.0615084
0.061503
0.0614969
0.0614904
0.0614824
0.0614734
0.0614635
0.0614523
0.0614398
0.0614256
0.0614089
0.0620148
0.0628257
0.0636442
0.0644697
0.0653026
0.0661435
0.0669925
0.0678498
0.0687155
0.0695897
0.0704725
0.0713639
0.072264
0.0731728
0.0740904
0.0750168
0.0759521
0.0768963
0.0778496
0.0788119
0.0797834
0.0807642
0.0817542
0.0827536
0.0837622
0.0847802
0.0858076
0.0868444
0.0878909
0.088947
0.0900128
0.0910885
0.092174
0.0932693
0.0943746
0.0954896
0.0966147
0.0977497
0.0988949
0.10005
0.101148
0.102205
0.103213
0.104161
0.105041
0.105846
0.10657
0.107207
0.107753
0.108216
0.27115
0.267807
0.264606
0.261536
0.258579
0.255721
0.252944
0.250245
0.24762
0.245065
0.242578
0.240155
0.237794
0.235492
0.233247
0.231057
0.228921
0.226837
0.224804
0.222821
0.220885
0.218996
0.217151
0.21535
0.213591
0.211874
0.210196
0.208559
0.206961
0.205401
0.203878
0.202392
0.20094
0.199522
0.198136
0.196782
0.195459
0.194166
0.192902
0.191664
0.190446
0.189246
0.188063
0.186894
0.185737
0.184588
0.183439
0.18228
0.181093
0.179841
0.269206
0.263037
0.257148
0.251514
0.246127
0.240977
0.23606
0.231359
0.226863
0.222556
0.218426
0.214461
0.21065
0.206985
0.203456
0.200056
0.196779
0.193618
0.190568
0.187623
0.184776
0.182023
0.179359
0.17678
0.174283
0.171863
0.16952
0.167248
0.165046
0.16291
0.160836
0.158821
0.156861
0.154952
0.153091
0.151274
0.1495
0.147764
0.146066
0.144406
0.14279
0.141214
0.139677
0.138177
0.136713
0.135282
0.133881
0.132507
0.131155
0.12982
0.269198
0.263008
0.25708
0.251408
0.24598
0.240783
0.235804
0.23103
0.226449
0.222047
0.217814
0.213739
0.209813
0.206027
0.202373
0.198846
0.195439
0.192146
0.188962
0.185881
0.182899
0.18001
0.17721
0.174495
0.171863
0.169309
0.166832
0.164428
0.162095
0.159829
0.157628
0.155487
0.153405
0.151378
0.149404
0.147482
0.145609
0.143784
0.142005
0.140271
0.13858
0.136931
0.135324
0.133756
0.132228
0.130738
0.129286
0.127872
0.126493
0.125139
0.269198
0.263053
0.257178
0.251558
0.246177
0.24102
0.236073
0.231324
0.22676
0.222371
0.218145
0.214074
0.210148
0.206359
0.202702
0.199169
0.195754
0.192453
0.189259
0.186167
0.183173
0.180272
0.177459
0.174731
0.172085
0.169518
0.167028
0.164611
0.162264
0.159985
0.15777
0.155616
0.15352
0.15148
0.149494
0.147558
0.145672
0.143834
0.142042
0.140295
0.138592
0.136932
0.135312
0.133733
0.132192
0.130689
0.129222
0.127795
0.126405
0.125046
0.269198
0.263054
0.257176
0.251549
0.24616
0.240993
0.236037
0.23128
0.22671
0.222315
0.218086
0.214012
0.210086
0.206298
0.202642
0.199111
0.1957
0.192402
0.189213
0.186125
0.183135
0.180238
0.177429
0.174706
0.172065
0.169504
0.167018
0.164607
0.162265
0.159991
0.15778
0.15563
0.153538
0.151501
0.149517
0.147584
0.145701
0.143865
0.142075
0.14033
0.138628
0.136969
0.13535
0.133772
0.132232
0.13073
0.129263
0.127831
0.126438
0.125077
0.269198
0.263056
0.257186
0.251569
0.24619
0.241036
0.236093
0.231348
0.226788
0.222404
0.218183
0.214117
0.210196
0.206414
0.202762
0.199235
0.195827
0.192531
0.189342
0.186255
0.183265
0.180367
0.177557
0.174833
0.172191
0.169629
0.167143
0.16473
0.162387
0.160111
0.157898
0.155746
0.153651
0.151611
0.149624
0.147688
0.145801
0.143962
0.142169
0.14042
0.138714
0.13705
0.135427
0.133843
0.132299
0.130792
0.12932
0.127883
0.126481
0.125112
0.269198
0.263057
0.257187
0.251571
0.246193
0.241038
0.236094
0.231346
0.226784
0.222396
0.218171
0.214101
0.210178
0.206392
0.202738
0.199209
0.195799
0.192501
0.189311
0.186222
0.183231
0.180332
0.177522
0.174798
0.172157
0.169595
0.167111
0.164699
0.162358
0.160083
0.157871
0.155719
0.153625
0.151586
0.1496
0.147665
0.145779
0.14394
0.142147
0.140398
0.138692
0.137028
0.135404
0.13382
0.132273
0.130765
0.129293
0.127854
0.12645
0.125078
0.269197
0.263057
0.257188
0.251573
0.246198
0.241046
0.236104
0.23136
0.226801
0.222416
0.218195
0.214128
0.210207
0.206424
0.202773
0.199247
0.195838
0.192542
0.189353
0.186265
0.183274
0.180375
0.177566
0.174843
0.172203
0.169642
0.167158
0.164747
0.162405
0.16013
0.157917
0.155765
0.153669
0.151629
0.149642
0.147706
0.145818
0.143978
0.142182
0.14043
0.138721
0.137053
0.135426
0.133838
0.132287
0.130774
0.129297
0.127854
0.126444
0.125066
0.269197
0.263056
0.257187
0.251574
0.246199
0.241048
0.236107
0.231363
0.226803
0.222418
0.218195
0.214127
0.210205
0.206422
0.202769
0.199241
0.195831
0.192533
0.189342
0.186252
0.18326
0.18036
0.17755
0.174826
0.172186
0.169625
0.167141
0.16473
0.162388
0.160112
0.157899
0.155746
0.153651
0.151611
0.149624
0.147688
0.1458
0.143959
0.142162
0.140409
0.138698
0.137028
0.135398
0.133808
0.132256
0.13074
0.129261
0.127815
0.126402
0.125021
0.269197
0.263056
0.257187
0.251574
0.246199
0.241049
0.236109
0.231365
0.226807
0.222422
0.2182
0.214133
0.210211
0.206428
0.202777
0.199249
0.195839
0.192542
0.18935
0.18626
0.183268
0.180368
0.177559
0.174836
0.172196
0.169636
0.167152
0.16474
0.162398
0.160122
0.157908
0.155755
0.15366
0.15162
0.149633
0.147696
0.145808
0.143965
0.142167
0.140411
0.138697
0.137024
0.135391
0.133798
0.132243
0.130724
0.129241
0.127792
0.126375
0.124988
0.269197
0.263055
0.257186
0.251573
0.246199
0.241049
0.236109
0.231366
0.226807
0.222422
0.2182
0.214133
0.210212
0.206429
0.202777
0.199249
0.195839
0.192541
0.189349
0.186258
0.183265
0.180366
0.177556
0.174834
0.172194
0.169634
0.167149
0.164737
0.162394
0.160117
0.157903
0.15575
0.153655
0.151615
0.149627
0.14769
0.145801
0.143957
0.142157
0.140399
0.138682
0.137007
0.135372
0.133775
0.132218
0.130697
0.12921
0.127758
0.126337
0.124946
0.269197
0.263055
0.257186
0.251573
0.246198
0.241048
0.236107
0.231364
0.226804
0.222418
0.218196
0.214128
0.210207
0.206423
0.20277
0.199241
0.19583
0.192531
0.189338
0.186246
0.183253
0.180353
0.177544
0.17482
0.17218
0.169619
0.167134
0.164721
0.162378
0.1601
0.157886
0.155732
0.153637
0.151597
0.14961
0.147673
0.145783
0.143938
0.142136
0.140376
0.138658
0.136981
0.135344
0.133746
0.132186
0.130663
0.129174
0.127718
0.126294
0.124899
0.269197
0.263055
0.257186
0.251572
0.246197
0.241046
0.236105
0.231361
0.226802
0.222417
0.218196
0.214129
0.210208
0.206426
0.202774
0.199246
0.195836
0.192538
0.189345
0.186255
0.183263
0.180364
0.177555
0.174833
0.172193
0.169632
0.167146
0.164732
0.162388
0.160109
0.157895
0.155741
0.153645
0.151605
0.149617
0.147678
0.145786
0.143939
0.142135
0.140373
0.138652
0.136973
0.135333
0.133732
0.132169
0.130642
0.12915
0.127689
0.12626
0.12486
0.269197
0.263055
0.257185
0.25157
0.246193
0.241039
0.236095
0.231348
0.226785
0.222397
0.218172
0.214102
0.210179
0.206394
0.202739
0.199209
0.195796
0.192495
0.189302
0.18621
0.183217
0.180318
0.177508
0.174785
0.172144
0.169582
0.167095
0.164681
0.162336
0.160057
0.157843
0.155689
0.153594
0.151554
0.149565
0.147627
0.145734
0.143887
0.142083
0.140321
0.1386
0.13692
0.13528
0.133679
0.132114
0.130586
0.129091
0.127629
0.126197
0.124794
0.269197
0.263055
0.257185
0.251568
0.246191
0.241038
0.236095
0.23135
0.22679
0.222404
0.218183
0.214117
0.210196
0.206414
0.202762
0.199234
0.195823
0.192524
0.189332
0.186241
0.183249
0.18035
0.17754
0.174816
0.172174
0.16961
0.167122
0.164706
0.162359
0.160079
0.157862
0.155707
0.153609
0.151567
0.149576
0.147634
0.145739
0.143889
0.142082
0.140317
0.138594
0.136911
0.135268
0.133663
0.132095
0.130561
0.129061
0.127593
0.126154
0.124745
0.269197
0.263053
0.257176
0.25155
0.246161
0.240995
0.23604
0.231282
0.226711
0.222315
0.218085
0.214011
0.210084
0.206296
0.20264
0.199108
0.195695
0.192395
0.189201
0.186111
0.183119
0.18022
0.177411
0.174687
0.172046
0.169483
0.166995
0.16458
0.162235
0.159956
0.157742
0.155588
0.153491
0.15145
0.14946
0.147519
0.145625
0.143777
0.141972
0.140209
0.138488
0.136807
0.135165
0.13356
0.131991
0.130457
0.128956
0.127486
0.126047
0.124636
0.269198
0.263053
0.257178
0.251559
0.246179
0.241023
0.236076
0.231326
0.226761
0.22237
0.218143
0.21407
0.210144
0.206356
0.202698
0.199164
0.195747
0.192444
0.189247
0.186152
0.183155
0.180252
0.177437
0.174709
0.172062
0.169493
0.167001
0.16458
0.16223
0.159947
0.157727
0.155568
0.153467
0.15142
0.149425
0.147481
0.145583
0.143732
0.141925
0.14016
0.138437
0.136754
0.13511
0.133503
0.131933
0.130397
0.128896
0.127427
0.125991
0.124586
0.269198
0.263009
0.257081
0.251411
0.245983
0.240787
0.235808
0.231033
0.226449
0.222046
0.217811
0.213734
0.209807
0.206021
0.202367
0.19884
0.195431
0.192137
0.188951
0.185868
0.182883
0.179992
0.177191
0.174476
0.171843
0.169289
0.166812
0.164407
0.162073
0.159805
0.157602
0.15546
0.153375
0.151346
0.14937
0.147445
0.145569
0.143739
0.141956
0.140216
0.13852
0.136866
0.135252
0.13368
0.132147
0.130655
0.129204
0.127795
0.126432
0.125119
0.269207
0.263039
0.257152
0.251518
0.246131
0.240982
0.236063
0.231362
0.226863
0.222553
0.21842
0.214453
0.210642
0.206977
0.203449
0.200051
0.196776
0.193617
0.190568
0.187623
0.184778
0.182028
0.179368
0.176794
0.174303
0.171892
0.169557
0.167296
0.165105
0.162982
0.160924
0.158928
0.156991
0.155109
0.153283
0.151508
0.149784
0.14811
0.146485
0.144908
0.143379
0.141899
0.140467
0.139086
0.137758
0.136486
0.135277
0.134141
0.133094
0.132169
0.271148
0.267808
0.264609
0.26154
0.258585
0.255728
0.252953
0.250255
0.247629
0.245072
0.242582
0.240156
0.237791
0.235486
0.233237
0.231045
0.228906
0.226819
0.224783
0.222796
0.220856
0.218963
0.217115
0.21531
0.213548
0.211828
0.210148
0.208508
0.206905
0.205338
0.203807
0.202309
0.200843
0.199408
0.198003
0.196627
0.195278
0.193955
0.192657
0.191383
0.190132
0.188903
0.187694
0.186505
0.185335
0.184182
0.183044
0.181919
0.180804
0.179693
0.128133
0.0670401
0.0495506
0.0469977
0.0459762
0.0456328
0.0449542
0.0445214
0.0439373
0.043443
0.0429365
0.0423866
0.0419524
0.0413427
0.0409838
0.0403021
0.0402769
0.0415917
0.0554268
0.107361
0.128268
0.0671868
0.0497189
0.0471745
0.0461538
0.045807
0.0451294
0.0446965
0.0441141
0.043619
0.0431118
0.0425597
0.0421237
0.0415119
0.0411513
0.0404692
0.0404437
0.0417598
0.0555928
0.107498
0.128408
0.0673285
0.0498848
0.0473501
0.046332
0.0459848
0.0453106
0.0448779
0.0442959
0.0437983
0.0432889
0.0427338
0.0422958
0.0416827
0.0413218
0.04064
0.0406135
0.0419287
0.055764
0.10761
0.128553
0.0674604
0.0500488
0.0475269
0.0465133
0.0461661
0.0454937
0.045059
0.0444757
0.0439749
0.0434638
0.0429072
0.0424691
0.0418562
0.0414952
0.0408129
0.0407838
0.0420966
0.0559106
0.107722
0.128697
0.0675886
0.0502142
0.0477061
0.0466971
0.0463482
0.045676
0.0452378
0.044653
0.0441496
0.0436384
0.0430817
0.042644
0.0420312
0.0416685
0.0409841
0.0409512
0.0422578
0.056039
0.107839
0.12884
0.0677181
0.050382
0.0478871
0.0468815
0.0465299
0.0458568
0.0454153
0.0448297
0.0443254
0.0438151
0.0432585
0.0428204
0.0422059
0.0418403
0.0411534
0.0411176
0.0424167
0.0561634
0.107967
0.128982
0.0678503
0.0505516
0.0480695
0.0470668
0.0467122
0.0460384
0.0455946
0.0450097
0.0445053
0.0439958
0.0434379
0.0429977
0.0423804
0.042012
0.0413242
0.0412873
0.0425799
0.0562996
0.108102
0.129125
0.0679848
0.0507233
0.0482536
0.0472541
0.0468968
0.0462235
0.0457784
0.0451951
0.04469
0.0441797
0.0436189
0.0431758
0.0425564
0.0421869
0.0414999
0.0414631
0.0427507
0.0564519
0.108236
0.12927
0.0681211
0.0508973
0.0484399
0.047444
0.0470846
0.0464126
0.0459667
0.0453843
0.0448771
0.0443645
0.0438004
0.0433555
0.0427359
0.0423667
0.0416811
0.0416436
0.0429263
0.0566108
0.108363
0.129416
0.068258
0.0510733
0.048628
0.0476357
0.0472744
0.0466039
0.0461566
0.0455737
0.0450632
0.0445484
0.0439825
0.0435378
0.0429191
0.0425503
0.0418651
0.0418251
0.0431015
0.0567628
0.108483
0.129563
0.0683939
0.05125
0.0488166
0.0478278
0.0474645
0.046795
0.0463453
0.0457612
0.0452476
0.0447322
0.0441663
0.0437226
0.0431046
0.0427351
0.0420489
0.042005
0.0432733
0.0569021
0.108604
0.129708
0.0685294
0.0514271
0.0490053
0.0480199
0.0476543
0.0469853
0.0465326
0.0459476
0.0454324
0.0449176
0.0443524
0.0439092
0.043291
0.0429199
0.042232
0.042184
0.0434431
0.057034
0.108733
0.129851
0.0686675
0.0516056
0.0491953
0.0482131
0.0478451
0.0471764
0.0467211
0.0461361
0.04562
0.045106
0.0445407
0.0440973
0.0434784
0.0431056
0.0424161
0.0423646
0.0436146
0.0571693
0.108871
0.129995
0.0688108
0.0517867
0.0493876
0.0484089
0.0480386
0.0473706
0.0469133
0.0463286
0.0458113
0.0452973
0.0447312
0.0442871
0.0436677
0.0432935
0.0426029
0.0425487
0.0437904
0.0573156
0.109014
0.130144
0.068957
0.0519704
0.0495827
0.0486079
0.0482358
0.0475689
0.0471095
0.0465246
0.0460052
0.0454906
0.0449236
0.0444792
0.0438593
0.0434837
0.0427926
0.0427362
0.0439705
0.0574721
0.109157
0.130298
0.069101
0.0521558
0.0497797
0.0488095
0.0484357
0.0477697
0.0473076
0.046722
0.0462004
0.0456855
0.045118
0.0446731
0.0440525
0.0436755
0.0429839
0.0429255
0.0441528
0.0576317
0.109296
0.130452
0.0692397
0.052342
0.0499778
0.0490125
0.0486365
0.0479709
0.0475057
0.0469196
0.0463966
0.045882
0.0453141
0.0448684
0.0442467
0.0438679
0.0431758
0.0431152
0.044335
0.0577874
0.109432
0.130601
0.0693768
0.0525295
0.0501769
0.0492158
0.048837
0.0481715
0.0477037
0.0471183
0.0465948
0.0460809
0.0455121
0.045065
0.0444417
0.0440611
0.0433683
0.0433051
0.0445168
0.0579376
0.10957
0.130745
0.0695202
0.0527195
0.0503777
0.0494198
0.0490377
0.0483725
0.0479032
0.0473195
0.0467959
0.0462825
0.0457122
0.0452633
0.0446383
0.0442557
0.0435621
0.0434963
0.0446998
0.058087
0.109711
0.130889
0.0696746
0.0529128
0.0505807
0.0496252
0.0492398
0.0485758
0.0481059
0.0475243
0.0470004
0.0464867
0.0459145
0.0454637
0.0448371
0.0444527
0.0437586
0.0436903
0.0448861
0.0582413
0.109856
0.131041
0.0698367
0.0531083
0.0507859
0.0498327
0.0494447
0.0487827
0.0483123
0.0477322
0.0472072
0.0466927
0.0461183
0.0456659
0.0450383
0.0446527
0.0439584
0.0438877
0.0450764
0.0584014
0.110001
0.131204
0.0699977
0.0533042
0.0509925
0.0500425
0.0496525
0.0489927
0.0485213
0.0479418
0.0474148
0.0468991
0.0463229
0.0458695
0.0452417
0.0448555
0.0441611
0.0440875
0.0452688
0.0585627
0.110144
0.131372
0.0701508
0.0534999
0.0512003
0.0502545
0.049863
0.0492048
0.0487313
0.0481514
0.0476219
0.0471052
0.0465279
0.0460745
0.0454472
0.0450603
0.0443653
0.0442878
0.0454607
0.0587191
0.110285
0.131539
0.0702975
0.0536965
0.0514099
0.0504689
0.0500753
0.049418
0.0489415
0.0483608
0.0478289
0.0473117
0.0467342
0.0462812
0.0456544
0.0452661
0.0445695
0.0444878
0.0456513
0.0588698
0.110431
0.131699
0.0704455
0.0538962
0.0516222
0.0506856
0.0502894
0.0496322
0.0491525
0.0485711
0.0480373
0.0475204
0.046943
0.0464902
0.0458629
0.0454724
0.044774
0.0446885
0.0458423
0.0590203
0.110584
0.131856
0.0706016
0.0541001
0.0518374
0.0509048
0.0505055
0.0498483
0.0493658
0.0487842
0.0482492
0.0477327
0.0471551
0.0467015
0.0460728
0.0456797
0.0449799
0.0448919
0.0460369
0.0591785
0.110745
0.132015
0.0707665
0.0543078
0.0520555
0.0511265
0.0507241
0.0500674
0.0495826
0.0490015
0.0484653
0.0479488
0.04737
0.0469146
0.0462842
0.0458891
0.0451892
0.0450997
0.046237
0.059348
0.110909
0.13218
0.0709354
0.0545178
0.0522759
0.0513506
0.0509456
0.05029
0.0498032
0.0492226
0.0486849
0.0481676
0.0475868
0.0471293
0.0464976
0.0461015
0.0454025
0.0453116
0.046442
0.0595261
0.111072
0.13235
0.0711033
0.054729
0.0524981
0.051577
0.0511697
0.0505154
0.0500267
0.0494463
0.0489065
0.0483878
0.0478049
0.0473458
0.0467136
0.0463169
0.0456187
0.0455261
0.0466496
0.0597068
0.111233
0.132522
0.0712685
0.0549414
0.0527217
0.0518051
0.0513955
0.0507427
0.0502518
0.0496713
0.0491293
0.0486093
0.0480247
0.0475645
0.0469321
0.0465346
0.0458366
0.0457414
0.0468577
0.0598853
0.111392
0.132694
0.0714324
0.055155
0.0529468
0.0520346
0.0516228
0.0509712
0.0504782
0.0498977
0.0493536
0.0488327
0.048247
0.0477859
0.0471531
0.0467541
0.0460555
0.0459572
0.0470662
0.0600606
0.111551
0.132863
0.0715976
0.0553704
0.0531735
0.0522659
0.0518518
0.0512016
0.0507065
0.0501263
0.0495806
0.0490592
0.0484725
0.0480102
0.0473765
0.0469755
0.0462762
0.0461746
0.0472761
0.0602347
0.111714
0.133033
0.0717669
0.0555886
0.0534029
0.0524998
0.0520835
0.0514347
0.0509377
0.050358
0.0498109
0.049289
0.0487012
0.0482375
0.0476028
0.0471997
0.0464994
0.0463945
0.0474884
0.06041
0.11188
0.133205
0.0719419
0.0558102
0.0536358
0.0527371
0.0523184
0.0516709
0.0511719
0.0505927
0.0500441
0.0495216
0.0489325
0.0484674
0.0478319
0.0474267
0.0467256
0.0466172
0.0477035
0.0605879
0.11205
0.13338
0.0721225
0.0560354
0.0538719
0.0529774
0.0525558
0.0519094
0.0514084
0.0508295
0.0502791
0.049756
0.0491658
0.0486996
0.0480634
0.0476563
0.0469542
0.0468424
0.047921
0.0607694
0.112224
0.133561
0.0723056
0.0562631
0.0541104
0.0532196
0.052795
0.0521496
0.0516463
0.0510675
0.0505154
0.0499918
0.0494008
0.0489336
0.0482968
0.0478876
0.0471848
0.0470699
0.0481411
0.0609548
0.1124
0.133746
0.0724874
0.0564919
0.0543501
0.0534631
0.0530355
0.0523912
0.0518857
0.051307
0.0507531
0.0502292
0.0496375
0.0491693
0.0485316
0.0481205
0.0474172
0.0472998
0.048364
0.0611446
0.11258
0.133934
0.0726666
0.0567215
0.0545912
0.0537084
0.0532784
0.0526353
0.0521274
0.0515489
0.0509934
0.0504691
0.0498764
0.0494067
0.0487681
0.0483553
0.0476522
0.0475326
0.0485901
0.0613385
0.11276
0.13412
0.072846
0.0569534
0.054835
0.053957
0.0535246
0.0528827
0.0523726
0.0517942
0.0512369
0.0507121
0.0501178
0.0496465
0.0490071
0.048593
0.0478903
0.0477686
0.0488194
0.0615353
0.112942
0.134306
0.0730298
0.0571891
0.0550825
0.0542094
0.0537746
0.0531339
0.0526215
0.0520433
0.051484
0.0509581
0.0503621
0.0498894
0.0492496
0.0488345
0.0481322
0.0480079
0.0490517
0.0617341
0.113125
0.134494
0.0732193
0.0574287
0.0553336
0.0544652
0.0540278
0.0533882
0.0528735
0.0522953
0.0517338
0.0512069
0.0506095
0.0501358
0.0494961
0.04908
0.0483777
0.0482499
0.0492865
0.0619343
0.113311
0.134686
0.0734113
0.0576707
0.0555869
0.054723
0.0542828
0.0536445
0.0531274
0.0525491
0.0519856
0.051458
0.05086
0.050386
0.0497466
0.0493291
0.0486262
0.0484945
0.0495236
0.0621361
0.113501
0.134881
0.0736014
0.0579135
0.0558412
0.0549819
0.0545388
0.0539017
0.0533821
0.0528038
0.0522389
0.0517113
0.0511135
0.0506396
0.0500004
0.0495811
0.0488772
0.0487415
0.0497629
0.0623401
0.113694
0.135077
0.0737892
0.0581568
0.0560968
0.0552419
0.054796
0.0541596
0.0536375
0.0530594
0.0524936
0.0519669
0.0513697
0.0508959
0.0502565
0.0498352
0.0491303
0.048991
0.0500048
0.0625469
0.113891
0.135271
0.0739787
0.0584023
0.0563548
0.0555041
0.0550547
0.0544187
0.0538939
0.0533166
0.0527505
0.0522249
0.0516282
0.0511541
0.0505144
0.0500912
0.0493858
0.0492433
0.0502494
0.0627569
0.114092
0.135465
0.0741747
0.0586517
0.0566163
0.055769
0.0553155
0.0546797
0.0541526
0.0535762
0.0530101
0.0524853
0.0518887
0.051414
0.0507739
0.0503491
0.0496438
0.0494985
0.050497
0.06297
0.114296
0.135665
0.0743774
0.0589052
0.0568812
0.0560368
0.055579
0.0549436
0.0544144
0.0538392
0.0532727
0.0527485
0.0521514
0.051676
0.0510357
0.0506096
0.0499046
0.0497567
0.0507473
0.0631856
0.114502
0.135871
0.0745824
0.0591613
0.0571486
0.056307
0.0558454
0.0552109
0.0546801
0.0541061
0.0535389
0.0530147
0.052417
0.0519406
0.0513
0.0508728
0.0501681
0.0500174
0.051
0.0634029
0.114711
0.136084
0.0747843
0.0594186
0.0574175
0.0565796
0.0561149
0.0554822
0.0549501
0.0543772
0.053809
0.0532845
0.0526857
0.052208
0.051567
0.0511383
0.0504338
0.0502804
0.0512548
0.0636215
0.114923
0.136297
0.0749815
0.0596769
0.057688
0.0568548
0.0563882
0.055758
0.0552248
0.0546528
0.054083
0.0535575
0.0529571
0.0524777
0.051836
0.0514057
0.0507016
0.0505458
0.0515122
0.0638424
0.115137
0.136506
0.0751773
0.0599374
0.057961
0.0571336
0.0566658
0.0560384
0.0555038
0.0549321
0.0543602
0.053833
0.0532307
0.0527492
0.0521068
0.0516754
0.0509721
0.0508143
0.0517732
0.064068
0.115356
0.136711
0.0753775
0.060202
0.0582377
0.0574168
0.0569479
0.056323
0.0557865
0.0552144
0.0546395
0.0541102
0.0535059
0.0530228
0.0523804
0.0519485
0.0512466
0.0510871
0.0520392
0.0643008
0.115579
0.136913
0.0755869
0.060472
0.0585192
0.0577048
0.0572343
0.0566111
0.0560716
0.0554983
0.0549202
0.0543891
0.0537835
0.0532998
0.0526582
0.0522264
0.0515261
0.0513648
0.0523107
0.0645419
0.115804
0.137119
0.0758066
0.0607477
0.0588058
0.0579971
0.057524
0.0569014
0.0563582
0.0557835
0.0552027
0.0546709
0.0540651
0.0535818
0.0529418
0.05251
0.0518109
0.0516469
0.0525872
0.0647893
0.116029
0.137331
0.0760341
0.0610281
0.0590965
0.0582924
0.0578155
0.0571928
0.0566458
0.0560705
0.0554883
0.0549571
0.0543524
0.0538698
0.0532311
0.0527984
0.0520996
0.0519319
0.0528665
0.0650388
0.116254
0.13755
0.0762644
0.0613114