/*--------------------------------*- C++ -*----------------------------------*\
  =========                 |
  \\      /  F ield         | OpenFOAM: The Open Source CFD Toolbox
   \\    /   O peration     | Website:  https://openfoam.org
    \\  /    A nd           | Version:  8
     \\/     M anipulation  |
\*---------------------------------------------------------------------------*/
FoamFile
{
    version     2.0;
    format      ascii;
    class       volScalarField;
    location    "200";
    object      epsilon;
}
// * * * * * * * * * * * * * * * * * * * * * * * * * * * * * * * * * * * * * //

dimensions      [0 2 -3 0 0 0 0];

internalField   nonuniform List<scalar> 
8400
(
1.67117
1.64484
1.61914
1.59394
1.56914
1.54465
1.5204
1.49632
1.47239
1.44859
1.42493
1.4014
1.37802
1.35481
1.33179
1.30899
1.28641
1.26409
1.24204
1.22028
1.19883
1.17769
1.15689
1.13643
1.11633
1.09661
1.07726
1.05831
1.03977
1.02163
1.00391
0.986625
0.969776
0.953374
0.937429
0.921949
0.906947
0.892432
0.878416
0.864915
0.851945
0.839529
0.827694
0.816478
0.805931
0.796126
0.787169
0.779215
0.772465
0.767214
0.0374309
0.0373551
0.0372804
0.0372092
0.037144
0.0370866
0.0370389
0.0370023
0.0369783
0.036968
0.0369722
0.036992
0.0370281
0.0370813
0.0371522
0.0372415
0.0373498
0.0374778
0.0376258
0.0377946
0.0379846
0.0381964
0.0384304
0.0386874
0.0389676
0.0392716
0.0395999
0.0399529
0.0403309
0.0407343
0.0411633
0.0416183
0.0420995
0.0426071
0.0431412
0.0437019
0.0442892
0.0449032
0.0455435
0.0462101
0.0469025
0.0476201
0.0483624
0.0491282
0.0499161
0.0507242
0.0515495
0.0523883
0.0532353
0.0540826
0.0495081
0.0496571
0.0497991
0.0499373
0.0500751
0.0502164
0.0503642
0.0505213
0.0506898
0.0508713
0.0510674
0.051279
0.0515072
0.0517526
0.0520159
0.0522977
0.0525984
0.0529185
0.0532584
0.0536185
0.053999
0.0544002
0.0548225
0.055266
0.055731
0.0562176
0.0567261
0.0572563
0.0578082
0.0583818
0.0589769
0.0595932
0.0602305
0.0608882
0.0615661
0.0622635
0.0629797
0.063714
0.0644654
0.0652328
0.0660149
0.0668101
0.0676166
0.068432
0.0692534
0.0700768
0.0708974
0.0717088
0.0725027
0.0732675
0.0680457
0.0684969
0.0689359
0.0693636
0.0697815
0.0701915
0.0705954
0.0709952
0.0713926
0.0717896
0.0721877
0.0725884
0.0729932
0.0734034
0.0738201
0.0742444
0.0746774
0.0751199
0.0755727
0.0760366
0.0765123
0.0770003
0.0775012
0.0780156
0.0785439
0.0790865
0.0796438
0.080216
0.0808032
0.0814057
0.0820236
0.0826568
0.0833053
0.0839692
0.0846483
0.0853426
0.0860519
0.0867759
0.0875145
0.0882671
0.0890335
0.0898134
0.0906062
0.0914113
0.0922281
0.0930556
0.0938925
0.0947375
0.0955887
0.0964432
0.0691553
0.0699754
0.0707859
0.0715805
0.0723549
0.073106
0.0738326
0.0745345
0.0752125
0.0758679
0.0765025
0.077118
0.0777167
0.0783002
0.0788708
0.0794303
0.0799805
0.0805232
0.0810599
0.0815921
0.0821214
0.0826491
0.0831763
0.0837045
0.0842348
0.0847682
0.0853059
0.0858489
0.0863981
0.0869545
0.087519
0.0880925
0.088676
0.0892703
0.0898766
0.0904957
0.0911287
0.0917765
0.0924403
0.0931211
0.0938203
0.0945394
0.0952801
0.0960445
0.096835
0.0976543
0.0985062
0.0993948
0.100325
0.101305
0.0538438
0.0548495
0.0558619
0.0568642
0.0578446
0.0587956
0.0597125
0.0605932
0.0614372
0.0622449
0.0630179
0.0637578
0.0644667
0.0651467
0.0658002
0.0664294
0.0670367
0.0676242
0.0681942
0.0687486
0.0692896
0.069819
0.0703389
0.0708512
0.0713577
0.0718602
0.0723605
0.0728605
0.0733618
0.0738662
0.0743755
0.0748915
0.075416
0.075951
0.0764984
0.0770602
0.0776384
0.078235
0.0788522
0.0794923
0.0801579
0.0808518
0.0815771
0.0823376
0.0831375
0.0839821
0.0848775
0.0858314
0.0868531
0.0879538
0.0332309
0.0340869
0.0349601
0.035833
0.0366935
0.0375331
0.0383466
0.0391312
0.0398857
0.0406097
0.0413039
0.0419691
0.0426068
0.0432183
0.0438054
0.0443697
0.0449132
0.0454378
0.0459452
0.0464374
0.0469163
0.0473837
0.0478416
0.0482919
0.0487365
0.0491774
0.0496165
0.0500557
0.0504971
0.0509425
0.0513941
0.051854
0.0523243
0.0528073
0.0533052
0.0538203
0.054355
0.0549117
0.0554928
0.0561011
0.0567392
0.0574104
0.058118
0.0588658
0.0596584
0.0605011
0.0614003
0.0623639
0.0634012
0.0645238
0.0179889
0.0184605
0.0189553
0.0194597
0.0199648
0.0204649
0.0209562
0.0214365
0.0219046
0.0223598
0.0228017
0.0232304
0.0236461
0.0240493
0.0244406
0.0248207
0.0251905
0.025551
0.0259031
0.0262479
0.0265867
0.0269206
0.0272508
0.0275788
0.0279058
0.0282332
0.0285626
0.0288953
0.029233
0.0295773
0.0299297
0.0302922
0.0306664
0.0310542
0.0314577
0.0318788
0.0323195
0.032782
0.0332685
0.0337812
0.0343226
0.0348954
0.0355023
0.0361466
0.0368318
0.0375621
0.0383426
0.0391793
0.0400795
0.0410521
0.0110651
0.0111692
0.0112923
0.0114298
0.0115781
0.0117344
0.0118963
0.0120622
0.0122308
0.0124011
0.0125722
0.0127437
0.0129149
0.0130857
0.0132558
0.0134252
0.013594
0.0137622
0.0139302
0.0140981
0.0142665
0.0144357
0.0146063
0.0147789
0.014954
0.0151323
0.0153146
0.0155016
0.0156942
0.0158934
0.0161
0.0163151
0.0165399
0.0167755
0.0170233
0.0172845
0.0175606
0.0178531
0.0181635
0.0184936
0.0188451
0.0192198
0.01962
0.0200478
0.0205058
0.0209969
0.0215243
0.022092
0.0227049
0.0233688
0.010008
0.00986702
0.00974357
0.00964077
0.00955725
0.00949076
0.00943905
0.00940029
0.00937291
0.0093556
0.0093472
0.00934669
0.00935321
0.00936595
0.00938425
0.00940752
0.00943525
0.00946703
0.0095025
0.00954138
0.00958349
0.00962868
0.00967688
0.00972806
0.00978224
0.00983951
0.00989998
0.00996381
0.0100312
0.0101025
0.0101778
0.0102577
0.0103426
0.0104328
0.0105291
0.0106319
0.010742
0.0108601
0.010987
0.0111237
0.011271
0.0114302
0.0116023
0.0117886
0.0119906
0.0122097
0.0124477
0.0127064
0.0129882
0.0132956
0.0114273
0.0111912
0.0109728
0.0107735
0.0105921
0.0104263
0.010274
0.0101338
0.0100049
0.00988681
0.00977897
0.00968103
0.00959247
0.00951287
0.00944173
0.00937851
0.0093227
0.00927376
0.00923117
0.00919444
0.00916307
0.00913665
0.00911477
0.00909705
0.00908313
0.00907267
0.00906538
0.00906098
0.00905921
0.00905979
0.0090625
0.00906709
0.00907345
0.00908146
0.00909107
0.00910225
0.00911499
0.00912932
0.00914535
0.00916322
0.00918316
0.00920559
0.00923089
0.00925957
0.00929222
0.00932955
0.00937219
0.00942086
0.00947631
0.00953912
0.012691
0.0125153
0.0123602
0.0122124
0.0120719
0.0119378
0.0118078
0.0116814
0.0115576
0.0114366
0.0113185
0.0112037
0.0110924
0.0109849
0.0108816
0.0107825
0.0106878
0.0105978
0.0105123
0.0104312
0.0103545
0.0102824
0.0102148
0.0101517
0.010093
0.0100388
0.00998879
0.00994307
0.00990157
0.00986402
0.00982994
0.0097988
0.00977022
0.00974395
0.00971978
0.00969745
0.00967644
0.00965602
0.00963572
0.00961519
0.00959413
0.00957179
0.00954838
0.00952323
0.00949641
0.00946805
0.00943866
0.0094089
0.00938058
0.00935509
0.013085
0.0129899
0.0129013
0.0128171
0.0127359
0.0126569
0.0125796
0.0125037
0.0124289
0.012355
0.0122818
0.0122093
0.0121376
0.0120666
0.0119964
0.011927
0.0118583
0.0117905
0.0117236
0.0116575
0.0115922
0.0115278
0.0114642
0.0114016
0.0113402
0.0112801
0.0112212
0.0111636
0.0111074
0.0110527
0.0109998
0.0109486
0.0108991
0.0108512
0.010805
0.0107607
0.0107182
0.0106774
0.0106383
0.0106004
0.0105637
0.010528
0.0104932
0.0104588
0.0104246
0.0103897
0.010353
0.0103129
0.0102674
0.0102137
0.0131254
0.0130765
0.0130282
0.0129804
0.0129329
0.0128856
0.0128385
0.0127915
0.0127447
0.012698
0.0126514
0.0126049
0.0125586
0.0125125
0.0124666
0.0124209
0.0123753
0.01233
0.0122849
0.01224
0.0121953
0.0121508
0.0121066
0.0120627
0.0120191
0.0119759
0.011933
0.0118905
0.0118484
0.0118068
0.0117657
0.011725
0.0116848
0.0116451
0.0116059
0.0115673
0.0115292
0.0114916
0.0114545
0.0114177
0.0113812
0.0113451
0.011309
0.011273
0.0112366
0.0111996
0.0111616
0.0111221
0.0110803
0.0110358
0.0131409
0.0131089
0.0130769
0.0130447
0.0130124
0.0129801
0.0129477
0.0129153
0.012883
0.0128506
0.0128182
0.0127859
0.0127536
0.0127214
0.0126892
0.0126571
0.012625
0.012593
0.012561
0.0125291
0.0124973
0.0124655
0.0124339
0.0124023
0.0123708
0.0123395
0.0123083
0.0122772
0.0122463
0.0122155
0.0121849
0.0121545
0.0121242
0.012094
0.012064
0.0120342
0.0120045
0.011975
0.0119455
0.0119162
0.0118868
0.0118574
0.011828
0.0117982
0.0117681
0.0117374
0.0117059
0.0116732
0.0116391
0.0116031
0.0131474
0.0131233
0.0130993
0.0130753
0.0130515
0.0130277
0.0130039
0.0129802
0.0129566
0.0129329
0.0129093
0.0128857
0.0128622
0.0128386
0.0128151
0.0127916
0.0127681
0.0127446
0.0127211
0.0126976
0.0126741
0.0126506
0.0126271
0.0126036
0.0125802
0.0125567
0.0125333
0.01251
0.0124866
0.0124633
0.01244
0.0124168
0.0123935
0.0123703
0.0123471
0.0123238
0.0123006
0.0122774
0.0122542
0.0122309
0.0122075
0.0121841
0.0121604
0.0121365
0.0121122
0.0120874
0.0120622
0.0120362
0.0120099
0.0119835
0.0131546
0.0131377
0.0131207
0.0131035
0.0130861
0.0130687
0.0130511
0.0130335
0.0130157
0.0129979
0.01298
0.0129621
0.012944
0.012926
0.0129078
0.0128896
0.0128714
0.0128531
0.0128347
0.0128163
0.0127978
0.0127793
0.0127607
0.0127421
0.0127235
0.0127048
0.0126862
0.0126675
0.0126488
0.01263
0.0126113
0.0125925
0.0125737
0.0125548
0.0125359
0.012517
0.0124981
0.0124791
0.0124601
0.0124411
0.012422
0.0124027
0.0123833
0.0123637
0.0123437
0.0123235
0.0123032
0.0122827
0.0122618
0.0122401
0.0131544
0.0131379
0.0131216
0.0131056
0.0130898
0.0130743
0.013059
0.0130439
0.013029
0.0130142
0.0129995
0.0129849
0.0129704
0.012956
0.0129416
0.0129273
0.012913
0.0128988
0.0128846
0.0128704
0.0128563
0.0128422
0.0128281
0.0128141
0.0128001
0.0127862
0.0127723
0.0127586
0.0127449
0.0127313
0.0127177
0.0127043
0.0126909
0.0126777
0.0126645
0.0126513
0.0126382
0.0126251
0.0126118
0.0125983
0.0125843
0.0125697
0.0125544
0.0125383
0.0125222
0.0125061
0.0124897
0.0124729
0.0124557
0.012438
0.0131611
0.0131561
0.0131527
0.0131515
0.0131521
0.0131542
0.0131575
0.0131616
0.0131663
0.0131715
0.013177
0.0131828
0.0131887
0.0131946
0.0132007
0.0132067
0.0132128
0.0132188
0.0132248
0.0132308
0.0132369
0.0132429
0.0132491
0.0132553
0.0132618
0.0132684
0.0132754
0.0132827
0.0132904
0.0132986
0.0133073
0.0133167
0.0133266
0.013337
0.0133478
0.0133587
0.013369
0.013378
0.0133839
0.0133837
0.013379
0.0133745
0.0133704
0.0133663
0.0133619
0.0133569
0.0133511
0.0133445
0.0133366
0.0133271
0.0136799
0.0142237
0.0147872
0.0153702
0.0159741
0.0165996
0.0172476
0.0179189
0.0186141
0.0193342
0.02008
0.0208523
0.0216519
0.0224798
0.0233369
0.024224
0.0251423
0.0260926
0.027076
0.0280935
0.0291463
0.0302354
0.0313619
0.0325272
0.0337323
0.0349785
0.0362671
0.0375993
0.0389766
0.0404002
0.0418716
0.0433922
0.0449635
0.0465869
0.048264
0.0499966
0.0517862
0.0536345
0.0555436
0.0575151
0.0595228
0.0615232
0.0634915
0.0654005
0.0672217
0.068928
0.0704932
0.0718926
0.0731048
0.0741402
1.14672
1.10487
1.06573
1.02905
0.994541
0.961913
0.930906
0.9014
0.873291
0.846492
0.820924
0.796518
0.773209
0.750938
0.729649
0.709289
0.689808
0.671157
0.653291
0.636167
0.619747
0.603995
0.588878
0.574367
0.560432
0.547048
0.534186
0.521823
0.509934
0.498496
0.487489
0.476892
0.466688
0.456859
0.447391
0.438268
0.429476
0.421002
0.412834
0.404925
0.397249
0.389788
0.382525
0.375442
0.368517
0.361723
0.355022
0.348352
0.341606
0.334577
1.12226
1.04692
0.978187
0.915284
0.857705
0.804961
0.756638
0.712275
0.671467
0.633859
0.599138
0.56703
0.537292
0.509705
0.484075
0.460228
0.438004
0.417263
0.397879
0.379739
0.362743
0.3468
0.331831
0.317761
0.304522
0.292051
0.280292
0.269191
0.2587
0.248775
0.239376
0.230467
0.222014
0.213987
0.206353
0.199086
0.192158
0.185545
0.179222
0.173194
0.16745
0.161972
0.156745
0.151754
0.146984
0.142421
0.138052
0.133864
0.129845
0.125975
1.12215
1.04657
0.977402
0.914129
0.856176
0.803025
0.754195
0.709256
0.667826
0.629566
0.594178
0.561398
0.530992
0.502749
0.476479
0.452012
0.429194
0.407886
0.387964
0.369317
0.351845
0.335458
0.320075
0.30562
0.292027
0.27923
0.267174
0.255803
0.24507
0.234931
0.225345
0.216275
0.207687
0.19955
0.191838
0.184523
0.17758
0.170985
0.164719
0.15876
0.15309
0.147694
0.142556
0.137662
0.133
0.128555
0.124317
0.120273
0.116417
0.112749
1.12216
1.04711
0.978528
0.915772
0.85824
0.805396
0.756772
0.711954
0.670575
0.632315
0.596889
0.564042
0.533547
0.5052
0.478815
0.454226
0.431282
0.409847
0.389799
0.371027
0.353434
0.336929
0.321433
0.306869
0.293171
0.280273
0.26812
0.256657
0.245836
0.235613
0.225948
0.216805
0.208149
0.19995
0.192178
0.184806
0.17781
0.171165
0.164851
0.158847
0.153136
0.1477
0.142524
0.137594
0.132898
0.128425
0.124161
0.120094
0.116211
0.11251
1.12216
1.04713
0.978519
0.915691
0.858067
0.805131
0.756424
0.71154
0.670116
0.631829
0.596393
0.563551
0.533071
0.504746
0.47839
0.453833
0.430923
0.409522
0.38951
0.370774
0.353216
0.336747
0.321284
0.306752
0.293082
0.280212
0.268082
0.256639
0.245837
0.235631
0.225982
0.216852
0.208209
0.200022
0.19226
0.184898
0.17791
0.171272
0.164964
0.158965
0.153257
0.147823
0.142648
0.137718
0.133019
0.128539
0.124269
0.120197
0.116308
0.112595
1.12216
1.04717
0.978644
0.915916
0.858397
0.805566
0.756956
0.712156
0.670803
0.632574
0.597182
0.56437
0.533911
0.505596
0.479241
0.454677
0.431755
0.410339
0.390307
0.37155
0.35397
0.337478
0.321991
0.307435
0.29374
0.280843
0.268687
0.257218
0.246389
0.236156
0.226482
0.217328
0.208662
0.200452
0.192668
0.185285
0.178276
0.171618
0.165289
0.15927
0.153543
0.14809
0.142897
0.137948
0.13323
0.128731
0.124438
0.120344
0.116433
0.112697
1.12216
1.04718
0.978675
0.915958
0.858438
0.805593
0.756961
0.712135
0.670753
0.632495
0.597077
0.564242
0.533763
0.505432
0.479063
0.454489
0.431559
0.410139
0.390106
0.371352
0.353777
0.337291
0.321812
0.307263
0.293576
0.280686
0.268536
0.257073
0.246251
0.236025
0.226357
0.217211
0.208552
0.200348
0.192571
0.185193
0.178188
0.171534
0.165209
0.159194
0.153469
0.148019
0.142827
0.137879
0.133162
0.128661
0.124366
0.120267
0.116351
0.112608
1.12216
1.04719
0.978701
0.916002
0.858501
0.805676
0.757064
0.712258
0.670896
0.632659
0.597259
0.564442
0.533978
0.505658
0.479299
0.454732
0.431807
0.410391
0.390361
0.371608
0.354034
0.337548
0.322067
0.307515
0.293822
0.280926
0.268768
0.257297
0.246466
0.236232
0.226555
0.2174
0.208732
0.200519
0.192732
0.185343
0.178327
0.171662
0.165326
0.159299
0.153564
0.148102
0.142899
0.137939
0.133208
0.128695
0.124386
0.120271
0.116339
0.112579
1.12216
1.0472
0.978716
0.916024
0.858529
0.805705
0.757091
0.712281
0.670913
0.632668
0.59726
0.564433
0.533958
0.505629
0.479259
0.454682
0.43175
0.410326
0.390292
0.371537
0.353961
0.337474
0.321992
0.307439
0.293745
0.280847
0.268689
0.257218
0.246387
0.236155
0.22648
0.217326
0.208659
0.200447
0.192659
0.18527
0.178253
0.171586
0.165249
0.159221
0.153484
0.148021
0.142816
0.137853
0.133119
0.128602
0.124287
0.120166
0.116226
0.112457
1.12216
1.04721
0.978726
0.91604
0.858548
0.805726
0.757115
0.712307
0.670942
0.6327
0.597294
0.56447
0.533997
0.505669
0.4793
0.454725
0.431794
0.410374
0.390342
0.371589
0.354016
0.33753
0.322048
0.307495
0.293799
0.2809
0.26874
0.257267
0.246436
0.236202
0.226525
0.21737
0.2087
0.200483
0.192691
0.185295
0.178273
0.1716
0.165256
0.159222
0.15348
0.14801
0.142799
0.137829
0.133086
0.128559
0.124234
0.120101
0.116149
0.112368
1.12216
1.04721
0.978732
0.916046
0.858554
0.805733
0.757121
0.712312
0.670946
0.632703
0.597297
0.564471
0.533996
0.505665
0.479295
0.454719
0.431787
0.410366
0.390335
0.371583
0.354009
0.337523
0.32204
0.307485
0.293788
0.280887
0.268726
0.257253
0.246422
0.236188
0.226512
0.217355
0.208683
0.200464
0.192668
0.185269
0.178242
0.171565
0.165217
0.159179
0.153432
0.147959
0.142742
0.137766
0.133016
0.128481
0.124147
0.120004
0.116042
0.112249
1.12217
1.04721
0.978732
0.916044
0.858548
0.805723
0.757107
0.712295
0.670926
0.632679
0.597268
0.564436
0.533956
0.50562
0.479245
0.454664
0.431729
0.410306
0.390272
0.371518
0.353943
0.337454
0.321969
0.307412
0.293713
0.280812
0.268651
0.257179
0.24635
0.236118
0.226443
0.217287
0.208616
0.200396
0.192599
0.185198
0.17817
0.171492
0.165143
0.159104
0.153355
0.147879
0.142658
0.137678
0.132924
0.128382
0.124041
0.119891
0.115919
0.112117
1.12217
1.04721
0.978725
0.91603
0.858529
0.805702
0.757087
0.712278
0.670914
0.632674
0.59727
0.564447
0.533974
0.505646
0.479277
0.454704
0.431775
0.410357
0.390327
0.371576
0.354001
0.337513
0.322026
0.307467
0.293766
0.280863
0.268701
0.257228
0.246397
0.236163
0.226486
0.217326
0.20865
0.200425
0.192623
0.185217
0.178183
0.171499
0.165144
0.159098
0.153342
0.147858
0.142629
0.137639
0.132874
0.128321
0.123969
0.119806
0.115821
0.112005
1.12217
1.0472
0.978703
0.91599
0.85847
0.805622
0.756986
0.712157
0.670773
0.632513
0.59709
0.564249
0.53376
0.505418
0.479038
0.454456
0.43152
0.410097
0.390064
0.37131
0.353734
0.337244
0.321758
0.3072
0.293503
0.280605
0.268449
0.256983
0.246159
0.235933
0.226262
0.217109
0.20844
0.200221
0.192425
0.185025
0.177998
0.171319
0.16497
0.158928
0.153175
0.147692
0.142464
0.137474
0.132708
0.128154
0.123799
0.119632
0.115644
0.111822
1.12216
1.04719
0.978672
0.915947
0.858428
0.805593
0.756979
0.712177
0.670823
0.632592
0.597196
0.564378
0.533909
0.505583
0.479215
0.454641
0.43171
0.410288
0.390253
0.371494
0.35391
0.337412
0.321916
0.307348
0.293642
0.280734
0.268568
0.257093
0.24626
0.236024
0.226343
0.21718
0.208501
0.200273
0.192469
0.18506
0.178024
0.171337
0.164978
0.158926
0.153161
0.147667
0.142426
0.137424
0.132645
0.128078
0.12371
0.11953
0.115527
0.11169
1.12216
1.04714
0.978544
0.915719
0.858094
0.805154
0.756444
0.711558
0.670133
0.631847
0.596409
0.563561
0.533073
0.504738
0.478369
0.4538
0.430879
0.409471
0.389452
0.370712
0.353148
0.336671
0.321198
0.306654
0.292972
0.280089
0.267949
0.256498
0.245688
0.235475
0.225817
0.216676
0.208018
0.199812
0.192027
0.184639
0.177621
0.170951
0.164606
0.158567
0.152813
0.147329
0.142097
0.137102
0.132331
0.127771
0.123409
0.119234
0.115235
0.111401
1.12216
1.04713
0.97855
0.915796
0.858263
0.805416
0.756788
0.711968
0.67059
0.632331
0.596904
0.564054
0.533552
0.505195
0.478797
0.454195
0.431238
0.409791
0.389733
0.370952
0.35335
0.336835
0.321327
0.306751
0.293038
0.280127
0.267961
0.256486
0.245655
0.235422
0.225745
0.216589
0.207917
0.199699
0.191905
0.184508
0.177482
0.170804
0.164452
0.158405
0.152646
0.147156
0.14192
0.136924
0.132153
0.127595
0.123238
0.119072
0.115085
0.111269
1.12216
1.04659
0.977421
0.914151
0.856198
0.803043
0.75421
0.70927
0.66784
0.629582
0.594195
0.561415
0.531004
0.502752
0.476471
0.45199
0.429158
0.407837
0.387903
0.369247
0.351766
0.33537
0.319978
0.305514
0.291911
0.279106
0.267042
0.255666
0.244929
0.234788
0.225201
0.216132
0.207545
0.199411
0.191699
0.184382
0.177435
0.170835
0.164561
0.158593
0.152915
0.147509
0.142362
0.137462
0.132795
0.128353
0.124126
0.120109
0.116301
0.112707
1.12226
1.04693
0.97821
0.915313
0.857734
0.804988
0.756663
0.7123
0.671494
0.63389
0.599175
0.567071
0.537332
0.509742
0.484106
0.46025
0.43802
0.417274
0.397889
0.379753
0.362764
0.346832
0.331876
0.317822
0.304603
0.292157
0.280428
0.269365
0.258922
0.249055
0.239726
0.2309
0.222544
0.214628
0.207126
0.200012
0.193264
0.18686
0.180781
0.175013
0.169541
0.164354
0.159442
0.154798
0.150418
0.146301
0.142453
0.138891
0.135654
0.132831
1.14672
1.10487
1.06575
1.02908
0.994574
0.961947
0.930938
0.901426
0.873312
0.846509
0.820938
0.796528
0.773213
0.750933
0.72963
0.709251
0.689745
0.671065
0.653169
0.636016
0.619568
0.603789
0.588648
0.574111
0.560149
0.546733
0.533835
0.521429
0.509492
0.498
0.486932
0.476267
0.465985
0.456067
0.446493
0.437245
0.428307
0.419663
0.411298
0.403198
0.395351
0.387742
0.38036
0.373191
0.366219
0.359429
0.352805
0.346328
0.339978
0.333727
0.119914
0.0172249
0.00695485
0.00593321
0.00555475
0.00543233
0.00519508
0.00504698
0.00485072
0.00468826
0.00452575
0.00435402
0.00422161
0.00404021
0.00393586
0.00374264
0.00373549
0.00411246
0.00972981
0.0708202
0.120307
0.0173359
0.00702604
0.00600103
0.00562085
0.0054967
0.00525761
0.00510758
0.00490963
0.00474527
0.00458126
0.00440774
0.00427406
0.00409092
0.00398538
0.00379022
0.00378256
0.00416296
0.00982075
0.071081
0.120703
0.0174431
0.0070981
0.00607006
0.00568808
0.00556203
0.00532101
0.00516897
0.00496935
0.00480316
0.00463776
0.0044625
0.00432753
0.00414254
0.00403564
0.0038385
0.00383034
0.00421425
0.00990814
0.0713238
0.121102
0.0175498
0.00717103
0.00614008
0.00575628
0.00562836
0.00538551
0.00523156
0.00503034
0.00486233
0.00469549
0.00451837
0.00438194
0.00419496
0.00408666
0.00388762
0.00387903
0.00426572
0.00999076
0.0715709
0.121504
0.0176568
0.0072449
0.00621115
0.00582554
0.00569577
0.00545113
0.00529527
0.0050925
0.00492266
0.00475429
0.00457519
0.00443719
0.00424822
0.00413859
0.00393777
0.0039287
0.00431768
0.010072
0.0718197
0.121909
0.0177648
0.0073198
0.0062833
0.00589587
0.00576421
0.00551781
0.00536008
0.00515576
0.004984
0.00481402
0.00463288
0.00449334
0.00430245
0.00419155
0.00398896
0.00397927
0.00437014
0.0101521
0.0720689
0.122319
0.0178739
0.0073957
0.00635648
0.0059672
0.00583364
0.00558553
0.00542591
0.00521998
0.00504622
0.00487462
0.00469148
0.00455045
0.00435768
0.0042455
0.00404103
0.00403058
0.00442293
0.0102307
0.07232
0.122733
0.017984
0.00747259
0.0064307
0.00603958
0.00590413
0.00565429
0.00549268
0.00528508
0.00510933
0.00493616
0.00475106
0.00460855
0.00441388
0.00430034
0.00409388
0.00408257
0.0044761
0.0103082
0.0725761
0.123153
0.0180951
0.00755056
0.00650605
0.00611313
0.00597574
0.00572411
0.00556043
0.00535118
0.00517349
0.00499878
0.00481169
0.00466762
0.00447098
0.00435603
0.00414753
0.00413534
0.00452988
0.0103858
0.0728384
0.123577
0.0182075
0.00762978
0.00658268
0.00618796
0.00604855
0.00579506
0.00562933
0.00541848
0.00523885
0.00506252
0.00487332
0.00472763
0.00452902
0.00441268
0.00420212
0.00418906
0.00458453
0.0104646
0.0731064
0.124005
0.0183212
0.00771037
0.00666063
0.00626409
0.00612263
0.00586731
0.00569956
0.00548711
0.00530539
0.00512728
0.0049359
0.00478864
0.0045881
0.00447036
0.00425773
0.0042438
0.00464019
0.0105452
0.0733786
0.124438
0.018436
0.00779233
0.0067399
0.00634157
0.00619806
0.00594098
0.00577116
0.00555696
0.00537296
0.005193
0.00499949
0.00485073
0.00464826
0.00452908
0.00431436
0.00429956
0.00469687
0.0106274
0.0736529
0.124874
0.0185519
0.00787568
0.00682049
0.00642042
0.00627488
0.006016
0.00584395
0.00562781
0.00544146
0.00525971
0.00506418
0.00491395
0.00470948
0.00458882
0.00437199
0.00435632
0.00475451
0.0107106
0.0739283
0.125311
0.0186691
0.00796048
0.00690243
0.00650065
0.00635301
0.00609222
0.00591776
0.00569962
0.00551098
0.00532756
0.00513004
0.00497827
0.00477175
0.00464958
0.00443063
0.00441405
0.00481304
0.010794
0.0742054
0.125749
0.0187884
0.00804674
0.00698575
0.00658221
0.00643234
0.00616951
0.0059926
0.00577254
0.00558171
0.00539667
0.00519711
0.00504373
0.00483511
0.00471143
0.00449032
0.00447274
0.00487238
0.0108775
0.0744865
0.126191
0.0189101
0.00813449
0.00707045
0.00666507
0.00651288
0.00624798
0.00606866
0.00584678
0.00565379
0.00546708
0.00526541
0.00511037
0.00489964
0.00477442
0.00455107
0.0045324
0.00493257
0.0109615
0.0747741
0.126638
0.0190342
0.0082237
0.00715657
0.00674928
0.00659471
0.0063278
0.00614613
0.00592246
0.00572726
0.0055388
0.00533496
0.00517826
0.00496538
0.00483855
0.00461289
0.00459315
0.00499385
0.0110473
0.0750694
0.127092
0.0191601
0.00831437
0.00724411
0.0068349
0.00667796
0.0064091
0.00622507
0.00599958
0.00580209
0.00561184
0.00540581
0.00524738
0.00503229
0.00490382
0.00467587
0.00465512
0.00505649
0.0111359
0.0753707
0.127552
0.0192874
0.00840646
0.0073331
0.00692198
0.00676266
0.00649186
0.00630546
0.0060781
0.00587828
0.00568619
0.0054779
0.0053177
0.00510037
0.00497028
0.00474012
0.00471844
0.00512061
0.0112275
0.075675
0.128019
0.0194155
0.00849994
0.0074235
0.00701051
0.00684881
0.00657609
0.00638727
0.00615803
0.0059558
0.00576182
0.00555121
0.00538922
0.00516969
0.00503804
0.0048057
0.00478306
0.00518607
0.011321
0.0759803
0.12849
0.0195444
0.00859484
0.00751535
0.00710053
0.00693644
0.00666181
0.00647052
0.00623934
0.00603464
0.00583872
0.00562579
0.00546205
0.00524035
0.00510713
0.00487254
0.00484882
0.00525263
0.0114153
0.0762873
0.128964
0.0196747
0.00869131
0.00760874
0.00719212
0.00702563
0.00674905
0.00655522
0.00632202
0.0061148
0.00591697
0.00570176
0.0055363
0.00531239
0.00517752
0.00494056
0.00491566
0.00532023
0.0115102
0.0765977
0.12944
0.019807
0.0087895
0.00770379
0.00728538
0.00711642
0.00683784
0.00664136
0.00640611
0.00619639
0.0059967
0.00577924
0.00561202
0.00538583
0.0052492
0.00500979
0.00498367
0.00538898
0.011606
0.076913
0.12992
0.0199419
0.0088895
0.00780059
0.00738035
0.00720884
0.00692815
0.00672896
0.00649168
0.00627952
0.006078
0.00585825
0.00568921
0.00546067
0.00532224
0.00508036
0.005053
0.00545907
0.0117034
0.0772338
0.130407
0.0200791
0.0089913
0.00789913
0.00747705
0.00730286
0.00702
0.00681809
0.00657882
0.00636424
0.00616088
0.00593877
0.00576787
0.00553697
0.00539673
0.00515236
0.00512371
0.00553053
0.0118025
0.0775597
0.130901
0.0202182
0.00909488
0.00799942
0.00757542
0.00739846
0.00711342
0.00690879
0.00666758
0.00645055
0.00624529
0.00602079
0.00584802
0.00561475
0.00547269
0.00522576
0.00519577
0.00560331
0.0119032
0.0778909
0.1314
0.0203589
0.0092002
0.00810141
0.00767543
0.00749563
0.00720844
0.00700111
0.00675794
0.0065384
0.00633121
0.0061043
0.00592964
0.00569397
0.00555
0.00530046
0.00526911
0.00567735
0.0120054
0.0782277
0.131905
0.0205011
0.00930726
0.00820508
0.00777709
0.00759444
0.00730513
0.00709509
0.00684993
0.00662783
0.00641866
0.0061893
0.00601268
0.00577452
0.00562858
0.00537644
0.00534376
0.00575272
0.0121093
0.0785701
0.132414
0.020645
0.00941605
0.00831043
0.00788046
0.00769498
0.0074036
0.00719083
0.00694364
0.0067189
0.00650768
0.00627577
0.00609708
0.00585637
0.00570847
0.00545376
0.00541983
0.00582954
0.0122152
0.0789178
0.132927
0.0207909
0.00952668
0.00841762
0.00798574
0.00779747
0.00750403
0.00728847
0.00703918
0.0068117
0.00659831
0.00636372
0.0061829
0.00593962
0.00578979
0.00553258
0.00549743
0.00590792
0.0123232
0.0792704
0.133445
0.0209393
0.00963938
0.00852686
0.00809314
0.00790206
0.00760655
0.00738811
0.00713662
0.00690628
0.0066906
0.00645326
0.00627028
0.00602446
0.00587274
0.00561302
0.00557662
0.00598791
0.0124333
0.079628
0.133969
0.0210907
0.00975438
0.00863829
0.00820276
0.00800882
0.00771117
0.00748974
0.00723596
0.00700265
0.00678463
0.00654454
0.00635942
0.00611107
0.00595742
0.00569513
0.0056574
0.00606955
0.0125457
0.0799909
0.1345
0.0212451
0.00987166
0.0087519
0.00831455
0.00811767
0.00781783
0.00759333
0.00733719
0.00710087
0.00688054
0.00663771
0.00645045
0.00619953
0.00604387
0.00577894
0.00573983
0.0061529
0.0126604
0.0803587
0.135039
0.0214015
0.00999102
0.00886754
0.00842838
0.00822851
0.00792645
0.00769882
0.00744032
0.00720104
0.00697842
0.00673287
0.00654343
0.00628986
0.0061321
0.00586447
0.00582394
0.00623801
0.0127776
0.0807309
0.135585
0.0215591
0.0101123
0.00898515
0.00854422
0.00834132
0.00803703
0.00780625
0.00754545
0.00730322
0.00707834
0.00683001
0.00663831
0.00638202
0.00622212
0.00595173
0.00590972
0.00632486
0.0128967
0.0811072
0.136133
0.0217185
0.0102357
0.00910487
0.00866218
0.00845619
0.00814964
0.00791571
0.00765263
0.00740745
0.00718025
0.00692908
0.00673505
0.00647602
0.00631391
0.00604073
0.00599717
0.00641337
0.0130174
0.0814884
0.136684
0.0218811
0.0103615
0.00922692
0.00878241
0.00857323
0.00826439
0.00802728
0.00776189
0.00751369
0.00728409
0.00703001
0.00683364
0.00657185
0.00640752
0.00613147
0.00608628
0.00650354
0.0131399
0.081876
0.13724
0.0220483
0.0104899
0.00935145
0.00890502
0.00869252
0.00838135
0.00814099
0.00787323
0.0076219
0.00738983
0.00713284
0.00693414
0.00666959
0.00650298
0.00622401
0.00617716
0.00659554
0.0132648
0.0822713
0.137807
0.0222197
0.010621
0.00947847
0.00903001
0.00881411
0.00850056
0.00825686
0.00798662
0.00773209
0.00749758
0.00723771
0.0070367
0.00676937
0.00660043
0.00631849
0.00626998
0.00668957
0.0133926
0.0826741
0.138388
0.0223938
0.0107544
0.00960787
0.00915738
0.00893802
0.00862204
0.00837489
0.00810213
0.00784442
0.00760752
0.00734481
0.00714147
0.0068713
0.00669995
0.00641502
0.00636483
0.00678576
0.0135237
0.0830831
0.13898
0.022569
0.01089
0.0097396
0.00928713
0.00906426
0.00874582
0.00849518
0.00821994
0.00795911
0.00771985
0.00745428
0.00724851
0.00697541
0.00680158
0.00651363
0.00646173
0.00688404
0.0136576
0.083497
0.139578
0.0227451
0.0110279
0.00987369
0.00941929
0.00919287
0.00887196
0.00861787
0.00834023
0.00807631
0.00783466
0.0075661
0.00735778
0.00708166
0.0069053
0.00661427
0.00656059
0.00698426
0.0137933
0.083916
0.140181
0.0229226
0.0111683
0.0100102
0.00955389
0.0093239
0.00900061
0.00874312
0.00846312
0.00819604
0.00795186
0.00768017
0.00746919
0.00718999
0.00701106
0.0067169
0.00666136
0.00708633
0.0139307
0.0843416
0.140786
0.0231024
0.0113111
0.0101492
0.00969101
0.00945748
0.00913189
0.008871
0.00858858
0.00831819
0.00807132
0.00779639
0.00758272
0.00730043
0.00711889
0.00682157
0.00676414
0.00719035
0.0140701
0.0847759
0.141396
0.0232851
0.0114567
0.0102908
0.00983082
0.00959378
0.00926589
0.0090015
0.0087165
0.00844263
0.00819298
0.0079148
0.00769844
0.00741307
0.00722893
0.00692843
0.0068691
0.0072966
0.0142124
0.0852201
0.142011
0.0234714
0.0116051
0.0104352
0.00997351
0.00973288
0.0094026
0.00913453
0.00884681
0.00856937
0.00831694
0.00803554
0.00781652
0.00752808
0.00734133
0.00703765
0.00697646
0.00740534
0.0143584
0.0856736
0.142634
0.0236617
0.0117566
0.0105826
0.0101192
0.0098748
0.00954198
0.00927006
0.00897956
0.00869856
0.00844338
0.00815879
0.00793712
0.00764559
0.00745622
0.00714938
0.00708633
0.00751668
0.0145084
0.0861351
0.143265
0.023856
0.0119112
0.0107331
0.0102678
0.0100195
0.009684
0.00940818
0.00911491
0.00883038
0.00857248
0.00828469
0.00806033
0.00776568
0.00757367
0.00726366
0.00719871
0.0076306
0.0146619
0.0866033
0.143907
0.0240536
0.0120688
0.0108865
0.0104192
0.0101669
0.00982873
0.00954902
0.00925304
0.00896497
0.00870434
0.00841329
0.00818618
0.00788838
0.00769368
0.00738044
0.00731351
0.00774694
0.0148183
0.0870774
0.14456
0.0242535
0.0122293
0.0110427
0.0105734
0.0103171
0.00997632
0.00969274
0.00939405
0.00910241
0.00883899
0.00854463
0.00831472
0.00801372
0.00781626