/*--------------------------------*- C++ -*----------------------------------*\
  =========                 |
  \\      /  F ield         | OpenFOAM: The Open Source CFD Toolbox
   \\    /   O peration     | Website:  https://openfoam.org
    \\  /    A nd           | Version:  8
     \\/     M anipulation  |
\*---------------------------------------------------------------------------*/
FoamFile
{
    version     2.0;
    format      ascii;
    class       volScalarField;
    location    "200";
    object      p;
}
// * * * * * * * * * * * * * * * * * * * * * * * * * * * * * * * * * * * * * //

dimensions      [1 -1 -2 0 0 0 0];

internalField   nonuniform List<scalar> 
8400
(
23585.8
38877.5
54377.9
69390.6
83885.7
97808.6
111129
123836
135933
147436
158363
168743
178602
187978
196905
205423
213566
221371
228865
236077
243030
249747
256251
262566
268716
274725
280615
286408
292121
297770
303372
308942
314498
320059
325644
331273
336971
342764
348684
354768
361065
367632
374549
381925
389896
398590
408170
419232
433332
451408
22943.5
38196.7
53752.1
68840.5
83401.5
97372
110721
123441
135537
147026
157931
168281
178106
187444
196332
204809
212911
220672
228121
235286
242190
248855
255305
261563
267654
273601
279426
285150
290787
296356
301869
307343
312794
318240
323696
329183
334720
340329
346037
351874
357876
364088
370565
377383
384625
392358
400652
409786
420474
433237
23838.9
39600.5
55474.7
70775.7
85485.3
99553.8
112960
125705
137802
149273
160150
170464
180253
189557
198414
206864
214944
222689
230128
237287
244191
250863
257327
263606
269727
275713
281585
287362
293061
298699
304291
309853
315403
320958
326537
332159
337847
343622
349512
355548
361765
368206
374924
381983
389453
397392
405859
414985
425008
435872
22850.1
38655.3
54743.8
70266.8
85144.1
99314.4
112763
125499
137551
148949
159733
169943
179620
188807
197545
205875
213834
221455
228768
235801
242576
249118
255450
261596
267580
273425
279150
284774
290313
295781
301193
306565
311911
317248
322593
327961
333372
338844
344397
350057
355850
361807
367969
374383
381100
388173
395654
403622
412190
421385
23904.5
40608.7
57289.1
73219.6
88371.7
102711
116246
129009
141043
152397
163120
173262
182869
191989
200665
208938
216847
224424
231701
238705
245459
251989
258318
264469
270468
276334
282087
287745
293323
298837
304300
309728
315135
320536
325948
331386
336866
342403
348013
353713
359521
365456
371541
377802
384264
390951
397877
405061
412550
420368
23036.3
40169
57322.4
73627.8
89012.9
103458
116999
129697
141619
152831
163394
173367
182803
191750
200256
208361
216104
223519
230636
237482
244081
250459
256639
262645
268498
274219
279826
285337
290766
296127
301435
306704
311948
317182
322421
327680
332973
338313
343713
349185
354742
360398
366166
372062
378100
384292
390633
397103
403696
410474
23834.9
42238.7
60212.4
77038.6
92719.9
107299
120868
133523
145362
156469
166918
176775
186097
194937
203342
211353
219009
226344
233388
240168
246710
253038
259175
265144
270966
276660
282244
287732
293141
298483
303771
309018
314239
319447
324655
329877
335122
340401
345720
351088
356509
361990
367534
373147
378832
384590
390412
396270
402136
408055
23333.6
42764.4
61455.1
78694.8
94539.9
109116
122581
135077
146730
157639
167889
177552
186687
195346
203578
211423
218920
226104
233003
239645
246056
252259
258277
264132
269843
275431
280911
286298
291607
296850
302041
307193
312320
317435
322551
327679
332829
338006
343218
348467
353755
359083
364446
369841
375261
380696
386129
391519
396813
402049
24044.3
45086.7
64618.3
82227.6
98157.8
112672
126005
138344
149834
160586
170687
180208
189211
197748
205864
213602
220999
228088
234900
241462
247798
253932
259887
265682
271338
276871
282299
287635
292893
298085
303225
308324
313398
318457
323514
328579
333658
338758
343881
349029
354202
359396
364606
369822
375031
380217
385359
390415
395316
400064
24349.5
46807.3
66895.7
84588.6
100370
114658
127756
139873
151161
161730
171666
181037
189901
198311
206309
213937
221232
228226
234950
241431
247692
253756
259645
265378
270975
276452
281825
287109
292315
297457
302547
307598
312624
317637
322647
327664
332694
337743
342811
347900
353007
358128
363254
368371
373462
378502
383466
388310
392951
397365
25976.8
49916.3
70002.8
87435.1
102901
116915
129792
141734
152878
163325
173152
182425
191199
199523
207442
214994
222218
229144
235805
242226
248431
254443
260282
265968
271520
276954
282286
287530
292698
297802
302856
307873
312866
317846
322825
327811
332810
337826
342862
347918
352991
358076
363164
368239
373281
378263
383154
387914
392466
396752
26121.6
50965.2
70878.9
88113.2
103431
117332
130125
142004
153101
163511
173310
182560
191316
199626
207534
215079
222297
229221
235880
242300
248505
254518
260358
266045
271597
277032
282364
287607
292773
297874
302923
307934
312920
317892
322862
327837
332825
337828
342852
347895
352957
358033
363113
368183
373223
378207
383102
387866
392432
396726
23457.3
48734.3
69707.8
87285
102741
116728
129560
141439
152512
162885
172642
181848
190560
198827
206693
214199
221381
228271
234899
241291
247471
253459
259276
264943
270477
275896
281215
286447
291603
296697
301741
306749
311734
316708
321681
326661
331655
336667
341701
346758
351835
356927
362025
367113
372169
377167
382071
386836
391405
395695
18480
44431.4
68126.4
87161.9
103313
117808
131058
143256
154567
165126
175030
184356
193165
201512
209445
217006
224233
231161
237819
244234
250430
256430
262254
267923
273457
278874
284187
289412
294560
299645
304678
309674
314645
319603
324556
329515
334484
339469
344472
349495
354537
359592
364652
369700
374717
379675
384539
389256
393759
397937
1842.81
28666.4
55026
75658.3
92524.8
107497
121182
133747
145346
156138
166245
175755
184737
193250
201344
209063
216447
223528
230338
236901
243241
249379
255338
261137
266796
272335
277766
283106
288365
293556
298691
303783
308842
313881
318908
323930
328953
333980
339013
344051
349093
354132
359156
364148
369084
373935
378658
383209
387569
391693
16231.6
35343.1
63391.3
86750.2
104902
120490
134593
147408
159087
169831
179806
189129
197887
206152
213982
221430
228541
235350
241891
248189
254270
260155
265867
271427
276857
282176
287397
292535
297601
302605
307560
312474
317360
322227
327080
331926
336765
341600
346431
351257
356080
360894
365693
370465
375185
379787
384151
388101
391580
394848
-35128.6
-5679.71
27791.3
53376.6
72943.8
89849.9
105317
119468
132399
144310
155380
165735
175467
184649
193346
201614
209498
217038
224267
231214
237905
244363
250614
256683
262592
268362
274009
279546
284985
290337
295613
300822
305974
311073
316123
321124
326068
330951
335764
340499
345150
349704
354150
358506
362871
367267
371706
376163
380383
383996
17592.3
29683.7
60740.3
86905.7
105938
121775
136080
149054
160798
171526
181437
190668
199319
207470
215188
222528
229538
236254
242708
248924
254927
260740
266385
271885
277261
282530
287706
292800
297820
302776
307676
312527
317333
322097
326818
331487
336098
340638
345103
349501
353849
358104
362112
365660
368910
372241
375663
378816
381334
382787
-85611.4
-34306.1
8303.98
36821.6
58888.3
78018
95282.4
110949
125199
138250
150299
161494
171946
181748
190979
199706
207987
215869
223392
230592
237499
244146
250561
256774
262808
268685
274421
280028
285517
290897
296174
301352
306428
311392
316230
320909
325386
329598
333478
337056
340544
344187
348161
352555
357134
361529
365426
368522
370353
369526
20748.7
27636.3
43803.7
62005
78905.1
94675.4
109615
123649
136704
148825
160107
170643
180515
189798
198559
206858
214745
222265
229455
236348
242975
249364
255543
261537
267370
273058
278617
284060
289394
294626
299761
304797
309728
314539
319206
323689
327924
331821
335235
337927
339859
341586
343781
346615
349799
352849
355371
357110
357770
356961
1.61647e+06
1.61596e+06
1.61571e+06
1.61561e+06
1.61556e+06
1.61552e+06
1.61549e+06
1.61547e+06
1.61545e+06
1.61544e+06
1.61543e+06
1.61543e+06
1.61543e+06
1.61543e+06
1.61543e+06
1.61544e+06
1.61545e+06
1.61546e+06
1.61548e+06
1.61549e+06
1.61551e+06
1.61552e+06
1.61554e+06
1.61556e+06
1.61558e+06
1.6156e+06
1.61562e+06
1.61564e+06
1.61565e+06
1.61567e+06
1.61569e+06
1.61571e+06
1.61572e+06
1.61574e+06
1.61576e+06
1.61577e+06
1.61579e+06
1.6158e+06
1.61582e+06
1.61583e+06
1.61584e+06
1.61584e+06
1.61585e+06
1.61585e+06
1.61584e+06
1.61583e+06
1.61581e+06
1.61578e+06
1.61573e+06
1.61566e+06
1.61478e+06
1.61506e+06
1.61516e+06
1.61519e+06
1.61522e+06
1.61523e+06
1.61524e+06
1.61525e+06
1.61526e+06
1.61526e+06
1.61527e+06
1.61527e+06
1.61528e+06
1.61528e+06
1.61529e+06
1.61531e+06
1.61532e+06
1.61533e+06
1.61535e+06
1.61537e+06
1.61539e+06
1.6154e+06
1.61542e+06
1.61544e+06
1.61546e+06
1.61548e+06
1.6155e+06
1.61552e+06
1.61554e+06
1.61556e+06
1.61558e+06
1.6156e+06
1.61562e+06
1.61563e+06
1.61565e+06
1.61567e+06
1.61568e+06
1.6157e+06
1.61571e+06
1.61572e+06
1.61573e+06
1.61574e+06
1.61575e+06
1.61575e+06
1.61575e+06
1.61574e+06
1.61572e+06
1.61569e+06
1.61566e+06
1.61561e+06
1.61514e+06
1.61527e+06
1.61535e+06
1.61535e+06
1.61534e+06
1.61533e+06
1.61531e+06
1.6153e+06
1.61528e+06
1.61527e+06
1.61526e+06
1.61526e+06
1.61525e+06
1.61525e+06
1.61526e+06
1.61526e+06
1.61527e+06
1.61528e+06
1.61529e+06
1.61531e+06
1.61532e+06
1.61534e+06
1.61536e+06
1.61538e+06
1.61539e+06
1.61541e+06
1.61543e+06
1.61545e+06
1.61547e+06
1.61548e+06
1.6155e+06
1.61552e+06
1.61554e+06
1.61555e+06
1.61557e+06
1.61559e+06
1.6156e+06
1.61562e+06
1.61563e+06
1.61564e+06
1.61565e+06
1.61566e+06
1.61567e+06
1.61567e+06
1.61567e+06
1.61567e+06
1.61566e+06
1.61564e+06
1.61561e+06
1.61558e+06
1.61506e+06
1.61509e+06
1.6151e+06
1.61509e+06
1.61508e+06
1.61508e+06
1.61507e+06
1.61507e+06
1.61507e+06
1.61507e+06
1.61507e+06
1.61507e+06
1.61508e+06
1.61508e+06
1.61509e+06
1.6151e+06
1.61512e+06
1.61513e+06
1.61515e+06
1.61517e+06
1.61519e+06
1.61521e+06
1.61523e+06
1.61525e+06
1.61527e+06
1.61529e+06
1.61531e+06
1.61533e+06
1.61535e+06
1.61537e+06
1.61538e+06
1.6154e+06
1.61542e+06
1.61544e+06
1.61546e+06
1.61548e+06
1.61549e+06
1.61551e+06
1.61553e+06
1.61554e+06
1.61555e+06
1.61556e+06
1.61557e+06
1.61558e+06
1.61558e+06
1.61558e+06
1.61558e+06
1.61557e+06
1.61555e+06
1.61553e+06
1.615e+06
1.61501e+06
1.61503e+06
1.61504e+06
1.61505e+06
1.61505e+06
1.61505e+06
1.61505e+06
1.61505e+06
1.61505e+06
1.61505e+06
1.61504e+06
1.61505e+06
1.61505e+06
1.61505e+06
1.61506e+06
1.61507e+06
1.61508e+06
1.6151e+06
1.61511e+06
1.61513e+06
1.61515e+06
1.61517e+06
1.61518e+06
1.6152e+06
1.61522e+06
1.61524e+06
1.61526e+06
1.61528e+06
1.61529e+06
1.61531e+06
1.61533e+06
1.61535e+06
1.61537e+06
1.61538e+06
1.6154e+06
1.61542e+06
1.61544e+06
1.61545e+06
1.61547e+06
1.61548e+06
1.6155e+06
1.61551e+06
1.61552e+06
1.61552e+06
1.61553e+06
1.61553e+06
1.61553e+06
1.61552e+06
1.61551e+06
1.61491e+06
1.61492e+06
1.61492e+06
1.61493e+06
1.61492e+06
1.61492e+06
1.61491e+06
1.61491e+06
1.6149e+06
1.6149e+06
1.6149e+06
1.6149e+06
1.6149e+06
1.6149e+06
1.61491e+06
1.61492e+06
1.61493e+06
1.61495e+06
1.61496e+06
1.61498e+06
1.615e+06
1.61502e+06
1.61504e+06
1.61506e+06
1.61508e+06
1.6151e+06
1.61512e+06
1.61514e+06
1.61516e+06
1.61517e+06
1.61519e+06
1.61521e+06
1.61523e+06
1.61525e+06
1.61527e+06
1.61529e+06
1.61531e+06
1.61533e+06
1.61535e+06
1.61537e+06
1.61539e+06
1.6154e+06
1.61542e+06
1.61543e+06
1.61544e+06
1.61546e+06
1.61546e+06
1.61547e+06
1.61547e+06
1.61548e+06
1.61482e+06
1.61483e+06
1.61483e+06
1.61483e+06
1.61483e+06
1.61483e+06
1.61483e+06
1.61483e+06
1.61483e+06
1.61483e+06
1.61483e+06
1.61483e+06
1.61483e+06
1.61484e+06
1.61484e+06
1.61485e+06
1.61487e+06
1.61488e+06
1.6149e+06
1.61491e+06
1.61493e+06
1.61495e+06
1.61497e+06
1.61499e+06
1.61501e+06
1.61503e+06
1.61505e+06
1.61506e+06
1.61508e+06
1.6151e+06
1.61512e+06
1.61514e+06
1.61516e+06
1.61518e+06
1.6152e+06
1.61522e+06
1.61524e+06
1.61526e+06
1.61528e+06
1.6153e+06
1.61532e+06
1.61534e+06
1.61536e+06
1.61537e+06
1.61539e+06
1.61541e+06
1.61542e+06
1.61543e+06
1.61545e+06
1.61546e+06
1.61473e+06
1.61473e+06
1.61473e+06
1.61473e+06
1.61473e+06
1.61473e+06
1.61473e+06
1.61472e+06
1.61472e+06
1.61472e+06
1.61471e+06
1.61471e+06
1.61472e+06
1.61472e+06
1.61473e+06
1.61474e+06
1.61475e+06
1.61476e+06
1.61478e+06
1.6148e+06
1.61481e+06
1.61483e+06
1.61485e+06
1.61487e+06
1.61489e+06
1.61491e+06
1.61493e+06
1.61495e+06
1.61497e+06
1.61499e+06
1.61501e+06
1.61503e+06
1.61505e+06
1.61507e+06
1.61509e+06
1.61511e+06
1.61514e+06
1.61516e+06
1.61518e+06
1.61521e+06
1.61523e+06
1.61525e+06
1.61527e+06
1.6153e+06
1.61532e+06
1.61534e+06
1.61536e+06
1.61538e+06
1.6154e+06
1.61542e+06
1.61464e+06
1.61464e+06
1.61464e+06
1.61464e+06
1.61464e+06
1.61463e+06
1.61463e+06
1.61463e+06
1.61463e+06
1.61462e+06
1.61462e+06
1.61462e+06
1.61463e+06
1.61463e+06
1.61464e+06
1.61465e+06
1.61466e+06
1.61468e+06
1.61469e+06
1.61471e+06
1.61473e+06
1.61475e+06
1.61477e+06
1.61479e+06
1.61481e+06
1.61483e+06
1.61485e+06
1.61487e+06
1.61489e+06
1.61491e+06
1.61493e+06
1.61495e+06
1.61497e+06
1.61499e+06
1.61501e+06
1.61503e+06
1.61506e+06
1.61508e+06
1.61511e+06
1.61513e+06
1.61516e+06
1.61518e+06
1.61521e+06
1.61524e+06
1.61526e+06
1.61529e+06
1.61532e+06
1.61534e+06
1.61537e+06
1.6154e+06
1.61454e+06
1.61454e+06
1.61454e+06
1.61454e+06
1.61454e+06
1.61454e+06
1.61453e+06
1.61453e+06
1.61453e+06
1.61452e+06
1.61452e+06
1.61452e+06
1.61453e+06
1.61453e+06
1.61454e+06
1.61455e+06
1.61456e+06
1.61458e+06
1.61459e+06
1.61461e+06
1.61463e+06
1.61465e+06
1.61467e+06
1.61469e+06
1.61471e+06
1.61473e+06
1.61475e+06
1.61477e+06
1.61479e+06
1.61481e+06
1.61483e+06
1.61485e+06
1.61487e+06
1.61489e+06
1.61492e+06
1.61494e+06
1.61497e+06
1.61499e+06
1.61502e+06
1.61505e+06
1.61508e+06
1.61511e+06
1.61514e+06
1.61517e+06
1.6152e+06
1.61523e+06
1.61526e+06
1.61529e+06
1.61533e+06
1.61536e+06
1.61444e+06
1.61444e+06
1.61444e+06
1.61444e+06
1.61444e+06
1.61444e+06
1.61444e+06
1.61443e+06
1.61443e+06
1.61443e+06
1.61443e+06
1.61443e+06
1.61443e+06
1.61444e+06
1.61444e+06
1.61445e+06
1.61447e+06
1.61448e+06
1.6145e+06
1.61451e+06
1.61453e+06
1.61455e+06
1.61457e+06
1.61459e+06
1.61461e+06
1.61463e+06
1.61465e+06
1.61467e+06
1.61469e+06
1.61471e+06
1.61474e+06
1.61476e+06
1.61478e+06
1.6148e+06
1.61483e+06
1.61485e+06
1.61488e+06
1.61491e+06
1.61494e+06
1.61497e+06
1.615e+06
1.61503e+06
1.61507e+06
1.6151e+06
1.61514e+06
1.61517e+06
1.61521e+06
1.61525e+06
1.61529e+06
1.61533e+06
1.61434e+06
1.61434e+06
1.61435e+06
1.61434e+06
1.61434e+06
1.61434e+06
1.61434e+06
1.61434e+06
1.61433e+06
1.61433e+06
1.61433e+06
1.61433e+06
1.61434e+06
1.61434e+06
1.61435e+06
1.61436e+06
1.61437e+06
1.61439e+06
1.61441e+06
1.61442e+06
1.61444e+06
1.61446e+06
1.61448e+06
1.6145e+06
1.61452e+06
1.61454e+06
1.61456e+06
1.61458e+06
1.61461e+06
1.61463e+06
1.61465e+06
1.61467e+06
1.61469e+06
1.61472e+06
1.61474e+06
1.61477e+06
1.6148e+06
1.61483e+06
1.61486e+06
1.61489e+06
1.61493e+06
1.61496e+06
1.615e+06
1.61504e+06
1.61508e+06
1.61512e+06
1.61516e+06
1.61521e+06
1.61525e+06
1.6153e+06
1.61425e+06
1.61425e+06
1.61425e+06
1.61425e+06
1.61425e+06
1.61424e+06
1.61424e+06
1.61424e+06
1.61423e+06
1.61423e+06
1.61423e+06
1.61423e+06
1.61423e+06
1.61424e+06
1.61425e+06
1.61425e+06
1.61427e+06
1.61428e+06
1.6143e+06
1.61431e+06
1.61433e+06
1.61435e+06
1.61437e+06
1.61439e+06
1.61441e+06
1.61444e+06
1.61446e+06
1.61448e+06
1.6145e+06
1.61452e+06
1.61454e+06
1.61457e+06
1.61459e+06
1.61462e+06
1.61464e+06
1.61467e+06
1.6147e+06
1.61473e+06
1.61477e+06
1.6148e+06
1.61484e+06
1.61488e+06
1.61492e+06
1.61497e+06
1.61501e+06
1.61505e+06
1.6151e+06
1.61515e+06
1.61521e+06
1.61526e+06
1.61414e+06
1.61415e+06
1.61415e+06
1.61415e+06
1.61415e+06
1.61415e+06
1.61415e+06
1.61415e+06
1.61415e+06
1.61415e+06
1.61415e+06
1.61415e+06
1.61415e+06
1.61416e+06
1.61417e+06
1.61418e+06
1.61419e+06
1.61421e+06
1.61422e+06
1.61424e+06
1.61426e+06
1.61428e+06
1.6143e+06
1.61432e+06
1.61434e+06
1.61436e+06
1.61438e+06
1.6144e+06
1.61442e+06
1.61444e+06
1.61447e+06
1.61449e+06
1.61451e+06
1.61454e+06
1.61456e+06
1.61459e+06
1.61462e+06
1.61466e+06
1.61469e+06
1.61473e+06
1.61477e+06
1.61482e+06
1.61486e+06
1.6149e+06
1.61495e+06
1.615e+06
1.61505e+06
1.61511e+06
1.61517e+06
1.61523e+06
1.61404e+06
1.61404e+06
1.61405e+06
1.61405e+06
1.61405e+06
1.61404e+06
1.61404e+06
1.61403e+06
1.61403e+06
1.61403e+06
1.61402e+06
1.61403e+06
1.61403e+06
1.61403e+06
1.61404e+06
1.61405e+06
1.61406e+06
1.61408e+06
1.6141e+06
1.61411e+06
1.61413e+06
1.61415e+06
1.61417e+06
1.61419e+06
1.61422e+06
1.61424e+06
1.61426e+06
1.61428e+06
1.61431e+06
1.61433e+06
1.61435e+06
1.61438e+06
1.6144e+06
1.61443e+06
1.61446e+06
1.61449e+06
1.61452e+06
1.61456e+06
1.6146e+06
1.61464e+06
1.61468e+06
1.61473e+06
1.61477e+06
1.61482e+06
1.61487e+06
1.61493e+06
1.61499e+06
1.61505e+06
1.61512e+06
1.61519e+06
1.61393e+06
1.61394e+06
1.61396e+06
1.61398e+06
1.61398e+06
1.61398e+06
1.61398e+06
1.61398e+06
1.61398e+06
1.61398e+06
1.61398e+06
1.61398e+06
1.61398e+06
1.61399e+06
1.61399e+06
1.614e+06
1.61401e+06
1.61402e+06
1.61404e+06
1.61405e+06
1.61407e+06
1.61409e+06
1.61411e+06
1.61413e+06
1.61415e+06
1.61417e+06
1.61419e+06
1.61421e+06
1.61423e+06
1.61426e+06
1.61428e+06
1.6143e+06
1.61433e+06
1.61435e+06
1.61438e+06
1.61441e+06
1.61445e+06
1.61449e+06
1.61453e+06
1.61457e+06
1.61461e+06
1.61466e+06
1.61471e+06
1.61476e+06
1.61482e+06
1.61488e+06
1.61494e+06
1.61501e+06
1.61508e+06
1.61516e+06
1.6138e+06
1.61382e+06
1.61383e+06
1.61383e+06
1.61382e+06
1.61381e+06
1.61381e+06
1.61381e+06
1.61381e+06
1.61381e+06
1.61381e+06
1.61381e+06
1.61382e+06
1.61383e+06
1.61384e+06
1.61385e+06
1.61386e+06
1.61388e+06
1.6139e+06
1.61391e+06
1.61393e+06
1.61395e+06
1.61397e+06
1.614e+06
1.61402e+06
1.61404e+06
1.61407e+06
1.61409e+06
1.61411e+06
1.61414e+06
1.61416e+06
1.61419e+06
1.61421e+06
1.61424e+06
1.61427e+06
1.61431e+06
1.61434e+06
1.61438e+06
1.61442e+06
1.61447e+06
1.61451e+06
1.61456e+06
1.61461e+06
1.61467e+06
1.61473e+06
1.61479e+06
1.61486e+06
1.61494e+06
1.61502e+06
1.6151e+06
1.61368e+06
1.61381e+06
1.61389e+06
1.61389e+06
1.61388e+06
1.61387e+06
1.61385e+06
1.61384e+06
1.61383e+06
1.61382e+06
1.61381e+06
1.6138e+06
1.6138e+06
1.6138e+06
1.61381e+06
1.61381e+06
1.61382e+06
1.61383e+06
1.61385e+06
1.61386e+06
1.61388e+06
1.61389e+06
1.61391e+06
1.61393e+06
1.61395e+06
1.61398e+06
1.614e+06
1.61402e+06
1.61404e+06
1.61406e+06
1.61409e+06
1.61411e+06
1.61414e+06
1.61417e+06
1.6142e+06
1.61423e+06
1.61427e+06
1.6143e+06
1.61435e+06
1.61439e+06
1.61444e+06
1.61449e+06
1.61454e+06
1.6146e+06
1.61466e+06
1.61473e+06
1.6148e+06
1.61488e+06
1.61497e+06
1.61506e+06
1.61312e+06
1.61341e+06
1.6135e+06
1.61353e+06
1.61356e+06
1.61358e+06
1.61359e+06
1.6136e+06
1.6136e+06
1.61361e+06
1.61362e+06
1.61362e+06
1.61363e+06
1.61364e+06
1.61365e+06
1.61366e+06
1.61368e+06
1.61369e+06
1.61371e+06
1.61373e+06
1.61374e+06
1.61376e+06
1.61379e+06
1.61381e+06
1.61383e+06
1.61385e+06
1.61388e+06
1.6139e+06
1.61392e+06
1.61395e+06
1.61397e+06
1.614e+06
1.61403e+06
1.61406e+06
1.61409e+06
1.61412e+06
1.61416e+06
1.6142e+06
1.61424e+06
1.61429e+06
1.61434e+06
1.61439e+06
1.61444e+06
1.6145e+06
1.61457e+06
1.61464e+06
1.61471e+06
1.6148e+06
1.61489e+06
1.615e+06
1.61462e+06
1.61411e+06
1.61386e+06
1.61376e+06
1.61371e+06
1.61367e+06
1.61364e+06
1.61362e+06
1.6136e+06
1.6136e+06
1.61359e+06
1.61359e+06
1.61359e+06
1.61359e+06
1.6136e+06
1.6136e+06
1.61361e+06
1.61363e+06
1.61364e+06
1.61365e+06
1.61367e+06
1.61369e+06
1.61371e+06
1.61373e+06
1.61375e+06
1.61377e+06
1.6138e+06
1.61382e+06
1.61384e+06
1.61386e+06
1.61389e+06
1.61391e+06
1.61394e+06
1.61397e+06
1.614e+06
1.61404e+06
1.61407e+06
1.61411e+06
1.61415e+06
1.6142e+06
1.61425e+06
1.6143e+06
1.61436e+06
1.61442e+06
1.61448e+06
1.61456e+06
1.61463e+06
1.61472e+06
1.61482e+06
1.61494e+06
1.62813e+06
1.6284e+06
1.62851e+06
1.62875e+06
1.62888e+06
1.62909e+06
1.62923e+06
1.62942e+06
1.62956e+06
1.62973e+06
1.62986e+06
1.63002e+06
1.63014e+06
1.6303e+06
1.6304e+06
1.63055e+06
1.63064e+06
1.6308e+06
1.63086e+06
1.63102e+06
1.628e+06
1.62828e+06
1.62838e+06
1.62863e+06
1.62875e+06
1.62897e+06
1.6291e+06
1.62929e+06
1.62943e+06
1.6296e+06
1.62973e+06
1.62989e+06
1.63001e+06
1.63016e+06
1.63027e+06
1.63042e+06
1.63051e+06
1.63066e+06
1.63073e+06
1.63088e+06
1.62788e+06
1.62815e+06
1.62826e+06
1.6285e+06
1.62863e+06
1.62884e+06
1.62897e+06
1.62916e+06
1.6293e+06
1.62947e+06
1.6296e+06
1.62976e+06
1.62988e+06
1.63003e+06
1.63013e+06
1.63028e+06
1.63037e+06
1.63053e+06
1.63059e+06
1.63075e+06
1.62776e+06
1.62803e+06
1.62813e+06
1.62837e+06
1.6285e+06
1.62871e+06
1.62884e+06
1.62903e+06
1.62916e+06
1.62934e+06
1.62946e+06
1.62963e+06
1.62974e+06
1.6299e+06
1.63e+06
1.63015e+06
1.63024e+06
1.63039e+06
1.63046e+06
1.63062e+06
1.62763e+06
1.6279e+06
1.62801e+06
1.62825e+06
1.62837e+06
1.62858e+06
1.62871e+06
1.6289e+06
1.62903e+06
1.62921e+06
1.62933e+06
1.62949e+06
1.62961e+06
1.62976e+06
1.62987e+06
1.63002e+06
1.6301e+06
1.63026e+06
1.63033e+06
1.63048e+06
1.62751e+06
1.62778e+06
1.62788e+06
1.62812e+06
1.62824e+06
1.62845e+06
1.62859e+06
1.62877e+06
1.62891e+06
1.62908e+06
1.6292e+06
1.62936e+06
1.62948e+06
1.62963e+06
1.62973e+06
1.62988e+06
1.62997e+06
1.63013e+06
1.63019e+06
1.63034e+06
1.62739e+06
1.62766e+06
1.62775e+06
1.62799e+06
1.62812e+06
1.62833e+06
1.62846e+06
1.62865e+06
1.62878e+06
1.62895e+06
1.62907e+06
1.62923e+06
1.62934e+06
1.6295e+06
1.6296e+06
1.62975e+06
1.62984e+06
1.62999e+06
1.63005e+06
1.63021e+06
1.62726e+06
1.62753e+06
1.62763e+06
1.62787e+06
1.62799e+06
1.6282e+06
1.62833e+06
1.62852e+06
1.62865e+06
1.62882e+06
1.62894e+06
1.6291e+06
1.62921e+06
1.62936e+06
1.62947e+06
1.62962e+06
1.6297e+06
1.62985e+06
1.62992e+06
1.63007e+06
1.62714e+06
1.62741e+06
1.62751e+06
1.62774e+06
1.62786e+06
1.62807e+06
1.6282e+06
1.62839e+06
1.62852e+06
1.62869e+06
1.62881e+06
1.62897e+06
1.62908e+06
1.62923e+06
1.62933e+06
1.62948e+06
1.62957e+06
1.62972e+06
1.62978e+06
1.62993e+06
1.62702e+06
1.62729e+06
1.62738e+06
1.62762e+06
1.62774e+06
1.62795e+06
1.62807e+06
1.62826e+06
1.62839e+06
1.62856e+06
1.62868e+06
1.62883e+06
1.62895e+06
1.6291e+06
1.6292e+06
1.62935e+06
1.62943e+06
1.62958e+06
1.62964e+06
1.62979e+06
1.6269e+06
1.62717e+06
1.62726e+06
1.6275e+06
1.62762e+06
1.62782e+06
1.62795e+06
1.62813e+06
1.62826e+06
1.62843e+06
1.62855e+06
1.6287e+06
1.62881e+06
1.62896e+06
1.62906e+06
1.62921e+06
1.62929e+06
1.62944e+06
1.6295e+06
1.62965e+06
1.62678e+06
1.62705e+06
1.62714e+06
1.62738e+06
1.62749e+06
1.6277e+06
1.62782e+06
1.62801e+06
1.62813e+06
1.6283e+06
1.62842e+06
1.62857e+06
1.62868e+06
1.62883e+06
1.62893e+06
1.62908e+06
1.62916e+06
1.62931e+06
1.62937e+06
1.62952e+06
1.62666e+06
1.62693e+06
1.62702e+06
1.62726e+06
1.62737e+06
1.62758e+06
1.6277e+06
1.62788e+06
1.628e+06
1.62817e+06
1.62829e+06
1.62844e+06
1.62855e+06
1.6287e+06
1.6288e+06
1.62894e+06
1.62902e+06
1.62917e+06
1.62923e+06
1.62938e+06
1.62654e+06
1.62681e+06
1.6269e+06
1.62714e+06
1.62725e+06
1.62745e+06
1.62758e+06
1.62776e+06
1.62788e+06
1.62804e+06
1.62816e+06
1.62831e+06
1.62842e+06
1.62857e+06
1.62866e+06
1.62881e+06
1.62889e+06
1.62904e+06
1.62909e+06
1.62924e+06
1.62643e+06
1.62669e+06
1.62678e+06
1.62702e+06
1.62713e+06
1.62733e+06
1.62745e+06
1.62763e+06
1.62775e+06
1.62791e+06
1.62803e+06
1.62818e+06
1.62829e+06
1.62843e+06
1.62853e+06
1.62867e+06
1.62875e+06
1.6289e+06
1.62896e+06
1.6291e+06
1.62631e+06
1.62657e+06
1.62666e+06
1.6269e+06
1.62701e+06
1.62721e+06
1.62733e+06
1.6275e+06
1.62762e+06
1.62779e+06
1.6279e+06
1.62805e+06
1.62816e+06
1.6283e+06
1.62839e+06
1.62854e+06
1.62862e+06
1.62877e+06
1.62882e+06
1.62897e+06
1.62619e+06
1.62646e+06
1.62655e+06
1.62678e+06
1.62689e+06
1.62709e+06
1.6272e+06
1.62738e+06
1.6275e+06
1.62766e+06
1.62777e+06
1.62792e+06
1.62802e+06
1.62817e+06
1.62826e+06
1.62841e+06
1.62848e+06
1.62863e+06
1.62869e+06
1.62883e+06
1.62608e+06
1.62634e+06
1.62643e+06
1.62666e+06
1.62677e+06
1.62696e+06
1.62708e+06
1.62726e+06
1.62737e+06
1.62753e+06
1.62764e+06
1.62779e+06
1.6279e+06
1.62804e+06
1.62813e+06
1.62828e+06
1.62835e+06
1.6285e+06
1.62855e+06
1.6287e+06
1.62597e+06
1.62623e+06
1.62631e+06
1.62654e+06
1.62665e+06
1.62684e+06
1.62696e+06
1.62713e+06
1.62725e+06
1.62741e+06
1.62752e+06
1.62766e+06
1.62777e+06
1.62791e+06
1.628e+06
1.62815e+06
1.62822e+06
1.62837e+06
1.62842e+06
1.62857e+06
1.62585e+06
1.62612e+06
1.6262e+06
1.62642e+06
1.62653e+06
1.62672e+06
1.62684e+06
1.62701e+06
1.62712e+06
1.62728e+06
1.62739e+06
1.62754e+06
1.62764e+06
1.62778e+06
1.62787e+06
1.62802e+06
1.62809e+06
1.62824e+06
1.62829e+06
1.62843e+06
1.62574e+06
1.626e+06
1.62608e+06
1.6263e+06
1.62641e+06
1.6266e+06
1.62671e+06
1.62689e+06
1.627e+06
1.62716e+06
1.62726e+06
1.62741e+06
1.62751e+06
1.62765e+06
1.62775e+06
1.62789e+06
1.62796e+06
1.62811e+06
1.62815e+06
1.6283e+06
1.62562e+06
1.62588e+06
1.62596e+06
1.62619e+06
1.62629e+06
1.62648e+06
1.62659e+06
1.62676e+06
1.62687e+06
1.62703e+06
1.62714e+06
1.62728e+06
1.62739e+06
1.62753e+06
1.62762e+06
1.62776e+06
1.62783e+06
1.62797e+06
1.62802e+06
1.62817e+06
1.62551e+06
1.62577e+06
1.62584e+06
1.62607e+06
1.62617e+06
1.62636e+06
1.62647e+06
1.62664e+06
1.62675e+06
1.62691e+06
1.62701e+06
1.62716e+06
1.62726e+06
1.6274e+06
1.62749e+06
1.62763e+06
1.6277e+06
1.62785e+06
1.62789e+06
1.62803e+06
1.62539e+06
1.62565e+06
1.62573e+06
1.62595e+06
1.62605e+06
1.62624e+06
1.62635e+06
1.62652e+06
1.62663e+06
1.62678e+06
1.62689e+06
1.62704e+06
1.62714e+06
1.62728e+06
1.62737e+06
1.62751e+06
1.62758e+06
1.62772e+06
1.62776e+06
1.62791e+06
1.62528e+06
1.62553e+06
1.62561e+06
1.62583e+06
1.62593e+06
1.62612e+06
1.62623e+06
1.6264e+06
1.6265e+06
1.62666e+06
1.62677e+06
1.62692e+06
1.62702e+06
1.62716e+06
1.62724e+06
1.62738e+06
1.62745e+06
1.62759e+06
1.62764e+06
1.62778e+06
1.62516e+06
1.62542e+06
1.62549e+06
1.62571e+06
1.62581e+06
1.626e+06
1.62611e+06
1.62628e+06
1.62638e+06
1.62654e+06
1.62665e+06
1.6268e+06
1.62689e+06
1.62703e+06
1.62712e+06
1.62726e+06
1.62733e+06
1.62747e+06
1.62751e+06
1.62765e+06
1.62505e+06
1.62531e+06
1.62538e+06
1.6256e+06
1.62569e+06
1.62588e+06
1.62599e+06
1.62616e+06
1.62626e+06
1.62642e+06
1.62653e+06
1.62667e+06
1.62677e+06
1.62691e+06
1.627e+06
1.62713e+06
1.6272e+06
1.62734e+06
1.62739e+06
1.62752e+06
1.62493e+06
1.62519e+06
1.62526e+06
1.62548e+06
1.62557e+06
1.62576e+06
1.62587e+06
1.62604e+06
1.62614e+06
1.6263e+06
1.6264e+06
1.62655e+06
1.62665e+06
1.62679e+06
1.62687e+06
1.62701e+06
1.62708e+06
1.62722e+06
1.62726e+06
1.6274e+06
1.62482e+06
1.62508e+06
1.62514e+06
1.62536e+06
1.62546e+06
1.62564e+06
1.62575e+06
1.62592e+06
1.62602e+06
1.62618e+06
1.62628e+06
1.62643e+06
1.62652e+06
1.62666e+06
1.62675e+06
1.62688e+06
1.62695e+06
1.62709e+06
1.62713e+06
1.62727e+06
1.62471e+06
1.62496e+06
1.62503e+06
1.62525e+06
1.62534e+06
1.62553e+06
1.62563e+06
1.6258e+06
1.62591e+06
1.62606e+06
1.62616e+06
1.62631e+06
1.6264e+06
1.62654e+06
1.62662e+06
1.62676e+06
1.62683e+06
1.62696e+06
1.627e+06
1.62714e+06
1.62459e+06
1.62485e+06
1.62492e+06
1.62513e+06
1.62523e+06
1.62542e+06
1.62552e+06
1.62569e+06
1.62579e+06
1.62594e+06
1.62604e+06
1.62618e+06
1.62628e+06
1.62642e+06
1.6265e+06
1.62664e+06
1.6267e+06
1.62684e+06
1.62688e+06
1.62702e+06
1.62448e+06
1.62474e+06
1.6248e+06
1.62502e+06
1.62511e+06
1.6253e+06
1.6254e+06
1.62557e+06
1.62567e+06
1.62582e+06
1.62592e+06
1.62607e+06
1.62616e+06
1.6263e+06
1.62638e+06
1.62651e+06
1.62658e+06
1.62672e+06
1.62675e+06
1.62689e+06
1.62437e+06
1.62463e+06
1.62469e+06
1.62491e+06
1.625e+06
1.62519e+06
1.62529e+06
1.62546e+06
1.62556e+06
1.62571e+06
1.62581e+06
1.62595e+06
1.62604e+06
1.62618e+06
1.62626e+06
1.62639e+06
1.62646e+06
1.62659e+06
1.62663e+06
1.62676e+06
1.62426e+06
1.62452e+06
1.62458e+06
1.6248e+06
1.62489e+06
1.62508e+06
1.62518e+06
1.62534e+06
1.62544e+06
1.62559e+06
1.62569e+06
1.62583e+06
1.62592e+06
1.62606e+06
1.62614e+06
1.62627e+06
1.62633e+06
1.62647e+06
1.6265e+06
1.62664e+06
1.62415e+06
1.62441e+06
1.62447e+06
1.62469e+06
1.62478e+06
1.62497e+06
1.62506e+06
1.62523e+06
1.62533e+06
1.62548e+06
1.62557e+06
1.62571e+06
1.6258e+06
1.62594e+06
1.62602e+06
1.62615e+06
1.62621e+06
1.62635e+06
1.62638e+06
1.62651e+06
1.62405e+06
1.6243e+06
1.62436e+06
1.62458e+06
1.62467e+06
1.62486e+06
1.62495e+06
1.62512e+06
1.62521e+06
1.62536e+06
1.62546e+06
1.6256e+06
1.62569e+06
1.62582e+06
1.6259e+06
1.62603e+06
1.62609e+06
1.62622e+06
1.62626e+06
1.62639e+06
1.62394e+06
1.62419e+06
1.62426e+06
1.62447e+06
1.62456e+06
1.62475e+06
1.62484e+06
1.625e+06
1.6251e+06
1.62525e+06
1.62534e+06
1.62548e+06
1.62557e+06
1.6257e+06
1.62578e+06
1.62591e+06
1.62597e+06
1.6261e+06
1.62613e+06
1.62627e+06
1.62384e+06
1.62409e+06
1.62415e+06
1.62437e+06
1.62445e+06
1.62464e+06
1.62473e+06
1.62489e+06
1.62499e+06
1.62514e+06
1.62523e+06
1.62537e+06
1.62546e+06
1.62559e+06
1.62566e+06
1.62579e+06
1.62585e+06
1.62598e+06
1.62601e+06
1.62614e+06
1.62374e+06
1.62399e+06
1.62405e+06
1.62426e+06
1.62435e+06
1.62453e+06
1.62462e+06
1.62478e+06
1.62488e+06
1.62503e+06
1.62512e+06
1.62526e+06
1.62534e+06
1.62548e+06
1.62555e+06
1.62568e+06
1.62573e+06
1.62586e+06
1.62589e+06
1.62602e+06
1.62364e+06
1.62389e+06
1.62395e+06
1.62416e+06
1.62424e+06
1.62442e+06
1.62451e+06
1.62468e+06
1.62477e+06
1.62492e+06
1.62501e+06
1.62515e+06
1.62523e+06
1.62536e+06
1.62544e+06
1.62556e+06
1.62562e+06
1.62574e+06
1.62577e+06
1.6259e+06
1.62353e+06
1.62378e+06
1.62384e+06
1.62405e+06
1.62413e+06
1.62431e+06
1.62441e+06
1.62457e+06
1.62466e+06
1.62481e+06
1.6249e+06
1.62504e+06
1.62512e+06
1.62525e+06
1.62532e+06
1.62545e+06
1.6255e+06
1.62562e+06
1.62565e+06
1.62578e+06
1.62343e+06
1.62368e+06
1.62374e+06
1.62395e+06
1.62403e+06
1.62421e+06
1.6243e+06
1.62446e+06
1.62456e+06
1.6247e+06
1.62479e+06
1.62493e+06
1.62501e+06
1.62514e+06
1.62521e+06
1.62533e+06
1.62538e+06
1.62551e+06
1.62553e+06
1.62566e+06
1.62333e+06
1.62358e+06
1.62363e+06
1.62384e+06
1.62392e+06
1.6241e+06
1.62419e+06
1.62436e+06
1.62445e+06
1.62459e+06
1.62468e+06
1.62482e+06
1.6249e+06
1.62502e+06
1.62509e+06
1.62521e+06
1.62526e+06
1.62539e+06
1.62542e+06
1.62554e+06
1.62323e+06
1.62347e+06
1.62353e+06
1.62374e+06
1.62382e+06
1.624e+06
1.62409e+06
1.62425e+06