/*--------------------------------*- C++ -*----------------------------------*\
  =========                 |
  \\      /  F ield         | OpenFOAM: The Open Source CFD Toolbox
   \\    /   O peration     | Website:  https://openfoam.org
    \\  /    A nd           | Version:  8
     \\/     M anipulation  |
\*---------------------------------------------------------------------------*/
FoamFile
{
    version     2.0;
    format      ascii;
    class       volScalarField;
    location    "200";
    object      p_rgh;
}
// * * * * * * * * * * * * * * * * * * * * * * * * * * * * * * * * * * * * * //

dimensions      [1 -1 -2 0 0 0 0];

internalField   nonuniform List<scalar> 
8400
(
11765.6
26948.3
42334.5
57235.2
71620
85433.6
98645.5
111244
123233
134628
145450
155729
165497
174788
183639
192085
200159
207893
215316
222457
229342
235998
242448
248716
254828
260804
266665
272433
278124
283758
289353
294926
300499
306089
311719
317410
323187
329077
335113
341331
347780
354516
361617
369189
377363
386264
396053
407319
421596
439803
11240.4
26387.3
41828.9
56805.1
71255.6
85116.6
98357.1
110968
122954
134335
145135
155385
165119
174375
183188
191593
199625
207315
214692
221786
228623
235227
241624
247837
253890
259804
265601
271298
276914
282466
287972
293451
298918
304394
309897
315446
321063
326770
332594
338567
344723
351108
357774
364793
372246
380197
388716
398080
408997
421977
12210.2
27855.7
43611.3
58797.3
73394.5
87352.3
100649
113283
125270
136633
147405
157621
167320
176541
185322
193698
201706
209378
216743
223831
230667
237278
243689
249923
256004
261955
267794
273542
279217
284838
290421
295986
301551
307136
312759
318442
324206
330076
336079
342245
348611
355220
362123
369380
377060
385217
393909
403266
413530
424648
11349.7
27045.5
43016.2
58423.4
73187
87245.8
100584
113211
125153
136445
147126
157240
166828
175933
184594
192849
200735
208282
215523
222484
229193
235675
241955
248055
253999
259807
265499
271093
276606
282057
287461
292837
298199
303567
308957
314386
319874
325440
331105
336895
342837
348964
355315
361934
368873
376179
383904
392126
400963
410444
12476.2
29058.7
45614.7
61425.1
76460.3
90685.8
104109
116762
128687
139935
150557
160603
170121
179158
187754
195950
203782
211285
218488
225420
232108
238577
244851
250955
256909
262735
268451
274075
279626
285120
290573
296002
301423
306853
312307
317803
323355
328980
334695
340519
346471
352571
358843
365310
371997
378925
386108
393564
401344
409473
11736.4
28752.7
45781.3
61964.7
77231.2
91561.4
104991
117580
129395
140503
150967
160846
170193
179056
187481
195508
203174
210513
217556
224331
230865
237182
243307
249263
255069
260747
266315
271790
277189
282529
287826
293095
298352
303613
308893
314207
319569
324993
330494
336088
341787
347608
353566
359673
365945
372390
379003
385765
392670
399784
12622.1
30897.9
48740.6
65440.3
80999.4
95462.1
108917
121464
133196
144200
154550
164312
173544
182298
190619
198550
206127
213385
220354
227063
233538
239804
245884
251799
257571
263218
268758
274207
279583
284901
290174
295419
300650
305882
311126
316397
321705
327062
332478
337962
343523
349168
354902
360730
366654
372676
378785
384950
391145
397419
12250.1
31553.7
50111.9
67223
82944.1
97402.6
110754
123142
134688
145496
155648
165216
174260
182832
190979
198742
206160
213266
220090
226660
233002
239141
245099
250898
256556
262093
267525
272870
278143
283359
288533
293680
298813
303947
309095
314267
319474
324726
330031
335395
340822
346314
351870
357485
363153
368863
374596
380311
385954
391564
13067.5
33976
53371.4
70848.1
86651.5
101045
114263
126493
137877
148525
158526
167952
176862
185309
193339
200994
208310
215320
222056
228544
234810
240879
246771
252507
258106
263586
268964
274256
279475
284638
289758
294849
299925
304998
310081
315184
320316
325485
330699
335961
341272
346632
352036
357475
362937
368406
373859
379254
384518
389654
13496.5
35824.2
55776.7
73334.2
88986.8
103153
116134
128141
139322
149788
159623
168897
177667
185986
193897
201442
208655
215570
222217
228622
234812
240808
246632
252304
257841
263263
268584
273820
278985
284095
289162
294200
299224
304246
309277
314327
319406
324521
329678
334879
340124
345411
350733
356076
361424
366755
372041
377237
382258
387075
15224.3
39037.5
58991.6
76284.2
91617.7
105507
118267
130096
141132
151472
161197
170371
179049
187282
195112
202579
209720
216567
223149
229494
235626
241569
247342
252965
258457
263834
269114
274310
279437
284508
289538
294541
299530
304517
309514
314532
319578
324661
329785
334954
340166
345418
350703
356007
361311
366589
371811
376932
381874
386572
15530.3
40262.1
60025.9
77105.4
92280.1
106050
118721
130484
141469
151771
161465
170614
179274
187491
195310
202769
209904
216747
223327
229672
235804
241747
247520
253144
258635
264012
269291
274484
279608
284674
289697
294692
299671
304647
309632
314636
319667
324734
329842
334995
340193
345432
350706
356002
361302
366581
371806
376932
381890
386596
13018.3
38185.3
58996.9
76414.9
91725.3
105578
118284
130043
141001
151264
160914
170017
178631
186804
194580
202000
209098
215907
222455
228770
234876
240794
246546
252149
257623
262985
268250
273432
278546
283605
288623
293615
298593
303572
308561
313571
318611
323689
328811
333980
339196
344455
349750
355069
360392
365693
370935
376072
381042
385756
8158.34
34034.3
57538.8
76393.3
92387.8
106740
119854
131925
143117
153561
163356
172578
181290
189543
197387
204862
212006
218851
225430
231769
237892
243823
249583
255192
260668
266029
271290
276468
281574
286625
291633
296614
301580
306544
311517
316508
321527
326582
331676
336814
341996
347219
352476
357754
363035
368292
373487
378570
383468
388065
-8200.05
18520
44665.4
65110.3
81817
96640.1
110182
122610
134080
144750
154742
164143
173024
181441
189444
197075
204372
211370
218097
224582
230849
236919
242815
248555
254158
259642
265023
270315
275532
280689
285799
290876
295932
300980
306029
311090
316169
321272
326404
331565
336755
341970
347199
352427
357633
362785
367841
372752
377479
381972
6177.6
25237.4
53073
76243.2
94238.3
109679
123635
136309
147855
158475
168333
177548
186204
194373
202114
209475
216500
223225
229684
235906
241916
247737
253391
258898
264278
269547
274722
279816
284844
289819
294754
299661
304551
309435
314322
319218
324128
329055
334001
338965
343948
348946
353951
358952
363926
368822
373541
377934
381889
385573
-44902.9
-15581.8
17634.4
43026.9
62440.2
79197.4
94515.8
108524
121320
133105
144059
154306
163937
173025
181633
189813
197611
205066
212214
219085
225706
232104
238300
244319
250180
255903
261505
267000
272403
277728
282987
288193
293355
298481
303577
308645
313682
318683
323642
328549
333396
338170
342856
347447
351998
356552
361133
365744
370253
374302
7875.99
19871.9
50701.9
76699
95584.6
111269
125416
138235
149831
160421
170203
179317
187860
195911
203534
210783
217703
224332
230703
236845
242782
248537
254132
259586
264918
270144
275279
280335
285325
290259
295149
300003
304830
309635
314417
319174
323899
328584
333218
337801
342340
346818
351139
355099
358667
362107
365585
368925
371770
373661
-95258.6
-44346.3
-1896.53
26544.9
48515.4
67530
84671
100211
114333
127262
139195
150281
160630
170335
179471
188107
196297
204092
211534
218660
225503
232094
238460
244626
250617
256452
262148
267720
273182
278547
283823
289017
294133
299164
304101
308919
313585
318047
322242
326137
329834
333536
337426
341657
346158
350652
354798
358236
360465
360111
10809
17591.1
33767
51946.9
68764.5
84419.6
99230.9
113131
126052
138041
149198
159617
169379
178557
187218
195419
203213
210644
217752
224571
231133
237465
243593
249541
255330
260978
266500
271911
277223
282445
287585
292647
297629
302520
307305
311951
316410
320611
324441
327722
330289
332339
334407
336883
339761
342706
345304
347212
348090
347572
1.62641e+06
1.6259e+06
1.62564e+06
1.62555e+06
1.62549e+06
1.62546e+06
1.62543e+06
1.62541e+06
1.6254e+06
1.62539e+06
1.62538e+06
1.62537e+06
1.62537e+06
1.62536e+06
1.62536e+06
1.62536e+06
1.62536e+06
1.62536e+06
1.62536e+06
1.62536e+06
1.62536e+06
1.62536e+06
1.62536e+06
1.62537e+06
1.62537e+06
1.62537e+06
1.62537e+06
1.62537e+06
1.62537e+06
1.62537e+06
1.62537e+06
1.62536e+06
1.62536e+06
1.62536e+06
1.62535e+06
1.62535e+06
1.62534e+06
1.62533e+06
1.62533e+06
1.62531e+06
1.6253e+06
1.62528e+06
1.62526e+06
1.62523e+06
1.6252e+06
1.62516e+06
1.62511e+06
1.62505e+06
1.62497e+06
1.62486e+06
1.62481e+06
1.6251e+06
1.62519e+06
1.62522e+06
1.62525e+06
1.62527e+06
1.62528e+06
1.62529e+06
1.6253e+06
1.6253e+06
1.62531e+06
1.62531e+06
1.62531e+06
1.62532e+06
1.62532e+06
1.62532e+06
1.62532e+06
1.62533e+06
1.62533e+06
1.62533e+06
1.62534e+06
1.62534e+06
1.62534e+06
1.62535e+06
1.62535e+06
1.62535e+06
1.62535e+06
1.62535e+06
1.62535e+06
1.62535e+06
1.62535e+06
1.62535e+06
1.62535e+06
1.62535e+06
1.62535e+06
1.62534e+06
1.62534e+06
1.62533e+06
1.62532e+06
1.62531e+06
1.62529e+06
1.62528e+06
1.62525e+06
1.62523e+06
1.6252e+06
1.62516e+06
1.62511e+06
1.62506e+06
1.62499e+06
1.62491e+06
1.62527e+06
1.6254e+06
1.62548e+06
1.62548e+06
1.62547e+06
1.62546e+06
1.62545e+06
1.62543e+06
1.62542e+06
1.62541e+06
1.6254e+06
1.62539e+06
1.62539e+06
1.62538e+06
1.62538e+06
1.62538e+06
1.62537e+06
1.62537e+06
1.62537e+06
1.62537e+06
1.62537e+06
1.62537e+06
1.62537e+06
1.62538e+06
1.62538e+06
1.62538e+06
1.62538e+06
1.62538e+06
1.62537e+06
1.62537e+06
1.62537e+06
1.62537e+06
1.62537e+06
1.62537e+06
1.62536e+06
1.62536e+06
1.62535e+06
1.62534e+06
1.62534e+06
1.62532e+06
1.62531e+06
1.62529e+06
1.62527e+06
1.62525e+06
1.62522e+06
1.62519e+06
1.62515e+06
1.6251e+06
1.62504e+06
1.62497e+06
1.62529e+06
1.62532e+06
1.62533e+06
1.62532e+06
1.62531e+06
1.62531e+06
1.62531e+06
1.62531e+06
1.62531e+06
1.62531e+06
1.62531e+06
1.62531e+06
1.62531e+06
1.62531e+06
1.62531e+06
1.62532e+06
1.62532e+06
1.62532e+06
1.62533e+06
1.62533e+06
1.62533e+06
1.62534e+06
1.62534e+06
1.62534e+06
1.62535e+06
1.62535e+06
1.62535e+06
1.62535e+06
1.62535e+06
1.62535e+06
1.62535e+06
1.62535e+06
1.62535e+06
1.62535e+06
1.62535e+06
1.62534e+06
1.62534e+06
1.62534e+06
1.62533e+06
1.62532e+06
1.62531e+06
1.62529e+06
1.62528e+06
1.62526e+06
1.62523e+06
1.6252e+06
1.62517e+06
1.62513e+06
1.62508e+06
1.62503e+06
1.62532e+06
1.62534e+06
1.62536e+06
1.62537e+06
1.62538e+06
1.62538e+06
1.62539e+06
1.62539e+06
1.62539e+06
1.62538e+06
1.62538e+06
1.62538e+06
1.62538e+06
1.62537e+06
1.62537e+06
1.62537e+06
1.62537e+06
1.62537e+06
1.62537e+06
1.62537e+06
1.62537e+06
1.62538e+06
1.62538e+06
1.62538e+06
1.62538e+06
1.62538e+06
1.62538e+06
1.62538e+06
1.62538e+06
1.62538e+06
1.62538e+06
1.62538e+06
1.62538e+06
1.62537e+06
1.62537e+06
1.62537e+06
1.62536e+06
1.62536e+06
1.62535e+06
1.62534e+06
1.62533e+06
1.62532e+06
1.62531e+06
1.62529e+06
1.62527e+06
1.62524e+06
1.62522e+06
1.62518e+06
1.62515e+06
1.62511e+06
1.62534e+06
1.62534e+06
1.62535e+06
1.62535e+06
1.62535e+06
1.62535e+06
1.62534e+06
1.62534e+06
1.62534e+06
1.62533e+06
1.62533e+06
1.62533e+06
1.62533e+06
1.62533e+06
1.62533e+06
1.62533e+06
1.62533e+06
1.62533e+06
1.62533e+06
1.62534e+06
1.62534e+06
1.62534e+06
1.62535e+06
1.62535e+06
1.62535e+06
1.62535e+06
1.62536e+06
1.62536e+06
1.62536e+06
1.62536e+06
1.62536e+06
1.62536e+06
1.62536e+06
1.62536e+06
1.62536e+06
1.62536e+06
1.62535e+06
1.62535e+06
1.62535e+06
1.62534e+06
1.62533e+06
1.62533e+06
1.62531e+06
1.6253e+06
1.62529e+06
1.62527e+06
1.62525e+06
1.62522e+06
1.62519e+06
1.62516e+06
1.62534e+06
1.62535e+06
1.62535e+06
1.62535e+06
1.62536e+06
1.62536e+06
1.62536e+06
1.62536e+06
1.62536e+06
1.62536e+06
1.62536e+06
1.62536e+06
1.62536e+06
1.62536e+06
1.62536e+06
1.62536e+06
1.62536e+06
1.62536e+06
1.62536e+06
1.62537e+06
1.62537e+06
1.62537e+06
1.62537e+06
1.62538e+06
1.62538e+06
1.62538e+06
1.62538e+06
1.62538e+06
1.62538e+06
1.62538e+06
1.62538e+06
1.62538e+06
1.62538e+06
1.62538e+06
1.62538e+06
1.62538e+06
1.62538e+06
1.62538e+06
1.62537e+06
1.62537e+06
1.62536e+06
1.62536e+06
1.62535e+06
1.62534e+06
1.62533e+06
1.62531e+06
1.6253e+06
1.62528e+06
1.62526e+06
1.62524e+06
1.62535e+06
1.62535e+06
1.62535e+06
1.62535e+06
1.62535e+06
1.62535e+06
1.62535e+06
1.62535e+06
1.62535e+06
1.62535e+06
1.62534e+06
1.62534e+06
1.62534e+06
1.62534e+06
1.62534e+06
1.62534e+06
1.62534e+06
1.62534e+06
1.62534e+06
1.62535e+06
1.62535e+06
1.62535e+06
1.62535e+06
1.62536e+06
1.62536e+06
1.62536e+06
1.62536e+06
1.62537e+06
1.62537e+06
1.62537e+06
1.62537e+06
1.62537e+06
1.62537e+06
1.62537e+06
1.62537e+06
1.62538e+06
1.62538e+06
1.62538e+06
1.62538e+06
1.62537e+06
1.62537e+06
1.62537e+06
1.62536e+06
1.62536e+06
1.62535e+06
1.62534e+06
1.62534e+06
1.62533e+06
1.62531e+06
1.6253e+06
1.62535e+06
1.62535e+06
1.62535e+06
1.62535e+06
1.62535e+06
1.62535e+06
1.62535e+06
1.62535e+06
1.62535e+06
1.62535e+06
1.62535e+06
1.62535e+06
1.62535e+06
1.62535e+06
1.62535e+06
1.62535e+06
1.62535e+06
1.62535e+06
1.62536e+06
1.62536e+06
1.62536e+06
1.62537e+06
1.62537e+06
1.62537e+06
1.62537e+06
1.62538e+06
1.62538e+06
1.62538e+06
1.62538e+06
1.62538e+06
1.62539e+06
1.62539e+06
1.62539e+06
1.62539e+06
1.62539e+06
1.62539e+06
1.6254e+06
1.6254e+06
1.6254e+06
1.6254e+06
1.6254e+06
1.6254e+06
1.6254e+06
1.6254e+06
1.62539e+06
1.62539e+06
1.62539e+06
1.62538e+06
1.62538e+06
1.62538e+06
1.62535e+06
1.62535e+06
1.62535e+06
1.62535e+06
1.62535e+06
1.62535e+06
1.62535e+06
1.62535e+06
1.62535e+06
1.62535e+06
1.62535e+06
1.62535e+06
1.62535e+06
1.62535e+06
1.62535e+06
1.62535e+06
1.62535e+06
1.62535e+06
1.62535e+06
1.62535e+06
1.62536e+06
1.62536e+06
1.62536e+06
1.62537e+06
1.62537e+06
1.62537e+06
1.62538e+06
1.62538e+06
1.62538e+06
1.62538e+06
1.62538e+06
1.62539e+06
1.62539e+06
1.62539e+06
1.6254e+06
1.6254e+06
1.6254e+06
1.6254e+06
1.62541e+06
1.62541e+06
1.62541e+06
1.62542e+06
1.62542e+06
1.62542e+06
1.62543e+06
1.62543e+06
1.62543e+06
1.62543e+06
1.62544e+06
1.62544e+06
1.62535e+06
1.62535e+06
1.62535e+06
1.62535e+06
1.62535e+06
1.62535e+06
1.62535e+06
1.62535e+06
1.62535e+06
1.62535e+06
1.62535e+06
1.62535e+06
1.62535e+06
1.62535e+06
1.62535e+06
1.62535e+06
1.62535e+06
1.62535e+06
1.62535e+06
1.62536e+06
1.62536e+06
1.62536e+06
1.62537e+06
1.62537e+06
1.62537e+06
1.62537e+06
1.62538e+06
1.62538e+06
1.62538e+06
1.62539e+06
1.62539e+06
1.62539e+06
1.6254e+06
1.6254e+06
1.6254e+06
1.62541e+06
1.62541e+06
1.62542e+06
1.62542e+06
1.62543e+06
1.62543e+06
1.62544e+06
1.62545e+06
1.62545e+06
1.62546e+06
1.62547e+06
1.62548e+06
1.62549e+06
1.62549e+06
1.6255e+06
1.62535e+06
1.62535e+06
1.62535e+06
1.62535e+06
1.62535e+06
1.62535e+06
1.62535e+06
1.62535e+06
1.62535e+06
1.62535e+06
1.62535e+06
1.62535e+06
1.62535e+06
1.62535e+06
1.62535e+06
1.62535e+06
1.62535e+06
1.62536e+06
1.62536e+06
1.62536e+06
1.62537e+06
1.62537e+06
1.62537e+06
1.62538e+06
1.62538e+06
1.62538e+06
1.62539e+06
1.62539e+06
1.62539e+06
1.62539e+06
1.6254e+06
1.6254e+06
1.62541e+06
1.62541e+06
1.62542e+06
1.62542e+06
1.62543e+06
1.62543e+06
1.62544e+06
1.62545e+06
1.62546e+06
1.62547e+06
1.62548e+06
1.62549e+06
1.6255e+06
1.62551e+06
1.62552e+06
1.62554e+06
1.62555e+06
1.62557e+06
1.62535e+06
1.62535e+06
1.62535e+06
1.62535e+06
1.62536e+06
1.62535e+06
1.62535e+06
1.62535e+06
1.62535e+06
1.62535e+06
1.62535e+06
1.62534e+06
1.62534e+06
1.62534e+06
1.62534e+06
1.62534e+06
1.62534e+06
1.62535e+06
1.62535e+06
1.62535e+06
1.62535e+06
1.62536e+06
1.62536e+06
1.62536e+06
1.62537e+06
1.62537e+06
1.62538e+06
1.62538e+06
1.62538e+06
1.62539e+06
1.62539e+06
1.6254e+06
1.6254e+06
1.62541e+06
1.62541e+06
1.62542e+06
1.62543e+06
1.62544e+06
1.62545e+06
1.62546e+06
1.62547e+06
1.62548e+06
1.6255e+06
1.62551e+06
1.62553e+06
1.62554e+06
1.62556e+06
1.62558e+06
1.62561e+06
1.62563e+06
1.62535e+06
1.62535e+06
1.62535e+06
1.62536e+06
1.62536e+06
1.62536e+06
1.62536e+06
1.62536e+06
1.62536e+06
1.62536e+06
1.62536e+06
1.62536e+06
1.62536e+06
1.62536e+06
1.62536e+06
1.62536e+06
1.62536e+06
1.62537e+06
1.62537e+06
1.62537e+06
1.62537e+06
1.62538e+06
1.62538e+06
1.62538e+06
1.62539e+06
1.62539e+06
1.62539e+06
1.6254e+06
1.6254e+06
1.62541e+06
1.62541e+06
1.62542e+06
1.62542e+06
1.62543e+06
1.62543e+06
1.62544e+06
1.62545e+06
1.62546e+06
1.62547e+06
1.62548e+06
1.6255e+06
1.62551e+06
1.62553e+06
1.62555e+06
1.62557e+06
1.62559e+06
1.62561e+06
1.62564e+06
1.62567e+06
1.6257e+06
1.62534e+06
1.62534e+06
1.62535e+06
1.62535e+06
1.62535e+06
1.62535e+06
1.62535e+06
1.62534e+06
1.62534e+06
1.62534e+06
1.62533e+06
1.62533e+06
1.62533e+06
1.62533e+06
1.62533e+06
1.62533e+06
1.62533e+06
1.62534e+06
1.62534e+06
1.62534e+06
1.62535e+06
1.62535e+06
1.62535e+06
1.62536e+06
1.62536e+06
1.62537e+06
1.62537e+06
1.62538e+06
1.62538e+06
1.62539e+06
1.6254e+06
1.6254e+06
1.62541e+06
1.62542e+06
1.62542e+06
1.62543e+06
1.62544e+06
1.62546e+06
1.62547e+06
1.62548e+06
1.6255e+06
1.62552e+06
1.62554e+06
1.62556e+06
1.62558e+06
1.62561e+06
1.62564e+06
1.62567e+06
1.62571e+06
1.62575e+06
1.62533e+06
1.62534e+06
1.62536e+06
1.62538e+06
1.62538e+06
1.62539e+06
1.62539e+06
1.62539e+06
1.62539e+06
1.62539e+06
1.62538e+06
1.62538e+06
1.62538e+06
1.62538e+06
1.62538e+06
1.62538e+06
1.62538e+06
1.62538e+06
1.62538e+06
1.62538e+06
1.62538e+06
1.62539e+06
1.62539e+06
1.62539e+06
1.62539e+06
1.6254e+06
1.6254e+06
1.62541e+06
1.62541e+06
1.62542e+06
1.62542e+06
1.62543e+06
1.62543e+06
1.62544e+06
1.62545e+06
1.62546e+06
1.62547e+06
1.62548e+06
1.62549e+06
1.62551e+06
1.62553e+06
1.62555e+06
1.62557e+06
1.62559e+06
1.62562e+06
1.62565e+06
1.62569e+06
1.62573e+06
1.62577e+06
1.62581e+06
1.62529e+06
1.62532e+06
1.62533e+06
1.62533e+06
1.62532e+06
1.62531e+06
1.62531e+06
1.62531e+06
1.62531e+06
1.62531e+06
1.62531e+06
1.62531e+06
1.62531e+06
1.62532e+06
1.62532e+06
1.62532e+06
1.62533e+06
1.62533e+06
1.62533e+06
1.62534e+06
1.62534e+06
1.62535e+06
1.62535e+06
1.62536e+06
1.62536e+06
1.62537e+06
1.62537e+06
1.62538e+06
1.62539e+06
1.62539e+06
1.6254e+06
1.62541e+06
1.62542e+06
1.62542e+06
1.62543e+06
1.62544e+06
1.62546e+06
1.62547e+06
1.62549e+06
1.62551e+06
1.62553e+06
1.62555e+06
1.62557e+06
1.6256e+06
1.62563e+06
1.62567e+06
1.62571e+06
1.62575e+06
1.6258e+06
1.62586e+06
1.62527e+06
1.62541e+06
1.62548e+06
1.62549e+06
1.62548e+06
1.62546e+06
1.62545e+06
1.62544e+06
1.62543e+06
1.62542e+06
1.62541e+06
1.6254e+06
1.62539e+06
1.62539e+06
1.62539e+06
1.62538e+06
1.62538e+06
1.62538e+06
1.62538e+06
1.62538e+06
1.62538e+06
1.62539e+06
1.62539e+06
1.62539e+06
1.62539e+06
1.6254e+06
1.6254e+06
1.62541e+06
1.62541e+06
1.62542e+06
1.62542e+06
1.62543e+06
1.62544e+06
1.62545e+06
1.62545e+06
1.62547e+06
1.62548e+06
1.62549e+06
1.62551e+06
1.62553e+06
1.62555e+06
1.62557e+06
1.6256e+06
1.62563e+06
1.62566e+06
1.6257e+06
1.62574e+06
1.62579e+06
1.62585e+06
1.62592e+06
1.62482e+06
1.6251e+06
1.62519e+06
1.62523e+06
1.62525e+06
1.62527e+06
1.62529e+06
1.6253e+06
1.6253e+06
1.62531e+06
1.62531e+06
1.62532e+06
1.62532e+06
1.62532e+06
1.62533e+06
1.62533e+06
1.62533e+06
1.62534e+06
1.62534e+06
1.62535e+06
1.62535e+06
1.62535e+06
1.62536e+06
1.62536e+06
1.62537e+06
1.62537e+06
1.62538e+06
1.62539e+06
1.62539e+06
1.6254e+06
1.62541e+06
1.62541e+06
1.62542e+06
1.62543e+06
1.62544e+06
1.62546e+06
1.62547e+06
1.62548e+06
1.6255e+06
1.62552e+06
1.62554e+06
1.62557e+06
1.6256e+06
1.62563e+06
1.62566e+06
1.62571e+06
1.62575e+06
1.62581e+06
1.62587e+06
1.62595e+06
1.62641e+06
1.6259e+06
1.62565e+06
1.62555e+06
1.6255e+06
1.62546e+06
1.62543e+06
1.62541e+06
1.6254e+06
1.62539e+06
1.62538e+06
1.62538e+06
1.62537e+06
1.62537e+06
1.62537e+06
1.62537e+06
1.62537e+06
1.62537e+06
1.62537e+06
1.62537e+06
1.62537e+06
1.62538e+06
1.62538e+06
1.62538e+06
1.62539e+06
1.62539e+06
1.6254e+06
1.6254e+06
1.62541e+06
1.62541e+06
1.62542e+06
1.62543e+06
1.62544e+06
1.62544e+06
1.62545e+06
1.62547e+06
1.62548e+06
1.6255e+06
1.62551e+06
1.62553e+06
1.62555e+06
1.62558e+06
1.62561e+06
1.62564e+06
1.62568e+06
1.62572e+06
1.62577e+06
1.62583e+06
1.6259e+06
1.62599e+06
1.6251e+06
1.62537e+06
1.62548e+06
1.62572e+06
1.62585e+06
1.62606e+06
1.6262e+06
1.62639e+06
1.62652e+06
1.62669e+06
1.62682e+06
1.62699e+06
1.62711e+06
1.62727e+06
1.62738e+06
1.62753e+06
1.62762e+06
1.62778e+06
1.62785e+06
1.628e+06
1.62509e+06
1.62536e+06
1.62547e+06
1.62571e+06
1.62584e+06
1.62605e+06
1.62619e+06
1.62638e+06
1.62651e+06
1.62668e+06
1.62681e+06
1.62698e+06
1.6271e+06
1.62726e+06
1.62737e+06
1.62752e+06
1.62762e+06
1.62777e+06
1.62784e+06
1.628e+06
1.62508e+06
1.62535e+06
1.62546e+06
1.6257e+06
1.62583e+06
1.62604e+06
1.62618e+06
1.62637e+06
1.6265e+06
1.62668e+06
1.6268e+06
1.62697e+06
1.62709e+06
1.62725e+06
1.62736e+06
1.62751e+06
1.62761e+06
1.62777e+06
1.62784e+06
1.628e+06
1.62507e+06
1.62534e+06
1.62545e+06
1.62569e+06
1.62582e+06
1.62603e+06
1.62617e+06
1.62636e+06
1.62649e+06
1.62667e+06
1.6268e+06
1.62696e+06
1.62708e+06
1.62724e+06
1.62735e+06
1.62751e+06
1.6276e+06
1.62776e+06
1.62783e+06
1.62799e+06
1.62506e+06
1.62533e+06
1.62544e+06
1.62568e+06
1.62581e+06
1.62602e+06
1.62616e+06
1.62635e+06
1.62648e+06
1.62666e+06
1.62679e+06
1.62695e+06
1.62707e+06
1.62723e+06
1.62734e+06
1.6275e+06
1.62759e+06
1.62775e+06
1.62782e+06
1.62798e+06
1.62505e+06
1.62533e+06
1.62543e+06
1.62567e+06
1.6258e+06
1.62601e+06
1.62615e+06
1.62634e+06
1.62647e+06
1.62665e+06
1.62678e+06
1.62694e+06
1.62706e+06
1.62722e+06
1.62733e+06
1.62749e+06
1.62759e+06
1.62775e+06
1.62782e+06
1.62798e+06
1.62504e+06
1.62532e+06
1.62542e+06
1.62566e+06
1.62579e+06
1.626e+06
1.62614e+06
1.62633e+06
1.62646e+06
1.62664e+06
1.62677e+06
1.62693e+06
1.62706e+06
1.62722e+06
1.62733e+06
1.62748e+06
1.62758e+06
1.62774e+06
1.62781e+06
1.62797e+06
1.62503e+06
1.62531e+06
1.62541e+06
1.62565e+06
1.62578e+06
1.62599e+06
1.62613e+06
1.62632e+06
1.62645e+06
1.62663e+06
1.62676e+06
1.62693e+06
1.62705e+06
1.62721e+06
1.62732e+06
1.62748e+06
1.62757e+06
1.62773e+06
1.6278e+06
1.62796e+06
1.62502e+06
1.6253e+06
1.6254e+06
1.62564e+06
1.62577e+06
1.62598e+06
1.62612e+06
1.62631e+06
1.62644e+06
1.62662e+06
1.62675e+06
1.62692e+06
1.62704e+06
1.6272e+06
1.62731e+06
1.62747e+06
1.62756e+06
1.62772e+06
1.62779e+06
1.62795e+06
1.62501e+06
1.62529e+06
1.62539e+06
1.62564e+06
1.62576e+06
1.62598e+06
1.62611e+06
1.6263e+06
1.62644e+06
1.62661e+06
1.62674e+06
1.62691e+06
1.62703e+06
1.62719e+06
1.6273e+06
1.62746e+06
1.62755e+06
1.62772e+06
1.62779e+06
1.62795e+06
1.625e+06
1.62528e+06
1.62538e+06
1.62563e+06
1.62575e+06
1.62597e+06
1.6261e+06
1.62629e+06
1.62643e+06
1.6266e+06
1.62673e+06
1.6269e+06
1.62702e+06
1.62718e+06
1.62729e+06
1.62745e+06
1.62755e+06
1.62771e+06
1.62778e+06
1.62794e+06
1.62499e+06
1.62527e+06
1.62537e+06
1.62562e+06
1.62574e+06
1.62596e+06
1.62609e+06
1.62628e+06
1.62642e+06
1.62659e+06
1.62672e+06
1.62689e+06
1.62701e+06
1.62717e+06
1.62728e+06
1.62744e+06
1.62754e+06
1.6277e+06
1.62777e+06
1.62793e+06
1.62498e+06
1.62526e+06
1.62536e+06
1.62561e+06
1.62574e+06
1.62595e+06
1.62608e+06
1.62628e+06
1.62641e+06
1.62659e+06
1.62671e+06
1.62688e+06
1.627e+06
1.62717e+06
1.62728e+06
1.62743e+06
1.62753e+06
1.62769e+06
1.62776e+06
1.62792e+06
1.62498e+06
1.62525e+06
1.62536e+06
1.6256e+06
1.62573e+06
1.62594e+06
1.62608e+06
1.62627e+06
1.6264e+06
1.62658e+06
1.62671e+06
1.62687e+06
1.627e+06
1.62716e+06
1.62727e+06
1.62743e+06
1.62752e+06
1.62768e+06
1.62775e+06
1.62791e+06
1.62497e+06
1.62525e+06
1.62535e+06
1.62559e+06
1.62572e+06
1.62593e+06
1.62607e+06
1.62626e+06
1.62639e+06
1.62657e+06
1.6267e+06
1.62687e+06
1.62699e+06
1.62715e+06
1.62726e+06
1.62742e+06
1.62751e+06
1.62767e+06
1.62774e+06
1.6279e+06
1.62496e+06
1.62524e+06
1.62534e+06
1.62559e+06
1.62571e+06
1.62593e+06
1.62606e+06
1.62625e+06
1.62638e+06
1.62656e+06
1.62669e+06
1.62686e+06
1.62698e+06
1.62714e+06
1.62725e+06
1.62741e+06
1.6275e+06
1.62767e+06
1.62773e+06
1.6279e+06
1.62495e+06
1.62523e+06
1.62533e+06
1.62558e+06
1.6257e+06
1.62592e+06
1.62605e+06
1.62624e+06
1.62638e+06
1.62655e+06
1.62668e+06
1.62685e+06
1.62697e+06
1.62713e+06
1.62724e+06
1.6274e+06
1.62749e+06
1.62766e+06
1.62773e+06
1.62789e+06
1.62494e+06
1.62522e+06
1.62532e+06
1.62557e+06
1.62569e+06
1.62591e+06
1.62604e+06
1.62623e+06
1.62637e+06
1.62654e+06
1.62667e+06
1.62684e+06
1.62696e+06
1.62712e+06
1.62723e+06
1.62739e+06
1.62749e+06
1.62765e+06
1.62772e+06
1.62788e+06
1.62494e+06
1.62522e+06
1.62532e+06
1.62556e+06
1.62569e+06
1.6259e+06
1.62603e+06
1.62623e+06
1.62636e+06
1.62654e+06
1.62666e+06
1.62683e+06
1.62695e+06
1.62711e+06
1.62722e+06
1.62738e+06
1.62748e+06
1.62764e+06
1.62771e+06
1.62787e+06
1.62493e+06
1.62521e+06
1.62531e+06
1.62555e+06
1.62568e+06
1.62589e+06
1.62602e+06
1.62622e+06
1.62635e+06
1.62653e+06
1.62666e+06
1.62682e+06
1.62694e+06
1.62711e+06
1.62722e+06
1.62738e+06
1.62747e+06
1.62763e+06
1.6277e+06
1.62786e+06
1.62492e+06
1.6252e+06
1.6253e+06
1.62555e+06
1.62567e+06
1.62588e+06
1.62602e+06
1.62621e+06
1.62634e+06
1.62652e+06
1.62665e+06
1.62682e+06
1.62694e+06
1.6271e+06
1.62721e+06
1.62737e+06
1.62746e+06
1.62762e+06
1.62769e+06
1.62786e+06
1.62491e+06
1.62519e+06
1.62529e+06
1.62554e+06
1.62566e+06
1.62588e+06
1.62601e+06
1.6262e+06
1.62633e+06
1.62651e+06
1.62664e+06
1.62681e+06
1.62693e+06
1.62709e+06
1.6272e+06
1.62736e+06
1.62745e+06
1.62762e+06
1.62768e+06
1.62785e+06
1.6249e+06
1.62519e+06
1.62529e+06
1.62553e+06
1.62565e+06
1.62587e+06
1.626e+06
1.62619e+06
1.62633e+06
1.6265e+06
1.62663e+06
1.6268e+06
1.62692e+06
1.62708e+06
1.62719e+06
1.62735e+06
1.62745e+06
1.62761e+06
1.62768e+06
1.62784e+06
1.6249e+06
1.62518e+06
1.62528e+06
1.62552e+06
1.62565e+06
1.62586e+06
1.62599e+06
1.62619e+06
1.62632e+06
1.6265e+06
1.62663e+06
1.62679e+06
1.62692e+06
1.62708e+06
1.62719e+06
1.62735e+06
1.62744e+06
1.6276e+06
1.62767e+06
1.62783e+06
1.62489e+06
1.62517e+06
1.62527e+06
1.62552e+06
1.62564e+06
1.62585e+06
1.62598e+06
1.62618e+06
1.62631e+06
1.62649e+06
1.62662e+06
1.62679e+06
1.62691e+06
1.62707e+06
1.62718e+06
1.62734e+06
1.62743e+06
1.6276e+06
1.62766e+06
1.62783e+06
1.62488e+06
1.62516e+06
1.62526e+06
1.62551e+06
1.62563e+06
1.62585e+06
1.62598e+06
1.62617e+06
1.6263e+06
1.62648e+06
1.62661e+06
1.62678e+06
1.6269e+06
1.62706e+06
1.62717e+06
1.62733e+06
1.62743e+06
1.62759e+06
1.62766e+06
1.62782e+06
1.62487e+06
1.62516e+06
1.62525e+06
1.6255e+06
1.62562e+06
1.62584e+06
1.62597e+06
1.62616e+06
1.6263e+06
1.62648e+06
1.6266e+06
1.62677e+06
1.62689e+06
1.62706e+06
1.62716e+06
1.62733e+06
1.62742e+06
1.62758e+06
1.62765e+06
1.62781e+06
1.62487e+06
1.62515e+06
1.62525e+06
1.62549e+06
1.62562e+06
1.62583e+06
1.62596e+06
1.62616e+06
1.62629e+06
1.62647e+06
1.6266e+06
1.62676e+06
1.62688e+06
1.62705e+06
1.62716e+06
1.62732e+06
1.62741e+06
1.62757e+06
1.62764e+06
1.62781e+06
1.62486e+06
1.62514e+06
1.62524e+06
1.62549e+06
1.62561e+06
1.62583e+06
1.62596e+06
1.62615e+06
1.62628e+06
1.62646e+06
1.62659e+06
1.62676e+06
1.62688e+06
1.62704e+06
1.62715e+06
1.62731e+06
1.6274e+06
1.62757e+06
1.62763e+06
1.6278e+06
1.62485e+06
1.62513e+06
1.62523e+06
1.62548e+06
1.6256e+06
1.62582e+06
1.62595e+06
1.62614e+06
1.62627e+06
1.62645e+06
1.62658e+06
1.62675e+06
1.62687e+06
1.62703e+06
1.62714e+06
1.6273e+06
1.6274e+06
1.62756e+06
1.62763e+06
1.62779e+06
1.62484e+06
1.62513e+06
1.62523e+06
1.62547e+06
1.6256e+06
1.62581e+06
1.62594e+06
1.62614e+06
1.62627e+06
1.62645e+06
1.62657e+06
1.62674e+06
1.62686e+06
1.62703e+06
1.62713e+06
1.6273e+06
1.62739e+06
1.62755e+06
1.62762e+06
1.62779e+06
1.62484e+06
1.62512e+06
1.62522e+06
1.62547e+06
1.62559e+06
1.62581e+06
1.62594e+06
1.62613e+06
1.62626e+06
1.62644e+06
1.62657e+06
1.62674e+06
1.62686e+06
1.62702e+06
1.62713e+06
1.62729e+06
1.62738e+06
1.62754e+06
1.62761e+06
1.62778e+06
1.62483e+06
1.62512e+06
1.62521e+06
1.62546e+06
1.62558e+06
1.6258e+06
1.62593e+06
1.62613e+06
1.62626e+06
1.62643e+06
1.62656e+06
1.62673e+06
1.62685e+06
1.62701e+06
1.62712e+06
1.62728e+06
1.62737e+06
1.62754e+06
1.6276e+06
1.62777e+06
1.62482e+06
1.62511e+06
1.62521e+06
1.62546e+06
1.62558e+06
1.62579e+06
1.62592e+06
1.62612e+06
1.62625e+06
1.62643e+06
1.62655e+06
1.62672e+06
1.62684e+06
1.62701e+06
1.62711e+06
1.62727e+06
1.62737e+06
1.62753e+06
1.6276e+06
1.62776e+06
1.62482e+06
1.6251e+06
1.6252e+06
1.62545e+06
1.62557e+06
1.62579e+06
1.62592e+06
1.62611e+06
1.62624e+06
1.62642e+06
1.62655e+06
1.62672e+06
1.62684e+06
1.627e+06
1.62711e+06
1.62727e+06
1.62736e+06
1.62752e+06
1.62759e+06
1.62776e+06
1.62481e+06
1.6251e+06
1.62519e+06
1.62544e+06
1.62556e+06
1.62578e+06
1.62591e+06
1.62611e+06
1.62623e+06
1.62642e+06
1.62654e+06
1.62671e+06
1.62683e+06
1.62699e+06
1.6271e+06
1.62726e+06
1.62735e+06
1.62752e+06
1.62758e+06
1.62775e+06
1.6248e+06
1.62509e+06
1.62519e+06
1.62544e+06
1.62556e+06
1.62577e+06
1.6259e+06
1.6261e+06
1.62623e+06
1.62641e+06
1.62653e+06
1.6267e+06
1.62682e+06
1.62699e+06
1.62709e+06
1.62725e+06
1.62735e+06
1.62751e+06
1.62758e+06
1.62774e+06
1.6248e+06
1.62509e+06
1.62518e+06
1.62543e+06
1.62555e+06
1.62577e+06
1.6259e+06
1.62609e+06
1.62622e+06
1.6264e+06
1.62653e+06
1.6267e+06
1.62682e+06
1.62698e+06
1.62709e+06
1.62725e+06
1.62734e+06
1.6275e+06
1.62757e+06
1.62774e+06
1.62479e+06
1.62508e+06
1.62518e+06
1.62543e+06
1.62555e+06
1.62576e+06
1.62589e+06
1.62609e+06
1.62622e+06
1.6264e+06
1.62652e+06
1.62669e+06
1.62681e+06
1.62697e+06
1.62708e+06
1.62724e+06
1.62733e+06
1.6275e+06
1.62756e+06
1.62773e+06
1.62479e+06
1.62508e+06
1.62517e+06
1.62542e+06
1.62554e+06
1.62576e+06
1.62588e+06
1.62608e+06
1.62621e+06
1.62639e+06
1.62652e+06
1.62669e+06
1.62681e+06
1.62697e+06
1.62708e+06
1.62724e+06
1.62733e+06
1.62749e+06
1.62756e+06
1.62773e+06
1.62478e+06
1.62507e+06
1.62516e+06
1.62541e+06
1.62553e+06
1.62575e+06
1.62588e+06
1.62607e+06
1.6262e+06
1.62639e+06
1.62651e+06
1.62668e+06
1.6268e+06
1.62696e+06
1.62707e+06
1.62723e+06
1.62732e+06
1.62749e+06
1.62755e+06
1.62772e+06
1.62477e+06
1.62506e+06
1.62516e+06
1.62541e+06
1.62552e+06
1.62574e+06
1.62587e+06
1.62607e+06
1.6262e+06
1.62638e+06
1.62651e+06
1.62668e+06
1.62679e+06
1.62696e+06
1.62706e+06
1.62722e+06
1.62731e+06
1.62748e+06
1.62755e+06
1.62771e+06
1.62477e+06
1.62505e+06
1.62515e+06
1.6254e+06
1.62552e+06
1.62574e+06
1.62587e+06
1.62606e+06
1.62619e+06
1.62637e+06
1.6265e+06
1.62667e+06
1.62679e+06
1.62695e+06
1.62706e+06
1.62722e+06
1.62731e+06
1.62747e+06
1.62754e+06
1.62771e+06
1.62476e+06
1.62505e+06
1.62514e+06
1.62539e+06