/*--------------------------------*- C++ -*----------------------------------*\
  =========                 |
  \\      /  F ield         | OpenFOAM: The Open Source CFD Toolbox
   \\    /   O peration     | Website:  https://openfoam.org
    \\  /    A nd           | Version:  8
     \\/     M anipulation  |
\*---------------------------------------------------------------------------*/
FoamFile
{
    version     2.0;
    format      ascii;
    class       volScalarField;
    location    "200";
    object      T;
}
// * * * * * * * * * * * * * * * * * * * * * * * * * * * * * * * * * * * * * //

dimensions      [0 0 0 1 0 0 0];

internalField   nonuniform List<scalar> 
8400
(
293.183
293.18
293.18
293.18
293.18
293.179
293.179
293.178
293.177
293.177
293.176
293.175
293.174
293.173
293.172
293.171
293.17
293.168
293.167
293.165
293.164
293.162
293.16
293.159
293.157
293.155
293.153
293.151
293.149
293.147
293.146
293.144
293.142
293.14
293.138
293.137
293.135
293.134
293.132
293.131
293.13
293.128
293.127
293.126
293.125
293.125
293.124
293.123
293.122
293.121
293.223
293.221
293.221
293.221
293.221
293.221
293.22
293.22
293.22
293.219
293.219
293.218
293.218
293.217
293.217
293.216
293.215
293.215
293.214
293.213
293.212
293.211
293.21
293.209
293.208
293.207
293.206
293.205
293.204
293.203
293.202
293.201
293.2
293.199
293.199
293.198
293.197
293.196
293.196
293.195
293.194
293.194
293.193
293.193
293.192
293.192
293.192
293.191
293.191
293.19
293.221
293.219
293.219
293.218
293.218
293.218
293.218
293.217
293.217
293.217
293.217
293.216
293.216
293.216
293.215
293.215
293.215
293.214
293.214
293.213
293.213
293.212
293.212
293.211
293.21
293.21
293.209
293.209
293.208
293.208
293.207
293.207
293.206
293.206
293.205
293.205
293.205
293.204
293.204
293.204
293.204
293.204
293.204
293.204
293.203
293.203
293.203
293.204
293.204
293.204
293.23
293.227
293.226
293.225
293.224
293.224
293.223
293.222
293.222
293.221
293.22
293.22
293.219
293.219
293.218
293.218
293.217
293.217
293.216
293.216
293.215
293.215
293.214
293.214
293.213
293.212
293.212
293.211
293.211
293.211
293.21
293.21
293.209
293.209
293.208
293.208
293.208
293.208
293.207
293.207
293.207
293.207
293.207
293.207
293.207
293.207
293.206
293.206
293.206
293.206
293.274
293.267
293.263
293.258
293.254
293.251
293.248
293.246
293.243
293.241
293.239
293.238
293.236
293.235
293.233
293.232
293.231
293.23
293.229
293.228
293.228
293.227
293.226
293.225
293.225
293.224
293.223
293.223
293.222
293.222
293.221
293.221
293.221
293.22
293.22
293.22
293.219
293.219
293.219
293.219
293.219
293.219
293.219
293.218
293.218
293.218
293.218
293.218
293.218
293.218
293.464
293.443
293.425
293.408
293.393
293.38
293.368
293.357
293.348
293.34
293.332
293.326
293.32
293.315
293.311
293.307
293.303
293.3
293.297
293.295
293.293
293.291
293.289
293.287
293.285
293.284
293.283
293.282
293.28
293.279
293.278
293.278
293.277
293.276
293.275
293.274
293.274
293.273
293.272
293.272
293.271
293.27
293.269
293.268
293.267
293.266
293.265
293.264
293.262
293.26
294.077
294.019
293.966
293.915
293.869
293.828
293.79
293.757
293.727
293.7
293.676
293.655
293.636
293.62
293.605
293.591
293.579
293.568
293.559
293.55
293.543
293.536
293.529
293.523
293.518
293.514
293.509
293.505
293.501
293.498
293.494
293.491
293.488
293.485
293.481
293.478
293.475
293.471
293.468
293.464
293.46
293.456
293.451
293.446
293.44
293.434
293.428
293.42
293.412
293.403
295.467
295.359
295.255
295.155
295.062
294.976
294.897
294.825
294.759
294.699
294.645
294.596
294.551
294.511
294.474
294.44
294.41
294.383
294.357
294.335
294.314
294.295
294.277
294.261
294.246
294.232
294.219
294.207
294.195
294.184
294.173
294.163
294.152
294.141
294.13
294.119
294.107
294.095
294.082
294.068
294.054
294.039
294.022
294.004
293.985
293.964
293.941
293.917
293.889
293.86
297.527
297.404
297.281
297.161
297.047
296.94
296.839
296.745
296.658
296.576
296.5
296.43
296.364
296.304
296.248
296.196
296.148
296.103
296.062
296.024
295.988
295.955
295.924
295.895
295.868
295.842
295.817
295.793
295.77
295.747
295.725
295.702
295.68
295.657
295.633
295.609
295.584
295.557
295.529
295.499
295.468
295.434
295.398
295.359
295.317
295.272
295.224
295.171
295.114
295.051
299.28
299.209
299.137
299.066
298.996
298.929
298.864
298.802
298.742
298.685
298.631
298.579
298.529
298.482
298.438
298.396
298.356
298.318
298.282
298.248
298.216
298.186
298.156
298.128
298.101
298.075
298.05
298.025
298
297.976
297.951
297.927
297.901
297.875
297.848
297.82
297.79
297.759
297.726
297.691
297.653
297.613
297.569
297.523
297.473
297.42
297.362
297.3
297.232
297.159
299.945
299.932
299.92
299.907
299.894
299.881
299.868
299.855
299.841
299.828
299.815
299.802
299.79
299.777
299.765
299.753
299.742
299.731
299.72
299.709
299.699
299.689
299.679
299.669
299.66
299.65
299.641
299.631
299.622
299.612
299.602
299.592
299.581
299.57
299.558
299.546
299.532
299.518
299.503
299.486
299.468
299.449
299.428
299.405
299.381
299.354
299.326
299.296
299.263
299.228
300.002
300.002
300.002
300.002
300.003
300.003
300.003
300.003
300.004
300.004
300.004
300.004
300.004
300.004
300.004
300.004
300.004
300.004
300.004
300.004
300.004
300.004
300.004
300.004
300.004
300.004
300.004
300.004
300.004
300.004
300.004
300.004
300.004
300.004
300.004
300.004
300.003
300.003
300.003
300.002
300.002
300.001
300
299.999
299.998
299.997
299.995
299.994
299.992
299.99
300.001
300.002
300.002
300.002
300.003
300.003
300.004
300.004
300.004
300.005
300.005
300.005
300.005
300.006
300.006
300.006
300.007
300.007
300.007
300.007
300.007
300.008
300.008
300.008
300.008
300.009
300.009
300.009
300.009
300.01
300.01
300.01
300.01
300.011
300.011
300.011
300.012
300.012
300.012
300.013
300.013
300.014
300.014
300.015
300.015
300.016
300.016
300.017
300.017
300.018
300.002
300.003
300.003
300.003
300.004
300.004
300.005
300.005
300.005
300.006
300.006
300.006
300.007
300.007
300.007
300.008
300.008
300.008
300.008
300.009
300.009
300.009
300.009
300.01
300.01
300.01
300.011
300.011
300.011
300.011
300.012
300.012
300.012
300.013
300.013
300.013
300.014
300.014
300.015
300.015
300.016
300.016
300.017
300.017
300.018
300.018
300.019
300.02
300.02
300.021
300.005
300.006
300.006
300.006
300.007
300.007
300.008
300.008
300.008
300.009
300.009
300.009
300.01
300.01
300.011
300.011
300.011
300.012
300.012
300.012
300.013
300.013
300.014
300.014
300.015
300.015
300.015
300.016
300.016
300.017
300.017
300.018
300.018
300.019
300.019
300.02
300.02
300.021
300.021
300.022
300.023
300.023
300.024
300.025
300.025
300.026
300.027
300.028
300.028
300.029
300.003
300.004
300.004
300.004
300.005
300.006
300.007
300.007
300.008
300.009
300.01
300.011
300.012
300.012
300.013
300.014
300.015
300.016
300.017
300.018
300.019
300.019
300.02
300.021
300.022
300.023
300.024
300.025
300.025
300.026
300.027
300.028
300.029
300.03
300.031
300.031
300.032
300.033
300.034
300.035
300.036
300.037
300.038
300.039
300.04
300.041
300.041
300.042
300.043
300.043
300.014
300.017
300.019
300.021
300.023
300.025
300.027
300.028
300.03
300.031
300.032
300.034
300.035
300.036
300.037
300.038
300.039
300.04
300.041
300.042
300.043
300.044
300.045
300.046
300.046
300.047
300.048
300.049
300.05
300.051
300.051
300.052
300.053
300.054
300.055
300.055
300.056
300.057
300.058
300.059
300.059
300.06
300.061
300.062
300.063
300.064
300.064
300.065
300.066
300.066
300.003
300.003
300.001
300
300
300
300.001
300.001
300.002
300.003
300.004
300.005
300.006
300.007
300.008
300.009
300.011
300.012
300.013
300.014
300.016
300.017
300.018
300.02
300.021
300.022
300.024
300.025
300.026
300.028
300.029
300.03
300.032
300.033
300.034
300.036
300.037
300.039
300.04
300.041
300.043
300.044
300.046
300.047
300.048
300.048
300.049
300.049
300.049
300.049
300.029
300.036
300.043
300.051
300.058
300.064
300.07
300.076
300.081
300.086
300.091
300.095
300.099
300.103
300.107
300.111
300.114
300.117
300.12
300.123
300.126
300.129
300.132
300.135
300.138
300.14
300.143
300.145
300.148
300.151
300.153
300.156
300.158
300.161
300.163
300.166
300.168
300.171
300.173
300.176
300.178
300.181
300.184
300.186
300.19
300.193
300.197
300.201
300.206
300.211
299.998
299.996
299.993
299.99
299.987
299.984
299.981
299.978
299.976
299.974
299.972
299.97
299.969
299.967
299.966
299.965
299.963
299.962
299.961
299.961
299.96
299.959
299.958
299.958
299.957
299.957
299.956
299.956
299.955
299.955
299.954
299.954
299.953
299.953
299.953
299.952
299.952
299.952
299.952
299.951
299.951
299.952
299.952
299.952
299.953
299.954
299.956
299.958
299.96
299.964
303.147
303.143
303.139
303.135
303.131
303.127
303.123
303.12
303.116
303.112
303.109
303.105
303.102
303.098
303.095
303.092
303.088
303.085
303.082
303.079
303.075
303.072
303.069
303.066
303.063
303.06
303.057
303.054
303.051
303.048
303.045
303.043
303.04
303.037
303.034
303.032
303.029
303.026
303.023
303.021
303.018
303.016
303.013
303.011
303.009
303.006
303.004
303.003
303.001
303
303.15
303.15
303.15
303.15
303.15
303.149
303.149
303.149
303.149
303.149
303.148
303.148
303.148
303.147
303.147
303.147
303.146
303.146
303.146
303.145
303.145
303.144
303.144
303.143
303.143
303.142
303.142
303.141
303.141
303.141
303.14
303.14
303.139
303.139
303.138
303.138
303.137
303.137
303.136
303.136
303.135
303.135
303.135
303.134
303.134
303.133
303.133
303.133
303.133
303.132
303.15
303.15
303.15
303.15
303.15
303.15
303.15
303.15
303.15
303.15
303.15
303.15
303.15
303.15
303.15
303.15
303.15
303.15
303.15
303.15
303.15
303.15
303.15
303.15
303.15
303.15
303.15
303.15
303.15
303.149
303.149
303.149
303.149
303.149
303.149
303.149
303.149
303.149
303.149
303.149
303.149
303.149
303.149
303.149
303.149
303.149
303.149
303.149
303.149
303.149
303.15
303.15
303.15
303.15
303.15
303.15
303.15
303.15
303.15
303.15
303.15
303.15
303.15
303.15
303.15
303.15
303.15
303.15
303.15
303.15
303.15
303.15
303.15
303.15
303.15
303.15
303.15
303.15
303.15
303.15
303.15
303.15
303.15
303.15
303.15
303.15
303.15
303.15
303.15
303.15
303.15
303.15
303.15
303.15
303.15
303.15
303.15
303.15
303.15
303.15
303.15
303.15
303.15
303.15
303.15
303.15
303.15
303.15
303.15
303.15
303.15
303.15
303.15
303.15
303.15
303.15
303.15
303.15
303.15
303.15
303.15
303.15
303.15
303.15
303.15
303.15
303.15
303.15
303.15
303.15
303.15
303.15
303.15
303.15
303.15
303.15
303.15
303.15
303.15
303.15
303.15
303.15
303.15
303.15
303.15
303.15
303.15
303.15
303.15
303.15
303.15
303.15
303.15
303.15
303.15
303.15
303.15
303.15
303.15
303.15
303.15
303.15
303.15
303.15
303.15
303.15
303.15
303.15
303.15
303.15
303.15
303.15
303.15
303.15
303.15
303.15
303.15
303.15
303.15
303.15
303.15
303.15
303.15
303.15
303.15
303.15
303.15
303.15
303.15
303.15
303.15
303.15
303.15
303.15
303.15
303.15
303.15
303.15
303.15
303.15
303.15
303.15
303.15
303.15
303.15
303.15
303.15
303.15
303.15
303.15
303.15
303.15
303.15
303.15
303.15
303.15
303.15
303.15
303.15
303.15
303.15
303.15
303.15
303.15
303.15
303.15
303.15
303.15
303.15
303.15
303.15
303.15
303.15
303.15
303.15
303.15
303.15
303.15
303.15
303.15
303.15
303.15
303.15
303.15
303.15
303.15
303.15
303.15
303.15
303.15
303.15
303.15
303.15
303.15
303.15
303.15
303.15
303.15
303.15
303.15
303.15
303.15
303.15
303.15
303.15
303.15
303.15
303.15
303.15
303.15
303.15
303.15
303.15
303.15
303.15
303.15
303.15
303.15
303.15
303.15
303.15
303.15
303.15
303.15
303.15
303.15
303.15
303.15
303.15
303.15
303.15
303.15
303.15
303.15
303.15
303.15
303.15
303.15
303.15
303.15
303.15
303.15
303.15
303.15
303.15
303.15
303.15
303.15
303.15
303.15
303.15
303.15
303.15
303.15
303.15
303.15
303.15
303.15
303.15
303.15
303.15
303.15
303.15
303.15
303.15
303.15
303.15
303.15
303.15
303.15
303.15
303.15
303.15
303.15
303.15
303.15
303.15
303.15
303.15
303.15
303.15
303.15
303.15
303.15
303.15
303.15
303.15
303.15
303.15
303.15
303.15
303.15
303.15
303.15
303.15
303.15
303.15
303.15
303.15
303.15
303.15
303.15
303.15
303.15
303.15
303.15
303.15
303.15
303.15
303.15
303.15
303.15
303.15
303.15
303.15
303.15
303.15
303.15
303.15
303.15
303.15
303.15
303.15
303.15
303.15
303.15
303.15
303.15
303.15
303.15
303.15
303.15
303.15
303.15
303.15
303.15
303.15
303.15
303.15
303.15
303.15
303.15
303.15
303.15
303.15
303.15
303.15
303.15
303.15
303.15
303.15
303.15
303.15
303.15
303.15
303.15
303.15
303.15
303.15
303.15
303.15
303.15
303.15
303.15
303.15
303.15
303.15
303.15
303.15
303.15
303.15
303.15
303.15
303.15
303.15
303.15
303.15
303.15
303.15
303.15
303.15
303.15
303.15
303.15
303.15
303.15
303.15
303.15
303.15
303.15
303.15
303.15
303.15
303.15
303.15
303.15
303.15
303.15
303.15
303.15
303.15
303.15
303.15
303.15
303.15
303.15
303.15
303.15
303.15
303.15
303.15
303.15
303.15
303.15
303.15
303.15
303.15
303.15
303.15
303.15
303.15
303.15
303.15
303.15
303.15
303.15
303.15
303.15
303.15
303.15
303.15
303.15
303.15
303.15
303.15
303.15
303.15
303.15
303.15
303.15
303.15
303.15
303.15
303.15
303.15
303.15
303.15
303.15
303.15
303.15
303.15
303.15
303.15
303.15
303.15
303.15
303.15
303.15
303.15
303.15
303.15
303.15
303.15
303.15
303.15
303.15
303.15
303.15
303.15
303.15
303.15
303.15
303.15
303.15
303.15
303.15
303.15
303.15
303.15
303.15
303.15
303.15
303.15
303.15
303.15
303.15
303.15
303.15
303.15
303.15
303.15
303.15
303.15
303.15
303.15
303.15
303.15
303.15
303.15
303.15
303.15
303.15
303.15
303.15
303.15
303.15
303.15
303.15
303.15
303.15
303.15
303.15
303.15
303.15
303.15
303.15
303.15
303.15
303.15
303.15
303.15
303.15
303.15
303.15
303.15
303.15
303.15
303.15
303.15
303.15
303.15
303.15
303.15
303.15
303.15
303.15
303.15
303.15
303.15
303.15
303.15
303.15
303.15
303.15
303.15
303.15
303.15
303.15
303.15
303.15
303.15
303.15
303.15
303.15
303.15
303.15
303.15
303.15
303.15
303.15
303.15
303.15
303.15
303.15
303.15
303.15
303.15
303.15
303.15
303.15
303.15
303.15
303.15
303.15
303.15
303.15
303.15
303.15
303.15
303.15
303.15
303.15
303.15
303.15
303.15
303.15
303.15
303.15
303.15
303.15
303.15
303.15
303.15
303.15
303.15
303.15
303.15
303.15
303.15
303.15
303.15
303.15
303.15
303.15
303.15
303.15
303.15
303.15
303.15
303.15
303.15
303.15
303.15
303.15
303.15
303.15
303.15
303.15
303.15
303.15
303.15
303.15
303.15
303.15
303.15
303.15
303.15
303.15
303.15
303.15
303.15
303.15
303.15
303.15
303.15
303.15
303.15
303.15
303.15
303.15
303.15
303.15
303.15
303.15
303.15
303.15
303.15
303.15
303.15
303.15
303.15
303.15
303.15
303.15
303.15
303.15
303.15
303.15
303.15
303.15
303.15
303.15
303.15
303.15
303.15
303.15
303.15
303.15
303.15
303.15
303.15
303.15
303.15
303.15
303.15
303.15
303.15
303.15
303.15
303.15
303.15
303.15
303.15
303.15
303.15
303.15
303.15
303.15
303.15
303.15
303.15
303.15
303.15
303.15
303.15
303.15
303.15
303.15
303.15
303.15
303.15
303.15
303.15
303.15
303.15
303.15
303.15
303.15
303.15
303.15
303.15
303.15
303.15
303.15
303.15
303.15
303.15
303.149
303.149
303.149
303.149
303.149
303.149
303.149
303.149
303.149
303.149
303.149
303.149
303.149
303.149
303.149
303.148
303.148
303.148
303.148
303.148
303.147
303.147
303.147
303.15
303.15
303.15
303.15
303.15
303.149
303.149
303.149
303.149
303.149
303.148
303.148
303.148
303.147
303.147
303.147
303.146
303.146
303.146
303.145
303.145
303.144
303.144
303.143
303.143
303.142
303.142
303.141
303.141
303.14
303.14
303.139
303.139
303.138
303.138
303.137
303.136
303.136
303.135
303.134
303.134
303.133
303.132
303.131
303.13
303.129
303.128
303.127
303.126
303.124
303.147
303.143
303.139
303.135
303.131
303.127
303.123
303.12
303.116
303.112
303.109
303.105
303.102
303.098
303.095
303.092
303.088
303.085
303.082
303.079
303.075
303.072
303.069
303.066
303.063
303.06
303.057
303.054
303.051
303.048
303.045
303.043
303.04
303.037
303.034
303.031
303.029
303.026
303.023
303.021
303.018
303.015
303.013
303.01
303.007
303.005
303.002
303
302.997
302.995
295.718
295.973
296.079
296.094
296.092
296.085
296.081
296.077
296.077
296.076
296.078
296.079
296.08
296.082
296.087
296.091
296.092
296.067
295.944
295.625
295.888
296.143
296.249
296.265
296.262
296.255
296.251
296.247
296.247
296.246
296.248
296.249
296.25
296.253
296.257
296.261
296.262
296.237
296.114
295.796
296.063
296.318
296.424
296.44
296.437
296.43
296.426
296.422
296.421
296.421
296.423
296.423
296.425
296.427
296.432
296.436
296.437
296.412
296.288
295.971
296.243
296.496
296.604
296.619
296.617
296.609
296.605
296.601
296.6
296.6
296.602
296.602
296.604
296.606
296.611
296.615
296.616
296.591
296.467
296.15
296.426
296.679
296.787
296.803
296.8
296.792
296.788
296.784
296.783
296.783
296.784
296.785
296.787
296.789
296.793
296.798
296.799
296.774
296.649
296.333
296.613
296.866
296.974
296.99
296.987
296.979
296.975
296.97
296.97
296.969
296.971
296.971
296.973
296.976
296.98
296.984
296.986
296.96
296.836
296.52
296.803
297.056
297.164
297.18
297.177
297.169
297.164
297.16
297.159
297.159
297.16
297.161
297.163
297.165
297.17
297.174
297.175
297.15
297.025
296.71
296.996
297.248
297.357
297.373
297.37
297.361
297.357
297.352
297.352
297.351
297.353
297.353
297.355
297.358
297.362
297.367
297.368
297.342
297.218
296.903
297.192
297.443
297.552
297.568
297.565
297.556
297.552
297.547
297.546
297.546
297.548
297.548
297.55
297.552
297.557
297.562
297.563
297.537
297.413
297.099
297.389
297.64
297.75
297.765
297.762
297.753
297.749
297.744
297.743
297.743
297.744
297.745
297.746
297.749
297.754
297.759
297.76
297.734
297.61
297.297
297.588
297.839
297.948
297.964
297.96
297.952
297.947
297.942
297.942
297.941
297.943
297.943
297.945
297.947
297.952
297.957
297.958
297.933
297.808
297.496
297.788
298.039
298.148
298.163
298.16
298.151
298.147
298.142
298.141
298.14
298.142
298.143
298.144
298.147
298.151
298.156
298.158
298.132
298.008
297.696
297.989
298.239
298.348
298.363
298.36
298.351
298.346
298.341
298.341
298.34
298.342
298.342
298.344
298.346
298.351
298.356
298.357
298.332
298.208
297.897
298.189
298.439
298.548
298.563
298.56
298.551
298.546
298.541
298.541
298.54
298.542
298.542
298.543
298.546
298.551
298.556
298.557
298.532
298.408
298.097
298.389
298.639
298.748
298.762
298.759
298.75
298.746
298.741
298.74
298.739
298.741
298.741
298.743
298.745
298.75
298.755
298.756
298.731
298.608
298.298
298.588
298.838
298.946
298.961
298.957
298.949
298.944
298.939
298.938
298.938
298.939
298.94
298.941
298.944
298.948
298.953
298.955
298.93
298.806
298.497
298.785
299.036
299.143
299.158
299.154
299.146
299.141
299.136
299.135
299.134
299.136
299.136
299.138
299.14
299.145
299.15
299.151
299.126
299.004
298.695
298.981
299.231
299.338
299.352
299.349
299.34
299.336
299.331
299.33
299.329
299.331
299.331
299.332
299.335
299.34
299.345
299.346
299.321
299.199
298.891
299.174
299.424
299.53
299.545
299.541
299.533
299.528
299.523
299.522
299.522
299.523
299.524
299.525
299.527
299.532
299.537
299.538
299.513
299.392
299.085
299.364
299.614
299.72
299.734
299.731
299.722
299.718
299.713
299.712
299.711
299.713
299.713
299.714
299.717
299.721
299.726
299.727
299.703
299.582
299.275
299.55
299.801
299.906
299.92
299.917
299.908
299.904
299.899
299.898
299.897
299.899
299.899
299.9
299.903
299.907
299.912
299.913
299.889
299.768
299.462
299.733
299.984
300.088
300.102
300.099
300.09
300.086
300.081
300.08
300.08
300.081
300.081
300.082
300.085
300.089
300.094
300.095
300.071
299.951
299.646
299.911
300.162
300.266
300.279
300.276
300.268
300.264
300.259
300.259
300.258
300.259
300.259
300.261
300.263
300.267
300.272
300.273
300.249
300.13
299.825
300.085
300.336
300.439
300.453
300.45
300.442
300.438
300.433
300.432
300.431
300.432
300.433
300.434
300.437
300.441
300.445
300.446
300.422
300.304
300
300.254
300.506
300.607
300.621
300.618
300.61
300.606
300.602
300.601
300.6
300.601
300.601
300.603
300.605
300.609
300.613
300.614
300.59
300.473
300.169
300.418
300.67
300.771
300.784
300.781
300.773
300.769
300.765
300.764
300.763
300.764
300.765
300.766
300.768
300.772
300.776
300.777
300.753
300.636
300.334
300.576
300.828
300.928
300.941
300.938
300.931
300.927
300.923
300.922
300.921
300.922
300.923
300.924
300.926
300.93
300.934
300.934
300.911
300.795
300.493
300.728
300.981
301.08
301.093
301.09
301.083
301.079
301.075
301.074
301.073
301.074
301.075
301.076
301.078
301.082
301.086
301.086
301.063
300.947
300.646
300.875
301.128
301.225
301.238
301.236
301.229
301.225
301.221
301.221
301.22
301.221
301.221
301.222
301.224
301.228
301.231
301.232
301.208
301.094
300.793
301.015
301.268
301.365
301.378
301.375
301.369
301.365
301.362
301.361
301.36
301.361
301.361
301.362
301.364
301.368
301.371
301.371
301.348
301.235
300.934
301.149
301.403
301.498
301.511
301.509
301.502
301.499
301.496
301.495
301.494
301.495
301.495
301.496
301.498
301.501
301.505
301.504
301.482
301.369
301.069
301.277
301.531
301.625
301.638
301.636
301.63
301.627
301.623
301.622
301.621
301.622
301.622
301.623
301.625
301.628
301.632
301.631
301.609
301.497
301.198
301.398
301.652
301.746
301.758
301.756
301.751
301.748
301.744
301.743
301.743
301.743
301.744
301.745
301.746
301.749
301.752
301.752
301.729
301.618
301.32
301.513
301.768
301.86
301.872
301.87
301.865
301.862
301.859
301.858
301.858
301.858
301.858
301.859
301.861
301.864
301.867
301.866
301.844
301.733
301.436
301.621
301.876
301.968
301.98
301.978
301.973
301.971
301.968
301.967
301.966
301.967
301.967
301.968
301.969
301.972
301.975
301.974
301.952
301.842
301.545
301.724
301.979
302.069
302.081
302.08
302.075
302.072
302.07
302.069
302.068
302.069
302.069
302.07
302.071
302.074
302.076
302.075
302.053
301.945
301.648
301.82
302.075
302.164
302.176
302.175
302.171
302.168
302.165
302.165
302.164
302.165
302.165
302.165
302.167
302.169
302.172
302.171
302.149
302.041
301.745
301.909
302.165
302.253
302.265
302.264
302.26
302.258
302.255
302.254
302.254
302.254
302.254
302.255
302.257
302.259
302.261
302.26
302.238
302.131
301.835
301.993
302.249
302.337
302.348
302.347
302.343
302.341
302.339
302.338
302.338
302.338
302.338
302.339
302.34
302.342
302.344
302.343
302.321
302.215
301.92
302.071
302.328
302.414
302.425
302.425
302.421
302.419
302.417
302.416
302.416
302.416
302.416
302.417
302.418
302.42
302.422
302.42
302.399
302.293
301.999
302.144
302.4
302.485
302.497
302.496
302.493
302.491
302.489
302.488
302.488
302.488
302.488
302.489
302.49
302.492
302.493
302.492
302.47
302.366
302.072
302.211
302.467
302.552
302.563
302.562
302.559
302.558
302.556
302.555
302.555
302.555
302.555
302.556
302.557
302.558
302.56
302.558
302.537
302.433
302.14
302.273
302.529
302.612
302.624
302.623
302.621
302.619
302.617
302.617
302.616
302.617
302.617
302.617
302.618
302.62
302.621
302.619
302.598
302.495
302.202
302.33
302.586
302.668
302.68
302.679
302.677
302.675
302.674
302.673
302.673
302.673
302.673
302.674
302.675
302.676
302.677
302.675
302.654
302.552
302.26
302.382
302.638
302.72
302.731
302.731
302.728
302.727
302.726
302.725
302.725
302.725
302.725
302.725
302.726
302.727
302.729
302.726
302.705
302.604
302.313
302.43
302.686
302.766
302.778
302.778
302.775
302.774
302.773
302.772
302.772
302.772
302.772
302.773
302.773
302.774
302.775
302.773
302.752
302.652
302.361
302.473
302.729
302.809
302.82
302.82
302.818
302.817
302.816
302.815
302.815
302.815
302.815
302.816
302.816
302.817
302.818
302.816
302.795
302.695
302.405
302.513
302.769
302.847
302.858
302.859
302.857
302.856
302.855
302.854
302.854
302.854
302.854
302.855
302.855
302.856
302.857
302.854
302.834
302.735
302.446
302.549
302.804
302.882
302.893
302.893
302.892
302.891
302.89
302.89
302.889
302.889
302.889
302.89
302.89
302.891
302.892
302.889
302.869
302.77
302.482
302.582
302.836
302.914
302.924
302.925
302.923
302.923
302.922
302.921
302.921
302.921
302.921
302.921
302.922
302.923
302.923
302.921
302.9
302.803
302.515
302.611
302.865
302.942
302.953
302.953
302.952
302.951
302.95
302.95
302.95
302.95
302.95
302.95
302.95
302.951
302.951
302.949
302.929
302.832
302.545
302.637
302.891
302.967
302.978
302.978
302.977
302.976
302.976
302.975
302.975
302.975
302.975
302.975
302.976
302.976
302.977
302.974
302.954
302.858
302.572
302.661
302.914
302.989
303
303.001
303
302.999
302.998
302.998
302.998
302.998
302.998
302.998
302.999
302.999
302.999
302.996
302.977
302.881
302.596
302.682
302.935
303.009
303.02
303.021
303.02
303.019
303.018
303.018
303.018
303.018
303.018
303.018
303.019
303.019
303.019
303.016
302.997
302.902
302.617
302.701
302.953
303.027
303.037
303.038
303.037
303.037
303.036
303.036
303.036
303.036
303.036
303.036
303.037
303.037
303.037
303.034
303.015
302.92
302.637
302.718
302.97
303.043
303.053
303.054
303.053
303.053
303.052
303.052
303.052
303.052
303.052
303.052
303.052
303.053
303.053
303.05
303.03
302.937
302.654
302.733
302.984
303.056
303.067
303.067
303.067
303.066
303.066
303.066
303.066
303.066
303.066
303.066
303.066
303.066
303.066
303.063
303.044
302.951
302.669
302.746
302.997
303.068
303.079
303.079
303.079
303.079
303.078
303.078
303.078
303.078
303.078
303.078
303.078
303.078
303.078
303.075
303.056
302.964
302.683
302.758
303.008
303.079
303.089
303.09
303.089
303.089
303.089
303.089
303.089
303.089
303.089
303.089
303.089
303.089
303.089
303.086
303.067
302.975
302.695
302.768
303.018
303.088
303.098
303.099
303.098
303.098
303.098
303.098
303.098
303.098
303.098
303.098
303.098
303.098
303.098
303.095
303.076
302.985
302.706
302.778
303.026
303.096
303.106
303.107
303.106
303.106
303.106
303.106
303.106
303.106
303.106
303.106
303.106
303.106
303.106
303.103
303.084
302.994
302.716
302.786
303.034
303.103
303.113
303.113
303.113
303.113
303.113
303.113
303.113
303.113
303.113
303.113
303.113
303.113
303.113
303.11
303.091
303.001
302.724
302.793
303.04
303.109
303.118
303.119
303.119
303.119
303.119
303.119
303.119
303.119
303.119
303.119
303.119
303.119
303.119
303.116
303.097
303.008
302.732
302.8
303.046
303.114
303.123
303.124
303.124
303.124
303.124
303.124
303.124
303.124
303.124
303.124
303.124
303.124
303.124
303.121
303.102
303.014
302.739
302.805
303.051
303.118
303.128
303.129
303.128
303.128
303.128
303.128
303.128
303.128
303.128
303.128
303.128
303.128
303.128
303.125
303.107
303.019
302.745
302.811
303.055
303.122
303.131
303.132
303.132
303.132
303.132
303.132
303.132
303.132
303.132
303.132
303.132
303.132
303.132
303.129
303.111
303.023
302.75
302.815
303.059
303.125
303.134
303.135
303.135
303.135
303.135
303.135
303.135
303.135
303.135
303.135
303.135
303.135
303.135
303.132
303.114
303.027
302.755
302.819
303.062
303.128
303.137
303.138
303.138
303.138
303.138
303.138
303.138
303.138
303.138
303.138
303.138
303.138
303.137
303.134
303.117
303.031
302.76
302.823
303.065
303.13
303.139
303.14
303.14
303.14
303.14
303.14
303.14
303.14
303.14
303.14
303.14
303.14
303.139
303.136
303.119
303.034
302.764
302.826
303.068
303.132
303.141
303.142
303.142
303.142
303.142
303.142
303.142
303.142
303.142
303.142
303.142
303.142
303.141
303.138
303.121
303.036
302.768
302.829
303.07
303.134
303.142
303.143
303.143
303.143
303.143
303.143
303.143
303.143
303.143
303.143
303.143
303.143
303.143
303.14
303.123
303.039
302.771
302.832
303.072
303.135
303.144
303.145
303.145
303.145
303.144
303.144
303.144
303.144
303.144
303.144
303.144
303.144
303.144
303.141
303.124
303.041
302.774
302.835
303.074
303.136
303.145
303.146
303.146
303.146
303.146
303.146
303.146
303.146
303.146
303.146
303.146
303.145
303.145
303.142
303.125
303.043
302.777
302.837
303.075
303.137
303.146
303.146
303.146
303.146
303.146
303.146
303.146
303.146
303.146
303.146
303.146
303.146
303.146
303.143
303.126
303.044
302.78
302.84
303.077
303.138
303.146
303.147
303.147
303.147
303.147
303.147
303.147
303.147
303.147
303.147
303.147
303.147
303.147
303.144
303.127
303.046
302.783
302.842
303.078
303.139
303.147
303.148
303.148
303.148
303.148
303.148
303.148
303.148
303.148
303.148
303.148
303.148
303.147
303.144
303.128
303.047
302.785
302.844
303.079
303.139
303.147
303.148
303.148
303.148
303.148
303.148
303.148
303.148
303.148
303.148
303.148
303.148
303.148
303.145
303.129
303.049
302.788
302.846
303.08
303.14
303.148
303.149
303.149
303.149
303.149
303.149
303.149
303.149
303.149
303.149
303.149
303.148
303.148
303.145
303.129
303.05
302.79
302.848
303.081
303.14
303.148
303.149
303.149
303.149
303.149
303.149
303.149
303.149
303.149
303.149
303.149
303.149
303.148
303.146
303.13
303.051
302.792
302.85
303.082
303.141
303.148
303.149
303.149
303.149
303.149
303.149
303.149
303.149
303.149
303.149
303.149
303.149
303.149
303.146
303.13
303.052
302.795
302.852
303.083
303.141
303.148
303.149
303.149
303.149
303.149
303.149
303.149
303.149
303.149
303.149
303.149
303.149
303.149
303.146
303.131
303.053
302.797
302.854
303.084
303.141
303.149
303.149
303.149
303.149
303.149
303.149
303.149
303.149
303.149
303.149
303.149
303.149
303.149
303.146
303.131
303.054
302.799
302.856
303.085
303.141
303.149
303.15
303.15
303.15
303.15
303.15
303.15
303.15
303.15
303.15
303.15
303.15
303.149
303.146
303.131
303.055
302.801
302.857
303.085
303.142
303.149
303.15
303.15
303.15
303.15
303.15
303.15
303.15
303.15
303.15
303.15
303.15
303.149
303.147
303.132
303.056
302.803
302.859
303.086
303.142
303.149
303.15
303.15
303.15
303.15
303.15
303.15
303.15
303.15
303.15
303.15
303.15
303.149
303.147
303.132
303.057
302.806
302.861
303.087
303.142
303.149
303.15
303.15
303.15
303.15
303.15
303.15
303.15
303.15
303.15
303.15
303.15
303.149
303.147
303.132
303.058
302.808
302.863
303.088
303.142
303.149
303.15
303.15
303.15
303.15
303.15
303.15
303.15
303.15
303.15
303.15
303.15
303.149
303.147
303.132
303.059
302.81
302.864
303.088
303.142
303.149
303.15
303.15
303.15
303.15
303.15
303.15
303.15
303.15
303.15
303.15
303.15
303.149
303.147
303.133
303.06
302.812
302.866
303.089
303.143
303.149
303.15
303.15
303.15
303.15
303.15
303.15
303.15
303.15
303.15
303.15
303.15
303.149
303.147
303.133
303.06
302.814
302.868
303.09
303.143
303.149
303.15
303.15
303.15
303.15
303.15
303.15
303.15
303.15
303.15
303.15
303.15
303.15
303.147
303.133
303.061
302.816
302.87
303.091
303.143
303.149
303.15
303.15
303.15
303.15
303.15