/*--------------------------------*- C++ -*----------------------------------*\
  =========                 |
  \\      /  F ield         | OpenFOAM: The Open Source CFD Toolbox
   \\    /   O peration     | Website:  https://openfoam.org
    \\  /    A nd           | Version:  8
     \\/     M anipulation  |
\*---------------------------------------------------------------------------*/
FoamFile
{
    version     2.0;
    format      ascii;
    class       volVectorField;
    location    "200";
    object      U;
}
// * * * * * * * * * * * * * * * * * * * * * * * * * * * * * * * * * * * * * //

dimensions      [0 1 -1 0 0 0 0];

internalField   nonuniform List<vector> 
8400
(
(-47.0834 -0.503477 1.36738e-16)
(-46.7468 -0.513553 1.32253e-16)
(-46.4948 -0.524333 1.27747e-16)
(-46.2437 -0.534707 1.20149e-16)
(-46.0013 -0.544457 1.14984e-16)
(-45.7689 -0.553663 1.13098e-16)
(-45.5475 -0.562496 1.08928e-16)
(-45.3378 -0.571132 1.04796e-16)
(-45.1401 -0.579729 1.00768e-16)
(-44.9544 -0.58842 9.3954e-17)
(-44.7804 -0.597308 9.00512e-17)
(-44.6176 -0.606469 8.95468e-17)
(-44.4656 -0.615958 8.66347e-17)
(-44.3236 -0.625808 8.38586e-17)
(-44.1909 -0.636046 8.12546e-17)
(-44.067 -0.646704 7.58356e-17)
(-43.951 -0.657806 7.30052e-17)
(-43.8423 -0.669374 7.34601e-17)
(-43.7403 -0.68143 7.16426e-17)
(-43.6443 -0.693996 6.99265e-17)
(-43.5537 -0.707095 6.84503e-17)
(-43.4679 -0.720753 6.71611e-17)
(-43.3863 -0.735 6.58868e-17)
(-43.3084 -0.749875 6.44009e-17)
(-43.2336 -0.765417 6.28458e-17)
(-43.1614 -0.781674 6.11834e-17)
(-43.0913 -0.7987 6.24448e-17)
(-43.0229 -0.816558 6.11958e-17)
(-42.9556 -0.835321 5.68365e-17)
(-42.889 -0.855069 5.49472e-17)
(-42.8226 -0.875892 5.32158e-17)
(-42.756 -0.897894 5.15497e-17)
(-42.6887 -0.92119 5.27771e-17)
(-42.6202 -0.945916 5.17316e-17)
(-42.55 -0.972228 4.75586e-17)
(-42.4776 -1.00031 4.53886e-17)
(-42.4023 -1.03039 4.31329e-17)
(-42.3235 -1.06273 4.07676e-17)
(-42.2406 -1.09767 3.82566e-17)
(-42.1526 -1.13561 3.57436e-17)
(-42.0585 -1.17706 3.28332e-17)
(-41.957 -1.22268 3.20218e-17)
(-41.8465 -1.27335 2.8521e-17)
(-41.7247 -1.33023 2.16302e-17)
(-41.5887 -1.39501 1.65129e-17)
(-41.4352 -1.47006 1.10344e-17)
(-41.2602 -1.55869 7.37489e-18)
(-41.0543 -1.66554 1.40256e-19)
(-40.7906 -1.79939 -1.41455e-17)
(-40.4368 -1.97979 -2.69814e-17)
(-47.6025 -0.0410167 1.02524e-15)
(-47.2929 -0.0257454 1.03877e-15)
(-47.0564 -0.0052523 1.0526e-15)
(-46.8197 0.0193924 1.06556e-15)
(-46.5917 0.0471851 1.07879e-15)
(-46.3737 0.0772552 1.09286e-15)
(-46.1666 0.108793 1.10601e-15)
(-45.9712 0.141095 1.11866e-15)
(-45.7874 0.173584 1.13058e-15)
(-45.6153 0.205816 1.141e-15)
(-45.4545 0.23746 1.15185e-15)
(-45.3043 0.268302 1.16344e-15)
(-45.1643 0.298208 1.17403e-15)
(-45.0338 0.327114 1.18435e-15)
(-44.912 0.354993 1.19447e-15)
(-44.7984 0.381848 1.20353e-15)
(-44.6923 0.4077 1.21327e-15)
(-44.593 0.432596 1.22392e-15)
(-44.4999 0.456591 1.23384e-15)
(-44.4124 0.479753 1.24372e-15)
(-44.3299 0.502151 1.25361e-15)
(-44.252 0.523856 1.26357e-15)
(-44.1779 0.544942 1.27472e-15)
(-44.1074 0.565478 1.2859e-15)
(-44.0397 0.585539 1.30138e-15)
(-43.9746 0.605195 1.31531e-15)
(-43.9115 0.624516 1.33065e-15)
(-43.8501 0.643567 1.34603e-15)
(-43.7899 0.662418 1.35961e-15)
(-43.7305 0.681138 1.37433e-15)
(-43.6716 0.699803 1.38968e-15)
(-43.6128 0.718485 1.40326e-15)
(-43.5536 0.73726 1.41489e-15)
(-43.4937 0.756201 1.42511e-15)
(-43.4327 0.775382 1.43438e-15)
(-43.3702 0.794864 1.44342e-15)
(-43.3058 0.814698 1.45249e-15)
(-43.2389 0.834915 1.46166e-15)
(-43.1691 0.855519 1.47109e-15)
(-43.0959 0.876474 1.48035e-15)
(-43.0185 0.897685 1.48966e-15)
(-42.9361 0.918961 1.50061e-15)
(-42.8479 0.939964 1.5111e-15)
(-42.7524 0.960102 1.52073e-15)
(-42.6482 0.978313 1.53258e-15)
(-42.5338 0.992854 1.54483e-15)
(-42.4079 1.0013 1.5566e-15)
(-42.267 1.00016 1.56986e-15)
(-42.0997 0.980789 1.58337e-15)
(-41.8923 0.919453 1.59784e-15)
(-46.4488 -0.938986 5.77959e-16)
(-46.1058 -0.944906 5.84128e-16)
(-45.854 -0.945252 5.9035e-16)
(-45.6046 -0.940219 5.95683e-16)
(-45.3652 -0.930821 6.016e-16)
(-45.1367 -0.918276 6.08657e-16)
(-44.9198 -0.903781 6.15135e-16)
(-44.7151 -0.888373 6.21392e-16)
(-44.5225 -0.872885 6.27306e-16)
(-44.3417 -0.857937 6.31865e-16)
(-44.1723 -0.843977 6.36958e-16)
(-44.0136 -0.831295 6.42873e-16)
(-43.865 -0.820073 6.47744e-16)
(-43.7257 -0.810413 6.52246e-16)
(-43.5952 -0.802363 6.56393e-16)
(-43.4726 -0.795934 6.59226e-16)
(-43.3572 -0.79111 6.62332e-16)
(-43.2485 -0.787858 6.66245e-16)
(-43.1459 -0.786133 6.69396e-16)
(-43.0486 -0.78589 6.72222e-16)
(-42.9561 -0.787085 6.74783e-16)
(-42.868 -0.789682 6.77239e-16)
(-42.7835 -0.793647 6.79814e-16)
(-42.7023 -0.798953 6.82784e-16)
(-42.6238 -0.805579 6.86436e-16)
(-42.5475 -0.813517 6.90724e-16)
(-42.4731 -0.822767 6.96484e-16)
(-42.4 -0.833335 7.016e-16)
(-42.3279 -0.845235 7.05539e-16)
(-42.2563 -0.858485 7.10845e-16)
(-42.1848 -0.87311 7.17057e-16)
(-42.113 -0.88915 7.23787e-16)
(-42.0405 -0.906656 7.31686e-16)
(-41.9669 -0.925691 7.38556e-16)
(-41.8916 -0.946338 7.44044e-16)
(-41.8143 -0.968705 7.50299e-16)
(-41.7345 -0.992933 7.56685e-16)
(-41.6516 -1.0192 7.63256e-16)
(-41.5651 -1.04774 7.70015e-16)
(-41.4744 -1.07885 7.77195e-16)
(-41.3786 -1.11291 7.84546e-16)
(-41.2769 -1.15044 7.92023e-16)
(-41.1683 -1.1921 8.00106e-16)
(-41.0514 -1.23879 8.08579e-16)
(-40.9248 -1.29177 8.17563e-16)
(-40.7871 -1.35278 8.27689e-16)
(-40.6369 -1.42386 8.39993e-16)
(-40.4719 -1.50741 8.52181e-16)
(-40.2874 -1.60846 8.63125e-16)
(-40.081 -1.7397 8.76886e-16)
(-45.2526 -0.641047 1.99773e-16)
(-44.9357 -0.621801 2.01936e-16)
(-44.6922 -0.591527 2.04027e-16)
(-44.4493 -0.552011 2.04884e-16)
(-44.2167 -0.505425 2.0653e-16)
(-43.9958 -0.454024 2.09338e-16)
(-43.7875 -0.399847 2.11261e-16)
(-43.5918 -0.344579 2.12996e-16)
(-43.4084 -0.289514 2.1452e-16)
(-43.2369 -0.235591 2.14677e-16)
(-43.0765 -0.183456 2.15549e-16)
(-42.9266 -0.133525 2.17568e-16)
(-42.7862 -0.086043 2.18631e-16)
(-42.6548 -0.0411412 2.19457e-16)
(-42.5314 0.00113332 2.20081e-16)
(-42.4156 0.0407906 2.20551e-16)
(-42.3065 0.0778889 2.20811e-16)
(-42.2036 0.11251 2.21035e-16)
(-42.1063 0.144753 2.21273e-16)
(-42.0139 0.174721 2.21296e-16)
(-41.9261 0.202517 2.21173e-16)
(-41.8422 0.228247 2.20959e-16)
(-41.7618 0.252007 2.20752e-16)
(-41.6844 0.273893 2.20597e-16)
(-41.6095 0.293988 2.20526e-16)
(-41.5369 0.312363 2.20602e-16)
(-41.466 0.329083 2.22082e-16)
(-41.3965 0.344205 2.22657e-16)
(-41.328 0.357782 2.21815e-16)
(-41.2603 0.369856 2.21959e-16)
(-41.1929 0.380457 2.22416e-16)
(-41.1255 0.389599 2.2315e-16)
(-41.0579 0.397282 2.25267e-16)
(-40.9896 0.403483 2.26793e-16)
(-40.9204 0.408147 2.27046e-16)
(-40.8499 0.41118 2.27945e-16)
(-40.7778 0.412436 2.28921e-16)
(-40.7038 0.411702 2.29928e-16)
(-40.6276 0.408678 2.31001e-16)
(-40.5487 0.402954 2.32057e-16)
(-40.4666 0.393972 2.33087e-16)
(-40.381 0.380987 2.35481e-16)
(-40.2911 0.363005 2.36797e-16)
(-40.1964 0.3387 2.36601e-16)
(-40.0959 0.306304 2.38682e-16)
(-39.989 0.26357 2.40087e-16)
(-39.875 0.207857 2.41782e-16)
(-39.7529 0.136037 2.43342e-16)
(-39.621 0.0436196 2.43392e-16)
(-39.4784 -0.0761393 2.45846e-16)
(-43.3435 -1.36053 1.11231e-16)
(-42.9988 -1.36178 1.14698e-16)
(-42.7478 -1.34827 1.18235e-16)
(-42.5014 -1.32304 1.20693e-16)
(-42.2681 -1.28934 1.23728e-16)
(-42.048 -1.25028 1.27896e-16)
(-41.8416 -1.20847 1.31404e-16)
(-41.6482 -1.16593 1.34746e-16)
(-41.4673 -1.12411 1.37914e-16)
(-41.2979 -1.08396 1.39705e-16)
(-41.1392 -1.0461 1.42354e-16)
(-40.9902 -1.01089 1.46279e-16)
(-40.8502 -0.978502 1.49209e-16)
(-40.7183 -0.948997 1.51919e-16)
(-40.5937 -0.922358 1.54394e-16)
(-40.4759 -0.898517 1.56593e-16)
(-40.3641 -0.877371 1.58864e-16)
(-40.2578 -0.858807 1.61311e-16)
(-40.1564 -0.842694 1.63645e-16)
(-40.0594 -0.828913 1.65814e-16)
(-39.9662 -0.817343 1.67874e-16)
(-39.8765 -0.807872 1.69868e-16)
(-39.7897 -0.800397 1.7189e-16)
(-39.7055 -0.794822 1.73967e-16)
(-39.6234 -0.791066 1.76116e-16)
(-39.5431 -0.789062 1.78398e-16)
(-39.4643 -0.788754 1.8085e-16)
(-39.3864 -0.790087 1.83008e-16)
(-39.3093 -0.793014 1.84857e-16)
(-39.2327 -0.797501 1.8689e-16)
(-39.1561 -0.803522 1.89111e-16)
(-39.0793 -0.811062 1.91563e-16)
(-39.002 -0.820118 1.94898e-16)
(-38.9239 -0.830702 1.97612e-16)
(-38.8448 -0.842848 1.99454e-16)
(-38.7642 -0.856621 2.01892e-16)
(-38.6821 -0.872127 2.04464e-16)
(-38.5981 -0.889529 2.07142e-16)
(-38.512 -0.909055 2.0986e-16)
(-38.4235 -0.931032 2.1275e-16)
(-38.3323 -0.955921 2.15517e-16)
(-38.2382 -0.984366 2.18743e-16)
(-38.1408 -1.01726 2.21496e-16)
(-38.04 -1.05585 2.23371e-16)
(-37.9355 -1.1018 2.25712e-16)
(-37.8271 -1.15737 2.28436e-16)
(-37.7151 -1.22538 2.32647e-16)
(-37.5995 -1.30952 2.35839e-16)
(-37.4802 -1.415 2.37043e-16)
(-37.357 -1.54889 2.39471e-16)
(-40.7248 -1.24829 1.98103e-17)
(-40.4074 -1.22715 2.20431e-17)
(-40.1673 -1.1843 2.43465e-17)
(-39.9319 -1.12532 2.55352e-17)
(-39.7111 -1.05546 2.77254e-17)
(-39.5053 -0.979456 3.13143e-17)
(-39.314 -0.900978 3.40461e-17)
(-39.1361 -0.822651 3.66748e-17)
(-38.9703 -0.746234 3.92103e-17)
(-38.8155 -0.672844 4.05046e-17)
(-38.6703 -0.60314 4.25963e-17)
(-38.5339 -0.537483 4.59468e-17)
(-38.4054 -0.476044 4.84379e-17)
(-38.2838 -0.418858 5.07649e-17)
(-38.1686 -0.36588 5.29438e-17)
(-38.0592 -0.317004 5.43849e-17)
(-37.9548 -0.272102 5.62853e-17)
(-37.855 -0.231023 5.89241e-17)
(-37.7594 -0.193611 6.10989e-17)
(-37.6675 -0.159708 6.31226e-17)
(-37.5788 -0.129161 6.50525e-17)
(-37.493 -0.101821 6.69292e-17)
(-37.4098 -0.0775454 6.88037e-17)
(-37.3287 -0.0562094 7.06904e-17)
(-37.2495 -0.0377008 7.26039e-17)
(-37.1719 -0.0219207 7.45975e-17)
(-37.0955 -0.00878082 7.73275e-17)
(-37.0202 0.00179781 7.96075e-17)
(-36.9456 0.00988086 8.10997e-17)
(-36.8715 0.0155182 8.30067e-17)
(-36.7978 0.0187464 8.507e-17)
(-36.7241 0.0195882 8.73108e-17)
(-36.6502 0.0180491 9.03769e-17)
(-36.576 0.0141122 9.30148e-17)
(-36.5013 0.00773075 9.49068e-17)
(-36.4258 -0.00117926 9.73052e-17)
(-36.3495 -0.0127463 9.99395e-17)
(-36.2723 -0.0271521 1.02794e-16)
(-36.194 -0.0446447 1.07301e-16)
(-36.1145 -0.0655616 1.10673e-16)
(-36.0338 -0.0903549 1.12859e-16)
(-35.9518 -0.119628 1.17369e-16)
(-35.8685 -0.154173 1.2132e-16)
(-35.7842 -0.195008 1.24507e-16)
(-35.699 -0.243414 1.29218e-16)
(-35.6134 -0.300973 1.33495e-16)
(-35.5282 -0.369544 1.38185e-16)
(-35.4447 -0.451304 1.43518e-16)
(-35.3645 -0.549072 1.48387e-16)
(-35.2883 -0.666726 1.54091e-16)
(-37.2111 -1.78764 -3.50763e-17)
(-36.8869 -1.78225 -3.55993e-17)
(-36.6565 -1.74678 -3.6072e-17)
(-36.4374 -1.69172 -3.75204e-17)
(-36.2369 -1.62521 -3.82259e-17)
(-36.0534 -1.5535 -3.76669e-17)
(-35.8847 -1.48085 -3.76489e-17)
(-35.7289 -1.40989 -3.76937e-17)
(-35.5839 -1.34214 -3.77992e-17)
(-35.4481 -1.27842 -3.853e-17)
(-35.3203 -1.21907 -3.88397e-17)
(-35.1993 -1.1642 -3.83466e-17)
(-35.0843 -1.11375 -3.81455e-17)
(-34.9746 -1.0676 -3.80487e-17)
(-34.8695 -1.02554 -3.80454e-17)
(-34.7686 -0.987381 -3.87201e-17)
(-34.6715 -0.952898 -3.89681e-17)
(-34.5776 -0.921878 -3.83936e-17)
(-34.4867 -0.894118 -3.81249e-17)
(-34.3984 -0.869422 -3.79515e-17)
(-34.3124 -0.847603 -3.78164e-17)
(-34.2285 -0.828489 -3.76797e-17)
(-34.1463 -0.81192 -3.75102e-17)
(-34.0657 -0.797759 -3.7292e-17)
(-33.9865 -0.785883 -3.70158e-17)
(-33.9083 -0.776188 -3.66306e-17)
(-33.8312 -0.768579 -3.55129e-17)
(-33.7547 -0.762976 -3.48383e-17)
(-33.6789 -0.759314 -3.49622e-17)
(-33.6035 -0.757545 -3.46822e-17)
(-33.5284 -0.757631 -3.42555e-17)
(-33.4535 -0.759547 -3.36874e-17)
(-33.3786 -0.763286 -3.23386e-17)
(-33.3036 -0.768864 -3.14297e-17)
(-33.2285 -0.776324 -3.13765e-17)
(-33.1531 -0.785746 -3.09312e-17)
(-33.0775 -0.797252 -3.03155e-17)
(-33.0016 -0.811012 -2.95337e-17)
(-32.9254 -0.827273 -2.86427e-17)
(-32.8491 -0.846381 -2.7621e-17)
(-32.7727 -0.868825 -2.61966e-17)
(-32.6965 -0.89527 -2.40741e-17)
(-32.6208 -0.926599 -2.25876e-17)
(-32.546 -0.963971 -2.15119e-17)
(-32.4727 -1.00886 -2.00338e-17)
(-32.4016 -1.06312 -1.85369e-17)
(-32.3338 -1.12896 -1.58938e-17)
(-32.2711 -1.20892 -1.34577e-17)
(-32.2156 -1.306 -1.21893e-17)
(-32.1683 -1.42406 -1.03765e-17)
(-32.5397 -1.81148 -3.51255e-17)
(-32.2554 -1.78351 -3.72624e-17)
(-32.0558 -1.71473 -3.94632e-17)
(-31.873 -1.62294 -4.21976e-17)
(-31.7127 -1.52033 -4.45294e-17)
(-31.5706 -1.41499 -4.60548e-17)
(-31.443 -1.31161 -4.76919e-17)
(-31.3264 -1.21262 -4.93736e-17)
(-31.2183 -1.11917 -5.109e-17)
(-31.1167 -1.03171 -5.33438e-17)
(-31.0204 -0.95031 -5.51355e-17)
(-30.9284 -0.874894 -5.61282e-17)
(-30.8399 -0.805273 -5.72675e-17)
(-30.7544 -0.741232 -5.84688e-17)
(-30.6716 -0.682533 -5.97222e-17)
(-30.591 -0.628939 -6.15734e-17)
(-30.5124 -0.580215 -6.30041e-17)
(-30.4355 -0.536131 -6.35811e-17)
(-30.3603 -0.496469 -6.43307e-17)
(-30.2865 -0.461013 -6.51472e-17)
(-30.2139 -0.429555 -6.59695e-17)
(-30.1425 -0.401899 -6.67664e-17)
(-30.0722 -0.377863 -6.75225e-17)
(-30.0027 -0.35728 -6.82305e-17)
(-29.9341 -0.339997 -6.88805e-17)
(-29.8662 -0.325876 -6.94204e-17)
(-29.799 -0.31479 -6.92369e-17)
(-29.7325 -0.306623 -6.94018e-17)
(-29.6665 -0.301277 -7.03506e-17)
(-29.601 -0.298664 -7.10035e-17)
(-29.536 -0.298707 -7.14933e-17)
(-29.4714 -0.301338 -7.18304e-17)
(-29.4072 -0.306505 -7.14087e-17)
(-29.3434 -0.314172 -7.13604e-17)
(-29.2799 -0.324322 -7.21955e-17)
(-29.2169 -0.336953 -7.27516e-17)
(-29.1543 -0.352088 -7.3173e-17)
(-29.0923 -0.36978 -7.34996e-17)
(-29.031 -0.390128 -7.37247e-17)
(-28.9706 -0.413297 -7.28509e-17)
(-28.9115 -0.439559 -7.27152e-17)
(-28.8541 -0.469306 -7.28621e-17)
(-28.7988 -0.503073 -7.18858e-17)
(-28.7466 -0.54158 -7.24583e-17)
(-28.6984 -0.585771 -7.34239e-17)
(-28.6554 -0.636876 -7.32334e-17)
(-28.6192 -0.696415 -7.24068e-17)
(-28.592 -0.76613 -7.20539e-17)
(-28.5772 -0.848021 -7.27332e-17)
(-28.5766 -0.944911 -7.33067e-17)
(-26.6197 -2.18495 -1.06038e-17)
(-26.3523 -2.15464 -1.25683e-17)
(-26.193 -2.071 -1.46878e-17)
(-26.063 -1.96551 -1.74698e-17)
(-25.9609 -1.85475 -1.99482e-17)
(-25.8775 -1.74731 -2.15991e-17)
(-25.8062 -1.64662 -2.33972e-17)
(-25.7426 -1.55368 -2.53521e-17)
(-25.6837 -1.46841 -2.74428e-17)
(-25.6276 -1.39038 -3.0179e-17)
(-25.5731 -1.31903 -3.26023e-17)
(-25.5197 -1.25385 -3.41724e-17)
(-25.4667 -1.19435 -3.58743e-17)
(-25.4141 -1.1401 -3.77191e-17)
(-25.3615 -1.09071 -3.96832e-17)
(-25.3089 -1.04583 -4.23104e-17)
(-25.2563 -1.00515 -4.45627e-17)
(-25.2036 -0.96836 -4.59389e-17)
(-25.1508 -0.935208 -4.74618e-17)
(-25.098 -0.905444 -4.91053e-17)
(-25.0453 -0.878837 -5.07877e-17)
(-24.9925 -0.855178 -5.24673e-17)
(-24.9398 -0.834283 -5.41294e-17)
(-24.8873 -0.815991 -5.57791e-17)
(-24.835 -0.800162 -5.74079e-17)
(-24.7829 -0.786676 -5.89485e-17)
(-24.7312 -0.77543 -5.97796e-17)
(-24.6799 -0.766341 -6.09207e-17)
(-24.6291 -0.759344 -6.2929e-17)
(-24.5787 -0.754394 -6.47397e-17)
(-24.529 -0.751464 -6.63612e-17)
(-24.4799 -0.750545 -6.77909e-17)
(-24.4316 -0.751642 -6.84277e-17)
(-24.384 -0.754776 -6.93497e-17)
(-24.3373 -0.759982 -7.11575e-17)
(-24.2916 -0.767308 -7.27558e-17)
(-24.2471 -0.776816 -7.41596e-17)
(-24.2039 -0.788603 -7.54174e-17)
(-24.1622 -0.802807 -7.57869e-17)
(-24.1225 -0.819626 -7.67316e-17)
(-24.0851 -0.83934 -7.83417e-17)
(-24.0505 -0.862338 -7.83703e-17)
(-24.0196 -0.889126 -7.83879e-17)
(-23.9932 -0.920366 -7.91718e-17)
(-23.9725 -0.956904 -7.89146e-17)
(-23.9591 -0.99984 -7.86648e-17)
(-23.9547 -1.05057 -7.85182e-17)
(-23.962 -1.11073 -7.71846e-17)
(-23.9848 -1.18212 -7.56669e-17)
(-24.0263 -1.26726 -7.39522e-17)
(-19.3674 -2.29877 7.84792e-18)
(-19.1309 -2.21621 7.12584e-18)
(-19.0241 -2.06862 6.26659e-18)
(-18.9617 -1.91331 4.98316e-18)
(-18.9308 -1.76628 3.76362e-18)
(-18.9169 -1.63281 3.32696e-18)
(-18.9112 -1.51273 3.10868e-18)
(-18.9086 -1.40444 2.64153e-18)
(-18.9063 -1.30626 1.96747e-18)
(-18.9029 -1.21684 4.6005e-19)
(-18.8977 -1.13513 -8.47043e-19)
(-18.8902 -1.06034 -1.08421e-18)
(-18.8805 -0.991891 -1.41237e-18)
(-18.8686 -0.929308 -2.01328e-18)
(-18.8543 -0.872208 -2.8648e-18)
(-18.838 -0.82026 -4.30341e-18)
(-18.8198 -0.773171 -5.64982e-18)
(-18.7998 -0.730673 -6.24676e-18)
(-18.7782 -0.69252 -6.79292e-18)
(-18.7553 -0.658477 -7.6246e-18)
(-18.7311 -0.62832 -8.6363e-18)
(-18.706 -0.601841 -9.77472e-18)
(-18.6801 -0.578848 -1.10155e-17)
(-18.6536 -0.55917 -1.23499e-17)
(-18.6267 -0.542653 -1.37761e-17)
(-18.5997 -0.529148 -1.52224e-17)
(-18.5726 -0.518515 -1.63051e-17)
(-18.5458 -0.510626 -1.75061e-17)
(-18.5193 -0.505365 -1.95979e-17)
(-18.4933 -0.50264 -2.20448e-17)
(-18.468 -0.502375 -2.4427e-17)
(-18.4435 -0.504503 -2.67733e-17)
(-18.4199 -0.508955 -2.8441e-17)
(-18.3975 -0.51565 -3.04756e-17)
(-18.3763 -0.524508 -3.37338e-17)
(-18.3566 -0.535451 -3.71878e-17)
(-18.3385 -0.548403 -4.06627e-17)
(-18.3224 -0.563297 -4.42259e-17)
(-18.3086 -0.580089 -4.80011e-17)
(-18.2975 -0.598775 -5.16905e-17)
(-18.2896 -0.619394 -5.59363e-17)
(-18.2856 -0.642049 -6.06378e-17)
(-18.2865 -0.666933 -6.56612e-17)
(-18.2934 -0.694337 -7.18567e-17)
(-18.3077 -0.724703 -7.87277e-17)
(-18.3313 -0.758658 -8.55339e-17)
(-18.3664 -0.79713 -9.22248e-17)
(-18.416 -0.841322 -1.00352e-16)
(-18.4849 -0.892491 -1.10727e-16)
(-18.5779 -0.952176 -1.21828e-16)
(-11.0862 -2.52522 1.26888e-17)
(-10.8714 -2.35539 1.25978e-17)
(-10.8022 -2.15219 1.21065e-17)
(-10.812 -1.96953 1.11747e-17)
(-10.8487 -1.81559 9.79422e-18)
(-10.8968 -1.68658 9.52694e-18)
(-10.947 -1.57643 1.03492e-17)
(-10.9951 -1.48062 1.07363e-17)
(-11.0395 -1.39607 1.06915e-17)
(-11.0796 -1.32073 9.68586e-18)
(-11.1152 -1.25314 8.77883e-18)
(-11.1465 -1.19227 9.37555e-18)
(-11.1736 -1.13735 1.04561e-17)
(-11.1968 -1.08775 1.11045e-17)
(-11.2162 -1.04296 1.13527e-17)
(-11.2323 -1.00254 1.12669e-17)
(-11.2453 -0.966094 1.09024e-17)
(-11.2556 -0.933274 1.14819e-17)
(-11.2633 -0.903769 1.28913e-17)
(-11.2688 -0.877291 1.39201e-17)
(-11.2724 -0.853581 1.47487e-17)
(-11.2744 -0.83241 1.54848e-17)
(-11.2751 -0.813584 1.61948e-17)
(-11.2748 -0.796945 1.69189e-17)
(-11.2737 -0.782359 1.76949e-17)
(-11.2722 -0.76971 1.86784e-17)
(-11.2705 -0.758892 1.9978e-17)
(-11.2688 -0.749814 2.18237e-17)
(-11.2674 -0.742424 2.29183e-17)
(-11.2664 -0.736711 2.31535e-17)
(-11.2662 -0.73269 2.38454e-17)
(-11.2668 -0.73038 2.49671e-17)
(-11.2686 -0.729789 2.70137e-17)
(-11.2715 -0.730908 2.91832e-17)
(-11.276 -0.733724 3.01448e-17)
(-11.2822 -0.738233 3.07309e-17)
(-11.2904 -0.744434 3.17385e-17)
(-11.3009 -0.752314 3.30295e-17)
(-11.3141 -0.761855 3.52746e-17)
(-11.3305 -0.773048 3.7276e-17)
(-11.3507 -0.785891 3.86762e-17)
(-11.3753 -0.8004 4.08286e-17)
(-11.4055 -0.81661 4.35253e-17)
(-11.4423 -0.834584 4.54612e-17)
(-11.4874 -0.854422 4.6913e-17)
(-11.5428 -0.87631 4.84782e-17)
(-11.6109 -0.900637 5.00207e-17)
(-11.695 -0.928109 5.1874e-17)
(-11.8004 -0.959441 5.25617e-17)
(-11.934 -0.994834 5.15815e-17)
(-1.96801 -2.83528 1.26721e-17)
(-2.12403 -2.35049 1.37416e-17)
(-2.05464 -2.0895 1.46774e-17)
(-2.11455 -1.86812 1.44e-17)
(-2.19292 -1.69241 1.11286e-17)
(-2.27837 -1.55389 9.32529e-18)
(-2.36349 -1.43801 1.07972e-17)
(-2.44486 -1.33592 1.20693e-17)
(-2.52095 -1.24366 1.26971e-17)
(-2.59119 -1.15932 1.17597e-17)
(-2.65553 -1.08172 8.56943e-18)
(-2.71409 -1.01012 7.11629e-18)
(-2.76715 -0.944015 8.65686e-18)
(-2.81504 -0.883041 9.67847e-18)
(-2.85812 -0.826884 9.86314e-18)
(-2.89679 -0.775265 8.8971e-18)
(-2.93141 -0.72796 5.32725e-18)
(-2.96236 -0.684774 3.40246e-18)
(-2.98997 -0.645511 4.48543e-18)
(-3.01461 -0.609972 4.86156e-18)
(-3.0366 -0.577954 4.75979e-18)
(-3.0563 -0.54928 4.35439e-18)
(-3.07411 -0.523815 3.69148e-18)
(-3.09045 -0.501462 2.83035e-18)
(-3.10576 -0.48213 1.81337e-18)
(-3.12039 -0.465692 1.2638e-18)
(-3.13465 -0.451994 1.88591e-18)
(-3.14878 -0.440918 4.40252e-18)
(-3.16302 -0.432441 4.95396e-18)
(-3.17765 -0.426612 2.78729e-18)
(-3.19299 -0.423458 1.30401e-18)
(-3.20939 -0.422932 6.63853e-19)
(-3.22718 -0.42491 1.67455e-18)
(-3.24666 -0.429231 4.99454e-18)
(-3.26813 -0.435749 6.40618e-18)
(-3.29194 -0.444321 5.22056e-18)
(-3.31854 -0.454769 4.75225e-18)
(-3.34847 -0.466845 4.95741e-18)
(-3.38217 -0.480237 5.45206e-18)
(-3.42016 -0.494643 8.47782e-18)
(-3.46309 -0.509723 1.09701e-17)
(-3.51178 -0.525148 1.21274e-17)
(-3.56708 -0.540444 1.6589e-17)
(-3.63026 -0.555082 1.98896e-17)
(-3.70283 -0.568422 2.14595e-17)
(-3.78662 -0.579865 2.6603e-17)
(-3.88394 -0.589012 3.30493e-17)
(-3.99778 -0.596303 3.96619e-17)
(-4.13421 -0.602828 4.43846e-17)
(-4.30529 -0.607585 4.66267e-17)
(7.21539 -3.5217 1.16072e-17)
(6.97876 -2.74526 1.17655e-17)
(6.80945 -2.31317 1.17616e-17)
(6.71222 -2.0436 1.28974e-17)
(6.62364 -1.85254 1.34448e-17)
(6.52696 -1.71398 1.21797e-17)
(6.42652 -1.61309 1.14979e-17)
(6.32671 -1.53753 1.13779e-17)
(6.22974 -1.47875 1.1279e-17)
(6.13697 -1.43164 1.24798e-17)
(6.04934 -1.39309 1.30183e-17)
(5.96737 -1.3611 1.15759e-17)
(5.89125 -1.33429 1.07856e-17)
(5.82086 -1.3117 1.06047e-17)
(5.75597 -1.29259 1.06021e-17)
(5.69631 -1.27638 1.19493e-17)
(5.64157 -1.2626 1.23699e-17)
(5.5914 -1.25082 1.0694e-17)
(5.54546 -1.24073 9.76102e-18)
(5.50337 -1.23201 9.22783e-18)
(5.4648 -1.22442 8.88044e-18)
(5.42942 -1.21772 8.67224e-18)
(5.39689 -1.21172 8.49113e-18)
(5.36686 -1.20628 8.2911e-18)
(5.33898 -1.20129 7.79274e-18)
(5.31288 -1.19667 7.40649e-18)
(5.28825 -1.19228 5.44856e-18)
(5.26483 -1.18804 4.23392e-18)
(5.2423 -1.18386 5.38203e-18)
(5.22034 -1.17971 5.77505e-18)
(5.19851 -1.1756 5.51437e-18)
(5.17639 -1.17157 5.1239e-18)
(5.15358 -1.16759 2.90312e-18)
(5.12971 -1.16363 1.36726e-18)
(5.10436 -1.15966 2.41556e-18)
(5.07703 -1.15567 2.82065e-18)
(5.04707 -1.15167 2.94176e-18)
(5.01371 -1.14766 3.02372e-18)
(4.97617 -1.14358 2.7485e-18)
(4.93351 -1.13936 2.38947e-18)
(4.88482 -1.1349 2.40935e-18)
(4.82898 -1.1302 9.75968e-19)
(4.76483 -1.12518 7.72715e-19)
(4.691 -1.1198 2.77568e-18)
(4.60598 -1.1139 3.65226e-18)
(4.50804 -1.10729 3.82368e-18)
(4.39492 -1.09943 2.13347e-18)
(4.26322 -1.0895 2.27838e-18)
(4.10915 -1.07743 7.06926e-18)
(3.90445 -1.0613 1.19153e-17)
(16.6222 -2.24966 1.12595e-17)
(16.3337 -1.78784 1.13068e-17)
(16.0556 -1.47223 1.11091e-17)
(15.8682 -1.23939 1.15923e-17)
(15.7156 -1.04309 1.20993e-17)
(15.569 -0.872327 1.16287e-17)
(15.4276 -0.724467 1.13608e-17)
(15.2939 -0.595313 1.13098e-17)
(15.168 -0.480548 1.10419e-17)
(15.0498 -0.377193 1.1619e-17)
(14.9391 -0.283398 1.21334e-17)
(14.8358 -0.197916 1.15952e-17)
(14.7396 -0.119838 1.12919e-17)
(14.6503 -0.0484835 1.12183e-17)
(14.5673 0.0166773 1.09173e-17)
(14.4904 0.0760759 1.14221e-17)
(14.419 0.13008 1.18912e-17)
(14.3528 0.179007 1.12848e-17)
(14.2912 0.223143 1.09066e-17)
(14.2339 0.262747 1.06392e-17)
(14.1806 0.298054 1.04322e-17)
(14.1307 0.329279 1.02502e-17)
(14.0841 0.356615 1.00779e-17)
(14.0403 0.380227 9.89338e-18)
(13.999 0.400267 9.60224e-18)
(13.9599 0.41689 9.609e-18)
(13.9227 0.430252 8.71136e-18)
(13.8871 0.440488 7.88131e-18)
(13.8529 0.44771 8.20354e-18)
(13.8197 0.452005 8.26623e-18)
(13.7871 0.453465 8.10487e-18)
(13.7549 0.45222 8.13475e-18)
(13.7227 0.448448 7.15297e-18)
(13.6901 0.442374 6.15362e-18)
(13.6566 0.434274 6.27476e-18)
(13.6217 0.424476 6.13332e-18)
(13.5848 0.4134 5.79164e-18)
(13.545 0.401605 5.42116e-18)
(13.5014 0.389763 4.49074e-18)
(13.4529 0.378696 3.87476e-18)
(13.3982 0.369313 4.24719e-18)
(13.3358 0.362679 3.4471e-18)
(13.264 0.360025 2.78691e-18)
(13.1808 0.362816 3.34178e-18)
(13.0838 0.372825 3.01969e-18)
(12.9707 0.392206 3.17787e-18)
(12.8387 0.423705 2.98401e-18)
(12.685 0.470643 2.29842e-18)
(12.5082 0.536099 2.92856e-18)
(12.2992 0.622199 4.03263e-18)
(26.878 -3.27099 1.08337e-17)
(26.3745 -2.89862 1.08593e-17)
(25.9124 -2.63803 1.08114e-17)
(25.5877 -2.47607 1.10082e-17)
(25.3386 -2.36495 1.11734e-17)
(25.1218 -2.28512 1.0943e-17)
(24.9274 -2.22997 1.08235e-17)
(24.7536 -2.19326 1.08294e-17)
(24.5975 -2.16899 1.04524e-17)
(24.4559 -2.15283 1.0837e-17)
(24.3267 -2.14199 1.14774e-17)
(24.2081 -2.13465 1.11518e-17)
(24.0989 -2.12953 1.09793e-17)
(23.9981 -2.12575 1.09438e-17)
(23.9047 -2.12268 1.08795e-17)
(23.818 -2.11992 1.10841e-17)
(23.7372 -2.11715 1.12235e-17)
(23.6618 -2.11418 1.09228e-17)
(23.5911 -2.11085 1.07381e-17)
(23.5247 -2.10707 1.05972e-17)
(23.4622 -2.10275 1.04695e-17)
(23.403 -2.09787 1.03397e-17)
(23.3469 -2.0924 1.02023e-17)
(23.2934 -2.08632 1.00522e-17)
(23.2423 -2.07963 9.83375e-18)
(23.1932 -2.07233 1.0072e-17)
(23.1459 -2.06441 9.50743e-18)
(23.1 -2.05587 8.68809e-18)
(23.0554 -2.0467 8.84417e-18)
(23.0117 -2.03692 8.85437e-18)
(22.9686 -2.02649 8.74707e-18)
(22.9258 -2.01539 8.573e-18)
(22.8829 -2.00355 8.17445e-18)
(22.8395 -1.99091 7.95388e-18)
(22.7952 -1.97737 8.08066e-18)
(22.7495 -1.96281 7.98554e-18)
(22.7017 -1.94707 7.7542e-18)
(22.651 -1.92993 7.36067e-18)
(22.5963 -1.91118 6.97827e-18)
(22.5366 -1.89055 6.60081e-18)
(22.4704 -1.86788 6.20327e-18)
(22.3961 -1.84298 5.43321e-18)
(22.3117 -1.81578 4.7145e-18)
(22.2151 -1.78623 4.66329e-18)
(22.1038 -1.75436 4.53655e-18)
(21.9752 -1.71996 4.84806e-18)
(21.8255 -1.68209 4.24912e-18)
(21.6497 -1.63852 3.37149e-18)
(21.4426 -1.5865 3.96402e-18)
(21.192 -1.52798 4.47078e-18)
(35.1745 -0.0828232 1.01184e-17)
(35.1367 0.215681 1.01494e-17)
(34.9508 0.429626 9.85028e-18)
(34.8305 0.588875 1.01431e-17)
(34.7623 0.722505 1.05887e-17)
(34.704 0.839471 1.03703e-17)
(34.646 0.940344 1.02539e-17)
(34.59 1.02655 1.02282e-17)
(34.5362 1.10065 9.65259e-18)
(34.4833 1.16481 1.0002e-17)
(34.4305 1.22053 1.07642e-17)
(34.3775 1.26888 1.05154e-17)
(34.3242 1.31073 1.03947e-17)
(34.2705 1.34679 1.03855e-17)
(34.2165 1.37763 1.00759e-17)
(34.1621 1.40375 1.03034e-17)
(34.1074 1.42556 1.06988e-17)
(34.0524 1.44345 1.04604e-17)
(33.997 1.45771 1.03031e-17)
(33.9412 1.46863 1.01859e-17)
(33.885 1.47645 1.00611e-17)
(33.8284 1.48138 9.91734e-18)
(33.7713 1.48361 9.74225e-18)
(33.7137 1.48331 9.5499e-18)
(33.6554 1.48063 9.30491e-18)
(33.5965 1.47571 9.43688e-18)
(33.537 1.46866 9.09368e-18)
(33.4766 1.45962 8.5619e-18)
(33.4154 1.4487 8.58956e-18)
(33.3531 1.43604 8.44617e-18)
(33.2897 1.42181 8.19426e-18)
(33.225 1.40621 8.31559e-18)
(33.1588 1.38949 7.9912e-18)
(33.0908 1.37197 7.48327e-18)
(33.0208 1.35407 7.55036e-18)
(32.9483 1.33638 7.48344e-18)
(32.8729 1.31966 7.26969e-18)
(32.7939 1.30489 7.08392e-18)
(32.7105 1.29328 6.67684e-18)
(32.6215 1.28633 6.40549e-18)
(32.5256 1.28573 6.76438e-18)
(32.4211 1.29347 6.39496e-18)
(32.3061 1.31182 5.76668e-18)
(32.1783 1.34325 5.8097e-18)
(32.0359 1.38945 5.48545e-18)
(31.8777 1.45151 5.57712e-18)
(31.7029 1.52981 5.32258e-18)
(31.5118 1.62367 4.42867e-18)
(31.3222 1.72573 4.23198e-18)
(31.1268 1.83674 4.39749e-18)
(52.1698 -4.39466 1.00729e-17)
(51.4761 -4.19709 1.00671e-17)
(50.8226 -4.05143 9.64836e-18)
(50.3088 -3.94317 9.86706e-18)
(49.8848 -3.85259 1.0423e-17)
(49.5049 -3.77257 1.02353e-17)
(49.1552 -3.7015 1.01057e-17)
(48.8328 -3.63798 1.00468e-17)
(48.5345 -3.5803 9.89856e-18)
(48.2561 -3.52703 9.90663e-18)
(47.9942 -3.47716 9.97917e-18)
(47.7465 -3.42999 9.83239e-18)
(47.5112 -3.385 9.74711e-18)
(47.2867 -3.34181 9.74221e-18)
(47.0719 -3.30013 9.7952e-18)
(46.8657 -3.25975 9.87532e-18)
(46.6672 -3.2205 9.81872e-18)
(46.4756 -3.18227 9.59708e-18)
(46.2902 -3.14495 9.45137e-18)
(46.1105 -3.10848 9.33776e-18)
(45.9358 -3.07277 9.22887e-18)
(45.7657 -3.03778 9.11803e-18)
(45.5997 -3.00344 8.99622e-18)
(45.4375 -2.9697 8.85392e-18)
(45.2785 -2.93652 8.65134e-18)
(45.1226 -2.90384 8.36835e-18)
(44.9694 -2.87162 8.05699e-18)
(44.8185 -2.83978 7.88593e-18)
(44.6698 -2.80827 7.86228e-18)
(44.523 -2.777 7.75663e-18)
(44.3777 -2.74588 7.56316e-18)
(44.2339 -2.71481 7.83072e-18)
(44.0911 -2.68367 7.33954e-18)
(43.9493 -2.65231 6.41309e-18)
(43.8081 -2.62052 6.35518e-18)
(43.6674 -2.58805 6.28282e-18)
(43.5268 -2.55458 6.18841e-18)
(43.3859 -2.51972 6.07068e-18)
(43.2441 -2.48305 6.0132e-18)
(43.1006 -2.44421 5.9342e-18)
(42.9542 -2.40297 5.87062e-18)
(42.8038 -2.35908 5.60887e-18)
(42.6475 -2.31164 5.32341e-18)
(42.4821 -2.25826 5.85864e-18)
(42.3043 -2.1961 5.75959e-18)
(42.114 -2.12334 5.14144e-18)
(41.9222 -2.03504 4.91219e-18)
(41.73 -1.93242 4.6911e-18)
(41.5253 -1.80873 4.95717e-18)
(41.2935 -1.65236 5.35225e-18)
(51.4016 3.32777 1.06204e-17)
(51.5834 3.42953 1.0637e-17)
(51.6392 3.43701 1.05507e-17)
(51.7537 3.43002 1.06518e-17)
(51.9115 3.41358 1.0757e-17)
(52.0646 3.38938 1.06311e-17)
(52.199 3.36068 1.05225e-17)
(52.316 3.32914 1.0453e-17)
(52.4172 3.29541 9.96072e-18)
(52.5031 3.25999 1.01347e-17)
(52.5744 3.22333 1.06021e-17)
(52.6323 3.18578 1.035e-17)
(52.6784 3.14762 1.01413e-17)
(52.7138 3.10907 9.98359e-18)
(52.7397 3.07031 9.4957e-18)
(52.7572 3.03147 9.5902e-18)
(52.7673 2.99266 9.92365e-18)
(52.7707 2.95395 9.60936e-18)
(52.7684 2.91539 9.37825e-18)
(52.7608 2.87699 9.19885e-18)
(52.7486 2.83877 9.04057e-18)
(52.7324 2.80073 8.8993e-18)
(52.7127 2.76286 8.76686e-18)
(52.6898 2.72513 8.6347e-18)
(52.6642 2.68752 8.47192e-18)
(52.6362 2.65001 8.4088e-18)
(52.6061 2.6126 8.1942e-18)
(52.5743 2.57528 7.94312e-18)
(52.5409 2.53809 7.88815e-18)
(52.5061 2.50109 7.80266e-18)
(52.4701 2.46436 7.68101e-18)
(52.4328 2.42806 8.00132e-18)
(52.3941 2.39247 7.68877e-18)
(52.354 2.35797 7.00936e-18)
(52.312 2.32514 7.02305e-18)
(52.2675 2.29482 6.98854e-18)
(52.2196 2.26823 6.90696e-18)
(52.1664 2.24707 6.81554e-18)
(52.1056 2.23371 6.58429e-18)
(52.0333 2.23096 6.40825e-18)
(51.9456 2.24102 6.76023e-18)
(51.8388 2.26461 6.46295e-18)
(51.7111 2.30085 5.90274e-18)
(51.5687 2.34566 5.96806e-18)
(51.4311 2.39265 5.7896e-18)
(51.2934 2.44085 6.12296e-18)
(51.1442 2.48789 5.99872e-18)
(50.9849 2.5394 5.31213e-18)
(50.8189 2.60455 4.89924e-18)
(50.635 2.70234 5.52714e-18)
(89.4779 -6.54534 1.09224e-17)
(88.6196 -6.47485 1.09488e-17)
(87.9045 -6.3286 1.03978e-17)
(87.308 -6.13956 1.05072e-17)
(86.7708 -5.94082 1.11745e-17)
(86.2716 -5.74492 1.10472e-17)
(85.8047 -5.55614 1.09298e-17)
(85.3679 -5.37686 1.08469e-17)
(84.9583 -5.20826 1.03075e-17)
(84.5727 -5.05053 1.0378e-17)
(84.2082 -4.90323 1.08489e-17)
(83.8623 -4.76571 1.06072e-17)
(83.533 -4.63724 1.04406e-17)
(83.2185 -4.51708 1.034e-17)
(82.9171 -4.40451 9.64675e-18)
(82.6275 -4.29887 9.68855e-18)
(82.3485 -4.19956 1.03101e-17)
(82.079 -4.10604 1.01516e-17)
(81.8179 -4.01781 1.00307e-17)