/*--------------------------------*- C++ -*----------------------------------*\
  =========                 |
  \\      /  F ield         | OpenFOAM: The Open Source CFD Toolbox
   \\    /   O peration     | Website:  https://openfoam.org
    \\  /    A nd           | Version:  8
     \\/     M anipulation  |
\*---------------------------------------------------------------------------*/
FoamFile
{
    version     2.0;
    format      ascii;
    class       volScalarField;
    location    "800";
    object      epsilon;
}
// * * * * * * * * * * * * * * * * * * * * * * * * * * * * * * * * * * * * * //

dimensions      [0 2 -3 0 0 0 0];

internalField   nonuniform List<scalar> 
1200
(
5.35871e-06
5.27356e-06
5.18529e-06
5.09329e-06
4.99735e-06
4.90047e-06
4.80324e-06
4.71552e-06
4.63127e-06
4.53348e-06
4.55575e-06
4.7776e-06
4.99122e-06
5.09079e-06
5.37928e-06
5.01952e-06
4.85352e-06
5.34019e-06
6.06033e-06
7.21999e-06
8.77087e-06
1.05102e-05
1.19109e-05
3.23512e-05
3.39652e-05
3.54672e-05
3.73906e-05
3.98154e-05
4.2717e-05
4.57969e-05
4.86636e-05
5.16184e-05
5.52266e-05
5.94355e-05
6.40747e-05
6.92843e-05
7.5094e-05
8.08186e-05
8.56616e-05
9.01961e-05
9.66418e-05
0.000106771
0.000116259
0.000123926
0.000129769
0.000135385
0.000141493
0.000149354
0.0001571
0.000161335
0.000167357
0.000171904
0.000183906
0.000190132
0.000200674
0.000199219
0.000219531
0.000267737
0.000397861
0.00054419
5.38335e-06
4.66234e-06
4.04686e-06
3.52469e-06
3.07961e-06
2.70031e-06
2.38674e-06
2.16216e-06
2.02213e-06
1.86889e-06
2.74258e-06
3.30919e-06
2.91549e-06
2.66031e-06
2.11778e-06
1.91042e-06
2.22117e-06
2.48269e-06
3.06294e-06
3.81721e-06
4.71352e-06
5.74961e-06
6.65692e-06
7.3535e-06
8.0635e-06
8.74601e-06
9.34154e-06
9.86391e-06
1.01376e-05
1.01904e-05
1.04304e-05
1.09248e-05
1.12255e-05
1.13525e-05
1.14934e-05
1.16293e-05
1.16187e-05
1.14691e-05
1.14348e-05
5.04819e-05
5.04399e-05
1.15275e-05
4.96011e-05
1.16561e-05
1.16177e-05
1.1598e-05
1.16604e-05
5.07383e-05
5.60402e-05
5.50599e-05
9.04735e-05
0.000211591
0.000281902
0.000211657
0.000176283
0.000136086
0.000201617
0.000840027
0.00175386
0.00145143
5.37488e-06
4.62844e-06
3.98637e-06
3.43535e-06
2.96057e-06
2.55311e-06
2.20555e-06
1.91496e-06
1.68928e-06
1.57323e-06
2.15441e-06
2.43414e-06
1.76073e-06
1.45253e-06
1.93498e-06
2.65166e-06
3.23579e-06
4.26653e-06
4.58139e-06
6.19814e-06
7.27716e-06
8.74719e-06
1.0232e-05
1.06351e-05
1.0935e-05
1.14874e-05
4.93279e-05
5.59684e-05
6.00228e-05
6.15134e-05
6.15622e-05
6.2073e-05
6.47887e-05
7.01952e-05
7.65997e-05
8.43774e-05
9.37101e-05
0.000103544
0.000113018
0.000120916
0.000125455
0.000124658
0.000124687
0.000128942
0.000133173
0.000127499
0.000132111
0.000132184
6.84566e-05
6.02356e-05
0.000182872
0.000531199
0.000780564
0.000646432
0.000640877
0.00179786
0.0034265
0.00574053
0.00924784
0.0143646
5.37434e-06
4.62947e-06
3.98941e-06
3.43964e-06
2.96364e-06
2.55454e-06
2.20296e-06
1.89725e-06
1.63879e-06
1.485e-06
1.83847e-06
2.07789e-06
1.83007e-06
1.46167e-06
1.83327e-06
3.31916e-06
5.71268e-06
9.12587e-06
9.94717e-06
1.06603e-05
1.12229e-05
1.16727e-05
5.59075e-05
6.54293e-05
7.56575e-05
8.48611e-05
9.42847e-05
0.000102507
0.000108641
0.000112403
0.000113593
0.00011197
0.000107211
9.99722e-05
9.4391e-05
9.96447e-05
0.000114052
0.000130748
0.000149807
0.000172368
0.000199235
0.000230905
0.000268469
0.000330597
0.000419258
0.000515887
0.00062251
0.00075304
0.000903553
0.00107383
0.0014002
0.00181203
0.00214543
0.00242442
0.00277599
0.0040593
0.00612506
0.00885427
0.0125128
0.0181175
5.374e-06
4.62846e-06
3.988e-06
3.43808e-06
2.96229e-06
2.55179e-06
2.20293e-06
1.89951e-06
1.63869e-06
1.44384e-06
1.54605e-06
1.71695e-06
1.6838e-06
1.53105e-06
1.38624e-06
2.25553e-06
3.67713e-06
5.58978e-06
6.39021e-06
8.29429e-06
1.00166e-05
1.08767e-05
1.13892e-05
4.94464e-05
5.6968e-05
6.40125e-05
6.85029e-05
7.08219e-05
7.11638e-05
6.9637e-05
6.6375e-05
6.20015e-05
5.84614e-05
5.9187e-05
6.71629e-05
7.66659e-05
8.87607e-05
0.000103479
0.000121431
0.000144827
0.000173977
0.000208269
0.000243264
0.000283998
0.000335448
0.00041202
0.00053048
0.000711376
0.000967423
0.00128218
0.00164456
0.00208674
0.00258567
0.00318595
0.0039375
0.00506434
0.00691532
0.00951573
0.013223
0.0188859
5.37373e-06
4.62813e-06
3.98775e-06
3.4379e-06
2.96272e-06
2.55279e-06
2.20396e-06
1.90417e-06
1.64393e-06
1.43261e-06
1.37214e-06
1.4118e-06
1.40275e-06
1.33599e-06
1.24341e-06
1.47413e-06
2.29018e-06
3.20881e-06
3.6573e-06
4.9612e-06
7.02878e-06
8.49244e-06
9.2787e-06
1.06533e-05
1.155e-05
1.16694e-05
1.16684e-05
1.16698e-05
1.16282e-05
1.16669e-05
1.1609e-05
1.15435e-05
1.14915e-05
1.152e-05
1.167e-05
1.16353e-05
1.16305e-05
1.1347e-05
4.95188e-05
5.84815e-05
7.97681e-05
0.000105624
0.000127608
0.000132073
0.000124424
0.000142304
0.000203711
0.000315738
0.00051684
0.000802359
0.00111222
0.00145222
0.00186199
0.00241941
0.00332205
0.00444587
0.00597159
0.0082149
0.0118411
0.0180783
5.37308e-06
4.62777e-06
3.98838e-06
3.43929e-06
2.96469e-06
2.55544e-06
2.20674e-06
1.90993e-06
1.65275e-06
1.43428e-06
1.29641e-06
1.23136e-06
1.17649e-06
1.11406e-06
1.05346e-06
1.12392e-06
1.51064e-06
1.95738e-06
2.26936e-06
2.90117e-06
4.10771e-06
5.50891e-06
6.92176e-06
8.45881e-06
9.7396e-06
1.03201e-05
1.05233e-05
1.05363e-05
1.03943e-05
1.01733e-05
1.00483e-05
9.98449e-06
9.83683e-06
9.77832e-06
1.00992e-05
1.05514e-05
1.06202e-05
1.04295e-05
1.01678e-05
1.02819e-05
1.10785e-05
1.16619e-05
5.46952e-05
5.12112e-05
1.09953e-05
1.0528e-05
1.02719e-05
9.80803e-06
5.16398e-05
0.000212123
0.000331876
0.000457286
0.000521596
0.00064876
0.00122786
0.00227714
0.00339562
0.00463017
0.00740477
0.0144799
5.37201e-06
4.62484e-06
3.98497e-06
3.43529e-06
2.96121e-06
2.55425e-06
2.20742e-06
1.91122e-06
1.6562e-06
1.441e-06
1.27479e-06
1.15673e-06
1.06406e-06
9.85039e-07
9.23746e-07
9.23675e-07
1.0692e-06
1.26073e-06
1.43546e-06
1.70716e-06
2.18459e-06
2.90846e-06
3.92117e-06
5.40789e-06
6.89173e-06
7.89594e-06
8.44418e-06
8.68132e-06
8.72275e-06
8.71756e-06
8.77551e-06
8.89069e-06
9.01348e-06
9.13861e-06
9.30573e-06
9.42666e-06
9.44568e-06
9.40745e-06
9.35341e-06
9.30863e-06
9.33324e-06
9.42517e-06
9.63938e-06
9.53501e-06
9.56956e-06
9.40133e-06
9.11489e-06
8.80861e-06
8.7225e-06
1.16413e-05
6.1947e-05
7.35058e-05
8.94007e-05
0.00010806
0.000173059
0.000544446
0.00114354
0.00161435
0.00229058
0.0035936
5.37874e-06
4.65656e-06
4.04446e-06
3.52163e-06
3.06706e-06
2.67172e-06
2.33451e-06
2.04404e-06
1.7889e-06
1.56768e-06
1.38447e-06
1.24261e-06
1.13241e-06
1.04285e-06
9.66135e-07
9.07284e-07
9.03904e-07
9.43998e-07
1.00333e-06
1.09589e-06
1.23234e-06
1.44948e-06
1.80699e-06
2.56975e-06
3.59511e-06
4.49619e-06
5.13272e-06
5.50161e-06
5.66352e-06
5.73063e-06
5.81033e-06
5.95283e-06
6.15084e-06
6.41873e-06
6.6895e-06
6.87864e-06
7.02208e-06
7.17281e-06
7.34637e-06
7.53054e-06
7.72005e-06
7.91076e-06
8.07845e-06
8.16365e-06
8.18737e-06
8.36422e-06
8.51397e-06
8.43322e-06
8.36534e-06
8.61897e-06
8.87566e-06
9.38447e-06
9.9001e-06
1.05241e-05
1.11834e-05
8.01615e-05
0.000181402
0.000315888
0.000453724
0.000548912
5.35529e-06
5.26886e-06
5.18404e-06
5.09593e-06
5.00486e-06
4.91002e-06
4.80428e-06
4.66793e-06
4.47012e-06
4.20636e-06
3.94047e-06
3.78889e-06
3.7718e-06
3.83495e-06
3.87541e-06
3.74046e-06
3.51606e-06
3.37454e-06
3.30701e-06
3.29242e-06
3.38293e-06
3.56364e-06
3.8449e-06
4.16837e-06
4.58454e-06
5.12381e-06
5.77116e-06
6.51381e-06
7.34855e-06
8.28617e-06
9.33641e-06
1.05091e-05
1.18227e-05
3.31093e-05
3.58566e-05
3.89595e-05
4.27692e-05
4.72913e-05
5.23303e-05
5.76183e-05
6.28641e-05
6.81411e-05
7.39601e-05
8.13504e-05
9.11963e-05
0.000102589
0.000113716
0.000124592
0.000132875
0.000140014
0.00015037
0.00016207
0.000176679
0.000196014
0.000215596
0.00023026
0.000244729
0.000265091
0.000290975
0.00032357
5.36077e-06
5.27448e-06
5.18523e-06
5.09307e-06
4.99558e-06
4.90037e-06
4.80586e-06
4.72032e-06
4.63791e-06
4.53697e-06
4.54778e-06
4.76128e-06
4.97386e-06
5.07606e-06
5.36894e-06
5.01767e-06
4.8242e-06
5.30029e-06
6.01402e-06
7.16203e-06
8.70541e-06
1.04433e-05
1.18857e-05
3.23195e-05
3.39797e-05
3.5483e-05
3.73727e-05
3.97753e-05
4.27053e-05
4.59043e-05
4.88678e-05
5.17553e-05
5.5151e-05
5.9135e-05
6.36611e-05
6.90071e-05
7.51271e-05
8.11253e-05
8.63151e-05
9.10283e-05
9.80575e-05
0.000107817
0.000116627
0.000123278
0.000128485
0.000134147
0.000140907
0.00014848
0.000156079
0.000163136
0.000168812
0.000174912
0.000182797
0.000186601
0.000196326
0.000201644
0.000217107
0.00026435
0.000374136
0.000519352
5.38285e-06
4.66066e-06
4.04687e-06
3.52643e-06
3.08339e-06
2.70202e-06
2.38307e-06
2.15198e-06
2.01294e-06
1.86483e-06
2.72717e-06
3.29901e-06
2.91008e-06
2.66335e-06
2.1278e-06
1.94709e-06
2.2192e-06
2.46721e-06
3.04285e-06
3.80878e-06
4.70558e-06
5.74469e-06
6.66037e-06
7.35191e-06
8.0417e-06
8.71709e-06
9.30094e-06
9.82141e-06
1.01105e-05
1.01548e-05
1.03148e-05
1.07797e-05
1.11159e-05
1.12966e-05
1.14727e-05
1.15979e-05
1.1523e-05
1.13023e-05
1.13853e-05
1.15946e-05
1.16192e-05
1.15889e-05
4.98354e-05
4.93336e-05
1.16317e-05
1.16229e-05
4.92866e-05
5.19685e-05
6.02887e-05
6.09545e-05
8.61959e-05
0.000199743
0.000275809
0.000207118
0.000171725
0.000137266
0.000179201
0.000796034
0.00164786
0.00151214
5.37418e-06
4.62724e-06
3.98684e-06
3.4362e-06
2.96179e-06
2.5535e-06
2.20568e-06
1.914e-06
1.68754e-06
1.56928e-06
2.14006e-06
2.42719e-06
1.76445e-06
1.45598e-06
1.94626e-06
2.65778e-06
3.21114e-06
4.25675e-06
4.51008e-06
6.16823e-06
7.27857e-06
8.75296e-06
1.02505e-05
1.07026e-05
1.09454e-05
1.14461e-05
1.1592e-05
5.49533e-05
5.88229e-05
6.01881e-05
6.02284e-05
6.08354e-05
6.36975e-05
6.89902e-05
7.53378e-05
8.30349e-05
9.2257e-05
0.000101741
0.000111072
0.000118694
0.000122627
0.000120416
0.000119161
0.000122427
0.000126511
0.000124746
0.000141376
0.000162108
7.79297e-05
5.85753e-05
0.000165641
0.00054106
0.000783092
0.000645612
0.000656409
0.00182517
0.00350035
0.0059628
0.00958886
0.0147685
5.37378e-06
4.62872e-06
3.99002e-06
3.44028e-06
2.96465e-06
2.55447e-06
2.20311e-06
1.89805e-06
1.63894e-06
1.4818e-06
1.8269e-06
2.07006e-06
1.828e-06
1.46208e-06
1.85045e-06
3.32084e-06
5.64237e-06
9.13952e-06
9.95164e-06
1.06641e-05
1.12265e-05
4.95306e-05
5.56324e-05
6.49992e-05
7.51139e-05
8.41003e-05
9.32115e-05
0.000101129
0.000106914
0.000110228
0.000110921
0.000108871
0.0001038
9.65741e-05
9.2195e-05
9.97678e-05
0.000114617
0.00013187
0.0001515
0.000174439
0.000201339
0.000232502
0.000270333
0.000332275
0.000420128
0.000516727
0.000624687
0.000756774
0.000909322
0.00108134
0.00140994
0.00182686
0.00216619
0.00244743
0.00279564
0.00408936
0.00620002
0.00904683
0.0128411
0.0184026
5.37321e-06
4.62776e-06
3.98846e-06
3.43823e-06
2.96317e-06
2.55299e-06
2.20302e-06
1.90052e-06
1.63915e-06
1.44226e-06
1.53857e-06
1.70948e-06
1.67926e-06
1.52836e-06
1.38643e-06
2.28465e-06
3.67858e-06
5.55974e-06
6.34632e-06
8.26856e-06
1.00083e-05
1.086e-05
1.1365e-05
1.16494e-05
5.6407e-05
6.33525e-05
6.76523e-05
6.97244e-05
6.98024e-05
6.80962e-05
6.47763e-05
6.04265e-05
5.71684e-05
5.88221e-05
6.68759e-05
7.6485e-05
8.84718e-05
0.000103159
0.000121482
0.000145474
0.000174765
0.000208576
0.000243326
0.000283301
0.000333789
0.000410971
0.000529028
0.000708925
0.000965106
0.00127962
0.00164479
0.00209218
0.00259949
0.00320482
0.0039541
0.00508375
0.00694585
0.00956163
0.0132783
0.0189283
5.37218e-06
4.62694e-06
3.98806e-06
3.43801e-06
2.96339e-06
2.55495e-06
2.20532e-06
1.90561e-06
1.64506e-06
1.43163e-06
1.36821e-06
1.40684e-06
1.39893e-06
1.33354e-06
1.24237e-06
1.48199e-06
2.28311e-06
3.18948e-06
3.63019e-06
4.94294e-06
7.02595e-06
8.49949e-06
9.33674e-06
1.05964e-05
1.15134e-05
1.15502e-05
4.93517e-05
4.93316e-05
1.16498e-05
1.16749e-05
1.15985e-05
1.15183e-05
1.14673e-05
1.15178e-05
1.16763e-05
1.16535e-05
1.15877e-05
1.13251e-05
1.16775e-05
5.95272e-05
8.12311e-05
0.000106923
0.000128755
0.00013372
0.000126816
0.00014198
0.000201976
0.000312057
0.000511604
0.000798897
0.00111179
0.00145647
0.00187942
0.00244099
0.00334085
0.00446112
0.00599197
0.00824287
0.0118781
0.0181008
5.37092e-06
4.62644e-06
3.98888e-06
3.43935e-06
2.96502e-06
2.55723e-06
2.20855e-06
1.91009e-06
1.65123e-06
1.43326e-06
1.29386e-06
1.22847e-06
1.17435e-06
1.11287e-06
1.05345e-06
1.12582e-06
1.50107e-06
1.9445e-06
2.25086e-06
2.88464e-06
4.10028e-06
5.51875e-06
6.96288e-06
8.51016e-06
9.78077e-06
1.03239e-05
1.05177e-05
1.05243e-05
1.03793e-05
1.01808e-05
1.00829e-05
1.00242e-05
9.86389e-06
9.84066e-06
1.00451e-05
1.0467e-05
1.0549e-05
1.03647e-05
1.0101e-05
1.01981e-05
1.10222e-05
4.93166e-05
5.50463e-05
5.15109e-05
1.09984e-05
1.05117e-05
1.02481e-05
9.78323e-06
5.09095e-05
0.000212671
0.000331446
0.000463762
0.000530003
0.000652185
0.00122897
0.00227971
0.00339945
0.00462401
0.00739899
0.0144606
5.37005e-06
4.62404e-06
3.98536e-06
3.43486e-06
2.96138e-06
2.55595e-06
2.20898e-06
1.91055e-06
1.65493e-06
1.44114e-06
1.27534e-06
1.15633e-06
1.06286e-06
9.83951e-07
9.22881e-07
9.24132e-07
1.06519e-06
1.25153e-06
1.42257e-06
1.69439e-06
2.17634e-06
2.91554e-06
3.95481e-06
5.45452e-06
6.93003e-06
7.9196e-06
8.45226e-06
8.68098e-06
8.71987e-06
8.72263e-06
8.79272e-06
8.9167e-06
9.04567e-06
9.1756e-06
9.34307e-06
9.45314e-06
9.46863e-06
9.43497e-06
9.38719e-06
9.34799e-06
9.37338e-06
9.47169e-06
9.66084e-06
9.4872e-06
9.43125e-06
9.32418e-06
9.09846e-06
8.83656e-06
8.67789e-06
5.04147e-05
6.29511e-05
7.7569e-05
9.44254e-05
0.000111652
0.000177484
0.000550807
0.00114653
0.00161035
0.00226916
0.0035152
5.37781e-06
4.65677e-06
4.04527e-06
3.52118e-06
3.06818e-06
2.67409e-06
2.33707e-06
2.04468e-06
1.78847e-06
1.56824e-06
1.38567e-06
1.24368e-06
1.13343e-06
1.04381e-06
9.66871e-07
9.07494e-07
9.01885e-07
9.39515e-07
9.96143e-07
1.08762e-06
1.2251e-06
1.44967e-06
1.8257e-06
2.60712e-06
3.63226e-06
4.5209e-06
5.14194e-06
5.49827e-06
5.65143e-06
5.71906e-06
5.80595e-06
5.95712e-06
6.16196e-06
6.43891e-06
6.70592e-06
6.88841e-06
7.03583e-06
7.19622e-06
7.37811e-06
7.56529e-06
7.75384e-06
7.94423e-06
8.10569e-06
8.17846e-06
8.20106e-06
8.43437e-06
8.53689e-06
8.4071e-06
8.36977e-06
8.61468e-06
8.86342e-06
9.4587e-06
1.00351e-05
1.06526e-05
1.12721e-05
8.18161e-05
0.000184197
0.000316965
0.000449582
0.000533436
5.35733e-06
5.2721e-06
5.18432e-06
5.094e-06
5.00358e-06
4.91533e-06
4.81217e-06
4.67202e-06
4.47204e-06
4.21125e-06
3.94754e-06
3.79712e-06
3.78365e-06
3.85089e-06
3.89525e-06
3.76389e-06
3.53714e-06
3.38871e-06
3.31764e-06
3.2983e-06
3.38339e-06
3.55588e-06
3.82966e-06
4.15475e-06
4.57453e-06
5.11352e-06
5.7592e-06
6.49898e-06
7.33045e-06
8.26456e-06
9.31174e-06
1.04852e-05
1.18052e-05
3.29853e-05
3.56578e-05
3.87869e-05
4.26631e-05
4.72205e-05
5.2239e-05
5.7499e-05
6.27387e-05
6.79712e-05
7.39115e-05
8.17009e-05
9.20863e-05
0.000103095
0.000113776
0.000124383
0.000132642
0.000140895
0.000151657
0.000162623
0.000176947
0.000196944
0.000216878
0.000230713
0.000244315
0.000264353
0.000290026
0.000322389
)
;

boundaryField
{
    wall
    {
        type            epsilonWallFunction;
        value           nonuniform List<scalar> 
1200
(
5.35871e-06
5.38335e-06
5.37488e-06
5.37434e-06
5.374e-06
5.37373e-06
5.37308e-06
5.37201e-06
5.37874e-06
5.35529e-06
5.27356e-06
4.66234e-06
4.62844e-06
4.62947e-06
4.62846e-06
4.62813e-06
4.62777e-06
4.62484e-06
4.65656e-06
5.26886e-06
5.18529e-06
4.04686e-06
3.98637e-06
3.98941e-06
3.988e-06
3.98775e-06
3.98838e-06
3.98497e-06
4.04446e-06
5.18404e-06
5.09329e-06
3.52469e-06
3.43535e-06
3.43964e-06
3.43808e-06
3.4379e-06
3.43929e-06
3.43529e-06
3.52163e-06
5.09593e-06
4.99735e-06
3.07961e-06
2.96057e-06
2.96364e-06
2.96229e-06
2.96272e-06
2.96469e-06
2.96121e-06
3.06706e-06
5.00486e-06
4.90047e-06
2.70031e-06
2.55311e-06
2.55454e-06
2.55179e-06
2.55279e-06
2.55544e-06
2.55425e-06
2.67172e-06
4.91002e-06
4.80324e-06
2.38674e-06
2.20555e-06
2.20296e-06
2.20293e-06
2.20396e-06
2.20674e-06
2.20742e-06
2.33451e-06
4.80428e-06
4.71552e-06
2.16216e-06
1.91496e-06
1.89725e-06
1.89951e-06
1.90417e-06
1.90993e-06
1.91122e-06
2.04404e-06
4.66793e-06
4.63127e-06
2.02213e-06
1.68928e-06
1.63879e-06
1.63869e-06
1.64393e-06
1.65275e-06
1.6562e-06
1.7889e-06
4.47012e-06
4.53348e-06
1.86889e-06
1.57323e-06
1.485e-06
1.44384e-06
1.43261e-06
1.43428e-06
1.441e-06
1.56768e-06
4.20636e-06
4.55575e-06
2.74258e-06
2.15441e-06
1.83847e-06
1.54605e-06
1.37214e-06
1.29641e-06
1.27479e-06
1.38447e-06
3.94047e-06
4.7776e-06
3.30919e-06
2.43414e-06
2.07789e-06
1.71695e-06
1.4118e-06
1.23136e-06
1.15673e-06
1.24261e-06
3.78889e-06
4.99122e-06
2.91549e-06
1.76073e-06
1.83007e-06
1.6838e-06
1.40275e-06
1.17649e-06
1.06406e-06
1.13241e-06
3.7718e-06
5.09079e-06
2.66031e-06
1.45253e-06
1.46167e-06
1.53105e-06
1.33599e-06
1.11406e-06
9.85039e-07
1.04285e-06
3.83495e-06
5.37928e-06
2.11778e-06
1.93498e-06
1.83327e-06
1.38624e-06
1.24341e-06
1.05346e-06
9.23746e-07
9.66135e-07
3.87541e-06
5.01952e-06
1.91042e-06
2.65166e-06
3.31916e-06
2.25553e-06
1.47413e-06
1.12392e-06
9.23675e-07
9.07284e-07
3.74046e-06
4.85352e-06
2.22117e-06
3.23579e-06
5.71268e-06
3.67713e-06
2.29018e-06
1.51064e-06
1.0692e-06
9.03904e-07
3.51606e-06
5.34019e-06
2.48269e-06
4.26653e-06
9.12587e-06
5.58978e-06
3.20881e-06
1.95738e-06
1.26073e-06
9.43998e-07
3.37454e-06
6.06033e-06
3.06294e-06
4.58139e-06
9.94717e-06
6.39021e-06
3.6573e-06
2.26936e-06
1.43546e-06
1.00333e-06
3.30701e-06
7.21999e-06
3.81721e-06
6.19814e-06
1.06603e-05
8.29429e-06
4.9612e-06
2.90117e-06
1.70716e-06
1.09589e-06
3.29242e-06
8.77087e-06
4.71352e-06
7.27716e-06
1.12229e-05
1.00166e-05
7.02878e-06
4.10771e-06
2.18459e-06
1.23234e-06
3.38293e-06
1.05102e-05
5.74961e-06
8.74719e-06
1.16727e-05
1.08767e-05
8.49244e-06
5.50891e-06
2.90846e-06
1.44948e-06
3.56364e-06
1.19109e-05
6.65692e-06
1.0232e-05
5.59075e-05
1.13892e-05
9.2787e-06
6.92176e-06
3.92117e-06
1.80699e-06
3.8449e-06
3.23512e-05
7.3535e-06
1.06351e-05
6.54293e-05
4.94464e-05
1.06533e-05
8.45881e-06
5.40789e-06
2.56975e-06
4.16837e-06
3.39652e-05
8.0635e-06
1.0935e-05
7.56575e-05
5.6968e-05
1.155e-05
9.7396e-06
6.89173e-06
3.59511e-06
4.58454e-06
3.54672e-05
8.74601e-06
1.14874e-05
8.48611e-05
6.40125e-05
1.16694e-05
1.03201e-05
7.89594e-06
4.49619e-06
5.12381e-06
3.73906e-05
9.34154e-06
4.93279e-05
9.42847e-05
6.85029e-05
1.16684e-05
1.05233e-05
8.44418e-06
5.13272e-06
5.77116e-06
3.98154e-05
9.86391e-06
5.59684e-05
0.000102507
7.08219e-05
1.16698e-05
1.05363e-05
8.68132e-06
5.50161e-06
6.51381e-06
4.2717e-05
1.01376e-05
6.00228e-05
0.000108641
7.11638e-05
1.16282e-05
1.03943e-05
8.72275e-06
5.66352e-06
7.34855e-06
4.57969e-05
1.01904e-05
6.15134e-05
0.000112403
6.9637e-05
1.16669e-05
1.01733e-05
8.71756e-06
5.73063e-06
8.28617e-06
4.86636e-05
1.04304e-05
6.15622e-05
0.000113593
6.6375e-05
1.1609e-05
1.00483e-05
8.77551e-06
5.81033e-06
9.33641e-06
5.16184e-05
1.09248e-05
6.2073e-05
0.00011197
6.20015e-05
1.15435e-05
9.98449e-06
8.89069e-06
5.95283e-06
1.05091e-05
5.52266e-05
1.12255e-05
6.47887e-05
0.000107211
5.84614e-05
1.14915e-05
9.83683e-06
9.01348e-06
6.15084e-06
1.18227e-05
5.94355e-05
1.13525e-05
7.01952e-05
9.99722e-05
5.9187e-05
1.152e-05
9.77832e-06
9.13861e-06
6.41873e-06
3.31093e-05
6.40747e-05
1.14934e-05
7.65997e-05
9.4391e-05
6.71629e-05
1.167e-05
1.00992e-05
9.30573e-06
6.6895e-06
3.58566e-05
6.92843e-05
1.16293e-05
8.43774e-05
9.96447e-05
7.66659e-05
1.16353e-05
1.05514e-05
9.42666e-06
6.87864e-06
3.89595e-05
7.5094e-05
1.16187e-05
9.37101e-05
0.000114052
8.87607e-05
1.16305e-05
1.06202e-05
9.44568e-06
7.02208e-06
4.27692e-05
8.08186e-05
1.14691e-05
0.000103544
0.000130748
0.000103479
1.1347e-05
1.04295e-05
9.40745e-06
7.17281e-06
4.72913e-05
8.56616e-05
1.14348e-05
0.000113018
0.000149807
0.000121431
4.95188e-05
1.01678e-05
9.35341e-06
7.34637e-06
5.23303e-05
9.01961e-05
5.04819e-05
0.000120916
0.000172368
0.000144827
5.84815e-05
1.02819e-05
9.30863e-06
7.53054e-06
5.76183e-05
9.66418e-05
5.04399e-05
0.000125455
0.000199235
0.000173977
7.97681e-05
1.10785e-05
9.33324e-06
7.72005e-06
6.28641e-05
0.000106771
1.15275e-05
0.000124658
0.000230905
0.000208269
0.000105624
1.16619e-05
9.42517e-06
7.91076e-06
6.81411e-05
0.000116259
4.96011e-05
0.000124687
0.000268469
0.000243264
0.000127608
5.46952e-05
9.63938e-06
8.07845e-06
7.39601e-05
0.000123926
1.16561e-05
0.000128942
0.000330597
0.000283998
0.000132073
5.12112e-05
9.53501e-06
8.16365e-06
8.13504e-05
0.000129769
1.16177e-05
0.000133173
0.000419258
0.000335448
0.000124424
1.09953e-05
9.56956e-06
8.18737e-06
9.11963e-05
0.000135385
1.1598e-05
0.000127499
0.000515887
0.00041202
0.000142304
1.0528e-05
9.40133e-06
8.36422e-06
0.000102589
0.000141493
1.16604e-05
0.000132111
0.00062251
0.00053048
0.000203711
1.02719e-05
9.11489e-06
8.51397e-06
0.000113716
0.000149354
5.07383e-05
0.000132184
0.00075304
0.000711376
0.000315738
9.80803e-06
8.80861e-06
8.43322e-06
0.000124592
0.0001571
5.60402e-05
6.84566e-05
0.000903553
0.000967423
0.00051684
5.16398e-05
8.7225e-06
8.36534e-06
0.000132875
0.000161335
5.50599e-05
6.02356e-05
0.00107383
0.00128218
0.000802359
0.000212123
1.16413e-05
8.61897e-06
0.000140014
0.000167357
9.04735e-05
0.000182872
0.0014002
0.00164456
0.00111222
0.000331876
6.1947e-05
8.87566e-06
0.00015037
0.000171904
0.000211591
0.000531199
0.00181203
0.00208674
0.00145222
0.000457286
7.35058e-05
9.38447e-06
0.00016207
0.000183906
0.000281902
0.000780564
0.00214543
0.00258567
0.00186199
0.000521596
8.94007e-05
9.9001e-06
0.000176679
0.000190132
0.000211657
0.000646432
0.00242442
0.00318595
0.00241941
0.00064876
0.00010806
1.05241e-05
0.000196014
0.000200674
0.000176283
0.000640877
0.00277599
0.0039375
0.00332205
0.00122786
0.000173059
1.11834e-05
0.000215596
0.000199219
0.000136086
0.00179786
0.0040593
0.00506434
0.00444587
0.00227714
0.000544446
8.01615e-05
0.00023026
0.000219531
0.000201617
0.0034265
0.00612506
0.00691532
0.00597159
0.00339562
0.00114354
0.000181402
0.000244729
0.000267737
0.000840027
0.00574053
0.00885427
0.00951573
0.0082149
0.00463017
0.00161435
0.000315888
0.000265091
0.000397861
0.00175386
0.00924784
0.0125128
0.013223
0.0118411
0.00740477
0.00229058
0.000453724
0.000290975
0.00054419
0.00145143
0.0143646
0.0181175
0.0188859
0.0180783
0.0144799
0.0035936
0.000548912
0.00032357
5.36077e-06
5.38285e-06
5.37418e-06
5.37378e-06
5.37321e-06
5.37218e-06
5.37092e-06
5.37005e-06
5.37781e-06
5.35733e-06
5.27448e-06
4.66066e-06
4.62724e-06
4.62872e-06
4.62776e-06
4.62694e-06
4.62644e-06
4.62404e-06
4.65677e-06
5.2721e-06
5.18523e-06
4.04687e-06
3.98684e-06
3.99002e-06
3.98846e-06
3.98806e-06
3.98888e-06
3.98536e-06
4.04527e-06
5.18432e-06
5.09307e-06
3.52643e-06
3.4362e-06
3.44028e-06
3.43823e-06
3.43801e-06
3.43935e-06
3.43486e-06
3.52118e-06
5.094e-06
4.99558e-06
3.08339e-06
2.96179e-06
2.96465e-06
2.96317e-06
2.96339e-06
2.96502e-06
2.96138e-06
3.06818e-06
5.00358e-06
4.90037e-06
2.70202e-06
2.5535e-06
2.55447e-06
2.55299e-06
2.55495e-06
2.55723e-06
2.55595e-06
2.67409e-06
4.91533e-06
4.80586e-06
2.38307e-06
2.20568e-06
2.20311e-06
2.20302e-06
2.20532e-06
2.20855e-06
2.20898e-06
2.33707e-06
4.81217e-06
4.72032e-06
2.15198e-06
1.914e-06
1.89805e-06
1.90052e-06
1.90561e-06
1.91009e-06
1.91055e-06
2.04468e-06
4.67202e-06
4.63791e-06
2.01294e-06
1.68754e-06
1.63894e-06
1.63915e-06
1.64506e-06
1.65123e-06
1.65493e-06
1.78847e-06
4.47204e-06
4.53697e-06
1.86483e-06
1.56928e-06
1.4818e-06
1.44226e-06
1.43163e-06
1.43326e-06
1.44114e-06
1.56824e-06
4.21125e-06
4.54778e-06
2.72717e-06
2.14006e-06
1.8269e-06
1.53857e-06
1.36821e-06
1.29386e-06
1.27534e-06
1.38567e-06
3.94754e-06
4.76128e-06
3.29901e-06
2.42719e-06
2.07006e-06
1.70948e-06
1.40684e-06
1.22847e-06
1.15633e-06
1.24368e-06
3.79712e-06
4.97386e-06
2.91008e-06
1.76445e-06
1.828e-06
1.67926e-06
1.39893e-06
1.17435e-06
1.06286e-06
1.13343e-06
3.78365e-06
5.07606e-06
2.66335e-06
1.45598e-06
1.46208e-06
1.52836e-06
1.33354e-06
1.11287e-06
9.83951e-07
1.04381e-06
3.85089e-06
5.36894e-06
2.1278e-06
1.94626e-06
1.85045e-06
1.38643e-06
1.24237e-06
1.05345e-06
9.22881e-07
9.66871e-07
3.89525e-06
5.01767e-06
1.94709e-06
2.65778e-06
3.32084e-06
2.28465e-06
1.48199e-06
1.12582e-06
9.24132e-07
9.07494e-07
3.76389e-06
4.8242e-06
2.2192e-06
3.21114e-06
5.64237e-06
3.67858e-06
2.28311e-06
1.50107e-06
1.06519e-06
9.01885e-07
3.53714e-06
5.30029e-06
2.46721e-06
4.25675e-06
9.13952e-06
5.55974e-06
3.18948e-06
1.9445e-06
1.25153e-06
9.39515e-07
3.38871e-06
6.01402e-06
3.04285e-06
4.51008e-06
9.95164e-06
6.34632e-06
3.63019e-06
2.25086e-06
1.42257e-06
9.96143e-07
3.31764e-06
7.16203e-06
3.80878e-06
6.16823e-06
1.06641e-05
8.26856e-06
4.94294e-06
2.88464e-06
1.69439e-06
1.08762e-06
3.2983e-06
8.70541e-06
4.70558e-06
7.27857e-06
1.12265e-05
1.00083e-05
7.02595e-06
4.10028e-06
2.17634e-06
1.2251e-06
3.38339e-06
1.04433e-05
5.74469e-06
8.75296e-06
4.95306e-05
1.086e-05
8.49949e-06
5.51875e-06
2.91554e-06
1.44967e-06
3.55588e-06
1.18857e-05
6.66037e-06
1.02505e-05
5.56324e-05
1.1365e-05
9.33674e-06
6.96288e-06
3.95481e-06
1.8257e-06
3.82966e-06
3.23195e-05
7.35191e-06
1.07026e-05
6.49992e-05
1.16494e-05
1.05964e-05
8.51016e-06
5.45452e-06
2.60712e-06
4.15475e-06
3.39797e-05
8.0417e-06
1.09454e-05
7.51139e-05
5.6407e-05
1.15134e-05
9.78077e-06
6.93003e-06
3.63226e-06
4.57453e-06
3.5483e-05
8.71709e-06
1.14461e-05
8.41003e-05
6.33525e-05
1.15502e-05
1.03239e-05
7.9196e-06
4.5209e-06
5.11352e-06
3.73727e-05
9.30094e-06
1.1592e-05
9.32115e-05
6.76523e-05
4.93517e-05
1.05177e-05
8.45226e-06
5.14194e-06
5.7592e-06
3.97753e-05
9.82141e-06
5.49533e-05
0.000101129
6.97244e-05
4.93316e-05
1.05243e-05
8.68098e-06
5.49827e-06
6.49898e-06
4.27053e-05
1.01105e-05
5.88229e-05
0.000106914
6.98024e-05
1.16498e-05
1.03793e-05
8.71987e-06
5.65143e-06
7.33045e-06
4.59043e-05
1.01548e-05
6.01881e-05
0.000110228
6.80962e-05
1.16749e-05
1.01808e-05
8.72263e-06
5.71906e-06
8.26456e-06
4.88678e-05
1.03148e-05
6.02284e-05
0.000110921
6.47763e-05
1.15985e-05
1.00829e-05
8.79272e-06
5.80595e-06
9.31174e-06
5.17553e-05
1.07797e-05
6.08354e-05
0.000108871
6.04265e-05
1.15183e-05
1.00242e-05
8.9167e-06
5.95712e-06
1.04852e-05
5.5151e-05
1.11159e-05
6.36975e-05
0.0001038
5.71684e-05
1.14673e-05
9.86389e-06
9.04567e-06
6.16196e-06
1.18052e-05
5.9135e-05
1.12966e-05
6.89902e-05
9.65741e-05
5.88221e-05
1.15178e-05
9.84066e-06
9.1756e-06
6.43891e-06
3.29853e-05
6.36611e-05
1.14727e-05
7.53378e-05
9.2195e-05
6.68759e-05
1.16763e-05
1.00451e-05
9.34307e-06
6.70592e-06
3.56578e-05
6.90071e-05
1.15979e-05
8.30349e-05
9.97678e-05
7.6485e-05
1.16535e-05
1.0467e-05
9.45314e-06
6.88841e-06
3.87869e-05
7.51271e-05
1.1523e-05
9.2257e-05
0.000114617
8.84718e-05
1.15877e-05
1.0549e-05
9.46863e-06
7.03583e-06
4.26631e-05
8.11253e-05
1.13023e-05
0.000101741
0.00013187
0.000103159
1.13251e-05
1.03647e-05
9.43497e-06
7.19622e-06
4.72205e-05
8.63151e-05
1.13853e-05
0.000111072
0.0001515
0.000121482
1.16775e-05
1.0101e-05
9.38719e-06
7.37811e-06
5.2239e-05
9.10283e-05
1.15946e-05
0.000118694
0.000174439
0.000145474
5.95272e-05
1.01981e-05
9.34799e-06
7.56529e-06
5.7499e-05
9.80575e-05
1.16192e-05
0.000122627
0.000201339
0.000174765
8.12311e-05
1.10222e-05
9.37338e-06
7.75384e-06
6.27387e-05
0.000107817
1.15889e-05
0.000120416
0.000232502
0.000208576
0.000106923
4.93166e-05
9.47169e-06
7.94423e-06
6.79712e-05
0.000116627
4.98354e-05
0.000119161
0.000270333
0.000243326
0.000128755
5.50463e-05
9.66084e-06
8.10569e-06
7.39115e-05
0.000123278
4.93336e-05
0.000122427
0.000332275
0.000283301
0.00013372
5.15109e-05
9.4872e-06
8.17846e-06
8.17009e-05
0.000128485
1.16317e-05
0.000126511
0.000420128
0.000333789
0.000126816
1.09984e-05
9.43125e-06
8.20106e-06
9.20863e-05
0.000134147
1.16229e-05
0.000124746
0.000516727
0.000410971
0.00014198
1.05117e-05
9.32418e-06
8.43437e-06
0.000103095
0.000140907
4.92866e-05
0.000141376
0.000624687
0.000529028
0.000201976
1.02481e-05
9.09846e-06
8.53689e-06
0.000113776
0.00014848
5.19685e-05
0.000162108
0.000756774
0.000708925
0.000312057
9.78323e-06
8.83656e-06
8.4071e-06
0.000124383
0.000156079
6.02887e-05
7.79297e-05
0.000909322
0.000965106
0.000511604
5.09095e-05
8.67789e-06
8.36977e-06
0.000132642
0.000163136
6.09545e-05
5.85753e-05
0.00108134
0.00127962
0.000798897
0.000212671
5.04147e-05
8.61468e-06
0.000140895
0.000168812
8.61959e-05
0.000165641
0.00140994
0.00164479
0.00111179
0.000331446
6.29511e-05
8.86342e-06
0.000151657
0.000174912
0.000199743
0.00054106
0.00182686
0.00209218
0.00145647
0.000463762
7.7569e-05
9.4587e-06
0.000162623
0.000182797
0.000275809
0.000783092
0.00216619
0.00259949
0.00187942
0.000530003
9.44254e-05
1.00351e-05
0.000176947
0.000186601
0.000207118
0.000645612
0.00244743
0.00320482
0.00244099
0.000652185
0.000111652
1.06526e-05
0.000196944
0.000196326
0.000171725
0.000656409
0.00279564
0.0039541
0.00334085
0.00122897
0.000177484
1.12721e-05
0.000216878
0.000201644
0.000137266
0.00182517
0.00408936
0.00508375
0.00446112
0.00227971
0.000550807
8.18161e-05
0.000230713
0.000217107
0.000179201
0.00350035
0.00620002
0.00694585
0.00599197
0.00339945
0.00114653
0.000184197
0.000244315
0.00026435
0.000796034
0.0059628
0.00904683
0.00956163
0.00824287
0.00462401
0.00161035
0.000316965
0.000264353
0.000374136
0.00164786
0.00958886
0.0128411
0.0132783
0.0118781
0.00739899
0.00226916
0.000449582
0.000290026
0.000519352
0.00151214
0.0147685
0.0184026
0.0189283
0.0181008
0.0144606
0.0035152
0.000533436
0.000322389
)
;
    }
    inlet
    {
        type            turbulentMixingLengthDissipationRateInlet;
        mixingLength    0.071;
        phi             phi;
        k               k;
        value           uniform 2.72107e-07;
    }
    outlet
    {
        type            inletOutlet;
        inletValue      uniform 0.0001;
        value           nonuniform List<scalar> 
20
(
0.00054419
0.00145143
0.0001
0.0001
0.0001
0.0001
0.0001
0.0035936
0.000548912
0.00032357
0.000519352
0.00151214
0.0001
0.0001
0.0001
0.0001
0.0001
0.0035152
0.000533436
0.000322389
)
;
    }
    heatWall
    {
        type            epsilonWallFunction;
        value           nonuniform List<scalar> 
240
(
5.35529e-06
5.35733e-06
5.26886e-06
5.2721e-06
5.18404e-06
5.18432e-06
5.09593e-06
5.094e-06
5.00486e-06
5.00358e-06
4.91002e-06
4.91533e-06
4.80428e-06