/*--------------------------------*- C++ -*----------------------------------*\
  =========                 |
  \\      /  F ield         | OpenFOAM: The Open Source CFD Toolbox
   \\    /   O peration     | Website:  https://openfoam.org
    \\  /    A nd           | Version:  8
     \\/     M anipulation  |
\*---------------------------------------------------------------------------*/
FoamFile
{
    version     2.0;
    format      ascii;
    class       volScalarField;
    location    "800";
    object      p;
}
// * * * * * * * * * * * * * * * * * * * * * * * * * * * * * * * * * * * * * //

dimensions      [1 -1 -2 0 0 0 0];

internalField   nonuniform List<scalar> 
1200
(
1003.06
1002.99
1002.99
1003.02
1003.05
1003.07
1003.12
1003.37
1003.94
1006.03
1009.7
1009.03
1005.88
1004.66
1007.12
1008.88
1004.05
991.436
984.071
973.886
956.277
938.787
914.16
885.026
854.912
826.801
790.28
748.19
705.145
669.745
651.685
640.842
626.037
603.444
571.751
539.388
527.416
532.193
537.621
532.642
507.343
474.581
479.389
504.875
520.29
531.256
538.585
506.434
451.038
468.884
435.93
395.312
289.596
179.863
224.767
410.838
520.512
502.388
98.8467
-164.319
807.694
807.726
807.765
807.813
807.856
807.888
807.941
808.194
808.721
810.722
814.225
813.364
810.159
809.185
811.964
813.888
811.223
796.466
788.352
778.625
761.188
743.656
721.058
691.757
658.674
629.605
593.679
551.507
507.582
471.602
455.392
446.324
432.55
410.429
377.72
342.987
331.214
337.538
344.651
339.453
313
277.329
285.049
315.05
329.024
340.631
352.55
314.184
250.966
281.021
248.045
193.492
74.222
-35.7597
27.6873
213.613
343.828
440.367
-150.113
-324.509
612.554
612.6
612.636
612.67
612.701
612.725
612.751
612.873
613.081
613.849
615.284
614.699
613.225
612.144
614.11
617.161
609.749
597.397
592.245
584.908
565.31
548.315
524.984
491.885
462.087
438.767
403.107
360.57
316.523
279.269
259.418
247.78
232.423
209.882
178.277
143.484
131.712
140.398
150.167
148.08
123.45
83.0124
87.3617
114.996
124.454
139.418
161.134
130.454
55.7116
71.1093
79.7113
37.7067
-95.8084
-251.103
-167.625
21.5648
105.741
144.044
-415.245
-591.971
417.374
417.402
417.432
417.467
417.504
417.526
417.529
417.589
417.652
417.988
418.335
417.18
416.013
415.872
416.444
416.867
415.1
402.379
395.576
384.929
367.807
350.899
329.63
304.447
273.254
241.3
204.21
162.15
120.991
87.2618
66.2361
51.2838
35.124
12.4479
-13.6595
-51.0903
-66.903
-63.8855
-55.1167
-51.7425
-61.3898
-88.7922
-92.6698
-75.4566
-66.4661
-59.9125
-46.2511
-69.6162
-119.155
-114.282
-107.811
-153.6
-253.489
-389.623
-341.301
-188.262
-113.125
-165.39
-709.104
-902.958
222.199
222.229
222.264
222.299
222.332
222.348
222.333
222.312
222.218
222.059
221.617
220.25
219.09
218.367
217.247
216.997
213.513
204.189
196.499
187.823
171.942
155.991
132.904
113.716
87.1253
51.2557
9.69159
-33.8144
-73.353
-105.342
-129.11
-147.288
-160.852
-185.833
-216.437
-247.992
-262.523
-260.979
-252.623
-241.596
-233.931
-242.963
-247.201
-239.35
-236.401
-242.521
-243.432
-236.46
-227.695
-221.248
-236.212
-261.16
-320.43
-418.667
-430.164
-332.368
-265.54
-338.728
-855.609
-1119.28
27.0222
27.0521
27.0862
27.1169
27.1462
27.1604
27.1303
27.0647
26.9083
26.6164
25.9044
24.2312
22.7125
21.9683
21.4322
20.1724
16.8867
7.29235
-0.362467
-10.0922
-27.0113
-45.1681
-65.8223
-78.1329
-104.601
-144.819
-187.349
-231.012
-269.507
-300.071
-323.392
-342.633
-358.583
-389.627
-418.071
-445.458
-457.603
-453.917
-444.549
-427.701
-412.531
-420.024
-426.744
-437.158
-443.668
-453.176
-457.452
-430.657
-362.743
-309.367
-325.285
-370.186
-424.107
-477.01
-478.105
-446.469
-446.855
-594.982
-954.797
-1204.72
-168.156
-168.126
-168.099
-168.074
-168.048
-168.035
-168.074
-168.173
-168.38
-168.791
-169.71
-171.435
-173.123
-174.432
-175.827
-176.498
-181.643
-190.254
-199.071
-208.82
-223.205
-238.781
-259.29
-276.365
-302.869
-341.355
-382.835
-426.814
-465.323
-495.72
-519.261
-539.417
-556.392
-588.153
-615.726
-636.324
-649.228
-649.15
-642.423
-628.068
-612.299
-613.66
-624.439
-646.291
-650.347
-663.441
-665.457
-630.494
-543.047
-448.514
-449.85
-480.828
-524.813
-535.47
-529.113
-549.036
-599.077
-793.734
-1108.75
-1223.18
-363.328
-363.282
-363.249
-363.228
-363.209
-363.205
-363.255
-363.38
-363.625
-364.094
-365.019
-366.604
-368.244
-369.622
-371.036
-372.603
-377.172
-385.38
-394.468
-405.001
-419.413
-434.132
-451.526
-468.271
-496.398
-536.49
-577.728
-621.348
-660.191
-691.016
-714.685
-734.985
-752.283
-783.565
-812.288
-833.555
-845.006
-843.808
-836.288
-822.896
-808.141
-809.136
-821.302
-843.656
-847.556
-864.29
-862.742
-826.895
-744.439
-645.074
-620.21
-642.128
-693.576
-690.211
-664.102
-665.776
-753.037
-931.455
-1279.88
-1330.46
-558.537
-558.504
-558.468
-558.438
-558.413
-558.406
-558.46
-558.6
-558.868
-559.367
-560.275
-561.777
-563.404
-564.857
-566.526
-568.37
-572.847
-581.046
-590.637
-601.393
-614.98
-628.517
-644.029
-660.335
-687.85
-727.465
-769.919
-813.421
-851.918
-883.105
-907.747
-929.156
-949.795
-977.569
-1002.47
-1024.09
-1036.39
-1037.23
-1030.79
-1017.79
-1004.16
-1007.77
-1021.1
-1045.87
-1058.03
-1068.85
-1054.95
-1016.97
-942.027
-850.861
-832.682
-852.812
-891.981
-881.952
-841.031
-833.873
-940.516
-1099.61
-1438.72
-1524.26
-753.52
-753.589
-753.593
-753.578
-753.564
-753.567
-753.629
-753.778
-754.055
-754.561
-755.447
-756.895
-758.516
-760.017
-761.728
-763.732
-768.166
-776.059
-785.564
-796.414
-810.138
-823.871
-838.63
-854.159
-880.522
-919.746
-963.05
-1006.61
-1045.13
-1076.82
-1102.09
-1123.94
-1145.97
-1172.63
-1196.27
-1217.47
-1229.66
-1230.99
-1224.82
-1212.8
-1200.66
-1202.81
-1216.36
-1240
-1254.37
-1261.84
-1245.46
-1207.06
-1135.64
-1057.34
-1040.78
-1057.62
-1086.98
-1077.29
-1044.29
-1041.39
-1142.9
-1295.53
-1608.57
-1673.77
1003.06
1003
1003
1003.02
1003.03
1003.04
1003.08
1003.28
1003.89
1005.97
1009.85
1009.38
1006.24
1004.88
1006.82
1008.31
1003.98
991.667
984.221
973.86
956.663
938.964
914.391
885.399
855.293
827.379
791.49
750.021
706.734
670.816
652.253
641.197
626.636
604.525
573.302
541.292
529.674
534.297
539.593
534.496
508.776
475.157
480.339
508.178
522.427
530.681
537.044
504.958
449.6
466.115
429.331
391.923
295.292
183.795
217.621
393.773
514.917
492.142
105.282
-167.438
807.696
807.732
807.775
807.817
807.839
807.847
807.878
808.034
808.486
810.085
813.142
812.434
809.749
808.888
811.471
813.123
810.057
796.3
787.61
776.924
759.492
741.962
719.446
690.814
659.335
630.981
595.472
553.695
509.208
472.265
455.293
445.999
432.353
410.406
377.934
343.509
332.627
339.3
346.491
341.475
314.707
277.313
285.647
319.739
330.55
339.989
352.245
313.179
248.17
278.422
239.749
190.121
77.8395
-32.004
21.2313
203.157
344.794
428.273
-106.403
-290.877
612.557
612.613
612.656
612.682
612.688
612.686
612.698
612.764
612.943
613.511
614.691
614.097
612.838
612.203
614.148
617.13
609.454
596.998
591.603
583.391
564.714
548.079
525.806
492.912
462.043
438.623
403.542
361.455
317.2
279.424
259.036
247.153
231.793
209.343
178.27
143.806
132.082
140.675
149.797
147.586
122.406
80.62
85.319
113.446
122.289
135.852
156.651
126.524
53.1522
69.5196
74.3631
29.9524
-94.5203
-251.753
-169.624
19.9233
108.838
163.666
-398.538
-584.312
417.377
417.412
417.444
417.471
417.489
417.494
417.493
417.51
417.541
417.666
417.771
416.715
415.773
415.675
416.699
417.494
417.65
403.342
395.494
384.798
367.89
351.138
329.991
305.022
274.593
242.813
205.618
163.381
121.756
87.2852
65.3695
49.593
32.8339
9.74661
-16.2661
-53.474
-69.0694
-65.5724
-56.4826
-52.8311
-63.2694
-91.7922
-94.3733
-75.6311
-67.6089
-63.276
-50.9442
-75.3335
-126.695
-119.845
-113.241
-161.383
-251.66
-384.641
-336.14
-181.865
-106.264
-151.859
-691.899
-922.114
222.202
222.239
222.279
222.307
222.323
222.322
222.307
222.274
222.185
221.973
221.473
220.096
218.984
218.389
217.714
217.471
213.564
205.055
197.51
189.262
173.04
156.599
133.421
113.728
87.3375
51.7532
10.4378
-33.0716
-72.5826
-104.85
-129.383
-148.254
-162.316
-187.861
-218.221
-249.372
-263.676
-261.782
-252.895
-241.124
-233.008
-243.839
-248.81
-242.182
-239.581
-245.113
-244.498
-236.62
-226.59
-221.439
-237.007
-259.356
-314.474
-406.848
-414.514
-311.747
-246.723
-308.637
-822.842
-1104.92
27.0245
27.0621
27.0997
27.1247
27.143
27.1427
27.1149
27.0499
26.9037
26.5846
25.8377
24.192
22.6916
21.8752
21.3494
20.4672
17.5023
8.48513
1.31646
-7.73629
-24.1919
-43.338
-64.6577
-77.7729
-103.444
-143.802
-186.523
-230.373
-268.761
-299.221
-323.069
-342.822
-358.993
-389.968
-419.064
-446.212
-457.98
-454.216
-445.119
-428.921
-414.868
-422.824
-429.267
-439.542
-446.657
-456.289
-458.66
-431.228
-358.092
-308.277
-324.526
-370.122
-423.24
-472.515
-467.217
-430.09
-436.728
-580.442
-946.781
-1227.84
-168.154
-168.118
-168.089
-168.07
-168.049
-168.046
-168.082
-168.174
-168.368
-168.77
-169.655
-171.353
-173.021
-174.318
-175.617
-176.405
-181.771
-190.34
-199.338
-208.227
-221.705
-236.616
-257.072
-274.789
-301.057
-339.543
-381.201
-425.217
-463.453
-493.71
-517.438
-537.754
-555.222
-587.891
-615.71
-636.395
-649.133
-648.976
-642.291
-628.546
-613.457
-615.315
-625.588
-646.853
-651.733
-666.353
-667.334
-631.938
-544.379
-445.497
-449.054
-478.117
-522.915
-525.031
-509.787
-523.462
-583.338
-763.785
-1100.11
-1216.52
-363.327
-363.273
-363.236
-363.219
-363.202
-363.204
-363.254
-363.37
-363.605
-364.053
-364.942
-366.507
-368.127
-369.507
-370.933
-372.492
-377.113
-385.226
-394.389
-404.715
-419.239
-433.502
-450.339
-466.689
-494.417
-533.972
-575.345
-618.989
-657.434
-687.938
-712.163
-732.621
-750.227
-781.972
-811.007
-832.378
-843.998
-843.056
-835.706
-822.838
-808.311
-809.158
-821.191
-843.239
-848.385
-865.532
-863.261
-827.369
-743.522
-643.415
-619.078
-641.647
-693.656
-684.37
-653.355
-650.862
-745.934
-917.596
-1286.27
-1320.33
-558.536
-558.499
-558.463
-558.435
-558.407
-558.404
-558.454
-558.579
-558.831
-559.299
-560.175
-561.652
-563.247
-564.68
-566.353
-568.179
-572.841
-581.131
-590.867
-601.426
-614.941
-628.199
-643.548
-659.353
-686.597
-725.948
-768.276
-811.753
-850.038
-880.987
-905.82
-927.075
-947.814
-975.839
-1000.79
-1022.44
-1034.81
-1035.73
-1029.33
-1016.72
-1003.3
-1007.12
-1020.63
-1045.63
-1057.16
-1067.77
-1053.7
-1016.15
-940.939
-850.056
-832.914
-851.286
-891.661
-874.923
-825.373
-811.88
-928.881
-1077.31
-1442.27
-1517.06
-753.519
-753.583
-753.589
-753.578
-753.561
-753.568
-753.629
-753.766
-754.036
-754.521
-755.388
-756.834
-758.452
-759.964
-761.71
-763.715
-768.282
-776.185
-785.772
-796.542
-810.336
-823.983
-838.697
-853.95
-880.235
-919.445
-962.777
-1006.49
-1045.04
-1076.67
-1102.21
-1123.99
-1146.16
-1172.48
-1195.99
-1216.98
-1229.11
-1230.43
-1224.23
-1212.62
-1200.66
-1202.74
-1216.44
-1240.41
-1254.94
-1262.12
-1245.36
-1206.9
-1135.23
-1058.16
-1042.35
-1057.58
-1086.27
-1072.02
-1034.69
-1026.97
-1135.53
-1280.28
-1614.6
-1653.01
)
;

boundaryField
{
    wall
    {
        type            calculated;
        value           nonuniform List<scalar> 
1200
(
1003.06
807.693
612.553
417.373
222.198
27.0211
-168.157
-363.329
-558.537
-753.52
1002.98
807.722
612.593
417.398
222.223
27.047
-168.13
-363.286
-558.506
-753.591
1002.98
807.759
612.626
417.426
222.257
27.0793
-168.103
-363.255
-558.471
-753.596
1003.02
807.81
612.664
417.465
222.295
27.1129
-168.076
-363.233
-558.439
-753.578
1003.06
807.864
612.708
417.511
222.336
27.1477
-168.048
-363.213
-558.416
-753.566
1003.09
807.908
612.745
417.542
222.361
27.1692
-168.03
-363.205
-558.408
-753.567
1003.14
807.972
612.777
417.548
222.346
27.1381
-168.07
-363.255
-558.463
-753.629
1003.41
808.274
612.927
417.629
222.332
27.0723
-168.172
-363.385
-558.611
-753.784
1003.96
808.839
613.151
417.709
222.234
26.9108
-168.386
-363.635
-558.887
-754.065
1006.05
811.044
614.021
418.155
222.103
26.6335
-168.802
-364.115
-559.402
-754.582
1009.61
814.772
615.58
418.626
221.689
25.9388
-169.736
-365.058
-560.325
-755.477
1008.85
813.833
614.998
417.418
220.328
24.2507
-171.475
-366.653
-561.841
-756.926
1005.71
810.359
613.415
416.132
219.142
22.7235
-173.172
-368.303
-563.483
-758.548
1004.55
809.333
612.11
415.972
218.355
22.016
-174.487
-369.679
-564.944
-760.044
1007.27
812.221
614.128
416.292
217
21.4811
-175.928
-371.087
-566.611
-761.738
1009.16
814.266
617.251
416.559
216.744
20.0195
-176.548
-372.656
-568.465
-763.74
1004.07
811.815
609.967
413.82
213.484
16.5908
-181.577
-377.196
-572.849
-768.107
991.327
796.576
597.589
401.862
203.776
6.69004
-190.208
-385.455
-581.005
-775.997
983.988
788.725
592.552
395.617
196.014
-1.19654
-198.928
-394.5
-590.522
-785.46
973.887
779.499
585.628
385.029
187.111
-11.2594
-209.107
-405.13
-601.373
-796.35
956.079
762.062
565.601
367.783
171.382
-28.3963
-223.94
-419.484
-614.99
-810.039
938.69
744.544
548.413
350.805
155.685
-46.0688
-239.821
-434.438
-628.656
-823.808
914.058
721.892
524.548
329.464
132.68
-66.4575
-260.369
-452.117
-644.255
-838.584
884.849
692.18
491.422
304.107
113.732
-78.3681
-277.164
-469.035
-660.817
-854.246
854.742
658.297
462.17
272.535
87.0302
-105.202
-303.789
-497.353
-688.465
-880.658
826.518
628.922
438.819
240.54
50.9881
-145.342
-342.268
-537.739
-728.201
-919.902
789.678
592.788
402.872
203.506
9.29403
-187.768
-383.668
-578.936
-770.712
-963.193
747.262
550.413
360.098
161.54
-34.2152
-231.333
-427.613
-622.564
-814.233
-1006.66
704.328
506.789
316.151
120.602
-73.7817
-269.892
-466.25
-661.605
-852.834
-1045.16
669.194
471.309
279.171
87.2139
-105.646
-300.528
-496.731
-692.562
-884.137
-1076.88
651.402
455.45
259.599
66.5786
-129.028
-323.582
-520.193
-715.933
-908.685
-1102.01
640.673
446.46
248.093
51.9858
-146.857
-342.539
-540.268
-736.148
-930.172
-1123.9
625.748
432.599
232.74
36.1325
-160.177
-358.371
-556.954
-753.234
-950.763
-1145.88
602.899
410.393
210.127
13.7959
-184.853
-389.521
-588.285
-784.379
-978.395
-1172.71
570.953
377.57
178.288
-12.2898
-215.537
-417.6
-615.772
-813.038
-1003.24
-1196.39
538.403
342.702
143.302
-49.8464
-247.274
-444.974
-636.348
-834.238
-1024.86
-1217.7
526.255
330.469
131.468
-65.7852
-261.881
-457.342
-649.303
-845.559
-1037.14
-1229.91
531.107
336.595
140.233
-62.9944
-260.477
-453.768
-649.243
-844.18
-1037.94
-1231.26
536.579
343.697
150.308
-54.398
-252.359
-444.292
-642.492
-836.57
-1031.49
-1225.11
531.67
338.453
148.243
-51.2223
-241.623
-427.153
-627.847
-822.918
-1018.28
-1212.9
506.598
312.196
123.875
-60.5491
-234.066
-411.428
-611.746
-808.039
-1004.52
-1200.65
474.257
277.365
84.1169
-87.5422
-242.441
-418.564
-612.778
-809.146
-1008.14
-1202.83
478.877
284.848
88.2297
-92.2184
-246.202
-425.301
-623.753
-821.369
-1021.41
-1216.3
503.193
312.887
115.589
-75.9189
-237.471
-435.788
-645.876
-843.851
-1046.16
-1239.8
519.155
328.468
125.43
-66.5141
-234.122
-442.054
-649.805
-847.146
-1058.07
-1254.14
531.466
341.189
141.198
-58.827
-240.603
-451.568
-662.09
-863.691
-1069.1
-1261.74
539.32
353.042
163.384
-44.2504
-242.541
-456.913
-664.588
-862.545
-1055.4
-1245.52
507.14
315.053
132.296
-67.277
-236.114
-430.289
-629.77
-826.721
-1017.37
-1207.17
451.561
252.419
57.0877
-116.994
-228.039
-364.012
-542.246
-744.885
-942.717
-1135.86
470.064
282.348
71.7834
-112.955
-221.485
-309.585
-449.282
-645.495
-851.124
-1056.97
439.079
252.153
82.1985
-106.851
-236.211
-325.512
-449.735
-620.285
-832.435
-1040.07
396.835
195.275
42.1196
-149.93
-262.063
-370.089
-481.813
-641.939
-853.455
-1057.69
286.975
72.7714
-96.2437
-254.855
-323.134
-424.377
-525.216
-693.447
-892.06
-1087.39
178.046
-37.4733
-251.295
-392.772
-424.632
-479.231
-540.076
-692.937
-885.342
-1079.96
227.9
30.706
-166.817
-344.208
-438.681
-483.577
-538.396
-669.109
-848.587
-1049.03
418.378
218.499
22.9167
-191.451
-343.014
-454.659
-562.213
-672.557
-844.42
-1048.38
522.883
343.093
106.193
-116.133
-274.713
-451.684
-607.172
-756.045
-946.056
-1146.4
506.996
447.28
136.77
-172.57
-353.252
-602.351
-809.96
-937.784
-1110.18
-1302.68
95.3969
-167.668
-422.367
-719.735
-873.54
-958.861
-1113.56
-1277.3
-1437.1
-1605.37
-160.919
-340.514
-597.986
-893.938
-1127.67
-1193.56
-1226.6
-1335.45
-1527.86
-1683.51
1003.06
807.697
612.559
417.378
222.203
27.0256
-168.153
-363.326
-558.536
-753.52
1003
807.735
612.62
417.417
222.245
27.0671
-168.114
-363.268
-558.497
-753.581
1003
807.781
612.666
417.45
222.287
27.1066
-168.085
-363.23
-558.461
-753.587
1003.02
807.82
612.688
417.473
222.311
27.1287
-168.068
-363.214
-558.433
-753.577
1003.02
807.831
612.682
417.482
222.318
27.1414
-168.05
-363.198
-558.405
-753.559
1003.02
807.827
612.666
417.477
222.308
27.1339
-168.052
-363.204
-558.402
-753.568
1003.06
807.847
612.672
417.474
222.294
27.1071
-168.087
-363.253
-558.451
-753.629
1003.24
807.954
612.71
417.47
222.254
27.0424
-168.174
-363.365
-558.568
-753.761
1003.86
808.368
612.873
417.484
222.168
26.9012
-168.362
-363.595
-558.812
-754.026
1005.95
809.762
613.339
417.498
221.929
26.5675
-168.759
-364.033
-559.265
-754.5
1009.94
812.594
614.395
417.48
221.401
25.8033
-169.628
-364.903
-560.124
-755.359
1009.56
811.965
613.798
416.478
220.018
24.1725
-171.313
-366.458
-561.589
-756.803
1006.41
809.549
612.649
415.653
218.933
22.6805
-172.972
-368.068
-563.168
-758.42
1004.99
808.739
612.236
415.576
218.402
21.8275
-174.263
-369.45
-564.592
-759.937
1006.67
811.215
614.131
416.851
217.959
21.3006
-175.517
-370.882
-566.268
-761.7
1008.04
812.745
617.04
417.799
217.724
20.6116
-176.357
-372.438
-568.086
-763.708
1003.95
809.464
609.236
418.93
213.578
17.7918
-181.835
-377.087
-572.841
-768.341
991.775
796.19
596.808
403.861
205.468
9.0823
-190.385
-385.148
-581.172
-776.247
984.302
787.236
591.295
395.455
197.995
2.13691
-199.481
-394.351
-590.98
-785.874
973.858
776.05
582.672
384.702
189.974
-6.58275
-207.938
-404.578
-601.441
-796.604
956.86
758.618
564.423
367.921
173.603
-22.8099
-220.965
-419.157
-614.923
-810.432
939.061
741.075
547.983
351.242
156.909
-42.4377
-235.573
-433.185
-628.052
-824.042
914.494
718.612
526.245
330.171
133.651
-64.0231
-255.978
-449.737
-643.317
-838.739
885.577
690.392
493.377
305.374
113.719
-77.5366
-273.978
-465.911
-658.87
-853.861
855.465
659.713
461.962
275.32
87.4406
-102.839
-300.129
-493.445
-685.981
-880.099
827.663
631.665
438.571
243.582
52.0275
-143.274
-338.626
-532.711
-725.206
-919.291
792.093
596.364
403.775
206.329
10.8383
-186.099
-380.369
-574.132
-767.476
-962.638
750.951
554.789
361.922
163.995
-32.6745
-230.048
-424.418
-617.78
-810.938
-1006.44
707.553
510
317.562
122.138
-72.1671
-268.372
-462.526
-656.036
-849.118
-1045.01
671.368
472.557
279.509
87.3078
-104.573
-298.762
-492.699
-686.408
-879.949
-1076.6
652.535
455.234
258.843
64.9705
-129.516
-322.88
-516.505
-710.927
-904.87
-1102.28
641.364
445.863
246.831
48.7783
-148.767
-342.922
-536.91
-731.457
-926.041
-1124.01
626.925
432.303
231.47
31.6268
-163.076
-359.224
-554.667
-749.264
-946.821
-1146.23
605.069
410.442
209.091
8.16057
-188.887
-390.091
-587.769
-781.141
-974.982
-1172.38
574.1
378.083
178.261
-17.7396
-219.125
-419.541
-615.676
-810.23
-999.974
-1195.87
542.277
343.795
144.014
-54.7488
-250.09
-446.689
-636.371
-831.679
-1021.63
-1216.74
530.835
333.373
132.345
-70.1891
-264.317
-458.233
-649.058
-843.455
-1034.04
-1228.85
535.382
340.242
140.839
-66.465
-262.284
-454.366
-648.883
-842.693
-1034.99
-1230.14
540.635
347.445
149.631
-57.2026
-253.159
-445.401
-642.221
-835.417
-1028.59
-1223.92
535.471
342.486
147.386
-53.3525
-241.097
-429.536
-628.767
-822.797
-1016.19
-1212.51
509.52
315.49
121.96
-64.1118
-232.874
-415.944
-614.011
-808.39
-1002.89
-1200.66
475.474
277.192
79.4626
-93.0436
-244.358
-424.283
-616.201
-809.133
-1006.71
-1202.71
480.84
285.809
84.3763
-94.8271
-249.791
-430.702
-626.27
-821.089
-1020.27
-1216.49
509.837
321.894
112.783
-75.1703
-244.038
-440.901
-647.264
-843.022
-1045.32
-1240.59
523.523
331.09
121.289
-67.5606
-241.851
-448.266
-652.275
-848.786
-1057.1
-1255.16
530.422
339.431
134.05
-64.3605
-247.03
-457.897
-667.705
-866.126
-1067.53
-1262.21
536.264
351.745
154.365
-52.9438
-245.388
-459.199
-668.2
-863.456
-1053.24
-1245.29
504.224
312.278
124.678
-77.672
-236.965
-431.594
-632.658
-827.545
-1015.74
-1206.79
449.057
246.65
51.7594
-128.856
-226.242
-356.82
-545.184
-743.077
-940.256
-1135
464.897
277.042
68.771
-121.172
-221.196
-308.05
-444.714
-642.958
-849.798
-1058.53
426.114
235.445
71.8778
-114.199
-236.989
-324.28
-449.149
-619.025
-833.186
-1043.05
390.392
188.351
25.538
-165.052
-258.446
-370.214
-477.126
-641.84
-850.681
-1057.5
297.915
79.3019
-94.0838
-250.293
-311.765
-422.966
-522.509
-693.814
-891.622
-1085.85
185.584
-30.2351
-251.561
-381.493
-400.88
-470.289
-520.42
-681.695
-871.566
-1069.34
214.368
18.2288
-170.437
-333.244
-406.011
-461.738
-500.498
-648.378
-817.828
-1029.93
386.243
198.255
18.5721
-178.67
-301.125
-421.883
-510.248
-644.049
-801.314
-1019.96
512.538
345.528
108.388
-103.257
-237.601
-431.899
-575.189
-742.839
-923.283
-1132.03
487.518
421.355
170.943
-144.694
-294.225
-573.107
-747.52
-911.187
-1066.65
-1273.15
108.711
-88.8521
-391.417
-681.298
-805.016
-942.774
-1095.31
-1288.72
-1443.79
-1617.78
-170.858
-274.874
-578.403
-931.09
-1096.56
-1239.08
-1213.11
-1315.2
-1513.38
-1643.25
)
;
    }
    inlet
    {
        type            calculated;
        value           nonuniform List<scalar> 
20
(
1003.06
807.694
612.554
417.374
222.199
27.0222
-168.156
-363.328
-558.537
-753.52
1003.06
807.696
612.557
417.377
222.202
27.0245
-168.154
-363.327
-558.536
-753.519
)
;
    }
    outlet
    {
        type            calculated;
        value           nonuniform List<scalar> 
20
(
-97.7258
-293.053
-488.396
-683.754
-879.112
-1074.47
-1269.83
-1465.22
-1660.9
-1856.66
-97.7265
-293.052
-488.396
-683.754
-879.112
-1074.47
-1269.83
-1465.22
-1660.91
-1856.67
)
;
    }
    heatWall
    {
        type            calculated;
        value           nonuniform List<scalar> 
240
(
-851.106
-851.106
-851.175
-851.17
-851.18
-851.176
-851.165
-851.165
-851.151
-851.148
-851.154
-851.155
-851.216
-851.216
-851.366
-851.354
-851.643
-851.624
-852.149
-852.108
-853.035
-852.976
-854.483
-854.422
-856.105
-856.041
-857.607
-857.553
-859.318
-859.299
-861.324
-861.307
-865.764
-865.879
-873.665
-873.79
-883.178
-883.386
-894.037
-894.165
-907.769
-907.967
-921.509
-921.621
-936.274
-936.341
-951.81
-951.602
-978.183
-977.896
-1017.42
-1017.12
-1060.73
-1060.45
-1104.29
-1104.18
-1142.82
-1142.73
-1174.51
-1174.36
-1199.78
-1199.9
-1221.64
-1221.68
-1243.67
-1243.86
-1270.33
-1270.18
-1293.97
-1293.69
-1315.17
-1314.68
-1327.36
-1326.82
-1328.7
-1328.13
-1322.52
-1321.93
-1310.51
-1310.32
-1298.37
-1298.37
-1300.52
-1300.44
-1314.07
-1314.14
-1337.71
-1338.12
-1352.08
-1352.65
-1359.55
-1359.83
-1343.17
-1343.07
-1304.77
-1304.62
-1233.35
-1232.94
-1155.05
-1155.87
-1138.49
-1140.07
-1155.33
-1155.3
-1184.69
-1183.99
-1175.01
-1169.73
-1142
-1132.41
-1139.11
-1124.69
-1240.62
-1233.25
-1393.25
-1378
-1706.29
-1712.32
-1771.49
-1750.73
1100.65
1100.65
1100.58
1100.58
1100.58
1100.59
1100.61
1100.61
1100.64
1100.62
1100.66
1100.62
1100.71
1100.67
1100.96
1100.87
1101.53
1101.48
1103.62
1103.56
1107.32
1107.47
1106.67
1107.02
1103.53
1103.88
1102.31
1102.53
1104.79
1104.49
1106.6
1106.03
1101.8
1101.73
1089.2
1089.43
1081.84
1081.99
1071.66
1071.64
1054.06
1054.45
1036.58
1036.75
1011.95
1012.18
982.821
983.194
952.709
953.089
924.596
925.172
888.071
889.282
845.98
847.81
802.934
804.522
767.531
768.602
749.468
750.036
738.62
738.976
723.814
724.413
701.221
702.3
669.527
671.077
637.164
639.067
625.192
627.45
629.968
632.072
635.393
637.366
630.412
632.266
605.112
606.546
572.352
572.929
577.161
578.111
602.646
605.947
618.057
620.193
629.02
628.445
636.348
634.806
604.196
602.719
548.799
547.361
566.643
563.875
533.688
527.09
493.063
489.677
387.344
393.042
277.608
281.54
322.511
315.364
508.578
491.513
618.252
612.656
600.128
589.882
196.58
203.016
-66.5931
-69.7107
)
;
    }
}


// ************************************************************************* //
