/*--------------------------------*- C++ -*----------------------------------*\
  =========                 |
  \\      /  F ield         | OpenFOAM: The Open Source CFD Toolbox
   \\    /   O peration     | Website:  https://openfoam.org
    \\  /    A nd           | Version:  8
     \\/     M anipulation  |
\*---------------------------------------------------------------------------*/
FoamFile
{
    version     2.0;
    format      ascii;
    class       volVectorField;
    location    "800";
    object      U;
}
// * * * * * * * * * * * * * * * * * * * * * * * * * * * * * * * * * * * * * //

dimensions      [0 1 -1 0 0 0 0];

internalField   nonuniform List<vector> 
1200
(
(0.0799389 -0.00539555 -0.00039024)
(0.0802157 -0.00390235 -0.00137215)
(0.0800031 -0.00303725 -0.00258827)
(0.0796287 -0.00244066 -0.00268999)
(0.0791959 -0.00204234 -0.000265551)
(0.0788272 -0.00161397 0.00445237)
(0.078262 -0.0011742 0.00988803)
(0.0778698 -0.000827133 0.021282)
(0.0766398 -0.000916034 0.0289366)
(0.0764638 -0.00253047 0.0436683)
(0.0811487 -0.00665249 0.0717007)
(0.086481 -0.00466601 0.0744057)
(0.0908243 0.00207704 0.045629)
(0.0894172 0.00396596 0.0292481)
(0.0788961 0.00543205 0.0755511)
(0.0812477 -0.00236897 0.111054)
(0.119811 -0.0196256 0.111303)
(0.152576 -0.0155334 0.117717)
(0.175853 -0.00978382 0.149433)
(0.211007 -0.00792612 0.210854)
(0.246225 -0.00562608 0.251362)
(0.283494 -0.00733029 0.289063)
(0.326292 -0.0117612 0.307075)
(0.359689 -0.0102794 0.307724)
(0.388061 -0.00108488 0.303086)
(0.427357 0.00330159 0.285761)
(0.477509 0.00490329 0.251735)
(0.52545 0.00766376 0.206055)
(0.558857 0.0116058 0.169403)
(0.57003 0.0114369 0.1462)
(0.572008 0.00374406 0.135772)
(0.588028 -0.00460607 0.133288)
(0.619978 -0.00862949 0.12915)
(0.657569 -0.0105281 0.117271)
(0.69515 -0.0106898 0.0974028)
(0.724499 -0.00796919 0.0716012)
(0.739845 -0.00610096 0.0403382)
(0.744977 -0.00740266 0.0111682)
(0.751932 -0.0107818 -0.0168182)
(0.775051 -0.0133938 -0.0421604)
(0.813761 -0.0121301 -0.0612692)
(0.842138 -0.00552135 -0.0694063)
(0.833837 -0.00368893 -0.083025)
(0.822712 -0.0113533 -0.128007)
(0.830308 -0.014351 -0.162238)
(0.844266 -0.016746 -0.163408)
(0.863445 -0.0203647 -0.149823)
(0.886274 -0.0179763 -0.135293)
(0.877453 -0.0138682 -0.126323)
(0.862829 -0.0251725 -0.100402)
(0.915629 -0.0286966 -0.0197879)
(0.950955 -0.0248495 0.0191423)
(1.10051 0.000859039 -0.0438654)
(1.09971 0.0332736 -0.0859988)
(1.10391 0.0331445 -0.0214684)
(0.908262 0.00801821 0.166665)
(0.949822 -0.011027 0.210596)
(0.961165 -0.0675772 0.34136)
(0.969708 -0.0983191 0.356079)
(1.1402 -0.167937 0.422407)
(0.0801093 0.00210441 -0.000276393)
(0.0799818 0.00254461 -0.00112005)
(0.0798736 0.00242394 -0.00246315)
(0.0797494 0.00225399 -0.00303603)
(0.0796066 0.00211817 -0.000993432)
(0.0794678 0.00195809 0.00412572)
(0.0787223 0.00176685 0.0120712)
(0.0774405 0.00183379 0.033061)
(0.0729037 0.0025739 0.0675572)
(0.0666161 0.001409 0.226679)
(0.0589019 9.8086e-05 0.477235)
(0.0190295 -0.000855479 0.525429)
(0.00053969 0.000761681 0.346975)
(-0.000740373 0.00757474 0.22134)
(-0.00620957 0.00235996 0.0748874)
(0.0389322 -0.0103211 0.00548662)
(0.0870838 -0.00377523 0.0829284)
(0.116132 0.000583542 0.181232)
(0.118852 -0.00971342 0.342262)
(0.129988 -0.0189107 0.526075)
(0.146542 -0.0216523 0.606222)
(0.166445 -0.0259228 0.590463)
(0.195471 -0.0197032 0.528458)
(0.225626 -0.0135819 0.432159)
(0.242245 -0.0242794 0.326398)
(0.251568 -0.0399489 0.248492)
(0.266752 -0.0454338 0.189183)
(0.282443 -0.0439519 0.136019)
(0.294824 -0.0359354 0.106395)
(0.304012 -0.0224554 0.0979567)
(0.307121 -0.0116277 0.114793)
(0.299863 -0.010062 0.14736)
(0.289271 -0.0121137 0.168765)
(0.274966 -0.0137482 0.171498)
(0.272454 -0.0132888 0.157451)
(0.276306 -0.00682673 0.133483)
(0.280926 0.00278953 0.0825958)
(0.284511 0.00685385 0.0231658)
(0.286287 -0.00286231 -0.0201638)
(0.288541 -0.0200975 -0.0385457)
(0.353144 -0.0224856 -0.0692959)
(0.419194 0.000885772 -0.0815538)
(0.407354 0.0182193 -0.0947)
(0.338325 0.0226558 -0.222474)
(0.276142 0.0190693 -0.25375)
(0.250142 0.0164165 -0.209893)
(0.246188 0.0100018 -0.185388)
(0.300301 0.00618925 -0.119468)
(0.429565 0.0281318 -0.0471377)
(0.447098 0.0172547 -0.0267388)
(0.312005 -0.0040903 0.190804)
(0.37042 -0.104162 0.0511095)
(0.443031 -0.0855507 -0.187267)
(0.562482 0.00409461 -0.225602)
(0.61044 0.0160471 -0.0997565)
(0.518448 -0.00648578 0.127769)
(0.540802 -0.000215437 0.165611)
(0.430212 0.0611711 1.11445)
(0.397646 0.0930587 0.768864)
(0.584492 0.207455 -0.235778)
(0.0797653 -0.000402821 -0.000323532)
(0.0795777 -0.00080747 -0.00197756)
(0.0796024 -0.00104285 -0.00451272)
(0.0796987 -0.0010501 -0.00596184)
(0.0797607 -0.000920241 -0.0042322)
(0.0796915 -0.000670986 0.000825648)
(0.0793207 -0.000146002 0.00766055)
(0.078949 0.00144265 0.0226665)
(0.0775677 0.00435868 0.0460189)
(0.0762185 0.00930133 0.145133)
(0.0732226 0.0152074 0.343438)
(0.0524609 0.0137619 0.424626)
(0.0251744 0.00548311 0.288519)
(-0.00736465 0.00627857 0.12557)
(0.0174236 -0.0133492 -0.223757)
(0.0380937 -0.0146486 -0.331337)
(0.0504021 -0.034456 -0.242616)
(0.0544212 -0.0128516 -0.0632909)
(0.0731854 0.000152014 0.0763348)
(0.0344315 -0.0080758 0.2874)
(0.0269169 -0.0149291 0.306869)
(0.00435032 -0.0235577 0.217907)
(-0.0223076 -0.03627 0.163262)
(0.00583331 -0.0436211 0.200149)
(0.0224258 -0.0260011 0.251828)
(-0.0607796 -0.0108673 0.250687)
(-0.155629 -0.00877277 0.264772)
(-0.245081 -0.00661968 0.288169)
(-0.319714 -0.0019909 0.314658)
(-0.371744 0.00597637 0.322419)
(-0.400585 0.0128176 0.30812)
(-0.418341 0.0123218 0.279237)
(-0.433715 0.00570432 0.24893)
(-0.445456 -0.00872618 0.225642)
(-0.452748 -0.0223044 0.20693)
(-0.48014 -0.0194661 0.208246)
(-0.523215 -0.011455 0.234249)
(-0.549823 -0.00916984 0.268384)
(-0.553663 -0.0135941 0.291382)
(-0.543894 -0.0188732 0.303)
(-0.526289 -0.0149572 0.316987)
(-0.491568 0.00904072 0.31169)
(-0.461909 0.0370687 0.270139)
(-0.445041 0.0415566 0.244466)
(-0.416467 0.0167611 0.239925)
(-0.335307 -0.00236207 0.188822)
(-0.255446 -0.026916 0.115186)
(-0.122073 -0.0476882 0.0616345)
(0.0486689 -0.00290393 0.114517)
(0.217485 0.02085 0.0633998)
(0.0810326 -0.00233256 0.205914)
(-0.0291925 -0.0502945 -0.26624)
(-0.207226 -0.0619532 -0.634107)
(-0.188113 -0.0166956 -0.498808)
(-0.0240267 0.0507384 -0.276776)
(-0.190021 0.0380476 -0.442905)
(-0.317721 0.0358372 -0.581896)
(-0.360965 0.0610442 -0.684213)
(-0.4461 0.0064957 -0.711423)
(-0.414893 -0.0531029 -0.654312)
(0.0799634 4.70082e-05 -0.000291916)
(0.0799437 0.000351402 -0.0015232)
(0.0799996 0.000688532 -0.00310382)
(0.0800065 0.00100057 -0.00365883)
(0.0799642 0.00128998 -0.00189236)
(0.0799769 0.00159644 0.00214917)
(0.0796302 0.00212164 0.00681699)
(0.0791484 0.00343567 0.0175684)
(0.0780481 0.00598924 0.0354228)
(0.0778892 0.0109218 0.117227)
(0.0834511 0.0163253 0.2831)
(0.0802265 0.0167561 0.353312)
(0.0654115 0.0133347 0.299865)
(0.0418425 0.0050475 0.202675)
(0.0261318 -0.00702659 -0.172081)
(0.00114083 -0.0197595 -0.468465)
(-0.0493976 -0.00460368 -0.314488)
(-0.154586 0.00114906 0.13573)
(-0.213026 0.0020519 0.223762)
(-0.256815 -0.00679125 0.235489)
(-0.307512 -0.0131377 0.23423)
(-0.358348 -0.0152353 0.245484)
(-0.41075 -0.0202493 0.263363)
(-0.469907 -0.0218407 0.287725)
(-0.529808 0.00253126 0.319671)
(-0.581647 0.0226475 0.357454)
(-0.645131 0.0236915 0.393382)
(-0.704555 0.0193782 0.425484)
(-0.752662 0.0154165 0.451414)
(-0.783892 0.0155761 0.467448)
(-0.795275 0.0171855 0.469115)
(-0.787532 0.0137248 0.450438)
(-0.759687 0.00629364 0.400587)
(-0.707835 -0.000309867 0.301217)
(-0.653761 0.00539921 0.146456)
(-0.672367 0.0104948 0.0240358)
(-0.724782 0.010723 -0.020758)
(-0.747962 0.00566617 -0.0548619)
(-0.759677 -0.0130205 -0.084877)
(-0.771319 -0.0334615 -0.108653)
(-0.787742 -0.0391324 -0.125291)
(-0.812096 -0.0115374 -0.150784)
(-0.828084 0.0332995 -0.205112)
(-0.854875 0.0477207 -0.294505)
(-0.891506 0.0164539 -0.3913)
(-0.912324 -0.021115 -0.467825)
(-0.913136 -0.0426626 -0.533551)
(-0.907686 -0.0465743 -0.60059)
(-0.89102 -0.0290264 -0.659396)
(-0.84702 0.0197949 -0.717979)
(-0.877437 0.0303793 -0.846551)
(-0.929936 -0.00139478 -1.01459)
(-0.949123 -0.065662 -1.15397)
(-0.938258 -0.0585329 -1.11476)
(-0.801547 0.0447856 -0.931092)
(-0.781896 0.10781 -0.880704)
(-0.854793 0.136651 -0.84543)
(-0.892328 0.156511 -0.760038)
(-0.890874 0.10503 -0.507037)
(-0.894608 0.11233 -0.17456)
(0.0799494 9.15254e-06 -0.000282716)
(0.0799023 -6.43861e-06 -0.00163077)
(0.0799273 -9.12589e-05 -0.00353154)
(0.0799646 -0.000149949 -0.0045378)
(0.0800095 -8.09498e-05 -0.00342188)
(0.0800722 0.000216599 -4.05781e-05)
(0.0800514 0.000723265 0.00337071)
(0.0801402 0.00243354 0.0091363)
(0.0809285 0.00594417 0.0173265)
(0.0836466 0.013326 0.0588775)
(0.0923224 0.0203208 0.168686)
(0.0984128 0.0195784 0.24652)
(0.0975502 0.0142487 0.24982)
(0.0922238 0.0110605 0.209181)
(0.076686 0.0173268 0.0942816)
(0.056363 0.0178145 -0.241662)
(0.0213542 0.0402455 -0.387135)
(-0.00779856 0.0335637 -0.23716)
(-0.0203377 0.0361534 -0.246963)
(-0.0177229 0.0308417 -0.148711)
(-0.0801835 0.024061 0.085093)
(-0.170866 0.0146283 0.181779)
(-0.24486 0.00038042 0.231487)
(-0.306274 -0.00962674 0.260573)
(-0.360712 0.0116329 0.27471)
(-0.415728 0.034485 0.290507)
(-0.463452 0.0393021 0.303901)
(-0.504122 0.0355524 0.31422)
(-0.535329 0.0299212 0.317991)
(-0.550877 0.0263624 0.315498)
(-0.546977 0.0236435 0.298558)
(-0.522908 0.0194752 0.25285)
(-0.484169 0.0196426 0.175285)
(-0.45683 0.0298357 0.074646)
(-0.496593 0.0277954 -0.011825)
(-0.547772 0.00695766 -0.0656329)
(-0.602084 -0.0043931 -0.105866)
(-0.641518 -0.011703 -0.14247)
(-0.669658 -0.0190238 -0.176138)
(-0.69902 -0.0270206 -0.214044)
(-0.726537 -0.0238131 -0.251533)
(-0.759123 0.00730137 -0.28463)
(-0.777226 0.042484 -0.320734)
(-0.782683 0.0498618 -0.379522)
(-0.78425 0.0156877 -0.463724)
(-0.798316 -0.0221501 -0.561368)
(-0.825748 -0.0476055 -0.674641)
(-0.8706 -0.0596517 -0.79995)
(-0.929594 -0.0504962 -0.939436)
(-0.978702 -0.00970769 -1.07159)
(-1.01616 0.00812387 -1.21521)
(-1.0575 -0.0178885 -1.38246)
(-1.10647 -0.0644636 -1.51622)
(-1.15034 -0.0642488 -1.61034)
(-1.10928 0.0208351 -1.62461)
(-1.02702 0.0983447 -1.59561)
(-1.03075 0.135184 -1.59127)
(-1.05547 0.119842 -1.61653)
(-1.09716 0.06637 -1.50898)
(-1.1643 0.0921244 -1.28564)
(0.0799598 4.81117e-05 -0.000257734)
(0.0799401 0.000118021 -0.00151521)
(0.0799915 0.000332531 -0.00322836)
(0.0800409 0.000653759 -0.00422757)
(0.0801129 0.00103504 -0.00383349)
(0.0802733 0.00151303 -0.00158024)
(0.0804966 0.00223013 0.000488674)
(0.080885 0.0036787 0.00295546)
(0.0820516 0.00626465 0.00583803)
(0.0858664 0.0113684 0.0244078)
(0.0967196 0.016766 0.0850264)
(0.108719 0.0164421 0.142641)
(0.114205 0.0126719 0.166126)
(0.112922 0.00841642 0.170909)
(0.105709 0.00712116 0.148509)
(0.100172 0.0259747 -0.00561868)
(0.0846891 0.0333459 -0.215537)
(0.0753373 0.0311654 -0.316416)
(0.0730054 0.0299577 -0.42942)
(0.0671147 0.0333963 -0.510617)
(0.0596749 0.0363489 -0.378893)
(0.0449791 0.0372485 -0.212487)
(0.0455316 0.0262353 -0.0955282)
(-0.0304075 0.0218766 0.0960535)
(-0.106842 0.0406573 0.143226)
(-0.159212 0.0553323 0.181924)
(-0.188861 0.0531879 0.198791)
(-0.20826 0.0458068 0.205485)
(-0.224141 0.0360252 0.204038)
(-0.232942 0.0275644 0.212985)
(-0.238405 0.0219271 0.236985)
(-0.242978 0.0177903 0.247544)
(-0.246056 0.0184129 0.238952)
(-0.230244 0.0235184 0.212323)
(-0.205356 0.0261028 0.186139)
(-0.193922 0.0311732 0.154288)
(-0.210695 0.0247752 0.142334)
(-0.243276 0.011822 0.151516)
(-0.294797 -0.00243732 0.150065)
(-0.326264 -0.0144926 0.130493)
(-0.34667 -0.01849 0.0642463)
(-0.408208 -0.0065903 -0.0290932)
(-0.451929 0.0245984 -0.0893257)
(-0.435078 0.0235166 -0.103164)
(-0.37491 -0.0158817 -0.0902544)
(-0.348828 -0.0319979 -0.149914)
(-0.396777 -0.0428521 -0.300157)
(-0.463242 -0.0447252 -0.461665)
(-0.554969 -0.0306002 -0.678111)
(-0.644983 0.00662618 -0.844713)
(-0.712275 0.0228375 -0.968347)
(-0.764835 -0.00811174 -1.05683)
(-0.831336 -0.063968 -1.17024)
(-0.894823 -0.0843903 -1.29762)
(-0.917962 -0.0225747 -1.39404)
(-0.860547 0.0679486 -1.44232)
(-0.820302 0.143187 -1.38413)
(-0.800874 0.161516 -1.30831)
(-0.819844 0.159854 -1.08054)
(-0.93667 0.187845 -0.834804)
(0.0799878 1.01137e-05 -0.000212338)
(0.0800329 -0.000223427 -0.00121381)
(0.0801626 -0.000413397 -0.00238993)
(0.0802406 -0.000487847 -0.00298099)
(0.0803139 -0.000409767 -0.00288648)
(0.0805181 -0.000123466 -0.00156494)
(0.0809411 0.000485739 -0.000492102)
(0.0818315 0.00194508 -9.17935e-05)
(0.0837942 0.00459905 -0.000560462)
(0.0883012 0.00950259 0.00348856)
(0.098671 0.0147498 0.0250905)
(0.11204 0.0146338 0.0530912)
(0.121423 0.0117922 0.0697495)
(0.126544 0.0112456 0.0763317)
(0.125455 0.0166885 0.073236)
(0.128283 0.0283362 0.0382922)
(0.13643 0.0435769 -0.0612698)
(0.14265 0.0396408 -0.151339)
(0.145958 0.0420384 -0.23053)
(0.143475 0.0431598 -0.345421)
(0.146598 0.0368091 -0.399081)
(0.151142 0.0289523 -0.389245)
(0.147304 0.0234012 -0.34427)
(0.125352 0.0386899 -0.211966)
(0.1142 0.0536079 -0.0942028)
(0.10965 0.0567376 -0.00771791)
(0.102292 0.051356 0.0349549)
(0.104096 0.0434391 0.0474668)
(0.110855 0.0338136 0.0231888)
(0.116368 0.0260069 -0.0155754)
(0.110529 0.0234571 -0.0439844)
(0.123602 0.0224749 -0.0676927)
(0.132172 0.0208845 -0.0596069)
(0.141055 0.0281473 0.011511)
(0.130103 0.0318192 0.0715335)
(0.124707 0.0274518 0.114688)
(0.120525 0.0188413 0.111718)
(0.111399 0.0140617 0.100888)
(0.104317 0.0112901 0.0911701)
(0.0896553 0.00827615 0.131812)
(0.053358 0.0135518 0.207134)
(0.00813528 0.0231377 0.228116)
(0.00228787 0.0323346 0.208977)
(0.0987641 0.0164627 0.264988)
(0.153849 0.00233362 0.35048)
(0.131118 -0.0088936 0.388778)
(0.113375 -0.0124994 0.386179)
(0.0769275 -0.0251264 0.308043)
(0.0725169 -0.0169839 0.125006)
(-0.100706 0.0182102 -0.420564)
(-0.113126 0.0271249 -0.619044)
(-0.120011 0.00748814 -0.866524)
(-0.16734 -0.0350414 -1.07599)
(-0.236558 -0.0636737 -1.46209)
(-0.324519 -0.0329926 -1.75968)
(-0.357269 0.0280445 -1.73678)
(-0.355252 0.0903766 -1.56738)
(-0.285461 0.100247 -1.54207)
(-0.292357 0.107199 -0.944082)
(-0.270643 0.175866 -0.726406)
(0.0798123 0.000434756 -0.000154425)
(0.0797382 0.000870288 -0.00128397)
(0.0798595 0.00119205 -0.00286976)
(0.0799992 0.00138051 -0.00405689)
(0.0801881 0.00155777 -0.00502563)
(0.0805448 0.00179597 -0.00499358)
(0.0811625 0.00219366 -0.00497262)
(0.0823506 0.00307867 -0.00585442)
(0.0848041 0.00474147 -0.0074555)
(0.0897526 0.00766894 -0.0093202)
(0.0994166 0.0107133 -0.00709827)
(0.111783 0.0104148 -0.000904736)
(0.121522 0.00827884 0.00268748)
(0.128987 0.00680882 0.00534677)
(0.135123 0.00788315 0.010606)
(0.146734 0.0200427 0.012875)
(0.168386 0.0297599 -0.0149308)
(0.187918 0.0290541 -0.0625916)
(0.202566 0.0277933 -0.110871)
(0.214099 0.0296635 -0.180548)
(0.227293 0.0287062 -0.233326)
(0.238926 0.0264425 -0.282078)
(0.24722 0.0206188 -0.321543)
(0.250971 0.0298844 -0.317844)
(0.268163 0.0434909 -0.28068)
(0.292468 0.0482266 -0.245527)
(0.319058 0.0460744 -0.223007)
(0.347094 0.0394304 -0.222219)
(0.371947 0.0316477 -0.250213)
(0.389184 0.0250188 -0.289151)
(0.398598 0.0220316 -0.308669)
(0.405672 0.0219968 -0.319263)
(0.405728 0.0223105 -0.316092)
(0.395968 0.0271387 -0.286838)
(0.397293 0.036913 -0.238544)
(0.41813 0.0345385 -0.207862)
(0.437974 0.0248591 -0.195163)
(0.445271 0.0161809 -0.184928)
(0.440622 0.0108551 -0.174245)
(0.427047 0.0118251 -0.14966)
(0.411222 0.0180519 -0.108321)
(0.395222 0.0171038 -0.0658621)
(0.360463 0.0191161 -0.0282639)
(0.362256 0.00863723 -0.016303)
(0.434138 -0.00665737 0.0464994)
(0.481106 -0.00936577 0.0734613)
(0.512938 -0.0135645 0.0558289)
(0.502242 -0.0196802 0.0438152)
(0.49403 -0.00217911 0.0231705)
(0.474777 0.0279539 -0.0749355)
(0.465007 0.0130624 -0.151245)
(0.451306 -0.000594559 -0.201787)
(0.430953 -0.0249855 -0.243082)
(0.360877 -0.0364716 -0.46406)
(0.28797 -0.00308592 -0.809151)
(0.280727 0.0496404 -1.23109)
(0.291353 0.0877761 -1.31974)
(0.390642 0.114534 -1.46637)
(0.386419 0.126827 -1.15002)
(0.574709 0.0885881 -1.02248)
(0.0801598 -0.0020606 -0.000136746)
(0.0801652 -0.00247697 -0.000682331)
(0.0802135 -0.00231622 -0.00131894)
(0.0802394 -0.00207067 -0.00168164)
(0.0803292 -0.00176823 -0.00238774)
(0.080631 -0.00140332 -0.00275163)
(0.0813062 -0.000922643 -0.00352696)
(0.0826577 -8.29961e-05 -0.00614971)
(0.0854563 0.00135919 -0.0104105)
(0.0908189 0.0036597 -0.0171718)
(0.100185 0.00606214 -0.0243079)
(0.111953 0.00651258 -0.0305963)
(0.12244 0.00577788 -0.0384035)
(0.131212 0.00546416 -0.0468731)
(0.139127 0.00747987 -0.0515096)
(0.154013 0.0137166 -0.0488551)
(0.181731 0.0198839 -0.0400822)
(0.212695 0.0225951 -0.0422844)
(0.240808 0.0249314 -0.049156)
(0.266931 0.0266315 -0.0747387)
(0.292 0.0232824 -0.102331)
(0.313067 0.0194849 -0.136767)
(0.330162 0.0158775 -0.174694)
(0.349241 0.0208899 -0.224242)
(0.385389 0.0278249 -0.259851)
(0.430795 0.0305191 -0.280917)
(0.476185 0.0302743 -0.295179)
(0.518466 0.0270254 -0.309015)
(0.553424 0.0226741 -0.32907)
(0.579097 0.0181531 -0.353349)
(0.597391 0.0153511 -0.3719)
(0.613614 0.0148054 -0.389082)
(0.628677 0.0151246 -0.40114)
(0.642193 0.0146643 -0.401252)
(0.665934 0.0169472 -0.39399)
(0.696728 0.0171849 -0.38991)
(0.719084 0.0144476 -0.388277)
(0.730294 0.0115314 -0.386384)
(0.73495 0.0101247 -0.384101)
(0.738087 0.0109932 -0.374964)
(0.744559 0.0153867 -0.358175)
(0.756354 0.020157 -0.336345)
(0.772462 0.0231737 -0.31252)
(0.79633 0.0213542 -0.295338)
(0.82981 0.0145969 -0.285429)
(0.847428 0.00359058 -0.286754)
(0.84035 0.000598072 -0.293711)
(0.823821 0.00619856 -0.303582)
(0.815277 0.0210027 -0.307847)
(0.843084 0.0344779 -0.295671)
(0.893086 0.031164 -0.287011)
(0.922818 0.024183 -0.304619)
(0.946061 0.0171407 -0.312416)
(0.930069 0.00674743 -0.391136)
(0.900749 0.00163354 -0.566794)
(0.903822 0.00850621 -0.839746)
(0.941495 0.0217467 -0.995369)
(1.02684 0.0302831 -1.2192)
(1.09042 0.0446168 -1.15823)
(1.25933 0.0644097 -1.16992)
(0.0799932 0.00542615 4.33069e-05)
(0.0804078 0.00396505 -0.000604869)
(0.0803474 0.00315239 -0.00118423)
(0.0800955 0.0026098 -0.00125204)
(0.0798649 0.0022493 -0.00166941)
(0.0798271 0.00201415 -0.0016092)
(0.0801915 0.00187374 -0.0016739)
(0.0813191 0.00185743 -0.00321128)
(0.0839945 0.00199149 -0.00586003)
(0.0893183 0.00231852 -0.0112529)
(0.0986222 0.00264947 -0.0184455)
(0.110382 0.00250377 -0.02507)
(0.121139 0.00209022 -0.0313816)
(0.130498 0.00192299 -0.0365318)
(0.139773 0.00238918 -0.0391077)
(0.156182 0.00487666 -0.0412629)
(0.185908 0.00745076 -0.0348952)
(0.221946 0.00807249 -0.0303828)
(0.258981 0.00838522 -0.0250888)
(0.298717 0.00911305 -0.0272057)
(0.339935 0.00910706 -0.0294443)
(0.378788 0.00900282 -0.0356587)
(0.412871 0.0076667 -0.0432471)
(0.443501 0.00835417 -0.0623454)
(0.48262 0.00944941 -0.0873061)
(0.52981 0.00939561 -0.111862)
(0.578655 0.00835945 -0.132418)
(0.624497 0.00651482 -0.145961)
(0.662915 0.00508103 -0.155683)
(0.692949 0.00407194 -0.163939)
(0.716133 0.0037298 -0.166942)
(0.736982 0.00411971 -0.170722)
(0.75671 0.00510751 -0.1731)
(0.775627 0.00431303 -0.180886)
(0.80151 0.00495505 -0.191417)
(0.832817 0.00559951 -0.203284)
(0.858787 0.00498842 -0.212912)
(0.876513 0.00323251 -0.220824)
(0.888412 0.00105534 -0.228407)
(0.898731 0.00031829 -0.23173)
(0.913651 0.0013795 -0.233543)
(0.936432 0.00147183 -0.235813)
(0.964441 0.0023896 -0.235672)
(0.994254 0.00517634 -0.231834)
(1.02178 0.00881107 -0.226874)
(1.03571 0.00570389 -0.224898)
(1.03353 -0.00191289 -0.225981)
(1.02405 -0.00856535 -0.227929)
(1.02673 -0.00378598 -0.23379)
(1.06599 0.00701616 -0.228723)
(1.11888 0.00685506 -0.21669)
(1.15714 0.00185501 -0.218582)
(1.18121 -0.00569281 -0.225235)
(1.18523 -0.00529138 -0.271117)
(1.18782 0.00998955 -0.358105)
(1.23416 0.0304788 -0.498729)
(1.31728 0.0369054 -0.590287)
(1.42301 0.04017 -0.739211)
(1.51416 0.0364857 -0.730106)
(1.68234 0.0232782 -0.868457)
(0.0799517 -0.00535696 -0.000460283)
(0.0802471 -0.00378563 -0.00143883)
(0.0800911 -0.00283015 -0.00263917)
(0.0797691 -0.00219005 -0.00272805)
(0.0793312 -0.00186521 -0.000298631)
(0.0788223 -0.00172783 0.00443501)
(0.0781581 -0.00153635 0.00988164)
(0.0776747 -0.00133861 0.0212168)
(0.0761103 -0.00149588 0.0288147)
(0.0756406 -0.00333103 0.0434417)
(0.0809928 -0.00752927 0.0714901)
(0.0863063 -0.00592333 0.0742367)
(0.091144 0.000642548 0.0445689)
(0.0900057 0.00255385 0.028055)
(0.0793238 0.00461041 0.0745454)
(0.0817721 -0.00257116 0.111343)
(0.121032 -0.019417 0.110841)
(0.154452 -0.0164219 0.116532)
(0.177653 -0.0106581 0.14833)
(0.21305 -0.00865945 0.210356)
(0.248747 -0.00641507 0.251046)
(0.285866 -0.00810515 0.289263)
(0.328772 -0.0128029 0.30752)
(0.363169 -0.0110967 0.307813)
(0.391441 -0.00234157 0.302847)
(0.429441 0.0022124 0.285635)
(0.478897 0.00383638 0.251738)
(0.527623 0.00659067 0.206417)
(0.56354 0.0111569 0.170139)
(0.577141 0.0127317 0.147032)
(0.577651 0.00635275 0.135981)
(0.588535 -0.00246605 0.132555)
(0.615741 -0.00801129 0.12796)
(0.651393 -0.0109666 0.116214)
(0.689208 -0.0112315 0.0966906)
(0.719898 -0.00783314 0.0710102)
(0.736376 -0.00555549 0.0396874)
(0.74319 -0.00665226 0.0104775)
(0.758673 -0.0095196 -0.0172824)
(0.789178 -0.0115411 -0.0424801)
(0.830956 -0.00946691 -0.0615715)
(0.853008 -0.00192212 -0.0698848)
(0.836413 3.06739e-05 -0.0840475)
(0.818014 -0.008734 -0.129929)
(0.821228 -0.0106984 -0.16488)
(0.829479 -0.0125215 -0.165882)
(0.839672 -0.0156943 -0.15131)
(0.845941 -0.0130195 -0.136305)
(0.825395 -0.00955166 -0.128147)
(0.809063 -0.0179571 -0.104217)
(0.86772 -0.0170792 -0.0205431)
(0.956744 -0.0184987 0.019164)
(1.07131 0.016839 -0.0423768)
(0.979857 0.0468127 -0.0919163)
(0.992198 0.0413366 -0.0187589)
(0.973336 0.0147924 0.164456)
(1.04897 -0.0106606 0.210561)
(1.11214 -0.0716356 0.343456)
(1.1577 -0.0785472 0.340766)
(1.2274 -0.170715 0.414961)
(0.0801055 0.00210949 -0.000182988)
(0.0799795 0.00250494 -0.00101327)
(0.0799284 0.00232758 -0.00237769)
(0.0798999 0.00213745 -0.00297627)
(0.0798628 0.00204014 -0.00094604)
(0.0796762 0.00200895 0.00415057)
(0.0789476 0.00187662 0.0120693)
(0.0775948 0.0018976 0.0329634)
(0.0730421 0.00258959 0.0672055)
(0.0666767 0.00154439 0.224937)
(0.0591073 0.000144867 0.476312)
(0.0194766 -0.000857248 0.526544)
(0.000861907 0.000908176 0.348078)
(-0.000224097 0.00766956 0.221301)
(-0.0054317 0.00274319 0.0755877)
(0.0427316 -0.00891333 -0.00652403)
(0.089184 -0.002291 0.0760978)
(0.118559 0.00202228 0.176181)
(0.120947 -0.00911375 0.338473)
(0.131709 -0.0188138 0.523714)
(0.148187 -0.02139 0.605049)
(0.16773 -0.0258483 0.58984)
(0.196481 -0.0204068 0.52852)
(0.227266 -0.0136576 0.434523)
(0.245232 -0.0229004 0.329565)
(0.254275 -0.0386905 0.250456)
(0.268533 -0.0447952 0.190527)
(0.283914 -0.0439053 0.137732)
(0.295765 -0.0369144 0.109143)
(0.305092 -0.0240174 0.100373)
(0.312519 -0.0121715 0.113181)
(0.306997 -0.0087437 0.1439)
(0.299048 -0.0100515 0.166126)
(0.283179 -0.0115569 0.17097)
(0.277606 -0.0110792 0.158499)
(0.280858 -0.00345533 0.134998)
(0.288132 0.00721086 0.0826551)
(0.29566 0.0111627 0.0207338)
(0.316516 0.00167081 -0.0239724)
(0.319861 -0.0150505 -0.0450489)
(0.381371 -0.0161854 -0.0809032)
(0.432095 0.00675877 -0.0872229)
(0.409674 0.0235322 -0.0963354)
(0.328944 0.0263638 -0.224198)
(0.261378 0.0214782 -0.253518)
(0.230105 0.0209353 -0.210075)
(0.215601 0.0179683 -0.188209)
(0.257402 0.0192343 -0.12367)
(0.363722 0.0415289 -0.0480254)
(0.343145 0.0266733 -0.0528926)
(0.344937 -0.0187594 0.193998)
(0.406237 -0.0999994 0.0631786)
(0.409016 -0.0762664 -0.175143)
(0.511574 0.00854011 -0.223324)
(0.553444 0.0169659 -0.0960291)
(0.589425 -0.00970879 0.121432)
(0.678129 0.00767292 0.149935)
(0.497666 0.0686241 1.08527)
(0.494915 0.128072 0.745947)
(0.463163 0.198598 -0.278033)
(0.0797536 -0.000408091 -0.000365344)
(0.0795655 -0.000846828 -0.00203611)
(0.0796632 -0.00109446 -0.00456251)
(0.0798559 -0.00109001 -0.00600027)
(0.0799996 -0.000961099 -0.00426514)
(0.079958 -0.000739185 0.000783941)
(0.0795385 -0.00027803 0.00761297)
(0.0790164 0.00116695 0.0225215)
(0.0775515 0.00407348 0.0456458)
(0.0761771 0.0092145 0.143446)
(0.0733798 0.015139 0.341906)
(0.0528302 0.0137246 0.425097)
(0.0256677 0.00566285 0.2913)
(-0.00687549 0.00627398 0.127261)
(0.01769 -0.0137255 -0.22515)
(0.0380178 -0.0149324 -0.331006)
(0.0496399 -0.0360498 -0.241432)
(0.0517399 -0.0151253 -0.062411)
(0.078161 0.000131621 0.0748184)
(0.0381457 -0.00737501 0.28803)
(0.0292492 -0.0143899 0.307686)
(0.00625054 -0.0230461 0.219651)
(-0.0208396 -0.0360009 0.162925)
(0.00131742 -0.0448236 0.199847)
(0.0237107 -0.0275706 0.253008)
(-0.0546583 -0.0114454 0.251531)
(-0.149267 -0.00865368 0.264708)
(-0.238918 -0.00650059 0.287505)
(-0.314275 -0.002739 0.313328)
(-0.36805 0.00497037 0.320466)
(-0.398056 0.0129991 0.30585)
(-0.41407 0.0137365 0.277108)
(-0.428347 0.00756815 0.247731)
(-0.437275 -0.00597085 0.224726)
(-0.446319 -0.0192405 0.207259)
(-0.478072 -0.0153241 0.211872)
(-0.523546 -0.00717392 0.238342)
(-0.546695 -0.00556875 0.270235)
(-0.549714 -0.011838 0.291615)
(-0.537489 -0.01941 0.300577)
(-0.515584 -0.0178162 0.313168)
(-0.475395 0.00483853 0.308549)
(-0.440208 0.0315875 0.262034)
(-0.417498 0.0346639 0.233431)
(-0.384954 0.00691726 0.231405)
(-0.304695 -0.0157034 0.184116)
(-0.225185 -0.0428832 0.10434)
(-0.0900507 -0.0734372 0.0305888)
(0.0922409 -0.018607 0.103246)
(0.274954 0.0114286 0.0697752)
(0.126973 -0.0277286 0.214689)
(-0.0613433 -0.0359401 -0.27225)
(-0.228747 -0.0571819 -0.626127)
(-0.211038 -0.0124011 -0.49277)
(-0.0554497 0.0545517 -0.280155)
(-0.219087 0.0316517 -0.443724)
(-0.38159 0.0162543 -0.582026)
(-0.473841 0.0107702 -0.695905)
(-0.553441 -0.0215009 -0.712838)
(-0.489251 -0.0538778 -0.643752)
(0.0799569 4.9019e-05 -0.000284275)
(0.079943 0.000352059 -0.00150496)
(0.0800604 0.000680754 -0.00308118)
(0.0801501 0.000965939 -0.00363891)
(0.0801829 0.00119075 -0.00187404)
(0.0801389 0.00146794 0.00216023)
(0.0798015 0.00194921 0.00681206)
(0.079266 0.00314775 0.0174782)
(0.0782041 0.00571328 0.0351533)
(0.0780105 0.0108243 0.115628)
(0.0834771 0.0162964 0.281553)
(0.080332 0.0167453 0.353679)
(0.0656528 0.0134703 0.301531)
(0.0420388 0.00539175 0.205213)
(0.0260449 -0.00845435 -0.176697)
(0.00102771 -0.020232 -0.468969)
(-0.0487214 -0.00481256 -0.319692)
(-0.154817 0.00102789 0.138548)
(-0.21269 0.00302326 0.224535)
(-0.256053 -0.00551554 0.235898)
(-0.30645 -0.0128257 0.235326)
(-0.357375 -0.0153352 0.247019)
(-0.409624 -0.019765 0.265334)
(-0.468505 -0.0223756 0.289863)
(-0.529122 0.00106967 0.321241)
(-0.580573 0.0222488 0.358511)
(-0.64302 0.0238884 0.394272)
(-0.701668 0.0195476 0.426145)
(-0.748915 0.0148562 0.451626)
(-0.778847 0.0146188 0.466614)
(-0.788278 0.0169277 0.466361)
(-0.777739 0.0141929 0.444439)
(-0.746145 0.00698184 0.388808)
(-0.692568 0.00278835 0.281393)
(-0.646422 0.0105997 0.127347)
(-0.675101 0.0168992 0.0261518)
(-0.721792 0.0174871 -0.0110611)
(-0.74691 0.0106452 -0.0473761)
(-0.761423 -0.00790181 -0.078684)
(-0.774959 -0.0260111 -0.101806)
(-0.791915 -0.0286467 -0.11779)
(-0.81461 0.00233432 -0.143045)
(-0.831515 0.0487151 -0.199137)
(-0.859614 0.0641817 -0.288151)
(-0.897839 0.032548 -0.38401)
(-0.921776 -0.00704665 -0.460058)
(-0.926956 -0.0334178 -0.527656)
(-0.92391 -0.038022 -0.595927)
(-0.906925 -0.017819 -0.655025)
(-0.860395 0.0306607 -0.714155)
(-0.888106 0.040337 -0.840777)
(-0.942122 0.0061468 -1.00914)
(-0.966012 -0.0597731 -1.15035)
(-0.958357 -0.0516224 -1.11628)
(-0.82088 0.0484128 -0.936709)
(-0.807601 0.101908 -0.885387)
(-0.910508 0.122092 -0.852304)
(-0.998948 0.13684 -0.771028)
(-1.03056 0.110729 -0.517097)
(-1.00321 0.141869 -0.187617)
(0.0799398 9.26621e-06 -0.000282763)
(0.0798913 -2.88445e-05 -0.0016341)
(0.0799691 -0.000154265 -0.0035387)
(0.080084 -0.000253236 -0.00454821)
(0.0801987 -0.000249202 -0.00343612)
(0.0802527 -2.28142e-05 -6.54985e-05)
(0.0801692 0.000504836 0.003339)
(0.0801846 0.00202538 0.00903541)
(0.0808911 0.00540581 0.0170704)
(0.0835786 0.0127996 0.0578384)
(0.0922465 0.0199798 0.167209)
(0.0983848 0.0194638 0.246136)
(0.0975407 0.0144094 0.250604)
(0.0922655 0.0112714 0.210554)
(0.0770323 0.0180851 0.0954737)
(0.0553697 0.0170122 -0.247418)
(0.0201595 0.040248 -0.389017)
(-0.00871725 0.0340387 -0.239704)
(-0.0202883 0.0359551 -0.252092)
(-0.0201217 0.0307301 -0.153271)
(-0.076705 0.0254903 0.0869723)
(-0.167816 0.0161046 0.183274)
(-0.242521 0.00152897 0.232531)
(-0.304339 -0.010195 0.26205)
(-0.358576 0.0103934 0.276086)
(-0.414232 0.0342116 0.291857)
(-0.46153 0.0395038 0.304859)
(-0.501525 0.0355577 0.31448)
(-0.531677 0.0290138 0.317183)
(-0.546204 0.0250667 0.313348)
(-0.541096 0.0233161 0.294554)
(-0.514862 0.0203774 0.24585)
(-0.474706 0.0204628 0.164902)
(-0.453637 0.0287321 0.0681726)
(-0.490626 0.0243506 -0.00677224)
(-0.540477 0.00673171 -0.0587071)
(-0.594881 -0.00504684 -0.0992053)
(-0.635718 -0.0123334 -0.136091)
(-0.666848 -0.0183911 -0.171169)
(-0.699628 -0.0239094 -0.21059)
(-0.728494 -0.0194227 -0.248219)
(-0.758156 0.0117834 -0.279996)
(-0.774799 0.0488244 -0.317024)
(-0.780859 0.0563 -0.375554)
(-0.784399 0.021844 -0.458459)
(-0.804116 -0.0137967 -0.556785)
(-0.834292 -0.0401676 -0.66854)
(-0.877984 -0.0512454 -0.79188)
(-0.935781 -0.0389678 -0.92983)
(-0.983415 0.00338919 -1.06041)
(-1.0213 0.0177561 -1.20462)
(-1.0641 -0.0099504 -1.37316)
(-1.11748 -0.0559388 -1.51028)
(-1.16471 -0.0548272 -1.60624)
(-1.12362 0.0264217 -1.62046)
(-1.04452 0.0978397 -1.59427)
(-1.05959 0.130721 -1.59307)
(-1.09709 0.114943 -1.62157)
(-1.13744 0.0720219 -1.51487)
(-1.18992 0.0961166 -1.29255)
(0.0799505 5.10307e-05 -0.000257284)
(0.0799278 0.000119587 -0.00151733)
(0.0800199 0.000322799 -0.00323351)
(0.0801289 0.000606745 -0.00423501)
(0.0802622 0.000897555 -0.00384435)
(0.0804101 0.00126833 -0.00160074)
(0.0805634 0.00191732 0.000454345)
(0.0809125 0.00325274 0.00287099)
(0.0820989 0.00582186 0.00563861)
(0.0858114 0.0110247 0.0238155)
(0.0965465 0.0166228 0.0840355)
(0.108555 0.0164171 0.14209)