/*--------------------------------*- C++ -*----------------------------------*\
  =========                 |
  \\      /  F ield         | OpenFOAM: The Open Source CFD Toolbox
   \\    /   O peration     | Website:  https://openfoam.org
    \\  /    A nd           | Version:  8
     \\/     M anipulation  |
\*---------------------------------------------------------------------------*/
FoamFile
{
    version     2.0;
    format      ascii;
    class       volScalarField;
    location    "900";
    object      nut;
}
// * * * * * * * * * * * * * * * * * * * * * * * * * * * * * * * * * * * * * //

dimensions      [0 2 -1 0 0 0 0];

internalField   nonuniform List<scalar> 
1200
(
9.44332e-06
9.34166e-06
9.23994e-06
9.12657e-06
9.00395e-06
8.89724e-06
8.79631e-06
8.69252e-06
8.59097e-06
8.46212e-06
8.4865e-06
8.68776e-06
8.89311e-06
8.94361e-06
8.71346e-06
7.53301e-06
7.50322e-06
8.26157e-06
8.80676e-06
9.66832e-06
1.08451e-05
1.23466e-05
1.39554e-05
1.53578e-05
6.1507e-06
6.30786e-06
6.46553e-06
6.58986e-06
6.69659e-06
6.80621e-06
6.93437e-06
7.08016e-06
7.24246e-06
7.41939e-06
7.5834e-06
7.73237e-06
7.86541e-06
7.97044e-06
8.02724e-06
8.0578e-06
8.11895e-06
8.15725e-06
8.10893e-06
8.36299e-06
8.66137e-06
8.82467e-06
8.48586e-06
7.86154e-06
8.24133e-06
8.47663e-06
9.5786e-06
9.63516e-06
9.40541e-06
7.92446e-06
9.2481e-06
1.01913e-05
1.08166e-05
1.10507e-05
1.04481e-05
3.00441e-05
7.324e-06
6.34934e-06
5.5269e-06
4.80907e-06
4.19169e-06
3.67382e-06
3.26343e-06
2.94616e-06
2.76114e-06
2.53701e-06
3.01538e-06
3.92924e-06
3.74118e-06
3.63106e-06
2.7761e-06
2.97493e-06
4.98522e-06
7.39825e-06
6.6457e-06
4.80077e-06
5.4463e-06
6.83618e-06
8.32027e-06
9.75641e-06
1.0857e-05
1.13077e-05
1.13542e-05
1.14098e-05
1.15039e-05
1.16178e-05
1.17451e-05
1.19185e-05
1.20707e-05
1.2257e-05
1.25918e-05
1.29989e-05
1.35471e-05
1.47383e-05
3.70328e-06
3.53363e-06
1.5162e-05
1.46421e-05
1.20133e-05
3.59198e-06
4.25789e-06
4.87699e-06
4.72685e-06
4.33163e-06
4.32457e-06
4.72248e-06
4.28107e-06
4.24829e-06
3.82606e-06
3.87312e-06
4.19162e-06
4.31613e-06
4.99017e-06
5.98909e-06
6.16969e-06
1.04494e-05
7.3117e-06
6.30404e-06
5.44197e-06
4.68311e-06
4.0271e-06
3.47038e-06
3.00551e-06
2.61185e-06
2.30191e-06
2.06607e-06
2.30546e-06
2.86894e-06
2.51885e-06
2.00555e-06
1.74176e-06
3.75881e-06
7.39268e-06
1.04164e-05
1.05605e-05
8.46893e-06
8.67265e-06
1.00943e-05
1.22374e-05
1.41215e-05
1.46708e-05
1.44646e-05
1.3994e-05
1.41697e-05
1.43484e-05
1.45418e-05
1.47756e-05
1.50515e-05
1.5317e-05
1.54937e-05
1.55608e-05
1.55393e-05
1.52853e-05
1.47077e-05
1.52515e-05
1.56042e-05
3.73589e-06
4.14122e-06
4.18629e-06
4.08306e-06
4.31368e-06
4.7675e-06
5.2203e-06
6.14252e-06
5.93188e-06
4.41828e-06
4.68135e-06
5.39337e-06
6.82194e-06
6.57293e-06
5.62596e-06
7.26148e-06
9.51241e-06
9.51815e-06
1.227e-05
1.7545e-05
7.31003e-06
6.30955e-06
5.45294e-06
4.69441e-06
4.03323e-06
3.47297e-06
3.00101e-06
2.59199e-06
2.24025e-06
1.95471e-06
2.00576e-06
2.37038e-06
2.33545e-06
2.00442e-06
1.62338e-06
5.91952e-06
1.1215e-05
1.22198e-05
1.34294e-05
1.4426e-05
1.4936e-05
1.52545e-05
1.54449e-05
1.5636e-05
1.57159e-05
1.56784e-05
1.55869e-05
1.53507e-05
1.50363e-05
1.48834e-05
1.52086e-05
1.55827e-05
3.78129e-06
3.96356e-06
4.15734e-06
4.35865e-06
4.5641e-06
4.754e-06
4.93576e-06
5.20416e-06
5.58527e-06
5.95202e-06
6.24239e-06
6.5549e-06
7.00945e-06
7.55431e-06
8.17316e-06
8.7191e-06
9.05794e-06
9.20971e-06
9.53961e-06
1.0284e-05
1.10243e-05
1.11506e-05
1.04473e-05
9.79838e-06
9.47209e-06
1.01053e-05
1.60445e-05
2.41714e-05
7.31286e-06
6.315e-06
5.45848e-06
4.69859e-06
4.03607e-06
3.47424e-06
2.99625e-06
2.59194e-06
2.24062e-06
1.94159e-06
1.81731e-06
1.94943e-06
2.01822e-06
1.92523e-06
1.74014e-06
2.68608e-06
4.65972e-06
6.68462e-06
1.03789e-05
1.25191e-05
1.35896e-05
1.42366e-05
1.4637e-05
1.48187e-05
1.48639e-05
1.48741e-05
1.47402e-05
1.44113e-05
1.42052e-05
1.4555e-05
1.50322e-05
1.54248e-05
3.68092e-06
3.88835e-06
4.0954e-06
4.31396e-06
4.57737e-06
4.88474e-06
5.17683e-06
5.48559e-06
5.82802e-06
6.17651e-06
6.61254e-06
7.09018e-06
7.56245e-06
8.1045e-06
8.71987e-06
9.45075e-06
1.02504e-05
1.09668e-05
1.16242e-05
1.24201e-05
1.33398e-05
1.43051e-05
1.53577e-05
1.64641e-05
1.77608e-05
1.9005e-05
2.14914e-05
2.62716e-05
7.32074e-06
6.32213e-06
5.46426e-06
4.70538e-06
4.04262e-06
3.47647e-06
2.99421e-06
2.59215e-06
2.2466e-06
1.94784e-06
1.73992e-06
1.68555e-06
1.6812e-06
1.64421e-06
1.56993e-06
1.74081e-06
2.83046e-06
3.95585e-06
5.64709e-06
7.83179e-06
9.93422e-06
1.16605e-05
1.27513e-05
1.27663e-05
1.31015e-05
1.38465e-05
1.39727e-05
1.38008e-05
1.35272e-05
1.34566e-05
1.35325e-05
1.35157e-05
1.35006e-05
1.35017e-05
1.33655e-05
1.41322e-05
1.71072e-05
4.17347e-06
4.42145e-06
4.5799e-06
4.59909e-06
4.69202e-06
5.20184e-06
5.7409e-06
6.16891e-06
6.55089e-06
7.03247e-06
7.8288e-06
8.88589e-06
9.86907e-06
1.06905e-05
1.14041e-05
1.21425e-05
1.31732e-05
1.46202e-05
1.61129e-05
1.76984e-05
1.96542e-05
2.23814e-05
2.65856e-05
7.33011e-06
6.32958e-06
5.47098e-06
4.71465e-06
4.05164e-06
3.48159e-06
2.99699e-06
2.59458e-06
2.25501e-06
1.95932e-06
1.72217e-06
1.57143e-06
1.47574e-06
1.40328e-06
1.33842e-06
1.38945e-06
1.84335e-06
2.26609e-06
3.31483e-06
4.72635e-06
6.32761e-06
8.04353e-06
9.19036e-06
9.50857e-06
9.70561e-06
1.04127e-05
1.1183e-05
1.15846e-05
1.1823e-05
1.19879e-05
1.19587e-05
1.1641e-05
1.13252e-05
1.08768e-05
9.89448e-06
1.04322e-05
1.12091e-05
1.26481e-05
1.50131e-05
1.66748e-05
1.28899e-05
1.30822e-05
1.50524e-05
3.84371e-06
4.27516e-06
4.05617e-06
1.56937e-05
4.03548e-06
5.41319e-06
6.8855e-06
7.85103e-06
8.00793e-06
7.80643e-06
8.9211e-06
1.09997e-05
1.30325e-05
1.47611e-05
1.70452e-05
2.05772e-05
2.56028e-05
7.33644e-06
6.3326e-06
5.46961e-06
4.71071e-06
4.04639e-06
3.4793e-06
3.00209e-06
2.60375e-06
2.26584e-06
1.97255e-06
1.72817e-06
1.54333e-06
1.40172e-06
1.28759e-06
1.20083e-06
1.18242e-06
1.32812e-06
1.48333e-06
1.91437e-06
2.69437e-06
3.6617e-06
4.74945e-06
5.53254e-06
5.82993e-06
6.42869e-06
7.69079e-06
9.07268e-06
1.01283e-05
1.07884e-05
1.11465e-05
1.12879e-05
1.12648e-05
1.11475e-05
1.09844e-05
1.0826e-05
1.07281e-05
1.07259e-05
1.09383e-05
1.13464e-05
1.13869e-05
1.12475e-05
1.10181e-05
1.09021e-05
1.11013e-05
1.20726e-05
1.31299e-05
1.26359e-05
1.26309e-05
3.75519e-06
4.45476e-06
4.98027e-06
5.25527e-06
4.91653e-06
4.33299e-06
4.48066e-06
7.0008e-06
9.42059e-06
1.12156e-05
1.43615e-05
1.78115e-05
7.34846e-06
6.3797e-06
5.55675e-06
4.83924e-06
4.2011e-06
3.64019e-06
3.17203e-06
2.78429e-06
2.45225e-06
2.15483e-06
1.89451e-06
1.68313e-06
1.51572e-06
1.38155e-06
1.27158e-06
1.18649e-06
1.16621e-06
1.18542e-06
1.3096e-06
1.58645e-06
2.0005e-06
2.51296e-06
2.93274e-06
3.07709e-06
3.22323e-06
3.88535e-06
5.04352e-06
6.30931e-06
7.35989e-06
8.05994e-06
8.4265e-06
8.54996e-06
8.50763e-06
8.4082e-06
8.38398e-06
8.47403e-06
8.66094e-06
8.88752e-06
9.10212e-06
9.21086e-06
9.25401e-06
9.28162e-06
9.39737e-06
9.56476e-06
9.72549e-06
9.88351e-06
1.02854e-05
1.03604e-05
1.05768e-05
1.09924e-05
1.1785e-05
1.31548e-05
1.35454e-05
1.42571e-05
1.43465e-05
1.58244e-05
4.3259e-06
5.67973e-06
7.96025e-06
9.8103e-06
9.44577e-06
9.37123e-06
9.28496e-06
9.17373e-06
9.03539e-06
8.89525e-06
8.75133e-06
8.61229e-06
8.43398e-06
8.16553e-06
7.84202e-06
7.58469e-06
7.44455e-06
7.39659e-06
7.36587e-06
7.09997e-06
6.85729e-06
6.74449e-06
6.64275e-06
6.60607e-06
6.70142e-06
6.93806e-06
7.29868e-06
7.77483e-06
8.31035e-06
8.86829e-06
9.53577e-06
1.03462e-05
1.12442e-05
1.21865e-05
1.31615e-05
1.41766e-05
1.52732e-05
6.20555e-06
6.44206e-06
6.67462e-06
6.88214e-06
7.08512e-06
7.29024e-06
7.53378e-06
7.80392e-06
8.04631e-06
8.25143e-06
8.45256e-06
8.67302e-06
8.98086e-06
9.30608e-06
9.57391e-06
9.80687e-06
1.0008e-05
1.01525e-05
1.02784e-05
1.06228e-05
1.09776e-05
1.12636e-05
1.15025e-05
1.1818e-05
1.21989e-05
1.27334e-05
1.35476e-05
9.41875e-06
9.33056e-06
9.23949e-06
9.12079e-06
8.98601e-06
8.88163e-06
8.7903e-06
8.69428e-06
8.59332e-06
8.46413e-06
8.48749e-06
8.69155e-06
8.90002e-06
8.95959e-06
8.75187e-06
7.54933e-06
7.50075e-06
8.26794e-06
8.81668e-06
9.64812e-06
1.08092e-05
1.2304e-05
1.3922e-05
1.53393e-05
6.14843e-06
6.30562e-06
6.46408e-06
6.59016e-06
6.6972e-06
6.80717e-06
6.93626e-06
7.08296e-06
7.24542e-06
7.42236e-06
7.58713e-06
7.73845e-06
7.87291e-06
7.97603e-06
8.03378e-06
8.02996e-06
7.98701e-06
7.99978e-06
8.09942e-06
8.40288e-06
8.73582e-06
8.92211e-06
8.76701e-06
7.92317e-06
8.13668e-06
8.33054e-06
9.50094e-06
9.56825e-06
9.54233e-06
8.38604e-06
8.66544e-06
9.85838e-06
1.06406e-05
1.09327e-05
1.093e-05
3.36546e-05
7.32016e-06
6.35397e-06
5.52993e-06
4.80943e-06
4.19318e-06
3.6771e-06
3.2548e-06
2.93921e-06
2.75635e-06
2.54005e-06
3.00329e-06
3.91575e-06
3.73837e-06
3.63866e-06
2.78996e-06
2.96899e-06
4.9934e-06
7.40818e-06
6.82e-06
4.86542e-06
5.42358e-06
6.7935e-06
8.26722e-06
9.70613e-06
1.0823e-05
1.12913e-05
1.13387e-05
1.13854e-05
1.1478e-05
1.15913e-05
1.17031e-05
1.18599e-05
1.2007e-05
1.21987e-05
1.25412e-05
1.2963e-05
1.35929e-05
1.49848e-05
3.54988e-06
1.64104e-05
1.53198e-05
1.44228e-05
1.2993e-05
1.57245e-05
4.15444e-06
5.07194e-06
4.97432e-06
4.4423e-06
4.27581e-06
4.55664e-06
4.207e-06
4.41552e-06
3.90736e-06
3.93395e-06
3.8489e-06
4.32047e-06
4.80698e-06
6.07443e-06
6.25346e-06
1.02547e-05
7.31238e-06
6.31264e-06
5.44557e-06
4.68431e-06
4.03032e-06
3.47748e-06
3.00515e-06
2.61057e-06
2.30096e-06
2.06625e-06
2.29597e-06
2.85817e-06
2.51903e-06
2.01031e-06
1.76967e-06
3.74439e-06
7.3974e-06
1.04216e-05
1.06408e-05
8.58355e-06
8.69265e-06
1.00362e-05
1.21214e-05
1.40403e-05
1.46003e-05
1.44069e-05
1.39504e-05
1.41235e-05
1.43048e-05
1.45042e-05
1.47451e-05
1.50227e-05
1.52786e-05
1.54317e-05
1.54751e-05
1.54497e-05
1.52739e-05
1.46721e-05
1.51628e-05
1.56567e-05
1.61808e-05
3.95549e-06
4.09745e-06
3.95394e-06
4.26339e-06
4.78276e-06
5.24659e-06
6.29217e-06
6.06298e-06
4.37559e-06
4.67163e-06
5.46652e-06
6.91548e-06
6.68929e-06
5.83435e-06
7.46415e-06
9.59403e-06
9.72015e-06
1.26139e-05
1.78373e-05
7.31901e-06
6.32143e-06
5.4582e-06
4.69673e-06
4.03687e-06
3.4763e-06
2.99855e-06
2.59117e-06
2.24069e-06
1.95479e-06
1.99845e-06
2.36019e-06
2.33019e-06
2.00347e-06
1.62193e-06
5.85769e-06
1.11999e-05
1.22009e-05
1.34004e-05
1.44024e-05
1.49139e-05
1.5222e-05
1.53998e-05
1.55885e-05
1.56661e-05
1.56168e-05
1.551e-05
1.52541e-05
1.49428e-05
1.48485e-05
1.51988e-05
1.55828e-05
3.77925e-06
3.96316e-06
4.15796e-06
4.36449e-06
4.57715e-06
4.78564e-06
4.97445e-06
5.23276e-06
5.59346e-06
5.9579e-06
6.24567e-06
6.55776e-06
7.02855e-06
7.58806e-06
8.2055e-06
8.75503e-06
9.10329e-06
9.28593e-06
9.6316e-06
1.03678e-05
1.11241e-05
1.13104e-05
1.0669e-05
1.00044e-05
9.66344e-06
1.02305e-05
1.60959e-05
2.34666e-05
7.32853e-06
6.32762e-06
5.46122e-06
4.69835e-06
4.03812e-06
3.47514e-06
2.99458e-06
2.59013e-06
2.24064e-06
1.9418e-06
1.81379e-06
1.94232e-06
2.01175e-06
1.92086e-06
1.73556e-06
2.60957e-06
4.70887e-06
6.77454e-06
1.04939e-05
1.24995e-05
1.3568e-05
1.4217e-05
1.46113e-05
1.47859e-05
1.4816e-05
1.48031e-05
1.46456e-05
1.43154e-05
1.41649e-05
1.45563e-05
1.50578e-05
1.55367e-05
1.60727e-05
3.8843e-06
4.09507e-06
4.31711e-06
4.57182e-06
4.87884e-06
5.17649e-06
5.48553e-06
5.82497e-06
6.18255e-06
6.61658e-06
7.08491e-06
7.56107e-06
8.10423e-06
8.71221e-06
9.44061e-06
1.02476e-05
1.09787e-05
1.16488e-05
1.24467e-05
1.33632e-05
1.43282e-05
1.53953e-05
1.65239e-05
1.78357e-05
1.90785e-05
2.15093e-05
2.62262e-05
7.33593e-06
6.3338e-06
5.46699e-06
4.70378e-06
4.0411e-06
3.47454e-06
2.99462e-06
2.59115e-06
2.2465e-06
1.94797e-06
1.7385e-06
1.68224e-06
1.67709e-06
1.64122e-06
1.56789e-06
1.77396e-06
2.84468e-06
3.9977e-06
5.70204e-06
7.85864e-06
9.94703e-06
1.16721e-05
1.27473e-05
1.27718e-05
1.30613e-05
1.37816e-05
1.38957e-05
1.37145e-05
1.34372e-05
1.33834e-05
1.34633e-05
1.34494e-05
1.34483e-05
1.34319e-05
1.33827e-05
1.45424e-05
1.71817e-05
4.11631e-06
4.38384e-06
4.56262e-06
4.60716e-06
4.70627e-06
5.20484e-06
5.73889e-06
6.14693e-06
6.50983e-06
6.99354e-06
7.80136e-06
8.87665e-06
9.86883e-06
1.06947e-05
1.14098e-05
1.21444e-05
1.31715e-05
1.4631e-05
1.6136e-05
1.77286e-05
1.96834e-05
2.23762e-05
2.65339e-05
7.33888e-06
6.3392e-06
5.47463e-06
4.71324e-06
4.04746e-06
3.47837e-06
2.99779e-06
2.59472e-06
2.25421e-06
1.9583e-06
1.72087e-06
1.57037e-06
1.47459e-06
1.40245e-06
1.34034e-06
1.40165e-06
1.83039e-06
2.28804e-06
3.36264e-06
4.75078e-06
6.33593e-06
8.04539e-06
9.17282e-06
9.49701e-06
9.72802e-06
1.04809e-05
1.12676e-05
1.16472e-05
1.1859e-05
1.20065e-05
1.19704e-05
1.16594e-05
1.13655e-05
1.09855e-05
9.99382e-06
1.07185e-05
1.14889e-05
1.25071e-05
1.49649e-05
1.69099e-05
1.28177e-05
1.30174e-05
1.49995e-05
3.81109e-06
4.30078e-06
4.12802e-06
1.63703e-05
4.0627e-06
5.3977e-06
6.87152e-06
7.85004e-06
8.00153e-06
7.79648e-06
8.91826e-06
1.10061e-05
1.30486e-05
1.4786e-05
1.70561e-05
2.05677e-05
2.55629e-05
7.33882e-06
6.33889e-06
5.47183e-06
4.70729e-06
4.04043e-06
3.47736e-06
3.00599e-06
2.60828e-06
2.26621e-06
1.97115e-06
1.72822e-06
1.5423e-06
1.39897e-06
1.28528e-06
1.20247e-06
1.19044e-06
1.32701e-06
1.48455e-06
1.94316e-06
2.7227e-06
3.67537e-06
4.75008e-06
5.51219e-06
5.81656e-06
6.46757e-06
7.7785e-06
9.17727e-06
1.02266e-05
1.08675e-05
1.12027e-05
1.13295e-05
1.1298e-05
1.11718e-05
1.10077e-05
1.08515e-05
1.07606e-05
1.07678e-05
1.09831e-05
1.13525e-05
1.14186e-05
1.13008e-05
1.1069e-05
1.09684e-05
1.11442e-05
1.19312e-05
1.33522e-05
1.29306e-05
1.29573e-05
3.57012e-06
4.40747e-06
4.90689e-06
5.22575e-06
4.91365e-06
4.33578e-06
4.50561e-06
7.03192e-06
9.47822e-06
1.12715e-05
1.44041e-05
1.78049e-05
7.35027e-06
6.38568e-06
5.56078e-06
4.837e-06
4.19271e-06
3.63592e-06
3.17579e-06
2.79232e-06
2.45608e-06
2.1557e-06
1.89486e-06
1.68197e-06
1.51511e-06
1.38282e-06
1.2728e-06
1.18682e-06
1.1665e-06
1.1885e-06
1.32093e-06
1.59978e-06
2.01319e-06
2.52042e-06
2.92673e-06
3.06238e-06
3.22793e-06
3.94041e-06
5.13526e-06
6.40366e-06
7.43035e-06
8.09941e-06
8.44185e-06
8.54737e-06
8.49524e-06
8.39916e-06
8.38856e-06
8.48882e-06
8.68001e-06
8.91037e-06
9.1201e-06
9.22795e-06
9.26358e-06
9.29936e-06
9.42007e-06
9.59013e-06
9.73593e-06
9.9074e-06
1.038e-05
1.04113e-05
1.05273e-05
1.09478e-05
1.19767e-05
1.33144e-05
1.3671e-05
1.4313e-05
1.43674e-05
1.5777e-05
4.3722e-06
5.74033e-06
8.01306e-06
9.82083e-06
9.44964e-06
9.3594e-06
9.26108e-06
9.14777e-06
9.02596e-06
8.90895e-06
8.78318e-06
8.64318e-06
8.44949e-06
8.18686e-06
7.86029e-06
7.58933e-06
7.45065e-06
7.4165e-06
7.38818e-06
7.11013e-06
6.86014e-06
6.73708e-06
6.61671e-06
6.5831e-06
6.68223e-06
6.92482e-06
7.28391e-06
7.74973e-06
8.26783e-06
8.82126e-06
9.50839e-06
1.034e-05
1.12478e-05
1.21899e-05
1.31618e-05
1.4176e-05
1.52785e-05
6.20974e-06
6.44769e-06
6.68221e-06
6.88911e-06
7.08827e-06
7.29866e-06
7.54299e-06
7.80193e-06
8.04086e-06
8.24337e-06
8.45043e-06
8.67871e-06
9.0069e-06
9.30743e-06
9.5622e-06
9.77778e-06
9.98215e-06
1.01619e-05
1.0304e-05
1.06446e-05
1.09994e-05
1.12694e-05
1.15057e-05
1.18195e-05
1.22029e-05
1.27462e-05
1.35539e-05
)
;

boundaryField
{
    wall
    {
        type            nutkWallFunction;
        Cmu             0.09;
        kappa           0.41;
        E               9.8;
        value           nonuniform List<scalar> 
1200
(
0
0
0
0
0
0
0
0
0
0
0
0
0
0
0
0
0
0
0
0
0
0
0
0
0
0
0
0
0
0
0
0
0
0
0
0
0
0
0
0
0
0
0
0
0
0
0
0
0
0
0
0
0
0
0
0
0
0
0
0
0
0
0
0
0
0
0
0
0
0
0
0
0
0
0
0
0
0
0
0
0
0
0
0
0
0
0
0
0
0
0
0
0
0
0
0
0
0
0
0
0
0
0
0
0
0
0
0
0
0
0
0
0
0
0
0
0
0
0
0
0
0
0
0
0
0
0
0
0
0
0
0
0
0
0
0
0
0
0
0
0
0
0
0
0
0
0
0
0
0
0
0
0
0
0
0
0
0
0
0
0
0
0
0
0
0
0
0
0
0
0
0
0
0
0
0
0
0
0
0
0
0
0
0
0
0
0
0
0
0
0
0
0
0
0
0
0
0
0
0
0
0
0
0
0
0
0
0
0
0
0
0
0
0
0
0
0
0
0
0
0
0
0
0
0
0
0
0
0
0
0
0
0
0
0
0
0
0
0
0
1.02843e-08
0
0
0
0
0
0
0
0
0
2.66208e-08
0
0
0
0
0
0
0
0
0
4.27852e-08
0
0
0
0
0
0
0
0
0
5.53611e-08
0
0
0
0
0
0
0
0
0
6.62935e-08
0
0
0
0
0
0
0
0
0
7.75343e-08
0
0
0
0
0
0
0
0
0
9.04975e-08
0
0
0
0
0
0
0
0
0
1.05172e-07
0
0
0
0
0
0
0
0
0
1.21681e-07
0
0
4.66801e-11
0
0
0
0
0
0
1.39513e-07
0
0
2.93934e-08
1.56972e-08
0
0
0
0
1.57242e-08
1.55884e-07
0
0
6.13578e-08
5.04348e-08
0
0
0
0
4.02663e-08
1.70562e-07
0
0
9.49178e-08
8.77894e-08
0
0
0
0
6.43101e-08
1.83618e-07
0
0
1.29111e-07
1.29301e-07
8.5929e-09
0
0
0
8.55647e-08
1.9477e-07
0
0
1.61542e-07
1.77529e-07
5.27164e-08
0
0
0
1.05999e-07
2.02284e-07
0
0
1.93192e-07
2.25174e-07
9.65597e-08
0
0
0
1.27341e-07
2.04285e-07
0
0
2.363e-07
2.74298e-07
1.24938e-07
5.18596e-09
0
0
1.5179e-07
2.01301e-07
0
2.0371e-09
2.93092e-07
3.27612e-07
1.3511e-07
0
0
0
1.77658e-07
1.98088e-07
0
3.44652e-08
3.49098e-07
3.83798e-07
1.51048e-07
0
0
0
2.02082e-07
2.06083e-07
0
4.80258e-08
3.93886e-07
4.50912e-07
2.30962e-07
0
0
0
2.22687e-07
2.40436e-07
2.62587e-09
3.78513e-08
4.40152e-07
5.21955e-07
3.14477e-07
2.04443e-08
0
0
2.43304e-07
2.74774e-07
7.11788e-08
8.21181e-08
5.12083e-07
5.93976e-07
3.77464e-07
6.95066e-08
0
0
2.65552e-07
2.92186e-07
1.45795e-07
1.41223e-07
5.9823e-07
6.75338e-07
4.32057e-07
2.73305e-08
0
0
2.9669e-07
2.81492e-07
1.61605e-07
2.2976e-07
6.92161e-07
7.6513e-07
5.06371e-07
0
0
0
3.26226e-07
2.3095e-07
1.14609e-07
3.98853e-07
7.71719e-07
8.71442e-07
6.29654e-07
1.99952e-08
0
0
3.51247e-07
2.45499e-07
9.22723e-08
3.68115e-07
8.23497e-07
9.88747e-07
7.89495e-07
2.62389e-07
0
0
3.71857e-07
2.72047e-07
1.55435e-07
1.10453e-07
8.48142e-07
1.09461e-06
9.34391e-07
4.89261e-07
9.22087e-08
0
3.91637e-07
3.71534e-07
8.31374e-08
1.51227e-07
9.00837e-07
1.19034e-06
1.05369e-06
6.36547e-07
1.79262e-07
0
4.07922e-07
3.84334e-07
6.19649e-08
2.76239e-07
1.01075e-06
1.30309e-06
1.15584e-06
6.58991e-07
2.32679e-07
0
4.24047e-07
3.32339e-07
2.81665e-08
4.98561e-07
1.11774e-06
1.43102e-06
1.25982e-06
6.29352e-07
1.81666e-07
0
4.57669e-07
2.46798e-07
5.27123e-08
4.64104e-07
1.14562e-06
1.56398e-06
1.40356e-06
7.96797e-07
9.27507e-08
0
4.90524e-07
3.76263e-07
1.0873e-07
3.42802e-07
1.05664e-06
1.71075e-06
1.60587e-06
1.09852e-06
1.20307e-07
0
5.15948e-07
4.41765e-07
1.11801e-07
5.87399e-07
9.64086e-07
1.86521e-06
1.8118e-06
1.38666e-06
5.15274e-07
0
5.38764e-07
4.7984e-07
1.92611e-07
9.01594e-07
9.15377e-07
2.04139e-06
2.02699e-06
1.62713e-06
8.78866e-07
9.61508e-08
5.68776e-07
4.91748e-07
3.66313e-07
9.26776e-07
9.58439e-07
2.20806e-06
2.28808e-06
1.93607e-06
1.13644e-06
3.15544e-07
6.04654e-07
4.94199e-07
3.93038e-07
1.34165e-06
1.81662e-06
2.53109e-06
2.64209e-06
2.40403e-06
1.57292e-06
6.61331e-07
6.55281e-07
1.79475e-06
8.67706e-07
2.07635e-06
2.78934e-06
3.13751e-06
3.17602e-06
3.05151e-06
2.03647e-06
9.28251e-07
7.30384e-07
0
0
0
0
0
0
0
0
0
0
0
0
0
0
0
0
0
0
0
0
0
0
0
0
0
0
0
0
0
0
0
0
0
0
0
0
0
0
0
0
0
0
0
0
0
0
0
0
0
0
0
0
0
0
0
0
0
0
0
0
0
0
0
0
0
0
0
0
0
0
0
0
0
0
0
0
0
0
0
0
0
0
0
0
0
0
0
0
0
0
0
0
0
0
0
0
0
0
0
0
0
0
0
0
0
0
0
0
0
0
0
0
0
0
0
0
0
0
0
0
0
0
0
0
0
0
0
0
0
0
0
0
0
0
0
0
0
0
0
0
0
0
0
0
0
0
0
0
0
0
0
0
0
0
0
0
0
0
0
0
0
0
0
0
0
0
0
0
0
0
0
0
0
0
0
0
0
0
0
0
0
0
0
0
0
0
0
0
0
0
0
0
0
0
0
0
0
0
0
0
0
0
0
0
0
0
0
0
0
0
0
0
0
0
0
0
0
0
0
0
0
0
0
0
0
0
0
0
0
0
0
0
0
0
0
0
0
0
0
0
9.99008e-09
0
0
0
0
0
0
0
0
0
2.63043e-08
0
0
0
0
0
0
0
0
0
4.25529e-08
0
0
0
0
0
0
0
0
0
5.53234e-08
0
0
0
0
0
0
0
0
0
6.63148e-08
0
0
0
0
0
0
0
0
0
7.76237e-08
0
0
0
0
0
0
0
0
0
9.07273e-08
0
0
0
0
0
0
0
0
0
1.0551e-07
0
0
0
0
0
0
0
0
0
1.21994e-07
0
0
6.06962e-10
7.64013e-10
0
0
0
0
0
1.39723e-07
0
0
2.9434e-08
1.47016e-08
0
0
0
0
1.62294e-08
1.56132e-07
0
0
6.15049e-08
4.96536e-08
0
0
0
0
4.0776e-08
1.7092e-07
0
0
9.54059e-08
8.74534e-08
0
0
0
0
6.48088e-08
1.83986e-07
0
0
1.30616e-07
1.28524e-07
1.10639e-08
0
0
0
8.62351e-08
1.94499e-07
0
0
1.66154e-07
1.76409e-07
3.57121e-08
0
0
0
1.06548e-07
2.00611e-07
0
0
2.00197e-07
2.25116e-07
8.07291e-08
0
0
0
1.27816e-07
2.01316e-07
4.00026e-09
0
2.43049e-07
2.74432e-07
1.10962e-07
7.5583e-09
0
0
1.51669e-07
2.03943e-07
0
1.07549e-09
2.97071e-07
3.27105e-07
1.2577e-07
0
0
0
1.77257e-07
2.06718e-07
0
1.82558e-08
3.50423e-07
3.83488e-07
1.51759e-07
0
0
0
2.01721e-07
2.20052e-07
0
2.87945e-08
3.94729e-07
4.51471e-07
2.31305e-07
0
0
0
2.23074e-07
2.5339e-07
0
2.18467e-08
4.40468e-07
5.2121e-07
3.14139e-07
1.53172e-08
0
0
2.4417e-07
2.88848e-07
4.15596e-08
5.81829e-08
5.15731e-07
5.93912e-07
3.73152e-07
7.47591e-08
0
0
2.67693e-07
3.09545e-07
1.20819e-07
1.1902e-07
6.04963e-07
6.75609e-07
4.22592e-07
3.81128e-08
0
0
2.99156e-07
3.02657e-07
1.65087e-07
2.24334e-07
6.98607e-07
7.64374e-07
4.96397e-07
1.92546e-10
0
0
3.26371e-07
2.58921e-07
1.33786e-07
4.20405e-07
7.77891e-07
8.70269e-07
6.22703e-07
2.65551e-08
0
0
3.50366e-07
2.48743e-07
9.34857e-08
3.94203e-07
8.32097e-07
9.89179e-07
7.85979e-07
2.48927e-07
0
0
3.69776e-07
2.60278e-07
1.45135e-07
1.04049e-07
8.60618e-07
1.09749e-06
9.3276e-07
4.80954e-07
6.21357e-08
0
3.89196e-07
3.57053e-07
7.60794e-08
1.48648e-07
9.14563e-07
1.19493e-06
1.05303e-06
6.30582e-07
1.52321e-07
0
4.05866e-07
3.72295e-07
7.47365e-08
2.88568e-07
1.02549e-06
1.30821e-06
1.15525e-06
6.51556e-07
2.16164e-07
0
4.24451e-07
3.6414e-07
3.13978e-08
5.14998e-07
1.13484e-06
1.43571e-06
1.25876e-06
6.21088e-07
1.67043e-07
0
4.59755e-07
2.95359e-07
5.17498e-08
4.81582e-07
1.17009e-06
1.56829e-06
1.40241e-06
7.92994e-07
7.86524e-08
0
4.92042e-07
3.16066e-07
5.86062e-08
3.70078e-07
1.08886e-06
1.71671e-06
1.60695e-06
1.09778e-06
1.1427e-07
0
5.16248e-07
4.02429e-07
1.04021e-07
6.22556e-07
9.98513e-07
1.87479e-06
1.81483e-06
1.38812e-06
5.16933e-07
0
5.39357e-07
4.6339e-07
1.72442e-07
9.21371e-07
9.46056e-07
2.05345e-06
2.03124e-06
1.63011e-06
8.85469e-07
1.0101e-07
5.69311e-07
4.86394e-07
3.64769e-07
9.54637e-07
9.72095e-07
2.22008e-06
2.29289e-06
1.9378e-06
1.14329e-06
3.23304e-07
6.05166e-07
4.89769e-07
3.87366e-07
1.38676e-06
1.83483e-06
2.53767e-06
2.64413e-06
2.4036e-06
1.57721e-06
6.67285e-07
6.56134e-07
2.03313e-06
8.11877e-07
2.14951e-06
2.79997e-06
3.14128e-06
3.17351e-06
3.04877e-06
2.03452e-06
9.28216e-07
7.30578e-07
)
;
    }
    inlet
    {
        type            calculated;
        value           uniform 0.000190513;
    }
    outlet
    {
        type            calculated;
        value           nonuniform List<scalar> 
20
(
0.0081
1.04494e-05
1.7545e-05
0.0081
0.0081
0.0081
0.0081
1.78115e-05
9.8103e-06
1.35476e-05
0.0081
1.02547e-05
1.78373e-05
0.0081
0.0081
0.0081
0.0081
1.78049e-05
9.82083e-06
1.35539e-05
)
;
    }
    heatWall
    {
        type            nutkWallFunction;
        Cmu             0.09;
        kappa           0.41;
        E               9.8;
        value           nonuniform List<scalar> 
240
(
1.08801e-06
1.08856e-06
1.07912e-06
1.0788e-06
1.07007e-06
1.06817e-06
1.05856e-06
1.05638e-06
1.04451e-06
1.04431e-06
1.03058e-06
1.03257e-06
1.01709e-06
1.0199e-06
1.00241e-06
1.00453e-06
9.81497e-07
9.82807e-07
9.5147e-07
9.53222e-07
9.14624e-07
9.15845e-07
8.84487e-07
8.85084e-07
8.68532e-07
8.69894e-07
8.6411e-07
8.66501e-07
8.60895e-07
8.63431e-07
8.29677e-07
8.31119e-07
8.00003e-07
8.01052e-07
7.85493e-07
7.84769e-07
7.72355e-07
7.69298e-07
7.69005e-07
7.6614e-07
7.80999e-07
7.79268e-07
8.09227e-07
8.08742e-07
8.50441e-07
8.50044e-07
9.03583e-07
9.01857e-07
9.61985e-07
9.58768e-07
1.02288e-06
1.01977e-06
1.09559e-06
1.09458e-06
1.18113e-06
1.18172e-06
1.27232e-06
1.27327e-06
1.36477e-06
1.36541e-06
1.45786e-06
1.45808e-06
1.55263e-06
1.55276e-06
1.65299e-06
1.65371e-06
1.72936e-06
1.73102e-06
1.80993e-06
1.81161e-06
1.88893e-06
1.89057e-06
1.95881e-06
1.96101e-06
2.02603e-06
2.02783e-06
2.09628e-06
2.09784e-06
2.17683e-06
2.17643e-06
2.26214e-06
2.26081e-06
2.34274e-06
2.34154e-06
2.41078e-06
2.41205e-06
2.47889e-06
2.48175e-06
2.55245e-06
2.55953e-06
2.65547e-06
2.66363e-06
2.75327e-06
2.75375e-06
2.83617e-06
2.83325e-06
2.90449e-06
2.89759e-06
2.97009e-06
2.96199e-06
3.02412e-06
3.01729e-06
3.07764e-06
3.07898e-06
3.18929e-06
3.19622e-06
3.29848e-06
3.30353e-06
3.38301e-06
3.38401e-06
3.4589e-06
3.46087e-06
3.55878e-06
3.56056e-06
3.67827e-06
3.67998e-06
3.84704e-06
3.84989e-06
4.09768e-06
4.09833e-06
1.08826e-06
1.08701e-06
1.0776e-06
1.07689e-06
1.06653e-06
1.06613e-06
1.05467e-06
1.05407e-06
1.04227e-06
1.04116e-06
1.03094e-06
1.02979e-06
1.01929e-06
1.01885e-06
1.0077e-06
1.00774e-06
9.96554e-07
9.96657e-07
9.82279e-07
9.82506e-07
9.84848e-07
9.85145e-07
1.00652e-06
1.00721e-06
1.02861e-06
1.02958e-06
1.03342e-06
1.03534e-06
1.00705e-06
1.01132e-06
8.77461e-07
8.79019e-07
8.75063e-07
8.74508e-07
9.59977e-07
9.60551e-07
1.01969e-06
1.02029e-06
1.11324e-06
1.11086e-06
1.23466e-06
1.23088e-06
1.38246e-06
1.37831e-06
1.53397e-06
1.53062e-06
1.66084e-06
1.65908e-06
1.7099e-06
1.70893e-06
1.76355e-06
1.76251e-06
1.81666e-06
1.8159e-06
1.85803e-06
1.85791e-06
1.89403e-06
1.8941e-06
1.93105e-06
1.93134e-06
1.97375e-06
1.9745e-06
2.02208e-06
2.02319e-06
2.07647e-06
2.0775e-06
2.13524e-06
2.13593e-06
2.18922e-06
2.19004e-06
2.23766e-06
2.23883e-06
2.28077e-06
2.28197e-06
2.31761e-06
2.3167e-06
2.34244e-06
2.3369e-06
2.34906e-06
2.33924e-06
2.3393e-06
2.34801e-06
2.32881e-06
2.35729e-06
2.35526e-06
2.40138e-06
2.46871e-06
2.51151e-06
2.58216e-06
2.6287e-06
2.6397e-06
2.69716e-06
2.60435e-06
2.67439e-06
2.4374e-06
2.52982e-06
2.48551e-06
2.4962e-06
2.57326e-06
2.53433e-06
2.90272e-06
2.85471e-06
2.94517e-06
2.90524e-06
2.77289e-06
2.87825e-06
2.48986e-06
2.65046e-06
2.9184e-06
2.71898e-06
3.13579e-06
3.00525e-06
3.2623e-06
3.20765e-06
3.3019e-06
3.2841e-06
3.31006e-06
3.29533e-06
7.67656e-06
8.48349e-06
)
;
    }
}


// ************************************************************************* //
