/*--------------------------------*- C++ -*----------------------------------*\
  =========                 |
  \\      /  F ield         | OpenFOAM: The Open Source CFD Toolbox
   \\    /   O peration     | Website:  https://openfoam.org
    \\  /    A nd           | Version:  8
     \\/     M anipulation  |
\*---------------------------------------------------------------------------*/
FoamFile
{
    version     2.0;
    format      ascii;
    class       volScalarField;
    location    "400";
    object      alphat;
}
// * * * * * * * * * * * * * * * * * * * * * * * * * * * * * * * * * * * * * //

dimensions      [1 -1 -1 0 0 0 0];

internalField   nonuniform List<scalar> 
8400
(
0.0804186
0.0791803
0.0777778
0.076294
0.0747106
0.0730129
0.0711846
0.0693935
0.0682585
0.067633
0.0673335
0.0671778
0.067073
0.0669678
0.0668397
0.0666611
0.0663703
0.0659029
0.0653523
0.0648665
0.0644519
0.0640953
0.063645
0.0629029
0.0617632
0.0605273
0.0593016
0.0582082
0.0573065
0.0562678
0.055205
0.0542349
0.0534687
0.0529681
0.0526912
0.0525533
0.0524888
0.0524443
0.0521434
0.0511555
0.0498245
0.0484799
0.046982
0.0453601
0.0438296
0.0424009
0.0409687
0.0395053
0.0380438
0.0366548
0.0624073
0.0628058
0.0623802
0.061255
0.0598724
0.0586819
0.0584004
0.0594397
0.0599644
0.0602535
0.060375
0.0604143
0.0603616
0.060115
0.0594551
0.0588513
0.0583537
0.0580316
0.0578847
0.0575915
0.0572371
0.0568253
0.0564713
0.0562198
0.0569245
0.05705
0.0506745
0.0498617
0.0489584
0.0479402
0.0469039
0.0459066
0.0453223
0.0449022
0.0443989
0.043648
0.0428433
0.0418139
0.0408841
0.041001
0.041177
0.0407725
0.0406582
0.0409152
0.0409112
0.0404732
0.0399623
0.0397721
0.0399496
0.0403712
0.0617581
0.0624063
0.0626965
0.0624331
0.0617827
0.0610747
0.0605371
0.0602162
0.0600386
0.0599468
0.0598964
0.0598677
0.0598412
0.0597969
0.0597308
0.0596375
0.0595166
0.0593648
0.0591828
0.0589805
0.058755
0.0585722
0.0583668
0.0580463
0.0577256
0.0572671
0.0558243
0.0546553
0.0539044
0.053476
0.0533936
0.0536986
0.054006
0.0539769
0.0533515
0.0456137
0.040262
0.0418878
0.0418654
0.0424431
0.0439339
0.0451252
0.0464804
0.0476407
0.047783
0.0469632
0.0462466
0.0465592
0.0474874
0.0485657
0.0611701
0.0610942
0.0610247
0.0609602
0.0609035
0.0608528
0.0608062
0.0607614
0.0607153
0.0606698
0.0606224
0.0605723
0.0605189
0.0604622
0.0604028
0.0603374
0.0602662
0.0601872
0.0600976
0.0599969
0.0599015
0.059778
0.0595955
0.0594001
0.059167
0.0588619
0.0584072
0.0579198
0.0575139
0.0572124
0.056985
0.0567957
0.0566038
0.056371
0.0560588
0.0556362
0.0547773
0.0539199
0.0529573
0.0520877
0.0515179
0.0513939
0.0518389
0.047897
0.0438773
0.047599
0.049936
0.0520686
0.0534745
0.0536729
0.0611994
0.0611597
0.0611185
0.0610756
0.0610305
0.0609833
0.0609338
0.0608822
0.060829
0.0607738
0.0607178
0.0606621
0.060607
0.0605536
0.0605027
0.0604552
0.0604109
0.0603711
0.0603348
0.0602954
0.060235
0.0601505
0.0600546
0.0599438
0.0598129
0.0596562
0.0594667
0.0592557
0.0590424
0.0588382
0.0586435
0.0584537
0.0582649
0.0580749
0.0578804
0.057676
0.0574359
0.0571898
0.0569159
0.0566012
0.0562714
0.0559619
0.0557023
0.0553591
0.0547045
0.0546299
0.0549952
0.0551773
0.0547818
0.0543886
0.0611856
0.0611306
0.0610738
0.0610153
0.0609552
0.0608924
0.0608279
0.0607601
0.06069
0.0606184
0.0605446
0.0604692
0.0603945
0.0603206
0.060249
0.0601815
0.0601178
0.06006
0.0600093
0.0599627
0.0599231
0.0598885
0.0598522
0.0598108
0.0597605
0.0596986
0.0596227
0.0595325
0.0594321
0.0593264
0.0592173
0.0591052
0.0589904
0.0588725
0.0587483
0.0586155
0.0584721
0.0583208
0.0581572
0.0579759
0.0577759
0.0575609
0.0573363
0.057089
0.0567969
0.0565851
0.0564592
0.056333
0.0561556
0.0559682
0.0611781
0.0611141
0.061049
0.0609817
0.060912
0.0608372
0.0607605
0.0606798
0.0605955
0.0605069
0.0604159
0.0603226
0.060228
0.0601344
0.0600429
0.0599565
0.0598772
0.0598064
0.0597453
0.0596851
0.0596383
0.059599
0.0595672
0.0595398
0.0595137
0.0594854
0.059452
0.0594108
0.0593605
0.0593021
0.0592365
0.0591647
0.0590863
0.0590021
0.0589117
0.0588139
0.0587089
0.0585979
0.0584805
0.0583568
0.0582233
0.0580772
0.057917
0.0577395
0.0575409
0.057342
0.0571513
0.0569583
0.0567486
0.0565288
0.0611653
0.0610864
0.0610038
0.0609195
0.0608332
0.0607418
0.0606439
0.0605406
0.0604319
0.0603175
0.0601953
0.0600676
0.0599339
0.0598007
0.0596744
0.0595574
0.0594573
0.0593765
0.0593056
0.0592411
0.0592024
0.059174
0.0591563
0.059145
0.0591386
0.0591336
0.0591257
0.0591117
0.059089
0.0590561
0.0590142
0.0589642
0.0589052
0.0588382
0.0587647
0.0586853
0.058601
0.0585147
0.0584274
0.0583405
0.0582498
0.0581521
0.0580423
0.0579166
0.0577715
0.0576075
0.0574285
0.057233
0.0570199
0.056792
0.061147
0.0610449
0.0609392
0.0608288
0.0607122
0.0605925
0.0604629
0.0603192
0.0601612
0.0599841
0.0597904
0.0595698
0.0593119
0.0590751
0.0588542
0.0586433
0.0585204
0.0584672
0.0584062
0.058363
0.0583706
0.0583983
0.0584441
0.0585002
0.0585578
0.0586086
0.058649
0.0586769
0.0586895
0.0586872
0.0586697
0.0586377
0.0585914
0.0585344
0.0584697
0.0584006
0.0583295
0.0582614
0.0581981
0.0581413
0.0580869
0.0580294
0.0579612
0.0578751
0.057768
0.0576356
0.0574792
0.0572987
0.0570943
0.0568687
0.0611111
0.0609635
0.0608059
0.0606412
0.0604661
0.0602809
0.0600766
0.0598229
0.0595192
0.0591328
0.0586836
0.0580874
0.0570836
0.0566282
0.0563147
0.0555607
0.0553761
0.0556312
0.0557435
0.0559795
0.0562956
0.0566475
0.0570088
0.0573437
0.0576287
0.0578496
0.0580117
0.0581291
0.0582055
0.0582452
0.058254
0.0582408
0.0582069
0.0581562
0.0580952
0.0580302
0.0579702
0.0579218
0.0578845
0.0578598
0.0578415
0.0578181
0.057784
0.0577312
0.0576529
0.0575442
0.0574071
0.0572417
0.0570469
0.0568241
0.0610123
0.0607246
0.0604272
0.0600926
0.0596972
0.0591896
0.0585351
0.0577696
0.0568674
0.0552719
0.0536072
0.0508041
0.042942
0.0436743
0.0491129
0.0505573
0.0523945
0.0543186
0.0559949
0.0562047
0.0559543
0.0560508
0.0566713
0.0569739
0.0572225
0.0573897
0.057509
0.0576474
0.0577496
0.0578042
0.0578181
0.0578037
0.057768
0.0577166
0.0576616
0.0576134
0.0575769
0.0575556
0.0575486
0.0575552
0.0575689
0.0575788
0.0575714
0.0575401
0.0574818
0.0573928
0.0572679
0.0571082
0.0569176
0.0566954
0.0590313
0.0572812
0.0546284
0.0523168
0.0513117
0.0511035
0.0509784
0.0509233
0.0512237
0.0518449
0.0522564
0.0525958
0.0528805
0.0531501
0.053413
0.0536759
0.0539426
0.0542526
0.0546478
0.0551385
0.0556765
0.0561388
0.0564912
0.0567091
0.056879
0.0570422
0.057185
0.0572927
0.0573548
0.0573859
0.0573915
0.0573682
0.0573281
0.0572822
0.0572395
0.0572117
0.0572056
0.0572167
0.0572369
0.0572746
0.0573142
0.0573449
0.0573535
0.0573367
0.0572871
0.0572022
0.0570792
0.0569185
0.0567238
0.0564977
0.0561686
0.0546531
0.0527223
0.0511685
0.0505361
0.0507012
0.0512464
0.0518705
0.0524243
0.0528513
0.0531838
0.0534573
0.0536663
0.0538392
0.0539854
0.0541128
0.0542333
0.0543592
0.0545028
0.0546714
0.0548702
0.0551001
0.0553782
0.0556442
0.0558811
0.0560882
0.0562647
0.0564081
0.056519
0.0566032
0.0566664
0.0567131
0.0567547
0.0567933
0.0568291
0.0568732
0.0569296
0.0569919
0.0570573
0.0571181
0.0571655
0.0571976
0.0572055
0.057168
0.0570824
0.056986
0.056852
0.0566831
0.0564798
0.0562416
0.0544662
0.0535145
0.0525103
0.0518045
0.051613
0.051875
0.0523698
0.0528777
0.0532879
0.0535722
0.0537483
0.0538747
0.0539694
0.0540425
0.0541049
0.0541657
0.0542326
0.0543115
0.0544069
0.0545159
0.0546357
0.0547627
0.054894
0.0550407
0.0551986
0.0553604
0.0555203
0.0556768
0.0558291
0.0559758
0.0561195
0.0562615
0.0564018
0.0565395
0.0566718
0.0567964
0.0569129
0.0570137
0.0570953
0.057153
0.0571856
0.0571954
0.0571729
0.0571002
0.0569821
0.056844
0.0566821
0.0564933
0.0562339
0.0559227
0.0536152
0.0531368
0.0527449
0.0525377
0.0525582
0.0527519
0.0530111
0.053238
0.0533896
0.0534603
0.0534688
0.0534402
0.0533926
0.0533336
0.0532863
0.0532663
0.0532736
0.0533125
0.0533862
0.0534929
0.0536291
0.0537849
0.0539447
0.054112
0.0542942
0.0544905
0.0547009
0.0549265
0.0551675
0.0554228
0.0556905
0.0559659
0.0562414
0.0565079
0.056754
0.0569705
0.0571505
0.0572847
0.0573731
0.0574149
0.0574152
0.0573777
0.0573037
0.0571852
0.0570225
0.0568295
0.056616
0.0563736
0.0560661
0.055705
0.0532216
0.0530099
0.0528517
0.0527499
0.0526921
0.0526426
0.0525665
0.0524374
0.0522549
0.0520366
0.0517972
0.0515573
0.0513338
0.0511389
0.0509551
0.0507727
0.0506282
0.0505388
0.0505125
0.0505535
0.0506581
0.0508116
0.0510135
0.0512778
0.051585
0.0519352
0.0523289
0.0527655
0.053244
0.0537609
0.0543076
0.0548684
0.055421
0.055944
0.0564151
0.0568152
0.0571358
0.0573727
0.0575316
0.0576154
0.0576324
0.0575877
0.0574887
0.0573349
0.0571275
0.0568771
0.0565952
0.0562757
0.0559021
0.0554668
0.0527388
0.0525224
0.0522816
0.0520027
0.0516744
0.0512863
0.0508345
0.0503259
0.0497739
0.0491983
0.0486174
0.0480482
0.0475079
0.0470127
0.0465774
0.0462191
0.0459204
0.0456748
0.0454924
0.0453965
0.0453935
0.045511
0.0457679
0.0461246
0.0465786
0.0471283
0.0477715
0.0485042
0.0493184
0.050198
0.051119
0.0520507
0.0529574
0.0538063
0.0545696
0.0552294
0.0557814
0.0562279
0.0565738
0.0568238
0.0569837
0.0570562
0.0570467
0.0569584
0.0567934
0.0565573
0.0562599
0.0559
0.0554712
0.0549665
0.0512192
0.0507789
0.0502621
0.0496637
0.0489827
0.0482247
0.0474005
0.0465266
0.0456218
0.0447058
0.0437976
0.0429152
0.0420757
0.0412952
0.0405897
0.039973
0.0394599
0.0390649
0.0387997
0.0386582
0.0386642
0.038823
0.0391315
0.0395897
0.0401949
0.0409415
0.0418204
0.0428168
0.0439101
0.0450712
0.0462639
0.0474507
0.0485941
0.0496645
0.050646
0.0515308
0.0523178
0.0530097
0.0536088
0.0541139
0.0545254
0.0548399
0.0550551
0.0551703
0.0551861
0.0551015
0.0549186
0.0546362
0.0542529
0.0537653
0.0469734
0.0462343
0.0454017
0.0444823
0.0434859
0.042427
0.0413247
0.0401988
0.0390706
0.03796
0.0368865
0.0358674
0.0349185
0.034056
0.033295
0.0326483
0.0321292
0.0317498
0.03152
0.0314478
0.0315397
0.0317981
0.0322228
0.0328097
0.0335502
0.0344312
0.0354351
0.0365383
0.0377133
0.0389302
0.0401569
0.0413668
0.0425416
0.0436678
0.0447378
0.0457486
0.046699
0.0475865
0.0484083
0.0491579
0.0498287
0.0504136
0.0509042
0.0512933
0.0515753
0.0517417
0.0517859
0.0517018
0.0514829
0.0511238
0.052273
0.0512088
0.0501155
0.0489902
0.0478375
0.0466645
0.0454815
0.0443004
0.0431339
0.0419966
0.0409035
0.0398685
0.0389054
0.0380273
0.0372456
0.0365704
0.03601
0.0355702
0.0352547
0.0350642
0.0349967
0.0350466
0.0352056
0.0354639
0.0358089
0.0362263
0.0367018
0.037221
0.0377713
0.0383434
0.03893
0.0395274
0.0401331
0.0407479
0.0413719
0.0420043
0.0426422
0.0432808
0.0439135
0.0445316
0.0451248
0.0456828
0.0461944
0.0466474
0.0470292
0.0473266
0.0475267
0.0476159
0.0475815
0.0474118
0.00545259
0.00537735
0.00532823
0.00530351
0.00529004
0.00528326
0.00528096
0.00528022
0.00527854
0.00527382
0.00526455
0.00524986
0.00522958
0.00520425
0.00517506
0.00514362
0.00511179
0.00508137
0.00505388
0.00503032
0.005014
0.0049791
0.00495648
0.00495089
0.0049394
0.00492385
0.00490491
0.00488252
0.00485664
0.00482727
0.00479461
0.00476065
0.00472726
0.00469598
0.00466784
0.00464327
0.00462212
0.00460378
0.00458749
0.00457251
0.0045582
0.00454419
0.00453039
0.00451678
0.00450346
0.00449091
0.00447985
0.00446989
0.00446018
0.00444871
0.00534926
0.00515395
0.00501821
0.00492108
0.00484579
0.00478491
0.00473121
0.00467912
0.00462382
0.00456188
0.00449155
0.00441278
0.00432709
0.00423724
0.00414673
0.00405936
0.00397858
0.00390702
0.00384611
0.00379773
0.00374844
0.00366609
0.0158566
0.0160297
0.0161415
0.0162053
0.0162202
0.0161863
0.0161093
0.0160025
0.0158836
0.0157638
0.0156549
0.0155658
0.0155013
0.0154615
0.0154426
0.0154385
0.0154424
0.0154476
0.0154489
0.0154431
0.0154289
0.0154074
0.0153808
0.0153493
0.0153122
0.0152705
0.0152228
0.015164
0.0053556
0.005168
0.00503138
0.00493037
0.00484881
0.00477869
0.00471421
0.00465071
0.0045845
0.0045131
0.0044354
0.00435157
0.00426294
0.00417165
0.00408035
0.00399182
0.00390857
0.0038325
0.00376556
0.0159628
0.0157047
0.0155651
0.015492
0.0154401
0.0153862
0.0153155
0.01522
0.0150983
0.0149537
0.0147932
0.014626
0.0144618
0.0143093
0.0141747
0.014061
0.0139678
0.0138925
0.0138307
0.0137777
0.0137286
0.0136799
0.0136294
0.0135768
0.0135226
0.0134673
0.0134119
0.0133559
0.0132975
0.0132354
0.013171
0.00535643
0.00517416
0.00504
0.00493905
0.00485649
0.00478493
0.00471888
0.00465395
0.00458664
0.0045146
0.00443677
0.00435327
0.0042653
0.00417483
0.00408437
0.00399655
0.00391377
0.00383788
0.00377081
0.0159901
0.0157229
0.0155752
0.0154882
0.0154223
0.0153525
0.0152641
0.0151501
0.0150099
0.0148473
0.0146697
0.014486
0.0143059
0.0141374
0.0139863
0.013855
0.013743
0.0136476
0.0135649
0.0134902
0.0134191
0.0133484
0.0132764
0.013203
0.0131291
0.0130563
0.0129858
0.0129176
0.0128486
0.0127745
0.0126942
0.00535705
0.00517768
0.00504438
0.00494262
0.00485865
0.00478558
0.00471817
0.00465214
0.00458406
0.00451165
0.00443386
0.00435077
0.00426346
0.00417383
0.00408426
0.00399734
0.00391539
0.0038402
0.00377363
0.0159966
0.0157288
0.0155798
0.0154907
0.0154222
0.0153492
0.0152572
0.0151394
0.0149953
0.014829
0.014648
0.0144616
0.0142794
0.0141095
0.0139574
0.0138251
0.0137121
0.0136155
0.0135312
0.0134544
0.0133805
0.0133064
0.0132306
0.0131529
0.0130744
0.0129964
0.0129205
0.0128472
0.0127753
0.0127002
0.0126183
0.00535801
0.0051814
0.00504898
0.00494669
0.00486157
0.00478714
0.00471845
0.00465141
0.00458276
0.0045103
0.00443292
0.00435061
0.00426433
0.00417584
0.00408746
0.00400167
0.0039207
0.00384623
0.00378003
0.0160293
0.015758
0.0156051
0.015512
0.0154393
0.0153619
0.0152656
0.0151435
0.0149954
0.0148254
0.0146412
0.0144526
0.0142693
0.0140993
0.0139478
0.0138168
0.0137053
0.0136105
0.0135279
0.0134524
0.0133794
0.0133055
0.0132294
0.0131511
0.0130716
0.0129923
0.0129139
0.0128368
0.0127603
0.0126817
0.0125972
0.00535927
0.00518578
0.00505399
0.00495078
0.0048641
0.00478789
0.00471756
0.00464923
0.00457981
0.00450714
0.00443009
0.0043485
0.00426321
0.00417586
0.00408869
0.00400405
0.00392405
0.0038502
0.00378422
0.0160398
0.0157663
0.0156107
0.0155147
0.0154388
0.0153581
0.0152583
0.015133
0.0149816
0.0148087
0.0146224
0.0144326
0.0142494
0.0140805
0.0139309
0.0138025
0.0136943
0.0136031
0.0135241
0.0134521
0.013382
0.0133104
0.0132356
0.0131579
0.0130783
0.0129986
0.0129193
0.0128403
0.0127606
0.012678
0.0125895
0.00536071
0.00519076
0.00505961
0.00495532
0.00486689
0.00478875
0.00471664
0.00464699
0.00457685
0.00450407
0.00442746
0.00434675
0.00426265
0.00417672
0.00409103
0.00400775
0.00392881
0.00385561
0.00378978
0.0160612
0.0157841
0.0156244
0.0155241
0.0154437
0.0153587
0.0152546
0.015125
0.0149697
0.0147934
0.0146045
0.0144133
0.0142298
0.0140617
0.0139139
0.0137881
0.0136833
0.013596
0.0135212
0.0134531
0.0133864
0.0133174
0.0132443
0.0131671
0.013087
0.0130058
0.0129245
0.012843
0.0127602
0.0126738
0.0125809
0.00536231
0.00519625
0.00506584
0.00496035
0.00486996
0.00478969
0.00471568
0.00464458
0.0045736
0.00450062
0.00442438
0.00434451
0.00426164
0.00417715
0.00409294
0.00401096
0.00393297
0.00386027
0.00379448
0.0160752
0.0157949
0.0156313
0.0155269
0.0154423
0.0153531
0.015245
0.0151114
0.0149524
0.0147729
0.0145818
0.0143896
0.0142063
0.0140394
0.0138938
0.0137712
0.0136704
0.0135876
0.0135173
0.0134534
0.0133902
0.0133239
0.0132526
0.0131759
0.0130951
0.0130119
0.0129277
0.0128428
0.0127558
0.0126649
0.0125671
0.00536405
0.00520214
0.00507253
0.00496577
0.00487334
0.00479087
0.0047149
0.00464232
0.00457045
0.0044972
0.00442129
0.00434231
0.00426074
0.00417777
0.00409507
0.00401438
0.0039373
0.00386507
0.00379929
0.0160915
0.0158078
0.0156402
0.0155313
0.0154423
0.0153486
0.015236
0.0150982
0.0149353
0.0147527
0.0145597
0.0143668
0.014184
0.0140186
0.0138756
0.0137564
0.0136599
0.0135817
0.0135159
0.013456
0.0133961
0.0133322
0.013262
0.0131855
0.0131036
0.013018
0.0129302
0.0128406
0.0127487
0.0126524
0.0125491
0.00536594
0.00520828
0.00507947
0.00497144
0.00487697
0.0047923
0.00471432
0.00464019
0.00456734
0.00449376
0.00441817
0.00434008
0.00425981
0.00417833
0.00409706
0.00401755
0.00394128
0.00386943
0.00380355
0.0161048
0.0158246
0.0156574
0.0155448
0.0154498
0.0153494
0.0152301
0.0150863
0.0149185
0.0147327
0.0145382
0.0143454
0.0141638
0.0140008
0.013861
0.0137459
0.0136538
0.0135802
0.0135187
0.0134625
0.0134058
0.013344
0.0132748
0.0131977
0.0131139
0.0130251
0.0129328
0.0128378
0.01274
0.0126375
0.0125284
0.00536792
0.00521453
0.00508651
0.00497724
0.00488078
0.00479393
0.00471394
0.00463819
0.0045643
0.00449037
0.0044151
0.0043379
0.00425887
0.00417878
0.0040988
0.00402033
0.00394476
0.00387319
0.00380633
0.0159766
0.0158661
0.0157647
0.0156634
0.0155534
0.0154279
0.0152824
0.0151157
0.0149301
0.0147319
0.0145297
0.0143331
0.0141504
0.0139885
0.0138513
0.0137397
0.0136516
0.013582
0.0135242
0.0134715
0.0134175
0.0133575
0.0132886
0.0132104
0.0131238
0.0130308
0.0129333
0.0128324
0.012728
0.012619
0.0125036
0.00536993
0.00522071
0.0050935
0.00498308
0.00488471
0.00479571
0.00471371
0.00463635
0.00456146
0.00448722
0.0044123
0.00433595
0.00425809
0.00417925
0.00410045
0.00402294
0.00394799
0.00387662
0.00380949
0.0159883
0.0158796
0.0157788
0.0156757
0.0155616
0.0154306
0.015279
0.0151064
0.0149161
0.0147147
0.0145108
0.0143138
0.014132
0.0139719
0.0138375
0.0137294
0.0136451
0.0135794
0.0135255
0.0134764
0.0134252
0.0133669
0.0132983
0.0132188
0.0131294
0.0130323
0.0129296
0.0128227
0.012712
0.0125966
0.0124753
0.0053719
0.00522665
0.00510026
0.00498879
0.00488859
0.00479751
0.00471353
0.00463459
0.00455874
0.00448418
0.0044095
0.00433381
0.00425685
0.00417899
0.00410111
0.00402435
0.00394987
0.00387864
0.0038113
0.0159938
0.0158837
0.0157804
0.0156737
0.0155555
0.0154198
0.0152638
0.0150874
0.0148943
0.0146913
0.014487
0.0142904
0.0141101
0.0139526
0.0138215
0.0137174
0.0136374
0.0135762
0.0135268
0.0134816
0.0134337
0.0133772
0.0133091
0.0132286
0.0131369
0.0130362
0.0129288
0.0128163
0.0126995
0.0125781
0.0124513
0.00537379
0.00523224
0.00510666
0.00499431
0.00489246
0.0047995
0.00471377
0.0046335
0.00455685
0.00448204
0.00440756
0.00433242
0.00425624
0.00417927
0.00410227
0.00402624
0.00395224
0.0038812
0.00381375
0.0160077
0.0158952
0.0157883
0.0156772
0.0155539
0.0154132
0.0152525
0.0150723
0.0148764
0.0146717
0.0144666
0.0142704
0.0140915
0.0139364
0.0138086
0.0137083
0.0136325
0.0135757
0.0135304
0.0134887
0.0134434
0.0133886
0.0133212
0.0132401
0.0131467
0.0130431
0.0129318
0.0128146
0.0126926
0.0125662
0.0124349
0.00537555
0.00523723
0.00511231
0.00499906
0.00489562
0.00480084
0.00471342
0.00463179
0.00455418
0.00447882
0.00440416
0.00432916
0.00425338
0.004177
0.00410062
0.00402512
0.0039515
0.00388063
0.00381311
0.0159992
0.0158861
0.0157773
0.0156634
0.015537
0.0153932
0.0152298
0.0150474
0.0148504
0.0146452
0.0144407
0.0142459
0.0140693
0.0139173
0.0137932
0.013697
0.0136252
0.0135722
0.0135307
0.0134923
0.0134496
0.0133968
0.0133307
0.0132505
0.0131573
0.013053
0.0129404
0.0128216
0.012698
0.0125704
0.012439
0.00537713
0.00524157
0.00511738
0.00500365
0.00489923
0.00480331
0.00471481
0.00463227
0.00455398
0.00447818
0.00440337
0.00432851
0.00425313
0.0041773
0.00410148
0.00402648
0.0039532
0.00388247
0.00381484
0.0160123
0.0158969
0.0157852
0.0156687
0.01554
0.0153945
0.01523
0.0150473
0.0148506
0.0146468
0.0144444
0.0142526
0.01408
0.0139326
0.0138137
0.0137228
0.0136567
0.0136095
0.0135737
0.013541
0.0135038
0.0134569
0.0133967
0.0133223
0.013235
0.0131367
0.0130301
0.0129176
0.0128012
0.012682
0.012561
0.00537848
0.00524411
0.00511938
0.00500431
0.00489827
0.00480077
0.00471086
0.0046272
0.0045481
0.00447184
0.00439695
0.0043224
0.00424762
0.00417256
0.00409758
0.00402339
0.0039509
0.00388092
0.00381401
0.0160076
0.0158898
0.0157753
0.0156732
0.0155605
0.015431
0.0152813
0.0151107
0.014929
0.0147429
0.01456
0.0143889
0.0142374
0.0141117
0.0140148
0.0139467
0.0139047
0.0138827
0.0138729
0.0138582
0.0138432
0.0138298
0.0138013
0.0137571
0.0136981
0.0136269
0.0135465
0.0134598
0.0133694
0.0132773
0.0131854
0.00537988
0.00524794
0.00512537
0.0050121
0.00490742
0.00481081
0.00472355
0.00464409
0.00457039
0.00450052
0.0044328
0.00436596
0.00429918
0.00423221
0.00416541
0.00409947
0.00403524
0.00397391
0.0039159
0.00386085
0.00380138
0.00370354
0.015935
0.0161119
0.0161788
0.0161556
0.0159954
0.0158278
0.0156763
0.0155458
0.0154392
0.0153608
0.015313
0.0152953
0.015307
0.0153451
0.0154037
0.0154662
0.00355251
0.00348591
0.015053
0.0152797
0.0154188
0.0154932
0.0155206
0.0155149
0.0154858
0.015441
0.0153859
0.0153258
0.00544931
0.00541948
0.00539308
0.00537028
0.0053514
0.00533601
0.00532141
0.00530687
0.00529174
0.00527535
0.00525725
0.00523727
0.00521556
0.00519255
0.00516885
0.0051451
0.00512193
0.00509947
0.00507788
0.00505694
0.00503893
0.00499729
0.00496312
0.00493192
0.00490098
0.00486902
0.00484592
0.0048138
0.0047781
0.00474295
0.00471062
0.0046819
0.00465724
0.0046373
0.00462158
0.00460911
0.00459876
0.00458938
0.00457896
0.00456746
0.00455578
0.00454315
0.00452919
0.0045137
0.00449656
0.00447779
0.0044574
0.00443524
0.00441109
0.00438455
0.0115756
0.00590906
0.00553523
0.00538526
0.00492701
0.00431951
0.00385926
0.0144135
0.0126336
0.0115216
0.0111028
0.0115064
0.0124344
0.0134625
0.0144839
0.0154343
0.00385271
0.0041688
0.00466863
0.00838771
0.0114266
0.00582719
0.00553473
0.00539145
0.00492093
0.00429843
0.00383902
0.0142134
0.0124065
0.011276
0.0108509
0.0113074
0.012246
0.0132701
0.0143394
0.0153539
0.00384253
0.00416577
0.00467501
0.00852654
0.0112771
0.00574777
0.00553519
0.00539788
0.00491648
0.00428061
0.0038231
0.0140353
0.0122015
0.0110602
0.0107423
0.0111588
0.0120653
0.0131109
0.0142235
0.0152812
0.0038306
0.00415383
0.0046685
0.00864705
0.0111246
0.00567433
0.00553707
0.00540504
0.00491386
0.00426575
0.00381032
0.0138708
0.0120039
0.0108308
0.010511
0.0109931
0.0118909
0.0129573
0.0141116
0.0152106
0.00381896
0.00414198
0.00466181
0.00876963
0.0109712
0.00560889
0.0055409
0.00541345
0.00491347
0.00425425
0.00380127
0.0137255
0.011827
0.0106225
0.0102755
0.0107987
0.0117097
0.0128037
0.0140007
0.0151401
0.00380728
0.00412991
0.00465487
0.00889359
0.0108182
0.00555194
0.00554682
0.00542322
0.00491518
0.0042457
0.0037948
0.0135949
0.0116656
0.0104289
0.0100408
0.0105793
0.0115188
0.0126481
0.0138898
0.0150696
0.00379562
0.00411772
0.00464794
0.0090189
0.0106667
0.00550235
0.0055544
0.00543407
0.00491891
0.00424033
0.00379126
0.01348
0.0115203
0.010249
0.00980239
0.0103398
0.0113205
0.0124924
0.0137811
0.0150013
0.00378439
0.0041058
0.0046415
0.00914609
0.010517
0.00545821
0.0055628
0.0054453
0.00492409
0.00423773
0.00379034
0.0133807
0.0113925
0.0100867
0.0095744
0.0100925
0.0111214
0.0123409
0.0136781
0.0149381
0.00377403
0.00409458
0.00463607
0.00927586
0.0103684
0.00541808
0.00557134
0.00545658
0.0049306
0.00423773
0.00379183
0.0132963
0.011282
0.00994588
0.00938248
0.00985836
0.0109295
0.0121979
0.0135838
0.0148821
0.00376484
0.00408434
0.00463195
0.00940869
0.0102199
0.00538132
0.0055796
0.00546788
0.00493852
0.00424021
0.0160056
0.0132252
0.0111871
0.00982622
0.00923832
0.00965564
0.0107503
0.0120653
0.0134992
0.0148332
0.00375674
0.00407499
0.00462905
0.00954456
0.010071
0.00534813
0.00558755
0.00547937
0.00494787
0.00424529
0.0159505
0.0131599
0.0111042
0.00972187
0.00912774
0.00948538
0.0105831
0.0119424
0.0134227
0.0147893
0.00374929
0.00406612
0.00462697
0.00968295
0.00992174
0.0053191
0.0055956
0.00549139
0.0049585
0.00425177
0.0159078
0.0131034
0.0110272
0.00962213
0.00901858
0.00932985
0.010422
0.0118261
0.0133516
0.0147476
0.0158775
0.00405734
0.00462511
0.00982319
0.00977265
0.00529455
0.00560422
0.00550418
0.00497005
0.0042587
0.0158715
0.0130492
0.010949
0.00951627
0.00888296
0.00916491
0.0102615
0.011715
0.0132839
0.0147079
0.0158474
0.00404704
0.00462314
0.00996492
0.00962455
0.0052742
0.0056138
0.00551777
0.00498198
0.00426512
0.015836
0.0129923
0.0108645
0.00939943
0.008718
0.00897969
0.010103
0.0116103
0.0132198
0.0146663
0.0158137
0.00403702
0.00462105
0.0101082
0.00947811
0.0052573
0.00562447
0.00553196
0.00499372
0.00427035
0.0157973
0.0129301
0.0107727
0.00927427
0.00854934
0.00879058
0.00995653
0.0115165
0.013161
0.0146255
0.0157787
0.00402645
0.0046192
0.0102534
0.00933373
0.00524288
0.00563615
0.00554647
0.00500486
0.00427409
0.0157536
0.0128621
0.0106751
0.00914746
0.00841177
0.00863269
0.00983502
0.0114378
0.0131095
0.0145873
0.0157459
0.00401585
0.00461813
0.0104012
0.00919143
0.00523005
0.00564857
0.00556097
0.00501522
0.00427646
0.0157047
0.0127898
0.0105747
0.00902347
0.00831945
0.00853262
0.00974492
0.0113754
0.0130659
0.0145527
0.0157172
0.00400569
0.00461835
0.0105519
0.00905096
0.00521824
0.00566135
0.00557522
0.00502486
0.00427792
0.0156523
0.0127151
0.0104734
0.00890218
0.00824533
0.00848553
0.00968082
0.0113258
0.0130281
0.0145212
0.0156925
0.0039962
0.0046201
0.0107057
0.00891199
0.00520726
0.00567412
0.00558908
0.00503403
0.00427906
0.0155987
0.0126403
0.0103736
0.0087823
0.00812476
0.00845424
0.00962776
0.0112822
0.0129929
0.0144915
0.0156709
0.00398731
0.00462332
0.0108624
0.00877416
0.00519746
0.00568669
0.00560258
0.00504312
0.00428059
0.015547
0.0125684
0.0102798
0.00866876
0.00790089
0.00839259
0.00957006
0.0112382
0.0129574
0.0144621
0.015651
0.0039788
0.00462773
0.0110215
0.00863735
0.00518951
0.00569904
0.0056159
0.00505256
0.00428324
0.0155015
0.0125043
0.0102001
0.00857728
0.00760536
0.00827654
0.00949967
0.0111911
0.0129208
0.0144328
0.0156318
0.00397038
0.0046331
0.011183
0.00850173
0.00518412
0.00571129
0.00562922
0.00506275
0.00428772
0.0154669
0.0124539
0.0101454
0.00853008
0.00740078
0.0081276
0.00941834
0.0111423
0.0128849
0.0144041
0.0156129
0.00396194
0.00463818
0.0113478
0.00836762
0.00518179
0.0057235
0.0056426
0.00507393
0.00429461
0.0154482
0.0124229
0.0101246
0.0085448
0.00741076
0.00798474
0.00933678
0.0110973
0.0128527
0.0143778
0.0155952
0.00395365
0.00463891
0.0115184
0.00823533
0.00518225
0.005736
0.00565646
0.0050854
0.00430425
0.0154489
0.0124228
0.0101528
0.00860631
0.00750413
0.00785253
0.00926539
0.0110639
0.0128282
0.0143559
0.0155798
0.00394578
0.00464321
0.0116928
0.00810497
0.00518482
0.00574907
0.00567144
0.00509907
0.00431592
0.0154646
0.0124425
0.010197
0.00868494
0.00761456
0.00773926
0.00921655
0.0110492
0.0128142
0.0143399
0.0155679
0.0039385
0.00465793
0.0118694
0.0079764
0.00518926
0.00576239
0.00568719
0.00511427
0.00432946
0.0154912
0.0124739
0.0102476
0.00875965
0.00770488
0.00763071
0.00919944
0.011055
0.0128093
0.0143305
0.0155596
0.00393213
0.0046851
0.0120475
0.0078507
0.0051934
0.00577585
0.00570364
0.00513082
0.00434459
0.0155256
0.0125124
0.0102986
0.00882152
0.0077635
0.00757189
0.00921463
0.0110751
0.0128089
0.014324
0.0155566
0.00392807
0.00472379
0.0122261
0.00772758
0.00519767
0.00578953
0.00572086
0.00514869
0.00436122
0.0155669
0.0125568
0.0103506
0.00887689
0.00781309
0.00757078
0.00925247
0.0111026
0.0128127
0.0143207
0.0155567
0.00392594
0.00477276
0.0124043
0.00760716
0.00520223
0.00580363
0.005739
0.00516798
0.00437945
0.0156155
0.0126079
0.0104075
0.0089412
0.00790506
0.00761964
0.00931241
0.0111361
0.0128198
0.0143191
0.0155576
0.00392518
0.00482906
0.0125815
0.00748962
0.00520725
0.00581829
0.00575816
0.00518877
0.00439942
0.0156725
0.0126672
0.0104727
0.00902504
0.00807265
0.00774659
0.00939679
0.0111743
0.0128287
0.0143172
0.0155572
0.00392518
0.00488921
0.0127578
0.007375
0.00521271
0.00583343
0.00577826
0.005211
0.00442118
0.0157387
0.0127352
0.0105457
0.00912385
0.00829858
0.00797091
0.00950294
0.0112151
0.0128376
0.0143139
0.0155547
0.00392561
0.00495044
0.0129342
0.00726305
0.00521827
0.00584873
0.00579906
0.00523455
0.00444462
0.015814
0.0128107
0.0106231
0.00922437
0.00853397
0.00826547
0.00962009
0.0112551
0.0128453
0.0143092
0.0155512
0.00392655
0.00501182
0.0131115
0.00715326
0.00522346
0.00586383
0.00582035
0.00525927
0.00446958
0.0158978
0.012892
0.0107011
0.00931441
0.00872491
0.00856869
0.00973394
0.0112913
0.0128512
0.0143048
0.0155491
0.00392848
0.00507437
0.0132904
0.00704509
0.00522789
0.00587853
0.00584207
0.00528512
0.004496
0.00378761
0.012978
0.0107781
0.00938959
0.00884356
0.00882126
0.00983327
0.0113217
0.0128564
0.0143027
0.015551
0.00393191
0.00514014
0.0134707
0.00693815
0.0052315
0.00589296
0.00586436
0.00531216
0.00452319
0.00381019
0.0130738
0.0108557
0.00945434
0.00889765
0.0089923
0.00991248
0.0113461
0.0128623
0.0143047
0.0155582
0.00393715
0.00521071
0.0136513
0.00683235
0.00523458
0.00590742
0.00588742
0.00534045
0.00455176
0.00383336
0.0131752
0.0109373
0.00951828
0.00891598
0.0090829
0.00997201
0.0113658
0.01287
0.0143111
0.0155702
0.00394402
0.00528603
0.0138307
0.00672776
0.00523747
0.00592214
0.00591131
0.00536995
0.00458166
0.00385746
0.0132839
0.0110272
0.0095931
0.00893511
0.00911903
0.0100172
0.0113832
0.0128796
0.0143201
0.0155847
0.00395198
0.00536424
0.0140077
0.00662443
0.00524032
0.00593705
0.00593579
0.00540041
0.00461273
0.0038825
0.0134011
0.0111282
0.00968777
0.00898613
0.00913868
0.010056
0.0114002
0.0128906
0.0143294
0.015599
0.00396042
0.0054427
0.0141819
0.00652216
0.00524295
0.00595179
0.00596045
0.00543154
0.00464486
0.00390855
0.0135266
0.0112406
0.00980441
0.00908509
0.00917699
0.0100969
0.0114189
0.0129023
0.0143374
0.0156119
0.003969
0.00551942
0.0143538
0.00642055
0.00524491
0.00596595
0.00598502
0.00546321
0.00467806
0.0039357
0.0136596
0.0113618
0.00993755
0.00923261
0.00925812
0.0101471
0.0114408
0.0129148
0.0143443
0.0156241
0.00397787
0.00559434
0.0145245
0.00631912
0.00524587
0.00597933
0.00600954
0.00549564
0.00471258
0.00396415
0.0137984
0.0114875
0.0100769
0.0094161
0.00939418
0.0102106
0.0114675
0.0129296
0.0143516
0.0156381
0.00398766
0.00566956
0.0146952
0.00621757
0.00524575
0.00599218
0.00603447
0.00552936
0.00474878
0.00399409
0.0139416
0.0116137
0.010212
0.00960906
0.00958156
0.0102863
0.0114999
0.012948
0.0143618
0.0156569
0.00399925
0.00574832
0.014866
0.00611589
0.00524485
0.006005
0.00606043
0.00556488
0.00478694
0.00402564
0.0140882
0.0117381
0.0103355
0.00977449
0.00979038
0.0103659
0.0115371
0.0129707
0.0143764
0.0156828
0.00401339
0.00583341
0.0150364
0.00601425
0.00524354
0.00601824
0.00608782
0.00560244
0.00482711
0.00405869