/*--------------------------------*- C++ -*----------------------------------*\
  =========                 |
  \\      /  F ield         | OpenFOAM: The Open Source CFD Toolbox
   \\    /   O peration     | Website:  https://openfoam.org
    \\  /    A nd           | Version:  8
     \\/     M anipulation  |
\*---------------------------------------------------------------------------*/
FoamFile
{
    version     2.0;
    format      ascii;
    class       volScalarField;
    location    "400";
    object      epsilon;
}
// * * * * * * * * * * * * * * * * * * * * * * * * * * * * * * * * * * * * * //

dimensions      [0 2 -3 0 0 0 0];

internalField   nonuniform List<scalar> 
8400
(
0.0301952
0.0292945
0.0283639
0.0274143
0.0264457
0.025456
0.024441
0.0233959
0.0223143
0.0212986
0.020396
0.0196251
0.0189638
0.0183895
0.0178855
0.0174431
0.0170548
0.0167093
0.0163927
0.0160844
0.0157588
0.0154039
0.0150301
0.0146412
0.0142239
0.0137599
0.0132641
0.0127683
0.0122681
0.0117561
0.0112418
0.0107369
0.0102472
0.00978035
0.00935387
0.00898733
0.00869035
0.00845481
0.00825698
0.00807367
0.00788408
0.00764561
0.00738496
0.00709203
0.0067599
0.00639268
0.00601117
0.00561796
0.00521464
0.00480166
0.0112085
0.0114524
0.0115275
0.0114524
0.0112804
0.0110603
0.0108449
0.0106951
0.0106997
0.0107573
0.010833
0.0109015
0.0109629
0.0110185
0.0110668
0.0111099
0.0111415
0.0111224
0.0110494
0.0109805
0.0108878
0.0107397
0.010517
0.0102025
0.00979714
0.00925296
0.00854792
0.00867199
0.00877718
0.00876496
0.00865856
0.00847438
0.00817284
0.00777394
0.00732652
0.00688119
0.00647599
0.00611986
0.00583406
0.00556259
0.00531375
0.00516454
0.00499586
0.00483563
0.00470032
0.00459137
0.00446885
0.00432425
0.00416345
0.00400718
0.0128105
0.0122919
0.0118184
0.0115091
0.0113867
0.0114028
0.0114845
0.0115814
0.0116714
0.0117433
0.0117911
0.0118143
0.0118164
0.0118033
0.0117791
0.0117478
0.0117113
0.011671
0.0116263
0.0115739
0.0115105
0.0114323
0.0113371
0.0112296
0.0110794
0.0108423
0.0105517
0.0103707
0.0102705
0.0102122
0.010164
0.0100989
0.0100175
0.00992583
0.00982119
0.0096849
0.00944048
0.00816671
0.0075673
0.00698722
0.00645228
0.00615538
0.00595186
0.0058528
0.00582916
0.00584609
0.005816
0.00572664
0.00561007
0.0055263
0.0131185
0.0130587
0.0130002
0.0129445
0.0128928
0.0128444
0.0127997
0.0127574
0.0127167
0.0126766
0.0126364
0.0125955
0.0125535
0.0125099
0.0124647
0.0124174
0.0123681
0.0123162
0.0122613
0.0122024
0.0121385
0.0120684
0.0119956
0.0119097
0.0118122
0.0116998
0.0115735
0.0114488
0.0113345
0.0112315
0.0111381
0.0110521
0.0109713
0.010893
0.0108132
0.0107274
0.010627
0.0105133
0.0103615
0.0101415
0.00989698
0.00956421
0.00919655
0.00889019
0.00865865
0.00764269
0.00725185
0.00708349
0.00708803
0.00716168
0.0131464
0.0131203
0.0130939
0.0130669
0.0130393
0.0130109
0.0129815
0.0129511
0.0129199
0.0128879
0.0128552
0.0128218
0.0127877
0.0127532
0.012718
0.012682
0.0126451
0.0126073
0.0125685
0.0125288
0.0124885
0.0124465
0.0123996
0.0123471
0.0122893
0.0122261
0.0121587
0.0120897
0.0120216
0.0119564
0.0118952
0.0118381
0.0117836
0.0117292
0.0116715
0.0116071
0.0115326
0.0114457
0.0113432
0.0112218
0.0110813
0.0109101
0.0107071
0.0104859
0.0102537
0.009982
0.00968797
0.00948623
0.00934671
0.00914282
0.0131376
0.0131016
0.0130651
0.0130283
0.0129907
0.0129527
0.012914
0.0128747
0.0128347
0.0127943
0.0127537
0.0127129
0.0126723
0.0126319
0.012592
0.0125526
0.0125138
0.0124758
0.0124385
0.0124019
0.0123659
0.0123301
0.0122947
0.012259
0.0122224
0.012184
0.0121436
0.0121014
0.0120579
0.0120136
0.0119688
0.0119239
0.0118787
0.0118329
0.0117857
0.0117359
0.0116818
0.0116213
0.0115518
0.0114708
0.0113761
0.0112635
0.0111304
0.0109772
0.0108052
0.0106125
0.0104033
0.0102007
0.0100087
0.00981503
0.013133
0.0130917
0.0130498
0.0130072
0.0129637
0.0129192
0.0128736
0.0128266
0.0127785
0.0127293
0.0126791
0.0126284
0.0125774
0.0125265
0.0124764
0.0124272
0.0123794
0.0123333
0.0122894
0.0122475
0.0122065
0.0121675
0.01213
0.0120938
0.0120582
0.0120228
0.0119869
0.01195
0.0119117
0.0118721
0.0118317
0.0117908
0.0117502
0.0117102
0.0116711
0.0116328
0.0115943
0.0115537
0.0115085
0.0114554
0.0113914
0.0113134
0.0112186
0.0111057
0.0109743
0.0108245
0.0106582
0.0104816
0.0102992
0.0101117
0.0131254
0.0130752
0.013024
0.0129718
0.0129188
0.0128646
0.0128085
0.0127507
0.0126908
0.0126289
0.0125652
0.0124999
0.0124336
0.0123673
0.0123016
0.0122378
0.0121767
0.0121196
0.0120673
0.0120198
0.0119737
0.0119313
0.0118921
0.0118557
0.0118212
0.0117876
0.011754
0.0117197
0.0116843
0.0116481
0.0116112
0.0115743
0.0115385
0.0115047
0.0114739
0.0114464
0.0114216
0.0113975
0.0113712
0.0113395
0.0112985
0.0112447
0.0111752
0.0110883
0.0109833
0.0108601
0.0107199
0.0105652
0.010399
0.0102228
0.0131149
0.0130515
0.0129874
0.0129217
0.012854
0.0127856
0.0127138
0.0126385
0.0125594
0.0124759
0.0123872
0.0122934
0.0121944
0.0120923
0.0119909
0.0118978
0.0118092
0.0117334
0.0116744
0.0116273
0.0115845
0.0115495
0.0115201
0.0114946
0.0114714
0.0114491
0.0114266
0.0114027
0.0113771
0.0113499
0.011322
0.0112946
0.0112694
0.0112475
0.0112302
0.0112177
0.0112093
0.0112029
0.0111952
0.011182
0.0111593
0.0111235
0.0110718
0.0110026
0.0109149
0.0108088
0.0106851
0.0105453
0.0103914
0.0102249
0.0130962
0.0130094
0.0129217
0.0128319
0.012739
0.0126413
0.012543
0.0124349
0.0123157
0.0121837
0.012032
0.0118551
0.0116502
0.0114174
0.0111719
0.0110192
0.0108544
0.0107227
0.0106466
0.0106264
0.0106504
0.0106994
0.0107574
0.0108146
0.010865
0.0109058
0.0109359
0.0109546
0.0109638
0.0109663
0.0109646
0.0109611
0.0109585
0.0109592
0.0109641
0.0109735
0.0109859
0.0109987
0.0110086
0.0110112
0.0110024
0.0109792
0.0109391
0.0108807
0.0108033
0.0107073
0.0105934
0.0104622
0.0103158
0.0101554
0.0130558
0.0129137
0.0127726
0.0126249
0.0124657
0.0122919
0.0120956
0.0118968
0.0116843
0.0114408
0.0110882
0.0106333
0.010034
0.00919215
0.00809643
0.00813312
0.00812203
0.00822666
0.00858122
0.00902687
0.00943815
0.00975513
0.00999455
0.0101774
0.0103182
0.0104258
0.010505
0.0105519
0.010584
0.010609
0.01063
0.0106496
0.0106703
0.0106938
0.0107205
0.0107497
0.0107798
0.010808
0.0108306
0.0108431
0.010842
0.0108249
0.0107901
0.0107362
0.0106629
0.010571
0.0104612
0.0103341
0.0101909
0.0100327
0.0126076
0.0122265
0.0116083
0.0107004
0.0097256
0.00895713
0.00846849
0.00819052
0.00804831
0.00800176
0.00802801
0.00807919
0.00814931
0.00823076
0.00832042
0.00841851
0.00852435
0.00863509
0.0087527
0.00888609
0.00905332
0.00925259
0.00946272
0.0096609
0.00983142
0.00996748
0.0100764
0.0101635
0.0102345
0.0102934
0.0103443
0.0103906
0.0104347
0.010479
0.0105222
0.0105639
0.0106033
0.010638
0.0106657
0.0106804
0.0106801
0.0106626
0.0106272
0.0105724
0.0104985
0.0104061
0.0102958
0.0101686
0.0100251
0.00986573
0.0116094
0.0110825
0.0104884
0.0098488
0.00925908
0.00881055
0.00853341
0.00840017
0.00836411
0.00838342
0.00842998
0.00849577
0.00857561
0.00866169
0.00875034
0.00884004
0.00892837
0.00901376
0.00909633
0.00917799
0.00926129
0.00934885
0.00944333
0.00954602
0.0096505
0.00975128
0.00984543
0.00993147
0.0100093
0.0100789
0.0101413
0.010198
0.0102499
0.0102977
0.0103413
0.010381
0.0104168
0.0104468
0.0104691
0.0104808
0.0104795
0.010462
0.0104282
0.0103762
0.0103056
0.0102098
0.0100968
0.00996655
0.00981961
0.00965613
0.0105139
0.0100939
0.00968381
0.0093102
0.00900309
0.00878622
0.00866474
0.0086248
0.00864153
0.0086923
0.00876031
0.00883425
0.00891097
0.00898754
0.0090614
0.00913159
0.00919792
0.00926041
0.00931954
0.00937603
0.00943003
0.00948151
0.00953007
0.0095787
0.00962948
0.0096811
0.009732
0.00978068
0.00982605
0.00986736
0.00990452
0.00993818
0.00996898
0.0099977
0.0100251
0.0100518
0.0100777
0.0101017
0.0101223
0.0101365
0.0101411
0.0101328
0.0101099
0.0100702
0.0100115
0.00992775
0.00982472
0.00970232
0.0095613
0.00939998
0.00962185
0.00937465
0.00915896
0.00898704
0.00886522
0.00879547
0.0087731
0.00878797
0.00882671
0.00887671
0.00892902
0.00897747
0.0090191
0.0090531
0.00907967
0.00909918
0.00911418
0.00912616
0.00913621
0.00914512
0.00915335
0.00916072
0.00916722
0.00917483
0.00918183
0.00918751
0.00919138
0.0091931
0.00919278
0.00919148
0.00919096
0.00919322
0.00920026
0.00921448
0.00923752
0.00926963
0.00930989
0.00935607
0.00940425
0.00944978
0.00948822
0.00951496
0.00952646
0.00951994
0.00949298
0.00944188
0.00936795
0.00927075
0.00915056
0.00900425
0.00910169
0.00900417
0.00892831
0.00887594
0.00884516
0.00883126
0.00882809
0.00882854
0.00882606
0.00881578
0.00879486
0.00876253
0.00871937
0.00866695
0.00860751
0.00854313
0.00847353
0.00840042
0.00832522
0.00824964
0.00817578
0.00810603
0.00804217
0.00798103
0.00792211
0.00786512
0.00781027
0.0077586
0.00771219
0.00767407
0.00764795
0.00763781
0.00764736
0.0076792
0.00773413
0.00781078
0.00790537
0.00801257
0.00812605
0.00823923
0.00834601
0.00844063
0.00851835
0.00857553
0.00860935
0.00861661
0.00859599
0.00854656
0.00846843
0.00836007
0.00888835
0.0088529
0.00881832
0.00878214
0.008741
0.00869073
0.00862785
0.0085493
0.00845348
0.00834007
0.00820974
0.00806418
0.00790598
0.00773794
0.00756292
0.00738394
0.0072039
0.0070255
0.00685107
0.00668252
0.00652133
0.00636872
0.0062257
0.00609284
0.00597069
0.00586005
0.00576218
0.00567922
0.00561432
0.00557113
0.0055534
0.00556467
0.00560735
0.00568201
0.00578704
0.00591886
0.00607204
0.00624
0.00641594
0.00659343
0.0067664
0.00692928
0.00707713
0.00720562
0.00731105
0.00738988
0.00743961
0.00745848
0.00744575
0.0074007
0.0084391
0.00837371
0.00829217
0.00819267
0.00807354
0.00793343
0.00777176
0.00758898
0.00738625
0.00716574
0.00693031
0.00668317
0.00642793
0.0061682
0.00590771
0.0056501
0.00539859
0.00515613
0.00492531
0.00470819
0.00450639
0.00432126
0.00415387
0.00400503
0.0038755
0.00376622
0.00367849
0.00361393
0.00357442
0.0035619
0.00357808
0.00362396
0.00369943
0.00380318
0.00393256
0.00408392
0.00425288
0.0044348
0.00462508
0.00481927
0.00501298
0.005202
0.00538227
0.0055496
0.00570005
0.00582992
0.00593596
0.00601513
0.00606519
0.00608458
0.00678247
0.00666717
0.00652887
0.00636815
0.00618595
0.00598375
0.00576352
0.0055279
0.00527991
0.00502298
0.00476079
0.00449704
0.00423536
0.00397917
0.00373161
0.00349541
0.00327292
0.00306602
0.00287607
0.002704
0.00255039
0.00241556
0.00229965
0.00220268
0.00212463
0.00206554
0.00202555
0.00200489
0.00200382
0.00202251
0.00206096
0.00211875
0.00219498
0.00228842
0.0023975
0.0025204
0.00265513
0.00279968
0.00295198
0.00310989
0.00327108
0.00343299
0.00359285
0.00374767
0.00389439
0.00402984
0.0041508
0.00425407
0.00433697
0.00439747
0.00931223
0.00892516
0.00853453
0.00813832
0.00773702
0.00733185
0.00692468
0.00651798
0.00611464
0.00571783
0.00533084
0.0049569
0.00459904
0.00425996
0.00394195
0.00364682
0.00337583
0.00312975
0.00290883
0.00271294
0.00254152
0.00239373
0.00226852
0.00216467
0.00208087
0.00201579
0.00196806
0.0019363
0.00191911
0.0019151
0.00192284
0.00194096
0.00196819
0.00200337
0.00204549
0.00209375
0.00214746
0.00220604
0.00226891
0.00233545
0.00240491
0.00247634
0.0025486
0.0026204
0.00269029
0.0027566
0.00281762
0.0028716
0.00291701
0.00295253
9.32951e-06
9.24342e-06
9.14536e-06
9.03609e-06
8.92203e-06
8.80291e-06
8.67921e-06
8.55316e-06
8.42702e-06
8.30291e-06
8.18271e-06
8.06792e-06
7.95957e-06
7.85824e-06
7.76404e-06
7.67656e-06
7.59493e-06
7.5179e-06
7.44387e-06
7.37103e-06
7.29084e-06
7.20374e-06
7.10997e-06
6.98708e-06
6.86828e-06
6.75174e-06
6.63669e-06
6.52385e-06
6.41495e-06
6.31207e-06
6.21714e-06
6.13125e-06
6.05483e-06
5.98759e-06
5.92843e-06
5.87567e-06
5.82733e-06
5.7815e-06
5.73657e-06
5.6912e-06
5.64457e-06
5.59638e-06
5.54679e-06
5.49634e-06
5.44561e-06
5.3942e-06
5.34058e-06
5.28411e-06
5.22425e-06
5.1608e-06
9.00617e-06
8.46181e-06
7.93048e-06
7.4216e-06
6.9451e-06
6.50348e-06
6.09691e-06
5.72421e-06
5.38439e-06
5.0762e-06
4.79796e-06
4.54755e-06
4.32252e-06
4.12023e-06
3.93787e-06
3.77256e-06
3.62142e-06
3.48167e-06
3.35087e-06
3.22544e-06
3.11658e-06
3.10861e-06
7.31125e-07
7.31075e-07
7.30578e-07
7.29001e-07
7.26454e-07
7.23371e-07
7.20249e-07
7.17525e-07
7.15514e-07
7.14415e-07
7.14265e-07
7.14939e-07
7.1619e-07
7.17711e-07
7.19195e-07
7.20365e-07
7.2099e-07
7.20919e-07
7.20106e-07
7.1861e-07
7.16553e-07
7.14034e-07
7.11046e-07
7.07652e-07
7.03864e-07
6.99379e-07
6.93727e-07
6.86463e-07
8.99812e-06
8.43938e-06
7.89916e-06
7.38437e-06
6.90208e-06
6.45377e-06
6.03921e-06
5.65754e-06
5.30761e-06
4.98799e-06
4.69685e-06
4.43207e-06
4.19131e-06
3.97213e-06
3.77207e-06
3.58866e-06
3.41948e-06
3.26224e-06
3.11446e-06
7.18872e-07
7.18493e-07
7.16014e-07
7.11862e-07
7.06658e-07
7.00587e-07
6.93936e-07
6.86996e-07
6.80063e-07
6.7342e-07
6.67307e-07
6.61903e-07
6.57309e-07
6.53532e-07
6.50488e-07
6.48027e-07
6.45956e-07
6.44075e-07
6.42188e-07
6.40129e-07
6.37789e-07
6.35131e-07
6.32179e-07
6.28978e-07
6.2556e-07
6.22003e-07
6.18311e-07
6.14494e-07
6.1057e-07
6.06443e-07
6.01653e-07
8.99757e-06
8.43714e-06
7.89886e-06
7.38853e-06
6.9114e-06
6.46795e-06
6.05753e-06
5.6791e-06
5.33137e-06
5.01286e-06
4.72174e-06
4.45595e-06
4.21334e-06
3.99169e-06
3.78875e-06
3.60224e-06
3.42992e-06
3.26963e-06
3.11896e-06
7.19027e-07
7.18335e-07
7.15588e-07
7.11225e-07
7.0561e-07
6.99063e-07
6.91889e-07
6.84389e-07
6.76859e-07
6.69567e-07
6.6274e-07
6.56545e-07
6.51078e-07
6.46349e-07
6.42286e-07
6.38757e-07
6.35591e-07
6.32603e-07
6.29611e-07
6.26463e-07
6.23075e-07
6.1943e-07
6.15558e-07
6.11513e-07
6.07355e-07
6.03095e-07
5.98681e-07
5.94034e-07
5.89151e-07
5.84144e-07
5.7893e-07
8.99667e-06
8.43207e-06
7.89154e-06
7.38111e-06
6.90515e-06
6.46358e-06
6.05541e-06
5.67928e-06
5.33364e-06
5.01672e-06
4.72651e-06
4.46092e-06
4.21786e-06
3.99526e-06
3.79106e-06
3.60313e-06
3.42939e-06
3.26783e-06
3.11619e-06
7.18519e-07
7.17785e-07
7.15057e-07
7.10761e-07
7.0524e-07
6.98797e-07
6.91725e-07
6.84315e-07
6.76847e-07
6.6958e-07
6.62733e-07
6.56478e-07
6.50914e-07
6.46058e-07
6.41845e-07
6.38145e-07
6.34788e-07
6.31584e-07
6.28353e-07
6.24952e-07
6.21305e-07
6.174e-07
6.13271e-07
6.0898e-07
6.04607e-07
6.00208e-07
5.95773e-07
5.91197e-07
5.86337e-07
5.81194e-07
5.75784e-07
8.99496e-06
8.42636e-06
7.88461e-06
7.37542e-06
6.90226e-06
6.4644e-06
6.06029e-06
5.68804e-06
5.34563e-06
5.03095e-06
4.74189e-06
4.47639e-06
4.23255e-06
4.00849e-06
3.80238e-06
3.61234e-06
3.43651e-06
3.2731e-06
3.12006e-06
7.18971e-07
7.18152e-07
7.15411e-07
7.11156e-07
7.05713e-07
6.99371e-07
6.92404e-07
6.85085e-07
6.77677e-07
6.7043e-07
6.63568e-07
6.57273e-07
6.51653e-07
6.4673e-07
6.42439e-07
6.38654e-07
6.35203e-07
6.31893e-07
6.28545e-07
6.25023e-07
6.2125e-07
6.17212e-07
6.12934e-07
6.08476e-07
6.03912e-07
5.99314e-07
5.94727e-07
5.90117e-07
5.85348e-07
5.80322e-07
5.75007e-07
8.99281e-06
8.41919e-06
7.87574e-06
7.36738e-06
6.89659e-06
6.46208e-06
6.06167e-06
5.69291e-06
5.35327e-06
5.04035e-06
4.75193e-06
4.48603e-06
4.24093e-06
4.015e-06
3.80662e-06
3.61421e-06
3.43619e-06
3.27104e-06
3.11685e-06
7.18398e-07
7.17578e-07
7.14904e-07
7.1077e-07
7.05485e-07
6.99318e-07
6.92521e-07
6.85345e-07
6.78038e-07
6.70853e-07
6.64027e-07
6.57751e-07
6.52141e-07
6.4722e-07
6.42928e-07
6.39141e-07
6.35687e-07
6.32376e-07
6.29019e-07
6.25474e-07
6.21654e-07
6.1754e-07
6.13168e-07
6.08606e-07
6.03931e-07
5.99203e-07
5.94462e-07
5.89719e-07
5.84901e-07
5.79905e-07
5.74663e-07
8.99045e-06
8.41111e-06
7.86574e-06
7.35846e-06
6.89058e-06
6.46008e-06
6.06404e-06
5.69932e-06
5.36287e-06
5.052e-06
4.76441e-06
4.49825e-06
4.25197e-06
4.02417e-06
3.81352e-06
3.61877e-06
3.43866e-06
3.27189e-06
3.11665e-06
7.1828e-07
7.17428e-07
7.14794e-07
7.10756e-07
7.05606e-07
6.99587e-07
6.92924e-07
6.85845e-07
6.78595e-07
6.71434e-07
6.64612e-07
6.58328e-07
6.52699e-07
6.47757e-07
6.43451e-07
6.39666e-07
6.36234e-07
6.32953e-07
6.29622e-07
6.26077e-07
6.22213e-07
6.18006e-07
6.13499e-07
6.08782e-07
6.03951e-07
5.9908e-07
5.94204e-07
5.89334e-07
5.84436e-07
5.79428e-07
5.74244e-07
8.98791e-06
8.40249e-06
7.85511e-06
7.34904e-06
6.88428e-06
6.45789e-06
6.06616e-06
5.70526e-06
5.37172e-06
5.06259e-06
4.77558e-06
4.50891e-06
4.26119e-06
4.0313e-06
3.81824e-06
3.62111e-06
3.43895e-06
3.27063e-06
3.11443e-06
7.17874e-07
7.17022e-07
7.14459e-07
7.10548e-07
7.05554e-07
6.99689e-07
6.93155e-07
6.86165e-07
6.78966e-07
6.71828e-07
6.65008e-07
6.58709e-07
6.53059e-07
6.48103e-07
6.43808e-07
6.40065e-07
6.36697e-07
6.33483e-07
6.302e-07
6.26664e-07
6.22764e-07
6.18467e-07
6.13819e-07
6.08914e-07
6.03869e-07
5.98785e-07
5.93723e-07
5.88704e-07
5.83707e-07
5.78667e-07
5.73525e-07
8.98522e-06
8.39375e-06
7.84451e-06
7.33983e-06
6.87829e-06
6.45596e-06
6.06836e-06
5.71109e-06
5.38031e-06
5.0729e-06
4.7865e-06
4.51938e-06
4.27031e-06
4.03845e-06
3.82317e-06
3.6239e-06
3.43995e-06
3.27032e-06
3.11333e-06
7.17658e-07
7.16812e-07
7.14325e-07
7.10536e-07
7.05681e-07
6.99945e-07
6.93509e-07
6.86582e-07
6.79412e-07
6.72276e-07
6.65435e-07
6.59104e-07
6.53429e-07
6.48473e-07
6.44214e-07
6.4054e-07
6.37254e-07
6.3411e-07
6.30866e-07
6.27328e-07
6.23377e-07
6.18981e-07
6.14178e-07
6.09062e-07
6.03759e-07
5.98403e-07
5.93091e-07
5.8787e-07
5.82733e-07
5.77634e-07
5.72517e-07
8.98247e-06
8.38519e-06
7.83433e-06
7.33108e-06
6.87256e-06
6.45397e-06
6.07014e-06
5.71623e-06
5.38804e-06
5.08227e-06
4.79642e-06
4.52879e-06
4.27835e-06
4.04459e-06
3.82725e-06
3.62608e-06
3.44056e-06
3.26983e-06
3.11226e-06
7.17637e-07
7.16745e-07
7.14279e-07
7.10566e-07
7.05818e-07
7.00196e-07
6.93862e-07
6.87013e-07
6.79892e-07
6.72774e-07
6.65929e-07
6.59589e-07
6.53919e-07
6.48997e-07
6.448e-07
6.41204e-07
6.37995e-07
6.34914e-07
6.31704e-07
6.28163e-07
6.24158e-07
6.19646e-07
6.1466e-07
6.09295e-07
6.03695e-07
5.98024e-07
5.92416e-07
5.86949e-07
5.81633e-07
5.7644e-07
5.71329e-07
8.97978e-06
8.377e-06
7.82465e-06
7.32269e-06
6.86687e-06
6.45164e-06
6.07127e-06
5.72049e-06
5.39476e-06
5.09048e-06
4.80503e-06
4.53679e-06
4.285e-06
4.04948e-06
3.83034e-06
3.62756e-06
3.44079e-06
3.26924e-06
3.11202e-06
7.30153e-07
7.24653e-07
7.19108e-07
7.13423e-07
7.0749e-07
7.01215e-07
6.94561e-07
6.8758e-07
6.80417e-07
6.73291e-07
6.66452e-07
6.6013e-07
6.54495e-07
6.49627e-07
6.45497e-07
6.41973e-07
6.38834e-07
6.35812e-07
6.32643e-07
6.29099e-07
6.25031e-07
6.20377e-07
6.15166e-07
6.09506e-07
6.03562e-07
5.97532e-07
5.91579e-07
5.85815e-07
5.80285e-07
5.74981e-07
5.69873e-07
8.97719e-06
8.36928e-06
7.81547e-06
7.31457e-06
6.86113e-06
6.44897e-06
6.07186e-06
5.72404e-06
5.40058e-06
5.09759e-06
4.81242e-06
4.5436e-06
4.29067e-06
4.0538e-06
3.83333e-06
3.62943e-06
3.44185e-06
3.26988e-06
3.11263e-06
7.30481e-07
7.25092e-07
7.19594e-07
7.1392e-07
7.0798e-07
7.01684e-07
6.94994e-07
6.87963e-07
6.8074e-07
6.73556e-07
6.66675e-07
6.60338e-07
6.54721e-07
6.49901e-07
6.45845e-07
6.42414e-07
6.39382e-07
6.36463e-07
6.3337e-07
6.2985e-07
6.25725e-07
6.2092e-07
6.15469e-07
6.09496e-07
6.03199e-07
5.96799e-07
5.90492e-07
5.84421e-07
5.78668e-07
5.73254e-07
5.68159e-07
8.97474e-06
8.36213e-06
7.8069e-06
7.30683e-06
6.85545e-06
6.44598e-06
6.07165e-06
5.72623e-06
5.40439e-06
5.10212e-06
4.81683e-06
4.54728e-06
4.29331e-06
4.05531e-06
3.83381e-06
3.62908e-06
3.44099e-06
3.26882e-06
3.11166e-06
7.30382e-07
7.25057e-07
7.1962e-07
7.13996e-07
7.08084e-07
7.0179e-07
6.95075e-07
6.88e-07
6.80728e-07
6.73506e-07
6.66613e-07
6.60298e-07
6.54743e-07
6.50026e-07
6.4611e-07
6.42848e-07
6.39992e-07
6.37235e-07
6.34253e-07
6.3077e-07
6.26596e-07
6.21649e-07
6.1597e-07
6.09694e-07
6.03044e-07
5.9627e-07
5.89602e-07
5.83225e-07
5.77247e-07
5.71714e-07
5.66609e-07
8.9725e-06
8.35585e-06
7.79944e-06
7.30018e-06
6.85078e-06
6.44384e-06
6.07203e-06
5.72867e-06
5.4082e-06
5.10659e-06
4.8214e-06
4.55161e-06
4.29718e-06
4.05866e-06
3.83667e-06
3.63161e-06
3.44338e-06
3.27126e-06
3.11424e-06
7.30794e-07
7.25475e-07
7.20039e-07
7.14403e-07
7.08458e-07
7.02107e-07
6.95317e-07
6.88159e-07
6.80813e-07
6.7354e-07
6.66631e-07
6.60348e-07
6.54875e-07
6.50291e-07
6.46553e-07
6.43489e-07
6.40825e-07
6.38227e-07
6.35347e-07
6.31892e-07
6.27662e-07
6.2258e-07
6.16681e-07
6.1012e-07
6.03138e-07
5.96012e-07
5.89007e-07
5.82338e-07
5.76149e-07
5.70505e-07
5.65399e-07
8.97056e-06
8.35057e-06
7.79289e-06
7.29377e-06
6.84524e-06
6.43939e-06
6.06851e-06
5.72569e-06
5.40536e-06
5.10359e-06
4.81807e-06
4.54784e-06
4.29299e-06
4.05412e-06
3.83194e-06
3.62689e-06
3.43887e-06
3.2671e-06
3.11047e-06
7.30275e-07
7.25016e-07
7.19626e-07
7.1401e-07
7.08058e-07
7.01674e-07
6.94837e-07
6.87631e-07
6.80248e-07
6.72963e-07
6.6608e-07
6.59873e-07
6.54535e-07
6.50129e-07
6.4659e-07
6.43728e-07
6.41246e-07
6.38795e-07
6.3602e-07
6.3262e-07
6.28385e-07
6.23234e-07
6.17204e-07
6.10467e-07
6.03282e-07
5.95952e-07
5.88767e-07
5.81968e-07
5.75722e-07
5.7012e-07
5.65178e-07
8.96906e-06
8.34696e-06
7.78924e-06
7.29148e-06
6.84476e-06
6.44066e-06
6.07114e-06
5.72923e-06
5.40943e-06
5.10793e-06
4.82245e-06
4.55212e-06
4.29707e-06
4.05801e-06
3.83573e-06
3.63069e-06
3.44274e-06
3.27102e-06
3.11437e-06
7.30889e-07
7.25646e-07
7.20283e-07
7.14682e-07
7.0872e-07
7.02307e-07
6.95428e-07
6.88184e-07
6.80783e-07
6.73517e-07
6.66708e-07
6.60636e-07
6.55477e-07
6.51285e-07
6.47972e-07
6.45333e-07
6.43072e-07
6.40831e-07
6.38249e-07
6.35015e-07
6.30927e-07
6.25894e-07
6.19971e-07
6.13334e-07
6.06252e-07
5.99048e-07
5.92037e-07
5.85489e-07
5.79598e-07
5.74477e-07
5.70177e-07
8.96803e-06
8.34059e-06
7.77844e-06
7.27755e-06
6.82865e-06
6.42312e-06
6.05276e-06
5.71051e-06
5.39081e-06
5.08975e-06
4.805e-06
4.53565e-06
4.28184e-06
4.04431e-06
3.82386e-06
3.62084e-06
3.43498e-06
3.26531e-06
3.11065e-06
7.30856e-07
7.26256e-07
7.21708e-07
7.16846e-07
7.115e-07
7.05559e-07
6.99031e-07
6.92264e-07
6.85409e-07
6.7876e-07
6.72633e-07
6.67309e-07
6.62965e-07
6.59645e-07
6.57275e-07
6.55655e-07
6.54475e-07
6.5339e-07
6.52014e-07
6.49994e-07
6.47078e-07
6.43166e-07
6.38306e-07
6.32678e-07
6.26566e-07
6.20317e-07
6.1428e-07
6.08771e-07
6.04037e-07
6.00244e-07
5.97493e-07
8.96924e-06
8.34661e-06
7.79295e-06
7.30066e-06
6.86172e-06
6.46818e-06
6.11128e-06
5.7838e-06
5.47973e-06
5.19447e-06
4.9251e-06
4.67026e-06
4.42993e-06
4.20486e-06
3.996e-06
3.80406e-06
3.62943e-06
3.47132e-06
3.32876e-06
3.19973e-06
3.09295e-06
3.09123e-06
7.30125e-07
7.26317e-07
7.21465e-07
7.15811e-07
7.1535e-07
7.15563e-07
7.15659e-07
7.15688e-07
7.15937e-07
7.16618e-07
7.17907e-07
7.19997e-07
7.22785e-07
7.25928e-07
7.28929e-07
7.31257e-07
3.09073e-06
3.0896e-06
7.30597e-07
7.27433e-07
7.23031e-07
7.17777e-07
7.12149e-07
7.06634e-07
7.01668e-07
6.97615e-07
6.9475e-07
6.93305e-07
9.31888e-06
9.18618e-06
9.06771e-06
8.96163e-06
8.86401e-06
8.77026e-06
8.67707e-06
8.58131e-06
8.48092e-06
8.37518e-06
8.26474e-06
8.15132e-06
8.03736e-06
7.9254e-06
7.81768e-06
7.71582e-06
7.62041e-06
7.53154e-06
7.4477e-06
7.3668e-06
7.27986e-06
7.18663e-06
7.08732e-06
6.9827e-06
6.87422e-06
6.76397e-06
6.63389e-06
6.51628e-06
6.41111e-06
6.3175e-06
6.23499e-06
6.16361e-06
6.10214e-06
6.04722e-06
5.99563e-06
5.94418e-06
5.88995e-06
5.83076e-06
5.76552e-06
5.69406e-06
5.61722e-06
5.53667e-06
5.45467e-06
5.37371e-06
5.29612e-06
5.22372e-06
5.15731e-06
5.09696e-06
5.04208e-06
4.99176e-06
9.42806e-05
1.27404e-05
1.00643e-05
9.13792e-06
6.98913e-06
4.73978e-06
3.359e-06
6.62768e-07
5.82212e-07
5.32031e-07
5.15426e-07
5.32392e-07
5.65613e-07
6.09664e-07
6.58693e-07
7.0492e-07
3.36788e-06
4.32338e-06
6.04396e-06
3.48379e-05
9.06797e-05
1.22608e-05
1.00671e-05
9.17225e-06
6.96451e-06
4.66981e-06
3.30141e-06
6.53041e-07
5.71075e-07
5.19589e-07
5.03191e-07
5.2303e-07
5.55489e-07
6.01165e-07
6.53283e-07
7.02244e-07
3.3506e-06
4.3082e-06
6.04145e-06
3.65161e-05
8.71834e-05
1.18146e-05
1.00785e-05
9.20846e-06
6.94169e-06
4.60305e-06
3.24912e-06
6.43861e-07
5.6035e-07
5.07206e-07
4.86748e-07
5.1045e-07
5.46402e-07
5.94106e-07
6.48307e-07
6.99139e-07
3.31582e-06
4.26293e-06
6.00457e-06
3.81191e-05
8.37809e-05
1.13998e-05
1.00966e-05
9.24566e-06
6.92068e-06
4.53989e-06
3.20236e-06
6.3531e-07
5.50407e-07
4.96349e-07
4.77262e-07
4.99165e-07
5.37239e-07
5.8718e-07
6.43525e-07
6.96161e-07
3.28258e-06
4.21896e-06
5.97005e-06
3.97927e-05
8.04614e-05
1.10171e-05
1.01208e-05
9.2841e-06
6.90234e-06
4.48119e-06
3.16127e-06
6.27247e-07
5.40737e-07
4.85068e-07
4.65738e-07
4.8858e-07
5.28405e-07
5.80477e-07
6.38908e-07
6.93258e-07
3.2505e-06
4.17617e-06
5.9381e-06
4.15446e-05
7.72265e-05
1.06661e-05
1.01504e-05
9.32407e-06
6.88766e-06
4.42831e-06
3.12711e-06
6.20007e-07
5.31953e-07
4.74535e-07
4.53553e-07
4.78151e-07
5.19924e-07
5.7405e-07
6.34471e-07
6.90427e-07
3.2195e-06
4.13473e-06
5.90922e-06
4.33824e-05
7.40787e-05
1.03472e-05
1.01851e-05
9.36584e-06
6.87722e-06
4.38166e-06
3.09948e-06
6.13517e-07
5.24093e-07
4.65129e-07
4.42476e-07
4.67888e-07
5.11715e-07
5.67922e-07
6.30257e-07
6.87708e-07
3.18975e-06
4.09494e-06
5.88393e-06
4.53131e-05
7.10205e-05
1.00601e-05
1.02244e-05
9.41011e-06
6.87227e-06
4.3424e-06
3.07863e-06
6.07782e-07
5.1713e-07
4.56803e-07
4.3286e-07
4.57958e-07
5.03729e-07
5.62114e-07
6.26309e-07
6.8514e-07
3.16136e-06
4.05697e-06
5.86254e-06
4.73423e-05
6.80539e-05
9.80349e-06
1.02675e-05
9.45682e-06
6.87336e-06
4.31117e-06
3.06455e-06
6.02819e-07
5.11076e-07
4.49487e-07
4.24361e-07
4.48394e-07
4.95965e-07
5.56645e-07
6.22652e-07
6.82738e-07
3.13428e-06
4.02074e-06
5.84499e-06
4.94738e-05
6.51801e-05
9.57579e-06
1.03138e-05
9.50612e-06
6.88091e-06
4.28825e-06
7.2492e-07
5.98592e-07
5.05896e-07
4.4313e-07
4.16792e-07
4.39227e-07
4.88474e-07
5.51544e-07
6.19283e-07
6.80481e-07
3.10823e-06
3.98597e-06
5.83103e-06
5.17102e-05
6.23977e-05
9.3752e-06
1.03623e-05
9.55824e-06
6.8954e-06
4.27536e-06
7.21153e-07
5.94829e-07
5.01527e-07
4.3765e-07
4.10188e-07
4.30646e-07
4.81387e-07
5.46833e-07
6.16173e-07
6.78321e-07
3.08287e-06
3.95236e-06
5.82051e-06
5.40543e-05
5.97053e-05
9.19956e-06
1.04125e-05
9.61327e-06
6.91709e-06
4.27103e-06
7.18184e-07
5.91811e-07
4.97882e-07
4.3292e-07
4.04593e-07
4.22911e-07
4.74867e-07
5.42533e-07
6.1328e-07
6.76215e-07
7.25243e-07
3.91982e-06
5.81356e-06
5.65105e-05
5.71017e-05
9.04659e-06
1.04637e-05
9.67122e-06
6.94578e-06
4.27453e-06
7.15962e-07
5.89418e-07
4.94787e-07
4.28764e-07
3.99882e-07
4.16158e-07
4.69027e-07
5.38636e-07
6.10557e-07
6.74138e-07
7.23666e-07
3.8886e-06
5.81053e-06
5.90843e-05
5.45854e-05
8.91375e-06
1.05154e-05
9.73186e-06
6.98092e-06
4.28491e-06
7.14345e-07
5.87486e-07
4.92044e-07
4.24949e-07
3.95722e-07
4.10255e-07
4.63852e-07
5.35094e-07
6.07962e-07
6.72157e-07
7.2223e-07
3.85812e-06
5.81195e-06
6.17826e-05
5.21543e-05
8.79835e-06
1.0567e-05
9.79474e-06
7.02162e-06
4.30094e-06
7.13159e-07
5.85823e-07
4.89438e-07
4.21213e-07
3.9164e-07
4.04805e-07
4.59189e-07
5.31819e-07
6.05461e-07
6.70216e-07
7.20968e-07
3.82959e-06
5.81824e-06
6.46131e-05
4.98065e-05
8.69795e-06
1.0618e-05
9.85941e-06
7.06689e-06
4.32134e-06
7.12229e-07
5.84255e-07
4.8678e-07
4.17312e-07
3.87219e-07
3.9933e-07
4.54796e-07
5.28705e-07
6.03022e-07
6.68323e-07
7.19816e-07
3.80306e-06
5.82958e-06
6.75824e-05
4.75399e-05
8.61076e-06
1.06683e-05
9.92566e-06
7.11591e-06
4.345e-06
7.11416e-07
5.82646e-07
4.83939e-07
4.13096e-07
3.82209e-07
3.93568e-07
4.50465e-07
5.25666e-07
6.00625e-07
6.66484e-07
7.18736e-07
3.7784e-06
5.84596e-06
7.06969e-05
4.53533e-05
8.53589e-06
1.07185e-05
9.99371e-06
7.16815e-06
4.37111e-06
7.10629e-07
5.80931e-07
4.80875e-07
4.08544e-07
3.76523e-07
3.87632e-07
4.46128e-07
5.22675e-07
5.98274e-07
6.64701e-07
7.17697e-07
3.75547e-06
5.86734e-06
7.39644e-05
4.32471e-05
8.47304e-06
1.07694e-05
1.00641e-05
7.2234e-06
4.39921e-06
7.09839e-07
5.79108e-07
4.77644e-07
4.03794e-07
3.70169e-07
3.81877e-07
4.41892e-07
5.19792e-07
5.96012e-07
6.62993e-07
7.16684e-07
3.73419e-06
5.89392e-06
7.73951e-05
4.12225e-05
8.42189e-06
1.08222e-05
1.01374e-05
7.28154e-06
4.42916e-06
7.09064e-07
5.7724e-07
4.74401e-07
3.99157e-07
3.63275e-07
3.76615e-07
4.37991e-07
5.17151e-07
5.93916e-07
6.61398e-07
7.15707e-07
3.71466e-06
5.9262e-06
8.10026e-05
3.92807e-05
8.38167e-06
1.08774e-05
1.02136e-05
7.34238e-06
4.46101e-06
7.08367e-07
5.75443e-07
4.71396e-07
3.95152e-07
3.56494e-07
3.71969e-07
4.34677e-07
5.14924e-07
5.92095e-07
6.59983e-07
7.14807e-07
3.69717e-06
5.96495e-06
8.48016e-05
3.74213e-05
8.35106e-06
1.09352e-05
1.02925e-05
7.40555e-06
4.49497e-06
7.07841e-07
5.73867e-07
4.68943e-07
3.92459e-07
3.51694e-07
3.68207e-07
4.32177e-07
5.1329e-07
5.90656e-07
6.58818e-07
7.14035e-07
3.68203e-06
6.01329e-06
8.8799e-05
3.56424e-05
8.32839e-06
1.09948e-05
1.0373e-05
7.47063e-06
4.53138e-06
7.07602e-07
5.7267e-07
4.67348e-07
3.91695e-07
3.51504e-07
3.65517e-07
4.30588e-07
5.12404e-07
5.89672e-07
6.57953e-07
7.13427e-07
3.66937e-06
6.08141e-06
9.29763e-05
3.39403e-05
8.31222e-06
1.10551e-05
1.04543e-05
7.53735e-06
4.57065e-06
7.07762e-07
5.71984e-07
4.67019e-07
3.93453e-07
3.52751e-07
3.63916e-07
4.30233e-07
5.1231e-07
5.89117e-07
6.57377e-07
7.12992e-07
3.65925e-06
6.18288e-06
9.72968e-05
3.23109e-05
8.30101e-06
1.11164e-05
1.05376e-05
7.60569e-06
4.61222e-06
7.08377e-07
5.72128e-07
4.67907e-07
3.96188e-07
3.55421e-07
3.64461e-07
4.31505e-07
5.12854e-07
5.88839e-07
6.57015e-07
7.12704e-07
3.65176e-06
6.31361e-06
0.000101757
3.07503e-05
8.29428e-06
1.11788e-05
1.06236e-05
7.67759e-06
4.65685e-06
7.09327e-07
5.72798e-07
4.69353e-07
3.9931e-07
3.59394e-07
3.68907e-07
4.33943e-07
5.13693e-07
5.88737e-07
6.56756e-07
7.12548e-07
3.64702e-06
6.4673e-06
0.000106353
2.92575e-05
8.29157e-06
1.12426e-05
1.07127e-05
7.75338e-06
4.70464e-06
7.1057e-07
5.73844e-07
4.71104e-07
4.02538e-07
3.63658e-07
3.75269e-07
4.36923e-07
5.14627e-07
5.88711e-07
6.56557e-07
7.12446e-07
3.64429e-06
6.63851e-06
0.000111082
2.78348e-05
8.29074e-06
1.13087e-05
1.08055e-05
7.83338e-06
4.75571e-06
7.12061e-07
5.75175e-07
4.73017e-07
4.05641e-07
3.6745e-07
3.81135e-07
4.39941e-07
5.15481e-07
5.88676e-07
6.56368e-07
7.12351e-07
3.64298e-06
6.82226e-06
0.000115943
2.64814e-05
8.29235e-06
1.13776e-05
1.09028e-05
7.91794e-06
4.81022e-06
7.13776e-07
5.76745e-07
4.75033e-07
4.08529e-07
3.70563e-07
3.85207e-07
4.42707e-07
5.16152e-07
5.88592e-07
6.56173e-07
7.12252e-07
3.64278e-06
7.01522e-06
0.000120937
2.51959e-05
8.29676e-06
1.145e-05
1.10048e-05
8.00739e-06
4.86847e-06
7.15717e-07
5.78559e-07
4.77173e-07
4.11312e-07
3.73654e-07
3.8786e-07