/*--------------------------------*- C++ -*----------------------------------*\
  =========                 |
  \\      /  F ield         | OpenFOAM: The Open Source CFD Toolbox
   \\    /   O peration     | Website:  https://openfoam.org
    \\  /    A nd           | Version:  8
     \\/     M anipulation  |
\*---------------------------------------------------------------------------*/
FoamFile
{
    version     2.0;
    format      ascii;
    class       volScalarField;
    location    "400";
    object      k;
}
// * * * * * * * * * * * * * * * * * * * * * * * * * * * * * * * * * * * * * //

dimensions      [0 2 -2 0 0 0 0];

internalField   nonuniform List<scalar> 
8400
(
0.00520539
0.00508754
0.00496155
0.00483103
0.00469544
0.00455409
0.00440615
0.00425634
0.00412266
0.00400924
0.00391467
0.00383554
0.00376741
0.00370702
0.00365238
0.0036021
0.003554
0.00350542
0.00345751
0.00341209
0.00336657
0.00331922
0.00326717
0.00320577
0.003131
0.00304855
0.00296266
0.00287984
0.00280093
0.0027169
0.00263159
0.00254912
0.00247266
0.00240434
0.00234518
0.00229576
0.00225613
0.0022244
0.0021919
0.0021468
0.00209366
0.00203374
0.00196765
0.00189466
0.00181828
0.00173915
0.00165772
0.0015737
0.00148785
0.00140142
0.00279383
0.00283306
0.00283269
0.00279787
0.00274526
0.00269119
0.00265846
0.00266341
0.00267573
0.00268939
0.00270155
0.00271096
0.0027174
0.00271871
0.00270968
0.00270112
0.0026935
0.00268376
0.00267155
0.00265645
0.00263706
0.00260963
0.00257437
0.00252993
0.00249465
0.00242705
0.00219855
0.00219662
0.0021898
0.0021654
0.00212883
0.00208356
0.00203309
0.00197364
0.00190524
0.00183075
0.00175958
0.00168983
0.00163146
0.00159532
0.00156257
0.00153289
0.00150553
0.00148586
0.00146485
0.00144
0.00141167
0.00138533
0.00136236
0.00134358
0.00297127
0.00292574
0.0028755
0.00283165
0.00280184
0.00278772
0.00278534
0.00278965
0.00279633
0.00280278
0.00280731
0.0028094
0.00280902
0.00280642
0.00280199
0.00279608
0.00278891
0.00278054
0.00277096
0.00275998
0.00274715
0.00273354
0.00271736
0.002697
0.0026715
0.00263224
0.00256381
0.00251497
0.00248554
0.00246861
0.00246087
0.00245998
0.00245705
0.00244512
0.00241807
0.00222029
0.00205949
0.00195381
0.00188023
0.00181915
0.00177856
0.00176055
0.00175701
0.00176393
0.00176299
0.00175034
0.00173246
0.00172489
0.00172418
0.00173058
0.00299243
0.00298376
0.00297537
0.00296742
0.0029601
0.00295332
0.00294704
0.00294108
0.00293528
0.00292955
0.00292376
0.00291781
0.00291166
0.00290524
0.00289856
0.00289149
0.00288404
0.00287609
0.00286754
0.00285825
0.00284849
0.00283732
0.00282443
0.00280969
0.00279266
0.00277217
0.00274649
0.00272024
0.00269712
0.00267779
0.00266134
0.00264664
0.00263249
0.00261767
0.00260084
0.00258072
0.00254871
0.00251513
0.00247451
0.00242791
0.00238531
0.00234204
0.0023065
0.00217983
0.00205901
0.00201481
0.00201022
0.00202872
0.00205658
0.00207107
0.00299633
0.00299239
0.00298837
0.00298424
0.00297998
0.00297559
0.00297101
0.00296628
0.00296141
0.0029564
0.00295128
0.0029461
0.00294084
0.00293558
0.00293029
0.00292499
0.00291967
0.00291434
0.00290897
0.00290343
0.0028973
0.0028904
0.00288264
0.00287388
0.00286401
0.0028529
0.0028405
0.00282739
0.00281434
0.00280184
0.00279004
0.00277883
0.00276795
0.00275704
0.00274564
0.00273322
0.00271877
0.0027027
0.00268411
0.00266232
0.00263788
0.00261021
0.00257981
0.00254514
0.00250187
0.00246682
0.00243833
0.0024168
0.00239034
0.00235563
0.00299498
0.00298954
0.00298399
0.00297835
0.00297259
0.0029667
0.00296069
0.00295454
0.00294825
0.00294186
0.0029354
0.00292888
0.00292239
0.00291595
0.00290961
0.00290343
0.0028974
0.00289161
0.00288606
0.0028807
0.00287556
0.00287057
0.00286557
0.00286042
0.00285494
0.00284898
0.00284245
0.00283536
0.00282787
0.00282016
0.00281231
0.00280437
0.00279634
0.00278815
0.00277965
0.00277063
0.00276087
0.00275013
0.00273805
0.00272419
0.00270823
0.00268978
0.00266862
0.00264447
0.00261694
0.00258866
0.00256016
0.00253227
0.00250437
0.00247588
0.00299428
0.00298801
0.00298163
0.00297512
0.00296844
0.00296152
0.00295442
0.00294706
0.00293949
0.00293168
0.0029237
0.00291558
0.00290741
0.00289927
0.00289126
0.00288348
0.00287602
0.00286897
0.00286239
0.00285607
0.00285017
0.00284468
0.00283953
0.00283464
0.00282985
0.00282502
0.00282001
0.00281468
0.00280898
0.00280293
0.0027966
0.00279008
0.00278343
0.00277671
0.00276994
0.00276309
0.00275606
0.00274864
0.0027405
0.00273128
0.00272053
0.00270779
0.0026927
0.00267501
0.00265455
0.00263181
0.00260717
0.0025811
0.00255384
0.00252557
0.00299309
0.00298544
0.00297758
0.00296955
0.00296138
0.00295293
0.00294412
0.00293497
0.00292543
0.00291552
0.00290521
0.00289459
0.00288368
0.00287278
0.00286212
0.00285188
0.00284237
0.00283377
0.00282595
0.00281886
0.00281253
0.00280687
0.00280184
0.00279728
0.00279305
0.00278896
0.0027848
0.0027804
0.00277567
0.00277059
0.00276521
0.00275966
0.002754
0.0027484
0.00274301
0.00273787
0.00273294
0.00272804
0.00272287
0.00271704
0.00271002
0.00270129
0.00269039
0.00267701
0.00266095
0.00264223
0.00262104
0.00259763
0.0025723
0.00254531
0.00299145
0.00298172
0.00297181
0.00296161
0.002951
0.00294023
0.00292884
0.00291667
0.00290373
0.00288979
0.00287485
0.00285865
0.00284095
0.00282337
0.00280625
0.00279033
0.002777
0.00276681
0.00275841
0.00275182
0.00274694
0.00274343
0.00274101
0.00273929
0.00273787
0.0027364
0.00273464
0.00273243
0.00272966
0.00272635
0.00272258
0.00271855
0.00271444
0.00271049
0.0027069
0.0027038
0.00270114
0.0026988
0.0026964
0.0026935
0.0026895
0.00268386
0.00267603
0.00266568
0.00265258
0.00263663
0.00261794
0.00259666
0.00257304
0.00254729
0.00298844
0.00297493
0.00296105
0.00294673
0.00293181
0.00291607
0.00289978
0.00288116
0.00286003
0.00283541
0.00280698
0.00277208
0.00272418
0.00268604
0.00264964
0.0026138
0.00258986
0.00258002
0.00257345
0.00257644
0.00258661
0.00260066
0.00261599
0.00263063
0.0026433
0.00265332
0.00266071
0.00266568
0.00266855
0.00266977
0.00266976
0.00266903
0.00266794
0.00266686
0.00266606
0.00266571
0.00266584
0.00266628
0.00266662
0.00266636
0.00266488
0.00266153
0.00265588
0.00264757
0.00263635
0.00262213
0.00260503
0.00258513
0.00256259
0.00253762
0.00298142
0.00295815
0.00293472
0.00290962
0.00288169
0.00284934
0.00281082
0.00276935
0.00272298
0.0026564
0.00257546
0.00245525
0.00219276
0.00211658
0.00210648
0.00214206
0.00217915
0.00223305
0.00231559
0.0023794
0.00242757
0.00247013
0.00251406
0.00254372
0.00256683
0.00258395
0.00259643
0.00260536
0.00261163
0.00261595
0.00261885
0.00262095
0.00262267
0.00262439
0.00262642
0.0026289
0.00263174
0.00263469
0.00263729
0.00263897
0.00263915
0.00263729
0.00263288
0.00262557
0.00261527
0.00260196
0.00258559
0.00256625
0.00254414
0.00251939
0.00288184
0.00279556
0.00266015
0.00249938
0.00235982
0.00226007
0.00219487
0.00215738
0.00214486
0.00215158
0.00216364
0.00217757
0.00219291
0.00220945
0.00222694
0.00224553
0.00226521
0.00228642
0.00231031
0.00233827
0.00237166
0.00240755
0.00244237
0.00247256
0.00249803
0.00251886
0.00253575
0.00254908
0.00255936
0.00256741
0.00257387
0.0025791
0.00258367
0.00258811
0.00259248
0.00259698
0.00260167
0.00260619
0.00261003
0.00261269
0.00261356
0.00261212
0.00260798
0.00260086
0.00259064
0.00257729
0.00256083
0.00254138
0.00251907
0.00249397
0.00269751
0.00259979
0.00248407
0.0023714
0.00228506
0.00223266
0.00220905
0.00220504
0.00221202
0.00222357
0.00223674
0.00225122
0.00226619
0.0022812
0.00229595
0.00231041
0.00232451
0.00233831
0.0023521
0.00236628
0.00238131
0.00239755
0.00241571
0.00243463
0.00245313
0.00247047
0.00248627
0.00250029
0.00251253
0.00252314
0.00253234
0.00254046
0.00254786
0.00255465
0.00256086
0.00256677
0.00257246
0.00257757
0.00258181
0.00258463
0.00258554
0.00258411
0.0025801
0.00257282
0.00256213
0.00254803
0.00253092
0.0025108
0.00248774
0.00246174
0.00252789
0.00245515
0.00238209
0.00231993
0.00227713
0.00225524
0.00225025
0.00225592
0.00226685
0.00227955
0.00229221
0.00230457
0.00231659
0.0023281
0.00233899
0.00234935
0.00235933
0.00236905
0.00237869
0.00238827
0.00239777
0.0024071
0.00241615
0.00242554
0.00243545
0.00244554
0.0024555
0.0024651
0.00247419
0.00248264
0.0024905
0.00249788
0.00250487
0.00251153
0.00251792
0.00252404
0.00252987
0.00253513
0.00253952
0.00254259
0.0025439
0.00254307
0.00253969
0.00253309
0.00252308
0.00250946
0.00249284
0.00247313
0.00244945
0.00242197
0.00239931
0.0023577
0.00232181
0.00229539
0.00228022
0.00227542
0.0022781
0.0022849
0.00229319
0.0023012
0.00230815
0.00231379
0.00231811
0.0023212
0.00232357
0.00232563
0.0023277
0.00233008
0.00233298
0.00233645
0.00234047
0.00234481
0.00234913
0.00235374
0.0023586
0.00236359
0.00236865
0.00237375
0.00237891
0.00238424
0.00238992
0.00239611
0.00240292
0.00241046
0.00241872
0.00242754
0.00243664
0.00244554
0.00245372
0.00246054
0.00246555
0.00246822
0.00246811
0.00246472
0.00245772
0.00244695
0.00243277
0.00241493
0.00239267
0.00236581
0.00232497
0.00230787
0.0022947
0.00228576
0.00228054
0.00227768
0.00227562
0.00227288
0.00226861
0.00226254
0.00225465
0.00224529
0.00223489
0.00222393
0.00221231
0.00220007
0.00218797
0.00217659
0.00216626
0.00215728
0.00214982
0.00214387
0.00213965
0.00213701
0.00213547
0.00213499
0.00213558
0.00213736
0.00214059
0.00214564
0.00215284
0.00216248
0.0021747
0.00218947
0.00220651
0.00222526
0.00224499
0.00226483
0.00228396
0.00230149
0.00231669
0.00232888
0.00233757
0.00234227
0.00234264
0.00233849
0.0023299
0.00231663
0.00229835
0.0022747
0.00228711
0.00227785
0.00226818
0.00225748
0.00224507
0.00223018
0.00221229
0.00219115
0.00216685
0.00213979
0.00211043
0.00207936
0.00204726
0.0020148
0.00198264
0.00195149
0.00192131
0.00189229
0.00186492
0.00183989
0.00181751
0.00179844
0.00178314
0.00177087
0.00176163
0.0017555
0.00175261
0.00175324
0.00175775
0.00176652
0.0017798
0.00179775
0.00182027
0.00184696
0.0018771
0.00190979
0.00194396
0.00197852
0.00201237
0.0020445
0.00207405
0.0021002
0.00212232
0.00213985
0.00215233
0.00215941
0.00216097
0.00215679
0.00214669
0.00213044
0.00219621
0.00217826
0.00215657
0.00213079
0.00210069
0.00206621
0.0020275
0.00198496
0.00193913
0.00189069
0.00184039
0.00178898
0.00173724
0.00168592
0.00163579
0.00158753
0.0015418
0.00149922
0.00146029
0.00142514
0.00139437
0.00136822
0.00134678
0.00133015
0.00131842
0.00131171
0.00131017
0.001314
0.00132336
0.00133838
0.00135903
0.00138513
0.00141622
0.00145164
0.00149061
0.00153221
0.00157545
0.00161937
0.00166305
0.00170556
0.00174609
0.00178382
0.00181802
0.001848
0.00187316
0.00189293
0.00190691
0.00191467
0.00191588
0.00191032
0.0018855
0.00185464
0.0018187
0.0017779
0.00173254
0.00168312
0.00163025
0.00157468
0.0015172
0.00145865
0.00139984
0.00134159
0.00128463
0.0012297
0.00117745
0.00112846
0.00108323
0.00104223
0.00100577
0.000974096
0.000947404
0.000925787
0.00090931
0.000897996
0.000891834
0.000890808
0.000894902
0.000904069
0.000918232
0.000937254
0.000960894
0.00098882
0.00102062
0.00105579
0.0010938
0.00113405
0.00117597
0.00121895
0.0012624
0.00130569
0.00134819
0.00138922
0.00142809
0.00146409
0.00149657
0.00152483
0.00154822
0.0015661
0.00157795
0.00158338
0.00233059
0.00225829
0.00218461
0.00210921
0.00203221
0.00195388
0.00187462
0.00179497
0.0017155
0.00163688
0.00155981
0.00148496
0.00141297
0.00134445
0.00127993
0.00121987
0.00116465
0.00111452
0.00106969
0.00103025
0.000996202
0.000967487
0.000943973
0.000925481
0.000911785
0.000902618
0.000897692
0.000896681
0.000899252
0.00090507
0.000913789
0.000925082
0.000938635
0.000954188
0.000971496
0.000990348
0.00101053
0.00103184
0.00105404
0.00107686
0.00109999
0.00112307
0.00114568
0.00116738
0.00118767
0.001206
0.00122185
0.00123465
0.00124393
0.00124925
2.38369e-05
2.35624e-05
2.33298e-05
2.31361e-05
2.29604e-05
2.2792e-05
2.26264e-05
2.24599e-05
2.22901e-05
2.21154e-05
2.19354e-05
2.17506e-05
2.15623e-05
2.13727e-05
2.11845e-05
2.10007e-05
2.0824e-05
2.06564e-05
2.04988e-05
2.03506e-05
2.02067e-05
2.00156e-05
1.98397e-05
1.96564e-05
1.9466e-05
1.92697e-05
1.9068e-05
1.8862e-05
1.86543e-05
1.84481e-05
1.82468e-05
1.8056e-05
1.78801e-05
1.77216e-05
1.75809e-05
1.74564e-05
1.73448e-05
1.72421e-05
1.71446e-05
1.70487e-05
1.69521e-05
1.68537e-05
1.67533e-05
1.66519e-05
1.65504e-05
1.64491e-05
1.6347e-05
1.62422e-05
1.61324e-05
1.60135e-05
2.31972e-05
2.20709e-05
2.10835e-05
2.01975e-05
1.93883e-05
1.86436e-05
1.79498e-05
1.72965e-05
1.66758e-05
1.60828e-05
1.55148e-05
1.49715e-05
1.44539e-05
1.39644e-05
1.35052e-05
1.30787e-05
1.26859e-05
1.23264e-05
1.1998e-05
1.1697e-05
1.14231e-05
1.12825e-05
1.13794e-05
1.1441e-05
1.14769e-05
1.14871e-05
1.14723e-05
1.1436e-05
1.13841e-05
1.13248e-05
1.12668e-05
1.12156e-05
1.11756e-05
1.11491e-05
1.11357e-05
1.11332e-05
1.11379e-05
1.11454e-05
1.11517e-05
1.1153e-05
1.11472e-05
1.11335e-05
1.11124e-05
1.10851e-05
1.10524e-05
1.10147e-05
1.09719e-05
1.0922e-05
1.08608e-05
1.07828e-05
2.32006e-05
2.20717e-05
2.10695e-05
2.01658e-05
1.93342e-05
1.85601e-05
1.78326e-05
1.71432e-05
1.6486e-05
1.5857e-05
1.52542e-05
1.46773e-05
1.4127e-05
1.36046e-05
1.31117e-05
1.26494e-05
1.22182e-05
1.18173e-05
1.14452e-05
1.13214e-05
1.12265e-05
1.11572e-05
1.10987e-05
1.10395e-05
1.09728e-05
1.08954e-05
1.0807e-05
1.07092e-05
1.06056e-05
1.05006e-05
1.03987e-05
1.03042e-05
1.02203e-05
1.01484e-05
1.00884e-05
1.00389e-05
9.99718e-06
9.96031e-06
9.92524e-06
9.88943e-06
9.85127e-06
9.8102e-06
9.76641e-06
9.7204e-06
9.67288e-06
9.62426e-06
9.57447e-06
9.52297e-06
9.46852e-06
9.40809e-06
2.32017e-05
2.20819e-05
2.10871e-05
2.01892e-05
1.93626e-05
1.85926e-05
1.78684e-05
1.71819e-05
1.65267e-05
1.58991e-05
1.52969e-05
1.47196e-05
1.4168e-05
1.36432e-05
1.31471e-05
1.26808e-05
1.2245e-05
1.1839e-05
1.14615e-05
1.13323e-05
1.12318e-05
1.11575e-05
1.10923e-05
1.10249e-05
1.09488e-05
1.08611e-05
1.07616e-05
1.06526e-05
1.05376e-05
1.04208e-05
1.03069e-05
1.01998e-05
1.01027e-05
1.00169e-05
9.94238e-06
9.87754e-06
9.82005e-06
9.76705e-06
9.71574e-06
9.66387e-06
9.61014e-06
9.55419e-06
9.4964e-06
9.43753e-06
9.37825e-06
9.31863e-06
9.25796e-06
9.19519e-06
9.12957e-06
9.06015e-06
2.32019e-05
2.20828e-05
2.10865e-05
2.01864e-05
1.93582e-05
1.85876e-05
1.7864e-05
1.71788e-05
1.65256e-05
1.59e-05
1.52996e-05
1.47236e-05
1.41725e-05
1.36477e-05
1.31509e-05
1.26837e-05
1.22466e-05
1.18393e-05
1.14607e-05
1.13306e-05
1.12296e-05
1.1155e-05
1.10896e-05
1.1022e-05
1.09456e-05
1.08573e-05
1.07573e-05
1.06474e-05
1.05312e-05
1.04131e-05
1.02976e-05
1.01891e-05
1.00905e-05
1.00031e-05
9.92689e-06
9.86019e-06
9.80059e-06
9.74518e-06
9.69113e-06
9.63625e-06
9.57929e-06
9.51996e-06
9.45872e-06
9.39651e-06
9.33431e-06
9.27256e-06
9.21064e-06
9.14699e-06
9.08e-06
9.00843e-06
2.32017e-05
2.20832e-05
2.10868e-05
2.01869e-05
1.93599e-05
1.85918e-05
1.78717e-05
1.71907e-05
1.65418e-05
1.59201e-05
1.53229e-05
1.47489e-05
1.41986e-05
1.36736e-05
1.31757e-05
1.27067e-05
1.22676e-05
1.18581e-05
1.14775e-05
1.13457e-05
1.12429e-05
1.11668e-05
1.11003e-05
1.10318e-05
1.09546e-05
1.08656e-05
1.07648e-05
1.06539e-05
1.05366e-05
1.04172e-05
1.03007e-05
1.01913e-05
1.00921e-05
1.00044e-05
9.92785e-06
9.86098e-06
9.80119e-06
9.74548e-06
9.69098e-06
9.63541e-06
9.5775e-06
9.51692e-06
9.45414e-06
9.39012e-06
9.32588e-06
9.26205e-06
9.19849e-06
9.1339e-06
9.06656e-06
8.99482e-06
2.32017e-05
2.20832e-05
2.10854e-05
2.01843e-05
1.9357e-05
1.85899e-05
1.7872e-05
1.7194e-05
1.65483e-05
1.59294e-05
1.53342e-05
1.47612e-05
1.42108e-05
1.36847e-05
1.3185e-05
1.27138e-05
1.22723e-05
1.18605e-05
1.1478e-05
1.13449e-05
1.12414e-05
1.11649e-05
1.10983e-05
1.10299e-05
1.09528e-05
1.0864e-05
1.07631e-05
1.06519e-05
1.0534e-05
1.04141e-05
1.02973e-05
1.0188e-05
1.00891e-05
1.00021e-05
9.92649e-06
9.86076e-06
9.80224e-06
9.74779e-06
9.69435e-06
9.63949e-06
9.5818e-06
9.52097e-06
9.45758e-06
9.39268e-06
9.32726e-06
9.26191e-06
9.19664e-06
9.13052e-06
9.06198e-06
8.98938e-06
2.32018e-05
2.20832e-05
2.10838e-05
2.01813e-05
1.93541e-05
1.85887e-05
1.78738e-05
1.71995e-05
1.65577e-05
1.59424e-05
1.53497e-05
1.47783e-05
1.42284e-05
1.37017e-05
1.32008e-05
1.27277e-05
1.22841e-05
1.18704e-05
1.1486e-05
1.13515e-05
1.12465e-05
1.11689e-05
1.11015e-05
1.10326e-05
1.09551e-05
1.08658e-05
1.07642e-05
1.0652e-05
1.05331e-05
1.04123e-05
1.02949e-05
1.01853e-05
1.00866e-05
1e-05
9.92541e-06
9.86104e-06
9.80418e-06
9.75141e-06
9.69938e-06
9.6454e-06
9.58794e-06
9.52668e-06
9.46227e-06
9.39594e-06
9.32888e-06
9.26177e-06
9.19463e-06
9.12676e-06
9.05676e-06
8.98305e-06
2.3202e-05
2.20835e-05
2.10825e-05
2.01786e-05
1.93514e-05
1.85874e-05
1.78751e-05
1.7204e-05
1.65655e-05
1.5953e-05
1.53624e-05
1.4792e-05
1.42421e-05
1.37146e-05
1.3212e-05
1.27369e-05
1.22912e-05
1.18753e-05
1.14891e-05
1.13533e-05
1.12472e-05
1.11688e-05
1.11009e-05
1.10317e-05
1.09539e-05
1.08642e-05
1.07618e-05
1.06488e-05
1.05289e-05
1.04073e-05
1.02894e-05
1.01797e-05
1.00813e-05
9.9956e-06
9.92242e-06
9.85997e-06
9.80524e-06
9.75449e-06
9.70405e-06
9.65107e-06
9.59388e-06
9.53212e-06
9.46647e-06
9.39821e-06
9.3288e-06
9.25918e-06
9.18962e-06
9.1195e-06
9.04762e-06
8.97248e-06
2.32023e-05
2.20845e-05
2.10821e-05
2.0177e-05
1.93496e-05
1.85869e-05
1.78768e-05
1.72086e-05
1.6573e-05
1.59632e-05
1.53746e-05
1.48054e-05
1.42558e-05
1.37277e-05
1.3224e-05
1.27473e-05
1.22997e-05
1.18821e-05
1.14943e-05
1.13573e-05
1.12501e-05
1.11709e-05
1.11024e-05
1.10326e-05
1.09543e-05
1.08638e-05
1.07604e-05
1.06462e-05
1.05252e-05
1.04027e-05
1.02844e-05
1.01746e-05
1.00767e-05
9.99217e-06
9.92077e-06
9.8605e-06
9.80796e-06
9.75912e-06
9.71012e-06
9.65793e-06
9.60083e-06
9.53832e-06
9.47108e-06
9.40042e-06
9.328e-06
9.25512e-06
9.18233e-06
9.10933e-06
9.03507e-06
8.95818e-06
2.32028e-05
2.20863e-05
2.10829e-05
2.01764e-05
1.93488e-05
1.85868e-05
1.78784e-05
1.72124e-05
1.65793e-05
1.59718e-05
1.53851e-05
1.4817e-05
1.42677e-05
1.37391e-05
1.32342e-05
1.27561e-05
1.2307e-05
1.18879e-05
1.14988e-05
1.13619e-05
1.12556e-05
1.11767e-05
1.11074e-05
1.10364e-05
1.09566e-05
1.08644e-05
1.07595e-05
1.06439e-05
1.05219e-05
1.03989e-05
1.02804e-05
1.01712e-05
1.00743e-05
9.99147e-06
9.92212e-06
9.86406e-06
9.81364e-06
9.76659e-06
9.71894e-06
9.66747e-06
9.61024e-06
9.54663e-06
9.47724e-06
9.4036e-06
9.32757e-06
9.25079e-06
9.17414e-06
9.09762e-06
9.02045e-06
8.94148e-06
2.32036e-05
2.20888e-05
2.10844e-05
2.01766e-05
1.93483e-05
1.85866e-05
1.78793e-05
1.72151e-05
1.65841e-05
1.59786e-05
1.53935e-05
1.48263e-05
1.42772e-05
1.37481e-05
1.32424e-05
1.27631e-05
1.23129e-05
1.18926e-05
1.15025e-05
1.14148e-05
1.13323e-05
1.12528e-05
1.11721e-05
1.10864e-05
1.09926e-05
1.08886e-05
1.07744e-05
1.06522e-05
1.05257e-05
1.04e-05
1.02803e-05
1.01709e-05
1.00748e-05
9.99337e-06
9.92584e-06
9.86972e-06
9.82121e-06
9.77586e-06
9.72941e-06
9.67846e-06
9.62077e-06
9.55556e-06
9.48343e-06
9.40611e-06
9.32579e-06
9.24445e-06
9.16332e-06
9.08281e-06
9.00242e-06
8.92127e-06
2.32046e-05
2.20917e-05
2.10865e-05
2.01773e-05
1.9348e-05
1.85862e-05
1.78798e-05
1.72171e-05
1.65879e-05
1.59842e-05
1.54005e-05
1.48341e-05
1.42853e-05
1.37562e-05
1.32502e-05
1.27706e-05
1.23198e-05
1.1899e-05
1.15084e-05
1.14215e-05
1.13406e-05
1.12616e-05
1.11804e-05
1.10932e-05
1.09972e-05
1.08907e-05
1.07741e-05
1.06497e-05
1.05216e-05
1.0395e-05
1.0275e-05
1.0166e-05
1.00709e-05
9.99107e-06
9.92551e-06
9.8716e-06
9.8253e-06
9.78194e-06
9.73699e-06
9.68662e-06
9.62836e-06
9.5614e-06
9.48638e-06
9.4053e-06
9.3206e-06
9.23463e-06
9.14898e-06
9.06443e-06
8.98091e-06
8.89775e-06
2.32057e-05
2.20948e-05
2.10889e-05
2.01782e-05
1.93477e-05
1.85854e-05
1.78791e-05
1.72171e-05
1.65888e-05
1.59859e-05
1.54026e-05
1.48365e-05
1.42876e-05
1.37584e-05
1.32521e-05
1.27722e-05
1.23212e-05
1.19002e-05
1.15094e-05
1.14228e-05
1.13418e-05
1.12624e-05
1.11803e-05
1.10918e-05
1.09942e-05
1.08859e-05
1.07676e-05
1.06418e-05
1.05129e-05
1.03859e-05
1.02662e-05
1.01583e-05
1.0065e-05
9.98735e-06
9.92451e-06
9.87355e-06
9.83011e-06
9.78923e-06
9.746e-06
9.69641e-06
9.63774e-06
9.56916e-06
9.49146e-06
9.40677e-06
9.31787e-06
9.22737e-06
9.13731e-06
9.04885e-06
8.96225e-06
8.87706e-06
2.32069e-05
2.20983e-05
2.10921e-05
2.01801e-05
1.93488e-05
1.85862e-05
1.78801e-05
1.72187e-05
1.65912e-05
1.5989e-05
1.54065e-05
1.48411e-05
1.4293e-05
1.37645e-05
1.32589e-05
1.27797e-05
1.23292e-05
1.19086e-05
1.15179e-05
1.14309e-05
1.13492e-05
1.12685e-05
1.11847e-05
1.10942e-05
1.09943e-05
1.08838e-05
1.07635e-05
1.06361e-05
1.05061e-05
1.03788e-05
1.02595e-05
1.01526e-05
1.00612e-05
9.98612e-06
9.92618e-06
9.87819e-06
9.83756e-06
9.79896e-06
9.75722e-06
9.70817e-06
9.64906e-06
9.57901e-06
9.4989e-06
9.411e-06
9.31832e-06
9.2238e-06
9.12977e-06
9.0378e-06
8.94852e-06
8.86173e-06
2.32082e-05
2.21018e-05
2.10949e-05
2.01809e-05
1.93472e-05
1.85823e-05
1.78743e-05
1.72111e-05
1.6582e-05
1.59786e-05
1.53953e-05
1.48294e-05
1.42813e-05
1.37531e-05
1.32481e-05
1.27696e-05
1.23199e-05
1.19001e-05
1.15099e-05
1.14238e-05
1.13423e-05
1.12613e-05
1.11767e-05
1.1085e-05
1.09838e-05
1.08719e-05
1.07505e-05
1.06224e-05
1.04921e-05
1.03652e-05
1.0247e-05
1.0142e-05
1.0053e-05
9.98083e-06
9.9239e-06
9.87877e-06
9.8407e-06
9.80425e-06
9.76414e-06
9.71599e-06
9.65707e-06
9.58651e-06
9.50532e-06
9.41591e-06
9.32139e-06
9.22498e-06
9.12935e-06
9.03635e-06
8.94698e-06
8.86146e-06
2.32096e-05
2.21062e-05
2.11004e-05
2.01869e-05
1.93536e-05
1.85889e-05
1.78808e-05
1.72173e-05
1.65879e-05
1.59843e-05
1.54009e-05
1.48353e-05
1.42876e-05
1.37602e-05
1.3256e-05
1.27784e-05
1.23295e-05
1.19101e-05
1.15197e-05
1.14333e-05
1.13511e-05
1.12693e-05
1.11839e-05
1.10913e-05
1.09892e-05
1.08767e-05
1.07548e-05
1.06266e-05
1.0497e-05
1.03714e-05
1.02553e-05
1.01531e-05
1.00675e-05
9.9989e-06
9.94565e-06
9.90428e-06
9.8699e-06
9.83701e-06
9.80023e-06
9.75523e-06
9.69934e-06
9.63172e-06
9.5534e-06
9.46689e-06
9.37547e-06
9.28255e-06
9.19114e-06
9.10348e-06
9.0209e-06
8.94411e-06
2.32112e-05
2.21031e-05
2.10899e-05
2.0169e-05
1.9329e-05
1.85587e-05
1.78462e-05
1.71797e-05
1.65486e-05
1.59445e-05
1.53618e-05
1.47979e-05
1.42531e-05
1.37291e-05
1.32292e-05
1.27562e-05
1.2312e-05
1.18973e-05
1.15116e-05
1.14314e-05
1.13534e-05
1.12769e-05
1.12024e-05
1.11203e-05
1.10276e-05
1.09231e-05
1.08093e-05
1.06908e-05
1.05723e-05
1.0459e-05
1.03561e-05
1.02679e-05
1.01968e-05
1.01435e-05
1.01063e-05
1.0082e-05
1.00657e-05
1.00515e-05
1.00306e-05
1.00027e-05
9.96754e-06
9.91959e-06
9.85993e-06
9.79114e-06
9.71684e-06
9.64087e-06
9.56676e-06
9.49744e-06
9.43492e-06
9.38064e-06
2.32158e-05
2.21192e-05
2.11219e-05
2.02167e-05
1.93938e-05
1.86432e-05
1.79564e-05
1.73211e-05
1.67253e-05
1.61593e-05
1.56159e-05
1.50914e-05
1.45851e-05
1.40987e-05
1.36352e-05
1.3198e-05
1.27901e-05
1.2413e-05
1.20664e-05
1.17467e-05
1.14598e-05
1.13082e-05
1.13997e-05
1.14329e-05
1.14182e-05
1.13653e-05
1.13051e-05
1.12474e-05
1.11942e-05
1.11477e-05
1.11114e-05
1.10884e-05
1.10811e-05
1.10908e-05
1.11165e-05
1.11545e-05
1.11988e-05
1.12394e-05
1.10743e-05
1.0968e-05
1.10833e-05
1.11422e-05
1.11589e-05
1.11451e-05
1.11111e-05
1.1066e-05
1.10167e-05
1.09689e-05
1.09268e-05
1.08941e-05
2.38162e-05
2.35812e-05
2.33715e-05
2.31852e-05
2.3018e-05
2.2863e-05
2.27101e-05
2.25535e-05
2.23892e-05
2.22147e-05
2.20298e-05
2.18365e-05
2.16383e-05
2.14396e-05
2.12448e-05
2.10574e-05
2.08796e-05
2.07119e-05
2.05527e-05
2.03985e-05
2.02417e-05
2.00283e-05
1.98214e-05
1.96126e-05
1.93985e-05
1.91795e-05
1.8949e-05
1.87179e-05
1.84973e-05
1.82941e-05
1.81122e-05
1.79532e-05
1.78164e-05
1.7698e-05
1.75924e-05
1.74931e-05
1.73936e-05
1.72883e-05
1.71718e-05
1.70436e-05
1.69065e-05
1.67616e-05
1.66114e-05
1.64595e-05
1.63091e-05
1.61634e-05
1.60238e-05
1.58901e-05
1.57612e-05
1.56351e-05
0.000110333
2.89662e-05
2.4911e-05
2.34106e-05
1.95826e-05
1.50994e-05
1.20149e-05
1.0314e-05
9.05038e-06
8.26203e-06
7.98291e-06
8.25938e-06
8.84979e-06
9.56026e-06
1.03074e-05
1.10075e-05
1.20214e-05
1.41694e-05
1.77316e-05
5.70708e-05
0.000107507
2.82181e-05
2.49132e-05
2.34679e-05
1.9536e-05
1.49509e-05
1.18802e-05
1.01667e-05
8.88249e-06
8.07736e-06
7.79762e-06
8.11533e-06
8.70356e-06
9.42531e-06
1.02137e-05
1.09579e-05
1.19747e-05
1.41394e-05
1.77402e-05
5.89115e-05
0.000104723
2.75105e-05
2.49283e-05
2.35282e-05
1.94952e-05
1.48129e-05
1.17612e-05
1.00316e-05
8.72567e-06
7.90382e-06
7.63067e-06
7.96431e-06
8.56816e-06
9.31345e-06
1.01335e-05
1.09077e-05
1.18939e-05
1.40448e-05
1.76738e-05
6.06149e-05
0.000101963
2.68501e-05
2.49549e-05
2.35912e-05
1.94605e-05
1.46853e-05
1.16568e-05
9.9062e-06
8.5776e-06
7.73725e-06
7.4742e-06
7.81708e-06
8.43437e-06
9.2046e-06
1.00563e-05
1.08593e-05
1.18162e-05
1.39523e-05
1.76104e-05
6.23691e-05
9.92316e-05
2.62428e-05
2.49934e-05
2.36586e-05
1.94339e-05
1.45704e-05
1.1568e-05
9.79143e-06
8.43904e-06
7.57491e-06
7.30022e-06
7.66506e-06
8.30077e-06
9.09751e-06
9.98066e-06
1.08115e-05
1.17404e-05
1.38612e-05
1.75502e-05
6.41764e-05
9.65367e-05
2.569e-05
2.50432e-05
2.37308e-05
1.94166e-05
1.44696e-05
1.14955e-05
9.68835e-06
8.31291e-06
7.42365e-06
7.12133e-06
7.50538e-06
8.16649e-06
8.99187e-06
9.90649e-06
1.07643e-05
1.16664e-05
1.37719e-05
1.74945e-05
6.60411e-05
9.38849e-05
2.51898e-05
2.51031e-05
2.38077e-05
1.94092e-05
1.43841e-05
1.14393e-05
9.59669e-06
8.19973e-06
7.28603e-06
6.94982e-06
7.33988e-06
8.03173e-06
8.88853e-06
9.8348e-06
1.07187e-05
1.15952e-05
1.36857e-05
1.7445e-05
6.79691e-05
9.12794e-05
2.47381e-05
2.51705e-05
2.38885e-05
1.94124e-05
1.43151e-05
1.13994e-05
9.51651e-06
8.09977e-06
7.16312e-06
6.79349e-06
7.17422e-06
7.89842e-06
8.78917e-06
9.76724e-06
1.06761e-05
1.15277e-05
1.36035e-05
1.74031e-05
6.99655e-05
8.87195e-05
2.43306e-05
2.52428e-05
2.39725e-05
1.94268e-05
1.42635e-05
1.13755e-05
9.44762e-06
8.01308e-06
7.05576e-06
6.65871e-06
7.01609e-06
7.76938e-06
8.69548e-06
9.70508e-06
1.06374e-05
1.14642e-05
1.35257e-05
1.73693e-05
7.20335e-05
8.62025e-05
2.39647e-05
2.53183e-05
2.40597e-05
1.9453e-05
1.42297e-05
1.1367e-05
9.38924e-06
7.93878e-06
6.96342e-06
6.54817e-06
6.87223e-06
7.64703e-06
8.60839e-06
9.64858e-06
1.06024e-05
1.14042e-05
1.34517e-05
1.73432e-05
7.41734e-05
8.37263e-05
2.36391e-05
2.53959e-05
2.41509e-05
1.94919e-05
1.42169e-05
1.13179e-05
9.33657e-06
7.87508e-06
6.88338e-06
6.45709e-06
6.74451e-06
7.5321e-06
8.52775e-06
9.59702e-06
1.05699e-05
1.13463e-05
1.33803e-05
1.73237e-05
7.63837e-05
8.12914e-05
2.3353e-05
2.54757e-05
2.42469e-05
1.95435e-05
1.42205e-05
1.12794e-05
9.29283e-06
7.81918e-06
6.81088e-06
6.37444e-06
6.62864e-06
7.42375e-06
8.45272e-06
9.54908e-06
1.05385e-05
1.1325e-05
1.33107e-05
1.73098e-05
7.86631e-05
7.89001e-05
2.31046e-05
2.55579e-05
2.43482e-05
1.96068e-05
1.42379e-05
1.12491e-05
9.25484e-06
7.76713e-06
6.74072e-06
6.28938e-06
6.51712e-06
7.32092e-06
8.38264e-06
9.50369e-06
1.05082e-05
1.13019e-05
1.32408e-05
1.73016e-05
8.10124e-05
7.65557e-05
2.28903e-05
2.56429e-05
2.44545e-05
1.96799e-05
1.42659e-05
1.12238e-05
9.2195e-06
7.71563e-06
6.66934e-06
6.19822e-06
6.40503e-06
7.22399e-06
8.31763e-06
9.46055e-06
1.04779e-05
1.12787e-05
1.31725e-05
1.72998e-05
8.34347e-05
7.42606e-05
2.27052e-05
2.57301e-05
2.45649e-05
1.97604e-05
1.43014e-05
1.12008e-05
9.18437e-06
7.66258e-06
6.59561e-06
6.10623e-06
6.29499e-06
7.13529e-06
8.25855e-06
9.42005e-06
1.04482e-05
1.12564e-05
1.31065e-05
1.73057e-05
8.59348e-05
7.20155e-05
2.25444e-05
2.58189e-05
2.46782e-05
1.98462e-05
1.43415e-05
1.1178e-05
9.14793e-06
7.60708e-06
6.51996e-06
6.02262e-06
6.19586e-06
7.05762e-06
8.20616e-06
9.38267e-06
1.04198e-05
1.12357e-05
1.30438e-05
1.73205e-05
8.85177e-05
6.98198e-05
2.24038e-05
2.59086e-05
2.47933e-05
1.99355e-05
1.43847e-05
1.11543e-05
9.10962e-06
7.54908e-06
6.44282e-06
5.95061e-06
6.11525e-06
6.99168e-06
8.16021e-06
9.34842e-06
1.03931e-05
1.1217e-05
1.2985e-05
1.73452e-05
9.11875e-05
6.76727e-05
2.22811e-05
2.59988e-05
2.49101e-05
2.00277e-05
1.44303e-05
1.11295e-05
9.0696e-06
7.48903e-06
6.36402e-06
5.87981e-06
6.05218e-06
6.93502e-06
8.1192e-06
9.31661e-06
1.0368e-05
1.12001e-05
1.29301e-05
1.73801e-05
9.39478e-05
6.55738e-05
2.21756e-05
2.609e-05
2.50287e-05
2.01231e-05
1.44786e-05
1.11043e-05
9.02868e-06
7.42819e-06
6.28417e-06
5.7872e-06
5.99601e-06
6.88308e-06
8.08117e-06
9.28639e-06
1.0344e-05
1.11845e-05
1.28791e-05
1.74254e-05
9.68019e-05
6.3524e-05
2.20879e-05
2.61829e-05
2.515e-05
2.02222e-05
1.45304e-05
1.10798e-05
8.98845e-06
7.36936e-06
6.20746e-06
5.65352e-06
5.9328e-06
6.83206e-06
8.04488e-06
9.25737e-06
1.03211e-05
1.11698e-05
1.28317e-05
1.74813e-05
9.97542e-05
6.15249e-05
2.20184e-05
2.62782e-05
2.52745e-05
2.03255e-05
1.45871e-05
1.10581e-05
8.95153e-06
7.31747e-06
6.14357e-06
5.49476e-06
5.85519e-06
6.78109e-06
8.01069e-06
9.23013e-06
1.02996e-05
1.11559e-05
1.27878e-05
1.75485e-05
0.000102811
5.95782e-05
2.19669e-05
2.63763e-05
2.54019e-05
2.04334e-05
1.46502e-05
1.10417e-05
8.92124e-06
7.27881e-06
6.10573e-06
5.38374e-06
5.77284e-06
6.73256e-06
7.98052e-06
9.20607e-06
1.02803e-05
1.11431e-05
1.2748e-05
1.76291e-05
0.000105978
5.76849e-05
2.19323e-05
2.64765e-05
2.55315e-05
2.05456e-05
1.47212e-05
1.10332e-05
8.90083e-06
7.25899e-06
6.10504e-06
5.38591e-06
5.70095e-06
6.69101e-06
7.9575e-06
9.18691e-06
1.02642e-05
1.11321e-05
1.27128e-05
1.773e-05
0.000109253
5.58444e-05
2.19121e-05
2.65781e-05
2.56628e-05
2.06605e-05
1.48015e-05
1.10347e-05
8.89549e-06
7.26652e-06
6.14071e-06
5.42934e-06
5.64116e-06
6.66263e-06
7.94478e-06
9.17384e-06
1.02518e-05
1.11232e-05
1.26826e-05
1.78855e-05
0.000112605
5.40548e-05
2.19029e-05
2.66821e-05
2.5799e-05
2.07818e-05
1.48888e-05
1.10451e-05
8.90365e-06
7.28926e-06
6.19011e-06
5.4898e-06
5.60451e-06
6.65486e-06
7.94375e-06
9.16665e-06
1.02433e-05
1.11167e-05
1.26578e-05
1.81021e-05
0.000116022
5.23138e-05
2.19036e-05
2.6788e-05
2.59401e-05
2.09109e-05
1.49841e-05
1.1062e-05
8.9201e-06
7.31857e-06
6.24113e-06
5.55304e-06
5.59891e-06
6.66744e-06
7.95231e-06
9.16412e-06
1.02379e-05
1.11125e-05
1.26394e-05
1.83744e-05
0.000119499
5.06249e-05
2.19089e-05
2.68958e-05
2.60863e-05
2.10479e-05
1.50871e-05
1.1084e-05
8.94203e-06
7.35044e-06
6.28839e-06
5.60709e-06
5.62517e-06
6.69581e-06
7.96677e-06
9.16377e-06
1.02341e-05
1.11106e-05
1.26281e-05
1.86926e-05
0.000123028
4.89904e-05
2.1917e-05
2.70068e-05
2.62387e-05
2.11931e-05
1.51978e-05