/*--------------------------------*- C++ -*----------------------------------*\
  =========                 |
  \\      /  F ield         | OpenFOAM: The Open Source CFD Toolbox
   \\    /   O peration     | Website:  https://openfoam.org
    \\  /    A nd           | Version:  8
     \\/     M anipulation  |
\*---------------------------------------------------------------------------*/
FoamFile
{
    version     2.0;
    format      ascii;
    class       volScalarField;
    location    "400";
    object      nut;
}
// * * * * * * * * * * * * * * * * * * * * * * * * * * * * * * * * * * * * * //

dimensions      [0 2 -1 0 0 0 0];

internalField   nonuniform List<scalar> 
8400
(
8.07628e-05
7.95193e-05
7.81108e-05
7.66207e-05
7.50306e-05
7.33256e-05
7.14896e-05
6.96908e-05
6.8551e-05
6.79228e-05
6.7622e-05
6.74657e-05
6.73604e-05
6.72548e-05
6.71262e-05
6.69468e-05
6.66548e-05
6.61855e-05
6.56325e-05
6.51447e-05
6.47284e-05
6.43703e-05
6.39181e-05
6.3173e-05
6.20285e-05
6.07873e-05
5.95565e-05
5.84585e-05
5.7553e-05
5.651e-05
5.54427e-05
5.44685e-05
5.3699e-05
5.31962e-05
5.29181e-05
5.27796e-05
5.27147e-05
5.26699e-05
5.23676e-05
5.13754e-05
5.00385e-05
4.8688e-05
4.71835e-05
4.55546e-05
4.40174e-05
4.25825e-05
4.11442e-05
3.96744e-05
3.82066e-05
3.68117e-05
6.26751e-05
6.30753e-05
6.26478e-05
6.15178e-05
6.01293e-05
5.89337e-05
5.8651e-05
5.96949e-05
6.02219e-05
6.05123e-05
6.06344e-05
6.06739e-05
6.06211e-05
6.03734e-05
5.97108e-05
5.91045e-05
5.86048e-05
5.82814e-05
5.81338e-05
5.78394e-05
5.74835e-05
5.707e-05
5.67144e-05
5.64617e-05
5.71694e-05
5.72954e-05
5.08927e-05
5.00767e-05
4.91695e-05
4.8147e-05
4.71063e-05
4.61048e-05
4.5518e-05
4.50961e-05
4.45906e-05
4.38364e-05
4.30281e-05
4.19942e-05
4.10603e-05
4.11776e-05
4.13542e-05
4.09479e-05
4.0833e-05
4.10909e-05
4.10868e-05
4.06469e-05
4.01339e-05
3.99428e-05
4.01209e-05
4.05443e-05
6.20242e-05
6.2675e-05
6.29664e-05
6.27018e-05
6.20487e-05
6.13377e-05
6.07977e-05
6.04755e-05
6.02971e-05
6.02049e-05
6.01543e-05
6.01255e-05
6.00989e-05
6.00544e-05
5.9988e-05
5.98943e-05
5.97729e-05
5.96205e-05
5.94377e-05
5.92346e-05
5.90081e-05
5.88246e-05
5.86183e-05
5.82965e-05
5.79744e-05
5.75138e-05
5.60649e-05
5.48908e-05
5.41367e-05
5.37064e-05
5.36237e-05
5.393e-05
5.42389e-05
5.42097e-05
5.35817e-05
4.58106e-05
4.04358e-05
4.20687e-05
4.20461e-05
4.26263e-05
4.41233e-05
4.53196e-05
4.66806e-05
4.78457e-05
4.79885e-05
4.71652e-05
4.64454e-05
4.67593e-05
4.76914e-05
4.87742e-05
6.14337e-05
6.13575e-05
6.12877e-05
6.1223e-05
6.1166e-05
6.11151e-05
6.10683e-05
6.10234e-05
6.09771e-05
6.09313e-05
6.08837e-05
6.08334e-05
6.07798e-05
6.07229e-05
6.06632e-05
6.05975e-05
6.0526e-05
6.04467e-05
6.03567e-05
6.02556e-05
6.01598e-05
6.00358e-05
5.98525e-05
5.96563e-05
5.94222e-05
5.91158e-05
5.86591e-05
5.81696e-05
5.7762e-05
5.74592e-05
5.72308e-05
5.70407e-05
5.6848e-05
5.66143e-05
5.63009e-05
5.58765e-05
5.50139e-05
5.41529e-05
5.31861e-05
5.23127e-05
5.17404e-05
5.16158e-05
5.20626e-05
4.81036e-05
4.40666e-05
4.78041e-05
5.0151e-05
5.22927e-05
5.37045e-05
5.39037e-05
6.14633e-05
6.14234e-05
6.1382e-05
6.1339e-05
6.12936e-05
6.12463e-05
6.11966e-05
6.11448e-05
6.10914e-05
6.1036e-05
6.09798e-05
6.09239e-05
6.08685e-05
6.0815e-05
6.07638e-05
6.07161e-05
6.06717e-05
6.06318e-05
6.05953e-05
6.05557e-05
6.0495e-05
6.04102e-05
6.03138e-05
6.02026e-05
6.00711e-05
5.99137e-05
5.97234e-05
5.95114e-05
5.92972e-05
5.90923e-05
5.88967e-05
5.87062e-05
5.85166e-05
5.8326e-05
5.81307e-05
5.79255e-05
5.76844e-05
5.74373e-05
5.71621e-05
5.6846e-05
5.65148e-05
5.62039e-05
5.5943e-05
5.55983e-05
5.49408e-05
5.48657e-05
5.52325e-05
5.54153e-05
5.5018e-05
5.46229e-05
6.14493e-05
6.1394e-05
6.1337e-05
6.12783e-05
6.12179e-05
6.11547e-05
6.109e-05
6.10219e-05
6.09515e-05
6.08795e-05
6.08054e-05
6.07296e-05
6.06546e-05
6.05804e-05
6.05085e-05
6.04407e-05
6.03767e-05
6.03187e-05
6.02678e-05
6.02211e-05
6.01813e-05
6.01466e-05
6.01101e-05
6.00686e-05
6.00181e-05
5.9956e-05
5.98797e-05
5.97892e-05
5.96884e-05
5.95823e-05
5.94728e-05
5.93602e-05
5.9245e-05
5.91267e-05
5.90021e-05
5.88688e-05
5.87248e-05
5.85729e-05
5.84087e-05
5.82266e-05
5.80257e-05
5.78098e-05
5.75842e-05
5.73357e-05
5.70422e-05
5.68294e-05
5.67029e-05
5.6576e-05
5.63978e-05
5.62095e-05
6.14417e-05
6.13774e-05
6.13121e-05
6.12445e-05
6.11745e-05
6.10993e-05
6.10223e-05
6.09413e-05
6.08566e-05
6.07676e-05
6.06762e-05
6.05825e-05
6.04874e-05
6.03934e-05
6.03016e-05
6.02148e-05
6.01351e-05
6.0064e-05
6.00026e-05
5.99423e-05
5.98953e-05
5.98558e-05
5.98238e-05
5.97964e-05
5.97702e-05
5.97418e-05
5.97083e-05
5.96669e-05
5.96164e-05
5.95578e-05
5.9492e-05
5.94198e-05
5.93412e-05
5.92567e-05
5.9166e-05
5.90678e-05
5.89624e-05
5.8851e-05
5.87332e-05
5.8609e-05
5.84749e-05
5.83282e-05
5.81672e-05
5.7989e-05
5.77894e-05
5.75896e-05
5.7398e-05
5.7204e-05
5.69934e-05
5.67725e-05
6.14288e-05
6.13496e-05
6.12667e-05
6.1182e-05
6.10953e-05
6.10035e-05
6.09052e-05
6.08014e-05
6.06923e-05
6.05774e-05
6.04547e-05
6.03264e-05
6.01921e-05
6.00583e-05
5.99315e-05
5.9814e-05
5.97134e-05
5.96323e-05
5.95612e-05
5.94964e-05
5.94575e-05
5.94289e-05
5.94112e-05
5.93999e-05
5.93935e-05
5.93884e-05
5.93805e-05
5.93665e-05
5.93436e-05
5.93107e-05
5.92686e-05
5.92185e-05
5.91592e-05
5.9092e-05
5.90182e-05
5.89386e-05
5.8854e-05
5.87673e-05
5.86797e-05
5.85925e-05
5.85015e-05
5.84033e-05
5.8293e-05
5.81668e-05
5.8021e-05
5.78562e-05
5.76764e-05
5.74799e-05
5.72659e-05
5.70368e-05
6.14105e-05
6.13079e-05
6.12017e-05
6.10909e-05
6.09737e-05
6.08536e-05
6.07234e-05
6.05791e-05
6.04204e-05
6.02425e-05
6.00481e-05
5.98264e-05
5.95674e-05
5.93296e-05
5.91077e-05
5.8896e-05
5.87726e-05
5.87191e-05
5.86578e-05
5.86145e-05
5.86221e-05
5.86499e-05
5.86959e-05
5.87522e-05
5.88101e-05
5.88611e-05
5.89018e-05
5.89298e-05
5.89425e-05
5.89401e-05
5.89226e-05
5.88904e-05
5.8844e-05
5.87868e-05
5.87219e-05
5.86525e-05
5.85812e-05
5.85129e-05
5.84494e-05
5.83924e-05
5.83378e-05
5.828e-05
5.82115e-05
5.8125e-05
5.80174e-05
5.78844e-05
5.77272e-05
5.75459e-05
5.73405e-05
5.71138e-05
6.13744e-05
6.12261e-05
6.10678e-05
6.09025e-05
6.07266e-05
6.05406e-05
6.03354e-05
6.00806e-05
5.97756e-05
5.93875e-05
5.89365e-05
5.83377e-05
5.73295e-05
5.68722e-05
5.65573e-05
5.58e-05
5.56147e-05
5.58709e-05
5.59837e-05
5.62207e-05
5.65381e-05
5.68915e-05
5.72545e-05
5.75907e-05
5.7877e-05
5.80989e-05
5.82617e-05
5.83796e-05
5.84564e-05
5.84962e-05
5.8505e-05
5.84919e-05
5.84579e-05
5.8407e-05
5.83457e-05
5.82806e-05
5.82203e-05
5.81718e-05
5.81344e-05
5.81096e-05
5.80913e-05
5.80678e-05
5.80335e-05
5.79804e-05
5.79018e-05
5.77925e-05
5.76548e-05
5.74886e-05
5.72928e-05
5.70689e-05
6.12751e-05
6.09862e-05
6.06875e-05
6.03514e-05
5.99543e-05
5.94446e-05
5.87873e-05
5.80185e-05
5.71124e-05
5.55101e-05
5.38381e-05
5.10229e-05
4.3127e-05
4.38625e-05
4.93245e-05
5.07751e-05
5.26202e-05
5.45527e-05
5.62361e-05
5.64468e-05
5.61954e-05
5.62923e-05
5.69155e-05
5.72194e-05
5.7469e-05
5.7637e-05
5.77568e-05
5.78958e-05
5.79984e-05
5.80533e-05
5.80673e-05
5.80529e-05
5.80171e-05
5.79654e-05
5.79103e-05
5.7862e-05
5.78253e-05
5.7804e-05
5.7797e-05
5.78037e-05
5.78174e-05
5.78274e-05
5.78199e-05
5.77885e-05
5.77298e-05
5.76404e-05
5.75149e-05
5.73545e-05
5.71629e-05
5.69397e-05
5.92857e-05
5.7528e-05
5.48638e-05
5.25422e-05
5.15327e-05
5.13237e-05
5.1198e-05
5.11427e-05
5.14444e-05
5.20682e-05
5.24815e-05
5.28224e-05
5.31083e-05
5.33791e-05
5.36431e-05
5.39072e-05
5.4175e-05
5.44863e-05
5.48832e-05
5.53761e-05
5.59164e-05
5.63807e-05
5.67346e-05
5.69535e-05
5.71241e-05
5.72881e-05
5.74315e-05
5.75396e-05
5.7602e-05
5.76332e-05
5.76389e-05
5.76155e-05
5.75753e-05
5.75292e-05
5.74864e-05
5.74585e-05
5.74525e-05
5.74636e-05
5.74839e-05
5.75218e-05
5.75616e-05
5.75924e-05
5.7601e-05
5.75841e-05
5.75343e-05
5.7449e-05
5.73253e-05
5.71639e-05
5.69682e-05
5.6741e-05
5.64106e-05
5.48887e-05
5.29495e-05
5.1389e-05
5.07539e-05
5.09197e-05
5.14672e-05
5.2094e-05
5.26501e-05
5.30791e-05
5.3413e-05
5.36877e-05
5.38976e-05
5.40713e-05
5.42181e-05
5.4346e-05
5.4467e-05
5.45934e-05
5.47377e-05
5.49071e-05
5.51067e-05
5.53376e-05
5.56169e-05
5.58841e-05
5.61219e-05
5.633e-05
5.65073e-05
5.66513e-05
5.67627e-05
5.68473e-05
5.69107e-05
5.69576e-05
5.69994e-05
5.70383e-05
5.70743e-05
5.71185e-05
5.71752e-05
5.72378e-05
5.73035e-05
5.73646e-05
5.74121e-05
5.74444e-05
5.74523e-05
5.74146e-05
5.73286e-05
5.72317e-05
5.70971e-05
5.69273e-05
5.6723e-05
5.64837e-05
5.47009e-05
5.37451e-05
5.27366e-05
5.20277e-05
5.18355e-05
5.20986e-05
5.25955e-05
5.31056e-05
5.35176e-05
5.3803e-05
5.39799e-05
5.41069e-05
5.4202e-05
5.42755e-05
5.43381e-05
5.43992e-05
5.44664e-05
5.45456e-05
5.46415e-05
5.47509e-05
5.48713e-05
5.49988e-05
5.51307e-05
5.52781e-05
5.54366e-05
5.55991e-05
5.57597e-05
5.59169e-05
5.60698e-05
5.62172e-05
5.63615e-05
5.65041e-05
5.6645e-05
5.67832e-05
5.69161e-05
5.70412e-05
5.71582e-05
5.72594e-05
5.73413e-05
5.73993e-05
5.7432e-05
5.74418e-05
5.74192e-05
5.73462e-05
5.72276e-05
5.70889e-05
5.69262e-05
5.67365e-05
5.64759e-05
5.61632e-05
5.38463e-05
5.33658e-05
5.29722e-05
5.27641e-05
5.27847e-05
5.29792e-05
5.32395e-05
5.34674e-05
5.36197e-05
5.36907e-05
5.36993e-05
5.36705e-05
5.36227e-05
5.35635e-05
5.3516e-05
5.34959e-05
5.35033e-05
5.35424e-05
5.36163e-05
5.37236e-05
5.38603e-05
5.40168e-05
5.41774e-05
5.43453e-05
5.45283e-05
5.47254e-05
5.49367e-05
5.51633e-05
5.54053e-05
5.56616e-05
5.59303e-05
5.62069e-05
5.64835e-05
5.67509e-05
5.6998e-05
5.72152e-05
5.73958e-05
5.75305e-05
5.76191e-05
5.76611e-05
5.76613e-05
5.76238e-05
5.75495e-05
5.74305e-05
5.72671e-05
5.70734e-05
5.6859e-05
5.66156e-05
5.63068e-05
5.59441e-05
5.34509e-05
5.32382e-05
5.30793e-05
5.29771e-05
5.29191e-05
5.28693e-05
5.27929e-05
5.26632e-05
5.248e-05
5.22608e-05
5.20203e-05
5.17794e-05
5.15549e-05
5.13593e-05
5.11747e-05
5.09915e-05
5.08464e-05
5.07567e-05
5.07302e-05
5.07713e-05
5.08765e-05
5.10306e-05
5.12334e-05
5.14987e-05
5.18072e-05
5.21588e-05
5.25542e-05
5.29925e-05
5.34729e-05
5.39919e-05
5.45407e-05
5.51035e-05
5.56582e-05
5.61829e-05
5.66556e-05
5.70569e-05
5.73784e-05
5.76159e-05
5.77752e-05
5.78591e-05
5.78761e-05
5.78313e-05
5.7732e-05
5.75778e-05
5.73698e-05
5.71186e-05
5.68357e-05
5.65152e-05
5.61402e-05
5.57033e-05
5.29657e-05
5.27483e-05
5.25065e-05
5.22264e-05
5.18967e-05
5.15069e-05
5.10532e-05
5.05424e-05
4.9988e-05
4.941e-05
4.88266e-05
4.82549e-05
4.77123e-05
4.7215e-05
4.67779e-05
4.64181e-05
4.6118e-05
4.58714e-05
4.56882e-05
4.55919e-05
4.55889e-05
4.57069e-05
4.59647e-05
4.63229e-05
4.67787e-05
4.73306e-05
4.79763e-05
4.87119e-05
4.95291e-05
5.04121e-05
5.13363e-05
5.22712e-05
5.31809e-05
5.40323e-05
5.47978e-05
5.54592e-05
5.60125e-05
5.64597e-05
5.68063e-05
5.70568e-05
5.7217e-05
5.72897e-05
5.72804e-05
5.71921e-05
5.70269e-05
5.67905e-05
5.64926e-05
5.61318e-05
5.5702e-05
5.51959e-05
5.14392e-05
5.0997e-05
5.04779e-05
4.9877e-05
4.9193e-05
4.84318e-05
4.7604e-05
4.67264e-05
4.58176e-05
4.48977e-05
4.39856e-05
4.30994e-05
4.22564e-05
4.14725e-05
4.07639e-05
4.01447e-05
3.96293e-05
3.92326e-05
3.89662e-05
3.88241e-05
3.88301e-05
3.89894e-05
3.92991e-05
3.97591e-05
4.03666e-05
4.11161e-05
4.19983e-05
4.29983e-05
4.40955e-05
4.52606e-05
4.64572e-05
4.76475e-05
4.87941e-05
4.98672e-05
5.08509e-05
5.17373e-05
5.25256e-05
5.32185e-05
5.38185e-05
5.43244e-05
5.47367e-05
5.5052e-05
5.52679e-05
5.53838e-05
5.54002e-05
5.53159e-05
5.51332e-05
5.48508e-05
5.44672e-05
5.39787e-05
4.71747e-05
4.64323e-05
4.55961e-05
4.46727e-05
4.3672e-05
4.26086e-05
4.15016e-05
4.03708e-05
3.92378e-05
3.81224e-05
3.70442e-05
3.60208e-05
3.50679e-05
3.42017e-05
3.34374e-05
3.27879e-05
3.22665e-05
3.18855e-05
3.16546e-05
3.1582e-05
3.16742e-05
3.19335e-05
3.23597e-05
3.29488e-05
3.3692e-05
3.45762e-05
3.55837e-05
3.66906e-05
3.78695e-05
3.90901e-05
4.03203e-05
4.15334e-05
4.2711e-05
4.38395e-05
4.49114e-05
4.59239e-05
4.68757e-05
4.77643e-05
4.85873e-05
4.9338e-05
5.00098e-05
5.05958e-05
5.10874e-05
5.14775e-05
5.17605e-05
5.19277e-05
5.19726e-05
5.18889e-05
5.16701e-05
5.13108e-05
5.24951e-05
5.14263e-05
5.03282e-05
4.9198e-05
4.80403e-05
4.68622e-05
4.56741e-05
4.44879e-05
4.33163e-05
4.21742e-05
4.10764e-05
4.0037e-05
3.90698e-05
3.81879e-05
3.74028e-05
3.67247e-05
3.61618e-05
3.572e-05
3.5403e-05
3.52115e-05
3.51434e-05
3.51932e-05
3.53524e-05
3.56112e-05
3.5957e-05
3.63753e-05
3.68518e-05
3.7372e-05
3.79232e-05
3.84961e-05
3.90833e-05
3.96812e-05
4.02874e-05
4.09025e-05
4.15266e-05
4.21593e-05
4.27975e-05
4.34364e-05
4.40695e-05
4.46879e-05
4.52816e-05
4.58402e-05
4.63523e-05
4.68058e-05
4.71881e-05
4.74859e-05
4.76863e-05
4.77757e-05
4.77412e-05
4.75713e-05
5.4813e-06
5.40566e-06
5.35628e-06
5.33142e-06
5.31788e-06
5.31106e-06
5.30874e-06
5.30799e-06
5.30629e-06
5.30155e-06
5.29222e-06
5.27745e-06
5.25706e-06
5.2316e-06
5.20225e-06
5.17064e-06
5.13863e-06
5.10805e-06
5.08041e-06
5.05673e-06
5.04031e-06
5.00523e-06
4.98249e-06
4.97686e-06
4.9653e-06
4.94967e-06
4.93063e-06
4.90812e-06
4.8821e-06
4.85257e-06
4.81974e-06
4.78559e-06
4.75203e-06
4.72058e-06
4.69229e-06
4.66759e-06
4.64632e-06
4.62789e-06
4.61151e-06
4.59644e-06
4.58206e-06
4.56798e-06
4.5541e-06
4.54042e-06
4.52703e-06
4.51441e-06
4.50328e-06
4.49327e-06
4.48351e-06
4.47198e-06
5.37744e-06
5.18109e-06
5.04464e-06
4.94699e-06
4.87131e-06
4.81011e-06
4.75613e-06
4.70376e-06
4.64817e-06
4.58591e-06
4.5152e-06
4.43602e-06
4.34988e-06
4.25955e-06
4.16857e-06
4.08073e-06
3.99953e-06
3.92759e-06
3.86637e-06
3.81772e-06
3.76818e-06
3.68539e-06
1.59401e-05
1.61141e-05
1.62265e-05
1.62906e-05
1.63056e-05
1.62715e-05
1.61941e-05
1.60868e-05
1.59672e-05
1.58468e-05
1.57372e-05
1.56477e-05
1.55829e-05
1.55429e-05
1.55239e-05
1.55197e-05
1.55236e-05
1.55289e-05
1.55302e-05
1.55243e-05
1.551e-05
1.54884e-05
1.54617e-05
1.543e-05
1.53927e-05
1.53508e-05
1.53029e-05
1.52438e-05
5.3838e-06
5.19522e-06
5.05788e-06
4.95634e-06
4.87435e-06
4.80386e-06
4.73904e-06
4.67521e-06
4.60864e-06
4.53687e-06
4.45876e-06
4.37449e-06
4.28539e-06
4.19362e-06
4.10184e-06
4.01284e-06
3.92915e-06
3.85269e-06
3.78539e-06
1.60469e-05
1.57874e-05
1.56471e-05
1.55736e-05
1.55214e-05
1.54673e-05
1.53961e-05
1.53002e-05
1.51778e-05
1.50324e-05
1.48711e-05
1.47031e-05
1.4538e-05
1.43847e-05
1.42494e-05
1.4135e-05
1.40414e-05
1.39656e-05
1.39036e-05
1.38502e-05
1.38009e-05
1.37519e-05
1.37012e-05
1.36483e-05
1.35938e-05
1.35382e-05
1.34825e-05
1.34262e-05
1.33676e-05
1.3305e-05
1.32404e-05
5.38464e-06
5.20141e-06
5.06655e-06
4.96506e-06
4.88207e-06
4.81013e-06
4.74373e-06
4.67847e-06
4.6108e-06
4.53838e-06
4.46013e-06
4.3762e-06
4.28776e-06
4.19682e-06
4.10588e-06
4.01759e-06
3.93438e-06
3.85809e-06
3.79067e-06
1.60744e-05
1.58057e-05
1.56573e-05
1.55697e-05
1.55035e-05
1.54334e-05
1.53445e-05
1.52299e-05
1.50889e-05
1.49255e-05
1.47469e-05
1.45623e-05
1.43812e-05
1.42119e-05
1.406e-05
1.3928e-05
1.38154e-05
1.37195e-05
1.36363e-05
1.35612e-05
1.34898e-05
1.34187e-05
1.33463e-05
1.32726e-05
1.31983e-05
1.3125e-05
1.30542e-05
1.29856e-05
1.29163e-05
1.28417e-05
1.27611e-05
5.38526e-06
5.20495e-06
5.07095e-06
4.96866e-06
4.88424e-06
4.81078e-06
4.74302e-06
4.67664e-06
4.6082e-06
4.53542e-06
4.45721e-06
4.37368e-06
4.28592e-06
4.19581e-06
4.10577e-06
4.01839e-06
3.93601e-06
3.86043e-06
3.7935e-06
1.60808e-05
1.58117e-05
1.56619e-05
1.55723e-05
1.55034e-05
1.543e-05
1.53375e-05
1.52191e-05
1.50743e-05
1.49071e-05
1.47252e-05
1.45378e-05
1.43546e-05
1.41838e-05
1.40309e-05
1.38979e-05
1.37843e-05
1.36872e-05
1.36025e-05
1.35252e-05
1.3451e-05
1.33765e-05
1.33003e-05
1.32222e-05
1.31432e-05
1.30649e-05
1.29886e-05
1.29149e-05
1.28426e-05
1.27671e-05
1.26847e-05
5.38623e-06
5.20869e-06
5.07557e-06
4.97274e-06
4.88718e-06
4.81235e-06
4.7433e-06
4.67591e-06
4.6069e-06
4.53405e-06
4.45627e-06
4.37352e-06
4.28679e-06
4.19784e-06
4.10899e-06
4.02274e-06
3.94135e-06
3.86649e-06
3.79994e-06
1.61138e-05
1.5841e-05
1.56873e-05
1.55937e-05
1.55206e-05
1.54429e-05
1.5346e-05
1.52233e-05
1.50744e-05
1.49035e-05
1.47184e-05
1.45287e-05
1.43444e-05
1.41736e-05
1.40213e-05
1.38895e-05
1.37775e-05
1.36822e-05
1.35992e-05
1.35233e-05
1.34498e-05
1.33756e-05
1.32991e-05
1.32204e-05
1.31405e-05
1.30607e-05
1.29819e-05
1.29044e-05
1.28275e-05
1.27485e-05
1.26635e-05
5.3875e-06
5.21309e-06
5.08061e-06
4.97686e-06
4.88972e-06
4.81311e-06
4.7424e-06
4.67371e-06
4.60393e-06
4.53088e-06
4.45342e-06
4.3714e-06
4.28566e-06
4.19786e-06
4.11022e-06
4.02514e-06
3.94471e-06
3.87048e-06
3.80415e-06
1.61243e-05
1.58494e-05
1.56929e-05
1.55964e-05
1.55201e-05
1.5439e-05
1.53387e-05
1.52127e-05
1.50605e-05
1.48867e-05
1.46994e-05
1.45086e-05
1.43244e-05
1.41546e-05
1.40043e-05
1.38752e-05
1.37664e-05
1.36747e-05
1.35954e-05
1.35229e-05
1.34525e-05
1.33805e-05
1.33053e-05
1.32272e-05
1.31472e-05
1.3067e-05
1.29873e-05
1.29079e-05
1.28278e-05
1.27448e-05
1.26558e-05
5.38895e-06
5.2181e-06
5.08626e-06
4.98142e-06
4.89252e-06
4.81397e-06
4.74149e-06
4.67146e-06
4.60095e-06
4.52779e-06
4.45078e-06
4.36964e-06
4.2851e-06
4.19872e-06
4.11257e-06
4.02886e-06
3.9495e-06
3.87591e-06
3.80974e-06
1.61458e-05
1.58673e-05
1.57067e-05
1.56059e-05
1.55251e-05
1.54396e-05
1.53349e-05
1.52047e-05
1.50486e-05
1.48713e-05
1.46814e-05
1.44892e-05
1.43047e-05
1.41358e-05
1.39872e-05
1.38607e-05
1.37553e-05
1.36676e-05
1.35924e-05
1.35239e-05
1.34569e-05
1.33875e-05
1.33141e-05
1.32364e-05
1.31559e-05
1.30743e-05
1.29926e-05
1.29107e-05
1.28274e-05
1.27406e-05
1.26472e-05
5.39055e-06
5.22362e-06
5.09252e-06
4.98647e-06
4.89561e-06
4.81492e-06
4.74051e-06
4.66904e-06
4.59769e-06
4.52433e-06
4.44768e-06
4.36739e-06
4.28409e-06
4.19915e-06
4.11449e-06
4.03209e-06
3.95368e-06
3.8806e-06
3.81447e-06
1.61598e-05
1.58781e-05
1.57136e-05
1.56086e-05
1.55237e-05
1.5434e-05
1.53253e-05
1.5191e-05
1.50312e-05
1.48507e-05
1.46586e-05
1.44654e-05
1.42811e-05
1.41134e-05
1.3967e-05
1.38437e-05
1.37424e-05
1.36592e-05
1.35885e-05
1.35243e-05
1.34608e-05
1.33941e-05
1.33224e-05
1.32453e-05
1.31641e-05
1.30805e-05
1.29958e-05
1.29104e-05
1.2823e-05
1.27316e-05
1.26333e-05
5.3923e-06
5.22953e-06
5.09924e-06
4.99192e-06
4.89901e-06
4.8161e-06
4.73973e-06
4.66677e-06
4.59452e-06
4.52089e-06
4.44458e-06
4.36518e-06
4.28318e-06
4.19978e-06
4.11664e-06
4.03552e-06
3.95803e-06
3.88542e-06
3.8193e-06
1.61763e-05
1.58911e-05
1.57226e-05
1.56131e-05
1.55236e-05
1.54294e-05
1.53163e-05
1.51777e-05
1.5014e-05
1.48304e-05
1.46364e-05
1.44425e-05
1.42587e-05
1.40925e-05
1.39486e-05
1.38289e-05
1.37318e-05
1.36532e-05
1.35871e-05
1.35269e-05
1.34667e-05
1.34024e-05
1.33319e-05
1.3255e-05
1.31727e-05
1.30866e-05
1.29983e-05
1.29082e-05
1.28158e-05
1.2719e-05
1.26152e-05
5.3942e-06
5.23571e-06
5.10623e-06
4.99763e-06
4.90266e-06
4.81754e-06
4.73915e-06
4.66463e-06
4.5914e-06
4.51743e-06
4.44144e-06
4.36294e-06
4.28224e-06
4.20034e-06
4.11864e-06
4.03871e-06
3.96204e-06
3.88981e-06
3.82359e-06
1.61896e-05
1.5908e-05
1.57399e-05
1.56267e-05
1.55312e-05
1.54302e-05
1.53103e-05
1.51658e-05
1.49971e-05
1.48103e-05
1.46148e-05
1.44209e-05
1.42384e-05
1.40745e-05
1.3934e-05
1.38183e-05
1.37258e-05
1.36517e-05
1.35899e-05
1.35334e-05
1.34764e-05
1.34143e-05
1.33447e-05
1.32672e-05
1.3183e-05
1.30937e-05
1.30009e-05
1.29055e-05
1.28071e-05
1.27041e-05
1.25943e-05
5.39619e-06
5.242e-06
5.1133e-06
5.00345e-06
4.90649e-06
4.81918e-06
4.73877e-06
4.66262e-06
4.58834e-06
4.51402e-06
4.43836e-06
4.36074e-06
4.2813e-06
4.20078e-06
4.12038e-06
4.04151e-06
3.96554e-06
3.89359e-06
3.82637e-06
1.60608e-05
1.59497e-05
1.58478e-05
1.57459e-05
1.56353e-05
1.55092e-05
1.53629e-05
1.51953e-05
1.50087e-05
1.48095e-05
1.46063e-05
1.44086e-05
1.4225e-05
1.40622e-05
1.39243e-05
1.38121e-05
1.37235e-05
1.36535e-05
1.35955e-05
1.35424e-05
1.34882e-05
1.34278e-05
1.33586e-05
1.32799e-05
1.31929e-05
1.30994e-05
1.30015e-05
1.29e-05
1.2795e-05
1.26855e-05
1.25695e-05
5.39821e-06
5.24821e-06
5.12033e-06
5.00932e-06
4.91043e-06
4.82097e-06
4.73854e-06
4.66077e-06
4.58548e-06
4.51086e-06
4.43554e-06
4.35879e-06
4.28052e-06
4.20126e-06
4.12204e-06
4.04412e-06
3.96878e-06
3.89704e-06
3.82956e-06
1.60725e-05
1.59632e-05
1.58619e-05
1.57582e-05
1.56436e-05
1.55119e-05
1.53594e-05
1.5186e-05
1.49946e-05
1.47922e-05
1.45873e-05
1.43892e-05
1.42064e-05
1.40455e-05
1.39104e-05
1.38017e-05
1.37169e-05
1.36509e-05
1.35968e-05
1.35474e-05
1.34959e-05
1.34373e-05
1.33684e-05
1.32884e-05
1.31986e-05
1.31009e-05
1.29977e-05
1.28903e-05
1.27789e-05
1.2663e-05
1.2541e-05
5.40019e-06
5.25418e-06
5.12712e-06
5.01507e-06
4.91434e-06
4.82278e-06
4.73835e-06
4.659e-06
4.58275e-06
4.5078e-06
4.43272e-06
4.35663e-06
4.27927e-06
4.201e-06
4.12271e-06
4.04555e-06
3.97068e-06
3.89907e-06
3.83137e-06
1.60781e-05
1.59673e-05
1.58635e-05
1.57563e-05
1.56374e-05
1.5501e-05
1.53442e-05
1.51669e-05
1.49728e-05
1.47687e-05
1.45633e-05
1.43657e-05
1.41844e-05
1.40261e-05
1.38943e-05
1.37896e-05
1.37093e-05
1.36477e-05
1.35981e-05
1.35526e-05
1.35044e-05
1.34477e-05
1.33792e-05
1.32983e-05
1.32061e-05
1.31049e-05
1.29969e-05
1.28838e-05
1.27664e-05
1.26444e-05
1.25169e-05
5.4021e-06
5.2598e-06
5.13356e-06
5.02061e-06
4.91823e-06
4.82478e-06
4.73859e-06
4.6579e-06
4.58085e-06
4.50564e-06
4.43077e-06
4.35524e-06
4.27865e-06
4.20128e-06
4.12388e-06
4.04745e-06
3.97306e-06
3.90165e-06
3.83384e-06
1.6092e-05
1.59789e-05
1.58715e-05
1.57598e-05
1.56358e-05
1.54944e-05
1.53329e-05
1.51517e-05
1.49548e-05
1.4749e-05
1.45428e-05
1.43456e-05
1.41657e-05
1.40098e-05
1.38814e-05
1.37805e-05
1.37043e-05
1.36472e-05
1.36016e-05
1.35598e-05
1.35142e-05
1.34591e-05
1.33913e-05
1.33099e-05
1.32159e-05
1.31118e-05
1.29999e-05
1.28821e-05
1.27595e-05
1.26324e-05
1.25004e-05
5.40387e-06
5.26481e-06
5.13924e-06
5.02539e-06
4.92141e-06
4.82613e-06
4.73824e-06
4.65618e-06
4.57817e-06
4.50241e-06
4.42735e-06
4.35196e-06
4.27579e-06
4.199e-06
4.12222e-06
4.04632e-06
3.97231e-06
3.90107e-06
3.83319e-06
1.60835e-05
1.59697e-05
1.58604e-05
1.57459e-05
1.56189e-05
1.54743e-05
1.531e-05
1.51267e-05
1.49286e-05
1.47224e-05
1.45167e-05
1.43209e-05
1.41434e-05
1.39906e-05
1.38659e-05
1.37691e-05
1.36969e-05
1.36437e-05
1.36019e-05
1.35634e-05
1.35205e-05
1.34674e-05
1.34009e-05
1.33203e-05
1.32265e-05
1.31218e-05
1.30086e-05
1.28891e-05
1.27649e-05
1.26366e-05
1.25045e-05
5.40545e-06
5.26918e-06
5.14433e-06
5.03e-06
4.92503e-06
4.82861e-06
4.73964e-06
4.65667e-06
4.57797e-06
4.50177e-06
4.42656e-06
4.3513e-06
4.27553e-06
4.1993e-06
4.12309e-06
4.04769e-06
3.97402e-06
3.90291e-06
3.83493e-06
1.60966e-05
1.59806e-05
1.58683e-05
1.57512e-05
1.56219e-05
1.54756e-05
1.53102e-05
1.51265e-05
1.49289e-05
1.4724e-05
1.45205e-05
1.43277e-05
1.41541e-05
1.4006e-05
1.38864e-05
1.37951e-05
1.37287e-05
1.36812e-05
1.36452e-05
1.36123e-05
1.35749e-05
1.35278e-05
1.34672e-05
1.33925e-05
1.33047e-05
1.32059e-05
1.30987e-05
1.29856e-05
1.28686e-05
1.27488e-05
1.26272e-05
5.40681e-06
5.27173e-06
5.14635e-06
5.03066e-06
4.92407e-06
4.82605e-06
4.73568e-06
4.65157e-06
4.57205e-06
4.49539e-06
4.42011e-06
4.34516e-06
4.27e-06
4.19454e-06
4.11916e-06
4.04458e-06
3.97171e-06
3.90136e-06
3.8341e-06
1.60919e-05
1.59735e-05
1.58584e-05
1.57557e-05
1.56424e-05
1.55122e-05
1.53618e-05
1.51903e-05
1.50077e-05
1.48205e-05
1.46367e-05
1.44647e-05
1.43124e-05
1.4186e-05
1.40886e-05
1.40202e-05
1.39779e-05
1.39559e-05
1.3946e-05
1.39312e-05
1.39161e-05
1.39026e-05
1.3874e-05
1.38295e-05
1.37702e-05
1.36987e-05
1.36178e-05
1.35307e-05
1.34398e-05
1.33472e-05
1.32548e-05
5.40821e-06
5.27558e-06
5.15237e-06
5.0385e-06
4.93327e-06
4.83614e-06
4.74843e-06
4.66855e-06
4.59446e-06
4.52422e-06
4.45615e-06
4.38895e-06
4.32182e-06
4.2545e-06
4.18734e-06
4.12106e-06
4.05649e-06
3.99484e-06
3.93652e-06
3.88118e-06
3.82139e-06
3.72304e-06
1.60189e-05
1.61967e-05
1.62639e-05
1.62407e-05
1.60796e-05
1.59112e-05
1.57588e-05
1.56276e-05
1.55205e-05
1.54416e-05
1.53936e-05
1.53758e-05
1.53875e-05
1.54259e-05
1.54847e-05
1.55476e-05
3.5712e-06
3.50424e-06
1.51322e-05
1.53601e-05
1.54999e-05
1.55747e-05
1.56022e-05
1.55965e-05
1.55673e-05
1.55222e-05
1.54668e-05
1.54063e-05
5.478e-06
5.44801e-06
5.42146e-06
5.39854e-06
5.37956e-06
5.36408e-06
5.34941e-06
5.33478e-06
5.31956e-06
5.30308e-06
5.28488e-06
5.2648e-06
5.24297e-06
5.21983e-06
5.196e-06
5.17212e-06
5.14883e-06
5.12624e-06
5.10454e-06
5.08348e-06
5.06538e-06
5.02351e-06
4.98916e-06
4.95779e-06
4.92668e-06
4.89456e-06
4.87132e-06
4.83904e-06
4.80315e-06
4.76781e-06
4.7353e-06
4.70644e-06
4.68164e-06
4.6616e-06
4.64579e-06
4.63325e-06
4.62285e-06
4.61342e-06
4.60294e-06
4.59137e-06
4.57963e-06
4.56693e-06
4.55289e-06
4.53732e-06
4.52008e-06
4.50122e-06
4.48072e-06
4.45844e-06
4.43416e-06
4.40748e-06
1.16207e-05
5.9271e-06
5.54933e-06
5.39783e-06
4.93812e-06
4.32916e-06
3.86786e-06
1.44457e-05
1.26618e-05
1.15473e-05
1.11275e-05
1.1532e-05
1.2462e-05
1.34925e-05
1.45164e-05
1.54695e-05
3.86188e-06
4.17945e-06
4.68183e-06
8.4143e-06
1.14712e-05
5.84496e-06
5.5488e-06
5.40401e-06
4.93202e-06
4.30803e-06
3.84758e-06
1.42451e-05
1.24342e-05
1.13011e-05
1.08751e-05
1.13326e-05
1.22733e-05
1.32997e-05
1.43716e-05
1.53889e-05
3.8517e-06
4.17648e-06
4.68834e-06
8.5538e-06
1.13212e-05
5.76529e-06
5.54923e-06
5.41043e-06
4.92755e-06
4.29017e-06
3.83163e-06
1.40666e-05
1.22287e-05
1.10849e-05
1.07662e-05
1.11837e-05
1.20922e-05
1.31401e-05
1.42554e-05
1.53161e-05
3.83976e-06
4.16455e-06
4.68186e-06
8.67481e-06
1.11682e-05
5.69162e-06
5.5511e-06
5.4176e-06
4.92493e-06
4.27527e-06
3.81882e-06
1.39018e-05
1.20307e-05
1.0855e-05
1.05345e-05
1.10176e-05
1.19174e-05
1.29862e-05
1.41433e-05
1.52454e-05
3.8281e-06
4.1527e-06
4.67521e-06
8.79788e-06
1.10142e-05
5.62596e-06
5.55492e-06
5.42602e-06
4.92453e-06
4.26375e-06
3.80975e-06
1.37561e-05
1.18534e-05
1.06462e-05
1.02985e-05
1.08228e-05
1.17358e-05
1.28322e-05
1.40321e-05
1.51747e-05
3.81641e-06
4.14062e-06
4.6683e-06
8.92232e-06
1.08608e-05
5.56884e-06
5.56083e-06
5.43579e-06
4.92623e-06
4.25518e-06
3.80327e-06
1.36253e-05
1.16916e-05
1.04522e-05
1.00632e-05
1.06029e-05
1.15445e-05
1.26763e-05
1.3921e-05
1.51041e-05
3.80474e-06
4.12843e-06
4.66139e-06
9.0481e-06
1.07088e-05
5.5191e-06
5.56841e-06
5.44665e-06
4.92996e-06
4.2498e-06
3.79972e-06
1.35101e-05
1.1546e-05
1.02719e-05
9.82428e-06
1.03628e-05
1.13457e-05
1.25203e-05
1.3812e-05
1.50357e-05
3.79349e-06
4.11651e-06
4.65497e-06
9.17574e-06
1.05586e-05
5.47483e-06
5.57682e-06
5.45789e-06
4.93515e-06
4.2472e-06
3.79881e-06
1.34106e-05
1.14179e-05
1.01092e-05
9.59579e-06
1.0115e-05
1.11462e-05
1.23684e-05
1.37088e-05
1.49724e-05
3.78313e-06
4.10528e-06
4.64955e-06
9.30596e-06
1.04094e-05
5.43458e-06
5.58537e-06
5.4692e-06
4.94168e-06
4.24719e-06
3.80031e-06
1.3326e-05
1.13072e-05
9.96811e-06
9.40344e-06
9.88036e-06
1.09538e-05
1.2225e-05
1.36143e-05
1.49163e-05
3.77393e-06
4.09503e-06
4.64543e-06
9.43923e-06
1.02605e-05
5.39772e-06
5.59364e-06
5.48051e-06
4.94961e-06
4.24968e-06
1.60414e-05
1.32548e-05
1.12121e-05
9.84819e-06
9.25896e-06
9.67719e-06
1.07742e-05
1.20922e-05
1.35295e-05
1.48673e-05
3.76582e-06
4.08567e-06
4.64254e-06
9.57552e-06
1.01111e-05
5.36443e-06
5.60161e-06
5.49202e-06
4.95898e-06
4.25478e-06
1.59862e-05
1.31894e-05
1.1129e-05
9.7436e-06
9.14814e-06
9.50655e-06
1.06067e-05
1.1969e-05
1.34528e-05
1.48233e-05
3.75836e-06
4.0768e-06
4.64046e-06
9.71433e-06
9.96137e-06
5.33534e-06
5.60968e-06
5.50407e-06
4.96964e-06
4.26127e-06
1.59434e-05
1.31328e-05
1.10519e-05
9.64364e-06
9.03874e-06
9.35068e-06
1.04452e-05
1.18525e-05
1.33816e-05
1.47815e-05
1.5916e-05
4.068e-06
4.6386e-06
9.85497e-06
9.81181e-06
5.31074e-06
5.61833e-06
5.51688e-06
4.98121e-06
4.26822e-06
1.5907e-05
1.30785e-05
1.09735e-05
9.53755e-06
8.90281e-06
9.18537e-06
1.02843e-05
1.17411e-05
1.33138e-05
1.47418e-05
1.58858e-05
4.05768e-06
4.63661e-06
9.99709e-06
9.66322e-06
5.29035e-06
5.62793e-06
5.5305e-06
4.99317e-06
4.27466e-06
1.58715e-05
1.30215e-05
1.08889e-05
9.42045e-06
8.73748e-06
8.99974e-06
1.01255e-05
1.16362e-05
1.32495e-05
1.47001e-05
1.58521e-05
4.04763e-06
4.63451e-06
1.01407e-05
9.51632e-06
5.27343e-06
5.63864e-06
5.54473e-06
5.00493e-06
4.27991e-06
1.58327e-05
1.29591e-05
1.07968e-05
9.29501e-06
8.56844e-06
8.8102e-06
9.97872e-06
1.15421e-05
1.31905e-05
1.46592e-05
1.58169e-05
4.03703e-06
4.63263e-06
1.02863e-05
9.37148e-06
5.25901e-06
5.65038e-06
5.55927e-06
5.01611e-06
4.28366e-06
1.57889e-05
1.2891e-05
1.06991e-05
9.16792e-06
8.43056e-06
8.65196e-06
9.85694e-06
1.14633e-05
1.3139e-05
1.46209e-05
1.57841e-05
4.02641e-06
4.63155e-06
1.04344e-05
9.22873e-06
5.24619e-06
5.66285e-06
5.57382e-06
5.02649e-06
4.28604e-06
1.57399e-05
1.28185e-05
1.05984e-05
9.04365e-06
8.33803e-06
8.55167e-06
9.76664e-06
1.14008e-05
1.30953e-05
1.45863e-05
1.57553e-05
4.01621e-06
4.63174e-06
1.05855e-05
9.08782e-06
5.23438e-06
5.67569e-06
5.58812e-06
5.03616e-06
4.2875e-06
1.56874e-05
1.27437e-05
1.04969e-05
8.92209e-06
8.26375e-06
8.50447e-06
9.70239e-06
1.13511e-05
1.30574e-05
1.45547e-05
1.57306e-05
4.00668e-06
4.63346e-06
1.07397e-05
8.94841e-06
5.22342e-06
5.68853e-06
5.60202e-06
5.04536e-06
4.28865e-06
1.56337e-05
1.26687e-05
1.03969e-05
8.80194e-06
8.1429e-06
8.47311e-06
9.64921e-06
1.13074e-05
1.30221e-05
1.45249e-05
1.5709e-05
3.99777e-06
4.63666e-06
1.08967e-05
8.81015e-06
5.21365e-06
5.70116e-06
5.61557e-06
5.05448e-06
4.29019e-06
1.5582e-05
1.25967e-05
1.03028e-05
8.68815e-06
7.91853e-06
8.41132e-06
9.59138e-06
1.12633e-05
1.29865e-05
1.44955e-05
1.5689e-05
3.98922e-06
4.64105e-06
1.10562e-05
8.67291e-06
5.20574e-06
5.71359e-06
5.62893e-06
5.06395e-06
4.29285e-06
1.55363e-05
1.25324e-05
1.0223e-05
8.59647e-06
7.62233e-06
8.29501e-06
9.52083e-06
1.1216e-05
1.29499e-05
1.44661e-05
1.56697e-05
3.98077e-06
4.64639e-06
1.1218e-05
8.53686e-06
5.2004e-06
5.72591e-06
5.64231e-06
5.07417e-06
4.29735e-06
1.55017e-05
1.24819e-05
1.01682e-05
8.54916e-06
7.41729e-06
8.14574e-06
9.43933e-06
1.11671e-05
1.29139e-05
1.44373e-05
1.56508e-05
3.9723e-06
4.65145e-06
1.13832e-05
8.40233e-06
5.19814e-06
5.7382e-06
5.65574e-06
5.08538e-06
4.30426e-06
1.5483e-05
1.24509e-05
1.01474e-05
8.56392e-06
7.42729e-06
8.00256e-06
9.35758e-06
1.1122e-05
1.28817e-05
1.4411e-05
1.56331e-05
3.96397e-06
4.65215e-06
1.15541e-05
8.26962e-06
5.19867e-06
5.75078e-06
5.66965e-06
5.09688e-06