/*--------------------------------*- C++ -*----------------------------------*\
  =========                 |
  \\      /  F ield         | OpenFOAM: The Open Source CFD Toolbox
   \\    /   O peration     | Website:  https://openfoam.org
    \\  /    A nd           | Version:  8
     \\/     M anipulation  |
\*---------------------------------------------------------------------------*/
FoamFile
{
    version     2.0;
    format      ascii;
    class       volScalarField;
    location    "400";
    object      p;
}
// * * * * * * * * * * * * * * * * * * * * * * * * * * * * * * * * * * * * * //

dimensions      [1 -1 -2 0 0 0 0];

internalField   nonuniform List<scalar> 
8400
(
9609.54
1944.52
-5809.28
-10556.6
-10381.6
-4314.94
7487.85
23922.6
43697.1
65336.2
87021.9
107176
124919
140142
153111
164245
174072
183060
190464
194911
196195
194680
191006
186007
180954
177288
174399
169843
162314
154194
147903
145013
145838
149685
155600
162570
169567
175772
181335
187180
193486
200336
207640
215056
222307
229269
235948
242497
249055
255656
11395.8
-620.027
-11265
-17642.7
-18137
-11630.9
1601.93
20019.9
41274.4
63410.6
85044.5
105000
122625
137840
150907
162238
172408
181657
189315
194127
195747
194329
190494
185394
180636
177973
175740
170894
162186
153097
146789
144666
146346
150537
156345
163103
169855
175166
179561
185305
191948
199278
207231
215146
222600
229477
235856
242109
248394
254891
5831.91
-5341.7
-12666.4
-16467.6
-14964.7
-7331.9
5956.73
23499.7
43597.6
64731.6
85453.6
104486
121305
136020
148933
160355
170596
179430
185992
189857
190988
189655
186403
182391
178879
176715
173788
166510
156538
148292
144603
145410
149167
154667
161166
167883
173470
176734
179018
183119
189096
196668
205209
213821
221860
228669
234459
240549
246847
253705
-10711.2
-15984
-17622.8
-17577.8
-13462.1
-4294.74
9442.59
26506.4
45449.2
64883
83483.9
100211
114728
127251
138109
147523
155563
162087
166824
169770
171174
171218
170568
169768
169046
168337
166247
161384
155132
149993
147625
148355
151846
157485
164240
170776
175712
178166
180641
184589
190660
198504
207098
215955
223632
228549
232149
237069
243559
251530
-19638.7
-13097.3
-2843.4
4416.84
12227.2
22413.5
34861.4
48687.3
62857.3
76439.1
88712.8
99250.7
107987
115104
120863
125449
128993
131625
133590
135311
137385
140298
143916
147763
151420
154298
155537
154646
152370
150156
149406
151130
155771
162911
171204
178920
184681
188030
190565
193602
198007
203882
210634
217782
224275
228220
231873
237422
245192
253821
2502.74
8861.89
19517
27409.7
34113.4
41517.7
49863.9
58630.8
67205.8
75105.9
82023.8
87811.4
92451
96047.9
98764.7
100803
102402
103856
105537
107826
110920
114824
119475
124611
129849
134701
138635
141381
143253
145078
147882
152487
159127
167249
175698
183246
189146
193440
196997
200721
205236
210670
216729
222956
228652
233229
237751
243217
249902
256980
6229.25
16674.7
27629.6
35568
41899.7
48153.3
54592.8
60926.1
66852.4
72198.9
76860.5
80775.8
83914.6
86307.3
88070.6
89411.7
90576.6
91844.3
93535.6
95931.9
99029.4
102714
106981
111721
116789
121965
127002
131758
136351
141160
146655
153138
160541
168393
176024
182867
188708
193758
198536
203550
209118
215267
221766
228253
234328
239798
245026
250480
256278
262056
13101.6
26935.7
38625.6
46640.8
52435.8
57495.6
62219.9
66535.4
70409.9
73864.1
76876
79348.6
81170.1
82275.9
82730.4
82779.5
82682.2
82742.3
83360.1
84835.2
87186.6
90289.5
94159.6
98763.3
104043
109893
116140
122614
129238
136045
143115
150462
157978
165429
172558
179213
185423
191401
197457
203856
210711
217943
225314
232523
239302
245535
251328
256860
262181
267162
16870.6
33541.9
45472.3
53271.9
58483.5
62336.1
65522
68287.5
70814.3
73219.5
75427.7
77206
78295.1
78523.2
77885
76780.3
75526.5
74478.5
74269.8
75196.3
77227.9
80309.1
84323.4
89175.9
94852.3
101337
108490
116087
123898
131767
139613
147385
155021
162444
169597
176488
183225
189994
197002
204387
212159
220184
228228
236028
243364
250117
256278
261893
266981
271512
20096.2
38457.8
50476.5
58203.9
63163.1
66157.9
68044.1
69609.3
71248.7
73137
75105.3
76720.6
77580.5
77468.6
76278.5
74542
72613.3
70850.7
70070.9
70587.2
72369.6
75422.1
79504.9
84386.1
90110.2
96827.5
104426
112599
120971
129301
137483
145471
153242
160785
168113
175295
182461
189774
197383
205358
213660
222144
230591
238763
246455
253530
259917
265600
270579
274863
22756.8
41231.3
53169.7
60951.8
65631.2
68044.4
69120.9
69877.4
71033.3
72774.4
74792.9
76484.1
77353
77274.2
76367.7
74904.2
73142.1
71374.8
70365.7
70597.1
72244.5
75267.5
79252
83932.4
89402.9
95929.4
103455
111607
119964
128287
136476
144489
152310
159942
167424
174842
182325
190012
198002
206325
214921
223651
232325
240719
248627
255897
262426
268163
273097
277252
21764.8
39811.8
52493.1
60987.3
65664.8
67680.9
68521.6
69308.8
70504.4
72090.7
73924.7
75614.5
76660.7
76868.8
76341
75246.5
74008.7
72844.9
72014.7
72081.8
73465.4
76114.5
79726.3
84253.3
89849
96487.4
103926
111846
119976
128139
136233
144204
152029
159714
167308
174900
182606
190540
198775
207304
216053
224906
233687
242178
250179
257539
264130
269885
274789
278867
19462.4
34911.1
46877.1
55134.2
60089.7
63142.6
65494.3
67706.5
69864.4
71880.3
73681.6
75158.6
76108.6
76408.1
76119.5
75432.5
74614.2
73877.9
73464.7
73735.1
74981
77324
80747.1
85190.6
90632.7
97021.3
104178
111851
119811
127886
135962
143967
151867
159667
167413
175190
183099
191237
199660
208350
217227
226174
235006
243508
251482
258807
265373
271085
275929
279933
16893.4
29118.1
40209.7
48915.7
55322.1
60110
63842.4
66820.2
69195
71094.2
72624.4
73829.6
74677.6
75125.4
75204.8
75024.4
74751.7
74570.7
74692.7
75355.4
76745.5
78978.2
82124.7
86233.9
91306.5
97276.1
104025
111374
119133
127131
135235
143353
151433
159463
167474
175533
183731
192144
200803
209669
218658
227649
236467
244922
252838
260078
266530
272108
276809
280676
16735
27446.9
37681.1
46327.1
53222.2
58570.8
62666
65785.4
68174.7
70054.2
71578.4
72818.3
73811.2
74594.1
75201.6
75676.6
76113.6
76645.6
77417.2
78573.6
80229.8
82482.2
85445.5
89227.9
93862.4
99321.7
105542
112412
119795
127542
135517
143616
151769
159947
168162
176462
184909
193557
202411
211420
220484
229472
238219
246562
254344
261423
267692
273091
277620
281333
17136
27207.2
36659.8
44811.5
51528.6
56880.1
61056.3
64302.7
66854.8
68904.1
70597.4
72021.1
73231.9
74285.5
75244.8
76186.1
77184.4
78323.1
79699.3
81401.7
83503.6
86083.2
89241.5
93061.3
97576.9
102790
108672
115165
122180
129607
137336
145274
153355
161543
169835
178259
186847
195623
204570
213625
222679
231597
240220
248395
255978
262843
268895
274083
278409
281952
17138.3
26671.6
35575.5
43321.6
49844
55179.5
59462.6
62875.8
65606.9
67816.2
69637.4
71174.4
72507.9
73712.5
74864.9
76042.4
77322.5
78787.3
80516.6
82585.3
85059.9
88001.3
91471.7
95523.4
100183
105449
111303
117703
124580
131855
139450
147290
155324
163519
171869
180383
189069
197922
206910
215961
224966
233788
242276
250280
257665
264315
270146
275107
279208
282561
17153
26152.6
34648.2
42102.1
48477.8
53797.7
58160.3
61702
64575
66920.6
68863
70508.7
71948.3
73265.8
74539.3
75848.2
77271.4
78884.7
80762.7
82979.7
85603.2
88696.7
92317.3
96507.8
101289
106661
112597
119053
125965
133263
140879
148750
156835
165112
173567
182196
190993
199936
208977
218039
227011
235760
244140
252007
259227
265691
271318
276067
279960
283129
17242.3
25795.4
33965.9
41190.5
47438.4
52727.5
57134
60771.7
63768.9
66252.8
68337
70122.5
71701.9
73155.7
74557.9
75986.6
77515.4
79213.7
81153.8
83407.9
86044.7
89135.7
92744.9
96920.8
101694
107068
113020
119505
126459
133808
141485
149434
157612
165994
174566
183316
192228
201269
210382
219483
228460
237182
245505
253288
260399
266733
272213
276810
280557
283579
17404.8
25735.7
33711
40784.4
46931.5
52173.6
56579.6
60252.6
63312.6
65876.8
68051.6
69934.9
71614.2
73167.6
74668.1
76187.5
77793.8
79554.6
81538
83812
86445.7
89513.3
93085.1
97216.3
101945
107284
113216
119698
126668
134052
141779
149791
158047
166520
175189
184040
193048
202175
211359
220512
229518
238246
246550
254290
261335
267580
272957
277443
281066
283939
273918
273918
273917
273917
273917
273916
273916
273916
273915
273915
273914
273914
273914
273913
273913
273913
273913
273913
273913
273913
273913
273913
273913
273913
273913
273913
273913
273913
273912
273912
273912
273912
273911
273911
273911
273911
273911
273911
273910
273910
273910
273909
273909
273908
273908
273907
273906
273905
273905
273904
273820
273820
273820
273819
273819
273819
273818
273818
273817
273817
273817
273816
273816
273816
273816
273816
273816
273816
273816
273816
273816
273816
273816
273816
273815
273815
273815
273815
273815
273815
273814
273814
273814
273814
273814
273813
273813
273813
273813
273813
273812
273812
273811
273811
273810
273809
273809
273808
273807
273806
273722
273722
273722
273722
273722
273721
273721
273720
273720
273719
273719
273719
273719
273718
273718
273718
273718
273718
273718
273718
273718
273718
273718
273718
273718
273718
273718
273717
273717
273717
273717
273717
273716
273716
273716
273716
273716
273716
273715
273715
273715
273714
273714
273713
273713
273712
273711
273710
273709
273709
273625
273625
273625
273624
273624
273624
273623
273623
273622
273622
273622
273621
273621
273621
273621
273621
273621
273621
273621
273621
273621
273621
273621
273620
273620
273620
273620
273620
273620
273619
273619
273619
273619
273619
273619
273618
273618
273618
273618
273617
273617
273617
273616
273616
273615
273614
273614
273613
273612
273611
273527
273527
273527
273527
273526
273526
273526
273525
273525
273524
273524
273524
273523
273523
273523
273523
273523
273523
273523
273523
273523
273523
273523
273523
273523
273523
273523
273522
273522
273522
273522
273522
273521
273521
273521
273521
273521
273521
273520
273520
273520
273519
273519
273518
273517
273517
273516
273515
273514
273514
273429
273429
273429
273429
273429
273428
273428
273428
273427
273427
273426
273426
273426
273426
273426
273426
273426
273426
273425
273425
273425
273425
273425
273425
273425
273425
273425
273425
273425
273425
273424
273424
273424
273424
273424
273423
273423
273423
273423
273422
273422
273422
273421
273421
273420
273419
273418
273418
273417
273416
273332
273332
273332
273331
273331
273331
273330
273330
273330
273329
273329
273329
273328
273328
273328
273328
273328
273328
273328
273328
273328
273328
273328
273328
273328
273328
273328
273327
273327
273327
273327
273327
273327
273326
273326
273326
273326
273326
273325
273325
273325
273324
273324
273323
273322
273322
273321
273320
273319
273318
273234
273234
273234
273234
273233
273233
273233
273232
273232
273232
273231
273231
273231
273231
273231
273231
273231
273230
273230
273230
273230
273230
273230
273230
273230
273230
273230
273230
273230
273230
273230
273229
273229
273229
273229
273229
273228
273228
273228
273227
273227
273227
273226
273225
273225
273224
273223
273223
273222
273221
273136
273136
273136
273136
273136
273135
273135
273135
273134
273134
273134
273134
273134
273133
273133
273133
273133
273133
273133
273133
273133
273133
273133
273133
273133
273133
273133
273133
273132
273132
273132
273132
273132
273132
273131
273131
273131
273131
273130
273130
273130
273129
273129
273128
273127
273127
273126
273125
273124
273123
273039
273039
273038
273038
273038
273038
273038
273037
273037
273037
273036
273036
273036
273036
273036
273036
273035
273035
273035
273035
273035
273035
273035
273035
273035
273035
273035
273035
273035
273035
273035
273035
273034
273034
273034
273034
273033
273033
273033
273032
273032
273032
273031
273030
273030
273029
273028
273027
273027
273026
272941
272941
272941
272941
272940
272940
272940
272940
272939
272939
272939
272939
272939
272938
272938
272938
272938
272938
272938
272938
272938
272938
272938
272938
272938
272938
272938
272938
272938
272938
272937
272937
272937
272937
272937
272936
272936
272936
272935
272935
272935
272934
272933
272933
272932
272931
272931
272930
272929
272928
272843
272843
272843
272843
272843
272842
272842
272842
272842
272842
272841
272841
272841
272841
272841
272841
272840
272840
272840
272840
272840
272840
272840
272840
272840
272840
272840
272840
272840
272840
272840
272840
272840
272839
272839
272839
272839
272838
272838
272838
272837
272837
272836
272835
272835
272834
272833
272832
272832
272831
272746
272746
272745
272745
272745
272745
272745
272744
272744
272744
272744
272744
272744
272743
272743
272743
272743
272743
272743
272743
272743
272743
272743
272743
272743
272743
272743
272743
272743
272743
272743
272742
272742
272742
272742
272741
272741
272741
272740
272740
272740
272739
272738
272738
272737
272736
272736
272735
272734
272733
272648
272648
272648
272648
272647
272647
272647
272647
272647
272647
272646
272646
272646
272646
272646
272646
272645
272645
272645
272645
272645
272645
272645
272645
272646
272646
272646
272645
272645
272645
272645
272645
272645
272644
272644
272644
272644
272643
272643
272643
272642
272642
272641
272640
272640
272639
272638
272637
272636
272636
272550
272550
272550
272550
272550
272550
272549
272549
272549
272549
272549
272549
272548
272548
272548
272548
272548
272548
272548
272548
272548
272548
272548
272548
272548
272548
272548
272548
272548
272548
272548
272547
272547
272547
272547
272546
272546
272546
272545
272545
272545
272544
272543
272543
272542
272541
272540
272540
272539
272538
272452
272452
272452
272452
272452
272452
272452
272452
272452
272451
272451
272451
272451
272451
272451
272451
272450
272450
272450
272450
272450
272450
272450
272450
272451
272451
272451
272451
272450
272450
272450
272450
272450
272449
272449
272449
272449
272448
272448
272448
272447
272446
272446
272445
272444
272444
272443
272442
272441
272440
272355
272355
272355
272355
272354
272354
272354
272354
272354
272354
272354
272354
272353
272353
272353
272353
272353
272353
272353
272353
272353
272353
272353
272353
272353
272353
272353
272353
272353
272353
272353
272352
272352
272352
272352
272351
272351
272351
272350
272350
272350
272349
272348
272348
272347
272346
272345
272344
272344
272343
272257
272257
272257
272257
272257
272257
272257
272257
272256
272256
272256
272256
272256
272256
272256
272255
272255
272255
272255
272255
272255
272255
272255
272255
272256
272256
272256
272256
272255
272255
272255
272255
272255
272254
272254
272254
272254
272253
272253
272252
272252
272251
272251
272250
272249
272248
272248
272247
272246
272245
272159
272159
272159
272159
272159
272159
272159
272159
272159
272159
272159
272158
272158
272158
272158
272158
272158
272158
272158
272158
272158
272158
272158
272158
272158
272158
272158
272158
272158
272158
272158
272157
272157
272157
272157
272156
272156
272156
272155
272155
272154
272154
272153
272152
272152
272151
272150
272149
272148
272148
272062
272062
272062
272062
272062
272062
272061
272061
272061
272061
272061
272061
272061
272061
272060
272060
272060
272060
272060
272060
272060
272060
272060
272060
272060
272060
272060
272060
272060
272060
272060
272060
272060
272059
272059
272059
272058
272058
272058
272057
272057
272056
272055
272055
272054
272053
272052
272052
272051
272050
283110
283120
283120
283127
283127
283130
283130
283130
283130
283129
283128
283128
283128
283128
283128
283130
283131
283134
283135
283141
283012
283021
283020
283026
283025
283028
283026
283026
283024
283023
283021
283020
283018
283018
283017
283017
283018
283020
283020
283025
282914
282922
282920
282925
282924
282925
282923
282922
282919
282917
282914
282912
282909
282908
282906
282905
282905
282906
282905
282910
282816
282824
282821
282825
282823
282823
282820
282818
282814
282811
282807
282804
282800
282798
282795
282794
282792
282793
282791
282795
282719
282725
282722
282725
282722
282721
282717
282714
282709
282705
282700
282696
282692
282688
282685
282682
282680
282680
282677
282680
282622
282627
282623
282625
282621
282619
282614
282610
282605
282599
282594
282589
282584
282579
282574
282571
282567
282567
282563
282565
282525
282530
282524
282525
282520
282518
282512
282507
282500
282494
282488
282481
282475
282470
282464
282460
282455
282454
282449
282450
282428
282432
282426
282426
282420
282416
282409
282404
282396
282389
282381
282374
282367
282361
282354
282349
282344
282341
282335
282335
282332
282335
282327
282327
282319
282315
282307
282301
282292
282284
282276
282268
282260
282252
282245
282238
282232
282228
282221
282220
282236
282237
282229
282228
282220
282214
282206
282198
282188
282179
282170
282161
282152
282143
282135
282128
282120
282115
282107
282106
282140
282141
282132
282129
282120
282114
282104
282095
282085
282075
282064
282054
282044
282035
282025
282017
282008
282003
281994
281991
282044
282044
282034
282031
282021
282014
282003
281993
281981
281970
281959
281948
281937
281927
281916
281907
281897
281891
281881
281877
281949
281948
281937
281932
281922
281913
281902
281891
281878
281866
281854
281842
281830
281818
281807
281797
281786
281779
281768
281763
281854
281852
281840
281834
281823
281813
281801
281789
281775
281762
281749
281736
281723
281711
281698
281687
281676
281667
281655
281650
281759
281756
281743
281736
281724
281714
281700
281687
281673
281659
281644
281630
281616
281603
281590
281578
281565
281556
281543
281537
281663
281659
281646
281639
281625
281614
281600
281586
281571
281555
281540
281525
281510
281496
281482
281469
281456
281446
281432
281425
281568
281563
281549
281541
281527
281515
281500
281485
281469
281452
281436
281420
281404
281389
281374
281361
281346
281335
281321
281313
281473
281468
281453
281443
281429
281416
281400
281384
281367
281350
281333
281316
281299
281283
281267
281253
281238
281226
281210
281201
281379
281372
281356
281347
281331
281318
281301
281284
281266
281248
281230
281212
281194
281177
281161
281146
281129
281117
281100
281090
281285
281278
281261
281250
281234
281220
281202
281185
281166
281147
281128
281109
281090
281073
281055
281039
281022
281008
280991
280980
281192
281183
281166
281155
281137
281122
281104
281086
281066
281047
281027
281007
280987
280969
280950
280933
280914
280900
280881
280870
281099
281090
281072
281059
281041
281026
281006
280987
280967
280947
280926
280906
280885
280865
280845
280827
280808
280792
280772
280760
281007
280997
280978
280964
280946
280929
280909
280889
280869
280848
280826
280805
280783
280762
280741
280722
280701
280684
280664
280650
280915
280904
280884
280870
280850
280833
280812
280792
280770
280749
280726
280704
280681
280659
280637
280616
280595
280577
280556
280541
280824
280812
280791
280776
280755
280737
280715
280694
280672
280649
280626
280603
280579
280556
280533
280511
280489
280470
280448
280432
280733
280720
280698
280682
280660
280641
280619
280597
280573
280550
280526
280502
280477
280453
280429
280407
280383
280364
280340
280324
280642
280628
280605
280588
280566
280546
280522
280499
280475
280451
280426
280401
280376
280351
280326
280303
280278
280258
280233
280216
280552
280537
280513
280495
280472
280451
280426
280403
280377
280352
280326
280300
280274
280249
280223
280199
280173
280152
280127
280109
280462
280446
280422
280403
280378
280356
280331
280306
280280
280253
280227
280200
280173
280147
280120
280095
280069
280047
280021
280003
280373
280356
280330
280310
280285
280262
280236
280209
280182
280155
280128
280100
280072
280045
280018
279992
279966
279943
279916
279896
280284
280266
280240
280219
280192
280168
280141
280113
280085
280057
280029
280000
279971
279944
279916
279890
279862
279839
279811
279791
280196
280177
280149
280127
280100
280074
280046
280018
279989
279959
279930
279900
279871
279843
279814
279788
279759
279735
279707
279685
280108
280088
280059
280036
280008
279981
279952
279923
279893
279862
279832
279801
279771
279742
279713
279686
279657
279632
279603
279580
280020
279999
279970
279946
279916
279889
279858
279828
279797
279766
279735
279703
279672
279642
279612
279584
279555
279529
279499
279475
279933
279911
279881
279856
279825
279797
279765
279734
279703
279670
279638
279606
279574
279543
279512
279483
279453
279426
279395
279371
279846
279823
279792
279766
279735
279705
279673
279641
279609
279576
279542
279509
279476
279445
279413
279383
279351
279324
279292
279266
279760
279736
279704
279677
279645
279614
279581
279549
279515
279481
279447
279413
279379
279347
279314
279283
279250
279222
279189
279163
279674
279649
279616
279588
279555
279524
279490
279457
279422
279388
279352
279317
279283
279249
279215
279183
279150
279120
279086
279059
279588
279562
279528
279499
279466
279433
279399
279365
279330
279294
279258
279222
279186
279152
279116
279084
279049
279019
278984
278956
279503
279476
279442
279411
279377
279344
279309
279274
279238
279201
279164
279127
279090
279054
279018
278985
278949
278918
278882
278853
279419
279391
279355
279324
279289
279255
279219
279183
279146
279108
279070
279032
278994
278958
278921
278886
278850
278817
278781
278751
279335
279306
279269
279237
279201
279166
279129
279092
279054
279015
278977
278938
278899
278861
278823
278788
278750
278717
278679
278648
279252
279222
279184
279151
279114
279078
279040
279002
278963
278923
278883
278844
278804
278765
278727
278690
278651
278617
278578
278547
279169
279138
279099
279065
279027
278990
278951
278912
278872
278831
278791
278750
278710
278670
278630
278593
278553
278518
278478
278445
279087
279055
279015
278980
278941
278902
278862
278822
278781
278740
278699
278657
278616
278575
278535
278496
278455
278419
278379
278345
279005
278972
278931
278895
278855
278815
278774
278733
278691
278649
278607
278565
278523
278481
278440
278400
278359
278322
278280
278246
278923
278889
278848
278810
278769
278729
278687
278645
278602
278559
278516
278473
278430
278388
278345
278305
278263
278225
278183
278148
278843
278807
278765
278726
278684
278643
278600
278557
278513
278470
278426
278382
278338
278295
278252
278211
278167
278129
278086
278050
278763
278726
278683
278643
278600
278558
278514
278470
278425
278381
278336
278291
278246
278203
278159
278117
278073
278034
277990
277953
278684
278646
278602
278561
278517
278473
278429
278384
278338
278292
278247
278201
278155
278111
278066
278024
277979
277939
277895
277857
278606
278567
278522
278480
278435
278390
278344
278298
278251
278205
278158
278112
278065
278020
277975
277931
277886
277845
277800
277761
278529
278489
278443
278400
278353
278307
278260
278213
278166
278118
278071
278023
277976
277930
277884
277840
277794
277752
277706
277666
278453
278412
278365
278320
278273
278225
278177
278129
278081
278032
277984
277936
277888
277841
277794
277749
277703
277660
277613
277572
278378
278336
278288
278242
278193
278144
278095
278046
277997
277947
277898
277849
277800
277753
277705
277660
277612
277569
277521
277480
278304
278261
278212
278164
278114
278065
278014
277964
277914
277864
277814
277764
277714
277666
277617
277571
277523
277479
277430
277388
278231
278187
278136
278088
278037
277986
277935
277883
277832
277781
277730
277680
277629
277580
277531
277484
277435
277390
277340
277297
278159
278114
278062
278012
277960
277908
277856
277804
277751
277700
277648
277596
277545
277495
277445
277397
277347
277302
277251
277207
278089
278041
277989
277938
277885
277832
277778
277725
277672
277619
277566
277514
277462
277411
277361
277312
277261
277215
277164
277118
278019
277971
277917
277865
277811
277756
277702
277648
277593
277540
277486
277433
277381
277329
277277
277228
277177
277129
277077
277031
277951
277901
277847
277793
277738
277682
277627
277571
277516
277461
277407
277353
277300
277248
277195
277145
277093
277045
276992
276945
277884
277833
277777
277722
277666
277609
277553
277496
277440
277384
277329
277275
277221
277167
277115
277063
277011
276962
276908
276860
277818
277766
277709
277653
277595
277538
277480
277422
277365
277308
277253
277197
277143
277089
277035
276983
276930
276880
276826
276777
277754
277700
277642
277585
277526
277467
277408
277349
277291
277234
277177
277121
277066
277011
276957
276904
276850
276800
276745
276695
277690
277635
277576
277518
277458
277397
277337
277277
277218
277160
277103
277046
276990
276935
276880
276827
276772
276721
276665
276615
277628
277571
277512
277452
277391
277329
277268
277207
277147
277088
277030
276972
276916
276860
276804
276750
276695
276643
276587
276535
277566
277509
277448
277387
277324
277262
277200
277138
277077
277017
276958
276900
276842
276786
276730
276675
276620
276567
276510
276457
277505
277447
277385
277323
277260
277196
277133
277070
277008
276947
276887
276828
276770
276713
276657
276601
276546
276492
276435
276381
277445
277385
277323
277260
277196
277131
277067
277003
276940
276878
276818
276758
276699
276642
276585
276529
276472
276418
276360
276305
277385
277325
277261
277197
277133
277067
277002
276937
276874
276811
276749
276689
276630
276571
276514
276457
276400
276345
276286
276230
277326
277264
277200
277136
277070
277004
276938
276873
276808
276745
276682
276621
276561
276502
276444
276387
276329
276273
276214
276157
277267
277204
277140
277075
277009
276942
276875
276809
276744
276679
276616
276554
276494
276434
276375
276317
276259
276202
276142
276084
277208
277144
277079
277014
276947
276880
276813
276746
276680
276615
276551
276489
276427
276367
276307
276248
276190
276131
276071
276011
277148
277084
277019
276953
276886
276818
276751
276683
276617
276551
276487
276423
276361
276300
276240
276180
276120
276061
276000
275939
277088
277024
276958
276891
276824
276757
276689
276621
276554
276488
276423
276359
276296
276234
276173
276112
276052
275991
275929
275867
277028
276962
276896
276830
276762
276694
276626
276558
276491
276424
276359
276294
276230
276168
276106
276044
275983
275921
275858
275795
276967
276901
276834
276767
276700
276632
276564
276495
276428
276361
276295
276229
276165
276101
276038
275976
275913
275851
275786
275722
276905
276838
276771
276704
276636
276568
276500
276432
276364
276296
276230
276164
276099
276035
275971
275907
275843
275779
275714
275648
276843
276775
276708
276640
276572
276504
276436
276367
276299
276231
276164
276098
276032
275967
275902
275837
275772
275707
275641
275574
276780
276712
276644
276576
276508
276439
276370
276301
276233
276165
276097
276031
275964
275898
275832
275766
275700
275634
275567
275499
276717
276649
276580
276512
276443
276374
276304
276235
276166
276097
276029
275962
275895
275829
275762
275695
275628
275560
275492
275423
276655
276585
276516
276447
276377
276308
276238
276168
276099
276029
275961
275893
275825
275758
275691
275623
275554
275485
275416
275346
276592
276522
276452
276382
276312
276242
276172
276101
276031
275961
275892
275823
275755
275687
275619
275550
275480
275409
275339
275269
276530
276459
276388
276317
276247
276176
276105
276034
275964
275893
275823
275753
275683
275614
275545
275475
275404
275333
275262
275191
276467
276396
276324
276253
276181
276110
276038
275967
275896
275825
275754
275684
275613
275542
275471
275399
275328
275256
275185
275114
276405
276333
276261
276189
276116
276044
275972
275900
275828
275757
275685
275614
275542
275470
275398
275325
275253
275181
275109
275037
276344
276271
276198
276125
276052
275979
275906
275833
275761
275688
275616
275543
275471
275398
275326
275253
275180
275107
275034
274961
276282
276209
276135
276061
275988
275914
275841
275767
275694
275620
275547
275474
275400
275327
275254
275180
275106
275033
274959
274885
276221
276147
276073
275998
275924
275850
275775
275701
275627
275553
275479
275405
275331
275256
275182
275108
275034
274960
274885
274811
276161
276086
276011
275936
275861
275786
275711
275636
275561
275486
275411
275336
275261
275187
275112
275037
274962
274887
274812
274737
276101
276025
275950
275874
275798
275723
275647
275571
275496
275420
275344
275269
275193
275118
275042
274967
274891
274816
274740
274665
276041
275965
275889
275813
275736
275660
275584
275507
275431
275355
275278
275202
275126
275050
274973
274897
274821
274745
274669
274593
275982
275905
275829
275752
275675
275598
275521
275444
275367
275290
275213
275136
275059
274982
274905
274829
274752
274675
274599
274522
275924
275846
275769
275692
275614
275537
275459
275381
275304
275226
275148
275071
274993
274916
274838
274761
274684
274606
274529
274452
275866
275788
275710
275632
275554
275476
275398
275319
275241
275163
275085
275007
274928
274850
274772
274694
274617
274539
274461
274383
275809
275730
275652
275573
275495
275416
275337
275258
275180
275101
275022
274943
274865
274786
274707
274629
274550
274472
274393
274315
275753
275674
275594
275515
275436
275357
275277
275198
275119
275039
274960
274881
274802
274722
274643
274564
274485
274406
274327
274248
275697
275617
275538
275458
275378
275298
275219
275139
275059
274979
274899
274819
274739
274660
274580
274500
274420
274341
274261
274182
275642
275562
275482
275402
275321
275241
275161
275080
275000
274919
274839
274758
274678
274598
274517
274437
274357
274277
274196
274116
275588
275507
275427
275346
275265
275184
275103
275022
274941
274860
274779
274698
274617
274537
274456
274375
274294
274213
274133
274052
275535
275454
275372
275291
275210
275128
275047
274965
274884
274802
274721
274639
274558
274476
274395
274314
274232
274151
274070
273989
275482
275401
275319
275237
275155
275073
274991
274909
274827
274745
274663
274581
274499
274417
274335
274253
274172
274090
274008
273926
275430
275348
275266
275183
275101
275019
274936
274853
274771
274688
274606
274524
274441
274359
274276
274194
274112
274029
273947
273865
275380
275297
275214
275131
275048
274965
274882
274799
274716
274633
274550
274467
274384
274301
274218
274136
274053
273970
273887
273804
275329
275246
275163
275079
274996
274912
274829
274745
274662
274578
274495
274412
274328
274245
274161
274078
273995
273911
273828
273745
275280
275196
275112
275028
274945
274861
274777
274693
274609
274525
274441
274357
274273
274189
274105
274022
273938
273854
273770
273686
275232
275147
275063
274979
274894
274810
274725
274641
274556
274472
274388
274303
274219
274135
274050
273966
273882
273797
273713
273629
275184
275099
275015
274930
274845
274760
274675
274590
274505
274420
274336
274251
274166
274081