/*--------------------------------*- C++ -*----------------------------------*\
  =========                 |
  \\      /  F ield         | OpenFOAM: The Open Source CFD Toolbox
   \\    /   O peration     | Website:  https://openfoam.org
    \\  /    A nd           | Version:  8
     \\/     M anipulation  |
\*---------------------------------------------------------------------------*/
FoamFile
{
    version     2.0;
    format      ascii;
    class       volScalarField;
    location    "400";
    object      p_rgh;
}
// * * * * * * * * * * * * * * * * * * * * * * * * * * * * * * * * * * * * * //

dimensions      [1 -1 -2 0 0 0 0];

internalField   nonuniform List<scalar> 
8400
(
34.5574
-2740.93
-6073.45
-8451.17
-8608.31
-5764.59
294.093
9278.24
20668.5
33829.2
47910
61952.7
75200.1
87371.1
98544.3
109032
119217
129373
139161
147814
154800
159747
162435
163017
162165
160841
159208
156771
153695
151497
151477
153983
158365
163635
169082
174325
179139
183373
187212
191058
194988
199088
203418
207900
212462
217024
221480
225804
230042
234264
912.269
-3406.35
-8055.23
-11481.1
-12298
-9554.99
-3025.42
6835.72
19055.6
32830.3
47285.6
61465.9
74637.3
86589.5
97542.1
107891
118037
128175
138033
146907
154216
159471
162415
163205
162542
161510
159943
157221
153588
151092
151343
154533
159624
165315
170860
175972
180504
184230
187495
191089
194899
199002
203426
207904
212413
216922
221253
225433
229533
233707
99.9618
-3425.46
-7528.27
-10633.1
-10997.1
-7721.79
-798.606
9122.56
21049.2
34473.2
48689.5
62500.7
75115.7
86575.8
97285
107576
117672
127602
137008
145395
152265
157160
159920
160911
160671
159886
158160
154778
151197
149656
151294
155576
161172
167097
172885
178171
182561
185838
188517
191424
194745
198605
202956
207476
212078
216549
220665
224656
228580
232901
-9826.56
-10491.1
-10856
-11539.8
-10269.7
-5985.92
1353.87
11165
22679.6
35311.4
48380.7
60915.7
72322.2
82643.2
92242.6
101470
110461
119146
127220
134305
140137
144518
147547
149407
150369
150709
150227
148863
147707
148083
150496
154514
159505
165245
171428
177356
182333
185986
189089
192119
195620
199737
204118
208790
213432
217338
220664
223985
227675
232139
-26517.9
-15750.1
-4847.11
1360.49
6574.08
12775.5
20353.5
29098
38583
48354.4
57961.3
66953
75096.8
82428.6
89143.4
95393.4
101179
106412
111017
115051
118729
122282
125776
129184
132401
135270
137606
139382
141071
143227
146064
149685
154364
160474
167762
175328
182134
187589
192023
195851
199549
203401
207326
211371
215368
218624
221650
224938
228984
233619
-8239.5
-428.54
10864.5
18623
24276.2
29794.6
35771.2
42114.2
48567.1
54873.9
60828.5
66271.9
71126.1
75421.8
79245.2
82680.4
85784.2
88629.6
91370.7
94226.6
97379.5
100926
104879
109145
113592
118028
122252
126169
129843
133473
137375
141989
147729
154726
162606
170610
178017
184492
190173
195339
200248
205022
209651
214106
218250
221878
225257
228687
232471
236480
-5046.3
5255.05
16668
24889.2
30864.3
36212
41455.2
46544.5
51354.7
55811.2
59869.9
63504.5
66711.3
69529.1
72030.7
74313
76480.7
78654.5
80990.9
83645.8
86683.5
90120.4
93950.2
98129.3
102595
107244
111987
116743
121526
126473
131798
137730
144408
151750
159441
167060
174282
181013
187349
193436
199373
205168
210752
216028
220881
225237
229201
232954
236646
240254
695.199
13372.1
25118.8
33547.2
39571.3
44542.7
48986.2
52937.6
56406.7
59454
62144.3
64499
66517.8
68222.7
69669.9
70942.9
72119.7
73317.3
74736.3
76554.7
78849.5
81627.1
84926
88759.9
93105.4
97915.9
103114
108626
114393
120413
126733
133385
140359
147574
154889
162164
169317
176353
183328
190293
197246
204110
210740
216979
222698
227836
232430
236577
240367
243838
4068.92
19068.6
30933.1
39232
45128.9
49639.7
53269
56235.4
58689.6
60794.1
62660.3
64281.8
65591.1
66570.3
67253
67732.2
68052.6
68330.8
68921.4
70074.1
71854.5
74282.2
77371.4
81142.9
85569.2
90604.1
96184
102219
108603
115241
122065
129037
136132
143323
150574
157863
165192
172596
180119
187771
195497
203164
210590
217589
224013
229785
234900
239407
243368
246843
7337.71
23802.6
35560.6
43703
49506
53644.1
56551.5
58672.1
60348.3
61828.5
63258.8
64557.4
65531.8
66153.8
66464.4
66558
66418
66115.7
66148.4
66838
68224.3
70332.7
73229.4
76931.2
81364.2
86479.6
92242.5
98579.8
105302
112240
119294
126417
133593
140820
148108
155479
162974
170643
178520
186589
194764
202890
210773
218224
225088
231273
236746
241524
245647
249175
9653.84
26687.1
38177.7
46272.2
52019.6
55899.5
58326.3
59871.4
61060.6
62194.8
63465.8
64713.9
65573.9
66063.8
66411.7
66596.9
66481.7
66162.3
66090
66667.3
67975.6
69966
72707
76242.6
80491
85440.5
91098.7
97379.3
104080
111012
118073
125217
132427
139704
147069
154556
162219
170103
178220
186528
194922
203246
211324
218976
226053
232453
238126
243064
247295
250874
10369.1
26744.4
38216.9
46625.2
52460
56186.1
58419.1
59810.6
60852.1
61804.8
62939.1
64200.1
65142.1
65675.9
66106.3
66487.9
66653.2
66666.3
66715.4
67290.6
68675.6
70744.4
73400.6
76751.7
80920.6
85875
91516.1
97698
104264
111080
118057
125144
132320
139591
146985
154550
162336
170376
178661
187117
195621
204021
212151
219848
226979
233447
239191
244193
248471
252071
9643.54
24412.4
35425.2
43701.5
49529.1
53496.2
56237.2
58268.3
59932.4
61386.5
62746.5
64033.2
65089.7
65863.3
66465
66982.6
67384.3
67726.2
68155.4
68952.5
70305.2
72260.4
74844.9
78123.4
82177.2
87001
92499.3
98541.6
104996
111742
118688
125776
132978
140297
147760
155411
163289
171408
179744
188224
196731
205124
213236
220901
227987
234404
240107
245076
249331
252910
7603.6
19993.2
30483
38848.5
45254.5
50107
53802
56657.3
58918.4
60767.7
62326.3
63650.4
64745.3
65637.9
66387.9
67041.3
67622.3
68196.1
68900.9
69912
71355.1
73310.9
75854.8
79084.6
83068.5
87792.7
93193.3
99163.7
105581
112330
119317
126482
133794
141247
148859
156660
164671
172888
181273
189748
198210
206529
214550
222121
229114
235440
241051
245930
250094
253592
6731.92
17549.5
27450.8
35792.5
42567.9
47950.1
52174.2
55478.5
58083
60178.8
61907.3
63355.3
64580.7
65645.1
66607.7
67501.1
68355.5
69234.5
70233
71460.2
73012.7
74981.2
77477.1
80609.9
84442.7
88987.5
94210.3
100036
106361
113080
120096
127340
134772
142374
150147
158104
166249
174566
183005
191485
199900
208127
216030
223473
230342
236548
242039
246797
250839
254234
6687.66
16637.4
25907.3
33935.2
40669.8
46180.3
50619
54174.5
57036
59371.5
61318.9
62976.1
64417
65708.3
66909.6
68069.1
69226.9
70434.6
71763.4
73289.5
75087.9
77241.4
79849.4
83006.5
86777.4
91191.8
96241.6
101883
108044
114637
121580
128806
136266
143932
151792
159837
168057
176420
184870
193323
201670
209792
217562
224860
231581
237644
242996
247617
251526
254819
6680.51
15974.3
24725.8
32425.9
39026.8
44558.8
49125.8
52868.2
55938.4
58479
60614.7
62448.5
64064.3
65534.2
66922
68282.6
69665.6
71125.8
72725.4
74530.1
76606.6
79025.4
81861.6
85187.1
89055.3
93493.8
98503.8
104060
110113
116599
123455
130624
138062
145736
153622
161700
169942
178304
186724
195117
203377
211388
219030
226189
232767
238688
243900
248382
252162
255349
6746.61
15492.3
23839.9
31275.6
37753.7
43282
47931.2
51806.5
55031.6
57729.7
60013.7
61984.2
63727.7
65320.2
66828.4
68312.4
69829.3
71437
73197.5
75176.3
77438.8
80052.1
83081.2
86582.4
90596.1
95141.4
100215
105794
111837
118296
125121
132265
139691
147368
155267
163358
171603
179951
188335
196668
204847
212761
220293
227336
233793
239592
244682
249047
252720
255811
6834.16
15184.1
23229.5
30463
36836.9
42347.9
47045.6
51014.4
54356.2
57179.1
59586.3
61671.9
63521.3
65210.4
66806.1
68371.4
69966
71649.3
73484.5
75538.1
77877.7
80572.9
83687.9
87275.1
91370.5
95988.8
101122
106744
112817
119295
126133
133292
140737
148438
156364
164481
172745
181101
189477
197785
205923
213781
221247
228217
234596
240314
245324
249614
253214
256215
6984.96
15164.2
23043.2
30154.2
36454.5
41939
46649.4
50659.2
54060.4
56951.7
59429.1
61582.5
63494.8
65241.2
66888.9
68500.4
70135.7
71855.3
73721.9
75801.9
78164.5
80880.8
84016.6
87625.7
91745.1
96389.3
101550
107200
113303
119811
126680
133872
141353
149092
157057
165211
173508
181889
190279
198591
206720
214559
221995
228925
235256
240918
245869
250095
253615
256503
266634
266634
266634
266634
266634
266634
266633
266633
266633
266633
266633
266633
266633
266633
266633
266633
266633
266633
266633
266633
266633
266633
266633
266633
266633
266633
266633
266633
266633
266633
266633
266633
266633
266633
266633
266633
266633
266632
266632
266632
266632
266632
266632
266632
266632
266632
266631
266631
266631
266631
266633
266634
266634
266634
266634
266633
266633
266633
266633
266633
266633
266633
266633
266633
266633
266633
266633
266633
266633
266633
266633
266633
266633
266633
266633
266633
266633
266633
266633
266633
266633
266633
266632
266632
266632
266632
266632
266632
266632
266632
266632
266632
266632
266632
266632
266631
266631
266631
266631
266631
266634
266634
266634
266634
266634
266634
266633
266633
266633
266633
266633
266633
266633
266633
266633
266633
266633
266633
266633
266633
266633
266633
266633
266633
266633
266633
266633
266633
266633
266633
266633
266632
266632
266632
266632
266632
266632
266632
266632
266632
266632
266632
266632
266632
266632
266631
266631
266631
266631
266631
266634
266634
266634
266634
266634
266633
266633
266633
266633
266633
266633
266633
266633
266633
266633
266633
266633
266633
266633
266633
266633
266633
266633
266633
266633
266633
266633
266633
266633
266633
266633
266632
266632
266632
266632
266632
266632
266632
266632
266632
266632
266632
266632
266632
266631
266631
266631
266631
266631
266631
266634
266634
266634
266634
266634
266633
266633
266633
266633
266633
266633
266633
266633
266633
266633
266633
266633
266633
266633
266633
266633
266633
266633
266633
266633
266633
266633
266633
266633
266633
266633
266633
266632
266632
266632
266632
266632
266632
266632
266632
266632
266632
266632
266632
266631
266631
266631
266631
266631
266631
266634
266634
266634
266634
266634
266633
266633
266633
266633
266633
266633
266633
266633
266633
266633
266633
266633
266633
266633
266633
266633
266633
266633
266633
266633
266633
266633
266633
266633
266633
266633
266633
266632
266632
266632
266632
266632
266632
266632
266632
266632
266632
266632
266632
266631
266631
266631
266631
266631
266631
266634
266634
266634
266634
266634
266633
266633
266633
266633
266633
266633
266633
266633
266633
266633
266633
266633
266633
266633
266633
266633
266633
266633
266633
266633
266633
266633
266633
266633
266633
266633
266633
266633
266632
266632
266632
266632
266632
266632
266632
266632
266632
266632
266632
266631
266631
266631
266631
266631
266631
266634
266634
266634
266634
266634
266633
266633
266633
266633
266633
266633
266633
266633
266633
266633
266633
266633
266633
266633
266633
266633
266633
266633
266633
266633
266633
266633
266633
266633
266633
266633
266633
266633
266632
266632
266632
266632
266632
266632
266632
266632
266632
266632
266632
266631
266631
266631
266631
266631
266631
266634
266634
266634
266634
266634
266633
266633
266633
266633
266633
266633
266633
266633
266633
266633
266633
266633
266633
266633
266633
266633
266633
266633
266633
266633
266633
266633
266633
266633
266633
266633
266633
266633
266632
266632
266632
266632
266632
266632
266632
266632
266632
266632
266632
266631
266631
266631
266631
266631
266631
266634
266634
266634
266634
266634
266633
266633
266633
266633
266633
266633
266633
266633
266633
266633
266633
266633
266633
266633
266633
266633
266633
266633
266633
266633
266633
266633
266633
266633
266633
266633
266633
266633
266633
266632
266632
266632
266632
266632
266632
266632
266632
266632
266632
266631
266631
266631
266631
266631
266631
266634
266634
266634
266634
266634
266633
266633
266633
266633
266633
266633
266633
266633
266633
266633
266633
266633
266633
266633
266633
266633
266633
266633
266633
266633
266633
266633
266633
266633
266633
266633
266633
266633
266633
266632
266632
266632
266632
266632
266632
266632
266632
266632
266632
266631
266631
266631
266631
266631
266631
266634
266634
266634
266634
266634
266633
266633
266633
266633
266633
266633
266633
266633
266633
266633
266633
266633
266633
266633
266633
266633
266633
266633
266633
266633
266633
266633
266633
266633
266633
266633
266633
266633
266633
266632
266632
266632
266632
266632
266632
266632
266632
266632
266632
266631
266631
266631
266631
266631
266631
266634
266634
266634
266634
266633
266633
266633
266633
266633
266633
266633
266633
266633
266633
266633
266633
266633
266633
266633
266633
266633
266633
266633
266633
266633
266633
266633
266633
266633
266633
266633
266633
266633
266633
266632
266632
266632
266632
266632
266632
266632
266632
266632
266632
266631
266631
266631
266631
266631
266631
266634
266634
266634
266634
266633
266633
266633
266633
266633
266633
266633
266633
266633
266633
266633
266633
266633
266633
266633
266633
266633
266633
266633
266633
266633
266633
266633
266633
266633
266633
266633
266633
266633
266633
266632
266632
266632
266632
266632
266632
266632
266632
266632
266632
266631
266631
266631
266631
266631
266631
266634
266634
266634
266634
266633
266633
266633
266633
266633
266633
266633
266633
266633
266633
266633
266633
266633
266633
266633
266633
266633
266633
266633
266633
266633
266633
266633
266633
266633
266633
266633
266633
266633
266633
266632
266632
266632
266632
266632
266632
266632
266632
266632
266632
266631
266631
266631
266631
266631
266631
266634
266634
266634
266634
266633
266633
266633
266633
266633
266633
266633
266633
266633
266633
266633
266633
266633
266633
266633
266633
266633
266633
266633
266633
266633
266633
266633
266633
266633
266633
266633
266633
266633
266633
266633
266632
266632
266632
266632
266632
266632
266632
266632
266632
266631
266631
266631
266631
266631
266631
266634
266634
266634
266634
266633
266633
266633
266633
266633
266633
266633
266633
266633
266633
266633
266633
266633
266633
266633
266633
266633
266633
266633
266633
266633
266633
266633
266633
266633
266633
266633
266633
266633
266633
266633
266632
266632
266632
266632
266632
266632
266632
266632
266632
266631
266631
266631
266631
266631
266631
266634
266634
266634
266634
266634
266633
266633
266633
266633
266633
266633
266633
266633
266633
266633
266633
266633
266633
266633
266633
266633
266633
266633
266633
266633
266633
266633
266633
266633
266633
266633
266633
266633
266633
266633
266632
266632
266632
266632
266632
266632
266632
266632
266632
266631
266631
266631
266631
266631
266631
266633
266633
266633
266633
266633
266633
266633
266633
266633
266633
266633
266633
266633
266633
266633
266633
266633
266633
266633
266633
266633
266633
266633
266633
266633
266633
266633
266633
266633
266633
266633
266633
266633
266633
266633
266632
266632
266632
266632
266632
266632
266632
266632
266632
266632
266631
266631
266631
266631
266631
266634
266634
266634
266634
266634
266634
266634
266634
266634
266634
266633
266633
266633
266633
266633
266633
266633
266633
266633
266633
266633
266633
266633
266633
266633
266633
266633
266633
266633
266633
266633
266633
266633
266633
266633
266633
266633
266633
266633
266632
266632
266632
266632
266632
266632
266632
266632
266631
266631
266631
266327
266337
266338
266345
266346
266350
266350
266351
266351
266351
266351
266351
266352
266353
266354
266356
266357
266361
266362
266368
266323
266334
266335
266342
266343
266347
266347
266349
266348
266348
266348
266348
266349
266350
266351
266353
266354
266358
266360
266366
266320
266331
266332
266340
266340
266344
266345
266346
266346
266346
266346
266346
266346
266347
266348
266350
266352
266356
266357
266364
266317
266328
266329
266337
266338
266342
266342
266343
266343
266343
266343
266343
266344
266344
266345
266348
266349
266353
266355
266361
266314
266326
266327
266334
266335
266339
266340
266341
266341
266341
266341
266341
266341
266342
266343
266345
266347
266351
266352
266359
266312
266323
266324
266332
266333
266337
266337
266339
266339
266339
266339
266339
266339
266340
266341
266343
266344
266349
266350
266357
266309
266321
266322
266330
266331
266335
266335
266337
266337
266337
266337
266337
266337
266338
266339
266341
266342
266347
266348
266355
266307
266319
266320
266328
266329
266333
266334
266335
266335
266335
266335
266335
266336
266336
266337
266339
266341
266345
266346
266353
266305
266317
266318
266326
266327
266331
266332
266334
266334
266334
266334
266334
266334
266335
266335
266338
266339
266343
266344
266352
266303
266315
266316
266324
266326
266330
266330
266332
266332
266332
266332
266332
266332
266333
266334
266336
266337
266342
266343
266350
266301
266313
266315
266323
266324
266328
266329
266331
266331
266331
266331
266331
266331
266332
266333
266335
266336
266340
266341
266349
266299
266311
266313
266321
266323
266327
266328
266329
266330
266330
266330
266330
266330
266330
266331
266333
266335
266339
266340
266347
266298
266310
266312
266320
266322
266326
266327
266328
266328
266329
266328
266328
266329
266329
266330
266332
266333
266338
266339
266346
266296
266309
266311
266319
266321
266325
266326
266327
266327
266328
266327
266327
266328
266328
266329
266331
266332
266337
266338
266345
266295
266307
266310
266318
266320
266324
266325
266326
266326
266327
266326
266326
266327
266327
266328
266330
266331
266336
266337
266344
266294
266306
266309
266317
266319
266323
266324
266326
266326
266326
266326
266326
266326
266326
266327
266329
266331
266335
266336
266343
266292
266305
266308
266316
266318
266322
266323
266325
266325
266325
266325
266325
266325
266326
266326
266329
266330
266334
266335
266343
266291
266304
266307
266315
266317
266322
266323
266324
266324
266324
266324
266324
266324
266325
266326
266328
266329
266334
266335
266342
266290
266304
266306
266315
266317
266321
266322
266324
266324
266324
266324
266324
266324
266325
266325
266328
266329
266334
266335
266342
266290
266303
266306
266314
266317
266321
266322
266323
266323
266324
266323
266323
266324
266324
266325
266328
266329
266334
266335
266342
266290
266303
266306
266314
266317
266321
266322
266323
266324
266324
266323
266324
266324
266325
266326
266328
266329
266334
266335
266342
266290
266303
266306
266315
266317
266321
266322
266324
266324
266324
266324
266324
266324
266325
266326
266329
266330
266335
266335
266343
266290
266303
266307
266315
266317
266321
266323
266324
266325
266325
266325
266325
266325
266326
266327
266329
266330
266335
266336
266343
266290
266304
266307
266315
266318
266322
266323
266325
266326
266326
266326
266326
266326
266327
266328
266330
266331
266336
266336
266344
266291
266304
266307
266316
266318
266323
266324
266326
266327
266327
266327
266327
266327
266328
266329
266331
266332
266336
266337
266344
266291
266305
266308
266317
266319
266323
266325
266327
266328
266328
266328
266328
266328
266329
266330
266332
266333
266337
266338
266345
266292
266305
266309
266317
266320
266324
266326
266328
266329
266329
266329
266330
266329
266330
266331
266333
266334
266338
266339
266346
266292
266306
266310
266318
266321
266325
266327
266329
266330
266330
266331
266331
266331
266331
266332
266334
266335
266339
266340
266347
266293
266307
266311
266319
266322
266326
266328
266330
266331
266331
266332
266332
266332
266332
266333
266335
266336
266341
266341
266349
266295
266308
266312
266321
266323
266327
266329
266331
266332
266332
266332
266333
266333
266333
266334
266336
266337
266342
266342
266350
266296
266310
266314
266322
266325
266329
266330
266332
266333
266333
266333
266333
266334
266335
266335
266338
266339
266343
266344
266351
266297
266311
266315
266323
266326
266330
266331
266333
266334
266334
266334
266334
266335
266336
266336
266339
266340
266345
266345
266353
266298
266312
266316
266325
266327
266331
266333
266334
266335
266335
266335
266335
266336
266337
266338
266340
266341
266346
266347
266354
266300
266314
266318
266326
266329
266333
266334
266336
266336
266337
266337
266337
266337
266338
266339
266342
266343
266348
266348
266356
266301
266315
266320
266328
266330
266334
266336
266337
266338
266338
266338
266338
266339
266340
266341
266344
266345
266350
266350
266358
266303
266317
266321
266330
266332
266336
266338
266339
266340
266340
266340
266340
266341
266342
266343
266346
266347
266351
266352
266359
266305
266319
266323
266331
266334
266338
266340
266341
266342
266342
266342
266343
266343
266344
266345
266348
266348
266353
266354
266361
266307
266321
266325
266333
266336
266340
266342
266344
266344
266345
266345
266345
266345
266346
266347
266350
266351
266355
266356
266363
266309
266323
266328
266336
266339
266342
266344
266346
266347
266347
266347
266347
266347
266348
266349
266352
266353
266358
266358
266365
266311
266325
266330
266338
266341
266345
266347
266348
266349
266349
266350
266350
266350
266351
266351
266354
266355
266360
266360
266367
266314
266328
266332
266340
266343
266347
266349
266351
266351
266352
266352
266352
266352
266353
266353
266356
266357
266362
266362
266369
266316
266330
266335
266343
266346
266350
266351
266353
266354
266354
266354
266354
266354
266355
266356
266358
266359
266364
266364
266371
266319
266333
266338
266346
266349
266352
266354
266355
266356
266356
266356
266356
266356
266357
266358
266361
266361
266366
266366
266373
266322
266336
266341
266348
266351
266355
266356
266358
266358
266359
266359
266359
266359
266360
266360
266363
266363
266368
266368
266375
266325
266339
266344
266351
266354
266357
266359
266360
266361
266361
266361
266361
266361
266362
266362
266365
266366
266370
266371
266378
266328
266342
266347
266354
266357
266360
266361
266363
266363
266363
266363
266364
266364
266365
266365
266368
266368
266373
266373
266380
266332
266345
266350
266357
266360
266363
266364
266365
266366
266366
266366
266366
266366
266367
266368
266371
266371
266376
266376
266383
266335
266348
266353
266360
266363
266366
266367
266368
266369
266369
266369
266369
266369
266370
266371
266374
266374
266379
266379
266387
266339
266352
266357
266364
266367
266369
266370
266371
266372
266372
266372
266372
266372
266373
266374
266377
266378
266382
266383
266390
266343
266356
266361
266368
266371
266373
266374
266375
266375
266375
266375
266375
266375
266377
266377
266380
266381
266386
266387
266394
266348
266361
266366
266372
266375
266377
266378
266378
266378
266379
266379
266379
266379
266380
266381
266384
266385
266390
266391
266398
266353
266366
266371
266377
266379
266381
266382
266382
266382
266382
266382
266382
266383
266384
266385
266388
266389
266394
266395
266402
266359
266371
266376
266382
266384
266386
266387
266387
266387
266387
266386
266387
266387
266388
266389
266393
266394
266399
266399
266406
266365
266377
266382
266387
266389
266391
266391
266391
266391
266391
266391
266391
266392
266393
266394
266397
266398
266404
266404
266411
266372
266383
266388
266393
266395
266396
266397
266397
266396
266396
266396
266396
266397
266398
266399
266402
266404
266409
266409
266416
266378
266389
266394
266399
266401
266402
266402
266402
266402
266401
266401
266402
266402
266404
266405
266408
266409
266414
266415
266422
266386
266396
266401
266406
266408
266409
266408
266408
266408
266407
266407
266407
266408
266409
266411
266414
266415
266420
266421
266428
266394
266404
266408
266413
266415
266415
266415
266414
266414
266413
266413
266414
266414
266416
266417
266420
266422
266427
266427
266434
266402
266412
266416
266421
266422
266423
266422
266421
266421
266420
266420
266420
266421
266422
266424
266427
266428
266434
266434
266441
266411
266420
266425
266429
266430
266431
266430
266429
266428
266427
266427
266427
266428
266429
266431
266434
266436
266441
266442
266448
266421
266429
266434
266438
266439
266439
266438
266436
266435
266435
266434
266435
266435
266437
266439
266442
266444
266449
266450
266456
266431
266439
266443
266447
266448
266447
266446
266444
266443
266442
266442
266443
266443
266445
266447
266450
266452
266457
266458
266465
266442
266449
266453
266457
266457
266457
266455
266453
266452
266451
266451
266451
266452
266454
266456
266459
266461
266466
266467
266474
266453
266460
266463
266467
266467
266466
266464
266462
266461
266460
266459
266460
266461
266463
266465
266468
266471
266476
266477
266483
266464
266470
266474
266477
266477
266476
266474
266472
266470
266469
266469
266469
266470
266472
266475
266478
266481
266486
266487
266493
266476
266481
266485
266488
266488
266487
266485
266482
266480
266479
266479
266479
266480
266482
266485
266488
266491
266496
266498
266504
266488
266493
266496
266499
266499
266498
266495
266493
266491
266490
266489
266489
266491
266493
266496
266499
266502
266507
266509
266515
266499
266504
266507
266510
266510
266509
266507
266504
266502
266500
266500
266500
266502
266504
266507
266510
266514
266519
266521
266526
266511
266515
266518
266521
266522
266520
266518
266515
266513
266512
266511
266512
266513
266515
266518
266522
266526
266531
266533
266538
266523
266527
266529
266532
266533
266532
266530
266527
266525
266523
266523
266523
266525
266527
266530
266534
266538
266543
266545
266549
266534
266537
266540
266543
266544
266543
266541
266539
266537
266535
266535
266535
266537
266539
266543
266547
266550
266555
266557
266561
266545
266548
266550
266553
266554
266554
266553
266551
266549
266548
266547
266548
266549
266552
266555
266559
266563
266568
266570
266573
266555
266557
266560
266562
266564
266565
266564
266563
266561
266560
266559
266560
266561
266564
266567
266571
266575
266580
266582
266585
266564
266566
266568
266571
266573
266574
266574
266574
266572
266572
266571
266572
266574
266576
266579
266583
266587
266591
266593
266596
266573
266574
266576
266578
266581
266583
266584
266584
266583
266583
266583
266584
266585
266588
266591
266595
266598
266602
266604
266606
266580
266581
266582
266585
266588
266590
266592
266593
266593
266593
266594
266595
266596
266599
266602
266605
266609
266612
266614
266615
266586
266587
266588
266590
266593
266596
266599
266601
266602
266603
266604
266605
266606
266609
266611
266614
266618
266620
266622
266623
266591
266592
266593
266594
266597
266600
266603
266606
266609
266611
266612
266614
266615
266617
266620
266622
266625
266627
266628
266629
266596
266596
266597
266598
266600
266603
266606
266610
266613
266616
266619
266621
266623
266625
266627
266629
266631
266633
266633
266634
266600
266600
266600
266601
266603
266605
266608
266612
266616
266620
266623
266626
266629
266631
266632
266634
266635
266636
266637
266637
266603
266603
266603
266604
266605
266606
266608
266612
266616
266620
266625
266629
266632
266635
266636
266637
266638
266638
266638
266637
266606
266606
266606
266606
266607
266608
266609
266611
266614
266618
266622
266627
266631
266634
266636
266637
266637
266636
266634
266632
266608
266608
266608
266608
266609
266609
266610
266611
266613
266615
266618
266621
266624
266626
266627
266628
266627
266625
266623
266619
266610
266610
266610
266610
266610
266611
266611
266612
266613
266614
266616
266617
266618
266619
266620
266620
266620
266619
266618
266618
266611
266611
266611
266611
266612
266612
266613
266613
266614
266614
266615
266616
266617
266617
266617
266618
266618
266618
266618
266618
266612
266612
266612
266613
266613
266613
266614
266614
266614
266615
266616
266616
266617
266617
266617
266617
266618
266618
266618
266618
266613
266613
266613
266613
266614
266614
266614
266615
266615
266616
266616
266616
266617
266617
266617
266617
266618
266618
266618
266618
266614
266614
266614
266614
266614
266615
266615
266615
266616
266616
266616
266616
266617
266617
266617
266617
266618
266618
266618
266618
266615
266615
266615
266615
266615
266615
266615
266616
266616
266616
266616
266617
266617
266617
266617
266617
266618
266618
266618
266618
266615
266615
266615
266615
266615
266616
266616
266616
266616
266616
266617
266617
266617
266617
266617
266617
266617
266618
266618
266618
266616
266616
266616
266616
266616
266616
266616
266616
266616
266617
266617
266617
266617
266617
266617
266617
266617
266618
266618
266618
266616
266616
266616
266616
266616
266616
266616
266617
266617
266617
266617
266617
266617
266617
266617
266617
266617
266618
266618
266618
266617
266616
266616
266616
266617
266617
266617
266617
266617
266617
266617
266617
266617
266617
266617
266617
266618
266618
266618
266618
266617
266617
266617
266617
266617
266617
266617
266617
266617
266617
266617
266617
266617
266617
266617
266618
266618
266618
266618
266618
266617
266617
266617
266617
266617
266617
266617
266617
266617
266617
266617
266617
266617
266618
266618
266618
266618
266618
266618
266618
266617
266617
266617
266617
266617
266617
266617
266617
266617
266617
266618
266618
266618
266618
266618
266618
266618
266618
266618
266619
266618
266618
266617
266617
266617
266618
266618
266618
266618
266618
266618
266618
266618
266618
266618
266618
266618
266618
266618
266619
266618
266618
266618
266618
266618
266618
266618
266618
266618
266618
266618
266618
266618
266618
266618
266618
266618
266618
266619
266619
266618
266618
266618
266618
266618
266618
266618
266618
266618
266618
266618
266618
266618
266618
266618
266618
266618
266619
266619
266619
266619
266618
266618
266618
266618
266618
266618
266618
266618
266618
266618
266618
266618
266618
266619
266619
266619
266619
266619
266619
266619
266619
266618
266618
266618
266618
266618
266618
266618
266618
266618
266619
266619
266619
266619
266619
266619
266619
266619
266619
266619
266619
266619
266619
266619
266619
266619
266619
266619
266619
266619
266619
266619
266619
266619
266619
266619
266619
266619
266620
266619
266619
266619
266619
266619
266619
266619
266619
266619
266619
266619
266619
266619
266619
266619
266619
266619
266619
266619
266620
266619
266619
266619
266619
266619
266619
266619
266619
266619
266619
266619
266619
266619
266619
266619
266619
266619
266619
266620
266620
266620
266619
266619
266619
266619
266619
266619
266619
266619
266619
266619
266619
266619
266619
266620
266620
266620
266620
266620
266620
266620
266620
266620
266620
266620
266620
266620
266620
266620
266620
266620
266620
266620
266620
266620
266620
266620
266620
266620
266620
266620
266620
266620
266620
266620
266620
266620
266620
266620