/*--------------------------------*- C++ -*----------------------------------*\
  =========                 |
  \\      /  F ield         | OpenFOAM: The Open Source CFD Toolbox
   \\    /   O peration     | Website:  https://openfoam.org
    \\  /    A nd           | Version:  8
     \\/     M anipulation  |
\*---------------------------------------------------------------------------*/
FoamFile
{
    version     2.0;
    format      ascii;
    class       surfaceScalarField;
    location    "400";
    object      phi;
}
// * * * * * * * * * * * * * * * * * * * * * * * * * * * * * * * * * * * * * //

dimensions      [1 0 -1 0 0 0 0];

internalField   nonuniform List<scalar> 
16360
(
-1.82219
-0.00359316
-1.84508
0.0228884
-1.882
0.0369246
-1.92141
0.039414
-1.9538
0.0324011
-1.97042
0.0166196
-1.9645
-0.00593041
-1.93258
-0.0319041
-1.87762
-0.054984
-1.80708
-0.0705433
-1.72861
-0.0784631
-1.64862
-0.0799948
-1.5709
-0.0777096
-1.49704
-0.0738289
-1.42775
-0.0692941
-1.36388
-0.063827
-1.30577
-0.0581187
-1.24766
-0.0581187
-1.18514
-0.0625063
-1.12366
-0.0615079
-1.06825
-0.0554001
-1.02505
-0.0431848
-0.999197
-0.025859
-0.992405
-0.00680955
-1.00056
0.00814349
-1.00644
0.00587845
-0.99797
-0.00844981
-0.979157
-0.0188074
-0.966315
-0.0128398
-0.953567
-0.0127383
-0.93464
-0.0189431
-0.906623
-0.0280117
-0.870723
-0.035863
-0.831719
-0.0389966
-0.793002
-0.0387419
-0.755464
-0.0375467
-0.720364
-0.0350757
-0.696704
-0.0236347
-0.692163
-0.00453976
-0.696099
0.00391901
-0.70327
0.0071627
-0.708754
0.00547807
-0.708624
-0.000152648
-0.702186
-0.00644904
-0.690718
-0.0114852
-0.676985
-0.0137094
-0.664152
-0.0127958
-0.652212
-0.0119118
-0.639579
-0.0126297
-0.0169105
-0.622677
-1.09736
-0.0754571
-1.05905
-0.015442
-1.00307
-0.0190489
-0.92802
-0.035667
-0.835192
-0.0604868
-0.729777
-0.0887722
-0.620172
-0.115539
-0.514809
-0.137273
-0.415338
-0.154458
-0.317972
-0.167925
-0.221663
-0.174771
-0.128251
-0.173418
-0.0401227
-0.165842
0.0419231
-0.15589
0.118634
-0.145977
0.190982
-0.13619
0.254286
-0.121446
0.296662
-0.100453
0.314356
-0.0802356
0.31188
-0.0590049
0.292007
-0.0354938
0.258355
-0.00955443
0.214959
0.0175334
0.167373
0.0408119
0.114577
0.0609312
0.0197047
0.100739
-0.137039
0.148321
-0.310817
0.154953
-0.457515
0.133871
-0.569917
0.0996636
-0.643954
0.0550972
-0.685045
0.0130917
-0.705952
-0.0149264
-0.712835
-0.032101
-0.708267
-0.0432988
-0.692974
-0.0528222
-0.664847
-0.0632021
-0.643246
-0.0452315
-0.652483
0.00472412
-0.666996
0.0184579
-0.678791
0.0189744
-0.685956
0.0126808
-0.685392
-0.000685956
-0.676215
-0.0156212
-0.659919
-0.0278206
-0.641871
-0.0317663
-0.628941
-0.0257374
-0.618221
-0.0226662
-0.60771
-0.0231471
-0.0325563
-0.592066
0.471913
-0.130631
0.498112
-0.0416874
0.528946
-0.0498024
0.565789
-0.072505
0.606502
-0.101222
0.649804
-0.132121
0.69532
-0.161006
0.743054
-0.184971
0.791087
-0.202462
0.835437
-0.212311
0.874568
-0.213885
0.909431
-0.20826
0.940681
-0.197097
0.96709
-0.182295
0.986432
-0.165317
0.996873
-0.146617
1.00062
-0.125183
1.0007
-0.100545
0.994059
-0.0735784
0.978952
-0.0439162
0.955062
-0.0116364
0.922885
0.0226398
0.88499
0.0554447
0.841
0.0847887
0.787492
0.114476
0.741803
0.146431
0.717327
0.172809
0.696743
0.175548
0.671166
0.159452
0.633346
0.137502
0.568513
0.119945
0.471781
0.109796
0.350819
0.106027
0.211516
0.107229
0.056223
0.112028
-0.115011
0.118421
-0.29367
0.115446
-0.430561
0.0916623
-0.511753
0.0859088
-0.567293
0.07395
-0.599841
0.0514957
-0.618539
0.0313806
-0.625945
0.00669599
-0.615948
-0.0256229
-0.585968
-0.0578321
-0.556373
-0.0613483
-0.550988
-0.0310978
-0.548291
-0.0253565
-0.544132
-0.0272885
-0.0489023
-0.527797
1.4979
-0.0625807
1.51705
-0.0608252
1.5501
-0.0828482
1.59111
-0.113486
1.6363
-0.146413
1.68173
-0.177544
1.72436
-0.203667
1.7621
-0.222722
1.79357
-0.233907
1.81849
-0.237239
1.83773
-0.233118
1.8521
-0.222622
1.86221
-0.207202
1.86809
-0.188158
1.86907
-0.16632
1.86436
-0.141891
1.85381
-0.114646
1.83759
-0.0843312
1.81501
-0.0509844
1.78579
-0.0147034
1.75077
0.0233939
1.71284
0.0605807
1.67216
0.0961125
1.62703
0.129909
1.58024
0.16128
1.53793
0.188739
1.50264
0.20809
1.46373
0.214451
1.4133
0.209863
1.35043
0.200371
1.27882
0.191568
1.20233
0.186294
1.12309
0.185244
1.04225
0.188077
0.960554
0.193754
0.878465
0.200519
0.789063
0.204822
0.681572
0.199132
0.574928
0.192543
0.464135
0.184745
0.341828
0.17381
0.212666
0.160551
0.0752807
0.144066
-0.0770877
0.126758
-0.238479
0.103591
-0.354291
0.0544693
-0.406639
0.0212056
-0.42183
-0.0101664
-0.406211
-0.0428976
-0.0750892
-0.380063
3.34109
0.0124802
3.30511
-0.0248687
3.26722
-0.0449672
3.22601
-0.072281
3.18064
-0.10103
3.13108
-0.128
3.07856
-0.151128
3.02477
-0.168916
2.97135
-0.180512
2.91977
-0.185654
2.87109
-0.184432
2.82573
-0.177279
2.78348
-0.164939
2.74359
-0.148278
2.70521
-0.127935
2.66762
-0.104307
2.63055
-0.0775764
2.59408
-0.0478807
2.55848
-0.015388
2.52403
0.0197443
2.48968
0.0577438
2.45258
0.0976765
2.41109
0.137601
2.36618
0.174826
2.32011
0.207358
2.27563
0.233225
2.23355
0.250182
2.19109
0.256904
2.14578
0.255171
2.0972
0.248962
2.04621
0.242556
1.99327
0.239214
1.93772
0.24079
1.87804
0.247753
1.81245
0.25934
1.73946
0.273521
1.65729
0.286995
1.56042
0.296004
1.45211
0.30087
1.33578
0.301086
1.21323
0.296361
1.08746
0.286321
0.96126
0.270259
0.8391
0.248908
0.721883
0.22078
0.599133
0.177194
0.487194
0.133132
0.382673
0.0943654
0.276417
0.063386
0.0378253
0.163472
2.40289
0.0554888
2.35941
0.0186093
2.32559
-0.0111386
2.29317
-0.0398601
2.26105
-0.0689172
2.22917
-0.0961234
2.19772
-0.119692
2.16729
-0.138491
2.13863
-0.151838
2.11243
-0.159462
2.08928
-0.1613
2.06955
-0.157531
2.05317
-0.148567
2.03977
-0.13488
2.02882
-0.116978
2.0198
-0.0952877
2.01228
-0.0700328
2.00581
-0.0414008
2.00009
-0.0096789
1.9951
0.0247437
1.99141
0.0614371
1.9898
0.0992823
1.99023
0.13717
1.99167
0.173381
1.99298
0.206043
1.99298
0.233233
1.98996
0.253204
1.98165
0.265217
1.96645
0.270377
1.94398
0.27141
1.9149
0.271631
1.8803
0.273834
1.84136
0.279748
1.79902
0.290076
1.75369
0.30466
1.70492
0.322305
1.65108
0.340837
1.58936
0.357709
1.51892
0.371289
1.43998
0.380022
1.3537
0.382655
1.26189
0.378151
1.16646
0.365682
1.07025
0.34511
0.975087
0.315933
0.875
0.2773
0.773963
0.234188
0.676766
0.191545
0.587706
0.152434
0.116653
0.508871
2.0768
0.102998
2.03494
0.0604712
1.99762
0.0261657
1.96329
-0.00552417
1.92956
-0.0351894
1.89575
-0.0622896
1.86201
-0.0859548
1.82879
-0.10526
1.79672
-0.119773
1.76655
-0.129277
1.73896
-0.13371
1.71448
-0.133048
1.69327
-0.127352
1.67509
-0.11671
1.6595
-0.101401
1.6462
-0.0820024
1.6349
-0.0587313
1.62518
-0.0316889
1.61687
-0.00137436
1.60998
0.031637
1.60544
0.0659731
1.60375
0.100983
1.60478
0.136141
1.60808
0.170081
1.61282
0.201317
1.61775
0.228317
1.62103
0.24992
1.62052
0.265724
1.61447
0.276435
1.60212
0.283783
1.58382
0.289941
1.56079
0.296862
1.53459
0.305951
1.5066
0.31807
1.47769
0.333566
1.44791
0.352091
1.41628
0.372483
1.38101
0.392982
1.34066
0.411658
1.29424
0.426422
1.24157
0.435307
1.18306
0.436652
1.1195
0.429234
1.05205
0.412551
0.981333
0.386653
0.906336
0.352303
0.828272
0.312248
0.750067
0.269736
0.675167
0.22735
0.186169
0.605661
1.67394
0.143599
1.63344
0.100953
1.59689
0.0627336
1.56375
0.0276223
1.53311
-0.00455318
1.50344
-0.0326402
1.47409
-0.0565895
1.44506
-0.076231
1.41671
-0.0914254
1.38965
-0.102239
1.36454
-0.108605
1.34191
-0.110438
1.32202
-0.10745
1.30458
-0.0992612
1.28896
-0.085796
1.27539
-0.0684375
1.26403
-0.047364
1.25445
-0.0220948
1.24666
0.00642652
1.24064
0.0376483
1.23728
0.0693177
1.23681
0.101461
1.23882
0.134118
1.24254
0.166376
1.24721
0.196658
1.25197
0.223552
1.2556
0.246285
1.25667
0.264654
1.25397
0.279121
1.24698
0.290774
1.23592
0.300997
1.22162
0.31114
1.20521
0.322353
1.18773
0.335547
1.16995
0.351339
1.15216
0.369858
1.13408
0.390556
1.11484
0.41222
1.09339
0.433121
1.06865
0.451152
1.03984
0.464106
1.00652
0.469969
0.968566
0.467206
0.926083
0.455045
0.879158
0.433572
0.827726
0.403742
0.772487
0.367482
0.715109
0.327119
0.657664
0.284798
0.242022
0.601809
1.28936
0.186529
1.24987
0.140441
1.21434
0.0982404
1.18241
0.0595263
1.15381
0.0240732
1.12693
-0.00575637
1.09971
-0.029395
1.07209
-0.0486037
1.04446
-0.0638011
1.01754
-0.0753029
0.992066
-0.08314
0.968774
-0.08714
0.948101
-0.0868045
0.929786
-0.0809549
0.912328
-0.0683079
0.897316
-0.0534412
0.885712
-0.0357909
0.876373
-0.0127482
0.869379
0.0134202
0.865298
0.0417184
0.864841
0.0697648
0.86797
0.0983358
0.873561
0.128529
0.879977
0.159959
0.886396
0.190236
0.892686
0.217273
0.898249
0.240728
0.902187
0.26071
0.903618
0.277686
0.902097
0.292291
0.897751
0.305347
0.891096
0.317796
0.88288
0.330588
0.873857
0.344587
0.864712
0.360489
0.855927
0.378636
0.847645
0.398842
0.839563
0.420301
0.831072
0.441623
0.821324
0.460902
0.809461
0.47597
0.794701
0.484721
0.776425
0.48548
0.754176
0.477297
0.727652
0.460097
0.69676
0.43465
0.661834
0.402418
0.623751
0.36521
0.583702
0.324848
0.282899
0.542823
0.86876
0.229344
0.831177
0.177989
0.798714
0.130742
0.771282
0.0869834
0.745865
0.0494768
0.721651
0.0184602
0.697021
-0.00476899
0.669633
-0.0212219
0.640368
-0.0345232
0.610424
-0.0453476
0.580056
-0.0528307
0.549505
-0.0565798
0.518405
-0.0556906
0.486939
-0.0495005
0.458684
-0.040061
0.440421
-0.0351924
0.427388
-0.0227378
0.414172
0.000479578
0.40495
0.0226389
0.405399
0.0412606
0.4175
0.0576414
0.438662
0.0771983
0.462807
0.104399
0.484222
0.138545
0.501849
0.172588
0.518015
0.201099
0.532771
0.225968
0.545697
0.247767
0.556011
0.267362
0.563453
0.284849
0.56824
0.300578
0.570782
0.315249
0.571632
0.329714
0.571409
0.344779
0.570773
0.361104
0.57034
0.379074
0.570539
0.398664
0.571508
0.419348
0.573063
0.440088
0.574675
0.459286
0.575605
0.475016
0.575044
0.485282
0.572163
0.488357
0.566214
0.483236
0.556621
0.469689
0.543066
0.448226
0.525534
0.419956
0.504386
0.386356
0.480243
0.348989
0.309327
0.453811
0.40605
0.262102
0.364225
0.219855
0.333462
0.161493
0.312735
0.107695
0.289587
0.0726453
0.256726
0.0513322
0.218869
0.0331021
0.18347
0.0141884
0.149272
-0.000293044
0.110269
-0.00633537
0.0642558
-0.00679054
0.0146831
-0.00704447
-0.0326319
-0.00831187
-0.0731387
-0.00911826
-0.104129
-0.00904775
-0.124806
-0.0145059
-0.130765
-0.0167831
-0.116282
-0.013975
-0.0873132
-0.00633399
-0.0541876
0.0081405
-0.0233408
0.0268096
0.00276763
0.0510908
0.0266409
0.0804321
0.0562306
0.108961
0.0941595
0.134696
0.133892
0.161351
0.169091
0.190777
0.19776
0.219087
0.220946
0.244149
0.239996
0.265777
0.255682
0.284894
0.26847
0.302468
0.278831
0.319363
0.287363
0.336275
0.294791
0.353709
0.3019
0.371977
0.309447
0.391117
0.318031
0.41075
0.327834
0.430277
0.338643
0.448486
0.349843
0.463826
0.360606
0.474498
0.370146
0.478804
0.377545
0.475858
0.381999
0.465252
0.382978
0.447227
0.380209
0.422707
0.373673
0.392896
0.36358
0.359077
0.322577
0.35032
-0.229338
0.256156
-0.259981
0.250472
-0.321138
0.222681
-0.40163
0.188214
-0.481128
0.152092
-0.543994
0.114192
-0.587762
0.0768599
-0.617067
0.0434907
-0.634166
0.0168093
-0.638655
-0.0018542
-0.63235
-0.0130955
-0.618938
-0.0204785
-0.600464
-0.0267462
-0.577698
-0.0318788
-0.550536
-0.0361911
-0.524143
-0.0408763
-0.497403
-0.043509
-0.468965
-0.042404
-0.438811
-0.0365195
-0.406573
-0.0240617
-0.37441
-0.00534848
-0.341801
0.0184783
-0.306127
0.0447574
-0.269344
0.0721979
-0.23587
0.101216
-0.205284
0.130747
-0.174676
0.160171
-0.143727
0.188134
-0.113421
0.213863
-0.0848079
0.237184
-0.0584218
0.258489
-0.0343625
0.278397
-0.0125014
0.297511
0.00745987
0.316323
0.0260012
0.33518
0.0436989
0.354281
0.0611615
0.373637
0.0788925
0.393001
0.0971662
0.412015
0.11628
0.429382
0.136376
0.443734
0.156939
0.453938
0.177113
0.458633
0.195865
0.457093
0.212146
0.448951
0.225498
0.433859
0.235371
0.412838
0.241448
0.386828
0.243661
0.356871
0.324066
0.242166
-0.638537
0.248008
-0.639457
0.251432
-0.650312
0.233514
-0.666601
0.204533
-0.682483
0.168032
-0.696393
0.128122
-0.708641
0.0891031
-0.719772
0.054603
-0.729868
0.0268779
-0.738352
0.00663911
-0.74444
-0.0070304
-0.748112
-0.0168226
-0.750044
-0.0248072
-0.750592
-0.031348
-0.75001
-0.0367767
-0.749342
-0.0415364
-0.748233
-0.0446255
-0.745836
-0.0448184
-0.741354
-0.0410199
-0.732973
-0.0324558
-0.71909
-0.0192422
-0.698919
-0.00167017
-0.674013
0.0198547
-0.645798
0.0439666
-0.614458
0.069871
-0.580733
0.0970289
-0.545068
0.124514
-0.508245
0.15132
-0.471159
0.176773
-0.434593
0.200601
-0.399018
0.222917
-0.36461
0.244027
-0.331342
0.264265
-0.299012
0.283967
-0.267273
0.303418
-0.235764
0.322778
-0.204205
0.342075
-0.172316
0.361116
-0.139844
0.379528
-0.106898
0.396412
-0.073844
0.410664
-0.0411792
0.421279
-0.00955937
0.427031
0.0204143
0.427108
0.0484262
0.420925
0.0738462
0.408448
0.0955618
0.391127
0.113112
0.369278
0.126298
0.343672
0.315015
0.135333
-0.900676
0.231924
-0.878397
0.229134
-0.859158
0.214276
-0.845039
0.190419
-0.836934
0.159882
-0.835181
0.126374
-0.839561
0.0934787
-0.848956
0.0639956
-0.861581
0.0394979
-0.875325
0.0203719
-0.888438
0.00607165
-0.900659
-0.00461349
-0.912559
-0.0128902
-0.924218
-0.019687
-0.935564
-0.0254376
-0.946929
-0.0301702
-0.958163
-0.0333877
-0.968575
-0.0343737
-0.977178
-0.0323934
-0.98264
-0.026987
-0.983793
-0.0180949
-0.979607
-0.00584693
-0.969471
0.00973455
-0.953774
0.0282779
-0.933022
0.0491148
-0.907534
0.0715156
-0.877746
0.0947158
-0.84435
0.117934
-0.808133
0.140551
-0.769773
0.162235
-0.729781
0.182932
-0.688512
0.202756
-0.646155
0.221909
-0.602823
0.240638
-0.558579
0.259169
-0.513455
0.277664
-0.467545
0.296171
-0.420976
0.314559
-0.373871
0.332428
-0.32647
0.349018
-0.279239
0.363441
-0.232743
0.374764
-0.187713
0.381982
-0.144957
0.384341
-0.105347
0.381307
-0.0696629
0.372779
-0.0380064
0.359481
-0.0105023
0.341774
0.012871
0.320277
0.295295
0.0325886
-1.09802
0.203162
-1.06686
0.197981
-1.03829
0.185696
-1.01528
0.167417
-1.00004
0.144633
-0.993341
0.11967
-0.994717
0.094849
-1.00262
0.071932
-1.01506
0.0519261
-1.02991
0.0352214
-1.04542
0.0215951
-1.06057
0.010543
-1.0751
0.00162586
-1.08931
-0.00547747
-1.10361
-0.0111338
-1.11808
-0.0157076
-1.13246
-0.0190244
-1.14627
-0.0205733
-1.15876
-0.0199231
-1.16895
-0.0167864
-1.17597
-0.01107
-1.17902
-0.00279168
-1.17741
0.00814112
-1.17077
0.0216463
-1.15895
0.0373049
-1.14195
0.0545088
-1.11987
0.0726479
-1.09306
0.0911161
-1.06195
0.109432
-1.02701
0.1273
-0.988669
0.1446
-0.947302
0.161369
-0.903155
0.17775
-0.856455
0.19394
-0.807407
0.210134
-0.756185
0.226471
-0.702999
0.242994
-0.648038
0.259599
-0.591593
0.275967
-0.534079
0.291513
-0.476123
0.305494
-0.418429
0.317081
-0.361891
0.325441
-0.307472
0.329919
-0.256217
0.330048
-0.209012
0.325576
-0.166251
0.316708
-0.128201
0.303719
-0.0948294
0.286908
0.266141
-0.0656615
-1.28526
0.167535
-1.25167
0.164399
-1.22187
0.15587
-1.19762
0.143167
-1.18038
0.127381
-1.17058
0.109896
-1.16778
0.092039
-1.1708
0.0749272
-1.17812
0.0592848
-1.18839
0.0454639
-1.20035
0.0335403
-1.21318
0.0233584
-1.2263
0.0147419
-1.23933
0.00754244
-1.25211
0.00161719
-1.26474
-0.00307826
-1.2773
-0.00646849
-1.28947
-0.00840748
-1.30073
-0.00867382
-1.31039
-0.00712277
-1.31778
-0.00369165
-1.32228
0.00170211
-1.32332
0.00918514
-1.32037
0.0186758
-1.31293
0.0298644
-1.30075
0.0423403
-1.28376
0.0556514
-1.26203
0.0693705
-1.23576
0.0831601
-1.20523
0.0967825
-1.17074
0.110118
-1.13257
0.123187
-1.09092
0.136102
-1.04598
0.149011
-0.997894
0.162059
-0.946789
0.175366
-0.892791
0.188979
-0.836015
0.202833
-0.776724
0.216677
-0.715299
0.230101
-0.652356
0.242546
-0.588639
0.253365
-0.5251
0.261891
-0.462751
0.267563
-0.402643
0.269939
-0.345769
0.268711
-0.292885
0.263815
-0.24445
0.255286
-0.200642
0.243099
0.226984
-0.161489
-1.49091
0.130356
-1.45594
0.129444
-1.42451
0.124425
-1.39769
0.11635
-1.3763
0.106
-1.36062
0.0942276
-1.35044
0.0818487
-1.3451
0.0695816
-1.34375
0.0579518
-1.34554
0.0472668
-1.34969
0.0376789
-1.35556
0.0292172
-1.36265
0.0218389
-1.3706
0.015485
-1.3791
0.0101234
-1.38791
0.00574178
-1.39676
0.00238089
-1.40533
0.000162476
-1.41322
-0.000785237
-1.41999
-0.000369515
-1.42517
0.00148313
-1.42827
0.00481475
-1.42873
0.00964242
-1.42597
0.0159066
-1.41953
0.0234177
-1.40908
0.0318929
-1.39448
0.0410344
-1.37565
0.0505552
-1.35269
0.0602095
-1.32575
0.0698331
-1.295
0.079354
-1.26061
0.0887889
-1.2227
0.0982048
-1.18137
0.107686
-1.13668
0.117356
-1.08861
0.12731
-1.03718
0.137568
-0.982423
0.148082
-0.924451
0.158701
-0.863507
0.169157
-0.800053
0.179075
-0.734714
0.188014
-0.668323
0.195493
-0.601836
0.201071
-0.536285
0.204377
-0.472676
0.205112
-0.411923
0.203068
-0.354706
0.198078
-0.301564
0.189946
0.17847
-0.253057
-1.70677
0.0903287
-1.66785
0.0905269
-1.63145
0.0880325
-1.59856
0.0834511
-1.56984
0.0772912
-1.54568
0.0700568
-1.52607
0.0622532
-1.51081
0.0543097
-1.49944
0.0465767
-1.49146
0.0392814
-1.48635
0.0325667
-1.48363
0.0264994
-1.48288
0.0210814
-1.48371
0.016319
-1.48581
0.0122185
-1.48887
0.0087808
-1.49254
0.00605121
-1.49646
0.00410334
-1.50023
0.00300114
-1.50341
0.00281387
-1.50552
0.00359842
-1.50609
0.00537501
-1.50459
0.008143
-1.50053
0.0118552
-1.4935
0.0163881
-1.48319
0.0215737
-1.46939
0.0272301
-1.45201
0.0331753
-1.43105
0.0392496
-1.40658
0.0453607
-1.37866
0.0514592
-1.3474
0.0575316
-1.31285
0.0636301
-1.27501
0.0698295
-1.23383
0.0761883
-1.18928
0.0827567
-1.14125
0.0895553
-1.08971
0.0965482
-1.03466
0.103649
-0.976205
0.110705
-0.914633
0.117495
-0.850386
0.123757
-0.784091
0.129191
-0.716521
0.133507
-0.648585
0.136441
-0.581222
0.137755
-0.515385
0.137227
-0.451952
0.13465
-0.391832
0.129824
0.12262
-0.33598
-1.89558
0.0467009
-1.85194
0.0468971
-1.80983
0.0459272
-1.7703
0.043921
-1.73412
0.0411048
-1.70177
0.0377037
-1.67347
0.0339548
-1.64923
0.0300722
-1.62888
0.0262176
-1.61211
0.0225203
-1.5986
0.0190629
-1.58799
0.0158817
-1.5799
0.0130039
-1.574
0.0104389
-1.56996
0.00818393
-1.56746
0.00626305
-1.56611
0.00470771
-1.56555
0.00354072
-1.56536
0.00279951
-1.56507
0.00252493
-1.56422
0.00274104
-1.56232
0.00346277
-1.55885
0.00468277
-1.55336
0.00637336
-1.54545
0.00848095
-1.53479
0.0109251
-1.52118
0.0136164
-1.50448
0.0164671
-1.48462
0.0193967
-1.46163
0.022358
-1.43552
0.0253331
-1.40631
0.0283232
-1.374
0.0313293
-1.33856
0.0343893
-1.29991
0.0375323
-1.25795
0.0407873
-1.21257
0.0441617
-1.16368
0.0476439
-1.11123
0.0511891
-1.05525
0.0547283
-0.995907
0.058156
-0.933498
0.0613464
-0.868481
0.0641648
-0.801441
0.0664741
-0.733132
0.0681307
-0.664384
0.0690015
-0.596114
0.0689477
-0.529305
0.0678387
-0.46507
0.0655869
0.0621108
-0.404561
-2.0232
-1.97631
-1.93037
-1.88645
-1.84535
-1.80765
-1.77368
-1.74362
-1.7174
-1.69487
-1.67581
-1.65993
-1.64692
-1.63647
-1.62829
-1.62203
-1.61732
-1.61379
-1.61098
-1.60845
-1.6057
-1.60225
-1.59757
-1.5912
-1.58272
-1.5718
-1.55819
-1.54174
-1.52234
-1.49996
-1.47462
-1.4463
-1.41498
-1.38059
-1.34305
-1.30226
-1.2581
-1.21045
-1.15927
-1.10454
-1.04638
-0.985036
-0.920872
-0.854397
-0.786271
-0.717272
-0.648326
-0.58048
-0.514887
-0.452777
0.00814429
-0.000186208
0.00827364
-7.09247e-05
0.00838035
-4.42585e-05
0.00844637
-1.41401e-05
0.00848047
7.3332e-06
0.00848845
2.07363e-05
0.00847427
2.89532e-05
0.00844191
3.35794e-05
0.00839603
3.53436e-05
0.00834193
3.47318e-05
0.00828499
3.23124e-05
0.00823009
2.87617e-05
0.00818107
2.4803e-05
0.00814027
2.11115e-05
0.00810839
1.82429e-05
0.00808455
1.65704e-05
0.00806654
1.62251e-05
0.0080513
1.71045e-05
0.00803545
1.89386e-05
0.00801603
2.11905e-05
0.0079912
2.2976e-05
0.00796038
2.37462e-05
0.00792327
2.40842e-05
0.00788122
2.32158e-05
0.00783691
2.08793e-05
0.00779372
1.71655e-05
0.00775489
1.25846e-05
0.00772293
7.71219e-06
0.00769928
3.07645e-06
0.00768422
-9.07779e-07
0.00767693
-3.95294e-06
0.0076758
-5.92574e-06
0.00767869
-6.90024e-06
0.00768339
-7.16975e-06
0.00768816
-7.11122e-06
0.00769209
-7.02969e-06
0.0076951
-7.11467e-06
0.00769776
-7.45656e-06
0.007701
-8.05905e-06
0.00770581
-8.84119e-06
0.00771299
-9.65956e-06
0.00772283
-1.04394e-05
0.00773511
-1.12904e-05
0.00774933
-1.24719e-05
0.00776514
-1.43697e-05
0.00778278
-1.76195e-05
0.0078034
-2.30417e-05
0.00782929
-3.14062e-05
0.00786463
-4.40506e-05
-6.60116e-05
0.00791915
0.00790861
-8.12949e-05
0.00796942
-2.87607e-05
0.00801486
1.86341e-06
0.00805729
1.43639e-05
0.00808917
2.46676e-05
0.00810412
3.12854e-05
0.00810128
3.40689e-05
0.0080828
3.41716e-05
0.0080526
3.25346e-05
0.00801569
2.96867e-05
0.00797742
2.60817e-05
0.00794264
2.22242e-05
0.00791506
1.86162e-05
0.00789677
1.56713e-05
0.0078881
1.36515e-05
0.00788772
1.26201e-05
0.00789302
1.24156e-05
0.00790074
1.26412e-05
0.00790772
1.27729e-05
0.00791084
1.2703e-05
0.00790675
1.29288e-05
0.00789504
1.17098e-05
0.0078768
9.45381e-06
0.00785423
5.70578e-06
0.0078303
7.55627e-07
0.00780834
-5.01371e-06
0.00779132
-1.10772e-05
0.00778142
-1.69009e-05
0.00777967
-2.20889e-05
0.00778597
-2.63214e-05
0.00779913
-2.93659e-05
0.00781714
-3.11548e-05
0.00783755
-3.1829e-05
0.00785803
-3.16763e-05
0.007877
-3.10063e-05
0.00789379
-3.00889e-05
0.00790864
-2.91524e-05
0.00792245
-2.83941e-05
0.00793646
-2.7972e-05
0.00795195
-2.7988e-05
0.00796983
-2.85472e-05
0.00799037
-2.98409e-05
0.00801327
-3.21473e-05
0.00803771
-3.56566e-05
0.00806263
-4.06195e-05
0.00808738
-4.77387e-05
0.00811217
-5.82667e-05
0.00813888
-7.37871e-05
0.00817032
-9.58433e-05
-0.000126477
0.00820672
0.00792213
2.13951e-07
0.00797746
6.65208e-06
0.00804571
1.51427e-05
0.00810152
2.16096e-05
0.00814274
2.68528e-05
0.00816522
3.09632e-05
0.00816794
3.28462e-05
0.00815339
3.23868e-05
0.00812606
3.02368e-05
0.00809137
2.69605e-05
0.00805497
2.30344e-05
0.00802182
1.89786e-05
0.00799569
1.52886e-05
0.00797861
1.23496e-05
0.00797086
1.03811e-05
0.00797096
9.37622e-06
0.00797617
9.11991e-06
0.00798293
9.21801e-06
0.00798745
9.22776e-06
0.00798659
8.86462e-06
0.00797936
7.75801e-06
0.00796501
5.30904e-06
0.00794454
1.03906e-06
0.00791996
-4.83547e-06
0.00789448
-1.20278e-05
0.00787153
-2.00162e-05
0.00785415
-2.8209e-05
0.00784445
-3.5974e-05
0.00784339
-4.28102e-05
0.00785073
-4.82966e-05
0.00786513
-5.21403e-05
0.00788438
-5.42816e-05
0.0079059
-5.49139e-05
0.00792739
-5.438e-05
0.00794731
-5.30664e-05
0.00796507
-5.13515e-05
0.00798092
-4.95909e-05
0.00799579
-4.81171e-05
0.00801095
-4.72002e-05
0.00802765
-4.70477e-05
0.00804669
-4.78952e-05
0.00806827
-5.00589e-05
0.00809194
-5.38036e-05
0.00811683
-5.92705e-05
0.00814214
-6.68953e-05
0.00816726
-7.74351e-05
0.00819186
-9.18534e-05
0.00821621
-0.000111555
0.00824119
-0.000137985
-0.00017232
0.00826716
0.00798438
1.8094e-05
0.00805705
2.16969e-05
0.00812814
2.2541e-05
0.00818235
2.76637e-05
0.0082176
3.25718e-05
0.00823271
3.61147e-05
0.00822836
3.74732e-05
0.00820739
3.64531e-05
0.00817449
3.3555e-05
0.00813521
2.94113e-05
0.00809514
2.46313e-05
0.00805915
1.98159e-05
0.00803081
1.55064e-05
0.00801198
1.20958e-05
0.00800267
9.76563e-06
0.00800124
8.4606e-06
0.00800476
7.90321e-06
0.00800962
7.65796e-06
0.00801213
7.22263e-06
0.00800935
6.128e-06
0.00799951
4.21149e-06
0.00798293
-1.18402e-07
0.00796028
-6.38041e-06
0.00793402
-1.43836e-05
0.00790749
-2.376e-05
0.00788423
-3.39301e-05
0.0078672
-4.41981e-05
0.00785846
-5.38324e-05
0.00785884
-6.21953e-05
0.00786798
-6.87631e-05
0.00788428
-7.32212e-05
0.00790531
-7.55591e-05
0.00792834
-7.60405e-05
0.00795104
-7.50901e-05
0.00797188
-7.31868e-05
0.00799028
-7.08049e-05
0.00800653
-6.84142e-05
0.00802161
-6.64516e-05
0.00803688
-6.52801e-05
0.00805355
-6.51992e-05
0.00807236
-6.64846e-05
0.00809339
-6.94697e-05
0.0081159
-7.42816e-05
0.00813885
-8.11712e-05
0.00816128
-9.08396e-05
0.00818249
-0.000104
0.00820225
-0.000121478
0.00822086
-0.000144352
0.00823914
-0.000173764
-0.000210309
0.00825759
0.00798643
3.33795e-05
0.00805384
3.99652e-05
0.00811689
3.58799e-05
0.00816522
3.7681e-05
0.00819666
4.03409e-05
0.00820958
4.1891e-05
0.00820449
4.15113e-05
0.00818404
3.89668e-05
0.00815264
3.47215e-05
0.00811559
2.94247e-05
0.0080783
2.37027e-05
0.00804544
1.81679e-05
0.0080204
1.3367e-05
0.00800483
9.66207e-06
0.00799853
7.17426e-06
0.00799964
5.76241e-06
0.00800514
5.04405e-06
0.00801137
4.44781e-06
0.00801486
3.30088e-06
0.00801276
1.18723e-06
0.00800341
-1.77517e-06
0.00798657
-7.38751e-06
0.00796354
-1.52573e-05
0.00793716
-2.50414e-05
0.00791097
-3.62257e-05
0.00788856
-4.81398e-05
0.00787289
-6.00072e-05
0.00786599
-7.1014e-05
0.00786866
-8.03989e-05
0.00788033
-8.75668e-05
0.00789914
-9.22333e-05
0.0079224
-9.44684e-05
0.00794724
-9.46158e-05
0.00797125
-9.31662e-05
0.00799291
-9.06609e-05
0.00801163
-8.76699e-05
0.00802774
-8.47695e-05
0.00804231
-8.24789e-05
0.00805676
-8.12395e-05
0.00807239
-8.1416e-05
0.00808995
-8.33028e-05
0.00810946
-8.71713e-05
0.00813018
-9.3039e-05
0.00815088
-0.000101215
0.00817023
-0.000112429
0.00818723
-0.000127373
0.00820156
-0.000146771
0.00821359
-0.000171515
0.00822429
-0.000202539
-0.000240189
0.0082348
0.00799148
4.30222e-05
0.00806358
5.16548e-05
0.00812947
4.42857e-05
0.00817987
4.36065e-05
0.00821272
4.47696e-05
0.00822632
4.52076e-05
0.00822136
4.38671e-05
0.00820076
4.04572e-05
0.00816911
3.54112e-05
0.0081319
2.93951e-05
0.00809461
2.30968e-05
0.00806193
1.71607e-05
0.00803713
1.2129e-05
0.00802171
8.33088e-06
0.00801529
5.81222e-06
0.00801585
4.34671e-06
0.00802018
3.46111e-06
0.00802452
2.51377e-06
0.00802518
8.25294e-07
0.00801944
-2.12237e-06
0.00800616
-6.15018e-06
0.00798576
-1.33608e-05
0.00795971
-2.29535e-05
0.00793101
-3.4481e-05
0.00790336
-4.73484e-05
0.00788036
-6.08045e-05
0.00786501
-7.39946e-05
0.00785927
-8.6017e-05
0.00786381
-9.60376e-05
0.00787775
-0.000103473
0.0078989
-0.000108112
0.00792426
-0.000110105
0.0079508
-0.000109861
0.00797603
-0.000107914
0.00799835
-0.000104871
0.00801716
-0.000101397
0.00803284
-9.81705e-05
0.00804652
-9.57976e-05
0.00805972
-9.47456e-05
0.00807385
-9.53659e-05
0.00808967
-9.79438e-05
0.00810718
-0.000102711
0.0081256
-0.000109608
0.00814361
-0.000119009
0.00815973
-0.000131541
0.0081728
-0.000147788
0.00818234
-0.000168353
0.00818877
-0.000193917
0.00819306
-0.000225351
-0.000263023
0.00819678
0.00799277
5.04764e-05
0.00806468
6.12128e-05
0.00812864
5.22097e-05
0.00817617
5.01249e-05
0.0082059
5.01583e-05
0.00821657
4.95265e-05
0.00820913
4.70673e-05
0.00818674
4.25366e-05
0.00815409
3.64457e-05
0.00811667
2.9538e-05
0.00807985
2.2555e-05
0.00804818
1.61654e-05
0.00802472
1.0872e-05
0.0080107
6.93155e-06
0.00800552
4.30819e-06
0.0080069
2.6612e-06
0.0080115
1.41225e-06
0.00801556
-1.65002e-07
0.00801565
-2.84461e-06
0.00800921
-7.03783e-06
0.00799513
-1.21999e-05
0.00797376
-2.06094e-05
0.0079469
-3.15273e-05
0.00791784
-4.43737e-05
0.00789045
-5.84512e-05
0.00786842
-7.29259e-05
0.00785479
-8.68593e-05
0.0078515
-9.9285e-05
0.00785898
-0.000109378
0.00787605
-0.000116624
0.00790016
-0.000120895
0.00792808
-0.000122411
0.00795663
-0.00012162
0.00798323
-0.000119104
0.00800619
-0.000115561
0.00802492
-0.000111759
0.00803985
-0.000108445
0.0080523
-0.000106256
0.00806394
-0.000105654
0.00807627
-0.000106928
0.00809013
-0.000110277
0.00810546
-0.000115893
0.00812132
-0.000123688
0.00813631
-0.000134085
0.00814885
-0.000147597
0.00815776
-0.000164689
0.00816252
-0.000185898
0.00816363
-0.000211704
0.00816224
-0.000242777
-0.000279629
0.0081601
0.00799348
5.60942e-05
0.00806497
6.85136e-05
0.00812797
5.83699e-05
0.00817445
5.51074e-05
0.00820331
5.39778e-05
0.00821342
5.21942e-05
0.00820584
4.86285e-05
0.00818376
4.30869e-05
0.0081519
3.6149e-05
0.0081157
2.86138e-05
0.00808044
2.12443e-05
0.00805051
1.46749e-05
0.00802874
9.35168e-06
0.00801617
5.44579e-06
0.0080119
2.819e-06
0.00801348
1.04344e-06
0.00801744
-5.33932e-07
0.00801998
-2.66312e-06
0.0080176
-6.08159e-06
0.00800795
-1.11719e-05
0.00799042
-1.72164e-05
0.00796595
-2.68184e-05
0.00793656
-3.89395e-05
0.00790573
-5.28782e-05
0.00787745
-6.78566e-05
0.00785549
-8.29628e-05
0.00784291
-9.71972e-05
0.00784152
-0.00010959
0.00785146
-0.000119373
0.00787118
-0.000126123
0.00789783
-0.0001298
0.00792793
-0.000130689
0.00795815
-0.000129286
0.00798574
-0.000126255
0.00800896
-0.000122393
0.00802718
-0.000118547
0.00804097
-0.00011548
0.0080518
-0.00011378
0.00806157
-0.000113837
0.00807189
-0.000115885
0.00808366
-0.000120083
0.00809675
-0.000126545
0.00811014
-0.000135124
0.0081223
-0.000146324
0.00813152
-0.000160504
0.00813652
-0.000178026
0.00813684
-0.000199368
0.00813306
-0.000224982
0.00812659
-0.000255291
-0.000290766
0.00811945
0.00799376
6.01343e-05
0.00806396
7.39398e-05
0.00812516
6.31203e-05
0.00816971
5.89961e-05
0.00819666
5.68938e-05
0.00820514
5.41093e-05
0.00819635
4.9603e-05
0.00817359
4.3255e-05
0.0081416
3.56792e-05
0.00810581
2.77091e-05
0.00807139
2.01062e-05
0.00804253
1.34605e-05
0.00802188
8.14775e-06
0.00801021
4.26007e-06
0.0080064
1.56657e-06
0.00800782
-4.43713e-07
0.00801095
-2.46881e-06
0.00801204
-5.28582e-06
0.00800785
-9.63928e-06
0.00799626
-1.57625e-05
0.00797692
-2.26882e-05
0.00795082
-3.31529e-05
0.00792024
-4.61223e-05
0.00788889
-6.07432e-05
0.00786089
-7.61456e-05
0.00784011
-9.13573e-05
0.00782957
-0.000105361
0.0078309
-0.000117223
0.00784395
-0.000126258
0.00786683
-0.000132154
0.00789637
-0.000134973
0.00792892
-0.000135073
0.00796093
-0.000133044
0.00798952
-0.000129638
0.00801288
-0.000125704
0.00803045
-0.000122094
0.00804296
-0.000119525
0.00805209
-0.000118485
0.0080599
-0.000119286
0.00806813
-0.000122136
0.00807771
-0.000127166
0.0080885
-0.000134403
0.00809941
-0.000143639
0.00810884
-0.000155408
0.00811493
-0.000169972
0.0081163
-0.000187586
0.00811243
-0.000208687
0.00810406
-0.000233662
0.00809288
-0.000262863
-0.000296666
0.00808126
0.00799383
6.26085e-05
0.00806225
7.7457e-05
0.00812132
6.62806e-05
0.00816391
6.1456e-05
0.0081892
5.84548e-05
0.00819653
5.47344e-05
0.00818724
4.93789e-05
0.00816461
4.23933e-05
0.00813339
3.43769e-05
0.00809889
2.61404e-05
0.00806608
1.84516e-05
0.00803897
1.18526e-05
0.00801994
6.6525e-06
0.0080095
2.85813e-06
0.00800629
1.51313e-07
0.00800757
-2.04976e-06
0.00800975
-4.4851e-06
0.00800915
-7.92992e-06
0.00800267
-1.30869e-05
0.00798827
-1.98379e-05
0.00796639
-2.76245e-05
0.00793806
-3.8681e-05