/*--------------------------------*- C++ -*----------------------------------*\
  =========                 |
  \\      /  F ield         | OpenFOAM: The Open Source CFD Toolbox
   \\    /   O peration     | Website:  https://openfoam.org
    \\  /    A nd           | Version:  8
     \\/     M anipulation  |
\*---------------------------------------------------------------------------*/
FoamFile
{
    version     2.0;
    format      ascii;
    class       volScalarField;
    location    "400";
    object      T;
}
// * * * * * * * * * * * * * * * * * * * * * * * * * * * * * * * * * * * * * //

dimensions      [0 0 0 1 0 0 0];

internalField   nonuniform List<scalar> 
8400
(
299.904
299.907
299.91
299.913
299.915
299.917
299.918
299.919
299.92
299.921
299.922
299.923
299.924
299.925
299.927
299.928
299.93
299.931
299.933
299.934
299.936
299.939
299.943
299.948
299.954
299.96
299.967
299.974
299.98
299.985
299.989
299.992
299.994
299.995
299.994
299.991
299.986
299.98
299.973
299.964
299.955
299.946
299.938
299.931
299.925
299.92
299.916
299.911
299.907
299.903
299.947
299.942
299.94
299.939
299.94
299.942
299.945
299.949
299.953
299.956
299.959
299.963
299.966
299.97
299.974
299.978
299.982
299.985
299.986
299.987
299.989
299.988
299.986
299.983
299.98
299.978
299.995
300.009
300.015
300.019
300.022
300.025
300.027
300.028
300.026
300.022
300.016
300.009
300.002
299.993
299.984
299.975
299.966
299.959
299.954
299.95
299.946
299.942
299.937
299.933
299.998
299.993
299.989
299.987
299.988
299.989
299.99
299.991
299.992
299.993
299.993
299.992
299.992
299.991
299.992
299.992
299.993
299.995
299.997
299.999
300.001
300.003
300.004
300.004
300.003
300.001
300
300
300
300
300.002
300.005
300.011
300.017
300.022
300.027
300.029
300.03
300.027
300.02
300.01
300.002
299.993
299.985
299.978
299.973
299.967
299.961
299.955
299.95
300.004
300.004
300.005
300.005
300.006
300.007
300.008
300.008
300.008
300.008
300.009
300.008
300.008
300.008
300.009
300.009
300.009
300.01
300.011
300.012
300.013
300.014
300.014
300.015
300.015
300.015
300.015
300.015
300.014
300.014
300.015
300.018
300.021
300.026
300.03
300.034
300.037
300.038
300.038
300.037
300.033
300.029
300.023
300.018
300.013
300.002
299.993
299.984
299.977
299.972
300.007
300.008
300.009
300.01
300.012
300.014
300.016
300.018
300.019
300.021
300.022
300.023
300.025
300.026
300.027
300.028
300.029
300.029
300.03
300.03
300.03
300.029
300.028
300.027
300.026
300.025
300.025
300.025
300.027
300.029
300.032
300.036
300.041
300.046
300.051
300.055
300.058
300.059
300.059
300.058
300.055
300.05
300.045
300.04
300.034
300.027
300.02
300.014
300.008
300.002
300.002
300.002
300.002
300.002
300.001
300
299.999
299.998
299.997
299.996
299.996
299.995
299.995
299.995
299.995
299.996
299.997
299.998
299.999
300
300.001
300.002
300.004
300.005
300.006
300.008
300.009
300.011
300.013
300.016
300.019
300.023
300.027
300.031
300.035
300.04
300.044
300.047
300.05
300.051
300.05
300.049
300.046
300.042
300.037
300.032
300.026
300.02
300.014
300.007
300.001
300.002
300.002
300.002
300.002
300.002
300.002
300.001
300.001
300.001
300
300
299.999
299.999
299.998
299.998
299.999
299.999
299.999
300
300
300.001
300.001
300.002
300.003
300.004
300.005
300.006
300.008
300.01
300.012
300.015
300.018
300.022
300.026
300.03
300.034
300.037
300.04
300.042
300.043
300.043
300.041
300.039
300.036
300.031
300.027
300.021
300.015
300.008
300
300
300
300
300
300
300
300
300
300
300
300
300
299.999
299.999
299.999
299.999
299.999
299.999
300
300
300
300.001
300.001
300.002
300.002
300.003
300.004
300.005
300.006
300.008
300.01
300.013
300.016
300.02
300.023
300.027
300.031
300.034
300.036
300.037
300.037
300.037
300.035
300.033
300.029
300.025
300.02
300.014
300.008
299.999
299.999
299.999
299.999
300
300
300
300
300
300
300
300
300
300
300
300
300
300
300
300
300
300
300
300
300.001
300.001
300.002
300.003
300.003
300.005
300.006
300.008
300.01
300.013
300.016
300.02
300.023
300.026
300.029
300.031
300.033
300.033
300.033
300.031
300.029
300.026
300.022
300.018
300.012
300.006
299.999
299.999
299.999
299.999
299.999
299.999
299.999
300
300
300
300
300
300
300
300
300
300
300
300
300
300
300
300
300
300
300
300.001
300.002
300.003
300.004
300.005
300.007
300.009
300.012
300.015
300.018
300.021
300.024
300.026
300.028
300.029
300.03
300.029
300.028
300.026
300.023
300.019
300.015
300.009
300.003
299.999
299.998
299.998
299.998
299.998
299.998
299.999
299.999
299.999
299.999
300
299.999
299.999
299.999
299.999
299.999
299.999
299.999
299.999
300
300
300
300.001
300.001
300.001
300.002
300.002
300.003
300.003
300.004
300.005
300.007
300.009
300.012
300.015
300.018
300.021
300.023
300.025
300.027
300.028
300.028
300.027
300.026
300.023
300.02
300.016
300.011
300.005
299.999
300
300
300
300
300.001
300
300
299.999
299.999
299.999
299.999
299.999
299.999
299.999
300
300
300
300.001
300.001
300.002
300.002
300.002
300.003
300.003
300.003
300.004
300.004
300.005
300.005
300.006
300.008
300.009
300.011
300.014
300.016
300.019
300.021
300.023
300.025
300.026
300.026
300.026
300.025
300.023
300.02
300.017
300.012
300.007
300.001
299.994
300.003
300.002
300.002
300.003
300.002
300.002
300.001
300.001
300.001
300.002
300.002
300.002
300.003
300.003
300.003
300.004
300.004
300.004
300.005
300.005
300.005
300.006
300.006
300.006
300.007
300.007
300.008
300.009
300.01
300.011
300.012
300.013
300.014
300.016
300.017
300.019
300.02
300.02
300.021
300.021
300.021
300.02
300.019
300.017
300.015
300.011
300.007
300.001
299.994
299.987
300.005
300.004
300.004
300.004
300.003
300.003
300.003
300.003
300.003
300.003
300.004
300.004
300.005
300.006
300.006
300.007
300.007
300.008
300.008
300.009
300.009
300.01
300.01
300.011
300.011
300.011
300.012
300.012
300.012
300.012
300.012
300.012
300.011
300.01
300.008
300.007
300.005
300.003
300.002
300
300
299.999
299.999
299.999
299.997
299.995
299.992
299.988
299.983
299.977
300.005
300.004
300.003
300.003
300.003
300.003
300.003
300.003
300.003
300.004
300.004
300.005
300.006
300.007
300.007
300.008
300.009
300.01
300.01
300.011
300.011
300.012
300.012
300.012
300.011
300.01
300.009
300.007
300.005
300.001
299.997
299.991
299.984
299.976
299.967
299.958
299.949
299.942
299.936
299.933
299.932
299.933
299.936
299.939
299.942
299.945
299.948
299.949
299.949
299.948
299.998
299.997
299.997
299.996
299.996
299.996
299.996
299.996
299.997
299.998
299.998
299.999
300
300.001
300.002
300.003
300.004
300.005
300.006
300.006
300.006
300.005
300.004
300.002
299.999
299.994
299.989
299.981
299.971
299.958
299.943
299.923
299.901
299.875
299.848
299.82
299.794
299.771
299.753
299.742
299.738
299.74
299.748
299.76
299.775
299.791
299.808
299.824
299.838
299.85
299.981
299.979
299.979
299.978
299.978
299.978
299.978
299.978
299.979
299.979
299.98
299.981
299.983
299.984
299.985
299.986
299.986
299.987
299.987
299.986
299.984
299.981
299.976
299.97
299.961
299.948
299.932
299.911
299.885
299.852
299.811
299.763
299.708
299.646
299.58
299.513
299.45
299.393
299.347
299.314
299.296
299.292
299.302
299.323
299.353
299.39
299.431
299.473
299.514
299.552
299.955
299.952
299.951
299.95
299.949
299.949
299.949
299.948
299.949
299.949
299.95
299.95
299.951
299.952
299.952
299.952
299.952
299.95
299.948
299.944
299.938
299.93
299.918
299.902
299.88
299.853
299.817
299.772
299.716
299.648
299.567
299.474
299.368
299.253
299.132
299.01
298.893
298.787
298.697
298.625
298.575
298.547
298.541
298.554
298.585
298.63
298.686
298.748
298.815
298.882
299.92
299.916
299.913
299.91
299.908
299.906
299.904
299.902
299.901
299.9
299.899
299.898
299.897
299.896
299.894
299.891
299.888
299.883
299.875
299.865
299.85
299.831
299.806
299.774
299.733
299.681
299.617
299.539
299.447
299.338
299.213
299.073
298.92
298.759
298.592
298.426
298.266
298.118
297.986
297.873
297.781
297.711
297.665
297.64
297.636
297.652
297.684
297.731
297.788
297.853
299.806
299.797
299.789
299.78
299.772
299.765
299.758
299.751
299.745
299.739
299.734
299.728
299.723
299.718
299.711
299.704
299.694
299.682
299.666
299.645
299.619
299.586
299.544
299.493
299.431
299.357
299.27
299.169
299.053
298.924
298.782
298.629
298.468
298.302
298.133
297.966
297.804
297.65
297.507
297.375
297.257
297.153
297.065
296.993
296.937
296.897
296.873
296.863
296.867
296.884
303.148
303.144
303.141
303.138
303.135
303.132
303.129
303.126
303.122
303.119
303.116
303.113
303.11
303.108
303.105
303.102
303.099
303.096
303.093
303.09
303.087
303.085
303.083
303.08
303.078
303.076
303.073
303.071
303.069
303.067
303.065
303.063
303.061
303.059
303.057
303.055
303.053
303.051
303.049
303.047
303.045
303.043
303.041
303.039
303.038
303.036
303.035
303.033
303.032
303.032
303.15
303.15
303.15
303.15
303.15
303.15
303.149
303.149
303.149
303.149
303.148
303.148
303.148
303.148
303.147
303.147
303.146
303.146
303.146
303.145
303.145
303.144
303.143
303.143
303.142
303.141
303.14
303.139
303.139
303.138
303.137
303.136
303.135
303.134
303.133
303.132
303.132
303.131
303.13
303.129
303.129
303.128
303.127
303.126
303.126
303.125
303.125
303.124
303.123
303.123
303.15
303.15
303.15
303.15
303.15
303.15
303.15
303.15
303.15
303.15
303.15
303.15
303.15
303.15
303.15
303.15
303.15
303.15
303.15
303.15
303.15
303.15
303.149
303.149
303.149
303.149
303.149
303.149
303.148
303.148
303.148
303.148
303.148
303.147
303.147
303.147
303.147
303.147
303.146
303.146
303.146
303.146
303.145
303.145
303.145
303.145
303.144
303.144
303.144
303.144
303.15
303.15
303.15
303.15
303.15
303.15
303.15
303.15
303.15
303.15
303.15
303.15
303.15
303.15
303.15
303.15
303.15
303.15
303.15
303.15
303.15
303.15
303.15
303.15
303.15
303.15
303.15
303.15
303.15
303.15
303.15
303.15
303.15
303.15
303.15
303.15
303.15
303.15
303.149
303.149
303.149
303.149
303.149
303.149
303.149
303.149
303.149
303.149
303.149
303.149
303.15
303.15
303.15
303.15
303.15
303.15
303.15
303.15
303.15
303.15
303.15
303.15
303.15
303.15
303.15
303.15
303.15
303.15
303.15
303.15
303.15
303.15
303.15
303.15
303.15
303.15
303.15
303.15
303.15
303.15
303.15
303.15
303.15
303.15
303.15
303.15
303.15
303.15
303.15
303.15
303.15
303.15
303.15
303.15
303.15
303.15
303.15
303.15
303.15
303.15
303.15
303.15
303.15
303.15
303.15
303.15
303.15
303.15
303.15
303.15
303.15
303.15
303.15
303.15
303.15
303.15
303.15
303.15
303.15
303.15
303.15
303.15
303.15
303.15
303.15
303.15
303.15
303.15
303.15
303.15
303.15
303.15
303.15
303.15
303.15
303.15
303.15
303.15
303.15
303.15
303.15
303.15
303.15
303.15
303.15
303.15
303.15
303.15
303.15
303.15
303.15
303.15
303.15
303.15
303.15
303.15
303.15
303.15
303.15
303.15
303.15
303.15
303.15
303.15
303.15
303.15
303.15
303.15
303.15
303.15
303.15
303.15
303.15
303.15
303.15
303.15
303.15
303.15
303.15
303.15
303.15
303.15
303.15
303.15
303.15
303.15
303.15
303.15
303.15
303.15
303.15
303.15
303.15
303.15
303.15
303.15
303.15
303.15
303.15
303.15
303.15
303.15
303.15
303.15
303.15
303.15
303.15
303.15
303.15
303.15
303.15
303.15
303.15
303.15
303.15
303.15
303.15
303.15
303.15
303.15
303.15
303.15
303.15
303.15
303.15
303.15
303.15
303.15
303.15
303.15
303.15
303.15
303.15
303.15
303.15
303.15
303.15
303.15
303.15
303.15
303.15
303.15
303.15
303.15
303.15
303.15
303.15
303.15
303.15
303.15
303.15
303.15
303.15
303.15
303.15
303.15
303.15
303.15
303.15
303.15
303.15
303.15
303.15
303.15
303.15
303.15
303.15
303.15
303.15
303.15
303.15
303.15
303.15
303.15
303.15
303.15
303.15
303.15
303.15
303.15
303.15
303.15
303.15
303.15
303.15
303.15
303.15
303.15
303.15
303.15
303.15
303.15
303.15
303.15
303.15
303.15
303.15
303.15
303.15
303.15
303.15
303.15
303.15
303.15
303.15
303.15
303.15
303.15
303.15
303.15
303.15
303.15
303.15
303.15
303.15
303.15
303.15
303.15
303.15
303.15
303.15
303.15
303.15
303.15
303.15
303.15
303.15
303.15
303.15
303.15
303.15
303.15
303.15
303.15
303.15
303.15
303.15
303.15
303.15
303.15
303.15
303.15
303.15
303.15
303.15
303.15
303.15
303.15
303.15
303.15
303.15
303.15
303.15
303.15
303.15
303.15
303.15
303.15
303.15
303.15
303.15
303.15
303.15
303.15
303.15
303.15
303.15
303.15
303.15
303.15
303.15
303.15
303.15
303.15
303.15
303.15
303.15
303.15
303.15
303.15
303.15
303.15
303.15
303.15
303.15
303.15
303.15
303.15
303.15
303.15
303.15
303.15
303.15
303.15
303.15
303.15
303.15
303.15
303.15
303.15
303.15
303.15
303.15
303.15
303.15
303.15
303.15
303.15
303.15
303.15
303.15
303.15
303.15
303.15
303.15
303.15
303.15
303.15
303.15
303.15
303.15
303.15
303.15
303.15
303.15
303.15
303.15
303.15
303.15
303.15
303.15
303.15
303.15
303.15
303.15
303.15
303.15
303.15
303.15
303.15
303.15
303.15
303.15
303.15
303.15
303.15
303.15
303.15
303.15
303.15
303.15
303.15
303.15
303.15
303.15
303.15
303.15
303.15
303.15
303.15
303.15
303.15
303.15
303.15
303.15
303.15
303.15
303.15
303.15
303.15
303.15
303.15
303.15
303.15
303.15
303.15
303.15
303.15
303.15
303.15
303.15
303.15
303.15
303.15
303.15
303.15
303.15
303.15
303.15
303.15
303.15
303.15
303.15
303.15
303.15
303.15
303.15
303.15
303.15
303.15
303.15
303.15
303.15
303.15
303.15
303.15
303.15
303.15
303.15
303.15
303.15
303.15
303.15
303.15
303.15
303.15
303.15
303.15
303.15
303.15
303.15
303.15
303.15
303.15
303.15
303.15
303.15
303.15
303.15
303.15
303.15
303.15
303.15
303.15
303.15
303.15
303.15
303.15
303.15
303.15
303.15
303.15
303.15
303.15
303.15
303.15
303.15
303.15
303.15
303.15
303.15
303.15
303.15
303.15
303.15
303.15
303.15
303.15
303.15
303.15
303.15
303.15
303.15
303.15
303.15
303.15
303.15
303.15
303.15
303.15
303.15
303.15
303.15
303.15
303.15
303.15
303.15
303.15
303.15
303.15
303.15
303.15
303.15
303.15
303.15
303.15
303.15
303.15
303.15
303.15
303.15
303.15
303.15
303.15
303.15
303.15
303.15
303.15
303.15
303.15
303.15
303.15
303.15
303.15
303.15
303.15
303.15
303.15
303.15
303.15
303.15
303.15
303.15
303.15
303.15
303.15
303.15
303.15
303.15
303.15
303.15
303.15
303.15
303.15
303.15
303.15
303.15
303.15
303.15
303.15
303.15
303.15
303.15
303.15
303.15
303.15
303.15
303.15
303.15
303.15
303.15
303.15
303.15
303.15
303.15
303.15
303.15
303.15
303.15
303.15
303.15
303.15
303.15
303.15
303.15
303.15
303.15
303.15
303.15
303.15
303.15
303.15
303.15
303.15
303.15
303.15
303.15
303.15
303.15
303.15
303.15
303.15
303.15
303.15
303.15
303.15
303.15
303.15
303.15
303.15
303.15
303.15
303.15
303.15
303.15
303.15
303.15
303.149
303.149
303.149
303.149
303.149
303.149
303.149
303.149
303.149
303.149
303.148
303.148
303.148
303.15
303.15
303.15
303.15
303.15
303.15
303.15
303.15
303.15
303.15
303.15
303.15
303.15
303.15
303.15
303.15
303.15
303.15
303.15
303.15
303.15
303.15
303.149
303.149
303.149
303.149
303.149
303.149
303.149
303.148
303.148
303.148
303.148
303.147
303.147
303.147
303.147
303.146
303.146
303.146
303.145
303.145
303.145
303.144
303.144
303.143
303.143
303.142
303.142
303.141
303.15
303.15
303.15
303.15
303.15
303.15
303.149
303.149
303.149
303.149
303.148
303.148
303.148
303.148
303.147
303.147
303.147
303.146
303.146
303.145
303.145
303.144
303.143
303.143
303.142
303.141
303.14
303.139
303.139
303.138
303.137
303.136
303.135
303.134
303.133
303.132
303.131
303.13
303.129
303.128
303.127
303.126
303.125
303.124
303.123
303.122
303.121
303.12
303.119
303.117
303.148
303.144
303.141
303.138
303.135
303.132
303.129
303.126
303.122
303.119
303.116
303.113
303.11
303.107
303.104
303.102
303.099
303.096
303.093
303.09
303.087
303.085
303.082
303.08
303.078
303.075
303.073
303.071
303.069
303.067
303.065
303.062
303.06
303.058
303.056
303.054
303.052
303.05
303.048
303.046
303.045
303.043
303.041
303.039
303.037
303.035
303.033
303.031
303.029
303.028
298.651
295.866
294.195
293.488
293.234
293.158
293.144
293.146
293.149
293.15
293.148
293.141
293.133
293.138
293.183
293.32
293.637
294.221
295.12
296.253
298.671
295.857
294.178
293.477
293.228
293.157
293.145
293.149
293.152
293.152
293.15
293.142
293.134
293.138
293.185
293.329
293.663
294.272
295.196
296.339
298.692
295.849
294.163
293.466
293.223
293.156
293.147
293.151
293.154
293.154
293.152
293.144
293.135
293.139
293.186
293.334
293.677
294.3
295.238
296.383
298.716
295.842
294.149
293.456
293.218
293.155
293.149
293.154
293.157
293.156
293.154
293.146
293.136
293.139
293.187
293.339
293.691
294.327
295.275
296.42
298.741
295.837
294.136
293.446
293.214
293.155
293.151
293.157
293.16
293.158
293.156
293.147
293.137
293.139
293.188
293.345
293.704
294.352
295.309
296.45
298.767
295.834
294.125
293.438
293.21
293.155
293.153
293.16
293.162
293.16
293.158
293.149
293.138
293.14
293.19
293.35
293.717
294.374
295.337
296.473
298.796
295.833
294.115
293.43
293.207
293.156
293.156
293.163
293.165
293.162
293.159
293.15
293.138
293.14
293.191
293.356
293.729
294.395
295.362
296.489
298.826
295.834
294.107
293.423
293.204
293.157
293.159
293.167
293.168
293.164
293.161
293.151
293.139
293.141
293.193
293.361
293.741
294.413
295.381
296.497
298.859
295.838
294.1
293.417
293.201
293.158
293.162
293.17
293.17
293.165
293.162
293.152
293.14
293.141
293.195
293.366
293.751
294.429
295.396
296.499
298.893
295.844
294.095
293.412
293.2
293.159
293.165
293.174
293.172
293.166
293.162
293.153
293.14
293.142
293.197
293.371
293.761
294.442
295.406
296.494
298.928
295.852
294.092
293.408
293.199
293.161
293.169
293.177
293.175
293.167
293.163
293.154
293.141
293.142
293.199
293.376
293.769
294.452
295.411
296.483
298.966
295.864
294.092
293.405
293.198
293.163
293.173
293.181
293.177
293.167
293.163
293.155
293.141
293.143
293.2
293.38
293.776
294.459
295.412
296.466
299.005
295.878
294.094
293.404
293.198
293.166
293.176
293.184
293.179
293.167
293.162
293.155
293.141
293.143
293.202
293.385
293.782
294.464
295.408
296.443
299.046
295.896
294.099
293.404
293.199
293.169
293.18
293.187
293.181
293.168
293.162
293.155
293.142
293.143
293.204
293.388
293.787
294.465
295.399
296.415
299.088
295.917
294.107
293.406
293.201
293.172
293.184
293.191
293.183
293.168
293.162
293.155
293.142
293.144
293.205
293.392
293.791
294.465
295.387
296.382
299.132
295.941
294.118
293.409
293.204
293.175
293.188
293.194
293.185
293.168
293.161
293.155
293.142
293.144
293.207
293.395
293.793
294.462
295.372
296.345
299.177
295.968
294.131
293.414
293.207
293.179
293.192
293.198
293.187
293.169
293.16
293.155
293.142
293.145
293.208
293.397
293.795
294.457
295.354
296.306
299.223
295.999
294.148
293.421
293.211
293.183
293.196
293.201
293.189
293.169
293.159
293.154
293.142
293.145
293.209
293.4
293.796
294.45
295.333
296.263
299.271
296.033
294.167
293.429
293.215
293.187
293.2
293.205
293.192
293.169
293.158
293.154
293.142
293.146
293.211
293.402
293.796
294.442
295.31
296.218
299.319
296.071
294.188
293.438
293.22
293.191
293.204
293.208
293.194
293.169
293.156
293.153
293.142
293.146
293.212
293.404
293.795
294.433
295.285
296.171
299.369
296.112
294.212
293.448
293.225
293.195
293.208
293.212
293.196
293.169
293.153
293.152
293.141
293.146
293.214
293.407
293.795
294.424
295.26
296.124
299.42
296.155
294.237
293.459
293.231
293.2
293.212
293.216
293.199
293.169
293.151
293.151
293.141
293.147
293.216
293.409
293.794
294.413
295.233
296.075
299.472
296.201
294.264
293.472
293.237
293.204
293.217
293.219
293.201
293.169
293.149
293.15
293.14
293.147
293.218
293.412
293.793
294.402
295.206
296.026
299.525
296.248
294.293
293.484
293.243
293.209
293.221
293.223
293.204
293.17
293.149
293.149
293.14
293.148
293.221
293.415
293.792
294.391
295.178
295.976
299.578
296.297
294.322
293.498
293.25
293.214
293.226
293.227
293.206
293.172
293.149
293.148
293.139
293.149
293.223
293.417
293.79
294.378
295.15
295.926
299.632
296.348
294.353
293.512
293.257
293.219
293.23
293.231
293.209
293.173
293.149
293.146
293.139
293.151
293.226
293.419
293.787
294.365
295.12
295.877
299.685
296.4
294.384
293.526
293.264
293.224
293.235
293.235
293.211
293.174
293.149
293.145
293.139
293.152
293.228
293.42
293.783
294.35
295.091
295.828
299.738
296.453
294.416
293.542
293.272
293.23
293.24
293.239
293.214
293.175
293.149
293.144
293.139
293.153
293.23
293.42
293.779
294.335
295.061
295.78
299.792
296.506
294.449
293.557
293.279
293.235
293.245
293.243
293.216
293.175
293.148
293.143
293.138
293.154
293.231
293.42
293.773
294.319
295.031
295.733
299.845
296.561
294.482
293.573
293.288
293.241
293.25
293.247
293.219
293.175
293.147
293.143
293.138
293.154
293.232
293.419
293.767
294.303
295.001
295.688
299.899
296.616
294.517
293.59
293.296
293.247
293.256
293.251
293.221
293.175
293.147
293.142
293.138
293.154
293.232
293.418
293.76
294.286
294.973
295.644
299.953
296.673
294.553
293.608
293.305
293.254
293.261
293.256
293.223
293.176
293.146
293.142
293.138
293.155
293.233
293.416
293.753
294.27
294.945
295.602
300.007
296.731
294.591
293.627
293.315
293.26
293.267
293.26
293.226
293.176
293.146
293.142
293.138
293.155
293.233
293.414
293.746
294.254
294.918
295.562
300.062
296.79
294.63
293.647
293.325
293.267
293.273
293.265
293.229
293.177
293.145
293.142
293.138
293.155
293.233
293.413
293.739
294.239
294.892
295.523
300.117
296.852
294.672
293.668
293.335
293.274
293.279
293.271
293.233
293.179
293.145
293.141
293.138
293.156
293.234
293.412
293.733
294.225
294.868
295.487
300.174
296.917
294.715
293.69
293.347
293.282
293.286
293.276
293.237
293.181
293.146
293.141
293.139
293.157
293.235
293.411
293.728
294.212
294.846
295.452
300.231
296.984
294.762
293.715
293.359
293.289
293.292
293.283
293.243
293.184
293.146
293.141
293.139
293.159
293.237
293.411
293.723
294.201
294.825
295.419
300.29
297.054
294.811
293.74
293.371
293.297
293.299
293.289
293.248
293.187
293.147
293.141
293.14
293.161
293.239
293.412
293.72
294.191
294.806
295.388
300.35
297.127
294.863
293.768
293.385
293.306
293.306
293.296
293.255
293.191
293.148
293.141
293.141
293.163
293.242
293.414
293.718
294.182
294.789
295.358
300.411
297.203
294.917
293.797
293.399
293.315
293.314
293.304
293.261
293.196
293.15
293.141
293.143
293.166
293.245
293.416
293.716
294.174
294.772
295.33
300.473
297.281
294.975
293.828
293.415
293.324
293.322
293.311
293.269
293.202
293.152
293.142
293.145
293.169
293.249
293.419
293.716
294.168
294.758
295.303
300.536
297.363
295.035
293.862
293.431
293.333
293.33
293.319
293.276
293.208
293.155
293.144
293.147
293.173
293.253
293.422
293.716
294.163
294.744
295.277
300.6
297.447
295.099
293.897
293.448
293.343
293.338
293.328
293.284
293.215
293.159
293.145
293.149
293.177
293.257
293.426
293.716
294.158
294.731
295.252
300.665
297.533
295.165
293.934
293.467
293.354
293.347
293.336
293.292
293.221
293.162
293.147
293.152
293.18
293.262
293.43
293.718
294.155
294.72
295.227
300.73
297.623
295.234
293.973
293.486
293.365
293.356
293.345
293.301
293.228
293.166
293.149
293.154
293.184
293.267
293.434
293.72
294.153
294.709
295.204
300.795
297.715
295.307
294.014
293.507
293.377
293.365
293.354
293.309
293.235
293.171
293.152
293.157
293.189
293.272
293.439
293.723
294.152
294.7
295.181
300.862
297.809
295.382
294.058
293.528
293.389
293.375
293.364
293.318
293.243
293.176
293.155
293.161
293.193
293.277
293.445
293.727
294.151
294.69
295.158
300.929
297.907
295.462
294.105
293.552
293.402
293.385
293.374
293.328
293.251
293.182
293.158
293.165
293.199
293.284
293.451
293.732
294.152
294.682
295.135
300.996
298.007
295.545
294.154
293.576
293.415
293.396
293.384
293.338
293.261
293.189
293.163
293.17
293.205
293.291
293.459
293.738
294.154
294.674
295.113
301.064
298.111
295.632
294.207
293.603
293.43
293.407
293.395
293.349
293.271
293.197
293.169
293.175
293.212
293.3
293.467
293.746
294.158
294.666
295.09
301.133
298.217
295.723
294.262
293.631
293.445
293.418
293.406
293.361
293.282
293.206
293.176
293.183
293.221
293.31
293.478
293.754
294.162
294.658
295.067
301.203
298.327
295.819
294.322
293.661
293.461
293.43
293.418
293.373
293.295
293.217
293.185
293.191
293.231
293.322
293.49
293.765
294.167
294.651
295.044
301.273
298.441
295.92
294.385
293.694
293.478
293.443
293.431
293.387
293.309
293.231
293.195
293.202
293.243
293.335
293.503
293.776
294.173
294.644
295.021
301.344
298.558
296.025
294.452
293.729
293.496
293.456
293.444
293.402
293.326
293.246
293.208
293.214
293.257
293.35
293.519
293.79
294.179
294.636
294.997
301.415
298.679
296.137
294.524
293.766
293.515
293.469
293.458
293.418
293.344
293.264
293.224
293.229
293.273
293.368
293.537
293.805
294.187
294.629
294.972
301.488
298.804
296.254
294.601
293.807
293.536
293.484
293.473
293.436
293.364
293.284
293.242
293.247
293.292
293.388
293.557
293.821
294.195
294.621
294.947
301.56
298.933
296.377
294.684
293.851
293.558
293.499
293.489
293.455
293.386
293.307
293.263
293.268
293.314
293.411
293.579
293.839
294.204
294.613
294.92
301.633
299.067
296.508
294.773
293.898
293.582
293.514
293.505
293.475
293.41
293.334
293.288
293.292
293.338
293.436
293.603
293.859
294.213
294.604
294.893
301.707
299.205
296.646
294.869
293.95
293.608
293.531
293.522
293.496
293.436
293.363
293.317
293.319
293.366
293.464
293.63
293.88
294.222
294.594
294.866
301.782
299.349
296.794
294.974
294.008
293.636
293.548
293.539
293.518
293.464
293.395
293.349
293.351
293.397
293.495
293.659
293.902
294.232
294.584
294.837
301.858
299.499
296.951
295.088
294.072
293.667
293.566
293.557
293.541
293.494
293.43
293.385
293.386
293.432
293.529
293.689
293.926
294.241
294.573
294.807
301.934
299.655
297.119
295.213
294.143
293.701
293.586
293.576
293.565
293.525
293.467
293.424
293.425
293.469
293.565
293.722
293.95
294.249
294.56
294.776
302.012
299.82
297.301
295.352
294.223
293.74
293.606
293.594
293.589
293.558
293.507
293.466
293.466
293.51
293.603
293.756
293.975
294.257
294.546
294.744
302.092
299.994
297.499
295.506
294.315
293.785
293.629
293.613
293.614
293.591
293.548
293.512
293.511
293.554
293.644
293.791
294
294.264
294.531
294.711
302.173
300.178
297.715
295.681
294.421
293.837
293.654
293.632
293.638
293.624
293.59
293.559
293.558
293.599
293.686
293.827
294.024
294.27
294.514
294.676
302.255
300.373
297.953
295.879
294.546
293.898
293.682
293.651
293.661
293.656
293.632
293.607
293.607
293.646
293.729
293.862
294.047
294.274
294.496
294.641
302.339
300.582
298.216
296.107
294.694
293.974
293.715
293.67
293.683
293.688
293.674
293.656
293.656
293.693
293.772
293.897
294.069
294.275
294.476
294.605
302.426
300.802
298.509
296.372
294.872
294.067
293.755
293.69
293.703
293.717
293.714
293.704
293.705
293.741
293.815
293.931
294.088
294.275
294.454
294.568
302.513
301.035
298.835
296.679
295.089
294.185
293.806
293.712
293.722
293.743
293.751
293.749
293.752
293.786
293.855
293.962
294.104
294.271
294.43
294.53
302.6
301.28
299.197
297.038
295.356
294.338
293.874
293.739
293.738
293.765
293.783
293.79
293.797
293.829
293.893
293.99
294.117
294.265
294.404
294.491
302.684
301.535
299.596
297.457
295.685
294.538
293.967
293.773
293.754
293.783
293.81
293.825
293.837
293.868
293.926
294.013
294.126
294.255
294.376
294.451
302.764
301.796
300.03
297.943
296.092
294.801
294.099
293.822
293.77
293.796
293.83
293.854
293.871
293.9
293.953
294.031
294.13
294.242
294.346
294.41
302.838
302.054
300.495
298.5
296.592
295.151
294.288
293.899
293.792
293.804
293.843
293.875
293.898
293.926
293.974
294.043
294.129
294.225
294.314
294.369
302.903
302.302
300.976
299.128
297.202
295.613
294.563
294.021
293.829
293.811
293.848
293.887
293.916
293.943
293.987
294.048
294.122
294.204
294.28
294.326
302.957
302.53
301.457
299.814
297.929
296.218
294.961
294.223
293.9
293.822
293.846
293.889
293.924
293.952
293.992
294.045
294.11
294.179
294.244
294.283
302.997
302.725
301.914
300.534
298.772
296.993
295.53
294.551
294.039
293.856
293.841
293.88
293.921
293.951
293.988
294.035
294.091
294.15
294.205
294.239
303.025
302.882
302.318
301.244
299.702
297.95
296.322
295.077
294.307
293.947
293.848
293.864
293.906
293.94
293.975
294.018
294.066
294.117
294.165
294.194
303.04
302.995
302.646
301.889
300.661
299.067
297.376
295.886
294.803
294.174
293.908
293.854
293.881
293.92
293.953
293.992
294.036
294.08
294.122
294.147
303.046
303.066
302.883
302.415
301.554
300.265
298.682
297.058
295.665
294.679
294.124
293.901
293.862
293.89
293.924
293.96
293.999
294.039
294.076
294.099
303.045
303.104
303.029
302.788
302.277
301.398
300.129
298.597
297.033
295.691
294.731
294.172
293.925
293.865
293.887
293.922
293.959
293.997
294.033
294.056
303.04
303.12
303.104
303.006
302.765
302.288
301.485
300.326
298.908
297.43
296.118
295.116
294.447
294.065
293.914
293.941
294.003
294.084
294.189
294.296
303.033
303.123
303.133
303.106
303.022
302.832
302.464
301.842
300.93
299.778
298.535
297.362
296.355
295.522
294.902
294.643
294.896
295.327
295.913
296.759
303.026
303.122
303.142
303.139
303.12
303.069
302.959
302.748
302.394
301.874
301.229
300.569
300.007
299.581
299.217
298.874
298.803
299.635
300.966
302.314
303.018
303.119
303.143
303.147
303.145
303.136
303.116
303.074
302.997
302.871
302.689
302.475
302.279
302.169
302.174
302.275
302.441
302.652
302.798
302.823
303.011
303.116
303.142
303.148
303.149
303.148
303.145
303.139
303.128
303.112
303.088
303.055
303.014
302.966
302.917
302.879
302.876
302.923
302.934
302.891
303.003
303.112
303.14
303.148
303.149
303.149
303.149
303.147
303.144
303.139
303.133
303.123
303.111
303.095
303.076
303.053
303.028
303.003
302.964
302.904
302.997
303.109
303.139
303.148
303.149
303.15
303.149
303.149
303.147
303.145
303.141
303.136
303.128
303.117
303.102
303.083
303.058
303.023
302.975
302.909
302.99
303.105
303.138
303.147
303.149
303.15
303.15
303.149
303.149
303.147
303.145
303.141
303.135
303.127
303.114
303.095
303.069
303.033
302.982
302.912
302.985
303.102
303.136
303.147
303.149
303.15
303.15
303.15
303.149
303.149
303.147
303.145
303.14
303.133
303.122
303.105
303.079
303.041
302.988
302.915
302.979
303.099
303.135
303.146
303.149
303.15
303.15
303.15
303.15
303.149
303.148
303.147
303.144
303.138
303.129
303.113
303.088
303.05
302.995
302.918
302.975
303.097
303.133
303.146
303.149
303.15
303.15
303.15
303.15
303.15
303.149
303.148
303.146
303.141
303.133
303.119
303.096
303.058
303.001
302.92
302.971
303.094
303.132
303.146
303.149
303.15
303.15
303.15
303.15
303.15