/*--------------------------------*- C++ -*----------------------------------*\
  =========                 |
  \\      /  F ield         | OpenFOAM: The Open Source CFD Toolbox
   \\    /   O peration     | Website:  https://openfoam.org
    \\  /    A nd           | Version:  8
     \\/     M anipulation  |
\*---------------------------------------------------------------------------*/
FoamFile
{
    version     2.0;
    format      ascii;
    class       volScalarField;
    location    "400";
    object      alphat;
}
// * * * * * * * * * * * * * * * * * * * * * * * * * * * * * * * * * * * * * //

dimensions      [1 -1 -1 0 0 0 0];

internalField   nonuniform List<scalar> 
1200
(
0.00940238
0.00930833
0.00918832
0.00904519
0.00890487
0.0087212
0.0083382
0.00789285
0.00800769
0.00870063
0.00938984
0.0100656
0.0108214
0.0116211
0.0123578
0.0130012
0.0136904
0.014434
0.0151323
0.00600695
0.00602786
0.00603692
0.0060464
0.00614317
0.00635854
0.00645152
0.00646267
0.0064459
0.00644044
0.00646319
0.00655526
0.00689991
0.0071523
0.00721237
0.00725566
0.00734667
0.00763359
0.00822604
0.00904847
0.00998117
0.0110006
0.0120583
0.013085
0.0139992
0.0147119
0.0152398
0.0156448
0.0161174
0.0167473
0.0170251
0.0172988
0.0186157
0.0232654
0.0287916
0.0311946
0.0320411
0.0404413
0.0491562
0.0496405
0.0494843
0.00731754
0.00635813
0.00552358
0.00480952
0.00424819
0.00384083
0.00329073
0.00319753
0.0046372
0.00766197
0.00824059
0.00773527
0.0070389
0.00655463
0.00628817
0.00609731
0.00628283
0.00677853
0.00772693
0.00848512
0.0089248
0.00935732
0.0103453
0.0119893
0.0127815
0.013043
0.013814
0.0152251
0.0146567
0.0136967
0.002814
0.00448303
0.00506708
0.00478512
0.00428126
0.00477314
0.00573282
0.00680822
0.00801709
0.00913532
0.0102086
0.0112273
0.0121913
0.0131081
0.0139909
0.0148555
0.0157139
0.0165934
0.0175482
0.0186423
0.0198629
0.0211766
0.0225052
0.023844
0.0250423
0.0260545
0.0277986
0.0291588
0.02954
0.0300492
0.00730801
0.00630741
0.00542334
0.00464771
0.00398369
0.00345328
0.00327995
0.00500685
0.00600893
0.00630226
0.00446626
0.00290526
0.00330279
0.00442333
0.00551779
0.00580052
0.00592236
0.00560534
0.00640623
0.00849587
0.00978322
0.0110175
0.0124636
0.013837
0.0149403
0.00371511
0.00410444
0.00453045
0.00497857
0.00548475
0.00602747
0.00668721
0.00734607
0.00801361
0.00865832
0.00927627
0.0099551
0.0106651
0.0113969
0.0121625
0.0129586
0.0137677
0.0145786
0.0153849
0.0161842
0.0169797
0.01778
0.0185975
0.0194464
0.020343
0.0212901
0.0222786
0.0232955
0.0243157
0.0253194
0.0263
0.0272802
0.0278147
0.028189
0.0292204
0.00730629
0.00630672
0.00542374
0.00465249
0.0039887
0.00344051
0.00309317
0.00425472
0.00559871
0.00556387
0.00412
0.00408727
0.00411825
0.00495015
0.00622447
0.00699101
0.00742544
0.00766432
0.00787921
0.00876996
0.0102355
0.0115557
0.012963
0.0142147
0.0151564
0.00372864
0.00412797
0.00451392
0.00491864
0.00536521
0.00585366
0.00637955
0.00695152
0.00756608
0.00821786
0.00888518
0.00957061
0.0102798
0.011009
0.0117462
0.0124811
0.0132101
0.0139317
0.0146477
0.0153657
0.0160973
0.0168556
0.0176525
0.018496
0.0193862
0.0203276
0.0213308
0.0223983
0.0235108
0.0246067
0.0255676
0.0262584
0.0265307
0.0271836
0.0288355
0.00730621
0.00630285
0.0054197
0.00466172
0.00401357
0.00345414
0.00303113
0.00338436
0.00444201
0.00473405
0.00403703
0.00367188
0.00352612
0.00383264
0.00566184
0.00738496
0.0080694
0.008544
0.0088692
0.00913662
0.00970348
0.0104961
0.0116385
0.0129213
0.0139526
0.0148616
0.0158143
0.00378214
0.00425222
0.00472419
0.00513417
0.00551299
0.00600013
0.0066178
0.00726518
0.00791015
0.00855351
0.0092308
0.00994095
0.010641
0.011307
0.011943
0.0125489
0.0131292
0.0137016
0.0142951
0.0149425
0.0156739
0.0165115
0.0174376
0.0184586
0.0195934
0.0208463
0.0221676
0.0234296
0.0244041
0.0248181
0.0245101
0.0254476
0.027185
0.00730846
0.0062995
0.00542032
0.00466974
0.00403035
0.0034773
0.00302448
0.00294404
0.00346942
0.00377863
0.00358958
0.00329413
0.00301138
0.00266052
0.00241731
0.00320831
0.00522847
0.00689864
0.00773052
0.00787266
0.00770751
0.00758458
0.00843614
0.0113162
0.0124571
0.013329
0.0142575
0.0149967
0.0159701
0.003814
0.00412386
0.00445338
0.00491634
0.00553242
0.0062191
0.00678527
0.00730271
0.00789083
0.00858542
0.00926644
0.00987704
0.0104417
0.010949
0.0113853
0.0117591
0.0120997
0.0124518
0.0129014
0.0135768
0.0143349
0.0153766
0.0167587
0.0184336
0.0202504
0.021975
0.0231876
0.0235129
0.0218251
0.0181331
0.0157042
0.00731199
0.00629969
0.00541635
0.00467191
0.00404329
0.00350158
0.00304387
0.00276887
0.00285067
0.00297476
0.00292077
0.00275755
0.00255743
0.00234841
0.00215329
0.00207332
0.00222154
0.00268971
0.00357126
0.00482848
0.00557418
0.0057659
0.00574285
0.00760949
0.00987048
0.0113316
0.0124579
0.0133524
0.0140149
0.0142898
0.0150141
0.0163017
0.00394961
0.00434689
0.00484849
0.00525429
0.00569323
0.00630212
0.00711796
0.00783134
0.00835582
0.00885172
0.00930584
0.00967241
0.00994424
0.0101393
0.0102862
0.0104248
0.0106012
0.0109968
0.0115888
0.0125592
0.0140402
0.0169305
0.0197986
0.0216502
0.0220513
0.0206804
0.0188344
0.0173727
0.00731296
0.00629435
0.00540693
0.00465933
0.00404286
0.00351763
0.00306733
0.00272573
0.00256465
0.00248863
0.00239497
0.00227237
0.00214407
0.00200561
0.00185808
0.00175226
0.00172746
0.00178142
0.0019872
0.00245854
0.00281348
0.00291026
0.00294734
0.00343453
0.00472451
0.00665865
0.00870736
0.0103432
0.0114468
0.0120494
0.012383
0.0127488
0.0133609
0.0146653
0.00380699
0.00399082
0.00424695
0.00468303
0.00534118
0.00597968
0.00649848
0.00699549
0.00750886
0.00791383
0.00817422
0.00833132
0.00842036
0.00847492
0.00851881
0.00860295
0.00873922
0.00920905
0.0101318
0.0127193
0.016073
0.0188691
0.0198331
0.0193557
0.0186268
0.0179343
0.00732556
0.00633519
0.00546473
0.00473215
0.00413479
0.00363544
0.00319737
0.00282938
0.00255911
0.00237345
0.00222548
0.00209707
0.00198188
0.00187734
0.00177969
0.00169347
0.00162658
0.00158167
0.00157693
0.00164785
0.00171183
0.00173714
0.0017645
0.00186854
0.00216101
0.0027914
0.00388538
0.00529166
0.00667427
0.0077731
0.00853473
0.00910098
0.00963104
0.0102455
0.0109368
0.0116199
0.0126345
0.0144389
0.00390333
0.00424499
0.00459117
0.00500523
0.00543486
0.00577492
0.00603389
0.00622755
0.0063699
0.00648363
0.00659031
0.00669477
0.00676904
0.00695469
0.00745746
0.00894101
0.0115116
0.0143561
0.0158024
0.0159402
0.015697
0.0153807
0.00941906
0.00931327
0.00918839
0.00904726
0.0088798
0.00869083
0.00840163
0.00806492
0.00774628
0.00761242
0.00769755
0.00794852
0.00830382
0.00869578
0.00902632
0.00910116
0.00906671
0.00909613
0.00917481
0.00940671
0.00990114
0.010526
0.0110972
0.011474
0.0117248
0.0119586
0.0122919
0.0127465
0.0132733
0.0138305
0.0144348
0.0150881
0.0157315
0.0061079
0.00617993
0.00632623
0.00650846
0.00671832
0.00697247
0.00728325
0.00762745
0.00799952
0.00840183
0.00881599
0.00923865
0.0096684
0.0101035
0.0105458
0.0109938
0.0114478
0.0119063
0.0123635
0.012849
0.0135623
0.0150385
0.017491
0.0195555
0.0208442
0.0218862
0.0229046
0.00940164
0.0093215
0.00919039
0.0090383
0.00890057
0.00870938
0.00839632
0.00789744
0.00799733
0.00868265
0.00937616
0.0100571
0.0108088
0.0116086
0.0123415
0.0129768
0.0136363
0.0144347
0.0151281
0.00595353
0.00601381
0.00603647
0.00604573
0.00613929
0.00634713
0.00644028
0.00645389
0.00644657
0.00643549
0.00645254
0.00652878
0.00681343
0.00717321
0.00728555
0.00733466
0.00740996
0.00760902
0.00809304
0.00887483
0.00983379
0.0109233
0.0120895
0.0132578
0.0143377
0.0151031
0.0152939
0.0154196
0.015682
0.0160804
0.0167281
0.0173755
0.0177988
0.0213916
0.0271424
0.0302846
0.0317505
0.0392651
0.0489031
0.0496128
0.0494779
0.00731974
0.00635945
0.00551444
0.00481118
0.00427298
0.00389098
0.00330967
0.00318465
0.00458389
0.007609
0.00821355
0.00770869
0.00700321
0.00651756
0.00625488
0.00606718
0.00625366
0.00674473
0.00769153
0.00845675
0.00890063
0.00933574
0.0103143
0.0119338
0.0127365
0.0130208
0.0138532
0.0157541
0.014306
0.0134034
0.0139109
0.00400431
0.0050078
0.00502625
0.00449433
0.0046819
0.00558393
0.00664868
0.00785778
0.00902513
0.0101123
0.0111395
0.012109
0.0130306
0.0139198
0.0148024
0.0156248
0.0164496
0.0173623
0.0184004
0.0196123
0.021008
0.0223814
0.0236909
0.0248769
0.0258723
0.0276066
0.0291472
0.0295388
0.030048
0.00730852
0.00630608
0.00540954
0.00464517
0.00399224
0.00346207
0.00324981
0.00494283
0.00596305
0.00629292
0.00449128
0.00300066
0.00334964
0.00445117
0.00553576
0.00581093
0.00593716
0.00558672
0.00636936
0.00845439
0.00976091
0.0110082
0.0124657
0.0138419
0.0150968
0.0169227
0.00412101
0.00455588
0.00500988
0.00551506
0.0060421
0.00673774
0.00739112
0.00804051
0.00867349
0.00928618
0.00994266
0.0106481
0.0113841
0.0121576
0.0129601
0.0137727
0.0145838
0.0153852
0.0161736
0.0169547
0.0177385
0.0185393
0.0193764
0.0202673
0.0212157
0.0222121
0.0232376
0.0242642
0.0252668
0.0262432
0.0272433
0.0278791
0.0282613
0.02926
0.00731072
0.00630282
0.00541242
0.00465344
0.00399962
0.00344
0.00308013
0.00420176
0.00555648
0.00555558
0.00412973
0.00410734
0.00413809
0.004974
0.00624937
0.00700821
0.00744461
0.00768806
0.00790954
0.00879392
0.010276
0.0115889
0.0129762
0.0143186
0.0157863
0.0186292
0.00412226
0.00451973
0.00493079
0.00539015
0.0058847
0.00641492
0.0069771
0.00759771
0.0082483
0.00891803
0.00960184
0.0103077
0.0110327
0.0117645
0.0124936
0.0132166
0.0139329
0.0146458
0.0153635
0.0160981
0.0168622
0.0176653
0.018514
0.019407
0.0203521
0.0213557
0.0224132
0.0235079
0.0245948
0.0255664
0.0262999
0.0266515
0.0272932
0.0289003
0.00731462
0.00629714
0.00541283
0.00466531
0.00402217
0.00345843
0.00302664
0.00335489
0.00440664
0.00472043
0.00403822
0.00368765
0.00354136
0.00385325
0.0056905
0.00740854
0.00808873
0.00856541
0.00888959
0.00915759
0.00971433
0.0104936
0.0116343
0.0129322
0.013966
0.0149098
0.0158288
0.00380052
0.00429692
0.00492476
0.00522152
0.00558976
0.00603406
0.00663847
0.00729955
0.00795688
0.00860397
0.00928044
0.00998398
0.0106728
0.011328
0.0119525
0.0125481
0.0131233
0.0136984
0.0143028
0.0149702
0.0157272
0.0165821
0.0175155
0.0185411
0.0196766
0.0209027
0.0221892
0.0234385
0.0244358
0.0249275
0.024765
0.0255369
0.0268936
0.00731804
0.00629345
0.00541551
0.00467437
0.00403606
0.00348255
0.00302365
0.00293043
0.00344539
0.0037642
0.00358469
0.0033013
0.00300277
0.00264969
0.00242186
0.00325564
0.00529381
0.00694481
0.00775704
0.00788772
0.0077123
0.00757842
0.00843082
0.0113382
0.0124804
0.0133533
0.0142847
0.0150484
0.0159006
0.00380762
0.0041037
0.00445356
0.00497515
0.00563162
0.00625593
0.00683187
0.00736254
0.00796291
0.00864451
0.00930649
0.00990487
0.0104534
0.0109447
0.0113712
0.0117423
0.0120891
0.0124687
0.0129731
0.0136811
0.0144653
0.0155191
0.0169405
0.018584
0.0203166
0.0219834
0.0232142
0.0236541
0.0221859
0.0187879
0.0157066
0.00731956
0.00629338
0.00541311
0.00467989
0.00405068
0.00350372
0.00304322
0.00276377
0.00283775
0.00296435
0.00292025
0.00276448
0.00257054
0.0023639
0.00217555
0.00206983
0.00223262
0.00273725
0.00360282
0.00486285
0.00559982
0.00578363
0.00575593
0.00765871
0.00992822
0.0113819
0.0125031
0.0133961
0.0140252
0.0142822
0.0149316
0.0160511
0.00394609
0.00435631
0.0048228
0.00522371
0.00567226
0.00632572
0.00714291
0.0078463
0.00839419
0.00887403
0.009307
0.00966405
0.00993336
0.0101308
0.010295
0.0104727
0.0106382
0.0110655
0.0117788
0.0127502
0.0147877
0.0173215
0.0198742
0.0216897
0.0222032
0.0209176
0.0190524
0.017568
0.00731881
0.00628816
0.00540422
0.00466883
0.00405438
0.00351995
0.00306462
0.00272116
0.00255845
0.00248455
0.00240005
0.00228862
0.00217032
0.00200509
0.00184411
0.00174437
0.00172288
0.00177208
0.00197939
0.0024614
0.0028141
0.00290582
0.00294732
0.00345865
0.00478699
0.00675082
0.00880937
0.0104279
0.0114945
0.0120574
0.0123472
0.012679
0.0132702
0.0145024
0.00378431
0.00395787
0.00422069
0.00466887
0.00530476
0.00592501
0.0064731
0.0069845
0.00747579
0.00789541
0.00817393
0.00834343
0.00844514
0.00852138
0.0085778
0.00869462
0.00888177
0.00935183
0.0106833
0.013233
0.0161781
0.0188759
0.0199446
0.0194972
0.0187384
0.0180265
0.00732735
0.00633016
0.00546399
0.00472987
0.00414064
0.00364002
0.00319519
0.00282469
0.00255597
0.00237285
0.00222729
0.0021004
0.00198404
0.00187874
0.0017802
0.00169479
0.00162752
0.00158086
0.00157463
0.00164606
0.00170734
0.0017293
0.00175877
0.00187509
0.00218855
0.00284326
0.00396541
0.00538733
0.00674726
0.00780528
0.0085287
0.0090643
0.00956311
0.0101305
0.0107646
0.0114072
0.0123961
0.0141154
0.0038502
0.00418197
0.00454944
0.0049794
0.00540864
0.00575799
0.00602948
0.0062348
0.00638884
0.00652415
0.00665476
0.0067653
0.006846
0.00705604
0.00769902
0.00917511
0.0115247
0.0142071
0.0156902
0.0158495
0.0156117
0.0153172
0.00940003
0.00929624
0.0091909
0.00906231
0.00891491
0.00871659
0.00841363
0.00806491
0.00773595
0.00759995
0.00768638
0.00794585
0.00831862
0.00874811
0.00909645
0.00914453
0.00913128
0.00920408
0.00931759
0.00950596
0.00994807
0.0105504
0.0111261
0.0115143
0.0117675
0.0119901
0.0123256
0.012788
0.0133191
0.0138894
0.0145329
0.0152414
0.00602257
0.0061177
0.00626011
0.00643887
0.00663894
0.00686069
0.00712034
0.00740731
0.00770989
0.00804357
0.00841612
0.00881659
0.00923659
0.00966889
0.0101091
0.0105557
0.0110074
0.0114644
0.0119255
0.0123843
0.0128762
0.0135854
0.015032
0.0174095
0.0194665
0.0207896
0.0218694
0.0229135
)
;

boundaryField
{
    wall
    {
        type            compressible::alphatJayatillekeWallFunction;
        Prt             0.85;
        value           uniform 0;
    }
    inlet
    {
        type            calculated;
        value           uniform 0.189515;
    }
    outlet
    {
        type            calculated;
        value           nonuniform List<scalar> 
20
(
8.06525
8.06525
8.06525
8.06525
8.06525
0.0157042
0.0173727
0.0179343
0.0153807
0.0229047
8.06525
8.06525
8.06525
8.06525
8.06525
0.0157064
0.017568
0.0180265
0.0153173
0.0229136
)
;
    }
    heatWall
    {
        type            compressible::alphatJayatillekeWallFunction;
        Prt             0.85;
        value           nonuniform List<scalar> 
240
(
0.00041372
0.000413793
0.000410298
0.000410518
0.000407026
0.000407201
0.000403482
0.000403228
0.00039819
0.000397988
0.000390598
0.000390702
0.000379443
0.0003797
0.000366828
0.000366805
0.000355167
0.000354837
0.000350438
0.000350114
0.000353664
0.000353567
0.000363005
0.000363295
0.000376231
0.0003771
0.000390899
0.000392798
0.000402646
0.000404988
0.000404082
0.000406547
0.000403069
0.0004069
0.000405352
0.000410201
0.000409762
0.000414688
0.000418649
0.000421516
0.000434648
0.000436016
0.000453397
0.000454621
0.000469879
0.000471623
0.000481775
0.000483242
0.000490759
0.00049147
0.000498854
0.000499268
0.000509272
0.00051024
0.00052304
0.000524588
0.000538733
0.000541118
0.00055625
0.000559768
0.000576098
0.000581515
0.000595963
0.000602716
0.000609805
0.000614942
0.00062083
0.000632096
0.000637925
0.000652895
0.000658976
0.000675685
0.000681549
0.000698354
0.000704991
0.000719997
0.000731847
0.000743188
0.000761862
0.000768271
0.000795179
0.00079716
0.00083339
0.000832594
0.00087642
0.000874341
0.000922658
0.000920443
0.00097087
0.000969042
0.00102012
0.00101888
0.00106997
0.00106933
0.00112035
0.00112024
0.00117125
0.00117153
0.00122269
0.0012232
0.00127416
0.00127474
0.00132452
0.00132513
0.00137804
0.00137855
0.00145903
0.00145914
0.00163313
0.00163264
0.00190674
0.00190207
0.00212562
0.00212237
0.00226587
0.00226585
0.00238155
0.0023834
0.00249315
0.00249538
0.000413936
0.00041442
0.000410536
0.000410827
0.000406325
0.000406096
0.000401866
0.000401735
0.000397331
0.00039742
0.000391014
0.000390908
0.000377333
0.000379587
0.000361072
0.000361391
0.000365253
0.000364968
0.000389988
0.000389467
0.000413842
0.000413458
0.000436764
0.000436497
0.000462133
0.000461678
0.000488517
0.00048787
0.000512299
0.000511503
0.000532654
0.000531731
0.000554164
0.000552774
0.000576159
0.000576295
0.000597613
0.000597497
0.000607617
0.00060671
0.000608474
0.000608058
0.000608796
0.000608697
0.000609928
0.00060976
0.000621424
0.000620925
0.000647294
0.0006459
0.000657809
0.000656483
0.000658612
0.00065774
0.0006562
0.000655809
0.000656291
0.000655246
0.000660213
0.000658278
0.000676475
0.000670796
0.000707891
0.000703713
0.00072656
0.000731565
0.000731393
0.000739552
0.000737822
0.000745884
0.000756995
0.00076038
0.000802624
0.000795998
0.000878126
0.000862971
0.000972824
0.000954795
0.00107788
0.00106025
0.00119158
0.00117599
0.00130856
0.00129542
0.0014222
0.00141005
0.00152612
0.00151058
0.00161768
0.00159106
0.00169951
0.00165636
0.00177408
0.00171904
0.00185233
0.00178711
0.00194458
0.00186795
0.00200765
0.00194877
0.00208104
0.00203751
0.00228952
0.00216885
0.00273969
0.00256919
0.00321743
0.003116
0.00338302
0.00335643
0.00349825
0.00348166
0.0045435
0.00441866
0.00531871
0.00530218
0.0053629
0.00536025
0.00534452
0.00534388
)
;
    }
}


// ************************************************************************* //
