/*--------------------------------*- C++ -*----------------------------------*\
  =========                 |
  \\      /  F ield         | OpenFOAM: The Open Source CFD Toolbox
   \\    /   O peration     | Website:  https://openfoam.org
    \\  /    A nd           | Version:  8
     \\/     M anipulation  |
\*---------------------------------------------------------------------------*/
FoamFile
{
    version     2.0;
    format      ascii;
    class       volScalarField;
    location    "400";
    object      p_rgh;
}
// * * * * * * * * * * * * * * * * * * * * * * * * * * * * * * * * * * * * * //

dimensions      [1 -1 -2 0 0 0 0];

internalField   nonuniform List<scalar> 
1200
(
21047.7
21047.7
21047.7
21047.8
21047.9
21048
21048.4
21048.2
21048.2
21049.5
21049.2
21046.2
21045.1
21044.8
21042.5
21041.5
21041.6
21035.4
21031.8
21019.7
21007.4
20998
20989.1
20980.7
20971.7
20960.2
20940.3
20918.4
20900.3
20882.4
20885.5
20858
20786.4
20712.4
20673.6
20652.6
20625
20579.6
20505
20403.1
20270.3
20096.5
19884.5
19656.6
19439.3
19247.3
19090.4
18972.4
18892.7
18846
18838.4
18853.4
18401.8
16117
11761.8
9756.55
10667.8
7556.12
2831.74
389.594
21047.6
21047.6
21047.6
21047.7
21047.9
21048
21048.5
21048.3
21049.2
21049.8
21047.1
21041.6
21044.1
21045.3
21043.3
21042.7
21045.1
21037.2
21035.3
21020.2
21007.4
20997.9
20989.1
20980.8
20972.4
20961.2
20939.4
20918
20900
20883.6
20888.7
20861.5
20784
20706.5
20670.5
20652.3
20624.5
20580.7
20508.4
20409.8
20281.5
20112.2
19902.9
19673.5
19451.5
19255.5
19095.1
18974
18890.8
18842.2
18832.6
18850.3
18462.6
16454.8
12160.5
9339.53
9849.11
6040.46
1706.49
-1827.41
21047.6
21047.6
21047.7
21047.7
21047.9
21048
21049
21049
21048
21045.6
21040.2
21039.4
21042.2
21043.3
21040.4
21039.6
21042.7
21032.3
21033.2
21017
21004.4
20996
20988.4
20980.2
20971.7
20960.5
20941.9
20919.4
20900.4
20884.2
20883
20852.4
20789.4
20723.4
20679.2
20649.2
20617.9
20572.7
20500.4
20403
20279.9
20119.5
19920.6
19699.2
19477.6
19272.8
19095.1
18946.5
18820.6
18723.9
18636.9
18516
18091.6
16676.7
13863.9
11015.3
8346.6
3697.8
711.483
-230.868
21047.6
21047.6
21047.6
21047.7
21047.8
21047.7
21048.1
21048.6
21048.4
21044.8
21042.1
21039.5
21040.8
21040.3
21038.4
21038.5
21041.2
21034.5
21030.9
21015.4
21002.7
20993.9
20986.9
20979.7
20971.2
20959.8
20943
20923.2
20903.4
20881.7
20859.8
20829.4
20785.9
20737.8
20695.1
20655.4
20620.7
20581.7
20514.1
20418.3
20300.2
20145.7
19950.1
19727.4
19498.3
19278.9
19080.3
18901.6
18723.2
18571.5
18434.6
18245.6
17831.4
16851
14939.3
11992.9
7033.02
1650.09
-236.014
-684.567
21047.6
21047.6
21047.6
21047.7
21047.7
21047.6
21047.6
21047.4
21046.6
21044
21040.9
21039
21036.8
21036.2
21035.8
21035.7
21034.4
21029.3
21025.9
21014.2
21002.9
20994.4
20987.4
20980
20970.7
20959.2
20943
20924.7
20905.9
20882.9
20853.7
20821.9
20785.9
20743.8
20699.8
20653.3
20615.6
20580.1
20513.9
20418.1
20305.4
20158.4
19968.9
19750.8
19524.7
19305.1
19102.3
18913.2
18703.9
18524
18363.5
18145.1
17759.9
17059.6
15619.2
12492
6555.09
1215.97
-92.7263
-81.8171
21047.6
21047.6
21047.6
21047.6
21047.6
21047.5
21047.2
21046.6
21045.7
21043
21040.7
21038.2
21036.6
21035.7
21034.5
21033.3
21029.2
21024.5
21022.6
21015.1
21004.9
20997.1
20990.9
20983.2
20972.9
20959.9
20943
20924.8
20906.5
20883.9
20853.2
20820.2
20785.8
20744.6
20701
20652.6
20613.1
20580.7
20515.9
20419.1
20309.4
20166.5
19979.2
19762.5
19537.9
19319.5
19117.1
18928.7
18709.7
18515.4
18356.9
18155.9
17778.6
17137.5
15841
12679.2
6472.17
1090.16
-252.133
-15.2323
21047.6
21047.6
21047.6
21047.6
21047.5
21047.3
21046.9
21045.9
21044.5
21041.8
21039.2
21037.2
21035.7
21034.6
21033.3
21032.4
21027.4
21022
21018.6
21014.1
21006.6
21001
20996.5
20989.6
20977.7
20962.8
20945
20925.6
20904.8
20880.3
20850.4
20818.9
20784.5
20744.5
20701.4
20656.8
20621
20587.7
20516.1
20414.2
20306.7
20168.3
19983.6
19768.7
19544.5
19325.9
19121.6
18935.5
18733.6
18524.7
18346.2
18177.9
17779.6
17115.4
15816
12752.3
6809.86
1339.47
-78.3238
15.1837
21047.6
21047.6
21047.6
21047.6
21047.5
21047.2
21046.7
21045.6
21043.9
21041.1
21038.3
21036.1
21034.7
21033.6
21032.2
21030.5
21025.3
21019.8
21015.9
21011.8
21005.7
21001
20997.7
20992.3
20981.8
20966.3
20947.6
20927.4
20904.6
20876.8
20843.7
20809.4
20774.7
20737.1
20697
20655.2
20619.9
20585.4
20519.3
20426.7
20321.2
20175.7
19987.7
19773.2
19550.8
19333.2
19127.5
18936.2
18741.1
18537.9
18352.2
18164.5
17770.9
17072.7
15737.3
12764.5
7175.94
1963.58
220.066
106.75
21047.6
21047.6
21047.6
21047.6
21047.5
21047.2
21046.6
21045.4
21043.6
21040.8
21037.9
21035.7
21034.2
21033
21031.2
21029.2
21024.2
21018.8
21014.5
21010
21004.1
20999.7
20996.5
20991.3
20980.9
20965.6
20947.3
20926.9
20902.6
20872.2
20835.9
20797
20758
20719.6
20681.3
20643.4
20610.1
20575.5
20514.3
20426.5
20321.2
20179.5
19998.8
19790.3
19570.2
19351.9
19143.3
18944.8
18745
18543.2
18353.7
18140.3
17743.9
17027.3
15665
12794.6
7554.96
2577.28
543.477
225.586
21047.8
21047.7
21047.7
21047.6
21047.5
21047.2
21046.6
21045.4
21043.5
21040.7
21037.8
21035.5
21033.9
21032.4
21030.5
21028.3
21023.4
21018.3
21014
21009.5
21003.7
20998.9
20995.2
20989.3
20978.8
20963.4
20945.2
20924.9
20900.1
20869
20831.9
20791.3
20749.8
20709.5
20671.2
20634.7
20602
20567.4
20508.8
20424
20319.6
20180.4
20002.4
19795.9
19576.7
19358.6
19149.7
18950.1
18749.9
18548
18352.6
18125.3
17723.4
17004.4
15661.6
12899.1
7894.38
3025.69
799.662
333.336
21047.8
21047.7
21047.7
21047.8
21047.9
21048
21048.4
21048
21048.1
21049.6
21049.3
21046.2
21045.1
21044.8
21042.5
21041.4
21041.7
21035.3
21031.9
21019.6
21007.2
20997.6
20989
20980.4
20971.1
20960.1
20940.3
20918.9
20900.8
20882.5
20885.7
20858.1
20786.5
20712.5
20673.9
20653
20625.6
20580.4
20506
20404.5
20271.8
20098.3
19886.5
19658.7
19441.7
19249.7
19093.7
18974.7
18893.2
18851.8
18839.5
18850.8
18405
16102.5
11720.8
9699.12
10652.9
7610.3
2863.98
344.928
21047.6
21047.6
21047.6
21047.7
21047.8
21047.9
21048.4
21048
21048.2
21048.8
21046.2
21040.9
21043.4
21044.3
21042.2
21041.7
21044.1
21036.4
21033.3
21018.4
21005.8
20996.5
20988.5
20980.1
20971.4
20961
20939.6
20918.7
20900.6
20883.9
20889.1
20862.1
20784.6
20706.5
20670.2
20652.2
20624.5
20580.7
20508.3
20409.7
20281.4
20112.1
19903.1
19673.7
19451.5
19254.9
19094.9
18972.9
18887.9
18845.5
18832.3
18838.2
18460.6
16478.3
12213
9353.1
9871.38
6074.74
1710.11
-1816.94
21047.6
21047.6
21047.7
21047.8
21047.8
21047.9
21048.8
21048.6
21047.6
21045.5
21040.1
21039
21041.9
21043
21040
21039.3
21042.1
21031.6
21032
21016.3
21003.9
20995.7
20988
20979.7
20971.4
20960.7
20942.3
20920.2
20901.1
20884.9
20883.7
20853.1
20790
20723.9
20679.8
20650.3
20619.5
20574.9
20503.2
20406.3
20283.3
20122.7
19923.7
19702
19479.7
19273.7
19095.5
18946.4
18820.4
18726.2
18635.8
18509.7
18082.9
16659
13851.6
11046.2
8411.89
3737.29
668.365
-344.933
21047.6
21047.6
21047.7
21047.7
21047.8
21047.7
21048
21048.1
21047.8
21045.1
21042.5
21039.6
21040.8
21040.6
21038.9
21039
21041.7
21034.3
21031.1
21016
21003.3
20994.4
20987.1
20980
20971.7
20960.3
20943.5
20923.8
20904.2
20883
20861
20830.2
20786.7
20738.5
20696.2
20657
20622
20582.9
20515.5
20420.2
20302.2
20147.8
19952.6
19730.5
19501.5
19282.1
19083.4
18904.6
18727.4
18573.6
18430.2
18242.3
17840.3
16876.4
14981.7
12050.2
7104.51
1702.17
-222.795
-655.067
21047.6
21047.6
21047.7
21047.7
21047.7
21047.6
21047.5
21047.3
21046.5
21044.2
21041.2
21039.2
21037.1
21036.5
21036.2
21036.2
21034.9
21030
21026.4
21015
21003.9
20995.9
20988.7
20981.1
20971.6
20960
20943.8
20925.3
20906.6
20884
20854.8
20822.8
20786.9
20744.9
20701.1
20655.6
20617.7
20582.2
20516.3
20421
20308.3
20161.1
19971.7
19753.9
19527.6
19307.9
19104.7
18915.1
18709.1
18525.6
18357.7
18144.3
17773.8
17089.6
15664.6
12541
6581.45
1213.43
-102.797
-54.6972
21047.6
21047.6
21047.7
21047.7
21047.6
21047.4
21047.2
21046.6
21045.7
21043.1
21040.8
21038.3
21036.7
21035.9
21034.7
21033.8
21029.6
21025
21023.5
21016.2
21006
20997.9
20991.7
20984.2
20974
20961
20944.1
20925.6
20907.4
20885.1
20854.5
20821.3
20787.2
20745.9
20702.3
20654.8
20615.2
20582.7
20517.9
20421.1
20311.2
20168
19981
19764.5
19539.8
19321.4
19118.8
18929.8
18716.6
18519.6
18353.1
18156.4
17790.7
17162
15880.5
12731.4
6510.71
1085.43
-281.902
3.29745
21047.6
21047.6
21047.6
21047.6
21047.6
21047.3
21046.9
21046
21044.6
21041.9
21039.3
21037.2
21035.9
21034.7
21033.5
21032.5
21027.5
21022.3
21018.8
21014.4
21006.8
21001.5
20997
20990.5
20978.4
20963.6
20946
20926.3
20905.5
20881.4
20851.4
20819.8
20785.5
20745.7
20702.8
20658.6
20622.8
20590.3
20518.6
20416.6
20308.3
20169.5
19984.9
19770.1
19545.7
19327.1
19122.6
18936.7
18738.9
18528.9
18343.8
18175.5
17796.2
17143.1
15845.9
12792.7
6845.01
1339.44
-102.161
7.91319
21047.6
21047.7
21047.7
21047.6
21047.5
21047.3
21046.7
21045.6
21044
21041.2
21038.4
21036.2
21034.8
21033.7
21032.3
21030.5
21025.2
21019.8
21015.9
21011.9
21005.7
21001
20997.5
20992.4
20982.2
20966.9
20948.3
20927.7
20904.9
20877.2
20844.2
20810
20775.4
20737.7
20697.6
20656.1
20620.9
20586.8
20521.3
20428.7
20323.2
20177.4
19989.4
19774.7
19552
19334.1
19128.2
18937
18744.9
18541.6
18350.6
18163.9
17779.6
17088.3
15763.1
12796.7
7209.09
1976.09
225.563
112.538
21047.6
21047.6
21047.6
21047.6
21047.5
21047.2
21046.6
21045.5
21043.7
21040.9
21038.1
21035.8
21034.3
21033.1
21031.3
21029.2
21024.1
21018.7
21014.4
21009.9
21004
20999.6
20996.3
20991.2
20981
20965.9
20947.7
20927
20902.5
20872.1
20835.6
20796.6
20757.5
20719
20680.6
20643
20609.9
20575.5
20514.7
20427.3
20322.2
20180.8
20000.3
19792
19571.9
19353.5
19144.7
18946.2
18748.4
18546.7
18353.9
18141.2
17749.9
17037.6
15679.7
12816.4
7577.94
2595.02
558.973
236.351
21047.8
21047.7
21047.7
21047.6
21047.5
21047.2
21046.6
21045.5
21043.6
21040.8
21037.9
21035.6
21033.9
21032.5
21030.5
21028.1
21023.2
21018.1
21013.8
21009.3
21003.5
20998.8
20994.9
20989.2
20978.7
20963.5
20945.2
20924.4
20899.6
20868.7
20831.5
20791
20749.6
20709.2
20670.7
20634.2
20601.4
20566.8
20508.4
20423.9
20319.9
20181
20003.4
19797.2
19578.3
19360.3
19151.1
18951.4
18752.9
18551.5
18353.9
18126.8
17729.4
17016.8
15678.6
12918
7910.07
3040.59
813.886
340.72
)
;

boundaryField
{
    wall
    {
        type            fixedFluxPressure;
        gradient        nonuniform List<scalar> 
1200
(
-0.709122
0.290477
1.09846
0.492152
-0.171742
-0.218409
0.352582
0.962651
0.508213
0.681151
-1.35896
-1.30049
-2.34231
-3.19949
-3.96317
-3.26959
-1.97458
-1.40842
-1.24255
-1.94621
-3.87564
-3.27602
-4.5834
-4.62047
-6.93844
-6.51099
-3.92758
-2.94054
-0.827132
-0.396752
-3.9536
-3.74775
-3.0984
-2.92612
-6.30113
-5.93225
-2.15373
-0.0833912
2.09787
2.97546
-1.06516
1.32845
7.64618
5.17042
0.167299
-4.03828
-3.51707
-3.74096
-2.51945
-2.86251
4.39524
7.82933
18.5519
16.2773
14.6849
5.62557
0.169942
-3.60651
-3.69952
-3.37673
-0.491285
8.38137
42.3198
25.9288
14.4271
2.29465
-3.66092
-6.48245
-5.9005
-3.17545
29.3205
67.4383
85.8785
94.1544
18.7092
9.35936
-7.02804
-12.3019
-15.2219
-12.1063
20.235
193.386
73.4347
110.353
11.3518
8.78914
-13.0547
-15.0211
-20.3473
-13.1922
-26.2801
197.777
23.0815
-52.5079
-37.8635
-26.1204
-21.1253
-18.1543
-22.0356
-10.1431
-18.3451
174.471
32.2972
-72.7234
-53.9932
-14.0871
-10.8774
-16.7471
-24.9347
-9.52095
-7.55048
159.136
73.4378
-21.6906
-54.8905
-30.9644
-14.3023
-20.8865
-28.6021
-9.04986
4.78159
157.29
65.7345
-2.57578
-77.726
-35.7274
-18.7228
-26.5451
-31.9035
-7.72961
3.29236
207.489
69.326
-65.4957
-76.5258
-44.3718
-23.0565
-29.0759
-31.1126
-2.88653
2.51864
220.604
87.959
-91.0173
-79.8861
-48.1409
-19.4442
-19.7674
-16.7797
11.6153
14.3959
211.409
76.3101
-99.9699
-100.92
-95.0488
-23.7409
-19.2731
-4.9883
23.1727
-13.4687
200.519
127.403
-86.6095
-95.5774
-101.704
-12.4655
-3.66809
18.1346
37.4334
21.3414
165.662
138.924
63.4747
-140.954
-115.994
-42.6192
-0.370726
20.9675
40.4756
-8.93408
377.984
226.009
-22.8566
-103
-174.96
-46.8303
-2.94765
19.3725
36.4462
28.0859
361.094
140.664
-117.287
-157.633
-237.308
-49.0521
-12.383
18.2408
35.385
25.305
308.621
89.9665
-111.797
-202.482
-210.206
-27.8986
0.987409
19.4446
25.6316
81.2357
279.628
69.5224
-96.27
-304.817
-178.788
-88.9241
16.5261
14.0516
23.4716
5.75347
125.496
59.1533
-53.0762
-267.13
-157.021
-95.5688
43.4575
43.3974
48.5949
73.4586
129.706
104.768
-62.255
-218.163
-209.198
-183.515
-11.4842
19.9447
30.4303
113.182
195.143
62.8406
-100.378
-172.691
-212.015
-138.022
-71.0955
2.17498
5.96202
13.416
33.9971
-39.6056
-95.5423
-152.224
-219.53
-154.503
-109.739
-40.7649
-9.40722
2.51687
-40.7177
-73.4886
-107.874
-152.264
-226.299
-199.03
-131.141
-71.9647
1.99092
-99.4487
-137.742
-164.986
-131.126
-116.975
-156.74
-139.5
-49.8135
-0.498512
89.3742
-90.9189
-124.574
-126.464
-180.811
-124.007
-167.142
-154.162
-37.5175
24.4329
95.7791
-2.45759
-73.5413
-120.462
-250.454
-208.731
-226.745
-219.047
-84.6558
24.0763
66.0728
-41.2595
-98.4953
-144.05
-223.494
-209.805
-234.817
-185.314
-101.559
59.4474
60.1938
-14.6108
-133.4
-129.853
-154.481
-183.937
-208.628
-165.242
-111.033
83.2567
33.6154
-27.1343
-100.821
-111.362
-147.4
-201.312
-269.841
-179.34
-121.827
80.8186
6.55715
-24.0047
34.6013
-103.054
-150.739
-207.006
-248.476
-227.508
-94.5786
103.946
21.6353
-53.3094
67.6283
-138.966
-218.477
-263.231
-253.987
-249.668
-92.247
128.133
66.1271
-78.2472
-4.08778
-225.708
-317.683
-453.487
-435.348
-341.316
-152.888
88.6946
80.6698
-121.017
-18.0518
-320.459
-250.017
-419.156
-419.748
-361.026
-177.911
56.2916
97.4652
-162.472
6.25057
-442.353
-249.162
-418.096
-404.227
-489.25
-249.32
21.4511
113.389
-203.695
22.4602
-554.907
-280.233
-480.361
-384.531
-494.154
-362.706
-58.8622
77.6334
-268.477
28.2281
-660.015
-366.171
-582.942
-394.331
-449.095
-380.871
-132.564
3.17116
-313.411
30.0129
-679.262
-396.691
-578.499
-371.127
-321.539
-386.013
-185.642
-72.3574
-344.922
20.6741
-644.684
-396.975
-529.201
-315.312
-243.162
-325.405
-228.214
-125.619
-391.589
-29.4734
-638.39
-478.639
-544.712
-342.403
-260.444
-312.065
-275.213
-187.897
-430.141
-62.1403
-604.74
-579.238
-577.027
-394.682
-274.674
-283.25
-317.902
-260.689
-487.377
-60.6221
-475.432
-583.885
-527.313
-368
-229.455
-218.779
-328.853
-304.399
-489.912
21.9417
-258.371
-542.049
-482.146
-369.984
-222.867
-187.867
-330.328
-311.234
-685.412
-88.6787
-183.437
-502.874
-393.508
-310.312
-187.377
-127.264
-270.379
-249.508
-510.073
58.9118
-106.761
-463.393
-248.626
-148.478
-221.766
-140.055
-257.25
-229.852
-155.354
376.314
-97.3426
-712.588
-898.502
-1293.5
-1063.96
-744.367
-669.897
-573.685
-1255.41
-821.076
-584.375
-274.095
-172.192
-770.171
-806.992
-722.803
-700.484
-661.913
-368.086
-72.8906
177.792
1036.96
1306.9
814.291
546.392
344.907
-24.1688
-234.076
290.729
2208.3
1389.93
754.183
282.399
-57.694
426.134
110.009
-165.478
-277.916
-904.722
-6.77327
1971.03
-1763.86
-2761.37
-2463.44
-3402.81
-1822.29
-1229.24
-1211.29
2993.81
-5253.88
3614.4
-5185
-6107.33
-4922.74
-5557.86
-3333.28
-2186.57
-2508.25
8548.83
-9816.15
1993.45
-8537.91
-9168.89
-7945.09
-5921.4
-5199.6
-3090.51
-3453.46
10919.1
-1415.35
-7251.37
-11519.6
-9675.64
-10391.3
-7876.37
-6303.36
-4432.01
-3733.19
1838.88
-5202.22
-13602.7
-13815.3
-5009.53
-7267.52
-6606.25
-6183.69
-4399.51
-3015.52
-11213.8
-5821.31
-8008.12
-9168.11
708.8
1308.46
673.909
-2180.71
-3452.23
-2900.73
-6378.11
-279.482
8533.84
-1726.1
1792.01
5958.03
4684.89
-1061.74
-3047.67
-2734.26
8875.72
-1687.05
22747.3
-5488.96
-5209.91
-3458.22
1421.55
-1229.89
-2111.71
-1328.07
0.709108
-0.290523
-1.09854
-0.492169
0.171777
0.218434
-0.352602
-0.962666
-0.508197
-0.681132
1.35975
1.30047
2.34392
3.20148
3.964
3.26887
1.97362
1.40839
1.24272
1.9455
3.88168
3.27828
4.58969
4.62485
6.93673
6.50508
3.92236
2.94021
0.827216
0.394973
3.9666
3.75255
3.11067
2.92151
6.27364
5.90424
2.14215
0.0835008
-2.09883
-2.97549
1.05871
-1.33423
-7.63178
-5.18496
-0.230906
3.97237
3.49696
3.74237
2.52088
2.86815
-4.44039
-7.85104
-18.5364
-16.2848
-14.764
-5.71614
-0.211589
3.60281
3.70411
3.39135
0.409142
-8.43971
-42.2315
-25.8868
-14.42
-2.36452
3.61195
6.46254
5.90353
3.18836
-29.4227
-67.444
-85.7133
-93.9781
-18.6409
-9.33316
7.01605
12.2854
15.2319
12.1145
-20.3951
-193.221
-73.4474
-110.469
-11.3682
-8.78131
13.0675
15.0701
20.3603
13.1799
26.2978
-197.781
-23.1472
52.3246
37.7477
26.0723
21.1191
18.1597
22.0885
10.1534
18.4091
-174.468
-32.4357
72.9889
51.033
14.0347
10.8646
16.737
24.9376
9.58533
7.57563
-159.147
-73.2589
20.8774
55.0391
29.9004
14.2944
20.8476
28.4578
9.16201
-4.77707
-157.305
-65.8088
2.60064
75.3643
35.7293
18.7339
26.4486
31.5801
7.89696
-3.33552
-207.613
-69.4038
65.4417
76.3499
44.3091
22.9491
28.3854
30.6974
3.14547
-2.62199
-220.69
-88.0933
90.9123
79.9274
46.8192
19.3648
17.9705
16.5951
-11.2694
-14.5204
-211.65
-76.2967
99.7657
100.826
93.1903
23.7137
17.4031
5.02187
-22.7462
13.4262
-200.688
-127.114
86.398
95.485
99.7081
7.83747
0.890245
-18.0854
-36.685
-21.317
-165.722
-138.155
-63.5807
140.914
115.627
35.84
-1.25545
-20.8974
-39.3337
9.05637
-378.325
-225.199
22.8069
103.009
174.943
42.1104
1.89332
-19.1754
-35.5148
-27.9067
-361.308
-140.769
117.334
157.461
236.908
47.292
11.8598
-17.9345
-34.9346
-25.1226
-308.965
-90.3074
111.911
201.47
209.928
27.9217
-0.666764
-18.807
-25.2483
-81.1195
-280.039
-69.7124
96.2949
304.109
178.748
89.9894
-14.7946
-12.9217
-23.1479
-5.69079
-125.785
-59.5049
53.1595
266.926
157.322
97.1092
-40.46
-41.575
-48.3102
-73.4055
-129.966
-105.982
62.338
217.59
209.42
185.96
14.9215
-17.569
-30.143
-113.068
-195.631
-63.8323
100.418
172.181
211.233
140.526
73.9633
0.236073
-5.64503
-13.195
-34.3837
39.5999
95.7572
151.714
218.608
157.218
111.683
42.9489
9.72581
-2.41867
40.6606
74.5232
108.464
152.126
225.71
201.368
133.41
73.3712
-1.69689
101.54
137.869
166.717
131.745
117.151
154.988
140.648
52.7533
0.483582
-88.4814
91.8226
121.739
128.999
181.093
124.572
161.617
153.335
40.2805
-25.0805
-93.9765
0.095178
72.9339
125.87
251.326
209.545
218.206
213.58
85.2213
-24.9037
-62.3155
36.1607
99.9256
153.358
227.35
213.159
236.973
177.463
101.014
-60.2226
-51.8987
9.95001
135.11
141.436
160.458
184.984
209.313
158.565
110.428
-84.4188
-18.7242
23.448
103.248
125.116
155.385
203.494
270.284
173.921
120.62
-82.8333
17.3854
23.3317
-32.8222
117.591
162.231
212.567
250.199
225.074
90.7002
-106.882
12.0402
53.1647
-67.1263
153.542
233.186
272.56
261.808
247.892
83.6452
-131.705
-24.1292
78.0707
4.34111
241.27
335.04
463.867
442.068
337.224
139.357
-91.6738
-35.6758
121.017
18.2456
337.971
270.614
430.766
426.14
355.209
165.301
-57.8372
-53.9134
162.684
-6.10886
462.144
272.795
431.833
409.83
485.622
237.859
-22.5535
-77.2754
204.224
-21.4345
577.651
307.084
496.503
391.032
492.636
354.027
53.9528
-53.9537
269.197
-25.5198
687.044
396.247
600.399
400.627
449.515
363.895
125.989
7.30604
314.306
-25.6137
711.998
430.93
597.464
376.852
321.67
368.975
181.086
73.5275
345.824
-14.5623
683.976
437.257
550.918
321.546
243.349
315.015
227.775
123.974
392.366
37.3953
683.615
526.658
569.735
349.321
260.793
311.126
271.375
187.94
430.702
69.924
652.922
636.484
606.169
401.927
274.973
282.435
309.32
264.107
487.603
63.2457
520.739
651.913
562.414
376.164
229.719
217.976
317.594
311.36
490.642
-31.4515
294.658
621.461
524.727
379.549
223.068
187.126
317.58
320.806
687.225
63.5355
206.354
593.232
445.265
323.719
188.19
126.614
256.942
260.161
513.265
-97.3392
115.931
563.115
312.132
178.322
227.906
139.522
243.591
239.782
160.091
-413.198
101.583
815.421
968.921
1318.17
1068.46
744.003
655.967
581.335
1260.77
801.771
604.436
378.024
248.282
792.385
807.902
722.55
682.303
668.846
377.408
70.2094
-111.204
-929.89
-1232.96
-785.51
-542.218
-345.162
2.10982
241.192
-278.464
-2236.5
-1231.69
-651.342
-231.095
80.8846
-410.238
-110.698
147.893
283.064
914.298
-39.3621
-1730.96
1848.84
2782.34
2468.36
3421.91
1823.21
1217.57
1210.34
-2999.94
5185.91
-3356.78
5269.78
6123.79
4918.29
5565.13
3345.32
2175.35
2504
-8571.31
9926.82
-1847.92
8639.47
9228.12
7953.74
5931.86
5211.5
3088.17
3457.35
-10911.9
1821.05
7213.51
11603.6
9811.25
10429.2
7881.56
6329.87
4440.4
3760.93
-1805.77
6061.45
13444.7
14015.9
5359.16
7350.89
6603.7
6183.53
4429.23
3068.67
11312.6
6510.94
7611.99
9663.59
-237.233
-1121.97
-677.46
2178.38
3455.67
2957.89
6558.89
588.427
-8727.32
2245.25
-1753.94
-6134.6
-4688.47
1058.43
3037.1
2791.28
-8890.16
1690.09
-22734.4
5482.94
5205.89
3463.39
-1510.26
1225.84
2094.85
1388.36
)
;
        value           nonuniform List<scalar> 
1200
(
21047.7
21047.6
21047.6
21047.6
21047.6
21047.6
21047.6
21047.6
21047.6
21047.8
21047.7
21047.6
21047.6
21047.6
21047.6
21047.6
21047.6
21047.6
21047.6
21047.7
21047.7
21047.6
21047.7
21047.6
21047.6
21047.6
21047.6
21047.6
21047.6
21047.7
21047.7
21047.7
21047.7
21047.7
21047.7
21047.6
21047.6
21047.6
21047.6
21047.6
21047.9
21047.9
21047.9
21047.8
21047.7
21047.6
21047.5
21047.5
21047.4
21047.5
21048
21048
21048
21047.8
21047.7
21047.5
21047.3
21047.2
21047.2
21047.2
21048.4
21048.5
21049.1
21048.2
21047.7
21047.2
21046.9
21046.7
21046.6
21046.6
21048.2
21048.5
21049.2
21048.9
21047.4
21046.7
21045.9
21045.5
21045.4
21045.4
21048.2
21049.7
21048.1
21048.6
21046.6
21045.8
21044.5
21043.9
21043.5
21043.5
21049.4
21050.3
21045.6
21044.7
21043.9
21042.9
21041.7
21041.1
21040.7
21040.7
21049.2
21047.5
21040.3
21041.9
21040.8
21040.7
21039.2
21038.2
21037.9
21037.8
21046.1
21042.1
21039.6
21039.5
21038.8
21038.1
21037.1
21036
21035.6
21035.5
21045.1
21044.6
21042.4
21040.8
21036.6
21036.5
21035.7
21034.6
21034.1
21033.9
21044.8
21045.8
21043.5
21040.1
21036
21035.6
21034.6
21033.5
21032.9
21032.4
21042.6
21043.8
21040.6
21038.2
21035.6
21034.3
21033.3
21032.1
21031.2
21030.6
21041.5
21043.2
21039.8
21038.3
21035.4
21033.1
21032.3
21030.4
21029.2
21028.3
21041.6
21045.6
21043
21041
21034.2
21028.9
21027.4
21025.3
21024.3
21023.5
21035.5
21037.7
21032.7
21034.7
21028.9
21024.2
21022
21019.8
21018.9
21018.4
21031.8
21036.2
21033.7
21030.9
21025.6
21022.2
21018.5
21015.9
21014.5
21014.1
21019.8
21021.1
21017.4
21015.1
21013.8
21014.5
21014
21011.8
21010
21009.6
21007.4
21008.2
21004.6
21002.5
21002.4
21004.4
21006.5
21005.7
21004.1
21003.7
20998.2
20998.6
20996.2
20993.7
20993.6
20996.6
21000.8
21001.1
20999.7
20999
20989.1
20989.4
20988.5
20986.7
20986.7
20990.5
20996.3
20997.8
20996.6
20995.3
20980.9
20981.1
20980.5
20979.5
20979.4
20982.6
20989.1
20992.2
20991.3
20989.4
20971.9
20972.8
20971.9
20970.9
20970.3
20972.4
20977.3
20981.6
20980.9
20978.8
20960.2
20961.3
20960.4
20959.6
20958.8
20959.3
20962.5
20966
20965.5
20963.4
20940.3
20939.3
20941.7
20942.7
20942.6
20942.4
20944.5
20947.3
20947.1
20945.2
20918.2
20917.6
20919
20922.8
20924.4
20924.4
20925.2
20927.3
20926.9
20925.1
20900.1
20899.7
20900.1
20902.9
20905.6
20906.1
20904.4
20904.5
20902.6
20900.3
20882.4
20883.4
20883.9
20881.1
20882.4
20883.4
20879.8
20876.6
20872.3
20869.2
20885.4
20888.4
20882.7
20859.3
20853.2
20852.7
20850
20843.4
20836
20832
20858
20861.2
20852.1
20829
20821.4
20819.7
20818.5
20809.1
20797.2
20791.4
20786.3
20783.8
20789.1
20785.6
20785.4
20785.2
20784.1
20774.4
20758.1
20749.7
20712.3
20706.6
20723.2
20737.4
20743.3
20744
20743.9
20736.9
20719.8
20709.5
20673.5
20670.7
20678.8
20694.6
20699.2
20700.4
20700.9
20696.8
20681.6
20671.3
20652.4
20652.2
20648.6
20654.6
20652.2
20651.5
20656
20654.9
20643.6
20634.8
20624.7
20624.4
20617.1
20620.1
20614.6
20612.1
20620.1
20619.5
20610.3
20602.1
20579.1
20580.7
20571.6
20581.1
20579.1
20579.7
20586.5
20584.8
20575.6
20567.6
20504.4
20508.5
20499
20513.4
20512.7
20515
20514.9
20518.4
20514.2
20508.9
20402.4
20409.9
20401.4
20417.4
20416.6
20418.1
20413.1
20425.8
20426.2
20423.9
20269.4
20281.6
20278.2
20299.2
20304
20308.5
20305.9
20320.3
20320.8
20319.4
20095.6
20112.2
20117.8
20144.8
20157.2
20165.7
20167.7
20174.9
20179
20180.2
19883.4
19902.8
19918.9
19949
19967.6
19978.4
19983
19987
19998.2
20002
19655.4
19673.2
19697.6
19726.1
19749.5
19761.6
19768.1
19772.5
19789.6
19795.3
19438
19451.1
19476.3
19497
19523.5
19537
19544
19550.3
19569.4
19576
19246
19255.3
19272
19277.7
19304.1
19318.6
19325.4
19332.8
19351.1
19357.9
19088.6
19094.6
19094.5
19079.2
19101.5
19116.4
19121.2
19127.2
19142.7
19149.1
18970.9
18973.8
18946
18900.6
18912.8
18928.5
18935
18935.9
18944.3
18949.6
18892.1
18891.5
18820.1
18721.5
18701.9
18706.6
18731
18739.3
18743.4
18748.5
18842.6
18839.9
18722.3
18570.8
18523.7
18513.6
18522.8
18536.1
18541.5
18546.4
18837.2
18832.5
18637.4
18437.1
18366.8
18359
18347.6
18353.1
18353.7
18352
18853.8
18856
18520.1
18247.3
18145.6
18155.6
18178.6
18164.7
18140
18124.6
18399.8
18462
18097.4
17826.7
17752.7
17772.3
17770.9
17766.1
17740.8
17720.3
16125.9
16440.4
16686.2
16837.6
17044
17125.1
17101.6
17063.9
17021.6
16998.1
11784.4
12138.2
13867.6
14918.1
15596.3
15821
15801.1
15724.1
15656.9
15652.9
9781.23
9338.37
10994.8
11964.1
12468.6
12653.8
12733.1
12748.8
12783.3
12890
10668
9834.02
8313.55
6999.68
6543.45
6455.71
6794.61
7161.64
7544.47
7887.08
7528.4
6028.89
3679.73
1630.09
1219
1094.58
1342.65
1958.75
2568.98
3018.52
2815.56
1706.81
734.04
-238.022
-88.8086
-237.989
-66.9564
217.451
536.113
792.954
411.711
-1830.74
-174.353
-697.932
-94.2414
-23.1495
18.4057
103.595
220.549
330.233
21047.8
21047.6
21047.6
21047.6
21047.6
21047.6
21047.6
21047.6
21047.6
21047.8
21047.7
21047.6
21047.6
21047.6
21047.6
21047.6
21047.6
21047.7
21047.6
21047.7
21047.7
21047.7
21047.7
21047.7
21047.7
21047.7
21047.7
21047.7
21047.6
21047.7
21047.8
21047.7
21047.8
21047.7
21047.7
21047.7
21047.6
21047.6
21047.6
21047.6
21047.9
21047.8
21047.8
21047.7
21047.7
21047.7
21047.6
21047.5
21047.5
21047.5
21048
21047.9
21047.8
21047.6
21047.5
21047.4
21047.3
21047.3
21047.2
21047.2
21048.4
21048.4
21048.7
21047.9
21047.5
21047.1
21046.9
21046.8
21046.6
21046.6
21047.9
21047.8
21048.4
21047.9
21047.2
21046.5
21046
21045.7
21045.5
21045.5
21048
21047.7
21047.4
21047.5
21046.5
21045.6
21044.6
21044
21043.7
21043.6
21049.7
21048.3
21045.4
21045.2
21044.3
21043.1
21041.9
21041.3
21041
21040.8
21049.3
21045.8
21040
21042.7
21041.3
21040.8
21039.3
21038.4
21038.1
21037.9
21046.2
21040.5
21038.8
21039.7
21039.4
21038.4
21037.3
21036.2
21035.9
21035.6
21045.1
21043
21041.7
21040.8
21037.3
21036.8
21035.9
21034.9
21034.4
21033.9
21044.8
21043.8
21042.8
21040.8
21036.7
21036
21034.8
21033.8
21033.2
21032.5
21042.5
21041.7
21039.8
21039.1
21036.4
21034.8
21033.5
21032.3
21031.3
21030.4
21041.4
21041.2
21039.1
21039.3
21036.4
21034
21032.6
21030.6
21029.2
21028.1
21041.7
21043.6
21041.8
21041.9
21035.1
21029.9
21027.5
21025.2
21024.1
21023.2
21035.3
21035.9
21031.3
21034.1
21030.3
21025.3
21022.3
21019.8
21018.6
21018
21031.9
21032.4
21031.5
21031.2
21026.6
21023.9
21018.9
21015.9
21014.3
21013.7
21019.5
21017.5
21016
21016.3
21015.4
21016.8
21014.5
21011.9
21009.8
21009.2
21007.2
21005.1
21003.7
21003.6
21004.4
21006.5
21006.8
21005.7
21003.9
21003.5
20997.4
20995.8
20995.5
20994.6
20996.6
20998.4
21001.7
21000.9
20999.6
20998.8
20989
20988.1
20987.9
20987.3
20989.4
20992.1
20997.2
20997.4
20996.2
20994.8
20980.2
20979.8
20979.5
20980.1
20981.6
20984.7
20990.9
20992.4
20991.1
20989.1
20970.8
20970.9
20971.2
20971.9
20972
20974.5
20978.7
20982.4
20981
20978.7
20960.1
20960.9
20960.8
20960.5
20960.4
20961.5
20964
20967.1
20966
20963.5
20940.3
20939.7
20942.5
20943.8
20944.1
20944.7
20946.5
20948.6
20947.9
20945.2
20919.2
20919
20920.6
20924.1
20925.6
20926
20926.6
20927.8
20927
20924.2
20901
20900.9
20901.4
20904.7
20906.9
20907.7
20905.9
20905
20902.4
20899.3
20882.5
20884.1
20885.2
20883.6
20884.5
20885.6
20881.9
20877.5
20872.1
20868.5
20885.8
20889.4
20884.1
20861.5
20855.3
20855
20851.8
20844.5
20835.5
20831.3
20858.2
20862.4
20853.5
20830.6
20823.3
20821.8
20820.1
20810.2
20796.4
20791
20786.6
20784.8
20790.3
20787.1
20787.4
20787.9
20785.9
20775.6
20757.4
20749.6
20712.6
20706.3
20724.2
20738.9
20745.4
20746.5
20746.2
20737.9
20718.8
20709.3
20674
20670.1
20680.2
20696.8
20701.8
20703
20703.4
20697.7
20680.3
20670.7
20653.2
20652.3
20650.9
20657.8
20656.8
20655.9
20659.4
20656.4
20642.8
20634.1
20625.9
20624.6
20620.3
20622.6
20618.8
20616.3
20623.7
20621.3
20609.7
20601.4
20580.8
20580.7
20576.1
20583.6
20583.3
20583.8
20591.4
20587.3
20575.4
20566.6
20506.5
20508.3
20504.6
20516.2
20517.5
20518.8
20519.8
20522.1
20514.8
20508.3
20405.2
20409.7
20408
20421.1
20422.5
20422
20417.6
20429.6
20427.5
20423.9
20272.7
20281.3
20285.1
20303.2
20309.8
20312.1
20309.1
20324.1
20322.6
20320.1
20099.2
20112.1
20124.4
20148.8
20162.4
20168.8
20170.1
20178.1
20181.3
20181.3
19887.5
19903.3
19925.4
19953.9
19973
19981.8
19985.5
19990.1
20001
20003.8
19659.9
19674
19703.7
19732
19755.3
19765.4
19770.7
19775.3
19792.7
19797.9
19443
19451.9
19481.1
19503
19528.8
19540.7
19546.2
19552.5
19572.6
19579.1
19251.1
19255.1
19274.6
19283.5
19309
19322.3
19327.6
19334.6
19354.3
19361
19095.6
19095.4
19096.2
19084.6
19105.6
19119.5
19123
19128.4
19145.3
19151.7
18976.2
18973
18946.9
18905.8
18915.7
18930
18937.2
18937.2
18946.7
18952
18893.8
18887.2
18820.9
18729.3
18711.3
18719.8
18741.5
18746.7
18749.9
18754.4
18855.2
18847.7
18728
18574.5
18526
18521.5
18530.9
18543.3
18548.4
18553.1
18840.7
18832.5
18635.5
18427.8
18354.6
18351
18342.3
18349.7
18353.8
18354.5
18850.3
18832.5
18506.1
18240.8
18143.8
18156.7
18174.8
18163.7
18141.6
18127.5
18407.1
18461.1
18077.7
17845.3
17781
17797
17805
17784.5
17753
17732.5
16093.6
16492.5
16650.2
16890
17105.3
17174.4
17156.9
17097.3
17043.2
17023.1
11698.1
12235.6
13848.2
15003.2
15687.6
15900.5
15860.9
15776.4
15687.9
15687.3
9674.46
9355.35
11066.4
12079.2
12564.8
12756.8
12811.8
12812.5
12827.7
12927.2
10652.8
9888.53
8444.5
7138.44
6594
6527.37
6860.25
7223.38
7588.53
7917.53
7638.29
6087.83
3754.31
1723.39
1211.49
1081.28
1336.25
1980.92
2603.35
3047.92
2880.62
1710.34
645.334
-219.708
-106.645
-296.392
-113.537
228.171
566.319
820.74
322.775
-1813.61
-401.426
-641.711
-42.2808
11.2368
4.24253
115.684
241.331
343.971
)
;
    }
    inlet
    {
        type            fixedFluxPressure;
        gradient        nonuniform List<scalar> 
20
(
-0.00883745
-0.000336283
-5.66097e-06
-3.77239e-06