/*--------------------------------*- C++ -*----------------------------------*\
  =========                 |
  \\      /  F ield         | OpenFOAM: The Open Source CFD Toolbox
   \\    /   O peration     | Website:  https://openfoam.org
    \\  /    A nd           | Version:  8
     \\/     M anipulation  |
\*---------------------------------------------------------------------------*/
FoamFile
{
    version     2.0;
    format      ascii;
    class       surfaceScalarField;
    location    "400";
    object      phi;
}
// * * * * * * * * * * * * * * * * * * * * * * * * * * * * * * * * * * * * * //

dimensions      [1 0 -1 0 0 0 0];

internalField   nonuniform List<scalar> 
2860
(
0.00796797
5.70054e-06
-0.000381549
0.00791207
7.4576e-05
-0.00123282
0.00782642
9.01815e-05
-0.00362112
0.00768996
0.000144227
-0.00608394
0.00746544
0.000241391
-0.00676383
0.00703733
0.000430512
-0.00384592
0.00763126
-0.000492479
-0.00324294
0.00885935
-0.00111497
0.0259714
0.0104524
-0.00152879
0.07265
0.0116258
-0.000759462
0.0910561
0.0121358
-0.000220533
0.0981118
0.0120161
1.22904e-05
0.103368
0.0118782
-2.1998e-05
0.105563
0.0119241
-0.000349714
0.109011
0.0123246
-0.000732794
0.11205
0.0131231
-0.00110573
0.119286
0.0137928
-0.000971558
0.118428
0.0138897
0.000347177
0.135196
0.0146675
-0.000616981
0.152504
0.0158208
-0.000901952
0.187295
0.0169367
-0.000998453
0.214304
0.01805
-0.00116659
0.250185
0.0192533
-0.00153339
0.249566
0.0204034
-0.00144525
0.260345
0.0217112
-0.00171095
0.272278
0.0236765
-0.00281613
0.241319
0.0259933
-0.0033971
0.204443
0.0279506
-0.00323204
0.151174
0.0302486
-0.00274641
0.113765
0.033035
-0.00261369
0.0973862
0.0400754
-0.00504297
0.0835517
0.0494044
-0.00822102
0.0803665
0.0562271
-0.00715519
0.0779435
0.0578395
-0.00275888
0.0737702
0.0575617
-0.000491351
0.0674758
0.0593696
-0.00103811
0.0650256
0.0638718
-0.00240016
0.0668008
0.0704993
-0.0041836
0.0722904
0.0779991
-0.0052683
0.0775255
0.0859321
-0.00598807
0.0797877
0.0945152
-0.00685699
0.0812048
0.103589
-0.00744062
0.0817044
0.112724
-0.00738173
0.0791034
0.121512
-0.00625786
0.0723432
0.129973
-0.00397372
0.060671
0.137397
-0.00150914
0.0490374
0.142855
0.000771993
0.031397
0.146455
0.00299252
0.0217844
0.149109
0.00496953
0.027125
0.150045
0.00419505
-0.00663445
0.150218
0.0028143
-0.00791779
0.162209
-0.00241437
0.0321491
0.199928
-0.0242584
0.0709547
0.266143
-0.0520472
0.203365
0.299917
-0.0209171
0.401413
0.199479
0.105829
0.639864
0.00560454
0.222493
1.191
-0.147613
0.15796
1.85313
-0.220654
0.0683208
2.14888
0.0175842
2.4243
0.00794091
-4.53213e-05
0.000169078
0.00790198
3.72075e-05
-0.00065296
0.00783018
0.000110013
-0.00271932
0.00771801
0.000247441
-0.00511226
0.00754325
0.000437661
-0.0043584
0.00716182
0.000871944
0.000537351
0.00757934
-0.000213785
0.0111452
0.00804205
-0.000861528
0.0896032
0.00506068
0.00221845
0.265977
-0.000942529
0.00494077
0.397504
-0.00424866
0.00241492
0.401779
-0.00473534
0.000353378
0.377163
-0.0037633
-0.000769647
0.332915
-0.00196215
-0.00187253
0.289447
0.00104779
-0.00305959
0.240172
0.00376085
-0.00327169
0.213009
0.00529832
-0.00263423
0.246229
0.00611169
-0.000777775
0.324146
0.00657558
-0.00210969
0.414034
0.00659458
-0.00210657
0.441467
0.00625083
-0.00185074
0.431794
0.00592702
-0.00169424
0.439406
0.00626201
-0.00262393
0.348294
0.00719467
-0.00311919
0.286015
0.00758747
-0.00304045
0.254294
0.0070241
-0.00338503
0.161822
0.00842142
-0.00497801
0.0870184
0.00942437
-0.00537272
0.017812
0.00963759
-0.00205906
-0.0405769
0.00402816
-0.000851855
-0.0413383
0.00548362
0.00175456
0.00128779
0.00590491
-0.00432963
0.0572213
0.0102181
-0.0107946
0.0929678
0.0160544
-0.00919387
0.13052
0.0176969
-0.00221532
0.161552
0.0147982
0.00255125
0.186898
0.00965711
0.0036663
0.214965
0.00165288
0.00424999
0.246741
-0.0097896
0.00585257
0.273911
-0.0242628
0.0078555
0.292357
-0.041235
0.00934532
0.309261
-0.060013
0.0105972
0.322963
-0.0797846
0.0116993
0.334067
-0.0994152
0.0126943
0.346224
-0.117628
0.0137397
0.358448
-0.133458
0.0148869
0.367482
-0.146685
0.0160498
0.368657
-0.157879
0.0173305
0.369517
-0.168085
0.018847
0.362745
-0.178277
0.0190294
0.344946
-0.189387
0.0175008
0.365704
-0.205813
0.0140396
0.370456
-0.240096
0.00691072
0.318795
-0.303967
0.00823584
0.312676
-0.389481
0.0708344
0.380885
-0.518085
0.238432
0.498846
-0.699541
0.391931
0.507384
-0.886409
0.329893
0.33985
-1.00592
0.175084
0.13041
0.069404
0.00491955
0.00790697
1.83854e-05
0.000613439
0.00787257
8.27757e-05
-0.000849385
0.00782507
0.000182437
-0.00371153
0.00773639
0.000386282
-0.00563815
0.00750576
0.000847485
-0.00106233
0.00707373
0.00159997
0.0107346
0.00599888
0.00211101
0.0715459
0.00444058
0.00162445
0.221456
0.00186294
0.0047434
0.284973
-0.00103643
0.00690141
0.279506
-0.000893018
0.00101582
0.197074
-0.00111073
-0.00137382
0.0495482
-0.000577552
-0.000615046
-0.0565156
-0.000107465
-0.00210338
-0.133362
0.00106378
-0.00471043
-0.17801
0.00170659
-0.00487371
-0.167735
0.00253136
-0.00416579
-0.114696
0.00309592
-0.0039436
-0.0555978
0.0017529
-0.000748803
0.207266
-0.00188639
0.000981408
0.278525
-0.00510589
0.00121832
0.251449
-0.00824181
0.00190157
0.202527
-0.0118834
0.00118186
0.134426
-0.015681
0.00103945
0.101832
-0.0197212
0.00166293
0.0633756
-0.0245543
0.00176722
0.0413388
-0.0301793
0.000404716
0.0475031
-0.0361714
0.000354588
0.059799
-0.0409402
0.00269696
0.0842259
-0.046474
0.00481929
0.102924
-0.0522061
0.00749395
0.120804
-0.0605735
0.00262841
0.144289
-0.0712192
-0.00226213
0.167364
-0.0819158
-0.00070243
0.188446
-0.0910663
0.00498355
0.206273
-0.0998587
0.00977379
0.224261
-0.109457
0.011833
0.245879
-0.119925
0.0132753
0.270559
-0.132138
0.0165782
0.299151
-0.146575
0.0207245
0.330988
-0.162974
0.0240101
0.365896
-0.180915
0.0266069
0.401237
-0.199798
0.0285002
0.435989
-0.218696
0.0295104
0.471231
-0.236569
0.0297933
0.505932
-0.252637
0.0296986
0.537355
-0.266561
0.029495
0.563106
-0.27847
0.0296056
0.585613
-0.289096
0.0306821
0.604587
-0.29932
0.0309397
0.62256
-0.310528
0.0300925
0.65004
-0.32531
0.0292947
0.666804
-0.348748
0.0286275
0.670754
-0.387427
0.0410874
0.676529
-0.444885
0.119097
0.671133
-0.511758
0.298099
0.719755
-0.550552
0.431632
0.896329
-0.524909
0.312218
1.29317
-0.449411
0.113361
1.91113
0.0396925
2.36102
0.0079381
1.94469e-05
0.000280088
0.00791821
5.67905e-05
-0.00168699
0.00788847
0.000193618
-0.004574
0.00784422
0.00045573
-0.00642727
0.00777916
0.000990622
-0.00300857
0.00760226
0.00193317
0.00802636
0.00691272
0.00364824
0.0449759
0.00556243
0.00408681
0.190161
0.0037151
0.00608514
0.256973
0.00252235
0.00690381
0.194364
0.0014686
0.00471356
-0.105024
-4.05504e-05
0.000360859
-0.222708
3.51267e-05
-0.000521351
-0.228102
-0.000270898
-0.00212544
-0.285388
-0.00103615
-0.00441714
-0.320619
-0.00239473
-0.00426238
-0.31875
-0.00366631
-0.00347902
-0.294642
-0.00410544
-0.00327387
-0.229366
-0.00405424
-0.000294153
-0.190229
-0.00561442
0.00294119
-0.132452
-0.00782718
0.00419951
-0.0812066
-0.0103787
0.00454873
-0.0372268
-0.0135774
0.00401942
-0.0299178
-0.0172387
0.004568
-0.0262365
-0.0215921
0.00572215
-0.0144608
-0.0259129
0.00580656
0.00275627
-0.0310136
0.0051769
0.0188073
-0.0358167
0.00455263
0.0363833
-0.0395391
0.00572769
0.0544928
-0.04365
0.00844689
0.0751579
-0.0481322
0.0120365
0.100358
-0.0538442
0.00808627
0.12239
-0.0608331
0.00385787
0.140488
-0.0686768
0.00574227
0.159279
-0.0767111
0.0110912
0.178808
-0.0850815
0.0159889
0.201643
-0.0940088
0.0185776
0.229873
-0.103792
0.0206963
0.254602
-0.114957
0.0253299
0.278764
-0.127383
0.0307223
0.302464
-0.140602
0.0347897
0.326605
-0.1545
0.0380341
0.34811
-0.168862
0.0402398
0.365765
-0.18314
0.0408959
0.382289
-0.196678
0.040087
0.398642
-0.20898
0.0383148
0.413336
-0.219771
0.0360721
0.426651
-0.229011
0.0340426
0.440121
-0.23723
0.0336771
0.454273
-0.244591
0.0331931
0.474633
-0.251951
0.0324614
0.48763
-0.26211
0.0342975
0.474608
-0.280398
0.0422645
0.464778
-0.31151
0.0687244
0.497663
-0.350795
0.155368
0.573498
-0.376153
0.320241
0.676471
-0.361442
0.415027
0.811648
-0.313237
0.258753
0.918909
-0.279632
0.0614601
0.766736
0.0253402
0.491209
0.00793616
1.70436e-05
-8.32099e-05
0.00792422
3.69401e-05
-0.00252995
0.00792452
0.000191939
-0.00682275
0.00794474
0.000485372
-0.0106438
0.00800176
0.00102785
-0.00992046
0.00810933
0.00202638
0.000776107
0.00825451
0.00392222
0.0226294
0.00802946
0.00501755
0.0992403
0.00722457
0.00677876
0.168182
0.00676254
0.00639819
0.144642
0.00656719
0.00488567
0.0149001
0.00570477
0.00288533
-0.111957
0.00408366
0.000873819
-0.199586
0.00168817
-0.000104782
-0.241792
-0.00179312
-0.00108054
-0.299326
-0.00532975
-0.00119909
-0.353135
-0.00811041
-0.00117345
-0.381184
-0.0098133
-0.00186034
-0.398433
-0.00967903
-0.00044221
-0.371471
-0.00907961
0.00244766
-0.317784
-0.00873227
0.00384946
-0.275853
-0.00808622
0.00345121
-0.247048
-0.00797231
0.00287385
-0.195535
-0.0089815
0.00495771
-0.158115
-0.0101994
0.00697021
-0.125085
-0.0113463
0.00718494
-0.0939464
-0.0133301
0.00724028
-0.0659881
-0.0159952
0.00786223
-0.039766
-0.0177094
0.00948603
-0.0231965
-0.0204559
0.0112745
-0.00238664
-0.023625
0.0122807
0.0251132
-0.028214
0.0110061
0.0425954
-0.034511
0.00974862
0.0632012
-0.0408751
0.0112414
0.0873682
-0.046512
0.0150842
0.105943
-0.0521307
0.0191741
0.124444
-0.0577008
0.0217623
0.156048
-0.0638257
0.0244917
0.182279
-0.0712812
0.0304707
0.206167
-0.0795073
0.0365422
0.229787
-0.0876619
0.0405964
0.254525
-0.0958946
0.0440043
0.274301
-0.104298
0.0463237
0.287245
-0.112565
0.0466921
0.297491
-0.120319
0.0451914
0.306771
-0.127355
0.0424314
0.313067
-0.133583
0.0390407
0.318149
-0.139025
0.0357345
0.322041
-0.144472
0.0345413
0.323635
-0.149364
0.0335953
0.348732
-0.153716
0.0327096
0.353668
-0.159483
0.0363102
0.310682
-0.171163
0.0513354
0.288921
-0.191087
0.0873646
0.339579
-0.211646
0.174738
0.448166
-0.212439
0.318896
0.577121
-0.176034
0.373863
0.676496
-0.116522
0.188215
0.568718
-0.109729
0.0531577
-0.000940762
0.005518
-0.472049
0.00793639
1.46417e-05
-0.000106533
0.00793613
2.59451e-05
-0.00215407
0.00796436
0.00016917
-0.00625473
0.00803033
0.000452768
-0.0100836
0.0081584
0.000965632
-0.01249
0.00845946
0.00185649
-0.00735613
0.00905968
0.00354312
0.00306409
0.00962311
0.00495249
0.0445543
0.0101711
0.00627355
0.0992272
0.0104014
0.00561632
0.101242
0.0106604
0.0040648
0.0643698
0.011232
0.00258153
0.0186247
0.0110091
0.00173272
-0.00271331
0.0102517
0.00132355
-0.0294065
0.00911679
0.00087971
-0.0768972
0.00777399
0.00118362
-0.197997
0.0055678
0.00112713
-0.286166
0.0024646
0.000709911
-0.327277
-0.000706097
0.00192865
-0.38228
-0.00275376
0.00356342
-0.40762
-0.00287516
0.00338525
-0.383083
-0.00197966
0.00189824
-0.331838
-0.00112127
0.00109611
-0.270506
-0.000392296
0.00296778
-0.237373
2.79742e-05
0.00571152
-0.216249
-0.000386444
0.00699947
-0.206731
-0.00146566
0.00794794
-0.189307
-0.00295904
0.00943628
-0.142541
-0.0040023
0.0115447
-0.137733
-0.00398528
0.0134646
-0.139581
-0.00324512
0.0138829
-0.107644
-0.00394128
0.0135739
-0.0702817
-0.0071765
0.0141291
-0.0419519
-0.0137016
0.0152348
0.00584598
-0.0191677
0.0171496
0.0264813
-0.021304
0.01664
0.035891
-0.020834
0.0171267
0.0688403
-0.0208674
0.0207904
0.102184
-0.023072
0.0298555
0.139228
-0.0261053
0.0365051
0.170229
-0.0283175
0.0401544
0.200512
-0.0303467
0.0439684
0.223663
-0.0325622
0.0465495
0.232808
-0.0346659
0.0467584
0.237711
-0.0364287
0.045042
0.242936
-0.0379059
0.0420295
0.240311
-0.0393055
0.0385989
0.231776
-0.0411031
0.0350163
0.208618
-0.0432144
0.0292129
0.158509
-0.0443034
0.0296229
0.225791
-0.0467503
0.0327928
0.271131
-0.0500489
0.0360534
0.169019
-0.0547389
0.0512005
0.10465
-0.0620217
0.0956776
0.157189
-0.0641755
0.179115
0.283078
-0.0435065
0.298315
0.429672
0.0221827
0.30502
0.553796
0.065089
0.138476
0.530901
0.0757279
0.0453461
0.587638
0.0247286
0.152025
0.00794035
1.24004e-05
0.000206597
0.00795126
5.70819e-06
-0.00104745
0.00800517
0.000123349
-0.00359648
0.00812359
0.000353557
-0.00526506
0.00832523
0.000771824
-0.00797781
0.008736
0.00147591
-0.00786128
0.00958873
0.00277295
-0.00635304
0.0106616
0.00409219
0.00888673
0.0118903
0.00516794
0.0395543
0.0128729
0.00443536
0.052324
0.0134323
0.00328401
0.049862
0.0137005
0.00227331
0.0394627
0.0138826
0.00159936
0.0285965
0.0141488
0.00105823
0.0174222
0.0146157
0.00130777
0.0073666
0.0152061
0.00311026
-0.0183816
0.0147222
0.00404838
-0.0516441
0.0135377
0.00372793
-0.100295
0.012237
0.00404104
-0.163469
0.011544
0.00457223
-0.236344
0.011297
0.00349275
-0.264006
0.0105859
0.00213176
-0.277057
0.00916105
0.00170539
-0.268117
0.00869018
0.00250473
-0.28219
0.00959355
0.00372458
-0.257529
0.0103386
0.00531339
-0.247178
0.0105547
0.00691179
-0.248306
0.0105063
0.00885188
-0.215173
0.0109777
0.0110387
-0.209409
0.0123642
0.0128739
-0.232194
0.0139595
0.0135407
-0.222435
0.0150212
0.0141439
-0.195873
0.0152244
0.0157509
-0.164957
0.0146701
0.0174018
-0.125142
0.0150264
0.0186548
-0.0959019
0.0147697
0.0184873
-0.0943572
0.0136693
0.0195061
-0.0726674
0.0128949
0.0231882
-0.0420627
0.0142426
0.0264053
0.0262866
0.0186292
0.0277016
0.0735158
0.0245262
0.0294325
0.114931
0.0298219
0.0346677
0.150989
0.0341039
0.0392695
0.171938
0.0379316
0.0404973
0.183147
0.0417747
0.0391082
0.192724
0.0456171
0.0364441
0.195318
0.0493782
0.0333954
0.193931
0.0523178
0.0309533
0.181989
0.0532476
0.0278015
0.105739
0.0545321
0.0254329
0.0947349
0.0564889
0.0258706
0.17317
0.0525756
0.0350028
0.174873
0.0488999
0.0485884
-0.0172535
0.0522753
0.0921362
-0.0838715
0.0773867
0.162175
0.0732404
0.129136
0.252332
0.252653
0.203403
0.229232
0.374719
0.239275
0.101442
0.426634
0.237819
0.0396902
0.51245
0.0251013
0.447079
0.00791673
6.46228e-05
0.000540768
0.00792623
3.42927e-05
-0.000359445
0.00799809
0.000107846
-0.00223559
0.00816535
0.000266207
-0.0024519
0.00843776
0.000552424
-0.00500671
0.0089228
0.00102242
-0.00726378
0.00987786
0.00186781
-0.00992338
0.0113091
0.00271208
-0.00892789
0.0130548
0.00343811
0.00193043
0.0142919
0.00302457
0.00986366
0.0151789
0.00198751
0.0120106
0.0157133
0.00109055
0.0084062
0.0159921
0.000651607
0.00166754
0.0165098
0.000771938
-0.00827175
0.0169098
0.00129999
-0.0138594
0.0176703
0.00278608
-0.0202676
0.0182515
0.00348386
-0.027185
0.0183033
0.00330493
-0.0379454
0.0184141
0.00352472
-0.0589704
0.0190339
0.00385231
-0.0949078
0.0195431
0.00288089
-0.116234
0.0195942
0.00204151
-0.122263
0.0194214
0.00202093
-0.120393
0.0195721
0.0026431
-0.142366
0.0202723
0.0032592
-0.17733
0.0213152
0.00419098
-0.210458
0.0226035
0.00534447
-0.235963
0.024229
0.00678206
-0.228171
0.0264241
0.00855165
-0.221226
0.0291016
0.0100385
-0.231616
0.0317474
0.0108199
-0.237589
0.0341548
0.0118766
-0.235608
0.0366801
0.013789
-0.226826
0.0395416
0.0157084
-0.207421
0.0428635
0.0169756
-0.186844
0.0456597
0.0171624
-0.176955
0.048
0.0184109
-0.163252
0.0508824
0.0218801
-0.143671
0.0550523
0.0241283
-0.115522
0.0599601
0.0243294
-0.0823154
0.0653025
0.0249644
-0.0419365
0.072835
0.0266149
0.00924116
0.0823107
0.0276807
0.0511041
0.0929891
0.0266448
0.0791738
0.103355
0.0251124
0.0993319
0.112912
0.0233591
0.112204
0.121496
0.0216562
0.121286
0.128901
0.0210723
0.12457
0.134775
0.0207801
0.0955331
0.139575
0.019636
0.0718956
0.143804
0.0196454
0.095738
0.146912
0.028921
0.110708
0.149275
0.0435733
0.0294525
0.16194
0.0747712
-0.0775595
0.200878
0.126457
-0.0810162
0.279306
0.182558
0.0329617
0.357926
0.1557
0.11974
0.39038
0.0693659
0.159258
0.397299
0.028246
0.176743
0.0174422
0.176848
0.00795617
8.45364e-06
0.000293796
0.00796156
-3.42035e-05
-0.000474767
0.00802884
1.53705e-05
-0.00102663
0.00822705
9.23115e-05
0.000132562
0.00854621
0.000255673
-0.00160987
0.00907725
0.000506117
-0.00413916
0.0100344
0.000936046
-0.00785748
0.0114219
0.00135766
-0.0141331
0.013185
0.00170395
-0.0172093
0.0146916
0.0015051
-0.0187346
0.0156432
0.00102624
-0.0222755
0.0161463
0.000610102
-0.0287496
0.0164278
0.000457446
-0.0373423
0.0167255
0.000596249
-0.0456251
0.0171955
0.000901333
-0.0479478
0.0183798
0.00179199
-0.04479
0.0196947
0.0023
-0.0374912
0.0206902
0.00215727
-0.0322652
0.0217893
0.00208767
-0.0312208
0.0232739
0.00202451
-0.0362585
0.0244717
0.00137052
-0.0398286
0.0253929
0.000872858
-0.0416596
0.0264892
0.0008883
-0.0381203
0.0279401
0.00153809
-0.0439526
0.0292755
0.00238501
-0.0588928
0.0305499
0.00326729
-0.0863563
0.0323937
0.00379732
-0.12228
0.0351878
0.00426172
-0.143257
0.0387115
0.00517639
-0.15668
0.0425553
0.00615717
-0.169357
0.0462342
0.00697729
-0.176792
0.0497008
0.0081443
-0.180932
0.0532693
0.00983987
-0.184035
0.0573232
0.0115085
-0.181959
0.0618558
0.0124985
-0.174767
0.0664325
0.0126309
-0.169384
0.0715841
0.0133354
-0.164214
0.0785166
0.0152765
-0.158051
0.0869578
0.0162895
-0.15153
0.0958299
0.0160399
-0.14306
0.105139
0.0161922
-0.129376
0.115543
0.0166691
-0.109799
0.126827
0.016561
-0.08881
0.137655
0.0155504
-0.0699354
0.147713
0.0144504
-0.0536171
0.15693
0.013336
-0.0403402
0.165403
0.0123026
-0.0282118
0.173728
0.0116972
-0.0178068
0.181986
0.0112204
-0.0227017
0.18985
0.0105973
-0.0314511
0.197667
0.0111525
-0.0217429
0.20983
0.0160321
-0.00921849
0.227207
0.0247099
-0.0261053
0.257846
0.0415237
-0.0736976
0.31362
0.0695799
-0.114545
0.402178
0.0965113
-0.10482
0.481716
0.0802202
-0.0843388
0.51463
0.0382518
-0.0847084
0.527187
0.0163795
-0.0983876
0.00973497
-0.107062
0.00799383
0.000383111
0.00798515
-0.00080569
0.00804377
-0.00105637
0.00820844
0.000745703
0.00851608
-0.00097504
0.0090565
-0.00302091
0.0100306
-0.00510053
0.0114056
-0.0116079
0.0131404
-0.0174288
0.0146773
-0.0209104
0.0157122
-0.0238253
0.0163074
-0.0265109
0.0167021
-0.0287246
0.0171724
-0.0294513
0.0178409
-0.0262777
0.0193517
-0.0213085
0.0211046
-0.0134015
0.0226215
-0.00574501
0.024151
-3.02526e-05
0.0260185
0.00482964
0.0275306
0.00832542
0.028683
0.0118533
0.0299282
0.0193566
0.0319087
0.0216471
0.0348628
0.0172422
0.0386065
0.00732199
0.0425079
-0.00385544
0.0464744
-0.00673756
0.0505177
-0.0113051
0.0543791
-0.0197771
0.0576185
-0.0275834
0.0603483
-0.0358941
0.0628029
-0.0448083
0.0655911
-0.0508238
0.0689757
-0.0522785
0.0726975
-0.052587
0.0777864
-0.0533486
0.0860775
-0.0560301
0.0970147
-0.0613325
0.109525
-0.0693478
0.123737
-0.0785483
0.139344
-0.0858068
0.15526
-0.0913259
0.170316
-0.0960437
0.184283
-0.0997939
0.197164
-0.102397
0.209109
-0.102879
0.220604
-0.102737
0.231656
-0.110236
0.242014
-0.119407
0.252903
-0.118931
0.268823
-0.116939
0.293274
-0.128944
0.334039
-0.157864
0.402787
-0.191142
0.499472
-0.210627
0.580449
-0.218498
0.618774
-0.232144
0.635256
-0.248918
-0.255439
0.00797012
1.70298e-05
0.00792057
7.51115e-05
0.00784937
0.000108561
0.00771931
0.000179942
0.00748697
0.000317085
0.00706978
0.000534579
0.00757195
-0.000224198
0.00870152
-0.00103553
0.0102034
-0.00140535
0.0115547
-0.000444365
0.0122244
0.000377021
0.0120497
0.000964228
0.0119313
0.000221207
0.0120074
-0.000126
0.0123099
-0.000495521
0.0130132
-0.00101477
0.0139762
-0.00140727
0.0141735
-4.61101e-05
0.0150775
-0.000769575
0.0161548
-0.000723091
0.0171756
-0.000758631
0.0182095
-0.000998171
0.0193899
-0.00145749
0.0205472
-0.00144867
0.0218747
-0.00173631
0.0239876
-0.0029046
0.0264466
-0.00339049
0.0282899
-0.0029708
0.0304928
-0.00270972
0.0317309
-0.00232287
0.0383861
-0.00546756
0.0485479
-0.00926493
0.0566087
-0.0083168
0.0591637
-0.00329224
0.0591491
-0.000278339
0.0606423
-0.000331495
0.0644838
-0.00127055
0.0706059
-0.0032378
0.0777727
-0.00479546
0.0855408
-0.00597627
0.0941252
-0.00739947
0.103406
-0.00851607
0.113181
-0.00881888
0.123193
-0.00765324
0.13232
-0.0046701
0.138965
-0.00111852
0.143346
0.00253851
0.145763
0.0061224
0.146297
0.00921314
0.146903
0.0117794
0.149429
0.0120845
0.166936
0.00592232
0.210142
-0.0159551
0.273209
-0.0491305
0.301847
-0.020974
0.210549
0.103054
0.027281
0.22062
-0.134201
0.16919
-0.213445
0.0741046
0.0212064
0.00793649
-3.67576e-05
0.00790386
3.68362e-05
0.00784756
0.000136125
0.00775259
0.000291936
0.00758869
0.000556905
0.00712359
0.00107641
0.00763173
0.000131471
0.00803653
-0.000778795
0.00509474
0.00222949
-0.000847013
0.00522351
-0.00412937
0.00318467
-0.00473713
0.00124141
-0.00372018
-0.00108067
-0.00188888
-0.00208766
0.00106337
-0.00312385
0.00369527
-0.00329872
0.00539227
-0.00271397
0.00626152
-0.000834391
0.00679246
-0.00200074
0.00678594
-0.00187625
0.00640155
-0.0016112
0.00603781
-0.00153749
0.00634021
-0.00245236
0.00723533
-0.00295424
0.00765926
-0.00310659
0.0072454
-0.00356457
0.0084084
-0.00548535
0.00836601
-0.00609505
0.00787058
-0.00135091
0.00542264
0.000327086
0.0096742
0.00476261
0.00863509
-0.000310472
0.00895037
-0.01048
0.0144269
-0.0114548
0.0179065
-0.00379828
0.016184
0.00260375
0.0116598
0.00428779
0.00406441
0.00490271
-0.00745734
0.00629922
-0.0222113
0.00789362
-0.0394598
0.00881462
-0.0585749
0.00950817
-0.0787362
0.010244
-0.0985149
0.0113053
-0.11601
0.0130577
-0.130363
0.0155259
-0.141985
0.0185726
-0.151724
0.0221652
-0.161031
0.0263152
-0.171125
0.0293703
-0.183551
0.0303544
-0.201639
0.0289212
-0.232556
0.0214845
-0.287943
0.0145113
-0.372029
0.0596116
-0.499406
0.220028
-0.673965
0.391988
-0.867755
0.339425
-0.994307
0.183171
0.0720711
0.00789518
9.41157e-06
0.00787391
7.38735e-05
0.00784679
0.000190563
0.00778676
0.000379564
0.00756154
0.000792128
0.00708086
0.00171652
0.00607194
0.00233842
0.00453251
0.00168872
0.0019932
0.00473455
-0.000855975
0.00702261
-0.000775942
0.0012955
-0.00111599
-0.00138164
-0.000577928
-0.00151632
-0.000200843
-0.00290549
0.00108407
-0.00519758
0.00188672
-0.00523944
0.00233012
-0.00480346
0.003051
-0.00373475
0.00214928
-0.000912568
-0.0015518
0.00093658
-0.00486522
0.00126255
-0.00803848
0.00199653
-0.0116429
0.00140069
-0.0155057
0.00107147
-0.0197246
0.00148887
-0.0244638
0.00135498
-0.0300901
9.10489e-05
-0.0363743
-0.000283276
-0.0410957
0.00262743
-0.0468097
0.00573858
-0.0526887
0.0113707
-0.0615129
0.00628664
-0.0722788
-0.00137203
-0.0832768
-0.00182006
-0.0922551
0.00376579
-0.100622
0.00959521
-0.110025
0.0122553
-0.12038
0.0136991
-0.132569
0.016843
-0.147042
0.020669
-0.163396
0.023451
-0.181159
0.0255735
-0.199747
0.0272655
-0.218231
0.0285602
-0.235564
0.029759
-0.251032
0.0311971
-0.264383
0.0331227
-0.27583
0.0358566
-0.286288
0.0398901
-0.296559
0.0429695
-0.30799
0.0439067
-0.322864
0.0435749
-0.345338
0.0405321
-0.381586
0.0449966
-0.43813
0.11238
-0.504967
0.288186
-0.546278
0.435343
-0.530485
0.329594
-0.460806
0.126397
0.044749
0.00792915
7.81595e-06
0.00792574
7.3833e-05
0.00791154
0.000217596
0.00788255
0.000437031
0.00782574
0.000893819
0.00763937
0.00189799
0.00698848
0.00366829
0.00563285
0.00407906
0.00380521
0.00610888
0.00248355
0.00712933
0.0013437
0.00490497
3.69152e-06
6.85516e-05
-3.1861e-05
-0.00151525
-0.000326203
-0.00290168
-0.00102379
-0.00491493
-0.00231408
-0.00474965
-0.00369097
-0.00446056
-0.00435157
-0.00424404
-0.0046969
-0.00115347
-0.00643402
0.00278007
-0.00874977
0.00430734
-0.0111906
0.00473396
-0.0142419
0.00421988
-0.0176159
0.00480411
-0.0215638
0.00586178
-0.0255015
0.00562844
-0.0304742
0.00525165
-0.035451
0.00490503
-0.0392857
0.00659893
-0.0438551
0.0100218
-0.0484678
0.0146842
-0.0541939
0.0104807
-0.0614786
0.00458636
-0.0700328
0.00532384
-0.0787178
0.0108693
-0.0875123
0.0165012
-0.0966018
0.0193353
-0.106371
0.0214385
-0.117596
0.0259545
-0.130136
0.031015
-0.143414
0.0344968
-0.157383
0.0371459
-0.171893
0.0390158
-0.186385
0.0397431
-0.200134
0.0394871
-0.212598
0.0387949
-0.223495
0.0382582
-0.23272
0.0385871
-0.240852
0.0409549
-0.247932
0.0426475
-0.25476
0.0432025
-0.263769
0.0454903
-0.279882
0.0514651
-0.308622
0.0715184
-0.347915
0.149764
-0.374843
0.312903
-0.364752
0.420967
-0.322779
0.274084
-0.288583
0.0655771
0.0249675
0.00793021
1.67941e-05
0.00793192
8.20469e-05
0.0079431
0.000246119
0.00796548
0.000484896
0.0080439
0.000930147
0.00813634
0.00181353
0.00831218
0.00383318
0.00807115
0.00501102
0.00728894
0.00678462
0.00690943
0.00660851
0.00657961
0.00506913
0.0055913
0.00301848
0.00401379
0.000789942
0.00163654
-0.000522665
-0.00183263
-0.00149639
-0.00537359
-0.00162906
-0.00822881
-0.0020169
-0.009984
-0.00264325
-0.00998216
-0.00110774
-0.00941297
0.00233881
-0.00903477
0.0040065
-0.00831899
0.00382116
-0.00817123
0.00345684
-0.00921267
0.00563842
-0.0105114
0.00756777
-0.0118725
0.00748327
-0.0140228
0.0074691
-0.0167017
0.00804309
-0.0189275
0.00955235
-0.0222109
0.0117014
-0.0250861
0.0124718
-0.0286266
0.0108778
-0.0347484
0.00974369
-0.0422455
0.0119177
-0.0490693
0.0158297
-0.055441
0.0203415
-0.0612646
0.022843
-0.0674112
0.0253915
-0.0750218
0.0311817
-0.0834526
0.0370485
-0.0917142
0.0405583
-0.100102
0.0433325
-0.108827
0.0452786
-0.117565
0.0456253
-0.125848
0.0443802
-0.133391
0.042169
-0.140104
0.039772
-0.145873
0.0379977
-0.151365
0.0389553
-0.155809
0.0395289
-0.15934
0.0392425
-0.163448
0.0426739
-0.172544
0.0569426
-0.190321
0.089779
-0.210829
0.170724
-0.213157
0.312186
-0.181584
0.382319
-0.127225
0.206769
-0.103724
0.0547467
0.00226541
0.00793217
2.43145e-05
0.00794217
7.21461e-05
0.00797836
0.000242267
0.00803522
0.000492005
0.00815309
0.000912306
0.00843579
0.00166847
0.00912153
0.00336104
0.00966598
0.00492597
0.0102125
0.0063037
0.0104378
0.0058347
0.0108033
0.00461031
0.0112341
0.00309148
0.0108366
0.00214171
0.00993972
0.00133129
0.00889341
0.00107628
0.00760956
0.00116435
0.00542078
0.000652397
0.00236764
0.000158596
-0.000841832
0.00128833
-0.00291057
0.00345938
-0.0030178
0.00357407
-0.00211307
0.00232705
-0.00127771
0.00184846
-0.00055529
0.00387161
-0.000191417
0.00652477
-0.000736974
0.00757245
-0.00186847
0.00840631
-0.00333111
0.00979859
-0.00448425
0.0114127
-0.00458949
0.0128351
-0.00402537
0.0129468
-0.00486513
0.0126745
-0.00968587
0.0136199
-0.0175532
0.0153789
-0.0230644
0.0172892
-0.0257059
0.0174144
-0.0254357
0.0181769
-0.0251728
0.021777
-0.0274246
0.0304631
-0.0306588
0.0377071
-0.0329036
0.0407917
-0.0350327
0.0436932
-0.0375874
0.0458791
-0.0402532
0.0461272
-0.0427051
0.0446496
-0.0449849
0.0420404
-0.0474717
0.0393912
-0.0504881
0.0364934
-0.0528361
0.0298713
-0.0529559
0.0320969
-0.0552842
0.0379994
-0.0574771
0.0393962
-0.0591585
0.0572428
-0.0636812
0.0973595
-0.0648452
0.175196
-0.0459332
0.292318
0.0136118
0.31308
0.0544952
0.152701
0.0584937
0.0490151
0.0241162
0.00793448
1.9071e-05
0.00795467
3.12832e-05
0.00801785
0.000188892
0.00811626
0.00041696
0.00830296
0.00076845
0.00868018
0.00136939
0.00954221
0.00264709
0.010735
0.00399868
0.0119702
0.00519758
0.0129257
0.0045794
0.0134768
0.00363726
0.0137695
0.0027685
0.0139681
0.00197054
0.0143417
0.00121431
0.0145546
0.0015007
0.0146243
0.00310977
0.0141958
0.00357381
0.0131993
0.00304143
0.0120701
0.00343338
0.0114329
0.00427397
0.0112092
0.00345529
0.0104609
0.00243116
0.00896177
0.00239782
0.00846604
0.00343604
0.00935655
0.00458588
0.0100548
0.00592173
0.0102715
0.00737566
0.0102734
0.00924043
0.0107993
0.0110442
0.0122249
0.0122617
0.0137684
0.0122918
0.0148411
0.0123628
0.0152879
0.0138107
0.0153554
0.015809
0.0161966
0.0172505
0.0164759
0.0177439
0.0152492
0.0194364
0.0117143
0.0235772
0.0105476
0.0266837
0.0131202
0.0282101
0.0188326
0.0298254
0.0243081
0.0346468
0.0285355
0.039116
0.0319503
0.0405776
0.0352201
0.039294
0.0384385
0.0368591
0.0416306
0.0343082
0.0441021
0.0326682
0.0440296
0.029592
0.0442894
0.0271425
0.0464098
0.0277446
0.0453046
0.0368942
0.0493522
0.0554041
0.0538984
0.0953586
0.0771464
0.158111
0.125448
0.24566
0.19551
0.234948
0.228717
0.107177
0.230494
0.0413064
0.0238877
0.00790727
6.16404e-05
0.0079253
3.3755e-05
0.00800929
0.000141421
0.00814775
0.000317352
0.00840227
0.00056046
0.00885789
0.000969957
0.00976393
0.00180682
0.0112233
0.00266012
0.0131304
0.00342769
0.0144144
0.00313082
0.015239
0.00214515
0.0156831
0.00128319
0.0159182
0.000838973
0.0162866
0.000778169
0.0164764
0.00120212
0.0171131
0.00288386
0.0177056
0.00337392
0.0178992
0.00299945
0.0181848
0.00319391
0.0188748
0.00360775
0.0194091
0.00267083
0.0194188
0.00194302
0.0191435
0.00214313
0.0192137
0.00305517
0.0198996
0.00379861
0.0209774
0.00462799
0.0223499
0.00563236
0.0240657
0.0069369
0.0263296
0.00830421
0.0290553
0.00921563
0.0317537
0.00936142
0.034282
0.00972713
0.0370735
0.0110244
0.0403781
0.0127412
0.0441056
0.0139851
0.0475341
0.0147028
0.0508252
0.0165879
0.0542042
0.0204515
0.0581439
0.0229016
0.0623051
0.0237718
0.0655627
0.0253433
0.0698701
0.0273312
0.0764286
0.0281913
0.0852333
0.0271365
0.0945567
0.0256447
0.103548
0.0240199
0.111808
0.0225532
0.118992
0.0223829
0.124678
0.0225356
0.129434
0.0213551
0.133447
0.0206436
0.13727
0.0298079
0.147528
0.0459202
0.169682
0.0766923
0.206344
0.126181
0.279289
0.178027
0.352567
0.157122
0.380888
0.0719309
0.387706
0.0292137
0.017581
0.00795
3.23133e-06
0.00796469
-3.82143e-05
0.0080397
2.69943e-05
0.00820929
0.000116276
0.00851082
0.000256183
0.00900659
0.000481442
0.00991308
0.000909698
0.0112845
0.00132511
0.0130234
0.00171503
0.0145363
0.00157725
0.0155084
0.00111589
0.0160342
0.000683318
0.0163134
0.000480872
0.0165201
0.000475425
0.0169285
0.000720457
0.0180245
0.00166762
0.0192588
0.00205403
0.0202755
0.00191546
0.0214842
0.00189916
0.0230411
0.00191189
0.0242733
0.00124665
0.0251347
0.000804977
0.0260008
0.000905949
0.0271312
0.00170216
0.0282996
0.0026264
0.0297152
0.00343342
0.0318606
0.00378875
0.0348595
0.00411545
0.0384771
0.00470228
0.0423442
0.00522871
0.0460753
0.00555429
0.0496986
0.00611752
0.0535868
0.00721011
0.0580437
0.00838091
0.0629563
0.00916302
0.0680636
0.00954521
0.0739284
0.0105855
0.0814614
0.0127075
0.0902956
0.0139006
0.099559
0.0142384
0.109144
0.0151948
0.119476
0.0161319
0.130452
0.0163189
0.141004
0.0156759
0.150788
0.0148001
0.159632
0.0138143
0.167476
0.0128567
0.175224
0.0122862
0.183812
0.0118235
0.192334
0.0110873
0.199588
0.0114337
0.210986
0.016256
0.230874
0.0254199
0.266301
0.0425095
0.324338
0.0703613
0.410148
0.0959147
0.487
0.0806002
0.52025
0.0388763
0.533008
0.0165559
0.00985388
0.00798612
0.00799273
0.00805444
0.00819375
0.0084927
0.00900171
0.00992037
0.0112783
0.0129989
0.0145457
0.0155963
0.0161972
0.0165638